REMARK  Name = resultss/4CJN/ligands/lig_266_t2.pdb
REMARK  8 active torsions:
REMARK  status: ('A' for Active; 'I' for Inactive)
REMARK    1  A    between atoms: C1_1  and  O1_2
REMARK    2  A    between atoms: O1_2  and  C2_3
REMARK    3  A    between atoms: C5_6  and  C6_7
REMARK    4  A    between atoms: C6_7  and  N1_8
REMARK    5  A    between atoms: C7_9  and  C8_11
REMARK    6  A    between atoms: C9_12  and  N2_13
REMARK    7  A    between atoms: C10_14  and  O3_15
REMARK    8  A    between atoms: C10_14  and  C11_16
REMARK                            x       y       z     vdW  Elec       q    Type
REMARK                         _______ _______ _______ _____ _____    ______ ____
ROOT
ATOM      1  C8  UNL     1       1.078  -0.549   0.155  0.00  0.00    +0.000 A 
ATOM      2  C9  UNL     1       2.189  -0.299   0.960  0.00  0.00    +0.000 A 
ATOM      3  S1  UNL     1       2.696  -1.741   1.676  0.00  0.00    +0.000 S 
ATOM      4  C16 UNL     1       1.444  -2.673   1.056  0.00  0.00    +0.000 A 
ATOM      5  C17 UNL     1       0.653  -1.894   0.214  0.00  0.00    +0.000 A 
ATOM      6  C18 UNL     1      -0.623  -2.437  -0.385  0.00  0.00    +0.000 C 
ATOM      7  C19 UNL     1      -0.646  -3.976  -0.388  0.00  0.00    +0.000 C 
ATOM      8  C20 UNL     1      -0.195  -4.550   0.965  0.00  0.00    +0.000 C 
ATOM      9  C21 UNL     1       1.250  -4.140   1.283  0.00  0.00    +0.000 C 
ENDROOT
BRANCH   1  11
ATOM     10  N1  UNL     1       0.075   0.292  -2.005  0.00  0.00    +0.000 N 
ATOM     11  C7  UNL     1       0.411   0.507  -0.628  0.00  0.00    +0.000 C 
ATOM     12  O2  UNL     1       0.170   1.620  -0.086  0.00  0.00    +0.000 OA
ATOM     13  H8  UNL     1       0.539  -0.486  -2.526  0.00  0.00    +0.000 HD
BRANCH  10  14
ATOM     14  C6  UNL     1      -0.925   1.099  -2.697  0.00  0.00    +0.000 C 
BRANCH  14  18
ATOM     15  C2  UNL     1      -4.827  -0.013  -1.216  0.00  0.00    +0.000 A 
ATOM     16  C3  UNL     1      -4.163  -0.819  -2.148  0.00  0.00    +0.000 A 
ATOM     17  C4  UNL     1      -2.909  -0.450  -2.640  0.00  0.00    +0.000 A 
ATOM     18  C5  UNL     1      -2.300   0.738  -2.209  0.00  0.00    +0.000 A 
ATOM     19  C22 UNL     1      -2.958   1.545  -1.268  0.00  0.00    +0.000 A 
ATOM     20  C23 UNL     1      -4.214   1.177  -0.777  0.00  0.00    +0.000 A 
BRANCH  15  22
ATOM     21  C1  UNL     1      -6.870   0.294   0.191  0.00  0.00    +0.000 C 
ATOM     22  O1  UNL     1      -6.085  -0.427  -0.753  0.00  0.00    +0.000 OA
ENDBRANCH  15  22
ENDBRANCH  14  18
ENDBRANCH  10  14
ENDBRANCH   1  11
BRANCH   2  23
ATOM     23  N2  UNL     1       2.925   0.931   0.951  0.00  0.00    +0.000 NA
ATOM     24  C10 UNL     1       3.600   1.452   1.937  0.00  0.00    +0.000 C 
BRANCH  24  25
ATOM     25  C11 UNL     1       4.406   2.675   1.704  0.00  0.00    +0.000 A 
ATOM     26  C12 UNL     1       4.454   3.289   0.438  0.00  0.00    +0.000 A 
ATOM     27  C13 UNL     1       5.221   4.439   0.244  0.00  0.00    +0.000 A 
ATOM     28  C14 UNL     1       5.937   4.972   1.315  0.00  0.00    +0.000 A 
ATOM     29  N3  UNL     1       5.885   4.373   2.534  0.00  0.00    +0.000 NA
ATOM     30  C15 UNL     1       5.146   3.252   2.750  0.00  0.00    +0.000 A 
ENDBRANCH  24  25
BRANCH  24  31
ATOM     31  O3  UNL     1       3.558   0.909   3.224  0.00  0.00    +0.000 OA
ATOM     32  H9  UNL     1       2.883   0.213   3.511  0.00  0.00    +0.000 HD
ENDBRANCH  24  31
ENDBRANCH   2  23
TORSDOF 7
