REMARK  Name = resultss/4CJN/ligands/lig_379_t0.pdb
REMARK  4 active torsions:
REMARK  status: ('A' for Active; 'I' for Inactive)
REMARK    1  A    between atoms: N1_1  and  S1_2
REMARK    2  A    between atoms: S1_2  and  C1_5
REMARK    3  A    between atoms: C4_8  and  N2_9
REMARK    4  A    between atoms: C8_15  and  C9_16
REMARK                            x       y       z     vdW  Elec       q    Type
REMARK                         _______ _______ _______ _____ _____    ______ ____
ROOT
ATOM      1  N2  UNL     1       1.281   0.041   1.790  0.00  0.00    +0.000 NA
ATOM      2  C5  UNL     1       0.083   0.015   1.283  0.00  0.00    +0.000 C 
ATOM      3  N3  UNL     1      -1.054  -0.129   2.123  0.00  0.00    +0.000 N 
ATOM      4  C6  UNL     1      -2.252  -0.026   1.377  0.00  0.00    +0.000 C 
ATOM      5  O3  UNL     1      -3.381  -0.029   1.936  0.00  0.00    +0.000 OA
ATOM      6  C7  UNL     1      -2.034   0.158  -0.062  0.00  0.00    +0.000 C 
ATOM      7  C8  UNL     1      -2.970   0.234  -1.020  0.00  0.00    +0.000 C 
ATOM      8  S2  UNL     1      -0.289   0.335  -0.456  0.00  0.00    +0.000 S 
ATOM      9  H5  UNL     1      -1.013  -0.250   3.159  0.00  0.00    +0.000 HD
ENDROOT
BRANCH   7  10
ATOM     10  C9  UNL     1      -4.412   0.006  -0.812  0.00  0.00    +0.000 A 
ATOM     11  C10 UNL     1      -4.882  -1.187  -0.235  0.00  0.00    +0.000 A 
ATOM     12  C11 UNL     1      -6.256  -1.407  -0.094  0.00  0.00    +0.000 A 
ATOM     13  C12 UNL     1      -7.169  -0.451  -0.548  0.00  0.00    +0.000 A 
ATOM     14  F1  UNL     1      -8.501  -0.667  -0.413  0.00  0.00    +0.000 F 
ATOM     15  C13 UNL     1      -6.708   0.723  -1.151  0.00  0.00    +0.000 A 
ATOM     16  C14 UNL     1      -5.335   0.947  -1.294  0.00  0.00    +0.000 A 
ENDBRANCH   7  10
BRANCH   1  20
ATOM     17  C1  UNL     1       4.976   0.373  -0.274  0.00  0.00    +0.000 A 
ATOM     18  C2  UNL     1       3.989  -0.499  -0.753  0.00  0.00    +0.000 A 
ATOM     19  C3  UNL     1       2.765  -0.610  -0.086  0.00  0.00    +0.000 A 
ATOM     20  C4  UNL     1       2.509   0.165   1.058  0.00  0.00    +0.000 A 
ATOM     21  C15 UNL     1       3.514   1.003   1.557  0.00  0.00    +0.000 A 
ATOM     22  C16 UNL     1       4.738   1.114   0.891  0.00  0.00    +0.000 A 
BRANCH  17  23
ATOM     23  S1  UNL     1       6.523   0.498  -1.105  0.00  0.00    +0.000 S 
ATOM     24  O1  UNL     1       7.114   1.861  -0.878  0.00  0.00    +0.000 OA
ATOM     25  O2  UNL     1       6.323   0.300  -2.582  0.00  0.00    +0.000 OA
BRANCH  23  26
ATOM     26  N1  UNL     1       7.601  -0.708  -0.497  0.00  0.00    +0.000 NA
ATOM     27  H1  UNL     1       7.174  -1.636  -0.713  0.00  0.00    +0.000 HD
ATOM     28  H2  UNL     1       8.480  -0.642  -1.057  0.00  0.00    +0.000 HD
ENDBRANCH  23  26
ENDBRANCH  17  23
ENDBRANCH   1  20
TORSDOF 4
