REMARK  Name = resultss/4CJN/ligands/lig_342_t2.pdb
REMARK  14 active torsions:
REMARK  status: ('A' for Active; 'I' for Inactive)
REMARK    1  A    between atoms: C1_1  and  O1_2
REMARK    2  A    between atoms: O1_2  and  C2_3
REMARK    3  A    between atoms: C4_5  and  C5_6
REMARK    4  A    between atoms: C12_14  and  O2_15
REMARK    5  A    between atoms: N2_16  and  N3_17
REMARK    6  A    between atoms: N3_17  and  C13_18
REMARK    7  A    between atoms: C21_26  and  O3_27
REMARK    8  A    between atoms: O3_27  and  C22_28
REMARK    9  A    between atoms: C22_28  and  C23_29
REMARK   10  A    between atoms: N4_31  and  C25_32
REMARK   11  A    between atoms: C25_32  and  C26_33
REMARK   12  A    between atoms: N5_35  and  C27_36
REMARK   13  A    between atoms: C30_39  and  C31_40
REMARK   14  A    between atoms: C33_42  and  C34_43
REMARK                            x       y       z     vdW  Elec       q    Type
REMARK                         _______ _______ _______ _____ _____    ______ ____
ROOT
ATOM      1  C2  UNL     1      -2.214   1.758  -1.572  0.00  0.00    +0.000 A 
ATOM      2  C3  UNL     1      -3.433   1.183  -1.164  0.00  0.00    +0.000 A 
ATOM      3  C4  UNL     1      -3.561  -0.210  -1.030  0.00  0.00    +0.000 A 
ATOM      4  C19 UNL     1      -2.476  -1.027  -1.371  0.00  0.00    +0.000 A 
ATOM      5  C20 UNL     1      -1.267  -0.466  -1.786  0.00  0.00    +0.000 A 
ATOM      6  C21 UNL     1      -1.119   0.931  -1.868  0.00  0.00    +0.000 A 
ENDROOT
BRANCH   3   7
ATOM      7  C5  UNL     1      -4.855  -0.824  -0.543  0.00  0.00    +0.000 C 
ATOM      8  N1  UNL     1      -5.871  -0.699  -1.582  0.00  0.00    +0.000 NA
ATOM      9  C6  UNL     1      -6.885   0.112  -1.537  0.00  0.00    +0.000 A 
ATOM     10  C7  UNL     1      -7.743   0.157  -2.643  0.00  0.00    +0.000 A 
ATOM     11  C8  UNL     1      -8.828   1.031  -2.662  0.00  0.00    +0.000 A 
ATOM     12  C9  UNL     1      -9.064   1.868  -1.576  0.00  0.00    +0.000 A 
ATOM     13  C10 UNL     1      -8.232   1.824  -0.455  0.00  0.00    +0.000 A 
ATOM     14  C11 UNL     1      -7.127   0.937  -0.408  0.00  0.00    +0.000 A 
ATOM     15  C12 UNL     1      -6.330   0.821   0.685  0.00  0.00    +0.000 C 
ATOM     16  N2  UNL     1      -5.287  -0.178   0.708  0.00  0.00    +0.000 N 
BRANCH  15  17
ATOM     17  O2  UNL     1      -6.484   1.626   1.824  0.00  0.00    +0.000 OA
ATOM     18  H10 UNL     1      -7.089   2.431   1.896  0.00  0.00    +0.000 HD
ENDBRANCH  15  17
BRANCH  16  19
ATOM     19  N3  UNL     1      -4.601  -0.435   1.916  0.00  0.00    +0.000 N 
ATOM     20  H11 UNL     1      -4.816   0.126   2.767  0.00  0.00    +0.000 HD
BRANCH  19  21
ATOM     21  C13 UNL     1      -3.888  -1.655   2.133  0.00  0.00    +0.000 A 
ATOM     22  C14 UNL     1      -4.569  -2.779   2.621  0.00  0.00    +0.000 A 
ATOM     23  C15 UNL     1      -3.876  -3.973   2.851  0.00  0.00    +0.000 A 
ATOM     24  C16 UNL     1      -2.503  -4.045   2.594  0.00  0.00    +0.000 A 
ATOM     25  C17 UNL     1      -1.816  -2.921   2.110  0.00  0.00    +0.000 A 
ATOM     26  C18 UNL     1      -2.506  -1.723   1.890  0.00  0.00    +0.000 A 
ENDBRANCH  19  21
ENDBRANCH  16  19
ENDBRANCH   3   7
BRANCH   1  28
ATOM     27  C1  UNL     1      -3.080   4.105  -1.469  0.00  0.00    +0.000 C 
ATOM     28  O1  UNL     1      -2.050   3.147  -1.693  0.00  0.00    +0.000 OA
ENDBRANCH   1  28
BRANCH   6  29
ATOM     29  O3  UNL     1       0.094   1.537  -2.241  0.00  0.00    +0.000 OA
BRANCH  29  30
ATOM     30  C22 UNL     1       1.323   0.852  -2.488  0.00  0.00    +0.000 C 
BRANCH  30  31
ATOM     31  C23 UNL     1       1.910   0.331  -1.213  0.00  0.00    +0.000 A 
ATOM     32  C24 UNL     1       2.464   1.076  -0.194  0.00  0.00    +0.000 A 
ATOM     33  N4  UNL     1       2.851   0.188   0.739  0.00  0.00    +0.000 N 
ATOM     34  N6  UNL     1       2.554  -1.032   0.315  0.00  0.00    +0.000 NA
ATOM     35  N7  UNL     1       1.974  -0.975  -0.875  0.00  0.00    +0.000 NA
BRANCH  33  36
ATOM     36  C25 UNL     1       3.534   0.478   1.994  0.00  0.00    +0.000 C 
BRANCH  36  37
ATOM     37  C26 UNL     1       4.996   0.686   1.747  0.00  0.00    +0.000 C 
ATOM     38  O4  UNL     1       5.513   1.807   2.005  0.00  0.00    +0.000 OA
ATOM     39  N5  UNL     1       5.798  -0.389   1.232  0.00  0.00    +0.000 N 
ATOM     40  H24 UNL     1       5.383  -1.351   1.250  0.00  0.00    +0.000 HD
BRANCH  39  41
ATOM     41  C27 UNL     1       7.139  -0.218   0.723  0.00  0.00    +0.000 A 
ATOM     42  C28 UNL     1       7.476   0.926  -0.025  0.00  0.00    +0.000 A 
ATOM     43  C29 UNL     1       8.764   1.089  -0.540  0.00  0.00    +0.000 A 
ATOM     44  C30 UNL     1       9.735   0.101  -0.338  0.00  0.00    +0.000 A 
ATOM     45  C31 UNL     1      11.124   0.278  -0.873  0.00  0.00    +0.000 C 
ATOM     46  C32 UNL     1       9.411  -1.047   0.400  0.00  0.00    +0.000 A 
ATOM     47  C33 UNL     1       8.119  -1.219   0.929  0.00  0.00    +0.000 A 
ATOM     48  C34 UNL     1       7.809  -2.465   1.722  0.00  0.00    +0.000 C 
ENDBRANCH  39  41
ENDBRANCH  36  37
ENDBRANCH  33  36
ENDBRANCH  30  31
ENDBRANCH  29  30
ENDBRANCH   6  29
TORSDOF 11
