REMARK  Name = resultss/4CJN/ligands/lig_439_t1.pdb
REMARK  9 active torsions:
REMARK  status: ('A' for Active; 'I' for Inactive)
REMARK    1  A    between atoms: C1_1  and  O1_2
REMARK    2  A    between atoms: O1_2  and  C2_3
REMARK    3  A    between atoms: C5_6  and  N1_7
REMARK    4  A    between atoms: C6_8  and  S1_9
REMARK    5  A    between atoms: N2_10  and  N3_11
REMARK    6  A    between atoms: C7_12  and  C8_14
REMARK    7  A    between atoms: C18_25  and  C19_26
REMARK    8  A    between atoms: C26_34  and  O3_35
REMARK    9  A    between atoms: O3_35  and  C27_36
REMARK                            x       y       z     vdW  Elec       q    Type
REMARK                         _______ _______ _______ _____ _____    ______ ____
ROOT
ATOM      1  N3  UNL     1       0.168  -2.255  -1.896  0.00  0.00    +0.000 N 
ATOM      2  C7  UNL     1      -0.025  -0.836  -1.774  0.00  0.00    +0.000 C 
ATOM      3  O2  UNL     1       0.853  -0.043  -2.211  0.00  0.00    +0.000 OA
ATOM      4  H8  UNL     1      -0.663  -2.884  -1.825  0.00  0.00    +0.000 HD
ENDROOT
BRANCH   2   5
ATOM      5  C8  UNL     1      -1.263  -0.297  -1.174  0.00  0.00    +0.000 A 
ATOM      6  C9  UNL     1      -1.397   1.084  -0.918  0.00  0.00    +0.000 A 
ATOM      7  C10 UNL     1      -2.601   1.516  -0.371  0.00  0.00    +0.000 A 
ATOM      8  C11 UNL     1      -3.631   0.645  -0.082  0.00  0.00    +0.000 A 
ATOM      9  N4  UNL     1      -4.723   1.308   0.371  0.00  0.00    +0.000 N 
ATOM     10  C12 UNL     1      -4.358   2.608   0.383  0.00  0.00    +0.000 A 
ATOM     11  C13 UNL     1      -5.142   3.699   0.758  0.00  0.00    +0.000 A 
ATOM     12  C14 UNL     1      -4.568   4.982   0.674  0.00  0.00    +0.000 A 
ATOM     13  C15 UNL     1      -3.240   5.148   0.215  0.00  0.00    +0.000 A 
ATOM     14  C16 UNL     1      -2.470   4.032  -0.164  0.00  0.00    +0.000 A 
ATOM     15  C17 UNL     1      -3.062   2.775  -0.063  0.00  0.00    +0.000 A 
ATOM     16  C18 UNL     1      -3.479  -0.728  -0.323  0.00  0.00    +0.000 A 
ATOM     17  N5  UNL     1      -2.297  -1.148  -0.870  0.00  0.00    +0.000 NA
ATOM     18  H10 UNL     1      -5.661   0.920   0.622  0.00  0.00    +0.000 HD
BRANCH  16  19
ATOM     19  C19 UNL     1      -4.537  -1.720  -0.033  0.00  0.00    +0.000 A 
ATOM     20  C20 UNL     1      -4.823  -2.728  -0.971  0.00  0.00    +0.000 A 
ATOM     21  C21 UNL     1      -5.812  -3.680  -0.705  0.00  0.00    +0.000 A 
ATOM     22  C22 UNL     1      -6.513  -3.643   0.502  0.00  0.00    +0.000 A 
ATOM     23  C23 UNL     1      -6.218  -2.661   1.451  0.00  0.00    +0.000 A 
ATOM     24  C24 UNL     1      -5.229  -1.708   1.192  0.00  0.00    +0.000 A 
ENDBRANCH  16  19
ENDBRANCH   2   5
BRANCH   1  27
ATOM     25  N1  UNL     1       2.739  -1.598  -0.832  0.00  0.00    +0.000 NA
ATOM     26  C6  UNL     1       2.663  -2.395  -1.860  0.00  0.00    +0.000 C 
ATOM     27  N2  UNL     1       1.379  -2.818  -2.341  0.00  0.00    +0.000 N 
ATOM     28  H7  UNL     1       1.339  -3.682  -2.929  0.00  0.00    +0.000 HD
BRANCH  25  32
ATOM     29  C2  UNL     1       6.223  -0.057   1.049  0.00  0.00    +0.000 A 
ATOM     30  C3  UNL     1       6.096  -1.443   0.827  0.00  0.00    +0.000 A 
ATOM     31  C4  UNL     1       4.957  -1.957   0.204  0.00  0.00    +0.000 A 
ATOM     32  C5  UNL     1       3.937  -1.096  -0.223  0.00  0.00    +0.000 A 
ATOM     33  C25 UNL     1       4.043   0.276   0.030  0.00  0.00    +0.000 A 
ATOM     34  C26 UNL     1       5.189   0.805   0.652  0.00  0.00    +0.000 A 
BRANCH  29  36
ATOM     35  C1  UNL     1       8.492  -0.248   2.091  0.00  0.00    +0.000 C 
ATOM     36  O1  UNL     1       7.356   0.500   1.662  0.00  0.00    +0.000 OA
ENDBRANCH  29  36
BRANCH  34  37
ATOM     37  O3  UNL     1       5.339   2.181   0.892  0.00  0.00    +0.000 OA
ATOM     38  C27 UNL     1       4.384   3.172   0.528  0.00  0.00    +0.000 C 
ENDBRANCH  34  37
ENDBRANCH  25  32
BRANCH  26  39
ATOM     39  S1  UNL     1       4.126  -2.943  -2.753  0.00  0.00    +0.000 S 
ATOM     40  H6  UNL     1       4.198  -4.141  -2.015  0.00  0.00    +0.000 HD
ENDBRANCH  26  39
ENDBRANCH   1  27
TORSDOF 7
