REMARK  Name = resultss/4CJN/ligands/lig_389_t1.pdb
REMARK  4 active torsions:
REMARK  status: ('A' for Active; 'I' for Inactive)
REMARK    1  A    between atoms: C1_1  and  N1_2
REMARK    2  A    between atoms: N3_18  and  C13_19
REMARK    3  A    between atoms: C16_22  and  S2_23
REMARK    4  A    between atoms: S2_23  and  N4_24
REMARK                            x       y       z     vdW  Elec       q    Type
REMARK                         _______ _______ _______ _____ _____    ______ ____
ROOT
ATOM      1  C1  UNL     1       1.008   1.705  -1.582  0.00  0.00    +0.000 C 
ATOM      2  N1  UNL     1       0.119   1.358  -0.473  0.00  0.00    +0.000 N 
ATOM      3  C2  UNL     1      -1.282   1.207  -0.664  0.00  0.00    +0.000 C 
ATOM      4  O1  UNL     1      -1.789   1.046  -1.807  0.00  0.00    +0.000 OA
ATOM      5  C3  UNL     1      -2.070   1.463   0.543  0.00  0.00    +0.000 C 
ATOM      6  C4  UNL     1      -3.311   1.008   0.805  0.00  0.00    +0.000 C 
ATOM      7  C5  UNL     1      -4.206   1.480   1.875  0.00  0.00    +0.000 C 
ATOM      8  O2  UNL     1      -3.909   2.312   2.772  0.00  0.00    +0.000 OA
ATOM      9  N2  UNL     1      -5.500   0.901   1.756  0.00  0.00    +0.000 N 
ATOM     10  C6  UNL     1      -5.403   0.018   0.647  0.00  0.00    +0.000 A 
ATOM     11  C7  UNL     1      -6.393  -0.868   0.227  0.00  0.00    +0.000 A 
ATOM     12  C8  UNL     1      -6.083  -1.783  -0.789  0.00  0.00    +0.000 A 
ATOM     13  C9  UNL     1      -4.785  -1.827  -1.332  0.00  0.00    +0.000 A 
ATOM     14  C10 UNL     1      -3.794  -0.938  -0.883  0.00  0.00    +0.000 A 
ATOM     15  C11 UNL     1      -4.139   0.028   0.073  0.00  0.00    +0.000 A 
ATOM     16  S1  UNL     1      -1.094   2.403   1.727  0.00  0.00    +0.000 S 
ATOM     17  C12 UNL     1       0.349   1.761   0.881  0.00  0.00    +0.000 C 
ATOM     18  N3  UNL     1       1.423   1.461   1.554  0.00  0.00    +0.000 NA
ATOM     19  H4  UNL     1      -6.317   1.038   2.391  0.00  0.00    +0.000 HD
ENDROOT
BRANCH  18  20
ATOM     20  C13 UNL     1       2.538   0.680   1.098  0.00  0.00    +0.000 A 
ATOM     21  C14 UNL     1       3.834   1.075   1.451  0.00  0.00    +0.000 A 
ATOM     22  C15 UNL     1       4.937   0.315   1.052  0.00  0.00    +0.000 A 
ATOM     23  C16 UNL     1       4.753  -0.864   0.318  0.00  0.00    +0.000 A 
ATOM     24  C17 UNL     1       3.456  -1.277  -0.014  0.00  0.00    +0.000 A 
ATOM     25  C18 UNL     1       2.353  -0.518   0.386  0.00  0.00    +0.000 A 
BRANCH  23  26
ATOM     26  S2  UNL     1       6.144  -1.811  -0.202  0.00  0.00    +0.000 S 
ATOM     27  O3  UNL     1       7.270  -1.645   0.780  0.00  0.00    +0.000 OA
ATOM     28  O4  UNL     1       5.773  -3.266  -0.266  0.00  0.00    +0.000 OA
BRANCH  26  29
ATOM     29  N4  UNL     1       6.658  -1.277  -1.764  0.00  0.00    +0.000 NA
ATOM     30  H11 UNL     1       6.863  -0.256  -1.685  0.00  0.00    +0.000 HD
ATOM     31  H12 UNL     1       5.837  -1.370  -2.403  0.00  0.00    +0.000 HD
ENDBRANCH  26  29
ENDBRANCH  23  26
ENDBRANCH  18  20
TORSDOF 3
