REMARK  Name = resultss/4CJN/ligands/lig_29_t0.pdb
REMARK  14 active torsions:
REMARK  status: ('A' for Active; 'I' for Inactive)
REMARK    1  A    between atoms: C1_1  and  C2_2
REMARK    2  A    between atoms: C2_2  and  C3_3
REMARK    3  A    between atoms: C2_2  and  C4_4
REMARK    4  A    between atoms: C2_2  and  SI1_5
REMARK    5  A    between atoms: SI1_5  and  C5_6
REMARK    6  A    between atoms: SI1_5  and  C6_7
REMARK    7  A    between atoms: SI1_5  and  C7_8
REMARK    8  A    between atoms: C8_9  and  C9_10
REMARK    9  A    between atoms: C9_10  and  N1_11
REMARK   10  A    between atoms: C11_13  and  O1_14
REMARK   11  A    between atoms: C12_15  and  O2_16
REMARK   12  A    between atoms: C13_17  and  O3_18
REMARK   13  A    between atoms: C14_19  and  C15_20
REMARK   14  A    between atoms: C15_20  and  O4_21
REMARK                            x       y       z     vdW  Elec       q    Type
REMARK                         _______ _______ _______ _____ _____    ______ ____
ROOT
ATOM      1  N1  UNL     1       1.866  -0.377   0.030  0.00  0.00    +0.000 NA
ATOM      2  C10 UNL     1       2.479   0.286  -1.150  0.00  0.00    +0.000 C 
ATOM      3  C11 UNL     1       3.952  -0.102  -1.363  0.00  0.00    +0.000 C 
ATOM      4  C12 UNL     1       4.810   0.238  -0.116  0.00  0.00    +0.000 C 
ATOM      5  C13 UNL     1       3.969   0.414   1.172  0.00  0.00    +0.000 C 
ATOM      6  C14 UNL     1       2.779  -0.582   1.191  0.00  0.00    +0.000 C 
ENDROOT
BRANCH   3   7
ATOM      7  O1  UNL     1       4.037  -1.473  -1.657  0.00  0.00    +0.000 OA
ATOM      8  H23 UNL     1       4.921  -1.621  -2.085  0.00  0.00    +0.000 HD
ENDBRANCH   3   7
BRANCH   4   9
ATOM      9  O2  UNL     1       5.591   1.385  -0.346  0.00  0.00    +0.000 OA
ATOM     10  H25 UNL     1       4.969   2.136  -0.539  0.00  0.00    +0.000 HD
ENDBRANCH   4   9
BRANCH   5  11
ATOM     11  O3  UNL     1       4.791   0.209   2.293  0.00  0.00    +0.000 OA
ATOM     12  H27 UNL     1       5.344   1.028   2.397  0.00  0.00    +0.000 HD
ENDBRANCH   5  11
BRANCH   1  13
ATOM     13  C9  UNL     1       1.141  -1.614  -0.343  0.00  0.00    +0.000 C 
BRANCH  13  15
ATOM     14  C7  UNL     1      -1.123  -0.622  -0.224  0.00  0.00    +0.000 C 
ATOM     15  C8  UNL     1      -0.196  -1.271  -0.937  0.00  0.00    +0.000 C 
BRANCH  14  16
ATOM     16 SI1  UNL     1      -2.758  -0.174  -0.967  0.00  0.00    +0.000 Si
ATOM     17  C5  UNL     1      -3.608  -1.746  -1.521  0.00  0.00    +0.000 C 
ATOM     18  C6  UNL     1      -2.447   0.888  -2.476  0.00  0.00    +0.000 C 
BRANCH  16  20
ATOM     19  C1  UNL     1      -4.059  -0.138   1.534  0.00  0.00    +0.000 C 
ATOM     20  C2  UNL     1      -3.823   0.758   0.306  0.00  0.00    +0.000 C 
ATOM     21  C3  UNL     1      -5.178   1.127  -0.324  0.00  0.00    +0.000 C 
ATOM     22  C4  UNL     1      -3.097   2.043   0.741  0.00  0.00    +0.000 C 
ENDBRANCH  16  20
ENDBRANCH  14  16
ENDBRANCH  13  15
ENDBRANCH   1  13
BRANCH   6  23
ATOM     23  C15 UNL     1       1.966  -0.419   2.494  0.00  0.00    +0.000 C 
BRANCH  23  24
ATOM     24  O4  UNL     1       2.691  -0.909   3.588  0.00  0.00    +0.000 OA
ATOM     25  H31 UNL     1       2.135  -0.731   4.391  0.00  0.00    +0.000 HD
ENDBRANCH  23  24
ENDBRANCH   6  23
TORSDOF 9
