REMARK  Name = resultss/4CJN/ligands/lig_277_t0.pdb
REMARK  12 active torsions:
REMARK  status: ('A' for Active; 'I' for Inactive)
REMARK    1  A    between atoms: C2_2  and  C3_3
REMARK    2  A    between atoms: C3_3  and  C4_4
REMARK    3  A    between atoms: C6_6  and  C7_7
REMARK    4  A    between atoms: C10_10  and  O1_11
REMARK    5  A    between atoms: C11_12  and  C12_13
REMARK    6  A    between atoms: C12_13  and  C13_14
REMARK    7  A    between atoms: C16_17  and  O2_18
REMARK    8  A    between atoms: C17_19  and  C18_20
REMARK    9  A    between atoms: C18_20  and  C19_21
REMARK   10  A    between atoms: C18_20  and  N1_29
REMARK   11  A    between atoms: C22_24  and  O3_25
REMARK   12  A    between atoms: O3_25  and  C23_26
REMARK                            x       y       z     vdW  Elec       q    Type
REMARK                         _______ _______ _______ _____ _____    ______ ____
ROOT
ATOM      1  C4  UNL     1       0.001   0.393  -2.540  0.00  0.00    +0.000 A 
ATOM      2  C5  UNL     1       1.357   0.349  -2.211  0.00  0.00    +0.000 A 
ATOM      3  C6  UNL     1       1.781  -0.190  -0.989  0.00  0.00    +0.000 A 
ATOM      4  C16 UNL     1       0.831  -0.697  -0.076  0.00  0.00    +0.000 A 
ATOM      5  C17 UNL     1      -0.558  -0.591  -0.371  0.00  0.00    +0.000 A 
ATOM      6  C31 UNL     1      -0.945  -0.071  -1.621  0.00  0.00    +0.000 A 
ENDROOT
BRANCH   3   7
ATOM      7  C7  UNL     1       3.233  -0.235  -0.685  0.00  0.00    +0.000 A 
ATOM      8  C8  UNL     1       4.136  -0.764  -1.621  0.00  0.00    +0.000 A 
ATOM      9  C9  UNL     1       5.504  -0.798  -1.341  0.00  0.00    +0.000 A 
ATOM     10  C10 UNL     1       5.991  -0.306  -0.123  0.00  0.00    +0.000 A 
ATOM     11  C11 UNL     1       5.096   0.221   0.828  0.00  0.00    +0.000 A 
ATOM     12  C15 UNL     1       3.723   0.268   0.532  0.00  0.00    +0.000 A 
BRANCH  10  13
ATOM     13  O1  UNL     1       7.360  -0.339   0.142  0.00  0.00    +0.000 OA
ATOM     14  H9  UNL     1       8.023  -0.702  -0.532  0.00  0.00    +0.000 HD
ENDBRANCH  10  13
BRANCH  11  15
ATOM     15  C12 UNL     1       5.594   0.785   2.134  0.00  0.00    +0.000 C 
BRANCH  15  16
ATOM     16  C13 UNL     1       5.896   2.249   1.983  0.00  0.00    +0.000 C 
ATOM     17  C14 UNL     1       7.130   2.690   1.717  0.00  0.00    +0.000 C 
ENDBRANCH  15  16
ENDBRANCH  11  15
ENDBRANCH   3   7
BRANCH   4  18
ATOM     18  O2  UNL     1       1.309  -1.323   1.082  0.00  0.00    +0.000 OA
ATOM     19  H16 UNL     1       0.756  -1.890   1.707  0.00  0.00    +0.000 HD
ENDBRANCH   4  18
BRANCH   1  20
ATOM     20  C3  UNL     1      -0.449   1.000  -3.844  0.00  0.00    +0.000 C 
BRANCH  20  22
ATOM     21  C1  UNL     1      -0.127   3.405  -3.327  0.00  0.00    +0.000 C 
ATOM     22  C2  UNL     1      -0.953   2.401  -3.633  0.00  0.00    +0.000 C 
ENDBRANCH  20  22
ENDBRANCH   1  20
BRANCH   5  23
ATOM     23  C18 UNL     1      -1.659  -0.984   0.621  0.00  0.00    +0.000 C 
BRANCH  23  24
ATOM     24  C19 UNL     1      -2.446   0.275   0.969  0.00  0.00    +0.000 A 
ATOM     25  C20 UNL     1      -1.971   1.129   1.979  0.00  0.00    +0.000 A 
ATOM     26  C21 UNL     1      -2.650   2.310   2.290  0.00  0.00    +0.000 A 
ATOM     27  C22 UNL     1      -3.808   2.670   1.592  0.00  0.00    +0.000 A 
ATOM     28  C24 UNL     1      -4.282   1.827   0.570  0.00  0.00    +0.000 A 
ATOM     29  C25 UNL     1      -3.605   0.645   0.260  0.00  0.00    +0.000 A 
BRANCH  27  30
ATOM     30  O3  UNL     1      -4.452   3.867   1.940  0.00  0.00    +0.000 OA
ATOM     31  C23 UNL     1      -5.631   4.358   1.310  0.00  0.00    +0.000 C 
ENDBRANCH  27  30
ENDBRANCH  23  24
BRANCH  23  32
ATOM     32  N1  UNL     1      -2.540  -2.063   0.087  0.00  0.00    +0.000 NA
ATOM     33  C26 UNL     1      -1.756  -3.177  -0.515  0.00  0.00    +0.000 C 
ATOM     34  C27 UNL     1      -2.580  -4.463  -0.648  0.00  0.00    +0.000 C 
ATOM     35  C28 UNL     1      -3.027  -4.979   0.729  0.00  0.00    +0.000 C 
ATOM     36  C29 UNL     1      -3.143  -3.852   1.767  0.00  0.00    +0.000 C 
ATOM     37  C30 UNL     1      -3.534  -2.526   1.101  0.00  0.00    +0.000 C 
ENDBRANCH  23  32
ENDBRANCH   5  23
TORSDOF 11
