REMARK  Name = resultss/4CJN/ligands/lig_96_t0.pdb
REMARK  12 active torsions:
REMARK  status: ('A' for Active; 'I' for Inactive)
REMARK    1  A    between atoms: C6_6  and  C7_7
REMARK    2  A    between atoms: C6_6  and  C8_8
REMARK    3  A    between atoms: C8_8  and  O1_9
REMARK    4  A    between atoms: O1_9  and  C9_10
REMARK    5  A    between atoms: C9_10  and  C10_12
REMARK    6  A    between atoms: C15_18  and  O3_19
REMARK    7  A    between atoms: O3_19  and  C16_20
REMARK    8  A    between atoms: C16_20  and  C17_22
REMARK    9  A    between atoms: C24_30  and  C25_31
REMARK   10  A    between atoms: C26_32  and  C27_33
REMARK   11  A    between atoms: C28_34  and  C29_35
REMARK   12  A    between atoms: C32_38  and  C33_39
REMARK                            x       y       z     vdW  Elec       q    Type
REMARK                         _______ _______ _______ _____ _____    ______ ____
ROOT
ATOM      1  C1  UNL     1       1.928  -3.002   1.234  0.00  0.00    +0.000 C 
ATOM      2  C2  UNL     1       1.220  -1.980   1.751  0.00  0.00    +0.000 C 
ATOM      3  C3  UNL     1       0.018  -2.252   2.616  0.00  0.00    +0.000 C 
ATOM      4  C4  UNL     1      -1.252  -1.788   1.890  0.00  0.00    +0.000 C 
ATOM      5  C5  UNL     1      -1.131  -0.314   1.382  0.00  0.00    +0.000 C 
ATOM      6  C6  UNL     1      -2.476   0.339   0.852  0.00  0.00    +0.000 C 
ATOM      7  C7  UNL     1      -3.551   0.312   1.976  0.00  0.00    +0.000 C 
ATOM      8  C15 UNL     1      -2.196   1.847   0.540  0.00  0.00    +0.000 C 
ATOM      9  C22 UNL     1      -1.007   2.045  -0.411  0.00  0.00    +0.000 C 
ATOM     10  C23 UNL     1       0.279   1.430   0.153  0.00  0.00    +0.000 C 
ATOM     11  C24 UNL     1       0.155  -0.089   0.475  0.00  0.00    +0.000 C 
ATOM     12  C25 UNL     1       0.123  -0.913  -0.856  0.00  0.00    +0.000 C 
ATOM     13  C26 UNL     1       1.404  -0.529   1.328  0.00  0.00    +0.000 C 
ENDROOT
BRANCH  13  14
ATOM     14  C27 UNL     1       2.753  -0.236   0.691  0.00  0.00    +0.000 C 
ATOM     15  C28 UNL     1       3.887  -0.349   1.391  0.00  0.00    +0.000 C 
BRANCH  15  16
ATOM     16  C29 UNL     1       5.220  -0.063   0.823  0.00  0.00    +0.000 C 
ATOM     17  C30 UNL     1       5.499   0.590  -0.306  0.00  0.00    +0.000 C 
ATOM     18  C31 UNL     1       6.958   0.655  -0.431  0.00  0.00    +0.000 C 
ATOM     19  C32 UNL     1       7.617   1.258  -1.426  0.00  0.00    +0.000 C 
ATOM     20  O6  UNL     1       7.545   0.021   0.656  0.00  0.00    +0.000 OA
ATOM     21  C37 UNL     1       6.492  -0.419   1.440  0.00  0.00    +0.000 C 
ATOM     22  O7  UNL     1       6.635  -1.034   2.529  0.00  0.00    +0.000 OA
BRANCH  19  23
ATOM     23  C33 UNL     1       9.087   1.295  -1.542  0.00  0.00    +0.000 A 
ATOM     24  C34 UNL     1      10.008   0.464  -0.922  0.00  0.00    +0.000 A 
ATOM     25  C35 UNL     1      11.243   0.880  -1.371  0.00  0.00    +0.000 A 
ATOM     26  C36 UNL     1      11.006   1.931  -2.232  0.00  0.00    +0.000 A 
ATOM     27  O5  UNL     1       9.714   2.151  -2.317  0.00  0.00    +0.000 OA
ENDBRANCH  19  23
ENDBRANCH  15  16
ENDBRANCH  13  14
BRANCH   6  28
ATOM     28  C8  UNL     1      -3.090  -0.367  -0.396  0.00  0.00    +0.000 C 
BRANCH  28  29
ATOM     29  O1  UNL     1      -3.418  -1.726  -0.121  0.00  0.00    +0.000 OA
BRANCH  29  30
ATOM     30  C9  UNL     1      -3.995  -2.577  -1.069  0.00  0.00    +0.000 C 
ATOM     31  O2  UNL     1      -4.244  -2.152  -2.232  0.00  0.00    +0.000 OA
BRANCH  30  32
ATOM     32  C10 UNL     1      -4.309  -3.976  -0.704  0.00  0.00    +0.000 A 
ATOM     33  C11 UNL     1      -4.863  -4.863  -1.642  0.00  0.00    +0.000 A 
ATOM     34  C12 UNL     1      -5.157  -6.178  -1.276  0.00  0.00    +0.000 A 
ATOM     35  C13 UNL     1      -4.893  -6.601   0.026  0.00  0.00    +0.000 A 
ATOM     36  N1  UNL     1      -4.355  -5.736   0.926  0.00  0.00    +0.000 NA
ATOM     37  C14 UNL     1      -4.061  -4.450   0.596  0.00  0.00    +0.000 A 
ENDBRANCH  30  32
ENDBRANCH  29  30
ENDBRANCH  28  29
ENDBRANCH   6  28
BRANCH   8  38
ATOM     38  O3  UNL     1      -3.360   2.463  -0.020  0.00  0.00    +0.000 OA
BRANCH  38  39
ATOM     39  C16 UNL     1      -3.579   3.846  -0.040  0.00  0.00    +0.000 C 
ATOM     40  O4  UNL     1      -2.768   4.627   0.531  0.00  0.00    +0.000 OA
BRANCH  39  41
ATOM     41  C17 UNL     1      -4.767   4.387  -0.732  0.00  0.00    +0.000 A 
ATOM     42  C18 UNL     1      -4.995   5.771  -0.804  0.00  0.00    +0.000 A 
ATOM     43  C19 UNL     1      -6.115   6.264  -1.476  0.00  0.00    +0.000 A 
ATOM     44  C20 UNL     1      -7.004   5.368  -2.071  0.00  0.00    +0.000 A 
ATOM     45  N2  UNL     1      -6.778   4.030  -1.992  0.00  0.00    +0.000 NA
ATOM     46  C21 UNL     1      -5.694   3.524  -1.344  0.00  0.00    +0.000 A 
ENDBRANCH  39  41
ENDBRANCH  38  39
ENDBRANCH   8  38
TORSDOF 10
