REMARK  Name = resultss/4CJN/ligands/lig_405_t0.pdb
REMARK  10 active torsions:
REMARK  status: ('A' for Active; 'I' for Inactive)
REMARK    1  A    between atoms: C1_1  and  C2_2
REMARK    2  A    between atoms: C2_2  and  O1_3
REMARK    3  A    between atoms: O1_3  and  C3_4
REMARK    4  A    between atoms: C3_4  and  C4_6
REMARK    5  A    between atoms: C5_7  and  S1_8
REMARK    6  A    between atoms: S1_8  and  C6_9
REMARK    7  A    between atoms: C6_9  and  C7_10
REMARK    8  A    between atoms: N1_12  and  C8_13
REMARK    9  A    between atoms: C14_21  and  C15_22
REMARK   10  A    between atoms: C21_28  and  C22_29
REMARK                            x       y       z     vdW  Elec       q    Type
REMARK                         _______ _______ _______ _____ _____    ______ ____
ROOT
ATOM      1  C4  UNL     1      -1.028  -0.075   0.443  0.00  0.00    +0.000 A 
ATOM      2  C5  UNL     1      -0.003  -0.961   0.833  0.00  0.00    +0.000 A 
ATOM      3  N2  UNL     1      -0.170  -2.295   0.664  0.00  0.00    +0.000 NA
ATOM      4  N3  UNL     1      -1.285  -2.806   0.150  0.00  0.00    +0.000 NA
ATOM      5  C14 UNL     1      -2.325  -2.024  -0.233  0.00  0.00    +0.000 A 
ATOM      6  C21 UNL     1      -2.216  -0.619  -0.107  0.00  0.00    +0.000 A 
ENDROOT
BRANCH   5   7
ATOM      7  C15 UNL     1      -3.538  -2.689  -0.760  0.00  0.00    +0.000 A 
ATOM      8  C16 UNL     1      -4.804  -2.433  -0.203  0.00  0.00    +0.000 A 
ATOM      9  C17 UNL     1      -5.939  -3.072  -0.709  0.00  0.00    +0.000 A 
ATOM     10  C18 UNL     1      -5.820  -3.982  -1.763  0.00  0.00    +0.000 A 
ATOM     11  C19 UNL     1      -4.563  -4.260  -2.306  0.00  0.00    +0.000 A 
ATOM     12  C20 UNL     1      -3.424  -3.622  -1.804  0.00  0.00    +0.000 A 
ENDBRANCH   5   7
BRANCH   6  13
ATOM     13  C22 UNL     1      -3.324   0.264  -0.552  0.00  0.00    +0.000 A 
ATOM     14  C23 UNL     1      -3.704   0.295  -1.904  0.00  0.00    +0.000 A 
ATOM     15  C24 UNL     1      -4.761   1.111  -2.318  0.00  0.00    +0.000 A 
ATOM     16  C25 UNL     1      -5.442   1.901  -1.388  0.00  0.00    +0.000 A 
ATOM     17  C26 UNL     1      -5.068   1.877  -0.042  0.00  0.00    +0.000 A 
ATOM     18  C27 UNL     1      -4.013   1.061   0.377  0.00  0.00    +0.000 A 
ENDBRANCH   6  13
BRANCH   1  19
ATOM     19  C3  UNL     1      -0.834   1.391   0.558  0.00  0.00    +0.000 C 
ATOM     20  O2  UNL     1      -1.157   2.147  -0.398  0.00  0.00    +0.000 OA
BRANCH  19  21
ATOM     21  O1  UNL     1      -0.287   1.930   1.725  0.00  0.00    +0.000 OA
BRANCH  21  23
ATOM     22  C1  UNL     1       0.577   3.574   3.252  0.00  0.00    +0.000 C 
ATOM     23  C2  UNL     1      -0.030   3.321   1.882  0.00  0.00    +0.000 C 
ENDBRANCH  21  23
ENDBRANCH  19  21
ENDBRANCH   1  19
BRANCH   2  24
ATOM     24  S1  UNL     1       1.567  -0.389   1.502  0.00  0.00    +0.000 S 
BRANCH  24  25
ATOM     25  C6  UNL     1       2.334  -0.190  -0.137  0.00  0.00    +0.000 C 
BRANCH  25  26
ATOM     26  C7  UNL     1       3.708   0.373   0.027  0.00  0.00    +0.000 C 
ATOM     27  O3  UNL     1       3.863   1.624   0.040  0.00  0.00    +0.000 OA
ATOM     28  N1  UNL     1       4.819  -0.506   0.264  0.00  0.00    +0.000 N 
ATOM     29  H8  UNL     1       4.607  -1.492   0.536  0.00  0.00    +0.000 HD
BRANCH  28  30
ATOM     30  C8  UNL     1       6.194  -0.085   0.268  0.00  0.00    +0.000 A 
ATOM     31  C9  UNL     1       7.111  -0.736   1.109  0.00  0.00    +0.000 A 
ATOM     32  C10 UNL     1       8.457  -0.357   1.118  0.00  0.00    +0.000 A 
ATOM     33  C11 UNL     1       8.902   0.665   0.276  0.00  0.00    +0.000 A 
ATOM     34  C12 UNL     1       8.004   1.303  -0.583  0.00  0.00    +0.000 A 
ATOM     35  C13 UNL     1       6.656   0.928  -0.595  0.00  0.00    +0.000 A 
ENDBRANCH  28  30
ENDBRANCH  25  26
ENDBRANCH  24  25
ENDBRANCH   2  24
TORSDOF 9
