REMARK  Name = resultss/4CJN/ligands/lig_400_t2.pdb
REMARK  11 active torsions:
REMARK  status: ('A' for Active; 'I' for Inactive)
REMARK    1  A    between atoms: C1_1  and  O1_2
REMARK    2  A    between atoms: O1_2  and  C2_3
REMARK    3  A    between atoms: C4_5  and  C5_6
REMARK    4  A    between atoms: C14_17  and  O2_18
REMARK    5  A    between atoms: O2_18  and  C15_19
REMARK    6  A    between atoms: C15_19  and  C16_20
REMARK    7  A    between atoms: N3_22  and  C18_23
REMARK    8  A    between atoms: C19_24  and  O3_25
REMARK    9  A    between atoms: C19_24  and  N4_26
REMARK   10  A    between atoms: N4_26  and  C20_27
REMARK   11  A    between atoms: C22_30  and  C23_31
REMARK                            x       y       z     vdW  Elec       q    Type
REMARK                         _______ _______ _______ _____ _____    ______ ____
ROOT
ATOM      1  C16 UNL     1      -0.693   0.884  -1.487  0.00  0.00    +0.000 A 
ATOM      2  C17 UNL     1      -1.315   0.846  -0.259  0.00  0.00    +0.000 A 
ATOM      3  N3  UNL     1      -2.624   0.660  -0.510  0.00  0.00    +0.000 N 
ATOM      4  N6  UNL     1      -2.797   0.638  -1.822  0.00  0.00    +0.000 NA
ATOM      5  N7  UNL     1      -1.633   0.763  -2.445  0.00  0.00    +0.000 NA
ENDROOT
BRANCH   3   6
ATOM      6  C18 UNL     1      -3.706   0.682   0.429  0.00  0.00    +0.000 C 
ATOM      7  C19 UNL     1      -3.677   0.035   1.610  0.00  0.00    +0.000 C 
BRANCH   7   8
ATOM      8  O3  UNL     1      -2.613  -0.796   1.969  0.00  0.00    +0.000 OA
ATOM      9  H16 UNL     1      -1.910  -1.114   1.316  0.00  0.00    +0.000 HD
ENDBRANCH   7   8
BRANCH   7  10
ATOM     10  N4  UNL     1      -4.745   0.197   2.554  0.00  0.00    +0.000 N 
ATOM     11  H17 UNL     1      -4.494   0.198   3.568  0.00  0.00    +0.000 HD
BRANCH  10  12
ATOM     12  C20 UNL     1      -6.138   0.182   2.211  0.00  0.00    +0.000 A 
ATOM     13  C21 UNL     1      -7.168   0.514   3.079  0.00  0.00    +0.000 A 
ATOM     14  N5  UNL     1      -8.416   0.347   2.565  0.00  0.00    +0.000 NA
ATOM     15  C22 UNL     1      -8.394  -0.131   1.298  0.00  0.00    +0.000 A 
ATOM     16  S1  UNL     1      -6.808  -0.372   0.768  0.00  0.00    +0.000 S 
BRANCH  15  17
ATOM     17  C23 UNL     1      -9.618  -0.408   0.511  0.00  0.00    +0.000 A 
ATOM     18  C24 UNL     1     -10.888  -0.179   1.074  0.00  0.00    +0.000 A 
ATOM     19  C25 UNL     1     -12.047  -0.439   0.338  0.00  0.00    +0.000 A 
ATOM     20  C26 UNL     1     -11.954  -0.929  -0.967  0.00  0.00    +0.000 A 
ATOM     21  C27 UNL     1     -10.701  -1.160  -1.537  0.00  0.00    +0.000 A 
ATOM     22  C28 UNL     1      -9.537  -0.902  -0.805  0.00  0.00    +0.000 A 
ENDBRANCH  15  17
ENDBRANCH  10  12
ENDBRANCH   7  10
ENDBRANCH   3   6
BRANCH   1  23
ATOM     23  C15 UNL     1       0.756   1.128  -1.744  0.00  0.00    +0.000 C 
BRANCH  23  24
ATOM     24  O2  UNL     1       1.535   0.250  -0.936  0.00  0.00    +0.000 OA
BRANCH  24  30
ATOM     25  C2  UNL     1       3.569  -0.681  -0.042  0.00  0.00    +0.000 A 
ATOM     26  C3  UNL     1       4.976  -0.725   0.017  0.00  0.00    +0.000 A 
ATOM     27  C4  UNL     1       5.757   0.133  -0.779  0.00  0.00    +0.000 A 
ATOM     28  C12 UNL     1       5.110   1.041  -1.632  0.00  0.00    +0.000 A 
ATOM     29  C13 UNL     1       3.716   1.089  -1.695  0.00  0.00    +0.000 A 
ATOM     30  C14 UNL     1       2.937   0.229  -0.902  0.00  0.00    +0.000 A 
BRANCH  27  31
ATOM     31  C5  UNL     1       7.241   0.101  -0.726  0.00  0.00    +0.000 A 
ATOM     32  N1  UNL     1       8.016   1.043  -1.332  0.00  0.00    +0.000 NA
ATOM     33  C6  UNL     1       9.266   0.641  -1.045  0.00  0.00    +0.000 A 
ATOM     34  C7  UNL     1      10.464   1.243  -1.423  0.00  0.00    +0.000 A 
ATOM     35  C8  UNL     1      11.663   0.632  -1.005  0.00  0.00    +0.000 A 
ATOM     36  C9  UNL     1      11.631  -0.551  -0.231  0.00  0.00    +0.000 A 
ATOM     37  C10 UNL     1      10.400  -1.132   0.131  0.00  0.00    +0.000 A 
ATOM     38  C11 UNL     1       9.238  -0.497  -0.299  0.00  0.00    +0.000 A 
ATOM     39  N2  UNL     1       7.966  -0.856  -0.087  0.00  0.00    +0.000 N 
ATOM     40  H9  UNL     1       7.635  -1.696   0.438  0.00  0.00    +0.000 HD
ENDBRANCH  27  31
BRANCH  25  42
ATOM     41  C1  UNL     1       3.256  -2.498   1.654  0.00  0.00    +0.000 C 
ATOM     42  O1  UNL     1       2.762  -1.524   0.740  0.00  0.00    +0.000 OA
ENDBRANCH  25  42
ENDBRANCH  24  30
ENDBRANCH  23  24
ENDBRANCH   1  23
TORSDOF 10
