REMARK  Name = resultss/4CJN/ligands/lig_47_t1.pdb
REMARK  7 active torsions:
REMARK  status: ('A' for Active; 'I' for Inactive)
REMARK    1  A    between atoms: C1_1  and  C2_2
REMARK    2  A    between atoms: C5_5  and  O1_6
REMARK    3  A    between atoms: C14_15  and  C15_16
REMARK    4  A    between atoms: C16_17  and  O2_18
REMARK    5  A    between atoms: C20_22  and  C21_23
REMARK    6  A    between atoms: C33_36  and  C34_37
REMARK    7  A    between atoms: C38_41  and  O4_42
REMARK                            x       y       z     vdW  Elec       q    Type
REMARK                         _______ _______ _______ _____ _____    ______ ____
ROOT
ATOM      1  C1  UNL     1      -1.991  -0.287   1.714  0.00  0.00    +0.000 C 
ATOM      2  C2  UNL     1      -1.848   0.178   0.225  0.00  0.00    +0.000 C 
ATOM      3  C3  UNL     1      -2.803   1.375  -0.011  0.00  0.00    +0.000 C 
ATOM      4  C4  UNL     1      -4.257   0.968   0.081  0.00  0.00    +0.000 C 
ATOM      5  C5  UNL     1      -4.690  -0.244  -0.290  0.00  0.00    +0.000 C 
ATOM      6  C6  UNL     1      -3.760  -1.373  -0.617  0.00  0.00    +0.000 C 
ATOM      7  C7  UNL     1      -2.284  -0.929  -0.800  0.00  0.00    +0.000 C 
ATOM      8  C8  UNL     1      -1.319  -2.131  -0.826  0.00  0.00    +0.000 C 
ATOM      9  C9  UNL     1       0.104  -1.688  -1.157  0.00  0.00    +0.000 C 
ATOM     10  C10 UNL     1       0.596  -0.640  -0.139  0.00  0.00    +0.000 C 
ATOM     11  C11 UNL     1      -0.369   0.595  -0.125  0.00  0.00    +0.000 C 
ATOM     12  C12 UNL     1       0.179   1.771   0.746  0.00  0.00    +0.000 C 
ATOM     13  C13 UNL     1       1.668   2.116   0.473  0.00  0.00    +0.000 C 
ATOM     14  C14 UNL     1       2.548   0.852   0.551  0.00  0.00    +0.000 C 
ATOM     15  C15 UNL     1       2.583   0.306   2.013  0.00  0.00    +0.000 C 
ATOM     16  C16 UNL     1       3.997   1.036   0.047  0.00  0.00    +0.000 C 
ATOM     17  C17 UNL     1       4.420  -0.378  -0.410  0.00  0.00    +0.000 C 
ATOM     18  C18 UNL     1       3.128  -1.188  -0.612  0.00  0.00    +0.000 C 
ATOM     19  C19 UNL     1       2.018  -0.155  -0.482  0.00  0.00    +0.000 C 
ENDROOT
BRANCH   5  20
ATOM     20  O1  UNL     1      -6.041  -0.523  -0.310  0.00  0.00    +0.000 OA
ATOM     21  H7  UNL     1      -6.375  -1.399  -0.697  0.00  0.00    +0.000 HD
ENDBRANCH   5  20
BRANCH  16  22
ATOM     22  O2  UNL     1       4.864   1.505   1.050  0.00  0.00    +0.000 OA
ATOM     23  H25 UNL     1       4.628   2.463   1.202  0.00  0.00    +0.000 HD
ENDBRANCH  16  22
TORSDOF 2
REMARK  Name = resultss/4CJN/ligands/lig_47_t1.pdb
REMARK  7 active torsions:
REMARK  status: ('A' for Active; 'I' for Inactive)
REMARK    1  A    between atoms: C1_1  and  C2_2
REMARK    2  A    between atoms: C5_5  and  O1_6
REMARK    3  A    between atoms: C14_15  and  C15_16
REMARK    4  A    between atoms: C16_17  and  O2_18
REMARK    5  A    between atoms: C20_22  and  C21_23
REMARK    6  A    between atoms: C33_36  and  C34_37
REMARK    7  A    between atoms: C38_41  and  O4_42
REMARK                            x       y       z     vdW  Elec       q    Type
REMARK                         _______ _______ _______ _____ _____    ______ ____
ROOT
ATOM      1  C20 UNL     1       2.689   0.911   1.525  0.00  0.00    +0.000 C 
ATOM      2  C21 UNL     1       2.376   0.683   0.004  0.00  0.00    +0.000 C 
ATOM      3  C22 UNL     1       1.512   1.833  -0.546  0.00  0.00    +0.000 C 
ATOM      4  C23 UNL     1       0.098   1.808   0.078  0.00  0.00    +0.000 C 
ATOM      5  C24 UNL     1      -0.591   0.418  -0.076  0.00  0.00    +0.000 C 
ATOM      6  C25 UNL     1       0.307  -0.764   0.428  0.00  0.00    +0.000 C 
ATOM      7  C26 UNL     1      -0.342  -2.150   0.121  0.00  0.00    +0.000 C 
ATOM      8  C27 UNL     1      -1.821  -2.255   0.558  0.00  0.00    +0.000 C 
ATOM      9  C28 UNL     1      -2.679  -1.039   0.114  0.00  0.00    +0.000 C 
ATOM     10  C29 UNL     1      -3.012  -1.110  -1.400  0.00  0.00    +0.000 C 
ATOM     11  C30 UNL     1      -3.817   0.104  -1.807  0.00  0.00    +0.000 C 
ATOM     12  O3  UNL     1      -4.926  -0.020  -2.307  0.00  0.00    +0.000 OA
ATOM     13  C31 UNL     1      -3.284   1.460  -1.460  0.00  0.00    +0.000 C 
ATOM     14  C32 UNL     1      -2.976   1.499   0.048  0.00  0.00    +0.000 C 
ATOM     15  C33 UNL     1      -2.034   0.337   0.529  0.00  0.00    +0.000 C 
ATOM     16  C34 UNL     1      -1.965   0.439   2.075  0.00  0.00    +0.000 C 
ATOM     17  C35 UNL     1       1.663  -0.643  -0.294  0.00  0.00    +0.000 C 
ATOM     18  C36 UNL     1       2.737  -1.705  -0.064  0.00  0.00    +0.000 C 
ATOM     19  C37 UNL     1       4.034  -1.033  -0.554  0.00  0.00    +0.000 C 
ATOM     20  C38 UNL     1       3.686   0.460  -0.777  0.00  0.00    +0.000 C 
ENDROOT
BRANCH  20  21
ATOM     21  O4  UNL     1       4.728   1.336  -0.406  0.00  0.00    +0.000 OA
ATOM     22  H60 UNL     1       5.101   1.032   0.465  0.00  0.00    +0.000 HD
ENDBRANCH  20  21
TORSDOF 1
