REMARK  Name = resultss/4CJN/ligands/lig_303_t1.pdb
REMARK  5 active torsions:
REMARK  status: ('A' for Active; 'I' for Inactive)
REMARK    1  A    between atoms: C1_1  and  O1_2
REMARK    2  A    between atoms: O1_2  and  C2_3
REMARK    3  A    between atoms: C4_5  and  O2_6
REMARK    4  A    between atoms: C8_11  and  O4_12
REMARK    5  A    between atoms: O4_12  and  C9_13
REMARK                            x       y       z     vdW  Elec       q    Type
REMARK                         _______ _______ _______ _____ _____    ______ ____
ROOT
ATOM      1  C2  UNL     1       3.483   0.430   0.646  0.00  0.00    +0.000 A 
ATOM      2  C3  UNL     1       3.139  -0.881   1.010  0.00  0.00    +0.000 A 
ATOM      3  C4  UNL     1       1.838  -1.364   0.826  0.00  0.00    +0.000 A 
ATOM      4  C5  UNL     1       0.821  -0.490   0.335  0.00  0.00    +0.000 A 
ATOM      5  C6  UNL     1      -0.552  -0.828   0.253  0.00  0.00    +0.000 A 
ATOM      6  O3  UNL     1      -0.955  -1.921   0.732  0.00  0.00    +0.000 OA
ATOM      7  C7  UNL     1      -1.484   0.087  -0.316  0.00  0.00    +0.000 A 
ATOM      8  C8  UNL     1      -2.813  -0.205  -0.435  0.00  0.00    +0.000 C 
ATOM      9  C10 UNL     1      -3.737   0.825  -0.988  0.00  0.00    +0.000 C 
ATOM     10  O5  UNL     1      -4.987   0.684  -0.926  0.00  0.00    +0.000 OA
ATOM     11  C11 UNL     1      -3.195   2.049  -1.652  0.00  0.00    +0.000 C 
ATOM     12  C12 UNL     1      -1.755   2.276  -1.317  0.00  0.00    +0.000 C 
ATOM     13  C13 UNL     1      -0.979   1.347  -0.740  0.00  0.00    +0.000 A 
ATOM     14  O6  UNL     1       0.302   1.648  -0.571  0.00  0.00    +0.000 OA
ATOM     15  C14 UNL     1       1.192   0.816  -0.056  0.00  0.00    +0.000 A 
ATOM     16  C15 UNL     1       2.508   1.260   0.098  0.00  0.00    +0.000 A 
ENDROOT
BRANCH   1  18
ATOM     17  C1  UNL     1       5.875   0.206   1.344  0.00  0.00    +0.000 C 
ATOM     18  O1  UNL     1       4.781   0.939   0.801  0.00  0.00    +0.000 OA
ENDBRANCH   1  18
BRANCH   3  19
ATOM     19  O2  UNL     1       1.628  -2.716   1.113  0.00  0.00    +0.000 OA
ATOM     20  H5  UNL     1       0.879  -3.272   0.727  0.00  0.00    +0.000 HD
ENDBRANCH   3  19
BRANCH   8  21
ATOM     21  O4  UNL     1      -3.284  -1.472  -0.034  0.00  0.00    +0.000 OA
ATOM     22  C9  UNL     1      -4.611  -1.963  -0.184  0.00  0.00    +0.000 C 
ENDBRANCH   8  21
TORSDOF 3
