REMARK  Name = resultss/4CJN/ligands/lig_177_t1.pdb
REMARK  7 active torsions:
REMARK  status: ('A' for Active; 'I' for Inactive)
REMARK    1  A    between atoms: C1_1  and  O1_2
REMARK    2  A    between atoms: O1_2  and  C2_3
REMARK    3  A    between atoms: C5_6  and  C6_7
REMARK    4  A    between atoms: N1_8  and  N2_9
REMARK    5  A    between atoms: C7_10  and  O2_11
REMARK    6  A    between atoms: C7_10  and  C8_12
REMARK    7  A    between atoms: C11_15  and  C12_16
REMARK                            x       y       z     vdW  Elec       q    Type
REMARK                         _______ _______ _______ _____ _____    ______ ____
ROOT
ATOM      1  C8  UNL     1      -0.765   0.365   0.582  0.00  0.00    +0.000 A 
ATOM      2  C9  UNL     1      -1.465   1.470   1.096  0.00  0.00    +0.000 A 
ATOM      3  C10 UNL     1      -2.863   1.485   1.108  0.00  0.00    +0.000 A 
ATOM      4  C11 UNL     1      -3.594   0.395   0.606  0.00  0.00    +0.000 A 
ATOM      5  C19 UNL     1      -2.895  -0.710   0.092  0.00  0.00    +0.000 A 
ATOM      6  C20 UNL     1      -1.498  -0.726   0.080  0.00  0.00    +0.000 A 
ENDROOT
BRANCH   4   7
ATOM      7  C12 UNL     1      -5.076   0.400   0.614  0.00  0.00    +0.000 A 
ATOM      8  N3  UNL     1      -5.825  -0.629   0.141  0.00  0.00    +0.000 NA
ATOM      9  C13 UNL     1      -7.152  -0.375   0.264  0.00  0.00    +0.000 A 
ATOM     10  C14 UNL     1      -8.164  -1.250  -0.137  0.00  0.00    +0.000 A 
ATOM     11  C15 UNL     1      -9.503  -0.863   0.047  0.00  0.00    +0.000 A 
ATOM     12  C16 UNL     1      -9.813   0.384   0.625  0.00  0.00    +0.000 A 
ATOM     13  C17 UNL     1      -8.787   1.256   1.024  0.00  0.00    +0.000 A 
ATOM     14  C18 UNL     1      -7.470   0.848   0.831  0.00  0.00    +0.000 A 
ATOM     15  S1  UNL     1      -6.052   1.662   1.202  0.00  0.00    +0.000 S 
ENDBRANCH   4   7
BRANCH   1  17
ATOM     16  N2  UNL     1       1.359  -0.677   0.111  0.00  0.00    +0.000 NA
ATOM     17  C7  UNL     1       0.718   0.361   0.573  0.00  0.00    +0.000 C 
BRANCH  16  19
ATOM     18  C6  UNL     1       3.438   0.105  -0.722  0.00  0.00    +0.000 C 
ATOM     19  N1  UNL     1       2.757  -0.755  -0.027  0.00  0.00    +0.000 NA
BRANCH  18  23
ATOM     20  C2  UNL     1       7.712  -0.148  -1.086  0.00  0.00    +0.000 A 
ATOM     21  C3  UNL     1       7.014  -1.099  -0.317  0.00  0.00    +0.000 A 
ATOM     22  C4  UNL     1       5.623  -1.023  -0.194  0.00  0.00    +0.000 A 
ATOM     23  C5  UNL     1       4.906   0.001  -0.837  0.00  0.00    +0.000 A 
ATOM     24  C21 UNL     1       5.606   0.947  -1.602  0.00  0.00    +0.000 A 
ATOM     25  C22 UNL     1       6.996   0.871  -1.724  0.00  0.00    +0.000 A 
BRANCH  20  27
ATOM     26  C1  UNL     1       9.957  -1.157  -0.648  0.00  0.00    +0.000 C 
ATOM     27  O1  UNL     1       9.106  -0.181  -1.239  0.00  0.00    +0.000 OA
ENDBRANCH  20  27
ENDBRANCH  18  23
ENDBRANCH  16  19
BRANCH  17  28
ATOM     28  O2  UNL     1       1.402   1.466   1.091  0.00  0.00    +0.000 OA
ATOM     29  H7  UNL     1       2.403   1.478   1.240  0.00  0.00    +0.000 HD
ENDBRANCH  17  28
ENDBRANCH   1  17
TORSDOF 6
