REMARK  Name = resultss/4CJN/ligands/lig_388_t1.pdb
REMARK  5 active torsions:
REMARK  status: ('A' for Active; 'I' for Inactive)
REMARK    1  A    between atoms: N1_1  and  S1_2
REMARK    2  A    between atoms: S1_2  and  C1_5
REMARK    3  A    between atoms: C4_8  and  N2_9
REMARK    4  A    between atoms: C6_12  and  O3_13
REMARK    5  A    between atoms: C7_14  and  C8_15
REMARK                            x       y       z     vdW  Elec       q    Type
REMARK                         _______ _______ _______ _____ _____    ______ ____
ROOT
ATOM      1  N2  UNL     1       1.410  -0.064   1.934  0.00  0.00    +0.000 NA
ATOM      2  C5  UNL     1       0.242  -0.244   1.388  0.00  0.00    +0.000 A 
ATOM      3  N3  UNL     1       0.000  -0.263   0.055  0.00  0.00    +0.000 N 
ATOM      4  C6  UNL     1      -1.321  -0.441  -0.217  0.00  0.00    +0.000 A 
ATOM      5  C7  UNL     1      -2.145  -0.530   0.906  0.00  0.00    +0.000 A 
ATOM      6  S2  UNL     1      -1.172  -0.420   2.278  0.00  0.00    +0.000 S 
ATOM      7  H5  UNL     1       0.717  -0.135  -0.691  0.00  0.00    +0.000 HD
ENDROOT
BRANCH   5   8
ATOM      8  C8  UNL     1      -3.600  -0.754   0.928  0.00  0.00    +0.000 C 
ATOM      9  C9  UNL     1      -4.341  -1.648   1.804  0.00  0.00    +0.000 C 
ATOM     10  O4  UNL     1      -3.846  -2.402   2.683  0.00  0.00    +0.000 OA
ATOM     11  N4  UNL     1      -5.733  -1.569   1.518  0.00  0.00    +0.000 NA
ATOM     12  C10 UNL     1      -5.789  -0.690   0.568  0.00  0.00    +0.000 A 
ATOM     13  C11 UNL     1      -6.964  -0.249  -0.041  0.00  0.00    +0.000 A 
ATOM     14  C12 UNL     1      -6.873   0.742  -1.032  0.00  0.00    +0.000 A 
ATOM     15  C13 UNL     1      -5.622   1.282  -1.389  0.00  0.00    +0.000 A 
ATOM     16  C14 UNL     1      -4.446   0.829  -0.769  0.00  0.00    +0.000 A 
ATOM     17  C15 UNL     1      -4.550  -0.179   0.197  0.00  0.00    +0.000 A 
ENDBRANCH   5   8
BRANCH   1  21
ATOM     18  C1  UNL     1       5.192   0.136   0.018  0.00  0.00    +0.000 A 
ATOM     19  C2  UNL     1       4.835   1.076   0.993  0.00  0.00    +0.000 A 
ATOM     20  C3  UNL     1       3.584   1.006   1.613  0.00  0.00    +0.000 A 
ATOM     21  C4  UNL     1       2.666   0.014   1.245  0.00  0.00    +0.000 A 
ATOM     22  C16 UNL     1       3.036  -0.945   0.287  0.00  0.00    +0.000 A 
ATOM     23  C17 UNL     1       4.287  -0.875  -0.333  0.00  0.00    +0.000 A 
BRANCH  18  24
ATOM     24  S1  UNL     1       6.763   0.235  -0.772  0.00  0.00    +0.000 S 
ATOM     25  O1  UNL     1       7.782   0.776   0.191  0.00  0.00    +0.000 OA
ATOM     26  O2  UNL     1       7.198  -1.134  -1.215  0.00  0.00    +0.000 OA
BRANCH  24  27
ATOM     27  N1  UNL     1       6.650   1.276  -2.146  0.00  0.00    +0.000 NA
ATOM     28  H1  UNL     1       6.388   2.223  -1.791  0.00  0.00    +0.000 HD
ATOM     29  H2  UNL     1       7.611   1.359  -2.547  0.00  0.00    +0.000 HD
ENDBRANCH  24  27
ENDBRANCH  18  24
ENDBRANCH   1  21
BRANCH   4  30
ATOM     30  O3  UNL     1      -1.796  -0.558  -1.520  0.00  0.00    +0.000 OA
ATOM     31  H6  UNL     1      -1.166  -0.499  -2.311  0.00  0.00    +0.000 HD
ENDBRANCH   4  30
TORSDOF 5
