REMARK  Name = resultss/4CJN/ligands/lig_376_t2.pdb
REMARK  5 active torsions:
REMARK  status: ('A' for Active; 'I' for Inactive)
REMARK    1  A    between atoms: N1_1  and  S1_2
REMARK    2  A    between atoms: S1_2  and  C1_5
REMARK    3  A    between atoms: C4_8  and  N2_9
REMARK    4  A    between atoms: C6_12  and  O3_13
REMARK    5  A    between atoms: C8_15  and  C9_16
REMARK                            x       y       z     vdW  Elec       q    Type
REMARK                         _______ _______ _______ _____ _____    ______ ____
ROOT
ATOM      1  N2  UNL     1       1.284  -0.943  -2.164  0.00  0.00    +0.000 NA
ATOM      2  C5  UNL     1       0.066  -0.806  -1.733  0.00  0.00    +0.000 C 
ATOM      3  N3  UNL     1      -0.247  -0.316  -0.433  0.00  0.00    +0.000 NA
ATOM      4  C6  UNL     1      -1.517  -0.310  -0.213  0.00  0.00    +0.000 C 
ATOM      5  C7  UNL     1      -2.339  -0.788  -1.335  0.00  0.00    +0.000 C 
ATOM      6  C8  UNL     1      -3.678  -0.825  -1.400  0.00  0.00    +0.000 C 
ATOM      7  S2  UNL     1      -1.330  -1.385  -2.690  0.00  0.00    +0.000 S 
ENDROOT
BRANCH   1  11
ATOM      8  C1  UNL     1       4.882   0.308  -0.280  0.00  0.00    +0.000 A 
ATOM      9  C2  UNL     1       4.838  -0.873  -1.032  0.00  0.00    +0.000 A 
ATOM     10  C3  UNL     1       3.646  -1.273  -1.644  0.00  0.00    +0.000 A 
ATOM     11  C4  UNL     1       2.480  -0.513  -1.492  0.00  0.00    +0.000 A 
ATOM     12  C15 UNL     1       2.533   0.686  -0.756  0.00  0.00    +0.000 A 
ATOM     13  C16 UNL     1       3.725   1.085  -0.145  0.00  0.00    +0.000 A 
BRANCH   8  14
ATOM     14  S1  UNL     1       6.381   0.802   0.501  0.00  0.00    +0.000 S 
ATOM     15  O1  UNL     1       7.555   0.370  -0.332  0.00  0.00    +0.000 OA
ATOM     16  O2  UNL     1       6.414   2.298   0.641  0.00  0.00    +0.000 OA
BRANCH  14  17
ATOM     17  N1  UNL     1       6.479   0.075   2.067  0.00  0.00    +0.000 NA
ATOM     18  H1  UNL     1       7.406   0.340   2.469  0.00  0.00    +0.000 HD
ATOM     19  H2  UNL     1       6.497  -0.959   1.922  0.00  0.00    +0.000 HD
ENDBRANCH  14  17
ENDBRANCH   8  14
ENDBRANCH   1  11
BRANCH   6  20
ATOM     20  C9  UNL     1      -4.586  -0.256  -0.387  0.00  0.00    +0.000 A 
ATOM     21  C10 UNL     1      -5.612  -1.052   0.145  0.00  0.00    +0.000 A 
ATOM     22  C11 UNL     1      -6.514  -0.512   1.068  0.00  0.00    +0.000 A 
ATOM     23  C12 UNL     1      -6.411   0.829   1.447  0.00  0.00    +0.000 A 
ATOM     24  C13 UNL     1      -5.411   1.636   0.897  0.00  0.00    +0.000 A 
ATOM     25  C14 UNL     1      -4.507   1.100  -0.026  0.00  0.00    +0.000 A 
ENDBRANCH   6  20
BRANCH   4  26
ATOM     26  O3  UNL     1      -2.032   0.088   1.017  0.00  0.00    +0.000 OA
ATOM     27  H5  UNL     1      -1.421   0.399   1.762  0.00  0.00    +0.000 HD
ENDBRANCH   4  26
TORSDOF 5
