REMARK  Name = resultss/4CJN/ligands/lig_66_t0.pdb
REMARK  12 active torsions:
REMARK  status: ('A' for Active; 'I' for Inactive)
REMARK    1  A    between atoms: C1_1  and  C2_2
REMARK    2  A    between atoms: C4_4  and  N1_5
REMARK    3  A    between atoms: C5_6  and  O1_7
REMARK    4  A    between atoms: C6_8  and  O2_9
REMARK    5  A    between atoms: C7_10  and  N2_11
REMARK    6  A    between atoms: N2_11  and  C8_12
REMARK    7  A    between atoms: C10_14  and  O3_15
REMARK    8  A    between atoms: C10_14  and  C11_16
REMARK    9  A    between atoms: C11_16  and  O4_17
REMARK   10  A    between atoms: C12_18  and  O5_19
REMARK   11  A    between atoms: C13_20  and  O6_21
REMARK   12  A    between atoms: C14_22  and  O7_23
REMARK                            x       y       z     vdW  Elec       q    Type
REMARK                         _______ _______ _______ _____ _____    ______ ____
ROOT
ATOM      1  C8  UNL     1       0.946   0.211  -0.329  0.00  0.00    +0.000 C 
ATOM      2  C9  UNL     1       1.616   0.262   1.071  0.00  0.00    +0.000 C 
ATOM      3  C10 UNL     1       3.167   0.329   1.019  0.00  0.00    +0.000 C 
ATOM      4  C12 UNL     1       3.756  -0.887   0.207  0.00  0.00    +0.000 C 
ATOM      5  C13 UNL     1       2.703  -1.647  -0.641  0.00  0.00    +0.000 C 
ATOM      6  C14 UNL     1       1.750  -0.657  -1.344  0.00  0.00    +0.000 C 
ENDROOT
BRANCH   1   7
ATOM      7  N2  UNL     1      -0.446  -0.272  -0.220  0.00  0.00    +0.000 NA
ATOM      8  H15 UNL     1      -0.474  -1.162   0.326  0.00  0.00    +0.000 HD
BRANCH   7  15
ATOM      9  C1  UNL     1      -1.648   1.645  -2.117  0.00  0.00    +0.000 C 
ATOM     10  C2  UNL     1      -2.385   1.137  -0.869  0.00  0.00    +0.000 C 
ATOM     11  C3  UNL     1      -3.310  -0.045  -1.228  0.00  0.00    +0.000 C 
ATOM     12  C4  UNL     1      -4.096  -0.586  -0.010  0.00  0.00    +0.000 C 
ATOM     13  C5  UNL     1      -3.164  -0.898   1.187  0.00  0.00    +0.000 C 
ATOM     14  C6  UNL     1      -2.212   0.284   1.507  0.00  0.00    +0.000 C 
ATOM     15  C7  UNL     1      -1.404   0.753   0.266  0.00  0.00    +0.000 C 
BRANCH  12  16
ATOM     16  N1  UNL     1      -5.189   0.312   0.384  0.00  0.00    +0.000 NA
ATOM     17  H8  UNL     1      -4.820   1.262   0.613  0.00  0.00    +0.000 HD
ATOM     18  H9  UNL     1      -5.845   0.418  -0.424  0.00  0.00    +0.000 HD
ENDBRANCH  12  16
BRANCH  13  19
ATOM     19  O1  UNL     1      -3.926  -1.199   2.329  0.00  0.00    +0.000 OA
ATOM     20  H11 UNL     1      -4.321  -2.099   2.183  0.00  0.00    +0.000 HD
ENDBRANCH  13  19
BRANCH  14  21
ATOM     21  O2  UNL     1      -1.356  -0.001   2.588  0.00  0.00    +0.000 OA
ATOM     22  H13 UNL     1      -1.020  -0.928   2.492  0.00  0.00    +0.000 HD
ENDBRANCH  14  21
ENDBRANCH   7  15
ENDBRANCH   1   7
BRANCH   3  23
ATOM     23  O3  UNL     1       3.659   0.269   2.341  0.00  0.00    +0.000 OA
ATOM     24  H19 UNL     1       3.274   1.025   2.857  0.00  0.00    +0.000 HD
ENDBRANCH   3  23
BRANCH   4  25
ATOM     25  O5  UNL     1       4.369  -1.801   1.084  0.00  0.00    +0.000 OA
ATOM     26  H24 UNL     1       4.996  -2.354   0.547  0.00  0.00    +0.000 HD
ENDBRANCH   4  25
BRANCH   5  27
ATOM     27  O6  UNL     1       3.369  -2.432  -1.599  0.00  0.00    +0.000 OA
ATOM     28  H26 UNL     1       2.772  -3.193  -1.818  0.00  0.00    +0.000 HD
ENDBRANCH   5  27
BRANCH   6  29
ATOM     29  O7  UNL     1       0.900  -1.317  -2.254  0.00  0.00    +0.000 OA
ATOM     30  H28 UNL     1       0.478  -2.081  -1.780  0.00  0.00    +0.000 HD
ENDBRANCH   6  29
BRANCH   3  31
ATOM     31  C11 UNL     1       3.620   1.677   0.397  0.00  0.00    +0.000 C 
BRANCH  31  32
ATOM     32  O4  UNL     1       5.009   1.825   0.522  0.00  0.00    +0.000 OA
ATOM     33  H22 UNL     1       5.221   2.738   0.188  0.00  0.00    +0.000 HD
ENDBRANCH  31  32
ENDBRANCH   3  31
TORSDOF 11
