REMARK  Name = resultss/4CJN/ligands/lig_421_t0.pdb
REMARK  7 active torsions:
REMARK  status: ('A' for Active; 'I' for Inactive)
REMARK    1  A    between atoms: C1_2  and  C10_18
REMARK    2  A    between atoms: N1_3  and  N2_4
REMARK    3  A    between atoms: N2_4  and  C2_5
REMARK    4  A    between atoms: C2_5  and  N3_7
REMARK    5  A    between atoms: N3_7  and  C3_8
REMARK    6  A    between atoms: C6_11  and  C7_12
REMARK    7  A    between atoms: C20_29  and  C21_30
REMARK                            x       y       z     vdW  Elec       q    Type
REMARK                         _______ _______ _______ _____ _____    ______ ____
ROOT
ATOM      1  O1  UNL     1       0.038  -1.128   3.898  0.00  0.00    +0.000 OA
ATOM      2  C1  UNL     1       0.044  -0.634   2.737  0.00  0.00    +0.000 C 
ATOM      3  N1  UNL     1       1.226   0.018   2.247  0.00  0.00    +0.000 N 
ATOM      4  H1  UNL     1       1.233   0.383   1.268  0.00  0.00    +0.000 HD
ENDROOT
BRANCH   2   5
ATOM      5  C10 UNL     1      -1.162  -0.740   1.888  0.00  0.00    +0.000 A 
ATOM      6  C11 UNL     1      -2.249  -1.553   2.278  0.00  0.00    +0.000 A 
ATOM      7  C12 UNL     1      -3.331  -1.626   1.408  0.00  0.00    +0.000 A 
ATOM      8  C13 UNL     1      -3.366  -0.927   0.221  0.00  0.00    +0.000 A 
ATOM      9  N4  UNL     1      -4.484  -1.217  -0.488  0.00  0.00    +0.000 N 
ATOM     10  C14 UNL     1      -5.160  -2.099   0.280  0.00  0.00    +0.000 A 
ATOM     11  C15 UNL     1      -6.379  -2.710  -0.014  0.00  0.00    +0.000 A 
ATOM     12  C16 UNL     1      -6.907  -3.615   0.927  0.00  0.00    +0.000 A 
ATOM     13  C17 UNL     1      -6.212  -3.893   2.127  0.00  0.00    +0.000 A 
ATOM     14  C18 UNL     1      -4.980  -3.270   2.399  0.00  0.00    +0.000 A 
ATOM     15  C19 UNL     1      -4.486  -2.372   1.452  0.00  0.00    +0.000 A 
ATOM     16  C20 UNL     1      -2.293  -0.102  -0.143  0.00  0.00    +0.000 A 
ATOM     17  N5  UNL     1      -1.219  -0.050   0.703  0.00  0.00    +0.000 NA
ATOM     18  H9  UNL     1      -4.756  -0.877  -1.436  0.00  0.00    +0.000 HD
BRANCH  16  19
ATOM     19  C21 UNL     1      -2.270   0.689  -1.390  0.00  0.00    +0.000 A 
ATOM     20  C22 UNL     1      -3.382   1.456  -1.783  0.00  0.00    +0.000 A 
ATOM     21  C23 UNL     1      -3.333   2.222  -2.952  0.00  0.00    +0.000 A 
ATOM     22  C24 UNL     1      -2.172   2.242  -3.729  0.00  0.00    +0.000 A 
ATOM     23  C25 UNL     1      -1.056   1.501  -3.334  0.00  0.00    +0.000 A 
ATOM     24  C26 UNL     1      -1.100   0.733  -2.166  0.00  0.00    +0.000 A 
ENDBRANCH  16  19
ENDBRANCH   2   5
BRANCH   3  25
ATOM     25  N2  UNL     1       2.390   0.110   3.032  0.00  0.00    +0.000 N 
ATOM     26  H2  UNL     1       2.403  -0.309   3.989  0.00  0.00    +0.000 HD
BRANCH  25  27
ATOM     27  C2  UNL     1       3.606   0.665   2.510  0.00  0.00    +0.000 C 
ATOM     28  S1  UNL     1       4.978   0.553   3.406  0.00  0.00    +0.000 S 
BRANCH  27  29
ATOM     29  N3  UNL     1       3.580   1.498   1.343  0.00  0.00    +0.000 N 
ATOM     30  H3  UNL     1       2.783   2.164   1.241  0.00  0.00    +0.000 HD
BRANCH  29  31
ATOM     31  C3  UNL     1       4.605   1.496   0.332  0.00  0.00    +0.000 A 
ATOM     32  C4  UNL     1       4.755   2.614  -0.502  0.00  0.00    +0.000 A 
ATOM     33  C5  UNL     1       5.730   2.627  -1.506  0.00  0.00    +0.000 A 
ATOM     34  C6  UNL     1       6.574   1.517  -1.695  0.00  0.00    +0.000 A 
ATOM     35  C8  UNL     1       6.397   0.383  -0.884  0.00  0.00    +0.000 A 
ATOM     36  C9  UNL     1       5.421   0.371   0.118  0.00  0.00    +0.000 A 
BRANCH  34  37
ATOM     37  C7  UNL     1       7.594   1.488  -2.805  0.00  0.00    +0.000 C 
ATOM     38  F1  UNL     1       7.138   0.664  -3.817  0.00  0.00    +0.000 F 
ATOM     39  F2  UNL     1       7.816   2.755  -3.320  0.00  0.00    +0.000 F 
ATOM     40  F3  UNL     1       8.795   0.990  -2.328  0.00  0.00    +0.000 F 
ENDBRANCH  34  37
ENDBRANCH  29  31
ENDBRANCH  27  29
ENDBRANCH  25  27
ENDBRANCH   3  25
TORSDOF 7
