REMARK  Name = resultss/4CJN/ligands/lig_311_t1.pdb
REMARK  8 active torsions:
REMARK  status: ('A' for Active; 'I' for Inactive)
REMARK    1  A    between atoms: C9_13  and  O5_14
REMARK    2  A    between atoms: C12_17  and  O6_18
REMARK    3  A    between atoms: O6_18  and  C13_19
REMARK    4  A    between atoms: C14_21  and  C15_22
REMARK    5  A    between atoms: C15_22  and  O8_23
REMARK    6  A    between atoms: C16_24  and  O9_25
REMARK    7  A    between atoms: C17_26  and  O10_27
REMARK    8  A    between atoms: C18_28  and  O11_29
REMARK                            x       y       z     vdW  Elec       q    Type
REMARK                         _______ _______ _______ _____ _____    ______ ____
ROOT
ATOM      1  O1  UNL     1      -1.261   0.575   1.690  0.00  0.00    +0.000 OA
ATOM      2  C1  UNL     1      -2.070   0.325   0.755  0.00  0.00    +0.000 A 
ATOM      3  C2  UNL     1      -3.433   0.106   1.047  0.00  0.00    +0.000 A 
ATOM      4  C3  UNL     1      -3.970   0.172   2.439  0.00  0.00    +0.000 C 
ATOM      5  O2  UNL     1      -3.202   0.394   3.414  0.00  0.00    +0.000 OA
ATOM      6  C4  UNL     1      -5.425  -0.068   2.726  0.00  0.00    +0.000 C 
ATOM      7  C5  UNL     1      -6.253   0.121   1.492  0.00  0.00    +0.000 C 
ATOM      8  O3  UNL     1      -7.353   0.646   1.566  0.00  0.00    +0.000 OA
ATOM      9  C6  UNL     1      -5.771  -0.438   0.186  0.00  0.00    +0.000 C 
ATOM     10  C7  UNL     1      -4.308  -0.164  -0.028  0.00  0.00    +0.000 A 
ATOM     11  O4  UNL     1      -3.846  -0.219  -1.271  0.00  0.00    +0.000 OA
ATOM     12  C8  UNL     1      -2.573  -0.019  -1.590  0.00  0.00    +0.000 A 
ATOM     13  C9  UNL     1      -2.183  -0.095  -2.936  0.00  0.00    +0.000 A 
ATOM     14  C10 UNL     1      -0.850   0.112  -3.285  0.00  0.00    +0.000 A 
ATOM     15  C11 UNL     1       0.102   0.393  -2.308  0.00  0.00    +0.000 A 
ATOM     16  C12 UNL     1      -0.262   0.473  -0.949  0.00  0.00    +0.000 A 
ATOM     17  C19 UNL     1      -1.618   0.265  -0.583  0.00  0.00    +0.000 A 
ENDROOT
BRANCH  13  18
ATOM     18  O5  UNL     1      -3.108  -0.375  -3.942  0.00  0.00    +0.000 OA
ATOM     19  H5  UNL     1      -4.089  -0.533  -3.745  0.00  0.00    +0.000 HD
ENDBRANCH  13  18
BRANCH  16  20
ATOM     20  O6  UNL     1       0.691   0.758   0.046  0.00  0.00    +0.000 OA
BRANCH  20  21
ATOM     21  C13 UNL     1       2.093   0.921  -0.168  0.00  0.00    +0.000 C 
ATOM     22  O7  UNL     1       2.621  -0.305  -0.659  0.00  0.00    +0.000 OA
ATOM     23  C14 UNL     1       4.034  -0.298  -0.613  0.00  0.00    +0.000 C 
ATOM     24  C16 UNL     1       4.499  -0.462   0.858  0.00  0.00    +0.000 C 
ATOM     25  C17 UNL     1       3.505   0.210   1.845  0.00  0.00    +0.000 C 
ATOM     26  C18 UNL     1       2.748   1.377   1.171  0.00  0.00    +0.000 C 
BRANCH  24  27
ATOM     27  O9  UNL     1       5.803   0.038   1.027  0.00  0.00    +0.000 OA
ATOM     28  H14 UNL     1       5.780   1.014   0.853  0.00  0.00    +0.000 HD
ENDBRANCH  24  27
BRANCH  25  29
ATOM     29  O10 UNL     1       2.580  -0.750   2.290  0.00  0.00    +0.000 OA
ATOM     30  H16 UNL     1       2.149  -0.381   3.105  0.00  0.00    +0.000 HD
ENDBRANCH  25  29
BRANCH  26  31
ATOM     31  O11 UNL     1       3.629   2.442   0.919  0.00  0.00    +0.000 OA
ATOM     32  H18 UNL     1       3.821   2.872   1.793  0.00  0.00    +0.000 HD
ENDBRANCH  26  31
BRANCH  23  33
ATOM     33  C15 UNL     1       4.570  -1.437  -1.490  0.00  0.00    +0.000 C 
BRANCH  33  34
ATOM     34  O8  UNL     1       4.164  -1.262  -2.820  0.00  0.00    +0.000 OA
ATOM     35  H12 UNL     1       4.737  -0.546  -3.201  0.00  0.00    +0.000 HD
ENDBRANCH  33  34
ENDBRANCH  23  33
ENDBRANCH  20  21
ENDBRANCH  16  20
TORSDOF 8
