REMARK  Name = resultss/4CJN/ligands/lig_297_t2.pdb
REMARK  19 active torsions:
REMARK  status: ('A' for Active; 'I' for Inactive)
REMARK    1  A    between atoms: C1_1  and  O1_2
REMARK    2  A    between atoms: O1_2  and  C2_3
REMARK    3  A    between atoms: C4_5  and  O2_6
REMARK    4  A    between atoms: C6_8  and  O3_9
REMARK    5  A    between atoms: C9_13  and  C10_14
REMARK    6  A    between atoms: C11_16  and  O6_17
REMARK    7  A    between atoms: C12_18  and  O7_19
REMARK    8  A    between atoms: C13_20  and  O8_21
REMARK    9  A    between atoms: O8_21  and  C14_22
REMARK   10  A    between atoms: C15_24  and  C16_25
REMARK   11  A    between atoms: C17_26  and  O10_27
REMARK   12  A    between atoms: C18_28  and  O11_29
REMARK   13  A    between atoms: C19_30  and  O12_31
REMARK   14  A    between atoms: C20_32  and  O13_33
REMARK   15  A    between atoms: O13_33  and  C21_34
REMARK   16  A    between atoms: C22_36  and  C23_37
REMARK   17  A    between atoms: C24_38  and  O15_39
REMARK   18  A    between atoms: C25_40  and  O16_41
REMARK   19  A    between atoms: C26_42  and  O17_43
REMARK                            x       y       z     vdW  Elec       q    Type
REMARK                         _______ _______ _______ _____ _____    ______ ____
ROOT
ATOM      1  C10 UNL     1       0.079  -0.813  -1.105  0.00  0.00    +0.000 C 
ATOM      2  O5  UNL     1       0.020  -1.617  -2.277  0.00  0.00    +0.000 OA
ATOM      3  C11 UNL     1      -0.342  -2.964  -2.023  0.00  0.00    +0.000 C 
ATOM      4  C12 UNL     1      -1.787  -3.069  -1.455  0.00  0.00    +0.000 C 
ATOM      5  C13 UNL     1      -2.206  -1.808  -0.655  0.00  0.00    +0.000 C 
ATOM      6  C20 UNL     1      -0.970  -1.170  -0.003  0.00  0.00    +0.000 C 
ENDROOT
BRANCH   1  15
ATOM      7  C2  UNL     1       8.753   0.979  -0.387  0.00  0.00    +0.000 A 
ATOM      8  C3  UNL     1       8.396   1.751  -1.495  0.00  0.00    +0.000 A 
ATOM      9  C4  UNL     1       7.063   1.847  -1.917  0.00  0.00    +0.000 A 
ATOM     10  C5  UNL     1       6.053   1.127  -1.231  0.00  0.00    +0.000 A 
ATOM     11  C6  UNL     1       4.688   1.221  -1.589  0.00  0.00    +0.000 A 
ATOM     12  C7  UNL     1       3.751   0.361  -0.969  0.00  0.00    +0.000 A 
ATOM     13  C8  UNL     1       2.394   0.223  -1.346  0.00  0.00    +0.000 A 
ATOM     14  O4  UNL     1       1.942   0.852  -2.343  0.00  0.00    +0.000 OA
ATOM     15  C9  UNL     1       1.532  -0.667  -0.639  0.00  0.00    +0.000 A 
ATOM     16  C27 UNL     1       2.073  -1.483   0.379  0.00  0.00    +0.000 A 
ATOM     17  C28 UNL     1       3.406  -1.386   0.760  0.00  0.00    +0.000 A 
ATOM     18  C29 UNL     1       4.261  -0.508   0.117  0.00  0.00    +0.000 A 
ATOM     19  O18 UNL     1       5.536  -0.479   0.459  0.00  0.00    +0.000 OA
ATOM     20  C30 UNL     1       6.433   0.283  -0.158  0.00  0.00    +0.000 A 
ATOM     21  C31 UNL     1       7.767   0.215   0.258  0.00  0.00    +0.000 A 
BRANCH  11  22
ATOM     22  O3  UNL     1       4.300   2.180  -2.532  0.00  0.00    +0.000 OA
ATOM     23  H6  UNL     1       3.392   2.636  -2.518  0.00  0.00    +0.000 HD
ENDBRANCH  11  22
BRANCH   7  25
ATOM     24  C1  UNL     1      10.576   0.291   1.179  0.00  0.00    +0.000 C 
ATOM     25  O1  UNL     1      10.086   1.001   0.038  0.00  0.00    +0.000 OA
ENDBRANCH   7  25
BRANCH   9  26
ATOM     26  O2  UNL     1       6.773   2.614  -3.051  0.00  0.00    +0.000 OA
ATOM     27  H5  UNL     1       7.313   2.466  -3.893  0.00  0.00    +0.000 HD
ENDBRANCH   9  26
ENDBRANCH   1  15
BRANCH   3  28
ATOM     28  O6  UNL     1       0.581  -3.564  -1.141  0.00  0.00    +0.000 OA
ATOM     29  H9  UNL     1       0.689  -4.511  -1.425  0.00  0.00    +0.000 HD
ENDBRANCH   3  28
BRANCH   4  30
ATOM     30  O7  UNL     1      -2.719  -3.352  -2.473  0.00  0.00    +0.000 OA
ATOM     31  H11 UNL     1      -2.549  -2.735  -3.233  0.00  0.00    +0.000 HD
ENDBRANCH   4  30
BRANCH   5  32
ATOM     32  O8  UNL     1      -2.826  -0.854  -1.513  0.00  0.00    +0.000 OA
BRANCH  32  33
ATOM     33  C14 UNL     1      -4.183  -0.653  -1.168  0.00  0.00    +0.000 C 
ATOM     34  O9  UNL     1      -4.915  -1.851  -1.386  0.00  0.00    +0.000 OA
ATOM     35  C15 UNL     1      -6.269  -1.733  -0.975  0.00  0.00    +0.000 C 
ATOM     36  C16 UNL     1      -6.415  -1.709   0.560  0.00  0.00    +0.000 C 
ATOM     37  C17 UNL     1      -7.008  -0.588  -1.725  0.00  0.00    +0.000 C 
ATOM     38  C18 UNL     1      -6.225   0.734  -1.688  0.00  0.00    +0.000 C 
ATOM     39  C19 UNL     1      -4.739   0.504  -2.019  0.00  0.00    +0.000 C 
BRANCH  37  40
ATOM     40  O10 UNL     1      -8.292  -0.396  -1.194  0.00  0.00    +0.000 OA
ATOM     41  H19 UNL     1      -8.817  -1.209  -1.417  0.00  0.00    +0.000 HD
ENDBRANCH  37  40
BRANCH  38  42
ATOM     42  O11 UNL     1      -6.343   1.312  -0.413  0.00  0.00    +0.000 OA
ATOM     43  H21 UNL     1      -6.174   2.284  -0.522  0.00  0.00    +0.000 HD
ENDBRANCH  38  42
BRANCH  39  44
ATOM     44  O12 UNL     1      -4.553   0.289  -3.401  0.00  0.00    +0.000 OA
ATOM     45  H23 UNL     1      -4.885  -0.625  -3.626  0.00  0.00    +0.000 HD
ENDBRANCH  39  44
ENDBRANCH  32  33
ENDBRANCH   5  32
BRANCH   6  46
ATOM     46  O13 UNL     1      -1.345   0.027   0.660  0.00  0.00    +0.000 OA
BRANCH  46  47
ATOM     47  C21 UNL     1      -1.585  -0.165   2.052  0.00  0.00    +0.000 C 
ATOM     48  O14 UNL     1      -2.546   0.778   2.502  0.00  0.00    +0.000 OA
ATOM     49  C22 UNL     1      -2.115   2.117   2.280  0.00  0.00    +0.000 C 
ATOM     50  C23 UNL     1      -3.250   3.049   2.691  0.00  0.00    +0.000 C 
ATOM     51  C24 UNL     1      -0.836   2.429   3.097  0.00  0.00    +0.000 C 
ATOM     52  C25 UNL     1       0.267   1.409   2.755  0.00  0.00    +0.000 C 
ATOM     53  C26 UNL     1      -0.272  -0.027   2.864  0.00  0.00    +0.000 C 
BRANCH  51  54
ATOM     54  O15 UNL     1      -0.385   3.741   2.862  0.00  0.00    +0.000 OA
ATOM     55  H31 UNL     1      -0.167   3.810   1.899  0.00  0.00    +0.000 HD
ENDBRANCH  51  54
BRANCH  52  56
ATOM     56  O16 UNL     1       1.400   1.585   3.571  0.00  0.00    +0.000 OA
ATOM     57  H33 UNL     1       1.099   1.614   4.518  0.00  0.00    +0.000 HD
ENDBRANCH  52  56
BRANCH  53  58
ATOM     58  O17 UNL     1      -0.448  -0.405   4.210  0.00  0.00    +0.000 OA
ATOM     59  H35 UNL     1      -1.323  -0.048   4.526  0.00  0.00    +0.000 HD
ENDBRANCH  53  58
ENDBRANCH  46  47
ENDBRANCH   6  46
TORSDOF 16
