REMARK  Name = resultss/4CJN/ligands/lig_179_t0.pdb
REMARK  5 active torsions:
REMARK  status: ('A' for Active; 'I' for Inactive)
REMARK    1  A    between atoms: C1_2  and  C9_14
REMARK    2  A    between atoms: N1_3  and  N2_4
REMARK    3  A    between atoms: C2_5  and  C3_6
REMARK    4  A    between atoms: C6_9  and  O2_10
REMARK    5  A    between atoms: C12_17  and  C13_18
REMARK                            x       y       z     vdW  Elec       q    Type
REMARK                         _______ _______ _______ _____ _____    ______ ____
ROOT
ATOM      1  O1  UNL     1       2.473   0.782  -3.094  0.00  0.00    +0.000 OA
ATOM      2  C1  UNL     1       1.888  -0.275  -2.732  0.00  0.00    +0.000 C 
ATOM      3  N1  UNL     1       2.445  -1.548  -3.096  0.00  0.00    +0.000 N 
ATOM      4  H1  UNL     1       1.792  -2.330  -3.323  0.00  0.00    +0.000 HD
ENDROOT
BRANCH   2   5
ATOM      5  C9  UNL     1       0.645  -0.189  -1.927  0.00  0.00    +0.000 A 
ATOM      6  C10 UNL     1      -0.043   1.031  -1.814  0.00  0.00    +0.000 A 
ATOM      7  C11 UNL     1      -1.195   1.128  -1.030  0.00  0.00    +0.000 A 
ATOM      8  C12 UNL     1      -1.682   0.010  -0.333  0.00  0.00    +0.000 A 
ATOM      9  C20 UNL     1      -0.991  -1.209  -0.440  0.00  0.00    +0.000 A 
ATOM     10  C21 UNL     1       0.160  -1.307  -1.227  0.00  0.00    +0.000 A 
BRANCH   8  11
ATOM     11  C13 UNL     1      -2.900   0.126   0.503  0.00  0.00    +0.000 A 
ATOM     12  N3  UNL     1      -3.601   1.281   0.637  0.00  0.00    +0.000 NA
ATOM     13  C14 UNL     1      -4.671   1.120   1.456  0.00  0.00    +0.000 A 
ATOM     14  C15 UNL     1      -5.576   2.133   1.782  0.00  0.00    +0.000 A 
ATOM     15  C16 UNL     1      -6.644   1.832   2.645  0.00  0.00    +0.000 A 
ATOM     16  C17 UNL     1      -6.795   0.532   3.169  0.00  0.00    +0.000 A 
ATOM     17  C18 UNL     1      -5.879  -0.478   2.834  0.00  0.00    +0.000 A 
ATOM     18  C19 UNL     1      -4.830  -0.153   1.977  0.00  0.00    +0.000 A 
ATOM     19  S1  UNL     1      -3.597  -1.134   1.406  0.00  0.00    +0.000 S 
ENDBRANCH   8  11
ENDBRANCH   2   5
BRANCH   3  20
ATOM     20  N2  UNL     1       3.798  -1.692  -3.453  0.00  0.00    +0.000 NA
ATOM     21  C2  UNL     1       4.801  -1.258  -2.743  0.00  0.00    +0.000 C 
BRANCH  21  22
ATOM     22  C3  UNL     1       4.662  -0.678  -1.388  0.00  0.00    +0.000 A 
ATOM     23  C4  UNL     1       5.438   0.434  -1.036  0.00  0.00    +0.000 A 
ATOM     24  C5  UNL     1       5.317   1.004   0.234  0.00  0.00    +0.000 A 
ATOM     25  C6  UNL     1       4.431   0.465   1.173  0.00  0.00    +0.000 A 
ATOM     26  C7  UNL     1       3.670  -0.672   0.837  0.00  0.00    +0.000 A 
ATOM     27 BR1  UNL     1       2.436  -1.468   2.068  0.00  0.00    +0.000 Br
ATOM     28  C8  UNL     1       3.805  -1.247  -0.431  0.00  0.00    +0.000 A 
BRANCH  25  29
ATOM     29  O2  UNL     1       4.331   1.075   2.424  0.00  0.00    +0.000 OA
ATOM     30  H5  UNL     1       3.711   0.738   3.150  0.00  0.00    +0.000 HD
ENDBRANCH  25  29
ENDBRANCH  21  22
ENDBRANCH   3  20
TORSDOF 5
