REMARK  Name = resultss/4CJN/ligands/lig_387_t0.pdb
REMARK  6 active torsions:
REMARK  status: ('A' for Active; 'I' for Inactive)
REMARK    1  A    between atoms: C1_1  and  C2_2
REMARK    2  A    between atoms: C2_2  and  N1_3
REMARK    3  A    between atoms: C5_7  and  C6_8
REMARK    4  A    between atoms: N2_17  and  C13_18
REMARK    5  A    between atoms: C16_21  and  S2_22
REMARK    6  A    between atoms: S2_22  and  N3_23
REMARK                            x       y       z     vdW  Elec       q    Type
REMARK                         _______ _______ _______ _____ _____    ______ ____
ROOT
ATOM      1  N1  UNL     1      -0.278   0.049  -1.190  0.00  0.00    +0.000 N 
ATOM      2  C3  UNL     1      -1.672   0.070  -0.902  0.00  0.00    +0.000 C 
ATOM      3  O1  UNL     1      -2.256   1.104  -0.477  0.00  0.00    +0.000 OA
ATOM      4  C4  UNL     1      -2.358  -1.181  -1.237  0.00  0.00    +0.000 C 
ATOM      5  C5  UNL     1      -3.583  -1.564  -0.850  0.00  0.00    +0.000 C 
ATOM      6  S1  UNL     1      -1.328  -2.228  -2.265  0.00  0.00    +0.000 S 
ATOM      7  C12 UNL     1       0.062  -1.252  -1.687  0.00  0.00    +0.000 C 
ATOM      8  N2  UNL     1       1.221  -1.816  -1.505  0.00  0.00    +0.000 NA
ENDROOT
BRANCH   5   9
ATOM      9  C6  UNL     1      -4.439  -0.822   0.097  0.00  0.00    +0.000 A 
ATOM     10  C7  UNL     1      -3.950  -0.403   1.347  0.00  0.00    +0.000 A 
ATOM     11  C8  UNL     1      -4.792   0.257   2.248  0.00  0.00    +0.000 A 
ATOM     12  C9  UNL     1      -6.131   0.484   1.918  0.00  0.00    +0.000 A 
ATOM     13  F1  UNL     1      -6.946   1.121   2.793  0.00  0.00    +0.000 F 
ATOM     14  C10 UNL     1      -6.631   0.042   0.689  0.00  0.00    +0.000 A 
ATOM     15  C11 UNL     1      -5.792  -0.618  -0.214  0.00  0.00    +0.000 A 
ENDBRANCH   5   9
BRANCH   8  16
ATOM     16  C13 UNL     1       2.334  -1.285  -0.773  0.00  0.00    +0.000 A 
ATOM     17  C14 UNL     1       2.162  -0.689   0.489  0.00  0.00    +0.000 A 
ATOM     18  C15 UNL     1       3.269  -0.213   1.198  0.00  0.00    +0.000 A 
ATOM     19  C16 UNL     1       4.559  -0.352   0.669  0.00  0.00    +0.000 A 
ATOM     20  C17 UNL     1       4.733  -0.971  -0.576  0.00  0.00    +0.000 A 
ATOM     21  C18 UNL     1       3.626  -1.447  -1.286  0.00  0.00    +0.000 A 
BRANCH  19  22
ATOM     22  S2  UNL     1       5.948   0.264   1.557  0.00  0.00    +0.000 S 
ATOM     23  O2  UNL     1       5.707   0.129   3.035  0.00  0.00    +0.000 OA
ATOM     24  O3  UNL     1       7.176  -0.524   1.195  0.00  0.00    +0.000 OA
BRANCH  22  25
ATOM     25  N3  UNL     1       6.193   1.928   1.157  0.00  0.00    +0.000 NA
ATOM     26  H13 UNL     1       6.980   2.273   1.751  0.00  0.00    +0.000 HD
ATOM     27  H14 UNL     1       5.337   2.444   1.460  0.00  0.00    +0.000 HD
ENDBRANCH  22  25
ENDBRANCH  19  22
ENDBRANCH   8  16
BRANCH   1  29
ATOM     28  C1  UNL     1       0.070   1.750  -2.937  0.00  0.00    +0.000 C 
ATOM     29  C2  UNL     1       0.457   1.270  -1.542  0.00  0.00    +0.000 C 
ENDBRANCH   1  29
TORSDOF 5
