REMARK  Name = resultss/4CJN/ligands/lig_330_t0.pdb
REMARK  9 active torsions:
REMARK  status: ('A' for Active; 'I' for Inactive)
REMARK    1  A    between atoms: C1_1  and  O1_2
REMARK    2  A    between atoms: O1_2  and  C2_3
REMARK    3  A    between atoms: C5_6  and  C6_7
REMARK    4  A    between atoms: C6_7  and  C7_8
REMARK    5  A    between atoms: C7_8  and  C8_9
REMARK    6  A    between atoms: C10_11  and  O2_12
REMARK    7  A    between atoms: C11_13  and  O3_14
REMARK    8  A    between atoms: C12_15  and  O4_16
REMARK    9  A    between atoms: O4_16  and  C13_17
REMARK                            x       y       z     vdW  Elec       q    Type
REMARK                         _______ _______ _______ _____ _____    ______ ____
ROOT
ATOM      1  C8  UNL     1       1.740   0.117   0.784  0.00  0.00    +0.000 A 
ATOM      2  C9  UNL     1       2.101  -0.614   1.922  0.00  0.00    +0.000 A 
ATOM      3  C10 UNL     1       3.429  -0.995   2.138  0.00  0.00    +0.000 A 
ATOM      4  C11 UNL     1       4.420  -0.645   1.190  0.00  0.00    +0.000 A 
ATOM      5  C12 UNL     1       4.061   0.075   0.039  0.00  0.00    +0.000 A 
ATOM      6  C14 UNL     1       2.719   0.449  -0.161  0.00  0.00    +0.000 A 
ENDROOT
BRANCH   3   7
ATOM      7  O2  UNL     1       3.716  -1.719   3.298  0.00  0.00    +0.000 OA
ATOM      8  H11 UNL     1       4.637  -2.048   3.547  0.00  0.00    +0.000 HD
ENDBRANCH   3   7
BRANCH   4   9
ATOM      9  O3  UNL     1       5.764  -0.991   1.351  0.00  0.00    +0.000 OA
ATOM     10  H12 UNL     1       6.127  -1.501   2.142  0.00  0.00    +0.000 HD
ENDBRANCH   4   9
BRANCH   5  11
ATOM     11  O4  UNL     1       5.068   0.399  -0.885  0.00  0.00    +0.000 OA
ATOM     12  C13 UNL     1       4.854   1.120  -2.094  0.00  0.00    +0.000 C 
ENDBRANCH   5  11
BRANCH   1  13
ATOM     13  C7  UNL     1       0.300   0.490   0.547  0.00  0.00    +0.000 C 
BRANCH  13  14
ATOM     14  C6  UNL     1      -0.416  -0.608  -0.246  0.00  0.00    +0.000 C 
BRANCH  14  18
ATOM     15  C2  UNL     1      -4.533   0.532  -0.898  0.00  0.00    +0.000 A 
ATOM     16  C3  UNL     1      -4.171  -0.203   0.247  0.00  0.00    +0.000 A 
ATOM     17  C4  UNL     1      -2.840  -0.578   0.452  0.00  0.00    +0.000 A 
ATOM     18  C5  UNL     1      -1.854  -0.234  -0.485  0.00  0.00    +0.000 A 
ATOM     19  C15 UNL     1      -2.213   0.510  -1.619  0.00  0.00    +0.000 A 
ATOM     20  C16 UNL     1      -3.544   0.884  -1.824  0.00  0.00    +0.000 A 
BRANCH  15  22
ATOM     21  C1  UNL     1      -6.957   0.644  -0.297  0.00  0.00    +0.000 C 
ATOM     22  O1  UNL     1      -5.854   0.932  -1.150  0.00  0.00    +0.000 OA
ENDBRANCH  15  22
ENDBRANCH  14  18
ENDBRANCH  13  14
ENDBRANCH   1  13
TORSDOF 7
