REMARK  Name = resultss/4CJN/ligands/lig_332_t1.pdb
REMARK  6 active torsions:
REMARK  status: ('A' for Active; 'I' for Inactive)
REMARK    1  A    between atoms: C1_1  and  O1_2
REMARK    2  A    between atoms: O1_2  and  C2_3
REMARK    3  A    between atoms: C4_5  and  C5_6
REMARK    4  A    between atoms: C5_6  and  C6_7
REMARK    5  A    between atoms: C6_7  and  C7_8
REMARK    6  A    between atoms: C11_12  and  O2_13
REMARK                            x       y       z     vdW  Elec       q    Type
REMARK                         _______ _______ _______ _____ _____    ______ ____
ROOT
ATOM      1  C2  UNL     1       3.266   0.426  -0.043  0.00  0.00    +0.000 C 
ATOM      2  C3  UNL     1       1.929   0.465   0.053  0.00  0.00    +0.000 C 
ATOM      3  C4  UNL     1       1.094  -0.800   0.161  0.00  0.00    +0.000 C 
ATOM      4  C13 UNL     1       1.663  -1.904  -0.754  0.00  0.00    +0.000 C 
ATOM      5  C14 UNL     1       3.134  -2.075  -0.506  0.00  0.00    +0.000 C 
ATOM      6  O3  UNL     1       3.672  -3.208  -0.631  0.00  0.00    +0.000 OA
ATOM      7  C15 UNL     1       3.944  -0.892  -0.175  0.00  0.00    +0.000 C 
ATOM      8  O4  UNL     1       5.186  -1.014  -0.003  0.00  0.00    +0.000 OA
ENDROOT
BRANCH   1  10
ATOM      9  C1  UNL     1       5.360   1.800  -0.219  0.00  0.00    +0.000 C 
ATOM     10  O1  UNL     1       3.955   1.650  -0.048  0.00  0.00    +0.000 OA
ENDBRANCH   1  10
BRANCH   3  11
ATOM     11  C5  UNL     1      -0.389  -0.534  -0.174  0.00  0.00    +0.000 C 
BRANCH  11  12
ATOM     12  C6  UNL     1      -1.113   0.227   0.947  0.00  0.00    +0.000 C 
BRANCH  12  13
ATOM     13  C7  UNL     1      -2.556   0.454   0.583  0.00  0.00    +0.000 A 
ATOM     14  C8  UNL     1      -2.931   1.596  -0.144  0.00  0.00    +0.000 A 
ATOM     15  C9  UNL     1      -4.266   1.790  -0.511  0.00  0.00    +0.000 A 
ATOM     16  C10 UNL     1      -5.233   0.843  -0.164  0.00  0.00    +0.000 A 
ATOM     17  C11 UNL     1      -4.869  -0.306   0.547  0.00  0.00    +0.000 A 
ATOM     18  C12 UNL     1      -3.531  -0.502   0.916  0.00  0.00    +0.000 A 
BRANCH  17  19
ATOM     19  O2  UNL     1      -5.843  -1.245   0.880  0.00  0.00    +0.000 OA
ATOM     20  H13 UNL     1      -5.612  -2.087   1.394  0.00  0.00    +0.000 HD
ENDBRANCH  17  19
ENDBRANCH  12  13
ENDBRANCH  11  12
ENDBRANCH   3  11
TORSDOF 5
