REMARK  Name = resultss/4CJN/ligands/lig_362_t1.pdb
REMARK  4 active torsions:
REMARK  status: ('A' for Active; 'I' for Inactive)
REMARK    1  A    between atoms: C1_1  and  O1_2
REMARK    2  A    between atoms: O1_2  and  C2_3
REMARK    3  A    between atoms: C7_8  and  O2_9
REMARK    4  A    between atoms: O2_9  and  C8_10
REMARK                            x       y       z     vdW  Elec       q    Type
REMARK                         _______ _______ _______ _____ _____    ______ ____
ROOT
ATOM      1  C2  UNL     1       3.323  -0.464   0.610  0.00  0.00    +0.000 A 
ATOM      2  C3  UNL     1       3.224  -1.311  -0.524  0.00  0.00    +0.000 A 
ATOM      3  C4  UNL     1       1.970  -1.678  -1.033  0.00  0.00    +0.000 A 
ATOM      4  C5  UNL     1       0.828  -1.201  -0.394  0.00  0.00    +0.000 A 
ATOM      5  C6  UNL     1       0.912  -0.386   0.702  0.00  0.00    +0.000 A 
ATOM      6  C7  UNL     1       2.151   0.011   1.235  0.00  0.00    +0.000 A 
ATOM      7  O3  UNL     1      -0.346  -0.048   1.160  0.00  0.00    +0.000 OA
ATOM      8  C9  UNL     1      -1.347  -0.759   0.433  0.00  0.00    +0.000 C 
ATOM      9  C10 UNL     1      -2.517   0.139   0.097  0.00  0.00    +0.000 C 
ATOM     10  C11 UNL     1      -3.211   0.828   1.208  0.00  0.00    +0.000 C 
ATOM     11  C12 UNL     1      -4.286   1.585   0.995  0.00  0.00    +0.000 C 
ATOM     12  C13 UNL     1      -4.833   1.734  -0.359  0.00  0.00    +0.000 C 
ATOM     13  O4  UNL     1      -5.822   2.489  -0.550  0.00  0.00    +0.000 OA
ATOM     14  C14 UNL     1      -4.248   0.971  -1.515  0.00  0.00    +0.000 C 
ATOM     15  C15 UNL     1      -2.978   0.230  -1.168  0.00  0.00    +0.000 C 
ATOM     16  O5  UNL     1      -2.285  -0.392  -2.209  0.00  0.00    +0.000 OA
ATOM     17  C16 UNL     1      -0.897  -0.677  -2.103  0.00  0.00    +0.000 C 
ATOM     18  C17 UNL     1      -0.601  -1.397  -0.780  0.00  0.00    +0.000 C 
ENDROOT
BRANCH   1  20
ATOM     19  C1  UNL     1       5.825  -0.475   0.615  0.00  0.00    +0.000 C 
ATOM     20  O1  UNL     1       4.563  -0.075   1.140  0.00  0.00    +0.000 OA
ENDBRANCH   1  20
BRANCH   6  21
ATOM     21  O2  UNL     1       2.277   0.850   2.354  0.00  0.00    +0.000 OA
ATOM     22  C8  UNL     1       1.188   1.409   3.082  0.00  0.00    +0.000 C 
ENDBRANCH   6  21
TORSDOF 2
