REMARK  Name = resultss/4CJN/ligands/lig_413_t1.pdb
REMARK  5 active torsions:
REMARK  status: ('A' for Active; 'I' for Inactive)
REMARK    1  A    between atoms: C1_2  and  C9_15
REMARK    2  A    between atoms: N1_3  and  N2_4
REMARK    3  A    between atoms: C2_5  and  S1_6
REMARK    4  A    between atoms: N3_7  and  C3_8
REMARK    5  A    between atoms: C19_26  and  C20_27
REMARK                            x       y       z     vdW  Elec       q    Type
REMARK                         _______ _______ _______ _____ _____    ______ ____
ROOT
ATOM      1  C9  UNL     1      -0.244   0.474  -0.313  0.00  0.00    +0.000 A 
ATOM      2  C10 UNL     1      -0.814   1.731  -0.607  0.00  0.00    +0.000 A 
ATOM      3  C11 UNL     1      -2.198   1.836  -0.529  0.00  0.00    +0.000 A 
ATOM      4  C12 UNL     1      -2.996   0.766  -0.187  0.00  0.00    +0.000 A 
ATOM      5  N4  UNL     1      -4.299   1.127  -0.112  0.00  0.00    +0.000 N 
ATOM      6  C13 UNL     1      -4.312   2.440  -0.432  0.00  0.00    +0.000 A 
ATOM      7  C14 UNL     1      -5.422   3.282  -0.486  0.00  0.00    +0.000 A 
ATOM      8  C15 UNL     1      -5.209   4.631  -0.824  0.00  0.00    +0.000 A 
ATOM      9  C16 UNL     1      -3.906   5.108  -1.092  0.00  0.00    +0.000 A 
ATOM     10  C17 UNL     1      -2.800   4.241  -1.025  0.00  0.00    +0.000 A 
ATOM     11  C18 UNL     1      -3.042   2.909  -0.695  0.00  0.00    +0.000 A 
ATOM     12  C19 UNL     1      -2.420  -0.482   0.086  0.00  0.00    +0.000 A 
ATOM     13  N5  UNL     1      -1.057  -0.579   0.022  0.00  0.00    +0.000 NA
ATOM     14  H9  UNL     1      -5.118   0.544   0.166  0.00  0.00    +0.000 HD
ENDROOT
BRANCH  12  15
ATOM     15  C20 UNL     1      -3.215  -1.677   0.439  0.00  0.00    +0.000 A 
ATOM     16  C21 UNL     1      -4.355  -2.034  -0.302  0.00  0.00    +0.000 A 
ATOM     17  C22 UNL     1      -5.081  -3.182   0.028  0.00  0.00    +0.000 A 
ATOM     18  C23 UNL     1      -4.667  -3.991   1.090  0.00  0.00    +0.000 A 
ATOM     19  C24 UNL     1      -3.523  -3.656   1.818  0.00  0.00    +0.000 A 
ATOM     20  C25 UNL     1      -2.794  -2.508   1.491  0.00  0.00    +0.000 A 
ENDBRANCH  12  15
BRANCH   1  22
ATOM     21  O1  UNL     1       1.975   1.239  -0.672  0.00  0.00    +0.000 OA
ATOM     22  C1  UNL     1       1.221   0.278  -0.358  0.00  0.00    +0.000 C 
ATOM     23  N1  UNL     1       1.799  -0.995  -0.045  0.00  0.00    +0.000 N 
ATOM     24  H1  UNL     1       1.174  -1.789   0.220  0.00  0.00    +0.000 HD
BRANCH  23  25
ATOM     25  N2  UNL     1       3.195  -1.156  -0.086  0.00  0.00    +0.000 NA
ATOM     26  C2  UNL     1       3.817  -2.263   0.201  0.00  0.00    +0.000 C 
ATOM     27  N3  UNL     1       5.248  -2.320   0.123  0.00  0.00    +0.000 N 
ATOM     28  H3  UNL     1       5.702  -3.260   0.105  0.00  0.00    +0.000 HD
BRANCH  27  29
ATOM     29  C3  UNL     1       6.056  -1.175  -0.183  0.00  0.00    +0.000 A 
ATOM     30  C4  UNL     1       6.858  -1.194  -1.333  0.00  0.00    +0.000 A 
ATOM     31  C5  UNL     1       7.651  -0.091  -1.661  0.00  0.00    +0.000 A 
ATOM     32  C6  UNL     1       7.659   1.034  -0.834  0.00  0.00    +0.000 A 
ATOM     33  C7  UNL     1       6.884   1.054   0.328  0.00  0.00    +0.000 A 
ATOM     34  C8  UNL     1       6.087  -0.047   0.665  0.00  0.00    +0.000 A 
ATOM     35 BR1  UNL     1       5.131  -0.003   2.327  0.00  0.00    +0.000 Br
ENDBRANCH  27  29
BRANCH  26  36
ATOM     36  S1  UNL     1       2.929  -3.755   0.667  0.00  0.00    +0.000 S 
ATOM     37  H2  UNL     1       2.976  -3.416   2.032  0.00  0.00    +0.000 HD
ENDBRANCH  26  36
ENDBRANCH  23  25
ENDBRANCH   1  22
TORSDOF 5
