REMARK  Name = resultss/4CJN/ligands/lig_147_t0.pdb
REMARK  14 active torsions:
REMARK  status: ('A' for Active; 'I' for Inactive)
REMARK    1  A    between atoms: O1_1  and  C1_2
REMARK    2  A    between atoms: C1_2  and  C2_3
REMARK    3  A    between atoms: C3_4  and  O2_5
REMARK    4  A    between atoms: C4_6  and  O3_7
REMARK    5  A    between atoms: C5_8  and  O4_9
REMARK    6  A    between atoms: N1_11  and  C7_12
REMARK    7  A    between atoms: C7_12  and  C8_13
REMARK    8  A    between atoms: C8_13  and  C9_14
REMARK    9  A    between atoms: C9_14  and  C10_15
REMARK   10  A    between atoms: C10_15  and  C11_16
REMARK   11  A    between atoms: C11_16  and  O5_17
REMARK   12  A    between atoms: O5_17  and  C12_18
REMARK   13  A    between atoms: C12_18  and  C13_19
REMARK   14  A    between atoms: C16_22  and  C17_23
REMARK                            x       y       z     vdW  Elec       q    Type
REMARK                         _______ _______ _______ _____ _____    ______ ____
ROOT
ATOM      1  C9  UNL     1      -1.546  -1.360   0.154  0.00  0.00    +0.000 C 
ENDROOT
BRANCH   1   2
ATOM      2  C8  UNL     1      -2.669  -0.342   0.386  0.00  0.00    +0.000 C 
BRANCH   2   3
ATOM      3  C7  UNL     1      -4.031  -1.039   0.493  0.00  0.00    +0.000 C 
BRANCH   3   9
ATOM      4  C2  UNL     1      -5.973   0.008  -0.649  0.00  0.00    +0.000 C 
ATOM      5  C3  UNL     1      -7.117   1.054  -0.496  0.00  0.00    +0.000 C 
ATOM      6  C4  UNL     1      -7.914   0.844   0.797  0.00  0.00    +0.000 C 
ATOM      7  C5  UNL     1      -6.970   0.828   2.000  0.00  0.00    +0.000 C 
ATOM      8  C6  UNL     1      -5.913  -0.259   1.797  0.00  0.00    +0.000 C 
ATOM      9  N1  UNL     1      -5.113  -0.020   0.574  0.00  0.00    +0.000 NA
BRANCH   5  10
ATOM     10  O2  UNL     1      -8.010   0.952  -1.580  0.00  0.00    +0.000 OA
ATOM     11  H6  UNL     1      -8.065   1.846  -2.010  0.00  0.00    +0.000 HD
ENDBRANCH   5  10
BRANCH   6  12
ATOM     12  O3  UNL     1      -8.843   1.889   0.935  0.00  0.00    +0.000 OA
ATOM     13  H8  UNL     1      -9.583   1.548   1.503  0.00  0.00    +0.000 HD
ENDBRANCH   6  12
BRANCH   7  14
ATOM     14  O4  UNL     1      -7.707   0.557   3.163  0.00  0.00    +0.000 OA
ATOM     15  H10 UNL     1      -7.139   0.825   3.932  0.00  0.00    +0.000 HD
ENDBRANCH   7  14
BRANCH   4  16
ATOM     16  C1  UNL     1      -5.137   0.371  -1.909  0.00  0.00    +0.000 C 
BRANCH  16  17
ATOM     17  O1  UNL     1      -5.918   0.262  -3.067  0.00  0.00    +0.000 OA
ATOM     18  H1  UNL     1      -5.385   0.667  -3.801  0.00  0.00    +0.000 HD
ENDBRANCH  16  17
ENDBRANCH   4  16
ENDBRANCH   3   9
ENDBRANCH   2   3
ENDBRANCH   1   2
BRANCH   1  19
ATOM     19  C10 UNL     1      -0.184  -0.664   0.038  0.00  0.00    +0.000 C 
BRANCH  19  20
ATOM     20  C11 UNL     1       0.936  -1.681  -0.185  0.00  0.00    +0.000 C 
BRANCH  20  21
ATOM     21  O5  UNL     1       2.165  -0.998  -0.297  0.00  0.00    +0.000 OA
BRANCH  21  22
ATOM     22  C12 UNL     1       3.187  -1.910  -0.638  0.00  0.00    +0.000 C 
BRANCH  22  23
ATOM     23  C13 UNL     1       4.520  -1.241  -0.452  0.00  0.00    +0.000 A 
ATOM     24  C14 UNL     1       5.227  -0.745  -1.558  0.00  0.00    +0.000 A 
ATOM     25  C15 UNL     1       6.456  -0.102  -1.381  0.00  0.00    +0.000 A 
ATOM     26  C16 UNL     1       6.995   0.065  -0.093  0.00  0.00    +0.000 A 
ATOM     27  C23 UNL     1       6.279  -0.424   1.013  0.00  0.00    +0.000 A 
ATOM     28  C24 UNL     1       5.051  -1.066   0.837  0.00  0.00    +0.000 A 
ATOM     29  F1  UNL     1       4.376  -1.515   1.926  0.00  0.00    +0.000 F 
BRANCH  26  30
ATOM     30  C17 UNL     1       8.296   0.756   0.096  0.00  0.00    +0.000 A 
ATOM     31  C18 UNL     1       9.372   0.509  -0.778  0.00  0.00    +0.000 A 
ATOM     32  C19 UNL     1      10.596   1.163  -0.600  0.00  0.00    +0.000 A 
ATOM     33  C20 UNL     1      10.759   2.069   0.449  0.00  0.00    +0.000 A 
ATOM     34  C21 UNL     1       9.700   2.321   1.326  0.00  0.00    +0.000 A 
ATOM     35  C22 UNL     1       8.474   1.670   1.152  0.00  0.00    +0.000 A 
ENDBRANCH  26  30
ENDBRANCH  22  23
ENDBRANCH  21  22
ENDBRANCH  20  21
ENDBRANCH  19  20
ENDBRANCH   1  19
TORSDOF 14
