REMARK  Name = resultss/4CJN/ligands/lig_367_t0.pdb
REMARK  13 active torsions:
REMARK  status: ('A' for Active; 'I' for Inactive)
REMARK    1  A    between atoms: C1_1  and  O1_2
REMARK    2  A    between atoms: O1_2  and  C2_3
REMARK    3  A    between atoms: C4_5  and  C5_6
REMARK    4  A    between atoms: C5_6  and  C6_7
REMARK    5  A    between atoms: C5_6  and  C16_20
REMARK    6  A    between atoms: C7_8  and  O2_9
REMARK    7  A    between atoms: C10_12  and  C11_13
REMARK    8  A    between atoms: C17_21  and  O5_22
REMARK    9  A    between atoms: C20_25  and  C21_26
REMARK   10  A    between atoms: C27_34  and  O8_35
REMARK   11  A    between atoms: O8_35  and  C28_36
REMARK   12  A    between atoms: C29_37  and  O9_38
REMARK   13  A    between atoms: O9_38  and  C30_39
REMARK                            x       y       z     vdW  Elec       q    Type
REMARK                         _______ _______ _______ _____ _____    ______ ____
ROOT
ATOM      1  C5  UNL     1      -0.727   0.008  -0.946  0.00  0.00    +0.000 C 
ENDROOT
BRANCH   1   2
ATOM      2  C6  UNL     1      -0.814   1.301  -0.117  0.00  0.00    +0.000 A 
ATOM      3  C7  UNL     1      -0.555   2.558  -0.729  0.00  0.00    +0.000 A 
ATOM      4  C8  UNL     1      -0.668   3.735   0.030  0.00  0.00    +0.000 A 
ATOM      5  C9  UNL     1      -0.446   5.006  -0.534  0.00  0.00    +0.000 A 
ATOM      6  C10 UNL     1      -0.582   6.163   0.250  0.00  0.00    +0.000 A 
ATOM      7  C11 UNL     1      -0.304   7.512  -0.345  0.00  0.00    +0.000 C 
ATOM      8  C12 UNL     1      -0.908   6.045   1.609  0.00  0.00    +0.000 A 
ATOM      9  C13 UNL     1      -1.127   4.786   2.174  0.00  0.00    +0.000 A 
ATOM     10  C14 UNL     1      -1.009   3.633   1.392  0.00  0.00    +0.000 A 
ATOM     11  O3  UNL     1      -1.209   2.448   1.945  0.00  0.00    +0.000 OA
ATOM     12  C15 UNL     1      -1.120   1.307   1.272  0.00  0.00    +0.000 A 
ATOM     13  O4  UNL     1      -1.297   0.234   1.905  0.00  0.00    +0.000 OA
BRANCH   3  14
ATOM     14  O2  UNL     1      -0.178   2.668  -2.073  0.00  0.00    +0.000 OA
ATOM     15  H6  UNL     1      -0.026   1.884  -2.691  0.00  0.00    +0.000 HD
ENDBRANCH   3  14
ENDBRANCH   1   2
BRANCH   1  16
ATOM     16  C16 UNL     1       0.716  -0.359  -1.320  0.00  0.00    +0.000 A 
ATOM     17  C17 UNL     1       1.772  -0.322  -0.377  0.00  0.00    +0.000 A 
ATOM     18  C18 UNL     1       3.080  -0.679  -0.786  0.00  0.00    +0.000 A 
ATOM     19  C19 UNL     1       4.204  -0.608   0.067  0.00  0.00    +0.000 A 
ATOM     20  C20 UNL     1       5.474  -0.998  -0.388  0.00  0.00    +0.000 A 
ATOM     21  C21 UNL     1       6.672  -0.884   0.510  0.00  0.00    +0.000 C 
ATOM     22  C22 UNL     1       5.633  -1.428  -1.712  0.00  0.00    +0.000 A 
ATOM     23  C23 UNL     1       4.534  -1.494  -2.567  0.00  0.00    +0.000 A 
ATOM     24  C24 UNL     1       3.264  -1.123  -2.115  0.00  0.00    +0.000 A 
ATOM     25  O6  UNL     1       2.238  -1.194  -2.952  0.00  0.00    +0.000 OA
ATOM     26  C25 UNL     1       1.004  -0.845  -2.616  0.00  0.00    +0.000 A 
ATOM     27  O7  UNL     1       0.090  -0.964  -3.476  0.00  0.00    +0.000 OA
BRANCH  17  28
ATOM     28  O5  UNL     1       1.482   0.034   0.945  0.00  0.00    +0.000 OA
ATOM     29  H13 UNL     1       2.131  -0.021   1.713  0.00  0.00    +0.000 HD
ENDBRANCH  17  28
ENDBRANCH   1  16
BRANCH   1  32
ATOM     30  C2  UNL     1      -1.695  -3.395   0.627  0.00  0.00    +0.000 A 
ATOM     31  C3  UNL     1      -0.925  -2.326   0.129  0.00  0.00    +0.000 A 
ATOM     32  C4  UNL     1      -1.532  -1.171  -0.398  0.00  0.00    +0.000 A 
ATOM     33  C26 UNL     1      -2.931  -1.091  -0.402  0.00  0.00    +0.000 A 
ATOM     34  C27 UNL     1      -3.719  -2.139   0.103  0.00  0.00    +0.000 A 
ATOM     35  C29 UNL     1      -3.109  -3.296   0.612  0.00  0.00    +0.000 A 
BRANCH  30  37
ATOM     36  C1  UNL     1       0.330  -4.752   1.231  0.00  0.00    +0.000 C 
ATOM     37  O1  UNL     1      -1.078  -4.547   1.140  0.00  0.00    +0.000 OA
ENDBRANCH  30  37
BRANCH  34  38
ATOM     38  O8  UNL     1      -5.122  -2.071   0.114  0.00  0.00    +0.000 OA
ATOM     39  C28 UNL     1      -5.882  -0.969  -0.372  0.00  0.00    +0.000 C 
ENDBRANCH  34  38
BRANCH  35  40
ATOM     40  O9  UNL     1      -3.969  -4.305   1.088  0.00  0.00    +0.000 OA
ATOM     41  C30 UNL     1      -3.590  -5.603   1.542  0.00  0.00    +0.000 C 
ENDBRANCH  35  40
ENDBRANCH   1  32
TORSDOF 8
