REMARK  Name = resultss/4CJN/ligands/lig_360_t2.pdb
REMARK  1 active torsions:
REMARK  status: ('A' for Active; 'I' for Inactive)
REMARK    1  A    between atoms: C4_6  and  O3_7
REMARK                            x       y       z     vdW  Elec       q    Type
REMARK                         _______ _______ _______ _____ _____    ______ ____
ROOT
ATOM      1  O1  UNL     1      -0.339   2.448   2.303  0.00  0.00    +0.000 OA
ATOM      2  C1  UNL     1       0.220   1.595   1.565  0.00  0.00    +0.000 A 
ATOM      3  O2  UNL     1       1.553   1.506   1.531  0.00  0.00    +0.000 OA
ATOM      4  C2  UNL     1       2.204   0.618   0.765  0.00  0.00    +0.000 A 
ATOM      5  C3  UNL     1       3.602   0.575   0.775  0.00  0.00    +0.000 A 
ATOM      6  C4  UNL     1       4.285  -0.351  -0.024  0.00  0.00    +0.000 A 
ATOM      7  C5  UNL     1       3.567  -1.242  -0.838  0.00  0.00    +0.000 A 
ATOM      8  C6  UNL     1       2.169  -1.211  -0.859  0.00  0.00    +0.000 A 
ATOM      9  C7  UNL     1       1.485  -0.286  -0.061  0.00  0.00    +0.000 A 
ATOM     10  C8  UNL     1       0.096  -0.196  -0.029  0.00  0.00    +0.000 A 
ATOM     11  O4  UNL     1      -0.783  -0.914  -0.696  0.00  0.00    +0.000 OA
ATOM     12  C9  UNL     1      -1.980  -0.477  -0.349  0.00  0.00    +0.000 A 
ATOM     13  C10 UNL     1      -3.291  -0.998  -0.855  0.00  0.00    +0.000 C 
ATOM     14  C11 UNL     1      -4.459  -0.254  -0.235  0.00  0.00    +0.000 C 
ATOM     15  O5  UNL     1      -5.631  -0.579  -0.563  0.00  0.00    +0.000 OA
ATOM     16  C12 UNL     1      -4.265   0.846   0.748  0.00  0.00    +0.000 C 
ATOM     17  C13 UNL     1      -3.042   1.233   1.133  0.00  0.00    +0.000 C 
ATOM     18  C14 UNL     1      -1.877   0.550   0.567  0.00  0.00    +0.000 A 
ATOM     19  C15 UNL     1      -0.527   0.727   0.769  0.00  0.00    +0.000 A 
ENDROOT
BRANCH   6  20
ATOM     20  O3  UNL     1       5.678  -0.379  -0.001  0.00  0.00    +0.000 OA
ATOM     21  H2  UNL     1       6.204  -1.035  -0.566  0.00  0.00    +0.000 HD
ENDBRANCH   6  20
TORSDOF 1
