REMARK  Name = resultss/4CJN/ligands/lig_270_t2.pdb
REMARK  9 active torsions:
REMARK  status: ('A' for Active; 'I' for Inactive)
REMARK    1  A    between atoms: C1_1  and  O1_2
REMARK    2  A    between atoms: O1_2  and  C2_3
REMARK    3  A    between atoms: C4_5  and  C5_6
REMARK    4  A    between atoms: C5_6  and  N1_7
REMARK    5  A    between atoms: C6_8  and  C7_10
REMARK    6  A    between atoms: C8_11  and  N2_12
REMARK    7  A    between atoms: C9_13  and  O3_14
REMARK    8  A    between atoms: C9_13  and  C10_15
REMARK    9  A    between atoms: C23_30  and  O4_31
REMARK                            x       y       z     vdW  Elec       q    Type
REMARK                         _______ _______ _______ _____ _____    ______ ____
ROOT
ATOM      1  C7  UNL     1      -0.911   0.066  -1.195  0.00  0.00    +0.000 A 
ATOM      2  C8  UNL     1      -2.031  -0.764  -1.228  0.00  0.00    +0.000 A 
ATOM      3  S1  UNL     1      -3.361   0.059  -0.593  0.00  0.00    +0.000 S 
ATOM      4  C15 UNL     1      -2.504   1.443  -0.181  0.00  0.00    +0.000 A 
ATOM      5  C16 UNL     1      -1.180   1.318  -0.598  0.00  0.00    +0.000 A 
ATOM      6  C17 UNL     1      -0.144   2.357  -0.236  0.00  0.00    +0.000 C 
ATOM      7  C18 UNL     1      -0.788   3.700   0.151  0.00  0.00    +0.000 C 
ATOM      8  C19 UNL     1      -1.969   3.505   1.114  0.00  0.00    +0.000 C 
ATOM      9  C20 UNL     1      -3.079   2.668   0.459  0.00  0.00    +0.000 C 
ENDROOT
BRANCH   1  11
ATOM     10  N1  UNL     1       1.200   0.489  -2.516  0.00  0.00    +0.000 N 
ATOM     11  C6  UNL     1       0.414  -0.366  -1.676  0.00  0.00    +0.000 C 
ATOM     12  O2  UNL     1       0.840  -1.512  -1.367  0.00  0.00    +0.000 OA
ATOM     13  H7  UNL     1       0.734   1.276  -3.021  0.00  0.00    +0.000 HD
BRANCH  10  14
ATOM     14  C5  UNL     1       2.643   0.319  -2.665  0.00  0.00    +0.000 C 
BRANCH  14  17
ATOM     15  C2  UNL     1       4.373   0.072   0.734  0.00  0.00    +0.000 A 
ATOM     16  C3  UNL     1       3.778  -0.287  -0.492  0.00  0.00    +0.000 A 
ATOM     17  C4  UNL     1       3.338   0.701  -1.387  0.00  0.00    +0.000 A 
ATOM     18  C21 UNL     1       3.484   2.054  -1.047  0.00  0.00    +0.000 A 
ATOM     19  C22 UNL     1       4.072   2.415   0.166  0.00  0.00    +0.000 A 
ATOM     20  C23 UNL     1       4.516   1.429   1.057  0.00  0.00    +0.000 A 
BRANCH  15  22
ATOM     21  C1  UNL     1       4.746  -2.294   1.457  0.00  0.00    +0.000 C 
ATOM     22  O1  UNL     1       4.826  -0.886   1.654  0.00  0.00    +0.000 OA
ENDBRANCH  15  22
BRANCH  20  23
ATOM     23  O4  UNL     1       5.102   1.791   2.270  0.00  0.00    +0.000 OA
ATOM     24  H23 UNL     1       5.216   2.762   2.534  0.00  0.00    +0.000 HD
ENDBRANCH  20  23
ENDBRANCH  14  17
ENDBRANCH  10  14
ENDBRANCH   1  11
BRANCH   2  25
ATOM     25  N2  UNL     1      -2.075  -2.035  -1.894  0.00  0.00    +0.000 NA
ATOM     26  C9  UNL     1      -2.809  -3.067  -1.582  0.00  0.00    +0.000 C 
BRANCH  26  27
ATOM     27  C10 UNL     1      -3.612  -3.144  -0.343  0.00  0.00    +0.000 A 
ATOM     28  C11 UNL     1      -3.050  -2.844   0.909  0.00  0.00    +0.000 A 
ATOM     29  C12 UNL     1      -3.820  -2.965   2.067  0.00  0.00    +0.000 A 
ATOM     30  C13 UNL     1      -5.141  -3.407   1.967  0.00  0.00    +0.000 A 
ATOM     31  N3  UNL     1      -5.665  -3.718   0.751  0.00  0.00    +0.000 NA
ATOM     32  C14 UNL     1      -4.936  -3.605  -0.392  0.00  0.00    +0.000 A 
ENDBRANCH  26  27
BRANCH  26  33
ATOM     33  O3  UNL     1      -2.822  -4.164  -2.438  0.00  0.00    +0.000 OA
ATOM     34  H8  UNL     1      -2.279  -4.168  -3.293  0.00  0.00    +0.000 HD
ENDBRANCH  26  33
ENDBRANCH   2  25
TORSDOF 8
