REMARK  Name = resultss/4CJN/ligands/lig_10_t0.pdb
REMARK  11 active torsions:
REMARK  status: ('A' for Active; 'I' for Inactive)
REMARK    1  A    between atoms: C1_1  and  C2_2
REMARK    2  A    between atoms: C2_2  and  C3_3
REMARK    3  A    between atoms: C3_3  and  C4_4
REMARK    4  A    between atoms: C4_4  and  N1_5
REMARK    5  A    between atoms: C5_6  and  C6_7
REMARK    6  A    between atoms: C6_7  and  O1_8
REMARK    7  A    between atoms: C7_9  and  O2_10
REMARK    8  A    between atoms: C8_11  and  O3_12
REMARK    9  A    between atoms: C9_13  and  O4_14
REMARK   10  A    between atoms: C10_15  and  C11_16
REMARK   11  A    between atoms: C11_16  and  O5_17
REMARK                            x       y       z     vdW  Elec       q    Type
REMARK                         _______ _______ _______ _____ _____    ______ ____
ROOT
ATOM      1  N1  UNL     1       0.038   0.033  -0.096  0.00  0.00    +0.000 NA
ATOM      2  C5  UNL     1       0.988  -1.112  -0.234  0.00  0.00    +0.000 C 
ATOM      3  C7  UNL     1       2.481  -0.625  -0.189  0.00  0.00    +0.000 C 
ATOM      4  C8  UNL     1       2.589   0.708   0.573  0.00  0.00    +0.000 C 
ATOM      5  C9  UNL     1       1.790   1.822  -0.141  0.00  0.00    +0.000 C 
ATOM      6  C10 UNL     1       0.464   1.289  -0.767  0.00  0.00    +0.000 C 
ENDROOT
BRANCH   3   7
ATOM      7  O2  UNL     1       3.336  -1.569   0.408  0.00  0.00    +0.000 OA
ATOM      8  H15 UNL     1       3.550  -2.244  -0.288  0.00  0.00    +0.000 HD
ENDBRANCH   3   7
BRANCH   4   9
ATOM      9  O3  UNL     1       3.932   1.091   0.741  0.00  0.00    +0.000 OA
ATOM     10  H17 UNL     1       4.345   1.152  -0.160  0.00  0.00    +0.000 HD
ENDBRANCH   4   9
BRANCH   5  11
ATOM     11  O4  UNL     1       1.510   2.835   0.792  0.00  0.00    +0.000 OA
ATOM     12  H19 UNL     1       1.298   3.655   0.273  0.00  0.00    +0.000 HD
ENDBRANCH   5  11
BRANCH   1  13
ATOM     13  C4  UNL     1      -1.385  -0.305  -0.350  0.00  0.00    +0.000 C 
BRANCH  13  14
ATOM     14  C3  UNL     1      -2.202  -0.050   0.920  0.00  0.00    +0.000 C 
BRANCH  14  16
ATOM     15  C1  UNL     1      -4.495  -0.155   1.974  0.00  0.00    +0.000 C 
ATOM     16  C2  UNL     1      -3.659  -0.494   0.742  0.00  0.00    +0.000 C 
ENDBRANCH  14  16
ENDBRANCH  13  14
ENDBRANCH   1  13
BRANCH   2  17
ATOM     17  C6  UNL     1       0.707  -2.158   0.881  0.00  0.00    +0.000 C 
BRANCH  17  18
ATOM     18  O1  UNL     1       1.356  -3.373   0.610  0.00  0.00    +0.000 OA
ATOM     19  H13 UNL     1       0.843  -3.814  -0.117  0.00  0.00    +0.000 HD
ENDBRANCH  17  18
ENDBRANCH   2  17
BRANCH   6  20
ATOM     20  C11 UNL     1       0.571   1.148  -2.311  0.00  0.00    +0.000 C 
BRANCH  20  21
ATOM     21  O5  UNL     1       0.649   2.423  -2.892  0.00  0.00    +0.000 OA
ATOM     22  H23 UNL     1       0.711   2.280  -3.872  0.00  0.00    +0.000 HD
ENDBRANCH  20  21
ENDBRANCH   6  20
TORSDOF 10
