REMARK  Name = resultss/4CJN/ligands/lig_350_t0.pdb
REMARK  11 active torsions:
REMARK  status: ('A' for Active; 'I' for Inactive)
REMARK    1  A    between atoms: C1_1  and  O1_2
REMARK    2  A    between atoms: O1_2  and  C2_3
REMARK    3  A    between atoms: C5_6  and  N1_7
REMARK    4  A    between atoms: C6_8  and  C7_10
REMARK    5  A    between atoms: C7_10  and  N2_11
REMARK    6  A    between atoms: C9_13  and  C10_14
REMARK    7  A    between atoms: C10_14  and  O3_15
REMARK    8  A    between atoms: O3_15  and  C11_16
REMARK    9  A    between atoms: C14_19  and  C15_20
REMARK   10  A    between atoms: N4_30  and  N5_31
REMARK   11  A    between atoms: N5_31  and  C23_32
REMARK                            x       y       z     vdW  Elec       q    Type
REMARK                         _______ _______ _______ _____ _____    ______ ____
ROOT
ATOM      1  C11 UNL     1      -0.285  -1.926  -1.047  0.00  0.00    +0.000 A 
ATOM      2  C12 UNL     1      -0.664  -0.912  -0.158  0.00  0.00    +0.000 A 
ATOM      3  C13 UNL     1      -2.007  -0.539  -0.031  0.00  0.00    +0.000 A 
ATOM      4  C14 UNL     1      -2.996  -1.165  -0.817  0.00  0.00    +0.000 A 
ATOM      5  C29 UNL     1      -2.617  -2.201  -1.688  0.00  0.00    +0.000 A 
ATOM      6  C30 UNL     1      -1.276  -2.579  -1.803  0.00  0.00    +0.000 A 
ENDROOT
BRANCH   4   7
ATOM      7  C15 UNL     1      -4.465  -0.806  -0.701  0.00  0.00    +0.000 C 
ATOM      8  N3  UNL     1      -5.122  -1.713   0.245  0.00  0.00    +0.000 N 
ATOM      9  C16 UNL     1      -5.392  -1.356   1.610  0.00  0.00    +0.000 A 
ATOM     10  C17 UNL     1      -5.809  -2.337   2.522  0.00  0.00    +0.000 A 
ATOM     11  C18 UNL     1      -6.077  -1.995   3.854  0.00  0.00    +0.000 A 
ATOM     12  C19 UNL     1      -5.927  -0.673   4.279  0.00  0.00    +0.000 A 
ATOM     13  C20 UNL     1      -5.518   0.312   3.372  0.00  0.00    +0.000 A 
ATOM     14  C21 UNL     1      -5.253  -0.027   2.032  0.00  0.00    +0.000 A 
ATOM     15  C22 UNL     1      -4.860   0.988   1.040  0.00  0.00    +0.000 C 
ATOM     16  O4  UNL     1      -4.689   2.188   1.390  0.00  0.00    +0.000 OA
ATOM     17  N4  UNL     1      -4.663   0.606  -0.335  0.00  0.00    +0.000 N 
ATOM     18  H15 UNL     1      -5.282  -2.700  -0.059  0.00  0.00    +0.000 HD
BRANCH  17  19
ATOM     19  N5  UNL     1      -4.444   1.590  -1.319  0.00  0.00    +0.000 N 
ATOM     20  H20 UNL     1      -3.635   1.475  -1.969  0.00  0.00    +0.000 HD
BRANCH  19  21
ATOM     21  C23 UNL     1      -5.342   2.694  -1.528  0.00  0.00    +0.000 A 
ATOM     22  C24 UNL     1      -6.656   2.672  -1.026  0.00  0.00    +0.000 A 
ATOM     23  C25 UNL     1      -7.522   3.744  -1.265  0.00  0.00    +0.000 A 
ATOM     24  C26 UNL     1      -7.080   4.849  -1.999  0.00  0.00    +0.000 A 
ATOM     25  C27 UNL     1      -5.781   4.872  -2.516  0.00  0.00    +0.000 A 
ATOM     26  C28 UNL     1      -4.920   3.793  -2.293  0.00  0.00    +0.000 A 
ENDBRANCH  19  21
ENDBRANCH  17  19
ENDBRANCH   4   7
BRANCH   1  27
ATOM     27  O3  UNL     1       1.076  -2.253  -1.155  0.00  0.00    +0.000 OA
BRANCH  27  28
ATOM     28  C10 UNL     1       1.585  -3.264  -2.023  0.00  0.00    +0.000 C 
BRANCH  28  31
ATOM     29  N2  UNL     1       5.129  -3.529  -1.287  0.00  0.00    +0.000 N 
ATOM     30  C8  UNL     1       3.861  -3.482  -0.841  0.00  0.00    +0.000 A 
ATOM     31  C9  UNL     1       3.076  -3.292  -1.960  0.00  0.00    +0.000 A 
ATOM     32  N6  UNL     1       3.878  -3.237  -3.041  0.00  0.00    +0.000 NA
ATOM     33  N7  UNL     1       5.121  -3.378  -2.602  0.00  0.00    +0.000 NA
BRANCH  29  34
ATOM     34  C7  UNL     1       6.336  -3.709  -0.486  0.00  0.00    +0.000 C 
BRANCH  34  36
ATOM     35  N1  UNL     1       6.751  -1.197  -0.528  0.00  0.00    +0.000 N 
ATOM     36  C6  UNL     1       6.709  -2.433   0.208  0.00  0.00    +0.000 C 
ATOM     37  O2  UNL     1       7.052  -2.471   1.420  0.00  0.00    +0.000 OA
ATOM     38  H6  UNL     1       6.689  -1.254  -1.571  0.00  0.00    +0.000 HD
BRANCH  35  42
ATOM     39  C2  UNL     1       7.537   2.649   1.127  0.00  0.00    +0.000 A 
ATOM     40  C3  UNL     1       7.953   2.323  -0.169  0.00  0.00    +0.000 A 
ATOM     41  C4  UNL     1       7.693   1.059  -0.704  0.00  0.00    +0.000 A 
ATOM     42  C5  UNL     1       7.022   0.089   0.058  0.00  0.00    +0.000 A 
ATOM     43  C31 UNL     1       6.579   0.422   1.351  0.00  0.00    +0.000 A 
ATOM     44  C32 UNL     1       6.842   1.687   1.885  0.00  0.00    +0.000 A 
BRANCH  39  46
ATOM     45  C1  UNL     1       7.403   4.418   2.887  0.00  0.00    +0.000 C 
ATOM     46  O1  UNL     1       7.823   3.931   1.617  0.00  0.00    +0.000 OA
ENDBRANCH  39  46
ENDBRANCH  35  42
ENDBRANCH  34  36
ENDBRANCH  29  34
ENDBRANCH  28  31
ENDBRANCH  27  28
ENDBRANCH   1  27
TORSDOF 10
