REMARK  Name = resultss/4CJN/ligands/lig_339_t2.pdb
REMARK  12 active torsions:
REMARK  status: ('A' for Active; 'I' for Inactive)
REMARK    1  A    between atoms: C1_1  and  O1_2
REMARK    2  A    between atoms: O1_2  and  C2_3
REMARK    3  A    between atoms: C4_5  and  C5_6
REMARK    4  A    between atoms: C12_14  and  O2_15
REMARK    5  A    between atoms: N2_16  and  N3_17
REMARK    6  A    between atoms: N3_17  and  C13_18
REMARK    7  A    between atoms: C21_26  and  O3_27
REMARK    8  A    between atoms: O3_27  and  C22_28
REMARK    9  A    between atoms: C22_28  and  C23_29
REMARK   10  A    between atoms: N4_31  and  C25_32
REMARK   11  A    between atoms: C25_32  and  C26_33
REMARK   12  A    between atoms: N5_35  and  C27_36
REMARK                            x       y       z     vdW  Elec       q    Type
REMARK                         _______ _______ _______ _____ _____    ______ ____
ROOT
ATOM      1  C2  UNL     1      -0.980  -1.168   0.576  0.00  0.00    +0.000 A 
ATOM      2  C3  UNL     1      -2.194  -0.455   0.556  0.00  0.00    +0.000 A 
ATOM      3  C4  UNL     1      -2.208   0.948   0.654  0.00  0.00    +0.000 A 
ATOM      4  C19 UNL     1      -0.997   1.621   0.864  0.00  0.00    +0.000 A 
ATOM      5  C20 UNL     1       0.207   0.917   0.940  0.00  0.00    +0.000 A 
ATOM      6  C21 UNL     1       0.226  -0.481   0.790  0.00  0.00    +0.000 A 
ENDROOT
BRANCH   3   7
ATOM      7  C5  UNL     1      -3.496   1.748   0.643  0.00  0.00    +0.000 C 
ATOM      8  N1  UNL     1      -3.880   2.039   2.022  0.00  0.00    +0.000 NA
ATOM      9  C6  UNL     1      -5.106   2.080   2.450  0.00  0.00    +0.000 A 
ATOM     10  C7  UNL     1      -5.337   2.509   3.768  0.00  0.00    +0.000 A 
ATOM     11  C8  UNL     1      -6.635   2.623   4.257  0.00  0.00    +0.000 A 
ATOM     12  C9  UNL     1      -7.716   2.288   3.443  0.00  0.00    +0.000 A 
ATOM     13  C10 UNL     1      -7.506   1.833   2.137  0.00  0.00    +0.000 A 
ATOM     14  C11 UNL     1      -6.195   1.727   1.607  0.00  0.00    +0.000 A 
ATOM     15  C12 UNL     1      -5.950   1.271   0.351  0.00  0.00    +0.000 C 
ATOM     16  N2  UNL     1      -4.586   1.070  -0.081  0.00  0.00    +0.000 N 
BRANCH  15  17
ATOM     17  O2  UNL     1      -6.975   0.984  -0.564  0.00  0.00    +0.000 OA
ATOM     18  H10 UNL     1      -7.945   1.229  -0.444  0.00  0.00    +0.000 HD
ENDBRANCH  15  17
BRANCH  16  19
ATOM     19  N3  UNL     1      -4.331   0.628  -1.398  0.00  0.00    +0.000 N 
ATOM     20  H11 UNL     1      -3.654   1.166  -1.973  0.00  0.00    +0.000 HD
BRANCH  19  21
ATOM     21  C13 UNL     1      -4.834  -0.615  -1.923  0.00  0.00    +0.000 A 
ATOM     22  C14 UNL     1      -4.687  -0.893  -3.292  0.00  0.00    +0.000 A 
ATOM     23  C15 UNL     1      -5.129  -2.107  -3.821  0.00  0.00    +0.000 A 
ATOM     24  C16 UNL     1      -5.735  -3.051  -2.989  0.00  0.00    +0.000 A 
ATOM     25  C17 UNL     1      -5.876  -2.791  -1.624  0.00  0.00    +0.000 A 
ATOM     26  C18 UNL     1      -5.424  -1.582  -1.088  0.00  0.00    +0.000 A 
ENDBRANCH  19  21
ENDBRANCH  16  19
ENDBRANCH   3   7
BRANCH   1  28
ATOM     27  C1  UNL     1      -2.066  -3.373   0.077  0.00  0.00    +0.000 C 
ATOM     28  O1  UNL     1      -0.937  -2.562   0.401  0.00  0.00    +0.000 OA
ENDBRANCH   1  28
BRANCH   6  29
ATOM     29  O3  UNL     1       1.416  -1.224   0.863  0.00  0.00    +0.000 OA
BRANCH  29  30
ATOM     30  C22 UNL     1       2.659  -0.739   1.372  0.00  0.00    +0.000 C 
BRANCH  30  31
ATOM     31  C23 UNL     1       3.393   0.067   0.346  0.00  0.00    +0.000 A 
ATOM     32  C24 UNL     1       3.931  -0.393  -0.836  0.00  0.00    +0.000 A 
ATOM     33  N4  UNL     1       4.576   0.654  -1.380  0.00  0.00    +0.000 N 
ATOM     34  N6  UNL     1       4.454   1.692  -0.568  0.00  0.00    +0.000 NA
ATOM     35  N7  UNL     1       3.733   1.363   0.495  0.00  0.00    +0.000 NA
BRANCH  33  36
ATOM     36  C25 UNL     1       5.425   0.632  -2.568  0.00  0.00    +0.000 C 
BRANCH  36  37
ATOM     37  C26 UNL     1       6.751   0.029  -2.232  0.00  0.00    +0.000 C 
ATOM     38  O4  UNL     1       7.070  -1.080  -2.739  0.00  0.00    +0.000 OA
ATOM     39  N5  UNL     1       7.648   0.718  -1.346  0.00  0.00    +0.000 N 
ATOM     40  H24 UNL     1       7.517   1.749  -1.228  0.00  0.00    +0.000 HD
BRANCH  39  41
ATOM     41  C27 UNL     1       8.736   0.092  -0.645  0.00  0.00    +0.000 A 
ATOM     42  C28 UNL     1       8.696  -1.268  -0.276  0.00  0.00    +0.000 A 
ATOM     43  C29 UNL     1       9.759  -1.840   0.429  0.00  0.00    +0.000 A 
ATOM     44  C30 UNL     1      10.863  -1.062   0.787  0.00  0.00    +0.000 A 
ATOM     45 CL1  UNL     1      12.191  -1.781   1.682  0.00  0.00    +0.000 Cl
ATOM     46  C31 UNL     1      10.900   0.294   0.445  0.00  0.00    +0.000 A 
ATOM     47  C32 UNL     1       9.840   0.868  -0.262  0.00  0.00    +0.000 A 
ENDBRANCH  39  41
ENDBRANCH  36  37
ENDBRANCH  33  36
ENDBRANCH  30  31
ENDBRANCH  29  30
ENDBRANCH   6  29
TORSDOF 11
