REMARK  Name = resultss/4CJN/ligands/lig_201_t0.pdb
REMARK  8 active torsions:
REMARK  status: ('A' for Active; 'I' for Inactive)
REMARK    1  A    between atoms: C1_1  and  C2_2
REMARK    2  A    between atoms: C2_2  and  C3_3
REMARK    3  A    between atoms: C3_3  and  C4_4
REMARK    4  A    between atoms: C4_4  and  S1_5
REMARK    5  A    between atoms: C6_7  and  O1_8
REMARK    6  A    between atoms: C7_9  and  O2_10
REMARK    7  A    between atoms: C8_11  and  C9_12
REMARK    8  A    between atoms: C9_12  and  O3_13
REMARK                            x       y       z     vdW  Elec       q    Type
REMARK                         _______ _______ _______ _____ _____    ______ ____
ROOT
ATOM      1  S1  UNL     1      -0.025  -0.939  -0.030  0.00  0.00    +0.000 S 
ATOM      2  C5  UNL     1      -1.202  -2.232  -0.304  0.00  0.00    +0.000 C 
ATOM      3  C6  UNL     1      -2.547  -1.523  -0.485  0.00  0.00    +0.000 C 
ATOM      4  C7  UNL     1      -2.533  -0.244   0.382  0.00  0.00    +0.000 C 
ATOM      5  C8  UNL     1      -1.147   0.413   0.227  0.00  0.00    +0.000 C 
ENDROOT
BRANCH   3   6
ATOM      6  O1  UNL     1      -3.628  -2.363  -0.163  0.00  0.00    +0.000 OA
ATOM      7  H13 UNL     1      -3.544  -2.614   0.794  0.00  0.00    +0.000 HD
ENDBRANCH   3   6
BRANCH   4   8
ATOM      8  O2  UNL     1      -3.571   0.635   0.027  0.00  0.00    +0.000 OA
ATOM      9  H15 UNL     1      -3.447   0.883  -0.927  0.00  0.00    +0.000 HD
ENDBRANCH   4   8
BRANCH   1  10
ATOM     10  C4  UNL     1       0.964  -0.679  -1.496  0.00  0.00    +0.000 C 
BRANCH  10  11
ATOM     11  C3  UNL     1       1.933   0.497  -1.326  0.00  0.00    +0.000 C 
BRANCH  11  13
ATOM     12  C1  UNL     1       4.004   1.371  -0.178  0.00  0.00    +0.000 C 
ATOM     13  C2  UNL     1       3.030   0.203  -0.293  0.00  0.00    +0.000 C 
ENDBRANCH  11  13
ENDBRANCH  10  11
ENDBRANCH   1  10
BRANCH   5  14
ATOM     14  C9  UNL     1      -0.732   1.229   1.457  0.00  0.00    +0.000 C 
BRANCH  14  15
ATOM     15  O3  UNL     1      -1.620   2.293   1.668  0.00  0.00    +0.000 OA
ATOM     16  H19 UNL     1      -1.420   2.973   0.973  0.00  0.00    +0.000 HD
ENDBRANCH  14  15
ENDBRANCH   5  14
TORSDOF 7
REMARK  Name = resultss/4CJN/ligands/lig_201_t0.pdb
REMARK  8 active torsions:
REMARK  status: ('A' for Active; 'I' for Inactive)
REMARK    1  A    between atoms: C1_1  and  C2_2
REMARK    2  A    between atoms: C2_2  and  C3_3
REMARK    3  A    between atoms: C3_3  and  C4_4
REMARK    4  A    between atoms: C4_4  and  S1_5
REMARK    5  A    between atoms: C6_7  and  O1_8
REMARK    6  A    between atoms: C7_9  and  O2_10
REMARK    7  A    between atoms: C8_11  and  C9_12
REMARK    8  A    between atoms: C9_12  and  O3_13
REMARK                            x       y       z     vdW  Elec       q    Type
REMARK                         _______ _______ _______ _____ _____    ______ ____
ROOT
ATOM      1 CL1  UNL     1       0.000   0.000   0.000  0.00  0.00    +0.000 Cl
ENDROOT
TORSDOF 0
