REMARK  Name = resultss/4CJN/ligands/lig_325_t1.pdb
REMARK  7 active torsions:
REMARK  status: ('A' for Active; 'I' for Inactive)
REMARK    1  A    between atoms: C1_1  and  O1_2
REMARK    2  A    between atoms: O1_2  and  C2_3
REMARK    3  A    between atoms: C6_8  and  O3_9
REMARK    4  A    between atoms: C8_11  and  O4_12
REMARK    5  A    between atoms: O4_12  and  C9_13
REMARK    6  A    between atoms: C10_14  and  O5_15
REMARK    7  A    between atoms: O5_15  and  C11_16
REMARK                            x       y       z     vdW  Elec       q    Type
REMARK                         _______ _______ _______ _____ _____    ______ ____
ROOT
ATOM      1  C2  UNL     1       4.198   0.237  -1.038  0.00  0.00    +0.000 A 
ATOM      2  C3  UNL     1       3.863  -1.045  -1.491  0.00  0.00    +0.000 A 
ATOM      3  C4  UNL     1       2.558  -1.545  -1.389  0.00  0.00    +0.000 A 
ATOM      4  O2  UNL     1       2.319  -2.708  -1.813  0.00  0.00    +0.000 OA
ATOM      5  C5  UNL     1       1.543  -0.753  -0.811  0.00  0.00    +0.000 A 
ATOM      6  C6  UNL     1       0.197  -1.150  -0.696  0.00  0.00    +0.000 A 
ATOM      7  C7  UNL     1      -0.725  -0.301  -0.018  0.00  0.00    +0.000 A 
ATOM      8  C8  UNL     1      -2.045  -0.707   0.336  0.00  0.00    +0.000 A 
ATOM      9  C10 UNL     1      -2.945   0.245   0.891  0.00  0.00    +0.000 A 
ATOM     10  C12 UNL     1      -2.490   1.544   1.174  0.00  0.00    +0.000 A 
ATOM     11  C13 UNL     1      -1.170   1.901   0.937  0.00  0.00    +0.000 A 
ATOM     12  C14 UNL     1      -0.283   0.997   0.362  0.00  0.00    +0.000 A 
ATOM     13  O6  UNL     1       0.975   1.382   0.191  0.00  0.00    +0.000 OA
ATOM     14  C15 UNL     1       1.901   0.601  -0.337  0.00  0.00    +0.000 A 
ATOM     15  C16 UNL     1       3.212   1.058  -0.462  0.00  0.00    +0.000 A 
ENDROOT
BRANCH   1  17
ATOM     16  C1  UNL     1       6.022   1.929  -0.769  0.00  0.00    +0.000 C 
ATOM     17  O1  UNL     1       5.530   0.658  -1.180  0.00  0.00    +0.000 OA
ENDBRANCH   1  17
BRANCH   6  18
ATOM     18  O3  UNL     1      -0.198  -2.344  -1.307  0.00  0.00    +0.000 OA
ATOM     19  H5  UNL     1      -1.123  -2.494  -1.686  0.00  0.00    +0.000 HD
ENDBRANCH   6  18
BRANCH   8  20
ATOM     20  O4  UNL     1      -2.395  -2.062   0.175  0.00  0.00    +0.000 OA
ATOM     21  C9  UNL     1      -3.614  -2.691   0.556  0.00  0.00    +0.000 C 
ENDBRANCH   8  20
BRANCH   9  22
ATOM     22  O5  UNL     1      -4.276  -0.116   1.155  0.00  0.00    +0.000 OA
ATOM     23  C11 UNL     1      -5.264   0.746   1.712  0.00  0.00    +0.000 C 
ENDBRANCH   9  22
TORSDOF 4
