REMARK  Name = resultss/4CJN/ligands/lig_291_t0.pdb
REMARK  6 active torsions:
REMARK  status: ('A' for Active; 'I' for Inactive)
REMARK    1  A    between atoms: C1_1  and  O1_2
REMARK    2  A    between atoms: O1_2  and  C2_3
REMARK    3  A    between atoms: C8_10  and  O3_11
REMARK    4  A    between atoms: C10_13  and  O4_14
REMARK    5  A    between atoms: C14_19  and  O6_20
REMARK    6  A    between atoms: O6_20  and  C15_21
REMARK                            x       y       z     vdW  Elec       q    Type
REMARK                         _______ _______ _______ _____ _____    ______ ____
ROOT
ATOM      1  C2  UNL     1       2.582   0.106  -0.529  0.00  0.00    +0.000 A 
ATOM      2  C3  UNL     1       2.307   1.355  -1.113  0.00  0.00    +0.000 A 
ATOM      3  C4  UNL     1       1.013   1.859  -1.141  0.00  0.00    +0.000 A 
ATOM      4  C5  UNL     1      -0.039   1.133  -0.589  0.00  0.00    +0.000 A 
ATOM      5  O2  UNL     1      -1.261   1.642  -0.647  0.00  0.00    +0.000 OA
ATOM      6  C6  UNL     1      -2.325   1.037  -0.140  0.00  0.00    +0.000 A 
ATOM      7  C7  UNL     1      -3.572   1.651  -0.285  0.00  0.00    +0.000 A 
ATOM      8  C8  UNL     1      -4.722   1.041   0.217  0.00  0.00    +0.000 A 
ATOM      9  C9  UNL     1      -4.621  -0.172   0.897  0.00  0.00    +0.000 A 
ATOM     10  C10 UNL     1      -3.380  -0.789   1.094  0.00  0.00    +0.000 A 
ATOM     11  C11 UNL     1      -2.205  -0.209   0.525  0.00  0.00    +0.000 A 
ATOM     12  C12 UNL     1      -0.923  -0.813   0.547  0.00  0.00    +0.000 A 
ATOM     13  O5  UNL     1      -0.777  -1.977   1.004  0.00  0.00    +0.000 OA
ATOM     14  C13 UNL     1       0.195  -0.124   0.009  0.00  0.00    +0.000 A 
ATOM     15  C14 UNL     1       1.520  -0.649   0.043  0.00  0.00    +0.000 A 
ENDROOT
BRANCH   1  17
ATOM     16  C1  UNL     1       5.034   0.265  -1.045  0.00  0.00    +0.000 C 
ATOM     17  O1  UNL     1       3.893  -0.396  -0.507  0.00  0.00    +0.000 OA
ENDBRANCH   1  17
BRANCH   8  18
ATOM     18  O3  UNL     1      -5.971   1.637   0.055  0.00  0.00    +0.000 OA
ATOM     19  H7  UNL     1      -6.078   2.520  -0.431  0.00  0.00    +0.000 HD
ENDBRANCH   8  18
BRANCH  10  20
ATOM     20  O4  UNL     1      -3.377  -1.944   1.882  0.00  0.00    +0.000 OA
ATOM     21  H9  UNL     1      -2.569  -2.302   2.368  0.00  0.00    +0.000 HD
ENDBRANCH  10  20
BRANCH  15  22
ATOM     22  O6  UNL     1       1.724  -1.904   0.654  0.00  0.00    +0.000 OA
ATOM     23  C15 UNL     1       2.957  -2.602   0.797  0.00  0.00    +0.000 C 
ENDBRANCH  15  22
TORSDOF 4
