REMARK  Name = resultss/4CJN/ligands/lig_312_t2.pdb
REMARK  14 active torsions:
REMARK  status: ('A' for Active; 'I' for Inactive)
REMARK    1  A    between atoms: C1_1  and  O1_2
REMARK    2  A    between atoms: O1_2  and  C2_3
REMARK    3  A    between atoms: C4_5  and  O2_6
REMARK    4  A    between atoms: C6_8  and  O3_9
REMARK    5  A    between atoms: C9_13  and  O5_14
REMARK    6  A    between atoms: O5_14  and  C10_15
REMARK    7  A    between atoms: C12_18  and  O7_19
REMARK    8  A    between atoms: C13_20  and  O8_21
REMARK    9  A    between atoms: C14_22  and  O9_23
REMARK   10  A    between atoms: O9_23  and  C15_24
REMARK   11  A    between atoms: C16_26  and  C17_27
REMARK   12  A    between atoms: C18_28  and  O11_29
REMARK   13  A    between atoms: C19_30  and  O12_31
REMARK   14  A    between atoms: C20_32  and  O13_33
REMARK                            x       y       z     vdW  Elec       q    Type
REMARK                         _______ _______ _______ _____ _____    ______ ____
ROOT
ATOM      1  C10 UNL     1      -1.701  -1.322   0.628  0.00  0.00    +0.000 C 
ATOM      2  O6  UNL     1      -1.192  -1.778   1.875  0.00  0.00    +0.000 OA
ATOM      3  C11 UNL     1      -1.069  -3.190   1.896  0.00  0.00    +0.000 C 
ATOM      4  C12 UNL     1      -2.420  -3.906   1.646  0.00  0.00    +0.000 C 
ATOM      5  C13 UNL     1      -3.554  -2.895   1.410  0.00  0.00    +0.000 C 
ATOM      6  C14 UNL     1      -3.127  -1.876   0.337  0.00  0.00    +0.000 C 
ENDROOT
BRANCH   4   7
ATOM      7  O7  UNL     1      -2.739  -4.775   2.704  0.00  0.00    +0.000 OA
ATOM      8  H11 UNL     1      -2.840  -4.225   3.525  0.00  0.00    +0.000 HD
ENDBRANCH   4   7
BRANCH   5   9
ATOM      9  O8  UNL     1      -4.709  -3.580   0.996  0.00  0.00    +0.000 OA
ATOM     10  H13 UNL     1      -5.471  -2.953   1.105  0.00  0.00    +0.000 HD
ENDBRANCH   5   9
BRANCH   1  11
ATOM     11  O5  UNL     1      -0.820  -1.666  -0.449  0.00  0.00    +0.000 OA
BRANCH  11  20
ATOM     12  C2  UNL     1       7.489   1.128   0.017  0.00  0.00    +0.000 A 
ATOM     13  C3  UNL     1       6.888   2.005   0.935  0.00  0.00    +0.000 A 
ATOM     14  C4  UNL     1       5.505   1.982   1.148  0.00  0.00    +0.000 A 
ATOM     15  C5  UNL     1       4.711   0.973   0.539  0.00  0.00    +0.000 A 
ATOM     16  C6  UNL     1       3.353   0.727   0.876  0.00  0.00    +0.000 A 
ATOM     17  C7  UNL     1       2.588  -0.136   0.065  0.00  0.00    +0.000 A 
ATOM     18  C8  UNL     1       1.209  -0.389   0.254  0.00  0.00    +0.000 A 
ATOM     19  O4  UNL     1       0.577   0.229   1.150  0.00  0.00    +0.000 OA
ATOM     20  C9  UNL     1       0.540  -1.322  -0.581  0.00  0.00    +0.000 A 
ATOM     21  C21 UNL     1       1.241  -1.967  -1.608  0.00  0.00    +0.000 A 
ATOM     22  C22 UNL     1       2.600  -1.748  -1.820  0.00  0.00    +0.000 A 
ATOM     23  C23 UNL     1       3.299  -0.864  -1.008  0.00  0.00    +0.000 A 
ATOM     24  O14 UNL     1       4.599  -0.696  -1.179  0.00  0.00    +0.000 OA
ATOM     25  C24 UNL     1       5.314   0.157  -0.457  0.00  0.00    +0.000 A 
ATOM     26  C25 UNL     1       6.688   0.236  -0.695  0.00  0.00    +0.000 A 
BRANCH  12  28
ATOM     27  C1  UNL     1       9.801   2.010   0.390  0.00  0.00    +0.000 C 
ATOM     28  O1  UNL     1       8.870   1.129  -0.233  0.00  0.00    +0.000 OA
ENDBRANCH  12  28
BRANCH  14  29
ATOM     29  O2  UNL     1       4.961   3.027   1.896  0.00  0.00    +0.000 OA
ATOM     30  H5  UNL     1       4.001   3.329   1.792  0.00  0.00    +0.000 HD
ENDBRANCH  14  29
BRANCH  16  31
ATOM     31  O3  UNL     1       2.782   1.237   2.045  0.00  0.00    +0.000 OA
ATOM     32  H6  UNL     1       3.332   1.489   2.855  0.00  0.00    +0.000 HD
ENDBRANCH  16  31
ENDBRANCH  11  20
ENDBRANCH   1  11
BRANCH   6  33
ATOM     33  O9  UNL     1      -4.075  -0.815   0.331  0.00  0.00    +0.000 OA
BRANCH  33  34
ATOM     34  C15 UNL     1      -4.386  -0.390  -0.986  0.00  0.00    +0.000 C 
ATOM     35  O10 UNL     1      -3.282   0.280  -1.582  0.00  0.00    +0.000 OA
ATOM     36  C16 UNL     1      -3.108   1.649  -1.213  0.00  0.00    +0.000 C 
ATOM     37  C17 UNL     1      -3.262   2.526  -2.460  0.00  0.00    +0.000 C 
ATOM     38  C18 UNL     1      -3.987   2.174  -0.040  0.00  0.00    +0.000 C 
ATOM     39  C19 UNL     1      -5.474   1.780  -0.191  0.00  0.00    +0.000 C 
ATOM     40  C20 UNL     1      -5.667   0.465  -0.980  0.00  0.00    +0.000 C 
BRANCH  38  41
ATOM     41  O11 UNL     1      -3.499   1.679   1.183  0.00  0.00    +0.000 OA
ATOM     42  H21 UNL     1      -2.704   2.225   1.426  0.00  0.00    +0.000 HD
ENDBRANCH  38  41
BRANCH  39  43
ATOM     43  O12 UNL     1      -6.192   2.820  -0.810  0.00  0.00    +0.000 OA
ATOM     44  H23 UNL     1      -6.365   3.509  -0.115  0.00  0.00    +0.000 HD
ENDBRANCH  39  43
BRANCH  40  45
ATOM     45  O13 UNL     1      -6.055   0.736  -2.305  0.00  0.00    +0.000 OA
ATOM     46  H25 UNL     1      -6.501  -0.082  -2.651  0.00  0.00    +0.000 HD
ENDBRANCH  40  45
ENDBRANCH  33  34
ENDBRANCH   6  33
TORSDOF 12
