REMARK  Name = resultss/4CJN/ligands/lig_19_t0.pdb
REMARK  5 active torsions:
REMARK  status: ('A' for Active; 'I' for Inactive)
REMARK    1  A    between atoms: C1_1  and  N1_2
REMARK    2  A    between atoms: C3_4  and  O1_5
REMARK    3  A    between atoms: C4_6  and  O2_7
REMARK    4  A    between atoms: C5_8  and  C6_9
REMARK    5  A    between atoms: C6_9  and  O3_10
REMARK                            x       y       z     vdW  Elec       q    Type
REMARK                         _______ _______ _______ _____ _____    ______ ____
ROOT
ATOM      1  C1  UNL     1      -1.235  -2.091  -0.082  0.00  0.00    +0.000 C 
ATOM      2  N1  UNL     1      -0.778  -0.791  -0.595  0.00  0.00    +0.000 NA
ATOM      3  C2  UNL     1      -1.559   0.336  -0.082  0.00  0.00    +0.000 C 
ATOM      4  C3  UNL     1      -0.672   1.577  -0.193  0.00  0.00    +0.000 C 
ATOM      5  C4  UNL     1       0.721   1.054  -0.575  0.00  0.00    +0.000 C 
ATOM      6  C5  UNL     1       0.639  -0.462  -0.360  0.00  0.00    +0.000 C 
ENDROOT
BRANCH   4   7
ATOM      7  O1  UNL     1      -0.628   2.248   1.041  0.00  0.00    +0.000 OA
ATOM      8  H7  UNL     1      -0.224   3.137   0.865  0.00  0.00    +0.000 HD
ENDBRANCH   4   7
BRANCH   5   9
ATOM      9  O2  UNL     1       0.976   1.314  -1.932  0.00  0.00    +0.000 OA
ATOM     10  H9  UNL     1       1.212   2.276  -1.999  0.00  0.00    +0.000 HD
ENDBRANCH   5   9
BRANCH   6  11
ATOM     11  C6  UNL     1       1.148  -0.855   1.055  0.00  0.00    +0.000 C 
BRANCH  11  12
ATOM     12  O3  UNL     1       2.483  -0.462   1.233  0.00  0.00    +0.000 OA
ATOM     13  H13 UNL     1       3.035  -1.070   0.676  0.00  0.00    +0.000 HD
ENDBRANCH  11  12
ENDBRANCH   6  11
TORSDOF 4
