REMARK  Name = resultss/4CJN/ligands/lig_114_t0.pdb
REMARK  9 active torsions:
REMARK  status: ('A' for Active; 'I' for Inactive)
REMARK    1  A    between atoms: C1_1  and  C2_2
REMARK    2  A    between atoms: C2_2  and  C3_3
REMARK    3  A    between atoms: C3_3  and  C4_4
REMARK    4  A    between atoms: C4_4  and  N1_5
REMARK    5  A    between atoms: C6_7  and  O1_8
REMARK    6  A    between atoms: C7_9  and  O2_10
REMARK    7  A    between atoms: C8_11  and  O3_12
REMARK    8  A    between atoms: C9_13  and  C10_14
REMARK    9  A    between atoms: C10_14  and  O4_15
REMARK                            x       y       z     vdW  Elec       q    Type
REMARK                         _______ _______ _______ _____ _____    ______ ____
ROOT
ATOM      1  N1  UNL     1      -0.025   0.035  -0.360  0.00  0.00    +0.000 NA
ATOM      2  C5  UNL     1      -0.393   1.357   0.211  0.00  0.00    +0.000 C 
ATOM      3  C6  UNL     1      -1.724   1.382   0.986  0.00  0.00    +0.000 C 
ATOM      4  C7  UNL     1      -2.895   0.662   0.253  0.00  0.00    +0.000 C 
ATOM      5  C8  UNL     1      -2.430  -0.213  -0.934  0.00  0.00    +0.000 C 
ATOM      6  C9  UNL     1      -1.116  -0.949  -0.593  0.00  0.00    +0.000 C 
ENDROOT
BRANCH   3   7
ATOM      7  O1  UNL     1      -1.520   0.831   2.262  0.00  0.00    +0.000 OA
ATOM      8  H13 UNL     1      -2.280   1.128   2.829  0.00  0.00    +0.000 HD
ENDBRANCH   3   7
BRANCH   4   9
ATOM      9  O2  UNL     1      -3.836   1.603  -0.201  0.00  0.00    +0.000 OA
ATOM     10  H15 UNL     1      -4.334   1.920   0.598  0.00  0.00    +0.000 HD
ENDBRANCH   4   9
BRANCH   5  11
ATOM     11  O3  UNL     1      -2.221   0.580  -2.078  0.00  0.00    +0.000 OA
ATOM     12  H17 UNL     1      -3.100   0.687  -2.527  0.00  0.00    +0.000 HD
ENDBRANCH   5  11
BRANCH   1  13
ATOM     13  C4  UNL     1       1.261  -0.517   0.111  0.00  0.00    +0.000 C 
BRANCH  13  14
ATOM     14  C3  UNL     1       2.440   0.272  -0.476  0.00  0.00    +0.000 C 
BRANCH  14  16
ATOM     15  C1  UNL     1       4.954   0.442  -0.631  0.00  0.00    +0.000 C 
ATOM     16  C2  UNL     1       3.779  -0.341  -0.050  0.00  0.00    +0.000 C 
ENDBRANCH  14  16
ENDBRANCH  13  14
ENDBRANCH   1  13
BRANCH   6  17
ATOM     17  C10 UNL     1      -1.293  -1.975   0.560  0.00  0.00    +0.000 C 
BRANCH  17  18
ATOM     18  O4  UNL     1      -2.358  -2.842   0.278  0.00  0.00    +0.000 OA
ATOM     19  H21 UNL     1      -2.436  -3.451   1.058  0.00  0.00    +0.000 HD
ENDBRANCH  17  18
ENDBRANCH   6  17
TORSDOF 8
