REMARK  Name = resultss/4CJN/ligands/lig_428_t2.pdb
REMARK  8 active torsions:
REMARK  status: ('A' for Active; 'I' for Inactive)
REMARK    1  A    between atoms: C1_1  and  C2_2
REMARK    2  A    between atoms: C2_2  and  O1_3
REMARK    3  A    between atoms: O1_3  and  C3_4
REMARK    4  A    between atoms: C6_7  and  N1_8
REMARK    5  A    between atoms: C7_9  and  S1_10
REMARK    6  A    between atoms: N2_11  and  N3_12
REMARK    7  A    between atoms: C8_13  and  C9_15
REMARK    8  A    between atoms: C19_26  and  C20_27
REMARK                            x       y       z     vdW  Elec       q    Type
REMARK                         _______ _______ _______ _____ _____    ______ ____
ROOT
ATOM      1  C9  UNL     1      -1.647   1.623  -0.131  0.00  0.00    +0.000 A 
ATOM      2  C10 UNL     1      -2.662   2.594  -0.242  0.00  0.00    +0.000 A 
ATOM      3  C11 UNL     1      -3.977   2.138  -0.268  0.00  0.00    +0.000 A 
ATOM      4  C12 UNL     1      -4.286   0.798  -0.185  0.00  0.00    +0.000 A 
ATOM      5  N4  UNL     1      -5.614   0.586  -0.351  0.00  0.00    +0.000 N 
ATOM      6  C13 UNL     1      -6.138   1.817  -0.544  0.00  0.00    +0.000 A 
ATOM      7  C14 UNL     1      -7.467   2.129  -0.840  0.00  0.00    +0.000 A 
ATOM      8  C15 UNL     1      -7.791   3.479  -1.082  0.00  0.00    +0.000 A 
ATOM      9  C16 UNL     1      -6.792   4.478  -1.029  0.00  0.00    +0.000 A 
ATOM     10  C17 UNL     1      -5.458   4.140  -0.735  0.00  0.00    +0.000 A 
ATOM     11  C18 UNL     1      -5.167   2.795  -0.495  0.00  0.00    +0.000 A 
ATOM     12  C19 UNL     1      -3.268  -0.153  -0.051  0.00  0.00    +0.000 A 
ATOM     13  N5  UNL     1      -1.976   0.293  -0.041  0.00  0.00    +0.000 NA
ATOM     14  H12 UNL     1      -6.115  -0.324  -0.411  0.00  0.00    +0.000 HD
ENDROOT
BRANCH  12  15
ATOM     15  C20 UNL     1      -3.540  -1.592   0.089  0.00  0.00    +0.000 A 
ATOM     16  C21 UNL     1      -4.478  -2.046   1.032  0.00  0.00    +0.000 A 
ATOM     17  C22 UNL     1      -4.695  -3.419   1.203  0.00  0.00    +0.000 A 
ATOM     18  C23 UNL     1      -3.987  -4.341   0.429  0.00  0.00    +0.000 A 
ATOM     19  C24 UNL     1      -3.044  -3.896  -0.504  0.00  0.00    +0.000 A 
ATOM     20  C25 UNL     1      -2.811  -2.525  -0.667  0.00  0.00    +0.000 A 
ENDBRANCH  12  15
BRANCH   1  22
ATOM     21  N3  UNL     1       0.795   1.023  -0.296  0.00  0.00    +0.000 N 
ATOM     22  C8  UNL     1      -0.224   2.014  -0.107  0.00  0.00    +0.000 C 
ATOM     23  O2  UNL     1       0.099   3.221   0.070  0.00  0.00    +0.000 OA
ATOM     24  H10 UNL     1       0.544   0.102  -0.726  0.00  0.00    +0.000 HD
BRANCH  21  27
ATOM     25  N1  UNL     1       3.917   1.686   1.550  0.00  0.00    +0.000 N 
ATOM     26  C7  UNL     1       2.526   1.495   1.268  0.00  0.00    +0.000 C 
ATOM     27  N2  UNL     1       2.137   1.255   0.051  0.00  0.00    +0.000 NA
ATOM     28  H8  UNL     1       4.170   2.362   2.305  0.00  0.00    +0.000 HD
BRANCH  25  32
ATOM     29  C3  UNL     1       7.083  -0.703  -0.005  0.00  0.00    +0.000 A 
ATOM     30  C4  UNL     1       5.755  -1.179  -0.043  0.00  0.00    +0.000 A 
ATOM     31  C5  UNL     1       4.711  -0.390   0.446  0.00  0.00    +0.000 A 
ATOM     32  C6  UNL     1       4.966   0.896   0.959  0.00  0.00    +0.000 A 
ATOM     33  C26 UNL     1       6.281   1.379   0.959  0.00  0.00    +0.000 A 
ATOM     34  C27 UNL     1       7.332   0.584   0.484  0.00  0.00    +0.000 A 
BRANCH  29  35
ATOM     35  O1  UNL     1       8.175  -1.474  -0.437  0.00  0.00    +0.000 OA
BRANCH  35  37
ATOM     36  C1  UNL     1       7.908  -3.764   0.344  0.00  0.00    +0.000 C 
ATOM     37  C2  UNL     1       8.113  -2.836  -0.852  0.00  0.00    +0.000 C 
ENDBRANCH  35  37
ENDBRANCH  29  35
ENDBRANCH  25  32
BRANCH  26  38
ATOM     38  S1  UNL     1       1.365   1.493   2.643  0.00  0.00    +0.000 S 
ATOM     39  H9  UNL     1       1.539   0.107   2.841  0.00  0.00    +0.000 HD
ENDBRANCH  26  38
ENDBRANCH  21  27
ENDBRANCH   1  22
TORSDOF 7
