REMARK  Name = resultss/4CJN/ligands/lig_309_t1.pdb
REMARK  7 active torsions:
REMARK  status: ('A' for Active; 'I' for Inactive)
REMARK    1  A    between atoms: C1_1  and  O1_2
REMARK    2  A    between atoms: O1_2  and  C2_3
REMARK    3  A    between atoms: C4_5  and  O2_6
REMARK    4  A    between atoms: C8_11  and  O4_12
REMARK    5  A    between atoms: O4_12  and  C9_13
REMARK    6  A    between atoms: C15_21  and  O7_22
REMARK    7  A    between atoms: O7_22  and  C16_23
REMARK                            x       y       z     vdW  Elec       q    Type
REMARK                         _______ _______ _______ _____ _____    ______ ____
ROOT
ATOM      1  C2  UNL     1      -3.156  -0.776  -0.521  0.00  0.00    +0.000 A 
ATOM      2  C3  UNL     1      -2.565  -2.035  -0.348  0.00  0.00    +0.000 A 
ATOM      3  C4  UNL     1      -1.183  -2.177  -0.221  0.00  0.00    +0.000 A 
ATOM      4  C5  UNL     1      -0.356  -1.020  -0.184  0.00  0.00    +0.000 A 
ATOM      5  C6  UNL     1       1.035  -1.053   0.086  0.00  0.00    +0.000 A 
ATOM      6  O3  UNL     1       1.612  -2.123   0.414  0.00  0.00    +0.000 OA
ATOM      7  C7  UNL     1       1.789   0.132   0.036  0.00  0.00    +0.000 A 
ATOM      8  C8  UNL     1       3.274   0.120   0.358  0.00  0.00    +0.000 C 
ATOM      9  C10 UNL     1       3.953   1.414  -0.027  0.00  0.00    +0.000 C 
ATOM     10  O5  UNL     1       5.208   1.454  -0.120  0.00  0.00    +0.000 OA
ATOM     11  C11 UNL     1       3.178   2.645  -0.241  0.00  0.00    +0.000 C 
ATOM     12  C12 UNL     1       1.849   2.608  -0.317  0.00  0.00    +0.000 C 
ATOM     13  C13 UNL     1       1.116   1.335  -0.231  0.00  0.00    +0.000 A 
ATOM     14  O6  UNL     1      -0.196   1.344  -0.413  0.00  0.00    +0.000 OA
ATOM     15  C14 UNL     1      -0.954   0.254  -0.389  0.00  0.00    +0.000 A 
ATOM     16  C15 UNL     1      -2.355   0.371  -0.561  0.00  0.00    +0.000 A 
ENDROOT
BRANCH   1  18
ATOM     17  C1  UNL     1      -5.485  -1.691  -0.649  0.00  0.00    +0.000 C 
ATOM     18  O1  UNL     1      -4.545  -0.622  -0.667  0.00  0.00    +0.000 OA
ENDBRANCH   1  18
BRANCH   3  19
ATOM     19  O2  UNL     1      -0.694  -3.486  -0.169  0.00  0.00    +0.000 OA
ATOM     20  H5  UNL     1       0.249  -3.752  -0.410  0.00  0.00    +0.000 HD
ENDBRANCH   3  19
BRANCH   8  21
ATOM     21  O4  UNL     1       3.421  -0.076   1.754  0.00  0.00    +0.000 OA
ATOM     22  C9  UNL     1       4.472  -0.977   2.028  0.00  0.00    +0.000 C 
ENDBRANCH   8  21
BRANCH  16  23
ATOM     23  O7  UNL     1      -3.018   1.598  -0.767  0.00  0.00    +0.000 OA
ATOM     24  C16 UNL     1      -2.417   2.886  -0.849  0.00  0.00    +0.000 C 
ENDBRANCH  16  23
TORSDOF 4
