REMARK  Name = resultss/4CJN/ligands/lig_435_t1.pdb
REMARK  7 active torsions:
REMARK  status: ('A' for Active; 'I' for Inactive)
REMARK    1  A    between atoms: C1_1  and  C2_2
REMARK    2  A    between atoms: C5_5  and  C6_6
REMARK    3  A    between atoms: C7_7  and  N1_8
REMARK    4  A    between atoms: C8_9  and  S1_10
REMARK    5  A    between atoms: N2_11  and  N3_12
REMARK    6  A    between atoms: C9_13  and  C10_15
REMARK    7  A    between atoms: C20_26  and  C21_27
REMARK                            x       y       z     vdW  Elec       q    Type
REMARK                         _______ _______ _______ _____ _____    ______ ____
ROOT
ATOM      1  C10 UNL     1      -0.138  -1.528   0.859  0.00  0.00    +0.000 A 
ATOM      2  C11 UNL     1      -0.535  -2.233  -0.297  0.00  0.00    +0.000 A 
ATOM      3  C12 UNL     1      -1.414  -1.590  -1.160  0.00  0.00    +0.000 A 
ATOM      4  C13 UNL     1      -1.881  -0.315  -0.918  0.00  0.00    +0.000 A 
ATOM      5  N4  UNL     1      -2.759   0.077  -1.871  0.00  0.00    +0.000 N 
ATOM      6  C14 UNL     1      -2.824  -0.964  -2.730  0.00  0.00    +0.000 A 
ATOM      7  C15 UNL     1      -3.600  -1.055  -3.884  0.00  0.00    +0.000 A 
ATOM      8  C16 UNL     1      -3.528  -2.244  -4.635  0.00  0.00    +0.000 A 
ATOM      9  C17 UNL     1      -2.694  -3.306  -4.220  0.00  0.00    +0.000 A 
ATOM     10  C18 UNL     1      -1.922  -3.193  -3.049  0.00  0.00    +0.000 A 
ATOM     11  C19 UNL     1      -2.011  -2.003  -2.329  0.00  0.00    +0.000 A 
ATOM     12  C20 UNL     1      -1.464   0.381   0.224  0.00  0.00    +0.000 A 
ATOM     13  N5  UNL     1      -0.610  -0.260   1.078  0.00  0.00    +0.000 NA
ATOM     14  H13 UNL     1      -3.301   0.968  -1.926  0.00  0.00    +0.000 HD
ENDROOT
BRANCH  12  15
ATOM     15  C21 UNL     1      -1.866   1.771   0.519  0.00  0.00    +0.000 A 
ATOM     16  C22 UNL     1      -1.832   2.763  -0.478  0.00  0.00    +0.000 A 
ATOM     17  C23 UNL     1      -2.153   4.087  -0.167  0.00  0.00    +0.000 A 
ATOM     18  C24 UNL     1      -2.499   4.436   1.140  0.00  0.00    +0.000 A 
ATOM     19  C25 UNL     1      -2.517   3.462   2.142  0.00  0.00    +0.000 A 
ATOM     20  C26 UNL     1      -2.195   2.137   1.836  0.00  0.00    +0.000 A 
ENDBRANCH  12  15
BRANCH   1  22
ATOM     21  N3  UNL     1       1.252  -1.346   2.949  0.00  0.00    +0.000 N 
ATOM     22  C9  UNL     1       0.844  -2.099   1.799  0.00  0.00    +0.000 C 
ATOM     23  O1  UNL     1       1.356  -3.229   1.576  0.00  0.00    +0.000 OA
ATOM     24  H11 UNL     1       0.554  -0.734   3.428  0.00  0.00    +0.000 HD
BRANCH  21  27
ATOM     25  N1  UNL     1       3.913  -1.256   1.511  0.00  0.00    +0.000 NA
ATOM     26  C8  UNL     1       3.707  -1.754   2.698  0.00  0.00    +0.000 C 
ATOM     27  N2  UNL     1       2.550  -1.433   3.486  0.00  0.00    +0.000 N 
ATOM     28  H10 UNL     1       2.676  -1.289   4.512  0.00  0.00    +0.000 HD
BRANCH  25  35
ATOM     29  C1  UNL     1       1.487   3.098   1.649  0.00  0.00    +0.000 C 
ATOM     30  C2  UNL     1       1.977   1.905   0.881  0.00  0.00    +0.000 A 
ATOM     31  C3  UNL     1       1.679   1.758  -0.480  0.00  0.00    +0.000 A 
ATOM     32  C4  UNL     1       2.117   0.633  -1.179  0.00  0.00    +0.000 A 
ATOM     33  C5  UNL     1       2.863  -0.364  -0.530  0.00  0.00    +0.000 A 
ATOM     34  C6  UNL     1       3.304  -1.584  -1.289  0.00  0.00    +0.000 C 
ATOM     35  C7  UNL     1       3.146  -0.236   0.846  0.00  0.00    +0.000 A 
ATOM     36  C27 UNL     1       2.722   0.915   1.536  0.00  0.00    +0.000 A 
ENDBRANCH  25  35
BRANCH  26  37
ATOM     37  S1  UNL     1       4.909  -2.895   3.364  0.00  0.00    +0.000 S 
ATOM     38  H9  UNL     1       4.240  -4.002   2.809  0.00  0.00    +0.000 HD
ENDBRANCH  26  37
ENDBRANCH  21  27
ENDBRANCH   1  22
TORSDOF 5
