REMARK  Name = resultss/4CJN/ligands/lig_136_t0.pdb
REMARK  15 active torsions:
REMARK  status: ('A' for Active; 'I' for Inactive)
REMARK    1  A    between atoms: O1_1  and  C1_2
REMARK    2  A    between atoms: C1_2  and  C2_3
REMARK    3  A    between atoms: C3_4  and  O2_5
REMARK    4  A    between atoms: C4_6  and  O3_7
REMARK    5  A    between atoms: S1_9  and  C6_10
REMARK    6  A    between atoms: C6_10  and  C7_11
REMARK    7  A    between atoms: C7_11  and  O4_12
REMARK    8  A    between atoms: C7_11  and  C8_13
REMARK    9  A    between atoms: C8_13  and  O5_14
REMARK   10  A    between atoms: C8_13  and  C9_15
REMARK   11  A    between atoms: C9_15  and  O6_16
REMARK   12  A    between atoms: C9_15  and  C10_17
REMARK   13  A    between atoms: C10_17  and  O7_18
REMARK   14  A    between atoms: C10_17  and  C11_19
REMARK   15  A    between atoms: C11_19  and  O8_20
REMARK                            x       y       z     vdW  Elec       q    Type
REMARK                         _______ _______ _______ _____ _____    ______ ____
ROOT
ATOM      1  C7  UNL     1       0.542   0.570   0.786  0.00  0.00    +0.000 C 
ENDROOT
BRANCH   1   2
ATOM      2  O4  UNL     1       0.279   0.616   2.168  0.00  0.00    +0.000 OA
ATOM      3  H14 UNL     1       0.443  -0.289   2.542  0.00  0.00    +0.000 HD
ENDBRANCH   1   2
BRANCH   1   4
ATOM      4  C6  UNL     1      -0.176  -0.618   0.109  0.00  0.00    +0.000 C 
BRANCH   4   9
ATOM      5  C2  UNL     1      -2.598   0.771  -0.799  0.00  0.00    +0.000 C 
ATOM      6  C3  UNL     1      -3.496   0.030  -1.814  0.00  0.00    +0.000 C 
ATOM      7  C4  UNL     1      -3.919  -1.336  -1.218  0.00  0.00    +0.000 C 
ATOM      8  C5  UNL     1      -2.758  -1.882  -0.390  0.00  0.00    +0.000 C 
ATOM      9  S1  UNL     1      -1.946  -0.469   0.290  0.00  0.00    +0.000 S 
BRANCH   6  10
ATOM     10  O2  UNL     1      -2.765  -0.185  -2.995  0.00  0.00    +0.000 OA
ATOM     11  H6  UNL     1      -3.422  -0.410  -3.704  0.00  0.00    +0.000 HD
ENDBRANCH   6  10
BRANCH   7  12
ATOM     12  O3  UNL     1      -5.044  -1.181  -0.393  0.00  0.00    +0.000 OA
ATOM     13  H8  UNL     1      -5.826  -1.067  -0.994  0.00  0.00    +0.000 HD
ENDBRANCH   7  12
BRANCH   5  14
ATOM     14  C1  UNL     1      -3.340   1.855  -0.003  0.00  0.00    +0.000 C 
BRANCH  14  15
ATOM     15  O1  UNL     1      -4.396   1.305   0.735  0.00  0.00    +0.000 OA
ATOM     16  H1  UNL     1      -4.822   2.063   1.213  0.00  0.00    +0.000 HD
ENDBRANCH  14  15
ENDBRANCH   5  14
ENDBRANCH   4   9
ENDBRANCH   1   4
BRANCH   1  17
ATOM     17  C8  UNL     1       2.070   0.601   0.492  0.00  0.00    +0.000 C 
BRANCH  17  18
ATOM     18  O5  UNL     1       2.592   1.882   0.752  0.00  0.00    +0.000 OA
ATOM     19  H16 UNL     1       2.318   2.148   1.668  0.00  0.00    +0.000 HD
ENDBRANCH  17  18
BRANCH  17  20
ATOM     20  C9  UNL     1       2.890  -0.501   1.232  0.00  0.00    +0.000 C 
BRANCH  20  21
ATOM     21  O6  UNL     1       3.061  -0.204   2.598  0.00  0.00    +0.000 OA
ATOM     22  H18 UNL     1       3.683   0.561   2.678  0.00  0.00    +0.000 HD
ENDBRANCH  20  21
BRANCH  20  23
ATOM     23  C10 UNL     1       4.245  -0.869   0.553  0.00  0.00    +0.000 C 
BRANCH  23  24
ATOM     24  O7  UNL     1       4.010  -1.531  -0.665  0.00  0.00    +0.000 OA
ATOM     25  H20 UNL     1       3.723  -2.455  -0.444  0.00  0.00    +0.000 HD
ENDBRANCH  23  24
BRANCH  23  26
ATOM     26  C11 UNL     1       5.199   0.314   0.302  0.00  0.00    +0.000 C 
BRANCH  26  27
ATOM     27  O8  UNL     1       4.776   1.071  -0.799  0.00  0.00    +0.000 OA
ATOM     28  H23 UNL     1       5.429   1.813  -0.892  0.00  0.00    +0.000 HD
ENDBRANCH  26  27
ENDBRANCH  23  26
ENDBRANCH  20  23
ENDBRANCH  17  20
ENDBRANCH   1  17
TORSDOF 15
REMARK  Name = resultss/4CJN/ligands/lig_136_t0.pdb
REMARK  15 active torsions:
REMARK  status: ('A' for Active; 'I' for Inactive)
REMARK    1  A    between atoms: O1_1  and  C1_2
REMARK    2  A    between atoms: C1_2  and  C2_3
REMARK    3  A    between atoms: C3_4  and  O2_5
REMARK    4  A    between atoms: C4_6  and  O3_7
REMARK    5  A    between atoms: S1_9  and  C6_10
REMARK    6  A    between atoms: C6_10  and  C7_11
REMARK    7  A    between atoms: C7_11  and  O4_12
REMARK    8  A    between atoms: C7_11  and  C8_13
REMARK    9  A    between atoms: C8_13  and  O5_14
REMARK   10  A    between atoms: C8_13  and  C9_15
REMARK   11  A    between atoms: C9_15  and  O6_16
REMARK   12  A    between atoms: C9_15  and  C10_17
REMARK   13  A    between atoms: C10_17  and  O7_18
REMARK   14  A    between atoms: C10_17  and  C11_19
REMARK   15  A    between atoms: C11_19  and  O8_20
REMARK                            x       y       z     vdW  Elec       q    Type
REMARK                         _______ _______ _______ _____ _____    ______ ____
ROOT
ATOM      1 CL1  UNL     1       0.000   0.000   0.000  0.00  0.00    +0.000 Cl
ENDROOT
TORSDOF 0
