REMARK  Name = resultss/4CJN/ligands/lig_337_t1.pdb
REMARK  13 active torsions:
REMARK  status: ('A' for Active; 'I' for Inactive)
REMARK    1  A    between atoms: C1_1  and  O1_2
REMARK    2  A    between atoms: O1_2  and  C2_3
REMARK    3  A    between atoms: C4_5  and  C5_6
REMARK    4  A    between atoms: N2_16  and  N3_17
REMARK    5  A    between atoms: N3_17  and  C13_18
REMARK    6  A    between atoms: C21_26  and  O3_27
REMARK    7  A    between atoms: O3_27  and  C22_28
REMARK    8  A    between atoms: C22_28  and  C23_29
REMARK    9  A    between atoms: N4_31  and  C25_32
REMARK   10  A    between atoms: C25_32  and  C26_33
REMARK   11  A    between atoms: C26_33  and  O4_34
REMARK   12  A    between atoms: N5_35  and  C27_36
REMARK   13  A    between atoms: C30_39  and  N6_40
REMARK                            x       y       z     vdW  Elec       q    Type
REMARK                         _______ _______ _______ _____ _____    ______ ____
ROOT
ATOM      1  C2  UNL     1      -0.467   0.083  -0.131  0.00  0.00    +0.000 A 
ATOM      2  C3  UNL     1      -1.672   0.401  -0.790  0.00  0.00    +0.000 A 
ATOM      3  C4  UNL     1      -2.765   0.911  -0.071  0.00  0.00    +0.000 A 
ATOM      4  C19 UNL     1      -2.654   1.084   1.316  0.00  0.00    +0.000 A 
ATOM      5  C20 UNL     1      -1.464   0.775   1.975  0.00  0.00    +0.000 A 
ATOM      6  C21 UNL     1      -0.358   0.283   1.255  0.00  0.00    +0.000 A 
ENDROOT
BRANCH   3   7
ATOM      7  C5  UNL     1      -4.061   1.252  -0.771  0.00  0.00    +0.000 C 
ATOM      8  N1  UNL     1      -4.310   2.692  -0.629  0.00  0.00    +0.000 N 
ATOM      9  C6  UNL     1      -5.607   3.253  -0.387  0.00  0.00    +0.000 A 
ATOM     10  C7  UNL     1      -5.803   4.639  -0.499  0.00  0.00    +0.000 A 
ATOM     11  C8  UNL     1      -7.063   5.193  -0.254  0.00  0.00    +0.000 A 
ATOM     12  C9  UNL     1      -8.131   4.371   0.105  0.00  0.00    +0.000 A 
ATOM     13  C10 UNL     1      -7.943   2.991   0.226  0.00  0.00    +0.000 A 
ATOM     14  C11 UNL     1      -6.677   2.427  -0.020  0.00  0.00    +0.000 A 
ATOM     15  C12 UNL     1      -6.442   0.984   0.109  0.00  0.00    +0.000 C 
ATOM     16  O2  UNL     1      -7.370   0.227   0.507  0.00  0.00    +0.000 OA
ATOM     17  N2  UNL     1      -5.160   0.428  -0.225  0.00  0.00    +0.000 N 
ATOM     18  H6  UNL     1      -3.529   3.343  -0.874  0.00  0.00    +0.000 HD
BRANCH  17  19
ATOM     19  N3  UNL     1      -4.960  -0.952  -0.031  0.00  0.00    +0.000 N 
ATOM     20  H11 UNL     1      -5.135  -1.353   0.919  0.00  0.00    +0.000 HD
BRANCH  19  21
ATOM     21  C13 UNL     1      -4.557  -1.825  -1.097  0.00  0.00    +0.000 A 
ATOM     22  C14 UNL     1      -3.875  -3.016  -0.802  0.00  0.00    +0.000 A 
ATOM     23  C15 UNL     1      -3.511  -3.896  -1.830  0.00  0.00    +0.000 A 
ATOM     24  C16 UNL     1      -3.842  -3.602  -3.156  0.00  0.00    +0.000 A 
ATOM     25  C17 UNL     1      -4.533  -2.424  -3.456  0.00  0.00    +0.000 A 
ATOM     26  C18 UNL     1      -4.893  -1.538  -2.431  0.00  0.00    +0.000 A 
ENDBRANCH  19  21
ENDBRANCH  17  19
ENDBRANCH   3   7
BRANCH   1  28
ATOM     27  C1  UNL     1       0.661  -0.738  -2.207  0.00  0.00    +0.000 C 
ATOM     28  O1  UNL     1       0.641  -0.441  -0.814  0.00  0.00    +0.000 OA
ENDBRANCH   1  28
BRANCH   6  29
ATOM     29  O3  UNL     1       0.862  -0.022   1.883  0.00  0.00    +0.000 OA
BRANCH  29  30
ATOM     30  C22 UNL     1       1.099   0.110   3.283  0.00  0.00    +0.000 C 
BRANCH  30  31
ATOM     31  C23 UNL     1       2.499  -0.293   3.613  0.00  0.00    +0.000 A 
ATOM     32  C24 UNL     1       3.274  -1.226   2.959  0.00  0.00    +0.000 A 
ATOM     33  N4  UNL     1       4.401  -1.342   3.680  0.00  0.00    +0.000 N 
ATOM     34  N7  UNL     1       4.323  -0.527   4.720  0.00  0.00    +0.000 NA
ATOM     35  N8  UNL     1       3.164   0.116   4.712  0.00  0.00    +0.000 NA
BRANCH  33  36
ATOM     36  C25 UNL     1       5.552  -2.179   3.370  0.00  0.00    +0.000 C 
BRANCH  36  37
ATOM     37  C26 UNL     1       6.446  -1.477   2.398  0.00  0.00    +0.000 C 
ATOM     38  N5  UNL     1       6.189  -1.569   1.124  0.00  0.00    +0.000 NA
BRANCH  38  39
ATOM     39  C27 UNL     1       6.981  -1.041   0.051  0.00  0.00    +0.000 A 
ATOM     40  C28 UNL     1       8.367  -1.260  -0.007  0.00  0.00    +0.000 A 
ATOM     41  C29 UNL     1       9.110  -0.788  -1.092  0.00  0.00    +0.000 A 
ATOM     42  C30 UNL     1       8.477  -0.108  -2.150  0.00  0.00    +0.000 A 
ATOM     43  C31 UNL     1       7.083   0.077  -2.101  0.00  0.00    +0.000 A 
ATOM     44  C32 UNL     1       6.342  -0.397  -1.014  0.00  0.00    +0.000 A 
BRANCH  42  45
ATOM     45  N6  UNL     1       9.239   0.369  -3.274  0.00  0.00    +0.000 N 
ATOM     46  O5  UNL     1      10.469   0.169  -3.341  0.00  0.00    +0.000 OA
ATOM     47  O6  UNL     1       8.618   1.022  -4.315  0.00  0.00    +0.000 OA
ENDBRANCH  42  45
ENDBRANCH  38  39
BRANCH  37  48
ATOM     48  O4  UNL     1       7.493  -0.695   2.892  0.00  0.00    +0.000 OA
ATOM     49  H24 UNL     1       8.038  -0.069   2.312  0.00  0.00    +0.000 HD
ENDBRANCH  37  48
ENDBRANCH  36  37
ENDBRANCH  33  36
ENDBRANCH  30  31
ENDBRANCH  29  30
ENDBRANCH   6  29
TORSDOF 12
