REMARK  Name = resultss/4CJN/ligands/lig_329_t1.pdb
REMARK  5 active torsions:
REMARK  status: ('A' for Active; 'I' for Inactive)
REMARK    1  A    between atoms: C1_1  and  O1_2
REMARK    2  A    between atoms: O1_2  and  C2_3
REMARK    3  A    between atoms: C7_9  and  C8_10
REMARK    4  A    between atoms: C8_10  and  C9_11
REMARK    5  A    between atoms: C13_15  and  O3_16
REMARK                            x       y       z     vdW  Elec       q    Type
REMARK                         _______ _______ _______ _____ _____    ______ ____
ROOT
ATOM      1  C2  UNL     1      -2.208   0.506  -0.011  0.00  0.00    +0.000 C 
ATOM      2  C3  UNL     1      -3.002  -0.344   0.961  0.00  0.00    +0.000 C 
ATOM      3  C4  UNL     1      -2.713  -1.822   0.895  0.00  0.00    +0.000 C 
ATOM      4  O2  UNL     1      -3.368  -2.572   1.603  0.00  0.00    +0.000 OA
ATOM      5  C5  UNL     1      -1.673  -2.423  -0.009  0.00  0.00    +0.000 C 
ATOM      6  C6  UNL     1      -0.783  -1.405  -0.672  0.00  0.00    +0.000 C 
ATOM      7  C7  UNL     1       0.343  -1.843  -1.270  0.00  0.00    +0.000 C 
ATOM      8  C15 UNL     1      -1.204   0.013  -0.738  0.00  0.00    +0.000 C 
ENDROOT
BRANCH   1  10
ATOM      9  C1  UNL     1      -3.501   2.557   0.589  0.00  0.00    +0.000 C 
ATOM     10  O1  UNL     1      -2.500   1.872  -0.160  0.00  0.00    +0.000 OA
ENDBRANCH   1  10
BRANCH   7  11
ATOM     11  C8  UNL     1       1.348  -0.968  -1.974  0.00  0.00    +0.000 C 
BRANCH  11  12
ATOM     12  C9  UNL     1       2.121  -0.116  -0.997  0.00  0.00    +0.000 A 
ATOM     13  C10 UNL     1       2.093   1.285  -1.096  0.00  0.00    +0.000 A 
ATOM     14  C11 UNL     1       2.818   2.070  -0.193  0.00  0.00    +0.000 A 
ATOM     15  C12 UNL     1       3.579   1.465   0.812  0.00  0.00    +0.000 A 
ATOM     16  C13 UNL     1       3.626   0.068   0.911  0.00  0.00    +0.000 A 
ATOM     17  C14 UNL     1       2.905  -0.718   0.004  0.00  0.00    +0.000 A 
BRANCH  16  18
ATOM     18  O3  UNL     1       4.389  -0.547   1.902  0.00  0.00    +0.000 OA
ATOM     19  H14 UNL     1       4.925  -0.006   2.571  0.00  0.00    +0.000 HD
ENDBRANCH  16  18
ENDBRANCH  11  12
ENDBRANCH   7  11
TORSDOF 4
