REMARK  Name = resultss/4CJN/ligands/lig_326_t2.pdb
REMARK  2 active torsions:
REMARK  status: ('A' for Active; 'I' for Inactive)
REMARK    1  A    between atoms: C3_4  and  O2_5
REMARK    2  A    between atoms: C5_7  and  O3_8
REMARK                            x       y       z     vdW  Elec       q    Type
REMARK                         _______ _______ _______ _____ _____    ______ ____
ROOT
ATOM      1  O1  UNL     1       0.127  -2.599   0.232  0.00  0.00    +0.000 OA
ATOM      2  C1  UNL     1       0.099  -1.352   0.062  0.00  0.00    +0.000 A 
ATOM      3  C2  UNL     1       1.297  -0.607  -0.076  0.00  0.00    +0.000 A 
ATOM      4  C3  UNL     1       2.603  -1.181  -0.137  0.00  0.00    +0.000 A 
ATOM      5  C4  UNL     1       3.726  -0.346  -0.137  0.00  0.00    +0.000 A 
ATOM      6  C5  UNL     1       3.591   1.042  -0.149  0.00  0.00    +0.000 A 
ATOM      7  C6  UNL     1       2.319   1.615  -0.153  0.00  0.00    +0.000 A 
ATOM      8  C7  UNL     1       1.179   0.807  -0.113  0.00  0.00    +0.000 A 
ATOM      9  O4  UNL     1      -0.012   1.392  -0.106  0.00  0.00    +0.000 OA
ATOM     10  C8  UNL     1      -1.151   0.716  -0.043  0.00  0.00    +0.000 A 
ATOM     11  C9  UNL     1      -2.429   1.452  -0.082  0.00  0.00    +0.000 C 
ATOM     12  O5  UNL     1      -2.430   2.712  -0.066  0.00  0.00    +0.000 OA
ATOM     13  C10 UNL     1      -3.725   0.707  -0.225  0.00  0.00    +0.000 C 
ATOM     14  C11 UNL     1      -3.686  -0.624   0.532  0.00  0.00    +0.000 C 
ATOM     15  C12 UNL     1      -2.441  -1.400   0.201  0.00  0.00    +0.000 C 
ATOM     16  O6  UNL     1      -2.508  -2.655   0.095  0.00  0.00    +0.000 OA
ATOM     17  C13 UNL     1      -1.143  -0.685   0.060  0.00  0.00    +0.000 A 
ENDROOT
BRANCH   4  18
ATOM     18  O2  UNL     1       2.847  -2.555  -0.229  0.00  0.00    +0.000 OA
ATOM     19  H1  UNL     1       2.172  -3.238  -0.538  0.00  0.00    +0.000 HD
ENDBRANCH   4  18
BRANCH   6  20
ATOM     20  O3  UNL     1       4.731   1.843  -0.166  0.00  0.00    +0.000 OA
ATOM     21  H3  UNL     1       4.668   2.855  -0.178  0.00  0.00    +0.000 HD
ENDBRANCH   6  20
TORSDOF 2
