REMARK  Name = resultss/4CJN/ligands/lig_35_t0.pdb
REMARK  13 active torsions:
REMARK  status: ('A' for Active; 'I' for Inactive)
REMARK    1  A    between atoms: C1_1  and  SI1_2
REMARK    2  A    between atoms: SI1_2  and  C2_3
REMARK    3  A    between atoms: SI1_2  and  C3_4
REMARK    4  A    between atoms: SI1_2  and  C4_5
REMARK    5  A    between atoms: C4_5  and  C5_6
REMARK    6  A    between atoms: C5_6  and  C6_7
REMARK    7  A    between atoms: C6_7  and  C7_8
REMARK    8  A    between atoms: C7_8  and  N1_9
REMARK    9  A    between atoms: C9_11  and  O1_12
REMARK   10  A    between atoms: C10_13  and  O2_14
REMARK   11  A    between atoms: C11_15  and  O3_16
REMARK   12  A    between atoms: C12_17  and  C13_18
REMARK   13  A    between atoms: C13_18  and  O4_19
REMARK                            x       y       z     vdW  Elec       q    Type
REMARK                         _______ _______ _______ _____ _____    ______ ____
ROOT
ATOM      1  N1  UNL     1      -1.589   0.071   0.776  0.00  0.00    +0.000 NA
ATOM      2  C8  UNL     1      -2.599   0.821   1.553  0.00  0.00    +0.000 C 
ATOM      3  C9  UNL     1      -3.669   1.464   0.649  0.00  0.00    +0.000 C 
ATOM      4  C10 UNL     1      -4.347   0.394  -0.229  0.00  0.00    +0.000 C 
ATOM      5  C11 UNL     1      -3.293  -0.422  -1.007  0.00  0.00    +0.000 C 
ATOM      6  C12 UNL     1      -2.229  -1.002  -0.032  0.00  0.00    +0.000 C 
ENDROOT
BRANCH   3   7
ATOM      7  O1  UNL     1      -4.626   2.091   1.464  0.00  0.00    +0.000 OA
ATOM      8  H21 UNL     1      -5.054   2.801   0.917  0.00  0.00    +0.000 HD
ENDBRANCH   3   7
BRANCH   4   9
ATOM      9  O2  UNL     1      -5.216   1.007  -1.147  0.00  0.00    +0.000 OA
ATOM     10  H23 UNL     1      -6.079   1.152  -0.678  0.00  0.00    +0.000 HD
ENDBRANCH   4   9
BRANCH   5  11
ATOM     11  O3  UNL     1      -3.923  -1.442  -1.744  0.00  0.00    +0.000 OA
ATOM     12  H25 UNL     1      -4.371  -2.049  -1.098  0.00  0.00    +0.000 HD
ENDBRANCH   5  11
BRANCH   1  13
ATOM     13  C7  UNL     1      -0.658   0.966   0.040  0.00  0.00    +0.000 C 
BRANCH  13  14
ATOM     14  C6  UNL     1       0.776   0.718   0.514  0.00  0.00    +0.000 C 
BRANCH  14  15
ATOM     15  C5  UNL     1       1.776   1.586  -0.262  0.00  0.00    +0.000 C 
BRANCH  15  16
ATOM     16  C4  UNL     1       3.217   1.423   0.238  0.00  0.00    +0.000 C 
BRANCH  16  18
ATOM     17  C1  UNL     1       5.840   0.000  -0.351  0.00  0.00    +0.000 C 
ATOM     18 SI1  UNL     1       3.998  -0.246  -0.168  0.00  0.00    +0.000 Si
ATOM     19  C2  UNL     1       3.715  -1.461   1.225  0.00  0.00    +0.000 C 
ATOM     20  C3  UNL     1       3.333  -0.955  -1.765  0.00  0.00    +0.000 C 
ENDBRANCH  16  18
ENDBRANCH  15  16
ENDBRANCH  14  15
ENDBRANCH  13  14
ENDBRANCH   1  13
BRANCH   6  21
ATOM     21  C13 UNL     1      -1.182  -1.895  -0.740  0.00  0.00    +0.000 C 
BRANCH  21  22
ATOM     22  O4  UNL     1      -1.767  -3.075  -1.222  0.00  0.00    +0.000 OA
ATOM     23  H29 UNL     1      -1.915  -3.664  -0.436  0.00  0.00    +0.000 HD
ENDBRANCH  21  22
ENDBRANCH   6  21
TORSDOF 10
