REMARK  Name = resultss/4CJN/ligands/lig_298_t1.pdb
REMARK  8 active torsions:
REMARK  status: ('A' for Active; 'I' for Inactive)
REMARK    1  A    between atoms: C3_4  and  O2_5
REMARK    2  A    between atoms: O2_5  and  C4_6
REMARK    3  A    between atoms: C5_8  and  C6_9
REMARK    4  A    between atoms: C6_9  and  O4_10
REMARK    5  A    between atoms: C7_11  and  O5_12
REMARK    6  A    between atoms: C8_13  and  O6_14
REMARK    7  A    between atoms: C9_15  and  O7_16
REMARK    8  A    between atoms: C11_18  and  O8_19
REMARK                            x       y       z     vdW  Elec       q    Type
REMARK                         _______ _______ _______ _____ _____    ______ ____
ROOT
ATOM      1  O1  UNL     1      -1.474   1.526   0.511  0.00  0.00    +0.000 OA
ATOM      2  C1  UNL     1      -2.249   0.558   0.276  0.00  0.00    +0.000 A 
ATOM      3  C2  UNL     1      -1.766  -0.618  -0.343  0.00  0.00    +0.000 A 
ATOM      4  C3  UNL     1      -0.408  -0.791  -0.721  0.00  0.00    +0.000 A 
ATOM      5  C10 UNL     1      -0.019  -1.995  -1.343  0.00  0.00    +0.000 A 
ATOM      6  C11 UNL     1      -0.947  -3.016  -1.573  0.00  0.00    +0.000 A 
ATOM      7  C12 UNL     1      -2.276  -2.847  -1.193  0.00  0.00    +0.000 A 
ATOM      8  C13 UNL     1      -2.692  -1.661  -0.585  0.00  0.00    +0.000 A 
ATOM      9  O9  UNL     1      -3.967  -1.532  -0.236  0.00  0.00    +0.000 OA
ATOM     10  C14 UNL     1      -4.453  -0.441   0.342  0.00  0.00    +0.000 A 
ATOM     11  C15 UNL     1      -5.907  -0.422   0.746  0.00  0.00    +0.000 C 
ATOM     12  C16 UNL     1      -6.521   0.979   0.628  0.00  0.00    +0.000 C 
ATOM     13  C17 UNL     1      -5.661   1.998   1.315  0.00  0.00    +0.000 C 
ATOM     14  O10 UNL     1      -6.188   2.990   1.886  0.00  0.00    +0.000 OA
ATOM     15  C18 UNL     1      -4.197   1.865   1.253  0.00  0.00    +0.000 C 
ATOM     16  O11 UNL     1      -3.465   2.772   1.735  0.00  0.00    +0.000 OA
ATOM     17  C19 UNL     1      -3.611   0.653   0.625  0.00  0.00    +0.000 A 
ENDROOT
BRANCH   6  18
ATOM     18  O8  UNL     1      -0.556  -4.206  -2.184  0.00  0.00    +0.000 OA
ATOM     19  H13 UNL     1       0.402  -4.364  -2.474  0.00  0.00    +0.000 HD
ENDBRANCH   6  18
BRANCH   4  20
ATOM     20  O2  UNL     1       0.513   0.246  -0.482  0.00  0.00    +0.000 OA
BRANCH  20  21
ATOM     21  C4  UNL     1       1.939   0.150  -0.525  0.00  0.00    +0.000 C 
ATOM     22  O3  UNL     1       2.460   1.466  -0.523  0.00  0.00    +0.000 OA
ATOM     23  C5  UNL     1       3.852   1.458  -0.815  0.00  0.00    +0.000 C 
ATOM     24  C7  UNL     1       4.650   0.501   0.127  0.00  0.00    +0.000 C 
ATOM     25  C8  UNL     1       3.747   0.010   1.274  0.00  0.00    +0.000 C 
ATOM     26  C9  UNL     1       2.453  -0.628   0.718  0.00  0.00    +0.000 C 
BRANCH  24  27
ATOM     27  O5  UNL     1       5.121  -0.594  -0.620  0.00  0.00    +0.000 OA
ATOM     28  H7  UNL     1       5.884  -0.984  -0.119  0.00  0.00    +0.000 HD
ENDBRANCH  24  27
BRANCH  25  29
ATOM     29  O6  UNL     1       4.447  -0.895   2.088  0.00  0.00    +0.000 OA
ATOM     30  H9  UNL     1       3.914  -1.001   2.919  0.00  0.00    +0.000 HD
ENDBRANCH  25  29
BRANCH  26  31
ATOM     31  O7  UNL     1       2.700  -1.968   0.370  0.00  0.00    +0.000 OA
ATOM     32  H11 UNL     1       1.934  -2.506   0.700  0.00  0.00    +0.000 HD
ENDBRANCH  26  31
BRANCH  23  33
ATOM     33  C6  UNL     1       4.365   2.899  -0.709  0.00  0.00    +0.000 C 
BRANCH  33  34
ATOM     34  O4  UNL     1       5.687   2.975  -1.167  0.00  0.00    +0.000 OA
ATOM     35  H5  UNL     1       5.962   3.923  -1.058  0.00  0.00    +0.000 HD
ENDBRANCH  33  34
ENDBRANCH  23  33
ENDBRANCH  20  21
ENDBRANCH   4  20
TORSDOF 8
