REMARK  Name = resultss/4CJN/ligands/lig_290_t2.pdb
REMARK  2 active torsions:
REMARK  status: ('A' for Active; 'I' for Inactive)
REMARK    1  A    between atoms: C4_5  and  O2_6
REMARK    2  A    between atoms: C10_13  and  O4_14
REMARK                            x       y       z     vdW  Elec       q    Type
REMARK                         _______ _______ _______ _____ _____    ______ ____
ROOT
ATOM      1  O1  UNL     1       0.667  -2.625   0.519  0.00  0.00    +0.000 OA
ATOM      2  C1  UNL     1       0.401  -1.413   0.291  0.00  0.00    +0.000 A 
ATOM      3  C2  UNL     1       1.435  -0.463   0.236  0.00  0.00    +0.000 A 
ATOM      4  C3  UNL     1       2.786  -0.812   0.429  0.00  0.00    +0.000 A 
ATOM      5  C4  UNL     1       3.783   0.168   0.366  0.00  0.00    +0.000 A 
ATOM      6  C5  UNL     1       3.437   1.501   0.110  0.00  0.00    +0.000 A 
ATOM      7  C6  UNL     1       2.100   1.856  -0.083  0.00  0.00    +0.000 A 
ATOM      8  C7  UNL     1       1.097   0.883  -0.021  0.00  0.00    +0.000 A 
ATOM      9  O3  UNL     1      -0.169   1.234  -0.206  0.00  0.00    +0.000 OA
ATOM     10  C8  UNL     1      -1.177   0.367  -0.163  0.00  0.00    +0.000 A 
ATOM     11  C9  UNL     1      -2.571   0.897  -0.391  0.00  0.00    +0.000 C 
ATOM     12  C10 UNL     1      -3.674  -0.136  -0.329  0.00  0.00    +0.000 C 
ATOM     13  C11 UNL     1      -3.437  -1.428  -0.091  0.00  0.00    +0.000 C 
ATOM     14  C12 UNL     1      -2.077  -1.933   0.129  0.00  0.00    +0.000 C 
ATOM     15  O5  UNL     1      -1.910  -3.162   0.350  0.00  0.00    +0.000 OA
ATOM     16  C13 UNL     1      -0.931  -0.997   0.088  0.00  0.00    +0.000 A 
ENDROOT
BRANCH   5  17
ATOM     17  O2  UNL     1       5.114  -0.195   0.560  0.00  0.00    +0.000 OA
ATOM     18  H2  UNL     1       5.860   0.490   0.521  0.00  0.00    +0.000 HD
ENDBRANCH   5  17
BRANCH  12  19
ATOM     19  O4  UNL     1      -4.990   0.274  -0.529  0.00  0.00    +0.000 OA
ATOM     20  H7  UNL     1      -5.215   1.245  -0.713  0.00  0.00    +0.000 HD
ENDBRANCH  12  19
TORSDOF 2
