REMARK  Name = resultss/4CJN/ligands/lig_388_t2.pdb
REMARK  3 active torsions:
REMARK  status: ('A' for Active; 'I' for Inactive)
REMARK    1  A    between atoms: N1_1  and  S1_2
REMARK    2  A    between atoms: S1_2  and  C1_5
REMARK    3  A    between atoms: C4_8  and  N2_9
REMARK                            x       y       z     vdW  Elec       q    Type
REMARK                         _______ _______ _______ _____ _____    ______ ____
ROOT
ATOM      1  N2  UNL     1       1.484  -1.056   1.677  0.00  0.00    +0.000 NA
ATOM      2  C5  UNL     1       0.362  -1.186   1.032  0.00  0.00    +0.000 C 
ATOM      3  N3  UNL     1       0.165  -0.731  -0.306  0.00  0.00    +0.000 N 
ATOM      4  C6  UNL     1      -1.213  -0.730  -0.624  0.00  0.00    +0.000 C 
ATOM      5  O3  UNL     1      -1.615  -0.584  -1.808  0.00  0.00    +0.000 OA
ATOM      6  C7  UNL     1      -2.081  -1.077   0.505  0.00  0.00    +0.000 C 
ATOM      7  C8  UNL     1      -3.414  -0.881   0.584  0.00  0.00    +0.000 C 
ATOM      8  C9  UNL     1      -4.333  -1.522   1.541  0.00  0.00    +0.000 C 
ATOM      9  O4  UNL     1      -3.999  -2.259   2.505  0.00  0.00    +0.000 OA
ATOM     10  N4  UNL     1      -5.689  -1.241   1.218  0.00  0.00    +0.000 N 
ATOM     11  C10 UNL     1      -5.625  -0.368   0.101  0.00  0.00    +0.000 A 
ATOM     12  C11 UNL     1      -6.710   0.288  -0.479  0.00  0.00    +0.000 A 
ATOM     13  C12 UNL     1      -6.459   1.253  -1.464  0.00  0.00    +0.000 A 
ATOM     14  C13 UNL     1      -5.136   1.581  -1.814  0.00  0.00    +0.000 A 
ATOM     15  C14 UNL     1      -4.055   0.923  -1.205  0.00  0.00    +0.000 A 
ATOM     16  C15 UNL     1      -4.319  -0.106  -0.291  0.00  0.00    +0.000 A 
ATOM     17  S2  UNL     1      -1.117  -1.771   1.861  0.00  0.00    +0.000 S 
ATOM     18  H5  UNL     1       0.898  -0.348  -0.942  0.00  0.00    +0.000 HD
ATOM     19  H6  UNL     1      -6.541  -1.542   1.742  0.00  0.00    +0.000 HD
ENDROOT
BRANCH   1  23
ATOM     20  C1  UNL     1       5.254   0.145   0.141  0.00  0.00    +0.000 A 
ATOM     21  C2  UNL     1       4.761   0.693   1.333  0.00  0.00    +0.000 A 
ATOM     22  C3  UNL     1       3.515   0.296   1.827  0.00  0.00    +0.000 A 
ATOM     23  C4  UNL     1       2.736  -0.629   1.121  0.00  0.00    +0.000 A 
ATOM     24  C16 UNL     1       3.243  -1.198  -0.059  0.00  0.00    +0.000 A 
ATOM     25  C17 UNL     1       4.490  -0.802  -0.553  0.00  0.00    +0.000 A 
BRANCH  20  26
ATOM     26  S1  UNL     1       6.818   0.657  -0.486  0.00  0.00    +0.000 S 
ATOM     27  O1  UNL     1       7.740   0.984   0.655  0.00  0.00    +0.000 OA
ATOM     28  O2  UNL     1       7.429  -0.450  -1.298  0.00  0.00    +0.000 OA
BRANCH  26  29
ATOM     29  N1  UNL     1       6.607   2.054  -1.482  0.00  0.00    +0.000 NA
ATOM     30  H1  UNL     1       7.559   2.363  -1.781  0.00  0.00    +0.000 HD
ATOM     31  H2  UNL     1       6.222   2.809  -0.872  0.00  0.00    +0.000 HD
ENDBRANCH  26  29
ENDBRANCH  20  26
ENDBRANCH   1  23
TORSDOF 3
