REMARK  Name = resultss/4CJN/ligands/lig_105_t0.pdb
REMARK  9 active torsions:
REMARK  status: ('A' for Active; 'I' for Inactive)
REMARK    1  A    between atoms: C1_1  and  C2_2
REMARK    2  A    between atoms: C2_2  and  C3_3
REMARK    3  A    between atoms: C3_3  and  C4_4
REMARK    4  A    between atoms: C4_4  and  N1_5
REMARK    5  A    between atoms: C6_7  and  O1_8
REMARK    6  A    between atoms: C7_9  and  O2_10
REMARK    7  A    between atoms: C8_11  and  O3_12
REMARK    8  A    between atoms: C9_13  and  C10_14
REMARK    9  A    between atoms: C10_14  and  O4_15
REMARK                            x       y       z     vdW  Elec       q    Type
REMARK                         _______ _______ _______ _____ _____    ______ ____
ROOT
ATOM      1  N1  UNL     1      -0.281  -0.724  -0.700  0.00  0.00    +0.000 NA
ATOM      2  C5  UNL     1      -0.705   0.373  -1.608  0.00  0.00    +0.000 C 
ATOM      3  C6  UNL     1      -1.365   1.553  -0.875  0.00  0.00    +0.000 C 
ATOM      4  C7  UNL     1      -2.592   1.090  -0.050  0.00  0.00    +0.000 C 
ATOM      5  C8  UNL     1      -2.474  -0.374   0.438  0.00  0.00    +0.000 C 
ATOM      6  C9  UNL     1      -0.994  -0.804   0.607  0.00  0.00    +0.000 C 
ENDROOT
BRANCH   3   7
ATOM      7  O1  UNL     1      -0.425   2.174  -0.038  0.00  0.00    +0.000 OA
ATOM      8  H13 UNL     1      -0.768   3.085   0.157  0.00  0.00    +0.000 HD
ENDBRANCH   3   7
BRANCH   4   9
ATOM      9  O2  UNL     1      -3.761   1.215  -0.820  0.00  0.00    +0.000 OA
ATOM     10  H15 UNL     1      -3.997   2.180  -0.833  0.00  0.00    +0.000 HD
ENDBRANCH   4   9
BRANCH   5  11
ATOM     11  O3  UNL     1      -3.163  -0.515   1.656  0.00  0.00    +0.000 OA
ATOM     12  H17 UNL     1      -4.132  -0.513   1.439  0.00  0.00    +0.000 HD
ENDBRANCH   5  11
BRANCH   1  13
ATOM     13  C4  UNL     1       1.188  -0.935  -0.663  0.00  0.00    +0.000 C 
BRANCH  13  14
ATOM     14  C3  UNL     1       1.971   0.204   0.015  0.00  0.00    +0.000 C 
BRANCH  14  16
ATOM     15  C1  UNL     1       4.259   1.015   0.710  0.00  0.00    +0.000 C 
ATOM     16  C2  UNL     1       3.471  -0.114   0.052  0.00  0.00    +0.000 C 
ENDBRANCH  14  16
ENDBRANCH  13  14
ENDBRANCH   1  13
BRANCH   6  17
ATOM     17  C10 UNL     1      -0.920  -2.237   1.189  0.00  0.00    +0.000 C 
BRANCH  17  18
ATOM     18  O4  UNL     1      -1.416  -3.180   0.276  0.00  0.00    +0.000 OA
ATOM     19  H21 UNL     1      -0.672  -3.396  -0.344  0.00  0.00    +0.000 HD
ENDBRANCH  17  18
ENDBRANCH   6  17
TORSDOF 8
