REMARK  Name = resultss/4CJN/ligands/lig_410_t1.pdb
REMARK  5 active torsions:
REMARK  status: ('A' for Active; 'I' for Inactive)
REMARK    1  A    between atoms: C1_2  and  C9_15
REMARK    2  A    between atoms: N1_3  and  N2_4
REMARK    3  A    between atoms: C2_5  and  S1_6
REMARK    4  A    between atoms: N3_7  and  C3_8
REMARK    5  A    between atoms: C19_26  and  C20_27
REMARK                            x       y       z     vdW  Elec       q    Type
REMARK                         _______ _______ _______ _____ _____    ______ ____
ROOT
ATOM      1  C9  UNL     1      -0.385   0.591  -0.098  0.00  0.00    +0.000 A 
ATOM      2  C10 UNL     1      -1.233   1.607  -0.589  0.00  0.00    +0.000 A 
ATOM      3  C11 UNL     1      -2.603   1.378  -0.524  0.00  0.00    +0.000 A 
ATOM      4  C12 UNL     1      -3.127   0.211  -0.014  0.00  0.00    +0.000 A 
ATOM      5  N4  UNL     1      -4.481   0.249   0.012  0.00  0.00    +0.000 N 
ATOM      6  C13 UNL     1      -4.802   1.454  -0.507  0.00  0.00    +0.000 A 
ATOM      7  C14 UNL     1      -6.081   1.983  -0.680  0.00  0.00    +0.000 A 
ATOM      8  C15 UNL     1      -6.193   3.279  -1.217  0.00  0.00    +0.000 A 
ATOM      9  C16 UNL     1      -5.036   4.014  -1.563  0.00  0.00    +0.000 A 
ATOM     10  C17 UNL     1      -3.756   3.462  -1.376  0.00  0.00    +0.000 A 
ATOM     11  C18 UNL     1      -3.677   2.175  -0.848  0.00  0.00    +0.000 A 
ATOM     12  C19 UNL     1      -2.275  -0.797   0.456  0.00  0.00    +0.000 A 
ATOM     13  N5  UNL     1      -0.929  -0.563   0.405  0.00  0.00    +0.000 NA
ATOM     14  H9  UNL     1      -5.143  -0.465   0.387  0.00  0.00    +0.000 HD
ENDROOT
BRANCH  12  15
ATOM     15  C20 UNL     1      -2.767  -2.081   0.999  0.00  0.00    +0.000 A 
ATOM     16  C21 UNL     1      -3.760  -2.817   0.329  0.00  0.00    +0.000 A 
ATOM     17  C22 UNL     1      -4.193  -4.045   0.840  0.00  0.00    +0.000 A 
ATOM     18  C23 UNL     1      -3.630  -4.554   2.013  0.00  0.00    +0.000 A 
ATOM     19  C24 UNL     1      -2.626  -3.840   2.673  0.00  0.00    +0.000 A 
ATOM     20  C25 UNL     1      -2.190  -2.612   2.165  0.00  0.00    +0.000 A 
ENDBRANCH  12  15
BRANCH   1  22
ATOM     21  O1  UNL     1       1.595   1.789  -0.631  0.00  0.00    +0.000 OA
ATOM     22  C1  UNL     1       1.085   0.757  -0.117  0.00  0.00    +0.000 C 
ATOM     23  N1  UNL     1       1.940  -0.247   0.442  0.00  0.00    +0.000 N 
ATOM     24  H1  UNL     1       1.515  -1.091   0.884  0.00  0.00    +0.000 HD
BRANCH  23  25
ATOM     25  N2  UNL     1       3.335  -0.086   0.382  0.00  0.00    +0.000 NA
ATOM     26  C2  UNL     1       4.195  -0.941   0.857  0.00  0.00    +0.000 C 
ATOM     27  N3  UNL     1       5.603  -0.677   0.754  0.00  0.00    +0.000 N 
ATOM     28  H3  UNL     1       6.242  -1.242   1.357  0.00  0.00    +0.000 HD
BRANCH  27  29
ATOM     29  C3  UNL     1       6.174   0.343  -0.085  0.00  0.00    +0.000 A 
ATOM     30  C4  UNL     1       5.667   0.576  -1.377  0.00  0.00    +0.000 A 
ATOM     31  C5  UNL     1       6.243   1.547  -2.200  0.00  0.00    +0.000 A 
ATOM     32  C6  UNL     1       7.337   2.286  -1.750  0.00  0.00    +0.000 A 
ATOM     33  C7  UNL     1       7.861   2.054  -0.477  0.00  0.00    +0.000 A 
ATOM     34  C8  UNL     1       7.289   1.085   0.357  0.00  0.00    +0.000 A 
ATOM     35 CL1  UNL     1       7.973   0.843   1.960  0.00  0.00    +0.000 Cl
ENDBRANCH  27  29
BRANCH  26  36
ATOM     36  S1  UNL     1       3.671  -2.434   1.710  0.00  0.00    +0.000 S 
ATOM     37  H2  UNL     1       3.661  -3.174   0.513  0.00  0.00    +0.000 HD
ENDBRANCH  26  36
ENDBRANCH  23  25
ENDBRANCH   1  22
TORSDOF 5
