REMARK  Name = resultss/4CJN/ligands/lig_58_t0.pdb
REMARK  9 active torsions:
REMARK  status: ('A' for Active; 'I' for Inactive)
REMARK    1  A    between atoms: O1_1  and  C1_2
REMARK    2  A    between atoms: C1_2  and  C2_3
REMARK    3  A    between atoms: C2_3  and  O2_4
REMARK    4  A    between atoms: C4_6  and  N1_7
REMARK    5  A    between atoms: N1_7  and  C5_8
REMARK    6  A    between atoms: C10_13  and  O3_14
REMARK    7  A    between atoms: C11_15  and  O4_16
REMARK    8  A    between atoms: C12_17  and  O5_18
REMARK    9  A    between atoms: C13_19  and  O6_20
REMARK                            x       y       z     vdW  Elec       q    Type
REMARK                         _______ _______ _______ _____ _____    ______ ____
ROOT
ATOM      1  C2  UNL     1      -2.723   0.505   0.973  0.00  0.00    +0.000 C 
ATOM      2  C3  UNL     1      -1.252   0.843   0.595  0.00  0.00    +0.000 C 
ATOM      3  C4  UNL     1      -0.605  -0.192  -0.370  0.00  0.00    +0.000 C 
ATOM      4  C11 UNL     1      -1.602  -0.711  -1.451  0.00  0.00    +0.000 C 
ATOM      5  C12 UNL     1      -2.793   0.247  -1.634  0.00  0.00    +0.000 C 
ATOM      6  C13 UNL     1      -3.614   0.390  -0.325  0.00  0.00    +0.000 C 
ENDROOT
BRANCH   1   7
ATOM      7  O2  UNL     1      -3.237   1.545   1.778  0.00  0.00    +0.000 OA
ATOM      8  H4  UNL     1      -2.621   1.691   2.542  0.00  0.00    +0.000 HD
ENDBRANCH   1   7
BRANCH   3   9
ATOM      9  N1  UNL     1       0.602   0.374  -1.019  0.00  0.00    +0.000 NA
ATOM     10  H8  UNL     1       0.624   1.421  -0.998  0.00  0.00    +0.000 HD
BRANCH   9  11
ATOM     11  C5  UNL     1       1.874  -0.185  -0.526  0.00  0.00    +0.000 C 
ATOM     12  C6  UNL     1       2.986   0.146  -1.535  0.00  0.00    +0.000 C 
ATOM     13  C7  UNL     1       4.328  -0.505  -1.147  0.00  0.00    +0.000 C 
ATOM     14  C8  UNL     1       4.528  -0.643   0.375  0.00  0.00    +0.000 C 
ATOM     15  C9  UNL     1       3.764   0.436   1.149  0.00  0.00    +0.000 C 
ATOM     16  C10 UNL     1       2.237   0.354   0.896  0.00  0.00    +0.000 C 
BRANCH  16  17
ATOM     17  O3  UNL     1       1.620  -0.423   1.892  0.00  0.00    +0.000 OA
ATOM     18  H19 UNL     1       2.002  -1.337   1.841  0.00  0.00    +0.000 HD
ENDBRANCH  16  17
ENDBRANCH   9  11
ENDBRANCH   3   9
BRANCH   4  19
ATOM     19  O4  UNL     1      -0.961  -0.896  -2.689  0.00  0.00    +0.000 OA
ATOM     20  H21 UNL     1      -0.386  -1.701  -2.595  0.00  0.00    +0.000 HD
ENDBRANCH   4  19
BRANCH   5  21
ATOM     21  O5  UNL     1      -3.622  -0.175  -2.690  0.00  0.00    +0.000 OA
ATOM     22  H23 UNL     1      -3.932  -1.096  -2.483  0.00  0.00    +0.000 HD
ENDBRANCH   5  21
BRANCH   6  23
ATOM     23  O6  UNL     1      -4.447   1.515  -0.462  0.00  0.00    +0.000 OA
ATOM     24  H25 UNL     1      -5.238   1.366   0.120  0.00  0.00    +0.000 HD
ENDBRANCH   6  23
BRANCH   1  25
ATOM     25  C1  UNL     1      -2.800  -0.821   1.784  0.00  0.00    +0.000 C 
BRANCH  25  26
ATOM     26  O1  UNL     1      -1.940  -0.798   2.894  0.00  0.00    +0.000 OA
ATOM     27  H1  UNL     1      -2.457  -0.425   3.655  0.00  0.00    +0.000 HD
ENDBRANCH  25  26
ENDBRANCH   1  25
TORSDOF 9
