REMARK  Name = resultss/4CJN/ligands/lig_28_t0.pdb
REMARK  11 active torsions:
REMARK  status: ('A' for Active; 'I' for Inactive)
REMARK    1  A    between atoms: C1_1  and  SI1_2
REMARK    2  A    between atoms: SI1_2  and  C2_3
REMARK    3  A    between atoms: SI1_2  and  C3_4
REMARK    4  A    between atoms: SI1_2  and  C4_5
REMARK    5  A    between atoms: C5_6  and  C6_7
REMARK    6  A    between atoms: C6_7  and  N1_8
REMARK    7  A    between atoms: C8_10  and  O1_11
REMARK    8  A    between atoms: C9_12  and  O2_13
REMARK    9  A    between atoms: C10_14  and  O3_15
REMARK   10  A    between atoms: C11_16  and  C12_17
REMARK   11  A    between atoms: C12_17  and  O4_18
REMARK                            x       y       z     vdW  Elec       q    Type
REMARK                         _______ _______ _______ _____ _____    ______ ____
ROOT
ATOM      1  N1  UNL     1       0.509  -0.226   0.168  0.00  0.00    +0.000 NA
ATOM      2  C7  UNL     1       0.655  -1.674  -0.100  0.00  0.00    +0.000 C 
ATOM      3  C8  UNL     1       1.953  -2.287   0.482  0.00  0.00    +0.000 C 
ATOM      4  C9  UNL     1       3.098  -1.261   0.622  0.00  0.00    +0.000 C 
ATOM      5  C10 UNL     1       2.980  -0.189  -0.470  0.00  0.00    +0.000 C 
ATOM      6  C11 UNL     1       1.652   0.608  -0.303  0.00  0.00    +0.000 C 
ENDROOT
BRANCH   3   7
ATOM      7  O1  UNL     1       1.712  -2.943   1.702  0.00  0.00    +0.000 OA
ATOM      8  H17 UNL     1       1.376  -2.270   2.348  0.00  0.00    +0.000 HD
ENDBRANCH   3   7
BRANCH   4   9
ATOM      9  O2  UNL     1       4.328  -1.933   0.510  0.00  0.00    +0.000 OA
ATOM     10  H19 UNL     1       5.010  -1.374   0.967  0.00  0.00    +0.000 HD
ENDBRANCH   4   9
BRANCH   5  11
ATOM     11  O3  UNL     1       4.075   0.690  -0.372  0.00  0.00    +0.000 OA
ATOM     12  H21 UNL     1       4.378   0.891  -1.296  0.00  0.00    +0.000 HD
ENDBRANCH   5  11
BRANCH   1  13
ATOM     13  C6  UNL     1       0.085   0.068   1.552  0.00  0.00    +0.000 C 
BRANCH  13  15
ATOM     14  C4  UNL     1      -1.796   1.723   1.146  0.00  0.00    +0.000 C 
ATOM     15  C5  UNL     1      -0.580   1.418   1.633  0.00  0.00    +0.000 C 
BRANCH  14  17
ATOM     16  C1  UNL     1      -2.407   0.191  -1.476  0.00  0.00    +0.000 C 
ATOM     17 SI1  UNL     1      -2.977   0.587   0.258  0.00  0.00    +0.000 Si
ATOM     18  C2  UNL     1      -4.597   1.505   0.106  0.00  0.00    +0.000 C 
ATOM     19  C3  UNL     1      -3.316  -0.987   1.208  0.00  0.00    +0.000 C 
ENDBRANCH  14  17
ENDBRANCH  13  15
ENDBRANCH   1  13
BRANCH   6  20
ATOM     20  C12 UNL     1       1.240   1.292  -1.618  0.00  0.00    +0.000 C 
BRANCH  20  21
ATOM     21  O4  UNL     1       2.216   2.204  -2.047  0.00  0.00    +0.000 OA
ATOM     22  H25 UNL     1       2.140   2.999  -1.458  0.00  0.00    +0.000 HD
ENDBRANCH  20  21
ENDBRANCH   6  20
TORSDOF 8
