REMARK  Name = resultss/4CJN/ligands/lig_357_t2.pdb
REMARK  12 active torsions:
REMARK  status: ('A' for Active; 'I' for Inactive)
REMARK    1  A    between atoms: C1_1  and  C2_2
REMARK    2  A    between atoms: C5_5  and  N1_6
REMARK    3  A    between atoms: C6_7  and  C7_9
REMARK    4  A    between atoms: C7_9  and  N2_10
REMARK    5  A    between atoms: C9_12  and  C10_13
REMARK    6  A    between atoms: C10_13  and  O2_14
REMARK    7  A    between atoms: O2_14  and  C11_15
REMARK    8  A    between atoms: C14_18  and  C15_19
REMARK    9  A    between atoms: C22_27  and  O3_28
REMARK   10  A    between atoms: N4_29  and  N5_30
REMARK   11  A    between atoms: N5_30  and  C23_31
REMARK   12  A    between atoms: C31_41  and  C32_42
REMARK                            x       y       z     vdW  Elec       q    Type
REMARK                         _______ _______ _______ _____ _____    ______ ____
ROOT
ATOM      1  C11 UNL     1      -1.072   1.808   0.164  0.00  0.00    +0.000 A 
ATOM      2  C12 UNL     1      -1.380   0.558   0.731  0.00  0.00    +0.000 A 
ATOM      3  C13 UNL     1      -2.581  -0.082   0.419  0.00  0.00    +0.000 A 
ATOM      4  C14 UNL     1      -3.500   0.515  -0.460  0.00  0.00    +0.000 A 
ATOM      5  C29 UNL     1      -3.196   1.769  -1.015  0.00  0.00    +0.000 A 
ATOM      6  C30 UNL     1      -1.991   2.405  -0.707  0.00  0.00    +0.000 A 
ENDROOT
BRANCH   4   7
ATOM      7  C15 UNL     1      -4.808  -0.168  -0.787  0.00  0.00    +0.000 C 
ATOM      8  N3  UNL     1      -4.544  -1.461  -1.413  0.00  0.00    +0.000 NA
ATOM      9  C16 UNL     1      -4.700  -2.612  -0.829  0.00  0.00    +0.000 A 
ATOM     10  C17 UNL     1      -4.319  -3.766  -1.528  0.00  0.00    +0.000 A 
ATOM     11  C18 UNL     1      -4.409  -5.019  -0.928  0.00  0.00    +0.000 A 
ATOM     12  C19 UNL     1      -4.887  -5.132   0.375  0.00  0.00    +0.000 A 
ATOM     13  C20 UNL     1      -5.297  -3.997   1.078  0.00  0.00    +0.000 A 
ATOM     14  C21 UNL     1      -5.227  -2.713   0.486  0.00  0.00    +0.000 A 
ATOM     15  C22 UNL     1      -5.669  -1.591   1.114  0.00  0.00    +0.000 C 
ATOM     16  N4  UNL     1      -5.611  -0.324   0.433  0.00  0.00    +0.000 N 
BRANCH  15  17
ATOM     17  O3  UNL     1      -6.213  -1.603   2.406  0.00  0.00    +0.000 OA
ATOM     18  H19 UNL     1      -6.311  -2.415   2.997  0.00  0.00    +0.000 HD
ENDBRANCH  15  17
BRANCH  16  19
ATOM     19  N5  UNL     1      -6.092   0.825   1.092  0.00  0.00    +0.000 N 
ATOM     20  H20 UNL     1      -5.866   0.961   2.103  0.00  0.00    +0.000 HD
BRANCH  19  21
ATOM     21  C23 UNL     1      -6.872   1.826   0.422  0.00  0.00    +0.000 A 
ATOM     22  C24 UNL     1      -7.703   1.490  -0.660  0.00  0.00    +0.000 A 
ATOM     23  C25 UNL     1      -8.474   2.474  -1.288  0.00  0.00    +0.000 A 
ATOM     24  C26 UNL     1      -8.429   3.795  -0.833  0.00  0.00    +0.000 A 
ATOM     25  C27 UNL     1      -7.620   4.132   0.255  0.00  0.00    +0.000 A 
ATOM     26  C28 UNL     1      -6.849   3.150   0.886  0.00  0.00    +0.000 A 
ENDBRANCH  19  21
ENDBRANCH  16  19
ENDBRANCH   4   7
BRANCH   1  27
ATOM     27  O2  UNL     1       0.125   2.491   0.437  0.00  0.00    +0.000 OA
BRANCH  27  28
ATOM     28  C10 UNL     1       1.182   2.005   1.263  0.00  0.00    +0.000 C 
BRANCH  28  31
ATOM     29  N2  UNL     1       3.022  -0.340  -0.808  0.00  0.00    +0.000 N 
ATOM     30  C8  UNL     1       2.517   0.892  -0.629  0.00  0.00    +0.000 A 
ATOM     31  C9  UNL     1       1.894   0.869   0.599  0.00  0.00    +0.000 A 
ATOM     32  N6  UNL     1       2.047  -0.359   1.135  0.00  0.00    +0.000 NA
ATOM     33  N7  UNL     1       2.740  -1.072   0.259  0.00  0.00    +0.000 NA
BRANCH  29  34
ATOM     34  C7  UNL     1       3.833  -0.796  -1.931  0.00  0.00    +0.000 C 
BRANCH  34  36
ATOM     35  N1  UNL     1       5.993  -0.831  -0.596  0.00  0.00    +0.000 N 
ATOM     36  C6  UNL     1       5.257  -0.372  -1.740  0.00  0.00    +0.000 C 
ATOM     37  O1  UNL     1       5.807   0.360  -2.606  0.00  0.00    +0.000 OA
ATOM     38  H6  UNL     1       5.591  -1.625  -0.050  0.00  0.00    +0.000 HD
BRANCH  35  43
ATOM     39  C1  UNL     1      11.033   1.359   1.130  0.00  0.00    +0.000 C 
ATOM     40  C2  UNL     1       9.718   0.792   0.681  0.00  0.00    +0.000 A 
ATOM     41  C3  UNL     1       8.737   1.621   0.124  0.00  0.00    +0.000 A 
ATOM     42  C4  UNL     1       7.520   1.085  -0.300  0.00  0.00    +0.000 A 
ATOM     43  C5  UNL     1       7.269  -0.295  -0.198  0.00  0.00    +0.000 A 
ATOM     44  C31 UNL     1       8.262  -1.138   0.353  0.00  0.00    +0.000 A 
ATOM     45  C32 UNL     1       8.033  -2.619   0.495  0.00  0.00    +0.000 C 
ATOM     46  C33 UNL     1       9.478  -0.584   0.790  0.00  0.00    +0.000 A 
ENDBRANCH  35  43
ENDBRANCH  34  36
ENDBRANCH  29  34
ENDBRANCH  28  31
ENDBRANCH  27  28
ENDBRANCH   1  27
TORSDOF 10
