REMARK  Name = resultss/4CJN/ligands/lig_313_t2.pdb
REMARK  9 active torsions:
REMARK  status: ('A' for Active; 'I' for Inactive)
REMARK    1  A    between atoms: C3_4  and  O2_5
REMARK    2  A    between atoms: C4_6  and  O3_7
REMARK    3  A    between atoms: C11_16  and  O6_17
REMARK    4  A    between atoms: O6_17  and  C12_18
REMARK    5  A    between atoms: C13_20  and  C14_21
REMARK    6  A    between atoms: C14_21  and  O8_22
REMARK    7  A    between atoms: C15_23  and  O9_24
REMARK    8  A    between atoms: C16_25  and  O10_26
REMARK    9  A    between atoms: C17_27  and  O11_28
REMARK                            x       y       z     vdW  Elec       q    Type
REMARK                         _______ _______ _______ _____ _____    ______ ____
ROOT
ATOM      1  O1  UNL     1       1.901   1.466   1.491  0.00  0.00    +0.000 OA
ATOM      2  C1  UNL     1       2.359   0.773   0.545  0.00  0.00    +0.000 A 
ATOM      3  C2  UNL     1       3.546   0.018   0.708  0.00  0.00    +0.000 A 
ATOM      4  C3  UNL     1       4.267  -0.100   1.936  0.00  0.00    +0.000 A 
ATOM      5  C4  UNL     1       5.516  -0.752   1.951  0.00  0.00    +0.000 A 
ATOM      6  C5  UNL     1       6.013  -1.349   0.793  0.00  0.00    +0.000 A 
ATOM      7  C6  UNL     1       5.281  -1.308  -0.389  0.00  0.00    +0.000 A 
ATOM      8  C7  UNL     1       4.064  -0.626  -0.444  0.00  0.00    +0.000 A 
ATOM      9  O4  UNL     1       3.412  -0.583  -1.599  0.00  0.00    +0.000 OA
ATOM     10  C8  UNL     1       2.270   0.069  -1.772  0.00  0.00    +0.000 A 
ATOM     11  C9  UNL     1       1.629   0.006  -3.136  0.00  0.00    +0.000 C 
ATOM     12  C10 UNL     1       0.535   1.024  -3.300  0.00  0.00    +0.000 C 
ATOM     13  O5  UNL     1       0.358   1.562  -4.382  0.00  0.00    +0.000 OA
ATOM     14  C11 UNL     1      -0.397   1.300  -2.158  0.00  0.00    +0.000 C 
ATOM     15  C18 UNL     1       0.431   1.539  -0.921  0.00  0.00    +0.000 C 
ATOM     16  O12 UNL     1       0.019   2.374  -0.069  0.00  0.00    +0.000 OA
ATOM     17  C19 UNL     1       1.694   0.782  -0.700  0.00  0.00    +0.000 A 
ENDROOT
BRANCH   4  18
ATOM     18  O2  UNL     1       3.780   0.378   3.157  0.00  0.00    +0.000 OA
ATOM     19  H1  UNL     1       2.802   0.524   3.362  0.00  0.00    +0.000 HD
ENDBRANCH   4  18
BRANCH   5  20
ATOM     20  O3  UNL     1       6.275  -0.834   3.120  0.00  0.00    +0.000 OA
ATOM     21  H2  UNL     1       5.972  -0.422   3.994  0.00  0.00    +0.000 HD
ENDBRANCH   5  20
BRANCH  14  22
ATOM     22  O6  UNL     1      -1.245   0.174  -2.004  0.00  0.00    +0.000 OA
BRANCH  22  23
ATOM     23  C12 UNL     1      -2.277   0.409  -1.060  0.00  0.00    +0.000 C 
ATOM     24  O7  UNL     1      -1.827  -0.030   0.212  0.00  0.00    +0.000 OA
ATOM     25  C13 UNL     1      -2.785   0.266   1.214  0.00  0.00    +0.000 C 
ATOM     26  C15 UNL     1      -4.080  -0.551   0.971  0.00  0.00    +0.000 C 
ATOM     27  C16 UNL     1      -4.637  -0.259  -0.435  0.00  0.00    +0.000 C 
ATOM     28  C17 UNL     1      -3.514  -0.409  -1.483  0.00  0.00    +0.000 C 
BRANCH  26  29
ATOM     29  O9  UNL     1      -5.054  -0.279   1.950  0.00  0.00    +0.000 OA
ATOM     30  H14 UNL     1      -5.231   0.698   1.935  0.00  0.00    +0.000 HD
ENDBRANCH  26  29
BRANCH  27  31
ATOM     31  O10 UNL     1      -5.683  -1.154  -0.714  0.00  0.00    +0.000 OA
ATOM     32  H16 UNL     1      -6.203  -0.761  -1.464  0.00  0.00    +0.000 HD
ENDBRANCH  27  31
BRANCH  28  33
ATOM     33  O11 UNL     1      -3.961  -0.019  -2.758  0.00  0.00    +0.000 OA
ATOM     34  H18 UNL     1      -4.206   0.941  -2.709  0.00  0.00    +0.000 HD
ENDBRANCH  28  33
BRANCH  25  35
ATOM     35  C14 UNL     1      -2.174  -0.073   2.578  0.00  0.00    +0.000 C 
BRANCH  35  36
ATOM     36  O8  UNL     1      -1.003   0.674   2.767  0.00  0.00    +0.000 OA
ATOM     37  H12 UNL     1      -0.619   0.375   3.633  0.00  0.00    +0.000 HD
ENDBRANCH  35  36
ENDBRANCH  25  35
ENDBRANCH  22  23
ENDBRANCH  14  22
TORSDOF 9
