REMARK  Name = resultss/4CJN/ligands/lig_44_t0.pdb
REMARK  24 active torsions:
REMARK  status: ('A' for Active; 'I' for Inactive)
REMARK    1  A    between atoms: C1_1  and  C2_2
REMARK    2  A    between atoms: C2_2  and  C3_3
REMARK    3  A    between atoms: C3_3  and  C4_4
REMARK    4  A    between atoms: C4_4  and  C5_5
REMARK    5  A    between atoms: C5_5  and  C6_6
REMARK    6  A    between atoms: C6_6  and  C7_7
REMARK    7  A    between atoms: C7_7  and  C8_8
REMARK    8  A    between atoms: C8_8  and  C9_9
REMARK    9  A    between atoms: C9_9  and  C10_10
REMARK   10  A    between atoms: C10_10  and  C11_11
REMARK   11  A    between atoms: C11_11  and  C12_12
REMARK   12  A    between atoms: C12_12  and  C13_13
REMARK   13  A    between atoms: C13_13  and  C14_14
REMARK   14  A    between atoms: C14_14  and  C15_15
REMARK   15  A    between atoms: C15_15  and  C16_16
REMARK   16  A    between atoms: C16_16  and  C17_17
REMARK   17  A    between atoms: C17_17  and  C18_18
REMARK   18  A    between atoms: C18_18  and  N1_19
REMARK   19  A    between atoms: N1_19  and  C19_20
REMARK   20  A    between atoms: C21_22  and  C22_23
REMARK   21  A    between atoms: C22_23  and  O1_24
REMARK   22  A    between atoms: C23_25  and  O2_26
REMARK   23  A    between atoms: C24_27  and  O3_28
REMARK   24  A    between atoms: C25_29  and  O4_30
REMARK                            x       y       z     vdW  Elec       q    Type
REMARK                         _______ _______ _______ _____ _____    ______ ____
ROOT
ATOM      1  C18 UNL     1      -4.225   1.884  -0.860  0.00  0.00    +0.000 C 
ENDROOT
BRANCH   1   2
ATOM      2  N1  UNL     1      -5.092   1.585   0.297  0.00  0.00    +0.000 NA
ATOM      3  H38 UNL     1      -4.514   1.174   1.065  0.00  0.00    +0.000 HD
BRANCH   2   4
ATOM      4  C19 UNL     1      -6.236   0.707  -0.016  0.00  0.00    +0.000 C 
ATOM      5  C20 UNL     1      -7.284   1.446  -0.815  0.00  0.00    +0.000 C 
ATOM      6  C21 UNL     1      -8.503   0.900  -0.970  0.00  0.00    +0.000 C 
ATOM      7  C23 UNL     1      -8.764  -0.499  -0.440  0.00  0.00    +0.000 C 
ATOM      8  C24 UNL     1      -8.125  -0.728   0.967  0.00  0.00    +0.000 C 
ATOM      9  C25 UNL     1      -6.909   0.199   1.282  0.00  0.00    +0.000 C 
BRANCH   9  10
ATOM     10  O4  UNL     1      -7.330   1.297   2.058  0.00  0.00    +0.000 OA
ATOM     11  H49 UNL     1      -6.552   1.590   2.599  0.00  0.00    +0.000 HD
ENDBRANCH   9  10
BRANCH   8  12
ATOM     12  O3  UNL     1      -9.102  -0.578   1.969  0.00  0.00    +0.000 OA
ATOM     13  H47 UNL     1      -9.664  -1.396   1.952  0.00  0.00    +0.000 HD
ENDBRANCH   8  12
BRANCH   7  14
ATOM     14  O2  UNL     1      -8.233  -1.434  -1.344  0.00  0.00    +0.000 OA
ATOM     15  H45 UNL     1      -8.827  -1.436  -2.140  0.00  0.00    +0.000 HD
ENDBRANCH   7  14
BRANCH   6  16
ATOM     16  C22 UNL     1      -9.592   1.667  -1.680  0.00  0.00    +0.000 C 
BRANCH  16  17
ATOM     17  O1  UNL     1      -9.934   2.813  -0.950  0.00  0.00    +0.000 OA
ATOM     18  H43 UNL     1     -10.450   2.501  -0.161  0.00  0.00    +0.000 HD
ENDBRANCH  16  17
ENDBRANCH   6  16
ENDBRANCH   2   4
ENDBRANCH   1   2
BRANCH   1  19
ATOM     19  C17 UNL     1      -3.489   0.662  -1.458  0.00  0.00    +0.000 C 
BRANCH  19  20
ATOM     20  C16 UNL     1      -2.738  -0.225  -0.449  0.00  0.00    +0.000 C 
BRANCH  20  21
ATOM     21  C15 UNL     1      -1.603   0.524   0.270  0.00  0.00    +0.000 C 
BRANCH  21  22
ATOM     22  C14 UNL     1      -0.875  -0.349   1.308  0.00  0.00    +0.000 C 
BRANCH  22  23
ATOM     23  C13 UNL     1      -0.161  -1.590   0.736  0.00  0.00    +0.000 C 
BRANCH  23  24
ATOM     24  C12 UNL     1       0.862  -1.299  -0.380  0.00  0.00    +0.000 C 
BRANCH  24  25
ATOM     25  C11 UNL     1       1.991  -0.326   0.013  0.00  0.00    +0.000 C 
BRANCH  25  26
ATOM     26  C10 UNL     1       2.843  -0.772   1.218  0.00  0.00    +0.000 C 
BRANCH  26  27
ATOM     27  C9  UNL     1       3.534  -2.140   1.054  0.00  0.00    +0.000 C 
BRANCH  27  28
ATOM     28  C8  UNL     1       4.453  -2.265  -0.178  0.00  0.00    +0.000 C 
BRANCH  28  29
ATOM     29  C7  UNL     1       5.576  -1.216  -0.265  0.00  0.00    +0.000 C 
BRANCH  29  30
ATOM     30  C6  UNL     1       6.582  -1.319   0.894  0.00  0.00    +0.000 C 
BRANCH  30  31
ATOM     31  C5  UNL     1       7.723  -0.297   0.778  0.00  0.00    +0.000 C 
BRANCH  31  32
ATOM     32  C4  UNL     1       8.706  -0.629  -0.359  0.00  0.00    +0.000 C 
BRANCH  32  33
ATOM     33  C3  UNL     1       9.985   0.220  -0.301  0.00  0.00    +0.000 C 
BRANCH  33  35
ATOM     34  C1  UNL     1      11.036   2.482  -0.692  0.00  0.00    +0.000 C 
ATOM     35  C2  UNL     1       9.728   1.697  -0.632  0.00  0.00    +0.000 C 
ENDBRANCH  33  35
ENDBRANCH  32  33
ENDBRANCH  31  32
ENDBRANCH  30  31
ENDBRANCH  29  30
ENDBRANCH  28  29
ENDBRANCH  27  28
ENDBRANCH  26  27
ENDBRANCH  25  26
ENDBRANCH  24  25
ENDBRANCH  23  24
ENDBRANCH  22  23
ENDBRANCH  21  22
ENDBRANCH  20  21
ENDBRANCH  19  20
ENDBRANCH   1  19
TORSDOF 23
