REMARK  Name = resultss/4CJN/ligands/lig_400_t0.pdb
REMARK  10 active torsions:
REMARK  status: ('A' for Active; 'I' for Inactive)
REMARK    1  A    between atoms: C1_1  and  O1_2
REMARK    2  A    between atoms: O1_2  and  C2_3
REMARK    3  A    between atoms: C4_5  and  C5_6
REMARK    4  A    between atoms: C14_17  and  O2_18
REMARK    5  A    between atoms: O2_18  and  C15_19
REMARK    6  A    between atoms: C15_19  and  C16_20
REMARK    7  A    between atoms: N3_22  and  C18_23
REMARK    8  A    between atoms: C18_23  and  C19_24
REMARK    9  A    between atoms: N4_26  and  C20_27
REMARK   10  A    between atoms: C22_30  and  C23_31
REMARK                            x       y       z     vdW  Elec       q    Type
REMARK                         _______ _______ _______ _____ _____    ______ ____
ROOT
ATOM      1  C16 UNL     1      -0.580  -0.669  -1.219  0.00  0.00    +0.000 A 
ATOM      2  C17 UNL     1      -1.390  -1.287  -0.291  0.00  0.00    +0.000 A 
ATOM      3  N3  UNL     1      -2.321  -1.948  -0.999  0.00  0.00    +0.000 N 
ATOM      4  N6  UNL     1      -2.095  -1.746  -2.289  0.00  0.00    +0.000 NA
ATOM      5  N7  UNL     1      -1.028  -0.977  -2.454  0.00  0.00    +0.000 NA
ENDROOT
BRANCH   1   6
ATOM      6  C15 UNL     1       0.671   0.094  -0.943  0.00  0.00    +0.000 C 
BRANCH   6   7
ATOM      7  O2  UNL     1       1.760  -0.821  -0.859  0.00  0.00    +0.000 OA
BRANCH   7  13
ATOM      8  C2  UNL     1       4.073  -1.463  -0.647  0.00  0.00    +0.000 A 
ATOM      9  C3  UNL     1       5.430  -1.125  -0.474  0.00  0.00    +0.000 A 
ATOM     10  C4  UNL     1       5.822   0.217  -0.320  0.00  0.00    +0.000 A 
ATOM     11  C12 UNL     1       4.838   1.219  -0.343  0.00  0.00    +0.000 A 
ATOM     12  C13 UNL     1       3.492   0.890  -0.511  0.00  0.00    +0.000 A 
ATOM     13  C14 UNL     1       3.101  -0.451  -0.669  0.00  0.00    +0.000 A 
BRANCH  10  14
ATOM     14  C5  UNL     1       7.251   0.590  -0.155  0.00  0.00    +0.000 A 
ATOM     15  N1  UNL     1       7.691   1.874  -0.268  0.00  0.00    +0.000 NA
ATOM     16  C6  UNL     1       9.015   1.762  -0.063  0.00  0.00    +0.000 A 
ATOM     17  C7  UNL     1       9.969   2.777  -0.073  0.00  0.00    +0.000 A 
ATOM     18  C8  UNL     1      11.310   2.416   0.165  0.00  0.00    +0.000 A 
ATOM     19  C9  UNL     1      11.656   1.065   0.404  0.00  0.00    +0.000 A 
ATOM     20  C10 UNL     1      10.664   0.066   0.407  0.00  0.00    +0.000 A 
ATOM     21  C11 UNL     1       9.350   0.462   0.167  0.00  0.00    +0.000 A 
ATOM     22  N2  UNL     1       8.248  -0.296   0.115  0.00  0.00    +0.000 N 
ATOM     23  H9  UNL     1       8.191  -1.327   0.267  0.00  0.00    +0.000 HD
ENDBRANCH  10  14
BRANCH   8  25
ATOM     24  C1  UNL     1       4.519  -3.922  -0.825  0.00  0.00    +0.000 C 
ATOM     25  O1  UNL     1       3.650  -2.793  -0.808  0.00  0.00    +0.000 OA
ENDBRANCH   8  25
ENDBRANCH   7  13
ENDBRANCH   6   7
ENDBRANCH   1   6
BRANCH   3  26
ATOM     26  C18 UNL     1      -3.428  -2.734  -0.470  0.00  0.00    +0.000 C 
BRANCH  26  27
ATOM     27  C19 UNL     1      -4.659  -1.886  -0.377  0.00  0.00    +0.000 C 
ATOM     28  O3  UNL     1      -5.317  -1.645  -1.426  0.00  0.00    +0.000 OA
ATOM     29  N4  UNL     1      -5.053  -1.327   0.887  0.00  0.00    +0.000 N 
ATOM     30  H17 UNL     1      -4.408  -1.450   1.700  0.00  0.00    +0.000 HD
BRANCH  29  31
ATOM     31  C20 UNL     1      -6.289  -0.633   1.125  0.00  0.00    +0.000 A 
ATOM     32  C21 UNL     1      -6.704  -0.167   2.366  0.00  0.00    +0.000 A 
ATOM     33  N5  UNL     1      -7.926   0.431   2.369  0.00  0.00    +0.000 NA
ATOM     34  C22 UNL     1      -8.492   0.454   1.138  0.00  0.00    +0.000 A 
ATOM     35  S1  UNL     1      -7.489  -0.283  -0.005  0.00  0.00    +0.000 S 
BRANCH  34  36
ATOM     36  C23 UNL     1      -9.825   1.040   0.865  0.00  0.00    +0.000 A 
ATOM     37  C24 UNL     1     -10.660   1.420   1.933  0.00  0.00    +0.000 A 
ATOM     38  C25 UNL     1     -11.923   1.969   1.684  0.00  0.00    +0.000 A 
ATOM     39  C26 UNL     1     -12.360   2.155   0.370  0.00  0.00    +0.000 A 
ATOM     40  C27 UNL     1     -11.539   1.785  -0.699  0.00  0.00    +0.000 A 
ATOM     41  C28 UNL     1     -10.278   1.227  -0.457  0.00  0.00    +0.000 A 
ENDBRANCH  34  36
ENDBRANCH  29  31
ENDBRANCH  26  27
ENDBRANCH   3  26
TORSDOF 9
