REMARK  Name = resultss/4CJN/ligands/lig_209_t0.pdb
REMARK  15 active torsions:
REMARK  status: ('A' for Active; 'I' for Inactive)
REMARK    1  A    between atoms: C1_1  and  C2_2
REMARK    2  A    between atoms: C2_2  and  C3_3
REMARK    3  A    between atoms: C3_3  and  C4_4
REMARK    4  A    between atoms: C4_4  and  O1_5
REMARK    5  A    between atoms: C4_4  and  C5_6
REMARK    6  A    between atoms: C5_6  and  O2_7
REMARK    7  A    between atoms: C5_6  and  C6_12
REMARK    8  A    between atoms: O2_7  and  S1_8
REMARK    9  A    between atoms: C6_12  and  O6_13
REMARK   10  A    between atoms: C6_12  and  C7_14
REMARK   11  A    between atoms: C7_14  and  S2_15
REMARK   12  A    between atoms: C9_17  and  O7_18
REMARK   13  A    between atoms: C10_19  and  O8_20
REMARK   14  A    between atoms: C11_21  and  C12_22
REMARK   15  A    between atoms: C12_22  and  O9_23
REMARK                            x       y       z     vdW  Elec       q    Type
REMARK                         _______ _______ _______ _____ _____    ______ ____
ROOT
ATOM      1  C6  UNL     1      -0.302  -0.283   1.430  0.00  0.00    +0.000 C 
ENDROOT
BRANCH   1   2
ATOM      2  O6  UNL     1      -0.618  -0.160   2.795  0.00  0.00    +0.000 OA
ATOM      3  H12 UNL     1      -0.103  -0.859   3.277  0.00  0.00    +0.000 HD
ENDBRANCH   1   2
BRANCH   1   4
ATOM      4  C5  UNL     1      -1.453   0.333   0.586  0.00  0.00    +0.000 C 
BRANCH   4   5
ATOM      5  C4  UNL     1      -2.795  -0.381   0.904  0.00  0.00    +0.000 C 
BRANCH   5   6
ATOM      6  O1  UNL     1      -2.727  -1.730   0.510  0.00  0.00    +0.000 OA
ATOM      7  H9  UNL     1      -2.494  -2.262   1.316  0.00  0.00    +0.000 HD
ENDBRANCH   5   6
BRANCH   5   8
ATOM      8  C3  UNL     1      -3.979   0.293   0.186  0.00  0.00    +0.000 C 
BRANCH   8  10
ATOM      9  C1  UNL     1      -5.787   0.056   1.978  0.00  0.00    +0.000 C 
ATOM     10  C2  UNL     1      -5.344  -0.311   0.562  0.00  0.00    +0.000 C 
ENDBRANCH   8  10
ENDBRANCH   5   8
ENDBRANCH   4   5
BRANCH   4  11
ATOM     11  O2  UNL     1      -1.165   0.178  -0.793  0.00  0.00    +0.000 OA
BRANCH  11  12
ATOM     12  S1  UNL     1      -1.109   1.685  -1.582  0.00  0.00    +0.000 S 
ATOM     13  O3  UNL     1      -2.495   2.240  -1.747  0.00  0.00    +0.000 OA
ATOM     14  O4  UNL     1      -0.499   1.491  -2.941  0.00  0.00    +0.000 OA
ATOM     15  O5  UNL     1      -0.170   2.786  -0.728  0.00  0.00    +0.000 OA
ENDBRANCH  11  12
ENDBRANCH   4  11
ENDBRANCH   1   4
BRANCH   1  16
ATOM     16  C7  UNL     1       1.059   0.399   1.183  0.00  0.00    +0.000 C 
BRANCH  16  17
ATOM     17  S2  UNL     1       1.813  -0.140  -0.347  0.00  0.00    +0.000 S 
ATOM     18  C8  UNL     1       2.487  -1.767  -0.179  0.00  0.00    +0.000 C 
ATOM     19  C9  UNL     1       4.001  -1.574  -0.057  0.00  0.00    +0.000 C 
ATOM     20  C10 UNL     1       4.387  -0.339  -0.892  0.00  0.00    +0.000 C 
ATOM     21  C11 UNL     1       3.326   0.741  -0.632  0.00  0.00    +0.000 C 
BRANCH  19  22
ATOM     22  O7  UNL     1       4.685  -2.707  -0.522  0.00  0.00    +0.000 OA
ATOM     23  H18 UNL     1       4.562  -3.413   0.165  0.00  0.00    +0.000 HD
ENDBRANCH  19  22
BRANCH  20  24
ATOM     24  O8  UNL     1       5.655   0.134  -0.521  0.00  0.00    +0.000 OA
ATOM     25  H20 UNL     1       6.318  -0.493  -0.911  0.00  0.00    +0.000 HD
ENDBRANCH  20  24
BRANCH  21  26
ATOM     26  C12 UNL     1       3.187   1.740  -1.787  0.00  0.00    +0.000 C 
BRANCH  26  27
ATOM     27  O9  UNL     1       2.753   1.097  -2.955  0.00  0.00    +0.000 OA
ATOM     28  H24 UNL     1       2.671   1.805  -3.645  0.00  0.00    +0.000 HD
ENDBRANCH  26  27
ENDBRANCH  21  26
ENDBRANCH  16  17
ENDBRANCH   1  16
TORSDOF 14
