REMARK  Name = resultss/4CJN/ligands/lig_185_t2.pdb
REMARK  4 active torsions:
REMARK  status: ('A' for Active; 'I' for Inactive)
REMARK    1  A    between atoms: C1_2  and  C9_14
REMARK    2  A    between atoms: N1_3  and  N2_4
REMARK    3  A    between atoms: C2_5  and  C3_6
REMARK    4  A    between atoms: C12_17  and  C13_18
REMARK                            x       y       z     vdW  Elec       q    Type
REMARK                         _______ _______ _______ _____ _____    ______ ____
ROOT
ATOM      1  C9  UNL     1      -0.208   0.476   0.450  0.00  0.00    +0.000 A 
ATOM      2  C10 UNL     1      -1.058   0.154   1.522  0.00  0.00    +0.000 A 
ATOM      3  C11 UNL     1      -2.437   0.034   1.325  0.00  0.00    +0.000 A 
ATOM      4  C12 UNL     1      -2.997   0.227   0.051  0.00  0.00    +0.000 A 
ATOM      5  C20 UNL     1      -2.145   0.539  -1.023  0.00  0.00    +0.000 A 
ATOM      6  C21 UNL     1      -0.767   0.660  -0.826  0.00  0.00    +0.000 A 
ENDROOT
BRANCH   4   7
ATOM      7  C13 UNL     1      -4.459   0.097  -0.147  0.00  0.00    +0.000 A 
ATOM      8  N3  UNL     1      -5.320  -0.206   0.859  0.00  0.00    +0.000 NA
ATOM      9  C14 UNL     1      -6.602  -0.265   0.415  0.00  0.00    +0.000 A 
ATOM     10  C15 UNL     1      -7.704  -0.555   1.221  0.00  0.00    +0.000 A 
ATOM     11  C16 UNL     1      -8.981  -0.584   0.633  0.00  0.00    +0.000 A 
ATOM     12  C17 UNL     1      -9.140  -0.324  -0.743  0.00  0.00    +0.000 A 
ATOM     13  C18 UNL     1      -8.024  -0.033  -1.543  0.00  0.00    +0.000 A 
ATOM     14  C19 UNL     1      -6.771  -0.010  -0.936  0.00  0.00    +0.000 A 
ATOM     15  S1  UNL     1      -5.275   0.302  -1.624  0.00  0.00    +0.000 S 
ENDBRANCH   4   7
BRANCH   1  17
ATOM     16  O1  UNL     1       1.769   0.116   1.715  0.00  0.00    +0.000 OA
ATOM     17  C1  UNL     1       1.255   0.596   0.667  0.00  0.00    +0.000 C 
ATOM     18  N1  UNL     1       2.086   1.294  -0.276  0.00  0.00    +0.000 N 
ATOM     19  H1  UNL     1       1.662   2.068  -0.834  0.00  0.00    +0.000 HD
BRANCH  18  20
ATOM     20  N2  UNL     1       3.485   1.145  -0.332  0.00  0.00    +0.000 NA
ATOM     21  C2  UNL     1       4.101   0.031  -0.067  0.00  0.00    +0.000 C 
BRANCH  21  22
ATOM     22  C3  UNL     1       5.578  -0.063  -0.124  0.00  0.00    +0.000 C 
ATOM     23  C4  UNL     1       6.331   1.000  -0.462  0.00  0.00    +0.000 C 
ATOM     24  C5  UNL     1       7.804   0.925  -0.461  0.00  0.00    +0.000 C 
ATOM     25  O2  UNL     1       8.480   1.902  -0.877  0.00  0.00    +0.000 OA
ATOM     26  C6  UNL     1       8.498  -0.275   0.118  0.00  0.00    +0.000 C 
ATOM     27  C7  UNL     1       7.695  -1.554  -0.143  0.00  0.00    +0.000 C 
ATOM     28  C8  UNL     1       6.240  -1.357   0.181  0.00  0.00    +0.000 C 
ATOM     29  O3  UNL     1       5.576  -2.319   0.652  0.00  0.00    +0.000 OA
ENDBRANCH  21  22
ENDBRANCH  18  20
ENDBRANCH   1  17
TORSDOF 4
