REMARK  Name = resultss/4CJN/ligands/lig_425_t0.pdb
REMARK  8 active torsions:
REMARK  status: ('A' for Active; 'I' for Inactive)
REMARK    1  A    between atoms: C1_1  and  O1_2
REMARK    2  A    between atoms: O1_2  and  C2_3
REMARK    3  A    between atoms: C6_7  and  N1_8
REMARK    4  A    between atoms: N1_8  and  C7_9
REMARK    5  A    between atoms: C7_9  and  N2_11
REMARK    6  A    between atoms: N2_11  and  N3_12
REMARK    7  A    between atoms: C8_13  and  C9_15
REMARK    8  A    between atoms: C19_26  and  C20_27
REMARK                            x       y       z     vdW  Elec       q    Type
REMARK                         _______ _______ _______ _____ _____    ______ ____
ROOT
ATOM      1  C9  UNL     1      -1.385   0.212  -0.767  0.00  0.00    +0.000 A 
ATOM      2  C10 UNL     1      -1.967   1.488  -0.927  0.00  0.00    +0.000 A 
ATOM      3  C11 UNL     1      -3.303   1.627  -0.569  0.00  0.00    +0.000 A 
ATOM      4  C12 UNL     1      -4.041   0.576  -0.070  0.00  0.00    +0.000 A 
ATOM      5  N4  UNL     1      -5.329   0.937   0.144  0.00  0.00    +0.000 N 
ATOM      6  C13 UNL     1      -5.386   2.239  -0.211  0.00  0.00    +0.000 A 
ATOM      7  C14 UNL     1      -6.505   3.070  -0.184  0.00  0.00    +0.000 A 
ATOM      8  C15 UNL     1      -6.349   4.400  -0.617  0.00  0.00    +0.000 A 
ATOM      9  C16 UNL     1      -5.093   4.865  -1.069  0.00  0.00    +0.000 A 
ATOM     10  C17 UNL     1      -3.979   4.007  -1.093  0.00  0.00    +0.000 A 
ATOM     11  C18 UNL     1      -4.163   2.698  -0.652  0.00  0.00    +0.000 A 
ATOM     12  C19 UNL     1      -3.447  -0.682   0.101  0.00  0.00    +0.000 A 
ATOM     13  N5  UNL     1      -2.137  -0.820  -0.264  0.00  0.00    +0.000 NA
ATOM     14  H11 UNL     1      -6.122   0.343   0.473  0.00  0.00    +0.000 HD
ENDROOT
BRANCH  12  15
ATOM     15  C20 UNL     1      -4.173  -1.847   0.649  0.00  0.00    +0.000 A 
ATOM     16  C21 UNL     1      -4.032  -3.106   0.042  0.00  0.00    +0.000 A 
ATOM     17  C22 UNL     1      -4.693  -4.221   0.566  0.00  0.00    +0.000 A 
ATOM     18  C23 UNL     1      -5.488  -4.092   1.708  0.00  0.00    +0.000 A 
ATOM     19  C24 UNL     1      -5.616  -2.848   2.332  0.00  0.00    +0.000 A 
ATOM     20  C25 UNL     1      -4.957  -1.730   1.811  0.00  0.00    +0.000 A 
ENDBRANCH  12  15
BRANCH   1  22
ATOM     21  N3  UNL     1       0.595  -1.341  -1.017  0.00  0.00    +0.000 N 
ATOM     22  C8  UNL     1       0.028  -0.027  -1.129  0.00  0.00    +0.000 C 
ATOM     23  O2  UNL     1       0.738   0.925  -1.554  0.00  0.00    +0.000 OA
ATOM     24  H9  UNL     1      -0.046  -2.165  -0.990  0.00  0.00    +0.000 HD
BRANCH  21  25
ATOM     25  N2  UNL     1       1.965  -1.577  -1.229  0.00  0.00    +0.000 N 
ATOM     26  H8  UNL     1       2.242  -2.382  -1.834  0.00  0.00    +0.000 HD
BRANCH  25  27
ATOM     27  C7  UNL     1       2.999  -0.892  -0.505  0.00  0.00    +0.000 C 
ATOM     28  S1  UNL     1       2.636  -0.016   0.841  0.00  0.00    +0.000 S 
BRANCH  27  29
ATOM     29  N1  UNL     1       4.345  -0.947  -1.005  0.00  0.00    +0.000 N 
ATOM     30  H7  UNL     1       4.470  -1.119  -2.028  0.00  0.00    +0.000 HD
BRANCH  29  35
ATOM     31  C2  UNL     1       7.799   0.132  -0.043  0.00  0.00    +0.000 A 
ATOM     32  C3  UNL     1       7.875  -0.354   1.276  0.00  0.00    +0.000 A 
ATOM     33  C4  UNL     1       6.793  -1.036   1.837  0.00  0.00    +0.000 A 
ATOM     34  C5  UNL     1       5.625  -1.232   1.096  0.00  0.00    +0.000 A 
ATOM     35  C6  UNL     1       5.525  -0.730  -0.212  0.00  0.00    +0.000 A 
ATOM     36  C26 UNL     1       6.624  -0.069  -0.779  0.00  0.00    +0.000 A 
BRANCH  31  38
ATOM     37  C1  UNL     1      10.109   1.089  -0.029  0.00  0.00    +0.000 C 
ATOM     38  O1  UNL     1       8.860   0.814  -0.656  0.00  0.00    +0.000 OA
ENDBRANCH  31  38
ENDBRANCH  29  35
ENDBRANCH  27  29
ENDBRANCH  25  27
ENDBRANCH  21  25
ENDBRANCH   1  22
TORSDOF 7
