REMARK  Name = resultss/4CJN/ligands/lig_106_t0.pdb
REMARK  13 active torsions:
REMARK  status: ('A' for Active; 'I' for Inactive)
REMARK    1  A    between atoms: O1_1  and  C1_2
REMARK    2  A    between atoms: C1_2  and  C2_3
REMARK    3  A    between atoms: C3_4  and  O2_5
REMARK    4  A    between atoms: C4_6  and  O3_7
REMARK    5  A    between atoms: C5_8  and  O4_9
REMARK    6  A    between atoms: N1_11  and  C7_12
REMARK    7  A    between atoms: C7_12  and  C8_13
REMARK    8  A    between atoms: C8_13  and  C9_14
REMARK    9  A    between atoms: C9_14  and  C10_15
REMARK   10  A    between atoms: C10_15  and  C11_16
REMARK   11  A    between atoms: C11_16  and  O5_17
REMARK   12  A    between atoms: O5_17  and  C12_18
REMARK   13  A    between atoms: C12_18  and  C13_19
REMARK                            x       y       z     vdW  Elec       q    Type
REMARK                         _______ _______ _______ _____ _____    ______ ____
ROOT
ATOM      1  C7  UNL     1       2.972  -1.692  -0.389  0.00  0.00    +0.000 C 
ENDROOT
BRANCH   1   7
ATOM      2  C2  UNL     1       4.720  -0.811   1.134  0.00  0.00    +0.000 C 
ATOM      3  C3  UNL     1       5.851   0.249   1.311  0.00  0.00    +0.000 C 
ATOM      4  C4  UNL     1       6.765   0.321   0.078  0.00  0.00    +0.000 C 
ATOM      5  C5  UNL     1       5.918   0.556  -1.177  0.00  0.00    +0.000 C 
ATOM      6  C6  UNL     1       4.901  -0.581  -1.310  0.00  0.00    +0.000 C 
ATOM      7  N1  UNL     1       3.974  -0.616  -0.152  0.00  0.00    +0.000 NA
BRANCH   3   8
ATOM      8  O2  UNL     1       6.627  -0.078   2.438  0.00  0.00    +0.000 OA
ATOM      9  H6  UNL     1       7.110   0.747   2.706  0.00  0.00    +0.000 HD
ENDBRANCH   3   8
BRANCH   4  10
ATOM     10  O3  UNL     1       7.735   1.331   0.221  0.00  0.00    +0.000 OA
ATOM     11  H8  UNL     1       7.259   2.197   0.327  0.00  0.00    +0.000 HD
ENDBRANCH   4  10
BRANCH   5  12
ATOM     12  O4  UNL     1       6.733   0.643  -2.321  0.00  0.00    +0.000 OA
ATOM     13  H10 UNL     1       7.171  -0.238  -2.450  0.00  0.00    +0.000 HD
ENDBRANCH   5  12
BRANCH   2  14
ATOM     14  C1  UNL     1       3.781  -0.703   2.370  0.00  0.00    +0.000 C 
BRANCH  14  15
ATOM     15  O1  UNL     1       3.010   0.471   2.311  0.00  0.00    +0.000 OA
ATOM     16  H1  UNL     1       2.164   0.236   1.849  0.00  0.00    +0.000 HD
ENDBRANCH  14  15
ENDBRANCH   2  14
ENDBRANCH   1   7
BRANCH   1  17
ATOM     17  C8  UNL     1       1.828  -1.197  -1.288  0.00  0.00    +0.000 C 
BRANCH  17  18
ATOM     18  C9  UNL     1       0.683  -2.222  -1.331  0.00  0.00    +0.000 C 
BRANCH  18  19
ATOM     19  C10 UNL     1      -0.410  -1.860  -2.349  0.00  0.00    +0.000 C 
BRANCH  19  20
ATOM     20  C11 UNL     1      -1.132  -0.535  -2.045  0.00  0.00    +0.000 C 
BRANCH  20  21
ATOM     21  O5  UNL     1      -1.494  -0.429  -0.680  0.00  0.00    +0.000 OA
BRANCH  21  22
ATOM     22  C12 UNL     1      -2.682  -1.147  -0.385  0.00  0.00    +0.000 C 
BRANCH  22  23
ATOM     23  C13 UNL     1      -3.804  -0.187   0.076  0.00  0.00    +0.000 C 
ATOM     24  C14 UNL     1      -3.313   0.711   1.247  0.00  0.00    +0.000 C 
ATOM     25  C15 UNL     1      -4.449   1.653   1.705  0.00  0.00    +0.000 C 
ATOM     26  C16 UNL     1      -4.885   2.547   0.523  0.00  0.00    +0.000 C 
ATOM     27  C17 UNL     1      -5.394   1.662  -0.636  0.00  0.00    +0.000 C 
ATOM     28  C18 UNL     1      -6.595   0.820  -0.154  0.00  0.00    +0.000 C 
ATOM     29  C19 UNL     1      -6.158  -0.075   1.027  0.00  0.00    +0.000 C 
ATOM     30  C20 UNL     1      -5.651   0.812   2.186  0.00  0.00    +0.000 C 
ATOM     31  C21 UNL     1      -5.025  -1.017   0.567  0.00  0.00    +0.000 C 
ATOM     32  C22 UNL     1      -4.259   0.722  -1.100  0.00  0.00    +0.000 C 
ENDBRANCH  22  23
ENDBRANCH  21  22
ENDBRANCH  20  21
ENDBRANCH  19  20
ENDBRANCH  18  19
ENDBRANCH  17  18
ENDBRANCH   1  17
TORSDOF 13
