REMARK  Name = resultss/4CJN/ligands/lig_169_t1.pdb
REMARK  7 active torsions:
REMARK  status: ('A' for Active; 'I' for Inactive)
REMARK    1  A    between atoms: O1_1  and  C1_2
REMARK    2  A    between atoms: C1_2  and  C9_14
REMARK    3  A    between atoms: N1_3  and  N2_4
REMARK    4  A    between atoms: C2_5  and  C3_6
REMARK    5  A    between atoms: C6_9  and  O2_10
REMARK    6  A    between atoms: C7_11  and  O3_12
REMARK    7  A    between atoms: C12_17  and  C13_18
REMARK                            x       y       z     vdW  Elec       q    Type
REMARK                         _______ _______ _______ _____ _____    ______ ____
ROOT
ATOM      1  C1  UNL     1       1.677  -0.064   1.449  0.00  0.00    +0.000 C 
ATOM      2  N1  UNL     1       2.599   0.024   0.536  0.00  0.00    +0.000 NA
ENDROOT
BRANCH   1   3
ATOM      3  C9  UNL     1       0.231   0.010   1.135  0.00  0.00    +0.000 A 
ATOM      4  C10 UNL     1      -0.656  -0.883   1.752  0.00  0.00    +0.000 A 
ATOM      5  C11 UNL     1      -2.027  -0.816   1.490  0.00  0.00    +0.000 A 
ATOM      6  C12 UNL     1      -2.541   0.157   0.615  0.00  0.00    +0.000 A 
ATOM      7  C20 UNL     1      -1.652   1.068   0.016  0.00  0.00    +0.000 A 
ATOM      8  C21 UNL     1      -0.281   0.999   0.279  0.00  0.00    +0.000 A 
BRANCH   6   9
ATOM      9  C13 UNL     1      -3.996   0.220   0.343  0.00  0.00    +0.000 A 
ATOM     10  N3  UNL     1      -4.893  -0.633   0.903  0.00  0.00    +0.000 NA
ATOM     11  C14 UNL     1      -6.158  -0.364   0.490  0.00  0.00    +0.000 A 
ATOM     12  C15 UNL     1      -7.288  -1.074   0.898  0.00  0.00    +0.000 A 
ATOM     13  C16 UNL     1      -8.544  -0.692   0.393  0.00  0.00    +0.000 A 
ATOM     14  C17 UNL     1      -8.653   0.387  -0.507  0.00  0.00    +0.000 A 
ATOM     15  C18 UNL     1      -7.509   1.094  -0.910  0.00  0.00    +0.000 A 
ATOM     16  C19 UNL     1      -6.278   0.694  -0.395  0.00  0.00    +0.000 A 
ATOM     17  S1  UNL     1      -4.758   1.336  -0.687  0.00  0.00    +0.000 S 
ENDBRANCH   6   9
ENDBRANCH   1   3
BRANCH   1  18
ATOM     18  O1  UNL     1       2.059  -0.262   2.774  0.00  0.00    +0.000 OA
ATOM     19  H1  UNL     1       3.036  -0.330   3.033  0.00  0.00    +0.000 HD
ENDBRANCH   1  18
BRANCH   2  20
ATOM     20  N2  UNL     1       2.314   0.148  -0.833  0.00  0.00    +0.000 NA
ATOM     21  C2  UNL     1       3.235   0.235  -1.745  0.00  0.00    +0.000 C 
BRANCH  21  22
ATOM     22  C3  UNL     1       4.686   0.192  -1.453  0.00  0.00    +0.000 A 
ATOM     23  C4  UNL     1       5.545   1.048  -2.156  0.00  0.00    +0.000 A 
ATOM     24  C5  UNL     1       6.923   1.017  -1.922  0.00  0.00    +0.000 A 
ATOM     25  C6  UNL     1       7.462   0.117  -0.998  0.00  0.00    +0.000 A 
ATOM     26  C7  UNL     1       6.615  -0.766  -0.309  0.00  0.00    +0.000 A 
ATOM     27  C8  UNL     1       5.232  -0.732  -0.544  0.00  0.00    +0.000 A 
BRANCH  25  28
ATOM     28  O2  UNL     1       8.840   0.111  -0.783  0.00  0.00    +0.000 OA
ATOM     29  H5  UNL     1       9.279  -0.522  -0.125  0.00  0.00    +0.000 HD
ENDBRANCH  25  28
BRANCH  26  30
ATOM     30  O3  UNL     1       7.148  -1.678   0.601  0.00  0.00    +0.000 OA
ATOM     31  H6  UNL     1       6.558  -2.326   1.111  0.00  0.00    +0.000 HD
ENDBRANCH  26  30
ENDBRANCH  21  22
ENDBRANCH   2  20
TORSDOF 7
