REMARK  Name = resultss/4CJN/ligands/lig_53_t0.pdb
REMARK  11 active torsions:
REMARK  status: ('A' for Active; 'I' for Inactive)
REMARK    1  A    between atoms: O1_1  and  C1_2
REMARK    2  A    between atoms: C1_2  and  C2_3
REMARK    3  A    between atoms: C2_3  and  N1_4
REMARK    4  A    between atoms: C2_3  and  C10_17
REMARK    5  A    between atoms: N1_4  and  C3_5
REMARK    6  A    between atoms: C5_7  and  O2_8
REMARK    7  A    between atoms: C5_7  and  C6_9
REMARK    8  A    between atoms: C6_9  and  O3_10
REMARK    9  A    between atoms: C7_11  and  O4_12
REMARK   10  A    between atoms: C8_13  and  O5_14
REMARK   11  A    between atoms: C9_15  and  O6_16
REMARK                            x       y       z     vdW  Elec       q    Type
REMARK                         _______ _______ _______ _____ _____    ______ ____
ROOT
ATOM      1  C3  UNL     1      -0.373   0.196   0.614  0.00  0.00    +0.000 C 
ATOM      2  C4  UNL     1      -1.518  -0.827   0.793  0.00  0.00    +0.000 C 
ATOM      3  C5  UNL     1      -2.710  -0.573  -0.191  0.00  0.00    +0.000 C 
ATOM      4  C7  UNL     1      -2.808   0.943  -0.581  0.00  0.00    +0.000 C 
ATOM      5  C8  UNL     1      -2.361   1.864   0.581  0.00  0.00    +0.000 C 
ATOM      6  C9  UNL     1      -0.863   1.637   0.940  0.00  0.00    +0.000 C 
ENDROOT
BRANCH   1   7
ATOM      7  N1  UNL     1       0.805  -0.141   1.445  0.00  0.00    +0.000 NA
ATOM      8  H5  UNL     1       0.482  -0.581   2.339  0.00  0.00    +0.000 HD
BRANCH   7   9
ATOM      9  C2  UNL     1       1.749  -1.047   0.759  0.00  0.00    +0.000 C 
BRANCH   9  10
ATOM     10  C10 UNL     1       2.489  -0.324  -0.352  0.00  0.00    +0.000 A 
ATOM     11  C11 UNL     1       2.953   0.994  -0.177  0.00  0.00    +0.000 A 
ATOM     12  C12 UNL     1       3.644   1.642  -1.205  0.00  0.00    +0.000 A 
ATOM     13  C13 UNL     1       3.887   0.980  -2.411  0.00  0.00    +0.000 A 
ATOM     14  C14 UNL     1       3.443  -0.332  -2.590  0.00  0.00    +0.000 A 
ATOM     15  C15 UNL     1       2.751  -0.984  -1.565  0.00  0.00    +0.000 A 
ENDBRANCH   9  10
BRANCH   9  16
ATOM     16  C1  UNL     1       2.757  -1.644   1.760  0.00  0.00    +0.000 C 
BRANCH  16  17
ATOM     17  O1  UNL     1       3.507  -0.641   2.393  0.00  0.00    +0.000 OA
ATOM     18  H1  UNL     1       2.944  -0.281   3.127  0.00  0.00    +0.000 HD
ENDBRANCH  16  17
ENDBRANCH   9  16
ENDBRANCH   7   9
ENDBRANCH   1   7
BRANCH   3  19
ATOM     19  O2  UNL     1      -3.917  -0.951   0.436  0.00  0.00    +0.000 OA
ATOM     20  H9  UNL     1      -3.812  -1.873   0.790  0.00  0.00    +0.000 HD
ENDBRANCH   3  19
BRANCH   4  21
ATOM     21  O4  UNL     1      -4.102   1.272  -1.030  0.00  0.00    +0.000 OA
ATOM     22  H14 UNL     1      -4.699   1.316  -0.239  0.00  0.00    +0.000 HD
ENDBRANCH   4  21
BRANCH   5  23
ATOM     23  O5  UNL     1      -2.596   3.217   0.276  0.00  0.00    +0.000 OA
ATOM     24  H16 UNL     1      -2.112   3.424  -0.565  0.00  0.00    +0.000 HD
ENDBRANCH   5  23
BRANCH   6  25
ATOM     25  O6  UNL     1      -0.632   1.978   2.286  0.00  0.00    +0.000 OA
ATOM     26  H18 UNL     1      -1.134   1.334   2.850  0.00  0.00    +0.000 HD
ENDBRANCH   6  25
BRANCH   3  27
ATOM     27  C6  UNL     1      -2.532  -1.402  -1.492  0.00  0.00    +0.000 C 
BRANCH  27  28
ATOM     28  O3  UNL     1      -2.524  -2.782  -1.228  0.00  0.00    +0.000 OA
ATOM     29  H12 UNL     1      -3.466  -3.091  -1.277  0.00  0.00    +0.000 HD
ENDBRANCH  27  28
ENDBRANCH   3  27
TORSDOF 11
