REMARK  Name = resultss/4CJN/ligands/lig_268_t2.pdb
REMARK  6 active torsions:
REMARK  status: ('A' for Active; 'I' for Inactive)
REMARK    1  A    between atoms: C1_2  and  C17_23
REMARK    2  A    between atoms: N1_3  and  C2_4
REMARK    3  A    between atoms: C5_8  and  C6_9
REMARK    4  A    between atoms: C6_9  and  O2_10
REMARK    5  A    between atoms: N2_11  and  C7_12
REMARK    6  A    between atoms: C7_12  and  C8_13
REMARK                            x       y       z     vdW  Elec       q    Type
REMARK                         _______ _______ _______ _____ _____    ______ ____
ROOT
ATOM      1  C2  UNL     1       1.628  -0.419   0.252  0.00  0.00    +0.000 A 
ATOM      2  S1  UNL     1       2.395  -1.693   1.049  0.00  0.00    +0.000 S 
ATOM      3  C3  UNL     1       1.040  -2.679   1.118  0.00  0.00    +0.000 A 
ATOM      4  C4  UNL     1      -0.027  -2.059   0.472  0.00  0.00    +0.000 A 
ATOM      5  C5  UNL     1       0.295  -0.764  -0.004  0.00  0.00    +0.000 A 
ATOM      6  C13 UNL     1      -1.407  -2.678   0.471  0.00  0.00    +0.000 C 
ATOM      7  C14 UNL     1      -1.373  -4.175   0.830  0.00  0.00    +0.000 C 
ATOM      8  C15 UNL     1      -0.456  -4.450   2.031  0.00  0.00    +0.000 C 
ATOM      9  C16 UNL     1       0.992  -4.052   1.716  0.00  0.00    +0.000 C 
ENDROOT
BRANCH   1  12
ATOM     10  O1  UNL     1       3.864   0.892   1.507  0.00  0.00    +0.000 OA
ATOM     11  C1  UNL     1       3.498   1.283   0.365  0.00  0.00    +0.000 C 
ATOM     12  N1  UNL     1       2.280   0.777  -0.207  0.00  0.00    +0.000 N 
ATOM     13  H1  UNL     1       1.828   1.321  -0.974  0.00  0.00    +0.000 HD
BRANCH  11  14
ATOM     14  C17 UNL     1       4.312   2.298  -0.348  0.00  0.00    +0.000 A 
ATOM     15  C18 UNL     1       5.211   3.113   0.361  0.00  0.00    +0.000 A 
ATOM     16  C19 UNL     1       5.976   4.068  -0.312  0.00  0.00    +0.000 A 
ATOM     17  C20 UNL     1       5.844   4.198  -1.694  0.00  0.00    +0.000 A 
ATOM     18  N4  UNL     1       4.984   3.396  -2.374  0.00  0.00    +0.000 NA
ATOM     19  C21 UNL     1       4.226   2.459  -1.743  0.00  0.00    +0.000 A 
ENDBRANCH  11  14
ENDBRANCH   1  12
BRANCH   5  20
ATOM     20  C6  UNL     1      -0.673   0.166  -0.622  0.00  0.00    +0.000 C 
ATOM     21  N2  UNL     1      -1.565  -0.293  -1.452  0.00  0.00    +0.000 NA
BRANCH  20  22
ATOM     22  O2  UNL     1      -0.600   1.524  -0.298  0.00  0.00    +0.000 OA
ATOM     23  H2  UNL     1      -1.212   2.225  -0.694  0.00  0.00    +0.000 HD
ENDBRANCH  20  22
BRANCH  21  24
ATOM     24  C7  UNL     1      -2.611   0.484  -2.114  0.00  0.00    +0.000 C 
BRANCH  24  25
ATOM     25  C8  UNL     1      -3.677   0.880  -1.133  0.00  0.00    +0.000 A 
ATOM     26  C9  UNL     1      -4.383  -0.095  -0.413  0.00  0.00    +0.000 A 
ATOM     27  C10 UNL     1      -5.367   0.303   0.495  0.00  0.00    +0.000 A 
ATOM     28  C11 UNL     1      -5.641   1.660   0.671  0.00  0.00    +0.000 A 
ATOM     29  C12 UNL     1      -4.925   2.603  -0.069  0.00  0.00    +0.000 A 
ATOM     30  N3  UNL     1      -3.968   2.197  -0.946  0.00  0.00    +0.000 NA
ENDBRANCH  24  25
ENDBRANCH  21  24
ENDBRANCH   5  20
TORSDOF 6
