REMARK  Name = resultss/4CJN/ligands/lig_336_t0.pdb
REMARK  12 active torsions:
REMARK  status: ('A' for Active; 'I' for Inactive)
REMARK    1  A    between atoms: C1_1  and  O1_2
REMARK    2  A    between atoms: O1_2  and  C2_3
REMARK    3  A    between atoms: C4_5  and  C5_6
REMARK    4  A    between atoms: N2_16  and  N3_17
REMARK    5  A    between atoms: N3_17  and  C13_18
REMARK    6  A    between atoms: C21_26  and  O3_27
REMARK    7  A    between atoms: O3_27  and  C22_28
REMARK    8  A    between atoms: C22_28  and  C23_29
REMARK    9  A    between atoms: N4_31  and  C25_32
REMARK   10  A    between atoms: C25_32  and  C26_33
REMARK   11  A    between atoms: N5_35  and  C27_36
REMARK   12  A    between atoms: C27_36  and  C28_37
REMARK                            x       y       z     vdW  Elec       q    Type
REMARK                         _______ _______ _______ _____ _____    ______ ____
ROOT
ATOM      1  C2  UNL     1      -1.655   0.537  -1.904  0.00  0.00    +0.000 A 
ATOM      2  C3  UNL     1      -3.003   0.742  -1.551  0.00  0.00    +0.000 A 
ATOM      3  C4  UNL     1      -3.366   0.974  -0.214  0.00  0.00    +0.000 A 
ATOM      4  C19 UNL     1      -2.375   0.956   0.779  0.00  0.00    +0.000 A 
ATOM      5  C20 UNL     1      -1.038   0.762   0.438  0.00  0.00    +0.000 A 
ATOM      6  C21 UNL     1      -0.665   0.570  -0.908  0.00  0.00    +0.000 A 
ENDROOT
BRANCH   3   7
ATOM      7  C5  UNL     1      -4.816   1.170   0.167  0.00  0.00    +0.000 C 
ATOM      8  N1  UNL     1      -4.964   2.454   0.864  0.00  0.00    +0.000 N 
ATOM      9  C6  UNL     1      -5.882   2.661   1.944  0.00  0.00    +0.000 A 
ATOM     10  C7  UNL     1      -6.207   3.963   2.350  0.00  0.00    +0.000 A 
ATOM     11  C8  UNL     1      -7.107   4.168   3.402  0.00  0.00    +0.000 A 
ATOM     12  C9  UNL     1      -7.672   3.076   4.063  0.00  0.00    +0.000 A 
ATOM     13  C10 UNL     1      -7.343   1.774   3.669  0.00  0.00    +0.000 A 
ATOM     14  C11 UNL     1      -6.449   1.564   2.602  0.00  0.00    +0.000 A 
ATOM     15  C12 UNL     1      -6.082   0.211   2.159  0.00  0.00    +0.000 C 
ATOM     16  O2  UNL     1      -6.482  -0.794   2.806  0.00  0.00    +0.000 OA
ATOM     17  N2  UNL     1      -5.275   0.027   0.986  0.00  0.00    +0.000 N 
ATOM     18  H6  UNL     1      -4.541   3.294   0.411  0.00  0.00    +0.000 HD
BRANCH  17  19
ATOM     19  N3  UNL     1      -4.939  -1.286   0.601  0.00  0.00    +0.000 N 
ATOM     20  H11 UNL     1      -4.517  -1.928   1.307  0.00  0.00    +0.000 HD
BRANCH  19  21
ATOM     21  C13 UNL     1      -5.194  -1.791  -0.721  0.00  0.00    +0.000 A 
ATOM     22  C14 UNL     1      -6.273  -1.315  -1.486  0.00  0.00    +0.000 A 
ATOM     23  C15 UNL     1      -6.536  -1.860  -2.747  0.00  0.00    +0.000 A 
ATOM     24  C16 UNL     1      -5.729  -2.885  -3.254  0.00  0.00    +0.000 A 
ATOM     25  C17 UNL     1      -4.663  -3.377  -2.491  0.00  0.00    +0.000 A 
ATOM     26  C18 UNL     1      -4.400  -2.832  -1.230  0.00  0.00    +0.000 A 
ENDBRANCH  19  21
ENDBRANCH  17  19
ENDBRANCH   3   7
BRANCH   1  28
ATOM     27  C1  UNL     1      -2.163   0.128  -4.318  0.00  0.00    +0.000 C 
ATOM     28  O1  UNL     1      -1.262   0.280  -3.226  0.00  0.00    +0.000 OA
ENDBRANCH   1  28
BRANCH   6  29
ATOM     29  O3  UNL     1       0.675   0.406  -1.292  0.00  0.00    +0.000 OA
BRANCH  29  30
ATOM     30  C22 UNL     1       1.781   0.442  -0.391  0.00  0.00    +0.000 C 
BRANCH  30  31
ATOM     31  C23 UNL     1       3.060   0.328  -1.154  0.00  0.00    +0.000 A 
ATOM     32  C24 UNL     1       4.253   0.945  -0.844  0.00  0.00    +0.000 A 
ATOM     33  N4  UNL     1       5.147   0.492  -1.741  0.00  0.00    +0.000 N 
ATOM     34  N6  UNL     1       4.539  -0.368  -2.543  0.00  0.00    +0.000 NA
ATOM     35  N7  UNL     1       3.262  -0.494  -2.203  0.00  0.00    +0.000 NA
BRANCH  33  36
ATOM     36  C25 UNL     1       6.564   0.838  -1.810  0.00  0.00    +0.000 C 
BRANCH  36  37
ATOM     37  C26 UNL     1       7.421  -0.323  -1.398  0.00  0.00    +0.000 C 
ATOM     38  O4  UNL     1       8.487  -0.556  -2.032  0.00  0.00    +0.000 OA
ATOM     39  N5  UNL     1       7.071  -1.116  -0.255  0.00  0.00    +0.000 N 
ATOM     40  H24 UNL     1       6.215  -0.868   0.298  0.00  0.00    +0.000 HD
BRANCH  39  41
ATOM     41  C27 UNL     1       7.898  -2.218   0.237  0.00  0.00    +0.000 C 
BRANCH  41  42
ATOM     42  C28 UNL     1       8.625  -1.788   1.479  0.00  0.00    +0.000 A 
ATOM     43  C29 UNL     1       8.007  -1.912   2.735  0.00  0.00    +0.000 A 
ATOM     44  C30 UNL     1       8.669  -1.486   3.891  0.00  0.00    +0.000 A 
ATOM     45  C31 UNL     1       9.946  -0.926   3.800  0.00  0.00    +0.000 A 
ATOM     46  C32 UNL     1      10.559  -0.782   2.551  0.00  0.00    +0.000 A 
ATOM     47  C33 UNL     1       9.899  -1.204   1.392  0.00  0.00    +0.000 A 
ENDBRANCH  41  42
ENDBRANCH  39  41
ENDBRANCH  36  37
ENDBRANCH  33  36
ENDBRANCH  30  31
ENDBRANCH  29  30
ENDBRANCH   6  29
TORSDOF 11
