REMARK  Name = resultss/4CJN/ligands/lig_400_t1.pdb
REMARK  11 active torsions:
REMARK  status: ('A' for Active; 'I' for Inactive)
REMARK    1  A    between atoms: C1_1  and  O1_2
REMARK    2  A    between atoms: O1_2  and  C2_3
REMARK    3  A    between atoms: C4_5  and  C5_6
REMARK    4  A    between atoms: C14_17  and  O2_18
REMARK    5  A    between atoms: O2_18  and  C15_19
REMARK    6  A    between atoms: C15_19  and  C16_20
REMARK    7  A    between atoms: N3_22  and  C18_23
REMARK    8  A    between atoms: C18_23  and  C19_24
REMARK    9  A    between atoms: C19_24  and  O3_25
REMARK   10  A    between atoms: N4_26  and  C20_27
REMARK   11  A    between atoms: C22_30  and  C23_31
REMARK                            x       y       z     vdW  Elec       q    Type
REMARK                         _______ _______ _______ _____ _____    ______ ____
ROOT
ATOM      1  C16 UNL     1      -0.589  -1.031  -1.353  0.00  0.00    +0.000 A 
ATOM      2  C17 UNL     1      -1.475  -1.560  -0.441  0.00  0.00    +0.000 A 
ATOM      3  N3  UNL     1      -2.358  -2.275  -1.158  0.00  0.00    +0.000 N 
ATOM      4  N6  UNL     1      -2.034  -2.185  -2.439  0.00  0.00    +0.000 NA
ATOM      5  N7  UNL     1      -0.947  -1.441  -2.588  0.00  0.00    +0.000 NA
ENDROOT
BRANCH   1   6
ATOM      6  C15 UNL     1       0.621  -0.212  -1.053  0.00  0.00    +0.000 C 
BRANCH   6   7
ATOM      7  O2  UNL     1       1.759  -1.066  -0.986  0.00  0.00    +0.000 OA
BRANCH   7  13
ATOM      8  C2  UNL     1       4.101  -1.578  -0.742  0.00  0.00    +0.000 A 
ATOM      9  C3  UNL     1       5.430  -1.168  -0.511  0.00  0.00    +0.000 A 
ATOM     10  C4  UNL     1       5.735   0.186  -0.283  0.00  0.00    +0.000 A 
ATOM     11  C12 UNL     1       4.693   1.127  -0.295  0.00  0.00    +0.000 A 
ATOM     12  C13 UNL     1       3.376   0.727  -0.523  0.00  0.00    +0.000 A 
ATOM     13  C14 UNL     1       3.071  -0.627  -0.748  0.00  0.00    +0.000 A 
BRANCH  10  14
ATOM     14  C5  UNL     1       7.131   0.635  -0.047  0.00  0.00    +0.000 A 
ATOM     15  N1  UNL     1       7.491   1.949  -0.063  0.00  0.00    +0.000 NA
ATOM     16  C6  UNL     1       8.810   1.906   0.193  0.00  0.00    +0.000 A 
ATOM     17  C7  UNL     1       9.696   2.977   0.292  0.00  0.00    +0.000 A 
ATOM     18  C8  UNL     1      11.044   2.686   0.574  0.00  0.00    +0.000 A 
ATOM     19  C9  UNL     1      11.466   1.347   0.747  0.00  0.00    +0.000 A 
ATOM     20  C10 UNL     1      10.543   0.289   0.639  0.00  0.00    +0.000 A 
ATOM     21  C11 UNL     1       9.219   0.618   0.358  0.00  0.00    +0.000 A 
ATOM     22  N2  UNL     1       8.171  -0.202   0.211  0.00  0.00    +0.000 N 
ATOM     23  H9  UNL     1       8.175  -1.242   0.299  0.00  0.00    +0.000 HD
ENDBRANCH  10  14
BRANCH   8  25
ATOM     24  C1  UNL     1       4.699  -3.996  -1.004  0.00  0.00    +0.000 C 
ATOM     25  O1  UNL     1       3.765  -2.922  -0.974  0.00  0.00    +0.000 OA
ENDBRANCH   8  25
ENDBRANCH   7  13
ENDBRANCH   6   7
ENDBRANCH   1   6
BRANCH   3  26
ATOM     26  C18 UNL     1      -3.538  -2.965  -0.652  0.00  0.00    +0.000 C 
BRANCH  26  27
ATOM     27  C19 UNL     1      -4.706  -2.032  -0.648  0.00  0.00    +0.000 C 
ATOM     28  N4  UNL     1      -4.897  -1.264   0.386  0.00  0.00    +0.000 NA
BRANCH  28  29
ATOM     29  C20 UNL     1      -6.003  -0.381   0.609  0.00  0.00    +0.000 A 
ATOM     30  C21 UNL     1      -5.939   0.760   1.394  0.00  0.00    +0.000 A 
ATOM     31  N5  UNL     1      -7.138   1.363   1.616  0.00  0.00    +0.000 NA
ATOM     32  C22 UNL     1      -8.166   0.696   1.039  0.00  0.00    +0.000 A 
ATOM     33  S1  UNL     1      -7.617  -0.687   0.239  0.00  0.00    +0.000 S 
BRANCH  32  34
ATOM     34  C23 UNL     1      -9.578   1.133   1.136  0.00  0.00    +0.000 A 
ATOM     35  C24 UNL     1      -9.908   2.307   1.838  0.00  0.00    +0.000 A 
ATOM     36  C25 UNL     1     -11.239   2.727   1.933  0.00  0.00    +0.000 A 
ATOM     37  C26 UNL     1     -12.253   1.981   1.330  0.00  0.00    +0.000 A 
ATOM     38  C27 UNL     1     -11.939   0.814   0.630  0.00  0.00    +0.000 A 
ATOM     39  C28 UNL     1     -10.610   0.390   0.532  0.00  0.00    +0.000 A 
ENDBRANCH  32  34
ENDBRANCH  28  29
BRANCH  27  40
ATOM     40  O3  UNL     1      -5.506  -1.963  -1.791  0.00  0.00    +0.000 OA
ATOM     41  H17 UNL     1      -6.168  -1.219  -1.959  0.00  0.00    +0.000 HD
ENDBRANCH  27  40
ENDBRANCH  26  27
ENDBRANCH   3  26
TORSDOF 10
