REMARK  Name = resultss/4CJN/ligands/lig_398_t0.pdb
REMARK  7 active torsions:
REMARK  status: ('A' for Active; 'I' for Inactive)
REMARK    1  A    between atoms: N2_11  and  N3_12
REMARK    2  A    between atoms: C9_13  and  C10_14
REMARK    3  A    between atoms: C13_17  and  O2_18
REMARK    4  A    between atoms: O2_18  and  C14_19
REMARK    5  A    between atoms: C14_19  and  C15_20
REMARK    6  A    between atoms: N4_22  and  C17_23
REMARK    7  A    between atoms: C17_23  and  C18_24
REMARK                            x       y       z     vdW  Elec       q    Type
REMARK                         _______ _______ _______ _____ _____    ______ ____
ROOT
ATOM      1  C10 UNL     1      -2.423  -2.018  -1.888  0.00  0.00    +0.000 A 
ATOM      2  C11 UNL     1      -1.267  -2.048  -2.681  0.00  0.00    +0.000 A 
ATOM      3  C12 UNL     1      -0.034  -2.400  -2.126  0.00  0.00    +0.000 A 
ATOM      4  C13 UNL     1       0.059  -2.749  -0.765  0.00  0.00    +0.000 A 
ATOM      5  C24 UNL     1      -1.101  -2.750   0.017  0.00  0.00    +0.000 A 
ATOM      6  C25 UNL     1      -2.334  -2.395  -0.537  0.00  0.00    +0.000 A 
ENDROOT
BRANCH   1   8
ATOM      7  N3  UNL     1      -4.596  -0.887  -1.946  0.00  0.00    +0.000 NA
ATOM      8  C9  UNL     1      -3.715  -1.657  -2.512  0.00  0.00    +0.000 C 
BRANCH   7  19
ATOM      9  O1  UNL     1      -7.082   0.527  -1.776  0.00  0.00    +0.000 OA
ATOM     10  C1  UNL     1      -6.593   0.863  -0.665  0.00  0.00    +0.000 C 
ATOM     11  N1  UNL     1      -7.259   1.710   0.270  0.00  0.00    +0.000 N 
ATOM     12  C2  UNL     1      -6.351   1.823   1.366  0.00  0.00    +0.000 A 
ATOM     13  C3  UNL     1      -6.551   2.550   2.538  0.00  0.00    +0.000 A 
ATOM     14  C4  UNL     1      -5.536   2.537   3.511  0.00  0.00    +0.000 A 
ATOM     15  C5  UNL     1      -4.349   1.805   3.297  0.00  0.00    +0.000 A 
ATOM     16  C6  UNL     1      -4.168   1.073   2.111  0.00  0.00    +0.000 A 
ATOM     17  C7  UNL     1      -5.187   1.104   1.161  0.00  0.00    +0.000 A 
ATOM     18  C8  UNL     1      -5.288   0.461  -0.139  0.00  0.00    +0.000 C 
ATOM     19  N2  UNL     1      -4.400  -0.307  -0.685  0.00  0.00    +0.000 NA
ATOM     20  H1  UNL     1      -8.200   2.151   0.173  0.00  0.00    +0.000 HD
ENDBRANCH   7  19
ENDBRANCH   1   8
BRANCH   4  21
ATOM     21  O2  UNL     1       1.273  -3.105  -0.155  0.00  0.00    +0.000 OA
BRANCH  21  22
ATOM     22  C14 UNL     1       2.556  -3.051  -0.778  0.00  0.00    +0.000 C 
BRANCH  22  23
ATOM     23  C15 UNL     1       2.974  -1.631  -0.998  0.00  0.00    +0.000 A 
ATOM     24  C16 UNL     1       3.065  -0.644  -0.043  0.00  0.00    +0.000 A 
ATOM     25  N4  UNL     1       3.478   0.457  -0.692  0.00  0.00    +0.000 N 
ATOM     26  N5  UNL     1       3.648   0.157  -1.969  0.00  0.00    +0.000 NA
ATOM     27  N6  UNL     1       3.343  -1.114  -2.186  0.00  0.00    +0.000 NA
BRANCH  25  28
ATOM     28  C17 UNL     1       3.785   1.755  -0.102  0.00  0.00    +0.000 C 
BRANCH  28  29
ATOM     29  C18 UNL     1       5.263   1.859   0.162  0.00  0.00    +0.000 A 
ATOM     30  C19 UNL     1       6.112   2.405  -0.815  0.00  0.00    +0.000 A 
ATOM     31  C20 UNL     1       7.491   2.467  -0.595  0.00  0.00    +0.000 A 
ATOM     32  C21 UNL     1       8.034   1.975   0.596  0.00  0.00    +0.000 A 
ATOM     33  C22 UNL     1       7.198   1.417   1.567  0.00  0.00    +0.000 A 
ATOM     34  C23 UNL     1       5.817   1.352   1.353  0.00  0.00    +0.000 A 
ATOM     35  F1  UNL     1       5.024   0.789   2.300  0.00  0.00    +0.000 F 
ENDBRANCH  28  29
ENDBRANCH  25  28
ENDBRANCH  22  23
ENDBRANCH  21  22
ENDBRANCH   4  21
TORSDOF 7
