REMARK  Name = resultss/4CJN/ligands/lig_295_t0.pdb
REMARK  4 active torsions:
REMARK  status: ('A' for Active; 'I' for Inactive)
REMARK    1  A    between atoms: C3_4  and  O2_5
REMARK    2  A    between atoms: C5_7  and  O3_8
REMARK    3  A    between atoms: C11_15  and  O5_16
REMARK    4  A    between atoms: C12_17  and  O6_18
REMARK                            x       y       z     vdW  Elec       q    Type
REMARK                         _______ _______ _______ _____ _____    ______ ____
ROOT
ATOM      1  O1  UNL     1      -0.304   2.353   0.385  0.00  0.00    +0.000 OA
ATOM      2  C1  UNL     1      -0.138   1.125   0.183  0.00  0.00    +0.000 A 
ATOM      3  C2  UNL     1       1.174   0.582   0.153  0.00  0.00    +0.000 A 
ATOM      4  C3  UNL     1       2.371   1.341   0.345  0.00  0.00    +0.000 A 
ATOM      5  C4  UNL     1       3.604   0.682   0.420  0.00  0.00    +0.000 A 
ATOM      6  C5  UNL     1       3.696  -0.697   0.241  0.00  0.00    +0.000 A 
ATOM      7  C6  UNL     1       2.543  -1.439  -0.011  0.00  0.00    +0.000 A 
ATOM      8  C7  UNL     1       1.294  -0.816  -0.053  0.00  0.00    +0.000 A 
ATOM      9  O4  UNL     1       0.227  -1.562  -0.292  0.00  0.00    +0.000 OA
ATOM     10  C8  UNL     1      -1.007  -1.081  -0.310  0.00  0.00    +0.000 A 
ATOM     11  C9  UNL     1      -2.053  -1.951  -0.623  0.00  0.00    +0.000 A 
ATOM     12  C10 UNL     1      -3.363  -1.489  -0.666  0.00  0.00    +0.000 A 
ATOM     13  C11 UNL     1      -3.653  -0.163  -0.349  0.00  0.00    +0.000 A 
ATOM     14  C12 UNL     1      -2.622   0.726   0.012  0.00  0.00    +0.000 A 
ATOM     15  C13 UNL     1      -1.262   0.282  -0.021  0.00  0.00    +0.000 A 
ENDROOT
BRANCH   4  16
ATOM     16  O2  UNL     1       2.411   2.736   0.445  0.00  0.00    +0.000 OA
ATOM     17  H1  UNL     1       1.697   3.361   0.103  0.00  0.00    +0.000 HD
ENDBRANCH   4  16
BRANCH   6  18
ATOM     18  O3  UNL     1       4.942  -1.317   0.305  0.00  0.00    +0.000 OA
ATOM     19  H3  UNL     1       5.043  -2.317   0.176  0.00  0.00    +0.000 HD
ENDBRANCH   6  18
BRANCH  13  20
ATOM     20  O5  UNL     1      -4.986   0.251  -0.380  0.00  0.00    +0.000 OA
ATOM     21  H7  UNL     1      -5.265   1.200  -0.162  0.00  0.00    +0.000 HD
ENDBRANCH  13  20
BRANCH  14  22
ATOM     22  O6  UNL     1      -3.003   2.009   0.419  0.00  0.00    +0.000 OA
ATOM     23  H8  UNL     1      -2.462   2.599   1.034  0.00  0.00    +0.000 HD
ENDBRANCH  14  22
TORSDOF 4
