REMARK  Name = resultss/4CJN/ligands/lig_272_t2.pdb
REMARK  6 active torsions:
REMARK  status: ('A' for Active; 'I' for Inactive)
REMARK    1  A    between atoms: C1_2  and  C19_24
REMARK    2  A    between atoms: N1_3  and  C2_4
REMARK    3  A    between atoms: C5_8  and  C6_9
REMARK    4  A    between atoms: C6_9  and  O2_10
REMARK    5  A    between atoms: N2_11  and  C7_12
REMARK    6  A    between atoms: C7_12  and  C8_13
REMARK                            x       y       z     vdW  Elec       q    Type
REMARK                         _______ _______ _______ _____ _____    ______ ____
ROOT
ATOM      1  C2  UNL     1      -2.299  -0.611   0.373  0.00  0.00    +0.000 A 
ATOM      2  S1  UNL     1      -3.027  -2.113   0.539  0.00  0.00    +0.000 S 
ATOM      3  C3  UNL     1      -1.753  -2.991  -0.117  0.00  0.00    +0.000 A 
ATOM      4  C4  UNL     1      -0.713  -2.121  -0.452  0.00  0.00    +0.000 A 
ATOM      5  C5  UNL     1      -1.021  -0.765  -0.175  0.00  0.00    +0.000 A 
ATOM      6  C14 UNL     1       0.623  -2.630  -0.938  0.00  0.00    +0.000 C 
ATOM      7  C15 UNL     1       1.308  -3.513   0.116  0.00  0.00    +0.000 C 
ATOM      8  C16 UNL     1       0.773  -4.955   0.135  0.00  0.00    +0.000 C 
ATOM      9  C17 UNL     1      -0.648  -5.081   0.707  0.00  0.00    +0.000 C 
ATOM     10  C18 UNL     1      -1.719  -4.485  -0.216  0.00  0.00    +0.000 C 
ENDROOT
BRANCH   1  13
ATOM     11  O1  UNL     1      -2.586   1.757  -1.221  0.00  0.00    +0.000 OA
ATOM     12  C1  UNL     1      -2.843   1.824   0.013  0.00  0.00    +0.000 C 
ATOM     13  N1  UNL     1      -2.914   0.617   0.787  0.00  0.00    +0.000 N 
ATOM     14  H1  UNL     1      -3.588   0.575   1.584  0.00  0.00    +0.000 HD
BRANCH  12  15
ATOM     15  C19 UNL     1      -3.097   3.144   0.637  0.00  0.00    +0.000 A 
ATOM     16  C20 UNL     1      -3.356   4.272  -0.160  0.00  0.00    +0.000 A 
ATOM     17  C21 UNL     1      -3.583   5.515   0.433  0.00  0.00    +0.000 A 
ATOM     18  C22 UNL     1      -3.543   5.627   1.823  0.00  0.00    +0.000 A 
ATOM     19  N3  UNL     1      -3.280   4.534   2.585  0.00  0.00    +0.000 NA
ATOM     20  C23 UNL     1      -3.058   3.311   2.033  0.00  0.00    +0.000 A 
ENDBRANCH  12  15
ENDBRANCH   1  13
BRANCH   5  21
ATOM     21  C6  UNL     1      -0.082   0.361  -0.331  0.00  0.00    +0.000 C 
ATOM     22  N2  UNL     1       0.523   0.540  -1.470  0.00  0.00    +0.000 NA
BRANCH  21  23
ATOM     23  O2  UNL     1       0.097   1.231   0.749  0.00  0.00    +0.000 OA
ATOM     24  H2  UNL     1       0.680   2.055   0.709  0.00  0.00    +0.000 HD
ENDBRANCH  21  23
BRANCH  22  25
ATOM     25  C7  UNL     1       1.476   1.603  -1.784  0.00  0.00    +0.000 C 
BRANCH  25  26
ATOM     26  C8  UNL     1       2.807   1.336  -1.131  0.00  0.00    +0.000 A 
ATOM     27  C9  UNL     1       3.345   2.243  -0.201  0.00  0.00    +0.000 A 
ATOM     28  C10 UNL     1       4.579   1.983   0.404  0.00  0.00    +0.000 A 
ATOM     29  C11 UNL     1       5.287   0.822   0.080  0.00  0.00    +0.000 A 
ATOM     30  C12 UNL     1       4.766  -0.077  -0.854  0.00  0.00    +0.000 A 
ATOM     31  C13 UNL     1       3.534   0.180  -1.462  0.00  0.00    +0.000 A 
ENDBRANCH  25  26
ENDBRANCH  22  25
ENDBRANCH   5  21
TORSDOF 6
