REMARK  Name = resultss/4CJN/ligands/lig_283_t0.pdb
REMARK  10 active torsions:
REMARK  status: ('A' for Active; 'I' for Inactive)
REMARK    1  A    between atoms: C2_2  and  C3_3
REMARK    2  A    between atoms: C3_3  and  C4_4
REMARK    3  A    between atoms: C6_6  and  C7_7
REMARK    4  A    between atoms: C10_10  and  O1_11
REMARK    5  A    between atoms: C11_12  and  C12_13
REMARK    6  A    between atoms: C12_13  and  C13_14
REMARK    7  A    between atoms: C16_17  and  O2_18
REMARK    8  A    between atoms: C17_19  and  C18_20
REMARK    9  A    between atoms: C18_20  and  C19_21
REMARK   10  A    between atoms: C18_20  and  N1_29
REMARK                            x       y       z     vdW  Elec       q    Type
REMARK                         _______ _______ _______ _____ _____    ______ ____
ROOT
ATOM      1  C4  UNL     1      -0.624   2.056  -1.012  0.00  0.00    +0.000 A 
ATOM      2  C5  UNL     1       0.708   1.678  -1.190  0.00  0.00    +0.000 A 
ATOM      3  C6  UNL     1       1.165   0.428  -0.747  0.00  0.00    +0.000 A 
ATOM      4  C16 UNL     1       0.271  -0.461  -0.105  0.00  0.00    +0.000 A 
ATOM      5  C17 UNL     1      -1.085  -0.075   0.105  0.00  0.00    +0.000 A 
ATOM      6  C29 UNL     1      -1.505   1.188  -0.363  0.00  0.00    +0.000 A 
ENDROOT
BRANCH   3   7
ATOM      7  C7  UNL     1       2.591   0.072  -0.960  0.00  0.00    +0.000 A 
ATOM      8  C8  UNL     1       3.185   0.261  -2.217  0.00  0.00    +0.000 A 
ATOM      9  C9  UNL     1       4.538  -0.022  -2.412  0.00  0.00    +0.000 A 
ATOM     10  C10 UNL     1       5.319  -0.508  -1.357  0.00  0.00    +0.000 A 
ATOM     11  C11 UNL     1       4.734  -0.725  -0.097  0.00  0.00    +0.000 A 
ATOM     12  C15 UNL     1       3.378  -0.411   0.098  0.00  0.00    +0.000 A 
BRANCH  10  13
ATOM     13  O1  UNL     1       6.674  -0.770  -1.559  0.00  0.00    +0.000 OA
ATOM     14  H9  UNL     1       7.119  -0.605  -2.453  0.00  0.00    +0.000 HD
ENDBRANCH  10  13
BRANCH  11  15
ATOM     15  C12 UNL     1       5.557  -1.217   1.065  0.00  0.00    +0.000 C 
BRANCH  15  16
ATOM     16  C13 UNL     1       6.097  -0.052   1.844  0.00  0.00    +0.000 C 
ATOM     17  C14 UNL     1       7.347   0.397   1.668  0.00  0.00    +0.000 C 
ENDBRANCH  15  16
ENDBRANCH  11  15
ENDBRANCH   3   7
BRANCH   4  18
ATOM     18  O2  UNL     1       0.765  -1.708   0.294  0.00  0.00    +0.000 OA
ATOM     19  H16 UNL     1       0.246  -2.402   0.813  0.00  0.00    +0.000 HD
ENDBRANCH   4  18
BRANCH   1  20
ATOM     20  C3  UNL     1      -1.099   3.411  -1.466  0.00  0.00    +0.000 C 
BRANCH  20  22
ATOM     21  C1  UNL     1      -0.033   4.840   0.263  0.00  0.00    +0.000 C 
ATOM     22  C2  UNL     1      -1.149   4.372  -0.312  0.00  0.00    +0.000 C 
ENDBRANCH  20  22
ENDBRANCH   1  20
BRANCH   5  23
ATOM     23  C18 UNL     1      -2.117  -1.001   0.768  0.00  0.00    +0.000 C 
BRANCH  23  24
ATOM     24  C19 UNL     1      -3.083  -0.226   1.660  0.00  0.00    +0.000 A 
ATOM     25  C20 UNL     1      -2.592   0.368   2.838  0.00  0.00    +0.000 A 
ATOM     26  C21 UNL     1      -3.436   1.114   3.668  0.00  0.00    +0.000 A 
ATOM     27 CL1  UNL     1      -2.806   1.848   5.129  0.00  0.00    +0.000 Cl
ATOM     28  C22 UNL     1      -4.779   1.280   3.329  0.00  0.00    +0.000 A 
ATOM     29  C23 UNL     1      -5.282   0.703   2.160  0.00  0.00    +0.000 A 
ATOM     30 CL2  UNL     1      -6.966   0.927   1.727  0.00  0.00    +0.000 Cl
ATOM     31  C24 UNL     1      -4.444  -0.050   1.331  0.00  0.00    +0.000 A 
ENDBRANCH  23  24
BRANCH  23  32
ATOM     32  N1  UNL     1      -2.856  -1.874  -0.193  0.00  0.00    +0.000 NA
ATOM     33  C25 UNL     1      -2.319  -3.244  -0.270  0.00  0.00    +0.000 C 
ATOM     34  C26 UNL     1      -3.226  -4.122  -1.156  0.00  0.00    +0.000 C 
ATOM     35  O3  UNL     1      -4.348  -3.403  -1.633  0.00  0.00    +0.000 OA
ATOM     36  C27 UNL     1      -3.915  -2.293  -2.395  0.00  0.00    +0.000 C 
ATOM     37  C28 UNL     1      -3.041  -1.333  -1.557  0.00  0.00    +0.000 C 
ENDBRANCH  23  32
ENDBRANCH   5  23
TORSDOF 10
