REMARK  Name = resultss/4CJN/ligands/lig_289_t1.pdb
REMARK  3 active torsions:
REMARK  status: ('A' for Active; 'I' for Inactive)
REMARK    1  A    between atoms: C1_1  and  O1_2
REMARK    2  A    between atoms: O1_2  and  C2_3
REMARK    3  A    between atoms: C4_5  and  O2_6
REMARK                            x       y       z     vdW  Elec       q    Type
REMARK                         _______ _______ _______ _____ _____    ______ ____
ROOT
ATOM      1  C2  UNL     1       2.973   0.415  -0.144  0.00  0.00    +0.000 A 
ATOM      2  C3  UNL     1       2.583   1.563  -0.833  0.00  0.00    +0.000 A 
ATOM      3  C4  UNL     1       1.232   1.870  -1.037  0.00  0.00    +0.000 A 
ATOM      4  C5  UNL     1       0.228   0.958  -0.595  0.00  0.00    +0.000 A 
ATOM      5  C6  UNL     1      -1.158   1.102  -0.852  0.00  0.00    +0.000 A 
ATOM      6  O3  UNL     1      -1.597   2.037  -1.573  0.00  0.00    +0.000 OA
ATOM      7  C7  UNL     1      -2.069   0.169  -0.327  0.00  0.00    +0.000 A 
ATOM      8  C8  UNL     1      -3.555   0.324  -0.583  0.00  0.00    +0.000 C 
ATOM      9  C9  UNL     1      -4.399  -0.728   0.086  0.00  0.00    +0.000 C 
ATOM     10  O4  UNL     1      -5.653  -0.665  -0.011  0.00  0.00    +0.000 OA
ATOM     11  C10 UNL     1      -3.792  -1.835   0.840  0.00  0.00    +0.000 C 
ATOM     12  C11 UNL     1      -2.471  -1.924   0.986  0.00  0.00    +0.000 C 
ATOM     13  C12 UNL     1      -1.566  -0.918   0.410  0.00  0.00    +0.000 A 
ATOM     14  O5  UNL     1      -0.260  -1.058   0.591  0.00  0.00    +0.000 OA
ATOM     15  C13 UNL     1       0.635  -0.196   0.123  0.00  0.00    +0.000 A 
ATOM     16  C14 UNL     1       1.989  -0.456   0.346  0.00  0.00    +0.000 A 
ENDROOT
BRANCH   1  18
ATOM     17  C1  UNL     1       4.886  -0.946   0.720  0.00  0.00    +0.000 C 
ATOM     18  O1  UNL     1       4.344   0.181   0.038  0.00  0.00    +0.000 OA
ENDBRANCH   1  18
BRANCH   3  19
ATOM     19  O2  UNL     1       0.958   3.095  -1.653  0.00  0.00    +0.000 OA
ATOM     20  H5  UNL     1       0.073   3.577  -1.605  0.00  0.00    +0.000 HD
ENDBRANCH   3  19
TORSDOF 2
