REMARK  Name = resultss/4CJN/ligands/lig_409_t1.pdb
REMARK  5 active torsions:
REMARK  status: ('A' for Active; 'I' for Inactive)
REMARK    1  A    between atoms: C1_2  and  C9_15
REMARK    2  A    between atoms: N1_3  and  N2_4
REMARK    3  A    between atoms: C2_5  and  S1_6
REMARK    4  A    between atoms: N3_7  and  C3_8
REMARK    5  A    between atoms: C19_26  and  C20_27
REMARK                            x       y       z     vdW  Elec       q    Type
REMARK                         _______ _______ _______ _____ _____    ______ ____
ROOT
ATOM      1  C9  UNL     1       0.418  -0.776  -0.400  0.00  0.00    +0.000 A 
ATOM      2  C10 UNL     1       1.243  -1.820  -0.872  0.00  0.00    +0.000 A 
ATOM      3  C11 UNL     1       2.617  -1.620  -0.818  0.00  0.00    +0.000 A 
ATOM      4  C12 UNL     1       3.169  -0.454  -0.332  0.00  0.00    +0.000 A 
ATOM      5  N4  UNL     1       4.522  -0.519  -0.318  0.00  0.00    +0.000 N 
ATOM      6  C13 UNL     1       4.815  -1.738  -0.821  0.00  0.00    +0.000 A 
ATOM      7  C14 UNL     1       6.081  -2.292  -1.001  0.00  0.00    +0.000 A 
ATOM      8  C15 UNL     1       6.162  -3.595  -1.526  0.00  0.00    +0.000 A 
ATOM      9  C16 UNL     1       4.989  -4.313  -1.850  0.00  0.00    +0.000 A 
ATOM     10  C17 UNL     1       3.721  -3.736  -1.654  0.00  0.00    +0.000 A 
ATOM     11  C18 UNL     1       3.672  -2.442  -1.140  0.00  0.00    +0.000 A 
ATOM     12  C19 UNL     1       2.340   0.582   0.119  0.00  0.00    +0.000 A 
ATOM     13  N5  UNL     1       0.989   0.376   0.078  0.00  0.00    +0.000 NA
ATOM     14  H9  UNL     1       5.201   0.191   0.035  0.00  0.00    +0.000 HD
ENDROOT
BRANCH  12  15
ATOM     15  C20 UNL     1       2.863   1.864   0.635  0.00  0.00    +0.000 A 
ATOM     16  C21 UNL     1       3.865   2.569  -0.056  0.00  0.00    +0.000 A 
ATOM     17  C22 UNL     1       4.330   3.794   0.432  0.00  0.00    +0.000 A 
ATOM     18  C23 UNL     1       3.792   4.331   1.603  0.00  0.00    +0.000 A 
ATOM     19  C24 UNL     1       2.781   3.649   2.285  0.00  0.00    +0.000 A 
ATOM     20  C25 UNL     1       2.312   2.424   1.800  0.00  0.00    +0.000 A 
ENDBRANCH  12  15
BRANCH   1  22
ATOM     21  O1  UNL     1      -1.585  -1.984  -0.802  0.00  0.00    +0.000 OA
ATOM     22  C1  UNL     1      -1.053  -0.913  -0.402  0.00  0.00    +0.000 C 
ATOM     23  N1  UNL     1      -1.885   0.171   0.039  0.00  0.00    +0.000 N 
ATOM     24  H1  UNL     1      -1.485   1.135   0.062  0.00  0.00    +0.000 HD
BRANCH  23  25
ATOM     25  N2  UNL     1      -3.282   0.042   0.116  0.00  0.00    +0.000 NA
ATOM     26  C2  UNL     1      -3.888  -0.775   0.928  0.00  0.00    +0.000 C 
ATOM     27  N3  UNL     1      -5.319  -0.894   0.902  0.00  0.00    +0.000 N 
ATOM     28  H3  UNL     1      -5.738  -1.741   1.349  0.00  0.00    +0.000 HD
BRANCH  27  29
ATOM     29  C3  UNL     1      -6.199   0.008   0.210  0.00  0.00    +0.000 A 
ATOM     30  C4  UNL     1      -5.946   1.392   0.167  0.00  0.00    +0.000 A 
ATOM     31  C5  UNL     1      -6.832   2.251  -0.492  0.00  0.00    +0.000 A 
ATOM     32  C6  UNL     1      -7.982   1.740  -1.099  0.00  0.00    +0.000 A 
ATOM     33  F1  UNL     1      -8.840   2.574  -1.736  0.00  0.00    +0.000 F 
ATOM     34  C7  UNL     1      -8.253   0.370  -1.041  0.00  0.00    +0.000 A 
ATOM     35  C8  UNL     1      -7.369  -0.491  -0.382  0.00  0.00    +0.000 A 
ENDBRANCH  27  29
BRANCH  26  36
ATOM     36  S1  UNL     1      -2.969  -1.774   2.107  0.00  0.00    +0.000 S 
ATOM     37  H2  UNL     1      -3.041  -0.770   3.091  0.00  0.00    +0.000 HD
ENDBRANCH  26  36
ENDBRANCH  23  25
ENDBRANCH   1  22
TORSDOF 5
