REMARK  Name = resultss/4CJN/ligands/lig_307_t0.pdb
REMARK  5 active torsions:
REMARK  status: ('A' for Active; 'I' for Inactive)
REMARK    1  A    between atoms: C1_1  and  O1_2
REMARK    2  A    between atoms: O1_2  and  C2_3
REMARK    3  A    between atoms: C4_5  and  O2_6
REMARK    4  A    between atoms: C8_11  and  O4_12
REMARK    5  A    between atoms: C9_13  and  O5_14
REMARK                            x       y       z     vdW  Elec       q    Type
REMARK                         _______ _______ _______ _____ _____    ______ ____
ROOT
ATOM      1  C2  UNL     1       3.011  -0.577   0.085  0.00  0.00    +0.000 A 
ATOM      2  C3  UNL     1       2.801   0.766   0.443  0.00  0.00    +0.000 A 
ATOM      3  C4  UNL     1       1.504   1.297   0.506  0.00  0.00    +0.000 A 
ATOM      4  C5  UNL     1       0.389   0.475   0.207  0.00  0.00    +0.000 A 
ATOM      5  C6  UNL     1      -0.946   0.938   0.254  0.00  0.00    +0.000 A 
ATOM      6  O3  UNL     1      -1.182   2.108   0.655  0.00  0.00    +0.000 OA
ATOM      7  C7  UNL     1      -2.007   0.069  -0.106  0.00  0.00    +0.000 A 
ATOM      8  C8  UNL     1      -3.383   0.454  -0.153  0.00  0.00    +0.000 A 
ATOM      9  C9  UNL     1      -4.371  -0.524  -0.382  0.00  0.00    +0.000 A 
ATOM     10  C10 UNL     1      -4.010  -1.847  -0.632  0.00  0.00    +0.000 A 
ATOM     11  C11 UNL     1      -2.669  -2.217  -0.664  0.00  0.00    +0.000 A 
ATOM     12  C12 UNL     1      -1.671  -1.278  -0.399  0.00  0.00    +0.000 A 
ATOM     13  O6  UNL     1      -0.407  -1.678  -0.417  0.00  0.00    +0.000 OA
ATOM     14  C13 UNL     1       0.611  -0.874  -0.147  0.00  0.00    +0.000 A 
ATOM     15  C14 UNL     1       1.911  -1.385  -0.206  0.00  0.00    +0.000 A 
ENDROOT
BRANCH   1  17
ATOM     16  C1  UNL     1       5.501  -0.442   0.280  0.00  0.00    +0.000 C 
ATOM     17  O1  UNL     1       4.292  -1.145   0.010  0.00  0.00    +0.000 OA
ENDBRANCH   1  17
BRANCH   3  18
ATOM     18  O2  UNL     1       1.335   2.637   0.859  0.00  0.00    +0.000 OA
ATOM     19  H5  UNL     1       2.123   3.236   1.074  0.00  0.00    +0.000 HD
ENDBRANCH   3  18
BRANCH   8  20
ATOM     20  O4  UNL     1      -3.814   1.778  -0.018  0.00  0.00    +0.000 OA
ATOM     21  H6  UNL     1      -3.238   2.587  -0.199  0.00  0.00    +0.000 HD
ENDBRANCH   8  20
BRANCH   9  22
ATOM     22  O5  UNL     1      -5.727  -0.193  -0.384  0.00  0.00    +0.000 OA
ATOM     23  H7  UNL     1      -6.056   0.748  -0.209  0.00  0.00    +0.000 HD
ENDBRANCH   9  22
TORSDOF 4
