REMARK  Name = resultss/4CJN/ligands/lig_430_t1.pdb
REMARK  8 active torsions:
REMARK  status: ('A' for Active; 'I' for Inactive)
REMARK    1  A    between atoms: C1_2  and  C16_22
REMARK    2  A    between atoms: N1_3  and  N2_4
REMARK    3  A    between atoms: C2_5  and  S1_6
REMARK    4  A    between atoms: N3_7  and  C3_8
REMARK    5  A    between atoms: C7_12  and  O2_13
REMARK    6  A    between atoms: O2_13  and  C8_14
REMARK    7  A    between atoms: C8_14  and  C9_15
REMARK    8  A    between atoms: C26_33  and  C27_34
REMARK                            x       y       z     vdW  Elec       q    Type
REMARK                         _______ _______ _______ _____ _____    ______ ____
ROOT
ATOM      1  O1  UNL     1      -0.802  -1.500   0.527  0.00  0.00    +0.000 OA
ATOM      2  C1  UNL     1      -1.458  -0.535   0.048  0.00  0.00    +0.000 C 
ATOM      3  N1  UNL     1      -0.809   0.391  -0.830  0.00  0.00    +0.000 N 
ATOM      4  H1  UNL     1      -1.358   1.184  -1.230  0.00  0.00    +0.000 HD
ENDROOT
BRANCH   2   5
ATOM      5  C16 UNL     1      -2.888  -0.373   0.386  0.00  0.00    +0.000 A 
ATOM      6  C17 UNL     1      -3.574  -1.362   1.125  0.00  0.00    +0.000 A 
ATOM      7  C18 UNL     1      -4.923  -1.144   1.380  0.00  0.00    +0.000 A 
ATOM      8  C19 UNL     1      -5.577  -0.010   0.947  0.00  0.00    +0.000 A 
ATOM      9  N4  UNL     1      -6.895  -0.055   1.252  0.00  0.00    +0.000 N 
ATOM     10  C20 UNL     1      -7.061  -1.228   1.902  0.00  0.00    +0.000 A 
ATOM     11  C21 UNL     1      -8.250  -1.746   2.412  0.00  0.00    +0.000 A 
ATOM     12  C22 UNL     1      -8.204  -3.004   3.041  0.00  0.00    +0.000 A 
ATOM     13  C23 UNL     1      -6.985  -3.713   3.140  0.00  0.00    +0.000 A 
ATOM     14  C24 UNL     1      -5.798  -3.172   2.612  0.00  0.00    +0.000 A 
ATOM     15  C25 UNL     1      -5.874  -1.923   2.001  0.00  0.00    +0.000 A 
ATOM     16  C26 UNL     1      -4.880   0.975   0.234  0.00  0.00    +0.000 A 
ATOM     17  N5  UNL     1      -3.558   0.749  -0.032  0.00  0.00    +0.000 NA
ATOM     18  H16 UNL     1      -7.639   0.637   1.011  0.00  0.00    +0.000 HD
BRANCH  16  19
ATOM     19  C27 UNL     1      -5.510   2.224  -0.239  0.00  0.00    +0.000 A 
ATOM     20  C28 UNL     1      -6.318   2.996   0.614  0.00  0.00    +0.000 A 
ATOM     21  C29 UNL     1      -6.883   4.191   0.161  0.00  0.00    +0.000 A 
ATOM     22  C30 UNL     1      -6.637   4.633  -1.142  0.00  0.00    +0.000 A 
ATOM     23  C31 UNL     1      -5.817   3.884  -1.990  0.00  0.00    +0.000 A 
ATOM     24  C32 UNL     1      -5.250   2.688  -1.540  0.00  0.00    +0.000 A 
ENDBRANCH  16  19
ENDBRANCH   2   5
BRANCH   3  25
ATOM     25  N2  UNL     1       0.553   0.229  -1.140  0.00  0.00    +0.000 NA
ATOM     26  C2  UNL     1       1.192   0.945  -2.020  0.00  0.00    +0.000 C 
ATOM     27  N3  UNL     1       2.579   0.691  -2.283  0.00  0.00    +0.000 N 
ATOM     28  H3  UNL     1       2.953   0.977  -3.216  0.00  0.00    +0.000 HD
BRANCH  27  29
ATOM     29  C3  UNL     1       3.476   0.036  -1.368  0.00  0.00    +0.000 A 
ATOM     30  C4  UNL     1       3.345   0.189   0.023  0.00  0.00    +0.000 A 
ATOM     31  C5  UNL     1       4.267  -0.408   0.886  0.00  0.00    +0.000 A 
ATOM     32  C6  UNL     1       5.329  -1.157   0.373  0.00  0.00    +0.000 A 
ATOM     33  C7  UNL     1       5.474  -1.319  -1.017  0.00  0.00    +0.000 A 
ATOM     34  C15 UNL     1       4.548  -0.712  -1.875  0.00  0.00    +0.000 A 
BRANCH  33  35
ATOM     35  O2  UNL     1       6.508  -2.078  -1.589  0.00  0.00    +0.000 OA
BRANCH  35  36
ATOM     36  C8  UNL     1       7.645  -2.584  -0.890  0.00  0.00    +0.000 C 
BRANCH  36  37
ATOM     37  C9  UNL     1       8.609  -1.470  -0.584  0.00  0.00    +0.000 A 
ATOM     38  C10 UNL     1       8.957  -1.161   0.742  0.00  0.00    +0.000 A 
ATOM     39  C11 UNL     1       9.860  -0.125   1.009  0.00  0.00    +0.000 A 
ATOM     40  C12 UNL     1      10.422   0.603  -0.044  0.00  0.00    +0.000 A 
ATOM     41  C13 UNL     1      10.082   0.299  -1.366  0.00  0.00    +0.000 A 
ATOM     42  C14 UNL     1       9.178  -0.733  -1.637  0.00  0.00    +0.000 A 
ENDBRANCH  36  37
ENDBRANCH  35  36
ENDBRANCH  33  35
ENDBRANCH  27  29
BRANCH  26  43
ATOM     43  S1  UNL     1       0.356   2.186  -3.014  0.00  0.00    +0.000 S 
ATOM     44  H2  UNL     1       0.013   1.242  -3.997  0.00  0.00    +0.000 HD
ENDBRANCH  26  43
ENDBRANCH   3  25
TORSDOF 8
