REMARK  Name = resultss/4CJN/ligands/lig_316_t1.pdb
REMARK  3 active torsions:
REMARK  status: ('A' for Active; 'I' for Inactive)
REMARK    1  A    between atoms: C1_1  and  O1_2
REMARK    2  A    between atoms: O1_2  and  C2_3
REMARK    3  A    between atoms: C14_19  and  O6_20
REMARK                            x       y       z     vdW  Elec       q    Type
REMARK                         _______ _______ _______ _____ _____    ______ ____
ROOT
ATOM      1  C2  UNL     1       2.996   0.106  -0.068  0.00  0.00    +0.000 A 
ATOM      2  C3  UNL     1       2.680   1.474  -0.101  0.00  0.00    +0.000 A 
ATOM      3  C4  UNL     1       1.353   1.887  -0.155  0.00  0.00    +0.000 A 
ATOM      4  C5  UNL     1       0.319   0.952  -0.132  0.00  0.00    +0.000 A 
ATOM      5  O2  UNL     1      -0.932   1.391  -0.164  0.00  0.00    +0.000 OA
ATOM      6  C6  UNL     1      -1.989   0.591  -0.119  0.00  0.00    +0.000 A 
ATOM      7  C7  UNL     1      -3.350   1.232  -0.155  0.00  0.00    +0.000 C 
ATOM      8  C8  UNL     1      -4.418   0.250  -0.535  0.00  0.00    +0.000 C 
ATOM      9  O3  UNL     1      -5.338   0.594  -1.260  0.00  0.00    +0.000 OA
ATOM     10  C9  UNL     1      -4.408  -1.121   0.070  0.00  0.00    +0.000 C 
ATOM     11  C10 UNL     1      -3.019  -1.691   0.074  0.00  0.00    +0.000 C 
ATOM     12  O4  UNL     1      -2.891  -2.941   0.171  0.00  0.00    +0.000 OA
ATOM     13  C11 UNL     1      -1.819  -0.804   0.007  0.00  0.00    +0.000 A 
ATOM     14  C12 UNL     1      -0.502  -1.313   0.059  0.00  0.00    +0.000 A 
ATOM     15  O5  UNL     1      -0.325  -2.544   0.254  0.00  0.00    +0.000 OA
ATOM     16  C13 UNL     1       0.602  -0.434  -0.064  0.00  0.00    +0.000 A 
ATOM     17  C14 UNL     1       1.968  -0.852  -0.085  0.00  0.00    +0.000 A 
ENDROOT
BRANCH   1  19
ATOM     18  C1  UNL     1       5.469   0.505  -0.026  0.00  0.00    +0.000 C 
ATOM     19  O1  UNL     1       4.326  -0.345  -0.039  0.00  0.00    +0.000 OA
ENDBRANCH   1  19
BRANCH  17  20
ATOM     20  O6  UNL     1       2.362  -2.192  -0.155  0.00  0.00    +0.000 OA
ATOM     21  H10 UNL     1       1.783  -2.941  -0.504  0.00  0.00    +0.000 HD
ENDBRANCH  17  20
TORSDOF 2
