REMARK  Name = resultss/4CJN/ligands/lig_217_t1.pdb
REMARK  9 active torsions:
REMARK  status: ('A' for Active; 'I' for Inactive)
REMARK    1  A    between atoms: C1_1  and  C2_2
REMARK    2  A    between atoms: C2_2  and  C3_3
REMARK    3  A    between atoms: C4_4  and  C5_5
REMARK    4  A    between atoms: C5_5  and  C6_6
REMARK    5  A    between atoms: C8_8  and  C9_9
REMARK    6  A    between atoms: C9_9  and  C10_11
REMARK    7  A    between atoms: C11_12  and  C12_13
REMARK    8  A    between atoms: C15_16  and  O2_17
REMARK    9  A    between atoms: C16_18  and  O3_19
REMARK                            x       y       z     vdW  Elec       q    Type
REMARK                         _______ _______ _______ _____ _____    ______ ____
ROOT
ATOM      1  C9  UNL     1       0.594  -0.677  -0.518  0.00  0.00    +0.000 C 
ATOM      2  O1  UNL     1       0.132  -1.127   0.568  0.00  0.00    +0.000 OA
ENDROOT
BRANCH   1   5
ATOM      3  C6  UNL     1      -2.719  -0.745  -1.275  0.00  0.00    +0.000 C 
ATOM      4  C7  UNL     1      -1.585  -0.062  -1.505  0.00  0.00    +0.000 C 
ATOM      5  C8  UNL     1      -0.256  -0.724  -1.761  0.00  0.00    +0.000 C 
ATOM      6  C18 UNL     1      -0.415  -2.151  -2.218  0.00  0.00    +0.000 C 
ATOM      7  O4  UNL     1       0.402  -2.633  -2.989  0.00  0.00    +0.000 OA
ATOM      8  C19 UNL     1      -1.500  -3.021  -1.651  0.00  0.00    +0.000 C 
ATOM      9  C20 UNL     1      -2.726  -2.229  -1.296  0.00  0.00    +0.000 C 
ATOM     10  O5  UNL     1      -3.776  -2.854  -0.986  0.00  0.00    +0.000 OA
BRANCH   3  11
ATOM     11  C5  UNL     1      -3.982   0.007  -0.928  0.00  0.00    +0.000 C 
BRANCH  11  15
ATOM     12  C1  UNL     1      -5.204   0.952   2.648  0.00  0.00    +0.000 C 
ATOM     13  C2  UNL     1      -5.151   0.807   1.149  0.00  0.00    +0.000 C 
ATOM     14  C3  UNL     1      -6.277   1.394   0.335  0.00  0.00    +0.000 C 
ATOM     15  C4  UNL     1      -4.107   0.180   0.566  0.00  0.00    +0.000 C 
ENDBRANCH  11  15
ENDBRANCH   3  11
ENDBRANCH   1   5
BRANCH   1  16
ATOM     16  C10 UNL     1       1.967  -0.133  -0.576  0.00  0.00    +0.000 C 
ATOM     17  C11 UNL     1       2.769  -0.104   0.497  0.00  0.00    +0.000 C 
BRANCH  17  18
ATOM     18  C12 UNL     1       4.155   0.423   0.474  0.00  0.00    +0.000 A 
ATOM     19  C13 UNL     1       4.592   1.357  -0.486  0.00  0.00    +0.000 A 
ATOM     20  C14 UNL     1       5.905   1.836  -0.460  0.00  0.00    +0.000 A 
ATOM     21  C15 UNL     1       6.798   1.401   0.523  0.00  0.00    +0.000 A 
ATOM     22  C16 UNL     1       6.371   0.481   1.494  0.00  0.00    +0.000 A 
ATOM     23  C17 UNL     1       5.053   0.002   1.469  0.00  0.00    +0.000 A 
BRANCH  21  24
ATOM     24  O2  UNL     1       8.102   1.895   0.521  0.00  0.00    +0.000 OA
ATOM     25  H16 UNL     1       8.786   1.612   1.213  0.00  0.00    +0.000 HD
ENDBRANCH  21  24
BRANCH  22  26
ATOM     26  O3  UNL     1       7.255   0.046   2.481  0.00  0.00    +0.000 OA
ATOM     27  H17 UNL     1       6.973  -0.618   3.192  0.00  0.00    +0.000 HD
ENDBRANCH  22  26
ENDBRANCH  17  18
ENDBRANCH   1  16
TORSDOF 7
