REMARK  Name = resultss/4CJN/ligands/lig_263_t1.pdb
REMARK  8 active torsions:
REMARK  status: ('A' for Active; 'I' for Inactive)
REMARK    1  A    between atoms: C1_1  and  O1_2
REMARK    2  A    between atoms: O1_2  and  C2_3
REMARK    3  A    between atoms: C5_6  and  C6_7
REMARK    4  A    between atoms: C6_7  and  N1_8
REMARK    5  A    between atoms: C7_9  and  O2_10
REMARK    6  A    between atoms: C7_9  and  C8_11
REMARK    7  A    between atoms: C9_12  and  N2_13
REMARK    8  A    between atoms: C10_14  and  C11_16
REMARK                            x       y       z     vdW  Elec       q    Type
REMARK                         _______ _______ _______ _____ _____    ______ ____
ROOT
ATOM      1  C8  UNL     1      -1.121  -0.586  -0.315  0.00  0.00    +0.000 A 
ATOM      2  C9  UNL     1      -2.529  -0.536  -0.292  0.00  0.00    +0.000 A 
ATOM      3  S1  UNL     1      -3.162  -2.094  -0.017  0.00  0.00    +0.000 S 
ATOM      4  C16 UNL     1      -1.651  -2.809   0.062  0.00  0.00    +0.000 A 
ATOM      5  C17 UNL     1      -0.674  -1.900  -0.108  0.00  0.00    +0.000 A 
ATOM      6  C18 UNL     1       0.668  -2.524  -0.092  0.00  0.00    +0.000 C 
ATOM      7  C19 UNL     1       0.360  -4.029   0.123  0.00  0.00    +0.000 C 
ATOM      8  C20 UNL     1      -1.177  -4.191   0.226  0.00  0.00    +0.000 C 
ENDROOT
BRANCH   2   9
ATOM      9  N2  UNL     1      -3.321   0.661  -0.344  0.00  0.00    +0.000 N 
ATOM     10  C10 UNL     1      -4.692   0.671  -0.773  0.00  0.00    +0.000 C 
ATOM     11  O3  UNL     1      -5.135  -0.281  -1.472  0.00  0.00    +0.000 OA
ATOM     12  H9  UNL     1      -2.879   1.562  -0.061  0.00  0.00    +0.000 HD
BRANCH  10  13
ATOM     13  C11 UNL     1      -5.586   1.808  -0.446  0.00  0.00    +0.000 A 
ATOM     14  C12 UNL     1      -6.738   2.051  -1.213  0.00  0.00    +0.000 A 
ATOM     15  C13 UNL     1      -7.580   3.119  -0.900  0.00  0.00    +0.000 A 
ATOM     16  C14 UNL     1      -7.271   3.937   0.186  0.00  0.00    +0.000 A 
ATOM     17  N3  UNL     1      -6.163   3.687   0.931  0.00  0.00    +0.000 NA
ATOM     18  C15 UNL     1      -5.324   2.655   0.646  0.00  0.00    +0.000 A 
ENDBRANCH  10  13
ENDBRANCH   2   9
BRANCH   1  20
ATOM     19  N1  UNL     1       1.027   0.479  -0.238  0.00  0.00    +0.000 NA
ATOM     20  C7  UNL     1      -0.225   0.559  -0.584  0.00  0.00    +0.000 C 
BRANCH  20  21
ATOM     21  O2  UNL     1      -0.731   1.695  -1.223  0.00  0.00    +0.000 OA
ATOM     22  H8  UNL     1      -0.169   2.509  -1.435  0.00  0.00    +0.000 HD
ENDBRANCH  20  21
BRANCH  19  23
ATOM     23  C6  UNL     1       2.033   1.511  -0.454  0.00  0.00    +0.000 C 
BRANCH  23  27
ATOM     24  C2  UNL     1       5.784   0.011   1.071  0.00  0.00    +0.000 A 
ATOM     25  C3  UNL     1       4.966   0.819   1.870  0.00  0.00    +0.000 A 
ATOM     26  C4  UNL     1       3.756   1.315   1.376  0.00  0.00    +0.000 A 
ATOM     27  C5  UNL     1       3.354   1.021   0.064  0.00  0.00    +0.000 A 
ATOM     28  C21 UNL     1       4.164   0.199  -0.735  0.00  0.00    +0.000 A 
ATOM     29  C22 UNL     1       5.373  -0.298  -0.239  0.00  0.00    +0.000 A 
BRANCH  24  31
ATOM     30  C1  UNL     1       7.912  -1.292   0.918  0.00  0.00    +0.000 C 
ATOM     31  O1  UNL     1       6.987  -0.463   1.615  0.00  0.00    +0.000 OA
ENDBRANCH  24  31
ENDBRANCH  23  27
ENDBRANCH  19  23
ENDBRANCH   1  20
TORSDOF 7
