REMARK  Name = resultss/4CJN/ligands/lig_423_t1.pdb
REMARK  7 active torsions:
REMARK  status: ('A' for Active; 'I' for Inactive)
REMARK    1  A    between atoms: C1_2  and  C10_19
REMARK    2  A    between atoms: N1_3  and  N2_4
REMARK    3  A    between atoms: C2_5  and  S1_6
REMARK    4  A    between atoms: N3_7  and  C3_8
REMARK    5  A    between atoms: C6_11  and  O2_12
REMARK    6  A    between atoms: O2_12  and  C7_13
REMARK    7  A    between atoms: C20_30  and  C21_31
REMARK                            x       y       z     vdW  Elec       q    Type
REMARK                         _______ _______ _______ _____ _____    ______ ____
ROOT
ATOM      1  O1  UNL     1       1.223   0.076   1.165  0.00  0.00    +0.000 OA
ATOM      2  C1  UNL     1       0.462   0.059   0.159  0.00  0.00    +0.000 C 
ATOM      3  N1  UNL     1       1.033   0.075  -1.155  0.00  0.00    +0.000 N 
ATOM      4  H1  UNL     1       0.402   0.089  -1.986  0.00  0.00    +0.000 HD
ENDROOT
BRANCH   2   5
ATOM      5  C10 UNL     1      -1.005   0.022   0.344  0.00  0.00    +0.000 A 
ATOM      6  C11 UNL     1      -1.570   0.035   1.638  0.00  0.00    +0.000 A 
ATOM      7  C12 UNL     1      -2.956  -0.019   1.727  0.00  0.00    +0.000 A 
ATOM      8  C13 UNL     1      -3.761  -0.077   0.610  0.00  0.00    +0.000 A 
ATOM      9  N4  UNL     1      -5.067  -0.189   0.950  0.00  0.00    +0.000 N 
ATOM     10  C14 UNL     1      -5.075  -0.181   2.300  0.00  0.00    +0.000 A 
ATOM     11  C15 UNL     1      -6.185  -0.286   3.136  0.00  0.00    +0.000 A 
ATOM     12  C16 UNL     1      -5.967  -0.277   4.527  0.00  0.00    +0.000 A 
ATOM     13  C17 UNL     1      -4.658  -0.171   5.048  0.00  0.00    +0.000 A 
ATOM     14  C18 UNL     1      -3.551  -0.073   4.184  0.00  0.00    +0.000 A 
ATOM     15  C19 UNL     1      -3.799  -0.078   2.813  0.00  0.00    +0.000 A 
ATOM     16  C20 UNL     1      -3.189  -0.072  -0.670  0.00  0.00    +0.000 A 
ATOM     17  N5  UNL     1      -1.825  -0.032  -0.754  0.00  0.00    +0.000 NA
ATOM     18  H9  UNL     1      -5.893  -0.297   0.321  0.00  0.00    +0.000 HD
BRANCH  16  19
ATOM     19  C21 UNL     1      -3.991  -0.115  -1.910  0.00  0.00    +0.000 A 
ATOM     20  C22 UNL     1      -3.603  -0.962  -2.962  0.00  0.00    +0.000 A 
ATOM     21  C23 UNL     1      -4.339  -0.994  -4.151  0.00  0.00    +0.000 A 
ATOM     22  C24 UNL     1      -5.458  -0.171  -4.305  0.00  0.00    +0.000 A 
ATOM     23  C25 UNL     1      -5.838   0.690  -3.273  0.00  0.00    +0.000 A 
ATOM     24  C26 UNL     1      -5.106   0.726  -2.082  0.00  0.00    +0.000 A 
ENDBRANCH  16  19
ENDBRANCH   2   5
BRANCH   3  25
ATOM     25  N2  UNL     1       2.430   0.075  -1.306  0.00  0.00    +0.000 NA
ATOM     26  C2  UNL     1       3.048   0.107  -2.452  0.00  0.00    +0.000 C 
ATOM     27  N3  UNL     1       4.482   0.074  -2.497  0.00  0.00    +0.000 N 
ATOM     28  H3  UNL     1       4.929  -0.195  -3.403  0.00  0.00    +0.000 HD
BRANCH  27  29
ATOM     29  C3  UNL     1       5.334   0.266  -1.354  0.00  0.00    +0.000 A 
ATOM     30  C4  UNL     1       6.530  -0.459  -1.258  0.00  0.00    +0.000 A 
ATOM     31  C5  UNL     1       7.382  -0.281  -0.163  0.00  0.00    +0.000 A 
ATOM     32  C6  UNL     1       7.056   0.644   0.847  0.00  0.00    +0.000 A 
ATOM     33  C8  UNL     1       5.875   1.386   0.735  0.00  0.00    +0.000 A 
ATOM     34  C9  UNL     1       5.022   1.206  -0.358  0.00  0.00    +0.000 A 
BRANCH  32  35
ATOM     35  O2  UNL     1       7.871   0.860   1.971  0.00  0.00    +0.000 OA
BRANCH  35  36
ATOM     36  C7  UNL     1       9.089   0.175   2.249  0.00  0.00    +0.000 C 
ATOM     37  F1  UNL     1       8.858  -1.184   2.358  0.00  0.00    +0.000 F 
ATOM     38  F2  UNL     1      10.012   0.418   1.247  0.00  0.00    +0.000 F 
ATOM     39  F3  UNL     1       9.600   0.637   3.446  0.00  0.00    +0.000 F 
ENDBRANCH  35  36
ENDBRANCH  32  35
ENDBRANCH  27  29
BRANCH  26  40
ATOM     40  S1  UNL     1       2.148   0.118  -4.009  0.00  0.00    +0.000 S 
ATOM     41  H2  UNL     1       2.116  -1.288  -4.061  0.00  0.00    +0.000 HD
ENDBRANCH  26  40
ENDBRANCH   3  25
TORSDOF 7
