REMARK  Name = resultss/4CJN/ligands/lig_410_t0.pdb
REMARK  6 active torsions:
REMARK  status: ('A' for Active; 'I' for Inactive)
REMARK    1  A    between atoms: C1_2  and  C9_15
REMARK    2  A    between atoms: N1_3  and  N2_4
REMARK    3  A    between atoms: N2_4  and  C2_5
REMARK    4  A    between atoms: C2_5  and  N3_7
REMARK    5  A    between atoms: N3_7  and  C3_8
REMARK    6  A    between atoms: C19_26  and  C20_27
REMARK                            x       y       z     vdW  Elec       q    Type
REMARK                         _______ _______ _______ _____ _____    ______ ____
ROOT
ATOM      1  C9  UNL     1      -0.357   0.620   0.409  0.00  0.00    +0.000 A 
ATOM      2  C10 UNL     1      -1.057   1.846   0.429  0.00  0.00    +0.000 A 
ATOM      3  C11 UNL     1      -2.419   1.805   0.153  0.00  0.00    +0.000 A 
ATOM      4  C12 UNL     1      -3.073   0.628  -0.137  0.00  0.00    +0.000 A 
ATOM      5  N4  UNL     1      -4.401   0.831  -0.306  0.00  0.00    +0.000 N 
ATOM      6  C13 UNL     1      -4.571   2.160  -0.137  0.00  0.00    +0.000 A 
ATOM      7  C14 UNL     1      -5.769   2.871  -0.201  0.00  0.00    +0.000 A 
ATOM      8  C15 UNL     1      -5.725   4.259   0.025  0.00  0.00    +0.000 A 
ATOM      9  C16 UNL     1      -4.500   4.902   0.316  0.00  0.00    +0.000 A 
ATOM     10  C17 UNL     1      -3.305   4.163   0.382  0.00  0.00    +0.000 A 
ATOM     11  C18 UNL     1      -3.378   2.792   0.145  0.00  0.00    +0.000 A 
ATOM     12  C19 UNL     1      -2.364  -0.581  -0.170  0.00  0.00    +0.000 A 
ATOM     13  N5  UNL     1      -1.028  -0.540   0.116  0.00  0.00    +0.000 NA
ATOM     14  H9  UNL     1      -5.147   0.124  -0.489  0.00  0.00    +0.000 HD
ENDROOT
BRANCH  12  15
ATOM     15  C20 UNL     1      -2.997  -1.877  -0.491  0.00  0.00    +0.000 A 
ATOM     16  C21 UNL     1      -3.858  -2.010  -1.595  0.00  0.00    +0.000 A 
ATOM     17  C22 UNL     1      -4.427  -3.250  -1.900  0.00  0.00    +0.000 A 
ATOM     18  C23 UNL     1      -4.133  -4.369  -1.116  0.00  0.00    +0.000 A 
ATOM     19  C24 UNL     1      -3.261  -4.251  -0.030  0.00  0.00    +0.000 A 
ATOM     20  C25 UNL     1      -2.689  -3.012   0.278  0.00  0.00    +0.000 A 
ENDBRANCH  12  15
BRANCH   1  22
ATOM     21  O1  UNL     1       1.714   1.637   0.965  0.00  0.00    +0.000 OA
ATOM     22  C1  UNL     1       1.092   0.572   0.702  0.00  0.00    +0.000 C 
ATOM     23  N1  UNL     1       1.798  -0.679   0.692  0.00  0.00    +0.000 N 
ATOM     24  H1  UNL     1       1.273  -1.556   0.476  0.00  0.00    +0.000 HD
BRANCH  23  25
ATOM     25  N2  UNL     1       3.184  -0.737   0.928  0.00  0.00    +0.000 N 
ATOM     26  H2  UNL     1       3.725   0.150   1.039  0.00  0.00    +0.000 HD
BRANCH  25  27
ATOM     27  C2  UNL     1       3.900  -1.982   0.984  0.00  0.00    +0.000 C 
ATOM     28  S1  UNL     1       3.123  -3.369   1.391  0.00  0.00    +0.000 S 
BRANCH  27  29
ATOM     29  N3  UNL     1       5.333  -1.997   0.884  0.00  0.00    +0.000 N 
ATOM     30  H3  UNL     1       5.848  -2.791   1.325  0.00  0.00    +0.000 HD
BRANCH  29  31
ATOM     31  C3  UNL     1       6.090  -0.997   0.181  0.00  0.00    +0.000 A 
ATOM     32  C4  UNL     1       5.591  -0.426  -1.005  0.00  0.00    +0.000 A 
ATOM     33  C5  UNL     1       6.342   0.520  -1.707  0.00  0.00    +0.000 A 
ATOM     34  C6  UNL     1       7.600   0.902  -1.239  0.00  0.00    +0.000 A 
ATOM     35  C7  UNL     1       8.113   0.334  -0.071  0.00  0.00    +0.000 A 
ATOM     36  C8  UNL     1       7.369  -0.618   0.638  0.00  0.00    +0.000 A 
ATOM     37 CL1  UNL     1       8.048  -1.290   2.115  0.00  0.00    +0.000 Cl
ENDBRANCH  29  31
ENDBRANCH  27  29
ENDBRANCH  25  27
ENDBRANCH  23  25
ENDBRANCH   1  22
TORSDOF 6
