REMARK  Name = resultss/4CJN/ligands/lig_243_t0.pdb
REMARK  2 active torsions:
REMARK  status: ('A' for Active; 'I' for Inactive)
REMARK    1  A    between atoms: N3_12  and  N4_13
REMARK    2  A    between atoms: C9_14  and  C10_15
REMARK                            x       y       z     vdW  Elec       q    Type
REMARK                         _______ _______ _______ _____ _____    ______ ____
ROOT
ATOM      1  O1  UNL     1       0.460   1.681   1.060  0.00  0.00    +0.000 OA
ATOM      2  C1  UNL     1      -0.535   1.156   0.492  0.00  0.00    +0.000 A 
ATOM      3  N1  UNL     1      -1.630   0.815   1.228  0.00  0.00    +0.000 N 
ATOM      4  C2  UNL     1      -2.741   0.294   0.636  0.00  0.00    +0.000 A 
ATOM      5  C3  UNL     1      -3.871  -0.053   1.392  0.00  0.00    +0.000 A 
ATOM      6  C4  UNL     1      -5.003  -0.576   0.758  0.00  0.00    +0.000 A 
ATOM      7  C5  UNL     1      -5.013  -0.753  -0.630  0.00  0.00    +0.000 A 
ATOM      8  C6  UNL     1      -3.892  -0.410  -1.391  0.00  0.00    +0.000 A 
ATOM      9  C7  UNL     1      -2.755   0.112  -0.763  0.00  0.00    +0.000 A 
ATOM     10  N2  UNL     1      -1.659   0.447  -1.490  0.00  0.00    +0.000 NA
ATOM     11  C8  UNL     1      -0.539   0.943  -0.901  0.00  0.00    +0.000 A 
ATOM     12  N3  UNL     1       0.583   1.299  -1.724  0.00  0.00    +0.000 N 
ATOM     13  H1  UNL     1      -1.614   0.969   2.263  0.00  0.00    +0.000 HD
ATOM     14  H6  UNL     1       0.392   1.763  -2.640  0.00  0.00    +0.000 HD
ENDROOT
BRANCH  12  15
ATOM     15  N4  UNL     1       1.923   1.020  -1.391  0.00  0.00    +0.000 NA
ATOM     16  C9  UNL     1       2.281   0.037  -0.622  0.00  0.00    +0.000 C 
BRANCH  16  17
ATOM     17  C10 UNL     1       3.696  -0.179  -0.308  0.00  0.00    +0.000 A 
ATOM     18  C11 UNL     1       4.194  -1.197   0.493  0.00  0.00    +0.000 A 
ATOM     19  C12 UNL     1       5.588  -1.162   0.624  0.00  0.00    +0.000 A 
ATOM     20  C13 UNL     1       6.188  -0.118  -0.069  0.00  0.00    +0.000 A 
ATOM     21  S1  UNL     1       4.984   0.761  -0.847  0.00  0.00    +0.000 S 
ENDBRANCH  16  17
ENDBRANCH  12  15
TORSDOF 2
