REMARK  Name = resultss/4CJN/ligands/lig_290_t1.pdb
REMARK  1 active torsions:
REMARK  status: ('A' for Active; 'I' for Inactive)
REMARK    1  A    between atoms: C4_5  and  O2_6
REMARK                            x       y       z     vdW  Elec       q    Type
REMARK                         _______ _______ _______ _____ _____    ______ ____
ROOT
ATOM      1  O1  UNL     1      -0.195   2.404   1.042  0.00  0.00    +0.000 OA
ATOM      2  C1  UNL     1      -0.116   1.239   0.563  0.00  0.00    +0.000 A 
ATOM      3  C2  UNL     1      -1.284   0.490   0.344  0.00  0.00    +0.000 A 
ATOM      4  C3  UNL     1      -2.565   0.994   0.643  0.00  0.00    +0.000 A 
ATOM      5  C4  UNL     1      -3.703   0.213   0.410  0.00  0.00    +0.000 A 
ATOM      6  C5  UNL     1      -3.568  -1.076  -0.124  0.00  0.00    +0.000 A 
ATOM      7  C6  UNL     1      -2.301  -1.583  -0.425  0.00  0.00    +0.000 A 
ATOM      8  C7  UNL     1      -1.160  -0.808  -0.194  0.00  0.00    +0.000 A 
ATOM      9  O3  UNL     1       0.037  -1.303  -0.484  0.00  0.00    +0.000 OA
ATOM     10  C8  UNL     1       1.167  -0.628  -0.298  0.00  0.00    +0.000 A 
ATOM     11  C9  UNL     1       2.459  -1.318  -0.644  0.00  0.00    +0.000 C 
ATOM     12  C10 UNL     1       3.570  -0.334  -0.859  0.00  0.00    +0.000 C 
ATOM     13  O4  UNL     1       4.384  -0.513  -1.753  0.00  0.00    +0.000 OA
ATOM     14  C11 UNL     1       3.742   0.808   0.096  0.00  0.00    +0.000 C 
ATOM     15  C12 UNL     1       2.417   1.427   0.437  0.00  0.00    +0.000 C 
ATOM     16  O5  UNL     1       2.412   2.587   0.931  0.00  0.00    +0.000 OA
ATOM     17  C13 UNL     1       1.140   0.679   0.242  0.00  0.00    +0.000 A 
ENDROOT
BRANCH   5  18
ATOM     18  O2  UNL     1      -4.962   0.726   0.712  0.00  0.00    +0.000 OA
ATOM     19  H2  UNL     1      -5.805   0.187   0.555  0.00  0.00    +0.000 HD
ENDBRANCH   5  18
TORSDOF 1
