REMARK  Name = resultss/4CJN/ligands/lig_398_t2.pdb
REMARK  8 active torsions:
REMARK  status: ('A' for Active; 'I' for Inactive)
REMARK    1  A    between atoms: O1_1  and  C1_2
REMARK    2  A    between atoms: N2_11  and  N3_12
REMARK    3  A    between atoms: C9_13  and  C10_14
REMARK    4  A    between atoms: C13_17  and  O2_18
REMARK    5  A    between atoms: O2_18  and  C14_19
REMARK    6  A    between atoms: C14_19  and  C15_20
REMARK    7  A    between atoms: N4_22  and  C17_23
REMARK    8  A    between atoms: C17_23  and  C18_24
REMARK                            x       y       z     vdW  Elec       q    Type
REMARK                         _______ _______ _______ _____ _____    ______ ____
ROOT
ATOM      1  C10 UNL     1      -1.855   0.209  -1.666  0.00  0.00    +0.000 A 
ATOM      2  C11 UNL     1      -0.810  -0.623  -2.095  0.00  0.00    +0.000 A 
ATOM      3  C12 UNL     1       0.124  -1.119  -1.180  0.00  0.00    +0.000 A 
ATOM      4  C13 UNL     1       0.036  -0.773   0.182  0.00  0.00    +0.000 A 
ATOM      5  C24 UNL     1      -0.991   0.079   0.603  0.00  0.00    +0.000 A 
ATOM      6  C25 UNL     1      -1.924   0.576  -0.311  0.00  0.00    +0.000 A 
ENDROOT
BRANCH   1   8
ATOM      7  N3  UNL     1      -4.087   0.851  -2.458  0.00  0.00    +0.000 NA
ATOM      8  C9  UNL     1      -2.810   0.733  -2.670  0.00  0.00    +0.000 C 
BRANCH   7  18
ATOM      9  C1  UNL     1      -6.986   1.161  -1.977  0.00  0.00    +0.000 C 
ATOM     10  N1  UNL     1      -8.172   1.168  -1.441  0.00  0.00    +0.000 NA
ATOM     11  C2  UNL     1      -8.013   0.622  -0.130  0.00  0.00    +0.000 A 
ATOM     12  C3  UNL     1      -9.012   0.431   0.823  0.00  0.00    +0.000 A 
ATOM     13  C4  UNL     1      -8.649  -0.124   2.064  0.00  0.00    +0.000 A 
ATOM     14  C5  UNL     1      -7.305  -0.475   2.326  0.00  0.00    +0.000 A 
ATOM     15  C6  UNL     1      -6.314  -0.273   1.349  0.00  0.00    +0.000 A 
ATOM     16  C7  UNL     1      -6.708   0.278   0.132  0.00  0.00    +0.000 A 
ATOM     17  C8  UNL     1      -5.974   0.615  -1.064  0.00  0.00    +0.000 C 
ATOM     18  N2  UNL     1      -4.701   0.473  -1.255  0.00  0.00    +0.000 NA
BRANCH   9  19
ATOM     19  O1  UNL     1      -6.736   1.621  -3.265  0.00  0.00    +0.000 OA
ATOM     20  H1  UNL     1      -7.486   1.986  -3.840  0.00  0.00    +0.000 HD
ENDBRANCH   9  19
ENDBRANCH   7  18
ENDBRANCH   1   8
BRANCH   4  21
ATOM     21  O2  UNL     1       0.944  -1.246   1.145  0.00  0.00    +0.000 OA
BRANCH  21  22
ATOM     22  C14 UNL     1       2.079  -2.067   0.874  0.00  0.00    +0.000 C 
BRANCH  22  23
ATOM     23  C15 UNL     1       3.136  -1.287   0.156  0.00  0.00    +0.000 A 
ATOM     24  C16 UNL     1       3.657  -0.069   0.530  0.00  0.00    +0.000 A 
ATOM     25  N4  UNL     1       4.600   0.223  -0.381  0.00  0.00    +0.000 N 
ATOM     26  N5  UNL     1       4.670  -0.772  -1.251  0.00  0.00    +0.000 NA
ATOM     27  N6  UNL     1       3.784  -1.710  -0.948  0.00  0.00    +0.000 NA
BRANCH  25  28
ATOM     28  C17 UNL     1       5.489   1.380  -0.377  0.00  0.00    +0.000 C 
BRANCH  28  29
ATOM     29  C18 UNL     1       6.770   1.038   0.335  0.00  0.00    +0.000 A 
ATOM     30  C19 UNL     1       7.855   0.516  -0.389  0.00  0.00    +0.000 A 
ATOM     31  C20 UNL     1       9.036   0.159   0.270  0.00  0.00    +0.000 A 
ATOM     32  C21 UNL     1       9.137   0.308   1.656  0.00  0.00    +0.000 A 
ATOM     33  C22 UNL     1       8.058   0.813   2.386  0.00  0.00    +0.000 A 
ATOM     34  C23 UNL     1       6.874   1.173   1.732  0.00  0.00    +0.000 A 
ATOM     35  F1  UNL     1       5.833   1.650   2.461  0.00  0.00    +0.000 F 
ENDBRANCH  28  29
ENDBRANCH  25  28
ENDBRANCH  22  23
ENDBRANCH  21  22
ENDBRANCH   4  21
TORSDOF 8
