REMARK  Name = resultss/4CJN/ligands/lig_374_t1.pdb
REMARK  11 active torsions:
REMARK  status: ('A' for Active; 'I' for Inactive)
REMARK    1  A    between atoms: C1_1  and  O1_2
REMARK    2  A    between atoms: O1_2  and  C2_3
REMARK    3  A    between atoms: C4_5  and  C5_6
REMARK    4  A    between atoms: C5_6  and  C6_7
REMARK    5  A    between atoms: C5_6  and  C15_20
REMARK    6  A    between atoms: C14_18  and  O4_19
REMARK    7  A    between atoms: C16_21  and  O5_22
REMARK    8  A    between atoms: C25_34  and  O8_35
REMARK    9  A    between atoms: O8_35  and  C26_36
REMARK   10  A    between atoms: C27_37  and  O9_38
REMARK   11  A    between atoms: O9_38  and  C28_39
REMARK                            x       y       z     vdW  Elec       q    Type
REMARK                         _______ _______ _______ _____ _____    ______ ____
ROOT
ATOM      1  C5  UNL     1       0.148   0.086  -1.338  0.00  0.00    +0.000 C 
ENDROOT
BRANCH   1   2
ATOM      2  C6  UNL     1      -0.909   1.197  -1.239  0.00  0.00    +0.000 A 
ATOM      3  C7  UNL     1      -1.159   1.913  -0.039  0.00  0.00    +0.000 A 
ATOM      4  O2  UNL     1      -0.564   1.610   1.029  0.00  0.00    +0.000 OA
ATOM      5  C8  UNL     1      -2.095   2.960  -0.033  0.00  0.00    +0.000 A 
ATOM      6  C9  UNL     1      -2.359   3.722   1.121  0.00  0.00    +0.000 A 
ATOM      7  C10 UNL     1      -3.292   4.765   1.077  0.00  0.00    +0.000 A 
ATOM      8 CL1  UNL     1      -3.609   5.723   2.513  0.00  0.00    +0.000 Cl
ATOM      9  C11 UNL     1      -3.970   5.049  -0.112  0.00  0.00    +0.000 A 
ATOM     10  C12 UNL     1      -3.718   4.294  -1.259  0.00  0.00    +0.000 A 
ATOM     11  C13 UNL     1      -2.783   3.253  -1.225  0.00  0.00    +0.000 A 
ATOM     12  O3  UNL     1      -2.557   2.543  -2.319  0.00  0.00    +0.000 OA
ATOM     13  C14 UNL     1      -1.685   1.543  -2.376  0.00  0.00    +0.000 A 
BRANCH  13  14
ATOM     14  O4  UNL     1      -1.582   0.860  -3.590  0.00  0.00    +0.000 OA
ATOM     15  H9  UNL     1      -1.034   0.023  -3.727  0.00  0.00    +0.000 HD
ENDBRANCH  13  14
ENDBRANCH   1   2
BRANCH   1  16
ATOM     16  C15 UNL     1      -0.431  -1.337  -1.380  0.00  0.00    +0.000 A 
ATOM     17  C16 UNL     1      -1.555  -1.736  -0.613  0.00  0.00    +0.000 A 
ATOM     18  C17 UNL     1      -1.996  -3.081  -0.678  0.00  0.00    +0.000 A 
ATOM     19  C18 UNL     1      -3.126  -3.563   0.021  0.00  0.00    +0.000 A 
ATOM     20  C19 UNL     1      -3.500  -4.909  -0.073  0.00  0.00    +0.000 A 
ATOM     21 CL2  UNL     1      -4.905  -5.493   0.798  0.00  0.00    +0.000 Cl
ATOM     22  C20 UNL     1      -2.758  -5.790  -0.861  0.00  0.00    +0.000 A 
ATOM     23  C21 UNL     1      -1.644  -5.330  -1.567  0.00  0.00    +0.000 A 
ATOM     24  C22 UNL     1      -1.261  -3.987  -1.481  0.00  0.00    +0.000 A 
ATOM     25  O6  UNL     1      -0.196  -3.580  -2.157  0.00  0.00    +0.000 OA
ATOM     26  C23 UNL     1       0.240  -2.328  -2.135  0.00  0.00    +0.000 A 
ATOM     27  O7  UNL     1       1.275  -2.041  -2.796  0.00  0.00    +0.000 OA
BRANCH  17  28
ATOM     28  O5  UNL     1      -2.189  -0.791   0.200  0.00  0.00    +0.000 OA
ATOM     29  H10 UNL     1      -3.005  -0.965   0.765  0.00  0.00    +0.000 HD
ENDBRANCH  17  28
ENDBRANCH   1  16
BRANCH   1  32
ATOM     30  C2  UNL     1       2.611  -0.522   1.579  0.00  0.00    +0.000 A 
ATOM     31  C3  UNL     1       1.499  -0.649   0.723  0.00  0.00    +0.000 A 
ATOM     32  C4  UNL     1       1.314   0.226  -0.362  0.00  0.00    +0.000 A 
ATOM     33  C24 UNL     1       2.225   1.277  -0.545  0.00  0.00    +0.000 A 
ATOM     34  C25 UNL     1       3.334   1.428   0.304  0.00  0.00    +0.000 A 
ATOM     35  C27 UNL     1       3.547   0.517   1.351  0.00  0.00    +0.000 A 
BRANCH  30  37
ATOM     36  C1  UNL     1       1.905  -2.455   3.018  0.00  0.00    +0.000 C 
ATOM     37  O1  UNL     1       2.796  -1.403   2.655  0.00  0.00    +0.000 OA
ENDBRANCH  30  37
BRANCH  34  38
ATOM     38  O8  UNL     1       4.260   2.470   0.133  0.00  0.00    +0.000 OA
ATOM     39  C26 UNL     1       4.166   3.481  -0.864  0.00  0.00    +0.000 C 
ENDBRANCH  34  38
BRANCH  35  40
ATOM     40  O9  UNL     1       4.707   0.702   2.128  0.00  0.00    +0.000 OA
ATOM     41  C28 UNL     1       5.264  -0.235   3.041  0.00  0.00    +0.000 C 
ENDBRANCH  35  40
ENDBRANCH   1  32
TORSDOF 8
