REMARK  Name = resultss/4CJN/ligands/lig_65_t0.pdb
REMARK  11 active torsions:
REMARK  status: ('A' for Active; 'I' for Inactive)
REMARK    1  A    between atoms: O1_1  and  C1_2
REMARK    2  A    between atoms: C1_2  and  C2_3
REMARK    3  A    between atoms: C4_5  and  N1_6
REMARK    4  A    between atoms: N1_6  and  C5_7
REMARK    5  A    between atoms: C5_7  and  C6_8
REMARK    6  A    between atoms: C5_7  and  C7_10
REMARK    7  A    between atoms: C6_8  and  O2_9
REMARK    8  A    between atoms: C7_10  and  O3_11
REMARK    9  A    between atoms: C8_12  and  O4_13
REMARK   10  A    between atoms: C9_14  and  O5_15
REMARK   11  A    between atoms: C10_16  and  O6_17
REMARK                            x       y       z     vdW  Elec       q    Type
REMARK                         _______ _______ _______ _____ _____    ______ ____
ROOT
ATOM      1  C2  UNL     1       1.924  -0.319   1.192  0.00  0.00    +0.000 C 
ATOM      2  C3  UNL     1       0.630  -0.016   1.435  0.00  0.00    +0.000 C 
ATOM      3  C4  UNL     1      -0.198   0.888   0.541  0.00  0.00    +0.000 C 
ATOM      4  C8  UNL     1       0.697   1.870  -0.243  0.00  0.00    +0.000 C 
ATOM      5  C9  UNL     1       1.830   1.102  -0.945  0.00  0.00    +0.000 C 
ATOM      6  C10 UNL     1       2.719   0.374   0.091  0.00  0.00    +0.000 C 
ENDROOT
BRANCH   3   7
ATOM      7  N1  UNL     1      -1.008   0.089  -0.405  0.00  0.00    +0.000 NA
ATOM      8  H6  UNL     1      -0.622  -0.877  -0.535  0.00  0.00    +0.000 HD
BRANCH   7   9
ATOM      9  C5  UNL     1      -2.445   0.040  -0.073  0.00  0.00    +0.000 C 
BRANCH   9  10
ATOM     10  C6  UNL     1      -3.231  -0.475  -1.286  0.00  0.00    +0.000 C 
BRANCH  10  11
ATOM     11  O2  UNL     1      -3.053   0.397  -2.368  0.00  0.00    +0.000 OA
ATOM     12  H10 UNL     1      -3.576   0.013  -3.120  0.00  0.00    +0.000 HD
ENDBRANCH  10  11
ENDBRANCH   9  10
BRANCH   9  13
ATOM     13  C7  UNL     1      -2.728  -0.822   1.178  0.00  0.00    +0.000 C 
BRANCH  13  14
ATOM     14  O3  UNL     1      -2.189  -2.111   1.047  0.00  0.00    +0.000 OA
ATOM     15  H13 UNL     1      -2.875  -2.666   0.594  0.00  0.00    +0.000 HD
ENDBRANCH  13  14
ENDBRANCH   9  13
ENDBRANCH   7   9
ENDBRANCH   3   7
BRANCH   4  16
ATOM     16  O4  UNL     1      -0.063   2.566  -1.198  0.00  0.00    +0.000 OA
ATOM     17  H15 UNL     1      -0.627   3.212  -0.698  0.00  0.00    +0.000 HD
ENDBRANCH   4  16
BRANCH   5  18
ATOM     18  O5  UNL     1       2.605   1.964  -1.742  0.00  0.00    +0.000 OA
ATOM     19  H17 UNL     1       2.973   2.673  -1.151  0.00  0.00    +0.000 HD
ENDBRANCH   5  18
BRANCH   6  20
ATOM     20  O6  UNL     1       3.567  -0.537  -0.562  0.00  0.00    +0.000 OA
ATOM     21  H19 UNL     1       2.997  -1.259  -0.938  0.00  0.00    +0.000 HD
ENDBRANCH   6  20
BRANCH   1  22
ATOM     22  C1  UNL     1       2.641  -1.244   2.144  0.00  0.00    +0.000 C 
BRANCH  22  23
ATOM     23  O1  UNL     1       2.131  -2.541   2.008  0.00  0.00    +0.000 OA
ATOM     24  H1  UNL     1       2.620  -3.099   2.666  0.00  0.00    +0.000 HD
ENDBRANCH  22  23
ENDBRANCH   1  22
TORSDOF 11
