REMARK  Name = resultss/4CJN/ligands/lig_203_t0.pdb
REMARK  12 active torsions:
REMARK  status: ('A' for Active; 'I' for Inactive)
REMARK    1  A    between atoms: C1_1  and  C2_2
REMARK    2  A    between atoms: C2_2  and  C3_3
REMARK    3  A    between atoms: C3_3  and  C4_4
REMARK    4  A    between atoms: C4_4  and  C5_5
REMARK    5  A    between atoms: C5_5  and  C6_6
REMARK    6  A    between atoms: C6_6  and  C7_7
REMARK    7  A    between atoms: C7_7  and  C8_8
REMARK    8  A    between atoms: C8_8  and  S1_9
REMARK    9  A    between atoms: C10_11  and  O1_12
REMARK   10  A    between atoms: C11_13  and  O2_14
REMARK   11  A    between atoms: C12_15  and  C13_16
REMARK   12  A    between atoms: C13_16  and  O3_17
REMARK                            x       y       z     vdW  Elec       q    Type
REMARK                         _______ _______ _______ _____ _____    ______ ____
ROOT
ATOM      1  S1  UNL     1      -1.923   0.349  -0.403  0.00  0.00    +0.000 S 
ATOM      2  C9  UNL     1      -2.744   1.852  -0.840  0.00  0.00    +0.000 C 
ATOM      3  C10 UNL     1      -4.138   1.442  -1.321  0.00  0.00    +0.000 C 
ATOM      4  C11 UNL     1      -4.557   0.169  -0.552  0.00  0.00    +0.000 C 
ATOM      5  C12 UNL     1      -3.323  -0.741  -0.389  0.00  0.00    +0.000 C 
ATOM      6 CL1  UNL     1       0.000   0.000   0.000  0.00  0.00    +0.000 Cl
ENDROOT
BRANCH   3   7
ATOM      7  O1  UNL     1      -4.112   1.167  -2.699  0.00  0.00    +0.000 OA
ATOM      8  H21 UNL     1      -4.096   2.043  -3.166  0.00  0.00    +0.000 HD
ENDBRANCH   3   7
BRANCH   4   9
ATOM      9  O2  UNL     1      -5.029   0.526   0.722  0.00  0.00    +0.000 OA
ATOM     10  H23 UNL     1      -5.950   0.877   0.601  0.00  0.00    +0.000 HD
ENDBRANCH   4   9
BRANCH   1  11
ATOM     11  C8  UNL     1      -1.206   0.464   1.229  0.00  0.00    +0.000 C 
BRANCH  11  12
ATOM     12  C7  UNL     1       0.008   1.402   1.255  0.00  0.00    +0.000 C 
BRANCH  12  13
ATOM     13  C6  UNL     1       1.184   0.948   0.370  0.00  0.00    +0.000 C 
BRANCH  13  14
ATOM     14  C5  UNL     1       1.836  -0.354   0.867  0.00  0.00    +0.000 C 
BRANCH  14  15
ATOM     15  C4  UNL     1       3.076  -0.743   0.044  0.00  0.00    +0.000 C 
BRANCH  15  16
ATOM     16  C3  UNL     1       4.321   0.072   0.433  0.00  0.00    +0.000 C 
BRANCH  16  18
ATOM     17  C1  UNL     1       6.121  -1.664  -0.086  0.00  0.00    +0.000 C 
ATOM     18  C2  UNL     1       5.549  -0.287  -0.420  0.00  0.00    +0.000 C 
ENDBRANCH  16  18
ENDBRANCH  15  16
ENDBRANCH  14  15
ENDBRANCH  13  14
ENDBRANCH  12  13
ENDBRANCH  11  12
ENDBRANCH   1  11
BRANCH   5  19
ATOM     19  C13 UNL     1      -3.203  -1.772  -1.522  0.00  0.00    +0.000 C 
BRANCH  19  20
ATOM     20  O3  UNL     1      -2.074  -2.583  -1.334  0.00  0.00    +0.000 OA
ATOM     21  H27 UNL     1      -2.295  -3.212  -0.599  0.00  0.00    +0.000 HD
ENDBRANCH  19  20
ENDBRANCH   5  19
TORSDOF 11
