REMARK  Name = resultss/4CJN/ligands/lig_113_t0.pdb
REMARK  5 active torsions:
REMARK  status: ('A' for Active; 'I' for Inactive)
REMARK    1  A    between atoms: O1_1  and  C1_2
REMARK    2  A    between atoms: C1_2  and  C2_3
REMARK    3  A    between atoms: C4_6  and  O2_7
REMARK    4  A    between atoms: C5_8  and  O3_9
REMARK    5  A    between atoms: C6_10  and  O4_11
REMARK                            x       y       z     vdW  Elec       q    Type
REMARK                         _______ _______ _______ _____ _____    ______ ____
ROOT
ATOM      1  C2  UNL     1       0.888  -0.049   0.356  0.00  0.00    +0.000 C 
ATOM      2  N1  UNL     1       0.434  -1.448   0.156  0.00  0.00    +0.000 NA
ATOM      3  C3  UNL     1      -1.001  -1.600  -0.161  0.00  0.00    +0.000 C 
ATOM      4  C4  UNL     1      -1.856  -0.462   0.422  0.00  0.00    +0.000 C 
ATOM      5  C5  UNL     1      -1.423   0.907  -0.165  0.00  0.00    +0.000 C 
ATOM      6  C6  UNL     1       0.089   0.943  -0.528  0.00  0.00    +0.000 C 
ATOM      7  H5  UNL     1       0.972  -1.889  -0.627  0.00  0.00    +0.000 HD
ENDROOT
BRANCH   4   8
ATOM      8  O2  UNL     1      -3.225  -0.694   0.200  0.00  0.00    +0.000 OA
ATOM      9  H9  UNL     1      -3.362  -0.780  -0.780  0.00  0.00    +0.000 HD
ENDBRANCH   4   8
BRANCH   5  10
ATOM     10  O3  UNL     1      -1.771   1.943   0.722  0.00  0.00    +0.000 OA
ATOM     11  H11 UNL     1      -1.223   1.833   1.543  0.00  0.00    +0.000 HD
ENDBRANCH   5  10
BRANCH   6  12
ATOM     12  O4  UNL     1       0.581   2.254  -0.385  0.00  0.00    +0.000 OA
ATOM     13  H13 UNL     1       1.245   2.401  -1.109  0.00  0.00    +0.000 HD
ENDBRANCH   6  12
BRANCH   1  14
ATOM     14  C1  UNL     1       2.405   0.063   0.110  0.00  0.00    +0.000 C 
BRANCH  14  15
ATOM     15  O1  UNL     1       3.085  -0.866   0.909  0.00  0.00    +0.000 OA
ATOM     16  H1  UNL     1       4.049  -0.760   0.694  0.00  0.00    +0.000 HD
ENDBRANCH  14  15
ENDBRANCH   1  14
TORSDOF 5
