REMARK  Name = resultss/4CJN/ligands/lig_107_t0.pdb
REMARK  5 active torsions:
REMARK  status: ('A' for Active; 'I' for Inactive)
REMARK    1  A    between atoms: O1_1  and  C1_2
REMARK    2  A    between atoms: C1_2  and  C2_3
REMARK    3  A    between atoms: C4_6  and  O2_7
REMARK    4  A    between atoms: C5_8  and  O3_9
REMARK    5  A    between atoms: C6_10  and  O4_11
REMARK                            x       y       z     vdW  Elec       q    Type
REMARK                         _______ _______ _______ _____ _____    ______ ____
ROOT
ATOM      1  C2  UNL     1       1.185  -0.457   0.307  0.00  0.00    +0.000 C 
ATOM      2  N1  UNL     1       0.442  -1.617  -0.224  0.00  0.00    +0.000 NA
ATOM      3  C3  UNL     1      -0.734  -1.234  -1.023  0.00  0.00    +0.000 C 
ATOM      4  C4  UNL     1      -1.725  -0.388  -0.206  0.00  0.00    +0.000 C 
ATOM      5  C5  UNL     1      -1.022   0.869   0.333  0.00  0.00    +0.000 C 
ATOM      6  C6  UNL     1       0.250   0.479   1.124  0.00  0.00    +0.000 C 
ATOM      7  H5  UNL     1       0.121  -2.208   0.579  0.00  0.00    +0.000 HD
ENDROOT
BRANCH   4   8
ATOM      8  O2  UNL     1      -2.804  -0.003  -1.017  0.00  0.00    +0.000 OA
ATOM      9  H9  UNL     1      -3.381  -0.805  -1.126  0.00  0.00    +0.000 HD
ENDBRANCH   4   8
BRANCH   5  10
ATOM     10  O3  UNL     1      -1.897   1.621   1.139  0.00  0.00    +0.000 OA
ATOM     11  H11 UNL     1      -2.164   1.054   1.909  0.00  0.00    +0.000 HD
ENDBRANCH   5  10
BRANCH   6  12
ATOM     12  O4  UNL     1       0.938   1.612   1.598  0.00  0.00    +0.000 OA
ATOM     13  H13 UNL     1       1.017   2.261   0.852  0.00  0.00    +0.000 HD
ENDBRANCH   6  12
BRANCH   1  14
ATOM     14  C1  UNL     1       1.970   0.247  -0.825  0.00  0.00    +0.000 C 
BRANCH  14  15
ATOM     15  O1  UNL     1       2.995   1.049  -0.302  0.00  0.00    +0.000 OA
ATOM     16  H1  UNL     1       3.727   0.436  -0.029  0.00  0.00    +0.000 HD
ENDBRANCH  14  15
ENDBRANCH   1  14
TORSDOF 5
