REMARK  Name = resultss/4CJN/ligands/lig_245_t1.pdb
REMARK  4 active torsions:
REMARK  status: ('A' for Active; 'I' for Inactive)
REMARK    1  A    between atoms: O1_1  and  C1_2
REMARK    2  A    between atoms: C8_11  and  C9_12
REMARK    3  A    between atoms: C12_15  and  N3_16
REMARK    4  A    between atoms: C14_20  and  N4_21
REMARK                            x       y       z     vdW  Elec       q    Type
REMARK                         _______ _______ _______ _____ _____    ______ ____
ROOT
ATOM      1  C1  UNL     1       3.578   0.263  -1.453  0.00  0.00    +0.000 A 
ATOM      2  N1  UNL     1       3.996  -0.052  -0.198  0.00  0.00    +0.000 NA
ATOM      3  C2  UNL     1       3.118  -0.351   0.800  0.00  0.00    +0.000 A 
ATOM      4  C3  UNL     1       3.599  -0.700   2.066  0.00  0.00    +0.000 A 
ATOM      5  C4  UNL     1       2.709  -1.068   3.076  0.00  0.00    +0.000 A 
ATOM      6  C5  UNL     1       1.338  -1.108   2.820  0.00  0.00    +0.000 A 
ATOM      7  C6  UNL     1       0.841  -0.758   1.561  0.00  0.00    +0.000 A 
ATOM      8  C7  UNL     1       1.721  -0.335   0.541  0.00  0.00    +0.000 A 
ATOM      9  N2  UNL     1       1.311   0.041  -0.716  0.00  0.00    +0.000 N 
ATOM     10  C8  UNL     1       0.081   0.232  -1.263  0.00  0.00    +0.000 A 
ATOM     11  C15 UNL     1       0.208   0.576  -2.600  0.00  0.00    +0.000 A 
ATOM     12  C16 UNL     1       1.558   0.617  -2.883  0.00  0.00    +0.000 A 
ATOM     13  C17 UNL     1       2.201   0.298  -1.702  0.00  0.00    +0.000 A 
ENDROOT
BRANCH  10  14
ATOM     14  C9  UNL     1      -1.201   0.330  -0.541  0.00  0.00    +0.000 A 
ATOM     15  C10 UNL     1      -1.365   1.374   0.381  0.00  0.00    +0.000 A 
ATOM     16  C11 UNL     1      -2.584   1.564   1.031  0.00  0.00    +0.000 A 
ATOM     17  C12 UNL     1      -3.673   0.722   0.762  0.00  0.00    +0.000 A 
ATOM     18  C13 UNL     1      -3.516  -0.320  -0.169  0.00  0.00    +0.000 A 
ATOM     19  C14 UNL     1      -2.289  -0.533  -0.823  0.00  0.00    +0.000 A 
BRANCH  17  20
ATOM     20  N3  UNL     1      -4.931   0.925   1.433  0.00  0.00    +0.000 N 
ATOM     21  O2  UNL     1      -5.906   0.182   1.198  0.00  0.00    +0.000 OA
ATOM     22  O3  UNL     1      -5.079   1.943   2.348  0.00  0.00    +0.000 OA
ENDBRANCH  17  20
BRANCH  19  23
ATOM     23  N4  UNL     1      -2.166  -1.633  -1.745  0.00  0.00    +0.000 N 
ATOM     24  O4  UNL     1      -1.077  -2.224  -1.896  0.00  0.00    +0.000 OA
ATOM     25  O5  UNL     1      -3.285  -2.143  -2.364  0.00  0.00    +0.000 OA
ENDBRANCH  19  23
ENDBRANCH  10  14
BRANCH   1  26
ATOM     26  O1  UNL     1       4.522   0.544  -2.439  0.00  0.00    +0.000 OA
ATOM     27  H1  UNL     1       4.263   0.783  -3.387  0.00  0.00    +0.000 HD
ENDBRANCH   1  26
TORSDOF 4
