REMARK  Name = resultss/4CJN/ligands/lig_212_t0.pdb
REMARK  22 active torsions:
REMARK  status: ('A' for Active; 'I' for Inactive)
REMARK    1  A    between atoms: C1_1  and  C2_2
REMARK    2  A    between atoms: C2_2  and  C3_3
REMARK    3  A    between atoms: C3_3  and  C4_4
REMARK    4  A    between atoms: C4_4  and  C5_5
REMARK    5  A    between atoms: C5_5  and  C6_6
REMARK    6  A    between atoms: C6_6  and  C7_7
REMARK    7  A    between atoms: C7_7  and  C8_8
REMARK    8  A    between atoms: C8_8  and  C9_9
REMARK    9  A    between atoms: C9_9  and  C10_10
REMARK   10  A    between atoms: C10_10  and  C11_11
REMARK   11  A    between atoms: C11_11  and  O1_12
REMARK   12  A    between atoms: C11_11  and  C12_13
REMARK   13  A    between atoms: C12_13  and  O2_14
REMARK   14  A    between atoms: C12_13  and  C13_19
REMARK   15  A    between atoms: O2_14  and  S1_15
REMARK   16  A    between atoms: C13_19  and  O6_20
REMARK   17  A    between atoms: C13_19  and  C14_21
REMARK   18  A    between atoms: C14_21  and  S2_22
REMARK   19  A    between atoms: C16_24  and  O7_25
REMARK   20  A    between atoms: C17_26  and  O8_27
REMARK   21  A    between atoms: C18_28  and  C19_29
REMARK   22  A    between atoms: C19_29  and  O9_30
REMARK                            x       y       z     vdW  Elec       q    Type
REMARK                         _______ _______ _______ _____ _____    ______ ____
ROOT
ATOM      1  C12 UNL     1      -1.497   0.629   0.486  0.00  0.00    +0.000 C 
ENDROOT
BRANCH   1   2
ATOM      2  C13 UNL     1      -2.465   1.354  -0.499  0.00  0.00    +0.000 C 
BRANCH   2   3
ATOM      3  O6  UNL     1      -3.344   2.180   0.219  0.00  0.00    +0.000 OA
ATOM      4  H26 UNL     1      -2.823   2.972   0.515  0.00  0.00    +0.000 HD
ENDBRANCH   2   3
BRANCH   2   5
ATOM      5  C14 UNL     1      -3.284   0.430  -1.425  0.00  0.00    +0.000 C 
BRANCH   5   6
ATOM      6  S2  UNL     1      -4.373  -0.687  -0.548  0.00  0.00    +0.000 S 
ATOM      7  C15 UNL     1      -5.123  -1.814  -1.688  0.00  0.00    +0.000 C 
ATOM      8  C16 UNL     1      -6.552  -1.300  -1.879  0.00  0.00    +0.000 C 
ATOM      9  C17 UNL     1      -7.012  -0.670  -0.546  0.00  0.00    +0.000 C 
ATOM     10  C18 UNL     1      -5.835   0.148   0.023  0.00  0.00    +0.000 C 
BRANCH   9  11
ATOM     11  O8  UNL     1      -8.163   0.120  -0.718  0.00  0.00    +0.000 OA
ATOM     12  H34 UNL     1      -7.943   0.842  -1.364  0.00  0.00    +0.000 HD
ENDBRANCH   9  11
BRANCH   8  13
ATOM     13  O7  UNL     1      -7.420  -2.319  -2.306  0.00  0.00    +0.000 OA
ATOM     14  H32 UNL     1      -7.439  -3.018  -1.602  0.00  0.00    +0.000 HD
ENDBRANCH   8  13
BRANCH  10  15
ATOM     15  C19 UNL     1      -5.847   0.221   1.556  0.00  0.00    +0.000 C 
BRANCH  15  16
ATOM     16  O9  UNL     1      -6.967   0.935   2.006  0.00  0.00    +0.000 OA
ATOM     17  H38 UNL     1      -7.711   0.282   2.082  0.00  0.00    +0.000 HD
ENDBRANCH  15  16
ENDBRANCH  10  15
ENDBRANCH   5   6
ENDBRANCH   2   5
ENDBRANCH   1   2
BRANCH   1  18
ATOM     18  O2  UNL     1      -2.256  -0.109   1.428  0.00  0.00    +0.000 OA
BRANCH  18  19
ATOM     19  S1  UNL     1      -1.972   0.448   3.006  0.00  0.00    +0.000 S 
ATOM     20  O3  UNL     1      -2.827  -0.338   3.959  0.00  0.00    +0.000 OA
ATOM     21  O4  UNL     1      -0.526   0.255   3.372  0.00  0.00    +0.000 OA
ATOM     22  O5  UNL     1      -2.374   2.075   3.130  0.00  0.00    +0.000 OA
ENDBRANCH  18  19
ENDBRANCH   1  18
BRANCH   1  23
ATOM     23  C11 UNL     1      -0.496  -0.335  -0.209  0.00  0.00    +0.000 C 
BRANCH  23  24
ATOM     24  O1  UNL     1       0.325  -0.949   0.752  0.00  0.00    +0.000 OA
ATOM     25  H23 UNL     1      -0.192  -1.696   1.152  0.00  0.00    +0.000 HD
ENDBRANCH  23  24
BRANCH  23  26
ATOM     26  C10 UNL     1       0.395   0.325  -1.291  0.00  0.00    +0.000 C 
BRANCH  26  27
ATOM     27  C9  UNL     1       1.166   1.598  -0.874  0.00  0.00    +0.000 C 
BRANCH  27  28
ATOM     28  C8  UNL     1       2.140   1.431   0.305  0.00  0.00    +0.000 C 
BRANCH  28  29
ATOM     29  C7  UNL     1       3.275   0.440   0.008  0.00  0.00    +0.000 C 
BRANCH  29  30
ATOM     30  C6  UNL     1       4.290   0.410   1.161  0.00  0.00    +0.000 C 
BRANCH  30  31
ATOM     31  C5  UNL     1       5.362  -0.676   0.978  0.00  0.00    +0.000 C 
BRANCH  31  32
ATOM     32  C4  UNL     1       6.349  -0.349  -0.154  0.00  0.00    +0.000 C 
BRANCH  32  33
ATOM     33  C3  UNL     1       7.482  -1.385  -0.208  0.00  0.00    +0.000 C 
BRANCH  33  35
ATOM     34  C1  UNL     1       9.292   0.075  -1.258  0.00  0.00    +0.000 C 
ATOM     35  C2  UNL     1       8.420  -1.172  -1.405  0.00  0.00    +0.000 C 
ENDBRANCH  33  35
ENDBRANCH  32  33
ENDBRANCH  31  32
ENDBRANCH  30  31
ENDBRANCH  29  30
ENDBRANCH  28  29
ENDBRANCH  27  28
ENDBRANCH  26  27
ENDBRANCH  23  26
ENDBRANCH   1  23
TORSDOF 21
