REMARK  Name = resultss/4CJN/ligands/lig_371_t2.pdb
REMARK  6 active torsions:
REMARK  status: ('A' for Active; 'I' for Inactive)
REMARK    1  A    between atoms: O1_1  and  C1_2
REMARK    2  A    between atoms: C9_13  and  C10_14
REMARK    3  A    between atoms: C10_14  and  C11_15
REMARK    4  A    between atoms: C10_14  and  C17_22
REMARK    5  A    between atoms: C15_19  and  O4_20
REMARK    6  A    between atoms: C18_23  and  O5_24
REMARK                            x       y       z     vdW  Elec       q    Type
REMARK                         _______ _______ _______ _____ _____    ______ ____
ROOT
ATOM      1  C10 UNL     1       0.033   0.638  -1.127  0.00  0.00    +0.000 C 
ENDROOT
BRANCH   1  13
ATOM      2  C1  UNL     1      -2.347  -0.232  -1.389  0.00  0.00    +0.000 A 
ATOM      3  O2  UNL     1      -3.464  -0.770  -0.909  0.00  0.00    +0.000 OA
ATOM      4  C2  UNL     1      -3.618  -1.097   0.367  0.00  0.00    +0.000 A 
ATOM      5  C3  UNL     1      -4.823  -1.665   0.794  0.00  0.00    +0.000 A 
ATOM      6  C4  UNL     1      -5.003  -2.006   2.137  0.00  0.00    +0.000 A 
ATOM      7  C5  UNL     1      -3.978  -1.780   3.062  0.00  0.00    +0.000 A 
ATOM      8 CL1  UNL     1      -4.210  -2.209   4.747  0.00  0.00    +0.000 Cl
ATOM      9  C6  UNL     1      -2.769  -1.213   2.644  0.00  0.00    +0.000 A 
ATOM     10  C7  UNL     1      -2.578  -0.870   1.292  0.00  0.00    +0.000 A 
ATOM     11  C8  UNL     1      -1.382  -0.298   0.827  0.00  0.00    +0.000 A 
ATOM     12  O3  UNL     1      -0.451  -0.048   1.640  0.00  0.00    +0.000 OA
ATOM     13  C9  UNL     1      -1.239   0.008  -0.547  0.00  0.00    +0.000 A 
BRANCH   2  14
ATOM     14  O1  UNL     1      -2.292   0.096  -2.741  0.00  0.00    +0.000 OA
ATOM     15  H1  UNL     1      -3.085  -0.072  -3.348  0.00  0.00    +0.000 HD
ENDBRANCH   2  14
ENDBRANCH   1  13
BRANCH   1  16
ATOM     16  C17 UNL     1       1.319   0.013  -0.567  0.00  0.00    +0.000 A 
ATOM     17  C18 UNL     1       1.688  -1.282  -0.996  0.00  0.00    +0.000 A 
ATOM     18  C19 UNL     1       2.871  -1.876  -0.494  0.00  0.00    +0.000 A 
ATOM     19  C20 UNL     1       3.330  -3.150  -0.892  0.00  0.00    +0.000 A 
ATOM     20  C21 UNL     1       4.509  -3.679  -0.353  0.00  0.00    +0.000 A 
ATOM     21 CL2  UNL     1       5.070  -5.264  -0.857  0.00  0.00    +0.000 Cl
ATOM     22  C22 UNL     1       5.243  -2.949   0.583  0.00  0.00    +0.000 A 
ATOM     23  C23 UNL     1       4.803  -1.687   0.984  0.00  0.00    +0.000 A 
ATOM     24  C24 UNL     1       3.627  -1.148   0.453  0.00  0.00    +0.000 A 
ATOM     25  O6  UNL     1       3.232   0.051   0.855  0.00  0.00    +0.000 OA
ATOM     26  C25 UNL     1       2.136   0.645   0.403  0.00  0.00    +0.000 A 
ATOM     27  O7  UNL     1       1.837   1.774   0.872  0.00  0.00    +0.000 OA
BRANCH  17  28
ATOM     28  O5  UNL     1       0.854  -1.940  -1.909  0.00  0.00    +0.000 OA
ATOM     29  H11 UNL     1       0.998  -2.878  -2.253  0.00  0.00    +0.000 HD
ENDBRANCH  17  28
ENDBRANCH   1  16
BRANCH   1  30
ATOM     30  C11 UNL     1       0.009   2.163  -1.124  0.00  0.00    +0.000 A 
ATOM     31  C12 UNL     1       0.808   2.856  -2.053  0.00  0.00    +0.000 A 
ATOM     32  C13 UNL     1       0.833   4.252  -2.069  0.00  0.00    +0.000 A 
ATOM     33  C14 UNL     1       0.066   4.978  -1.156  0.00  0.00    +0.000 A 
ATOM     34  C15 UNL     1      -0.726   4.307  -0.217  0.00  0.00    +0.000 A 
ATOM     35  C16 UNL     1      -0.753   2.908  -0.199  0.00  0.00    +0.000 A 
BRANCH  34  36
ATOM     36  O4  UNL     1      -1.490   5.021   0.704  0.00  0.00    +0.000 OA
ATOM     37  H9  UNL     1      -1.493   6.034   0.718  0.00  0.00    +0.000 HD
ENDBRANCH  34  36
ENDBRANCH   1  30
TORSDOF 6
