REMARK  Name = resultss/4CJN/ligands/lig_134_t0.pdb
REMARK  16 active torsions:
REMARK  status: ('A' for Active; 'I' for Inactive)
REMARK    1  A    between atoms: C1_1  and  O1_2
REMARK    2  A    between atoms: O1_2  and  C2_3
REMARK    3  A    between atoms: C2_3  and  C3_4
REMARK    4  A    between atoms: C2_3  and  C6_10
REMARK    5  A    between atoms: C3_4  and  O2_5
REMARK    6  A    between atoms: C3_4  and  C4_6
REMARK    7  A    between atoms: C4_6  and  O3_7
REMARK    8  A    between atoms: C4_6  and  C5_8
REMARK    9  A    between atoms: C5_8  and  O4_9
REMARK   10  A    between atoms: C6_10  and  O5_11
REMARK   11  A    between atoms: C6_10  and  C7_12
REMARK   12  A    between atoms: C7_12  and  S1_13
REMARK   13  A    between atoms: C9_15  and  O6_16
REMARK   14  A    between atoms: C10_17  and  O7_18
REMARK   15  A    between atoms: C11_19  and  C12_20
REMARK   16  A    between atoms: C12_20  and  O8_21
REMARK                            x       y       z     vdW  Elec       q    Type
REMARK                         _______ _______ _______ _____ _____    ______ ____
ROOT
ATOM      1  C6  UNL     1       0.686  -0.173   0.435  0.00  0.00    +0.000 C 
ENDROOT
BRANCH   1   2
ATOM      2  O5  UNL     1       0.410  -0.119   1.813  0.00  0.00    +0.000 OA
ATOM      3  H13 UNL     1       0.104  -1.021   2.093  0.00  0.00    +0.000 HD
ENDBRANCH   1   2
BRANCH   1   4
ATOM      4  C2  UNL     1       1.823  -1.185   0.127  0.00  0.00    +0.000 C 
BRANCH   4   6
ATOM      5  C1  UNL     1       2.238  -2.373  -1.840  0.00  0.00    +0.000 C 
ATOM      6  O1  UNL     1       2.149  -1.093  -1.254  0.00  0.00    +0.000 OA
ENDBRANCH   4   6
BRANCH   4   7
ATOM      7  C3  UNL     1       3.114  -0.959   0.964  0.00  0.00    +0.000 C 
BRANCH   7   8
ATOM      8  O2  UNL     1       2.855  -1.225   2.321  0.00  0.00    +0.000 OA
ATOM      9  H6  UNL     1       3.708  -1.525   2.730  0.00  0.00    +0.000 HD
ENDBRANCH   7   8
BRANCH   7  10
ATOM     10  C4  UNL     1       3.726   0.458   0.793  0.00  0.00    +0.000 C 
BRANCH  10  11
ATOM     11  O3  UNL     1       3.021   1.381   1.584  0.00  0.00    +0.000 OA
ATOM     12  H8  UNL     1       3.102   2.266   1.142  0.00  0.00    +0.000 HD
ENDBRANCH  10  11
BRANCH  10  13
ATOM     13  C5  UNL     1       5.211   0.470   1.197  0.00  0.00    +0.000 C 
BRANCH  13  14
ATOM     14  O4  UNL     1       5.786   1.717   0.910  0.00  0.00    +0.000 OA
ATOM     15  H11 UNL     1       5.584   2.310   1.681  0.00  0.00    +0.000 HD
ENDBRANCH  13  14
ENDBRANCH  10  13
ENDBRANCH   7  10
ENDBRANCH   4   7
ENDBRANCH   1   4
BRANCH   1  16
ATOM     16  C7  UNL     1      -0.592  -0.517  -0.354  0.00  0.00    +0.000 C 
BRANCH  16  17
ATOM     17  S1  UNL     1      -1.852   0.723  -0.103  0.00  0.00    +0.000 S 
ATOM     18  C8  UNL     1      -2.707   0.468   1.424  0.00  0.00    +0.000 C 
ATOM     19  C9  UNL     1      -4.198   0.504   1.078  0.00  0.00    +0.000 C 
ATOM     20  C10 UNL     1      -4.370  -0.044  -0.355  0.00  0.00    +0.000 C 
ATOM     21  C11 UNL     1      -3.204   0.469  -1.224  0.00  0.00    +0.000 C 
BRANCH  19  22
ATOM     22  O6  UNL     1      -4.675   1.824   1.133  0.00  0.00    +0.000 OA
ATOM     23  H19 UNL     1      -4.788   2.048   2.094  0.00  0.00    +0.000 HD
ENDBRANCH  19  22
BRANCH  20  24
ATOM     24  O7  UNL     1      -4.331  -1.449  -0.327  0.00  0.00    +0.000 OA
ATOM     25  H21 UNL     1      -5.215  -1.756   0.004  0.00  0.00    +0.000 HD
ENDBRANCH  20  24
BRANCH  21  26
ATOM     26  C12 UNL     1      -3.551   1.778  -1.951  0.00  0.00    +0.000 C 
BRANCH  26  27
ATOM     27  O8  UNL     1      -2.514   2.144  -2.822  0.00  0.00    +0.000 OA
ATOM     28  H25 UNL     1      -1.859   2.665  -2.288  0.00  0.00    +0.000 HD
ENDBRANCH  26  27
ENDBRANCH  21  26
ENDBRANCH  16  17
ENDBRANCH   1  16
TORSDOF 15
REMARK  Name = resultss/4CJN/ligands/lig_134_t0.pdb
REMARK  16 active torsions:
REMARK  status: ('A' for Active; 'I' for Inactive)
REMARK    1  A    between atoms: C1_1  and  O1_2
REMARK    2  A    between atoms: O1_2  and  C2_3
REMARK    3  A    between atoms: C2_3  and  C3_4
REMARK    4  A    between atoms: C2_3  and  C6_10
REMARK    5  A    between atoms: C3_4  and  O2_5
REMARK    6  A    between atoms: C3_4  and  C4_6
REMARK    7  A    between atoms: C4_6  and  O3_7
REMARK    8  A    between atoms: C4_6  and  C5_8
REMARK    9  A    between atoms: C5_8  and  O4_9
REMARK   10  A    between atoms: C6_10  and  O5_11
REMARK   11  A    between atoms: C6_10  and  C7_12
REMARK   12  A    between atoms: C7_12  and  S1_13
REMARK   13  A    between atoms: C9_15  and  O6_16
REMARK   14  A    between atoms: C10_17  and  O7_18
REMARK   15  A    between atoms: C11_19  and  C12_20
REMARK   16  A    between atoms: C12_20  and  O8_21
REMARK                            x       y       z     vdW  Elec       q    Type
REMARK                         _______ _______ _______ _____ _____    ______ ____
ROOT
ATOM      1 CL1  UNL     1       0.000   0.000   0.000  0.00  0.00    +0.000 Cl
ENDROOT
TORSDOF 0
