REMARK  Name = resultss/4CJN/ligands/lig_213_t0.pdb
REMARK  20 active torsions:
REMARK  status: ('A' for Active; 'I' for Inactive)
REMARK    1  A    between atoms: C1_1  and  C2_2
REMARK    2  A    between atoms: C2_2  and  C3_3
REMARK    3  A    between atoms: C3_3  and  C4_4
REMARK    4  A    between atoms: C4_4  and  C5_5
REMARK    5  A    between atoms: C5_5  and  C6_6
REMARK    6  A    between atoms: C6_6  and  C7_7
REMARK    7  A    between atoms: C7_7  and  C8_8
REMARK    8  A    between atoms: C8_8  and  C9_9
REMARK    9  A    between atoms: C9_9  and  O1_10
REMARK   10  A    between atoms: C9_9  and  C10_11
REMARK   11  A    between atoms: C10_11  and  O2_12
REMARK   12  A    between atoms: C10_11  and  C11_13
REMARK   13  A    between atoms: C11_13  and  O3_14
REMARK   14  A    between atoms: C11_13  and  C12_15
REMARK   15  A    between atoms: C12_15  and  S1_16
REMARK   16  A    between atoms: C14_18  and  O4_19
REMARK   17  A    between atoms: C15_20  and  O5_21
REMARK   18  A    between atoms: C16_22  and  C17_23
REMARK   19  A    between atoms: C17_23  and  O6_24
REMARK   20  A    between atoms: C18_25  and  S2_26
REMARK                            x       y       z     vdW  Elec       q    Type
REMARK                         _______ _______ _______ _____ _____    ______ ____
ROOT
ATOM      1  C11 UNL     1      -1.849   0.802  -0.405  0.00  0.00    +0.000 C 
ENDROOT
BRANCH   1   2
ATOM      2  O3  UNL     1      -2.021   0.941  -1.793  0.00  0.00    +0.000 OA
ATOM      3  H23 UNL     1      -2.001   1.911  -2.002  0.00  0.00    +0.000 HD
ENDBRANCH   1   2
BRANCH   1   4
ATOM      4  C10 UNL     1      -0.472   1.367   0.051  0.00  0.00    +0.000 C 
BRANCH   4   5
ATOM      5  O2  UNL     1      -0.313   1.237   1.444  0.00  0.00    +0.000 OA
ATOM      6  H21 UNL     1      -0.438   0.281   1.677  0.00  0.00    +0.000 HD
ENDBRANCH   4   5
BRANCH   4   7
ATOM      7  C9  UNL     1       0.767   0.773  -0.681  0.00  0.00    +0.000 C 
BRANCH   7   8
ATOM      8  O1  UNL     1       0.895   1.325  -1.970  0.00  0.00    +0.000 OA
ATOM      9  H19 UNL     1       0.313   0.815  -2.589  0.00  0.00    +0.000 HD
ENDBRANCH   7   8
BRANCH   7  10
ATOM     10  C8  UNL     1       0.806  -0.778  -0.711  0.00  0.00    +0.000 C 
BRANCH  10  11
ATOM     11  C7  UNL     1       2.078  -1.348  -1.366  0.00  0.00    +0.000 C 
BRANCH  11  12
ATOM     12  C6  UNL     1       3.367  -1.076  -0.560  0.00  0.00    +0.000 C 
BRANCH  12  13
ATOM     13  C5  UNL     1       4.227   0.028  -1.200  0.00  0.00    +0.000 C 
BRANCH  13  14
ATOM     14  C4  UNL     1       5.411   0.447  -0.314  0.00  0.00    +0.000 C 
BRANCH  14  15
ATOM     15  C3  UNL     1       6.517  -0.621  -0.262  0.00  0.00    +0.000 C 
BRANCH  15  17
ATOM     16  C1  UNL     1       8.553   0.902  -0.023  0.00  0.00    +0.000 C 
ATOM     17  C2  UNL     1       7.705  -0.198   0.616  0.00  0.00    +0.000 C 
ENDBRANCH  15  17
ENDBRANCH  14  15
ENDBRANCH  13  14
ENDBRANCH  12  13
ENDBRANCH  11  12
ENDBRANCH  10  11
ENDBRANCH   7  10
ENDBRANCH   4   7
ENDBRANCH   1   4
BRANCH   1  18
ATOM     18  C12 UNL     1      -3.010   1.485   0.343  0.00  0.00    +0.000 C 
BRANCH  18  19
ATOM     19  S1  UNL     1      -4.582   0.808  -0.165  0.00  0.00    +0.000 S 
ATOM     20  C13 UNL     1      -5.900   1.576   0.729  0.00  0.00    +0.000 C 
ATOM     21  C14 UNL     1      -6.332   0.555   1.780  0.00  0.00    +0.000 C 
ATOM     22  C15 UNL     1      -6.134  -0.849   1.182  0.00  0.00    +0.000 C 
ATOM     23  C16 UNL     1      -4.783  -0.847   0.445  0.00  0.00    +0.000 C 
BRANCH  22  24
ATOM     24  O5  UNL     1      -6.140  -1.809   2.206  0.00  0.00    +0.000 OA
ATOM     25  H31 UNL     1      -6.288  -2.689   1.771  0.00  0.00    +0.000 HD
ENDBRANCH  22  24
BRANCH  21  26
ATOM     26  O4  UNL     1      -7.675   0.766   2.131  0.00  0.00    +0.000 OA
ATOM     27  H29 UNL     1      -7.834   0.251   2.965  0.00  0.00    +0.000 HD
ENDBRANCH  21  26
BRANCH  23  28
ATOM     28  C17 UNL     1      -4.698  -1.878  -0.689  0.00  0.00    +0.000 C 
BRANCH  28  29
ATOM     29  O6  UNL     1      -5.626  -1.599  -1.706  0.00  0.00    +0.000 OA
ATOM     30  H35 UNL     1      -6.418  -2.175  -1.545  0.00  0.00    +0.000 HD
ENDBRANCH  28  29
ENDBRANCH  23  28
ENDBRANCH  18  19
ENDBRANCH   1  18
TORSDOF 18
REMARK  Name = resultss/4CJN/ligands/lig_213_t0.pdb
REMARK  20 active torsions:
REMARK  status: ('A' for Active; 'I' for Inactive)
REMARK    1  A    between atoms: C1_1  and  C2_2
REMARK    2  A    between atoms: C2_2  and  C3_3
REMARK    3  A    between atoms: C3_3  and  C4_4
REMARK    4  A    between atoms: C4_4  and  C5_5
REMARK    5  A    between atoms: C5_5  and  C6_6
REMARK    6  A    between atoms: C6_6  and  C7_7
REMARK    7  A    between atoms: C7_7  and  C8_8
REMARK    8  A    between atoms: C8_8  and  C9_9
REMARK    9  A    between atoms: C9_9  and  O1_10
REMARK   10  A    between atoms: C9_9  and  C10_11
REMARK   11  A    between atoms: C10_11  and  O2_12
REMARK   12  A    between atoms: C10_11  and  C11_13
REMARK   13  A    between atoms: C11_13  and  O3_14
REMARK   14  A    between atoms: C11_13  and  C12_15
REMARK   15  A    between atoms: C12_15  and  S1_16
REMARK   16  A    between atoms: C14_18  and  O4_19
REMARK   17  A    between atoms: C15_20  and  O5_21
REMARK   18  A    between atoms: C16_22  and  C17_23
REMARK   19  A    between atoms: C17_23  and  O6_24
REMARK   20  A    between atoms: C18_25  and  S2_26
REMARK                            x       y       z     vdW  Elec       q    Type
REMARK                         _______ _______ _______ _____ _____    ______ ____
ROOT
ATOM      1  C18 UNL     1      -0.945  -0.025   0.007  0.00  0.00    +0.000 C 
ATOM      2  S2  UNL     1       0.831   0.057   0.012  0.00  0.00    +0.000 S 
ATOM      3  O7  UNL     1       1.326   0.140   1.428  0.00  0.00    +0.000 OA
ATOM      4  O8  UNL     1       1.281   1.274  -0.746  0.00  0.00    +0.000 OA
ATOM      5  O9  UNL     1       1.457  -1.319  -0.719  0.00  0.00    +0.000 OA
ENDROOT
TORSDOF 0
