REMARK  Name = resultss/4CJN/ligands/lig_421_t1.pdb
REMARK  6 active torsions:
REMARK  status: ('A' for Active; 'I' for Inactive)
REMARK    1  A    between atoms: C1_2  and  C10_18
REMARK    2  A    between atoms: N1_3  and  N2_4
REMARK    3  A    between atoms: C2_5  and  S1_6
REMARK    4  A    between atoms: N3_7  and  C3_8
REMARK    5  A    between atoms: C6_11  and  C7_12
REMARK    6  A    between atoms: C20_29  and  C21_30
REMARK                            x       y       z     vdW  Elec       q    Type
REMARK                         _______ _______ _______ _____ _____    ______ ____
ROOT
ATOM      1  O1  UNL     1       1.021  -2.113   0.680  0.00  0.00    +0.000 OA
ATOM      2  C1  UNL     1       0.513  -1.031   0.277  0.00  0.00    +0.000 C 
ATOM      3  N1  UNL     1       1.367   0.018  -0.204  0.00  0.00    +0.000 N 
ATOM      4  H1  UNL     1       1.000   0.995  -0.233  0.00  0.00    +0.000 HD
ENDROOT
BRANCH   2   5
ATOM      5  C10 UNL     1      -0.953  -0.845   0.315  0.00  0.00    +0.000 A 
ATOM      6  C11 UNL     1      -1.797  -1.857   0.822  0.00  0.00    +0.000 A 
ATOM      7  C12 UNL     1      -3.165  -1.612   0.804  0.00  0.00    +0.000 A 
ATOM      8  C13 UNL     1      -3.692  -0.434   0.319  0.00  0.00    +0.000 A 
ATOM      9  N4  UNL     1      -5.046  -0.454   0.344  0.00  0.00    +0.000 N 
ATOM     10  C14 UNL     1      -5.364  -1.657   0.870  0.00  0.00    +0.000 A 
ATOM     11  C15 UNL     1      -6.643  -2.166   1.092  0.00  0.00    +0.000 A 
ATOM     12  C16 UNL     1      -6.751  -3.461   1.635  0.00  0.00    +0.000 A 
ATOM     13  C17 UNL     1      -5.593  -4.213   1.935  0.00  0.00    +0.000 A 
ATOM     14  C18 UNL     1      -4.313  -3.680   1.697  0.00  0.00    +0.000 A 
ATOM     15  C19 UNL     1      -4.237  -2.394   1.165  0.00  0.00    +0.000 A 
ATOM     16  C20 UNL     1      -2.843   0.569  -0.167  0.00  0.00    +0.000 A 
ATOM     17  N5  UNL     1      -1.498   0.320  -0.161  0.00  0.00    +0.000 NA
ATOM     18  H9  UNL     1      -5.711   0.274   0.001  0.00  0.00    +0.000 HD
BRANCH  16  19
ATOM     19  C21 UNL     1      -3.338   1.862  -0.684  0.00  0.00    +0.000 A 
ATOM     20  C22 UNL     1      -2.803   2.390  -1.871  0.00  0.00    +0.000 A 
ATOM     21  C23 UNL     1      -3.245   3.624  -2.357  0.00  0.00    +0.000 A 
ATOM     22  C24 UNL     1      -4.212   4.348  -1.656  0.00  0.00    +0.000 A 
ATOM     23  C25 UNL     1      -4.734   3.842  -0.463  0.00  0.00    +0.000 A 
ATOM     24  C26 UNL     1      -4.296   2.607   0.027  0.00  0.00    +0.000 A 
ENDBRANCH  16  19
ENDBRANCH   2   5
BRANCH   3  25
ATOM     25  N2  UNL     1       2.754  -0.165  -0.324  0.00  0.00    +0.000 NA
ATOM     26  C2  UNL     1       3.300  -0.959  -1.199  0.00  0.00    +0.000 C 
ATOM     27  N3  UNL     1       4.725  -1.134  -1.230  0.00  0.00    +0.000 N 
ATOM     28  H3  UNL     1       5.094  -1.969  -1.738  0.00  0.00    +0.000 HD
BRANCH  27  29
ATOM     29  C3  UNL     1       5.662  -0.311  -0.514  0.00  0.00    +0.000 A 
ATOM     30  C4  UNL     1       6.820  -0.893   0.019  0.00  0.00    +0.000 A 
ATOM     31  C5  UNL     1       7.758  -0.112   0.700  0.00  0.00    +0.000 A 
ATOM     32  C6  UNL     1       7.571   1.275   0.830  0.00  0.00    +0.000 A 
ATOM     33  C8  UNL     1       6.408   1.858   0.296  0.00  0.00    +0.000 A 
ATOM     34  C9  UNL     1       5.471   1.075  -0.384  0.00  0.00    +0.000 A 
BRANCH  32  35
ATOM     35  C7  UNL     1       8.557   2.110   1.607  0.00  0.00    +0.000 C 
ATOM     36  F1  UNL     1       8.187   2.128   2.939  0.00  0.00    +0.000 F 
ATOM     37  F2  UNL     1       9.833   1.585   1.501  0.00  0.00    +0.000 F 
ATOM     38  F3  UNL     1       8.583   3.409   1.128  0.00  0.00    +0.000 F 
ENDBRANCH  32  35
ENDBRANCH  27  29
BRANCH  26  39
ATOM     39  S1  UNL     1       2.302  -1.854  -2.397  0.00  0.00    +0.000 S 
ATOM     40  H2  UNL     1       2.235  -2.997  -1.579  0.00  0.00    +0.000 HD
ENDBRANCH  26  39
ENDBRANCH   3  25
TORSDOF 6
