REMARK  Name = resultss/4CJN/ligands/lig_282_t1.pdb
REMARK  10 active torsions:
REMARK  status: ('A' for Active; 'I' for Inactive)
REMARK    1  A    between atoms: C2_2  and  C3_3
REMARK    2  A    between atoms: C3_3  and  C4_4
REMARK    3  A    between atoms: C6_6  and  C7_7
REMARK    4  A    between atoms: C10_10  and  O1_11
REMARK    5  A    between atoms: C11_12  and  C12_13
REMARK    6  A    between atoms: C12_13  and  C13_14
REMARK    7  A    between atoms: C17_19  and  C18_20
REMARK    8  A    between atoms: C18_20  and  C19_21
REMARK    9  A    between atoms: C18_20  and  N1_29
REMARK   10  A    between atoms: C27_32  and  C28_33
REMARK                            x       y       z     vdW  Elec       q    Type
REMARK                         _______ _______ _______ _____ _____    ______ ____
ROOT
ATOM      1  C4  UNL     1       1.036  -0.884  -2.284  0.00  0.00    +0.000 C 
ATOM      2  C5  UNL     1       2.051  -0.353  -1.580  0.00  0.00    +0.000 C 
ATOM      3  C6  UNL     1       1.833   0.421  -0.301  0.00  0.00    +0.000 C 
ATOM      4  C16 UNL     1       0.468   0.166   0.294  0.00  0.00    +0.000 C 
ATOM      5  O2  UNL     1       0.258   0.441   1.507  0.00  0.00    +0.000 OA
ATOM      6  C17 UNL     1      -0.638  -0.334  -0.556  0.00  0.00    +0.000 C 
ATOM      7  C31 UNL     1      -0.356  -0.792  -1.787  0.00  0.00    +0.000 C 
ENDROOT
BRANCH   3   8
ATOM      8  C7  UNL     1       2.918   0.109   0.710  0.00  0.00    +0.000 A 
ATOM      9  C8  UNL     1       3.210  -1.220   1.065  0.00  0.00    +0.000 A 
ATOM     10  C9  UNL     1       4.149  -1.496   2.062  0.00  0.00    +0.000 A 
ATOM     11  C10 UNL     1       4.796  -0.451   2.733  0.00  0.00    +0.000 A 
ATOM     12  C11 UNL     1       4.502   0.887   2.399  0.00  0.00    +0.000 A 
ATOM     13  C15 UNL     1       3.569   1.154   1.385  0.00  0.00    +0.000 A 
BRANCH  11  14
ATOM     14  O1  UNL     1       5.719  -0.742   3.738  0.00  0.00    +0.000 OA
ATOM     15  H10 UNL     1       5.949  -1.696   3.992  0.00  0.00    +0.000 HD
ENDBRANCH  11  14
BRANCH  12  16
ATOM     16  C12 UNL     1       5.172   2.037   3.112  0.00  0.00    +0.000 C 
BRANCH  16  17
ATOM     17  C13 UNL     1       6.304   2.594   2.295  0.00  0.00    +0.000 C 
ATOM     18  C14 UNL     1       7.453   1.928   2.134  0.00  0.00    +0.000 C 
ENDBRANCH  16  17
ENDBRANCH  12  16
ENDBRANCH   3   8
BRANCH   1  19
ATOM     19  C3  UNL     1       1.305  -1.591  -3.588  0.00  0.00    +0.000 C 
BRANCH  19  21
ATOM     20  C1  UNL     1       2.123   0.307  -4.969  0.00  0.00    +0.000 C 
ATOM     21  C2  UNL     1       1.210  -0.645  -4.752  0.00  0.00    +0.000 C 
ENDBRANCH  19  21
ENDBRANCH   1  19
BRANCH   6  22
ATOM     22  C18 UNL     1      -2.061  -0.374  -0.009  0.00  0.00    +0.000 C 
BRANCH  22  23
ATOM     23  C19 UNL     1      -2.350  -1.804   0.429  0.00  0.00    +0.000 A 
ATOM     24  C20 UNL     1      -2.212  -2.163   1.782  0.00  0.00    +0.000 A 
ATOM     25  C21 UNL     1      -2.426  -3.485   2.191  0.00  0.00    +0.000 A 
ATOM     26 CL1  UNL     1      -2.258  -3.922   3.882  0.00  0.00    +0.000 Cl
ATOM     27  C22 UNL     1      -2.773  -4.461   1.251  0.00  0.00    +0.000 A 
ATOM     28  C23 UNL     1      -2.899  -4.118  -0.097  0.00  0.00    +0.000 A 
ATOM     29 CL2  UNL     1      -3.330  -5.345  -1.277  0.00  0.00    +0.000 Cl
ATOM     30  C24 UNL     1      -2.686  -2.799  -0.509  0.00  0.00    +0.000 A 
ENDBRANCH  22  23
BRANCH  22  31
ATOM     31  N1  UNL     1      -3.067   0.142  -0.985  0.00  0.00    +0.000 NA
ATOM     32  C25 UNL     1      -2.782   1.551  -1.388  0.00  0.00    +0.000 C 
ATOM     33  C26 UNL     1      -3.444   2.571  -0.449  0.00  0.00    +0.000 C 
ATOM     34  C27 UNL     1      -4.986   2.445  -0.482  0.00  0.00    +0.000 C 
ATOM     35  C28 UNL     1      -5.585   2.802   0.886  0.00  0.00    +0.000 C 
ATOM     36  C29 UNL     1      -5.440   1.042  -0.949  0.00  0.00    +0.000 C 
ATOM     37  C30 UNL     1      -4.460  -0.045  -0.478  0.00  0.00    +0.000 C 
ENDBRANCH  22  31
ENDBRANCH   6  22
TORSDOF 9
