REMARK  Name = resultss/4CJN/ligands/lig_166_t1.pdb
REMARK  8 active torsions:
REMARK  status: ('A' for Active; 'I' for Inactive)
REMARK    1  A    between atoms: C1_1  and  O1_2
REMARK    2  A    between atoms: O1_2  and  C2_3
REMARK    3  A    between atoms: C5_6  and  C6_7
REMARK    4  A    between atoms: N1_8  and  N2_9
REMARK    5  A    between atoms: C7_10  and  O2_11
REMARK    6  A    between atoms: C7_10  and  C8_12
REMARK    7  A    between atoms: C11_15  and  C12_16
REMARK    8  A    between atoms: C21_27  and  O3_28
REMARK                            x       y       z     vdW  Elec       q    Type
REMARK                         _______ _______ _______ _____ _____    ______ ____
ROOT
ATOM      1  N2  UNL     1       2.028   0.859  -2.485  0.00  0.00    +0.000 NA
ATOM      2  C7  UNL     1       0.850   1.222  -2.894  0.00  0.00    +0.000 C 
ENDROOT
BRANCH   2   3
ATOM      3  C8  UNL     1      -0.336   0.973  -2.039  0.00  0.00    +0.000 A 
ATOM      4  C9  UNL     1      -0.212   0.308  -0.805  0.00  0.00    +0.000 A 
ATOM      5  C10 UNL     1      -1.335   0.078  -0.006  0.00  0.00    +0.000 A 
ATOM      6  C11 UNL     1      -2.608   0.506  -0.420  0.00  0.00    +0.000 A 
ATOM      7  C19 UNL     1      -2.731   1.170  -1.653  0.00  0.00    +0.000 A 
ATOM      8  C20 UNL     1      -1.608   1.400  -2.453  0.00  0.00    +0.000 A 
BRANCH   6   9
ATOM      9  C12 UNL     1      -3.805   0.267   0.419  0.00  0.00    +0.000 A 
ATOM     10  N3  UNL     1      -5.056   0.651   0.055  0.00  0.00    +0.000 NA
ATOM     11  C13 UNL     1      -5.972   0.316   0.998  0.00  0.00    +0.000 A 
ATOM     12  C14 UNL     1      -7.339   0.582   0.900  0.00  0.00    +0.000 A 
ATOM     13  C15 UNL     1      -8.182   0.180   1.951  0.00  0.00    +0.000 A 
ATOM     14  C16 UNL     1      -7.653  -0.478   3.080  0.00  0.00    +0.000 A 
ATOM     15  C17 UNL     1      -6.277  -0.740   3.167  0.00  0.00    +0.000 A 
ATOM     16  C18 UNL     1      -5.464  -0.331   2.112  0.00  0.00    +0.000 A 
ATOM     17  S1  UNL     1      -3.807  -0.504   1.934  0.00  0.00    +0.000 S 
ENDBRANCH   6   9
ENDBRANCH   2   3
BRANCH   1  19
ATOM     18  C6  UNL     1       4.364   0.689  -2.837  0.00  0.00    +0.000 C 
ATOM     19  N1  UNL     1       3.188   1.057  -3.249  0.00  0.00    +0.000 NA
BRANCH  18  23
ATOM     20  C2  UNL     1       5.085  -1.177   0.966  0.00  0.00    +0.000 A 
ATOM     21  C3  UNL     1       5.802  -0.033   0.573  0.00  0.00    +0.000 A 
ATOM     22  C4  UNL     1       5.560   0.558  -0.669  0.00  0.00    +0.000 A 
ATOM     23  C5  UNL     1       4.589   0.030  -1.532  0.00  0.00    +0.000 A 
ATOM     24  C21 UNL     1       3.895  -1.138  -1.159  0.00  0.00    +0.000 A 
ATOM     25  C22 UNL     1       4.137  -1.722   0.093  0.00  0.00    +0.000 A 
BRANCH  20  27
ATOM     26  C1  UNL     1       6.208  -1.353   3.193  0.00  0.00    +0.000 C 
ATOM     27  O1  UNL     1       5.288  -1.804   2.205  0.00  0.00    +0.000 OA
ENDBRANCH  20  27
BRANCH  24  28
ATOM     28  O3  UNL     1       2.988  -1.732  -2.036  0.00  0.00    +0.000 OA
ATOM     29  H16 UNL     1       2.482  -2.574  -1.789  0.00  0.00    +0.000 HD
ENDBRANCH  24  28
ENDBRANCH  18  23
ENDBRANCH   1  19
BRANCH   2  30
ATOM     30  O2  UNL     1       0.683   1.845  -4.135  0.00  0.00    +0.000 OA
ATOM     31  H7  UNL     1       1.458   2.038  -4.758  0.00  0.00    +0.000 HD
ENDBRANCH   2  30
TORSDOF 7
