REMARK  Name = resultss/4CJN/ligands/lig_72_t0.pdb
REMARK  13 active torsions:
REMARK  status: ('A' for Active; 'I' for Inactive)
REMARK    1  A    between atoms: C1_1  and  O1_2
REMARK    2  A    between atoms: O1_2  and  C2_3
REMARK    3  A    between atoms: C3_5  and  C4_6
REMARK    4  A    between atoms: C5_7  and  N1_8
REMARK    5  A    between atoms: N1_8  and  C6_9
REMARK    6  A    between atoms: C8_11  and  O3_12
REMARK    7  A    between atoms: C8_11  and  C9_13
REMARK    8  A    between atoms: C9_13  and  O4_14
REMARK    9  A    between atoms: C10_15  and  O5_16
REMARK   10  A    between atoms: C11_17  and  O6_18
REMARK   11  A    between atoms: C12_19  and  O7_20
REMARK   12  A    between atoms: C13_21  and  O8_22
REMARK   13  A    between atoms: C14_23  and  O9_24
REMARK                            x       y       z     vdW  Elec       q    Type
REMARK                         _______ _______ _______ _____ _____    ______ ____
ROOT
ATOM      1  C6  UNL     1      -1.230  -0.529   0.093  0.00  0.00    +0.000 C 
ATOM      2  C7  UNL     1      -1.719  -0.251  -1.343  0.00  0.00    +0.000 C 
ATOM      3  C8  UNL     1      -3.145   0.365  -1.412  0.00  0.00    +0.000 C 
ATOM      4  C10 UNL     1      -4.153  -0.507  -0.600  0.00  0.00    +0.000 C 
ATOM      5  C11 UNL     1      -3.677  -0.857   0.834  0.00  0.00    +0.000 C 
ATOM      6  C12 UNL     1      -2.236  -1.420   0.874  0.00  0.00    +0.000 C 
ENDROOT
BRANCH   1   7
ATOM      7  N1  UNL     1       0.124  -1.137   0.037  0.00  0.00    +0.000 NA
ATOM      8  H10 UNL     1       0.136  -2.030   0.582  0.00  0.00    +0.000 HD
BRANCH   7  13
ATOM      9  C2  UNL     1       3.890   0.772   0.376  0.00  0.00    +0.000 C 
ATOM     10  O2  UNL     1       3.545  -0.229   1.324  0.00  0.00    +0.000 OA
ATOM     11  C3  UNL     1       2.487  -1.065   0.876  0.00  0.00    +0.000 C 
ATOM     12  C4  UNL     1       2.934  -2.017  -0.252  0.00  0.00    +0.000 C 
ATOM     13  C5  UNL     1       1.183  -0.261   0.588  0.00  0.00    +0.000 C 
ATOM     14  C13 UNL     1       1.459   0.947  -0.338  0.00  0.00    +0.000 C 
ATOM     15  C14 UNL     1       2.705   1.726   0.129  0.00  0.00    +0.000 C 
BRANCH   9  17
ATOM     16  C1  UNL     1       6.171   0.791   0.791  0.00  0.00    +0.000 C 
ATOM     17  O1  UNL     1       4.973   1.533   0.877  0.00  0.00    +0.000 OA
ENDBRANCH   9  17
BRANCH  14  18
ATOM     18  O8  UNL     1       1.635   0.509  -1.662  0.00  0.00    +0.000 OA
ATOM     19  H25 UNL     1       1.501   1.299  -2.249  0.00  0.00    +0.000 HD
ENDBRANCH  14  18
BRANCH  15  20
ATOM     20  O9  UNL     1       2.417   2.505   1.267  0.00  0.00    +0.000 OA
ATOM     21  H27 UNL     1       2.284   1.895   2.037  0.00  0.00    +0.000 HD
ENDBRANCH  15  20
ENDBRANCH   7  13
ENDBRANCH   1   7
BRANCH   3  22
ATOM     22  O3  UNL     1      -3.570   0.355  -2.758  0.00  0.00    +0.000 OA
ATOM     23  H14 UNL     1      -2.919   0.880  -3.294  0.00  0.00    +0.000 HD
ENDBRANCH   3  22
BRANCH   4  24
ATOM     24  O5  UNL     1      -4.417  -1.692  -1.312  0.00  0.00    +0.000 OA
ATOM     25  H19 UNL     1      -5.274  -2.056  -0.968  0.00  0.00    +0.000 HD
ENDBRANCH   4  24
BRANCH   5  26
ATOM     26  O6  UNL     1      -3.778   0.278   1.656  0.00  0.00    +0.000 OA
ATOM     27  H21 UNL     1      -3.785  -0.041   2.596  0.00  0.00    +0.000 HD
ENDBRANCH   5  26
BRANCH   6  28
ATOM     28  O7  UNL     1      -2.210  -2.768   0.462  0.00  0.00    +0.000 OA
ATOM     29  H23 UNL     1      -2.352  -2.803  -0.516  0.00  0.00    +0.000 HD
ENDBRANCH   6  28
BRANCH   3  30
ATOM     30  C9  UNL     1      -3.130   1.843  -0.921  0.00  0.00    +0.000 C 
BRANCH  30  31
ATOM     31  O4  UNL     1      -4.398   2.430  -1.042  0.00  0.00    +0.000 OA
ATOM     32  H17 UNL     1      -4.502   2.699  -1.992  0.00  0.00    +0.000 HD
ENDBRANCH  30  31
ENDBRANCH   3  30
TORSDOF 11
