REMARK  Name = resultss/4CJN/ligands/lig_211_t0.pdb
REMARK  20 active torsions:
REMARK  status: ('A' for Active; 'I' for Inactive)
REMARK    1  A    between atoms: C1_1  and  C2_2
REMARK    2  A    between atoms: C2_2  and  C3_3
REMARK    3  A    between atoms: C3_3  and  C4_4
REMARK    4  A    between atoms: C4_4  and  C5_5
REMARK    5  A    between atoms: C5_5  and  C6_6
REMARK    6  A    between atoms: C6_6  and  C7_7
REMARK    7  A    between atoms: C7_7  and  C8_8
REMARK    8  A    between atoms: C8_8  and  C9_9
REMARK    9  A    between atoms: C9_9  and  O1_10
REMARK   10  A    between atoms: C9_9  and  C10_11
REMARK   11  A    between atoms: C10_11  and  O2_12
REMARK   12  A    between atoms: C10_11  and  C11_17
REMARK   13  A    between atoms: O2_12  and  S1_13
REMARK   14  A    between atoms: C11_17  and  O6_18
REMARK   15  A    between atoms: C11_17  and  C12_19
REMARK   16  A    between atoms: C12_19  and  S2_20
REMARK   17  A    between atoms: C14_22  and  O7_23
REMARK   18  A    between atoms: C15_24  and  O8_25
REMARK   19  A    between atoms: C16_26  and  C17_27
REMARK   20  A    between atoms: C17_27  and  O9_28
REMARK                            x       y       z     vdW  Elec       q    Type
REMARK                         _______ _______ _______ _____ _____    ______ ____
ROOT
ATOM      1  C10 UNL     1      -0.794  -0.212  -2.029  0.00  0.00    +0.000 C 
ENDROOT
BRANCH   1   2
ATOM      2  O2  UNL     1      -1.026   0.868  -1.145  0.00  0.00    +0.000 OA
BRANCH   2   3
ATOM      3  S1  UNL     1      -1.404   2.280  -2.013  0.00  0.00    +0.000 S 
ATOM      4  O3  UNL     1      -2.726   2.118  -2.710  0.00  0.00    +0.000 OA
ATOM      5  O4  UNL     1      -1.500   3.428  -1.048  0.00  0.00    +0.000 OA
ATOM      6  O5  UNL     1      -0.214   2.626  -3.147  0.00  0.00    +0.000 OA
ENDBRANCH   2   3
ENDBRANCH   1   2
BRANCH   1   7
ATOM      7  C11 UNL     1      -1.476  -1.493  -1.468  0.00  0.00    +0.000 C 
BRANCH   7   8
ATOM      8  O6  UNL     1      -1.228  -2.590  -2.314  0.00  0.00    +0.000 OA
ATOM      9  H22 UNL     1      -1.654  -2.395  -3.190  0.00  0.00    +0.000 HD
ENDBRANCH   7   8
BRANCH   7  10
ATOM     10  C12 UNL     1      -3.001  -1.316  -1.272  0.00  0.00    +0.000 C 
BRANCH  10  11
ATOM     11  S2  UNL     1      -3.411  -0.895   0.422  0.00  0.00    +0.000 S 
ATOM     12  C13 UNL     1      -4.919  -1.693   0.897  0.00  0.00    +0.000 C 
ATOM     13  C14 UNL     1      -5.837  -0.593   1.441  0.00  0.00    +0.000 C 
ATOM     14  C15 UNL     1      -5.466   0.733   0.749  0.00  0.00    +0.000 C 
ATOM     15  C16 UNL     1      -3.932   0.794   0.589  0.00  0.00    +0.000 C 
BRANCH  14  16
ATOM     16  O8  UNL     1      -6.074   0.767  -0.517  0.00  0.00    +0.000 OA
ATOM     17  H30 UNL     1      -6.037   1.710  -0.828  0.00  0.00    +0.000 HD
ENDBRANCH  14  16
BRANCH  13  18
ATOM     18  O7  UNL     1      -5.666  -0.462   2.829  0.00  0.00    +0.000 OA
ATOM     19  H28 UNL     1      -6.149  -1.220   3.250  0.00  0.00    +0.000 HD
ENDBRANCH  13  18
BRANCH  15  20
ATOM     20  C17 UNL     1      -3.255   1.453   1.801  0.00  0.00    +0.000 C 
BRANCH  20  21
ATOM     21  O9  UNL     1      -1.873   1.570   1.593  0.00  0.00    +0.000 OA
ATOM     22  H34 UNL     1      -1.461   0.729   1.921  0.00  0.00    +0.000 HD
ENDBRANCH  20  21
ENDBRANCH  15  20
ENDBRANCH  10  11
ENDBRANCH   7  10
ENDBRANCH   1   7
BRANCH   1  23
ATOM     23  C9  UNL     1       0.738  -0.384  -2.265  0.00  0.00    +0.000 C 
BRANCH  23  24
ATOM     24  O1  UNL     1       0.933  -1.181  -3.407  0.00  0.00    +0.000 OA
ATOM     25  H19 UNL     1       1.844  -0.986  -3.749  0.00  0.00    +0.000 HD
ENDBRANCH  23  24
BRANCH  23  26
ATOM     26  C8  UNL     1       1.541  -0.986  -1.086  0.00  0.00    +0.000 C 
BRANCH  26  27
ATOM     27  C7  UNL     1       1.491  -0.131   0.192  0.00  0.00    +0.000 C 
BRANCH  27  28
ATOM     28  C6  UNL     1       2.349  -0.700   1.337  0.00  0.00    +0.000 C 
BRANCH  28  29
ATOM     29  C5  UNL     1       3.862  -0.777   1.061  0.00  0.00    +0.000 C 
BRANCH  29  30
ATOM     30  C4  UNL     1       4.493   0.595   0.770  0.00  0.00    +0.000 C 
BRANCH  30  31
ATOM     31  C3  UNL     1       6.013   0.519   0.536  0.00  0.00    +0.000 C 
BRANCH  31  33
ATOM     32  C1  UNL     1       6.700   1.041   2.946  0.00  0.00    +0.000 C 
ATOM     33  C2  UNL     1       6.842   0.088   1.760  0.00  0.00    +0.000 C 
ENDBRANCH  31  33
ENDBRANCH  30  31
ENDBRANCH  29  30
ENDBRANCH  28  29
ENDBRANCH  27  28
ENDBRANCH  26  27
ENDBRANCH  23  26
ENDBRANCH   1  23
TORSDOF 19
