REMARK  Name = resultss/4CJN/ligands/lig_311_t2.pdb
REMARK  9 active torsions:
REMARK  status: ('A' for Active; 'I' for Inactive)
REMARK    1  A    between atoms: C5_7  and  O3_8
REMARK    2  A    between atoms: C9_13  and  O5_14
REMARK    3  A    between atoms: C12_17  and  O6_18
REMARK    4  A    between atoms: O6_18  and  C13_19
REMARK    5  A    between atoms: C14_21  and  C15_22
REMARK    6  A    between atoms: C15_22  and  O8_23
REMARK    7  A    between atoms: C16_24  and  O9_25
REMARK    8  A    between atoms: C17_26  and  O10_27
REMARK    9  A    between atoms: C18_28  and  O11_29
REMARK                            x       y       z     vdW  Elec       q    Type
REMARK                         _______ _______ _______ _____ _____    ______ ____
ROOT
ATOM      1  O1  UNL     1       1.093   1.294  -1.216  0.00  0.00    +0.000 OA
ATOM      2  C1  UNL     1       1.995   0.624  -0.643  0.00  0.00    +0.000 A 
ATOM      3  C2  UNL     1       3.316   1.117  -0.600  0.00  0.00    +0.000 A 
ATOM      4  C3  UNL     1       3.710   2.409  -1.209  0.00  0.00    +0.000 C 
ATOM      5  O2  UNL     1       2.869   3.135  -1.806  0.00  0.00    +0.000 OA
ATOM      6  C4  UNL     1       5.103   2.862  -1.120  0.00  0.00    +0.000 C 
ATOM      7  C5  UNL     1       6.037   2.135  -0.502  0.00  0.00    +0.000 C 
ATOM      8  C6  UNL     1       5.735   0.802   0.145  0.00  0.00    +0.000 C 
ATOM      9  C7  UNL     1       4.298   0.350   0.050  0.00  0.00    +0.000 A 
ATOM     10  O4  UNL     1       3.978  -0.812   0.607  0.00  0.00    +0.000 OA
ATOM     11  C8  UNL     1       2.751  -1.318   0.594  0.00  0.00    +0.000 A 
ATOM     12  C9  UNL     1       2.510  -2.553   1.216  0.00  0.00    +0.000 A 
ATOM     13  C10 UNL     1       1.226  -3.094   1.212  0.00  0.00    +0.000 A 
ATOM     14  C11 UNL     1       0.174  -2.415   0.599  0.00  0.00    +0.000 A 
ATOM     15  C12 UNL     1       0.385  -1.171  -0.026  0.00  0.00    +0.000 A 
ATOM     16  C19 UNL     1       1.693  -0.618  -0.038  0.00  0.00    +0.000 A 
ENDROOT
BRANCH   7  17
ATOM     17  O3  UNL     1       7.342   2.625  -0.454  0.00  0.00    +0.000 OA
ATOM     18  H2  UNL     1       8.083   2.101   0.000  0.00  0.00    +0.000 HD
ENDBRANCH   7  17
BRANCH  12  19
ATOM     19  O5  UNL     1       3.536  -3.257   1.847  0.00  0.00    +0.000 OA
ATOM     20  H5  UNL     1       4.489  -2.913   1.877  0.00  0.00    +0.000 HD
ENDBRANCH  12  19
BRANCH  15  21
ATOM     21  O6  UNL     1      -0.673  -0.469  -0.636  0.00  0.00    +0.000 OA
BRANCH  21  22
ATOM     22  C13 UNL     1      -2.069  -0.736  -0.476  0.00  0.00    +0.000 C 
ATOM     23  O7  UNL     1      -2.769   0.074  -1.407  0.00  0.00    +0.000 OA
ATOM     24  C14 UNL     1      -4.160  -0.199  -1.357  0.00  0.00    +0.000 C 
ATOM     25  C16 UNL     1      -4.768   0.205   0.023  0.00  0.00    +0.000 C 
ATOM     26  C17 UNL     1      -3.661   0.604   1.023  0.00  0.00    +0.000 C 
ATOM     27  C18 UNL     1      -2.503  -0.420   0.987  0.00  0.00    +0.000 C 
BRANCH  25  28
ATOM     28  O9  UNL     1      -5.512  -0.878   0.531  0.00  0.00    +0.000 OA
ATOM     29  H14 UNL     1      -6.101  -0.515   1.246  0.00  0.00    +0.000 HD
ENDBRANCH  25  28
BRANCH  26  30
ATOM     30  O10 UNL     1      -3.187   1.886   0.694  0.00  0.00    +0.000 OA
ATOM     31  H16 UNL     1      -2.601   2.186   1.446  0.00  0.00    +0.000 HD
ENDBRANCH  26  30
BRANCH  27  32
ATOM     32  O11 UNL     1      -2.901  -1.612   1.622  0.00  0.00    +0.000 OA
ATOM     33  H18 UNL     1      -2.855  -1.449   2.601  0.00  0.00    +0.000 HD
ENDBRANCH  27  32
BRANCH  24  34
ATOM     34  C15 UNL     1      -4.835   0.559  -2.510  0.00  0.00    +0.000 C 
BRANCH  34  35
ATOM     35  O8  UNL     1      -6.181   0.175  -2.626  0.00  0.00    +0.000 OA
ATOM     36  H12 UNL     1      -6.728   0.891  -2.212  0.00  0.00    +0.000 HD
ENDBRANCH  34  35
ENDBRANCH  24  34
ENDBRANCH  21  22
ENDBRANCH  15  21
TORSDOF 9
