REMARK  Name = resultss/4CJN/ligands/lig_429_t1.pdb
REMARK  7 active torsions:
REMARK  status: ('A' for Active; 'I' for Inactive)
REMARK    1  A    between atoms: C1_2  and  C15_21
REMARK    2  A    between atoms: N1_3  and  N2_4
REMARK    3  A    between atoms: C2_5  and  S1_6
REMARK    4  A    between atoms: N3_7  and  C3_8
REMARK    5  A    between atoms: C6_11  and  O2_12
REMARK    6  A    between atoms: O2_12  and  C7_13
REMARK    7  A    between atoms: C25_32  and  C26_33
REMARK                            x       y       z     vdW  Elec       q    Type
REMARK                         _______ _______ _______ _____ _____    ______ ____
ROOT
ATOM      1  O1  UNL     1      -0.393   1.486  -0.931  0.00  0.00    +0.000 OA
ATOM      2  C1  UNL     1      -1.036   0.417  -0.745  0.00  0.00    +0.000 C 
ATOM      3  N1  UNL     1      -0.346  -0.842  -0.790  0.00  0.00    +0.000 N 
ATOM      4  H1  UNL     1      -0.791  -1.677  -0.348  0.00  0.00    +0.000 HD
ENDROOT
BRANCH   2   5
ATOM      5  C15 UNL     1      -2.486   0.471  -0.465  0.00  0.00    +0.000 A 
ATOM      6  C16 UNL     1      -3.157   1.709  -0.369  0.00  0.00    +0.000 A 
ATOM      7  C17 UNL     1      -4.523   1.674  -0.116  0.00  0.00    +0.000 A 
ATOM      8  C18 UNL     1      -5.209   0.490   0.043  0.00  0.00    +0.000 A 
ATOM      9  N4  UNL     1      -6.535   0.708   0.213  0.00  0.00    +0.000 N 
ATOM     10  C19 UNL     1      -6.671   2.051   0.177  0.00  0.00    +0.000 A 
ATOM     11  C20 UNL     1      -7.853   2.781   0.290  0.00  0.00    +0.000 A 
ATOM     12  C21 UNL     1      -7.774   4.183   0.201  0.00  0.00    +0.000 A 
ATOM     13  C22 UNL     1      -6.529   4.821  -0.002  0.00  0.00    +0.000 A 
ATOM     14  C23 UNL     1      -5.349   4.064  -0.119  0.00  0.00    +0.000 A 
ATOM     15  C24 UNL     1      -5.458   2.678  -0.022  0.00  0.00    +0.000 A 
ATOM     16  C25 UNL     1      -4.530  -0.733  -0.041  0.00  0.00    +0.000 A 
ATOM     17  N5  UNL     1      -3.188  -0.697  -0.304  0.00  0.00    +0.000 NA
ATOM     18  H14 UNL     1      -7.299   0.004   0.310  0.00  0.00    +0.000 HD
BRANCH  16  19
ATOM     19  C26 UNL     1      -5.201  -2.037   0.134  0.00  0.00    +0.000 A 
ATOM     20  C27 UNL     1      -4.922  -3.090  -0.753  0.00  0.00    +0.000 A 
ATOM     21  C28 UNL     1      -5.534  -4.336  -0.584  0.00  0.00    +0.000 A 
ATOM     22  C29 UNL     1      -6.416  -4.545   0.479  0.00  0.00    +0.000 A 
ATOM     23  C30 UNL     1      -6.682  -3.510   1.379  0.00  0.00    +0.000 A 
ATOM     24  C31 UNL     1      -6.073  -2.263   1.213  0.00  0.00    +0.000 A 
ENDBRANCH  16  19
ENDBRANCH   2   5
BRANCH   3  25
ATOM     25  N2  UNL     1       1.024  -0.908  -1.089  0.00  0.00    +0.000 NA
ATOM     26  C2  UNL     1       1.518  -0.610  -2.256  0.00  0.00    +0.000 C 
ATOM     27  N3  UNL     1       2.934  -0.671  -2.477  0.00  0.00    +0.000 N 
ATOM     28  H3  UNL     1       3.261  -0.815  -3.459  0.00  0.00    +0.000 HD
BRANCH  27  29
ATOM     29  C3  UNL     1       3.929  -0.558  -1.441  0.00  0.00    +0.000 A 
ATOM     30  C4  UNL     1       5.188  -1.148  -1.631  0.00  0.00    +0.000 A 
ATOM     31  C5  UNL     1       6.184  -1.024  -0.658  0.00  0.00    +0.000 A 
ATOM     32  C6  UNL     1       5.942  -0.287   0.513  0.00  0.00    +0.000 A 
ATOM     33  C13 UNL     1       4.687   0.299   0.707  0.00  0.00    +0.000 A 
ATOM     34  C14 UNL     1       3.692   0.182  -0.268  0.00  0.00    +0.000 A 
BRANCH  32  35
ATOM     35  O2  UNL     1       6.911  -0.154   1.517  0.00  0.00    +0.000 OA
BRANCH  35  36
ATOM     36  C7  UNL     1       8.293  -0.039   1.301  0.00  0.00    +0.000 A 
ATOM     37  C8  UNL     1       9.168  -0.460   2.311  0.00  0.00    +0.000 A 
ATOM     38  C9  UNL     1      10.551  -0.339   2.144  0.00  0.00    +0.000 A 
ATOM     39  C10 UNL     1      11.069   0.215   0.970  0.00  0.00    +0.000 A 
ATOM     40  C11 UNL     1      10.204   0.650  -0.038  0.00  0.00    +0.000 A 
ATOM     41  C12 UNL     1       8.820   0.530   0.126  0.00  0.00    +0.000 A 
ENDBRANCH  35  36
ENDBRANCH  32  35
ENDBRANCH  27  29
BRANCH  26  42
ATOM     42  S1  UNL     1       0.446  -0.269  -3.658  0.00  0.00    +0.000 S 
ATOM     43  H2  UNL     1       0.529   1.121  -3.460  0.00  0.00    +0.000 HD
ENDBRANCH  26  42
ENDBRANCH   3  25
TORSDOF 7
