REMARK  Name = resultss/4CJN/ligands/lig_184_t0.pdb
REMARK  7 active torsions:
REMARK  status: ('A' for Active; 'I' for Inactive)
REMARK    1  A    between atoms: C1_1  and  O1_2
REMARK    2  A    between atoms: O1_2  and  C2_3
REMARK    3  A    between atoms: C5_6  and  C6_7
REMARK    4  A    between atoms: N1_8  and  N2_9
REMARK    5  A    between atoms: C7_10  and  C8_12
REMARK    6  A    between atoms: C11_15  and  C12_16
REMARK    7  A    between atoms: C22_29  and  O3_30
REMARK                            x       y       z     vdW  Elec       q    Type
REMARK                         _______ _______ _______ _____ _____    ______ ____
ROOT
ATOM      1  N2  UNL     1       1.305   0.172   0.406  0.00  0.00    +0.000 N 
ATOM      2  C7  UNL     1       0.456   0.420  -0.721  0.00  0.00    +0.000 C 
ATOM      3  O2  UNL     1       0.974   0.768  -1.817  0.00  0.00    +0.000 OA
ATOM      4  H7  UNL     1       0.892   0.046   1.357  0.00  0.00    +0.000 HD
ENDROOT
BRANCH   2   5
ATOM      5  C8  UNL     1      -1.019   0.295  -0.618  0.00  0.00    +0.000 A 
ATOM      6  C9  UNL     1      -1.614  -0.535   0.348  0.00  0.00    +0.000 A 
ATOM      7  C10 UNL     1      -3.005  -0.648   0.428  0.00  0.00    +0.000 A 
ATOM      8  C11 UNL     1      -3.833   0.061  -0.459  0.00  0.00    +0.000 A 
ATOM      9  C19 UNL     1      -3.237   0.881  -1.432  0.00  0.00    +0.000 A 
ATOM     10  C20 UNL     1      -1.847   0.993  -1.514  0.00  0.00    +0.000 A 
BRANCH   8  11
ATOM     11  C12 UNL     1      -5.308  -0.050  -0.381  0.00  0.00    +0.000 A 
ATOM     12  N3  UNL     1      -6.148   0.611  -1.219  0.00  0.00    +0.000 NA
ATOM     13  C13 UNL     1      -7.447   0.338  -0.938  0.00  0.00    +0.000 A 
ATOM     14  C14 UNL     1      -8.535   0.873  -1.631  0.00  0.00    +0.000 A 
ATOM     15  C15 UNL     1      -9.833   0.507  -1.236  0.00  0.00    +0.000 A 
ATOM     16  C16 UNL     1     -10.029  -0.383  -0.161  0.00  0.00    +0.000 A 
ATOM     17  C17 UNL     1      -8.928  -0.914   0.529  0.00  0.00    +0.000 A 
ATOM     18  C18 UNL     1      -7.652  -0.535   0.118  0.00  0.00    +0.000 A 
ATOM     19  S1  UNL     1      -6.166  -0.998   0.739  0.00  0.00    +0.000 S 
ENDBRANCH   8  11
ENDBRANCH   2   5
BRANCH   1  21
ATOM     20  C6  UNL     1       3.506  -0.029   1.242  0.00  0.00    +0.000 C 
ATOM     21  N1  UNL     1       2.700   0.167   0.244  0.00  0.00    +0.000 NA
BRANCH  20  25
ATOM     22  C2  UNL     1       7.769  -0.016   0.600  0.00  0.00    +0.000 A 
ATOM     23  C3  UNL     1       6.878   0.198  -0.461  0.00  0.00    +0.000 A 
ATOM     24  C4  UNL     1       5.503   0.191  -0.241  0.00  0.00    +0.000 A 
ATOM     25  C5  UNL     1       4.978  -0.029   1.046  0.00  0.00    +0.000 A 
ATOM     26  C21 UNL     1       5.872  -0.246   2.126  0.00  0.00    +0.000 A 
ATOM     27  I1  UNL     1       5.141  -0.588   4.107  0.00  0.00    +0.000 I 
ATOM     28  C22 UNL     1       7.268  -0.237   1.890  0.00  0.00    +0.000 A 
BRANCH  22  30
ATOM     29  C1  UNL     1       9.809   0.195  -0.835  0.00  0.00    +0.000 C 
ATOM     30  O1  UNL     1       9.161  -0.016   0.415  0.00  0.00    +0.000 OA
ENDBRANCH  22  30
BRANCH  28  31
ATOM     31  O3  UNL     1       8.191  -0.445   2.918  0.00  0.00    +0.000 OA
ATOM     32  H16 UNL     1       7.933  -0.613   3.881  0.00  0.00    +0.000 HD
ENDBRANCH  28  31
ENDBRANCH  20  25
ENDBRANCH   1  21
TORSDOF 6
