REMARK  Name = resultss/4CJN/ligands/lig_328_t1.pdb
REMARK  7 active torsions:
REMARK  status: ('A' for Active; 'I' for Inactive)
REMARK    1  A    between atoms: C1_1  and  O1_2
REMARK    2  A    between atoms: O1_2  and  C2_3
REMARK    3  A    between atoms: C7_9  and  C8_10
REMARK    4  A    between atoms: C8_10  and  C9_11
REMARK    5  A    between atoms: C12_14  and  O3_15
REMARK    6  A    between atoms: C13_16  and  O4_17
REMARK    7  A    between atoms: O4_17  and  C14_18
REMARK                            x       y       z     vdW  Elec       q    Type
REMARK                         _______ _______ _______ _____ _____    ______ ____
ROOT
ATOM      1  C8  UNL     1      -0.646   1.291   1.848  0.00  0.00    +0.000 C 
ENDROOT
BRANCH   1   8
ATOM      2  C2  UNL     1       3.467  -0.832  -0.074  0.00  0.00    +0.000 C 
ATOM      3  C3  UNL     1       3.094  -0.490  -1.492  0.00  0.00    +0.000 C 
ATOM      4  C4  UNL     1       2.178   0.696  -1.557  0.00  0.00    +0.000 C 
ATOM      5  O2  UNL     1       2.300   1.516  -2.454  0.00  0.00    +0.000 OA
ATOM      6  C5  UNL     1       1.038   0.806  -0.589  0.00  0.00    +0.000 C 
ATOM      7  C6  UNL     1       1.432   0.311   0.786  0.00  0.00    +0.000 C 
ATOM      8  C7  UNL     1       0.657   0.534   1.867  0.00  0.00    +0.000 C 
ATOM      9  C16 UNL     1       2.677  -0.482   0.962  0.00  0.00    +0.000 C 
BRANCH   2  11
ATOM     10  C1  UNL     1       5.166  -1.997   1.364  0.00  0.00    +0.000 C 
ATOM     11  O1  UNL     1       4.650  -1.570   0.107  0.00  0.00    +0.000 OA
ENDBRANCH   2  11
ENDBRANCH   1   8
BRANCH   1  12
ATOM     12  C9  UNL     1      -1.736   0.502   1.169  0.00  0.00    +0.000 A 
ATOM     13  C10 UNL     1      -2.168  -0.715   1.716  0.00  0.00    +0.000 A 
ATOM     14  C11 UNL     1      -3.175  -1.451   1.089  0.00  0.00    +0.000 A 
ATOM     15  C12 UNL     1      -3.766  -0.982  -0.089  0.00  0.00    +0.000 A 
ATOM     16  C13 UNL     1      -3.349   0.240  -0.648  0.00  0.00    +0.000 A 
ATOM     17  C15 UNL     1      -2.336   0.980  -0.007  0.00  0.00    +0.000 A 
BRANCH  15  18
ATOM     18  O3  UNL     1      -4.767  -1.746  -0.689  0.00  0.00    +0.000 OA
ATOM     19  H13 UNL     1      -5.229  -1.456  -1.543  0.00  0.00    +0.000 HD
ENDBRANCH  15  18
BRANCH  16  20
ATOM     20  O4  UNL     1      -3.957   0.684  -1.834  0.00  0.00    +0.000 OA
ATOM     21  C14 UNL     1      -3.618   1.889  -2.513  0.00  0.00    +0.000 C 
ENDBRANCH  16  20
ENDBRANCH   1  12
TORSDOF 5
