REMARK  Name = resultss/4CJN/ligands/lig_346_t0.pdb
REMARK  10 active torsions:
REMARK  status: ('A' for Active; 'I' for Inactive)
REMARK    1  A    between atoms: C1_2  and  C2_3
REMARK    2  A    between atoms: C2_3  and  N1_4
REMARK    3  A    between atoms: C4_6  and  C5_7
REMARK    4  A    between atoms: C5_7  and  O2_8
REMARK    5  A    between atoms: O2_8  and  C6_9
REMARK    6  A    between atoms: C9_12  and  C10_13
REMARK    7  A    between atoms: N3_23  and  N4_24
REMARK    8  A    between atoms: N4_24  and  C18_25
REMARK    9  A    between atoms: N7_35  and  C26_36
REMARK   10  A    between atoms: C26_36  and  C27_37
REMARK                            x       y       z     vdW  Elec       q    Type
REMARK                         _______ _______ _______ _____ _____    ______ ____
ROOT
ATOM      1  C6  UNL     1      -0.308  -0.254  -0.423  0.00  0.00    +0.000 A 
ATOM      2  C7  UNL     1      -1.073   0.618  -1.220  0.00  0.00    +0.000 A 
ATOM      3  C8  UNL     1      -2.391   0.289  -1.555  0.00  0.00    +0.000 A 
ATOM      4  C9  UNL     1      -2.967  -0.908  -1.097  0.00  0.00    +0.000 A 
ATOM      5  C24 UNL     1      -2.199  -1.776  -0.300  0.00  0.00    +0.000 A 
ATOM      6  C25 UNL     1      -0.877  -1.455   0.018  0.00  0.00    +0.000 A 
ENDROOT
BRANCH   4   7
ATOM      7  C10 UNL     1      -4.421  -1.222  -1.379  0.00  0.00    +0.000 C 
ATOM      8  N2  UNL     1      -4.663  -1.253  -2.826  0.00  0.00    +0.000 N 
ATOM      9  C11 UNL     1      -5.991  -1.120  -3.351  0.00  0.00    +0.000 A 
ATOM     10  C12 UNL     1      -6.279  -1.528  -4.660  0.00  0.00    +0.000 A 
ATOM     11  C13 UNL     1      -7.579  -1.415  -5.161  0.00  0.00    +0.000 A 
ATOM     12  C14 UNL     1      -8.599  -0.899  -4.353  0.00  0.00    +0.000 A 
ATOM     13  C15 UNL     1      -8.317  -0.477  -3.050  0.00  0.00    +0.000 A 
ATOM     14  C16 UNL     1      -7.010  -0.578  -2.546  0.00  0.00    +0.000 A 
ATOM     15  C17 UNL     1      -6.656  -0.083  -1.204  0.00  0.00    +0.000 C 
ATOM     16  O3  UNL     1      -7.515   0.507  -0.491  0.00  0.00    +0.000 OA
ATOM     17  N3  UNL     1      -5.310  -0.244  -0.728  0.00  0.00    +0.000 N 
ATOM     18  H9  UNL     1      -3.912  -1.624  -3.452  0.00  0.00    +0.000 HD
BRANCH  17  19
ATOM     19  N4  UNL     1      -4.922   0.388   0.468  0.00  0.00    +0.000 N 
ATOM     20  H14 UNL     1      -4.375   1.276   0.407  0.00  0.00    +0.000 HD
BRANCH  19  21
ATOM     21  C18 UNL     1      -5.394  -0.053   1.750  0.00  0.00    +0.000 A 
ATOM     22  C19 UNL     1      -5.392   0.839   2.833  0.00  0.00    +0.000 A 
ATOM     23  C20 UNL     1      -5.855   0.426   4.086  0.00  0.00    +0.000 A 
ATOM     24  C21 UNL     1      -6.308  -0.885   4.270  0.00  0.00    +0.000 A 
ATOM     25  C22 UNL     1      -6.294  -1.788   3.200  0.00  0.00    +0.000 A 
ATOM     26  C23 UNL     1      -5.844  -1.370   1.942  0.00  0.00    +0.000 A 
ENDBRANCH  19  21
ENDBRANCH  17  19
ENDBRANCH   4   7
BRANCH   1  27
ATOM     27  O2  UNL     1       1.010   0.038  -0.042  0.00  0.00    +0.000 OA
BRANCH  27  28
ATOM     28  C5  UNL     1       1.620   1.315  -0.167  0.00  0.00    +0.000 C 
BRANCH  28  31
ATOM     29  N1  UNL     1       4.669   1.150   1.783  0.00  0.00    +0.000 N 
ATOM     30  C3  UNL     1       3.365   1.464   1.703  0.00  0.00    +0.000 A 
ATOM     31  C4  UNL     1       3.001   1.248   0.391  0.00  0.00    +0.000 A 
ATOM     32  N5  UNL     1       4.071   0.771  -0.276  0.00  0.00    +0.000 NA
ATOM     33  N6  UNL     1       5.071   0.722   0.595  0.00  0.00    +0.000 NA
BRANCH  29  34
ATOM     34  C2  UNL     1       5.478   1.120   3.000  0.00  0.00    +0.000 C 
BRANCH  34  36
ATOM     35  O1  UNL     1       7.152   2.710   2.395  0.00  0.00    +0.000 OA
ATOM     36  C1  UNL     1       6.894   1.513   2.700  0.00  0.00    +0.000 C 
ATOM     37  N7  UNL     1       7.942   0.533   2.741  0.00  0.00    +0.000 N 
ATOM     38  H22 UNL     1       7.715  -0.440   3.048  0.00  0.00    +0.000 HD
BRANCH  37  39
ATOM     39  C26 UNL     1       9.270   0.785   2.192  0.00  0.00    +0.000 C 
BRANCH  39  40
ATOM     40  C27 UNL     1       9.258   0.545   0.708  0.00  0.00    +0.000 A 
ATOM     41  C28 UNL     1       9.071   1.614  -0.185  0.00  0.00    +0.000 A 
ATOM     42  C29 UNL     1       9.011   1.378  -1.563  0.00  0.00    +0.000 A 
ATOM     43  C30 UNL     1       9.131   0.076  -2.056  0.00  0.00    +0.000 A 
ATOM     44  C31 UNL     1       9.309  -0.993  -1.173  0.00  0.00    +0.000 A 
ATOM     45  C32 UNL     1       9.369  -0.763   0.205  0.00  0.00    +0.000 A 
ENDBRANCH  39  40
ENDBRANCH  37  39
ENDBRANCH  34  36
ENDBRANCH  29  34
ENDBRANCH  28  31
ENDBRANCH  27  28
ENDBRANCH   1  27
TORSDOF 10
