REMARK  Name = resultss/4CJN/ligands/lig_236_t0.pdb
REMARK  6 active torsions:
REMARK  status: ('A' for Active; 'I' for Inactive)
REMARK    1  A    between atoms: C2_3  and  O2_4
REMARK    2  A    between atoms: C3_5  and  C4_6
REMARK    3  A    between atoms: C7_9  and  O3_10
REMARK    4  A    between atoms: C8_11  and  O4_12
REMARK    5  A    between atoms: C12_17  and  O6_18
REMARK    6  A    between atoms: C14_20  and  O7_21
REMARK                            x       y       z     vdW  Elec       q    Type
REMARK                         _______ _______ _______ _____ _____    ______ ____
ROOT
ATOM      1  O1  UNL     1       2.020  -2.838  -1.390  0.00  0.00    +0.000 OA
ATOM      2  C1  UNL     1       1.565  -1.788  -0.866  0.00  0.00    +0.000 A 
ATOM      3  C2  UNL     1       0.173  -1.619  -0.793  0.00  0.00    +0.000 A 
ATOM      4  C3  UNL     1      -0.342  -0.423  -0.264  0.00  0.00    +0.000 A 
ATOM      5  O5  UNL     1       0.489   0.543   0.110  0.00  0.00    +0.000 OA
ATOM      6  C10 UNL     1       1.811   0.431   0.058  0.00  0.00    +0.000 A 
ATOM      7  C11 UNL     1       2.589   1.522   0.454  0.00  0.00    +0.000 A 
ATOM      8  C12 UNL     1       3.981   1.452   0.405  0.00  0.00    +0.000 A 
ATOM      9  C13 UNL     1       4.601   0.275  -0.013  0.00  0.00    +0.000 A 
ATOM     10  C14 UNL     1       3.849  -0.847  -0.382  0.00  0.00    +0.000 A 
ATOM     11  C15 UNL     1       2.424  -0.766  -0.394  0.00  0.00    +0.000 A 
ENDROOT
BRANCH   4  12
ATOM     12  C4  UNL     1      -1.798  -0.182  -0.132  0.00  0.00    +0.000 A 
ATOM     13  C5  UNL     1      -2.663  -1.176   0.357  0.00  0.00    +0.000 A 
ATOM     14  C6  UNL     1      -4.029  -0.918   0.496  0.00  0.00    +0.000 A 
ATOM     15  C7  UNL     1      -4.549   0.336   0.163  0.00  0.00    +0.000 A 
ATOM     16  C8  UNL     1      -3.692   1.344  -0.308  0.00  0.00    +0.000 A 
ATOM     17  C9  UNL     1      -2.320   1.083  -0.446  0.00  0.00    +0.000 A 
BRANCH  15  18
ATOM     18  O3  UNL     1      -5.917   0.563   0.310  0.00  0.00    +0.000 OA
ATOM     19  H4  UNL     1      -6.342   1.454   0.084  0.00  0.00    +0.000 HD
ENDBRANCH  15  18
BRANCH  16  20
ATOM     20  O4  UNL     1      -4.202   2.599  -0.635  0.00  0.00    +0.000 OA
ATOM     21  H5  UNL     1      -3.605   3.343  -0.976  0.00  0.00    +0.000 HD
ENDBRANCH  16  20
ENDBRANCH   4  12
BRANCH   3  22
ATOM     22  O2  UNL     1      -0.693  -2.605  -1.274  0.00  0.00    +0.000 OA
ATOM     23  H1  UNL     1      -0.360  -3.476  -1.669  0.00  0.00    +0.000 HD
ENDBRANCH   3  22
BRANCH   8  24
ATOM     24  O6  UNL     1       4.761   2.544   0.779  0.00  0.00    +0.000 OA
ATOM     25  H8  UNL     1       4.343   3.412   1.091  0.00  0.00    +0.000 HD
ENDBRANCH   8  24
BRANCH  10  26
ATOM     26  O7  UNL     1       4.567  -2.005  -0.694  0.00  0.00    +0.000 OA
ATOM     27  H10 UNL     1       4.183  -2.938  -0.694  0.00  0.00    +0.000 HD
ENDBRANCH  10  26
TORSDOF 6
