REMARK  Name = resultss/4CJN/ligands/lig_243_t1.pdb
REMARK  2 active torsions:
REMARK  status: ('A' for Active; 'I' for Inactive)
REMARK    1  A    between atoms: N3_12  and  N4_13
REMARK    2  A    between atoms: C9_14  and  C10_15
REMARK                            x       y       z     vdW  Elec       q    Type
REMARK                         _______ _______ _______ _____ _____    ______ ____
ROOT
ATOM      1  O1  UNL     1      -1.362   1.233   3.197  0.00  0.00    +0.000 OA
ATOM      2  C1  UNL     1      -1.666   0.850   2.034  0.00  0.00    +0.000 A 
ATOM      3  N1  UNL     1      -2.973   0.812   1.657  0.00  0.00    +0.000 N 
ATOM      4  C2  UNL     1      -3.333   0.403   0.409  0.00  0.00    +0.000 A 
ATOM      5  C3  UNL     1      -4.683   0.366   0.025  0.00  0.00    +0.000 A 
ATOM      6  C4  UNL     1      -5.034  -0.056  -1.261  0.00  0.00    +0.000 A 
ATOM      7  C5  UNL     1      -4.044  -0.444  -2.168  0.00  0.00    +0.000 A 
ATOM      8  C6  UNL     1      -2.697  -0.411  -1.796  0.00  0.00    +0.000 A 
ATOM      9  C7  UNL     1      -2.333   0.012  -0.507  0.00  0.00    +0.000 A 
ATOM     10  N2  UNL     1      -1.024   0.050  -0.127  0.00  0.00    +0.000 N 
ATOM     11  C8  UNL     1      -0.665   0.462   1.128  0.00  0.00    +0.000 A 
ATOM     12  N3  UNL     1       0.583   0.501   1.497  0.00  0.00    +0.000 NA
ATOM     13  H1  UNL     1      -3.707   1.104   2.343  0.00  0.00    +0.000 HD
ATOM     14  H6  UNL     1      -0.293  -0.242  -0.815  0.00  0.00    +0.000 HD
ENDROOT
BRANCH  12  15
ATOM     15  N4  UNL     1       1.638   0.130   0.651  0.00  0.00    +0.000 NA
ATOM     16  C9  UNL     1       2.864   0.184   1.060  0.00  0.00    +0.000 C 
BRANCH  16  17
ATOM     17  C10 UNL     1       3.960  -0.205   0.169  0.00  0.00    +0.000 A 
ATOM     18  C11 UNL     1       5.309  -0.187   0.498  0.00  0.00    +0.000 A 
ATOM     19  C12 UNL     1       6.136  -0.612  -0.549  0.00  0.00    +0.000 A 
ATOM     20  C13 UNL     1       5.444  -0.963  -1.701  0.00  0.00    +0.000 A 
ATOM     21  S1  UNL     1       3.800  -0.746  -1.417  0.00  0.00    +0.000 S 
ENDBRANCH  16  17
ENDBRANCH  12  15
TORSDOF 2
