REMARK  Name = resultss/4CJN/ligands/lig_341_t1.pdb
REMARK  14 active torsions:
REMARK  status: ('A' for Active; 'I' for Inactive)
REMARK    1  A    between atoms: C1_1  and  C2_2
REMARK    2  A    between atoms: C2_2  and  C3_3
REMARK    3  A    between atoms: C6_6  and  N1_7
REMARK    4  A    between atoms: C7_8  and  O1_9
REMARK    5  A    between atoms: C7_8  and  C8_10
REMARK    6  A    between atoms: C8_10  and  N2_11
REMARK    7  A    between atoms: C10_13  and  C11_14
REMARK    8  A    between atoms: C11_14  and  O2_15
REMARK    9  A    between atoms: O2_15  and  C12_16
REMARK   10  A    between atoms: C15_19  and  C16_20
REMARK   11  A    between atoms: N4_30  and  N5_31
REMARK   12  A    between atoms: N5_31  and  C24_32
REMARK   13  A    between atoms: C31_39  and  O4_40
REMARK   14  A    between atoms: O4_40  and  C32_41
REMARK                            x       y       z     vdW  Elec       q    Type
REMARK                         _______ _______ _______ _____ _____    ______ ____
ROOT
ATOM      1  C12 UNL     1      -0.877  -1.133   0.273  0.00  0.00    +0.000 A 
ATOM      2  C13 UNL     1      -1.253  -2.466   0.020  0.00  0.00    +0.000 A 
ATOM      3  C14 UNL     1      -2.601  -2.827   0.003  0.00  0.00    +0.000 A 
ATOM      4  C15 UNL     1      -3.598  -1.866   0.234  0.00  0.00    +0.000 A 
ATOM      5  C30 UNL     1      -3.222  -0.545   0.518  0.00  0.00    +0.000 A 
ATOM      6  C31 UNL     1      -1.867  -0.166   0.513  0.00  0.00    +0.000 A 
ENDROOT
BRANCH   4   7
ATOM      7  C16 UNL     1      -5.058  -2.267   0.249  0.00  0.00    +0.000 C 
ATOM      8  N3  UNL     1      -5.527  -2.301   1.640  0.00  0.00    +0.000 N 
ATOM      9  C17 UNL     1      -6.889  -2.041   2.004  0.00  0.00    +0.000 A 
ATOM     10  C18 UNL     1      -7.339  -2.327   3.302  0.00  0.00    +0.000 A 
ATOM     11  C19 UNL     1      -8.670  -2.084   3.653  0.00  0.00    +0.000 A 
ATOM     12  C20 UNL     1      -9.556  -1.552   2.713  0.00  0.00    +0.000 A 
ATOM     13  C21 UNL     1      -9.111  -1.253   1.424  0.00  0.00    +0.000 A 
ATOM     14  C22 UNL     1      -7.773  -1.492   1.065  0.00  0.00    +0.000 A 
ATOM     15  C23 UNL     1      -7.259  -1.148  -0.270  0.00  0.00    +0.000 C 
ATOM     16  O3  UNL     1      -8.032  -0.668  -1.144  0.00  0.00    +0.000 OA
ATOM     17  N4  UNL     1      -5.865  -1.342  -0.570  0.00  0.00    +0.000 N 
ATOM     18  H17 UNL     1      -4.893  -2.720   2.359  0.00  0.00    +0.000 HD
BRANCH  17  19
ATOM     19  N5  UNL     1      -5.358  -0.907  -1.813  0.00  0.00    +0.000 N 
ATOM     20  H22 UNL     1      -4.818  -1.585  -2.399  0.00  0.00    +0.000 HD
BRANCH  19  21
ATOM     21  C24 UNL     1      -5.399   0.473  -2.223  0.00  0.00    +0.000 A 
ATOM     22  C25 UNL     1      -5.075   0.812  -3.547  0.00  0.00    +0.000 A 
ATOM     23  C26 UNL     1      -5.082   2.149  -3.959  0.00  0.00    +0.000 A 
ATOM     24  C27 UNL     1      -5.398   3.161  -3.047  0.00  0.00    +0.000 A 
ATOM     25  C28 UNL     1      -5.719   2.835  -1.727  0.00  0.00    +0.000 A 
ATOM     26  C29 UNL     1      -5.718   1.499  -1.313  0.00  0.00    +0.000 A 
ENDBRANCH  19  21
ENDBRANCH  17  19
ENDBRANCH   4   7
BRANCH   6  27
ATOM     27  O4  UNL     1      -1.464   1.159   0.742  0.00  0.00    +0.000 OA
ATOM     28  C32 UNL     1      -2.357   2.256   0.915  0.00  0.00    +0.000 C 
ENDBRANCH   6  27
BRANCH   1  29
ATOM     29  O2  UNL     1       0.466  -0.728   0.297  0.00  0.00    +0.000 OA
BRANCH  29  30
ATOM     30  C11 UNL     1       1.579  -1.609   0.161  0.00  0.00    +0.000 C 
BRANCH  30  33
ATOM     31  N2  UNL     1       4.357   0.516   1.130  0.00  0.00    +0.000 N 
ATOM     32  C9  UNL     1       3.042   0.246   1.175  0.00  0.00    +0.000 A 
ATOM     33  C10 UNL     1       2.852  -0.853   0.364  0.00  0.00    +0.000 A 
ATOM     34  N6  UNL     1       4.049  -1.226  -0.135  0.00  0.00    +0.000 NA
ATOM     35  N7  UNL     1       4.943  -0.370   0.339  0.00  0.00    +0.000 NA
BRANCH  31  36
ATOM     36  C8  UNL     1       5.044   1.611   1.805  0.00  0.00    +0.000 C 
BRANCH  36  38
ATOM     37  N1  UNL     1       6.329   2.751   0.029  0.00  0.00    +0.000 NA
ATOM     38  C7  UNL     1       5.306   2.732   0.835  0.00  0.00    +0.000 C 
BRANCH  37  42
ATOM     39  C3  UNL     1       9.599   0.049  -0.140  0.00  0.00    +0.000 A 
ATOM     40  C4  UNL     1       8.765   0.232  -1.254  0.00  0.00    +0.000 A 
ATOM     41  C5  UNL     1       7.679   1.111  -1.185  0.00  0.00    +0.000 A 
ATOM     42  C6  UNL     1       7.409   1.808  -0.002  0.00  0.00    +0.000 A 
ATOM     43  C33 UNL     1       8.269   1.663   1.095  0.00  0.00    +0.000 A 
ATOM     44  C34 UNL     1       9.353   0.783   1.030  0.00  0.00    +0.000 A 
BRANCH  39  46
ATOM     45  C1  UNL     1      12.005  -0.124  -0.770  0.00  0.00    +0.000 C 
ATOM     46  C2  UNL     1      10.790  -0.867  -0.224  0.00  0.00    +0.000 C 
ENDBRANCH  39  46
ENDBRANCH  37  42
BRANCH  38  47
ATOM     47  O1  UNL     1       4.366   3.756   0.751  0.00  0.00    +0.000 OA
ATOM     48  H8  UNL     1       4.481   4.520   0.096  0.00  0.00    +0.000 HD
ENDBRANCH  38  47
ENDBRANCH  36  38
ENDBRANCH  31  36
ENDBRANCH  30  33
ENDBRANCH  29  30
ENDBRANCH   1  29
TORSDOF 12
