REMARK  Name = resultss/4CJN/ligands/lig_329_t2.pdb
REMARK  6 active torsions:
REMARK  status: ('A' for Active; 'I' for Inactive)
REMARK    1  A    between atoms: C1_1  and  O1_2
REMARK    2  A    between atoms: O1_2  and  C2_3
REMARK    3  A    between atoms: C6_8  and  C7_9
REMARK    4  A    between atoms: C7_9  and  C8_10
REMARK    5  A    between atoms: C8_10  and  C9_11
REMARK    6  A    between atoms: C13_15  and  O3_16
REMARK                            x       y       z     vdW  Elec       q    Type
REMARK                         _______ _______ _______ _____ _____    ______ ____
ROOT
ATOM      1  C7  UNL     1       0.117  -0.640  -0.060  0.00  0.00    +0.000 C 
ENDROOT
BRANCH   1   7
ATOM      2  C2  UNL     1      -3.726   0.028   0.590  0.00  0.00    +0.000 C 
ATOM      3  C3  UNL     1      -3.850  -0.512   1.807  0.00  0.00    +0.000 C 
ATOM      4  C4  UNL     1      -2.706  -1.136   2.476  0.00  0.00    +0.000 C 
ATOM      5  O2  UNL     1      -2.846  -1.652   3.616  0.00  0.00    +0.000 OA
ATOM      6  C5  UNL     1      -1.399  -1.154   1.816  0.00  0.00    +0.000 C 
ATOM      7  C6  UNL     1      -1.239  -0.612   0.600  0.00  0.00    +0.000 C 
ATOM      8  C15 UNL     1      -2.400   0.007  -0.156  0.00  0.00    +0.000 C 
BRANCH   2  10
ATOM      9  C1  UNL     1      -4.878   1.216  -1.274  0.00  0.00    +0.000 C 
ATOM     10  O1  UNL     1      -4.863   0.611   0.014  0.00  0.00    +0.000 OA
ENDBRANCH   2  10
ENDBRANCH   1   7
BRANCH   1  11
ATOM     11  C8  UNL     1       1.072   0.360   0.601  0.00  0.00    +0.000 C 
BRANCH  11  12
ATOM     12  C9  UNL     1       2.410   0.347  -0.088  0.00  0.00    +0.000 A 
ATOM     13  C10 UNL     1       2.653   1.194  -1.181  0.00  0.00    +0.000 A 
ATOM     14  C11 UNL     1       3.885   1.158  -1.840  0.00  0.00    +0.000 A 
ATOM     15  C12 UNL     1       4.879   0.270  -1.420  0.00  0.00    +0.000 A 
ATOM     16  C13 UNL     1       4.642  -0.590  -0.340  0.00  0.00    +0.000 A 
ATOM     17  C14 UNL     1       3.408  -0.554   0.321  0.00  0.00    +0.000 A 
BRANCH  16  18
ATOM     18  O3  UNL     1       5.622  -1.485   0.084  0.00  0.00    +0.000 OA
ATOM     19  H13 UNL     1       6.524  -1.537  -0.374  0.00  0.00    +0.000 HD
ENDBRANCH  16  18
ENDBRANCH  11  12
ENDBRANCH   1  11
TORSDOF 5
