REMARK  Name = resultss/4CJN/ligands/lig_375_t0.pdb
REMARK  9 active torsions:
REMARK  status: ('A' for Active; 'I' for Inactive)
REMARK    1  A    between atoms: C1_1  and  O1_2
REMARK    2  A    between atoms: O1_2  and  C2_3
REMARK    3  A    between atoms: C5_6  and  C6_7
REMARK    4  A    between atoms: C6_7  and  C7_8
REMARK    5  A    between atoms: C6_7  and  C16_21
REMARK    6  A    between atoms: C8_9  and  O2_10
REMARK    7  A    between atoms: C17_22  and  O5_23
REMARK    8  A    between atoms: C26_35  and  O8_36
REMARK    9  A    between atoms: O8_36  and  C27_37
REMARK                            x       y       z     vdW  Elec       q    Type
REMARK                         _______ _______ _______ _____ _____    ______ ____
ROOT
ATOM      1  C6  UNL     1       0.010  -0.394   1.108  0.00  0.00    +0.000 C 
ENDROOT
BRANCH   1   2
ATOM      2  C7  UNL     1      -0.257   1.115   1.017  0.00  0.00    +0.000 A 
ATOM      3  C8  UNL     1       0.011   1.863  -0.155  0.00  0.00    +0.000 A 
ATOM      4  C9  UNL     1      -0.248   3.255  -0.165  0.00  0.00    +0.000 A 
ATOM      5  C10 UNL     1       0.036   4.089  -1.269  0.00  0.00    +0.000 A 
ATOM      6  C11 UNL     1      -0.253   5.458  -1.216  0.00  0.00    +0.000 A 
ATOM      7 CL1  UNL     1       0.107   6.484  -2.594  0.00  0.00    +0.000 Cl
ATOM      8  C12 UNL     1      -0.823   6.012  -0.069  0.00  0.00    +0.000 A 
ATOM      9  C13 UNL     1      -1.103   5.203   1.032  0.00  0.00    +0.000 A 
ATOM     10  C14 UNL     1      -0.819   3.834   0.992  0.00  0.00    +0.000 A 
ATOM     11  O3  UNL     1      -1.095   3.089   2.053  0.00  0.00    +0.000 OA
ATOM     12  C15 UNL     1      -0.849   1.788   2.109  0.00  0.00    +0.000 A 
ATOM     13  O4  UNL     1      -1.160   1.162   3.158  0.00  0.00    +0.000 OA
BRANCH   3  14
ATOM     14  O2  UNL     1       0.501   1.195  -1.282  0.00  0.00    +0.000 OA
ATOM     15  H7  UNL     1       0.654   1.618  -2.185  0.00  0.00    +0.000 HD
ENDBRANCH   3  14
ENDBRANCH   1   2
BRANCH   1  16
ATOM     16  C16 UNL     1       1.367  -0.800   0.512  0.00  0.00    +0.000 A 
ATOM     17  C17 UNL     1       2.545  -0.426   1.197  0.00  0.00    +0.000 A 
ATOM     18  C18 UNL     1       3.807  -0.789   0.670  0.00  0.00    +0.000 A 
ATOM     19  C19 UNL     1       5.032  -0.477   1.300  0.00  0.00    +0.000 A 
ATOM     20  C20 UNL     1       6.246  -0.866   0.722  0.00  0.00    +0.000 A 
ATOM     21 CL2  UNL     1       7.761  -0.473   1.516  0.00  0.00    +0.000 Cl
ATOM     22  C21 UNL     1       6.257  -1.568  -0.484  0.00  0.00    +0.000 A 
ATOM     23  C22 UNL     1       5.056  -1.885  -1.118  0.00  0.00    +0.000 A 
ATOM     24  C23 UNL     1       3.836  -1.502  -0.550  0.00  0.00    +0.000 A 
ATOM     25  O6  UNL     1       2.711  -1.814  -1.176  0.00  0.00    +0.000 OA
ATOM     26  C24 UNL     1       1.509  -1.498  -0.714  0.00  0.00    +0.000 A 
ATOM     27  O7  UNL     1       0.506  -1.821  -1.402  0.00  0.00    +0.000 OA
BRANCH  17  28
ATOM     28  O5  UNL     1       2.416   0.304   2.386  0.00  0.00    +0.000 OA
ATOM     29  H11 UNL     1       3.186   0.649   2.940  0.00  0.00    +0.000 HD
ENDBRANCH  17  28
ENDBRANCH   1  16
BRANCH   1  33
ATOM     30  C2  UNL     1      -3.309  -2.909  -0.155  0.00  0.00    +0.000 A 
ATOM     31  C3  UNL     1      -2.370  -3.362   0.789  0.00  0.00    +0.000 A 
ATOM     32  C4  UNL     1      -1.316  -2.540   1.187  0.00  0.00    +0.000 A 
ATOM     33  C5  UNL     1      -1.176  -1.245   0.662  0.00  0.00    +0.000 A 
ATOM     34  C25 UNL     1      -2.111  -0.799  -0.293  0.00  0.00    +0.000 A 
ATOM     35  C26 UNL     1      -3.178  -1.624  -0.700  0.00  0.00    +0.000 A 
BRANCH  30  37
ATOM     36  C1  UNL     1      -4.638  -5.029  -0.116  0.00  0.00    +0.000 C 
ATOM     37  O1  UNL     1      -4.383  -3.708  -0.580  0.00  0.00    +0.000 OA
ENDBRANCH  30  37
BRANCH  35  38
ATOM     38  O8  UNL     1      -4.126  -1.202  -1.646  0.00  0.00    +0.000 OA
ATOM     39  C27 UNL     1      -4.120   0.071  -2.284  0.00  0.00    +0.000 C 
ENDBRANCH  35  38
ENDBRANCH   1  33
TORSDOF 7
