REMARK  Name = resultss/4CJN/ligands/lig_359_t1.pdb
REMARK  7 active torsions:
REMARK  status: ('A' for Active; 'I' for Inactive)
REMARK    1  A    between atoms: C1_2  and  C2_3
REMARK    2  A    between atoms: C2_3  and  N1_4
REMARK    3  A    between atoms: C3_5  and  C4_6
REMARK    4  A    between atoms: C4_6  and  C5_7
REMARK    5  A    between atoms: N3_23  and  N4_24
REMARK    6  A    between atoms: C18_25  and  O3_26
REMARK    7  A    between atoms: C18_25  and  C19_27
REMARK                            x       y       z     vdW  Elec       q    Type
REMARK                         _______ _______ _______ _____ _____    ______ ____
ROOT
ATOM      1  C2  UNL     1      -1.179  -2.403  -1.845  0.00  0.00    +0.000 C 
ENDROOT
BRANCH   1   2
ATOM      2  N1  UNL     1      -2.343  -1.522  -2.094  0.00  0.00    +0.000 N 
ATOM      3  C3  UNL     1      -3.433  -1.500  -1.243  0.00  0.00    +0.000 A 
ATOM      4  N2  UNL     1      -4.466  -0.650  -1.485  0.00  0.00    +0.000 NA
ATOM      5  C11 UNL     1      -4.470   0.193  -2.543  0.00  0.00    +0.000 A 
ATOM      6  C12 UNL     1      -5.559   1.049  -2.751  0.00  0.00    +0.000 A 
ATOM      7  C13 UNL     1      -5.562   1.922  -3.843  0.00  0.00    +0.000 A 
ATOM      8  C14 UNL     1      -4.480   1.943  -4.728  0.00  0.00    +0.000 A 
ATOM      9  C15 UNL     1      -3.389   1.090  -4.524  0.00  0.00    +0.000 A 
ATOM     10  C16 UNL     1      -3.379   0.206  -3.427  0.00  0.00    +0.000 A 
ATOM     11  C17 UNL     1      -2.309  -0.669  -3.175  0.00  0.00    +0.000 A 
ATOM     12  O2  UNL     1      -1.306  -0.658  -3.946  0.00  0.00    +0.000 OA
BRANCH   3  13
ATOM     13  C4  UNL     1      -3.552  -2.386  -0.020  0.00  0.00    +0.000 C 
BRANCH  13  14
ATOM     14  C5  UNL     1      -2.591  -1.986   1.071  0.00  0.00    +0.000 A 
ATOM     15  C6  UNL     1      -1.701  -2.928   1.613  0.00  0.00    +0.000 A 
ATOM     16  C7  UNL     1      -0.807  -2.557   2.621  0.00  0.00    +0.000 A 
ATOM     17  C8  UNL     1      -0.803  -1.247   3.108  0.00  0.00    +0.000 A 
ATOM     18 BR1  UNL     1       0.420  -0.746   4.485  0.00  0.00    +0.000 Br
ATOM     19  C9  UNL     1      -1.701  -0.308   2.591  0.00  0.00    +0.000 A 
ATOM     20  C10 UNL     1      -2.598  -0.677   1.583  0.00  0.00    +0.000 A 
ENDBRANCH  13  14
ENDBRANCH   3  13
ENDBRANCH   1   2
BRANCH   1  22
ATOM     21  O1  UNL     1       0.826  -2.450  -0.565  0.00  0.00    +0.000 OA
ATOM     22  C1  UNL     1      -0.117  -1.738  -1.006  0.00  0.00    +0.000 C 
ATOM     23  N3  UNL     1      -0.150  -0.333  -0.702  0.00  0.00    +0.000 N 
ATOM     24  H13 UNL     1      -1.030   0.203  -0.863  0.00  0.00    +0.000 HD
BRANCH  23  25
ATOM     25  N4  UNL     1       0.797   0.251   0.157  0.00  0.00    +0.000 NA
ATOM     26  C18 UNL     1       2.077   0.283  -0.081  0.00  0.00    +0.000 C 
BRANCH  26  27
ATOM     27  C19 UNL     1       3.012   0.836   0.937  0.00  0.00    +0.000 A 
ATOM     28  C20 UNL     1       4.395   0.662   0.768  0.00  0.00    +0.000 A 
ATOM     29  C21 UNL     1       5.285   1.158   1.723  0.00  0.00    +0.000 A 
ATOM     30  C22 UNL     1       6.672   1.002   1.585  0.00  0.00    +0.000 A 
ATOM     31  C23 UNL     1       7.533   1.512   2.563  0.00  0.00    +0.000 A 
ATOM     32  C24 UNL     1       7.013   2.174   3.680  0.00  0.00    +0.000 A 
ATOM     33  C25 UNL     1       5.629   2.331   3.825  0.00  0.00    +0.000 A 
ATOM     34  C26 UNL     1       4.762   1.828   2.848  0.00  0.00    +0.000 A 
ATOM     35  O4  UNL     1       3.450   1.986   2.982  0.00  0.00    +0.000 OA
ATOM     36  C27 UNL     1       2.572   1.533   2.090  0.00  0.00    +0.000 A 
ATOM     37  O5  UNL     1       1.347   1.746   2.291  0.00  0.00    +0.000 OA
ENDBRANCH  26  27
BRANCH  26  38
ATOM     38  O3  UNL     1       2.595  -0.182  -1.293  0.00  0.00    +0.000 OA
ATOM     39  H14 UNL     1       2.010  -0.471  -2.067  0.00  0.00    +0.000 HD
ENDBRANCH  26  38
ENDBRANCH  23  25
ENDBRANCH   1  22
TORSDOF 7
