REMARK  Name = resultss/4CJN/ligands/lig_368_t0.pdb
REMARK  11 active torsions:
REMARK  status: ('A' for Active; 'I' for Inactive)
REMARK    1  A    between atoms: C1_1  and  C2_2
REMARK    2  A    between atoms: C2_2  and  O1_3
REMARK    3  A    between atoms: O1_3  and  C3_4
REMARK    4  A    between atoms: C5_6  and  C6_7
REMARK    5  A    between atoms: C6_7  and  C7_8
REMARK    6  A    between atoms: C6_7  and  C17_21
REMARK    7  A    between atoms: C8_9  and  O2_10
REMARK    8  A    between atoms: C11_13  and  C12_14
REMARK    9  A    between atoms: C18_22  and  O5_23
REMARK   10  A    between atoms: C21_26  and  C22_27
REMARK   11  A    between atoms: C29_36  and  O8_37
REMARK                            x       y       z     vdW  Elec       q    Type
REMARK                         _______ _______ _______ _____ _____    ______ ____
ROOT
ATOM      1  C6  UNL     1      -0.644   0.249   1.677  0.00  0.00    +0.000 C 
ENDROOT
BRANCH   1   2
ATOM      2  C7  UNL     1      -1.657  -0.376   0.702  0.00  0.00    +0.000 A 
ATOM      3  C8  UNL     1      -1.987  -1.755   0.809  0.00  0.00    +0.000 A 
ATOM      4  C9  UNL     1      -2.934  -2.312  -0.067  0.00  0.00    +0.000 A 
ATOM      5  C10 UNL     1      -3.312  -3.666   0.009  0.00  0.00    +0.000 A 
ATOM      6  C11 UNL     1      -4.252  -4.193  -0.890  0.00  0.00    +0.000 A 
ATOM      7  C12 UNL     1      -4.682  -5.626  -0.778  0.00  0.00    +0.000 C 
ATOM      8  C13 UNL     1      -4.837  -3.354  -1.850  0.00  0.00    +0.000 A 
ATOM      9  C14 UNL     1      -4.464  -2.011  -1.933  0.00  0.00    +0.000 A 
ATOM     10  C15 UNL     1      -3.515  -1.488  -1.049  0.00  0.00    +0.000 A 
ATOM     11  O3  UNL     1      -3.165  -0.215  -1.147  0.00  0.00    +0.000 OA
ATOM     12  C16 UNL     1      -2.280   0.361  -0.343  0.00  0.00    +0.000 A 
ATOM     13  O4  UNL     1      -2.000   1.571  -0.547  0.00  0.00    +0.000 OA
BRANCH   3  14
ATOM     14  O2  UNL     1      -1.393  -2.591   1.762  0.00  0.00    +0.000 OA
ATOM     15  H8  UNL     1      -0.662  -2.306   2.399  0.00  0.00    +0.000 HD
ENDBRANCH   3  14
ENDBRANCH   1   2
BRANCH   1  16
ATOM     16  C17 UNL     1       0.799  -0.215   1.428  0.00  0.00    +0.000 A 
ATOM     17  C18 UNL     1       1.351  -0.311   0.128  0.00  0.00    +0.000 A 
ATOM     18  C19 UNL     1       2.687  -0.753  -0.028  0.00  0.00    +0.000 A 
ATOM     19  C20 UNL     1       3.301  -0.938  -1.286  0.00  0.00    +0.000 A 
ATOM     20  C21 UNL     1       4.639  -1.356  -1.376  0.00  0.00    +0.000 A 
ATOM     21  C22 UNL     1       5.269  -1.586  -2.718  0.00  0.00    +0.000 C 
ATOM     22  C23 UNL     1       5.360  -1.627  -0.206  0.00  0.00    +0.000 A 
ATOM     23  C24 UNL     1       4.763  -1.458   1.042  0.00  0.00    +0.000 A 
ATOM     24  C25 UNL     1       3.438  -1.026   1.139  0.00  0.00    +0.000 A 
ATOM     25  O6  UNL     1       2.897  -0.875   2.339  0.00  0.00    +0.000 OA
ATOM     26  C26 UNL     1       1.644  -0.486   2.526  0.00  0.00    +0.000 A 
ATOM     27  O7  UNL     1       1.225  -0.357   3.708  0.00  0.00    +0.000 OA
BRANCH  17  28
ATOM     28  O5  UNL     1       0.566   0.066  -0.966  0.00  0.00    +0.000 OA
ATOM     29  H15 UNL     1       0.894   0.132  -1.918  0.00  0.00    +0.000 HD
ENDBRANCH  17  28
ENDBRANCH   1  16
BRANCH   1  32
ATOM     30  C3  UNL     1      -0.030   4.057   1.391  0.00  0.00    +0.000 A 
ATOM     31  C4  UNL     1       0.136   2.665   1.247  0.00  0.00    +0.000 A 
ATOM     32  C5  UNL     1      -0.761   1.761   1.854  0.00  0.00    +0.000 A 
ATOM     33  C27 UNL     1      -1.832   2.276   2.604  0.00  0.00    +0.000 A 
ATOM     34  C28 UNL     1      -1.994   3.652   2.761  0.00  0.00    +0.000 A 
ATOM     35  C29 UNL     1      -1.101   4.543   2.161  0.00  0.00    +0.000 A 
BRANCH  35  36
ATOM     36  O8  UNL     1      -1.298   5.913   2.337  0.00  0.00    +0.000 OA
ATOM     37  H24 UNL     1      -0.684   6.605   1.924  0.00  0.00    +0.000 HD
ENDBRANCH  35  36
BRANCH  30  38
ATOM     38  O1  UNL     1       0.843   4.982   0.791  0.00  0.00    +0.000 OA
BRANCH  38  40
ATOM     39  C1  UNL     1       1.356   4.306  -1.490  0.00  0.00    +0.000 C 
ATOM     40  C2  UNL     1       1.904   4.666  -0.112  0.00  0.00    +0.000 C 
ENDBRANCH  38  40
ENDBRANCH  30  38
ENDBRANCH   1  32
TORSDOF 8
