REMARK  Name = resultss/4CJN/ligands/lig_340_t1.pdb
REMARK  14 active torsions:
REMARK  status: ('A' for Active; 'I' for Inactive)
REMARK    1  A    between atoms: C1_1  and  O1_2
REMARK    2  A    between atoms: O1_2  and  C2_3
REMARK    3  A    between atoms: C5_6  and  N1_7
REMARK    4  A    between atoms: C6_8  and  O2_9
REMARK    5  A    between atoms: C6_8  and  C7_10
REMARK    6  A    between atoms: C7_10  and  N2_11
REMARK    7  A    between atoms: C9_13  and  C10_14
REMARK    8  A    between atoms: C10_14  and  O3_15
REMARK    9  A    between atoms: O3_15  and  C11_16
REMARK   10  A    between atoms: C14_19  and  C15_20
REMARK   11  A    between atoms: N4_30  and  N5_31
REMARK   12  A    between atoms: N5_31  and  C23_32
REMARK   13  A    between atoms: C30_39  and  O5_40
REMARK   14  A    between atoms: O5_40  and  C31_41
REMARK                            x       y       z     vdW  Elec       q    Type
REMARK                         _______ _______ _______ _____ _____    ______ ____
ROOT
ATOM      1  C11 UNL     1      -0.610   0.414  -0.618  0.00  0.00    +0.000 A 
ATOM      2  C12 UNL     1      -1.469  -0.225  -1.531  0.00  0.00    +0.000 A 
ATOM      3  C13 UNL     1      -2.845  -0.010  -1.475  0.00  0.00    +0.000 A 
ATOM      4  C14 UNL     1      -3.394   0.869  -0.526  0.00  0.00    +0.000 A 
ATOM      5  C29 UNL     1      -2.538   1.491   0.399  0.00  0.00    +0.000 A 
ATOM      6  C30 UNL     1      -1.147   1.268   0.357  0.00  0.00    +0.000 A 
ENDROOT
BRANCH   4   7
ATOM      7  C15 UNL     1      -4.888   1.103  -0.445  0.00  0.00    +0.000 C 
ATOM      8  N3  UNL     1      -5.459   1.301  -1.783  0.00  0.00    +0.000 N 
ATOM      9  C16 UNL     1      -6.051   0.231  -2.537  0.00  0.00    +0.000 A 
ATOM     10  C17 UNL     1      -6.319   0.395  -3.904  0.00  0.00    +0.000 A 
ATOM     11  C18 UNL     1      -6.854  -0.661  -4.647  0.00  0.00    +0.000 A 
ATOM     12  C19 UNL     1      -7.132  -1.883  -4.029  0.00  0.00    +0.000 A 
ATOM     13  C20 UNL     1      -6.878  -2.053  -2.665  0.00  0.00    +0.000 A 
ATOM     14  C21 UNL     1      -6.337  -0.995  -1.913  0.00  0.00    +0.000 A 
ATOM     15  C22 UNL     1      -6.076  -1.128  -0.471  0.00  0.00    +0.000 C 
ATOM     16  O4  UNL     1      -6.338  -2.206   0.129  0.00  0.00    +0.000 OA
ATOM     17  N4  UNL     1      -5.540  -0.010   0.258  0.00  0.00    +0.000 N 
ATOM     18  H15 UNL     1      -5.285   2.219  -2.255  0.00  0.00    +0.000 HD
BRANCH  17  19
ATOM     19  N5  UNL     1      -5.487  -0.047   1.664  0.00  0.00    +0.000 N 
ATOM     20  H20 UNL     1      -4.577   0.161   2.136  0.00  0.00    +0.000 HD
BRANCH  19  21
ATOM     21  C23 UNL     1      -6.671  -0.147   2.473  0.00  0.00    +0.000 A 
ATOM     22  C24 UNL     1      -7.954   0.015   1.918  0.00  0.00    +0.000 A 
ATOM     23  C25 UNL     1      -9.088  -0.031   2.735  0.00  0.00    +0.000 A 
ATOM     24  C26 UNL     1      -8.951  -0.221   4.113  0.00  0.00    +0.000 A 
ATOM     25  C27 UNL     1      -7.683  -0.378   4.674  0.00  0.00    +0.000 A 
ATOM     26  C28 UNL     1      -6.546  -0.336   3.860  0.00  0.00    +0.000 A 
ENDBRANCH  19  21
ENDBRANCH  17  19
ENDBRANCH   4   7
BRANCH   6  27
ATOM     27  O5  UNL     1      -0.267   1.874   1.268  0.00  0.00    +0.000 OA
ATOM     28  C31 UNL     1      -0.669   2.746   2.320  0.00  0.00    +0.000 C 
ENDBRANCH   6  27
BRANCH   1  29
ATOM     29  O3  UNL     1       0.781   0.220  -0.645  0.00  0.00    +0.000 OA
BRANCH  29  30
ATOM     30  C10 UNL     1       1.463  -0.564  -1.621  0.00  0.00    +0.000 C 
BRANCH  30  33
ATOM     31  N2  UNL     1       4.879  -1.075  -0.528  0.00  0.00    +0.000 N 
ATOM     32  C8  UNL     1       3.598  -1.478  -0.540  0.00  0.00    +0.000 A 
ATOM     33  C9  UNL     1       2.924  -0.569  -1.323  0.00  0.00    +0.000 A 
ATOM     34  N6  UNL     1       3.796   0.368  -1.744  0.00  0.00    +0.000 NA
ATOM     35  N7  UNL     1       4.979   0.034  -1.245  0.00  0.00    +0.000 NA
BRANCH  31  36
ATOM     36  C7  UNL     1       5.979  -1.693   0.204  0.00  0.00    +0.000 C 
BRANCH  36  38
ATOM     37  N1  UNL     1       7.178  -0.519   2.030  0.00  0.00    +0.000 NA
ATOM     38  C6  UNL     1       6.092  -1.083   1.579  0.00  0.00    +0.000 C 
BRANCH  37  42
ATOM     39  C2  UNL     1      10.811   0.243  -0.033  0.00  0.00    +0.000 A 
ATOM     40  C3  UNL     1       9.595   0.746  -0.538  0.00  0.00    +0.000 A 
ATOM     41  C4  UNL     1       8.397   0.494   0.134  0.00  0.00    +0.000 A 
ATOM     42  C5  UNL     1       8.391  -0.279   1.306  0.00  0.00    +0.000 A 
ATOM     43  C32 UNL     1       9.601  -0.742   1.830  0.00  0.00    +0.000 A 
ATOM     44  C33 UNL     1      10.802  -0.492   1.158  0.00  0.00    +0.000 A 
BRANCH  39  46
ATOM     45  C1  UNL     1      12.194   1.156  -1.904  0.00  0.00    +0.000 C 
ATOM     46  O1  UNL     1      12.039   0.448  -0.678  0.00  0.00    +0.000 OA
ENDBRANCH  39  46
ENDBRANCH  37  42
BRANCH  38  47
ATOM     47  O2  UNL     1       4.989  -1.179   2.423  0.00  0.00    +0.000 OA
ATOM     48  H6  UNL     1       5.014  -0.803   3.364  0.00  0.00    +0.000 HD
ENDBRANCH  38  47
ENDBRANCH  36  38
ENDBRANCH  31  36
ENDBRANCH  30  33
ENDBRANCH  29  30
ENDBRANCH   1  29
TORSDOF 12
