REMARK  Name = resultss/4CJN/ligands/lig_350_t2.pdb
REMARK  12 active torsions:
REMARK  status: ('A' for Active; 'I' for Inactive)
REMARK    1  A    between atoms: C1_1  and  O1_2
REMARK    2  A    between atoms: O1_2  and  C2_3
REMARK    3  A    between atoms: C5_6  and  N1_7
REMARK    4  A    between atoms: C6_8  and  C7_10
REMARK    5  A    between atoms: C7_10  and  N2_11
REMARK    6  A    between atoms: C9_13  and  C10_14
REMARK    7  A    between atoms: C10_14  and  O3_15
REMARK    8  A    between atoms: O3_15  and  C11_16
REMARK    9  A    between atoms: C14_19  and  C15_20
REMARK   10  A    between atoms: C22_28  and  O4_29
REMARK   11  A    between atoms: N4_30  and  N5_31
REMARK   12  A    between atoms: N5_31  and  C23_32
REMARK                            x       y       z     vdW  Elec       q    Type
REMARK                         _______ _______ _______ _____ _____    ______ ____
ROOT
ATOM      1  C11 UNL     1      -1.259   0.461  -0.844  0.00  0.00    +0.000 A 
ATOM      2  C12 UNL     1      -2.048   1.053  -1.836  0.00  0.00    +0.000 A 
ATOM      3  C13 UNL     1      -3.273   1.641  -1.514  0.00  0.00    +0.000 A 
ATOM      4  C14 UNL     1      -3.726   1.657  -0.185  0.00  0.00    +0.000 A 
ATOM      5  C29 UNL     1      -2.933   1.065   0.814  0.00  0.00    +0.000 A 
ATOM      6  C30 UNL     1      -1.707   0.478   0.490  0.00  0.00    +0.000 A 
ENDROOT
BRANCH   4   7
ATOM      7  C15 UNL     1      -5.108   2.176   0.135  0.00  0.00    +0.000 C 
ATOM      8  N3  UNL     1      -5.070   2.982   1.354  0.00  0.00    +0.000 NA
ATOM      9  C16 UNL     1      -5.679   2.692   2.464  0.00  0.00    +0.000 A 
ATOM     10  C17 UNL     1      -5.501   3.551   3.557  0.00  0.00    +0.000 A 
ATOM     11  C18 UNL     1      -6.113   3.280   4.778  0.00  0.00    +0.000 A 
ATOM     12  C19 UNL     1      -6.912   2.149   4.919  0.00  0.00    +0.000 A 
ATOM     13  C20 UNL     1      -7.110   1.286   3.838  0.00  0.00    +0.000 A 
ATOM     14  C21 UNL     1      -6.504   1.542   2.584  0.00  0.00    +0.000 A 
ATOM     15  C22 UNL     1      -6.696   0.743   1.503  0.00  0.00    +0.000 C 
ATOM     16  N4  UNL     1      -6.031   1.046   0.264  0.00  0.00    +0.000 N 
BRANCH  15  17
ATOM     17  O4  UNL     1      -7.537  -0.378   1.522  0.00  0.00    +0.000 OA
ATOM     18  H19 UNL     1      -8.085  -0.693   2.309  0.00  0.00    +0.000 HD
ENDBRANCH  15  17
BRANCH  16  19
ATOM     19  N5  UNL     1      -6.286   0.260  -0.875  0.00  0.00    +0.000 N 
ATOM     20  H20 UNL     1      -6.659   0.736  -1.728  0.00  0.00    +0.000 HD
BRANCH  19  21
ATOM     21  C23 UNL     1      -5.823  -1.097  -0.993  0.00  0.00    +0.000 A 
ATOM     22  C24 UNL     1      -5.035  -1.694   0.010  0.00  0.00    +0.000 A 
ATOM     23  C25 UNL     1      -4.571  -3.003  -0.143  0.00  0.00    +0.000 A 
ATOM     24  C26 UNL     1      -4.888  -3.729  -1.293  0.00  0.00    +0.000 A 
ATOM     25  C27 UNL     1      -5.666  -3.144  -2.295  0.00  0.00    +0.000 A 
ATOM     26  C28 UNL     1      -6.130  -1.833  -2.147  0.00  0.00    +0.000 A 
ENDBRANCH  19  21
ENDBRANCH  16  19
ENDBRANCH   4   7
BRANCH   1  27
ATOM     27  O3  UNL     1      -0.051  -0.140  -1.225  0.00  0.00    +0.000 OA
BRANCH  27  28
ATOM     28  C10 UNL     1       0.836  -0.808  -0.333  0.00  0.00    +0.000 C 
BRANCH  28  31
ATOM     29  N2  UNL     1       3.644  -1.648  -2.467  0.00  0.00    +0.000 N 
ATOM     30  C8  UNL     1       2.737  -0.747  -2.056  0.00  0.00    +0.000 A 
ATOM     31  C9  UNL     1       1.975  -1.388  -1.104  0.00  0.00    +0.000 A 
ATOM     32  N6  UNL     1       2.446  -2.642  -0.949  0.00  0.00    +0.000 NA
ATOM     33  N7  UNL     1       3.460  -2.773  -1.793  0.00  0.00    +0.000 NA
BRANCH  29  34
ATOM     34  C7  UNL     1       4.681  -1.449  -3.472  0.00  0.00    +0.000 C 
BRANCH  34  36
ATOM     35  N1  UNL     1       6.347  -0.428  -1.849  0.00  0.00    +0.000 N 
ATOM     36  C6  UNL     1       6.031  -1.435  -2.824  0.00  0.00    +0.000 C 
ATOM     37  O2  UNL     1       6.892  -2.288  -3.171  0.00  0.00    +0.000 OA
ATOM     38  H6  UNL     1       5.711   0.399  -1.781  0.00  0.00    +0.000 HD
BRANCH  35  42
ATOM     39  C2  UNL     1       9.867  -0.385   0.545  0.00  0.00    +0.000 A 
ATOM     40  C3  UNL     1       9.285   0.817   0.099  0.00  0.00    +0.000 A 
ATOM     41  C4  UNL     1       8.127   0.790  -0.685  0.00  0.00    +0.000 A 
ATOM     42  C5  UNL     1       7.541  -0.430  -1.048  0.00  0.00    +0.000 A 
ATOM     43  C31 UNL     1       8.107  -1.628  -0.576  0.00  0.00    +0.000 A 
ATOM     44  C32 UNL     1       9.264  -1.602   0.208  0.00  0.00    +0.000 A 
BRANCH  39  46
ATOM     45  C1  UNL     1      11.767   0.744   1.714  0.00  0.00    +0.000 C 
ATOM     46  O1  UNL     1      11.037  -0.413   1.320  0.00  0.00    +0.000 OA
ENDBRANCH  39  46
ENDBRANCH  35  42
ENDBRANCH  34  36
ENDBRANCH  29  34
ENDBRANCH  28  31
ENDBRANCH  27  28
ENDBRANCH   1  27
TORSDOF 11
