REMARK  Name = resultss/4CJN/ligands/lig_323_t2.pdb
REMARK  8 active torsions:
REMARK  status: ('A' for Active; 'I' for Inactive)
REMARK    1  A    between atoms: C1_1  and  O1_2
REMARK    2  A    between atoms: O1_2  and  C2_3
REMARK    3  A    between atoms: C6_8  and  O3_9
REMARK    4  A    between atoms: C8_11  and  O4_12
REMARK    5  A    between atoms: O4_12  and  C9_13
REMARK    6  A    between atoms: C11_15  and  O5_16
REMARK    7  A    between atoms: C15_21  and  O7_22
REMARK    8  A    between atoms: O7_22  and  C16_23
REMARK                            x       y       z     vdW  Elec       q    Type
REMARK                         _______ _______ _______ _____ _____    ______ ____
ROOT
ATOM      1  C2  UNL     1      -3.101   0.158  -0.661  0.00  0.00    +0.000 A 
ATOM      2  C3  UNL     1      -2.577   1.093  -1.576  0.00  0.00    +0.000 A 
ATOM      3  C4  UNL     1      -1.210   1.377  -1.647  0.00  0.00    +0.000 A 
ATOM      4  O2  UNL     1      -0.815   2.169  -2.543  0.00  0.00    +0.000 OA
ATOM      5  C5  UNL     1      -0.309   0.756  -0.757  0.00  0.00    +0.000 A 
ATOM      6  C6  UNL     1       1.084   1.013  -0.688  0.00  0.00    +0.000 A 
ATOM      7  C7  UNL     1       1.900   0.191   0.129  0.00  0.00    +0.000 A 
ATOM      8  C8  UNL     1       3.314   0.341   0.191  0.00  0.00    +0.000 A 
ATOM      9  C10 UNL     1       4.061  -0.496   1.044  0.00  0.00    +0.000 A 
ATOM     10  C11 UNL     1       3.435  -1.467   1.824  0.00  0.00    +0.000 A 
ATOM     11  C12 UNL     1       2.050  -1.619   1.765  0.00  0.00    +0.000 A 
ATOM     12  C13 UNL     1       1.282  -0.805   0.930  0.00  0.00    +0.000 A 
ATOM     13  O6  UNL     1      -0.031  -0.984   0.917  0.00  0.00    +0.000 OA
ATOM     14  C14 UNL     1      -0.852  -0.285   0.150  0.00  0.00    +0.000 A 
ATOM     15  C15 UNL     1      -2.225  -0.548   0.199  0.00  0.00    +0.000 A 
ENDROOT
BRANCH   1  17
ATOM     16  C1  UNL     1      -5.466   0.554  -1.409  0.00  0.00    +0.000 C 
ATOM     17  O1  UNL     1      -4.483  -0.088  -0.602  0.00  0.00    +0.000 OA
ENDBRANCH   1  17
BRANCH   6  18
ATOM     18  O3  UNL     1       1.672   2.081  -1.376  0.00  0.00    +0.000 OA
ATOM     19  H5  UNL     1       1.174   2.902  -1.687  0.00  0.00    +0.000 HD
ENDBRANCH   6  18
BRANCH   8  20
ATOM     20  O4  UNL     1       3.953   1.312  -0.601  0.00  0.00    +0.000 OA
ATOM     21  C9  UNL     1       5.356   1.553  -0.624  0.00  0.00    +0.000 C 
ENDBRANCH   8  20
BRANCH  10  22
ATOM     22  O5  UNL     1       4.202  -2.278   2.657  0.00  0.00    +0.000 OA
ATOM     23  H10 UNL     1       3.779  -2.994   3.237  0.00  0.00    +0.000 HD
ENDBRANCH  10  22
BRANCH  15  24
ATOM     24  O7  UNL     1      -2.650  -1.527   1.119  0.00  0.00    +0.000 OA
ATOM     25  C16 UNL     1      -3.986  -1.969   1.335  0.00  0.00    +0.000 C 
ENDBRANCH  15  24
TORSDOF 5
