REMARK  Name = resultss/4CJN/ligands/lig_404_t0.pdb
REMARK  2 active torsions:
REMARK  status: ('A' for Active; 'I' for Inactive)
REMARK    1  A    between atoms: C1_2  and  O2_3
REMARK    2  A    between atoms: C1_2  and  C2_4
REMARK                            x       y       z     vdW  Elec       q    Type
REMARK                         _______ _______ _______ _____ _____    ______ ____
ROOT
ATOM      1  C2  UNL     1       1.777   0.160  -0.083  0.00  0.00    +0.000 A 
ATOM      2  C3  UNL     1       1.344   1.495  -0.135  0.00  0.00    +0.000 A 
ATOM      3  N1  UNL     1       0.017   1.791  -0.117  0.00  0.00    +0.000 NA
ATOM      4  C4  UNL     1      -0.933   0.822  -0.049  0.00  0.00    +0.000 A 
ATOM      5  C5  UNL     1      -2.290   1.167  -0.032  0.00  0.00    +0.000 A 
ATOM      6  C6  UNL     1      -3.265   0.168   0.038  0.00  0.00    +0.000 A 
ATOM      7  C7  UNL     1      -2.889  -1.179   0.092  0.00  0.00    +0.000 A 
ATOM      8  C8  UNL     1      -1.536  -1.533   0.076  0.00  0.00    +0.000 A 
ATOM      9  C9  UNL     1      -0.551  -0.536   0.006  0.00  0.00    +0.000 A 
ATOM     10  C10 UNL     1       0.811  -0.859  -0.012  0.00  0.00    +0.000 A 
ENDROOT
BRANCH   1  12
ATOM     11  O1  UNL     1       3.609  -1.361  -0.056  0.00  0.00    +0.000 OA
ATOM     12  C1  UNL     1       3.221  -0.163  -0.102  0.00  0.00    +0.000 C 
BRANCH  12  13
ATOM     13  O2  UNL     1       4.166   0.857  -0.173  0.00  0.00    +0.000 OA
ATOM     14  H1  UNL     1       5.157   0.648  -0.187  0.00  0.00    +0.000 HD
ENDBRANCH  12  13
ENDBRANCH   1  12
TORSDOF 2
