REMARK  Name = resultss/4CJN/ligands/lig_129_t0.pdb
REMARK  18 active torsions:
REMARK  status: ('A' for Active; 'I' for Inactive)
REMARK    1  A    between atoms: O1_2  and  C1_3
REMARK    2  A    between atoms: C1_3  and  C2_4
REMARK    3  A    between atoms: C3_5  and  O2_6
REMARK    4  A    between atoms: C4_7  and  O3_8
REMARK    5  A    between atoms: C5_9  and  O4_10
REMARK    6  A    between atoms: N1_12  and  C7_13
REMARK    7  A    between atoms: C7_13  and  C8_14
REMARK    8  A    between atoms: C8_14  and  O5_15
REMARK    9  A    between atoms: C8_14  and  C9_16
REMARK   10  A    between atoms: C9_16  and  O6_17
REMARK   11  A    between atoms: C9_16  and  C10_18
REMARK   12  A    between atoms: C10_18  and  O7_19
REMARK   13  A    between atoms: C10_18  and  C11_20
REMARK   14  A    between atoms: C11_20  and  O8_21
REMARK   15  A    between atoms: C11_20  and  C12_22
REMARK   16  A    between atoms: C12_22  and  O9_23
REMARK   17  A    between atoms: C12_22  and  C13_24
REMARK   18  A    between atoms: C13_24  and  O10_25
REMARK                            x       y       z     vdW  Elec       q    Type
REMARK                         _______ _______ _______ _____ _____    ______ ____
ROOT
ATOM      1 CL1  UNL     1       0.688   0.000   0.000  0.00  0.00    +0.000 Cl
ATOM      2  H1  UNL     1      -0.688   0.000   0.000  0.00  0.00    +0.000 HD
ENDROOT
TORSDOF 0
REMARK  Name = resultss/4CJN/ligands/lig_129_t0.pdb
REMARK  18 active torsions:
REMARK  status: ('A' for Active; 'I' for Inactive)
REMARK    1  A    between atoms: O1_2  and  C1_3
REMARK    2  A    between atoms: C1_3  and  C2_4
REMARK    3  A    between atoms: C3_5  and  O2_6
REMARK    4  A    between atoms: C4_7  and  O3_8
REMARK    5  A    between atoms: C5_9  and  O4_10
REMARK    6  A    between atoms: N1_12  and  C7_13
REMARK    7  A    between atoms: C7_13  and  C8_14
REMARK    8  A    between atoms: C8_14  and  O5_15
REMARK    9  A    between atoms: C8_14  and  C9_16
REMARK   10  A    between atoms: C9_16  and  O6_17
REMARK   11  A    between atoms: C9_16  and  C10_18
REMARK   12  A    between atoms: C10_18  and  O7_19
REMARK   13  A    between atoms: C10_18  and  C11_20
REMARK   14  A    between atoms: C11_20  and  O8_21
REMARK   15  A    between atoms: C11_20  and  C12_22
REMARK   16  A    between atoms: C12_22  and  O9_23
REMARK   17  A    between atoms: C12_22  and  C13_24
REMARK   18  A    between atoms: C13_24  and  O10_25
REMARK                            x       y       z     vdW  Elec       q    Type
REMARK                         _______ _______ _______ _____ _____    ______ ____
ROOT
ATOM      1  C8  UNL     1       0.338   0.207  -0.027  0.00  0.00    +0.000 C 
ENDROOT
BRANCH   1   2
ATOM      2  O5  UNL     1       0.442  -1.088   0.511  0.00  0.00    +0.000 OA
ATOM      3  H17 UNL     1       0.507  -1.723  -0.249  0.00  0.00    +0.000 HD
ENDBRANCH   1   2
BRANCH   1   4
ATOM      4  C9  UNL     1       1.670   0.634  -0.710  0.00  0.00    +0.000 C 
BRANCH   4   5
ATOM      5  O6  UNL     1       1.531   1.908  -1.295  0.00  0.00    +0.000 OA
ATOM      6  H19 UNL     1       1.227   2.534  -0.586  0.00  0.00    +0.000 HD
ENDBRANCH   4   5
BRANCH   4   7
ATOM      7  C10 UNL     1       2.886   0.599   0.283  0.00  0.00    +0.000 C 
BRANCH   7   8
ATOM      8  O7  UNL     1       3.611   1.802   0.186  0.00  0.00    +0.000 OA
ATOM      9  H21 UNL     1       3.203   2.442   0.827  0.00  0.00    +0.000 HD
ENDBRANCH   7   8
BRANCH   7  10
ATOM     10  C11 UNL     1       3.851  -0.586  -0.003  0.00  0.00    +0.000 C 
BRANCH  10  11
ATOM     11  O8  UNL     1       3.103  -1.766  -0.163  0.00  0.00    +0.000 OA
ATOM     12  H23 UNL     1       3.596  -2.345  -0.803  0.00  0.00    +0.000 HD
ENDBRANCH  10  11
BRANCH  10  13
ATOM     13  C12 UNL     1       4.884  -0.821   1.139  0.00  0.00    +0.000 C 
BRANCH  13  14
ATOM     14  O9  UNL     1       5.605  -2.006   0.907  0.00  0.00    +0.000 OA
ATOM     15  H25 UNL     1       6.099  -1.894   0.052  0.00  0.00    +0.000 HD
ENDBRANCH  13  14
BRANCH  13  16
ATOM     16  C13 UNL     1       5.868   0.341   1.374  0.00  0.00    +0.000 C 
BRANCH  16  17
ATOM     17  O10 UNL     1       6.481   0.724   0.173  0.00  0.00    +0.000 OA
ATOM     18  H28 UNL     1       7.084   1.478   0.401  0.00  0.00    +0.000 HD
ENDBRANCH  16  17
ENDBRANCH  13  16
ENDBRANCH  10  13
ENDBRANCH   7  10
ENDBRANCH   4   7
ENDBRANCH   1   4
BRANCH   1  19
ATOM     19  C7  UNL     1      -0.861   0.291  -0.997  0.00  0.00    +0.000 C 
BRANCH  19  25
ATOM     20  C2  UNL     1      -3.080   0.905  -0.062  0.00  0.00    +0.000 C 
ATOM     21  C3  UNL     1      -4.377   0.347   0.597  0.00  0.00    +0.000 C 
ATOM     22  C4  UNL     1      -4.978  -0.810  -0.221  0.00  0.00    +0.000 C 
ATOM     23  C5  UNL     1      -3.919  -1.893  -0.449  0.00  0.00    +0.000 C 
ATOM     24  C6  UNL     1      -2.704  -1.271  -1.144  0.00  0.00    +0.000 C 
ATOM     25  N1  UNL     1      -2.100  -0.192  -0.327  0.00  0.00    +0.000 NA
BRANCH  21  26
ATOM     26  O2  UNL     1      -5.336   1.362   0.773  0.00  0.00    +0.000 OA
ATOM     27  H7  UNL     1      -5.556   1.727  -0.124  0.00  0.00    +0.000 HD
ENDBRANCH  21  26
BRANCH  22  28
ATOM     28  O3  UNL     1      -6.110  -1.343   0.422  0.00  0.00    +0.000 OA
ATOM     29  H9  UNL     1      -5.820  -1.701   1.302  0.00  0.00    +0.000 HD
ENDBRANCH  22  28
BRANCH  23  30
ATOM     30  O4  UNL     1      -4.461  -2.909  -1.254  0.00  0.00    +0.000 OA
ATOM     31  H11 UNL     1      -3.864  -3.696  -1.163  0.00  0.00    +0.000 HD
ENDBRANCH  23  30
BRANCH  20  32
ATOM     32  C1  UNL     1      -2.484   1.993   0.867  0.00  0.00    +0.000 C 
BRANCH  32  33
ATOM     33  O1  UNL     1      -2.050   1.424   2.073  0.00  0.00    +0.000 OA
ATOM     34  H2  UNL     1      -1.695   2.173   2.620  0.00  0.00    +0.000 HD
ENDBRANCH  32  33
ENDBRANCH  20  32
ENDBRANCH  19  25
ENDBRANCH   1  19
TORSDOF 18
