REMARK  Name = resultss/4CJN/ligands/lig_395_t1.pdb
REMARK  5 active torsions:
REMARK  status: ('A' for Active; 'I' for Inactive)
REMARK    1  A    between atoms: O1_1  and  C1_2
REMARK    2  A    between atoms: C3_5  and  C4_6
REMARK    3  A    between atoms: C7_9  and  N1_10
REMARK    4  A    between atoms: N2_15  and  C10_16
REMARK    5  A    between atoms: C10_16  and  C11_17
REMARK                            x       y       z     vdW  Elec       q    Type
REMARK                         _______ _______ _______ _____ _____    ______ ____
ROOT
ATOM      1  C1  UNL     1       0.343  -3.028  -2.048  0.00  0.00    +0.000 C 
ATOM      2  C2  UNL     1      -0.372  -4.025  -1.565  0.00  0.00    +0.000 C 
ATOM      3  S1  UNL     1      -1.973  -3.541  -0.938  0.00  0.00    +0.000 S 
ATOM      4  C3  UNL     1      -1.591  -1.788  -1.328  0.00  0.00    +0.000 C 
ATOM      5  N2  UNL     1      -0.276  -1.751  -1.973  0.00  0.00    +0.000 N 
ENDROOT
BRANCH   4   6
ATOM      6  C4  UNL     1      -1.597  -0.965  -0.062  0.00  0.00    +0.000 A 
ATOM      7  C5  UNL     1      -2.475   0.121   0.071  0.00  0.00    +0.000 A 
ATOM      8  C6  UNL     1      -2.423   0.939   1.203  0.00  0.00    +0.000 A 
ATOM      9  C7  UNL     1      -1.494   0.684   2.228  0.00  0.00    +0.000 A 
ATOM     10  C8  UNL     1      -0.637  -0.421   2.108  0.00  0.00    +0.000 A 
ATOM     11  C9  UNL     1      -0.687  -1.238   0.974  0.00  0.00    +0.000 A 
BRANCH   9  12
ATOM     12  N1  UNL     1      -1.421   1.540   3.383  0.00  0.00    +0.000 N 
ATOM     13  O2  UNL     1      -2.079   2.601   3.430  0.00  0.00    +0.000 OA
ATOM     14  O3  UNL     1      -0.597   1.224   4.438  0.00  0.00    +0.000 OA
ENDBRANCH   9  12
ENDBRANCH   4   6
BRANCH   1  15
ATOM     15  O1  UNL     1       1.612  -3.207  -2.594  0.00  0.00    +0.000 OA
ATOM     16  H1  UNL     1       2.042  -4.124  -2.646  0.00  0.00    +0.000 HD
ENDBRANCH   1  15
BRANCH   5  17
ATOM     17  C10 UNL     1       0.304  -0.536  -2.556  0.00  0.00    +0.000 C 
BRANCH  17  18
ATOM     18  C11 UNL     1       0.941   0.310  -1.487  0.00  0.00    +0.000 A 
ATOM     19  C12 UNL     1       2.113  -0.141  -0.829  0.00  0.00    +0.000 A 
ATOM     20  C13 UNL     1       2.659   0.592   0.239  0.00  0.00    +0.000 A 
ATOM     21  C14 UNL     1       2.012   1.763   0.622  0.00  0.00    +0.000 A 
ATOM     22  C15 UNL     1       0.899   2.208  -0.012  0.00  0.00    +0.000 A 
ATOM     23  C16 UNL     1       0.333   1.519  -1.080  0.00  0.00    +0.000 A 
ATOM     24  O4  UNL     1       0.464   3.375   0.585  0.00  0.00    +0.000 OA
ATOM     25  C17 UNL     1       1.356   3.678   1.665  0.00  0.00    +0.000 C 
ATOM     26  O5  UNL     1       2.333   2.629   1.648  0.00  0.00    +0.000 OA
ENDBRANCH  17  18
ENDBRANCH   5  17
TORSDOF 5
