REMARK  Name = resultss/4CJN/ligands/lig_195_t0.pdb
REMARK  12 active torsions:
REMARK  status: ('A' for Active; 'I' for Inactive)
REMARK    1  A    between atoms: S1_2  and  O4_5
REMARK    2  A    between atoms: O4_5  and  C1_6
REMARK    3  A    between atoms: C1_6  and  C2_7
REMARK    4  A    between atoms: C1_6  and  C3_9
REMARK    5  A    between atoms: C2_7  and  O5_8
REMARK    6  A    between atoms: C3_9  and  O6_10
REMARK    7  A    between atoms: C3_9  and  C4_11
REMARK    8  A    between atoms: C4_11  and  S2_12
REMARK    9  A    between atoms: C6_14  and  O7_15
REMARK   10  A    between atoms: C7_16  and  O8_17
REMARK   11  A    between atoms: C8_18  and  C9_19
REMARK   12  A    between atoms: C9_19  and  O9_20
REMARK                            x       y       z     vdW  Elec       q    Type
REMARK                         _______ _______ _______ _____ _____    ______ ____
ROOT
ATOM      1  C4  UNL     1       0.410  -0.446  -0.258  0.00  0.00    +0.000 C 
ENDROOT
BRANCH   1   2
ATOM      2  S2  UNL     1      -0.971  -1.039   0.715  0.00  0.00    +0.000 S 
ATOM      3  C5  UNL     1      -1.407   0.132   1.968  0.00  0.00    +0.000 C 
ATOM      4  C6  UNL     1      -2.725   0.758   1.515  0.00  0.00    +0.000 C 
ATOM      5  C7  UNL     1      -3.516  -0.309   0.722  0.00  0.00    +0.000 C 
ATOM      6  C8  UNL     1      -2.526  -1.106  -0.154  0.00  0.00    +0.000 C 
BRANCH   4   7
ATOM      7  O7  UNL     1      -2.454   1.867   0.697  0.00  0.00    +0.000 OA
ATOM      8  H12 UNL     1      -3.301   2.380   0.623  0.00  0.00    +0.000 HD
ENDBRANCH   4   7
BRANCH   5   9
ATOM      9  O8  UNL     1      -4.141  -1.191   1.620  0.00  0.00    +0.000 OA
ATOM     10  H14 UNL     1      -4.933  -0.716   1.986  0.00  0.00    +0.000 HD
ENDBRANCH   5   9
BRANCH   6  11
ATOM     11  C9  UNL     1      -2.415  -0.541  -1.583  0.00  0.00    +0.000 C 
BRANCH  11  12
ATOM     12  O9  UNL     1      -3.648  -0.626  -2.247  0.00  0.00    +0.000 OA
ATOM     13  H18 UNL     1      -3.783  -1.582  -2.476  0.00  0.00    +0.000 HD
ENDBRANCH  11  12
ENDBRANCH   6  11
ENDBRANCH   1   2
BRANCH   1  14
ATOM     14  C3  UNL     1       1.718  -0.521   0.542  0.00  0.00    +0.000 C 
BRANCH  14  15
ATOM     15  O6  UNL     1       1.966  -1.866   0.873  0.00  0.00    +0.000 OA
ATOM     16  H6  UNL     1       2.308  -1.883   1.805  0.00  0.00    +0.000 HD
ENDBRANCH  14  15
BRANCH  14  17
ATOM     17  C1  UNL     1       2.902   0.046  -0.277  0.00  0.00    +0.000 C 
BRANCH  17  18
ATOM     18  O4  UNL     1       2.643   1.405  -0.581  0.00  0.00    +0.000 OA
BRANCH  18  20
ATOM     19  O1  UNL     1       4.110   1.376  -2.761  0.00  0.00    +0.000 OA
ATOM     20  S1  UNL     1       2.724   1.666  -2.256  0.00  0.00    +0.000 S 
ATOM     21  O2  UNL     1       2.392   3.103  -2.539  0.00  0.00    +0.000 OA
ATOM     22  O3  UNL     1       1.617   0.686  -3.055  0.00  0.00    +0.000 OA
ENDBRANCH  18  20
ENDBRANCH  17  18
BRANCH  17  23
ATOM     23  C2  UNL     1       4.204  -0.030   0.536  0.00  0.00    +0.000 C 
BRANCH  23  24
ATOM     24  O5  UNL     1       5.262   0.510  -0.207  0.00  0.00    +0.000 OA
ATOM     25  H4  UNL     1       6.066   0.446   0.371  0.00  0.00    +0.000 HD
ENDBRANCH  23  24
ENDBRANCH  17  23
ENDBRANCH  14  17
ENDBRANCH   1  14
TORSDOF 12
