REMARK  Name = resultss/4CJN/ligands/lig_240_t2.pdb
REMARK  4 active torsions:
REMARK  status: ('A' for Active; 'I' for Inactive)
REMARK    1  A    between atoms: O1_1  and  C1_2
REMARK    2  A    between atoms: C1_2  and  C2_3
REMARK    3  A    between atoms: C3_4  and  C4_5
REMARK    4  A    between atoms: C10_11  and  C11_12
REMARK                            x       y       z     vdW  Elec       q    Type
REMARK                         _______ _______ _______ _____ _____    ______ ____
ROOT
ATOM      1  C1  UNL     1       0.480   0.319  -0.056  0.00  0.00    +0.000 C 
ATOM      2  C10 UNL     1      -0.313   0.018  -1.102  0.00  0.00    +0.000 C 
ENDROOT
BRANCH   2   3
ATOM      3  C11 UNL     1      -1.790   0.114  -1.097  0.00  0.00    +0.000 A 
ATOM      4  N1  UNL     1      -2.493  -0.196   0.026  0.00  0.00    +0.000 NA
ATOM      5  C12 UNL     1      -3.850  -0.170   0.048  0.00  0.00    +0.000 A 
ATOM      6  C13 UNL     1      -4.547  -0.480   1.220  0.00  0.00    +0.000 A 
ATOM      7  C14 UNL     1      -5.946  -0.450   1.229  0.00  0.00    +0.000 A 
ATOM      8  C15 UNL     1      -6.649  -0.112   0.067  0.00  0.00    +0.000 A 
ATOM      9  C16 UNL     1      -5.957   0.197  -1.110  0.00  0.00    +0.000 A 
ATOM     10  C17 UNL     1      -4.554   0.169  -1.126  0.00  0.00    +0.000 A 
ATOM     11  N2  UNL     1      -3.857   0.460  -2.260  0.00  0.00    +0.000 N 
ATOM     12  C18 UNL     1      -2.495   0.433  -2.274  0.00  0.00    +0.000 A 
ATOM     13  O2  UNL     1      -1.876   0.701  -3.340  0.00  0.00    +0.000 OA
ATOM     14  H14 UNL     1      -4.369   0.706  -3.138  0.00  0.00    +0.000 HD
ENDBRANCH   2   3
BRANCH   1  15
ATOM     15  O1  UNL     1      -0.019   0.908   1.112  0.00  0.00    +0.000 OA
ATOM     16  H1  UNL     1      -0.948   1.298   1.190  0.00  0.00    +0.000 HD
ENDBRANCH   1  15
BRANCH   1  17
ATOM     17  C2  UNL     1       1.932   0.048  -0.154  0.00  0.00    +0.000 C 
ATOM     18  C3  UNL     1       2.772   0.314   0.857  0.00  0.00    +0.000 C 
BRANCH  18  19
ATOM     19  C4  UNL     1       4.231   0.048   0.806  0.00  0.00    +0.000 A 
ATOM     20  C5  UNL     1       4.936  -0.071   2.017  0.00  0.00    +0.000 A 
ATOM     21  C6  UNL     1       6.313  -0.311   2.016  0.00  0.00    +0.000 A 
ATOM     22  C7  UNL     1       7.004  -0.424   0.809  0.00  0.00    +0.000 A 
ATOM     23  C8  UNL     1       6.321  -0.290  -0.401  0.00  0.00    +0.000 A 
ATOM     24  C9  UNL     1       4.943  -0.051  -0.408  0.00  0.00    +0.000 A 
ENDBRANCH  18  19
ENDBRANCH   1  17
TORSDOF 4
