REMARK  Name = resultss/4CJN/ligands/lig_377_t1.pdb
REMARK  6 active torsions:
REMARK  status: ('A' for Active; 'I' for Inactive)
REMARK    1  A    between atoms: C1_1  and  O1_2
REMARK    2  A    between atoms: O1_2  and  C2_3
REMARK    3  A    between atoms: C5_6  and  C6_7
REMARK    4  A    between atoms: N1_11  and  C9_12
REMARK    5  A    between atoms: C12_15  and  S2_16
REMARK    6  A    between atoms: S2_16  and  N2_17
REMARK                            x       y       z     vdW  Elec       q    Type
REMARK                         _______ _______ _______ _____ _____    ______ ____
ROOT
ATOM      1  C6  UNL     1       2.712  -1.150   1.799  0.00  0.00    +0.000 C 
ATOM      2  C7  UNL     1       1.397  -1.040   1.566  0.00  0.00    +0.000 C 
ATOM      3  S1  UNL     1       0.177  -1.759   2.658  0.00  0.00    +0.000 S 
ATOM      4  C8  UNL     1      -1.089  -1.091   1.558  0.00  0.00    +0.000 C 
ATOM      5  N1  UNL     1      -2.478  -1.381   1.768  0.00  0.00    +0.000 N 
ATOM      6  N3  UNL     1      -0.678  -0.410   0.536  0.00  0.00    +0.000 NA
ATOM      7  C15 UNL     1       0.733  -0.308   0.492  0.00  0.00    +0.000 C 
ATOM      8  O4  UNL     1       1.319   0.401  -0.367  0.00  0.00    +0.000 OA
ATOM      9  H7  UNL     1      -2.709  -2.164   2.421  0.00  0.00    +0.000 HD
ENDROOT
BRANCH   1  13
ATOM     10  C2  UNL     1       5.876   0.225  -0.754  0.00  0.00    +0.000 A 
ATOM     11  C3  UNL     1       4.859  -0.587  -1.269  0.00  0.00    +0.000 A 
ATOM     12  C4  UNL     1       3.820  -1.032  -0.447  0.00  0.00    +0.000 A 
ATOM     13  C5  UNL     1       3.771  -0.648   0.902  0.00  0.00    +0.000 A 
ATOM     14  C16 UNL     1       4.803   0.140   1.429  0.00  0.00    +0.000 A 
ATOM     15  C17 UNL     1       5.843   0.585   0.607  0.00  0.00    +0.000 A 
BRANCH  10  17
ATOM     16  C1  UNL     1       7.989   1.473  -1.232  0.00  0.00    +0.000 C 
ATOM     17  O1  UNL     1       6.896   0.647  -1.620  0.00  0.00    +0.000 OA
ENDBRANCH  10  17
ENDBRANCH   1  13
BRANCH   5  18
ATOM     18  C9  UNL     1      -3.556  -0.744   1.063  0.00  0.00    +0.000 A 
ATOM     19  C10 UNL     1      -4.719  -1.475   0.778  0.00  0.00    +0.000 A 
ATOM     20  C11 UNL     1      -5.790  -0.873   0.112  0.00  0.00    +0.000 A 
ATOM     21  C12 UNL     1      -5.720   0.476  -0.260  0.00  0.00    +0.000 A 
ATOM     22  C13 UNL     1      -4.568   1.216   0.036  0.00  0.00    +0.000 A 
ATOM     23  C14 UNL     1      -3.496   0.614   0.701  0.00  0.00    +0.000 A 
BRANCH  21  24
ATOM     24  S2  UNL     1      -7.065   1.228  -1.112  0.00  0.00    +0.000 S 
ATOM     25  O2  UNL     1      -7.096   2.701  -0.815  0.00  0.00    +0.000 OA
ATOM     26  O3  UNL     1      -8.361   0.617  -0.656  0.00  0.00    +0.000 OA
BRANCH  24  27
ATOM     27  N2  UNL     1      -6.875   0.987  -2.813  0.00  0.00    +0.000 NA
ATOM     28  H10 UNL     1      -7.721   1.389  -3.275  0.00  0.00    +0.000 HD
ATOM     29  H11 UNL     1      -6.902  -0.044  -2.979  0.00  0.00    +0.000 HD
ENDBRANCH  24  27
ENDBRANCH  21  24
ENDBRANCH   5  18
TORSDOF 5
