REMARK  Name = resultss/4CJN/ligands/lig_373_t2.pdb
REMARK  9 active torsions:
REMARK  status: ('A' for Active; 'I' for Inactive)
REMARK    1  A    between atoms: C1_1  and  C2_2
REMARK    2  A    between atoms: C2_2  and  O1_3
REMARK    3  A    between atoms: O1_3  and  C3_4
REMARK    4  A    between atoms: C5_6  and  C6_7
REMARK    5  A    between atoms: C6_7  and  C7_8
REMARK    6  A    between atoms: C6_7  and  C16_21
REMARK    7  A    between atoms: C15_19  and  O4_20
REMARK    8  A    between atoms: C24_32  and  O7_33
REMARK    9  A    between atoms: C27_36  and  O8_37
REMARK                            x       y       z     vdW  Elec       q    Type
REMARK                         _______ _______ _______ _____ _____    ______ ____
ROOT
ATOM      1  C6  UNL     1      -0.548  -0.501   1.137  0.00  0.00    +0.000 C 
ENDROOT
BRANCH   1   2
ATOM      2  C7  UNL     1      -0.404   1.025   1.119  0.00  0.00    +0.000 A 
ATOM      3  C8  UNL     1      -0.434   1.781  -0.076  0.00  0.00    +0.000 A 
ATOM      4  O2  UNL     1      -0.574   1.210  -1.192  0.00  0.00    +0.000 OA
ATOM      5  C9  UNL     1      -0.287   3.177  -0.022  0.00  0.00    +0.000 A 
ATOM      6  C10 UNL     1      -0.328   3.981  -1.177  0.00  0.00    +0.000 A 
ATOM      7  C11 UNL     1      -0.177   5.368  -1.073  0.00  0.00    +0.000 A 
ATOM      8 CL1  UNL     1      -0.231   6.366  -2.515  0.00  0.00    +0.000 Cl
ATOM      9  C12 UNL     1       0.017   5.961   0.178  0.00  0.00    +0.000 A 
ATOM     10  C13 UNL     1       0.062   5.171   1.329  0.00  0.00    +0.000 A 
ATOM     11  C14 UNL     1      -0.087   3.783   1.236  0.00  0.00    +0.000 A 
ATOM     12  O3  UNL     1      -0.033   3.043   2.335  0.00  0.00    +0.000 OA
ATOM     13  C15 UNL     1      -0.171   1.721   2.327  0.00  0.00    +0.000 A 
BRANCH  13  14
ATOM     14  O4  UNL     1      -0.076   1.032   3.533  0.00  0.00    +0.000 OA
ATOM     15  H11 UNL     1       0.093   1.527   4.400  0.00  0.00    +0.000 HD
ENDBRANCH  13  14
ENDBRANCH   1   2
BRANCH   1  16
ATOM     16  C16 UNL     1      -1.665  -1.004   0.212  0.00  0.00    +0.000 A 
ATOM     17  C17 UNL     1      -3.011  -0.836   0.606  0.00  0.00    +0.000 A 
ATOM     18  O5  UNL     1      -3.284  -0.281   1.708  0.00  0.00    +0.000 OA
ATOM     19  C18 UNL     1      -4.048  -1.284  -0.228  0.00  0.00    +0.000 A 
ATOM     20  C19 UNL     1      -5.405  -1.154   0.125  0.00  0.00    +0.000 A 
ATOM     21  C20 UNL     1      -6.403  -1.617  -0.739  0.00  0.00    +0.000 A 
ATOM     22 CL2  UNL     1      -8.093  -1.454  -0.295  0.00  0.00    +0.000 Cl
ATOM     23  C21 UNL     1      -6.056  -2.211  -1.957  0.00  0.00    +0.000 A 
ATOM     24  C22 UNL     1      -4.712  -2.342  -2.316  0.00  0.00    +0.000 A 
ATOM     25  C23 UNL     1      -3.707  -1.881  -1.458  0.00  0.00    +0.000 A 
ATOM     26  O6  UNL     1      -2.436  -2.004  -1.814  0.00  0.00    +0.000 OA
ATOM     27  C24 UNL     1      -1.424  -1.593  -1.055  0.00  0.00    +0.000 A 
BRANCH  27  28
ATOM     28  O7  UNL     1      -0.132  -1.742  -1.547  0.00  0.00    +0.000 OA
ATOM     29  H15 UNL     1       0.034  -2.158  -2.455  0.00  0.00    +0.000 HD
ENDBRANCH  27  28
ENDBRANCH   1  16
BRANCH   1  32
ATOM     30  C3  UNL     1       3.106  -1.384   0.251  0.00  0.00    +0.000 A 
ATOM     31  C4  UNL     1       1.910  -0.668   0.388  0.00  0.00    +0.000 A 
ATOM     32  C5  UNL     1       0.776  -1.244   0.996  0.00  0.00    +0.000 A 
ATOM     33  C25 UNL     1       0.860  -2.567   1.456  0.00  0.00    +0.000 A 
ATOM     34  C26 UNL     1       2.044  -3.291   1.327  0.00  0.00    +0.000 A 
ATOM     35  C27 UNL     1       3.172  -2.714   0.729  0.00  0.00    +0.000 A 
BRANCH  35  36
ATOM     36  O8  UNL     1       4.339  -3.468   0.619  0.00  0.00    +0.000 OA
ATOM     37  H18 UNL     1       4.393  -4.422   0.957  0.00  0.00    +0.000 HD
ENDBRANCH  35  36
BRANCH  30  38
ATOM     38  O1  UNL     1       4.178  -0.717  -0.369  0.00  0.00    +0.000 OA
BRANCH  38  40
ATOM     39  C1  UNL     1       6.328  -0.205  -1.312  0.00  0.00    +0.000 C 
ATOM     40  C2  UNL     1       5.474  -1.254  -0.618  0.00  0.00    +0.000 C 
ENDBRANCH  38  40
ENDBRANCH  30  38
ENDBRANCH   1  32
TORSDOF 8
