REMARK  Name = resultss/4CJN/ligands/lig_445_t0.pdb
REMARK  5 active torsions:
REMARK  status: ('A' for Active; 'I' for Inactive)
REMARK    1  A    between atoms: S1_2  and  N1_4
REMARK    2  A    between atoms: S1_2  and  C11_16
REMARK    3  A    between atoms: N1_4  and  C1_5
REMARK    4  A    between atoms: C1_5  and  C2_6
REMARK    5  A    between atoms: C2_6  and  C3_7
REMARK                            x       y       z     vdW  Elec       q    Type
REMARK                         _______ _______ _______ _____ _____    ______ ____
ROOT
ATOM      1  N1  UNL     1      -1.480  -0.742   1.568  0.00  0.00    +0.000 NA
ATOM      2  H1  UNL     1      -1.173  -1.034   2.525  0.00  0.00    +0.000 HD
ENDROOT
BRANCH   1   4
ATOM      3  O1  UNL     1      -3.087  -2.829   1.749  0.00  0.00    +0.000 OA
ATOM      4  S1  UNL     1      -2.145  -2.151   0.795  0.00  0.00    +0.000 S 
ATOM      5  O2  UNL     1      -1.030  -3.097   0.442  0.00  0.00    +0.000 OA
BRANCH   4   6
ATOM      6  C11 UNL     1      -3.039  -1.700  -0.664  0.00  0.00    +0.000 A 
ATOM      7  C12 UNL     1      -3.361  -0.350  -0.888  0.00  0.00    +0.000 A 
ATOM      8  C13 UNL     1      -4.067   0.030  -2.032  0.00  0.00    +0.000 A 
ATOM      9  F1  UNL     1      -4.366   1.336  -2.241  0.00  0.00    +0.000 F 
ATOM     10  C14 UNL     1      -4.468  -0.933  -2.959  0.00  0.00    +0.000 A 
ATOM     11  C15 UNL     1      -4.170  -2.280  -2.740  0.00  0.00    +0.000 A 
ATOM     12  C16 UNL     1      -3.464  -2.672  -1.597  0.00  0.00    +0.000 A 
ATOM     13 CL1  UNL     1      -3.154  -4.389  -1.363  0.00  0.00    +0.000 Cl
ENDBRANCH   4   6
ENDBRANCH   1   4
BRANCH   1  14
ATOM     14  C1  UNL     1      -0.300  -0.278   0.835  0.00  0.00    +0.000 C 
BRANCH  14  15
ATOM     15  C2  UNL     1       0.141   1.083   1.373  0.00  0.00    +0.000 C 
BRANCH  15  16
ATOM     16  C3  UNL     1       1.323   1.596   0.606  0.00  0.00    +0.000 A 
ATOM     17  C4  UNL     1       1.292   2.466  -0.480  0.00  0.00    +0.000 A 
ATOM     18  N2  UNL     1       2.539   2.654  -0.969  0.00  0.00    +0.000 N 
ATOM     19  C5  UNL     1       3.353   1.900  -0.210  0.00  0.00    +0.000 A 
ATOM     20  C6  UNL     1       4.733   1.750  -0.342  0.00  0.00    +0.000 A 
ATOM     21  C7  UNL     1       5.390   0.886   0.554  0.00  0.00    +0.000 A 
ATOM     22  C8  UNL     1       4.660   0.198   1.549  0.00  0.00    +0.000 A 
ATOM     23  C9  UNL     1       3.268   0.369   1.659  0.00  0.00    +0.000 A 
ATOM     24  C10 UNL     1       2.647   1.235   0.759  0.00  0.00    +0.000 A 
ATOM     25  H7  UNL     1       2.808   3.252  -1.781  0.00  0.00    +0.000 HD
ENDBRANCH  15  16
ENDBRANCH  14  15
ENDBRANCH   1  14
TORSDOF 5
