REMARK  Name = resultss/4CJN/ligands/lig_371_t0.pdb
REMARK  6 active torsions:
REMARK  status: ('A' for Active; 'I' for Inactive)
REMARK    1  A    between atoms: O1_1  and  C1_2
REMARK    2  A    between atoms: C9_13  and  C10_14
REMARK    3  A    between atoms: C10_14  and  C11_15
REMARK    4  A    between atoms: C10_14  and  C17_22
REMARK    5  A    between atoms: C15_19  and  O4_20
REMARK    6  A    between atoms: C25_33  and  O7_34
REMARK                            x       y       z     vdW  Elec       q    Type
REMARK                         _______ _______ _______ _____ _____    ______ ____
ROOT
ATOM      1  C10 UNL     1      -0.154   1.178   0.278  0.00  0.00    +0.000 C 
ENDROOT
BRANCH   1  13
ATOM      2  C1  UNL     1      -1.920  -0.279  -0.951  0.00  0.00    +0.000 A 
ATOM      3  O2  UNL     1      -2.954  -1.114  -0.916  0.00  0.00    +0.000 OA
ATOM      4  C2  UNL     1      -3.480  -1.573   0.212  0.00  0.00    +0.000 A 
ATOM      5  C3  UNL     1      -4.577  -2.439   0.158  0.00  0.00    +0.000 A 
ATOM      6  C4  UNL     1      -5.136  -2.937   1.336  0.00  0.00    +0.000 A 
ATOM      7  C5  UNL     1      -4.595  -2.581   2.577  0.00  0.00    +0.000 A 
ATOM      8 CL1  UNL     1      -5.297  -3.218   4.058  0.00  0.00    +0.000 Cl
ATOM      9  C6  UNL     1      -3.497  -1.717   2.640  0.00  0.00    +0.000 A 
ATOM     10  C7  UNL     1      -2.934  -1.200   1.456  0.00  0.00    +0.000 A 
ATOM     11  C8  UNL     1      -1.842  -0.317   1.467  0.00  0.00    +0.000 A 
ATOM     12  O3  UNL     1      -1.312   0.014   2.563  0.00  0.00    +0.000 OA
ATOM     13  C9  UNL     1      -1.333   0.193   0.251  0.00  0.00    +0.000 A 
BRANCH   2  14
ATOM     14  O1  UNL     1      -1.419   0.099  -2.195  0.00  0.00    +0.000 OA
ATOM     15  H1  UNL     1      -1.830  -0.254  -3.044  0.00  0.00    +0.000 HD
ENDBRANCH   2  14
ENDBRANCH   1  13
BRANCH   1  16
ATOM     16  C17 UNL     1       1.225   0.541   0.518  0.00  0.00    +0.000 A 
ATOM     17  C18 UNL     1       1.525  -0.802   0.170  0.00  0.00    +0.000 A 
ATOM     18  O5  UNL     1       0.667  -1.531  -0.407  0.00  0.00    +0.000 OA
ATOM     19  C19 UNL     1       2.798  -1.329   0.447  0.00  0.00    +0.000 A 
ATOM     20  C20 UNL     1       3.126  -2.674   0.184  0.00  0.00    +0.000 A 
ATOM     21  C21 UNL     1       4.408  -3.155   0.469  0.00  0.00    +0.000 A 
ATOM     22 CL2  UNL     1       4.799  -4.842   0.175  0.00  0.00    +0.000 Cl
ATOM     23  C22 UNL     1       5.374  -2.296   1.007  0.00  0.00    +0.000 A 
ATOM     24  C23 UNL     1       5.056  -0.962   1.275  0.00  0.00    +0.000 A 
ATOM     25  C24 UNL     1       3.771  -0.478   1.005  0.00  0.00    +0.000 A 
ATOM     26  O6  UNL     1       3.481   0.787   1.273  0.00  0.00    +0.000 OA
ATOM     27  C25 UNL     1       2.286   1.325   1.057  0.00  0.00    +0.000 A 
BRANCH  27  28
ATOM     28  O7  UNL     1       2.138   2.681   1.361  0.00  0.00    +0.000 OA
ATOM     29  H14 UNL     1       1.287   3.215   1.214  0.00  0.00    +0.000 HD
ENDBRANCH  27  28
ENDBRANCH   1  16
BRANCH   1  30
ATOM     30  C11 UNL     1      -0.159   2.171  -0.877  0.00  0.00    +0.000 A 
ATOM     31  C12 UNL     1      -1.101   3.216  -0.875  0.00  0.00    +0.000 A 
ATOM     32  C13 UNL     1      -1.131   4.146  -1.918  0.00  0.00    +0.000 A 
ATOM     33  C14 UNL     1      -0.230   4.040  -2.981  0.00  0.00    +0.000 A 
ATOM     34  C15 UNL     1       0.703   3.000  -3.008  0.00  0.00    +0.000 A 
ATOM     35  C16 UNL     1       0.740   2.066  -1.962  0.00  0.00    +0.000 A 
BRANCH  34  36
ATOM     36  O4  UNL     1       1.586   2.902  -4.082  0.00  0.00    +0.000 OA
ATOM     37  H9  UNL     1       2.254   2.143  -4.155  0.00  0.00    +0.000 HD
ENDBRANCH  34  36
ENDBRANCH   1  30
TORSDOF 6
