REMARK  Name = resultss/4CJN/ligands/lig_399_t0.pdb
REMARK  8 active torsions:
REMARK  status: ('A' for Active; 'I' for Inactive)
REMARK    1  A    between atoms: C1_2  and  C9_12
REMARK    2  A    between atoms: N1_3  and  N2_4
REMARK    3  A    between atoms: C2_5  and  C3_6
REMARK    4  A    between atoms: C12_15  and  O2_16
REMARK    5  A    between atoms: O2_16  and  C13_17
REMARK    6  A    between atoms: C13_17  and  C14_18
REMARK    7  A    between atoms: N3_20  and  C16_21
REMARK    8  A    between atoms: C16_21  and  C17_22
REMARK                            x       y       z     vdW  Elec       q    Type
REMARK                         _______ _______ _______ _____ _____    ______ ____
ROOT
ATOM      1  C9  UNL     1       2.103   1.996   0.812  0.00  0.00    +0.000 A 
ATOM      2  C10 UNL     1       1.760   2.675   1.995  0.00  0.00    +0.000 A 
ATOM      3  C11 UNL     1       0.443   3.085   2.222  0.00  0.00    +0.000 A 
ATOM      4  C12 UNL     1      -0.558   2.819   1.283  0.00  0.00    +0.000 A 
ATOM      5  C23 UNL     1      -0.222   2.136   0.100  0.00  0.00    +0.000 A 
ATOM      6  C24 UNL     1       1.094   1.726  -0.130  0.00  0.00    +0.000 A 
ENDROOT
BRANCH   1   8
ATOM      7  O1  UNL     1       4.306   1.511   1.550  0.00  0.00    +0.000 OA
ATOM      8  C1  UNL     1       3.501   1.557   0.580  0.00  0.00    +0.000 C 
ATOM      9  N1  UNL     1       3.961   1.229  -0.742  0.00  0.00    +0.000 N 
ATOM     10  H1  UNL     1       3.514   1.705  -1.556  0.00  0.00    +0.000 HD
BRANCH   9  11
ATOM     11  N2  UNL     1       5.122   0.472  -0.991  0.00  0.00    +0.000 NA
ATOM     12  C2  UNL     1       5.535  -0.486  -0.217  0.00  0.00    +0.000 C 
BRANCH  12  13
ATOM     13  C3  UNL     1       6.771  -1.233  -0.525  0.00  0.00    +0.000 A 
ATOM     14  C4  UNL     1       7.174  -2.279   0.322  0.00  0.00    +0.000 A 
ATOM     15  C5  UNL     1       8.341  -3.000   0.050  0.00  0.00    +0.000 A 
ATOM     16  C6  UNL     1       9.115  -2.683  -1.069  0.00  0.00    +0.000 A 
ATOM     17  C7  UNL     1       8.724  -1.644  -1.918  0.00  0.00    +0.000 A 
ATOM     18  C8  UNL     1       7.558  -0.920  -1.650  0.00  0.00    +0.000 A 
ENDBRANCH  12  13
ENDBRANCH   9  11
ENDBRANCH   1   8
BRANCH   4  19
ATOM     19  O2  UNL     1      -1.865   3.250   1.566  0.00  0.00    +0.000 OA
BRANCH  19  20
ATOM     20  C13 UNL     1      -3.011   2.992   0.755  0.00  0.00    +0.000 C 
BRANCH  20  21
ATOM     21  C14 UNL     1      -3.386   1.545   0.822  0.00  0.00    +0.000 A 
ATOM     22  C15 UNL     1      -3.642   0.709  -0.241  0.00  0.00    +0.000 A 
ATOM     23  N3  UNL     1      -3.960  -0.481   0.295  0.00  0.00    +0.000 N 
ATOM     24  N4  UNL     1      -3.926  -0.373   1.614  0.00  0.00    +0.000 NA
ATOM     25  N5  UNL     1      -3.575   0.856   1.966  0.00  0.00    +0.000 NA
BRANCH  23  26
ATOM     26  C16 UNL     1      -4.376  -1.679  -0.425  0.00  0.00    +0.000 C 
BRANCH  26  27
ATOM     27  C17 UNL     1      -5.855  -1.629  -0.687  0.00  0.00    +0.000 A 
ATOM     28  C18 UNL     1      -6.348  -1.035  -1.860  0.00  0.00    +0.000 A 
ATOM     29  C19 UNL     1      -7.726  -0.955  -2.084  0.00  0.00    +0.000 A 
ATOM     30  C20 UNL     1      -8.620  -1.456  -1.133  0.00  0.00    +0.000 A 
ATOM     31  C21 UNL     1      -8.137  -2.034   0.044  0.00  0.00    +0.000 A 
ATOM     32  C22 UNL     1      -6.760  -2.116   0.271  0.00  0.00    +0.000 A 
ENDBRANCH  26  27
ENDBRANCH  23  26
ENDBRANCH  20  21
ENDBRANCH  19  20
ENDBRANCH   4  19
TORSDOF 8
