REMARK  Name = resultss/4CJN/ligands/lig_94_t0.pdb
REMARK  11 active torsions:
REMARK  status: ('A' for Active; 'I' for Inactive)
REMARK    1  A    between atoms: C6_6  and  C7_7
REMARK    2  A    between atoms: C6_6  and  C8_8
REMARK    3  A    between atoms: C8_8  and  O1_9
REMARK    4  A    between atoms: C9_10  and  O2_11
REMARK    5  A    between atoms: C12_14  and  C13_15
REMARK    6  A    between atoms: C14_16  and  C15_17
REMARK    7  A    between atoms: C16_18  and  C17_19
REMARK    8  A    between atoms: C20_22  and  C21_23
REMARK    9  A    between atoms: C24_26  and  N1_27
REMARK   10  A    between atoms: N1_27  and  C25_28
REMARK   11  A    between atoms: N1_27  and  C26_29
REMARK                            x       y       z     vdW  Elec       q    Type
REMARK                         _______ _______ _______ _____ _____    ______ ____
ROOT
ATOM      1  C1  UNL     1      -2.116  -1.452  -3.257  0.00  0.00    +0.000 C 
ATOM      2  C2  UNL     1      -2.906  -0.912  -2.309  0.00  0.00    +0.000 C 
ATOM      3  C3  UNL     1      -4.208  -0.285  -2.781  0.00  0.00    +0.000 C 
ATOM      4  C4  UNL     1      -5.093   0.342  -1.692  0.00  0.00    +0.000 C 
ATOM      5  C5  UNL     1      -4.965  -0.369  -0.324  0.00  0.00    +0.000 C 
ATOM      6  C6  UNL     1      -6.115   0.005   0.720  0.00  0.00    +0.000 C 
ATOM      7  C7  UNL     1      -7.450  -0.625   0.218  0.00  0.00    +0.000 C 
ATOM      8  C9  UNL     1      -5.794  -0.652   2.107  0.00  0.00    +0.000 C 
ATOM      9  C10 UNL     1      -4.364  -0.371   2.574  0.00  0.00    +0.000 C 
ATOM     10  C11 UNL     1      -3.353  -0.939   1.583  0.00  0.00    +0.000 C 
ATOM     11  C12 UNL     1      -3.468  -0.303   0.169  0.00  0.00    +0.000 C 
ATOM     12  C13 UNL     1      -2.902   1.150   0.215  0.00  0.00    +0.000 C 
ATOM     13  C14 UNL     1      -2.600  -1.164  -0.826  0.00  0.00    +0.000 C 
ENDROOT
BRANCH   8  14
ATOM     14  O2  UNL     1      -6.679  -0.205   3.107  0.00  0.00    +0.000 OA
ATOM     15  H15 UNL     1      -7.415  -0.868   3.175  0.00  0.00    +0.000 HD
ENDBRANCH   8  14
BRANCH  13  16
ATOM     16  C15 UNL     1      -1.113  -1.117  -0.494  0.00  0.00    +0.000 C 
ATOM     17  C16 UNL     1      -0.286  -0.167  -0.958  0.00  0.00    +0.000 C 
BRANCH  17  18
ATOM     18  C17 UNL     1       1.152  -0.104  -0.625  0.00  0.00    +0.000 C 
ATOM     19  C18 UNL     1       2.009   0.728  -1.209  0.00  0.00    +0.000 C 
ATOM     20  C19 UNL     1       3.336   0.487  -0.635  0.00  0.00    +0.000 C 
ATOM     21  C20 UNL     1       4.456   1.125  -0.994  0.00  0.00    +0.000 C 
ATOM     22  O3  UNL     1       3.243  -0.496   0.341  0.00  0.00    +0.000 OA
ATOM     23  C29 UNL     1       1.913  -0.875   0.364  0.00  0.00    +0.000 C 
ATOM     24  O4  UNL     1       1.455  -1.742   1.152  0.00  0.00    +0.000 OA
BRANCH  21  25
ATOM     25  C21 UNL     1       5.800   0.843  -0.435  0.00  0.00    +0.000 A 
ATOM     26  C22 UNL     1       6.753   1.870  -0.417  0.00  0.00    +0.000 A 
ATOM     27  C23 UNL     1       8.045   1.635   0.060  0.00  0.00    +0.000 A 
ATOM     28  C24 UNL     1       8.425   0.360   0.532  0.00  0.00    +0.000 A 
ATOM     29  C27 UNL     1       7.467  -0.672   0.493  0.00  0.00    +0.000 A 
ATOM     30  C28 UNL     1       6.178  -0.438   0.006  0.00  0.00    +0.000 A 
BRANCH  28  31
ATOM     31  N1  UNL     1       9.768   0.114   1.026  0.00  0.00    +0.000 N 
ATOM     32  C25 UNL     1      10.050  -1.048   1.878  0.00  0.00    +0.000 C 
ATOM     33  C26 UNL     1      10.872   1.014   0.668  0.00  0.00    +0.000 C 
ENDBRANCH  28  31
ENDBRANCH  21  25
ENDBRANCH  17  18
ENDBRANCH  13  16
BRANCH   6  34
ATOM     34  C8  UNL     1      -6.343   1.550   0.870  0.00  0.00    +0.000 C 
BRANCH  34  35
ATOM     35  O1  UNL     1      -7.518   1.844   1.584  0.00  0.00    +0.000 OA
ATOM     36  H13 UNL     1      -8.252   1.945   0.922  0.00  0.00    +0.000 HD
ENDBRANCH  34  35
ENDBRANCH   6  34
TORSDOF 7
