REMARK  Name = resultss/4CJN/ligands/lig_322_t1.pdb
REMARK  12 active torsions:
REMARK  status: ('A' for Active; 'I' for Inactive)
REMARK    1  A    between atoms: C1_1  and  O1_2
REMARK    2  A    between atoms: O1_2  and  C2_3
REMARK    3  A    between atoms: C6_8  and  O3_9
REMARK    4  A    between atoms: C9_12  and  O4_13
REMARK    5  A    between atoms: O4_13  and  C10_14
REMARK    6  A    between atoms: C11_16  and  C12_17
REMARK    7  A    between atoms: C12_17  and  O6_18
REMARK    8  A    between atoms: C13_19  and  O7_20
REMARK    9  A    between atoms: C14_21  and  O8_22
REMARK   10  A    between atoms: C15_23  and  O9_24
REMARK   11  A    between atoms: C20_30  and  O11_31
REMARK   12  A    between atoms: O11_31  and  C21_32
REMARK                            x       y       z     vdW  Elec       q    Type
REMARK                         _______ _______ _______ _____ _____    ______ ____
ROOT
ATOM      1  C2  UNL     1       6.152   0.312   0.002  0.00  0.00    +0.000 A 
ATOM      2  C3  UNL     1       6.040   0.020  -1.375  0.00  0.00    +0.000 A 
ATOM      3  C4  UNL     1       4.804  -0.209  -1.985  0.00  0.00    +0.000 A 
ATOM      4  O2  UNL     1       4.777  -0.470  -3.219  0.00  0.00    +0.000 OA
ATOM      5  C5  UNL     1       3.621  -0.148  -1.225  0.00  0.00    +0.000 A 
ATOM      6  C6  UNL     1       2.335  -0.393  -1.747  0.00  0.00    +0.000 A 
ATOM      7  C7  UNL     1       1.213  -0.302  -0.882  0.00  0.00    +0.000 A 
ATOM      8  C8  UNL     1      -0.110  -0.556  -1.311  0.00  0.00    +0.000 A 
ATOM      9  C9  UNL     1      -1.190  -0.458  -0.426  0.00  0.00    +0.000 A 
ATOM     10  C16 UNL     1      -0.958  -0.071   0.904  0.00  0.00    +0.000 A 
ATOM     11  C17 UNL     1       0.339   0.173   1.348  0.00  0.00    +0.000 A 
ATOM     12  C18 UNL     1       1.423   0.050   0.477  0.00  0.00    +0.000 A 
ATOM     13  O10 UNL     1       2.641   0.264   0.957  0.00  0.00    +0.000 OA
ATOM     14  C19 UNL     1       3.734   0.180   0.215  0.00  0.00    +0.000 A 
ATOM     15  C20 UNL     1       4.986   0.391   0.803  0.00  0.00    +0.000 A 
ENDROOT
BRANCH   1  17
ATOM     16  C1  UNL     1       8.639   0.621  -0.127  0.00  0.00    +0.000 C 
ATOM     17  O1  UNL     1       7.408   0.539   0.585  0.00  0.00    +0.000 OA
ENDBRANCH   1  17
BRANCH   6  18
ATOM     18  O3  UNL     1       2.209  -0.721  -3.103  0.00  0.00    +0.000 OA
ATOM     19  H5  UNL     1       1.341  -0.932  -3.574  0.00  0.00    +0.000 HD
ENDBRANCH   6  18
BRANCH  15  20
ATOM     20  O11 UNL     1       5.001   0.681   2.182  0.00  0.00    +0.000 OA
ATOM     21  C21 UNL     1       6.136   0.668   3.040  0.00  0.00    +0.000 C 
ENDBRANCH  15  20
BRANCH   9  22
ATOM     22  O4  UNL     1      -2.474  -0.768  -0.905  0.00  0.00    +0.000 OA
BRANCH  22  23
ATOM     23  C10 UNL     1      -3.669  -0.694  -0.128  0.00  0.00    +0.000 C 
ATOM     24  O5  UNL     1      -3.979   0.662   0.117  0.00  0.00    +0.000 OA
ATOM     25  C11 UNL     1      -4.965   0.799   1.132  0.00  0.00    +0.000 C 
ATOM     26  C13 UNL     1      -6.107  -0.269   1.037  0.00  0.00    +0.000 C 
ATOM     27  C14 UNL     1      -6.200  -0.819  -0.400  0.00  0.00    +0.000 C 
ATOM     28  C15 UNL     1      -4.827  -1.355  -0.899  0.00  0.00    +0.000 C 
BRANCH  26  29
ATOM     29  O7  UNL     1      -5.837  -1.315   1.941  0.00  0.00    +0.000 OA
ATOM     30  H13 UNL     1      -6.700  -1.779   2.121  0.00  0.00    +0.000 HD
ENDBRANCH  26  29
BRANCH  27  31
ATOM     31  O8  UNL     1      -7.192  -1.815  -0.460  0.00  0.00    +0.000 OA
ATOM     32  H15 UNL     1      -7.470  -1.884  -1.412  0.00  0.00    +0.000 HD
ENDBRANCH  27  31
BRANCH  28  33
ATOM     33  O9  UNL     1      -4.731  -2.749  -0.741  0.00  0.00    +0.000 OA
ATOM     34  H17 UNL     1      -5.222  -3.161  -1.499  0.00  0.00    +0.000 HD
ENDBRANCH  28  33
BRANCH  25  35
ATOM     35  C12 UNL     1      -5.544   2.224   1.032  0.00  0.00    +0.000 C 
BRANCH  35  36
ATOM     36  O6  UNL     1      -4.563   3.190   1.310  0.00  0.00    +0.000 OA
ATOM     37  H11 UNL     1      -3.953   3.217   0.522  0.00  0.00    +0.000 HD
ENDBRANCH  35  36
ENDBRANCH  25  35
ENDBRANCH  22  23
ENDBRANCH   9  22
TORSDOF 10
