REMARK  Name = resultss/4CJN/ligands/lig_296_t0.pdb
REMARK  12 active torsions:
REMARK  status: ('A' for Active; 'I' for Inactive)
REMARK    1  A    between atoms: C1_1  and  O1_2
REMARK    2  A    between atoms: O1_2  and  C2_3
REMARK    3  A    between atoms: C4_5  and  O2_6
REMARK    4  A    between atoms: O2_6  and  C5_7
REMARK    5  A    between atoms: C6_9  and  C7_10
REMARK    6  A    between atoms: C7_10  and  O4_11
REMARK    7  A    between atoms: C8_12  and  O5_13
REMARK    8  A    between atoms: C9_14  and  O6_15
REMARK    9  A    between atoms: C10_16  and  O7_17
REMARK   10  A    between atoms: C16_24  and  O9_25
REMARK   11  A    between atoms: C17_26  and  O10_27
REMARK   12  A    between atoms: O10_27  and  C18_28
REMARK                            x       y       z     vdW  Elec       q    Type
REMARK                         _______ _______ _______ _____ _____    ______ ____
ROOT
ATOM      1  C2  UNL     1       0.120  -2.672  -1.006  0.00  0.00    +0.000 A 
ATOM      2  C3  UNL     1      -0.744  -1.579  -0.906  0.00  0.00    +0.000 A 
ATOM      3  C4  UNL     1      -0.260  -0.291  -0.597  0.00  0.00    +0.000 A 
ATOM      4  C11 UNL     1       1.130  -0.107  -0.389  0.00  0.00    +0.000 A 
ATOM      5  C12 UNL     1       1.701   1.147  -0.075  0.00  0.00    +0.000 A 
ATOM      6  O8  UNL     1       0.979   2.177   0.035  0.00  0.00    +0.000 OA
ATOM      7  C13 UNL     1       3.091   1.247   0.118  0.00  0.00    +0.000 A 
ATOM      8  C14 UNL     1       3.711   2.467   0.433  0.00  0.00    +0.000 A 
ATOM      9  C15 UNL     1       5.092   2.525   0.617  0.00  0.00    +0.000 A 
ATOM     10  C16 UNL     1       5.881   1.374   0.491  0.00  0.00    +0.000 A 
ATOM     11  C17 UNL     1       5.272   0.135   0.173  0.00  0.00    +0.000 A 
ATOM     12  C19 UNL     1       3.879   0.083  -0.010  0.00  0.00    +0.000 A 
ATOM     13  O11 UNL     1       3.307  -1.079  -0.306  0.00  0.00    +0.000 OA
ATOM     14  C20 UNL     1       2.000  -1.219  -0.495  0.00  0.00    +0.000 A 
ATOM     15  C21 UNL     1       1.495  -2.484  -0.800  0.00  0.00    +0.000 A 
ENDROOT
BRANCH   1  17
ATOM     16  C1  UNL     1       0.326  -5.128  -1.438  0.00  0.00    +0.000 C 
ATOM     17  O1  UNL     1      -0.429  -3.927  -1.313  0.00  0.00    +0.000 OA
ENDBRANCH   1  17
BRANCH  10  18
ATOM     18  O9  UNL     1       7.257   1.477   0.683  0.00  0.00    +0.000 OA
ATOM     19  H18 UNL     1       7.701   2.358   0.911  0.00  0.00    +0.000 HD
ENDBRANCH  10  18
BRANCH  11  20
ATOM     20  O10 UNL     1       5.984  -1.071   0.025  0.00  0.00    +0.000 OA
ATOM     21  C18 UNL     1       7.390  -1.241   0.165  0.00  0.00    +0.000 C 
ENDBRANCH  11  20
BRANCH   3  22
ATOM     22  O2  UNL     1      -1.130   0.809  -0.493  0.00  0.00    +0.000 OA
BRANCH  22  23
ATOM     23  C5  UNL     1      -2.552   0.762  -0.619  0.00  0.00    +0.000 C 
ATOM     24  O3  UNL     1      -3.072  -0.041   0.433  0.00  0.00    +0.000 OA
ATOM     25  C6  UNL     1      -4.487   0.014   0.449  0.00  0.00    +0.000 C 
ATOM     26  C8  UNL     1      -4.966   1.410   0.943  0.00  0.00    +0.000 C 
ATOM     27  C9  UNL     1      -3.860   2.471   0.731  0.00  0.00    +0.000 C 
ATOM     28  C10 UNL     1      -3.103   2.216  -0.585  0.00  0.00    +0.000 C 
BRANCH  26  29
ATOM     29  O5  UNL     1      -6.124   1.789   0.242  0.00  0.00    +0.000 OA
ATOM     30  H11 UNL     1      -6.893   1.359   0.699  0.00  0.00    +0.000 HD
ENDBRANCH  26  29
BRANCH  27  31
ATOM     31  O6  UNL     1      -4.398   3.769   0.737  0.00  0.00    +0.000 OA
ATOM     32  H13 UNL     1      -4.664   3.963   1.674  0.00  0.00    +0.000 HD
ENDBRANCH  27  31
BRANCH  28  33
ATOM     33  O7  UNL     1      -3.959   2.415  -1.684  0.00  0.00    +0.000 OA
ATOM     34  H15 UNL     1      -4.010   3.394  -1.841  0.00  0.00    +0.000 HD
ENDBRANCH  28  33
BRANCH  25  35
ATOM     35  C7  UNL     1      -5.004  -1.115   1.353  0.00  0.00    +0.000 C 
BRANCH  35  36
ATOM     36  O4  UNL     1      -6.405  -1.156   1.360  0.00  0.00    +0.000 OA
ATOM     37  H9  UNL     1      -6.683  -1.543   0.489  0.00  0.00    +0.000 HD
ENDBRANCH  35  36
ENDBRANCH  25  35
ENDBRANCH  22  23
ENDBRANCH   3  22
TORSDOF 10
