REMARK  Name = resultss/4CJN/ligands/lig_92_t0.pdb
REMARK  8 active torsions:
REMARK  status: ('A' for Active; 'I' for Inactive)
REMARK    1  A    between atoms: C6_6  and  C7_7
REMARK    2  A    between atoms: C6_6  and  C8_8
REMARK    3  A    between atoms: C8_8  and  O1_9
REMARK    4  A    between atoms: C9_10  and  O2_11
REMARK    5  A    between atoms: C12_14  and  C13_15
REMARK    6  A    between atoms: C14_16  and  C15_17
REMARK    7  A    between atoms: C16_18  and  C17_19
REMARK    8  A    between atoms: C20_22  and  C21_23
REMARK                            x       y       z     vdW  Elec       q    Type
REMARK                         _______ _______ _______ _____ _____    ______ ____
ROOT
ATOM      1  C1  UNL     1      -1.742   0.985  -3.557  0.00  0.00    +0.000 C 
ATOM      2  C2  UNL     1      -2.442   0.966  -2.407  0.00  0.00    +0.000 C 
ATOM      3  C3  UNL     1      -3.822   1.622  -2.428  0.00  0.00    +0.000 C 
ATOM      4  C4  UNL     1      -4.701   1.447  -1.169  0.00  0.00    +0.000 C 
ATOM      5  C5  UNL     1      -4.262   0.235  -0.321  0.00  0.00    +0.000 C 
ATOM      6  C6  UNL     1      -5.253  -0.247   0.817  0.00  0.00    +0.000 C 
ATOM      7  C7  UNL     1      -6.648  -0.527   0.184  0.00  0.00    +0.000 C 
ATOM      8  C9  UNL     1      -4.735  -1.626   1.408  0.00  0.00    +0.000 C 
ATOM      9  C10 UNL     1      -3.244  -1.924   1.127  0.00  0.00    +0.000 C 
ATOM     10  C11 UNL     1      -2.371  -0.671   1.181  0.00  0.00    +0.000 C 
ATOM     11  C12 UNL     1      -2.750   0.391   0.096  0.00  0.00    +0.000 C 
ATOM     12  C13 UNL     1      -2.422   1.810   0.665  0.00  0.00    +0.000 C 
ATOM     13  C14 UNL     1      -1.905   0.167  -1.210  0.00  0.00    +0.000 C 
ENDROOT
BRANCH   8  14
ATOM     14  O2  UNL     1      -4.975  -1.731   2.790  0.00  0.00    +0.000 OA
ATOM     15  H15 UNL     1      -5.948  -1.894   2.902  0.00  0.00    +0.000 HD
ENDBRANCH   8  14
BRANCH  13  16
ATOM     16  C15 UNL     1      -0.429   0.466  -0.995  0.00  0.00    +0.000 C 
ATOM     17  C16 UNL     1       0.490  -0.506  -0.949  0.00  0.00    +0.000 C 
BRANCH  17  18
ATOM     18  C17 UNL     1       1.932  -0.260  -0.737  0.00  0.00    +0.000 C 
ATOM     19  C18 UNL     1       2.854  -1.219  -0.760  0.00  0.00    +0.000 C 
ATOM     20  C19 UNL     1       4.157  -0.601  -0.502  0.00  0.00    +0.000 C 
ATOM     21  C20 UNL     1       5.319  -1.258  -0.427  0.00  0.00    +0.000 C 
ATOM     22  O5  UNL     1       3.991   0.764  -0.312  0.00  0.00    +0.000 OA
ATOM     23  C28 UNL     1       2.634   0.998  -0.452  0.00  0.00    +0.000 C 
ATOM     24  O6  UNL     1       2.111   2.136  -0.330  0.00  0.00    +0.000 OA
BRANCH  21  25
ATOM     25  C21 UNL     1       6.620  -0.608  -0.157  0.00  0.00    +0.000 A 
ATOM     26  C22 UNL     1       6.932   0.691  -0.647  0.00  0.00    +0.000 A 
ATOM     27  C23 UNL     1       8.187   1.271  -0.389  0.00  0.00    +0.000 A 
ATOM     28  C24 UNL     1       9.109   0.529   0.342  0.00  0.00    +0.000 A 
ATOM     29  C25 UNL     1       8.828  -0.718   0.795  0.00  0.00    +0.000 A 
ATOM     30  C26 UNL     1       7.600  -1.329   0.562  0.00  0.00    +0.000 A 
ATOM     31  O3  UNL     1       9.921  -1.217   1.477  0.00  0.00    +0.000 OA
ATOM     32  C27 UNL     1      10.953  -0.220   1.450  0.00  0.00    +0.000 C 
ATOM     33  O4  UNL     1      10.392   0.877   0.715  0.00  0.00    +0.000 OA
ENDBRANCH  21  25
ENDBRANCH  17  18
ENDBRANCH  13  16
BRANCH   6  34
ATOM     34  C8  UNL     1      -5.496   0.834   1.923  0.00  0.00    +0.000 C 
BRANCH  34  35
ATOM     35  O1  UNL     1      -4.465   0.877   2.870  0.00  0.00    +0.000 OA
ATOM     36  H13 UNL     1      -4.702   1.599   3.508  0.00  0.00    +0.000 HD
ENDBRANCH  34  35
ENDBRANCH   6  34
TORSDOF 6
