REMARK  Name = resultss/4CJN/ligands/lig_349_t1.pdb
REMARK  10 active torsions:
REMARK  status: ('A' for Active; 'I' for Inactive)
REMARK    1  A    between atoms: O1_1  and  C1_2
REMARK    2  A    between atoms: C1_2  and  C2_3
REMARK    3  A    between atoms: C2_3  and  N1_4
REMARK    4  A    between atoms: C4_6  and  C5_7
REMARK    5  A    between atoms: C5_7  and  O2_8
REMARK    6  A    between atoms: O2_8  and  C6_9
REMARK    7  A    between atoms: C9_12  and  C10_13
REMARK    8  A    between atoms: N3_23  and  N4_24
REMARK    9  A    between atoms: N4_24  and  C18_25
REMARK   10  A    between atoms: N7_35  and  C26_36
REMARK                            x       y       z     vdW  Elec       q    Type
REMARK                         _______ _______ _______ _____ _____    ______ ____
ROOT
ATOM      1  C6  UNL     1       0.252   0.034   1.047  0.00  0.00    +0.000 A 
ATOM      2  C7  UNL     1      -0.440   0.721   0.045  0.00  0.00    +0.000 A 
ATOM      3  C8  UNL     1      -1.804   0.991   0.178  0.00  0.00    +0.000 A 
ATOM      4  C9  UNL     1      -2.502   0.579   1.326  0.00  0.00    +0.000 A 
ATOM      5  C24 UNL     1      -1.806  -0.107   2.336  0.00  0.00    +0.000 A 
ATOM      6  C25 UNL     1      -0.441  -0.377   2.199  0.00  0.00    +0.000 A 
ENDROOT
BRANCH   4   7
ATOM      7  C10 UNL     1      -3.988   0.835   1.465  0.00  0.00    +0.000 C 
ATOM      8  N2  UNL     1      -4.262   2.276   1.411  0.00  0.00    +0.000 N 
ATOM      9  C11 UNL     1      -4.681   2.945   0.213  0.00  0.00    +0.000 A 
ATOM     10  C12 UNL     1      -4.701   4.347   0.159  0.00  0.00    +0.000 A 
ATOM     11  C13 UNL     1      -5.089   5.000  -1.014  0.00  0.00    +0.000 A 
ATOM     12  C14 UNL     1      -5.462   4.259  -2.138  0.00  0.00    +0.000 A 
ATOM     13  C15 UNL     1      -5.453   2.862  -2.090  0.00  0.00    +0.000 A 
ATOM     14  C16 UNL     1      -5.066   2.199  -0.912  0.00  0.00    +0.000 A 
ATOM     15  C17 UNL     1      -5.064   0.730  -0.818  0.00  0.00    +0.000 C 
ATOM     16  O3  UNL     1      -5.344   0.029  -1.828  0.00  0.00    +0.000 OA
ATOM     17  N3  UNL     1      -4.733   0.098   0.433  0.00  0.00    +0.000 N 
ATOM     18  H10 UNL     1      -4.005   2.849   2.246  0.00  0.00    +0.000 HD
BRANCH  17  19
ATOM     19  N4  UNL     1      -4.901  -1.293   0.596  0.00  0.00    +0.000 N 
ATOM     20  H15 UNL     1      -4.158  -1.834   1.091  0.00  0.00    +0.000 HD
BRANCH  19  21
ATOM     21  C18 UNL     1      -6.106  -1.982   0.223  0.00  0.00    +0.000 A 
ATOM     22  C19 UNL     1      -6.066  -3.364  -0.015  0.00  0.00    +0.000 A 
ATOM     23  C20 UNL     1      -7.229  -4.054  -0.367  0.00  0.00    +0.000 A 
ATOM     24  C21 UNL     1      -8.444  -3.372  -0.472  0.00  0.00    +0.000 A 
ATOM     25  C22 UNL     1      -8.498  -1.999  -0.217  0.00  0.00    +0.000 A 
ATOM     26  C23 UNL     1      -7.336  -1.305   0.136  0.00  0.00    +0.000 A 
ENDBRANCH  19  21
ENDBRANCH  17  19
ENDBRANCH   4   7
BRANCH   1  27
ATOM     27  O2  UNL     1       1.618  -0.222   0.857  0.00  0.00    +0.000 OA
BRANCH  27  28
ATOM     28  C5  UNL     1       2.431  -0.962   1.764  0.00  0.00    +0.000 C 
BRANCH  28  31
ATOM     29  N1  UNL     1       5.507  -1.583  -0.052  0.00  0.00    +0.000 N 
ATOM     30  C3  UNL     1       4.173  -1.712   0.038  0.00  0.00    +0.000 A 
ATOM     31  C4  UNL     1       3.811  -1.081   1.207  0.00  0.00    +0.000 A 
ATOM     32  N5  UNL     1       4.922  -0.581   1.787  0.00  0.00    +0.000 NA
ATOM     33  N6  UNL     1       5.938  -0.898   0.996  0.00  0.00    +0.000 NA
BRANCH  29  34
ATOM     34  C2  UNL     1       6.357  -2.048  -1.143  0.00  0.00    +0.000 C 
BRANCH  34  35
ATOM     35  C1  UNL     1       6.469  -0.978  -2.197  0.00  0.00    +0.000 C 
ATOM     36  N7  UNL     1       7.308   0.017  -2.112  0.00  0.00    +0.000 NA
BRANCH  36  37
ATOM     37  C26 UNL     1       8.305   0.197  -1.099  0.00  0.00    +0.000 A 
ATOM     38  C27 UNL     1       9.386  -0.693  -0.988  0.00  0.00    +0.000 A 
ATOM     39  C28 UNL     1      10.375  -0.480  -0.022  0.00  0.00    +0.000 A 
ATOM     40  C29 UNL     1      10.301   0.633   0.823  0.00  0.00    +0.000 A 
ATOM     41 CL1  UNL     1      11.544   0.901   2.030  0.00  0.00    +0.000 Cl
ATOM     42  C30 UNL     1       9.241   1.539   0.694  0.00  0.00    +0.000 A 
ATOM     43  C31 UNL     1       8.252   1.327  -0.272  0.00  0.00    +0.000 A 
ENDBRANCH  36  37
BRANCH  35  44
ATOM     44  O1  UNL     1       5.583  -1.022  -3.271  0.00  0.00    +0.000 OA
ATOM     45  H1  UNL     1       5.601  -0.312  -3.993  0.00  0.00    +0.000 HD
ENDBRANCH  35  44
ENDBRANCH  34  35
ENDBRANCH  29  34
ENDBRANCH  28  31
ENDBRANCH  27  28
ENDBRANCH   1  27
TORSDOF 10
