REMARK  Name = resultss/4CJN/ligands/lig_33_t0.pdb
REMARK  12 active torsions:
REMARK  status: ('A' for Active; 'I' for Inactive)
REMARK    1  A    between atoms: C1_1  and  SI1_2
REMARK    2  A    between atoms: SI1_2  and  C2_3
REMARK    3  A    between atoms: SI1_2  and  C3_4
REMARK    4  A    between atoms: SI1_2  and  C4_5
REMARK    5  A    between atoms: C4_5  and  C5_6
REMARK    6  A    between atoms: C5_6  and  C6_7
REMARK    7  A    between atoms: C6_7  and  N1_8
REMARK    8  A    between atoms: C8_10  and  O1_11
REMARK    9  A    between atoms: C9_12  and  O2_13
REMARK   10  A    between atoms: C10_14  and  O3_15
REMARK   11  A    between atoms: C11_16  and  C12_17
REMARK   12  A    between atoms: C12_17  and  O4_18
REMARK                            x       y       z     vdW  Elec       q    Type
REMARK                         _______ _______ _______ _____ _____    ______ ____
ROOT
ATOM      1  N1  UNL     1       1.346  -0.062   0.134  0.00  0.00    +0.000 NA
ATOM      2  C7  UNL     1       1.832   1.092   0.929  0.00  0.00    +0.000 C 
ATOM      3  C8  UNL     1       3.092   1.753   0.334  0.00  0.00    +0.000 C 
ATOM      4  C9  UNL     1       4.252   0.735   0.132  0.00  0.00    +0.000 C 
ATOM      5  C10 UNL     1       3.780  -0.735   0.236  0.00  0.00    +0.000 C 
ATOM      6  C11 UNL     1       2.401  -0.938  -0.454  0.00  0.00    +0.000 C 
ENDROOT
BRANCH   3   7
ATOM      7  O1  UNL     1       2.784   2.433  -0.858  0.00  0.00    +0.000 OA
ATOM      8  H19 UNL     1       2.644   1.758  -1.571  0.00  0.00    +0.000 HD
ENDBRANCH   3   7
BRANCH   4   9
ATOM      9  O2  UNL     1       5.293   0.974   1.047  0.00  0.00    +0.000 OA
ATOM     10  H21 UNL     1       4.919   0.872   1.961  0.00  0.00    +0.000 HD
ENDBRANCH   4   9
BRANCH   5  11
ATOM     11  O3  UNL     1       4.760  -1.593  -0.300  0.00  0.00    +0.000 OA
ATOM     12  H23 UNL     1       4.813  -1.419  -1.276  0.00  0.00    +0.000 HD
ENDBRANCH   5  11
BRANCH   1  13
ATOM     13  C6  UNL     1       0.279   0.318  -0.823  0.00  0.00    +0.000 C 
BRANCH  13  14
ATOM     14  C5  UNL     1      -1.090   0.101  -0.173  0.00  0.00    +0.000 C 
BRANCH  14  15
ATOM     15  C4  UNL     1      -2.221   0.459  -1.139  0.00  0.00    +0.000 C 
BRANCH  15  17
ATOM     16  C1  UNL     1      -4.122  -1.603   0.117  0.00  0.00    +0.000 C 
ATOM     17 SI1  UNL     1      -3.907   0.190  -0.359  0.00  0.00    +0.000 Si
ATOM     18  C2  UNL     1      -4.099   1.264   1.157  0.00  0.00    +0.000 C 
ATOM     19  C3  UNL     1      -5.223   0.650  -1.601  0.00  0.00    +0.000 C 
ENDBRANCH  15  17
ENDBRANCH  14  15
ENDBRANCH  13  14
ENDBRANCH   1  13
BRANCH   6  20
ATOM     20  C12 UNL     1       1.969  -2.415  -0.313  0.00  0.00    +0.000 C 
BRANCH  20  21
ATOM     21  O4  UNL     1       0.793  -2.674  -1.031  0.00  0.00    +0.000 OA
ATOM     22  H27 UNL     1       1.051  -2.722  -1.989  0.00  0.00    +0.000 HD
ENDBRANCH  20  21
ENDBRANCH   6  20
TORSDOF 9
