REMARK  Name = resultss/4CJN/ligands/lig_237_t2.pdb
REMARK  25 active torsions:
REMARK  status: ('A' for Active; 'I' for Inactive)
REMARK    1  A    between atoms: C1_1  and  C2_2
REMARK    2  A    between atoms: C2_2  and  C3_3
REMARK    3  A    between atoms: C4_4  and  C5_5
REMARK    4  A    between atoms: C5_5  and  C6_6
REMARK    5  A    between atoms: C8_8  and  C9_9
REMARK    6  A    between atoms: C9_9  and  C10_10
REMARK    7  A    between atoms: C10_10  and  C11_11
REMARK    8  A    between atoms: C11_11  and  O2_13
REMARK    9  A    between atoms: C13_17  and  O5_18
REMARK   10  A    between atoms: O5_18  and  C14_19
REMARK   11  A    between atoms: C14_19  and  C15_20
REMARK   12  A    between atoms: C14_19  and  C16_21
REMARK   13  A    between atoms: C14_19  and  C17_22
REMARK   14  A    between atoms: C17_22  and  O6_23
REMARK   15  A    between atoms: C17_22  and  C18_24
REMARK   16  A    between atoms: C18_24  and  C19_25
REMARK   17  A    between atoms: C21_27  and  C22_28
REMARK   18  A    between atoms: C22_28  and  C23_29
REMARK   19  A    between atoms: C23_29  and  C24_30
REMARK   20  A    between atoms: C24_30  and  O8_32
REMARK   21  A    between atoms: C27_38  and  C28_39
REMARK   22  A    between atoms: C31_42  and  O12_43
REMARK   23  A    between atoms: C36_48  and  O13_49
REMARK   24  A    between atoms: C37_50  and  C38_51
REMARK   25  A    between atoms: C41_54  and  O14_55
REMARK                            x       y       z     vdW  Elec       q    Type
REMARK                         _______ _______ _______ _____ _____    ______ ____
ROOT
ATOM      1  C14 UNL     1      -0.334   2.047  -3.020  0.00  0.00    +0.000 C 
ATOM      2  C15 UNL     1       0.524   2.523  -4.216  0.00  0.00    +0.000 C 
ATOM      3  C16 UNL     1      -1.330   0.946  -3.470  0.00  0.00    +0.000 C 
ENDROOT
BRANCH   1   4
ATOM      4  C17 UNL     1      -1.057   3.299  -2.405  0.00  0.00    +0.000 C 
BRANCH   4   5
ATOM      5  O6  UNL     1      -1.761   4.061  -3.358  0.00  0.00    +0.000 OA
ATOM      6  H22 UNL     1      -2.458   3.493  -3.767  0.00  0.00    +0.000 HD
ENDBRANCH   4   5
BRANCH   4   7
ATOM      7  C18 UNL     1      -1.895   3.034  -1.119  0.00  0.00    +0.000 C 
BRANCH   7   8
ATOM      8  C19 UNL     1      -3.324   2.596  -1.358  0.00  0.00    +0.000 A 
ATOM      9  C20 UNL     1      -3.672   1.243  -1.220  0.00  0.00    +0.000 A 
ATOM     10  C21 UNL     1      -4.983   0.808  -1.463  0.00  0.00    +0.000 A 
ATOM     11  C34 UNL     1      -5.958   1.744  -1.830  0.00  0.00    +0.000 A 
ATOM     12  C35 UNL     1      -5.635   3.097  -1.930  0.00  0.00    +0.000 A 
ATOM     13  C36 UNL     1      -4.325   3.532  -1.689  0.00  0.00    +0.000 A 
BRANCH  13  14
ATOM     14  O13 UNL     1      -4.017   4.889  -1.774  0.00  0.00    +0.000 OA
ATOM     15  H37 UNL     1      -4.723   5.579  -2.004  0.00  0.00    +0.000 HD
ENDBRANCH  13  14
BRANCH  10  16
ATOM     16  C22 UNL     1      -5.332  -0.658  -1.350  0.00  0.00    +0.000 C 
BRANCH  16  17
ATOM     17  C23 UNL     1      -5.541  -1.136   0.110  0.00  0.00    +0.000 C 
ATOM     18  O9  UNL     1      -4.422  -0.726   0.908  0.00  0.00    +0.000 OA
ATOM     19  C25 UNL     1      -4.809   0.075   1.961  0.00  0.00    +0.000 C 
ATOM     20  O10 UNL     1      -4.009   0.572   2.795  0.00  0.00    +0.000 OA
ATOM     21  C26 UNL     1      -6.228   0.270   1.948  0.00  0.00    +0.000 C 
ATOM     22  O11 UNL     1      -6.870   0.991   2.760  0.00  0.00    +0.000 OA
ATOM     23  C27 UNL     1      -6.809  -0.458   0.780  0.00  0.00    +0.000 C 
BRANCH  23  24
ATOM     24  C28 UNL     1      -7.924  -1.411   1.185  0.00  0.00    +0.000 A 
ATOM     25  C29 UNL     1      -7.822  -2.223   2.333  0.00  0.00    +0.000 A 
ATOM     26  C30 UNL     1      -8.839  -3.124   2.658  0.00  0.00    +0.000 A 
ATOM     27  C31 UNL     1      -9.960  -3.247   1.831  0.00  0.00    +0.000 A 
ATOM     28  C32 UNL     1     -10.065  -2.455   0.681  0.00  0.00    +0.000 A 
ATOM     29  C33 UNL     1      -9.052  -1.547   0.356  0.00  0.00    +0.000 A 
BRANCH  27  30
ATOM     30  O12 UNL     1     -10.961  -4.155   2.162  0.00  0.00    +0.000 OA
ATOM     31  H32 UNL     1     -11.791  -4.269   1.586  0.00  0.00    +0.000 HD
ENDBRANCH  27  30
ENDBRANCH  23  24
BRANCH  17  32
ATOM     32  C24 UNL     1      -5.607  -2.650   0.113  0.00  0.00    +0.000 C 
ATOM     33  O7  UNL     1      -4.985  -3.315   0.987  0.00  0.00    +0.000 OA
BRANCH  32  34
ATOM     34  O8  UNL     1      -6.398  -3.313  -0.820  0.00  0.00    +0.000 OA
ATOM     35  H28 UNL     1      -6.469  -4.323  -0.813  0.00  0.00    +0.000 HD
ENDBRANCH  32  34
ENDBRANCH  17  32
ENDBRANCH  16  17
ENDBRANCH  10  16
ENDBRANCH   7   8
ENDBRANCH   4   7
ENDBRANCH   1   4
BRANCH   1  36
ATOM     36  O5  UNL     1       0.528   1.547  -1.986  0.00  0.00    +0.000 OA
BRANCH  36  41
ATOM     37  C10 UNL     1       3.309  -0.846  -1.393  0.00  0.00    +0.000 C 
ATOM     38  O3  UNL     1       2.763  -1.320  -2.626  0.00  0.00    +0.000 OA
ATOM     39  C12 UNL     1       1.707  -0.521  -3.022  0.00  0.00    +0.000 C 
ATOM     40  O4  UNL     1       1.045  -0.727  -4.070  0.00  0.00    +0.000 OA
ATOM     41  C13 UNL     1       1.485   0.516  -2.033  0.00  0.00    +0.000 C 
ATOM     42  C37 UNL     1       2.379   0.329  -1.069  0.00  0.00    +0.000 C 
BRANCH  42  43
ATOM     43  C38 UNL     1       2.428   1.192   0.127  0.00  0.00    +0.000 A 
ATOM     44  C39 UNL     1       3.047   2.450   0.062  0.00  0.00    +0.000 A 
ATOM     45  C40 UNL     1       3.064   3.282   1.187  0.00  0.00    +0.000 A 
ATOM     46  C41 UNL     1       2.456   2.873   2.377  0.00  0.00    +0.000 A 
ATOM     47  C42 UNL     1       1.817   1.628   2.436  0.00  0.00    +0.000 A 
ATOM     48  C43 UNL     1       1.788   0.798   1.312  0.00  0.00    +0.000 A 
BRANCH  46  49
ATOM     49  O14 UNL     1       2.487   3.709   3.491  0.00  0.00    +0.000 OA
ATOM     50  H40 UNL     1       2.073   3.429   4.372  0.00  0.00    +0.000 HD
ENDBRANCH  46  49
ENDBRANCH  42  43
BRANCH  37  51
ATOM     51  C11 UNL     1       4.733  -0.418  -1.680  0.00  0.00    +0.000 C 
ATOM     52  O1  UNL     1       5.083   0.788  -1.593  0.00  0.00    +0.000 OA
BRANCH  51  53
ATOM     53  O2  UNL     1       5.668  -1.371  -2.075  0.00  0.00    +0.000 OA
ATOM     54  H14 UNL     1       6.630  -1.110  -2.263  0.00  0.00    +0.000 HD
ENDBRANCH  51  53
ENDBRANCH  37  51
BRANCH  37  55
ATOM     55  C9  UNL     1       3.215  -1.988  -0.333  0.00  0.00    +0.000 C 
BRANCH  55  58
ATOM     56  C6  UNL     1       6.081  -1.170   2.198  0.00  0.00    +0.000 C 
ATOM     57  C7  UNL     1       4.830  -1.098   1.355  0.00  0.00    +0.000 C 
ATOM     58  C8  UNL     1       4.395  -2.133   0.611  0.00  0.00    +0.000 C 
ATOM     59  C44 UNL     1       5.021  -3.469   0.769  0.00  0.00    +0.000 C 
ATOM     60  C45 UNL     1       5.954  -3.697   1.697  0.00  0.00    +0.000 C 
ATOM     61  C46 UNL     1       6.415  -2.599   2.556  0.00  0.00    +0.000 C 
ATOM     62  O15 UNL     1       7.132  -2.852   3.562  0.00  0.00    +0.000 OA
BRANCH  56  63
ATOM     63  C5  UNL     1       7.242  -0.513   1.427  0.00  0.00    +0.000 C 
BRANCH  63  67
ATOM     64  C1  UNL     1      10.716  -0.730   3.173  0.00  0.00    +0.000 C 
ATOM     65  C2  UNL     1       9.604  -1.029   2.204  0.00  0.00    +0.000 C 
ATOM     66  C3  UNL     1       9.798  -2.106   1.162  0.00  0.00    +0.000 C 
ATOM     67  C4  UNL     1       8.457  -0.321   2.305  0.00  0.00    +0.000 C 
ENDBRANCH  63  67
ENDBRANCH  56  63
ENDBRANCH  55  58
ENDBRANCH  37  55
ENDBRANCH  36  41
ENDBRANCH   1  36
TORSDOF 21
