REMARK  Name = resultss/4CJN/ligands/lig_375_t1.pdb
REMARK  9 active torsions:
REMARK  status: ('A' for Active; 'I' for Inactive)
REMARK    1  A    between atoms: C1_1  and  O1_2
REMARK    2  A    between atoms: O1_2  and  C2_3
REMARK    3  A    between atoms: C5_6  and  C6_7
REMARK    4  A    between atoms: C6_7  and  C7_8
REMARK    5  A    between atoms: C6_7  and  C16_21
REMARK    6  A    between atoms: C15_19  and  O4_20
REMARK    7  A    between atoms: C17_22  and  O5_23
REMARK    8  A    between atoms: C26_35  and  O8_36
REMARK    9  A    between atoms: O8_36  and  C27_37
REMARK                            x       y       z     vdW  Elec       q    Type
REMARK                         _______ _______ _______ _____ _____    ______ ____
ROOT
ATOM      1  C6  UNL     1       0.170  -0.142   0.773  0.00  0.00    +0.000 C 
ENDROOT
BRANCH   1   2
ATOM      2  C7  UNL     1      -0.824  -1.314   0.721  0.00  0.00    +0.000 A 
ATOM      3  C8  UNL     1      -1.754  -1.488  -0.338  0.00  0.00    +0.000 A 
ATOM      4  O2  UNL     1      -1.764  -0.703  -1.324  0.00  0.00    +0.000 OA
ATOM      5  C9  UNL     1      -2.665  -2.556  -0.301  0.00  0.00    +0.000 A 
ATOM      6  C10 UNL     1      -3.626  -2.758  -1.312  0.00  0.00    +0.000 A 
ATOM      7  C11 UNL     1      -4.516  -3.835  -1.231  0.00  0.00    +0.000 A 
ATOM      8 CL1  UNL     1      -5.712  -4.080  -2.491  0.00  0.00    +0.000 Cl
ATOM      9  C12 UNL     1      -4.454  -4.715  -0.146  0.00  0.00    +0.000 A 
ATOM     10  C13 UNL     1      -3.503  -4.524   0.858  0.00  0.00    +0.000 A 
ATOM     11  C14 UNL     1      -2.608  -3.451   0.785  0.00  0.00    +0.000 A 
ATOM     12  O3  UNL     1      -1.702  -3.289   1.738  0.00  0.00    +0.000 OA
ATOM     13  C15 UNL     1      -0.820  -2.297   1.750  0.00  0.00    +0.000 A 
BRANCH  13  14
ATOM     14  O4  UNL     1       0.101  -2.277   2.801  0.00  0.00    +0.000 OA
ATOM     15  H10 UNL     1       0.871  -1.627   2.871  0.00  0.00    +0.000 HD
ENDBRANCH  13  14
ENDBRANCH   1   2
BRANCH   1  16
ATOM     16  C16 UNL     1       1.608  -0.553   0.428  0.00  0.00    +0.000 A 
ATOM     17  C17 UNL     1       2.689   0.032   1.127  0.00  0.00    +0.000 A 
ATOM     18  C18 UNL     1       4.014  -0.351   0.808  0.00  0.00    +0.000 A 
ATOM     19  C19 UNL     1       5.150   0.145   1.485  0.00  0.00    +0.000 A 
ATOM     20  C20 UNL     1       6.433  -0.274   1.117  0.00  0.00    +0.000 A 
ATOM     21 CL2  UNL     1       7.837   0.348   1.967  0.00  0.00    +0.000 Cl
ATOM     22  C21 UNL     1       6.602  -1.189   0.075  0.00  0.00    +0.000 A 
ATOM     23  C22 UNL     1       5.490  -1.690  -0.600  0.00  0.00    +0.000 A 
ATOM     24  C23 UNL     1       4.202  -1.280  -0.241  0.00  0.00    +0.000 A 
ATOM     25  O6  UNL     1       3.164  -1.771  -0.902  0.00  0.00    +0.000 OA
ATOM     26  C24 UNL     1       1.908  -1.448  -0.625  0.00  0.00    +0.000 A 
ATOM     27  O7  UNL     1       0.994  -1.946  -1.332  0.00  0.00    +0.000 OA
BRANCH  17  28
ATOM     28  O5  UNL     1       2.406   0.986   2.113  0.00  0.00    +0.000 OA
ATOM     29  H11 UNL     1       3.100   1.500   2.635  0.00  0.00    +0.000 HD
ENDBRANCH  17  28
ENDBRANCH   1  16
BRANCH   1  33
ATOM     30  C2  UNL     1      -1.237   3.432  -1.272  0.00  0.00    +0.000 A 
ATOM     31  C3  UNL     1      -0.197   2.669  -1.832  0.00  0.00    +0.000 A 
ATOM     32  C4  UNL     1       0.269   1.524  -1.185  0.00  0.00    +0.000 A 
ATOM     33  C5  UNL     1      -0.287   1.118   0.043  0.00  0.00    +0.000 A 
ATOM     34  C25 UNL     1      -1.334   1.879   0.593  0.00  0.00    +0.000 A 
ATOM     35  C26 UNL     1      -1.810   3.034  -0.056  0.00  0.00    +0.000 A 
BRANCH  30  37
ATOM     36  C1  UNL     1      -1.248   5.109  -3.130  0.00  0.00    +0.000 C 
ATOM     37  O1  UNL     1      -1.731   4.589  -1.896  0.00  0.00    +0.000 OA
ENDBRANCH  30  37
BRANCH  35  38
ATOM     38  O8  UNL     1      -2.853   3.810   0.474  0.00  0.00    +0.000 OA
ATOM     39  C27 UNL     1      -3.534   3.525   1.692  0.00  0.00    +0.000 C 
ENDBRANCH  35  38
ENDBRANCH   1  33
TORSDOF 7
