REMARK  Name = resultss/4CJN/ligands/lig_215_t2.pdb
REMARK  12 active torsions:
REMARK  status: ('A' for Active; 'I' for Inactive)
REMARK    1  A    between atoms: C1_1  and  C2_2
REMARK    2  A    between atoms: C3_3  and  C4_4
REMARK    3  A    between atoms: C4_4  and  C5_5
REMARK    4  A    between atoms: C7_7  and  C8_8
REMARK    5  A    between atoms: C10_11  and  C11_12
REMARK    6  A    between atoms: C11_12  and  C12_13
REMARK    7  A    between atoms: C11_12  and  C13_14
REMARK    8  A    between atoms: C11_12  and  C14_15
REMARK    9  A    between atoms: C14_15  and  C15_16
REMARK   10  A    between atoms: C16_17  and  O2_18
REMARK   11  A    between atoms: C18_20  and  O3_21
REMARK   12  A    between atoms: C21_25  and  O5_26
REMARK                            x       y       z     vdW  Elec       q    Type
REMARK                         _______ _______ _______ _____ _____    ______ ____
ROOT
ATOM      1  C8  UNL     1       0.020  -0.403  -1.207  0.00  0.00    +0.000 A 
ATOM      2  O1  UNL     1      -1.004  -0.320  -0.369  0.00  0.00    +0.000 OA
ATOM      3  C9  UNL     1      -2.090  -1.082  -0.417  0.00  0.00    +0.000 A 
ATOM      4  C10 UNL     1      -3.142  -0.853   0.524  0.00  0.00    +0.000 A 
ATOM      5  C16 UNL     1      -4.300  -1.680   0.415  0.00  0.00    +0.000 A 
ATOM      6  C17 UNL     1      -4.359  -2.699  -0.538  0.00  0.00    +0.000 A 
ATOM      7  C18 UNL     1      -3.312  -2.947  -1.415  0.00  0.00    +0.000 A 
ATOM      8  C19 UNL     1      -2.182  -2.095  -1.410  0.00  0.00    +0.000 A 
ATOM      9  C20 UNL     1      -1.144  -2.166  -2.370  0.00  0.00    +0.000 A 
ATOM     10  O4  UNL     1      -1.213  -2.945  -3.357  0.00  0.00    +0.000 OA
ATOM     11  C21 UNL     1      -0.029  -1.333  -2.265  0.00  0.00    +0.000 A 
ENDROOT
BRANCH   1  14
ATOM     12  C5  UNL     1       3.665   0.474  -1.052  0.00  0.00    +0.000 C 
ATOM     13  C6  UNL     1       2.496  -0.164  -0.862  0.00  0.00    +0.000 C 
ATOM     14  C7  UNL     1       1.168   0.554  -0.973  0.00  0.00    +0.000 C 
ATOM     15  C22 UNL     1       1.173   1.690  -2.018  0.00  0.00    +0.000 C 
ATOM     16  C23 UNL     1       2.408   2.530  -1.883  0.00  0.00    +0.000 C 
ATOM     17  O6  UNL     1       2.377   3.753  -2.185  0.00  0.00    +0.000 OA
ATOM     18  C24 UNL     1       3.668   1.897  -1.461  0.00  0.00    +0.000 C 
ATOM     19  O7  UNL     1       4.736   2.566  -1.452  0.00  0.00    +0.000 OA
BRANCH  12  20
ATOM     20  C4  UNL     1       4.963  -0.243  -0.787  0.00  0.00    +0.000 C 
BRANCH  20  23
ATOM     21  C1  UNL     1       6.619   0.923   2.510  0.00  0.00    +0.000 C 
ATOM     22  C2  UNL     1       6.297   0.754   1.059  0.00  0.00    +0.000 C 
ATOM     23  C3  UNL     1       5.339  -0.099   0.660  0.00  0.00    +0.000 C 
ENDBRANCH  20  23
ENDBRANCH  12  20
ENDBRANCH   1  14
BRANCH   4  24
ATOM     24  C11 UNL     1      -2.976   0.274   1.605  0.00  0.00    +0.000 C 
ATOM     25  C12 UNL     1      -4.193   0.459   2.551  0.00  0.00    +0.000 C 
ATOM     26  C13 UNL     1      -1.789  -0.097   2.531  0.00  0.00    +0.000 C 
BRANCH  24  27
ATOM     27  C14 UNL     1      -2.688   1.669   0.951  0.00  0.00    +0.000 C 
ATOM     28  C15 UNL     1      -3.640   2.037  -0.194  0.00  0.00    +0.000 C 
ENDBRANCH  24  27
ENDBRANCH   4  24
BRANCH   5  29
ATOM     29  O2  UNL     1      -5.411  -1.523   1.242  0.00  0.00    +0.000 OA
ATOM     30  H21 UNL     1      -6.232  -2.113   1.166  0.00  0.00    +0.000 HD
ENDBRANCH   5  29
BRANCH   7  31
ATOM     31  O3  UNL     1      -3.438  -4.069  -2.240  0.00  0.00    +0.000 OA
ATOM     32  H23 UNL     1      -2.660  -4.561  -2.654  0.00  0.00    +0.000 HD
ENDBRANCH   7  31
BRANCH  11  33
ATOM     33  O5  UNL     1       0.985  -1.451  -3.221  0.00  0.00    +0.000 OA
ATOM     34  H24 UNL     1       1.820  -0.883  -3.236  0.00  0.00    +0.000 HD
ENDBRANCH  11  33
TORSDOF 8
