REMARK  Name = resultss/4CJN/ligands/lig_248_t0.pdb
REMARK  6 active torsions:
REMARK  status: ('A' for Active; 'I' for Inactive)
REMARK    1  A    between atoms: C1_1  and  C2_2
REMARK    2  A    between atoms: C5_5  and  N1_6
REMARK    3  A    between atoms: C6_7  and  C7_9
REMARK    4  A    between atoms: C7_9  and  N2_10
REMARK    5  A    between atoms: C9_13  and  C10_14
REMARK    6  A    between atoms: C17_22  and  N4_23
REMARK                            x       y       z     vdW  Elec       q    Type
REMARK                         _______ _______ _______ _____ _____    ______ ____
ROOT
ATOM      1  N1  UNL     1       1.112   1.054  -1.058  0.00  0.00    +0.000 N 
ATOM      2  C6  UNL     1       0.162   0.054  -1.453  0.00  0.00    +0.000 C 
ATOM      3  O1  UNL     1       0.460  -1.170  -1.386  0.00  0.00    +0.000 OA
ATOM      4  H6  UNL     1       0.936   2.044  -1.345  0.00  0.00    +0.000 HD
ENDROOT
BRANCH   1   9
ATOM      5  C1  UNL     1       6.405  -0.337   0.703  0.00  0.00    +0.000 C 
ATOM      6  C2  UNL     1       5.018   0.013   0.251  0.00  0.00    +0.000 A 
ATOM      7  C3  UNL     1       4.828   0.897  -0.817  0.00  0.00    +0.000 A 
ATOM      8  C4  UNL     1       3.538   1.246  -1.219  0.00  0.00    +0.000 A 
ATOM      9  C5  UNL     1       2.417   0.724  -0.559  0.00  0.00    +0.000 A 
ATOM     10  C17 UNL     1       2.600  -0.120   0.566  0.00  0.00    +0.000 A 
ATOM     11  C18 UNL     1       3.905  -0.477   0.948  0.00  0.00    +0.000 A 
BRANCH  10  12
ATOM     12  N4  UNL     1       1.488  -0.576   1.356  0.00  0.00    +0.000 N 
ATOM     13  O3  UNL     1       0.486   0.150   1.519  0.00  0.00    +0.000 OA
ATOM     14  O4  UNL     1       1.587  -1.740   2.082  0.00  0.00    +0.000 OA
ENDBRANCH  10  12
ENDBRANCH   1   9
BRANCH   2  15
ATOM     15  C7  UNL     1      -1.189   0.450  -1.975  0.00  0.00    +0.000 C 
BRANCH  15  16
ATOM     16  N2  UNL     1      -2.257  -0.057  -1.084  0.00  0.00    +0.000 N 
ATOM     17  C8  UNL     1      -2.864  -1.256  -1.389  0.00  0.00    +0.000 A 
ATOM     18  O2  UNL     1      -2.510  -1.916  -2.406  0.00  0.00    +0.000 OA
ATOM     19  C9  UNL     1      -3.885  -1.763  -0.570  0.00  0.00    +0.000 A 
ATOM     20  C10 UNL     1      -4.567  -3.060  -0.889  0.00  0.00    +0.000 C 
ATOM     21  N3  UNL     1      -4.255  -1.076   0.536  0.00  0.00    +0.000 NA
ATOM     22  C11 UNL     1      -3.661   0.091   0.877  0.00  0.00    +0.000 A 
ATOM     23  C12 UNL     1      -4.070   0.754   2.040  0.00  0.00    +0.000 A 
ATOM     24  C13 UNL     1      -3.456   1.947   2.419  0.00  0.00    +0.000 A 
ATOM     25  C14 UNL     1      -2.430   2.481   1.641  0.00  0.00    +0.000 A 
ATOM     26  C15 UNL     1      -2.015   1.831   0.475  0.00  0.00    +0.000 A 
ATOM     27  C16 UNL     1      -2.629   0.622   0.063  0.00  0.00    +0.000 A 
ENDBRANCH  15  16
ENDBRANCH   2  15
TORSDOF 4
