REMARK  Name = resultss/4CJN/ligands/lig_423_t2.pdb
REMARK  7 active torsions:
REMARK  status: ('A' for Active; 'I' for Inactive)
REMARK    1  A    between atoms: C1_2  and  C10_19
REMARK    2  A    between atoms: N1_3  and  N2_4
REMARK    3  A    between atoms: C2_5  and  S1_6
REMARK    4  A    between atoms: N3_7  and  C3_8
REMARK    5  A    between atoms: C6_11  and  O2_12
REMARK    6  A    between atoms: O2_12  and  C7_13
REMARK    7  A    between atoms: C20_30  and  C21_31
REMARK                            x       y       z     vdW  Elec       q    Type
REMARK                         _______ _______ _______ _____ _____    ______ ____
ROOT
ATOM      1  O1  UNL     1       1.224  -2.337   0.411  0.00  0.00    +0.000 OA
ATOM      2  C1  UNL     1       0.459  -1.686   1.174  0.00  0.00    +0.000 C 
ATOM      3  N1  UNL     1       0.859  -1.421   2.528  0.00  0.00    +0.000 N 
ATOM      4  H1  UNL     1       0.121  -1.235   3.243  0.00  0.00    +0.000 HD
ENDROOT
BRANCH   2   5
ATOM      5  C10 UNL     1      -0.852  -1.217   0.677  0.00  0.00    +0.000 A 
ATOM      6  C11 UNL     1      -1.247  -1.452  -0.658  0.00  0.00    +0.000 A 
ATOM      7  C12 UNL     1      -2.483  -0.954  -1.054  0.00  0.00    +0.000 A 
ATOM      8  C13 UNL     1      -3.305  -0.263  -0.190  0.00  0.00    +0.000 A 
ATOM      9  N4  UNL     1      -4.421   0.179  -0.819  0.00  0.00    +0.000 N 
ATOM     10  C14 UNL     1      -4.299  -0.263  -2.090  0.00  0.00    +0.000 A 
ATOM     11  C15 UNL     1      -5.193  -0.060  -3.141  0.00  0.00    +0.000 A 
ATOM     12  C16 UNL     1      -4.865  -0.599  -4.399  0.00  0.00    +0.000 A 
ATOM     13  C17 UNL     1      -3.662  -1.319  -4.581  0.00  0.00    +0.000 A 
ATOM     14  C18 UNL     1      -2.771  -1.505  -3.507  0.00  0.00    +0.000 A 
ATOM     15  C19 UNL     1      -3.125  -0.964  -2.272  0.00  0.00    +0.000 A 
ATOM     16  C20 UNL     1      -2.913  -0.057   1.140  0.00  0.00    +0.000 A 
ATOM     17  N5  UNL     1      -1.689  -0.533   1.522  0.00  0.00    +0.000 NA
ATOM     18  H9  UNL     1      -5.194   0.764  -0.433  0.00  0.00    +0.000 HD
BRANCH  16  19
ATOM     19  C21 UNL     1      -3.765   0.634   2.132  0.00  0.00    +0.000 A 
ATOM     20  C22 UNL     1      -5.132   0.324   2.251  0.00  0.00    +0.000 A 
ATOM     21  C23 UNL     1      -5.921   0.967   3.210  0.00  0.00    +0.000 A 
ATOM     22  C24 UNL     1      -5.350   1.910   4.068  0.00  0.00    +0.000 A 
ATOM     23  C25 UNL     1      -3.987   2.206   3.974  0.00  0.00    +0.000 A 
ATOM     24  C26 UNL     1      -3.195   1.567   3.015  0.00  0.00    +0.000 A 
ENDBRANCH  16  19
ENDBRANCH   2   5
BRANCH   3  25
ATOM     25  N2  UNL     1       2.180  -1.615   2.975  0.00  0.00    +0.000 N 
ATOM     26  C2  UNL     1       3.323  -1.137   2.252  0.00  0.00    +0.000 C 
ATOM     27  N3  UNL     1       3.155  -0.388   1.199  0.00  0.00    +0.000 NA
ATOM     28  H2  UNL     1       2.326  -1.966   3.949  0.00  0.00    +0.000 HD
BRANCH  27  29
ATOM     29  C3  UNL     1       4.175   0.146   0.340  0.00  0.00    +0.000 A 
ATOM     30  C4  UNL     1       4.047   1.460  -0.123  0.00  0.00    +0.000 A 
ATOM     31  C5  UNL     1       4.986   1.992  -1.013  0.00  0.00    +0.000 A 
ATOM     32  C6  UNL     1       6.055   1.211  -1.471  0.00  0.00    +0.000 A 
ATOM     33  C8  UNL     1       6.168  -0.123  -1.029  0.00  0.00    +0.000 A 
ATOM     34  C9  UNL     1       5.226  -0.654  -0.142  0.00  0.00    +0.000 A 
BRANCH  32  35
ATOM     35  O2  UNL     1       6.967   1.797  -2.364  0.00  0.00    +0.000 OA
BRANCH  35  36
ATOM     36  C7  UNL     1       8.113   1.150  -2.914  0.00  0.00    +0.000 C 
ATOM     37  F1  UNL     1       8.982   0.780  -1.902  0.00  0.00    +0.000 F 
ATOM     38  F2  UNL     1       7.732   0.034  -3.641  0.00  0.00    +0.000 F 
ATOM     39  F3  UNL     1       8.764   2.031  -3.758  0.00  0.00    +0.000 F 
ENDBRANCH  35  36
ENDBRANCH  32  35
ENDBRANCH  27  29
BRANCH  26  40
ATOM     40  S1  UNL     1       4.955  -1.462   2.937  0.00  0.00    +0.000 S 
ATOM     41  H3  UNL     1       4.915  -0.294   3.720  0.00  0.00    +0.000 HD
ENDBRANCH  26  40
ENDBRANCH   3  25
TORSDOF 7
