REMARK  Name = resultss/4CJN/ligands/lig_428_t1.pdb
REMARK  8 active torsions:
REMARK  status: ('A' for Active; 'I' for Inactive)
REMARK    1  A    between atoms: C1_1  and  C2_2
REMARK    2  A    between atoms: C2_2  and  O1_3
REMARK    3  A    between atoms: O1_3  and  C3_4
REMARK    4  A    between atoms: C6_7  and  N1_8
REMARK    5  A    between atoms: C7_9  and  S1_10
REMARK    6  A    between atoms: N2_11  and  N3_12
REMARK    7  A    between atoms: C8_13  and  C9_15
REMARK    8  A    between atoms: C19_26  and  C20_27
REMARK                            x       y       z     vdW  Elec       q    Type
REMARK                         _______ _______ _______ _____ _____    ______ ____
ROOT
ATOM      1  C9  UNL     1      -1.992   2.077   0.623  0.00  0.00    +0.000 A 
ATOM      2  C10 UNL     1      -3.202   2.797   0.517  0.00  0.00    +0.000 A 
ATOM      3  C11 UNL     1      -4.331   2.087   0.123  0.00  0.00    +0.000 A 
ATOM      4  C12 UNL     1      -4.291   0.736  -0.147  0.00  0.00    +0.000 A 
ATOM      5  N4  UNL     1      -5.499   0.283  -0.563  0.00  0.00    +0.000 N 
ATOM      6  C13 UNL     1      -6.305   1.366  -0.530  0.00  0.00    +0.000 A 
ATOM      7  C14 UNL     1      -7.654   1.421  -0.874  0.00  0.00    +0.000 A 
ATOM      8  C15 UNL     1      -8.307   2.664  -0.779  0.00  0.00    +0.000 A 
ATOM      9  C16 UNL     1      -7.605   3.815  -0.354  0.00  0.00    +0.000 A 
ATOM     10  C17 UNL     1      -6.242   3.737  -0.018  0.00  0.00    +0.000 A 
ATOM     11  C18 UNL     1      -5.625   2.492  -0.114  0.00  0.00    +0.000 A 
ATOM     12  C19 UNL     1      -3.089   0.028  -0.017  0.00  0.00    +0.000 A 
ATOM     13  N5  UNL     1      -1.977   0.732   0.354  0.00  0.00    +0.000 NA
ATOM     14  H12 UNL     1      -5.758  -0.679  -0.876  0.00  0.00    +0.000 HD
ENDROOT
BRANCH  12  15
ATOM     15  C20 UNL     1      -2.976  -1.428  -0.250  0.00  0.00    +0.000 A 
ATOM     16  C21 UNL     1      -3.918  -2.324   0.283  0.00  0.00    +0.000 A 
ATOM     17  C22 UNL     1      -3.769  -3.702   0.091  0.00  0.00    +0.000 A 
ATOM     18  C23 UNL     1      -2.671  -4.197  -0.620  0.00  0.00    +0.000 A 
ATOM     19  C24 UNL     1      -1.717  -3.316  -1.132  0.00  0.00    +0.000 A 
ATOM     20  C25 UNL     1      -1.864  -1.938  -0.945  0.00  0.00    +0.000 A 
ENDBRANCH  12  15
BRANCH   1  22
ATOM     21  N3  UNL     1       0.510   2.054   0.982  0.00  0.00    +0.000 N 
ATOM     22  C8  UNL     1      -0.743   2.750   1.037  0.00  0.00    +0.000 C 
ATOM     23  O2  UNL     1      -0.776   3.947   1.434  0.00  0.00    +0.000 OA
ATOM     24  H10 UNL     1       0.552   1.119   0.517  0.00  0.00    +0.000 HD
BRANCH  21  27
ATOM     25  N1  UNL     1       3.106   1.050   0.485  0.00  0.00    +0.000 NA
ATOM     26  C7  UNL     1       2.955   1.983   1.382  0.00  0.00    +0.000 C 
ATOM     27  N2  UNL     1       1.674   2.595   1.560  0.00  0.00    +0.000 N 
ATOM     28  H9  UNL     1       1.610   3.450   2.157  0.00  0.00    +0.000 HD
BRANCH  25  32
ATOM     29  C3  UNL     1       6.579  -1.218  -0.440  0.00  0.00    +0.000 A 
ATOM     30  C4  UNL     1       5.830  -0.603  -1.449  0.00  0.00    +0.000 A 
ATOM     31  C5  UNL     1       4.693   0.147  -1.135  0.00  0.00    +0.000 A 
ATOM     32  C6  UNL     1       4.307   0.322   0.198  0.00  0.00    +0.000 A 
ATOM     33  C26 UNL     1       5.044  -0.307   1.215  0.00  0.00    +0.000 A 
ATOM     34  C27 UNL     1       6.178  -1.062   0.901  0.00  0.00    +0.000 A 
BRANCH  29  35
ATOM     35  O1  UNL     1       7.703  -1.971  -0.817  0.00  0.00    +0.000 OA
BRANCH  35  37
ATOM     36  C1  UNL     1       7.777  -4.057   0.429  0.00  0.00    +0.000 C 
ATOM     37  C2  UNL     1       8.501  -2.768   0.057  0.00  0.00    +0.000 C 
ENDBRANCH  35  37
ENDBRANCH  29  35
ENDBRANCH  25  32
BRANCH  26  38
ATOM     38  S1  UNL     1       4.348   2.632   2.320  0.00  0.00    +0.000 S 
ATOM     39  H8  UNL     1       4.612   3.616   1.346  0.00  0.00    +0.000 HD
ENDBRANCH  26  38
ENDBRANCH  21  27
ENDBRANCH   1  22
TORSDOF 7
