REMARK  Name = resultss/4CJN/ligands/lig_397_t0.pdb
REMARK  5 active torsions:
REMARK  status: ('A' for Active; 'I' for Inactive)
REMARK    1  A    between atoms: C1_1  and  O1_2
REMARK    2  A    between atoms: O1_2  and  C2_3
REMARK    3  A    between atoms: C5_6  and  C6_7
REMARK    4  A    between atoms: C9_11  and  C10_12
REMARK    5  A    between atoms: C10_12  and  C11_13
REMARK                            x       y       z     vdW  Elec       q    Type
REMARK                         _______ _______ _______ _____ _____    ______ ____
ROOT
ATOM      1  C6  UNL     1       0.145  -0.322  -0.112  0.00  0.00    +0.000 A 
ATOM      2  N1  UNL     1      -0.729   0.613   0.333  0.00  0.00    +0.000 N 
ATOM      3  C7  UNL     1      -1.946   0.225  -0.094  0.00  0.00    +0.000 A 
ATOM      4  C8  UNL     1      -1.862  -0.937  -0.813  0.00  0.00    +0.000 A 
ATOM      5  C9  UNL     1      -0.526  -1.306  -0.850  0.00  0.00    +0.000 A 
ATOM      6  C12 UNL     1      -3.015  -1.514  -1.353  0.00  0.00    +0.000 A 
ATOM      7  O2  UNL     1      -2.962  -2.583  -2.015  0.00  0.00    +0.000 OA
ATOM      8  O3  UNL     1      -4.190  -0.912  -1.154  0.00  0.00    +0.000 OA
ATOM      9  C13 UNL     1      -4.316   0.225  -0.456  0.00  0.00    +0.000 A 
ATOM     10  C14 UNL     1      -5.580   0.800  -0.287  0.00  0.00    +0.000 A 
ATOM     11  C15 UNL     1      -5.719   1.987   0.440  0.00  0.00    +0.000 A 
ATOM     12  C16 UNL     1      -4.598   2.607   1.001  0.00  0.00    +0.000 A 
ATOM     13  C17 UNL     1      -3.326   2.045   0.842  0.00  0.00    +0.000 A 
ATOM     14  C18 UNL     1      -3.177   0.854   0.114  0.00  0.00    +0.000 A 
ATOM     15  H6  UNL     1      -0.497   1.453   0.908  0.00  0.00    +0.000 HD
ENDROOT
BRANCH   1  19
ATOM     16  C2  UNL     1       4.355  -0.082   0.717  0.00  0.00    +0.000 A 
ATOM     17  C3  UNL     1       3.680  -1.301   0.844  0.00  0.00    +0.000 A 
ATOM     18  C4  UNL     1       2.311  -1.387   0.573  0.00  0.00    +0.000 A 
ATOM     19  C5  UNL     1       1.597  -0.251   0.159  0.00  0.00    +0.000 A 
ATOM     20  C19 UNL     1       2.268   0.976   0.049  0.00  0.00    +0.000 A 
ATOM     21  C20 UNL     1       3.638   1.062   0.319  0.00  0.00    +0.000 A 
BRANCH  16  23
ATOM     22  C1  UNL     1       6.539   1.119   0.913  0.00  0.00    +0.000 C 
ATOM     23  O1  UNL     1       5.729  -0.049   0.999  0.00  0.00    +0.000 OA
ENDBRANCH  16  23
ENDBRANCH   1  19
BRANCH   5  24
ATOM     24  C10 UNL     1       0.066  -2.478  -1.579  0.00  0.00    +0.000 C 
BRANCH  24  25
ATOM     25  C11 UNL     1      -0.143  -3.708  -0.810  0.00  0.00    +0.000 C 
ATOM     26  N2  UNL     1      -0.308  -4.679  -0.202  0.00  0.00    +0.000 NA
ENDBRANCH  24  25
ENDBRANCH   5  24
TORSDOF 4
