REMARK  Name = resultss/4CJN/ligands/lig_433_t2.pdb
REMARK  5 active torsions:
REMARK  status: ('A' for Active; 'I' for Inactive)
REMARK    1  A    between atoms: C1_2  and  C9_16
REMARK    2  A    between atoms: N1_3  and  N2_4
REMARK    3  A    between atoms: C2_5  and  S1_6
REMARK    4  A    between atoms: N3_7  and  C3_8
REMARK    5  A    between atoms: C19_27  and  C20_28
REMARK                            x       y       z     vdW  Elec       q    Type
REMARK                         _______ _______ _______ _____ _____    ______ ____
ROOT
ATOM      1  C9  UNL     1      -0.288  -1.003   0.214  0.00  0.00    +0.000 A 
ATOM      2  C10 UNL     1      -0.683  -0.536   1.486  0.00  0.00    +0.000 A 
ATOM      3  C11 UNL     1      -1.880   0.166   1.561  0.00  0.00    +0.000 A 
ATOM      4  C12 UNL     1      -2.656   0.411   0.450  0.00  0.00    +0.000 A 
ATOM      5  N4  UNL     1      -3.802   1.054   0.782  0.00  0.00    +0.000 N 
ATOM      6  C13 UNL     1      -3.726   1.226   2.120  0.00  0.00    +0.000 A 
ATOM      7  C14 UNL     1      -4.673   1.829   2.946  0.00  0.00    +0.000 A 
ATOM      8  C15 UNL     1      -4.403   1.887   4.326  0.00  0.00    +0.000 A 
ATOM      9  C16 UNL     1      -3.207   1.342   4.847  0.00  0.00    +0.000 A 
ATOM     10  C17 UNL     1      -2.268   0.734   3.995  0.00  0.00    +0.000 A 
ATOM     11  C18 UNL     1      -2.560   0.696   2.633  0.00  0.00    +0.000 A 
ATOM     12  C19 UNL     1      -2.245  -0.043  -0.810  0.00  0.00    +0.000 A 
ATOM     13  N5  UNL     1      -1.074  -0.744  -0.880  0.00  0.00    +0.000 NA
ATOM     14  H8  UNL     1      -4.594   1.328   0.160  0.00  0.00    +0.000 HD
ENDROOT
BRANCH  12  15
ATOM     15  C20 UNL     1      -3.019   0.201  -2.044  0.00  0.00    +0.000 A 
ATOM     16  C21 UNL     1      -3.217  -0.844  -2.962  0.00  0.00    +0.000 A 
ATOM     17  C22 UNL     1      -3.926  -0.619  -4.146  0.00  0.00    +0.000 A 
ATOM     18  C23 UNL     1      -4.430   0.653  -4.429  0.00  0.00    +0.000 A 
ATOM     19  C24 UNL     1      -4.219   1.704  -3.533  0.00  0.00    +0.000 A 
ATOM     20  C25 UNL     1      -3.512   1.483  -2.348  0.00  0.00    +0.000 A 
ENDBRANCH  12  15
BRANCH   1  22
ATOM     21  O1  UNL     1       1.705  -1.991   1.043  0.00  0.00    +0.000 OA
ATOM     22  C1  UNL     1       0.970  -1.761   0.044  0.00  0.00    +0.000 C 
ATOM     23  N1  UNL     1       1.347  -2.260  -1.249  0.00  0.00    +0.000 N 
ATOM     24  H1  UNL     1       0.607  -2.391  -1.974  0.00  0.00    +0.000 HD
BRANCH  23  25
ATOM     25  N2  UNL     1       2.628  -2.780  -1.511  0.00  0.00    +0.000 N 
ATOM     26  C2  UNL     1       3.831  -2.129  -1.083  0.00  0.00    +0.000 C 
ATOM     27  N3  UNL     1       3.779  -0.908  -0.631  0.00  0.00    +0.000 NA
ATOM     28  H2  UNL     1       2.711  -3.589  -2.167  0.00  0.00    +0.000 HD
BRANCH  27  29
ATOM     29  C3  UNL     1       4.876  -0.128  -0.135  0.00  0.00    +0.000 A 
ATOM     30  C4  UNL     1       5.771  -0.644   0.818  0.00  0.00    +0.000 A 
ATOM     31  C5  UNL     1       6.800   0.157   1.324  0.00  0.00    +0.000 A 
ATOM     32  C6  UNL     1       6.928   1.483   0.899  0.00  0.00    +0.000 A 
ATOM     33  F1  UNL     1       7.924   2.258   1.394  0.00  0.00    +0.000 F 
ATOM     34  C7  UNL     1       6.019   2.013  -0.022  0.00  0.00    +0.000 A 
ATOM     35  F2  UNL     1       6.129   3.304  -0.421  0.00  0.00    +0.000 F 
ATOM     36  C8  UNL     1       4.989   1.212  -0.529  0.00  0.00    +0.000 A 
ENDBRANCH  27  29
BRANCH  26  37
ATOM     37  S1  UNL     1       5.397  -2.976  -1.349  0.00  0.00    +0.000 S 
ATOM     38  H3  UNL     1       5.526  -2.438  -2.643  0.00  0.00    +0.000 HD
ENDBRANCH  26  37
ENDBRANCH  23  25
ENDBRANCH   1  22
TORSDOF 5
