REMARK  Name = resultss/4CJN/ligands/lig_389_t2.pdb
REMARK  5 active torsions:
REMARK  status: ('A' for Active; 'I' for Inactive)
REMARK    1  A    between atoms: C1_1  and  N1_2
REMARK    2  A    between atoms: C3_5  and  C4_6
REMARK    3  A    between atoms: N3_18  and  C13_19
REMARK    4  A    between atoms: C16_22  and  S2_23
REMARK    5  A    between atoms: S2_23  and  N4_24
REMARK                            x       y       z     vdW  Elec       q    Type
REMARK                         _______ _______ _______ _____ _____    ______ ____
ROOT
ATOM      1  C1  UNL     1       0.911  -0.043  -2.688  0.00  0.00    +0.000 C 
ATOM      2  N1  UNL     1      -0.060   0.492  -1.732  0.00  0.00    +0.000 N 
ATOM      3  C2  UNL     1      -1.442   0.179  -1.833  0.00  0.00    +0.000 C 
ATOM      4  O1  UNL     1      -1.847  -0.881  -2.383  0.00  0.00    +0.000 OA
ATOM      5  C3  UNL     1      -2.387   1.189  -1.267  0.00  0.00    +0.000 C 
ATOM      6  S1  UNL     1      -1.409   2.710  -0.956  0.00  0.00    +0.000 S 
ATOM      7  C12 UNL     1       0.089   1.744  -1.066  0.00  0.00    +0.000 C 
ATOM      8  N3  UNL     1       1.123   2.060  -0.339  0.00  0.00    +0.000 NA
ENDROOT
BRANCH   5   9
ATOM      9  C4  UNL     1      -3.013   0.673   0.004  0.00  0.00    +0.000 C 
ATOM     10  C5  UNL     1      -2.393   0.484   1.312  0.00  0.00    +0.000 C 
ATOM     11  O2  UNL     1      -1.215   0.795   1.629  0.00  0.00    +0.000 OA
ATOM     12  N2  UNL     1      -3.313  -0.134   2.205  0.00  0.00    +0.000 NA
ATOM     13  C6  UNL     1      -4.366  -0.305   1.472  0.00  0.00    +0.000 A 
ATOM     14  C7  UNL     1      -5.549  -0.903   1.905  0.00  0.00    +0.000 A 
ATOM     15  C8  UNL     1      -6.601  -1.048   0.986  0.00  0.00    +0.000 A 
ATOM     16  C9  UNL     1      -6.456  -0.600  -0.342  0.00  0.00    +0.000 A 
ATOM     17  C10 UNL     1      -5.259   0.001  -0.766  0.00  0.00    +0.000 A 
ATOM     18  C11 UNL     1      -4.224   0.147   0.165  0.00  0.00    +0.000 A 
ENDBRANCH   5   9
BRANCH   8  19
ATOM     19  C13 UNL     1       2.265   1.239  -0.056  0.00  0.00    +0.000 A 
ATOM     20  C14 UNL     1       3.536   1.825  -0.041  0.00  0.00    +0.000 A 
ATOM     21  C15 UNL     1       4.664   1.059   0.271  0.00  0.00    +0.000 A 
ATOM     22  C16 UNL     1       4.528  -0.299   0.588  0.00  0.00    +0.000 A 
ATOM     23  C17 UNL     1       3.252  -0.878   0.616  0.00  0.00    +0.000 A 
ATOM     24  C18 UNL     1       2.125  -0.113   0.305  0.00  0.00    +0.000 A 
BRANCH  22  25
ATOM     25  S2  UNL     1       5.948  -1.256   0.995  0.00  0.00    +0.000 S 
ATOM     26  O3  UNL     1       5.690  -2.706   0.695  0.00  0.00    +0.000 OA
ATOM     27  O4  UNL     1       7.121  -0.795   0.175  0.00  0.00    +0.000 OA
BRANCH  25  28
ATOM     28  N4  UNL     1       6.304  -1.071   2.676  0.00  0.00    +0.000 NA
ATOM     29  H11 UNL     1       7.184  -1.601   2.862  0.00  0.00    +0.000 HD
ATOM     30  H12 UNL     1       6.521  -0.061   2.832  0.00  0.00    +0.000 HD
ENDBRANCH  25  28
ENDBRANCH  22  25
ENDBRANCH   8  19
TORSDOF 4
