REMARK  Name = resultss/4CJN/ligands/lig_440_t1.pdb
REMARK  9 active torsions:
REMARK  status: ('A' for Active; 'I' for Inactive)
REMARK    1  A    between atoms: C1_1  and  O1_2
REMARK    2  A    between atoms: O1_2  and  C2_3
REMARK    3  A    between atoms: C4_5  and  N1_6
REMARK    4  A    between atoms: C5_7  and  S1_8
REMARK    5  A    between atoms: N2_9  and  N3_10
REMARK    6  A    between atoms: C6_11  and  C7_13
REMARK    7  A    between atoms: C17_24  and  C18_25
REMARK    8  A    between atoms: C25_33  and  O3_34
REMARK    9  A    between atoms: O3_34  and  C26_35
REMARK                            x       y       z     vdW  Elec       q    Type
REMARK                         _______ _______ _______ _____ _____    ______ ____
ROOT
ATOM      1  N3  UNL     1       0.540  -1.720   1.137  0.00  0.00    +0.000 N 
ATOM      2  C6  UNL     1      -0.732  -2.238   1.554  0.00  0.00    +0.000 C 
ATOM      3  O2  UNL     1      -0.783  -3.300   2.233  0.00  0.00    +0.000 OA
ATOM      4  H7  UNL     1       0.570  -0.849   0.562  0.00  0.00    +0.000 HD
ENDROOT
BRANCH   2   5
ATOM      5  C7  UNL     1      -1.983  -1.535   1.195  0.00  0.00    +0.000 A 
ATOM      6  C8  UNL     1      -3.239  -2.049   1.585  0.00  0.00    +0.000 A 
ATOM      7  C9  UNL     1      -4.367  -1.335   1.198  0.00  0.00    +0.000 A 
ATOM      8  C10 UNL     1      -4.282  -0.168   0.470  0.00  0.00    +0.000 A 
ATOM      9  N4  UNL     1      -5.510   0.308   0.157  0.00  0.00    +0.000 N 
ATOM     10  C11 UNL     1      -6.373  -0.567   0.717  0.00  0.00    +0.000 A 
ATOM     11  C12 UNL     1      -7.765  -0.524   0.669  0.00  0.00    +0.000 A 
ATOM     12  C13 UNL     1      -8.479  -1.555   1.309  0.00  0.00    +0.000 A 
ATOM     13  C14 UNL     1      -7.795  -2.600   1.971  0.00  0.00    +0.000 A 
ATOM     14  C15 UNL     1      -6.388  -2.625   2.001  0.00  0.00    +0.000 A 
ATOM     15  C16 UNL     1      -5.709  -1.588   1.365  0.00  0.00    +0.000 A 
ATOM     16  C17 UNL     1      -3.029   0.342   0.103  0.00  0.00    +0.000 A 
ATOM     17  N5  UNL     1      -1.922  -0.370   0.474  0.00  0.00    +0.000 NA
ATOM     18  H9  UNL     1      -5.754   1.144  -0.419  0.00  0.00    +0.000 HD
BRANCH  16  19
ATOM     19  C18 UNL     1      -2.861   1.598  -0.656  0.00  0.00    +0.000 A 
ATOM     20  C19 UNL     1      -3.562   2.763  -0.295  0.00  0.00    +0.000 A 
ATOM     21  C20 UNL     1      -3.369   3.951  -1.006  0.00  0.00    +0.000 A 
ATOM     22  C21 UNL     1      -2.466   3.992  -2.072  0.00  0.00    +0.000 A 
ATOM     23  C22 UNL     1      -1.749   2.846  -2.424  0.00  0.00    +0.000 A 
ATOM     24  C23 UNL     1      -1.939   1.655  -1.715  0.00  0.00    +0.000 A 
ENDBRANCH  16  19
ENDBRANCH   2   5
BRANCH   1  27
ATOM     25  N1  UNL     1       3.088  -0.752   0.393  0.00  0.00    +0.000 NA
ATOM     26  C5  UNL     1       3.019  -1.856   1.082  0.00  0.00    +0.000 C 
ATOM     27  N2  UNL     1       1.743  -2.362   1.490  0.00  0.00    +0.000 N 
ATOM     28  H6  UNL     1       1.719  -3.234   2.066  0.00  0.00    +0.000 HD
BRANCH  25  31
ATOM     29  C2  UNL     1       5.570   1.905  -0.451  0.00  0.00    +0.000 A 
ATOM     30  C3  UNL     1       4.446   1.249   0.064  0.00  0.00    +0.000 A 
ATOM     31  C4  UNL     1       4.276  -0.128  -0.115  0.00  0.00    +0.000 A 
ATOM     32  C24 UNL     1       5.213  -0.847  -0.873  0.00  0.00    +0.000 A 
ATOM     33  C25 UNL     1       6.351  -0.204  -1.395  0.00  0.00    +0.000 A 
ATOM     34  C27 UNL     1       6.525   1.167  -1.175  0.00  0.00    +0.000 A 
BRANCH  29  36
ATOM     35  C1  UNL     1       6.785   4.077  -0.686  0.00  0.00    +0.000 C 
ATOM     36  O1  UNL     1       5.698   3.283  -0.223  0.00  0.00    +0.000 OA
ENDBRANCH  29  36
BRANCH  33  37
ATOM     37  O3  UNL     1       7.326  -0.888  -2.137  0.00  0.00    +0.000 OA
ATOM     38  C26 UNL     1       7.289  -2.282  -2.422  0.00  0.00    +0.000 C 
ENDBRANCH  33  37
ENDBRANCH  25  31
BRANCH  26  39
ATOM     39  S1  UNL     1       4.495  -2.717   1.649  0.00  0.00    +0.000 S 
ATOM     40  H5  UNL     1       4.466  -3.607   0.559  0.00  0.00    +0.000 HD
ENDBRANCH  26  39
ENDBRANCH   1  27
TORSDOF 7
