REMARK  Name = resultss/4CJN/ligands/lig_318_t1.pdb
REMARK  2 active torsions:
REMARK  status: ('A' for Active; 'I' for Inactive)
REMARK    1  A    between atoms: C11_15  and  O5_16
REMARK    2  A    between atoms: C12_17  and  O6_18
REMARK                            x       y       z     vdW  Elec       q    Type
REMARK                         _______ _______ _______ _____ _____    ______ ____
ROOT
ATOM      1  O1  UNL     1      -0.114   2.276  -0.940  0.00  0.00    +0.000 OA
ATOM      2  C1  UNL     1      -0.056   1.114  -0.459  0.00  0.00    +0.000 A 
ATOM      3  C2  UNL     1       1.205   0.510  -0.258  0.00  0.00    +0.000 A 
ATOM      4  C3  UNL     1       2.485   1.241  -0.501  0.00  0.00    +0.000 C 
ATOM      5  O2  UNL     1       2.478   2.441  -0.888  0.00  0.00    +0.000 OA
ATOM      6  C4  UNL     1       3.813   0.561  -0.332  0.00  0.00    +0.000 C 
ATOM      7  C5  UNL     1       3.690  -0.625   0.575  0.00  0.00    +0.000 C 
ATOM      8  O3  UNL     1       4.572  -0.874   1.382  0.00  0.00    +0.000 OA
ATOM      9  C6  UNL     1       2.533  -1.565   0.409  0.00  0.00    +0.000 C 
ATOM     10  C7  UNL     1       1.240  -0.826   0.193  0.00  0.00    +0.000 A 
ATOM     11  O4  UNL     1       0.111  -1.492   0.396  0.00  0.00    +0.000 OA
ATOM     12  C8  UNL     1      -1.091  -0.958   0.234  0.00  0.00    +0.000 A 
ATOM     13  C9  UNL     1      -2.212  -1.763   0.448  0.00  0.00    +0.000 A 
ATOM     14  C10 UNL     1      -3.491  -1.250   0.267  0.00  0.00    +0.000 A 
ATOM     15  C11 UNL     1      -3.672   0.086  -0.087  0.00  0.00    +0.000 A 
ATOM     16  C12 UNL     1      -2.560   0.932  -0.269  0.00  0.00    +0.000 A 
ATOM     17  C13 UNL     1      -1.241   0.395  -0.160  0.00  0.00    +0.000 A 
ENDROOT
BRANCH  15  18
ATOM     18  O5  UNL     1      -4.975   0.565  -0.235  0.00  0.00    +0.000 OA
ATOM     19  H7  UNL     1      -5.175   1.525  -0.490  0.00  0.00    +0.000 HD
ENDBRANCH  15  18
BRANCH  16  20
ATOM     20  O6  UNL     1      -2.819   2.285  -0.516  0.00  0.00    +0.000 OA
ATOM     21  H8  UNL     1      -2.171   3.034  -0.328  0.00  0.00    +0.000 HD
ENDBRANCH  16  20
TORSDOF 2
