REMARK  Name = resultss/4CJN/ligands/lig_328_t0.pdb
REMARK  9 active torsions:
REMARK  status: ('A' for Active; 'I' for Inactive)
REMARK    1  A    between atoms: C1_1  and  O1_2
REMARK    2  A    between atoms: O1_2  and  C2_3
REMARK    3  A    between atoms: C4_5  and  O2_6
REMARK    4  A    between atoms: C6_8  and  C7_9
REMARK    5  A    between atoms: C7_9  and  C8_10
REMARK    6  A    between atoms: C8_10  and  C9_11
REMARK    7  A    between atoms: C12_14  and  O3_15
REMARK    8  A    between atoms: C13_16  and  O4_17
REMARK    9  A    between atoms: O4_17  and  C14_18
REMARK                            x       y       z     vdW  Elec       q    Type
REMARK                         _______ _______ _______ _____ _____    ______ ____
ROOT
ATOM      1  C7  UNL     1       0.021   0.016   0.797  0.00  0.00    +0.000 C 
ENDROOT
BRANCH   1   6
ATOM      2  C2  UNL     1       3.758  -0.556   1.306  0.00  0.00    +0.000 A 
ATOM      3  C3  UNL     1       4.275   0.700   0.933  0.00  0.00    +0.000 A 
ATOM      4  C4  UNL     1       3.413   1.725   0.521  0.00  0.00    +0.000 A 
ATOM      5  C5  UNL     1       2.034   1.504   0.486  0.00  0.00    +0.000 A 
ATOM      6  C6  UNL     1       1.504   0.263   0.870  0.00  0.00    +0.000 A 
ATOM      7  C16 UNL     1       2.374  -0.765   1.267  0.00  0.00    +0.000 A 
BRANCH   2   9
ATOM      8  C1  UNL     1       5.999  -1.546   1.805  0.00  0.00    +0.000 C 
ATOM      9  O1  UNL     1       4.579  -1.616   1.718  0.00  0.00    +0.000 OA
ENDBRANCH   2   9
BRANCH   4  10
ATOM     10  O2  UNL     1       3.918   2.967   0.143  0.00  0.00    +0.000 OA
ATOM     11  H5  UNL     1       4.913   3.161   0.156  0.00  0.00    +0.000 HD
ENDBRANCH   4  10
ENDBRANCH   1   6
BRANCH   1  12
ATOM     12  C8  UNL     1      -0.368  -0.520  -0.584  0.00  0.00    +0.000 C 
BRANCH  12  13
ATOM     13  C9  UNL     1      -1.852  -0.764  -0.658  0.00  0.00    +0.000 A 
ATOM     14  C10 UNL     1      -2.381  -2.009  -0.290  0.00  0.00    +0.000 A 
ATOM     15  C11 UNL     1      -3.759  -2.225  -0.327  0.00  0.00    +0.000 A 
ATOM     16  C12 UNL     1      -4.627  -1.201  -0.720  0.00  0.00    +0.000 A 
ATOM     17  C13 UNL     1      -4.114   0.060  -1.077  0.00  0.00    +0.000 A 
ATOM     18  C15 UNL     1      -2.721   0.271  -1.039  0.00  0.00    +0.000 A 
BRANCH  16  19
ATOM     19  O3  UNL     1      -5.999  -1.454  -0.745  0.00  0.00    +0.000 OA
ATOM     20  H13 UNL     1      -6.673  -0.750  -1.021  0.00  0.00    +0.000 HD
ENDBRANCH  16  19
BRANCH  17  21
ATOM     21  O4  UNL     1      -5.008   1.072  -1.461  0.00  0.00    +0.000 OA
ATOM     22  C14 UNL     1      -4.623   2.388  -1.843  0.00  0.00    +0.000 C 
ENDBRANCH  17  21
ENDBRANCH  12  13
ENDBRANCH   1  12
TORSDOF 7
