REMARK  Name = resultss/4CJN/ligands/lig_11_t0.pdb
REMARK  10 active torsions:
REMARK  status: ('A' for Active; 'I' for Inactive)
REMARK    1  A    between atoms: C1_1  and  C2_2
REMARK    2  A    between atoms: C2_2  and  C3_3
REMARK    3  A    between atoms: C3_3  and  C4_4
REMARK    4  A    between atoms: C4_4  and  N1_5
REMARK    5  A    between atoms: C5_6  and  C6_7
REMARK    6  A    between atoms: C6_7  and  O1_8
REMARK    7  A    between atoms: C7_9  and  O2_10
REMARK    8  A    between atoms: C8_11  and  O3_12
REMARK    9  A    between atoms: C9_13  and  C10_14
REMARK   10  A    between atoms: C10_14  and  O4_15
REMARK                            x       y       z     vdW  Elec       q    Type
REMARK                         _______ _______ _______ _____ _____    ______ ____
ROOT
ATOM      1  N1  UNL     1      -0.113  -0.161   0.090  0.00  0.00    +0.000 NA
ATOM      2  C5  UNL     1      -1.293  -1.019   0.355  0.00  0.00    +0.000 C 
ATOM      3  C7  UNL     1      -2.416  -0.498  -0.531  0.00  0.00    +0.000 C 
ATOM      4  C8  UNL     1      -2.190   1.004  -0.506  0.00  0.00    +0.000 C 
ATOM      5  C9  UNL     1      -0.677   1.170  -0.249  0.00  0.00    +0.000 C 
ENDROOT
BRANCH   3   6
ATOM      6  O2  UNL     1      -3.679  -0.812  -0.003  0.00  0.00    +0.000 OA
ATOM      7  H15 UNL     1      -3.957  -1.671  -0.416  0.00  0.00    +0.000 HD
ENDBRANCH   3   6
BRANCH   4   8
ATOM      8  O3  UNL     1      -2.553   1.585  -1.732  0.00  0.00    +0.000 OA
ATOM      9  H17 UNL     1      -3.546   1.593  -1.758  0.00  0.00    +0.000 HD
ENDBRANCH   4   8
BRANCH   1  10
ATOM     10  C4  UNL     1       0.793  -0.647  -0.984  0.00  0.00    +0.000 C 
BRANCH  10  11
ATOM     11  C3  UNL     1       2.143   0.091  -0.957  0.00  0.00    +0.000 C 
BRANCH  11  13
ATOM     12  C1  UNL     1       4.243   0.569   0.360  0.00  0.00    +0.000 C 
ATOM     13  C2  UNL     1       2.902  -0.157   0.354  0.00  0.00    +0.000 C 
ENDBRANCH  11  13
ENDBRANCH  10  11
ENDBRANCH   1  10
BRANCH   2  14
ATOM     14  C6  UNL     1      -1.069  -2.541   0.225  0.00  0.00    +0.000 C 
BRANCH  14  15
ATOM     15  O1  UNL     1      -2.155  -3.232   0.778  0.00  0.00    +0.000 OA
ATOM     16  H13 UNL     1      -1.955  -4.198   0.663  0.00  0.00    +0.000 HD
ENDBRANCH  14  15
ENDBRANCH   2  14
BRANCH   5  17
ATOM     17  C10 UNL     1      -0.390   2.148   0.902  0.00  0.00    +0.000 C 
BRANCH  17  18
ATOM     18  O4  UNL     1      -0.899   3.422   0.612  0.00  0.00    +0.000 OA
ATOM     19  H21 UNL     1      -0.286   3.829  -0.054  0.00  0.00    +0.000 HD
ENDBRANCH  17  18
ENDBRANCH   5  17
TORSDOF 9
