REMARK  Name = resultss/4CJN/ligands/lig_270_t1.pdb
REMARK  9 active torsions:
REMARK  status: ('A' for Active; 'I' for Inactive)
REMARK    1  A    between atoms: C1_1  and  O1_2
REMARK    2  A    between atoms: O1_2  and  C2_3
REMARK    3  A    between atoms: C4_5  and  C5_6
REMARK    4  A    between atoms: C5_6  and  N1_7
REMARK    5  A    between atoms: C6_8  and  O2_9
REMARK    6  A    between atoms: C6_8  and  C7_10
REMARK    7  A    between atoms: C8_11  and  N2_12
REMARK    8  A    between atoms: C9_13  and  C10_15
REMARK    9  A    between atoms: C23_30  and  O4_31
REMARK                            x       y       z     vdW  Elec       q    Type
REMARK                         _______ _______ _______ _____ _____    ______ ____
ROOT
ATOM      1  C7  UNL     1      -1.239  -1.653   0.252  0.00  0.00    +0.000 A 
ATOM      2  C8  UNL     1      -1.947  -0.712  -0.502  0.00  0.00    +0.000 A 
ATOM      3  S1  UNL     1      -2.915  -1.526  -1.622  0.00  0.00    +0.000 S 
ATOM      4  C15 UNL     1      -2.449  -3.071  -1.155  0.00  0.00    +0.000 A 
ATOM      5  C16 UNL     1      -1.510  -2.979  -0.132  0.00  0.00    +0.000 A 
ATOM      6  C17 UNL     1      -0.939  -4.205   0.533  0.00  0.00    +0.000 C 
ATOM      7  C18 UNL     1      -1.101  -5.455  -0.350  0.00  0.00    +0.000 C 
ATOM      8  C19 UNL     1      -2.528  -5.557  -0.921  0.00  0.00    +0.000 C 
ATOM      9  C20 UNL     1      -2.858  -4.351  -1.816  0.00  0.00    +0.000 C 
ENDROOT
BRANCH   2  10
ATOM     10  N2  UNL     1      -1.920   0.709  -0.283  0.00  0.00    +0.000 N 
ATOM     11  C9  UNL     1      -2.555   1.669  -1.145  0.00  0.00    +0.000 C 
ATOM     12  O3  UNL     1      -2.873   1.345  -2.321  0.00  0.00    +0.000 OA
ATOM     13  H8  UNL     1      -1.379   1.064   0.536  0.00  0.00    +0.000 HD
BRANCH  11  14
ATOM     14  C10 UNL     1      -2.813   3.054  -0.683  0.00  0.00    +0.000 A 
ATOM     15  C11 UNL     1      -2.885   3.368   0.685  0.00  0.00    +0.000 A 
ATOM     16  C12 UNL     1      -3.141   4.679   1.092  0.00  0.00    +0.000 A 
ATOM     17  C13 UNL     1      -3.332   5.669   0.129  0.00  0.00    +0.000 A 
ATOM     18  N3  UNL     1      -3.271   5.354  -1.191  0.00  0.00    +0.000 NA
ATOM     19  C14 UNL     1      -3.022   4.086  -1.614  0.00  0.00    +0.000 A 
ENDBRANCH  11  14
ENDBRANCH   2  10
BRANCH   1  21
ATOM     20  N1  UNL     1       0.838  -0.764   1.149  0.00  0.00    +0.000 NA
ATOM     21  C6  UNL     1      -0.327  -1.304   1.358  0.00  0.00    +0.000 C 
BRANCH  21  22
ATOM     22  O2  UNL     1      -0.725  -1.589   2.661  0.00  0.00    +0.000 OA
ATOM     23  H7  UNL     1      -0.125  -1.378   3.449  0.00  0.00    +0.000 HD
ENDBRANCH  21  22
BRANCH  20  24
ATOM     24  C5  UNL     1       1.400  -0.468  -0.166  0.00  0.00    +0.000 C 
BRANCH  24  27
ATOM     25  C2  UNL     1       4.347   1.951   0.090  0.00  0.00    +0.000 A 
ATOM     26  C3  UNL     1       3.041   1.447  -0.084  0.00  0.00    +0.000 A 
ATOM     27  C4  UNL     1       2.793   0.067  -0.003  0.00  0.00    +0.000 A 
ATOM     28  C21 UNL     1       3.850  -0.810   0.277  0.00  0.00    +0.000 A 
ATOM     29  C22 UNL     1       5.144  -0.316   0.455  0.00  0.00    +0.000 A 
ATOM     30  C23 UNL     1       5.399   1.056   0.362  0.00  0.00    +0.000 A 
BRANCH  25  32
ATOM     31  C1  UNL     1       3.668   4.330  -0.295  0.00  0.00    +0.000 C 
ATOM     32  O1  UNL     1       4.632   3.323   0.000  0.00  0.00    +0.000 OA
ENDBRANCH  25  32
BRANCH  30  33
ATOM     33  O4  UNL     1       6.704   1.512   0.544  0.00  0.00    +0.000 OA
ATOM     34  H23 UNL     1       6.946   2.493   0.486  0.00  0.00    +0.000 HD
ENDBRANCH  30  33
ENDBRANCH  24  27
ENDBRANCH  20  24
ENDBRANCH   1  21
TORSDOF 8
