REMARK  Name = resultss/4CJN/ligands/lig_184_t2.pdb
REMARK  6 active torsions:
REMARK  status: ('A' for Active; 'I' for Inactive)
REMARK    1  A    between atoms: C1_1  and  O1_2
REMARK    2  A    between atoms: O1_2  and  C2_3
REMARK    3  A    between atoms: C5_6  and  C6_7
REMARK    4  A    between atoms: N1_8  and  N2_9
REMARK    5  A    between atoms: C7_10  and  C8_12
REMARK    6  A    between atoms: C11_15  and  C12_16
REMARK                            x       y       z     vdW  Elec       q    Type
REMARK                         _______ _______ _______ _____ _____    ______ ____
ROOT
ATOM      1  N2  UNL     1       1.395   0.402  -1.136  0.00  0.00    +0.000 N 
ATOM      2  C7  UNL     1       0.517  -0.629  -0.653  0.00  0.00    +0.000 C 
ATOM      3  O2  UNL     1       0.984  -1.767  -0.377  0.00  0.00    +0.000 OA
ATOM      4  H7  UNL     1       1.011   1.113  -1.796  0.00  0.00    +0.000 HD
ENDROOT
BRANCH   2   5
ATOM      5  C8  UNL     1      -0.941  -0.386  -0.522  0.00  0.00    +0.000 A 
ATOM      6  C9  UNL     1      -1.833  -1.468  -0.431  0.00  0.00    +0.000 A 
ATOM      7  C10 UNL     1      -3.208  -1.249  -0.302  0.00  0.00    +0.000 A 
ATOM      8  C11 UNL     1      -3.721   0.058  -0.254  0.00  0.00    +0.000 A 
ATOM      9  C19 UNL     1      -2.829   1.141  -0.334  0.00  0.00    +0.000 A 
ATOM     10  C20 UNL     1      -1.454   0.921  -0.464  0.00  0.00    +0.000 A 
BRANCH   8  11
ATOM     11  C12 UNL     1      -5.180   0.280  -0.117  0.00  0.00    +0.000 A 
ATOM     12  N3  UNL     1      -6.080  -0.734  -0.032  0.00  0.00    +0.000 NA
ATOM     13  C13 UNL     1      -7.348  -0.263   0.087  0.00  0.00    +0.000 A 
ATOM     14  C14 UNL     1      -8.482  -1.070   0.194  0.00  0.00    +0.000 A 
ATOM     15  C15 UNL     1      -9.740  -0.453   0.312  0.00  0.00    +0.000 A 
ATOM     16  C16 UNL     1      -9.849   0.952   0.322  0.00  0.00    +0.000 A 
ATOM     17  C17 UNL     1      -8.701   1.753   0.213  0.00  0.00    +0.000 A 
ATOM     18  C18 UNL     1      -7.467   1.117   0.098  0.00  0.00    +0.000 A 
ATOM     19  S1  UNL     1      -5.942   1.797  -0.046  0.00  0.00    +0.000 S 
ENDBRANCH   8  11
ENDBRANCH   2   5
BRANCH   1  21
ATOM     20  C6  UNL     1       3.363  -0.118   0.110  0.00  0.00    +0.000 C 
ATOM     21  N1  UNL     1       2.790   0.381  -0.944  0.00  0.00    +0.000 NA
BRANCH  20  25
ATOM     22  C2  UNL     1       7.715  -0.304   0.408  0.00  0.00    +0.000 C 
ATOM     23  C3  UNL     1       7.103   0.341  -0.598  0.00  0.00    +0.000 C 
ATOM     24  C4  UNL     1       5.633   0.384  -0.701  0.00  0.00    +0.000 C 
ATOM     25  C5  UNL     1       4.836  -0.130   0.255  0.00  0.00    +0.000 C 
ATOM     26  C21 UNL     1       5.417  -0.687   1.539  0.00  0.00    +0.000 C 
ATOM     27  I1  UNL     1       5.053   0.692   3.136  0.00  0.00    +0.000 I 
ATOM     28  C22 UNL     1       6.898  -0.942   1.454  0.00  0.00    +0.000 C 
ATOM     29  O3  UNL     1       7.452  -1.672   2.319  0.00  0.00    +0.000 OA
BRANCH  22  31
ATOM     30  C1  UNL     1      10.034   0.159  -0.428  0.00  0.00    +0.000 C 
ATOM     31  O1  UNL     1       9.114  -0.403   0.502  0.00  0.00    +0.000 OA
ENDBRANCH  22  31
ENDBRANCH  20  25
ENDBRANCH   1  21
TORSDOF 5
