REMARK  Name = resultss/4CJN/ligands/lig_182_t2.pdb
REMARK  4 active torsions:
REMARK  status: ('A' for Active; 'I' for Inactive)
REMARK    1  A    between atoms: C1_2  and  C9_13
REMARK    2  A    between atoms: N1_3  and  N2_4
REMARK    3  A    between atoms: C2_5  and  C3_6
REMARK    4  A    between atoms: C12_16  and  C13_17
REMARK                            x       y       z     vdW  Elec       q    Type
REMARK                         _______ _______ _______ _____ _____    ______ ____
ROOT
ATOM      1  C9  UNL     1      -0.119  -0.597   0.309  0.00  0.00    +0.000 A 
ATOM      2  C10 UNL     1      -0.999  -1.668   0.540  0.00  0.00    +0.000 A 
ATOM      3  C11 UNL     1      -2.382  -1.483   0.464  0.00  0.00    +0.000 A 
ATOM      4  C12 UNL     1      -2.919  -0.219   0.163  0.00  0.00    +0.000 A 
ATOM      5  C20 UNL     1      -2.040   0.856  -0.055  0.00  0.00    +0.000 A 
ATOM      6  C21 UNL     1      -0.656   0.670   0.020  0.00  0.00    +0.000 A 
ENDROOT
BRANCH   4   7
ATOM      7  C13 UNL     1      -4.386  -0.033   0.085  0.00  0.00    +0.000 A 
ATOM      8  N3  UNL     1      -5.274  -1.040   0.293  0.00  0.00    +0.000 NA
ATOM      9  C14 UNL     1      -6.555  -0.607   0.163  0.00  0.00    +0.000 A 
ATOM     10  C15 UNL     1      -7.681  -1.417   0.319  0.00  0.00    +0.000 A 
ATOM     11  C16 UNL     1      -8.954  -0.842   0.157  0.00  0.00    +0.000 A 
ATOM     12  C17 UNL     1      -9.084   0.525  -0.158  0.00  0.00    +0.000 A 
ATOM     13  C18 UNL     1      -7.944   1.330  -0.313  0.00  0.00    +0.000 A 
ATOM     14  C19 UNL     1      -6.696   0.735  -0.147  0.00  0.00    +0.000 A 
ATOM     15  S1  UNL     1      -5.176   1.430  -0.268  0.00  0.00    +0.000 S 
ENDBRANCH   4   7
BRANCH   1  17
ATOM     16  O1  UNL     1       1.793  -1.772   1.079  0.00  0.00    +0.000 OA
ATOM     17  C1  UNL     1       1.346  -0.809   0.398  0.00  0.00    +0.000 C 
ATOM     18  N1  UNL     1       2.267   0.047  -0.289  0.00  0.00    +0.000 N 
ATOM     19  H1  UNL     1       1.917   0.743  -0.986  0.00  0.00    +0.000 HD
BRANCH  18  20
ATOM     20  N2  UNL     1       3.647  -0.096  -0.078  0.00  0.00    +0.000 NA
ATOM     21  C2  UNL     1       4.515   0.642  -0.699  0.00  0.00    +0.000 C 
BRANCH  21  22
ATOM     22  C3  UNL     1       5.967   0.482  -0.469  0.00  0.00    +0.000 C 
ATOM     23  C4  UNL     1       6.898   1.359  -1.212  0.00  0.00    +0.000 C 
ATOM     24  C5  UNL     1       8.224   1.276  -1.060  0.00  0.00    +0.000 C 
ATOM     25  C6  UNL     1       8.880   0.292  -0.127  0.00  0.00    +0.000 C 
ATOM     26  C7  UNL     1       7.894  -0.577   0.605  0.00  0.00    +0.000 C 
ATOM     27  O2  UNL     1       8.315  -1.444   1.416  0.00  0.00    +0.000 OA
ATOM     28  C8  UNL     1       6.446  -0.433   0.389  0.00  0.00    +0.000 C 
ENDBRANCH  21  22
ENDBRANCH  18  20
ENDBRANCH   1  17
TORSDOF 4
