REMARK  Name = resultss/4CJN/ligands/lig_361_t2.pdb
REMARK  4 active torsions:
REMARK  status: ('A' for Active; 'I' for Inactive)
REMARK    1  A    between atoms: C1_1  and  O1_2
REMARK    2  A    between atoms: O1_2  and  C2_3
REMARK    3  A    between atoms: C13_15  and  O3_16
REMARK    4  A    between atoms: O3_16  and  C14_17
REMARK                            x       y       z     vdW  Elec       q    Type
REMARK                         _______ _______ _______ _____ _____    ______ ____
ROOT
ATOM      1  C2  UNL     1       4.431   0.342   0.025  0.00  0.00    +0.000 A 
ATOM      2  C3  UNL     1       3.638   1.444   0.408  0.00  0.00    +0.000 A 
ATOM      3  C4  UNL     1       2.251   1.417   0.226  0.00  0.00    +0.000 A 
ATOM      4  C5  UNL     1       1.649   0.279  -0.316  0.00  0.00    +0.000 A 
ATOM      5  C6  UNL     1       2.433  -0.827  -0.718  0.00  0.00    +0.000 A 
ATOM      6  C7  UNL     1       3.819  -0.786  -0.540  0.00  0.00    +0.000 A 
ATOM      7  O2  UNL     1       1.816  -1.983  -1.266  0.00  0.00    +0.000 OA
ATOM      8  C8  UNL     1       0.384  -2.134  -1.404  0.00  0.00    +0.000 C 
ATOM      9  C9  UNL     1      -0.286  -1.209  -0.393  0.00  0.00    +0.000 C 
ATOM     10  C10 UNL     1      -1.755  -0.981  -0.342  0.00  0.00    +0.000 C 
ATOM     11  C11 UNL     1      -2.827  -2.026  -0.218  0.00  0.00    +0.000 C 
ATOM     12  C12 UNL     1      -4.201  -1.426   0.018  0.00  0.00    +0.000 C 
ATOM     13  C13 UNL     1      -4.405  -0.139   0.358  0.00  0.00    +0.000 C 
ATOM     14  C15 UNL     1      -3.240   0.788   0.437  0.00  0.00    +0.000 C 
ATOM     15  O4  UNL     1      -3.355   1.980   0.823  0.00  0.00    +0.000 OA
ATOM     16  C16 UNL     1      -1.928   0.278   0.041  0.00  0.00    +0.000 C 
ATOM     17  O5  UNL     1      -0.739   1.007   0.026  0.00  0.00    +0.000 OA
ATOM     18  C17 UNL     1       0.201   0.205  -0.670  0.00  0.00    +0.000 C 
ENDROOT
BRANCH   1  20
ATOM     19  C1  UNL     1       6.580   1.399   0.744  0.00  0.00    +0.000 C 
ATOM     20  O1  UNL     1       5.825   0.329   0.187  0.00  0.00    +0.000 OA
ENDBRANCH   1  20
BRANCH  13  21
ATOM     21  O3  UNL     1      -5.728   0.261   0.611  0.00  0.00    +0.000 OA
ATOM     22  C14 UNL     1      -6.137   1.579   0.957  0.00  0.00    +0.000 C 
ENDBRANCH  13  21
TORSDOF 2
