REMARK  Name = resultss/4CJN/ligands/lig_286_t1.pdb
REMARK  8 active torsions:
REMARK  status: ('A' for Active; 'I' for Inactive)
REMARK    1  A    between atoms: C4_5  and  O2_6
REMARK    2  A    between atoms: C5_7  and  O3_8
REMARK    3  A    between atoms: C11_16  and  C12_17
REMARK    4  A    between atoms: C13_19  and  C14_20
REMARK    5  A    between atoms: C14_20  and  O7_21
REMARK    6  A    between atoms: C15_22  and  O8_23
REMARK    7  A    between atoms: C16_24  and  O9_25
REMARK    8  A    between atoms: C17_26  and  O10_27
REMARK                            x       y       z     vdW  Elec       q    Type
REMARK                         _______ _______ _______ _____ _____    ______ ____
ROOT
ATOM      1  O1  UNL     1       2.235   2.535  -0.761  0.00  0.00    +0.000 OA
ATOM      2  C1  UNL     1       2.482   1.304  -0.630  0.00  0.00    +0.000 A 
ATOM      3  C2  UNL     1       3.761   0.884  -0.226  0.00  0.00    +0.000 A 
ATOM      4  C3  UNL     1       4.800   1.795   0.037  0.00  0.00    +0.000 A 
ATOM      5  C4  UNL     1       6.061   1.332   0.441  0.00  0.00    +0.000 A 
ATOM      6  C5  UNL     1       6.289  -0.042   0.585  0.00  0.00    +0.000 A 
ATOM      7  C6  UNL     1       5.257  -0.953   0.325  0.00  0.00    +0.000 A 
ATOM      8  C7  UNL     1       3.998  -0.498  -0.079  0.00  0.00    +0.000 A 
ATOM      9  O4  UNL     1       3.032  -1.375  -0.321  0.00  0.00    +0.000 OA
ATOM     10  C8  UNL     1       1.810  -1.023  -0.711  0.00  0.00    +0.000 A 
ATOM     11  C9  UNL     1       0.811  -2.126  -0.942  0.00  0.00    +0.000 C 
ATOM     12  C10 UNL     1      -0.435  -1.644  -1.633  0.00  0.00    +0.000 C 
ATOM     13  O5  UNL     1      -1.023  -2.383  -2.408  0.00  0.00    +0.000 OA
ATOM     14  C11 UNL     1      -1.009  -0.289  -1.305  0.00  0.00    +0.000 C 
ATOM     15  C18 UNL     1       0.109   0.722  -1.317  0.00  0.00    +0.000 C 
ATOM     16  O11 UNL     1      -0.143   1.903  -1.680  0.00  0.00    +0.000 OA
ATOM     17  C19 UNL     1       1.481   0.342  -0.879  0.00  0.00    +0.000 A 
ENDROOT
BRANCH  14  18
ATOM     18  C12 UNL     1      -1.732  -0.282   0.071  0.00  0.00    +0.000 C 
ATOM     19  O6  UNL     1      -2.130   1.044   0.425  0.00  0.00    +0.000 OA
ATOM     20  C13 UNL     1      -3.511   1.351   0.258  0.00  0.00    +0.000 C 
ATOM     21  C15 UNL     1      -4.465   0.379   1.010  0.00  0.00    +0.000 C 
ATOM     22  C16 UNL     1      -3.796  -0.968   1.324  0.00  0.00    +0.000 C 
ATOM     23  C17 UNL     1      -2.851  -1.354   0.184  0.00  0.00    +0.000 C 
BRANCH  21  24
ATOM     24  O8  UNL     1      -4.893   0.976   2.209  0.00  0.00    +0.000 OA
ATOM     25  H14 UNL     1      -5.696   0.477   2.511  0.00  0.00    +0.000 HD
ENDBRANCH  21  24
BRANCH  22  26
ATOM     26  O9  UNL     1      -4.790  -1.949   1.489  0.00  0.00    +0.000 OA
ATOM     27  H16 UNL     1      -4.413  -2.647   2.086  0.00  0.00    +0.000 HD
ENDBRANCH  22  26
BRANCH  23  28
ATOM     28  O10 UNL     1      -2.274  -2.607   0.458  0.00  0.00    +0.000 OA
ATOM     29  H18 UNL     1      -2.893  -3.299   0.105  0.00  0.00    +0.000 HD
ENDBRANCH  23  28
BRANCH  20  30
ATOM     30  C14 UNL     1      -3.901   1.549  -1.222  0.00  0.00    +0.000 C 
BRANCH  30  31
ATOM     31  O7  UNL     1      -3.008   2.421  -1.861  0.00  0.00    +0.000 OA
ATOM     32  H12 UNL     1      -3.217   3.334  -1.532  0.00  0.00    +0.000 HD
ENDBRANCH  30  31
ENDBRANCH  20  30
ENDBRANCH  14  18
BRANCH   5  33
ATOM     33  O2  UNL     1       7.092   2.233   0.702  0.00  0.00    +0.000 OA
ATOM     34  H2  UNL     1       6.960   3.233   0.608  0.00  0.00    +0.000 HD
ENDBRANCH   5  33
BRANCH   6  35
ATOM     35  O3  UNL     1       7.545  -0.495   0.987  0.00  0.00    +0.000 OA
ATOM     36  H3  UNL     1       7.741  -1.483   1.100  0.00  0.00    +0.000 HD
ENDBRANCH   6  35
TORSDOF 8
