REMARK  Name = resultss/4CJN/ligands/lig_284_t2.pdb
REMARK  13 active torsions:
REMARK  status: ('A' for Active; 'I' for Inactive)
REMARK    1  A    between atoms: C1_1  and  C2_2
REMARK    2  A    between atoms: C2_2  and  C3_3
REMARK    3  A    between atoms: C4_4  and  C5_5
REMARK    4  A    between atoms: C5_5  and  C6_6
REMARK    5  A    between atoms: C6_6  and  C7_7
REMARK    6  A    between atoms: C7_7  and  C8_8
REMARK    7  A    between atoms: C9_9  and  C10_10
REMARK    8  A    between atoms: C10_10  and  C11_11
REMARK    9  A    between atoms: C15_17  and  C16_18
REMARK   10  A    between atoms: C16_18  and  C17_20
REMARK   11  A    between atoms: C18_21  and  C19_22
REMARK   12  A    between atoms: C22_25  and  O4_26
REMARK   13  A    between atoms: C25_29  and  O5_30
REMARK                            x       y       z     vdW  Elec       q    Type
REMARK                         _______ _______ _______ _____ _____    ______ ____
ROOT
ATOM      1  C11 UNL     1       0.301   2.189  -0.652  0.00  0.00    +0.000 C 
ATOM      2  C12 UNL     1       0.517   3.274   0.339  0.00  0.00    +0.000 C 
ATOM      3  O1  UNL     1       1.602   3.906   0.360  0.00  0.00    +0.000 OA
ATOM      4  C13 UNL     1      -0.519   3.591   1.365  0.00  0.00    +0.000 C 
ATOM      5  C14 UNL     1      -1.883   3.369   0.797  0.00  0.00    +0.000 C 
ATOM      6  O2  UNL     1      -2.808   4.093   1.146  0.00  0.00    +0.000 OA
ATOM      7  C15 UNL     1      -2.159   2.175  -0.083  0.00  0.00    +0.000 C 
ATOM      8  C25 UNL     1      -0.938   1.657  -0.819  0.00  0.00    +0.000 C 
ENDROOT
BRANCH   7   9
ATOM      9  C16 UNL     1      -2.753   1.065   0.747  0.00  0.00    +0.000 C 
ATOM     10  O3  UNL     1      -2.063   0.541   1.668  0.00  0.00    +0.000 OA
BRANCH   9  11
ATOM     11  C17 UNL     1      -4.125   0.588   0.474  0.00  0.00    +0.000 C 
ATOM     12  C18 UNL     1      -4.681  -0.417   1.163  0.00  0.00    +0.000 C 
BRANCH  12  13
ATOM     13  C19 UNL     1      -6.056  -0.921   0.922  0.00  0.00    +0.000 A 
ATOM     14  C20 UNL     1      -6.737  -0.713  -0.295  0.00  0.00    +0.000 A 
ATOM     15  C21 UNL     1      -8.034  -1.206  -0.474  0.00  0.00    +0.000 A 
ATOM     16  C22 UNL     1      -8.663  -1.925   0.549  0.00  0.00    +0.000 A 
ATOM     17  C23 UNL     1      -7.988  -2.152   1.754  0.00  0.00    +0.000 A 
ATOM     18  C24 UNL     1      -6.693  -1.658   1.938  0.00  0.00    +0.000 A 
BRANCH  16  19
ATOM     19  O4  UNL     1      -9.956  -2.408   0.356  0.00  0.00    +0.000 OA
ATOM     20  H25 UNL     1     -10.442  -2.923   1.080  0.00  0.00    +0.000 HD
ENDBRANCH  16  19
ENDBRANCH  12  13
ENDBRANCH   9  11
ENDBRANCH   7   9
BRANCH   8  21
ATOM     21  O5  UNL     1      -1.166   0.583  -1.687  0.00  0.00    +0.000 OA
ATOM     22  H28 UNL     1      -0.439   0.069  -2.165  0.00  0.00    +0.000 HD
ENDBRANCH   8  21
BRANCH   1  23
ATOM     23  C10 UNL     1       1.505   1.636  -1.391  0.00  0.00    +0.000 C 
BRANCH  23  26
ATOM     24  C7  UNL     1       3.035  -0.352  -1.184  0.00  0.00    +0.000 C 
ATOM     25  C8  UNL     1       3.754   0.022  -2.461  0.00  0.00    +0.000 C 
ATOM     26  C9  UNL     1       2.000   0.381  -0.719  0.00  0.00    +0.000 C 
BRANCH  24  27
ATOM     27  C6  UNL     1       3.482  -1.576  -0.404  0.00  0.00    +0.000 C 
BRANCH  27  28
ATOM     28  C5  UNL     1       4.233  -1.184   0.881  0.00  0.00    +0.000 C 
BRANCH  28  32
ATOM     29  C1  UNL     1       6.843  -2.620   0.590  0.00  0.00    +0.000 C 
ATOM     30  C2  UNL     1       6.715  -1.128   0.420  0.00  0.00    +0.000 C 
ATOM     31  C3  UNL     1       7.953  -0.342   0.078  0.00  0.00    +0.000 C 
ATOM     32  C4  UNL     1       5.538  -0.490   0.571  0.00  0.00    +0.000 C 
ENDBRANCH  28  32
ENDBRANCH  27  28
ENDBRANCH  24  27
ENDBRANCH  23  26
ENDBRANCH   1  23
TORSDOF 10
