REMARK  Name = resultss/4CJN/ligands/lig_325_t0.pdb
REMARK  7 active torsions:
REMARK  status: ('A' for Active; 'I' for Inactive)
REMARK    1  A    between atoms: C1_1  and  O1_2
REMARK    2  A    between atoms: O1_2  and  C2_3
REMARK    3  A    between atoms: C4_5  and  O2_6
REMARK    4  A    between atoms: C8_11  and  O4_12
REMARK    5  A    between atoms: O4_12  and  C9_13
REMARK    6  A    between atoms: C10_14  and  O5_15
REMARK    7  A    between atoms: O5_15  and  C11_16
REMARK                            x       y       z     vdW  Elec       q    Type
REMARK                         _______ _______ _______ _____ _____    ______ ____
ROOT
ATOM      1  C2  UNL     1      -4.111   0.792   0.147  0.00  0.00    +0.000 A 
ATOM      2  C3  UNL     1      -3.960  -0.216  -0.817  0.00  0.00    +0.000 A 
ATOM      3  C4  UNL     1      -2.693  -0.701  -1.165  0.00  0.00    +0.000 A 
ATOM      4  C5  UNL     1      -1.539  -0.221  -0.476  0.00  0.00    +0.000 A 
ATOM      5  C6  UNL     1      -0.230  -0.738  -0.650  0.00  0.00    +0.000 A 
ATOM      6  O3  UNL     1      -0.037  -1.746  -1.379  0.00  0.00    +0.000 OA
ATOM      7  C7  UNL     1       0.862  -0.147   0.035  0.00  0.00    +0.000 A 
ATOM      8  C8  UNL     1       2.210  -0.580  -0.131  0.00  0.00    +0.000 A 
ATOM      9  C10 UNL     1       3.245   0.064   0.604  0.00  0.00    +0.000 A 
ATOM     10  C12 UNL     1       2.920   1.116   1.478  0.00  0.00    +0.000 A 
ATOM     11  C13 UNL     1       1.604   1.532   1.634  0.00  0.00    +0.000 A 
ATOM     12  C14 UNL     1       0.579   0.913   0.925  0.00  0.00    +0.000 A 
ATOM     13  O6  UNL     1      -0.664   1.330   1.111  0.00  0.00    +0.000 OA
ATOM     14  C15 UNL     1      -1.707   0.815   0.475  0.00  0.00    +0.000 A 
ATOM     15  C16 UNL     1      -2.978   1.310   0.772  0.00  0.00    +0.000 A 
ENDROOT
BRANCH   1  17
ATOM     16  C1  UNL     1      -6.603   0.880  -0.050  0.00  0.00    +0.000 C 
ATOM     17  O1  UNL     1      -5.365   1.311   0.505  0.00  0.00    +0.000 OA
ENDBRANCH   1  17
BRANCH   3  18
ATOM     18  O2  UNL     1      -2.646  -1.624  -2.214  0.00  0.00    +0.000 OA
ATOM     19  H5  UNL     1      -1.830  -1.806  -2.779  0.00  0.00    +0.000 HD
ENDBRANCH   3  18
BRANCH   8  20
ATOM     20  O4  UNL     1       2.464  -1.635  -1.033  0.00  0.00    +0.000 OA
ATOM     21  C9  UNL     1       3.726  -2.214  -1.348  0.00  0.00    +0.000 C 
ENDBRANCH   8  20
BRANCH   9  22
ATOM     22  O5  UNL     1       4.578  -0.352   0.454  0.00  0.00    +0.000 OA
ATOM     23  C11 UNL     1       5.694   0.214   1.133  0.00  0.00    +0.000 C 
ENDBRANCH   9  22
TORSDOF 4
