REMARK  Name = resultss/4CJN/ligands/lig_171_t0.pdb
REMARK  5 active torsions:
REMARK  status: ('A' for Active; 'I' for Inactive)
REMARK    1  A    between atoms: C1_2  and  C9_15
REMARK    2  A    between atoms: N1_3  and  N2_4
REMARK    3  A    between atoms: C2_5  and  C3_6
REMARK    4  A    between atoms: C6_9  and  N3_10
REMARK    5  A    between atoms: C12_18  and  C13_19
REMARK                            x       y       z     vdW  Elec       q    Type
REMARK                         _______ _______ _______ _____ _____    ______ ____
ROOT
ATOM      1  O1  UNL     1      -1.576  -0.219  -2.016  0.00  0.00    +0.000 OA
ATOM      2  C1  UNL     1      -1.108  -0.507  -0.880  0.00  0.00    +0.000 C 
ATOM      3  N1  UNL     1      -1.989  -0.989   0.150  0.00  0.00    +0.000 N 
ATOM      4  H1  UNL     1      -1.608  -1.656   0.857  0.00  0.00    +0.000 HD
ENDROOT
BRANCH   2   5
ATOM      5  C9  UNL     1       0.351  -0.391  -0.641  0.00  0.00    +0.000 A 
ATOM      6  C10 UNL     1       1.241  -0.302  -1.725  0.00  0.00    +0.000 A 
ATOM      7  C11 UNL     1       2.617  -0.187  -1.509  0.00  0.00    +0.000 A 
ATOM      8  C12 UNL     1       3.135  -0.152  -0.202  0.00  0.00    +0.000 A 
ATOM      9  C20 UNL     1       2.244  -0.230   0.881  0.00  0.00    +0.000 A 
ATOM     10  C21 UNL     1       0.868  -0.346   0.665  0.00  0.00    +0.000 A 
BRANCH   8  11
ATOM     11  C13 UNL     1       4.592  -0.030   0.039  0.00  0.00    +0.000 A 
ATOM     12  N4  UNL     1       5.138   0.010   1.282  0.00  0.00    +0.000 NA
ATOM     13  C14 UNL     1       6.489   0.124   1.227  0.00  0.00    +0.000 A 
ATOM     14  C15 UNL     1       7.322   0.189   2.345  0.00  0.00    +0.000 A 
ATOM     15  C16 UNL     1       8.709   0.307   2.149  0.00  0.00    +0.000 A 
ATOM     16  C17 UNL     1       9.244   0.359   0.846  0.00  0.00    +0.000 A 
ATOM     17  C18 UNL     1       8.396   0.293  -0.272  0.00  0.00    +0.000 A 
ATOM     18  C19 UNL     1       7.027   0.176  -0.049  0.00  0.00    +0.000 A 
ATOM     19  S1  UNL     1       5.784   0.077  -1.169  0.00  0.00    +0.000 S 
ENDBRANCH   8  11
ENDBRANCH   2   5
BRANCH   3  20
ATOM     20  N2  UNL     1      -3.383  -0.792   0.130  0.00  0.00    +0.000 NA
ATOM     21  C2  UNL     1      -3.952   0.268  -0.362  0.00  0.00    +0.000 C 
BRANCH  21  22
ATOM     22  C3  UNL     1      -5.422   0.408  -0.368  0.00  0.00    +0.000 A 
ATOM     23  C4  UNL     1      -6.000   1.576  -0.885  0.00  0.00    +0.000 A 
ATOM     24  C5  UNL     1      -7.389   1.733  -0.903  0.00  0.00    +0.000 A 
ATOM     25  C6  UNL     1      -8.228   0.720  -0.404  0.00  0.00    +0.000 A 
ATOM     26  C7  UNL     1      -7.647  -0.450   0.113  0.00  0.00    +0.000 A 
ATOM     27  C8  UNL     1      -6.258  -0.606   0.131  0.00  0.00    +0.000 A 
BRANCH  25  28
ATOM     28  N3  UNL     1      -9.659   0.877  -0.421  0.00  0.00    +0.000 N 
ATOM     29  O2  UNL     1     -10.181   1.915  -0.879  0.00  0.00    +0.000 OA
ATOM     30  O3  UNL     1     -10.477  -0.115   0.068  0.00  0.00    +0.000 OA
ENDBRANCH  25  28
ENDBRANCH  21  22
ENDBRANCH   3  20
TORSDOF 5
