REMARK  Name = resultss/4CJN/ligands/lig_377_t0.pdb
REMARK  6 active torsions:
REMARK  status: ('A' for Active; 'I' for Inactive)
REMARK    1  A    between atoms: C1_1  and  O1_2
REMARK    2  A    between atoms: O1_2  and  C2_3
REMARK    3  A    between atoms: C5_6  and  C6_7
REMARK    4  A    between atoms: N1_11  and  C9_12
REMARK    5  A    between atoms: C12_15  and  S2_16
REMARK    6  A    between atoms: S2_16  and  N2_17
REMARK                            x       y       z     vdW  Elec       q    Type
REMARK                         _______ _______ _______ _____ _____    ______ ____
ROOT
ATOM      1  C6  UNL     1      -2.031   0.208  -0.815  0.00  0.00    +0.000 C 
ATOM      2  C7  UNL     1      -1.059   0.259   0.109  0.00  0.00    +0.000 C 
ATOM      3  S1  UNL     1       0.674   0.225  -0.368  0.00  0.00    +0.000 S 
ATOM      4  C8  UNL     1       1.100   0.178   1.388  0.00  0.00    +0.000 C 
ATOM      5  N1  UNL     1       2.284  -0.110   1.844  0.00  0.00    +0.000 NA
ATOM      6  N3  UNL     1      -0.002   0.308   2.275  0.00  0.00    +0.000 N 
ATOM      7  C15 UNL     1      -1.222   0.379   1.562  0.00  0.00    +0.000 C 
ATOM      8  O4  UNL     1      -2.319   0.583   2.145  0.00  0.00    +0.000 OA
ATOM      9  H13 UNL     1       0.073   0.317   3.317  0.00  0.00    +0.000 HD
ENDROOT
BRANCH   1  13
ATOM     10  C2  UNL     1      -6.248  -0.071  -0.073  0.00  0.00    +0.000 A 
ATOM     11  C3  UNL     1      -5.366  -0.972   0.535  0.00  0.00    +0.000 A 
ATOM     12  C4  UNL     1      -3.990  -0.883   0.307  0.00  0.00    +0.000 A 
ATOM     13  C5  UNL     1      -3.474   0.129  -0.518  0.00  0.00    +0.000 A 
ATOM     14  C16 UNL     1      -4.356   1.014  -1.153  0.00  0.00    +0.000 A 
ATOM     15  C17 UNL     1      -5.733   0.925  -0.925  0.00  0.00    +0.000 A 
BRANCH  10  17
ATOM     16  C1  UNL     1      -8.627   0.643  -0.360  0.00  0.00    +0.000 C 
ATOM     17  O1  UNL     1      -7.620  -0.201   0.190  0.00  0.00    +0.000 OA
ENDBRANCH  10  17
ENDBRANCH   1  13
BRANCH   5  18
ATOM     18  C9  UNL     1       3.478  -0.267   1.063  0.00  0.00    +0.000 A 
ATOM     19  C10 UNL     1       3.834   0.659   0.067  0.00  0.00    +0.000 A 
ATOM     20  C11 UNL     1       5.026   0.504  -0.646  0.00  0.00    +0.000 A 
ATOM     21  C12 UNL     1       5.883  -0.567  -0.362  0.00  0.00    +0.000 A 
ATOM     22  C13 UNL     1       5.551  -1.467   0.660  0.00  0.00    +0.000 A 
ATOM     23  C14 UNL     1       4.359  -1.311   1.373  0.00  0.00    +0.000 A 
BRANCH  21  24
ATOM     24  S2  UNL     1       7.392  -0.751  -1.250  0.00  0.00    +0.000 S 
ATOM     25  O2  UNL     1       7.788  -2.200  -1.288  0.00  0.00    +0.000 OA
ATOM     26  O3  UNL     1       7.213  -0.264  -2.661  0.00  0.00    +0.000 OA
BRANCH  24  27
ATOM     27  N2  UNL     1       8.633   0.166  -0.471  0.00  0.00    +0.000 NA
ATOM     28  H9  UNL     1       9.491   0.082  -1.061  0.00  0.00    +0.000 HD
ATOM     29  H10 UNL     1       8.339   1.168  -0.505  0.00  0.00    +0.000 HD
ENDBRANCH  24  27
ENDBRANCH  21  24
ENDBRANCH   5  18
TORSDOF 5
