REMARK  Name = resultss/4CJN/ligands/lig_216_t0.pdb
REMARK  14 active torsions:
REMARK  status: ('A' for Active; 'I' for Inactive)
REMARK    1  A    between atoms: C1_1  and  C2_2
REMARK    2  A    between atoms: C2_2  and  C3_3
REMARK    3  A    between atoms: C4_4  and  C5_5
REMARK    4  A    between atoms: C5_5  and  C6_6
REMARK    5  A    between atoms: C8_8  and  C9_9
REMARK    6  A    between atoms: C12_13  and  O2_14
REMARK    7  A    between atoms: C13_15  and  C14_16
REMARK    8  A    between atoms: C14_16  and  C15_17
REMARK    9  A    between atoms: C16_18  and  C17_19
REMARK   10  A    between atoms: C16_18  and  C18_20
REMARK   11  A    between atoms: C19_21  and  O3_22
REMARK   12  A    between atoms: C22_26  and  O5_27
REMARK   13  A    between atoms: C24_29  and  O6_30
REMARK   14  A    between atoms: C25_31  and  O7_32
REMARK                            x       y       z     vdW  Elec       q    Type
REMARK                         _______ _______ _______ _____ _____    ______ ____
ROOT
ATOM      1  C9  UNL     1      -0.599  -0.083  -0.156  0.00  0.00    +0.000 A 
ATOM      2  O1  UNL     1       0.341  -0.429  -1.025  0.00  0.00    +0.000 OA
ATOM      3  C10 UNL     1       1.620  -0.579  -0.701  0.00  0.00    +0.000 A 
ATOM      4  C11 UNL     1       2.517  -0.971  -1.691  0.00  0.00    +0.000 A 
ATOM      5  C12 UNL     1       3.868  -1.157  -1.406  0.00  0.00    +0.000 A 
ATOM      6  C13 UNL     1       4.346  -0.948  -0.091  0.00  0.00    +0.000 A 
ATOM      7  C19 UNL     1       3.458  -0.475   0.907  0.00  0.00    +0.000 A 
ATOM      8  C20 UNL     1       2.067  -0.349   0.622  0.00  0.00    +0.000 A 
ATOM      9  C21 UNL     1       1.080  -0.028   1.585  0.00  0.00    +0.000 A 
ATOM     10  O4  UNL     1       1.366   0.079   2.807  0.00  0.00    +0.000 OA
ATOM     11  C22 UNL     1      -0.256   0.140   1.188  0.00  0.00    +0.000 A 
ENDROOT
BRANCH   1  14
ATOM     12  C6  UNL     1      -4.377  -0.401  -0.441  0.00  0.00    +0.000 A 
ATOM     13  C7  UNL     1      -3.070  -0.496   0.060  0.00  0.00    +0.000 A 
ATOM     14  C8  UNL     1      -1.989   0.054  -0.647  0.00  0.00    +0.000 A 
ATOM     15  C23 UNL     1      -2.225   0.683  -1.877  0.00  0.00    +0.000 A 
ATOM     16  C24 UNL     1      -3.526   0.798  -2.381  0.00  0.00    +0.000 A 
ATOM     17  C25 UNL     1      -4.607   0.265  -1.660  0.00  0.00    +0.000 A 
BRANCH  16  18
ATOM     18  O6  UNL     1      -3.747   1.437  -3.601  0.00  0.00    +0.000 OA
ATOM     19  H25 UNL     1      -2.983   1.826  -4.141  0.00  0.00    +0.000 HD
ENDBRANCH  16  18
BRANCH  17  20
ATOM     20  O7  UNL     1      -5.910   0.385  -2.145  0.00  0.00    +0.000 OA
ATOM     21  H26 UNL     1      -6.118   0.840  -3.027  0.00  0.00    +0.000 HD
ENDBRANCH  17  20
BRANCH  12  22
ATOM     22  C5  UNL     1      -5.522  -0.987   0.345  0.00  0.00    +0.000 C 
BRANCH  22  26
ATOM     23  C1  UNL     1      -8.495  -0.511   0.500  0.00  0.00    +0.000 C 
ATOM     24  C2  UNL     1      -7.494   0.295   1.294  0.00  0.00    +0.000 C 
ATOM     25  C3  UNL     1      -7.983   1.371   2.228  0.00  0.00    +0.000 C 
ATOM     26  C4  UNL     1      -6.162   0.082   1.197  0.00  0.00    +0.000 C 
ENDBRANCH  22  26
ENDBRANCH  12  22
ENDBRANCH   1  14
BRANCH   5  27
ATOM     27  O2  UNL     1       4.709  -1.526  -2.461  0.00  0.00    +0.000 OA
ATOM     28  H12 UNL     1       5.716  -1.608  -2.375  0.00  0.00    +0.000 HD
ENDBRANCH   5  27
BRANCH   7  29
ATOM     29  O3  UNL     1       4.005  -0.109   2.144  0.00  0.00    +0.000 OA
ATOM     30  H22 UNL     1       3.595   0.573   2.764  0.00  0.00    +0.000 HD
ENDBRANCH   7  29
BRANCH  11  31
ATOM     31  O5  UNL     1      -1.230   0.540   2.106  0.00  0.00    +0.000 OA
ATOM     32  H23 UNL     1      -1.019   0.707   3.084  0.00  0.00    +0.000 HD
ENDBRANCH  11  31
BRANCH   6  33
ATOM     33  C14 UNL     1       5.816  -1.121   0.236  0.00  0.00    +0.000 C 
BRANCH  33  34
ATOM     34  C15 UNL     1       6.601   0.101  -0.183  0.00  0.00    +0.000 C 
ATOM     35  C16 UNL     1       7.859   0.366   0.249  0.00  0.00    +0.000 C 
ATOM     36  C17 UNL     1       8.565   1.616  -0.213  0.00  0.00    +0.000 C 
ATOM     37  C18 UNL     1       8.565  -0.530   1.238  0.00  0.00    +0.000 C 
ENDBRANCH  33  34
ENDBRANCH   6  33
TORSDOF 10
