REMARK  Name = resultss/4CJN/ligands/lig_37_t2.pdb
REMARK  3 active torsions:
REMARK  status: ('A' for Active; 'I' for Inactive)
REMARK    1  A    between atoms: C2_3  and  C3_4
REMARK    2  A    between atoms: C6_7  and  O2_8
REMARK    3  A    between atoms: C12_15  and  O4_16
REMARK                            x       y       z     vdW  Elec       q    Type
REMARK                         _______ _______ _______ _____ _____    ______ ____
ROOT
ATOM      1  O1  UNL     1       0.113   1.975  -0.352  0.00  0.00    +0.000 OA
ATOM      2  C1  UNL     1       0.441   0.768  -0.194  0.00  0.00    +0.000 A 
ATOM      3  C2  UNL     1      -0.552  -0.215  -0.025  0.00  0.00    +0.000 A 
ATOM      4  C9  UNL     1      -0.145  -1.549   0.106  0.00  0.00    +0.000 A 
ATOM      5  O3  UNL     1       1.142  -1.872   0.082  0.00  0.00    +0.000 OA
ATOM      6  C10 UNL     1       2.113  -0.976  -0.065  0.00  0.00    +0.000 A 
ATOM      7  C11 UNL     1       3.538  -1.472  -0.072  0.00  0.00    +0.000 C 
ATOM      8  C12 UNL     1       4.593  -0.405  -0.259  0.00  0.00    +0.000 C 
ATOM      9  C13 UNL     1       4.290   0.889  -0.396  0.00  0.00    +0.000 C 
ATOM     10  C14 UNL     1       2.902   1.361  -0.377  0.00  0.00    +0.000 C 
ATOM     11  O5  UNL     1       2.673   2.594  -0.503  0.00  0.00    +0.000 OA
ATOM     12  C15 UNL     1       1.799   0.389  -0.209  0.00  0.00    +0.000 A 
ENDROOT
BRANCH   3  13
ATOM     13  C3  UNL     1      -1.997   0.125   0.013  0.00  0.00    +0.000 A 
ATOM     14  C4  UNL     1      -2.469   1.161   0.838  0.00  0.00    +0.000 A 
ATOM     15  C5  UNL     1      -3.832   1.471   0.876  0.00  0.00    +0.000 A 
ATOM     16  C6  UNL     1      -4.740   0.749   0.096  0.00  0.00    +0.000 A 
ATOM     17  C7  UNL     1      -4.279  -0.290  -0.724  0.00  0.00    +0.000 A 
ATOM     18  C8  UNL     1      -2.917  -0.602  -0.764  0.00  0.00    +0.000 A 
BRANCH  16  19
ATOM     19  O2  UNL     1      -6.095   1.069   0.143  0.00  0.00    +0.000 OA
ATOM     20  H3  UNL     1      -6.778   0.564  -0.409  0.00  0.00    +0.000 HD
ENDBRANCH  16  19
ENDBRANCH   3  13
BRANCH   8  21
ATOM     21  O4  UNL     1       5.933  -0.782  -0.288  0.00  0.00    +0.000 OA
ATOM     22  H9  UNL     1       6.206  -1.753  -0.187  0.00  0.00    +0.000 HD
ENDBRANCH   8  21
TORSDOF 3
