REMARK  Name = resultss/4CJN/ligands/lig_408_t1.pdb
REMARK  5 active torsions:
REMARK  status: ('A' for Active; 'I' for Inactive)
REMARK    1  A    between atoms: C1_2  and  C9_15
REMARK    2  A    between atoms: N1_3  and  N2_4
REMARK    3  A    between atoms: C2_5  and  S1_6
REMARK    4  A    between atoms: N3_7  and  C3_8
REMARK    5  A    between atoms: C19_26  and  C20_27
REMARK                            x       y       z     vdW  Elec       q    Type
REMARK                         _______ _______ _______ _____ _____    ______ ____
ROOT
ATOM      1  C9  UNL     1       0.257  -0.706  -0.043  0.00  0.00    +0.000 A 
ATOM      2  C10 UNL     1       0.895  -1.902  -0.435  0.00  0.00    +0.000 A 
ATOM      3  C11 UNL     1       2.281  -1.878  -0.534  0.00  0.00    +0.000 A 
ATOM      4  C12 UNL     1       3.014  -0.737  -0.283  0.00  0.00    +0.000 A 
ATOM      5  N4  UNL     1       4.343  -0.973  -0.396  0.00  0.00    +0.000 N 
ATOM      6  C13 UNL     1       4.436  -2.280  -0.733  0.00  0.00    +0.000 A 
ATOM      7  C14 UNL     1       5.603  -3.015  -0.948  0.00  0.00    +0.000 A 
ATOM      8  C15 UNL     1       5.475  -4.383  -1.263  0.00  0.00    +0.000 A 
ATOM      9  C16 UNL     1       4.198  -4.983  -1.351  0.00  0.00    +0.000 A 
ATOM     10  C17 UNL     1       3.034  -4.222  -1.130  0.00  0.00    +0.000 A 
ATOM     11  C18 UNL     1       3.192  -2.869  -0.827  0.00  0.00    +0.000 A 
ATOM     12  C19 UNL     1       2.367   0.450   0.089  0.00  0.00    +0.000 A 
ATOM     13  N5  UNL     1       1.006   0.418   0.208  0.00  0.00    +0.000 NA
ATOM     14  H9  UNL     1       5.134  -0.314  -0.226  0.00  0.00    +0.000 HD
ENDROOT
BRANCH  12  15
ATOM     15  C20 UNL     1       3.089   1.715   0.336  0.00  0.00    +0.000 A 
ATOM     16  C21 UNL     1       4.063   2.177  -0.565  0.00  0.00    +0.000 A 
ATOM     17  C22 UNL     1       4.712   3.394  -0.341  0.00  0.00    +0.000 A 
ATOM     18  C23 UNL     1       4.389   4.163   0.778  0.00  0.00    +0.000 A 
ATOM     19  C24 UNL     1       3.410   3.720   1.671  0.00  0.00    +0.000 A 
ATOM     20  C25 UNL     1       2.754   2.506   1.447  0.00  0.00    +0.000 A 
ENDBRANCH  12  15
BRANCH   1  22
ATOM     21  O1  UNL     1      -1.931  -1.505  -0.492  0.00  0.00    +0.000 OA
ATOM     22  C1  UNL     1      -1.211  -0.644   0.082  0.00  0.00    +0.000 C 
ATOM     23  N1  UNL     1      -1.828   0.379   0.871  0.00  0.00    +0.000 N 
ATOM     24  H1  UNL     1      -1.225   1.019   1.436  0.00  0.00    +0.000 HD
BRANCH  23  25
ATOM     25  N2  UNL     1      -3.221   0.551   0.824  0.00  0.00    +0.000 NA
ATOM     26  C2  UNL     1      -3.886   1.362   1.593  0.00  0.00    +0.000 C 
ATOM     27  N3  UNL     1      -5.313   1.457   1.475  0.00  0.00    +0.000 N 
ATOM     28  H3  UNL     1      -5.841   1.864   2.282  0.00  0.00    +0.000 HD
BRANCH  27  29
ATOM     29  C3  UNL     1      -6.067   0.917   0.376  0.00  0.00    +0.000 A 
ATOM     30  C4  UNL     1      -7.328   0.346   0.617  0.00  0.00    +0.000 A 
ATOM     31  C5  UNL     1      -8.084  -0.175  -0.440  0.00  0.00    +0.000 A 
ATOM     32  C6  UNL     1      -7.595  -0.115  -1.749  0.00  0.00    +0.000 A 
ATOM     33  C7  UNL     1      -6.351   0.471  -2.002  0.00  0.00    +0.000 A 
ATOM     34  F1  UNL     1      -5.883   0.546  -3.272  0.00  0.00    +0.000 F 
ATOM     35  C8  UNL     1      -5.590   0.992  -0.946  0.00  0.00    +0.000 A 
ENDBRANCH  27  29
BRANCH  26  36
ATOM     36  S1  UNL     1      -3.076   2.305   2.898  0.00  0.00    +0.000 S 
ATOM     37  H2  UNL     1      -2.870   3.403   2.050  0.00  0.00    +0.000 HD
ENDBRANCH  26  36
ENDBRANCH  23  25
ENDBRANCH   1  22
TORSDOF 5
