REMARK  Name = resultss/4CJN/ligands/lig_422_t1.pdb
REMARK  7 active torsions:
REMARK  status: ('A' for Active; 'I' for Inactive)
REMARK    1  A    between atoms: C1_2  and  C10_19
REMARK    2  A    between atoms: N1_3  and  N2_4
REMARK    3  A    between atoms: C2_5  and  S1_6
REMARK    4  A    between atoms: N3_7  and  C3_8
REMARK    5  A    between atoms: C8_13  and  O2_14
REMARK    6  A    between atoms: O2_14  and  C9_15
REMARK    7  A    between atoms: C20_30  and  C21_31
REMARK                            x       y       z     vdW  Elec       q    Type
REMARK                         _______ _______ _______ _____ _____    ______ ____
ROOT
ATOM      1  O1  UNL     1       1.039   1.831  -0.027  0.00  0.00    +0.000 OA
ATOM      2  C1  UNL     1       0.452   0.715   0.013  0.00  0.00    +0.000 C 
ATOM      3  N1  UNL     1       1.225  -0.492   0.105  0.00  0.00    +0.000 N 
ATOM      4  H1  UNL     1       0.783  -1.394  -0.178  0.00  0.00    +0.000 HD
ENDROOT
BRANCH   2   5
ATOM      5  C10 UNL     1      -1.024   0.656  -0.046  0.00  0.00    +0.000 A 
ATOM      6  C11 UNL     1      -1.789   1.834  -0.186  0.00  0.00    +0.000 A 
ATOM      7  C12 UNL     1      -3.172   1.694  -0.214  0.00  0.00    +0.000 A 
ATOM      8  C13 UNL     1      -3.786   0.464  -0.116  0.00  0.00    +0.000 A 
ATOM      9  N4  UNL     1      -5.135   0.588  -0.101  0.00  0.00    +0.000 N 
ATOM     10  C14 UNL     1      -5.362   1.915  -0.211  0.00  0.00    +0.000 A 
ATOM     11  C15 UNL     1      -6.598   2.558  -0.231  0.00  0.00    +0.000 A 
ATOM     12  C16 UNL     1      -6.609   3.962  -0.333  0.00  0.00    +0.000 A 
ATOM     13  C17 UNL     1      -5.397   4.686  -0.406  0.00  0.00    +0.000 A 
ATOM     14  C18 UNL     1      -4.161   4.016  -0.379  0.00  0.00    +0.000 A 
ATOM     15  C19 UNL     1      -4.182   2.625  -0.284  0.00  0.00    +0.000 A 
ATOM     16  C20 UNL     1      -3.016  -0.699   0.009  0.00  0.00    +0.000 A 
ATOM     17  N5  UNL     1      -1.656  -0.558   0.050  0.00  0.00    +0.000 NA
ATOM     18  H9  UNL     1      -5.853  -0.162   0.009  0.00  0.00    +0.000 HD
BRANCH  16  19
ATOM     19  C21 UNL     1      -3.607  -2.050   0.103  0.00  0.00    +0.000 A 
ATOM     20  C22 UNL     1      -3.115  -2.963   1.051  0.00  0.00    +0.000 A 
ATOM     21  C23 UNL     1      -3.650  -4.252   1.135  0.00  0.00    +0.000 A 
ATOM     22  C24 UNL     1      -4.669  -4.645   0.264  0.00  0.00    +0.000 A 
ATOM     23  C25 UNL     1      -5.150  -3.752  -0.697  0.00  0.00    +0.000 A 
ATOM     24  C26 UNL     1      -4.618  -2.462  -0.784  0.00  0.00    +0.000 A 
ENDBRANCH  16  19
ENDBRANCH   2   5
BRANCH   3  25
ATOM     25  N2  UNL     1       2.624  -0.460   0.233  0.00  0.00    +0.000 NA
ATOM     26  C2  UNL     1       3.243   0.035   1.265  0.00  0.00    +0.000 C 
ATOM     27  N3  UNL     1       4.678   0.087   1.294  0.00  0.00    +0.000 N 
ATOM     28  H3  UNL     1       5.122   0.704   2.010  0.00  0.00    +0.000 HD
BRANCH  27  29
ATOM     29  C3  UNL     1       5.529  -0.573   0.339  0.00  0.00    +0.000 A 
ATOM     30  C4  UNL     1       5.238  -1.878  -0.098  0.00  0.00    +0.000 A 
ATOM     31  C5  UNL     1       6.081  -2.524  -1.004  0.00  0.00    +0.000 A 
ATOM     32  C6  UNL     1       7.227  -1.883  -1.472  0.00  0.00    +0.000 A 
ATOM     33  C7  UNL     1       7.539  -0.595  -1.032  0.00  0.00    +0.000 A 
ATOM     34  C8  UNL     1       6.696   0.071  -0.119  0.00  0.00    +0.000 A 
BRANCH  34  35
ATOM     35  O2  UNL     1       6.974   1.368   0.347  0.00  0.00    +0.000 OA
BRANCH  35  36
ATOM     36  C9  UNL     1       8.105   2.156  -0.020  0.00  0.00    +0.000 C 
ATOM     37  F1  UNL     1       9.273   1.512   0.346  0.00  0.00    +0.000 F 
ATOM     38  F2  UNL     1       8.039   3.368   0.639  0.00  0.00    +0.000 F 
ATOM     39  F3  UNL     1       8.101   2.389  -1.383  0.00  0.00    +0.000 F 
ENDBRANCH  35  36
ENDBRANCH  34  35
ENDBRANCH  27  29
BRANCH  26  40
ATOM     40  S1  UNL     1       2.337   0.658   2.689  0.00  0.00    +0.000 S 
ATOM     41  H2  UNL     1       2.345  -0.605   3.310  0.00  0.00    +0.000 HD
ENDBRANCH  26  40
ENDBRANCH   3  25
TORSDOF 7
