REMARK  Name = resultss/4CJN/ligands/lig_281_t1.pdb
REMARK  12 active torsions:
REMARK  status: ('A' for Active; 'I' for Inactive)
REMARK    1  A    between atoms: C2_2  and  C3_3
REMARK    2  A    between atoms: C3_3  and  C4_4
REMARK    3  A    between atoms: C6_6  and  C7_7
REMARK    4  A    between atoms: C9_9  and  C10_10
REMARK    5  A    between atoms: C10_10  and  C11_11
REMARK    6  A    between atoms: C13_13  and  O1_14
REMARK    7  A    between atoms: C14_15  and  C15_16
REMARK    8  A    between atoms: C15_16  and  C16_17
REMARK    9  A    between atoms: C15_16  and  N1_24
REMARK   10  A    between atoms: C28_33  and  C29_34
REMARK   11  A    between atoms: C29_34  and  C30_35
REMARK   12  A    between atoms: C29_34  and  N2_42
REMARK                            x       y       z     vdW  Elec       q    Type
REMARK                         _______ _______ _______ _____ _____    ______ ____
ROOT
ATOM      1  C7  UNL     1      -0.717   0.391   0.203  0.00  0.00    +0.000 A 
ATOM      2  C8  UNL     1      -0.918  -0.276   1.421  0.00  0.00    +0.000 A 
ATOM      3  C9  UNL     1      -2.159  -0.847   1.734  0.00  0.00    +0.000 A 
ATOM      4  C13 UNL     1      -3.223  -0.755   0.803  0.00  0.00    +0.000 A 
ATOM      5  C14 UNL     1      -3.032  -0.067  -0.419  0.00  0.00    +0.000 A 
ATOM      6  C26 UNL     1      -1.775   0.489  -0.707  0.00  0.00    +0.000 A 
ENDROOT
BRANCH   1   9
ATOM      7  C4  UNL     1       2.113   2.344   1.404  0.00  0.00    +0.000 C 
ATOM      8  C5  UNL     1       0.894   2.127   0.889  0.00  0.00    +0.000 C 
ATOM      9  C6  UNL     1       0.618   1.032  -0.111  0.00  0.00    +0.000 C 
ATOM     10  C27 UNL     1       1.722   0.000  -0.162  0.00  0.00    +0.000 C 
ATOM     11  O3  UNL     1       1.505  -1.112  -0.718  0.00  0.00    +0.000 OA
ATOM     12  C28 UNL     1       3.076   0.325   0.350  0.00  0.00    +0.000 C 
ATOM     13  C40 UNL     1       3.243   1.455   1.065  0.00  0.00    +0.000 C 
BRANCH   7  14
ATOM     14  C3  UNL     1       2.321   3.442   2.415  0.00  0.00    +0.000 C 
BRANCH  14  16
ATOM     15  C1  UNL     1       1.165   2.420   4.358  0.00  0.00    +0.000 C 
ATOM     16  C2  UNL     1       2.291   2.887   3.812  0.00  0.00    +0.000 C 
ENDBRANCH  14  16
ENDBRANCH   7  14
BRANCH  12  17
ATOM     17  C29 UNL     1       4.266  -0.566  -0.026  0.00  0.00    +0.000 C 
BRANCH  17  18
ATOM     18  C30 UNL     1       5.335  -0.591   1.059  0.00  0.00    +0.000 A 
ATOM     19  C31 UNL     1       5.086  -1.303   2.250  0.00  0.00    +0.000 A 
ATOM     20  C32 UNL     1       6.018  -1.298   3.291  0.00  0.00    +0.000 A 
ATOM     21  C33 UNL     1       7.206  -0.574   3.164  0.00  0.00    +0.000 A 
ATOM     22 CL2  UNL     1       8.374  -0.564   4.471  0.00  0.00    +0.000 Cl
ATOM     23  C34 UNL     1       7.462   0.147   1.994  0.00  0.00    +0.000 A 
ATOM     24  C35 UNL     1       6.535   0.141   0.948  0.00  0.00    +0.000 A 
ENDBRANCH  17  18
BRANCH  17  25
ATOM     25  N2  UNL     1       4.865  -0.250  -1.360  0.00  0.00    +0.000 NA
ATOM     26  C36 UNL     1       4.662   1.134  -1.843  0.00  0.00    +0.000 C 
ATOM     27  C37 UNL     1       5.420   1.334  -3.159  0.00  0.00    +0.000 C 
ATOM     28  O4  UNL     1       4.963   0.421  -4.137  0.00  0.00    +0.000 OA
ATOM     29  C38 UNL     1       5.219  -0.904  -3.707  0.00  0.00    +0.000 C 
ATOM     30  C39 UNL     1       4.466  -1.213  -2.405  0.00  0.00    +0.000 C 
ENDBRANCH  17  25
ENDBRANCH  12  17
ENDBRANCH   1   9
BRANCH   4  31
ATOM     31  O1  UNL     1      -4.473  -1.319   1.071  0.00  0.00    +0.000 OA
ATOM     32  H14 UNL     1      -4.690  -1.827   1.916  0.00  0.00    +0.000 HD
ENDBRANCH   4  31
BRANCH   3  33
ATOM     33  C10 UNL     1      -2.318  -1.551   3.061  0.00  0.00    +0.000 C 
BRANCH  33  34
ATOM     34  C11 UNL     1      -2.342  -3.045   2.883  0.00  0.00    +0.000 C 
ATOM     35  C12 UNL     1      -1.243  -3.725   2.545  0.00  0.00    +0.000 C 
ENDBRANCH  33  34
ENDBRANCH   3  33
BRANCH   5  36
ATOM     36  C15 UNL     1      -4.146   0.069  -1.454  0.00  0.00    +0.000 C 
BRANCH  36  37
ATOM     37  C16 UNL     1      -4.327  -1.282  -2.133  0.00  0.00    +0.000 A 
ATOM     38  C17 UNL     1      -5.316  -2.198  -1.722  0.00  0.00    +0.000 A 
ATOM     39  C18 UNL     1      -5.436  -3.441  -2.350  0.00  0.00    +0.000 A 
ATOM     40  C19 UNL     1      -4.566  -3.790  -3.386  0.00  0.00    +0.000 A 
ATOM     41 CL1  UNL     1      -4.717  -5.352  -4.174  0.00  0.00    +0.000 Cl
ATOM     42  C20 UNL     1      -3.574  -2.894  -3.793  0.00  0.00    +0.000 A 
ATOM     43  C21 UNL     1      -3.449  -1.651  -3.167  0.00  0.00    +0.000 A 
ENDBRANCH  36  37
BRANCH  36  44
ATOM     44  N1  UNL     1      -5.414   0.596  -0.870  0.00  0.00    +0.000 NA
ATOM     45  C22 UNL     1      -5.177   1.804  -0.038  0.00  0.00    +0.000 C 
ATOM     46  C23 UNL     1      -6.462   2.637   0.117  0.00  0.00    +0.000 C 
ATOM     47  O2  UNL     1      -6.991   3.116  -1.112  0.00  0.00    +0.000 OA
ATOM     48  C24 UNL     1      -6.609   2.337  -2.235  0.00  0.00    +0.000 C 
ATOM     49  C25 UNL     1      -6.449   0.841  -1.911  0.00  0.00    +0.000 C 
ENDBRANCH  36  44
ENDBRANCH   5  36
TORSDOF 12
