REMARK  Name = resultss/4CJN/ligands/lig_174_t1.pdb
REMARK  9 active torsions:
REMARK  status: ('A' for Active; 'I' for Inactive)
REMARK    1  A    between atoms: C1_1  and  O1_2
REMARK    2  A    between atoms: O1_2  and  C2_3
REMARK    3  A    between atoms: C4_5  and  C5_6
REMARK    4  A    between atoms: N1_7  and  N2_8
REMARK    5  A    between atoms: C6_9  and  O2_10
REMARK    6  A    between atoms: C6_9  and  C7_11
REMARK    7  A    between atoms: C10_14  and  C11_15
REMARK    8  A    between atoms: C21_27  and  O3_28
REMARK    9  A    between atoms: O3_28  and  C22_29
REMARK                            x       y       z     vdW  Elec       q    Type
REMARK                         _______ _______ _______ _____ _____    ______ ____
ROOT
ATOM      1  N2  UNL     1       0.918  -0.715  -0.376  0.00  0.00    +0.000 NA
ATOM      2  C6  UNL     1       0.158   0.344  -0.424  0.00  0.00    +0.000 C 
ENDROOT
BRANCH   2   3
ATOM      3  C7  UNL     1      -1.318   0.192  -0.412  0.00  0.00    +0.000 A 
ATOM      4  C8  UNL     1      -2.145   1.326  -0.482  0.00  0.00    +0.000 A 
ATOM      5  C9  UNL     1      -3.537   1.194  -0.471  0.00  0.00    +0.000 A 
ATOM      6  C10 UNL     1      -4.134  -0.075  -0.389  0.00  0.00    +0.000 A 
ATOM      7  C18 UNL     1      -3.308  -1.210  -0.318  0.00  0.00    +0.000 A 
ATOM      8  C19 UNL     1      -1.917  -1.078  -0.330  0.00  0.00    +0.000 A 
BRANCH   6   9
ATOM      9  C11 UNL     1      -5.610  -0.204  -0.377  0.00  0.00    +0.000 A 
ATOM     10  N3  UNL     1      -6.449   0.863  -0.444  0.00  0.00    +0.000 NA
ATOM     11  C12 UNL     1      -7.749   0.475  -0.416  0.00  0.00    +0.000 A 
ATOM     12  C13 UNL     1      -8.835   1.350  -0.469  0.00  0.00    +0.000 A 
ATOM     13  C14 UNL     1     -10.135   0.816  -0.433  0.00  0.00    +0.000 A 
ATOM     14  C15 UNL     1     -10.333  -0.577  -0.344  0.00  0.00    +0.000 A 
ATOM     15  C16 UNL     1      -9.232  -1.447  -0.290  0.00  0.00    +0.000 A 
ATOM     16  C17 UNL     1      -7.956  -0.892  -0.329  0.00  0.00    +0.000 A 
ATOM     17  S1  UNL     1      -6.470  -1.667  -0.282  0.00  0.00    +0.000 S 
ENDBRANCH   6   9
ENDBRANCH   2   3
BRANCH   1  19
ATOM     18  C5  UNL     1       2.952  -0.066   0.657  0.00  0.00    +0.000 C 
ATOM     19  N1  UNL     1       2.322  -0.687  -0.294  0.00  0.00    +0.000 NA
BRANCH  18  22
ATOM     20  C2  UNL     1       6.611  -0.649  -0.202  0.00  0.00    +0.000 A 
ATOM     21  C3  UNL     1       5.206  -0.685  -0.271  0.00  0.00    +0.000 A 
ATOM     22  C4  UNL     1       4.428  -0.044   0.709  0.00  0.00    +0.000 A 
ATOM     23  C20 UNL     1       5.066   0.633   1.758  0.00  0.00    +0.000 A 
ATOM     24  C21 UNL     1       6.462   0.677   1.839  0.00  0.00    +0.000 A 
ATOM     25  C23 UNL     1       7.230   0.031   0.853  0.00  0.00    +0.000 A 
BRANCH  20  27
ATOM     26  C1  UNL     1       6.941  -1.999  -2.282  0.00  0.00    +0.000 C 
ATOM     27  O1  UNL     1       7.428  -1.273  -1.158  0.00  0.00    +0.000 OA
ENDBRANCH  20  27
BRANCH  24  28
ATOM     28  O3  UNL     1       7.044   1.369   2.912  0.00  0.00    +0.000 OA
ATOM     29  C22 UNL     1       8.447   1.496   3.121  0.00  0.00    +0.000 C 
ENDBRANCH  24  28
ENDBRANCH  18  22
ENDBRANCH   1  19
BRANCH   2  30
ATOM     30  O2  UNL     1       0.706   1.628  -0.515  0.00  0.00    +0.000 OA
ATOM     31  H6  UNL     1       1.692   1.800  -0.662  0.00  0.00    +0.000 HD
ENDBRANCH   2  30
TORSDOF 7
