REMARK  Name = resultss/4CJN/ligands/lig_252_t0.pdb
REMARK  17 active torsions:
REMARK  status: ('A' for Active; 'I' for Inactive)
REMARK    1  A    between atoms: C2_2  and  C3_3
REMARK    2  A    between atoms: C3_3  and  C4_4
REMARK    3  A    between atoms: C6_6  and  C7_7
REMARK    4  A    between atoms: C9_9  and  C10_10
REMARK    5  A    between atoms: C10_10  and  C11_11
REMARK    6  A    between atoms: C14_15  and  S1_16
REMARK    7  A    between atoms: S1_16  and  C15_17
REMARK    8  A    between atoms: C15_17  and  C16_18
REMARK    9  A    between atoms: C17_21  and  C18_22
REMARK   10  A    between atoms: C22_26  and  O2_27
REMARK   11  A    between atoms: O2_27  and  C23_28
REMARK   12  A    between atoms: C28_36  and  S2_37
REMARK   13  A    between atoms: S2_37  and  C29_38
REMARK   14  A    between atoms: C29_38  and  C30_39
REMARK   15  A    between atoms: C31_42  and  C32_43
REMARK   16  A    between atoms: C36_47  and  O5_48
REMARK   17  A    between atoms: O5_48  and  C37_49
REMARK                            x       y       z     vdW  Elec       q    Type
REMARK                         _______ _______ _______ _____ _____    ______ ____
ROOT
ATOM      1  C4  UNL     1      -3.340  -2.262   3.387  0.00  0.00    +0.000 A 
ATOM      2  C5  UNL     1      -1.933  -2.276   3.200  0.00  0.00    +0.000 A 
ATOM      3  C6  UNL     1      -1.286  -1.270   2.444  0.00  0.00    +0.000 A 
ATOM      4  C27 UNL     1      -2.102  -0.277   1.890  0.00  0.00    +0.000 A 
ATOM      5  O4  UNL     1      -1.771   0.732   1.129  0.00  0.00    +0.000 OA
ATOM      6  C28 UNL     1      -2.902   1.356   0.852  0.00  0.00    +0.000 A 
ATOM      7  N6  UNL     1      -3.995   0.782   1.417  0.00  0.00    +0.000 NA
ATOM      8  C39 UNL     1      -3.453  -0.259   2.069  0.00  0.00    +0.000 A 
ATOM      9  C40 UNL     1      -4.115  -1.235   2.807  0.00  0.00    +0.000 A 
ENDROOT
BRANCH   3  10
ATOM     10  C7  UNL     1       0.180  -1.288   2.231  0.00  0.00    +0.000 A 
ATOM     11  C8  UNL     1       0.935  -0.084   2.302  0.00  0.00    +0.000 A 
ATOM     12  C9  UNL     1       2.334  -0.091   2.101  0.00  0.00    +0.000 A 
ATOM     13  C13 UNL     1       2.931  -1.322   1.825  0.00  0.00    +0.000 A 
ATOM     14  O1  UNL     1       4.189  -1.597   1.605  0.00  0.00    +0.000 OA
ATOM     15  C14 UNL     1       4.237  -2.903   1.402  0.00  0.00    +0.000 A 
ATOM     16  N3  UNL     1       3.027  -3.513   1.483  0.00  0.00    +0.000 NA
ATOM     17  C25 UNL     1       2.215  -2.478   1.756  0.00  0.00    +0.000 A 
ATOM     18  C26 UNL     1       0.840  -2.509   1.954  0.00  0.00    +0.000 A 
BRANCH  12  19
ATOM     19  C10 UNL     1       3.137   1.181   2.126  0.00  0.00    +0.000 C 
BRANCH  19  20
ATOM     20  C11 UNL     1       3.181   1.803   0.760  0.00  0.00    +0.000 C 
ATOM     21  C12 UNL     1       2.139   2.477   0.261  0.00  0.00    +0.000 C 
ENDBRANCH  19  20
ENDBRANCH  12  19
BRANCH  15  22
ATOM     22  S1  UNL     1       5.755  -3.793   1.070  0.00  0.00    +0.000 S 
BRANCH  22  23
ATOM     23  C15 UNL     1       5.685  -3.531  -0.731  0.00  0.00    +0.000 C 
BRANCH  23  24
ATOM     24  C16 UNL     1       6.268  -2.201  -1.070  0.00  0.00    +0.000 A 
ATOM     25  N1  UNL     1       5.544  -1.091  -1.307  0.00  0.00    +0.000 NA
ATOM     26  N2  UNL     1       6.419  -0.124  -1.538  0.00  0.00    +0.000 NA
ATOM     27  C17 UNL     1       7.641  -0.681  -1.429  0.00  0.00    +0.000 A 
ATOM     28  O3  UNL     1       7.553  -1.958  -1.139  0.00  0.00    +0.000 OA
BRANCH  27  29
ATOM     29  C18 UNL     1       8.914   0.044  -1.610  0.00  0.00    +0.000 A 
ATOM     30  C19 UNL     1      10.135  -0.634  -1.465  0.00  0.00    +0.000 A 
ATOM     31  C20 UNL     1      11.344   0.044  -1.634  0.00  0.00    +0.000 A 
ATOM     32  C21 UNL     1      11.346   1.403  -1.951  0.00  0.00    +0.000 A 
ATOM     33  C22 UNL     1      10.142   2.100  -2.102  0.00  0.00    +0.000 A 
ATOM     34  C24 UNL     1       8.923   1.413  -1.929  0.00  0.00    +0.000 A 
BRANCH  33  35
ATOM     35  O2  UNL     1      10.199   3.465  -2.422  0.00  0.00    +0.000 OA
ATOM     36  C23 UNL     1       9.057   4.296  -2.609  0.00  0.00    +0.000 C 
ENDBRANCH  33  35
ENDBRANCH  27  29
ENDBRANCH  23  24
ENDBRANCH  22  23
ENDBRANCH  15  22
ENDBRANCH   3  10
BRANCH   1  37
ATOM     37  C3  UNL     1      -4.005  -3.372   4.156  0.00  0.00    +0.000 C 
BRANCH  37  39
ATOM     38  C1  UNL     1      -4.937  -4.740   2.312  0.00  0.00    +0.000 C 
ATOM     39  C2  UNL     1      -4.076  -4.621   3.324  0.00  0.00    +0.000 C 
ENDBRANCH  37  39
ENDBRANCH   1  37
BRANCH   6  40
ATOM     40  S2  UNL     1      -2.997   2.805  -0.194  0.00  0.00    +0.000 S 
BRANCH  40  41
ATOM     41  C29 UNL     1      -3.138   1.857  -1.750  0.00  0.00    +0.000 C 
BRANCH  41  42
ATOM     42  C30 UNL     1      -4.415   1.084  -1.785  0.00  0.00    +0.000 A 
ATOM     43  N4  UNL     1      -4.483  -0.260  -1.736  0.00  0.00    +0.000 NA
ATOM     44  N5  UNL     1      -5.772  -0.564  -1.747  0.00  0.00    +0.000 NA
ATOM     45  C31 UNL     1      -6.440   0.607  -1.802  0.00  0.00    +0.000 A 
ATOM     46  O6  UNL     1      -5.610   1.624  -1.825  0.00  0.00    +0.000 OA
BRANCH  45  47
ATOM     47  C32 UNL     1      -7.910   0.728  -1.828  0.00  0.00    +0.000 A 
ATOM     48  C33 UNL     1      -8.721  -0.420  -1.804  0.00  0.00    +0.000 A 
ATOM     49  C34 UNL     1     -10.111  -0.299  -1.838  0.00  0.00    +0.000 A 
ATOM     50  C35 UNL     1     -10.705   0.964  -1.886  0.00  0.00    +0.000 A 
ATOM     51  C36 UNL     1      -9.917   2.120  -1.901  0.00  0.00    +0.000 A 
ATOM     52  C38 UNL     1      -8.514   1.997  -1.872  0.00  0.00    +0.000 A 
BRANCH  51  53
ATOM     53  O5  UNL     1     -10.564   3.364  -1.944  0.00  0.00    +0.000 OA
ATOM     54  C37 UNL     1      -9.892   4.620  -1.967  0.00  0.00    +0.000 C 
ENDBRANCH  51  53
ENDBRANCH  45  47
ENDBRANCH  41  42
ENDBRANCH  40  41
ENDBRANCH   6  40
TORSDOF 15
