REMARK  Name = resultss/4CJN/ligands/lig_419_t0.pdb
REMARK  7 active torsions:
REMARK  status: ('A' for Active; 'I' for Inactive)
REMARK    1  A    between atoms: C1_2  and  C10_18
REMARK    2  A    between atoms: N1_3  and  N2_4
REMARK    3  A    between atoms: N2_4  and  C2_5
REMARK    4  A    between atoms: C2_5  and  N3_7
REMARK    5  A    between atoms: N3_7  and  C3_8
REMARK    6  A    between atoms: C8_13  and  C9_14
REMARK    7  A    between atoms: C20_29  and  C21_30
REMARK                            x       y       z     vdW  Elec       q    Type
REMARK                         _______ _______ _______ _____ _____    ______ ____
ROOT
ATOM      1  O1  UNL     1       1.118  -1.592  -1.319  0.00  0.00    +0.000 OA
ATOM      2  C1  UNL     1       0.616  -0.924  -0.375  0.00  0.00    +0.000 C 
ATOM      3  N1  UNL     1       1.471  -0.364   0.633  0.00  0.00    +0.000 N 
ATOM      4  H1  UNL     1       1.043   0.177   1.417  0.00  0.00    +0.000 HD
ENDROOT
BRANCH   2   5
ATOM      5  C10 UNL     1      -0.849  -0.728  -0.311  0.00  0.00    +0.000 A 
ATOM      6  C11 UNL     1      -1.701  -1.330  -1.263  0.00  0.00    +0.000 A 
ATOM      7  C12 UNL     1      -3.065  -1.090  -1.139  0.00  0.00    +0.000 A 
ATOM      8  C13 UNL     1      -3.581  -0.303  -0.131  0.00  0.00    +0.000 A 
ATOM      9  N4  UNL     1      -4.923  -0.165  -0.254  0.00  0.00    +0.000 N 
ATOM     10  C14 UNL     1      -5.247  -0.894  -1.344  0.00  0.00    +0.000 A 
ATOM     11  C15 UNL     1      -6.516  -1.063  -1.896  0.00  0.00    +0.000 A 
ATOM     12  C16 UNL     1      -6.630  -1.852  -3.056  0.00  0.00    +0.000 A 
ATOM     13  C17 UNL     1      -5.486  -2.446  -3.636  0.00  0.00    +0.000 A 
ATOM     14  C18 UNL     1      -4.215  -2.257  -3.064  0.00  0.00    +0.000 A 
ATOM     15  C19 UNL     1      -4.134  -1.476  -1.913  0.00  0.00    +0.000 A 
ATOM     16  C20 UNL     1      -2.727   0.278   0.815  0.00  0.00    +0.000 A 
ATOM     17  N5  UNL     1      -1.385   0.049   0.683  0.00  0.00    +0.000 NA
ATOM     18  H9  UNL     1      -5.572   0.404   0.333  0.00  0.00    +0.000 HD
BRANCH  16  19
ATOM     19  C21 UNL     1      -3.212   1.120   1.929  0.00  0.00    +0.000 A 
ATOM     20  C22 UNL     1      -2.542   2.314   2.243  0.00  0.00    +0.000 A 
ATOM     21  C23 UNL     1      -2.974   3.106   3.312  0.00  0.00    +0.000 A 
ATOM     22  C24 UNL     1      -4.066   2.704   4.085  0.00  0.00    +0.000 A 
ATOM     23  C25 UNL     1      -4.725   1.507   3.794  0.00  0.00    +0.000 A 
ATOM     24  C26 UNL     1      -4.297   0.713   2.726  0.00  0.00    +0.000 A 
ENDBRANCH  16  19
ENDBRANCH   2   5
BRANCH   3  25
ATOM     25  N2  UNL     1       2.870  -0.491   0.557  0.00  0.00    +0.000 N 
ATOM     26  H2  UNL     1       3.303  -0.924  -0.288  0.00  0.00    +0.000 HD
BRANCH  25  27
ATOM     27  C2  UNL     1       3.739  -0.014   1.599  0.00  0.00    +0.000 C 
ATOM     28  S1  UNL     1       3.186   0.134   3.137  0.00  0.00    +0.000 S 
BRANCH  27  29
ATOM     29  N3  UNL     1       5.141   0.165   1.348  0.00  0.00    +0.000 N 
ATOM     30  H3  UNL     1       5.791   0.144   2.167  0.00  0.00    +0.000 HD
BRANCH  29  31
ATOM     31  C3  UNL     1       5.688   0.420   0.041  0.00  0.00    +0.000 A 
ATOM     32  C4  UNL     1       5.002   1.268  -0.848  0.00  0.00    +0.000 A 
ATOM     33  C5  UNL     1       5.538   1.570  -2.100  0.00  0.00    +0.000 A 
ATOM     34  C6  UNL     1       6.774   1.046  -2.474  0.00  0.00    +0.000 A 
ATOM     35  C7  UNL     1       7.473   0.208  -1.604  0.00  0.00    +0.000 A 
ATOM     36  C8  UNL     1       6.941  -0.126  -0.343  0.00  0.00    +0.000 A 
BRANCH  36  37
ATOM     37  C9  UNL     1       7.717  -1.034   0.589  0.00  0.00    +0.000 C 
ATOM     38  F1  UNL     1       8.760  -1.665  -0.067  0.00  0.00    +0.000 F 
ATOM     39  F2  UNL     1       8.240  -0.288   1.628  0.00  0.00    +0.000 F 
ATOM     40  F3  UNL     1       6.884  -2.012   1.102  0.00  0.00    +0.000 F 
ENDBRANCH  36  37
ENDBRANCH  29  31
ENDBRANCH  27  29
ENDBRANCH  25  27
ENDBRANCH   3  25
TORSDOF 7
