REMARK  Name = resultss/4CJN/ligands/lig_271_t1.pdb
REMARK  9 active torsions:
REMARK  status: ('A' for Active; 'I' for Inactive)
REMARK    1  A    between atoms: C1_1  and  O1_2
REMARK    2  A    between atoms: O1_2  and  C2_3
REMARK    3  A    between atoms: C2_3  and  C3_5
REMARK    4  A    between atoms: C6_8  and  C7_9
REMARK    5  A    between atoms: C7_9  and  N1_10
REMARK    6  A    between atoms: C8_11  and  O3_12
REMARK    7  A    between atoms: C8_11  and  C9_13
REMARK    8  A    between atoms: C10_14  and  N2_15
REMARK    9  A    between atoms: C11_16  and  C12_18
REMARK                            x       y       z     vdW  Elec       q    Type
REMARK                         _______ _______ _______ _____ _____    ______ ____
ROOT
ATOM      1  C9  UNL     1      -1.679  -1.425   1.038  0.00  0.00    +0.000 A 
ATOM      2  C10 UNL     1      -2.646  -0.533   0.571  0.00  0.00    +0.000 A 
ATOM      3  S1  UNL     1      -3.831  -1.399  -0.267  0.00  0.00    +0.000 S 
ATOM      4  C17 UNL     1      -3.145  -2.912  -0.003  0.00  0.00    +0.000 A 
ATOM      5  C18 UNL     1      -1.955  -2.761   0.700  0.00  0.00    +0.000 A 
ATOM      6  C19 UNL     1      -1.118  -3.945   1.114  0.00  0.00    +0.000 C 
ATOM      7  C20 UNL     1      -1.449  -5.192   0.274  0.00  0.00    +0.000 C 
ATOM      8  C21 UNL     1      -2.969  -5.398   0.147  0.00  0.00    +0.000 C 
ATOM      9  C22 UNL     1      -3.633  -4.210  -0.568  0.00  0.00    +0.000 C 
ENDROOT
BRANCH   2  10
ATOM     10  N2  UNL     1      -2.595   0.894   0.734  0.00  0.00    +0.000 N 
ATOM     11  C11 UNL     1      -3.685   1.779   0.419  0.00  0.00    +0.000 C 
ATOM     12  O4  UNL     1      -4.855   1.322   0.310  0.00  0.00    +0.000 OA
ATOM     13  H9  UNL     1      -1.737   1.300   1.170  0.00  0.00    +0.000 HD
BRANCH  11  14
ATOM     14  C12 UNL     1      -3.457   3.237   0.249  0.00  0.00    +0.000 A 
ATOM     15  C13 UNL     1      -4.534   4.136   0.326  0.00  0.00    +0.000 A 
ATOM     16  C14 UNL     1      -4.320   5.506   0.157  0.00  0.00    +0.000 A 
ATOM     17  C15 UNL     1      -3.031   5.971  -0.098  0.00  0.00    +0.000 A 
ATOM     18  N3  UNL     1      -1.998   5.094  -0.184  0.00  0.00    +0.000 NA
ATOM     19  C16 UNL     1      -2.177   3.756  -0.020  0.00  0.00    +0.000 A 
ENDBRANCH  11  14
ENDBRANCH   2  10
BRANCH   1  21
ATOM     20  N1  UNL     1       0.598  -0.603   1.178  0.00  0.00    +0.000 NA
ATOM     21  C8  UNL     1      -0.478  -1.010   1.785  0.00  0.00    +0.000 C 
BRANCH  21  22
ATOM     22  O3  UNL     1      -0.503  -1.071   3.174  0.00  0.00    +0.000 OA
ATOM     23  H8  UNL     1       0.301  -0.792   3.724  0.00  0.00    +0.000 HD
ENDBRANCH  21  22
BRANCH  20  24
ATOM     24  C7  UNL     1       0.743  -0.509  -0.271  0.00  0.00    +0.000 C 
BRANCH  24  28
ATOM     25  C3  UNL     1       4.791   0.717  -1.163  0.00  0.00    +0.000 A 
ATOM     26  C4  UNL     1       3.767   1.673  -1.043  0.00  0.00    +0.000 A 
ATOM     27  C5  UNL     1       2.455   1.277  -0.762  0.00  0.00    +0.000 A 
ATOM     28  C6  UNL     1       2.143  -0.082  -0.606  0.00  0.00    +0.000 A 
ATOM     29  C23 UNL     1       3.163  -1.038  -0.709  0.00  0.00    +0.000 A 
ATOM     30  C24 UNL     1       4.475  -0.644  -0.992  0.00  0.00    +0.000 A 
BRANCH  25  31
ATOM     31  C2  UNL     1       6.177   1.139  -1.460  0.00  0.00    +0.000 C 
ATOM     32  O2  UNL     1       7.101   0.280  -1.519  0.00  0.00    +0.000 OA
BRANCH  31  34
ATOM     33  C1  UNL     1       7.779   2.963  -1.946  0.00  0.00    +0.000 C 
ATOM     34  O1  UNL     1       6.463   2.491  -1.678  0.00  0.00    +0.000 OA
ENDBRANCH  31  34
ENDBRANCH  25  31
ENDBRANCH  24  28
ENDBRANCH  20  24
ENDBRANCH   1  21
TORSDOF 8
