REMARK  Name = resultss/4CJN/ligands/lig_64_t0.pdb
REMARK  6 active torsions:
REMARK  status: ('A' for Active; 'I' for Inactive)
REMARK    1  A    between atoms: N1_1  and  C1_2
REMARK    2  A    between atoms: C3_4  and  C4_5
REMARK    3  A    between atoms: C4_5  and  O1_6
REMARK    4  A    between atoms: C5_7  and  O2_8
REMARK    5  A    between atoms: C6_9  and  O3_10
REMARK    6  A    between atoms: C7_11  and  O4_12
REMARK                            x       y       z     vdW  Elec       q    Type
REMARK                         _______ _______ _______ _____ _____    ______ ____
ROOT
ATOM      1  C1  UNL     1      -1.109  -0.921   0.564  0.00  0.00    +0.000 C 
ATOM      2  C2  UNL     1      -0.183  -1.330  -0.591  0.00  0.00    +0.000 C 
ATOM      3  C3  UNL     1       1.098  -0.451  -0.643  0.00  0.00    +0.000 C 
ATOM      4  C5  UNL     1       0.866   0.987  -0.088  0.00  0.00    +0.000 C 
ATOM      5  C6  UNL     1      -0.583   1.458  -0.343  0.00  0.00    +0.000 C 
ATOM      6  C7  UNL     1      -1.607   0.549   0.394  0.00  0.00    +0.000 C 
ENDROOT
BRANCH   1   7
ATOM      7  N1  UNL     1      -2.213  -1.877   0.703  0.00  0.00    +0.000 NA
ATOM      8  H1  UNL     1      -2.762  -1.922  -0.186  0.00  0.00    +0.000 HD
ATOM      9  H2  UNL     1      -2.853  -1.546   1.461  0.00  0.00    +0.000 HD
ENDBRANCH   1   7
BRANCH   4  10
ATOM     10  O2  UNL     1       1.769   1.868  -0.709  0.00  0.00    +0.000 OA
ATOM     11  H11 UNL     1       1.940   2.610  -0.071  0.00  0.00    +0.000 HD
ENDBRANCH   4  10
BRANCH   5  12
ATOM     12  O3  UNL     1      -0.749   2.782   0.100  0.00  0.00    +0.000 OA
ATOM     13  H13 UNL     1      -0.448   3.376  -0.636  0.00  0.00    +0.000 HD
ENDBRANCH   5  12
BRANCH   6  14
ATOM     14  O4  UNL     1      -2.857   0.615  -0.248  0.00  0.00    +0.000 OA
ATOM     15  H15 UNL     1      -2.745   0.247  -1.164  0.00  0.00    +0.000 HD
ENDBRANCH   6  14
BRANCH   3  16
ATOM     16  C4  UNL     1       2.265  -1.146   0.089  0.00  0.00    +0.000 C 
BRANCH  16  17
ATOM     17  O1  UNL     1       3.460  -0.430  -0.085  0.00  0.00    +0.000 OA
ATOM     18  H9  UNL     1       3.533   0.202   0.677  0.00  0.00    +0.000 HD
ENDBRANCH  16  17
ENDBRANCH   3  16
TORSDOF 6
