REMARK  Name = resultss/4CJN/ligands/lig_427_t2.pdb
REMARK  8 active torsions:
REMARK  status: ('A' for Active; 'I' for Inactive)
REMARK    1  A    between atoms: C1_1  and  C2_2
REMARK    2  A    between atoms: C2_2  and  O1_3
REMARK    3  A    between atoms: O1_3  and  C3_4
REMARK    4  A    between atoms: C8_9  and  N1_10
REMARK    5  A    between atoms: C9_11  and  S1_12
REMARK    6  A    between atoms: N2_13  and  N3_14
REMARK    7  A    between atoms: C10_15  and  C11_17
REMARK    8  A    between atoms: C21_28  and  C22_29
REMARK                            x       y       z     vdW  Elec       q    Type
REMARK                         _______ _______ _______ _____ _____    ______ ____
ROOT
ATOM      1  C11 UNL     1      -0.651   1.010   1.546  0.00  0.00    +0.000 A 
ATOM      2  C12 UNL     1      -1.474   1.946   0.887  0.00  0.00    +0.000 A 
ATOM      3  C13 UNL     1      -2.359   1.453  -0.065  0.00  0.00    +0.000 A 
ATOM      4  C14 UNL     1      -2.454   0.108  -0.351  0.00  0.00    +0.000 A 
ATOM      5  N4  UNL     1      -3.312  -0.116  -1.375  0.00  0.00    +0.000 N 
ATOM      6  C15 UNL     1      -3.769   1.108  -1.718  0.00  0.00    +0.000 A 
ATOM      7  C16 UNL     1      -4.663   1.416  -2.742  0.00  0.00    +0.000 A 
ATOM      8  C17 UNL     1      -4.982   2.770  -2.954  0.00  0.00    +0.000 A 
ATOM      9  C18 UNL     1      -4.403   3.779  -2.151  0.00  0.00    +0.000 A 
ATOM     10  C19 UNL     1      -3.497   3.445  -1.128  0.00  0.00    +0.000 A 
ATOM     11  C20 UNL     1      -3.208   2.095  -0.936  0.00  0.00    +0.000 A 
ATOM     12  C21 UNL     1      -1.656  -0.816   0.338  0.00  0.00    +0.000 A 
ATOM     13  N5  UNL     1      -0.766  -0.324   1.252  0.00  0.00    +0.000 NA
ATOM     14  H14 UNL     1      -3.540  -1.020  -1.844  0.00  0.00    +0.000 HD
ENDROOT
BRANCH  12  15
ATOM     15  C22 UNL     1      -1.722  -2.275   0.104  0.00  0.00    +0.000 A 
ATOM     16  C23 UNL     1      -0.537  -3.030   0.063  0.00  0.00    +0.000 A 
ATOM     17  C24 UNL     1      -0.586  -4.413  -0.136  0.00  0.00    +0.000 A 
ATOM     18  C25 UNL     1      -1.817  -5.057  -0.277  0.00  0.00    +0.000 A 
ATOM     19  C26 UNL     1      -3.002  -4.321  -0.208  0.00  0.00    +0.000 A 
ATOM     20  C27 UNL     1      -2.958  -2.937  -0.009  0.00  0.00    +0.000 A 
ENDBRANCH  12  15
BRANCH   1  22
ATOM     21  N3  UNL     1       1.392   0.522   2.937  0.00  0.00    +0.000 N 
ATOM     22  C10 UNL     1       0.405   1.455   2.476  0.00  0.00    +0.000 C 
ATOM     23  O2  UNL     1       0.476   2.665   2.826  0.00  0.00    +0.000 OA
ATOM     24  H12 UNL     1       1.118  -0.477   3.072  0.00  0.00    +0.000 HD
BRANCH  21  27
ATOM     25  N1  UNL     1       3.166   2.259   1.450  0.00  0.00    +0.000 N 
ATOM     26  C9  UNL     1       3.452   1.747   2.764  0.00  0.00    +0.000 C 
ATOM     27  N2  UNL     1       2.657   0.929   3.396  0.00  0.00    +0.000 NA
ATOM     28  H10 UNL     1       3.429   3.253   1.263  0.00  0.00    +0.000 HD
BRANCH  25  34
ATOM     29  C3  UNL     1       2.866   0.125   0.186  0.00  0.00    +0.000 A 
ATOM     30  C4  UNL     1       2.243  -0.563  -0.877  0.00  0.00    +0.000 A 
ATOM     31  C5  UNL     1       1.389   0.109  -1.754  0.00  0.00    +0.000 A 
ATOM     32  C6  UNL     1       1.163   1.475  -1.601  0.00  0.00    +0.000 A 
ATOM     33  C7  UNL     1       1.776   2.171  -0.559  0.00  0.00    +0.000 A 
ATOM     34  C8  UNL     1       2.602   1.504   0.359  0.00  0.00    +0.000 A 
BRANCH  29  35
ATOM     35  O1  UNL     1       3.745  -0.519   1.074  0.00  0.00    +0.000 OA
BRANCH  35  37
ATOM     36  C1  UNL     1       5.203  -2.094  -0.065  0.00  0.00    +0.000 C 
ATOM     37  C2  UNL     1       4.144  -1.888   1.013  0.00  0.00    +0.000 C 
ENDBRANCH  35  37
ENDBRANCH  29  35
ENDBRANCH  25  34
BRANCH  26  38
ATOM     38  S1  UNL     1       4.953   2.272   3.578  0.00  0.00    +0.000 S 
ATOM     39  H11 UNL     1       4.312   3.381   4.161  0.00  0.00    +0.000 HD
ENDBRANCH  26  38
ENDBRANCH  21  27
ENDBRANCH   1  22
TORSDOF 7
