REMARK  Name = resultss/4CJN/ligands/lig_282_t2.pdb
REMARK  10 active torsions:
REMARK  status: ('A' for Active; 'I' for Inactive)
REMARK    1  A    between atoms: C2_2  and  C3_3
REMARK    2  A    between atoms: C3_3  and  C4_4
REMARK    3  A    between atoms: C6_6  and  C7_7
REMARK    4  A    between atoms: C11_12  and  C12_13
REMARK    5  A    between atoms: C12_13  and  C13_14
REMARK    6  A    between atoms: C16_17  and  O2_18
REMARK    7  A    between atoms: C17_19  and  C18_20
REMARK    8  A    between atoms: C18_20  and  C19_21
REMARK    9  A    between atoms: C18_20  and  N1_29
REMARK   10  A    between atoms: C27_32  and  C28_33
REMARK                            x       y       z     vdW  Elec       q    Type
REMARK                         _______ _______ _______ _____ _____    ______ ____
ROOT
ATOM      1  C4  UNL     1       0.891  -1.939   1.075  0.00  0.00    +0.000 A 
ATOM      2  C5  UNL     1       2.010  -1.190   0.702  0.00  0.00    +0.000 A 
ATOM      3  C6  UNL     1       1.873  -0.060  -0.116  0.00  0.00    +0.000 A 
ATOM      4  C16 UNL     1       0.594   0.337  -0.560  0.00  0.00    +0.000 A 
ATOM      5  C17 UNL     1      -0.556  -0.383  -0.139  0.00  0.00    +0.000 A 
ATOM      6  C31 UNL     1      -0.380  -1.535   0.652  0.00  0.00    +0.000 A 
ENDROOT
BRANCH   3   7
ATOM      7  C7  UNL     1       3.082   0.707  -0.499  0.00  0.00    +0.000 C 
ATOM      8  C8  UNL     1       3.138   2.161  -0.226  0.00  0.00    +0.000 C 
ATOM      9  C9  UNL     1       4.160   2.906  -0.647  0.00  0.00    +0.000 C 
ATOM     10  C10 UNL     1       5.283   2.285  -1.360  0.00  0.00    +0.000 C 
ATOM     11  O1  UNL     1       6.145   3.016  -1.916  0.00  0.00    +0.000 OA
ATOM     12  C11 UNL     1       5.426   0.779  -1.402  0.00  0.00    +0.000 C 
ATOM     13  C15 UNL     1       4.119   0.083  -1.089  0.00  0.00    +0.000 C 
BRANCH  12  14
ATOM     14  C12 UNL     1       6.499   0.298  -0.408  0.00  0.00    +0.000 C 
BRANCH  14  15
ATOM     15  C13 UNL     1       7.876   0.771  -0.798  0.00  0.00    +0.000 C 
ATOM     16  C14 UNL     1       8.580   1.607  -0.031  0.00  0.00    +0.000 C 
ENDBRANCH  14  15
ENDBRANCH  12  14
ENDBRANCH   3   7
BRANCH   4  17
ATOM     17  O2  UNL     1       0.509   1.430  -1.430  0.00  0.00    +0.000 OA
ATOM     18  H16 UNL     1      -0.342   1.739  -1.876  0.00  0.00    +0.000 HD
ENDBRANCH   4  17
BRANCH   1  19
ATOM     19  C3  UNL     1       1.044  -3.132   1.981  0.00  0.00    +0.000 C 
BRANCH  19  21
ATOM     20  C1  UNL     1      -0.280  -2.483   3.976  0.00  0.00    +0.000 C 
ATOM     21  C2  UNL     1       0.911  -2.723   3.421  0.00  0.00    +0.000 C 
ENDBRANCH  19  21
ENDBRANCH   1  19
BRANCH   5  22
ATOM     22  C18 UNL     1      -1.970   0.033  -0.554  0.00  0.00    +0.000 C 
BRANCH  22  23
ATOM     23  C19 UNL     1      -2.274  -0.611  -1.902  0.00  0.00    +0.000 A 
ATOM     24  C20 UNL     1      -2.493   0.190  -3.038  0.00  0.00    +0.000 A 
ATOM     25  C21 UNL     1      -2.781  -0.397  -4.275  0.00  0.00    +0.000 A 
ATOM     26 CL1  UNL     1      -3.051   0.613  -5.683  0.00  0.00    +0.000 Cl
ATOM     27  C22 UNL     1      -2.860  -1.788  -4.388  0.00  0.00    +0.000 A 
ATOM     28  C23 UNL     1      -2.654  -2.594  -3.265  0.00  0.00    +0.000 A 
ATOM     29 CL2  UNL     1      -2.771  -4.339  -3.404  0.00  0.00    +0.000 Cl
ATOM     30  C24 UNL     1      -2.364  -2.010  -2.028  0.00  0.00    +0.000 A 
ENDBRANCH  22  23
BRANCH  22  31
ATOM     31  N1  UNL     1      -2.985  -0.330   0.479  0.00  0.00    +0.000 NA
ATOM     32  C25 UNL     1      -2.745   0.376   1.773  0.00  0.00    +0.000 C 
ATOM     33  C26 UNL     1      -3.667   1.586   1.972  0.00  0.00    +0.000 C 
ATOM     34  C27 UNL     1      -5.148   1.152   2.004  0.00  0.00    +0.000 C 
ATOM     35  C28 UNL     1      -6.058   2.321   1.608  0.00  0.00    +0.000 C 
ATOM     36  C29 UNL     1      -5.401  -0.088   1.115  0.00  0.00    +0.000 C 
ATOM     37  C30 UNL     1      -4.378  -0.173  -0.025  0.00  0.00    +0.000 C 
ENDBRANCH  22  31
ENDBRANCH   5  22
TORSDOF 9
