REMARK  Name = resultss/4CJN/ligands/lig_233_t0.pdb
REMARK  8 active torsions:
REMARK  status: ('A' for Active; 'I' for Inactive)
REMARK    1  A    between atoms: C6_8  and  C7_9
REMARK    2  A    between atoms: C11_13  and  C12_14
REMARK    3  A    between atoms: C14_16  and  O3_17
REMARK    4  A    between atoms: O3_17  and  C15_18
REMARK    5  A    between atoms: C15_18  and  C16_20
REMARK    6  A    between atoms: C16_20  and  C19_23
REMARK    7  A    between atoms: C17_21  and  C18_22
REMARK    8  A    between atoms: C19_23  and  O5_24
REMARK                            x       y       z     vdW  Elec       q    Type
REMARK                         _______ _______ _______ _____ _____    ______ ____
ROOT
ATOM      1  C1  UNL     1       0.582  -0.091   3.555  0.00  0.00    +0.000 C 
ATOM      2  C2  UNL     1      -0.116   0.525   2.600  0.00  0.00    +0.000 C 
ATOM      3  C3  UNL     1      -0.530   1.907   2.623  0.00  0.00    +0.000 C 
ATOM      4  O1  UNL     1      -0.260   2.739   3.528  0.00  0.00    +0.000 OA
ATOM      5  O2  UNL     1      -1.299   2.205   1.519  0.00  0.00    +0.000 OA
ATOM      6  C4  UNL     1      -1.362   1.096   0.628  0.00  0.00    +0.000 C 
ATOM      7  C5  UNL     1      -2.797   0.813   0.235  0.00  0.00    +0.000 C 
ATOM      8  C6  UNL     1      -3.305   1.114  -0.978  0.00  0.00    +0.000 C 
ATOM      9  C7  UNL     1      -2.645   2.124  -1.886  0.00  0.00    +0.000 C 
ATOM     10  C8  UNL     1      -4.409   0.229  -1.540  0.00  0.00    +0.000 C 
ATOM     11  C9  UNL     1      -3.986  -1.262  -1.690  0.00  0.00    +0.000 C 
ATOM     12  C10 UNL     1      -2.482  -1.419  -1.824  0.00  0.00    +0.000 C 
ATOM     13  C11 UNL     1      -1.685  -1.904  -0.841  0.00  0.00    +0.000 C 
ATOM     14  C12 UNL     1      -2.204  -2.894   0.174  0.00  0.00    +0.000 C 
ATOM     15  C13 UNL     1      -0.222  -1.490  -0.810  0.00  0.00    +0.000 C 
ATOM     16  C14 UNL     1       0.292  -0.954   0.561  0.00  0.00    +0.000 C 
ATOM     17  C20 UNL     1      -0.731  -0.120   1.391  0.00  0.00    +0.000 C 
ENDROOT
BRANCH  16  18
ATOM     18  O3  UNL     1       1.468  -0.168   0.352  0.00  0.00    +0.000 OA
BRANCH  18  19
ATOM     19  C15 UNL     1       2.718  -0.704   0.016  0.00  0.00    +0.000 C 
ATOM     20  O4  UNL     1       2.861  -1.953  -0.095  0.00  0.00    +0.000 OA
BRANCH  19  21
ATOM     21  C16 UNL     1       3.877   0.197  -0.198  0.00  0.00    +0.000 C 
ATOM     22  C17 UNL     1       3.748   1.515   0.055  0.00  0.00    +0.000 C 
ATOM     23  C18 UNL     1       4.870   2.502  -0.078  0.00  0.00    +0.000 C 
BRANCH  21  24
ATOM     24  C19 UNL     1       5.205  -0.401  -0.614  0.00  0.00    +0.000 C 
BRANCH  24  25
ATOM     25  O5  UNL     1       6.023  -0.592   0.508  0.00  0.00    +0.000 OA
ATOM     26  H25 UNL     1       5.662  -1.382   0.990  0.00  0.00    +0.000 HD
ENDBRANCH  24  25
ENDBRANCH  21  24
ENDBRANCH  19  21
ENDBRANCH  18  19
ENDBRANCH  16  18
TORSDOF 5
