REMARK  Name = resultss/4CJN/ligands/lig_267_t1.pdb
REMARK  6 active torsions:
REMARK  status: ('A' for Active; 'I' for Inactive)
REMARK    1  A    between atoms: O1_1  and  C1_2
REMARK    2  A    between atoms: C1_2  and  C18_23
REMARK    3  A    between atoms: N1_3  and  C2_4
REMARK    4  A    between atoms: C5_8  and  C6_9
REMARK    5  A    between atoms: N2_11  and  C7_12
REMARK    6  A    between atoms: C7_12  and  C8_13
REMARK                            x       y       z     vdW  Elec       q    Type
REMARK                         _______ _______ _______ _____ _____    ______ ____
ROOT
ATOM      1  C2  UNL     1      -1.118   1.146  -0.308  0.00  0.00    +0.000 A 
ATOM      2  S1  UNL     1      -1.649   2.421  -1.279  0.00  0.00    +0.000 S 
ATOM      3  C3  UNL     1      -0.522   3.532  -0.713  0.00  0.00    +0.000 A 
ATOM      4  C4  UNL     1       0.292   2.923   0.240  0.00  0.00    +0.000 A 
ATOM      5  C5  UNL     1      -0.018   1.562   0.437  0.00  0.00    +0.000 A 
ATOM      6  C14 UNL     1       1.408   3.674   0.920  0.00  0.00    +0.000 C 
ATOM      7  C15 UNL     1       1.180   5.194   0.855  0.00  0.00    +0.000 C 
ATOM      8  C16 UNL     1       0.823   5.639  -0.573  0.00  0.00    +0.000 C 
ATOM      9  C17 UNL     1      -0.489   4.993  -1.047  0.00  0.00    +0.000 C 
ENDROOT
BRANCH   5  10
ATOM     10  C6  UNL     1       0.716   0.649   1.329  0.00  0.00    +0.000 C 
ATOM     11  O2  UNL     1       0.069  -0.062   2.145  0.00  0.00    +0.000 OA
ATOM     12  N2  UNL     1       2.139   0.509   1.223  0.00  0.00    +0.000 N 
ATOM     13  H2  UNL     1       2.663   1.105   0.544  0.00  0.00    +0.000 HD
BRANCH  12  14
ATOM     14  C7  UNL     1       2.860  -0.578   1.880  0.00  0.00    +0.000 C 
BRANCH  14  15
ATOM     15  C8  UNL     1       2.501  -1.895   1.244  0.00  0.00    +0.000 A 
ATOM     16  C9  UNL     1       2.919  -2.178  -0.067  0.00  0.00    +0.000 A 
ATOM     17  C10 UNL     1       2.550  -3.379  -0.681  0.00  0.00    +0.000 A 
ATOM     18  C11 UNL     1       1.758  -4.303   0.006  0.00  0.00    +0.000 A 
ATOM     19  C12 UNL     1       1.332  -4.026   1.309  0.00  0.00    +0.000 A 
ATOM     20  C13 UNL     1       1.700  -2.827   1.927  0.00  0.00    +0.000 A 
ENDBRANCH  14  15
ENDBRANCH  12  14
ENDBRANCH   5  10
BRANCH   1  22
ATOM     21  C1  UNL     1      -2.696  -0.699  -0.702  0.00  0.00    +0.000 C 
ATOM     22  N1  UNL     1      -1.511  -0.227  -0.438  0.00  0.00    +0.000 NA
BRANCH  21  23
ATOM     23  C18 UNL     1      -2.867  -2.158  -0.901  0.00  0.00    +0.000 A 
ATOM     24  C19 UNL     1      -4.139  -2.701  -1.147  0.00  0.00    +0.000 A 
ATOM     25  C20 UNL     1      -4.294  -4.077  -1.326  0.00  0.00    +0.000 A 
ATOM     26  C21 UNL     1      -3.174  -4.906  -1.258  0.00  0.00    +0.000 A 
ATOM     27  N3  UNL     1      -1.946  -4.374  -1.021  0.00  0.00    +0.000 NA
ATOM     28  C22 UNL     1      -1.767  -3.037  -0.843  0.00  0.00    +0.000 A 
ENDBRANCH  21  23
BRANCH  21  29
ATOM     29  O1  UNL     1      -3.821   0.129  -0.763  0.00  0.00    +0.000 OA
ATOM     30  H1  UNL     1      -3.821   1.087  -0.441  0.00  0.00    +0.000 HD
ENDBRANCH  21  29
ENDBRANCH   1  22
TORSDOF 6
