REMARK  Name = resultss/4CJN/ligands/lig_377_t2.pdb
REMARK  7 active torsions:
REMARK  status: ('A' for Active; 'I' for Inactive)
REMARK    1  A    between atoms: C1_1  and  O1_2
REMARK    2  A    between atoms: O1_2  and  C2_3
REMARK    3  A    between atoms: C5_6  and  C6_7
REMARK    4  A    between atoms: N1_11  and  C9_12
REMARK    5  A    between atoms: C12_15  and  S2_16
REMARK    6  A    between atoms: S2_16  and  N2_17
REMARK    7  A    between atoms: C15_23  and  O4_24
REMARK                            x       y       z     vdW  Elec       q    Type
REMARK                         _______ _______ _______ _____ _____    ______ ____
ROOT
ATOM      1  C6  UNL     1      -2.540   1.859   1.267  0.00  0.00    +0.000 C 
ATOM      2  C7  UNL     1      -1.244   1.520   1.209  0.00  0.00    +0.000 C 
ATOM      3  S1  UNL     1       0.011   2.519   2.008  0.00  0.00    +0.000 S 
ATOM      4  C8  UNL     1       1.189   1.395   1.270  0.00  0.00    +0.000 C 
ATOM      5  N1  UNL     1       2.467   1.533   1.464  0.00  0.00    +0.000 NA
ATOM      6  N3  UNL     1       0.624   0.286   0.578  0.00  0.00    +0.000 NA
ATOM      7  C15 UNL     1      -0.663   0.343   0.547  0.00  0.00    +0.000 C 
ENDROOT
BRANCH   1  11
ATOM      8  C2  UNL     1      -5.770  -0.052  -0.811  0.00  0.00    +0.000 A 
ATOM      9  C3  UNL     1      -5.819   0.122   0.586  0.00  0.00    +0.000 A 
ATOM     10  C4  UNL     1      -4.757   0.737   1.257  0.00  0.00    +0.000 A 
ATOM     11  C5  UNL     1      -3.625   1.165   0.550  0.00  0.00    +0.000 A 
ATOM     12  C16 UNL     1      -3.590   1.019  -0.846  0.00  0.00    +0.000 A 
ATOM     13  C17 UNL     1      -4.651   0.404  -1.517  0.00  0.00    +0.000 A 
BRANCH   8  15
ATOM     14  C1  UNL     1      -8.001  -1.174  -0.942  0.00  0.00    +0.000 C 
ATOM     15  O1  UNL     1      -6.808  -0.665  -1.529  0.00  0.00    +0.000 OA
ENDBRANCH   8  15
ENDBRANCH   1  11
BRANCH   5  16
ATOM     16  C9  UNL     1       3.506   0.702   0.920  0.00  0.00    +0.000 A 
ATOM     17  C10 UNL     1       3.434   0.173  -0.383  0.00  0.00    +0.000 A 
ATOM     18  C11 UNL     1       4.483  -0.602  -0.887  0.00  0.00    +0.000 A 
ATOM     19  C12 UNL     1       5.619  -0.848  -0.105  0.00  0.00    +0.000 A 
ATOM     20  C13 UNL     1       5.709  -0.290   1.177  0.00  0.00    +0.000 A 
ATOM     21  C14 UNL     1       4.662   0.487   1.681  0.00  0.00    +0.000 A 
BRANCH  19  22
ATOM     22  S2  UNL     1       6.946  -1.811  -0.745  0.00  0.00    +0.000 S 
ATOM     23  O2  UNL     1       7.617  -2.557   0.373  0.00  0.00    +0.000 OA
ATOM     24  O3  UNL     1       6.419  -2.805  -1.742  0.00  0.00    +0.000 OA
BRANCH  22  25
ATOM     25  N2  UNL     1       8.089  -0.770  -1.519  0.00  0.00    +0.000 NA
ATOM     26  H9  UNL     1       8.888  -1.369  -1.827  0.00  0.00    +0.000 HD
ATOM     27  H10 UNL     1       8.461  -0.126  -0.785  0.00  0.00    +0.000 HD
ENDBRANCH  22  25
ENDBRANCH  19  22
ENDBRANCH   5  16
BRANCH   7  28
ATOM     28  O4  UNL     1      -1.414  -0.671  -0.041  0.00  0.00    +0.000 OA
ATOM     29  H13 UNL     1      -0.964  -1.468  -0.475  0.00  0.00    +0.000 HD
ENDBRANCH   7  28
TORSDOF 6
