REMARK  Name = resultss/4CJN/ligands/lig_360_t0.pdb
REMARK  2 active torsions:
REMARK  status: ('A' for Active; 'I' for Inactive)
REMARK    1  A    between atoms: C4_6  and  O3_7
REMARK    2  A    between atoms: C11_15  and  O5_16
REMARK                            x       y       z     vdW  Elec       q    Type
REMARK                         _______ _______ _______ _____ _____    ______ ____
ROOT
ATOM      1  O1  UNL     1       0.266   1.253  -2.852  0.00  0.00    +0.000 OA
ATOM      2  C1  UNL     1       0.634   0.776  -1.747  0.00  0.00    +0.000 A 
ATOM      3  O2  UNL     1       1.935   0.625  -1.480  0.00  0.00    +0.000 OA
ATOM      4  C2  UNL     1       2.387   0.123  -0.321  0.00  0.00    +0.000 A 
ATOM      5  C3  UNL     1       3.762  -0.010  -0.104  0.00  0.00    +0.000 A 
ATOM      6  C4  UNL     1       4.238  -0.534   1.108  0.00  0.00    +0.000 A 
ATOM      7  C5  UNL     1       3.336  -0.927   2.105  0.00  0.00    +0.000 A 
ATOM      8  C6  UNL     1       1.958  -0.801   1.904  0.00  0.00    +0.000 A 
ATOM      9  C7  UNL     1       1.480  -0.278   0.696  0.00  0.00    +0.000 A 
ATOM     10  C8  UNL     1       0.124  -0.122   0.424  0.00  0.00    +0.000 A 
ATOM     11  O4  UNL     1      -0.903  -0.418   1.199  0.00  0.00    +0.000 OA
ATOM     12  C9  UNL     1      -1.988  -0.099   0.520  0.00  0.00    +0.000 A 
ATOM     13  C10 UNL     1      -3.312  -0.232   0.931  0.00  0.00    +0.000 A 
ATOM     14  C11 UNL     1      -4.327   0.174   0.038  0.00  0.00    +0.000 A 
ATOM     15  C12 UNL     1      -3.991   0.699  -1.232  0.00  0.00    +0.000 A 
ATOM     16  C13 UNL     1      -2.646   0.823  -1.624  0.00  0.00    +0.000 A 
ATOM     17  C14 UNL     1      -1.668   0.413  -0.720  0.00  0.00    +0.000 A 
ATOM     18  C15 UNL     1      -0.294   0.396  -0.778  0.00  0.00    +0.000 A 
ENDROOT
BRANCH   6  19
ATOM     19  O3  UNL     1       5.607  -0.669   1.331  0.00  0.00    +0.000 OA
ATOM     20  H2  UNL     1       6.287  -0.395   0.632  0.00  0.00    +0.000 HD
ENDBRANCH   6  19
BRANCH  14  21
ATOM     21  O5  UNL     1      -5.668   0.063   0.398  0.00  0.00    +0.000 OA
ATOM     22  H6  UNL     1      -5.944  -0.309   1.300  0.00  0.00    +0.000 HD
ENDBRANCH  14  21
TORSDOF 2
