REMARK  Name = resultss/4CJN/ligands/lig_372_t1.pdb
REMARK  8 active torsions:
REMARK  status: ('A' for Active; 'I' for Inactive)
REMARK    1  A    between atoms: C1_1  and  O1_2
REMARK    2  A    between atoms: O1_2  and  C2_3
REMARK    3  A    between atoms: C4_5  and  C5_6
REMARK    4  A    between atoms: C5_6  and  C6_7
REMARK    5  A    between atoms: C5_6  and  C15_20
REMARK    6  A    between atoms: C14_18  and  O4_19
REMARK    7  A    between atoms: C16_21  and  O5_22
REMARK    8  A    between atoms: C26_35  and  O8_36
REMARK                            x       y       z     vdW  Elec       q    Type
REMARK                         _______ _______ _______ _____ _____    ______ ____
ROOT
ATOM      1  C5  UNL     1       0.029  -0.356  -1.146  0.00  0.00    +0.000 C 
ENDROOT
BRANCH   1   2
ATOM      2  C6  UNL     1       1.130  -0.916  -0.237  0.00  0.00    +0.000 A 
ATOM      3  C7  UNL     1       2.377  -1.293  -0.785  0.00  0.00    +0.000 A 
ATOM      4  O2  UNL     1       2.588  -1.179  -2.025  0.00  0.00    +0.000 OA
ATOM      5  C8  UNL     1       3.387  -1.793   0.053  0.00  0.00    +0.000 A 
ATOM      6  C9  UNL     1       4.640  -2.202  -0.444  0.00  0.00    +0.000 A 
ATOM      7  C10 UNL     1       5.615  -2.695   0.430  0.00  0.00    +0.000 A 
ATOM      8 CL1  UNL     1       7.174  -3.205  -0.193  0.00  0.00    +0.000 Cl
ATOM      9  C11 UNL     1       5.349  -2.784   1.800  0.00  0.00    +0.000 A 
ATOM     10  C12 UNL     1       4.109  -2.378   2.301  0.00  0.00    +0.000 A 
ATOM     11  C13 UNL     1       3.128  -1.883   1.436  0.00  0.00    +0.000 A 
ATOM     12  O3  UNL     1       1.959  -1.492   1.925  0.00  0.00    +0.000 OA
ATOM     13  C14 UNL     1       0.977  -1.014   1.167  0.00  0.00    +0.000 A 
BRANCH  13  14
ATOM     14  O4  UNL     1      -0.194  -0.597   1.789  0.00  0.00    +0.000 OA
ATOM     15  H9  UNL     1      -0.299  -0.661   2.794  0.00  0.00    +0.000 HD
ENDBRANCH  13  14
ENDBRANCH   1   2
BRANCH   1  16
ATOM     16  C15 UNL     1      -1.368  -0.893  -0.797  0.00  0.00    +0.000 A 
ATOM     17  C16 UNL     1      -2.352  -0.137  -0.108  0.00  0.00    +0.000 A 
ATOM     18  C17 UNL     1      -3.620  -0.716   0.146  0.00  0.00    +0.000 A 
ATOM     19  C18 UNL     1      -4.677  -0.025   0.779  0.00  0.00    +0.000 A 
ATOM     20  C19 UNL     1      -5.903  -0.659   1.009  0.00  0.00    +0.000 A 
ATOM     21 CL2  UNL     1      -7.208   0.212   1.794  0.00  0.00    +0.000 Cl
ATOM     22  C20 UNL     1      -6.094  -1.984   0.612  0.00  0.00    +0.000 A 
ATOM     23  C21 UNL     1      -5.063  -2.678  -0.020  0.00  0.00    +0.000 A 
ATOM     24  C22 UNL     1      -3.834  -2.055  -0.258  0.00  0.00    +0.000 A 
ATOM     25  O6  UNL     1      -2.875  -2.738  -0.863  0.00  0.00    +0.000 OA
ATOM     26  C23 UNL     1      -1.684  -2.227  -1.139  0.00  0.00    +0.000 A 
ATOM     27  O7  UNL     1      -0.833  -2.959  -1.713  0.00  0.00    +0.000 OA
BRANCH  17  28
ATOM     28  O5  UNL     1      -2.036   1.155   0.326  0.00  0.00    +0.000 OA
ATOM     29  H10 UNL     1      -2.635   1.743   0.886  0.00  0.00    +0.000 HD
ENDBRANCH  17  28
ENDBRANCH   1  16
BRANCH   1  32
ATOM     30  C2  UNL     1       0.762   3.404  -0.625  0.00  0.00    +0.000 A 
ATOM     31  C3  UNL     1       0.734   2.011  -0.416  0.00  0.00    +0.000 A 
ATOM     32  C4  UNL     1       0.107   1.154  -1.345  0.00  0.00    +0.000 A 
ATOM     33  C24 UNL     1      -0.502   1.718  -2.479  0.00  0.00    +0.000 A 
ATOM     34  C25 UNL     1      -0.476   3.097  -2.690  0.00  0.00    +0.000 A 
ATOM     35  C26 UNL     1       0.154   3.940  -1.768  0.00  0.00    +0.000 A 
BRANCH  30  37
ATOM     36  C1  UNL     1       2.029   3.882   1.479  0.00  0.00    +0.000 C 
ATOM     37  O1  UNL     1       1.379   4.284   0.278  0.00  0.00    +0.000 OA
ENDBRANCH  30  37
BRANCH  35  38
ATOM     38  O8  UNL     1       0.180   5.318  -1.980  0.00  0.00    +0.000 OA
ATOM     39  H16 UNL     1      -0.251   5.737  -2.796  0.00  0.00    +0.000 HD
ENDBRANCH  35  38
ENDBRANCH   1  32
TORSDOF 7
