REMARK  Name = resultss/4CJN/ligands/lig_258_t0.pdb
REMARK  6 active torsions:
REMARK  status: ('A' for Active; 'I' for Inactive)
REMARK    1  A    between atoms: C1_1  and  C2_2
REMARK    2  A    between atoms: C4_4  and  O1_5
REMARK    3  A    between atoms: C9_10  and  C10_11
REMARK    4  A    between atoms: C13_14  and  O2_15
REMARK    5  A    between atoms: C16_18  and  O3_19
REMARK    6  A    between atoms: C20_24  and  O5_25
REMARK                            x       y       z     vdW  Elec       q    Type
REMARK                         _______ _______ _______ _____ _____    ______ ____
ROOT
ATOM      1  C1  UNL     1      -2.855   3.923  -0.459  0.00  0.00    +0.000 C 
ATOM      2  C2  UNL     1      -1.575   3.164  -0.269  0.00  0.00    +0.000 A 
ATOM      3  C3  UNL     1      -0.366   3.861  -0.059  0.00  0.00    +0.000 A 
ATOM      4  C4  UNL     1       0.836   3.174   0.178  0.00  0.00    +0.000 A 
ATOM      5  C5  UNL     1       0.824   1.767   0.108  0.00  0.00    +0.000 A 
ATOM      6  C6  UNL     1      -0.390   1.080  -0.009  0.00  0.00    +0.000 A 
ATOM      7  C7  UNL     1      -1.596   1.760  -0.205  0.00  0.00    +0.000 A 
ATOM      8  C8  UNL     1      -0.130  -0.286   0.047  0.00  0.00    +0.000 A 
ATOM      9  C9  UNL     1      -0.922  -1.444  -0.014  0.00  0.00    +0.000 A 
ATOM     10  C16 UNL     1      -0.231  -2.691   0.011  0.00  0.00    +0.000 A 
ATOM     11  O4  UNL     1       1.111  -2.725   0.071  0.00  0.00    +0.000 OA
ATOM     12  C17 UNL     1       1.863  -1.621   0.124  0.00  0.00    +0.000 A 
ATOM     13  C18 UNL     1       1.222  -0.402   0.139  0.00  0.00    +0.000 A 
ATOM     14  C19 UNL     1       1.850   0.811   0.150  0.00  0.00    +0.000 A 
ATOM     15  C20 UNL     1       3.251   0.865   0.040  0.00  0.00    +0.000 A 
ATOM     16  C21 UNL     1       3.982  -0.367   0.117  0.00  0.00    +0.000 A 
ATOM     17  C22 UNL     1       5.391  -0.385   0.156  0.00  0.00    +0.000 A 
ATOM     18  C23 UNL     1       6.091  -1.590   0.203  0.00  0.00    +0.000 A 
ATOM     19  C24 UNL     1       5.409  -2.804   0.217  0.00  0.00    +0.000 A 
ATOM     20  C25 UNL     1       4.014  -2.834   0.195  0.00  0.00    +0.000 A 
ATOM     21  O6  UNL     1       3.432  -3.952   0.218  0.00  0.00    +0.000 OA
ATOM     22  C26 UNL     1       3.278  -1.626   0.153  0.00  0.00    +0.000 A 
ENDROOT
BRANCH   9  23
ATOM     23  C10 UNL     1      -2.392  -1.380  -0.068  0.00  0.00    +0.000 A 
ATOM     24  C11 UNL     1      -3.065  -1.630  -1.272  0.00  0.00    +0.000 A 
ATOM     25  C12 UNL     1      -4.461  -1.561  -1.322  0.00  0.00    +0.000 A 
ATOM     26  C13 UNL     1      -5.192  -1.244  -0.172  0.00  0.00    +0.000 A 
ATOM     27  C14 UNL     1      -4.520  -0.998   1.034  0.00  0.00    +0.000 A 
ATOM     28  C15 UNL     1      -3.125  -1.068   1.087  0.00  0.00    +0.000 A 
BRANCH  26  29
ATOM     29  O2  UNL     1      -6.582  -1.175  -0.237  0.00  0.00    +0.000 OA
ATOM     30  H9  UNL     1      -7.139  -0.948   0.578  0.00  0.00    +0.000 HD
ENDBRANCH  26  29
ENDBRANCH   9  23
BRANCH   4  31
ATOM     31  O1  UNL     1       1.955   3.908   0.562  0.00  0.00    +0.000 OA
ATOM     32  H5  UNL     1       2.667   3.517   1.163  0.00  0.00    +0.000 HD
ENDBRANCH   4  31
BRANCH  10  33
ATOM     33  O3  UNL     1      -0.919  -3.904  -0.023  0.00  0.00    +0.000 OA
ATOM     34  H12 UNL     1      -1.930  -3.959  -0.048  0.00  0.00    +0.000 HD
ENDBRANCH  10  33
BRANCH  15  35
ATOM     35  O5  UNL     1       3.871   2.087  -0.226  0.00  0.00    +0.000 OA
ATOM     36  H13 UNL     1       4.844   2.191  -0.475  0.00  0.00    +0.000 HD
ENDBRANCH  15  35
TORSDOF 5
