REMARK  Name = resultss/4CJN/ligands/lig_385_t0.pdb
REMARK  8 active torsions:
REMARK  status: ('A' for Active; 'I' for Inactive)
REMARK    1  A    between atoms: C1_1  and  C2_2
REMARK    2  A    between atoms: C2_2  and  N1_3
REMARK    3  A    between atoms: C5_7  and  C6_8
REMARK    4  A    between atoms: C9_11  and  O2_12
REMARK    5  A    between atoms: O2_12  and  C10_13
REMARK    6  A    between atoms: N2_18  and  C14_19
REMARK    7  A    between atoms: C17_22  and  S2_23
REMARK    8  A    between atoms: S2_23  and  N3_24
REMARK                            x       y       z     vdW  Elec       q    Type
REMARK                         _______ _______ _______ _____ _____    ______ ____
ROOT
ATOM      1  N1  UNL     1      -0.502  -1.251   0.035  0.00  0.00    +0.000 N 
ATOM      2  C3  UNL     1       0.897  -1.003  -0.022  0.00  0.00    +0.000 C 
ATOM      3  O1  UNL     1       1.531  -0.537   0.962  0.00  0.00    +0.000 OA
ATOM      4  C4  UNL     1       1.497  -1.306  -1.328  0.00  0.00    +0.000 C 
ATOM      5  C5  UNL     1       2.717  -0.956  -1.760  0.00  0.00    +0.000 C 
ATOM      6  S1  UNL     1       0.320  -2.108  -2.421  0.00  0.00    +0.000 S 
ATOM      7  C13 UNL     1      -0.963  -1.605  -1.275  0.00  0.00    +0.000 C 
ATOM      8  N2  UNL     1      -2.159  -1.341  -1.717  0.00  0.00    +0.000 NA
ENDROOT
BRANCH   5   9
ATOM      9  C6  UNL     1       3.752  -0.319  -0.926  0.00  0.00    +0.000 A 
ATOM     10  C7  UNL     1       4.264  -0.970   0.207  0.00  0.00    +0.000 A 
ATOM     11  C8  UNL     1       5.278  -0.374   0.963  0.00  0.00    +0.000 A 
ATOM     12  C9  UNL     1       5.810   0.865   0.588  0.00  0.00    +0.000 A 
ATOM     13  C11 UNL     1       5.316   1.503  -0.567  0.00  0.00    +0.000 A 
ATOM     14  C12 UNL     1       4.301   0.907  -1.322  0.00  0.00    +0.000 A 
BRANCH  12  15
ATOM     15  O2  UNL     1       6.825   1.422   1.380  0.00  0.00    +0.000 OA
ATOM     16  C10 UNL     1       7.461   2.668   1.113  0.00  0.00    +0.000 C 
ENDBRANCH  12  15
ENDBRANCH   5   9
BRANCH   8  17
ATOM     17  C14 UNL     1      -3.199  -0.639  -1.022  0.00  0.00    +0.000 A 
ATOM     18  C15 UNL     1      -2.938   0.556  -0.329  0.00  0.00    +0.000 A 
ATOM     19  C16 UNL     1      -3.976   1.242   0.308  0.00  0.00    +0.000 A 
ATOM     20  C17 UNL     1      -5.287   0.752   0.244  0.00  0.00    +0.000 A 
ATOM     21  C18 UNL     1      -5.555  -0.417  -0.481  0.00  0.00    +0.000 A 
ATOM     22  C19 UNL     1      -4.517  -1.102  -1.119  0.00  0.00    +0.000 A 
BRANCH  20  23
ATOM     23  S2  UNL     1      -6.601   1.624   1.029  0.00  0.00    +0.000 S 
ATOM     24  O3  UNL     1      -7.617   0.646   1.551  0.00  0.00    +0.000 OA
ATOM     25  O4  UNL     1      -6.065   2.424   2.184  0.00  0.00    +0.000 OA
BRANCH  23  26
ATOM     26  N3  UNL     1      -7.351   2.688  -0.108  0.00  0.00    +0.000 NA
ATOM     27  H16 UNL     1      -6.595   3.288  -0.506  0.00  0.00    +0.000 HD
ATOM     28  H17 UNL     1      -7.709   2.095  -0.890  0.00  0.00    +0.000 HD
ENDBRANCH  23  26
ENDBRANCH  20  23
ENDBRANCH   8  17
BRANCH   1  30
ATOM     29  C1  UNL     1      -0.754  -3.132   1.605  0.00  0.00    +0.000 C 
ATOM     30  C2  UNL     1      -1.152  -1.697   1.274  0.00  0.00    +0.000 C 
ENDBRANCH   1  30
TORSDOF 6
