REMARK  Name = resultss/4CJN/ligands/lig_119_t0.pdb
REMARK  18 active torsions:
REMARK  status: ('A' for Active; 'I' for Inactive)
REMARK    1  A    between atoms: S1_2  and  O4_5
REMARK    2  A    between atoms: O4_5  and  C1_6
REMARK    3  A    between atoms: C1_6  and  C2_7
REMARK    4  A    between atoms: C1_6  and  C6_15
REMARK    5  A    between atoms: C2_7  and  O5_8
REMARK    6  A    between atoms: C2_7  and  C3_9
REMARK    7  A    between atoms: C3_9  and  O6_10
REMARK    8  A    between atoms: C3_9  and  C4_11
REMARK    9  A    between atoms: C4_11  and  O7_12
REMARK   10  A    between atoms: C4_11  and  C5_13
REMARK   11  A    between atoms: C5_13  and  O8_14
REMARK   12  A    between atoms: C6_15  and  O9_16
REMARK   13  A    between atoms: C6_15  and  C7_17
REMARK   14  A    between atoms: C7_17  and  S2_18
REMARK   15  A    between atoms: C9_20  and  O10_21
REMARK   16  A    between atoms: C10_22  and  O11_23
REMARK   17  A    between atoms: C11_24  and  C12_25
REMARK   18  A    between atoms: C12_25  and  O12_26
REMARK                            x       y       z     vdW  Elec       q    Type
REMARK                         _______ _______ _______ _____ _____    ______ ____
ROOT
ATOM      1  C1  UNL     1       1.334  -1.649  -0.148  0.00  0.00    +0.000 C 
ENDROOT
BRANCH   1   2
ATOM      2  C6  UNL     1       0.195  -0.903   0.591  0.00  0.00    +0.000 C 
BRANCH   2   3
ATOM      3  O9  UNL     1       0.386  -0.994   1.981  0.00  0.00    +0.000 OA
ATOM      4  H12 UNL     1       0.061  -0.144   2.378  0.00  0.00    +0.000 HD
ENDBRANCH   2   3
BRANCH   2   5
ATOM      5  C7  UNL     1      -1.173  -1.510   0.235  0.00  0.00    +0.000 C 
BRANCH   5   6
ATOM      6  S2  UNL     1      -2.500  -0.578   0.981  0.00  0.00    +0.000 S 
ATOM      7  C8  UNL     1      -4.060  -1.329   0.629  0.00  0.00    +0.000 C 
ATOM      8  C9  UNL     1      -4.962  -0.198   0.131  0.00  0.00    +0.000 C 
ATOM      9  C10 UNL     1      -4.080   0.830  -0.610  0.00  0.00    +0.000 C 
ATOM     10  C11 UNL     1      -2.738   0.966   0.140  0.00  0.00    +0.000 C 
BRANCH   9  11
ATOM     11  O11 UNL     1      -3.825   0.375  -1.915  0.00  0.00    +0.000 OA
ATOM     12  H20 UNL     1      -4.646   0.548  -2.446  0.00  0.00    +0.000 HD
ENDBRANCH   9  11
BRANCH   8  13
ATOM     13  O10 UNL     1      -5.594   0.429   1.218  0.00  0.00    +0.000 OA
ATOM     14  H18 UNL     1      -6.333  -0.171   1.505  0.00  0.00    +0.000 HD
ENDBRANCH   8  13
BRANCH  10  15
ATOM     15  C12 UNL     1      -2.734   2.115   1.160  0.00  0.00    +0.000 C 
BRANCH  15  16
ATOM     16  O12 UNL     1      -2.858   3.353   0.513  0.00  0.00    +0.000 OA
ATOM     17  H24 UNL     1      -1.979   3.544   0.093  0.00  0.00    +0.000 HD
ENDBRANCH  15  16
ENDBRANCH  10  15
ENDBRANCH   5   6
ENDBRANCH   2   5
ENDBRANCH   1   2
BRANCH   1  18
ATOM     18  C2  UNL     1       2.768  -1.141   0.187  0.00  0.00    +0.000 C 
BRANCH  18  19
ATOM     19  O5  UNL     1       3.170  -1.548   1.474  0.00  0.00    +0.000 OA
ATOM     20  H3  UNL     1       2.819  -0.905   2.139  0.00  0.00    +0.000 HD
ENDBRANCH  18  19
BRANCH  18  21
ATOM     21  C3  UNL     1       3.001   0.380  -0.070  0.00  0.00    +0.000 C 
BRANCH  21  22
ATOM     22  O6  UNL     1       2.386   1.150   0.935  0.00  0.00    +0.000 OA
ATOM     23  H5  UNL     1       1.987   1.946   0.497  0.00  0.00    +0.000 HD
ENDBRANCH  21  22
BRANCH  21  24
ATOM     24  C4  UNL     1       4.511   0.713  -0.138  0.00  0.00    +0.000 C 
BRANCH  24  25
ATOM     25  O7  UNL     1       5.104   0.525   1.122  0.00  0.00    +0.000 OA
ATOM     26  H7  UNL     1       6.083   0.457   0.973  0.00  0.00    +0.000 HD
ENDBRANCH  24  25
BRANCH  24  27
ATOM     27  C5  UNL     1       4.766   2.147  -0.631  0.00  0.00    +0.000 C 
BRANCH  27  28
ATOM     28  O8  UNL     1       4.379   3.080   0.340  0.00  0.00    +0.000 OA
ATOM     29  H10 UNL     1       4.559   3.975  -0.050  0.00  0.00    +0.000 HD
ENDBRANCH  27  28
ENDBRANCH  24  27
ENDBRANCH  21  24
ENDBRANCH  18  21
ENDBRANCH   1  18
BRANCH   1  30
ATOM     30  O4  UNL     1       1.126  -1.512  -1.544  0.00  0.00    +0.000 OA
BRANCH  30  32
ATOM     31  O1  UNL     1       0.086  -3.904  -1.848  0.00  0.00    +0.000 OA
ATOM     32  S1  UNL     1       1.212  -3.023  -2.314  0.00  0.00    +0.000 S 
ATOM     33  O2  UNL     1       2.529  -3.688  -2.023  0.00  0.00    +0.000 OA
ATOM     34  O3  UNL     1       1.073  -2.794  -3.971  0.00  0.00    +0.000 OA
ENDBRANCH  30  32
ENDBRANCH   1  30
TORSDOF 18
