REMARK  Name = resultss/4CJN/ligands/lig_417_t1.pdb
REMARK  6 active torsions:
REMARK  status: ('A' for Active; 'I' for Inactive)
REMARK    1  A    between atoms: C1_1  and  C2_2
REMARK    2  A    between atoms: C6_6  and  N1_7
REMARK    3  A    between atoms: C7_8  and  S1_9
REMARK    4  A    between atoms: N2_10  and  N3_11
REMARK    5  A    between atoms: C8_12  and  C9_14
REMARK    6  A    between atoms: C19_25  and  C20_26
REMARK                            x       y       z     vdW  Elec       q    Type
REMARK                         _______ _______ _______ _____ _____    ______ ____
ROOT
ATOM      1  C9  UNL     1      -1.110   1.902   0.128  0.00  0.00    +0.000 A 
ATOM      2  C10 UNL     1      -2.261   2.692   0.332  0.00  0.00    +0.000 A 
ATOM      3  C11 UNL     1      -3.485   2.035   0.371  0.00  0.00    +0.000 A 
ATOM      4  C12 UNL     1      -3.589   0.668   0.225  0.00  0.00    +0.000 A 
ATOM      5  N4  UNL     1      -4.883   0.271   0.219  0.00  0.00    +0.000 N 
ATOM      6  C13 UNL     1      -5.594   1.408   0.382  0.00  0.00    +0.000 A 
ATOM      7  C14 UNL     1      -6.982   1.534   0.423  0.00  0.00    +0.000 A 
ATOM      8  C15 UNL     1      -7.521   2.826   0.579  0.00  0.00    +0.000 A 
ATOM      9  C16 UNL     1      -6.674   3.952   0.683  0.00  0.00    +0.000 A 
ATOM     10  C17 UNL     1      -5.276   3.800   0.632  0.00  0.00    +0.000 A 
ATOM     11  C18 UNL     1      -4.771   2.510   0.482  0.00  0.00    +0.000 A 
ATOM     12  C19 UNL     1      -2.437  -0.109   0.045  0.00  0.00    +0.000 A 
ATOM     13  N5  UNL     1      -1.235   0.542  -0.008  0.00  0.00    +0.000 NA
ATOM     14  H11 UNL     1      -5.265  -0.691   0.077  0.00  0.00    +0.000 HD
ENDROOT
BRANCH  12  15
ATOM     15  C20 UNL     1      -2.471  -1.580  -0.099  0.00  0.00    +0.000 A 
ATOM     16  C21 UNL     1      -3.235  -2.375   0.774  0.00  0.00    +0.000 A 
ATOM     17  C22 UNL     1      -3.233  -3.767   0.644  0.00  0.00    +0.000 A 
ATOM     18  C23 UNL     1      -2.459  -4.377  -0.347  0.00  0.00    +0.000 A 
ATOM     19  C24 UNL     1      -1.684  -3.596  -1.208  0.00  0.00    +0.000 A 
ATOM     20  C25 UNL     1      -1.683  -2.203  -1.080  0.00  0.00    +0.000 A 
ENDBRANCH  12  15
BRANCH   1  22
ATOM     21  N3  UNL     1       1.405   1.711  -0.097  0.00  0.00    +0.000 N 
ATOM     22  C8  UNL     1       0.230   2.524   0.042  0.00  0.00    +0.000 C 
ATOM     23  O1  UNL     1       0.340   3.779   0.093  0.00  0.00    +0.000 OA
ATOM     24  H9  UNL     1       1.314   0.673  -0.051  0.00  0.00    +0.000 HD
BRANCH  21  27
ATOM     25  N1  UNL     1       3.817   0.232  -0.033  0.00  0.00    +0.000 NA
ATOM     26  C7  UNL     1       3.868   1.501  -0.329  0.00  0.00    +0.000 C 
ATOM     27  N2  UNL     1       2.672   2.291  -0.295  0.00  0.00    +0.000 N 
ATOM     28  H8  UNL     1       2.758   3.323  -0.428  0.00  0.00    +0.000 HD
BRANCH  25  34
ATOM     29  C1  UNL     1       7.617  -1.934  -2.440  0.00  0.00    +0.000 C 
ATOM     30  C2  UNL     1       6.777  -1.762  -1.210  0.00  0.00    +0.000 A 
ATOM     31  C3  UNL     1       6.970  -2.601  -0.101  0.00  0.00    +0.000 A 
ATOM     32  C4  UNL     1       6.136  -2.493   1.016  0.00  0.00    +0.000 A 
ATOM     33  C5  UNL     1       5.107  -1.549   1.034  0.00  0.00    +0.000 A 
ATOM     34  C6  UNL     1       4.915  -0.691  -0.056  0.00  0.00    +0.000 A 
ATOM     35  C26 UNL     1       5.732  -0.824  -1.192  0.00  0.00    +0.000 A 
ENDBRANCH  25  34
BRANCH  26  36
ATOM     36  S1  UNL     1       5.431   2.334  -0.660  0.00  0.00    +0.000 S 
ATOM     37  H7  UNL     1       5.627   2.615   0.704  0.00  0.00    +0.000 HD
ENDBRANCH  26  36
ENDBRANCH  21  27
ENDBRANCH   1  22
TORSDOF 5
