REMARK  Name = resultss/4CJN/ligands/lig_171_t1.pdb
REMARK  6 active torsions:
REMARK  status: ('A' for Active; 'I' for Inactive)
REMARK    1  A    between atoms: O1_1  and  C1_2
REMARK    2  A    between atoms: C1_2  and  C9_15
REMARK    3  A    between atoms: N1_3  and  N2_4
REMARK    4  A    between atoms: C2_5  and  C3_6
REMARK    5  A    between atoms: C6_9  and  N3_10
REMARK    6  A    between atoms: C12_18  and  C13_19
REMARK                            x       y       z     vdW  Elec       q    Type
REMARK                         _______ _______ _______ _____ _____    ______ ____
ROOT
ATOM      1  C1  UNL     1      -1.096  -0.176  -0.736  0.00  0.00    +0.000 C 
ATOM      2  N1  UNL     1      -1.897  -0.513   0.237  0.00  0.00    +0.000 NA
ENDROOT
BRANCH   1   3
ATOM      3  C9  UNL     1       0.370  -0.158  -0.510  0.00  0.00    +0.000 A 
ATOM      4  C10 UNL     1       1.242   0.186  -1.556  0.00  0.00    +0.000 A 
ATOM      5  C11 UNL     1       2.625   0.207  -1.354  0.00  0.00    +0.000 A 
ATOM      6  C12 UNL     1       3.169  -0.115  -0.098  0.00  0.00    +0.000 A 
ATOM      7  C20 UNL     1       2.298  -0.458   0.949  0.00  0.00    +0.000 A 
ATOM      8  C21 UNL     1       0.915  -0.479   0.747  0.00  0.00    +0.000 A 
BRANCH   6   9
ATOM      9  C13 UNL     1       4.633  -0.095   0.127  0.00  0.00    +0.000 A 
ATOM     10  N4  UNL     1       5.204  -0.398   1.322  0.00  0.00    +0.000 NA
ATOM     11  C14 UNL     1       6.557  -0.305   1.263  0.00  0.00    +0.000 A 
ATOM     12  C15 UNL     1       7.413  -0.558   2.336  0.00  0.00    +0.000 A 
ATOM     13  C16 UNL     1       8.799  -0.425   2.141  0.00  0.00    +0.000 A 
ATOM     14  C17 UNL     1       9.309  -0.043   0.884  0.00  0.00    +0.000 A 
ATOM     15  C18 UNL     1       8.438   0.208  -0.189  0.00  0.00    +0.000 A 
ATOM     16  C19 UNL     1       7.071   0.069   0.032  0.00  0.00    +0.000 A 
ATOM     17  S1  UNL     1       5.804   0.298  -1.041  0.00  0.00    +0.000 S 
ENDBRANCH   6   9
ENDBRANCH   1   3
BRANCH   1  18
ATOM     18  O1  UNL     1      -1.590   0.144  -2.005  0.00  0.00    +0.000 OA
ATOM     19  H1  UNL     1      -2.560   0.024  -2.269  0.00  0.00    +0.000 HD
ENDBRANCH   1  18
BRANCH   2  20
ATOM     20  N2  UNL     1      -3.301  -0.481   0.163  0.00  0.00    +0.000 NA
ATOM     21  C2  UNL     1      -3.958   0.597  -0.142  0.00  0.00    +0.000 C 
BRANCH  21  22
ATOM     22  C3  UNL     1      -5.433   0.595  -0.224  0.00  0.00    +0.000 A 
ATOM     23  C4  UNL     1      -6.106   1.781  -0.551  0.00  0.00    +0.000 A 
ATOM     24  C5  UNL     1      -7.501   1.804  -0.636  0.00  0.00    +0.000 A 
ATOM     25  C6  UNL     1      -8.251   0.639  -0.396  0.00  0.00    +0.000 A 
ATOM     26  C7  UNL     1      -7.575  -0.549  -0.069  0.00  0.00    +0.000 A 
ATOM     27  C8  UNL     1      -6.179  -0.572   0.016  0.00  0.00    +0.000 A 
BRANCH  25  28
ATOM     28  N3  UNL     1      -9.688   0.659  -0.483  0.00  0.00    +0.000 N 
ATOM     29  O2  UNL     1     -10.294   1.711  -0.773  0.00  0.00    +0.000 OA
ATOM     30  O3  UNL     1     -10.418  -0.483  -0.247  0.00  0.00    +0.000 OA
ENDBRANCH  25  28
ENDBRANCH  21  22
ENDBRANCH   2  20
TORSDOF 6
