REMARK  Name = resultss/4CJN/ligands/lig_263_t0.pdb
REMARK  7 active torsions:
REMARK  status: ('A' for Active; 'I' for Inactive)
REMARK    1  A    between atoms: C1_1  and  O1_2
REMARK    2  A    between atoms: O1_2  and  C2_3
REMARK    3  A    between atoms: C5_6  and  C6_7
REMARK    4  A    between atoms: C6_7  and  N1_8
REMARK    5  A    between atoms: C7_9  and  C8_11
REMARK    6  A    between atoms: C9_12  and  N2_13
REMARK    7  A    between atoms: C10_14  and  C11_16
REMARK                            x       y       z     vdW  Elec       q    Type
REMARK                         _______ _______ _______ _____ _____    ______ ____
ROOT
ATOM      1  C8  UNL     1      -1.269  -2.142  -0.347  0.00  0.00    +0.000 A 
ATOM      2  C9  UNL     1      -1.834  -1.651   0.841  0.00  0.00    +0.000 A 
ATOM      3  S1  UNL     1      -2.472  -2.931   1.759  0.00  0.00    +0.000 S 
ATOM      4  C16 UNL     1      -2.058  -4.085   0.615  0.00  0.00    +0.000 A 
ATOM      5  C17 UNL     1      -1.420  -3.529  -0.429  0.00  0.00    +0.000 A 
ATOM      6  C18 UNL     1      -1.057  -4.527  -1.459  0.00  0.00    +0.000 C 
ATOM      7  C19 UNL     1      -1.602  -5.854  -0.870  0.00  0.00    +0.000 C 
ATOM      8  C20 UNL     1      -2.253  -5.538   0.499  0.00  0.00    +0.000 C 
ENDROOT
BRANCH   1  10
ATOM      9  N1  UNL     1       0.837  -1.655  -1.637  0.00  0.00    +0.000 N 
ATOM     10  C7  UNL     1      -0.526  -1.336  -1.325  0.00  0.00    +0.000 C 
ATOM     11  O2  UNL     1      -1.088  -0.359  -1.880  0.00  0.00    +0.000 OA
ATOM     12  H8  UNL     1       1.275  -2.493  -1.197  0.00  0.00    +0.000 HD
BRANCH   9  13
ATOM     13  C6  UNL     1       1.697  -0.734  -2.375  0.00  0.00    +0.000 C 
BRANCH  13  17
ATOM     14  C2  UNL     1       2.575   2.620   0.206  0.00  0.00    +0.000 A 
ATOM     15  C3  UNL     1       1.631   2.746  -0.819  0.00  0.00    +0.000 A 
ATOM     16  C4  UNL     1       1.360   1.671  -1.671  0.00  0.00    +0.000 A 
ATOM     17  C5  UNL     1       2.038   0.450  -1.511  0.00  0.00    +0.000 A 
ATOM     18  C21 UNL     1       2.986   0.320  -0.484  0.00  0.00    +0.000 A 
ATOM     19  C22 UNL     1       3.259   1.397   0.364  0.00  0.00    +0.000 A 
BRANCH  14  21
ATOM     20  C1  UNL     1       3.750   3.743   2.101  0.00  0.00    +0.000 C 
ATOM     21  O1  UNL     1       2.793   3.721   1.048  0.00  0.00    +0.000 OA
ENDBRANCH  14  21
ENDBRANCH  13  17
ENDBRANCH   9  13
ENDBRANCH   1  10
BRANCH   2  22
ATOM     22  N2  UNL     1      -1.735  -0.307   1.325  0.00  0.00    +0.000 N 
ATOM     23  C10 UNL     1      -2.276   0.807   0.600  0.00  0.00    +0.000 C 
ATOM     24  O3  UNL     1      -3.169   0.602  -0.271  0.00  0.00    +0.000 OA
ATOM     25  H9  UNL     1      -1.459  -0.170   2.323  0.00  0.00    +0.000 HD
BRANCH  23  26
ATOM     26  C11 UNL     1      -1.831   2.195   0.884  0.00  0.00    +0.000 A 
ATOM     27  C12 UNL     1      -2.555   3.290   0.380  0.00  0.00    +0.000 A 
ATOM     28  C13 UNL     1      -2.134   4.594   0.642  0.00  0.00    +0.000 A 
ATOM     29  C14 UNL     1      -0.983   4.801   1.402  0.00  0.00    +0.000 A 
ATOM     30  N3  UNL     1      -0.283   3.739   1.877  0.00  0.00    +0.000 NA
ATOM     31  C15 UNL     1      -0.672   2.457   1.638  0.00  0.00    +0.000 A 
ENDBRANCH  23  26
ENDBRANCH   2  22
TORSDOF 6
