REMARK  Name = resultss/4CJN/ligands/lig_32_t0.pdb
REMARK  11 active torsions:
REMARK  status: ('A' for Active; 'I' for Inactive)
REMARK    1  A    between atoms: C1_1  and  SI1_2
REMARK    2  A    between atoms: SI1_2  and  C2_3
REMARK    3  A    between atoms: SI1_2  and  C3_4
REMARK    4  A    between atoms: SI1_2  and  C4_5
REMARK    5  A    between atoms: C5_6  and  C6_7
REMARK    6  A    between atoms: C6_7  and  N1_8
REMARK    7  A    between atoms: C8_10  and  O1_11
REMARK    8  A    between atoms: C9_12  and  O2_13
REMARK    9  A    between atoms: C10_14  and  O3_15
REMARK   10  A    between atoms: C11_16  and  C12_17
REMARK   11  A    between atoms: C12_17  and  O4_18
REMARK                            x       y       z     vdW  Elec       q    Type
REMARK                         _______ _______ _______ _____ _____    ______ ____
ROOT
ATOM      1  N1  UNL     1       1.103  -0.277  -0.438  0.00  0.00    +0.000 NA
ATOM      2  C7  UNL     1       1.400   0.985   0.298  0.00  0.00    +0.000 C 
ATOM      3  C8  UNL     1       2.529   0.843   1.345  0.00  0.00    +0.000 C 
ATOM      4  C9  UNL     1       2.721  -0.629   1.748  0.00  0.00    +0.000 C 
ATOM      5  C10 UNL     1       3.056  -1.497   0.511  0.00  0.00    +0.000 C 
ATOM      6  C11 UNL     1       2.373  -0.979  -0.790  0.00  0.00    +0.000 C 
ENDROOT
BRANCH   3   7
ATOM      7  O1  UNL     1       3.726   1.360   0.819  0.00  0.00    +0.000 OA
ATOM      8  H17 UNL     1       4.344   1.493   1.585  0.00  0.00    +0.000 HD
ENDBRANCH   3   7
BRANCH   4   9
ATOM      9  O2  UNL     1       1.548  -1.113   2.354  0.00  0.00    +0.000 OA
ATOM     10  H19 UNL     1       1.507  -0.717   3.263  0.00  0.00    +0.000 HD
ENDBRANCH   4   9
BRANCH   5  11
ATOM     11  O3  UNL     1       4.448  -1.529   0.311  0.00  0.00    +0.000 OA
ATOM     12  H21 UNL     1       4.823  -2.157   0.983  0.00  0.00    +0.000 HD
ENDBRANCH   5  11
BRANCH   1  13
ATOM     13  C6  UNL     1       0.240   0.016  -1.611  0.00  0.00    +0.000 C 
BRANCH  13  15
ATOM     14  C4  UNL     1      -1.927   0.003  -0.407  0.00  0.00    +0.000 C 
ATOM     15  C5  UNL     1      -1.064   0.649  -1.200  0.00  0.00    +0.000 C 
BRANCH  14  17
ATOM     16  C1  UNL     1      -4.442  -0.372   1.240  0.00  0.00    +0.000 C 
ATOM     17 SI1  UNL     1      -3.500   0.802   0.136  0.00  0.00    +0.000 Si
ATOM     18  C2  UNL     1      -3.108   2.362   1.084  0.00  0.00    +0.000 C 
ATOM     19  C3  UNL     1      -4.541   1.222  -1.356  0.00  0.00    +0.000 C 
ENDBRANCH  14  17
ENDBRANCH  13  15
ENDBRANCH   1  13
BRANCH   6  20
ATOM     20  C12 UNL     1       2.186  -2.175  -1.758  0.00  0.00    +0.000 C 
BRANCH  20  21
ATOM     21  O4  UNL     1       2.097  -1.726  -3.083  0.00  0.00    +0.000 OA
ATOM     22  H25 UNL     1       1.921  -2.530  -3.637  0.00  0.00    +0.000 HD
ENDBRANCH  20  21
ENDBRANCH   6  20
TORSDOF 8
