REMARK  Name = resultss/4CJN/ligands/lig_321_t0.pdb
REMARK  11 active torsions:
REMARK  status: ('A' for Active; 'I' for Inactive)
REMARK    1  A    between atoms: C1_1  and  O1_2
REMARK    2  A    between atoms: O1_2  and  C2_3
REMARK    3  A    between atoms: C4_5  and  O2_6
REMARK    4  A    between atoms: C8_11  and  O4_12
REMARK    5  A    between atoms: C9_13  and  O5_14
REMARK    6  A    between atoms: O5_14  and  C10_15
REMARK    7  A    between atoms: C11_17  and  C12_18
REMARK    8  A    between atoms: C12_18  and  O7_19
REMARK    9  A    between atoms: C13_20  and  O8_21
REMARK   10  A    between atoms: C14_22  and  O9_23
REMARK   11  A    between atoms: C15_24  and  O10_25
REMARK                            x       y       z     vdW  Elec       q    Type
REMARK                         _______ _______ _______ _____ _____    ______ ____
ROOT
ATOM      1  C2  UNL     1       6.417   0.324   0.650  0.00  0.00    +0.000 A 
ATOM      2  C3  UNL     1       6.141  -0.881  -0.013  0.00  0.00    +0.000 A 
ATOM      3  C4  UNL     1       4.840  -1.208  -0.413  0.00  0.00    +0.000 A 
ATOM      4  C5  UNL     1       3.777  -0.274  -0.203  0.00  0.00    +0.000 A 
ATOM      5  C6  UNL     1       2.444  -0.448  -0.661  0.00  0.00    +0.000 A 
ATOM      6  O3  UNL     1       2.119  -1.497  -1.272  0.00  0.00    +0.000 OA
ATOM      7  C7  UNL     1       1.471   0.555  -0.415  0.00  0.00    +0.000 A 
ATOM      8  C8  UNL     1       0.119   0.492  -0.874  0.00  0.00    +0.000 A 
ATOM      9  C9  UNL     1      -0.814   1.451  -0.426  0.00  0.00    +0.000 A 
ATOM     10  C16 UNL     1      -0.394   2.529   0.353  0.00  0.00    +0.000 A 
ATOM     11  C17 UNL     1       0.939   2.648   0.729  0.00  0.00    +0.000 A 
ATOM     12  C18 UNL     1       1.867   1.670   0.362  0.00  0.00    +0.000 A 
ATOM     13  O11 UNL     1       3.123   1.814   0.753  0.00  0.00    +0.000 OA
ATOM     14  C19 UNL     1       4.073   0.929   0.488  0.00  0.00    +0.000 A 
ATOM     15  C20 UNL     1       5.375   1.211   0.908  0.00  0.00    +0.000 A 
ENDROOT
BRANCH   1  17
ATOM     16  C1  UNL     1       8.866  -0.137   0.885  0.00  0.00    +0.000 C 
ATOM     17  O1  UNL     1       7.709   0.674   1.072  0.00  0.00    +0.000 OA
ENDBRANCH   1  17
BRANCH   3  18
ATOM     18  O2  UNL     1       4.678  -2.469  -0.997  0.00  0.00    +0.000 OA
ATOM     19  H5  UNL     1       3.807  -2.969  -1.076  0.00  0.00    +0.000 HD
ENDBRANCH   3  18
BRANCH   8  20
ATOM     20  O4  UNL     1      -0.327  -0.447  -1.809  0.00  0.00    +0.000 OA
ATOM     21  H6  UNL     1       0.272  -0.915  -2.473  0.00  0.00    +0.000 HD
ENDBRANCH   8  20
BRANCH   9  22
ATOM     22  O5  UNL     1      -2.163   1.380  -0.792  0.00  0.00    +0.000 OA
BRANCH  22  23
ATOM     23  C10 UNL     1      -3.006   0.285  -0.438  0.00  0.00    +0.000 C 
ATOM     24  O6  UNL     1      -3.144   0.260   0.976  0.00  0.00    +0.000 OA
ATOM     25  C11 UNL     1      -4.183  -0.584   1.472  0.00  0.00    +0.000 C 
ATOM     26  C13 UNL     1      -4.858  -1.515   0.423  0.00  0.00    +0.000 C 
ATOM     27  C14 UNL     1      -5.314  -0.720  -0.825  0.00  0.00    +0.000 C 
ATOM     28  C15 UNL     1      -4.362   0.465  -1.139  0.00  0.00    +0.000 C 
BRANCH  26  29
ATOM     29  O8  UNL     1      -3.946  -2.528   0.067  0.00  0.00    +0.000 OA
ATOM     30  H13 UNL     1      -4.477  -3.310  -0.241  0.00  0.00    +0.000 HD
ENDBRANCH  26  29
BRANCH  27  31
ATOM     31  O9  UNL     1      -5.422  -1.593  -1.925  0.00  0.00    +0.000 OA
ATOM     32  H15 UNL     1      -6.106  -1.212  -2.537  0.00  0.00    +0.000 HD
ENDBRANCH  27  31
BRANCH  28  33
ATOM     33  O10 UNL     1      -4.158   0.600  -2.523  0.00  0.00    +0.000 OA
ATOM     34  H17 UNL     1      -4.963   1.051  -2.889  0.00  0.00    +0.000 HD
ENDBRANCH  28  33
BRANCH  25  35
ATOM     35  C12 UNL     1      -5.213   0.290   2.213  0.00  0.00    +0.000 C 
BRANCH  35  36
ATOM     36  O7  UNL     1      -6.125  -0.500   2.928  0.00  0.00    +0.000 OA
ATOM     37  H11 UNL     1      -5.646  -0.831   3.733  0.00  0.00    +0.000 HD
ENDBRANCH  35  36
ENDBRANCH  25  35
ENDBRANCH  22  23
ENDBRANCH   9  22
TORSDOF 10
