REMARK  Name = resultss/4CJN/ligands/lig_84_t0.pdb
REMARK  9 active torsions:
REMARK  status: ('A' for Active; 'I' for Inactive)
REMARK    1  A    between atoms: C1_1  and  C2_2
REMARK    2  A    between atoms: C2_2  and  C3_3
REMARK    3  A    between atoms: C3_3  and  O1_4
REMARK    4  A    between atoms: C9_11  and  C10_12
REMARK    5  A    between atoms: C11_13  and  C12_14
REMARK    6  A    between atoms: C15_17  and  C16_18
REMARK    7  A    between atoms: C17_19  and  C18_20
REMARK    8  A    between atoms: C25_29  and  C26_30
REMARK    9  A    between atoms: C29_33  and  O5_34
REMARK                            x       y       z     vdW  Elec       q    Type
REMARK                         _______ _______ _______ _____ _____    ______ ____
ROOT
ATOM      1  C1  UNL     1      -6.322   0.545   1.902  0.00  0.00    +0.000 C 
ATOM      2  C2  UNL     1      -5.619  -0.362   0.847  0.00  0.00    +0.000 C 
ATOM      3  C4  UNL     1      -4.172  -0.774   1.409  0.00  0.00    +0.000 C 
ATOM      4  C5  UNL     1      -3.868  -2.296   1.542  0.00  0.00    +0.000 C 
ATOM      5  C6  UNL     1      -2.468  -2.614   2.132  0.00  0.00    +0.000 C 
ATOM      6  C7  UNL     1      -1.711  -1.374   2.647  0.00  0.00    +0.000 C 
ATOM      7  C8  UNL     1      -0.630  -1.578   3.648  0.00  0.00    +0.000 C 
ATOM      8  O2  UNL     1      -1.930  -1.195   4.031  0.00  0.00    +0.000 OA
ATOM      9  C9  UNL     1      -1.793  -0.022   1.875  0.00  0.00    +0.000 C 
ATOM     10  C25 UNL     1      -2.934  -0.028   0.785  0.00  0.00    +0.000 C 
ATOM     11  C26 UNL     1      -2.417  -0.704  -0.525  0.00  0.00    +0.000 C 
ATOM     12  C27 UNL     1      -3.340   1.432   0.478  0.00  0.00    +0.000 C 
ATOM     13  C28 UNL     1      -4.475   1.556  -0.551  0.00  0.00    +0.000 C 
ATOM     14  C29 UNL     1      -5.556   0.443  -0.500  0.00  0.00    +0.000 C 
ENDROOT
BRANCH   9  15
ATOM     15  C10 UNL     1      -0.450   0.454   1.346  0.00  0.00    +0.000 C 
ATOM     16  C11 UNL     1       0.455  -0.365   0.793  0.00  0.00    +0.000 C 
BRANCH  16  17
ATOM     17  C12 UNL     1       1.758   0.096   0.273  0.00  0.00    +0.000 C 
ATOM     18  C13 UNL     1       2.738  -0.724  -0.097  0.00  0.00    +0.000 C 
ATOM     19  C14 UNL     1       3.854   0.096  -0.572  0.00  0.00    +0.000 C 
ATOM     20  C15 UNL     1       5.021  -0.369  -1.021  0.00  0.00    +0.000 C 
ATOM     21  O3  UNL     1       3.515   1.440  -0.488  0.00  0.00    +0.000 OA
ATOM     22  C24 UNL     1       2.228   1.464   0.023  0.00  0.00    +0.000 C 
ATOM     23  O4  UNL     1       1.574   2.524   0.202  0.00  0.00    +0.000 OA
BRANCH  20  24
ATOM     24  C16 UNL     1       6.087   0.536  -1.485  0.00  0.00    +0.000 C 
ATOM     25  C17 UNL     1       7.256   0.049  -1.919  0.00  0.00    +0.000 C 
BRANCH  25  26
ATOM     26  C18 UNL     1       8.380   0.895  -2.392  0.00  0.00    +0.000 A 
ATOM     27  C19 UNL     1       8.195   2.216  -2.850  0.00  0.00    +0.000 A 
ATOM     28  C20 UNL     1       9.287   2.968  -3.296  0.00  0.00    +0.000 A 
ATOM     29  C21 UNL     1      10.568   2.412  -3.300  0.00  0.00    +0.000 A 
ATOM     30  C22 UNL     1      10.760   1.100  -2.864  0.00  0.00    +0.000 A 
ATOM     31  C23 UNL     1       9.673   0.343  -2.417  0.00  0.00    +0.000 A 
ENDBRANCH  25  26
ENDBRANCH  20  24
ENDBRANCH  16  17
ENDBRANCH   9  15
BRANCH  14  32
ATOM     32  O5  UNL     1      -5.409  -0.429  -1.593  0.00  0.00    +0.000 OA
ATOM     33  H34 UNL     1      -5.702   0.062  -2.406  0.00  0.00    +0.000 HD
ENDBRANCH  14  32
BRANCH   2  34
ATOM     34  C3  UNL     1      -6.552  -1.604   0.650  0.00  0.00    +0.000 C 
BRANCH  34  35
ATOM     35  O1  UNL     1      -7.793  -1.236   0.101  0.00  0.00    +0.000 OA
ATOM     36  H6  UNL     1      -8.435  -1.148   0.854  0.00  0.00    +0.000 HD
ENDBRANCH  34  35
ENDBRANCH   2  34
TORSDOF 7
