REMARK  Name = resultss/4CJN/ligands/lig_262_t1.pdb
REMARK  7 active torsions:
REMARK  status: ('A' for Active; 'I' for Inactive)
REMARK    1  A    between atoms: C1_1  and  C2_2
REMARK    2  A    between atoms: C2_2  and  C3_3
REMARK    3  A    between atoms: C2_2  and  O1_4
REMARK    4  A    between atoms: C2_2  and  C4_5
REMARK    5  A    between atoms: C14_16  and  C15_17
REMARK    6  A    between atoms: C18_20  and  O3_21
REMARK    7  A    between atoms: C19_22  and  O4_23
REMARK                            x       y       z     vdW  Elec       q    Type
REMARK                         _______ _______ _______ _____ _____    ______ ____
ROOT
ATOM      1  C4  UNL     1      -3.977   0.817  -0.466  0.00  0.00    +0.000 C 
ATOM      2  C5  UNL     1      -3.786   1.248   1.019  0.00  0.00    +0.000 C 
ATOM      3  C6  UNL     1      -2.341   1.044   1.271  0.00  0.00    +0.000 A 
ATOM      4  C7  UNL     1      -1.671   1.182   2.504  0.00  0.00    +0.000 A 
ATOM      5  C8  UNL     1      -0.278   0.962   2.558  0.00  0.00    +0.000 A 
ATOM      6  C9  UNL     1       0.382   0.623   1.369  0.00  0.00    +0.000 A 
ATOM      7  C10 UNL     1      -0.291   0.494   0.171  0.00  0.00    +0.000 A 
ATOM      8  C11 UNL     1      -1.665   0.705   0.119  0.00  0.00    +0.000 A 
ATOM      9  C12 UNL     1      -2.552   0.633  -1.061  0.00  0.00    +0.000 C 
ATOM     10  O2  UNL     1       0.559   0.146  -0.875  0.00  0.00    +0.000 OA
ATOM     11  C13 UNL     1       1.848   0.049  -0.343  0.00  0.00    +0.000 C 
ATOM     12  C14 UNL     1       2.914  -0.280  -1.084  0.00  0.00    +0.000 C 
ATOM     13  C21 UNL     1       1.777   0.334   1.100  0.00  0.00    +0.000 C 
ATOM     14  O5  UNL     1       2.700   0.256   1.952  0.00  0.00    +0.000 OA
ENDROOT
BRANCH  12  15
ATOM     15  C15 UNL     1       4.299  -0.325  -0.580  0.00  0.00    +0.000 A 
ATOM     16  C16 UNL     1       4.868   0.776   0.081  0.00  0.00    +0.000 A 
ATOM     17  C17 UNL     1       6.197   0.730   0.510  0.00  0.00    +0.000 A 
ATOM     18  C18 UNL     1       6.980  -0.405   0.264  0.00  0.00    +0.000 A 
ATOM     19  C19 UNL     1       6.426  -1.498  -0.426  0.00  0.00    +0.000 A 
ATOM     20  C20 UNL     1       5.094  -1.448  -0.853  0.00  0.00    +0.000 A 
BRANCH  18  21
ATOM     21  O3  UNL     1       8.305  -0.449   0.694  0.00  0.00    +0.000 OA
ATOM     22  H18 UNL     1       8.728   0.326   1.191  0.00  0.00    +0.000 HD
ENDBRANCH  18  21
BRANCH  19  23
ATOM     23  O4  UNL     1       7.182  -2.637  -0.697  0.00  0.00    +0.000 OA
ATOM     24  H19 UNL     1       8.150  -2.722  -0.410  0.00  0.00    +0.000 HD
ENDBRANCH  19  23
ENDBRANCH  12  15
BRANCH   1  26
ATOM     25  C1  UNL     1      -4.374  -1.672   0.113  0.00  0.00    +0.000 C 
ATOM     26  C2  UNL     1      -4.890  -0.444  -0.668  0.00  0.00    +0.000 C 
ATOM     27  C3  UNL     1      -6.339  -0.143  -0.224  0.00  0.00    +0.000 C 
BRANCH  26  28
ATOM     28  O1  UNL     1      -4.908  -0.794  -2.033  0.00  0.00    +0.000 OA
ATOM     29  H7  UNL     1      -5.245  -0.013  -2.547  0.00  0.00    +0.000 HD
ENDBRANCH  26  28
ENDBRANCH   1  26
TORSDOF 5
