REMARK  Name = resultss/4CJN/ligands/lig_319_t1.pdb
REMARK  11 active torsions:
REMARK  status: ('A' for Active; 'I' for Inactive)
REMARK    1  A    between atoms: C1_1  and  O1_2
REMARK    2  A    between atoms: O1_2  and  C2_3
REMARK    3  A    between atoms: C4_5  and  O2_6
REMARK    4  A    between atoms: O2_6  and  C5_7
REMARK    5  A    between atoms: C6_9  and  C7_10
REMARK    6  A    between atoms: C7_10  and  O4_11
REMARK    7  A    between atoms: C8_12  and  O5_13
REMARK    8  A    between atoms: C9_14  and  O6_15
REMARK    9  A    between atoms: C10_16  and  O7_17
REMARK   10  A    between atoms: C17_26  and  O10_27
REMARK   11  A    between atoms: O10_27  and  C18_28
REMARK                            x       y       z     vdW  Elec       q    Type
REMARK                         _______ _______ _______ _____ _____    ______ ____
ROOT
ATOM      1  C2  UNL     1       1.226   2.944   0.691  0.00  0.00    +0.000 A 
ATOM      2  C3  UNL     1      -0.025   2.493   0.263  0.00  0.00    +0.000 A 
ATOM      3  C4  UNL     1      -0.200   1.186  -0.237  0.00  0.00    +0.000 A 
ATOM      4  C11 UNL     1       0.923   0.324  -0.321  0.00  0.00    +0.000 A 
ATOM      5  C12 UNL     1       0.845  -0.996  -0.818  0.00  0.00    +0.000 A 
ATOM      6  O8  UNL     1      -0.250  -1.471  -1.226  0.00  0.00    +0.000 OA
ATOM      7  C13 UNL     1       2.003  -1.793  -0.859  0.00  0.00    +0.000 A 
ATOM      8  C14 UNL     1       1.952  -3.190  -1.344  0.00  0.00    +0.000 C 
ATOM      9  C15 UNL     1       3.024  -3.979  -1.290  0.00  0.00    +0.000 C 
ATOM     10  C16 UNL     1       4.306  -3.481  -0.772  0.00  0.00    +0.000 C 
ATOM     11  O9  UNL     1       5.264  -4.286  -0.631  0.00  0.00    +0.000 OA
ATOM     12  C17 UNL     1       4.515  -2.023  -0.455  0.00  0.00    +0.000 C 
ATOM     13  C19 UNL     1       3.218  -1.244  -0.407  0.00  0.00    +0.000 A 
ATOM     14  O11 UNL     1       3.254   0.001   0.053  0.00  0.00    +0.000 OA
ATOM     15  C20 UNL     1       2.186   0.787   0.115  0.00  0.00    +0.000 A 
ATOM     16  C21 UNL     1       2.331   2.082   0.616  0.00  0.00    +0.000 A 
ENDROOT
BRANCH   1  18
ATOM     17  C1  UNL     1       2.534   4.844   1.658  0.00  0.00    +0.000 C 
ATOM     18  O1  UNL     1       1.328   4.254   1.183  0.00  0.00    +0.000 OA
ENDBRANCH   1  18
BRANCH  12  19
ATOM     19  O10 UNL     1       5.343  -1.469  -1.464  0.00  0.00    +0.000 OA
ATOM     20  C18 UNL     1       6.354  -0.665  -0.897  0.00  0.00    +0.000 C 
ENDBRANCH  12  19
BRANCH   3  21
ATOM     21  O2  UNL     1      -1.460   0.724  -0.661  0.00  0.00    +0.000 OA
BRANCH  21  22
ATOM     22  C5  UNL     1      -2.719   1.375  -0.464  0.00  0.00    +0.000 C 
ATOM     23  O3  UNL     1      -3.681   0.776  -1.325  0.00  0.00    +0.000 OA
ATOM     24  C6  UNL     1      -4.453  -0.278  -0.751  0.00  0.00    +0.000 C 
ATOM     25  C8  UNL     1      -3.704  -1.060   0.363  0.00  0.00    +0.000 C 
ATOM     26  C9  UNL     1      -3.280  -0.110   1.513  0.00  0.00    +0.000 C 
ATOM     27  C10 UNL     1      -3.129   1.347   1.028  0.00  0.00    +0.000 C 
BRANCH  25  28
ATOM     28  O5  UNL     1      -4.511  -2.096   0.872  0.00  0.00    +0.000 OA
ATOM     29  H11 UNL     1      -4.219  -2.941   0.440  0.00  0.00    +0.000 HD
ENDBRANCH  25  28
BRANCH  26  30
ATOM     30  O6  UNL     1      -4.199  -0.157   2.578  0.00  0.00    +0.000 OA
ATOM     31  H13 UNL     1      -3.949  -0.933   3.146  0.00  0.00    +0.000 HD
ENDBRANCH  26  30
BRANCH  27  32
ATOM     32  O7  UNL     1      -4.338   2.047   1.196  0.00  0.00    +0.000 OA
ATOM     33  H15 UNL     1      -4.120   3.014   1.137  0.00  0.00    +0.000 HD
ENDBRANCH  27  32
BRANCH  24  34
ATOM     34  C7  UNL     1      -4.890  -1.208  -1.897  0.00  0.00    +0.000 C 
BRANCH  34  35
ATOM     35  O4  UNL     1      -5.917  -2.073  -1.490  0.00  0.00    +0.000 OA
ATOM     36  H9  UNL     1      -6.748  -1.531  -1.453  0.00  0.00    +0.000 HD
ENDBRANCH  34  35
ENDBRANCH  24  34
ENDBRANCH  21  22
ENDBRANCH   3  21
TORSDOF 9
