REMARK  Name = resultss/4CJN/ligands/lig_393_t2.pdb
REMARK  4 active torsions:
REMARK  status: ('A' for Active; 'I' for Inactive)
REMARK    1  A    between atoms: C2_4  and  N2_5
REMARK    2  A    between atoms: C7_13  and  C8_14
REMARK    3  A    between atoms: C10_16  and  C11_17
REMARK    4  A    between atoms: C15_26  and  O2_27
REMARK                            x       y       z     vdW  Elec       q    Type
REMARK                         _______ _______ _______ _____ _____    ______ ____
ROOT
ATOM      1  C8  UNL     1      -1.896  -0.247   0.856  0.00  0.00    +0.000 A 
ATOM      2  C9  UNL     1      -2.645  -1.431   0.683  0.00  0.00    +0.000 A 
ATOM      3  C10 UNL     1      -3.834  -1.436  -0.078  0.00  0.00    +0.000 A 
ATOM      4  C12 UNL     1      -4.246  -0.218  -0.635  0.00  0.00    +0.000 A 
ATOM      5  S3  UNL     1      -5.600   0.118  -1.575  0.00  0.00    +0.000 S 
ATOM      6  C13 UNL     1      -5.218   1.758  -1.705  0.00  0.00    +0.000 A 
ATOM      7  N4  UNL     1      -4.076   2.058  -1.043  0.00  0.00    +0.000 NA
ATOM      8  C14 UNL     1      -3.536   0.960  -0.451  0.00  0.00    +0.000 A 
ATOM      9  C15 UNL     1      -2.359   0.970   0.306  0.00  0.00    +0.000 A 
ENDROOT
BRANCH   1  16
ATOM     10  O1  UNL     1       1.833  -0.359   3.177  0.00  0.00    +0.000 OA
ATOM     11  C1  UNL     1       1.769  -0.020   1.966  0.00  0.00    +0.000 C 
ATOM     12  N1  UNL     1       2.920   0.311   1.213  0.00  0.00    +0.000 NA
ATOM     13  C2  UNL     1       2.634   0.599  -0.018  0.00  0.00    +0.000 C 
ATOM     14  S2  UNL     1       0.887   0.593  -0.472  0.00  0.00    +0.000 S 
ATOM     15  C6  UNL     1       0.535   0.071   1.207  0.00  0.00    +0.000 C 
ATOM     16  C7  UNL     1      -0.665  -0.302   1.669  0.00  0.00    +0.000 C 
BRANCH  13  17
ATOM     17  N2  UNL     1       3.623   1.056  -0.951  0.00  0.00    +0.000 NA
ATOM     18  C3  UNL     1       4.908   0.844  -0.928  0.00  0.00    +0.000 A 
ATOM     19  N3  UNL     1       5.561   0.041  -0.053  0.00  0.00    +0.000 N 
ATOM     20  C4  UNL     1       6.898  -0.003  -0.301  0.00  0.00    +0.000 A 
ATOM     21  C5  UNL     1       7.317   0.761  -1.384  0.00  0.00    +0.000 A 
ATOM     22  S1  UNL     1       5.964   1.509  -2.051  0.00  0.00    +0.000 S 
ATOM     23  H1  UNL     1       5.125  -0.524   0.706  0.00  0.00    +0.000 HD
ENDBRANCH  13  17
ENDBRANCH   1  16
BRANCH   3  24
ATOM     24  C11 UNL     1      -4.640  -2.696  -0.286  0.00  0.00    +0.000 C 
ATOM     25  F1  UNL     1      -5.911  -2.523   0.229  0.00  0.00    +0.000 F 
ATOM     26  F2  UNL     1      -4.732  -2.968  -1.639  0.00  0.00    +0.000 F 
ATOM     27  F3  UNL     1      -4.057  -3.784   0.340  0.00  0.00    +0.000 F 
ENDBRANCH   3  24
BRANCH   9  28
ATOM     28  O2  UNL     1      -1.665   2.160   0.536  0.00  0.00    +0.000 OA
ATOM     29  H7  UNL     1      -1.977   3.046   0.158  0.00  0.00    +0.000 HD
ENDBRANCH   9  28
TORSDOF 4
