REMARK  Name = resultss/4CJN/ligands/lig_288_t2.pdb
REMARK  4 active torsions:
REMARK  status: ('A' for Active; 'I' for Inactive)
REMARK    1  A    between atoms: C1_1  and  O1_2
REMARK    2  A    between atoms: O1_2  and  C2_3
REMARK    3  A    between atoms: C8_10  and  O3_11
REMARK    4  A    between atoms: C10_13  and  O4_14
REMARK                            x       y       z     vdW  Elec       q    Type
REMARK                         _______ _______ _______ _____ _____    ______ ____
ROOT
ATOM      1  C2  UNL     1       3.068   0.353  -0.110  0.00  0.00    +0.000 C 
ATOM      2  C3  UNL     1       2.964  -0.981   0.022  0.00  0.00    +0.000 C 
ATOM      3  C4  UNL     1       1.654  -1.722  -0.036  0.00  0.00    +0.000 C 
ATOM      4  C5  UNL     1       0.428  -0.847  -0.067  0.00  0.00    +0.000 A 
ATOM      5  O2  UNL     1      -0.756  -1.436   0.029  0.00  0.00    +0.000 OA
ATOM      6  C6  UNL     1      -1.905  -0.776  -0.017  0.00  0.00    +0.000 A 
ATOM      7  C7  UNL     1      -3.094  -1.496   0.126  0.00  0.00    +0.000 A 
ATOM      8  C8  UNL     1      -4.324  -0.842   0.102  0.00  0.00    +0.000 A 
ATOM      9  C9  UNL     1      -4.371   0.539  -0.099  0.00  0.00    +0.000 A 
ATOM     10  C10 UNL     1      -3.198   1.282  -0.285  0.00  0.00    +0.000 A 
ATOM     11  C11 UNL     1      -1.930   0.631  -0.198  0.00  0.00    +0.000 A 
ATOM     12  C12 UNL     1      -0.681   1.297  -0.244  0.00  0.00    +0.000 A 
ATOM     13  O5  UNL     1      -0.619   2.554  -0.282  0.00  0.00    +0.000 OA
ATOM     14  C13 UNL     1       0.515   0.548  -0.202  0.00  0.00    +0.000 A 
ATOM     15  C14 UNL     1       1.858   1.175  -0.267  0.00  0.00    +0.000 C 
ATOM     16  O6  UNL     1       1.985   2.416  -0.451  0.00  0.00    +0.000 OA
ENDROOT
BRANCH   1  18
ATOM     17  C1  UNL     1       5.575   0.372   0.043  0.00  0.00    +0.000 C 
ATOM     18  O1  UNL     1       4.310   1.012  -0.101  0.00  0.00    +0.000 OA
ENDBRANCH   1  18
BRANCH   8  19
ATOM     19  O3  UNL     1      -5.496  -1.576   0.269  0.00  0.00    +0.000 OA
ATOM     20  H8  UNL     1      -6.406  -1.132   0.253  0.00  0.00    +0.000 HD
ENDBRANCH   8  19
BRANCH  10  21
ATOM     21  O4  UNL     1      -3.360   2.639  -0.580  0.00  0.00    +0.000 OA
ATOM     22  H10 UNL     1      -2.663   3.217  -1.026  0.00  0.00    +0.000 HD
ENDBRANCH  10  21
TORSDOF 3
