REMARK  Name = resultss/4CJN/ligands/lig_420_t2.pdb
REMARK  6 active torsions:
REMARK  status: ('A' for Active; 'I' for Inactive)
REMARK    1  A    between atoms: C1_2  and  C10_18
REMARK    2  A    between atoms: N1_3  and  N2_4
REMARK    3  A    between atoms: C2_5  and  S1_6
REMARK    4  A    between atoms: N3_7  and  C3_8
REMARK    5  A    between atoms: C7_12  and  C8_13
REMARK    6  A    between atoms: C20_29  and  C21_30
REMARK                            x       y       z     vdW  Elec       q    Type
REMARK                         _______ _______ _______ _____ _____    ______ ____
ROOT
ATOM      1  O1  UNL     1       0.278  -1.939   3.229  0.00  0.00    +0.000 OA
ATOM      2  C1  UNL     1       0.189  -1.324   2.131  0.00  0.00    +0.000 C 
ATOM      3  N1  UNL     1       1.375  -0.815   1.503  0.00  0.00    +0.000 N 
ATOM      4  H1  UNL     1       1.300  -0.368   0.562  0.00  0.00    +0.000 HD
ENDROOT
BRANCH   2   5
ATOM      5  C10 UNL     1      -1.134  -1.135   1.498  0.00  0.00    +0.000 A 
ATOM      6  C11 UNL     1      -2.296  -1.699   2.068  0.00  0.00    +0.000 A 
ATOM      7  C12 UNL     1      -3.498  -1.478   1.407  0.00  0.00    +0.000 A 
ATOM      8  C13 UNL     1      -3.574  -0.735   0.249  0.00  0.00    +0.000 A 
ATOM      9  N4  UNL     1      -4.837  -0.710  -0.239  0.00  0.00    +0.000 N 
ATOM     10  C14 UNL     1      -5.561  -1.436   0.640  0.00  0.00    +0.000 A 
ATOM     11  C15 UNL     1      -6.925  -1.716   0.578  0.00  0.00    +0.000 A 
ATOM     12  C16 UNL     1      -7.482  -2.510   1.598  0.00  0.00    +0.000 A 
ATOM     13  C17 UNL     1      -6.672  -3.007   2.644  0.00  0.00    +0.000 A 
ATOM     14  C18 UNL     1      -5.297  -2.714   2.685  0.00  0.00    +0.000 A 
ATOM     15  C19 UNL     1      -4.775  -1.922   1.664  0.00  0.00    +0.000 A 
ATOM     16  C20 UNL     1      -2.417  -0.164  -0.296  0.00  0.00    +0.000 A 
ATOM     17  N5  UNL     1      -1.233  -0.396   0.347  0.00  0.00    +0.000 NA
ATOM     18  H9  UNL     1      -5.183  -0.263  -1.117  0.00  0.00    +0.000 HD
BRANCH  16  19
ATOM     19  C21 UNL     1      -2.427   0.667  -1.517  0.00  0.00    +0.000 A 
ATOM     20  C22 UNL     1      -3.366   1.699  -1.682  0.00  0.00    +0.000 A 
ATOM     21  C23 UNL     1      -3.336   2.503  -2.826  0.00  0.00    +0.000 A 
ATOM     22  C24 UNL     1      -2.363   2.292  -3.806  0.00  0.00    +0.000 A 
ATOM     23  C25 UNL     1      -1.414   1.281  -3.641  0.00  0.00    +0.000 A 
ATOM     24  C26 UNL     1      -1.439   0.475  -2.499  0.00  0.00    +0.000 A 
ENDBRANCH  16  19
ENDBRANCH   2   5
BRANCH   3  25
ATOM     25  N2  UNL     1       2.631  -0.897   2.134  0.00  0.00    +0.000 N 
ATOM     26  C2  UNL     1       3.826  -0.419   1.506  0.00  0.00    +0.000 C 
ATOM     27  N3  UNL     1       3.787  -0.012   0.268  0.00  0.00    +0.000 NA
ATOM     28  H2  UNL     1       2.704  -1.290   3.100  0.00  0.00    +0.000 HD
BRANCH  27  29
ATOM     29  C3  UNL     1       4.880   0.532  -0.485  0.00  0.00    +0.000 A 
ATOM     30  C4  UNL     1       5.108   0.066  -1.784  0.00  0.00    +0.000 A 
ATOM     31  C5  UNL     1       6.130   0.615  -2.560  0.00  0.00    +0.000 A 
ATOM     32  C6  UNL     1       6.922   1.646  -2.050  0.00  0.00    +0.000 A 
ATOM     33  C7  UNL     1       6.702   2.135  -0.751  0.00  0.00    +0.000 A 
ATOM     34  C9  UNL     1       5.655   1.592   0.015  0.00  0.00    +0.000 A 
BRANCH  33  35
ATOM     35  C8  UNL     1       7.507   3.298  -0.230  0.00  0.00    +0.000 C 
ATOM     36  F1  UNL     1       6.892   4.479  -0.603  0.00  0.00    +0.000 F 
ATOM     37  F2  UNL     1       8.791   3.275  -0.748  0.00  0.00    +0.000 F 
ATOM     38  F3  UNL     1       7.595   3.253   1.150  0.00  0.00    +0.000 F 
ENDBRANCH  33  35
ENDBRANCH  27  29
BRANCH  26  39
ATOM     39  S1  UNL     1       5.368  -0.504   2.431  0.00  0.00    +0.000 S 
ATOM     40  H3  UNL     1       5.641  -1.801   1.955  0.00  0.00    +0.000 HD
ENDBRANCH  26  39
ENDBRANCH   3  25
TORSDOF 6
