REMARK  Name = resultss/4CJN/ligands/lig_197_t0.pdb
REMARK  12 active torsions:
REMARK  status: ('A' for Active; 'I' for Inactive)
REMARK    1  A    between atoms: O1_1  and  C1_2
REMARK    2  A    between atoms: C1_2  and  C2_3
REMARK    3  A    between atoms: C2_3  and  C3_4
REMARK    4  A    between atoms: C2_3  and  N1_6
REMARK    5  A    between atoms: C3_4  and  O2_5
REMARK    6  A    between atoms: N1_6  and  C4_7
REMARK    7  A    between atoms: C6_9  and  O3_10
REMARK    8  A    between atoms: C6_9  and  C7_11
REMARK    9  A    between atoms: C7_11  and  O4_12
REMARK   10  A    between atoms: C8_13  and  O5_14
REMARK   11  A    between atoms: C9_15  and  O6_16
REMARK   12  A    between atoms: C10_17  and  O7_18
REMARK                            x       y       z     vdW  Elec       q    Type
REMARK                         _______ _______ _______ _____ _____    ______ ____
ROOT
ATOM      1  C4  UNL     1       0.241   0.128  -0.318  0.00  0.00    +0.000 C 
ATOM      2  C5  UNL     1      -0.614   0.753   0.808  0.00  0.00    +0.000 C 
ATOM      3  C6  UNL     1      -2.110   0.307   0.747  0.00  0.00    +0.000 C 
ATOM      4  C8  UNL     1      -2.536  -0.071  -0.716  0.00  0.00    +0.000 C 
ATOM      5  C9  UNL     1      -1.808   0.813  -1.755  0.00  0.00    +0.000 C 
ATOM      6  C10 UNL     1      -0.268   0.588  -1.715  0.00  0.00    +0.000 C 
ENDROOT
BRANCH   1   7
ATOM      7  N1  UNL     1       1.675   0.453  -0.164  0.00  0.00    +0.000 NA
ATOM      8  H8  UNL     1       1.767   1.426   0.214  0.00  0.00    +0.000 HD
BRANCH   7   9
ATOM      9  C2  UNL     1       2.397  -0.506   0.699  0.00  0.00    +0.000 C 
BRANCH   9  10
ATOM     10  C1  UNL     1       2.829  -1.745  -0.115  0.00  0.00    +0.000 C 
BRANCH  10  11
ATOM     11  O1  UNL     1       3.594  -1.380  -1.233  0.00  0.00    +0.000 OA
ATOM     12  H1  UNL     1       2.954  -1.112  -1.943  0.00  0.00    +0.000 HD
ENDBRANCH  10  11
ENDBRANCH   9  10
BRANCH   9  13
ATOM     13  C3  UNL     1       3.614   0.163   1.368  0.00  0.00    +0.000 C 
BRANCH  13  14
ATOM     14  O2  UNL     1       4.460   0.729   0.405  0.00  0.00    +0.000 OA
ATOM     15  H7  UNL     1       5.213   1.137   0.905  0.00  0.00    +0.000 HD
ENDBRANCH  13  14
ENDBRANCH   9  13
ENDBRANCH   7   9
ENDBRANCH   1   7
BRANCH   3  16
ATOM     16  O3  UNL     1      -2.886   1.395   1.203  0.00  0.00    +0.000 OA
ATOM     17  H12 UNL     1      -3.814   1.080   1.365  0.00  0.00    +0.000 HD
ENDBRANCH   3  16
BRANCH   4  18
ATOM     18  O5  UNL     1      -3.929   0.059  -0.865  0.00  0.00    +0.000 OA
ATOM     19  H17 UNL     1      -4.207  -0.555  -1.594  0.00  0.00    +0.000 HD
ENDBRANCH   4  18
BRANCH   5  20
ATOM     20  O6  UNL     1      -2.302   0.589  -3.053  0.00  0.00    +0.000 OA
ATOM     21  H19 UNL     1      -2.188  -0.376  -3.256  0.00  0.00    +0.000 HD
ENDBRANCH   5  20
BRANCH   6  22
ATOM     22  O7  UNL     1       0.401   1.742  -2.163  0.00  0.00    +0.000 OA
ATOM     23  H21 UNL     1       0.222   2.467  -1.509  0.00  0.00    +0.000 HD
ENDBRANCH   6  22
BRANCH   3  24
ATOM     24  C7  UNL     1      -2.329  -0.922   1.673  0.00  0.00    +0.000 C 
BRANCH  24  25
ATOM     25  O4  UNL     1      -2.091  -0.596   3.017  0.00  0.00    +0.000 OA
ATOM     26  H15 UNL     1      -2.923  -0.179   3.364  0.00  0.00    +0.000 HD
ENDBRANCH  24  25
ENDBRANCH   3  24
TORSDOF 12
