REMARK  Name = resultss/4CJN/ligands/lig_145_t0.pdb
REMARK  15 active torsions:
REMARK  status: ('A' for Active; 'I' for Inactive)
REMARK    1  A    between atoms: C1_1  and  C2_2
REMARK    2  A    between atoms: C2_2  and  O1_3
REMARK    3  A    between atoms: C2_2  and  C14_20
REMARK    4  A    between atoms: O1_3  and  C3_4
REMARK    5  A    between atoms: C3_4  and  C4_5
REMARK    6  A    between atoms: C4_5  and  C5_6
REMARK    7  A    between atoms: C5_6  and  C6_7
REMARK    8  A    between atoms: C6_7  and  C7_8
REMARK    9  A    between atoms: C7_8  and  N1_9
REMARK   10  A    between atoms: C9_11  and  O2_12
REMARK   11  A    between atoms: C10_13  and  O3_14
REMARK   12  A    between atoms: C11_15  and  O4_16
REMARK   13  A    between atoms: C12_17  and  C13_18
REMARK   14  A    between atoms: C13_18  and  O5_19
REMARK   15  A    between atoms: C17_23  and  C18_24
REMARK                            x       y       z     vdW  Elec       q    Type
REMARK                         _______ _______ _______ _____ _____    ______ ____
ROOT
ATOM      1  C5  UNL     1      -1.652  -0.865  -0.777  0.00  0.00    +0.000 C 
ENDROOT
BRANCH   1   2
ATOM      2  C4  UNL     1      -0.701  -1.152   0.399  0.00  0.00    +0.000 C 
BRANCH   2   3
ATOM      3  C3  UNL     1       0.534  -0.234   0.450  0.00  0.00    +0.000 C 
BRANCH   3   4
ATOM      4  O1  UNL     1       1.058   0.019  -0.841  0.00  0.00    +0.000 OA
BRANCH   4   6
ATOM      5  C1  UNL     1       1.985  -1.073  -2.756  0.00  0.00    +0.000 C 
ATOM      6  C2  UNL     1       1.988  -0.978  -1.232  0.00  0.00    +0.000 C 
BRANCH   6   7
ATOM      7  C14 UNL     1       3.384  -0.631  -0.759  0.00  0.00    +0.000 A 
ATOM      8  C15 UNL     1       3.843   0.697  -0.783  0.00  0.00    +0.000 A 
ATOM      9  C16 UNL     1       5.167   0.996  -0.449  0.00  0.00    +0.000 A 
ATOM     10  C17 UNL     1       6.063  -0.028  -0.097  0.00  0.00    +0.000 A 
ATOM     11  C24 UNL     1       5.600  -1.355  -0.064  0.00  0.00    +0.000 A 
ATOM     12  C25 UNL     1       4.274  -1.653  -0.394  0.00  0.00    +0.000 A 
BRANCH  10  13
ATOM     13  C18 UNL     1       7.484   0.283   0.202  0.00  0.00    +0.000 A 
ATOM     14  C19 UNL     1       7.826   1.426   0.949  0.00  0.00    +0.000 A 
ATOM     15  C20 UNL     1       9.167   1.729   1.206  0.00  0.00    +0.000 A 
ATOM     16  C21 UNL     1      10.179   0.894   0.727  0.00  0.00    +0.000 A 
ATOM     17  C22 UNL     1       9.852  -0.245  -0.012  0.00  0.00    +0.000 A 
ATOM     18  C23 UNL     1       8.514  -0.551  -0.275  0.00  0.00    +0.000 A 
ENDBRANCH  10  13
ENDBRANCH   6   7
ENDBRANCH   4   6
ENDBRANCH   3   4
ENDBRANCH   2   3
ENDBRANCH   1   2
BRANCH   1  19
ATOM     19  C6  UNL     1      -2.274   0.544  -0.763  0.00  0.00    +0.000 C 
BRANCH  19  20
ATOM     20  C7  UNL     1      -3.382   0.714   0.285  0.00  0.00    +0.000 C 
BRANCH  20  21
ATOM     21  N1  UNL     1      -4.519  -0.192  -0.024  0.00  0.00    +0.000 NA
ATOM     22  C8  UNL     1      -4.786  -1.196   1.037  0.00  0.00    +0.000 C 
ATOM     23  C9  UNL     1      -5.944  -0.813   2.000  0.00  0.00    +0.000 C 
ATOM     24  C10 UNL     1      -6.189   0.710   2.062  0.00  0.00    +0.000 C 
ATOM     25  C11 UNL     1      -6.407   1.328   0.651  0.00  0.00    +0.000 C 
ATOM     26  C12 UNL     1      -5.763   0.476  -0.480  0.00  0.00    +0.000 C 
BRANCH  23  27
ATOM     27  O2  UNL     1      -7.131  -1.453   1.600  0.00  0.00    +0.000 OA
ATOM     28  H18 UNL     1      -7.081  -2.387   1.930  0.00  0.00    +0.000 HD
ENDBRANCH  23  27
BRANCH  24  29
ATOM     29  O3  UNL     1      -5.103   1.343   2.693  0.00  0.00    +0.000 OA
ATOM     30  H20 UNL     1      -5.178   1.147   3.664  0.00  0.00    +0.000 HD
ENDBRANCH  24  29
BRANCH  25  31
ATOM     31  O4  UNL     1      -7.777   1.517   0.397  0.00  0.00    +0.000 OA
ATOM     32  H22 UNL     1      -8.221   0.633   0.462  0.00  0.00    +0.000 HD
ENDBRANCH  25  31
BRANCH  26  33
ATOM     33  C13 UNL     1      -5.542   1.281  -1.778  0.00  0.00    +0.000 C 
BRANCH  33  34
ATOM     34  O5  UNL     1      -6.770   1.698  -2.314  0.00  0.00    +0.000 OA
ATOM     35  H26 UNL     1      -7.141   0.927  -2.814  0.00  0.00    +0.000 HD
ENDBRANCH  33  34
ENDBRANCH  26  33
ENDBRANCH  20  21
ENDBRANCH  19  20
ENDBRANCH   1  19
TORSDOF 14
