REMARK  Name = resultss/4CJN/ligands/lig_235_t0.pdb
REMARK  9 active torsions:
REMARK  status: ('A' for Active; 'I' for Inactive)
REMARK    1  A    between atoms: C6_8  and  C7_9
REMARK    2  A    between atoms: C11_13  and  C12_14
REMARK    3  A    between atoms: C14_16  and  O3_17
REMARK    4  A    between atoms: O3_17  and  C15_18
REMARK    5  A    between atoms: C15_18  and  C16_20
REMARK    6  A    between atoms: C16_20  and  C19_24
REMARK    7  A    between atoms: C17_21  and  C18_22
REMARK    8  A    between atoms: C18_22  and  O5_23
REMARK    9  A    between atoms: C19_24  and  O6_25
REMARK                            x       y       z     vdW  Elec       q    Type
REMARK                         _______ _______ _______ _____ _____    ______ ____
ROOT
ATOM      1  C1  UNL     1       0.995   2.960  -0.101  0.00  0.00    +0.000 C 
ATOM      2  C2  UNL     1      -0.183   2.430   0.231  0.00  0.00    +0.000 C 
ATOM      3  C3  UNL     1      -1.386   3.195   0.533  0.00  0.00    +0.000 C 
ATOM      4  O1  UNL     1      -1.466   4.451   0.575  0.00  0.00    +0.000 OA
ATOM      5  O2  UNL     1      -2.447   2.350   0.810  0.00  0.00    +0.000 OA
ATOM      6  C4  UNL     1      -2.065   1.033   0.444  0.00  0.00    +0.000 C 
ATOM      7  C5  UNL     1      -2.756  -0.065   1.214  0.00  0.00    +0.000 C 
ATOM      8  C6  UNL     1      -3.913  -0.598   0.768  0.00  0.00    +0.000 C 
ATOM      9  C7  UNL     1      -4.980   0.254   0.122  0.00  0.00    +0.000 C 
ATOM     10  C8  UNL     1      -4.041  -2.109   0.732  0.00  0.00    +0.000 C 
ATOM     11  C9  UNL     1      -3.448  -2.698  -0.570  0.00  0.00    +0.000 C 
ATOM     12  C10 UNL     1      -2.009  -2.262  -0.791  0.00  0.00    +0.000 C 
ATOM     13  C11 UNL     1      -1.632  -1.264  -1.634  0.00  0.00    +0.000 C 
ATOM     14  C12 UNL     1      -2.554  -0.799  -2.740  0.00  0.00    +0.000 C 
ATOM     15  C13 UNL     1      -0.253  -0.607  -1.526  0.00  0.00    +0.000 C 
ATOM     16  C14 UNL     1       0.201  -0.209  -0.095  0.00  0.00    +0.000 C 
ATOM     17  C20 UNL     1      -0.523   1.004   0.589  0.00  0.00    +0.000 C 
ENDROOT
BRANCH  16  18
ATOM     18  O3  UNL     1       1.614  -0.009  -0.115  0.00  0.00    +0.000 OA
BRANCH  18  19
ATOM     19  C15 UNL     1       2.436  -0.109   1.018  0.00  0.00    +0.000 C 
ATOM     20  O4  UNL     1       1.944  -0.446   2.129  0.00  0.00    +0.000 OA
BRANCH  19  21
ATOM     21  C16 UNL     1       3.888   0.179   0.912  0.00  0.00    +0.000 C 
ATOM     22  C17 UNL     1       4.419   0.477  -0.293  0.00  0.00    +0.000 C 
BRANCH  22  23
ATOM     23  C18 UNL     1       5.871   0.777  -0.536  0.00  0.00    +0.000 C 
BRANCH  23  24
ATOM     24  O5  UNL     1       6.646  -0.357  -0.268  0.00  0.00    +0.000 OA
ATOM     25  H22 UNL     1       7.590  -0.086  -0.412  0.00  0.00    +0.000 HD
ENDBRANCH  23  24
ENDBRANCH  22  23
BRANCH  21  26
ATOM     26  C19 UNL     1       4.729   0.075   2.168  0.00  0.00    +0.000 C 
BRANCH  26  27
ATOM     27  O6  UNL     1       4.924  -1.270   2.508  0.00  0.00    +0.000 OA
ATOM     28  H25 UNL     1       5.613  -1.623   1.887  0.00  0.00    +0.000 HD
ENDBRANCH  26  27
ENDBRANCH  21  26
ENDBRANCH  19  21
ENDBRANCH  18  19
ENDBRANCH  16  18
TORSDOF 7
