REMARK  Name = resultss/4CJN/ligands/lig_354_t1.pdb
REMARK  10 active torsions:
REMARK  status: ('A' for Active; 'I' for Inactive)
REMARK    1  A    between atoms: O1_1  and  C1_2
REMARK    2  A    between atoms: C1_2  and  C2_3
REMARK    3  A    between atoms: C2_3  and  N1_4
REMARK    4  A    between atoms: C4_6  and  C5_7
REMARK    5  A    between atoms: C5_7  and  O2_8
REMARK    6  A    between atoms: O2_8  and  C6_9
REMARK    7  A    between atoms: C9_12  and  C10_13
REMARK    8  A    between atoms: N3_23  and  N4_24
REMARK    9  A    between atoms: N4_24  and  C18_25
REMARK   10  A    between atoms: N7_35  and  C26_36
REMARK                            x       y       z     vdW  Elec       q    Type
REMARK                         _______ _______ _______ _____ _____    ______ ____
ROOT
ATOM      1  C6  UNL     1       0.155   2.226   1.157  0.00  0.00    +0.000 A 
ATOM      2  C7  UNL     1      -0.135   1.188   2.061  0.00  0.00    +0.000 A 
ATOM      3  C8  UNL     1      -1.433   0.677   2.156  0.00  0.00    +0.000 A 
ATOM      4  C9  UNL     1      -2.465   1.195   1.356  0.00  0.00    +0.000 A 
ATOM      5  C24 UNL     1      -2.168   2.225   0.447  0.00  0.00    +0.000 A 
ATOM      6  C25 UNL     1      -0.870   2.734   0.352  0.00  0.00    +0.000 A 
ENDROOT
BRANCH   4   7
ATOM      7  C10 UNL     1      -3.868   0.641   1.472  0.00  0.00    +0.000 C 
ATOM      8  N2  UNL     1      -4.806   1.711   1.834  0.00  0.00    +0.000 N 
ATOM      9  C11 UNL     1      -5.613   2.400   0.869  0.00  0.00    +0.000 A 
ATOM     10  C12 UNL     1      -6.302   3.567   1.232  0.00  0.00    +0.000 A 
ATOM     11  C13 UNL     1      -7.076   4.250   0.289  0.00  0.00    +0.000 A 
ATOM     12  C14 UNL     1      -7.168   3.770  -1.019  0.00  0.00    +0.000 A 
ATOM     13  C15 UNL     1      -6.488   2.606  -1.388  0.00  0.00    +0.000 A 
ATOM     14  C16 UNL     1      -5.709   1.915  -0.444  0.00  0.00    +0.000 A 
ATOM     15  C17 UNL     1      -4.993   0.676  -0.791  0.00  0.00    +0.000 C 
ATOM     16  O3  UNL     1      -5.020   0.236  -1.973  0.00  0.00    +0.000 OA
ATOM     17  N3  UNL     1      -4.261  -0.032   0.226  0.00  0.00    +0.000 N 
ATOM     18  H10 UNL     1      -4.770   2.075   2.814  0.00  0.00    +0.000 HD
BRANCH  17  19
ATOM     19  N4  UNL     1      -3.724  -1.306  -0.044  0.00  0.00    +0.000 N 
ATOM     20  H15 UNL     1      -2.734  -1.501   0.230  0.00  0.00    +0.000 HD
BRANCH  19  21
ATOM     21  C18 UNL     1      -4.516  -2.390  -0.560  0.00  0.00    +0.000 A 
ATOM     22  C19 UNL     1      -5.921  -2.378  -0.468  0.00  0.00    +0.000 A 
ATOM     23  C20 UNL     1      -6.669  -3.452  -0.961  0.00  0.00    +0.000 A 
ATOM     24  C21 UNL     1      -6.024  -4.549  -1.536  0.00  0.00    +0.000 A 
ATOM     25  C22 UNL     1      -4.629  -4.577  -1.615  0.00  0.00    +0.000 A 
ATOM     26  C23 UNL     1      -3.878  -3.505  -1.125  0.00  0.00    +0.000 A 
ENDBRANCH  19  21
ENDBRANCH  17  19
ENDBRANCH   4   7
BRANCH   1  27
ATOM     27  O2  UNL     1       1.438   2.784   1.028  0.00  0.00    +0.000 OA
BRANCH  27  28
ATOM     28  C5  UNL     1       2.590   2.380   1.767  0.00  0.00    +0.000 C 
BRANCH  28  31
ATOM     29  N1  UNL     1       3.825  -0.559   0.034  0.00  0.00    +0.000 N 
ATOM     30  C3  UNL     1       3.366   0.703  -0.016  0.00  0.00    +0.000 A 
ATOM     31  C4  UNL     1       3.085   1.053   1.286  0.00  0.00    +0.000 A 
ATOM     32  N5  UNL     1       3.398   0.014   2.087  0.00  0.00    +0.000 NA
ATOM     33  N6  UNL     1       3.848  -0.952   1.297  0.00  0.00    +0.000 NA
BRANCH  29  34
ATOM     34  C2  UNL     1       4.332  -1.345  -1.085  0.00  0.00    +0.000 C 
BRANCH  34  35
ATOM     35  C1  UNL     1       5.785  -1.057  -1.289  0.00  0.00    +0.000 C 
ATOM     36  N7  UNL     1       6.666  -1.744  -0.618  0.00  0.00    +0.000 NA
BRANCH  36  37
ATOM     37  C26 UNL     1       8.092  -1.660  -0.745  0.00  0.00    +0.000 A 
ATOM     38  C27 UNL     1       8.881  -1.683   0.414  0.00  0.00    +0.000 A 
ATOM     39  C28 UNL     1      10.276  -1.658   0.319  0.00  0.00    +0.000 A 
ATOM     40  C29 UNL     1      10.892  -1.635  -0.936  0.00  0.00    +0.000 A 
ATOM     41  C30 UNL     1      10.114  -1.647  -2.097  0.00  0.00    +0.000 A 
ATOM     42  C31 UNL     1       8.719  -1.673  -2.005  0.00  0.00    +0.000 A 
ENDBRANCH  36  37
BRANCH  35  43
ATOM     43  O1  UNL     1       6.145  -0.006  -2.136  0.00  0.00    +0.000 OA
ATOM     44  H1  UNL     1       7.084   0.367  -2.187  0.00  0.00    +0.000 HD
ENDBRANCH  35  43
ENDBRANCH  34  35
ENDBRANCH  29  34
ENDBRANCH  28  31
ENDBRANCH  27  28
ENDBRANCH   1  27
TORSDOF 10
