REMARK  Name = resultss/4CJN/ligands/lig_182_t1.pdb
REMARK  6 active torsions:
REMARK  status: ('A' for Active; 'I' for Inactive)
REMARK    1  A    between atoms: O1_1  and  C1_2
REMARK    2  A    between atoms: C1_2  and  C9_13
REMARK    3  A    between atoms: N1_3  and  N2_4
REMARK    4  A    between atoms: C2_5  and  C3_6
REMARK    5  A    between atoms: C7_10  and  O2_11
REMARK    6  A    between atoms: C12_16  and  C13_17
REMARK                            x       y       z     vdW  Elec       q    Type
REMARK                         _______ _______ _______ _____ _____    ______ ____
ROOT
ATOM      1  C9  UNL     1       0.433  -0.450   0.998  0.00  0.00    +0.000 A 
ATOM      2  C10 UNL     1      -0.103   0.785   0.596  0.00  0.00    +0.000 A 
ATOM      3  C11 UNL     1      -1.469   0.912   0.332  0.00  0.00    +0.000 A 
ATOM      4  C12 UNL     1      -2.331  -0.190   0.477  0.00  0.00    +0.000 A 
ATOM      5  C20 UNL     1      -1.795  -1.418   0.903  0.00  0.00    +0.000 A 
ATOM      6  C21 UNL     1      -0.429  -1.543   1.168  0.00  0.00    +0.000 A 
ENDROOT
BRANCH   4   7
ATOM      7  C13 UNL     1      -3.781  -0.067   0.198  0.00  0.00    +0.000 A 
ATOM      8  N3  UNL     1      -4.652  -1.100   0.332  0.00  0.00    +0.000 NA
ATOM      9  C14 UNL     1      -5.918  -0.726   0.014  0.00  0.00    +0.000 A 
ATOM     10  C15 UNL     1      -7.026  -1.574   0.057  0.00  0.00    +0.000 A 
ATOM     11  C16 UNL     1      -8.285  -1.059  -0.298  0.00  0.00    +0.000 A 
ATOM     12  C17 UNL     1      -8.421   0.289  -0.688  0.00  0.00    +0.000 A 
ATOM     13  C18 UNL     1      -7.299   1.132  -0.727  0.00  0.00    +0.000 A 
ATOM     14  C19 UNL     1      -6.064   0.596  -0.371  0.00  0.00    +0.000 A 
ATOM     15  S1  UNL     1      -4.567   1.348  -0.321  0.00  0.00    +0.000 S 
ENDBRANCH   4   7
BRANCH   1  16
ATOM     16  C1  UNL     1       1.873  -0.602   1.311  0.00  0.00    +0.000 C 
ATOM     17  N1  UNL     1       2.810  -0.123   0.546  0.00  0.00    +0.000 NA
BRANCH  16  18
ATOM     18  O1  UNL     1       2.233  -1.307   2.456  0.00  0.00    +0.000 OA
ATOM     19  H1  UNL     1       3.206  -1.444   2.703  0.00  0.00    +0.000 HD
ENDBRANCH  16  18
BRANCH  17  20
ATOM     20  N2  UNL     1       2.551   0.537  -0.665  0.00  0.00    +0.000 NA
ATOM     21  C2  UNL     1       3.488   1.014  -1.428  0.00  0.00    +0.000 C 
BRANCH  21  22
ATOM     22  C3  UNL     1       4.932   0.901  -1.124  0.00  0.00    +0.000 A 
ATOM     23  C4  UNL     1       5.770   1.995  -1.390  0.00  0.00    +0.000 A 
ATOM     24  C5  UNL     1       7.143   1.912  -1.137  0.00  0.00    +0.000 A 
ATOM     25  C6  UNL     1       7.693   0.731  -0.634  0.00  0.00    +0.000 A 
ATOM     26  C7  UNL     1       6.875  -0.376  -0.392  0.00  0.00    +0.000 A 
ATOM     27  C8  UNL     1       5.498  -0.295  -0.644  0.00  0.00    +0.000 A 
BRANCH  26  28
ATOM     28  O2  UNL     1       7.440  -1.554   0.092  0.00  0.00    +0.000 OA
ATOM     29  H6  UNL     1       6.876  -2.376   0.277  0.00  0.00    +0.000 HD
ENDBRANCH  26  28
ENDBRANCH  21  22
ENDBRANCH  17  20
ENDBRANCH   1  16
TORSDOF 6
