REMARK  Name = resultss/4CJN/ligands/lig_160_t0.pdb
REMARK  14 active torsions:
REMARK  status: ('A' for Active; 'I' for Inactive)
REMARK    1  A    between atoms: O1_1  and  C1_2
REMARK    2  A    between atoms: C1_2  and  C2_3
REMARK    3  A    between atoms: C3_4  and  O2_5
REMARK    4  A    between atoms: C4_6  and  O3_7
REMARK    5  A    between atoms: C5_8  and  O4_9
REMARK    6  A    between atoms: N1_11  and  C7_12
REMARK    7  A    between atoms: C7_12  and  C8_13
REMARK    8  A    between atoms: C8_13  and  C9_14
REMARK    9  A    between atoms: C9_14  and  C10_15
REMARK   10  A    between atoms: C10_15  and  C11_16
REMARK   11  A    between atoms: C11_16  and  O5_17
REMARK   12  A    between atoms: O5_17  and  C12_18
REMARK   13  A    between atoms: C12_18  and  C13_19
REMARK   14  A    between atoms: C16_22  and  C17_23
REMARK                            x       y       z     vdW  Elec       q    Type
REMARK                         _______ _______ _______ _____ _____    ______ ____
ROOT
ATOM      1  C9  UNL     1      -1.227  -1.377   0.668  0.00  0.00    +0.000 C 
ENDROOT
BRANCH   1   2
ATOM      2  C8  UNL     1      -2.452  -1.006  -0.176  0.00  0.00    +0.000 C 
BRANCH   2   3
ATOM      3  C7  UNL     1      -3.694  -0.830   0.706  0.00  0.00    +0.000 C 
BRANCH   3   9
ATOM      4  C2  UNL     1      -5.284   0.951   0.008  0.00  0.00    +0.000 C 
ATOM      5  C3  UNL     1      -6.483   1.269  -0.933  0.00  0.00    +0.000 C 
ATOM      6  C4  UNL     1      -7.664   0.291  -0.740  0.00  0.00    +0.000 C 
ATOM      7  C5  UNL     1      -7.208  -1.180  -0.710  0.00  0.00    +0.000 C 
ATOM      8  C6  UNL     1      -5.992  -1.384   0.207  0.00  0.00    +0.000 C 
ATOM      9  N1  UNL     1      -4.871  -0.477  -0.135  0.00  0.00    +0.000 NA
BRANCH   5  10
ATOM     10  O2  UNL     1      -6.058   1.237  -2.273  0.00  0.00    +0.000 OA
ATOM     11  H6  UNL     1      -6.700   1.785  -2.796  0.00  0.00    +0.000 HD
ENDBRANCH   5  10
BRANCH   6  12
ATOM     12  O3  UNL     1      -8.412   0.614   0.409  0.00  0.00    +0.000 OA
ATOM     13  H8  UNL     1      -7.817   0.544   1.198  0.00  0.00    +0.000 HD
ENDBRANCH   6  12
BRANCH   7  14
ATOM     14  O4  UNL     1      -6.960  -1.663  -2.008  0.00  0.00    +0.000 OA
ATOM     15  H10 UNL     1      -6.108  -1.271  -2.330  0.00  0.00    +0.000 HD
ENDBRANCH   7  14
BRANCH   4  16
ATOM     16  C1  UNL     1      -4.121   1.936  -0.307  0.00  0.00    +0.000 C 
BRANCH  16  17
ATOM     17  O1  UNL     1      -4.557   3.268  -0.255  0.00  0.00    +0.000 OA
ATOM     18  H1  UNL     1      -4.701   3.483   0.704  0.00  0.00    +0.000 HD
ENDBRANCH  16  17
ENDBRANCH   4  16
ENDBRANCH   3   9
ENDBRANCH   2   3
ENDBRANCH   1   2
BRANCH   1  19
ATOM     19  C10 UNL     1       0.025  -1.532  -0.207  0.00  0.00    +0.000 C 
BRANCH  19  20
ATOM     20  C11 UNL     1       1.243  -1.937   0.624  0.00  0.00    +0.000 C 
BRANCH  20  21
ATOM     21  O5  UNL     1       1.568  -0.898   1.523  0.00  0.00    +0.000 OA
BRANCH  21  22
ATOM     22  C12 UNL     1       2.707  -1.239   2.288  0.00  0.00    +0.000 C 
BRANCH  22  23
ATOM     23  C13 UNL     1       3.949  -0.685   1.645  0.00  0.00    +0.000 A 
ATOM     24  C14 UNL     1       4.249   0.680   1.755  0.00  0.00    +0.000 A 
ATOM     25  C15 UNL     1       5.402   1.200   1.161  0.00  0.00    +0.000 A 
ATOM     26  C16 UNL     1       6.266   0.366   0.431  0.00  0.00    +0.000 A 
ATOM     27  C23 UNL     1       5.952  -1.002   0.303  0.00  0.00    +0.000 A 
ATOM     28  F1  UNL     1       6.778  -1.845  -0.368  0.00  0.00    +0.000 F 
ATOM     29  C24 UNL     1       4.800  -1.519   0.904  0.00  0.00    +0.000 A 
BRANCH  26  30
ATOM     30  C17 UNL     1       7.498   0.924  -0.174  0.00  0.00    +0.000 A 
ATOM     31  C18 UNL     1       7.823   0.657  -1.516  0.00  0.00    +0.000 A 
ATOM     32  C19 UNL     1       8.994   1.180  -2.076  0.00  0.00    +0.000 A 
ATOM     33  C20 UNL     1       9.848   1.973  -1.304  0.00  0.00    +0.000 A 
ATOM     34  C21 UNL     1       9.529   2.252   0.028  0.00  0.00    +0.000 A 
ATOM     35  C22 UNL     1       8.358   1.733   0.591  0.00  0.00    +0.000 A 
ENDBRANCH  26  30
ENDBRANCH  22  23
ENDBRANCH  21  22
ENDBRANCH  20  21
ENDBRANCH  19  20
ENDBRANCH   1  19
TORSDOF 14
