REMARK  Name = resultss/4CJN/ligands/lig_246_t2.pdb
REMARK  1 active torsions:
REMARK  status: ('A' for Active; 'I' for Inactive)
REMARK    1  A    between atoms: C8_11  and  C9_12
REMARK                            x       y       z     vdW  Elec       q    Type
REMARK                         _______ _______ _______ _____ _____    ______ ____
ROOT
ATOM      1  O1  UNL     1      -3.249   3.429   0.231  0.00  0.00    +0.000 OA
ATOM      2  C1  UNL     1      -2.760   2.268   0.164  0.00  0.00    +0.000 A 
ATOM      3  N1  UNL     1      -3.575   1.183   0.082  0.00  0.00    +0.000 N 
ATOM      4  C2  UNL     1      -3.067  -0.086   0.050  0.00  0.00    +0.000 A 
ATOM      5  C3  UNL     1      -3.935  -1.188   0.025  0.00  0.00    +0.000 A 
ATOM      6  C4  UNL     1      -3.428  -2.484   0.082  0.00  0.00    +0.000 A 
ATOM      7  C5  UNL     1      -2.055  -2.692   0.199  0.00  0.00    +0.000 A 
ATOM      8  C6  UNL     1      -1.173  -1.607   0.217  0.00  0.00    +0.000 A 
ATOM      9  C7  UNL     1      -1.655  -0.287   0.080  0.00  0.00    +0.000 A 
ATOM     10  N2  UNL     1      -0.849   0.831   0.060  0.00  0.00    +0.000 N 
ATOM     11  C8  UNL     1       0.500   1.017  -0.058  0.00  0.00    +0.000 A 
ATOM     12  C15 UNL     1       0.792   2.373   0.070  0.00  0.00    +0.000 A 
ATOM     13  C16 UNL     1      -0.405   3.043   0.191  0.00  0.00    +0.000 A 
ATOM     14  C17 UNL     1      -1.380   2.071   0.157  0.00  0.00    +0.000 A 
ATOM     15  H1  UNL     1      -4.611   1.331   0.072  0.00  0.00    +0.000 HD
ENDROOT
BRANCH  11  16
ATOM     16  C9  UNL     1       1.550  -0.025  -0.406  0.00  0.00    +0.000 C 
ATOM     17  C10 UNL     1       2.592   0.550  -1.343  0.00  0.00    +0.000 C 
ATOM     18  C11 UNL     1       3.883   0.203  -1.297  0.00  0.00    +0.000 C 
ATOM     19  C12 UNL     1       4.400  -0.718  -0.271  0.00  0.00    +0.000 C 
ATOM     20  O2  UNL     1       5.625  -1.009  -0.265  0.00  0.00    +0.000 OA
ATOM     21  C13 UNL     1       3.487  -1.353   0.736  0.00  0.00    +0.000 C 
ATOM     22  C14 UNL     1       2.197  -0.590   0.845  0.00  0.00    +0.000 C 
ATOM     23  O3  UNL     1       1.635  -0.516   1.929  0.00  0.00    +0.000 OA
ENDBRANCH  11  16
TORSDOF 1
