REMARK  Name = resultss/4CJN/ligands/lig_227_t1.pdb
REMARK  11 active torsions:
REMARK  status: ('A' for Active; 'I' for Inactive)
REMARK    1  A    between atoms: C6_8  and  C7_9
REMARK    2  A    between atoms: C11_13  and  C12_14
REMARK    3  A    between atoms: C14_16  and  O3_17
REMARK    4  A    between atoms: O3_17  and  C15_18
REMARK    5  A    between atoms: C15_18  and  C16_20
REMARK    6  A    between atoms: C16_20  and  C21_27
REMARK    7  A    between atoms: C17_21  and  C18_22
REMARK    8  A    between atoms: C18_22  and  O5_23
REMARK    9  A    between atoms: O5_23  and  C19_24
REMARK   10  A    between atoms: C19_24  and  O6_26
REMARK   11  A    between atoms: C21_27  and  O7_28
REMARK                            x       y       z     vdW  Elec       q    Type
REMARK                         _______ _______ _______ _____ _____    ______ ____
ROOT
ATOM      1  C1  UNL     1      -0.137   3.286   0.416  0.00  0.00    +0.000 C 
ATOM      2  C2  UNL     1      -0.971   2.513  -0.277  0.00  0.00    +0.000 C 
ATOM      3  C3  UNL     1      -1.839   2.962  -1.344  0.00  0.00    +0.000 C 
ATOM      4  O1  UNL     1      -1.894   4.135  -1.799  0.00  0.00    +0.000 OA
ATOM      5  O2  UNL     1      -2.646   1.934  -1.784  0.00  0.00    +0.000 OA
ATOM      6  C4  UNL     1      -2.254   0.709  -1.175  0.00  0.00    +0.000 C 
ATOM      7  C5  UNL     1      -3.433  -0.168  -0.820  0.00  0.00    +0.000 C 
ATOM      8  C6  UNL     1      -4.323   0.040   0.183  0.00  0.00    +0.000 C 
ATOM      9  C7  UNL     1      -4.533   1.376   0.851  0.00  0.00    +0.000 C 
ATOM     10  C8  UNL     1      -5.023  -1.170   0.778  0.00  0.00    +0.000 C 
ATOM     11  C9  UNL     1      -4.127  -1.931   1.786  0.00  0.00    +0.000 C 
ATOM     12  C10 UNL     1      -2.741  -2.173   1.223  0.00  0.00    +0.000 C 
ATOM     13  C11 UNL     1      -1.647  -1.459   1.579  0.00  0.00    +0.000 C 
ATOM     14  C12 UNL     1      -1.542  -0.807   2.937  0.00  0.00    +0.000 C 
ATOM     15  C13 UNL     1      -0.497  -1.319   0.591  0.00  0.00    +0.000 C 
ATOM     16  C14 UNL     1      -0.121   0.154   0.262  0.00  0.00    +0.000 C 
ATOM     17  C22 UNL     1      -1.342   1.090   0.039  0.00  0.00    +0.000 C 
ENDROOT
BRANCH  16  18
ATOM     18  O3  UNL     1       0.717   0.186  -0.895  0.00  0.00    +0.000 OA
BRANCH  18  19
ATOM     19  C15 UNL     1       2.075  -0.153  -0.880  0.00  0.00    +0.000 C 
ATOM     20  O4  UNL     1       2.658  -0.387   0.215  0.00  0.00    +0.000 OA
BRANCH  19  21
ATOM     21  C16 UNL     1       2.796  -0.268  -2.170  0.00  0.00    +0.000 C 
ATOM     22  C17 UNL     1       4.117  -0.035  -2.304  0.00  0.00    +0.000 C 
BRANCH  22  23
ATOM     23  C18 UNL     1       5.023   0.426  -1.198  0.00  0.00    +0.000 C 
BRANCH  23  24
ATOM     24  O5  UNL     1       5.374  -0.679  -0.368  0.00  0.00    +0.000 OA
BRANCH  24  25
ATOM     25  C19 UNL     1       6.232  -0.604   0.742  0.00  0.00    +0.000 C 
ATOM     26  C20 UNL     1       6.762   0.546   1.167  0.00  0.00    +0.000 C 
BRANCH  25  27
ATOM     27  O6  UNL     1       6.541  -1.774   1.428  0.00  0.00    +0.000 OA
ATOM     28  H24 UNL     1       6.155  -2.664   1.134  0.00  0.00    +0.000 HD
ENDBRANCH  25  27
ENDBRANCH  24  25
ENDBRANCH  23  24
ENDBRANCH  22  23
BRANCH  21  29
ATOM     29  C21 UNL     1       1.981  -0.611  -3.394  0.00  0.00    +0.000 C 
BRANCH  29  30
ATOM     30  O7  UNL     1       1.293  -1.816  -3.197  0.00  0.00    +0.000 OA
ATOM     31  H27 UNL     1       1.973  -2.538  -3.230  0.00  0.00    +0.000 HD
ENDBRANCH  29  30
ENDBRANCH  21  29
ENDBRANCH  19  21
ENDBRANCH  18  19
ENDBRANCH  16  18
TORSDOF 9
