REMARK  Name = resultss/4CJN/ligands/lig_177_t0.pdb
REMARK  6 active torsions:
REMARK  status: ('A' for Active; 'I' for Inactive)
REMARK    1  A    between atoms: C1_1  and  O1_2
REMARK    2  A    between atoms: O1_2  and  C2_3
REMARK    3  A    between atoms: C5_6  and  C6_7
REMARK    4  A    between atoms: N1_8  and  N2_9
REMARK    5  A    between atoms: C7_10  and  C8_12
REMARK    6  A    between atoms: C11_15  and  C12_16
REMARK                            x       y       z     vdW  Elec       q    Type
REMARK                         _______ _______ _______ _____ _____    ______ ____
ROOT
ATOM      1  C8  UNL     1      -0.975  -0.506  -0.462  0.00  0.00    +0.000 A 
ATOM      2  C9  UNL     1      -1.902  -1.478  -0.876  0.00  0.00    +0.000 A 
ATOM      3  C10 UNL     1      -3.266  -1.315  -0.621  0.00  0.00    +0.000 A 
ATOM      4  C11 UNL     1      -3.737  -0.171   0.046  0.00  0.00    +0.000 A 
ATOM      5  C19 UNL     1      -2.812   0.807   0.448  0.00  0.00    +0.000 A 
ATOM      6  C20 UNL     1      -1.447   0.643   0.194  0.00  0.00    +0.000 A 
ENDROOT
BRANCH   4   7
ATOM      7  C12 UNL     1      -5.186  -0.008   0.310  0.00  0.00    +0.000 A 
ATOM      8  N3  UNL     1      -6.117  -0.924  -0.063  0.00  0.00    +0.000 NA
ATOM      9  C13 UNL     1      -7.367  -0.536   0.297  0.00  0.00    +0.000 A 
ATOM     10  C14 UNL     1      -8.525  -1.274   0.046  0.00  0.00    +0.000 A 
ATOM     11  C15 UNL     1      -9.761  -0.757   0.473  0.00  0.00    +0.000 A 
ATOM     12  C16 UNL     1      -9.824   0.482   1.142  0.00  0.00    +0.000 A 
ATOM     13  C17 UNL     1      -8.652   1.215   1.389  0.00  0.00    +0.000 A 
ATOM     14  C18 UNL     1      -7.442   0.681   0.955  0.00  0.00    +0.000 A 
ATOM     15  S1  UNL     1      -5.898   1.316   1.104  0.00  0.00    +0.000 S 
ENDBRANCH   4   7
BRANCH   1  17
ATOM     16  N2  UNL     1       1.473  -0.047   0.049  0.00  0.00    +0.000 N 
ATOM     17  C7  UNL     1       0.469  -0.693  -0.744  0.00  0.00    +0.000 C 
ATOM     18  O2  UNL     1       0.824  -1.447  -1.691  0.00  0.00    +0.000 OA
ATOM     19  H7  UNL     1       1.209   0.445   0.932  0.00  0.00    +0.000 HD
BRANCH  16  21
ATOM     20  C6  UNL     1       3.765   0.414   0.380  0.00  0.00    +0.000 C 
ATOM     21  N1  UNL     1       2.824  -0.134  -0.324  0.00  0.00    +0.000 NA
BRANCH  20  25
ATOM     22  C2  UNL     1       7.896   0.139  -0.771  0.00  0.00    +0.000 A 
ATOM     23  C3  UNL     1       7.518   0.835   0.392  0.00  0.00    +0.000 A 
ATOM     24  C4  UNL     1       6.171   0.919   0.758  0.00  0.00    +0.000 A 
ATOM     25  C5  UNL     1       5.181   0.311  -0.029  0.00  0.00    +0.000 A 
ATOM     26  C21 UNL     1       5.561  -0.383  -1.191  0.00  0.00    +0.000 A 
ATOM     27  C22 UNL     1       6.908  -0.466  -1.555  0.00  0.00    +0.000 A 
BRANCH  22  29
ATOM     28  C1  UNL     1      10.338   0.592  -0.481  0.00  0.00    +0.000 C 
ATOM     29  O1  UNL     1       9.233   0.027  -1.181  0.00  0.00    +0.000 OA
ENDBRANCH  22  29
ENDBRANCH  20  25
ENDBRANCH  16  21
ENDBRANCH   1  17
TORSDOF 5
