REMARK  Name = resultss/4CJN/ligands/lig_392_t0.pdb
REMARK  7 active torsions:
REMARK  status: ('A' for Active; 'I' for Inactive)
REMARK    1  A    between atoms: C1_1  and  C2_2
REMARK    2  A    between atoms: C5_5  and  S1_6
REMARK    3  A    between atoms: S1_6  and  O3_9
REMARK    4  A    between atoms: O3_9  and  C6_10
REMARK    5  A    between atoms: C9_13  and  C10_14
REMARK    6  A    between atoms: N1_15  and  N2_16
REMARK    7  A    between atoms: C12_19  and  O4_20
REMARK                            x       y       z     vdW  Elec       q    Type
REMARK                         _______ _______ _______ _____ _____    ______ ____
ROOT
ATOM      1  C6  UNL     1      -0.364  -0.281   0.166  0.00  0.00    +0.000 A 
ATOM      2  C7  UNL     1       0.291   0.522   1.118  0.00  0.00    +0.000 A 
ATOM      3  C8  UNL     1       1.685   0.503   1.220  0.00  0.00    +0.000 A 
ATOM      4  C9  UNL     1       2.449  -0.319   0.372  0.00  0.00    +0.000 A 
ATOM      5  C14 UNL     1       1.794  -1.117  -0.576  0.00  0.00    +0.000 A 
ATOM      6  C15 UNL     1       0.400  -1.096  -0.676  0.00  0.00    +0.000 A 
ENDROOT
BRANCH   4   7
ATOM      7  C10 UNL     1       3.923  -0.358   0.458  0.00  0.00    +0.000 C 
ATOM      8  N1  UNL     1       4.562   0.353   1.336  0.00  0.00    +0.000 NA
BRANCH   8   9
ATOM      9  N2  UNL     1       5.965   0.364   1.444  0.00  0.00    +0.000 N 
ATOM     10  C11 UNL     1       6.847   0.386   0.312  0.00  0.00    +0.000 A 
ATOM     11  N3  UNL     1       8.178   0.186   0.424  0.00  0.00    +0.000 NA
ATOM     12  C12 UNL     1       8.805   0.331  -0.775  0.00  0.00    +0.000 A 
ATOM     13  C13 UNL     1       7.986   0.663  -1.847  0.00  0.00    +0.000 A 
ATOM     14  S2  UNL     1       6.411   0.783  -1.267  0.00  0.00    +0.000 S 
ATOM     15  H9  UNL     1       6.384   0.495   2.391  0.00  0.00    +0.000 HD
BRANCH  12  16
ATOM     16  O4  UNL     1      10.178   0.162  -0.912  0.00  0.00    +0.000 OA
ATOM     17  H10 UNL     1      10.752  -0.079  -0.113  0.00  0.00    +0.000 HD
ENDBRANCH  12  16
ENDBRANCH   8   9
ENDBRANCH   4   7
BRANCH   1  18
ATOM     18  O3  UNL     1      -1.757  -0.302   0.020  0.00  0.00    +0.000 OA
BRANCH  18  19
ATOM     19  S1  UNL     1      -2.852   0.626   0.954  0.00  0.00    +0.000 S 
ATOM     20  O1  UNL     1      -2.706   0.280   2.409  0.00  0.00    +0.000 OA
ATOM     21  O2  UNL     1      -2.560   2.086   0.746  0.00  0.00    +0.000 OA
BRANCH  19  26
ATOM     22  C1  UNL     1      -8.532  -0.609  -0.790  0.00  0.00    +0.000 C 
ATOM     23  C2  UNL     1      -7.122  -0.293  -0.390  0.00  0.00    +0.000 A 
ATOM     24  C3  UNL     1      -6.117  -1.267  -0.503  0.00  0.00    +0.000 A 
ATOM     25  C4  UNL     1      -4.810  -0.982  -0.097  0.00  0.00    +0.000 A 
ATOM     26  C5  UNL     1      -4.496   0.274   0.436  0.00  0.00    +0.000 A 
ATOM     27  C16 UNL     1      -5.502   1.240   0.574  0.00  0.00    +0.000 A 
ATOM     28  C17 UNL     1      -6.809   0.957   0.167  0.00  0.00    +0.000 A 
ENDBRANCH  19  26
ENDBRANCH  18  19
ENDBRANCH   1  18
TORSDOF 6
