REMARK  Name = resultss/4CJN/ligands/lig_429_t0.pdb
REMARK  8 active torsions:
REMARK  status: ('A' for Active; 'I' for Inactive)
REMARK    1  A    between atoms: C1_2  and  C15_21
REMARK    2  A    between atoms: N1_3  and  N2_4
REMARK    3  A    between atoms: N2_4  and  C2_5
REMARK    4  A    between atoms: C2_5  and  N3_7
REMARK    5  A    between atoms: N3_7  and  C3_8
REMARK    6  A    between atoms: C6_11  and  O2_12
REMARK    7  A    between atoms: O2_12  and  C7_13
REMARK    8  A    between atoms: C25_32  and  C26_33
REMARK                            x       y       z     vdW  Elec       q    Type
REMARK                         _______ _______ _______ _____ _____    ______ ____
ROOT
ATOM      1  O1  UNL     1      -0.014   0.360  -1.623  0.00  0.00    +0.000 OA
ATOM      2  C1  UNL     1      -0.705  -0.397  -0.888  0.00  0.00    +0.000 C 
ATOM      3  N1  UNL     1      -0.128  -1.604  -0.366  0.00  0.00    +0.000 N 
ATOM      4  H1  UNL     1      -0.548  -2.034   0.488  0.00  0.00    +0.000 HD
ENDROOT
BRANCH   2   5
ATOM      5  C15 UNL     1      -2.097  -0.030  -0.553  0.00  0.00    +0.000 A 
ATOM      6  C16 UNL     1      -2.647   1.198  -0.980  0.00  0.00    +0.000 A 
ATOM      7  C17 UNL     1      -3.972   1.453  -0.643  0.00  0.00    +0.000 A 
ATOM      8  C18 UNL     1      -4.730   0.556   0.079  0.00  0.00    +0.000 A 
ATOM      9  N4  UNL     1      -6.004   0.992   0.221  0.00  0.00    +0.000 N 
ATOM     10  C19 UNL     1      -6.033   2.188  -0.406  0.00  0.00    +0.000 A 
ATOM     11  C20 UNL     1      -7.128   3.037  -0.549  0.00  0.00    +0.000 A 
ATOM     12  C21 UNL     1      -6.944   4.238  -1.260  0.00  0.00    +0.000 A 
ATOM     13  C22 UNL     1      -5.683   4.559  -1.812  0.00  0.00    +0.000 A 
ATOM     14  C23 UNL     1      -4.593   3.684  -1.660  0.00  0.00    +0.000 A 
ATOM     15  C24 UNL     1      -4.804   2.505  -0.946  0.00  0.00    +0.000 A 
ATOM     16  C25 UNL     1      -4.168  -0.652   0.512  0.00  0.00    +0.000 A 
ATOM     17  N5  UNL     1      -2.868  -0.905   0.169  0.00  0.00    +0.000 NA
ATOM     18  H14 UNL     1      -6.808   0.505   0.675  0.00  0.00    +0.000 HD
BRANCH  16  19
ATOM     19  C26 UNL     1      -4.916  -1.652   1.304  0.00  0.00    +0.000 A 
ATOM     20  C27 UNL     1      -4.806  -3.017   0.984  0.00  0.00    +0.000 A 
ATOM     21  C28 UNL     1      -5.488  -3.977   1.740  0.00  0.00    +0.000 A 
ATOM     22  C29 UNL     1      -6.273  -3.584   2.827  0.00  0.00    +0.000 A 
ATOM     23  C30 UNL     1      -6.371  -2.231   3.166  0.00  0.00    +0.000 A 
ATOM     24  C31 UNL     1      -5.690  -1.268   2.414  0.00  0.00    +0.000 A 
ENDBRANCH  16  19
ENDBRANCH   2   5
BRANCH   3  25
ATOM     25  N2  UNL     1       1.113  -2.093  -0.809  0.00  0.00    +0.000 N 
ATOM     26  H2  UNL     1       1.758  -2.516  -0.104  0.00  0.00    +0.000 HD
BRANCH  25  27
ATOM     27  C2  UNL     1       1.456  -2.208  -2.200  0.00  0.00    +0.000 C 
ATOM     28  S1  UNL     1       0.274  -2.398  -3.323  0.00  0.00    +0.000 S 
BRANCH  27  29
ATOM     29  N3  UNL     1       2.818  -2.448  -2.587  0.00  0.00    +0.000 N 
ATOM     30  H3  UNL     1       2.995  -3.000  -3.457  0.00  0.00    +0.000 HD
BRANCH  29  31
ATOM     31  C3  UNL     1       3.952  -2.006  -1.823  0.00  0.00    +0.000 A 
ATOM     32  C4  UNL     1       5.144  -2.744  -1.867  0.00  0.00    +0.000 A 
ATOM     33  C5  UNL     1       6.265  -2.323  -1.145  0.00  0.00    +0.000 A 
ATOM     34  C6  UNL     1       6.223  -1.142  -0.397  0.00  0.00    +0.000 A 
ATOM     35  C13 UNL     1       5.033  -0.396  -0.354  0.00  0.00    +0.000 A 
ATOM     36  C14 UNL     1       3.908  -0.820  -1.069  0.00  0.00    +0.000 A 
BRANCH  34  37
ATOM     37  O2  UNL     1       7.363  -0.757   0.325  0.00  0.00    +0.000 OA
BRANCH  37  38
ATOM     38  C7  UNL     1       7.759   0.568   0.562  0.00  0.00    +0.000 A 
ATOM     39  C8  UNL     1       7.489   1.602  -0.355  0.00  0.00    +0.000 A 
ATOM     40  C9  UNL     1       7.920   2.908  -0.093  0.00  0.00    +0.000 A 
ATOM     41  C10 UNL     1       8.629   3.189   1.078  0.00  0.00    +0.000 A 
ATOM     42  C11 UNL     1       8.914   2.165   1.986  0.00  0.00    +0.000 A 
ATOM     43  C12 UNL     1       8.486   0.857   1.725  0.00  0.00    +0.000 A 
ENDBRANCH  37  38
ENDBRANCH  34  37
ENDBRANCH  29  31
ENDBRANCH  27  29
ENDBRANCH  25  27
ENDBRANCH   3  25
TORSDOF 8
