REMARK  Name = resultss/4CJN/ligands/lig_378_t1.pdb
REMARK  4 active torsions:
REMARK  status: ('A' for Active; 'I' for Inactive)
REMARK    1  A    between atoms: N1_1  and  S1_2
REMARK    2  A    between atoms: S1_2  and  C1_5
REMARK    3  A    between atoms: C4_8  and  N2_9
REMARK    4  A    between atoms: C8_15  and  C9_16
REMARK                            x       y       z     vdW  Elec       q    Type
REMARK                         _______ _______ _______ _____ _____    ______ ____
ROOT
ATOM      1  N2  UNL     1      -1.222   2.288   0.164  0.00  0.00    +0.000 N 
ATOM      2  C5  UNL     1       0.074   1.703  -0.030  0.00  0.00    +0.000 C 
ATOM      3  N3  UNL     1       0.253   0.421  -0.031  0.00  0.00    +0.000 NA
ATOM      4  C6  UNL     1       1.618   0.071  -0.168  0.00  0.00    +0.000 C 
ATOM      5  O3  UNL     1       1.986  -1.126  -0.293  0.00  0.00    +0.000 OA
ATOM      6  C7  UNL     1       2.506   1.228  -0.213  0.00  0.00    +0.000 C 
ATOM      7  C8  UNL     1       3.843   1.238  -0.326  0.00  0.00    +0.000 C 
ATOM      8  S2  UNL     1       1.547   2.736  -0.177  0.00  0.00    +0.000 S 
ATOM      9  H5  UNL     1      -1.255   3.293   0.449  0.00  0.00    +0.000 HD
ENDROOT
BRANCH   7  10
ATOM     10  C9  UNL     1       4.700   0.039  -0.286  0.00  0.00    +0.000 A 
ATOM     11  C10 UNL     1       4.642  -0.859   0.794  0.00  0.00    +0.000 A 
ATOM     12  C11 UNL     1       5.499  -1.962   0.840  0.00  0.00    +0.000 A 
ATOM     13  C12 UNL     1       6.434  -2.167  -0.180  0.00  0.00    +0.000 A 
ATOM     14 CL1  UNL     1       7.511  -3.550  -0.121  0.00  0.00    +0.000 Cl
ATOM     15  C13 UNL     1       6.518  -1.260  -1.242  0.00  0.00    +0.000 A 
ATOM     16  C14 UNL     1       5.661  -0.155  -1.289  0.00  0.00    +0.000 A 
ENDBRANCH   7  10
BRANCH   1  20
ATOM     17  C1  UNL     1      -4.923   0.204  -0.031  0.00  0.00    +0.000 A 
ATOM     18  C2  UNL     1      -3.867  -0.173  -0.869  0.00  0.00    +0.000 A 
ATOM     19  C3  UNL     1      -2.645   0.505  -0.812  0.00  0.00    +0.000 A 
ATOM     20  C4  UNL     1      -2.460   1.558   0.101  0.00  0.00    +0.000 A 
ATOM     21  C15 UNL     1      -3.527   1.942   0.926  0.00  0.00    +0.000 A 
ATOM     22  C16 UNL     1      -4.747   1.263   0.869  0.00  0.00    +0.000 A 
BRANCH  17  23
ATOM     23  S1  UNL     1      -6.454  -0.663  -0.095  0.00  0.00    +0.000 S 
ATOM     24  O1  UNL     1      -7.573   0.246   0.332  0.00  0.00    +0.000 OA
ATOM     25  O2  UNL     1      -6.718  -1.123  -1.502  0.00  0.00    +0.000 OA
BRANCH  23  26
ATOM     26  N1  UNL     1      -6.386  -2.029   0.961  0.00  0.00    +0.000 NA
ATOM     27  H1  UNL     1      -5.628  -2.653   0.605  0.00  0.00    +0.000 HD
ATOM     28  H2  UNL     1      -7.285  -2.549   0.846  0.00  0.00    +0.000 HD
ENDBRANCH  23  26
ENDBRANCH  17  23
ENDBRANCH   1  20
TORSDOF 4
