REMARK  Name = resultss/4CJN/ligands/lig_375_t2.pdb
REMARK  9 active torsions:
REMARK  status: ('A' for Active; 'I' for Inactive)
REMARK    1  A    between atoms: C1_1  and  O1_2
REMARK    2  A    between atoms: O1_2  and  C2_3
REMARK    3  A    between atoms: C5_6  and  C6_7
REMARK    4  A    between atoms: C6_7  and  C7_8
REMARK    5  A    between atoms: C6_7  and  C16_21
REMARK    6  A    between atoms: C15_19  and  O4_20
REMARK    7  A    between atoms: C24_32  and  O7_33
REMARK    8  A    between atoms: C26_35  and  O8_36
REMARK    9  A    between atoms: O8_36  and  C27_37
REMARK                            x       y       z     vdW  Elec       q    Type
REMARK                         _______ _______ _______ _____ _____    ______ ____
ROOT
ATOM      1  C6  UNL     1       0.172  -0.076   0.862  0.00  0.00    +0.000 C 
ENDROOT
BRANCH   1   2
ATOM      2  C7  UNL     1       0.067   1.458   0.825  0.00  0.00    +0.000 A 
ATOM      3  C8  UNL     1      -0.560   2.164  -0.235  0.00  0.00    +0.000 A 
ATOM      4  O2  UNL     1      -1.023   1.551  -1.236  0.00  0.00    +0.000 OA
ATOM      5  C9  UNL     1      -0.655   3.564  -0.185  0.00  0.00    +0.000 A 
ATOM      6  C10 UNL     1      -1.287   4.309  -1.200  0.00  0.00    +0.000 A 
ATOM      7  C11 UNL     1      -1.360   5.704  -1.107  0.00  0.00    +0.000 A 
ATOM      8 CL1  UNL     1      -2.151   6.627  -2.372  0.00  0.00    +0.000 Cl
ATOM      9  C12 UNL     1      -0.804   6.362  -0.006  0.00  0.00    +0.000 A 
ATOM     10  C13 UNL     1      -0.172   5.631   1.002  0.00  0.00    +0.000 A 
ATOM     11  C14 UNL     1      -0.094   4.236   0.917  0.00  0.00    +0.000 A 
ATOM     12  O3  UNL     1       0.517   3.556   1.875  0.00  0.00    +0.000 OA
ATOM     13  C15 UNL     1       0.633   2.233   1.876  0.00  0.00    +0.000 A 
BRANCH  13  14
ATOM     14  O4  UNL     1       1.333   1.658   2.939  0.00  0.00    +0.000 OA
ATOM     15  H10 UNL     1       1.550   0.674   3.013  0.00  0.00    +0.000 HD
ENDBRANCH  13  14
ENDBRANCH   1   2
BRANCH   1  16
ATOM     16  C16 UNL     1       1.586  -0.591   0.568  0.00  0.00    +0.000 A 
ATOM     17  C17 UNL     1       2.101  -1.692   1.289  0.00  0.00    +0.000 A 
ATOM     18  O5  UNL     1       1.401  -2.252   2.179  0.00  0.00    +0.000 OA
ATOM     19  C18 UNL     1       3.393  -2.167   1.012  0.00  0.00    +0.000 A 
ATOM     20  C19 UNL     1       3.962  -3.246   1.714  0.00  0.00    +0.000 A 
ATOM     21  C20 UNL     1       5.255  -3.682   1.405  0.00  0.00    +0.000 A 
ATOM     22 CL2  UNL     1       5.961  -5.026   2.284  0.00  0.00    +0.000 Cl
ATOM     23  C21 UNL     1       5.986  -3.048   0.395  0.00  0.00    +0.000 A 
ATOM     24  C22 UNL     1       5.428  -1.978  -0.309  0.00  0.00    +0.000 A 
ATOM     25  C23 UNL     1       4.135  -1.535  -0.007  0.00  0.00    +0.000 A 
ATOM     26  O6  UNL     1       3.613  -0.525  -0.689  0.00  0.00    +0.000 OA
ATOM     27  C24 UNL     1       2.395  -0.045  -0.458  0.00  0.00    +0.000 A 
BRANCH  27  28
ATOM     28  O7  UNL     1       1.930   0.992  -1.259  0.00  0.00    +0.000 OA
ATOM     29  H14 UNL     1       2.507   1.377  -1.996  0.00  0.00    +0.000 HD
ENDBRANCH  27  28
ENDBRANCH   1  16
BRANCH   1  33
ATOM     30  C2  UNL     1      -2.987  -2.105  -1.339  0.00  0.00    +0.000 A 
ATOM     31  C3  UNL     1      -1.679  -2.082  -1.854  0.00  0.00    +0.000 A 
ATOM     32  C4  UNL     1      -0.654  -1.440  -1.157  0.00  0.00    +0.000 A 
ATOM     33  C5  UNL     1      -0.910  -0.815   0.078  0.00  0.00    +0.000 A 
ATOM     34  C25 UNL     1      -2.222  -0.832   0.583  0.00  0.00    +0.000 A 
ATOM     35  C26 UNL     1      -3.261  -1.474  -0.117  0.00  0.00    +0.000 A 
BRANCH  30  37
ATOM     36  C1  UNL     1      -3.912  -3.415  -3.260  0.00  0.00    +0.000 C 
ATOM     37  O1  UNL     1      -4.042  -2.740  -2.014  0.00  0.00    +0.000 OA
ENDBRANCH  30  37
BRANCH  35  38
ATOM     38  O8  UNL     1      -4.578  -1.506   0.368  0.00  0.00    +0.000 OA
ATOM     39  C27 UNL     1      -5.005  -0.905   1.586  0.00  0.00    +0.000 C 
ENDBRANCH  35  38
ENDBRANCH   1  33
TORSDOF 7
