REMARK  Name = resultss/4CJN/ligands/lig_214_t0.pdb
REMARK  15 active torsions:
REMARK  status: ('A' for Active; 'I' for Inactive)
REMARK    1  A    between atoms: C1_1  and  C2_2
REMARK    2  A    between atoms: C2_2  and  C3_3
REMARK    3  A    between atoms: C3_3  and  C4_4
REMARK    4  A    between atoms: C4_4  and  O1_5
REMARK    5  A    between atoms: C4_4  and  C5_6
REMARK    6  A    between atoms: C5_6  and  O2_7
REMARK    7  A    between atoms: C5_6  and  C6_8
REMARK    8  A    between atoms: C6_8  and  O3_9
REMARK    9  A    between atoms: C6_8  and  C7_10
REMARK   10  A    between atoms: C7_10  and  S1_11
REMARK   11  A    between atoms: C9_13  and  O4_14
REMARK   12  A    between atoms: C10_15  and  O5_16
REMARK   13  A    between atoms: C11_17  and  C12_18
REMARK   14  A    between atoms: C12_18  and  O6_19
REMARK   15  A    between atoms: C13_20  and  S2_21
REMARK                            x       y       z     vdW  Elec       q    Type
REMARK                         _______ _______ _______ _____ _____    ______ ____
ROOT
ATOM      1  C7  UNL     1      -0.503  -1.216   0.241  0.00  0.00    +0.000 C 
ENDROOT
BRANCH   1   2
ATOM      2  S1  UNL     1      -2.189  -0.875   0.721  0.00  0.00    +0.000 S 
ATOM      3  C8  UNL     1      -3.294  -1.935  -0.164  0.00  0.00    +0.000 C 
ATOM      4  C9  UNL     1      -3.898  -1.063  -1.265  0.00  0.00    +0.000 C 
ATOM      5  C10 UNL     1      -4.016   0.370  -0.718  0.00  0.00    +0.000 C 
ATOM      6  C11 UNL     1      -2.724   0.681   0.056  0.00  0.00    +0.000 C 
BRANCH   4   7
ATOM      7  O4  UNL     1      -5.161  -1.544  -1.643  0.00  0.00    +0.000 OA
ATOM      8  H19 UNL     1      -5.003  -2.370  -2.170  0.00  0.00    +0.000 HD
ENDBRANCH   4   7
BRANCH   5   9
ATOM      9  O5  UNL     1      -4.182   1.287  -1.767  0.00  0.00    +0.000 OA
ATOM     10  H21 UNL     1      -5.122   1.203  -2.073  0.00  0.00    +0.000 HD
ENDBRANCH   5   9
BRANCH   6  11
ATOM     11  C12 UNL     1      -2.931   1.702   1.183  0.00  0.00    +0.000 C 
BRANCH  11  12
ATOM     12  O6  UNL     1      -3.268   2.957   0.654  0.00  0.00    +0.000 OA
ATOM     13  H25 UNL     1      -4.252   2.960   0.528  0.00  0.00    +0.000 HD
ENDBRANCH  11  12
ENDBRANCH   6  11
ENDBRANCH   1   2
BRANCH   1  14
ATOM     14  C6  UNL     1       0.478  -0.292   0.995  0.00  0.00    +0.000 C 
BRANCH  14  15
ATOM     15  O3  UNL     1       0.379  -0.520   2.379  0.00  0.00    +0.000 OA
ATOM     16  H13 UNL     1       0.680  -1.451   2.551  0.00  0.00    +0.000 HD
ENDBRANCH  14  15
BRANCH  14  17
ATOM     17  C5  UNL     1       1.962  -0.421   0.538  0.00  0.00    +0.000 C 
BRANCH  17  18
ATOM     18  O2  UNL     1       2.352  -1.765   0.391  0.00  0.00    +0.000 OA
ATOM     19  H11 UNL     1       1.939  -2.118  -0.438  0.00  0.00    +0.000 HD
ENDBRANCH  17  18
BRANCH  17  20
ATOM     20  C4  UNL     1       2.314   0.448  -0.708  0.00  0.00    +0.000 C 
BRANCH  20  21
ATOM     21  O1  UNL     1       1.456   0.178  -1.789  0.00  0.00    +0.000 OA
ATOM     22  H9  UNL     1       1.719  -0.694  -2.183  0.00  0.00    +0.000 HD
ENDBRANCH  20  21
BRANCH  20  23
ATOM     23  C3  UNL     1       3.791   0.315  -1.151  0.00  0.00    +0.000 C 
BRANCH  23  25
ATOM     24  C1  UNL     1       6.203   0.891  -0.672  0.00  0.00    +0.000 C 
ATOM     25  C2  UNL     1       4.780   0.882  -0.121  0.00  0.00    +0.000 C 
ENDBRANCH  23  25
ENDBRANCH  20  23
ENDBRANCH  17  20
ENDBRANCH  14  17
ENDBRANCH   1  14
TORSDOF 13
REMARK  Name = resultss/4CJN/ligands/lig_214_t0.pdb
REMARK  15 active torsions:
REMARK  status: ('A' for Active; 'I' for Inactive)
REMARK    1  A    between atoms: C1_1  and  C2_2
REMARK    2  A    between atoms: C2_2  and  C3_3
REMARK    3  A    between atoms: C3_3  and  C4_4
REMARK    4  A    between atoms: C4_4  and  O1_5
REMARK    5  A    between atoms: C4_4  and  C5_6
REMARK    6  A    between atoms: C5_6  and  O2_7
REMARK    7  A    between atoms: C5_6  and  C6_8
REMARK    8  A    between atoms: C6_8  and  O3_9
REMARK    9  A    between atoms: C6_8  and  C7_10
REMARK   10  A    between atoms: C7_10  and  S1_11
REMARK   11  A    between atoms: C9_13  and  O4_14
REMARK   12  A    between atoms: C10_15  and  O5_16
REMARK   13  A    between atoms: C11_17  and  C12_18
REMARK   14  A    between atoms: C12_18  and  O6_19
REMARK   15  A    between atoms: C13_20  and  S2_21
REMARK                            x       y       z     vdW  Elec       q    Type
REMARK                         _______ _______ _______ _____ _____    ______ ____
ROOT
ATOM      1  C13 UNL     1      -0.945  -0.035   0.013  0.00  0.00    +0.000 C 
ATOM      2  S2  UNL     1       0.830   0.065   0.009  0.00  0.00    +0.000 S 
ATOM      3  O7  UNL     1       1.337   0.054   1.424  0.00  0.00    +0.000 OA
ATOM      4  O8  UNL     1       1.260   1.336  -0.666  0.00  0.00    +0.000 OA
ATOM      5  O9  UNL     1       1.463  -1.250  -0.821  0.00  0.00    +0.000 OA
ENDROOT
TORSDOF 0
