REMARK  Name = resultss/4CJN/ligands/lig_221_t0.pdb
REMARK  6 active torsions:
REMARK  status: ('A' for Active; 'I' for Inactive)
REMARK    1  A    between atoms: C1_1  and  C2_2
REMARK    2  A    between atoms: C2_2  and  C3_3
REMARK    3  A    between atoms: C3_3  and  O1_4
REMARK    4  A    between atoms: C5_7  and  O2_8
REMARK    5  A    between atoms: C6_9  and  O3_10
REMARK    6  A    between atoms: C7_11  and  O4_12
REMARK                            x       y       z     vdW  Elec       q    Type
REMARK                         _______ _______ _______ _____ _____    ______ ____
ROOT
ATOM      1  C1  UNL     1      -1.649  -0.139   1.523  0.00  0.00    +0.000 C 
ATOM      2  C2  UNL     1      -0.890  -0.213   0.169  0.00  0.00    +0.000 C 
ATOM      3  N1  UNL     1       0.015  -1.391   0.150  0.00  0.00    +0.000 NA
ATOM      4  C4  UNL     1       1.340  -1.109   0.711  0.00  0.00    +0.000 C 
ATOM      5  C5  UNL     1       2.117  -0.163  -0.223  0.00  0.00    +0.000 C 
ATOM      6  C6  UNL     1       1.199   0.891  -0.906  0.00  0.00    +0.000 C 
ATOM      7  C7  UNL     1      -0.100   1.132  -0.098  0.00  0.00    +0.000 C 
ATOM      8  H7  UNL     1      -0.408  -2.189   0.681  0.00  0.00    +0.000 HD
ENDROOT
BRANCH   5   9
ATOM      9  O2  UNL     1       3.171   0.455   0.473  0.00  0.00    +0.000 OA
ATOM     10  H11 UNL     1       2.772   1.045   1.164  0.00  0.00    +0.000 HD
ENDBRANCH   5   9
BRANCH   6  11
ATOM     11  O3  UNL     1       0.868   0.473  -2.206  0.00  0.00    +0.000 OA
ATOM     12  H13 UNL     1       1.668   0.630  -2.773  0.00  0.00    +0.000 HD
ENDBRANCH   6  11
BRANCH   7  13
ATOM     13  O4  UNL     1       0.231   1.769   1.114  0.00  0.00    +0.000 OA
ATOM     14  H15 UNL     1       0.433   2.718   0.902  0.00  0.00    +0.000 HD
ENDBRANCH   7  13
BRANCH   2  15
ATOM     15  C3  UNL     1      -1.940  -0.412  -0.954  0.00  0.00    +0.000 C 
BRANCH  15  16
ATOM     16  O1  UNL     1      -2.625  -1.625  -0.785  0.00  0.00    +0.000 OA
ATOM     17  H6  UNL     1      -3.285  -1.676  -1.525  0.00  0.00    +0.000 HD
ENDBRANCH  15  16
ENDBRANCH   2  15
TORSDOF 5
REMARK  Name = resultss/4CJN/ligands/lig_221_t0.pdb
REMARK  6 active torsions:
REMARK  status: ('A' for Active; 'I' for Inactive)
REMARK    1  A    between atoms: C1_1  and  C2_2
REMARK    2  A    between atoms: C2_2  and  C3_3
REMARK    3  A    between atoms: C3_3  and  O1_4
REMARK    4  A    between atoms: C5_7  and  O2_8
REMARK    5  A    between atoms: C6_9  and  O3_10
REMARK    6  A    between atoms: C7_11  and  O4_12
REMARK                            x       y       z     vdW  Elec       q    Type
REMARK                         _______ _______ _______ _____ _____    ______ ____
ROOT
ATOM      1 CL1  UNL     1       0.688   0.000   0.000  0.00  0.00    +0.000 Cl
ATOM      2  H16 UNL     1      -0.688   0.000   0.000  0.00  0.00    +0.000 HD
ENDROOT
TORSDOF 0
