REMARK  Name = resultss/4CJN/ligands/lig_210_t0.pdb
REMARK  18 active torsions:
REMARK  status: ('A' for Active; 'I' for Inactive)
REMARK    1  A    between atoms: C1_1  and  C2_2
REMARK    2  A    between atoms: C2_2  and  C3_3
REMARK    3  A    between atoms: C3_3  and  C4_4
REMARK    4  A    between atoms: C4_4  and  C5_5
REMARK    5  A    between atoms: C5_5  and  C6_6
REMARK    6  A    between atoms: C6_6  and  C7_7
REMARK    7  A    between atoms: C7_7  and  O1_8
REMARK    8  A    between atoms: C7_7  and  C8_9
REMARK    9  A    between atoms: C8_9  and  O2_10
REMARK   10  A    between atoms: C8_9  and  C9_15
REMARK   11  A    between atoms: O2_10  and  S1_11
REMARK   12  A    between atoms: C9_15  and  O6_16
REMARK   13  A    between atoms: C9_15  and  C10_17
REMARK   14  A    between atoms: C10_17  and  S2_18
REMARK   15  A    between atoms: C12_20  and  O7_21
REMARK   16  A    between atoms: C13_22  and  O8_23
REMARK   17  A    between atoms: C14_24  and  C15_25
REMARK   18  A    between atoms: C15_25  and  O9_26
REMARK                            x       y       z     vdW  Elec       q    Type
REMARK                         _______ _______ _______ _____ _____    ______ ____
ROOT
ATOM      1  C9  UNL     1      -1.165  -0.313  -0.689  0.00  0.00    +0.000 C 
ENDROOT
BRANCH   1   2
ATOM      2  O6  UNL     1      -0.979  -0.152  -2.073  0.00  0.00    +0.000 OA
ATOM      3  H18 UNL     1      -1.861  -0.297  -2.506  0.00  0.00    +0.000 HD
ENDBRANCH   1   2
BRANCH   1   4
ATOM      4  C8  UNL     1       0.159  -0.769  -0.023  0.00  0.00    +0.000 C 
BRANCH   4   5
ATOM      5  O2  UNL     1       0.555  -2.001  -0.601  0.00  0.00    +0.000 OA
BRANCH   5   6
ATOM      6  S1  UNL     1       0.249  -3.282   0.468  0.00  0.00    +0.000 S 
ATOM      7  O3  UNL     1       0.643  -4.572  -0.194  0.00  0.00    +0.000 OA
ATOM      8  O4  UNL     1      -1.213  -3.337   0.814  0.00  0.00    +0.000 OA
ATOM      9  O5  UNL     1       1.156  -3.090   1.870  0.00  0.00    +0.000 OA
ENDBRANCH   5   6
ENDBRANCH   4   5
BRANCH   4  10
ATOM     10  C7  UNL     1       1.314   0.258  -0.177  0.00  0.00    +0.000 C 
BRANCH  10  11
ATOM     11  O1  UNL     1       1.607   0.507  -1.531  0.00  0.00    +0.000 OA
ATOM     12  H15 UNL     1       1.968  -0.331  -1.922  0.00  0.00    +0.000 HD
ENDBRANCH  10  11
BRANCH  10  13
ATOM     13  C6  UNL     1       2.577  -0.205   0.582  0.00  0.00    +0.000 C 
BRANCH  13  14
ATOM     14  C5  UNL     1       3.702   0.839   0.507  0.00  0.00    +0.000 C 
BRANCH  14  15
ATOM     15  C4  UNL     1       4.903   0.489   1.404  0.00  0.00    +0.000 C 
BRANCH  15  16
ATOM     16  C3  UNL     1       5.597  -0.848   1.075  0.00  0.00    +0.000 C 
BRANCH  16  18
ATOM     17  C1  UNL     1       7.140   0.067  -0.747  0.00  0.00    +0.000 C 
ATOM     18  C2  UNL     1       6.093  -0.983  -0.376  0.00  0.00    +0.000 C 
ENDBRANCH  16  18
ENDBRANCH  15  16
ENDBRANCH  14  15
ENDBRANCH  13  14
ENDBRANCH  10  13
ENDBRANCH   4  10
ENDBRANCH   1   4
BRANCH   1  19
ATOM     19  C10 UNL     1      -1.719   0.984  -0.071  0.00  0.00    +0.000 C 
BRANCH  19  20
ATOM     20  S2  UNL     1      -3.414   1.258  -0.567  0.00  0.00    +0.000 S 
ATOM     21  C11 UNL     1      -4.040   2.722   0.200  0.00  0.00    +0.000 C 
ATOM     22  C12 UNL     1      -4.906   2.231   1.359  0.00  0.00    +0.000 C 
ATOM     23  C13 UNL     1      -5.559   0.908   0.932  0.00  0.00    +0.000 C 
ATOM     24  C14 UNL     1      -4.489   0.073   0.202  0.00  0.00    +0.000 C 
BRANCH  23  25
ATOM     25  O8  UNL     1      -6.033   0.228   2.066  0.00  0.00    +0.000 OA
ATOM     26  H26 UNL     1      -6.756  -0.378   1.757  0.00  0.00    +0.000 HD
ENDBRANCH  23  25
BRANCH  22  27
ATOM     27  O7  UNL     1      -5.893   3.176   1.679  0.00  0.00    +0.000 OA
ATOM     28  H24 UNL     1      -5.429   3.926   2.134  0.00  0.00    +0.000 HD
ENDBRANCH  22  27
BRANCH  24  29
ATOM     29  C15 UNL     1      -5.081  -0.870  -0.856  0.00  0.00    +0.000 C 
BRANCH  29  30
ATOM     30  O9  UNL     1      -5.887  -1.847  -0.257  0.00  0.00    +0.000 OA
ATOM     31  H30 UNL     1      -5.273  -2.492   0.182  0.00  0.00    +0.000 HD
ENDBRANCH  29  30
ENDBRANCH  24  29
ENDBRANCH  19  20
ENDBRANCH   1  19
TORSDOF 17
