REMARK  Name = resultss/4CJN/ligands/lig_310_t1.pdb
REMARK  15 active torsions:
REMARK  status: ('A' for Active; 'I' for Inactive)
REMARK    1  A    between atoms: C1_1  and  O1_2
REMARK    2  A    between atoms: O1_2  and  C2_3
REMARK    3  A    between atoms: C4_5  and  O2_6
REMARK    4  A    between atoms: C9_13  and  O5_14
REMARK    5  A    between atoms: O5_14  and  C10_15
REMARK    6  A    between atoms: C11_17  and  C12_18
REMARK    7  A    between atoms: C12_18  and  O7_19
REMARK    8  A    between atoms: C13_20  and  O8_21
REMARK    9  A    between atoms: C14_22  and  O9_23
REMARK   10  A    between atoms: C15_24  and  O10_25
REMARK   11  A    between atoms: O10_25  and  C16_26
REMARK   12  A    between atoms: C17_28  and  C18_29
REMARK   13  A    between atoms: C19_30  and  O12_31
REMARK   14  A    between atoms: C20_32  and  O13_33
REMARK   15  A    between atoms: C21_34  and  O14_35
REMARK                            x       y       z     vdW  Elec       q    Type
REMARK                         _______ _______ _______ _____ _____    ______ ____
ROOT
ATOM      1  C10 UNL     1      -1.431  -1.340   0.136  0.00  0.00    +0.000 C 
ATOM      2  O6  UNL     1      -1.354  -2.609   0.769  0.00  0.00    +0.000 OA
ATOM      3  C11 UNL     1      -2.658  -3.110   1.013  0.00  0.00    +0.000 C 
ATOM      4  C13 UNL     1      -3.361  -3.493  -0.323  0.00  0.00    +0.000 C 
ATOM      5  C14 UNL     1      -2.641  -2.857  -1.533  0.00  0.00    +0.000 C 
ATOM      6  C15 UNL     1      -2.206  -1.413  -1.221  0.00  0.00    +0.000 C 
ENDROOT
BRANCH   4   7
ATOM      7  O8  UNL     1      -4.698  -3.059  -0.304  0.00  0.00    +0.000 OA
ATOM      8  H13 UNL     1      -5.177  -3.632   0.352  0.00  0.00    +0.000 HD
ENDBRANCH   4   7
BRANCH   5   9
ATOM      9  O9  UNL     1      -1.505  -3.616  -1.868  0.00  0.00    +0.000 OA
ATOM     10  H15 UNL     1      -1.830  -4.426  -2.345  0.00  0.00    +0.000 HD
ENDBRANCH   5   9
BRANCH   1  11
ATOM     11  O5  UNL     1      -0.114  -0.890  -0.139  0.00  0.00    +0.000 OA
BRANCH  11  21
ATOM     12  C2  UNL     1       7.922   0.582   0.346  0.00  0.00    +0.000 A 
ATOM     13  C3  UNL     1       7.554   1.608  -0.543  0.00  0.00    +0.000 A 
ATOM     14  C4  UNL     1       6.203   1.913  -0.768  0.00  0.00    +0.000 A 
ATOM     15  C5  UNL     1       5.195   1.181  -0.097  0.00  0.00    +0.000 A 
ATOM     16  C6  UNL     1       3.816   1.428  -0.271  0.00  0.00    +0.000 A 
ATOM     17  O3  UNL     1       3.423   2.331  -1.060  0.00  0.00    +0.000 OA
ATOM     18  C7  UNL     1       2.876   0.653   0.438  0.00  0.00    +0.000 A 
ATOM     19  C8  UNL     1       1.409   0.856   0.322  0.00  0.00    +0.000 C 
ATOM     20  O4  UNL     1       0.945   1.840  -0.316  0.00  0.00    +0.000 OA
ATOM     21  C9  UNL     1       0.439  -0.131   0.924  0.00  0.00    +0.000 C 
ATOM     22  C22 UNL     1       1.088  -1.056   1.930  0.00  0.00    +0.000 C 
ATOM     23  C23 UNL     1       2.410  -1.178   2.067  0.00  0.00    +0.000 C 
ATOM     24  C24 UNL     1       3.350  -0.350   1.297  0.00  0.00    +0.000 A 
ATOM     25  O15 UNL     1       4.653  -0.557   1.441  0.00  0.00    +0.000 OA
ATOM     26  C25 UNL     1       5.574   0.150   0.795  0.00  0.00    +0.000 A 
ATOM     27  C26 UNL     1       6.925  -0.138   1.008  0.00  0.00    +0.000 A 
BRANCH  12  29
ATOM     28  C1  UNL     1      10.378   0.877  -0.025  0.00  0.00    +0.000 C 
ATOM     29  O1  UNL     1       9.262   0.248   0.598  0.00  0.00    +0.000 OA
ENDBRANCH  12  29
BRANCH  14  30
ATOM     30  O2  UNL     1       5.874   2.941  -1.654  0.00  0.00    +0.000 OA
ATOM     31  H5  UNL     1       6.585   3.482  -2.133  0.00  0.00    +0.000 HD
ENDBRANCH  14  30
ENDBRANCH  11  21
ENDBRANCH   1  11
BRANCH   3  32
ATOM     32  C12 UNL     1      -2.559  -4.323   1.947  0.00  0.00    +0.000 C 
BRANCH  32  33
ATOM     33  O7  UNL     1      -2.063  -3.937   3.203  0.00  0.00    +0.000 OA
ATOM     34  H11 UNL     1      -1.076  -3.875   3.114  0.00  0.00    +0.000 HD
ENDBRANCH  32  33
ENDBRANCH   3  32
BRANCH   6  35
ATOM     35  O10 UNL     1      -3.360  -0.588  -1.192  0.00  0.00    +0.000 OA
BRANCH  35  36
ATOM     36  C16 UNL     1      -3.038   0.795  -1.267  0.00  0.00    +0.000 C 
ATOM     37  O11 UNL     1      -3.365   1.414  -0.029  0.00  0.00    +0.000 OA
ATOM     38  C17 UNL     1      -4.736   1.751   0.039  0.00  0.00    +0.000 C 
ATOM     39  C18 UNL     1      -5.096   2.057   1.492  0.00  0.00    +0.000 C 
ATOM     40  C19 UNL     1      -5.022   2.965  -0.875  0.00  0.00    +0.000 C 
ATOM     41  C20 UNL     1      -4.200   2.878  -2.193  0.00  0.00    +0.000 C 
ATOM     42  C21 UNL     1      -3.761   1.427  -2.490  0.00  0.00    +0.000 C 
BRANCH  40  43
ATOM     43  O12 UNL     1      -6.397   3.002  -1.164  0.00  0.00    +0.000 OA
ATOM     44  H23 UNL     1      -6.602   3.928  -1.459  0.00  0.00    +0.000 HD
ENDBRANCH  40  43
BRANCH  41  45
ATOM     45  O13 UNL     1      -3.089   3.743  -2.161  0.00  0.00    +0.000 OA
ATOM     46  H25 UNL     1      -2.538   3.511  -1.367  0.00  0.00    +0.000 HD
ENDBRANCH  41  45
BRANCH  42  47
ATOM     47  O14 UNL     1      -2.919   1.383  -3.614  0.00  0.00    +0.000 OA
ATOM     48  H27 UNL     1      -3.487   1.569  -4.406  0.00  0.00    +0.000 HD
ENDBRANCH  42  47
ENDBRANCH  35  36
ENDBRANCH   6  35
TORSDOF 13
