REMARK  Name = resultss/4CJN/ligands/lig_178_t0.pdb
REMARK  7 active torsions:
REMARK  status: ('A' for Active; 'I' for Inactive)
REMARK    1  A    between atoms: C1_2  and  C9_15
REMARK    2  A    between atoms: N1_3  and  N2_4
REMARK    3  A    between atoms: C2_5  and  C3_6
REMARK    4  A    between atoms: C4_7  and  O2_8
REMARK    5  A    between atoms: C6_10  and  O3_11
REMARK    6  A    between atoms: C8_13  and  O4_14
REMARK    7  A    between atoms: C12_18  and  C13_19
REMARK                            x       y       z     vdW  Elec       q    Type
REMARK                         _______ _______ _______ _____ _____    ______ ____
ROOT
ATOM      1  O1  UNL     1      -1.398  -3.387   1.824  0.00  0.00    +0.000 OA
ATOM      2  C1  UNL     1      -1.357  -2.365   1.087  0.00  0.00    +0.000 C 
ATOM      3  N1  UNL     1      -2.580  -1.832   0.562  0.00  0.00    +0.000 N 
ATOM      4  H1  UNL     1      -2.571  -0.913   0.068  0.00  0.00    +0.000 HD
ENDROOT
BRANCH   2   5
ATOM      5  C9  UNL     1      -0.051  -1.724   0.799  0.00  0.00    +0.000 A 
ATOM      6  C10 UNL     1       0.145  -0.955  -0.361  0.00  0.00    +0.000 A 
ATOM      7  C11 UNL     1       1.384  -0.361  -0.620  0.00  0.00    +0.000 A 
ATOM      8  C12 UNL     1       2.457  -0.528   0.272  0.00  0.00    +0.000 A 
ATOM      9  C20 UNL     1       2.265  -1.308   1.425  0.00  0.00    +0.000 A 
ATOM     10  C21 UNL     1       1.027  -1.902   1.683  0.00  0.00    +0.000 A 
BRANCH   8  11
ATOM     11  C13 UNL     1       3.773   0.099   0.008  0.00  0.00    +0.000 A 
ATOM     12  N3  UNL     1       4.841  -0.038   0.837  0.00  0.00    +0.000 NA
ATOM     13  C14 UNL     1       5.923   0.633   0.368  0.00  0.00    +0.000 A 
ATOM     14  C15 UNL     1       7.164   0.675   1.007  0.00  0.00    +0.000 A 
ATOM     15  C16 UNL     1       8.205   1.410   0.413  0.00  0.00    +0.000 A 
ATOM     16  C17 UNL     1       7.995   2.089  -0.804  0.00  0.00    +0.000 A 
ATOM     17  C18 UNL     1       6.743   2.040  -1.437  0.00  0.00    +0.000 A 
ATOM     18  C19 UNL     1       5.729   1.305  -0.828  0.00  0.00    +0.000 A 
ATOM     19  S1  UNL     1       4.151   1.065  -1.338  0.00  0.00    +0.000 S 
ENDBRANCH   8  11
ENDBRANCH   2   5
BRANCH   3  20
ATOM     20  N2  UNL     1      -3.780  -2.547   0.724  0.00  0.00    +0.000 NA
ATOM     21  C2  UNL     1      -4.954  -2.090   0.399  0.00  0.00    +0.000 C 
BRANCH  21  22
ATOM     22  C3  UNL     1      -5.180  -0.725  -0.122  0.00  0.00    +0.000 A 
ATOM     23  C4  UNL     1      -4.866   0.396   0.674  0.00  0.00    +0.000 A 
ATOM     24  C5  UNL     1      -5.105   1.689   0.187  0.00  0.00    +0.000 A 
ATOM     25  C6  UNL     1      -5.674   1.874  -1.077  0.00  0.00    +0.000 A 
ATOM     26  C7  UNL     1      -6.008   0.765  -1.858  0.00  0.00    +0.000 A 
ATOM     27  C8  UNL     1      -5.769  -0.532  -1.391  0.00  0.00    +0.000 A 
BRANCH  23  28
ATOM     28  O2  UNL     1      -4.329   0.222   1.950  0.00  0.00    +0.000 OA
ATOM     29  H3  UNL     1      -4.096   1.012   2.541  0.00  0.00    +0.000 HD
ENDBRANCH  23  28
BRANCH  25  30
ATOM     30  O3  UNL     1      -5.916   3.156  -1.566  0.00  0.00    +0.000 OA
ATOM     31  H5  UNL     1      -5.686   3.982  -1.024  0.00  0.00    +0.000 HD
ENDBRANCH  25  30
BRANCH  27  32
ATOM     32  O4  UNL     1      -6.116  -1.606  -2.214  0.00  0.00    +0.000 OA
ATOM     33  H7  UNL     1      -5.952  -2.571  -1.957  0.00  0.00    +0.000 HD
ENDBRANCH  27  32
ENDBRANCH  21  22
ENDBRANCH   3  20
TORSDOF 7
