REMARK  Name = resultss/4CJN/ligands/lig_229_t0.pdb
REMARK  8 active torsions:
REMARK  status: ('A' for Active; 'I' for Inactive)
REMARK    1  A    between atoms: C6_8  and  C7_9
REMARK    2  A    between atoms: C11_13  and  C12_14
REMARK    3  A    between atoms: C14_16  and  O3_17
REMARK    4  A    between atoms: O3_17  and  C15_18
REMARK    5  A    between atoms: C15_18  and  C16_20
REMARK    6  A    between atoms: C16_20  and  C19_23
REMARK    7  A    between atoms: C17_21  and  C18_22
REMARK    8  A    between atoms: C19_23  and  O5_24
REMARK                            x       y       z     vdW  Elec       q    Type
REMARK                         _______ _______ _______ _____ _____    ______ ____
ROOT
ATOM      1  C1  UNL     1       0.675   0.360   3.512  0.00  0.00    +0.000 C 
ATOM      2  C2  UNL     1      -0.007   0.852   2.477  0.00  0.00    +0.000 C 
ATOM      3  C3  UNL     1      -0.423   2.226   2.324  0.00  0.00    +0.000 C 
ATOM      4  O1  UNL     1      -0.168   3.163   3.126  0.00  0.00    +0.000 OA
ATOM      5  O2  UNL     1      -1.171   2.385   1.179  0.00  0.00    +0.000 OA
ATOM      6  C4  UNL     1      -1.216   1.177   0.427  0.00  0.00    +0.000 C 
ATOM      7  C5  UNL     1      -2.643   0.842   0.048  0.00  0.00    +0.000 C 
ATOM      8  C6  UNL     1      -3.130   0.986  -1.202  0.00  0.00    +0.000 C 
ATOM      9  C7  UNL     1      -2.455   1.877  -2.218  0.00  0.00    +0.000 C 
ATOM     10  C8  UNL     1      -4.222   0.034  -1.668  0.00  0.00    +0.000 C 
ATOM     11  C9  UNL     1      -3.793  -1.463  -1.624  0.00  0.00    +0.000 C 
ATOM     12  C10 UNL     1      -2.287  -1.628  -1.714  0.00  0.00    +0.000 C 
ATOM     13  C11 UNL     1      -1.504  -1.984  -0.666  0.00  0.00    +0.000 C 
ATOM     14  C12 UNL     1      -2.036  -2.846   0.454  0.00  0.00    +0.000 C 
ATOM     15  C13 UNL     1      -0.043  -1.563  -0.664  0.00  0.00    +0.000 C 
ATOM     16  C14 UNL     1       0.447  -0.855   0.636  0.00  0.00    +0.000 C 
ATOM     17  C20 UNL     1      -0.596   0.064   1.342  0.00  0.00    +0.000 C 
ENDROOT
BRANCH  16  18
ATOM     18  O3  UNL     1       1.616  -0.086   0.344  0.00  0.00    +0.000 OA
BRANCH  18  19
ATOM     19  C15 UNL     1       2.876  -0.637   0.090  0.00  0.00    +0.000 C 
ATOM     20  O4  UNL     1       3.033  -1.888   0.140  0.00  0.00    +0.000 OA
BRANCH  19  21
ATOM     21  C16 UNL     1       4.032   0.231  -0.259  0.00  0.00    +0.000 C 
ATOM     22  C17 UNL     1       4.065   1.559  -0.019  0.00  0.00    +0.000 C 
ATOM     23  C18 UNL     1       2.963   2.347   0.625  0.00  0.00    +0.000 C 
BRANCH  21  24
ATOM     24  C19 UNL     1       5.267  -0.417  -0.841  0.00  0.00    +0.000 C 
BRANCH  24  25
ATOM     25  O5  UNL     1       6.186  -0.706   0.176  0.00  0.00    +0.000 OA
ATOM     26  H25 UNL     1       5.847  -1.514   0.644  0.00  0.00    +0.000 HD
ENDBRANCH  24  25
ENDBRANCH  21  24
ENDBRANCH  19  21
ENDBRANCH  18  19
ENDBRANCH  16  18
TORSDOF 5
