REMARK  Name = resultss/4CJN/ligands/lig_398_t1.pdb
REMARK  8 active torsions:
REMARK  status: ('A' for Active; 'I' for Inactive)
REMARK    1  A    between atoms: C8_10  and  N2_11
REMARK    2  A    between atoms: N2_11  and  N3_12
REMARK    3  A    between atoms: C9_13  and  C10_14
REMARK    4  A    between atoms: C13_17  and  O2_18
REMARK    5  A    between atoms: O2_18  and  C14_19
REMARK    6  A    between atoms: C14_19  and  C15_20
REMARK    7  A    between atoms: N4_22  and  C17_23
REMARK    8  A    between atoms: C17_23  and  C18_24
REMARK                            x       y       z     vdW  Elec       q    Type
REMARK                         _______ _______ _______ _____ _____    ______ ____
ROOT
ATOM      1  C10 UNL     1      -1.913   0.180   2.713  0.00  0.00    +0.000 A 
ATOM      2  C11 UNL     1      -0.677  -0.434   2.959  0.00  0.00    +0.000 A 
ATOM      3  C12 UNL     1       0.422  -0.164   2.137  0.00  0.00    +0.000 A 
ATOM      4  C13 UNL     1       0.309   0.735   1.071  0.00  0.00    +0.000 A 
ATOM      5  C24 UNL     1      -0.923   1.377   0.842  0.00  0.00    +0.000 A 
ATOM      6  C25 UNL     1      -2.020   1.110   1.665  0.00  0.00    +0.000 A 
ENDROOT
BRANCH   1   8
ATOM      7  N3  UNL     1      -4.263  -0.320   3.217  0.00  0.00    +0.000 NA
ATOM      8  C9  UNL     1      -3.047  -0.090   3.620  0.00  0.00    +0.000 C 
BRANCH   7   9
ATOM      9  N2  UNL     1      -4.644  -0.455   1.870  0.00  0.00    +0.000 N 
ATOM     10  H5  UNL     1      -3.928  -0.623   1.130  0.00  0.00    +0.000 HD
BRANCH   9  20
ATOM     11  O1  UNL     1      -7.162  -0.227   3.643  0.00  0.00    +0.000 OA
ATOM     12  C1  UNL     1      -7.183  -0.361   2.391  0.00  0.00    +0.000 C 
ATOM     13  N1  UNL     1      -8.376  -0.421   1.614  0.00  0.00    +0.000 NA
ATOM     14  C2  UNL     1      -7.936  -0.562   0.401  0.00  0.00    +0.000 A 
ATOM     15  C3  UNL     1      -8.739  -0.667  -0.734  0.00  0.00    +0.000 A 
ATOM     16  C4  UNL     1      -8.115  -0.810  -1.985  0.00  0.00    +0.000 A 
ATOM     17  C5  UNL     1      -6.709  -0.845  -2.083  0.00  0.00    +0.000 A 
ATOM     18  C6  UNL     1      -5.910  -0.740  -0.933  0.00  0.00    +0.000 A 
ATOM     19  C7  UNL     1      -6.549  -0.601   0.303  0.00  0.00    +0.000 A 
ATOM     20  C8  UNL     1      -6.030  -0.481   1.515  0.00  0.00    +0.000 C 
ENDBRANCH   9  20
ENDBRANCH   7   9
ENDBRANCH   1   8
BRANCH   4  21
ATOM     21  O2  UNL     1       1.438   0.965   0.270  0.00  0.00    +0.000 OA
BRANCH  21  22
ATOM     22  C14 UNL     1       1.457   1.823  -0.868  0.00  0.00    +0.000 C 
BRANCH  22  23
ATOM     23  C15 UNL     1       2.814   1.796  -1.488  0.00  0.00    +0.000 A 
ATOM     24  C16 UNL     1       3.516   0.679  -1.884  0.00  0.00    +0.000 A 
ATOM     25  N4  UNL     1       4.663   1.134  -2.414  0.00  0.00    +0.000 N 
ATOM     26  N5  UNL     1       4.670   2.456  -2.337  0.00  0.00    +0.000 NA
ATOM     27  N6  UNL     1       3.546   2.889  -1.783  0.00  0.00    +0.000 NA
BRANCH  25  28
ATOM     28  C17 UNL     1       5.774   0.330  -2.908  0.00  0.00    +0.000 C 
BRANCH  28  29
ATOM     29  C18 UNL     1       6.699  -0.017  -1.773  0.00  0.00    +0.000 A 
ATOM     30  C19 UNL     1       6.506  -1.207  -1.050  0.00  0.00    +0.000 A 
ATOM     31  C20 UNL     1       7.337  -1.518   0.030  0.00  0.00    +0.000 A 
ATOM     32  C21 UNL     1       8.358  -0.641   0.404  0.00  0.00    +0.000 A 
ATOM     33  C22 UNL     1       8.547   0.552  -0.299  0.00  0.00    +0.000 A 
ATOM     34  C23 UNL     1       7.719   0.870  -1.381  0.00  0.00    +0.000 A 
ATOM     35  F1  UNL     1       7.909   2.040  -2.041  0.00  0.00    +0.000 F 
ENDBRANCH  28  29
ENDBRANCH  25  28
ENDBRANCH  22  23
ENDBRANCH  21  22
ENDBRANCH   4  21
TORSDOF 8
