REMARK  Name = resultss/4CJN/ligands/lig_312_t0.pdb
REMARK  14 active torsions:
REMARK  status: ('A' for Active; 'I' for Inactive)
REMARK    1  A    between atoms: C1_1  and  O1_2
REMARK    2  A    between atoms: O1_2  and  C2_3
REMARK    3  A    between atoms: C4_5  and  O2_6
REMARK    4  A    between atoms: C8_11  and  O4_12
REMARK    5  A    between atoms: C9_13  and  O5_14
REMARK    6  A    between atoms: O5_14  and  C10_15
REMARK    7  A    between atoms: C12_18  and  O7_19
REMARK    8  A    between atoms: C13_20  and  O8_21
REMARK    9  A    between atoms: C14_22  and  O9_23
REMARK   10  A    between atoms: O9_23  and  C15_24
REMARK   11  A    between atoms: C16_26  and  C17_27
REMARK   12  A    between atoms: C18_28  and  O11_29
REMARK   13  A    between atoms: C19_30  and  O12_31
REMARK   14  A    between atoms: C20_32  and  O13_33
REMARK                            x       y       z     vdW  Elec       q    Type
REMARK                         _______ _______ _______ _____ _____    ______ ____
ROOT
ATOM      1  C10 UNL     1      -1.501  -1.494   0.997  0.00  0.00    +0.000 C 
ATOM      2  O6  UNL     1      -0.824  -2.336   1.920  0.00  0.00    +0.000 OA
ATOM      3  C11 UNL     1      -0.808  -3.681   1.477  0.00  0.00    +0.000 C 
ATOM      4  C12 UNL     1      -2.229  -4.251   1.252  0.00  0.00    +0.000 C 
ATOM      5  C13 UNL     1      -3.300  -3.203   1.587  0.00  0.00    +0.000 C 
ATOM      6  C14 UNL     1      -2.992  -1.902   0.826  0.00  0.00    +0.000 C 
ENDROOT
BRANCH   4   7
ATOM      7  O7  UNL     1      -2.423  -5.387   2.060  0.00  0.00    +0.000 OA
ATOM      8  H11 UNL     1      -2.799  -6.101   1.483  0.00  0.00    +0.000 HD
ENDBRANCH   4   7
BRANCH   5   9
ATOM      9  O8  UNL     1      -4.563  -3.691   1.212  0.00  0.00    +0.000 OA
ATOM     10  H13 UNL     1      -5.238  -3.165   1.718  0.00  0.00    +0.000 HD
ENDBRANCH   5   9
BRANCH   1  11
ATOM     11  O5  UNL     1      -0.859  -1.496  -0.282  0.00  0.00    +0.000 OA
BRANCH  11  20
ATOM     12  C2  UNL     1       7.307   1.672  -1.070  0.00  0.00    +0.000 A 
ATOM     13  C3  UNL     1       7.111   1.861   0.307  0.00  0.00    +0.000 A 
ATOM     14  C4  UNL     1       5.887   1.535   0.910  0.00  0.00    +0.000 A 
ATOM     15  C5  UNL     1       4.833   1.009   0.127  0.00  0.00    +0.000 A 
ATOM     16  C6  UNL     1       3.576   0.654   0.666  0.00  0.00    +0.000 A 
ATOM     17  O3  UNL     1       3.325   0.907   1.873  0.00  0.00    +0.000 OA
ATOM     18  C7  UNL     1       2.601   0.039  -0.162  0.00  0.00    +0.000 A 
ATOM     19  C8  UNL     1       1.342  -0.454   0.307  0.00  0.00    +0.000 A 
ATOM     20  C9  UNL     1       0.408  -0.984  -0.621  0.00  0.00    +0.000 A 
ATOM     21  C21 UNL     1       0.743  -1.049  -1.974  0.00  0.00    +0.000 A 
ATOM     22  C22 UNL     1       1.982  -0.618  -2.428  0.00  0.00    +0.000 A 
ATOM     23  C23 UNL     1       2.911  -0.085  -1.540  0.00  0.00    +0.000 A 
ATOM     24  O14 UNL     1       4.089   0.300  -2.014  0.00  0.00    +0.000 OA
ATOM     25  C24 UNL     1       5.043   0.814  -1.254  0.00  0.00    +0.000 A 
ATOM     26  C25 UNL     1       6.265   1.156  -1.840  0.00  0.00    +0.000 A 
BRANCH  12  28
ATOM     27  C1  UNL     1       9.684   2.445  -1.040  0.00  0.00    +0.000 C 
ATOM     28  O1  UNL     1       8.518   1.979  -1.709  0.00  0.00    +0.000 OA
ENDBRANCH  12  28
BRANCH  14  29
ATOM     29  O2  UNL     1       5.735   1.723   2.286  0.00  0.00    +0.000 OA
ATOM     30  H5  UNL     1       6.491   2.062   2.865  0.00  0.00    +0.000 HD
ENDBRANCH  14  29
BRANCH  19  31
ATOM     31  O4  UNL     1       1.020  -0.469   1.664  0.00  0.00    +0.000 OA
ATOM     32  H6  UNL     1       1.701  -0.619   2.394  0.00  0.00    +0.000 HD
ENDBRANCH  19  31
ENDBRANCH  11  20
ENDBRANCH   1  11
BRANCH   6  33
ATOM     33  O9  UNL     1      -3.831  -0.867   1.321  0.00  0.00    +0.000 OA
BRANCH  33  34
ATOM     34  C15 UNL     1      -4.573  -0.260   0.279  0.00  0.00    +0.000 C 
ATOM     35  O10 UNL     1      -3.696   0.329  -0.677  0.00  0.00    +0.000 OA
ATOM     36  C16 UNL     1      -3.331   1.644  -0.312  0.00  0.00    +0.000 C 
ATOM     37  C17 UNL     1      -2.143   2.085  -1.165  0.00  0.00    +0.000 C 
ATOM     38  C18 UNL     1      -4.534   2.592  -0.511  0.00  0.00    +0.000 C 
ATOM     39  C19 UNL     1      -5.864   1.912  -0.074  0.00  0.00    +0.000 C 
ATOM     40  C20 UNL     1      -5.601   0.737   0.888  0.00  0.00    +0.000 C 
BRANCH  38  41
ATOM     41  O11 UNL     1      -4.330   3.766   0.233  0.00  0.00    +0.000 OA
ATOM     42  H21 UNL     1      -4.921   4.457  -0.175  0.00  0.00    +0.000 HD
ENDBRANCH  38  41
BRANCH  39  43
ATOM     43  O12 UNL     1      -6.610   1.487  -1.190  0.00  0.00    +0.000 OA
ATOM     44  H23 UNL     1      -6.047   0.867  -1.722  0.00  0.00    +0.000 HD
ENDBRANCH  39  43
BRANCH  40  45
ATOM     45  O13 UNL     1      -6.809   0.084   1.182  0.00  0.00    +0.000 OA
ATOM     46  H25 UNL     1      -6.637  -0.507   1.961  0.00  0.00    +0.000 HD
ENDBRANCH  40  45
ENDBRANCH  33  34
ENDBRANCH   6  33
TORSDOF 12
