REMARK  Name = resultss/4CJN/ligands/lig_158_t0.pdb
REMARK  15 active torsions:
REMARK  status: ('A' for Active; 'I' for Inactive)
REMARK    1  A    between atoms: O1_1  and  C1_2
REMARK    2  A    between atoms: C1_2  and  C2_3
REMARK    3  A    between atoms: C3_4  and  O2_5
REMARK    4  A    between atoms: C4_6  and  O3_7
REMARK    5  A    between atoms: C5_8  and  O4_9
REMARK    6  A    between atoms: N1_11  and  C7_12
REMARK    7  A    between atoms: C7_12  and  C8_13
REMARK    8  A    between atoms: C8_13  and  C9_14
REMARK    9  A    between atoms: C9_14  and  C10_15
REMARK   10  A    between atoms: C10_15  and  C11_16
REMARK   11  A    between atoms: C11_16  and  O5_17
REMARK   12  A    between atoms: O5_17  and  C12_18
REMARK   13  A    between atoms: C12_18  and  C13_19
REMARK   14  A    between atoms: C16_22  and  C17_23
REMARK   15  A    between atoms: C23_29  and  C24_30
REMARK                            x       y       z     vdW  Elec       q    Type
REMARK                         _______ _______ _______ _____ _____    ______ ____
ROOT
ATOM      1  C10 UNL     1      -0.465   0.728   1.376  0.00  0.00    +0.000 C 
ENDROOT
BRANCH   1   2
ATOM      2  C9  UNL     1      -1.756  -0.105   1.328  0.00  0.00    +0.000 C 
BRANCH   2   3
ATOM      3  C8  UNL     1      -2.161  -0.500  -0.102  0.00  0.00    +0.000 C 
BRANCH   3   4
ATOM      4  C7  UNL     1      -3.580  -1.078  -0.156  0.00  0.00    +0.000 C 
BRANCH   4  10
ATOM      5  C2  UNL     1      -5.479  -0.351   1.302  0.00  0.00    +0.000 C 
ATOM      6  C3  UNL     1      -6.743  -1.173   0.875  0.00  0.00    +0.000 C 
ATOM      7  C4  UNL     1      -6.906  -1.309  -0.653  0.00  0.00    +0.000 C 
ATOM      8  C5  UNL     1      -6.593   0.014  -1.378  0.00  0.00    +0.000 C 
ATOM      9  C6  UNL     1      -5.206   0.597  -1.011  0.00  0.00    +0.000 C 
ATOM     10  N1  UNL     1      -4.569  -0.024   0.175  0.00  0.00    +0.000 NA
BRANCH   6  11
ATOM     11  O2  UNL     1      -7.912  -0.620   1.431  0.00  0.00    +0.000 OA
ATOM     12  H6  UNL     1      -8.606  -1.332   1.427  0.00  0.00    +0.000 HD
ENDBRANCH   6  11
BRANCH   7  13
ATOM     13  O3  UNL     1      -6.085  -2.345  -1.130  0.00  0.00    +0.000 OA
ATOM     14  H8  UNL     1      -6.405  -2.571  -2.043  0.00  0.00    +0.000 HD
ENDBRANCH   7  13
BRANCH   8  15
ATOM     15  O4  UNL     1      -7.589   0.963  -1.088  0.00  0.00    +0.000 OA
ATOM     16  H10 UNL     1      -8.386   0.724  -1.632  0.00  0.00    +0.000 HD
ENDBRANCH   8  15
BRANCH   5  17
ATOM     17  C1  UNL     1      -5.781   0.920   2.126  0.00  0.00    +0.000 C 
BRANCH  17  18
ATOM     18  O1  UNL     1      -6.554   1.834   1.399  0.00  0.00    +0.000 OA
ATOM     19  H1  UNL     1      -6.689   2.618   1.995  0.00  0.00    +0.000 HD
ENDBRANCH  17  18
ENDBRANCH   5  17
ENDBRANCH   4  10
ENDBRANCH   3   4
ENDBRANCH   2   3
ENDBRANCH   1   2
BRANCH   1  20
ATOM     20  C11 UNL     1       0.804  -0.078   1.058  0.00  0.00    +0.000 C 
BRANCH  20  21
ATOM     21  O5  UNL     1       0.891  -0.384  -0.322  0.00  0.00    +0.000 OA
BRANCH  21  22
ATOM     22  C12 UNL     1       1.615   0.608  -1.026  0.00  0.00    +0.000 C 
BRANCH  22  23
ATOM     23  C13 UNL     1       3.098   0.358  -0.929  0.00  0.00    +0.000 A 
ATOM     24  C14 UNL     1       3.637  -0.843  -1.404  0.00  0.00    +0.000 A 
ATOM     25  C15 UNL     1       5.007  -1.087  -1.300  0.00  0.00    +0.000 A 
ATOM     26  C16 UNL     1       5.864  -0.134  -0.727  0.00  0.00    +0.000 A 
ATOM     27  C23 UNL     1       5.339   1.110  -0.285  0.00  0.00    +0.000 A 
ATOM     28  C25 UNL     1       3.948   1.324  -0.368  0.00  0.00    +0.000 A 
BRANCH  26  29
ATOM     29  C17 UNL     1       7.297  -0.477  -0.601  0.00  0.00    +0.000 A 
ATOM     30  C18 UNL     1       8.090  -0.618  -1.752  0.00  0.00    +0.000 A 
ATOM     31  C19 UNL     1       9.441  -0.959  -1.636  0.00  0.00    +0.000 A 
ATOM     32  C20 UNL     1      10.005  -1.171  -0.374  0.00  0.00    +0.000 A 
ATOM     33  C21 UNL     1       9.218  -1.046   0.775  0.00  0.00    +0.000 A 
ATOM     34  C22 UNL     1       7.866  -0.706   0.663  0.00  0.00    +0.000 A 
ENDBRANCH  26  29
BRANCH  27  35
ATOM     35  C24 UNL     1       6.225   2.191   0.306  0.00  0.00    +0.000 C 
ATOM     36  F1  UNL     1       7.398   2.312  -0.419  0.00  0.00    +0.000 F 
ATOM     37  F2  UNL     1       6.531   1.876   1.617  0.00  0.00    +0.000 F 
ATOM     38  F3  UNL     1       5.595   3.424   0.289  0.00  0.00    +0.000 F 
ENDBRANCH  27  35
ENDBRANCH  22  23
ENDBRANCH  21  22
ENDBRANCH  20  21
ENDBRANCH   1  20
TORSDOF 15
