REMARK  Name = resultss/4CJN/ligands/lig_241_t0.pdb
REMARK  7 active torsions:
REMARK  status: ('A' for Active; 'I' for Inactive)
REMARK    1  A    between atoms: C1_1  and  O1_2
REMARK    2  A    between atoms: O1_2  and  C2_3
REMARK    3  A    between atoms: C5_6  and  C6_7
REMARK    4  A    between atoms: N1_12  and  C9_13
REMARK    5  A    between atoms: C13_18  and  C14_19
REMARK    6  A    between atoms: C14_19  and  C15_20
REMARK    7  A    between atoms: C18_23  and  O3_24
REMARK                            x       y       z     vdW  Elec       q    Type
REMARK                         _______ _______ _______ _____ _____    ______ ____
ROOT
ATOM      1  C9  UNL     1       0.725  -1.065  -1.668  0.00  0.00    +0.000 A 
ATOM      2  C10 UNL     1       0.616  -1.936  -0.570  0.00  0.00    +0.000 A 
ATOM      3  C11 UNL     1      -0.190  -1.604   0.522  0.00  0.00    +0.000 A 
ATOM      4  C12 UNL     1      -0.885  -0.392   0.535  0.00  0.00    +0.000 A 
ATOM      5  N2  UNL     1      -1.666  -0.058   1.595  0.00  0.00    +0.000 NA
ATOM      6  C13 UNL     1      -2.341   1.123   1.637  0.00  0.00    +0.000 A 
ATOM      7  C21 UNL     1      -2.239   2.008   0.547  0.00  0.00    +0.000 A 
ATOM      8  O4  UNL     1      -2.862   3.105   0.549  0.00  0.00    +0.000 OA
ATOM      9  N3  UNL     1      -1.457   1.677  -0.518  0.00  0.00    +0.000 N 
ATOM     10  C22 UNL     1      -0.777   0.496  -0.553  0.00  0.00    +0.000 A 
ATOM     11  C23 UNL     1       0.029   0.156  -1.649  0.00  0.00    +0.000 A 
ATOM     12  H18 UNL     1      -1.385   2.344  -1.322  0.00  0.00    +0.000 HD
ENDROOT
BRANCH   1  18
ATOM     13  C6  UNL     1       2.944  -1.906  -2.594  0.00  0.00    +0.000 C 
ATOM     14  S1  UNL     1       3.748  -2.037  -4.236  0.00  0.00    +0.000 S 
ATOM     15  C7  UNL     1       2.258  -1.511  -5.143  0.00  0.00    +0.000 C 
ATOM     16  C8  UNL     1       1.216  -1.222  -4.136  0.00  0.00    +0.000 C 
ATOM     17  O2  UNL     1       0.053  -0.877  -4.474  0.00  0.00    +0.000 OA
ATOM     18  N1  UNL     1       1.590  -1.390  -2.774  0.00  0.00    +0.000 N 
BRANCH  13  22
ATOM     19  C2  UNL     1       5.225   0.716  -0.011  0.00  0.00    +0.000 A 
ATOM     20  C3  UNL     1       4.571   1.226  -1.139  0.00  0.00    +0.000 A 
ATOM     21  C4  UNL     1       3.845   0.380  -1.981  0.00  0.00    +0.000 A 
ATOM     22  C5  UNL     1       3.753  -0.994  -1.701  0.00  0.00    +0.000 A 
ATOM     23  C24 UNL     1       4.411  -1.508  -0.573  0.00  0.00    +0.000 A 
ATOM     24  C25 UNL     1       5.142  -0.662   0.266  0.00  0.00    +0.000 A 
BRANCH  19  26
ATOM     25  C1  UNL     1       6.695   1.220   1.946  0.00  0.00    +0.000 C 
ATOM     26  O1  UNL     1       5.941   1.606   0.801  0.00  0.00    +0.000 OA
ENDBRANCH  19  26
ENDBRANCH  13  22
ENDBRANCH   1  18
BRANCH   6  27
ATOM     27  C14 UNL     1      -3.219   1.420   2.821  0.00  0.00    +0.000 C 
BRANCH  27  28
ATOM     28  C15 UNL     1      -4.627   0.965   2.553  0.00  0.00    +0.000 A 
ATOM     29  C16 UNL     1      -5.586   1.868   2.065  0.00  0.00    +0.000 A 
ATOM     30  C17 UNL     1      -6.885   1.432   1.782  0.00  0.00    +0.000 A 
ATOM     31  C18 UNL     1      -7.236   0.092   1.975  0.00  0.00    +0.000 A 
ATOM     32  C19 UNL     1      -6.281  -0.815   2.454  0.00  0.00    +0.000 A 
ATOM     33  C20 UNL     1      -4.982  -0.382   2.737  0.00  0.00    +0.000 A 
BRANCH  31  34
ATOM     34  O3  UNL     1      -8.533  -0.327   1.688  0.00  0.00    +0.000 OA
ATOM     35  H15 UNL     1      -8.821  -1.289   1.825  0.00  0.00    +0.000 HD
ENDBRANCH  31  34
ENDBRANCH  27  28
ENDBRANCH   6  27
TORSDOF 6
