REMARK  Name = resultss/4CJN/ligands/lig_88_t1.pdb
REMARK  10 active torsions:
REMARK  status: ('A' for Active; 'I' for Inactive)
REMARK    1  A    between atoms: C6_6  and  C7_7
REMARK    2  A    between atoms: C6_6  and  C8_8
REMARK    3  A    between atoms: C8_8  and  O1_9
REMARK    4  A    between atoms: C9_10  and  O2_11
REMARK    5  A    between atoms: C12_14  and  C13_15
REMARK    6  A    between atoms: C14_16  and  C15_17
REMARK    7  A    between atoms: C16_18  and  C17_19
REMARK    8  A    between atoms: C20_22  and  C21_23
REMARK    9  A    between atoms: C21_23  and  C22_24
REMARK   10  A    between atoms: C22_24  and  C23_25
REMARK                            x       y       z     vdW  Elec       q    Type
REMARK                         _______ _______ _______ _____ _____    ______ ____
ROOT
ATOM      1  C1  UNL     1      -0.150  -3.202  -1.494  0.00  0.00    +0.000 C 
ATOM      2  C2  UNL     1      -1.026  -2.183  -1.371  0.00  0.00    +0.000 C 
ATOM      3  C3  UNL     1      -2.279  -2.260  -2.223  0.00  0.00    +0.000 C 
ATOM      4  C4  UNL     1      -3.265  -1.096  -2.078  0.00  0.00    +0.000 C 
ATOM      5  C5  UNL     1      -3.268  -0.464  -0.667  0.00  0.00    +0.000 C 
ATOM      6  C6  UNL     1      -4.496   0.531  -0.420  0.00  0.00    +0.000 C 
ATOM      7  C7  UNL     1      -5.716  -0.326   0.034  0.00  0.00    +0.000 C 
ATOM      8  C9  UNL     1      -4.180   1.564   0.723  0.00  0.00    +0.000 C 
ATOM      9  C10 UNL     1      -3.215   0.972   1.747  0.00  0.00    +0.000 C 
ATOM     10  C11 UNL     1      -1.829   0.751   1.133  0.00  0.00    +0.000 C 
ATOM     11  C12 UNL     1      -1.830   0.064  -0.288  0.00  0.00    +0.000 C 
ATOM     12  C13 UNL     1      -1.313   1.094  -1.341  0.00  0.00    +0.000 C 
ATOM     13  C14 UNL     1      -0.849  -1.173  -0.235  0.00  0.00    +0.000 C 
ENDROOT
BRANCH   8  14
ATOM     14  O2  UNL     1      -3.620   2.750   0.209  0.00  0.00    +0.000 OA
ATOM     15  H15 UNL     1      -4.308   3.465   0.272  0.00  0.00    +0.000 HD
ENDBRANCH   8  14
BRANCH  13  16
ATOM     16  C15 UNL     1       0.603  -0.730  -0.148  0.00  0.00    +0.000 C 
ATOM     17  C16 UNL     1       1.288  -0.740   1.006  0.00  0.00    +0.000 C 
BRANCH  17  18
ATOM     18  C17 UNL     1       2.687  -0.278   1.122  0.00  0.00    +0.000 C 
ATOM     19  C18 UNL     1       3.490   0.150   0.145  0.00  0.00    +0.000 C 
ATOM     20  C19 UNL     1       4.770   0.516   0.759  0.00  0.00    +0.000 C 
ATOM     21  C20 UNL     1       5.835   0.986   0.106  0.00  0.00    +0.000 C 
ATOM     22  O3  UNL     1       4.714   0.301   2.132  0.00  0.00    +0.000 OA
ATOM     23  C24 UNL     1       3.438  -0.181   2.369  0.00  0.00    +0.000 C 
ATOM     24  O4  UNL     1       2.995  -0.459   3.514  0.00  0.00    +0.000 OA
BRANCH  21  25
ATOM     25  C21 UNL     1       7.112   1.349   0.811  0.00  0.00    +0.000 C 
BRANCH  25  26
ATOM     26  C22 UNL     1       7.889   0.112   1.284  0.00  0.00    +0.000 C 
ATOM     27  C23 UNL     1       8.463  -0.690   0.117  0.00  0.00    +0.000 C 
ENDBRANCH  25  26
ENDBRANCH  21  25
ENDBRANCH  17  18
ENDBRANCH  13  16
BRANCH   6  28
ATOM     28  C8  UNL     1      -4.955   1.285  -1.713  0.00  0.00    +0.000 C 
BRANCH  28  29
ATOM     29  O1  UNL     1      -5.950   2.231  -1.409  0.00  0.00    +0.000 OA
ATOM     30  H13 UNL     1      -6.707   2.091  -2.037  0.00  0.00    +0.000 HD
ENDBRANCH  28  29
ENDBRANCH   6  28
TORSDOF 7
