REMARK  Name = resultss/4CJN/ligands/lig_383_t0.pdb
REMARK  5 active torsions:
REMARK  status: ('A' for Active; 'I' for Inactive)
REMARK    1  A    between atoms: C1_1  and  N1_2
REMARK    2  A    between atoms: C4_6  and  C5_7
REMARK    3  A    between atoms: N2_16  and  C12_17
REMARK    4  A    between atoms: C15_20  and  S2_21
REMARK    5  A    between atoms: S2_21  and  N3_22
REMARK                            x       y       z     vdW  Elec       q    Type
REMARK                         _______ _______ _______ _____ _____    ______ ____
ROOT
ATOM      1  C1  UNL     1       0.058   2.039   0.904  0.00  0.00    +0.000 C 
ATOM      2  N1  UNL     1      -0.461   1.227  -0.197  0.00  0.00    +0.000 N 
ATOM      3  C2  UNL     1      -1.828   0.841  -0.249  0.00  0.00    +0.000 C 
ATOM      4  O1  UNL     1      -2.548   0.775   0.784  0.00  0.00    +0.000 OA
ATOM      5  C3  UNL     1      -2.325   0.633  -1.612  0.00  0.00    +0.000 C 
ATOM      6  C4  UNL     1      -3.463   0.025  -1.977  0.00  0.00    +0.000 C 
ATOM      7  S1  UNL     1      -1.186   1.299  -2.826  0.00  0.00    +0.000 S 
ATOM      8  C11 UNL     1       0.057   1.269  -1.532  0.00  0.00    +0.000 C 
ATOM      9  N2  UNL     1       1.304   1.042  -1.832  0.00  0.00    +0.000 NA
ENDROOT
BRANCH   6  10
ATOM     10  C5  UNL     1      -4.389  -0.659  -1.052  0.00  0.00    +0.000 A 
ATOM     11  C6  UNL     1      -5.767  -0.420  -1.158  0.00  0.00    +0.000 A 
ATOM     12  C7  UNL     1      -6.666  -1.092  -0.323  0.00  0.00    +0.000 A 
ATOM     13  C8  UNL     1      -6.196  -2.023   0.608  0.00  0.00    +0.000 A 
ATOM     14  F1  UNL     1      -7.069  -2.676   1.414  0.00  0.00    +0.000 F 
ATOM     15  C9  UNL     1      -4.827  -2.289   0.699  0.00  0.00    +0.000 A 
ATOM     16  C10 UNL     1      -3.926  -1.619  -0.135  0.00  0.00    +0.000 A 
ENDBRANCH   6  10
BRANCH   9  17
ATOM     17  C12 UNL     1       2.362   0.692  -0.927  0.00  0.00    +0.000 A 
ATOM     18  C13 UNL     1       2.177  -0.271   0.081  0.00  0.00    +0.000 A 
ATOM     19  C14 UNL     1       3.236  -0.622   0.922  0.00  0.00    +0.000 A 
ATOM     20  C15 UNL     1       4.495  -0.031   0.754  0.00  0.00    +0.000 A 
ATOM     21  C16 UNL     1       4.692   0.897  -0.278  0.00  0.00    +0.000 A 
ATOM     22  C17 UNL     1       3.632   1.248  -1.119  0.00  0.00    +0.000 A 
BRANCH  20  23
ATOM     23  S2  UNL     1       5.836  -0.482   1.802  0.00  0.00    +0.000 S 
ATOM     24  O2  UNL     1       5.311  -0.922   3.140  0.00  0.00    +0.000 OA
ATOM     25  O3  UNL     1       6.741   0.701   2.005  0.00  0.00    +0.000 OA
BRANCH  23  26
ATOM     26  N3  UNL     1       6.722  -1.776   1.077  0.00  0.00    +0.000 NA
ATOM     27  H11 UNL     1       7.544  -1.967   1.693  0.00  0.00    +0.000 HD
ATOM     28  H12 UNL     1       7.101  -1.417   0.172  0.00  0.00    +0.000 HD
ENDBRANCH  23  26
ENDBRANCH  20  23
ENDBRANCH   9  17
TORSDOF 4
