REMARK  Name = resultss/4CJN/ligands/lig_185_t0.pdb
REMARK  6 active torsions:
REMARK  status: ('A' for Active; 'I' for Inactive)
REMARK    1  A    between atoms: C1_2  and  C9_14
REMARK    2  A    between atoms: N1_3  and  N2_4
REMARK    3  A    between atoms: C2_5  and  C3_6
REMARK    4  A    between atoms: C5_8  and  O2_9
REMARK    5  A    between atoms: C8_12  and  O3_13
REMARK    6  A    between atoms: C12_17  and  C13_18
REMARK                            x       y       z     vdW  Elec       q    Type
REMARK                         _______ _______ _______ _____ _____    ______ ____
ROOT
ATOM      1  O1  UNL     1       1.554  -1.703   1.391  0.00  0.00    +0.000 OA
ATOM      2  C1  UNL     1       1.171  -0.723   0.696  0.00  0.00    +0.000 C 
ATOM      3  N1  UNL     1       2.150   0.167   0.144  0.00  0.00    +0.000 N 
ATOM      4  H1  UNL     1       1.854   1.071  -0.289  0.00  0.00    +0.000 HD
ENDROOT
BRANCH   2   5
ATOM      5  C9  UNL     1      -0.280  -0.503   0.481  0.00  0.00    +0.000 A 
ATOM      6  C10 UNL     1      -1.212  -1.036   1.387  0.00  0.00    +0.000 A 
ATOM      7  C11 UNL     1      -2.583  -0.841   1.195  0.00  0.00    +0.000 A 
ATOM      8  C12 UNL     1      -3.054  -0.115   0.088  0.00  0.00    +0.000 A 
ATOM      9  C20 UNL     1      -2.122   0.407  -0.826  0.00  0.00    +0.000 A 
ATOM     10  C21 UNL     1      -0.751   0.213  -0.634  0.00  0.00    +0.000 A 
BRANCH   8  11
ATOM     11  C13 UNL     1      -4.509   0.086  -0.106  0.00  0.00    +0.000 A 
ATOM     12  N3  UNL     1      -5.446  -0.403   0.747  0.00  0.00    +0.000 NA
ATOM     13  C14 UNL     1      -6.701  -0.080   0.344  0.00  0.00    +0.000 A 
ATOM     14  C15 UNL     1      -7.866  -0.446   1.021  0.00  0.00    +0.000 A 
ATOM     15  C16 UNL     1      -9.107  -0.045   0.494  0.00  0.00    +0.000 A 
ATOM     16  C17 UNL     1      -9.168   0.710  -0.694  0.00  0.00    +0.000 A 
ATOM     17  C18 UNL     1      -7.989   1.072  -1.366  0.00  0.00    +0.000 A 
ATOM     18  C19 UNL     1      -6.774   0.662  -0.823  0.00  0.00    +0.000 A 
ATOM     19  S1  UNL     1      -5.222   0.938  -1.392  0.00  0.00    +0.000 S 
ENDBRANCH   8  11
ENDBRANCH   2   5
BRANCH   3  20
ATOM     20  N2  UNL     1       3.516  -0.141   0.252  0.00  0.00    +0.000 NA
ATOM     21  C2  UNL     1       4.434   0.651  -0.205  0.00  0.00    +0.000 C 
BRANCH  21  22
ATOM     22  C3  UNL     1       5.864   0.283  -0.146  0.00  0.00    +0.000 A 
ATOM     23  C4  UNL     1       6.691   0.709  -1.199  0.00  0.00    +0.000 A 
ATOM     24  C5  UNL     1       8.037   0.335  -1.250  0.00  0.00    +0.000 A 
ATOM     25  C6  UNL     1       8.573  -0.469  -0.240  0.00  0.00    +0.000 A 
ATOM     26  C7  UNL     1       7.772  -0.878   0.827  0.00  0.00    +0.000 A 
ATOM     27  C8  UNL     1       6.428  -0.492   0.901  0.00  0.00    +0.000 A 
BRANCH  24  28
ATOM     28  O2  UNL     1       8.829   0.762  -2.313  0.00  0.00    +0.000 OA
ATOM     29  H4  UNL     1       9.808   0.507  -2.381  0.00  0.00    +0.000 HD
ENDBRANCH  24  28
BRANCH  27  30
ATOM     30  O3  UNL     1       5.709  -0.865   2.039  0.00  0.00    +0.000 OA
ATOM     31  H7  UNL     1       4.804  -0.485   2.277  0.00  0.00    +0.000 HD
ENDBRANCH  27  30
ENDBRANCH  21  22
ENDBRANCH   3  20
TORSDOF 6
