REMARK  Name = resultss/4CJN/ligands/lig_262_t0.pdb
REMARK  8 active torsions:
REMARK  status: ('A' for Active; 'I' for Inactive)
REMARK    1  A    between atoms: C1_1  and  C2_2
REMARK    2  A    between atoms: C2_2  and  C3_3
REMARK    3  A    between atoms: C2_2  and  O1_4
REMARK    4  A    between atoms: C2_2  and  C4_5
REMARK    5  A    between atoms: C14_16  and  C15_17
REMARK    6  A    between atoms: C18_20  and  O3_21
REMARK    7  A    between atoms: C19_22  and  O4_23
REMARK    8  A    between atoms: C21_25  and  O5_26
REMARK                            x       y       z     vdW  Elec       q    Type
REMARK                         _______ _______ _______ _____ _____    ______ ____
ROOT
ATOM      1  C4  UNL     1      -4.064   0.937  -0.148  0.00  0.00    +0.000 C 
ATOM      2  C5  UNL     1      -3.686   0.970   1.316  0.00  0.00    +0.000 C 
ATOM      3  C6  UNL     1      -2.395   0.758   1.475  0.00  0.00    +0.000 A 
ATOM      4  C7  UNL     1      -1.682   0.719   2.694  0.00  0.00    +0.000 A 
ATOM      5  C8  UNL     1      -0.291   0.474   2.665  0.00  0.00    +0.000 A 
ATOM      6  C9  UNL     1       0.318   0.292   1.414  0.00  0.00    +0.000 A 
ATOM      7  C10 UNL     1      -0.396   0.327   0.243  0.00  0.00    +0.000 A 
ATOM      8  C11 UNL     1      -1.766   0.566   0.263  0.00  0.00    +0.000 A 
ATOM      9  C12 UNL     1      -2.716   0.651  -0.872  0.00  0.00    +0.000 C 
ATOM     10  O2  UNL     1       0.380   0.105  -0.791  0.00  0.00    +0.000 OA
ATOM     11  C13 UNL     1       1.614  -0.069  -0.343  0.00  0.00    +0.000 A 
ATOM     12  C14 UNL     1       2.641  -0.280  -1.181  0.00  0.00    +0.000 C 
ATOM     13  C21 UNL     1       1.615   0.012   1.061  0.00  0.00    +0.000 A 
ENDROOT
BRANCH  12  14
ATOM     14  C15 UNL     1       4.066  -0.240  -0.809  0.00  0.00    +0.000 A 
ATOM     15  C16 UNL     1       4.606   0.879  -0.153  0.00  0.00    +0.000 A 
ATOM     16  C17 UNL     1       5.970   0.928   0.145  0.00  0.00    +0.000 A 
ATOM     17  C18 UNL     1       6.813  -0.127  -0.229  0.00  0.00    +0.000 A 
ATOM     18  C19 UNL     1       6.283  -1.234  -0.914  0.00  0.00    +0.000 A 
ATOM     19  C20 UNL     1       4.915  -1.280  -1.210  0.00  0.00    +0.000 A 
BRANCH  17  20
ATOM     20  O3  UNL     1       8.173  -0.077   0.072  0.00  0.00    +0.000 OA
ATOM     21  H17 UNL     1       8.579   0.711   0.563  0.00  0.00    +0.000 HD
ENDBRANCH  17  20
BRANCH  18  22
ATOM     22  O4  UNL     1       7.097  -2.295  -1.310  0.00  0.00    +0.000 OA
ATOM     23  H18 UNL     1       8.092  -2.309  -1.120  0.00  0.00    +0.000 HD
ENDBRANCH  18  22
ENDBRANCH  12  14
BRANCH   1  25
ATOM     24  C1  UNL     1      -4.885  -1.516   0.023  0.00  0.00    +0.000 C 
ATOM     25  C2  UNL     1      -5.210  -0.081  -0.467  0.00  0.00    +0.000 C 
ATOM     26  C3  UNL     1      -6.513   0.377   0.214  0.00  0.00    +0.000 C 
BRANCH  25  27
ATOM     27  O1  UNL     1      -5.461  -0.084  -1.854  0.00  0.00    +0.000 OA
ATOM     28  H7  UNL     1      -4.754  -0.609  -2.309  0.00  0.00    +0.000 HD
ENDBRANCH  25  27
ENDBRANCH   1  25
BRANCH  13  29
ATOM     29  O5  UNL     1       2.650  -0.228   1.964  0.00  0.00    +0.000 OA
ATOM     30  H20 UNL     1       3.522  -0.660   1.694  0.00  0.00    +0.000 HD
ENDBRANCH  13  29
TORSDOF 6
