REMARK  Name = resultss/4CJN/ligands/lig_186_t2.pdb
REMARK  4 active torsions:
REMARK  status: ('A' for Active; 'I' for Inactive)
REMARK    1  A    between atoms: C1_2  and  C9_14
REMARK    2  A    between atoms: N1_3  and  N2_4
REMARK    3  A    between atoms: C2_5  and  C3_6
REMARK    4  A    between atoms: C12_17  and  C13_18
REMARK                            x       y       z     vdW  Elec       q    Type
REMARK                         _______ _______ _______ _____ _____    ______ ____
ROOT
ATOM      1  C9  UNL     1       0.282  -0.250  -0.508  0.00  0.00    +0.000 A 
ATOM      2  C10 UNL     1       1.167  -1.167  -1.100  0.00  0.00    +0.000 A 
ATOM      3  C11 UNL     1       2.544  -1.066  -0.888  0.00  0.00    +0.000 A 
ATOM      4  C12 UNL     1       3.071  -0.041  -0.084  0.00  0.00    +0.000 A 
ATOM      5  C20 UNL     1       2.187   0.885   0.498  0.00  0.00    +0.000 A 
ATOM      6  C21 UNL     1       0.809   0.783   0.287  0.00  0.00    +0.000 A 
ENDROOT
BRANCH   4   7
ATOM      7  C13 UNL     1       4.533   0.057   0.135  0.00  0.00    +0.000 A 
ATOM      8  N3  UNL     1       5.425  -0.810  -0.410  0.00  0.00    +0.000 NA
ATOM      9  C14 UNL     1       6.698  -0.501  -0.055  0.00  0.00    +0.000 A 
ATOM     10  C15 UNL     1       7.826  -1.214  -0.463  0.00  0.00    +0.000 A 
ATOM     11  C16 UNL     1       9.091  -0.788  -0.022  0.00  0.00    +0.000 A 
ATOM     12  C17 UNL     1       9.212   0.339   0.816  0.00  0.00    +0.000 A 
ATOM     13  C18 UNL     1       8.070   1.049   1.220  0.00  0.00    +0.000 A 
ATOM     14  C19 UNL     1       6.830   0.605   0.769  0.00  0.00    +0.000 A 
ATOM     15  S1  UNL     1       5.310   1.238   1.079  0.00  0.00    +0.000 S 
ENDBRANCH   4   7
BRANCH   1  17
ATOM     16  O1  UNL     1      -1.590  -0.969  -1.776  0.00  0.00    +0.000 OA
ATOM     17  C1  UNL     1      -1.177  -0.368  -0.747  0.00  0.00    +0.000 C 
ATOM     18  N1  UNL     1      -2.130   0.173   0.176  0.00  0.00    +0.000 N 
ATOM     19  H1  UNL     1      -1.817   0.525   1.108  0.00  0.00    +0.000 HD
BRANCH  18  20
ATOM     20  N2  UNL     1      -3.497   0.164  -0.143  0.00  0.00    +0.000 NA
ATOM     21  C2  UNL     1      -4.394   0.620   0.674  0.00  0.00    +0.000 C 
BRANCH  21  22
ATOM     22  C3  UNL     1      -5.827   0.595   0.313  0.00  0.00    +0.000 C 
ATOM     23  C4  UNL     1      -6.731   1.007   1.218  0.00  0.00    +0.000 C 
ATOM     24  C5  UNL     1      -8.180   0.989   0.946  0.00  0.00    +0.000 C 
ATOM     25  O2  UNL     1      -8.977   1.389   1.835  0.00  0.00    +0.000 OA
ATOM     26  C6  UNL     1      -8.727   0.464  -0.347  0.00  0.00    +0.000 C 
ATOM     27  C7  UNL     1      -7.659   0.406  -1.399  0.00  0.00    +0.000 C 
ATOM     28  O3  UNL     1      -7.957   0.565  -2.574  0.00  0.00    +0.000 OA
ATOM     29  C8  UNL     1      -6.248   0.034  -1.030  0.00  0.00    +0.000 C 
ENDBRANCH  21  22
ENDBRANCH  18  20
ENDBRANCH   1  17
TORSDOF 4
