REMARK  Name = resultss/4CJN/ligands/lig_380_t0.pdb
REMARK  5 active torsions:
REMARK  status: ('A' for Active; 'I' for Inactive)
REMARK    1  A    between atoms: C1_1  and  N1_2
REMARK    2  A    between atoms: C4_6  and  C5_7
REMARK    3  A    between atoms: N2_15  and  C12_16
REMARK    4  A    between atoms: C15_19  and  S2_20
REMARK    5  A    between atoms: S2_20  and  N3_21
REMARK                            x       y       z     vdW  Elec       q    Type
REMARK                         _______ _______ _______ _____ _____    ______ ____
ROOT
ATOM      1  C1  UNL     1      -0.041   1.420   1.775  0.00  0.00    +0.000 C 
ATOM      2  N1  UNL     1       0.474   1.149   0.433  0.00  0.00    +0.000 N 
ATOM      3  C2  UNL     1       1.831   0.777   0.226  0.00  0.00    +0.000 C 
ATOM      4  O1  UNL     1       2.524   0.234   1.127  0.00  0.00    +0.000 OA
ATOM      5  C3  UNL     1       2.354   1.179  -1.083  0.00  0.00    +0.000 C 
ATOM      6  C4  UNL     1       3.483   0.755  -1.671  0.00  0.00    +0.000 C 
ATOM      7  S1  UNL     1       1.263   2.356  -1.884  0.00  0.00    +0.000 S 
ATOM      8  C11 UNL     1      -0.010   1.798  -0.749  0.00  0.00    +0.000 C 
ATOM      9  N2  UNL     1      -1.255   1.773  -1.130  0.00  0.00    +0.000 NA
ENDROOT
BRANCH   6  10
ATOM     10  C5  UNL     1       4.365  -0.302  -1.138  0.00  0.00    +0.000 A 
ATOM     11  C6  UNL     1       5.752  -0.091  -1.112  0.00  0.00    +0.000 A 
ATOM     12  C7  UNL     1       6.610  -1.097  -0.654  0.00  0.00    +0.000 A 
ATOM     13  C8  UNL     1       6.090  -2.326  -0.240  0.00  0.00    +0.000 A 
ATOM     14  C9  UNL     1       4.713  -2.555  -0.292  0.00  0.00    +0.000 A 
ATOM     15  C10 UNL     1       3.852  -1.552  -0.749  0.00  0.00    +0.000 A 
ENDBRANCH   6  10
BRANCH   9  16
ATOM     16  C12 UNL     1      -2.343   1.097  -0.484  0.00  0.00    +0.000 A 
ATOM     17  C13 UNL     1      -2.211  -0.221  -0.009  0.00  0.00    +0.000 A 
ATOM     18  C14 UNL     1      -3.299  -0.870   0.581  0.00  0.00    +0.000 A 
ATOM     19  C15 UNL     1      -4.535  -0.218   0.687  0.00  0.00    +0.000 A 
ATOM     20  C16 UNL     1      -4.679   1.079   0.177  0.00  0.00    +0.000 A 
ATOM     21  C17 UNL     1      -3.591   1.728  -0.414  0.00  0.00    +0.000 A 
BRANCH  19  22
ATOM     22  S2  UNL     1      -5.915  -1.033   1.417  0.00  0.00    +0.000 S 
ATOM     23  O2  UNL     1      -5.443  -2.146   2.309  0.00  0.00    +0.000 OA
ATOM     24  O3  UNL     1      -6.699  -0.052   2.243  0.00  0.00    +0.000 OA
BRANCH  22  25
ATOM     25  N3  UNL     1      -6.928  -1.684   0.176  0.00  0.00    +0.000 NA
ATOM     26  H12 UNL     1      -7.202  -0.888  -0.443  0.00  0.00    +0.000 HD
ATOM     27  H13 UNL     1      -6.333  -2.321  -0.399  0.00  0.00    +0.000 HD
ENDBRANCH  22  25
ENDBRANCH  19  22
ENDBRANCH   9  16
TORSDOF 4
