REMARK  Name = resultss/4CJN/ligands/lig_413_t2.pdb
REMARK  5 active torsions:
REMARK  status: ('A' for Active; 'I' for Inactive)
REMARK    1  A    between atoms: C1_2  and  C9_15
REMARK    2  A    between atoms: N1_3  and  N2_4
REMARK    3  A    between atoms: C2_5  and  S1_6
REMARK    4  A    between atoms: N3_7  and  C3_8
REMARK    5  A    between atoms: C19_26  and  C20_27
REMARK                            x       y       z     vdW  Elec       q    Type
REMARK                         _______ _______ _______ _____ _____    ______ ____
ROOT
ATOM      1  C9  UNL     1      -0.144   0.124   1.028  0.00  0.00    +0.000 A 
ATOM      2  C10 UNL     1      -0.530   1.462   0.800  0.00  0.00    +0.000 A 
ATOM      3  C11 UNL     1      -1.807   1.679   0.297  0.00  0.00    +0.000 A 
ATOM      4  C12 UNL     1      -2.670   0.642   0.018  0.00  0.00    +0.000 A 
ATOM      5  N4  UNL     1      -3.874   1.102  -0.401  0.00  0.00    +0.000 N 
ATOM      6  C13 UNL     1      -3.748   2.447  -0.399  0.00  0.00    +0.000 A 
ATOM      7  C14 UNL     1      -4.723   3.383  -0.742  0.00  0.00    +0.000 A 
ATOM      8  C15 UNL     1      -4.387   4.747  -0.652  0.00  0.00    +0.000 A 
ATOM      9  C16 UNL     1      -3.101   5.143  -0.220  0.00  0.00    +0.000 A 
ATOM     10  C17 UNL     1      -2.136   4.181   0.127  0.00  0.00    +0.000 A 
ATOM     11  C18 UNL     1      -2.495   2.838   0.021  0.00  0.00    +0.000 A 
ATOM     12  C19 UNL     1      -2.269  -0.684   0.230  0.00  0.00    +0.000 A 
ATOM     13  N5  UNL     1      -1.017  -0.894   0.739  0.00  0.00    +0.000 NA
ATOM     14  H9  UNL     1      -4.729   0.554  -0.639  0.00  0.00    +0.000 HD
ENDROOT
BRANCH  12  15
ATOM     15  C20 UNL     1      -3.135  -1.844  -0.067  0.00  0.00    +0.000 A 
ATOM     16  C21 UNL     1      -3.827  -1.938  -1.287  0.00  0.00    +0.000 A 
ATOM     17  C22 UNL     1      -4.621  -3.056  -1.564  0.00  0.00    +0.000 A 
ATOM     18  C23 UNL     1      -4.720  -4.093  -0.633  0.00  0.00    +0.000 A 
ATOM     19  C24 UNL     1      -4.018  -4.018   0.573  0.00  0.00    +0.000 A 
ATOM     20  C25 UNL     1      -3.223  -2.902   0.854  0.00  0.00    +0.000 A 
ENDBRANCH  12  15
BRANCH   1  22
ATOM     21  O1  UNL     1       2.014   0.731   1.806  0.00  0.00    +0.000 OA
ATOM     22  C1  UNL     1       1.194  -0.197   1.567  0.00  0.00    +0.000 C 
ATOM     23  N1  UNL     1       1.558  -1.558   1.845  0.00  0.00    +0.000 N 
ATOM     24  H1  UNL     1       0.800  -2.260   1.998  0.00  0.00    +0.000 HD
BRANCH  23  25
ATOM     25  N2  UNL     1       2.879  -1.933   2.147  0.00  0.00    +0.000 N 
ATOM     26  C2  UNL     1       3.998  -1.546   1.338  0.00  0.00    +0.000 C 
ATOM     27  N3  UNL     1       3.805  -0.911   0.218  0.00  0.00    +0.000 NA
ATOM     28  H2  UNL     1       3.032  -2.666   2.876  0.00  0.00    +0.000 HD
BRANCH  27  29
ATOM     29  C3  UNL     1       4.852  -0.515  -0.674  0.00  0.00    +0.000 A 
ATOM     30  C4  UNL     1       5.175  -1.336  -1.762  0.00  0.00    +0.000 A 
ATOM     31  C5  UNL     1       6.188  -0.962  -2.650  0.00  0.00    +0.000 A 
ATOM     32  C6  UNL     1       6.878   0.238  -2.458  0.00  0.00    +0.000 A 
ATOM     33  C7  UNL     1       6.553   1.068  -1.382  0.00  0.00    +0.000 A 
ATOM     34  C8  UNL     1       5.539   0.700  -0.489  0.00  0.00    +0.000 A 
ATOM     35 BR1  UNL     1       5.110   1.876   0.960  0.00  0.00    +0.000 Br
ENDBRANCH  27  29
BRANCH  26  36
ATOM     36  S1  UNL     1       5.649  -2.031   1.865  0.00  0.00    +0.000 S 
ATOM     37  H3  UNL     1       5.824  -0.842   2.595  0.00  0.00    +0.000 HD
ENDBRANCH  26  36
ENDBRANCH  23  25
ENDBRANCH   1  22
TORSDOF 5
