REMARK  Name = resultss/4CJN/ligands/lig_284_t0.pdb
REMARK  15 active torsions:
REMARK  status: ('A' for Active; 'I' for Inactive)
REMARK    1  A    between atoms: C1_1  and  C2_2
REMARK    2  A    between atoms: C2_2  and  C3_3
REMARK    3  A    between atoms: C4_4  and  C5_5
REMARK    4  A    between atoms: C5_5  and  C6_6
REMARK    5  A    between atoms: C6_6  and  C7_7
REMARK    6  A    between atoms: C7_7  and  C8_8
REMARK    7  A    between atoms: C9_9  and  C10_10
REMARK    8  A    between atoms: C10_10  and  C11_11
REMARK    9  A    between atoms: C12_12  and  O1_13
REMARK   10  A    between atoms: C14_15  and  O2_16
REMARK   11  A    between atoms: C15_17  and  C16_18
REMARK   12  A    between atoms: C16_18  and  C17_20
REMARK   13  A    between atoms: C18_21  and  C19_22
REMARK   14  A    between atoms: C22_25  and  O4_26
REMARK   15  A    between atoms: C25_29  and  O5_30
REMARK                            x       y       z     vdW  Elec       q    Type
REMARK                         _______ _______ _______ _____ _____    ______ ____
ROOT
ATOM      1  C11 UNL     1      -0.038  -0.390  -1.293  0.00  0.00    +0.000 A 
ATOM      2  C12 UNL     1       0.172   1.003  -1.404  0.00  0.00    +0.000 A 
ATOM      3  C13 UNL     1      -0.764   1.902  -0.897  0.00  0.00    +0.000 A 
ATOM      4  C14 UNL     1      -1.945   1.454  -0.312  0.00  0.00    +0.000 A 
ATOM      5  C15 UNL     1      -2.209   0.070  -0.234  0.00  0.00    +0.000 A 
ATOM      6  C25 UNL     1      -1.255  -0.856  -0.713  0.00  0.00    +0.000 A 
ENDROOT
BRANCH   2   7
ATOM      7  O1  UNL     1       1.325   1.494  -2.021  0.00  0.00    +0.000 OA
ATOM      8  H18 UNL     1       1.501   2.487  -2.111  0.00  0.00    +0.000 HD
ENDBRANCH   2   7
BRANCH   4   9
ATOM      9  O2  UNL     1      -2.842   2.411   0.165  0.00  0.00    +0.000 OA
ATOM     10  H20 UNL     1      -3.743   2.178   0.563  0.00  0.00    +0.000 HD
ENDBRANCH   4   9
BRANCH   5  11
ATOM     11  C16 UNL     1      -3.481  -0.417   0.344  0.00  0.00    +0.000 C 
ATOM     12  O3  UNL     1      -3.749  -0.151   1.546  0.00  0.00    +0.000 OA
BRANCH  11  13
ATOM     13  C17 UNL     1      -4.391  -1.257  -0.471  0.00  0.00    +0.000 C 
ATOM     14  C18 UNL     1      -5.677  -1.514  -0.187  0.00  0.00    +0.000 C 
BRANCH  14  15
ATOM     15  C19 UNL     1      -6.467  -0.849   0.868  0.00  0.00    +0.000 A 
ATOM     16  C20 UNL     1      -6.545   0.553   0.938  0.00  0.00    +0.000 A 
ATOM     17  C21 UNL     1      -7.371   1.168   1.884  0.00  0.00    +0.000 A 
ATOM     18  C22 UNL     1      -8.140   0.387   2.759  0.00  0.00    +0.000 A 
ATOM     19  C23 UNL     1      -8.076  -1.010   2.682  0.00  0.00    +0.000 A 
ATOM     20  C24 UNL     1      -7.255  -1.625   1.732  0.00  0.00    +0.000 A 
BRANCH  18  21
ATOM     21  O4  UNL     1      -8.979   0.987   3.697  0.00  0.00    +0.000 OA
ATOM     22  H25 UNL     1      -9.066   1.997   3.763  0.00  0.00    +0.000 HD
ENDBRANCH  18  21
ENDBRANCH  14  15
ENDBRANCH  11  13
ENDBRANCH   5  11
BRANCH   6  23
ATOM     23  O5  UNL     1      -1.557  -2.218  -0.579  0.00  0.00    +0.000 OA
ATOM     24  H28 UNL     1      -1.000  -2.987  -0.932  0.00  0.00    +0.000 HD
ENDBRANCH   6  23
BRANCH   1  25
ATOM     25  C10 UNL     1       1.045  -1.318  -1.817  0.00  0.00    +0.000 C 
BRANCH  25  28
ATOM     26  C7  UNL     1       3.553  -0.927  -1.703  0.00  0.00    +0.000 C 
ATOM     27  C8  UNL     1       3.705  -1.045  -3.203  0.00  0.00    +0.000 C 
ATOM     28  C9  UNL     1       2.353  -1.070  -1.094  0.00  0.00    +0.000 C 
BRANCH  26  29
ATOM     29  C6  UNL     1       4.775  -0.636  -0.858  0.00  0.00    +0.000 C 
BRANCH  29  30
ATOM     30  C5  UNL     1       4.678   0.756  -0.209  0.00  0.00    +0.000 C 
BRANCH  30  34
ATOM     31  C1  UNL     1       6.267  -0.247   2.176  0.00  0.00    +0.000 C 
ATOM     32  C2  UNL     1       6.750   0.860   1.266  0.00  0.00    +0.000 C 
ATOM     33  C3  UNL     1       8.075   1.524   1.548  0.00  0.00    +0.000 C 
ATOM     34  C4  UNL     1       6.029   1.291   0.204  0.00  0.00    +0.000 C 
ENDBRANCH  30  34
ENDBRANCH  29  30
ENDBRANCH  26  29
ENDBRANCH  25  28
ENDBRANCH   1  25
TORSDOF 12
