REMARK  Name = resultss/4CJN/ligands/lig_361_t1.pdb
REMARK  4 active torsions:
REMARK  status: ('A' for Active; 'I' for Inactive)
REMARK    1  A    between atoms: C1_1  and  O1_2
REMARK    2  A    between atoms: O1_2  and  C2_3
REMARK    3  A    between atoms: C13_15  and  O3_16
REMARK    4  A    between atoms: O3_16  and  C14_17
REMARK                            x       y       z     vdW  Elec       q    Type
REMARK                         _______ _______ _______ _____ _____    ______ ____
ROOT
ATOM      1  C2  UNL     1       4.429  -0.373   0.025  0.00  0.00    +0.000 A 
ATOM      2  C3  UNL     1       3.842   0.461  -0.949  0.00  0.00    +0.000 A 
ATOM      3  C4  UNL     1       2.456   0.642  -0.984  0.00  0.00    +0.000 A 
ATOM      4  C5  UNL     1       1.647   0.011  -0.033  0.00  0.00    +0.000 A 
ATOM      5  C6  UNL     1       2.224  -0.841   0.935  0.00  0.00    +0.000 A 
ATOM      6  C7  UNL     1       3.610  -1.021   0.959  0.00  0.00    +0.000 A 
ATOM      7  O2  UNL     1       1.411  -1.484   1.898  0.00  0.00    +0.000 OA
ATOM      8  C8  UNL     1      -0.020  -1.320   1.955  0.00  0.00    +0.000 C 
ATOM      9  C9  UNL     1      -0.379   0.037   1.343  0.00  0.00    +0.000 C 
ATOM     10  C10 UNL     1      -1.761   0.408   1.049  0.00  0.00    +0.000 C 
ATOM     11  C11 UNL     1      -2.874  -0.207   1.463  0.00  0.00    +0.000 C 
ATOM     12  C12 UNL     1      -4.117  -0.064   0.676  0.00  0.00    +0.000 C 
ATOM     13  C13 UNL     1      -4.099   0.488  -0.557  0.00  0.00    +0.000 C 
ATOM     14  C15 UNL     1      -2.832   1.052  -1.079  0.00  0.00    +0.000 C 
ATOM     15  O4  UNL     1      -2.735   1.383  -2.290  0.00  0.00    +0.000 OA
ATOM     16  C16 UNL     1      -1.704   1.336  -0.123  0.00  0.00    +0.000 C 
ATOM     17  O5  UNL     1      -0.423   1.184  -0.722  0.00  0.00    +0.000 OA
ATOM     18  C17 UNL     1       0.149   0.063  -0.078  0.00  0.00    +0.000 C 
ENDROOT
BRANCH   1  20
ATOM     19  C1  UNL     1       6.764   0.006  -0.784  0.00  0.00    +0.000 C 
ATOM     20  O1  UNL     1       5.814  -0.585   0.096  0.00  0.00    +0.000 OA
ENDBRANCH   1  20
BRANCH  13  21
ATOM     21  O3  UNL     1      -5.238   0.543  -1.377  0.00  0.00    +0.000 OA
ATOM     22  C14 UNL     1      -6.523   0.043  -1.017  0.00  0.00    +0.000 C 
ENDBRANCH  13  21
TORSDOF 2
