REMARK  Name = resultss/4CJN/ligands/lig_312_t1.pdb
REMARK  13 active torsions:
REMARK  status: ('A' for Active; 'I' for Inactive)
REMARK    1  A    between atoms: C1_1  and  O1_2
REMARK    2  A    between atoms: O1_2  and  C2_3
REMARK    3  A    between atoms: C4_5  and  O2_6
REMARK    4  A    between atoms: C9_13  and  O5_14
REMARK    5  A    between atoms: O5_14  and  C10_15
REMARK    6  A    between atoms: C12_18  and  O7_19
REMARK    7  A    between atoms: C13_20  and  O8_21
REMARK    8  A    between atoms: C14_22  and  O9_23
REMARK    9  A    between atoms: O9_23  and  C15_24
REMARK   10  A    between atoms: C16_26  and  C17_27
REMARK   11  A    between atoms: C18_28  and  O11_29
REMARK   12  A    between atoms: C19_30  and  O12_31
REMARK   13  A    between atoms: C20_32  and  O13_33
REMARK                            x       y       z     vdW  Elec       q    Type
REMARK                         _______ _______ _______ _____ _____    ______ ____
ROOT
ATOM      1  C10 UNL     1      -1.175  -0.905  -0.320  0.00  0.00    +0.000 C 
ATOM      2  O6  UNL     1      -1.255  -2.297  -0.584  0.00  0.00    +0.000 OA
ATOM      3  C11 UNL     1      -0.780  -2.605  -1.881  0.00  0.00    +0.000 C 
ATOM      4  C12 UNL     1      -1.651  -1.962  -2.975  0.00  0.00    +0.000 C 
ATOM      5  C13 UNL     1      -1.787  -0.439  -2.748  0.00  0.00    +0.000 C 
ATOM      6  C14 UNL     1      -2.102  -0.107  -1.271  0.00  0.00    +0.000 C 
ENDROOT
BRANCH   4   7
ATOM      7  O7  UNL     1      -2.910  -2.584  -3.065  0.00  0.00    +0.000 OA
ATOM      8  H11 UNL     1      -3.318  -2.595  -2.160  0.00  0.00    +0.000 HD
ENDBRANCH   4   7
BRANCH   5   9
ATOM      9  O8  UNL     1      -0.595   0.209  -3.118  0.00  0.00    +0.000 OA
ATOM     10  H13 UNL     1      -0.559   0.200  -4.112  0.00  0.00    +0.000 HD
ENDBRANCH   5   9
BRANCH   1  11
ATOM     11  O5  UNL     1       0.172  -0.466  -0.420  0.00  0.00    +0.000 OA
BRANCH  11  21
ATOM     12  C2  UNL     1       7.829  -0.278   1.124  0.00  0.00    +0.000 A 
ATOM     13  C3  UNL     1       7.425  -1.065   2.202  0.00  0.00    +0.000 A 
ATOM     14  C4  UNL     1       6.073  -1.197   2.547  0.00  0.00    +0.000 A 
ATOM     15  C5  UNL     1       5.083  -0.470   1.818  0.00  0.00    +0.000 A 
ATOM     16  C6  UNL     1       3.697  -0.457   2.127  0.00  0.00    +0.000 A 
ATOM     17  O3  UNL     1       3.247  -1.052   3.141  0.00  0.00    +0.000 OA
ATOM     18  C7  UNL     1       2.807   0.253   1.298  0.00  0.00    +0.000 A 
ATOM     19  C8  UNL     1       1.337   0.276   1.509  0.00  0.00    +0.000 C 
ATOM     20  O4  UNL     1       0.830  -0.075   2.607  0.00  0.00    +0.000 OA
ATOM     21  C9  UNL     1       0.435   0.682   0.371  0.00  0.00    +0.000 C 
ATOM     22  C21 UNL     1       1.100   1.706  -0.514  0.00  0.00    +0.000 C 
ATOM     23  C22 UNL     1       2.431   1.784  -0.637  0.00  0.00    +0.000 C 
ATOM     24  C23 UNL     1       3.326   0.985   0.220  0.00  0.00    +0.000 A 
ATOM     25  O14 UNL     1       4.630   0.995  -0.020  0.00  0.00    +0.000 OA
ATOM     26  C24 UNL     1       5.507   0.319   0.714  0.00  0.00    +0.000 A 
ATOM     27  C25 UNL     1       6.861   0.408   0.378  0.00  0.00    +0.000 A 
BRANCH  12  29
ATOM     28  C1  UNL     1       9.749   0.537  -0.260  0.00  0.00    +0.000 C 
ATOM     29  O1  UNL     1       9.199  -0.213   0.819  0.00  0.00    +0.000 OA
ENDBRANCH  12  29
BRANCH  14  30
ATOM     30  O2  UNL     1       5.787  -2.078   3.595  0.00  0.00    +0.000 OA
ATOM     31  H5  UNL     1       4.881  -2.473   3.791  0.00  0.00    +0.000 HD
ENDBRANCH  14  30
ENDBRANCH  11  21
ENDBRANCH   1  11
BRANCH   6  32
ATOM     32  O9  UNL     1      -3.449  -0.449  -0.978  0.00  0.00    +0.000 OA
BRANCH  32  33
ATOM     33  C15 UNL     1      -4.312   0.677  -1.062  0.00  0.00    +0.000 C 
ATOM     34  O10 UNL     1      -4.158   1.520   0.072  0.00  0.00    +0.000 OA
ATOM     35  C16 UNL     1      -4.452   0.836   1.280  0.00  0.00    +0.000 C 
ATOM     36  C17 UNL     1      -4.246   1.807   2.445  0.00  0.00    +0.000 C 
ATOM     37  C18 UNL     1      -5.902   0.250   1.306  0.00  0.00    +0.000 C 
ATOM     38  C19 UNL     1      -6.656   0.525  -0.009  0.00  0.00    +0.000 C 
ATOM     39  C20 UNL     1      -5.780   0.193  -1.234  0.00  0.00    +0.000 C 
BRANCH  37  40
ATOM     40  O11 UNL     1      -5.847  -1.140   1.514  0.00  0.00    +0.000 OA
ATOM     41  H21 UNL     1      -5.616  -1.276   2.469  0.00  0.00    +0.000 HD
ENDBRANCH  37  40
BRANCH  38  42
ATOM     42  O12 UNL     1      -7.146   1.845  -0.054  0.00  0.00    +0.000 OA
ATOM     43  H23 UNL     1      -6.378   2.471  -0.032  0.00  0.00    +0.000 HD
ENDBRANCH  38  42
BRANCH  39  44
ATOM     44  O13 UNL     1      -6.361   0.751  -2.385  0.00  0.00    +0.000 OA
ATOM     45  H25 UNL     1      -5.941   0.301  -3.166  0.00  0.00    +0.000 HD
ENDBRANCH  39  44
ENDBRANCH  32  33
ENDBRANCH   6  32
TORSDOF 11
