REMARK  Name = resultss/4CJN/ligands/lig_186_t0.pdb
REMARK  6 active torsions:
REMARK  status: ('A' for Active; 'I' for Inactive)
REMARK    1  A    between atoms: C1_2  and  C9_14
REMARK    2  A    between atoms: N1_3  and  N2_4
REMARK    3  A    between atoms: C2_5  and  C3_6
REMARK    4  A    between atoms: C5_8  and  O2_9
REMARK    5  A    between atoms: C7_11  and  O3_12
REMARK    6  A    between atoms: C12_17  and  C13_18
REMARK                            x       y       z     vdW  Elec       q    Type
REMARK                         _______ _______ _______ _____ _____    ______ ____
ROOT
ATOM      1  O1  UNL     1      -1.829  -1.361  -0.799  0.00  0.00    +0.000 OA
ATOM      2  C1  UNL     1      -1.266  -0.232  -0.811  0.00  0.00    +0.000 C 
ATOM      3  N1  UNL     1      -2.041   0.945  -1.099  0.00  0.00    +0.000 N 
ATOM      4  H1  UNL     1      -1.569   1.745  -1.577  0.00  0.00    +0.000 HD
ENDROOT
BRANCH   2   5
ATOM      5  C9  UNL     1       0.196  -0.143  -0.577  0.00  0.00    +0.000 A 
ATOM      6  C10 UNL     1       1.001  -1.290  -0.684  0.00  0.00    +0.000 A 
ATOM      7  C11 UNL     1       2.379  -1.216  -0.460  0.00  0.00    +0.000 A 
ATOM      8  C12 UNL     1       2.983   0.006  -0.118  0.00  0.00    +0.000 A 
ATOM      9  C20 UNL     1       2.177   1.151   0.000  0.00  0.00    +0.000 A 
ATOM     10  C21 UNL     1       0.799   1.077  -0.225  0.00  0.00    +0.000 A 
BRANCH   8  11
ATOM     11  C13 UNL     1       4.444   0.073   0.118  0.00  0.00    +0.000 A 
ATOM     12  N3  UNL     1       5.262  -1.006   0.020  0.00  0.00    +0.000 NA
ATOM     13  C14 UNL     1       6.553  -0.677   0.283  0.00  0.00    +0.000 A 
ATOM     14  C15 UNL     1       7.618  -1.579   0.259  0.00  0.00    +0.000 A 
ATOM     15  C16 UNL     1       8.910  -1.106   0.551  0.00  0.00    +0.000 A 
ATOM     16  C17 UNL     1       9.119   0.253   0.862  0.00  0.00    +0.000 A 
ATOM     17  C18 UNL     1       8.040   1.150   0.883  0.00  0.00    +0.000 A 
ATOM     18  C19 UNL     1       6.771   0.656   0.590  0.00  0.00    +0.000 A 
ATOM     19  S1  UNL     1       5.310   1.475   0.537  0.00  0.00    +0.000 S 
ENDBRANCH   8  11
ENDBRANCH   2   5
BRANCH   3  20
ATOM     20  N2  UNL     1      -3.442   0.997  -0.976  0.00  0.00    +0.000 NA
ATOM     21  C2  UNL     1      -4.110   0.340  -0.077  0.00  0.00    +0.000 C 
BRANCH  21  22
ATOM     22  C3  UNL     1      -5.583   0.423  -0.010  0.00  0.00    +0.000 A 
ATOM     23  C4  UNL     1      -6.268  -0.283   0.991  0.00  0.00    +0.000 A 
ATOM     24  C5  UNL     1      -7.666  -0.221   1.075  0.00  0.00    +0.000 A 
ATOM     25  C6  UNL     1      -8.385   0.549   0.155  0.00  0.00    +0.000 A 
ATOM     26  C7  UNL     1      -7.715   1.256  -0.847  0.00  0.00    +0.000 A 
ATOM     27  C8  UNL     1      -6.317   1.194  -0.931  0.00  0.00    +0.000 A 
BRANCH  24  28
ATOM     28  O2  UNL     1      -8.350  -0.919   2.067  0.00  0.00    +0.000 OA
ATOM     29  H4  UNL     1      -7.860  -1.486   2.749  0.00  0.00    +0.000 HD
ENDBRANCH  24  28
BRANCH  26  30
ATOM     30  O3  UNL     1      -8.447   2.018  -1.756  0.00  0.00    +0.000 OA
ATOM     31  H6  UNL     1      -7.993   2.543  -2.494  0.00  0.00    +0.000 HD
ENDBRANCH  26  30
ENDBRANCH  21  22
ENDBRANCH   3  20
TORSDOF 6
