REMARK  Name = resultss/4CJN/ligands/lig_273_t0.pdb
REMARK  8 active torsions:
REMARK  status: ('A' for Active; 'I' for Inactive)
REMARK    1  A    between atoms: C1_1  and  O1_2
REMARK    2  A    between atoms: O1_2  and  C2_3
REMARK    3  A    between atoms: C4_5  and  C5_6
REMARK    4  A    between atoms: C5_6  and  N1_7
REMARK    5  A    between atoms: C6_8  and  C7_10
REMARK    6  A    between atoms: C8_11  and  N2_12
REMARK    7  A    between atoms: C9_13  and  C10_15
REMARK    8  A    between atoms: C24_31  and  O4_32
REMARK                            x       y       z     vdW  Elec       q    Type
REMARK                         _______ _______ _______ _____ _____    ______ ____
ROOT
ATOM      1  C7  UNL     1      -0.929  -1.432  -0.959  0.00  0.00    +0.000 A 
ATOM      2  C8  UNL     1      -1.468  -0.166  -0.732  0.00  0.00    +0.000 A 
ATOM      3  S1  UNL     1      -3.120  -0.313  -0.447  0.00  0.00    +0.000 S 
ATOM      4  C15 UNL     1      -3.171  -1.988  -0.601  0.00  0.00    +0.000 A 
ATOM      5  C16 UNL     1      -1.889  -2.464  -0.874  0.00  0.00    +0.000 A 
ATOM      6  C17 UNL     1      -1.590  -3.932  -1.040  0.00  0.00    +0.000 C 
ATOM      7  C18 UNL     1      -1.881  -4.709   0.252  0.00  0.00    +0.000 C 
ATOM      8  C19 UNL     1      -3.375  -5.020   0.445  0.00  0.00    +0.000 C 
ATOM      9  C20 UNL     1      -4.228  -3.786   0.784  0.00  0.00    +0.000 C 
ATOM     10  C21 UNL     1      -4.396  -2.826  -0.402  0.00  0.00    +0.000 C 
ENDROOT
BRANCH   1  12
ATOM     11  N1  UNL     1       1.272  -2.293  -0.110  0.00  0.00    +0.000 N 
ATOM     12  C6  UNL     1       0.513  -1.650  -1.140  0.00  0.00    +0.000 C 
ATOM     13  O2  UNL     1       1.089  -1.191  -2.163  0.00  0.00    +0.000 OA
ATOM     14  H7  UNL     1       0.768  -2.859   0.609  0.00  0.00    +0.000 HD
BRANCH  11  15
ATOM     15  C5  UNL     1       2.646  -1.892   0.175  0.00  0.00    +0.000 C 
BRANCH  15  18
ATOM     16  C2  UNL     1       2.946   1.912   0.452  0.00  0.00    +0.000 A 
ATOM     17  C3  UNL     1       3.012   0.599  -0.058  0.00  0.00    +0.000 A 
ATOM     18  C4  UNL     1       2.656  -0.497   0.743  0.00  0.00    +0.000 A 
ATOM     19  C22 UNL     1       2.215  -0.276   2.056  0.00  0.00    +0.000 A 
ATOM     20  C23 UNL     1       2.146   1.020   2.566  0.00  0.00    +0.000 A 
ATOM     21  C24 UNL     1       2.512   2.114   1.775  0.00  0.00    +0.000 A 
BRANCH  16  23
ATOM     22  C1  UNL     1       3.737   2.968  -1.675  0.00  0.00    +0.000 C 
ATOM     23  O1  UNL     1       3.296   3.029  -0.322  0.00  0.00    +0.000 OA
ENDBRANCH  16  23
BRANCH  21  24
ATOM     24  O4  UNL     1       2.433   3.395   2.320  0.00  0.00    +0.000 OA
ATOM     25  H25 UNL     1       2.692   4.221   1.795  0.00  0.00    +0.000 HD
ENDBRANCH  21  24
ENDBRANCH  15  18
ENDBRANCH  11  15
ENDBRANCH   1  12
BRANCH   2  26
ATOM     26  N2  UNL     1      -0.716   1.059  -0.711  0.00  0.00    +0.000 N 
ATOM     27  C9  UNL     1      -1.115   2.227   0.024  0.00  0.00    +0.000 C 
ATOM     28  O3  UNL     1      -2.029   2.147   0.889  0.00  0.00    +0.000 OA
ATOM     29  H8  UNL     1       0.224   1.064  -1.165  0.00  0.00    +0.000 HD
BRANCH  27  30
ATOM     30  C10 UNL     1      -0.420   3.520  -0.179  0.00  0.00    +0.000 A 
ATOM     31  C11 UNL     1      -0.400   4.485   0.841  0.00  0.00    +0.000 A 
ATOM     32  C12 UNL     1       0.269   5.695   0.648  0.00  0.00    +0.000 A 
ATOM     33  C13 UNL     1       0.908   5.938  -0.568  0.00  0.00    +0.000 A 
ATOM     34  N3  UNL     1       0.868   5.005  -1.554  0.00  0.00    +0.000 NA
ATOM     35  C14 UNL     1       0.227   3.817  -1.392  0.00  0.00    +0.000 A 
ENDBRANCH  27  30
ENDBRANCH   2  26
TORSDOF 7
