REMARK  Name = resultss/4CJN/ligands/lig_277_t1.pdb
REMARK  11 active torsions:
REMARK  status: ('A' for Active; 'I' for Inactive)
REMARK    1  A    between atoms: C2_2  and  C3_3
REMARK    2  A    between atoms: C3_3  and  C4_4
REMARK    3  A    between atoms: C6_6  and  C7_7
REMARK    4  A    between atoms: C10_10  and  O1_11
REMARK    5  A    between atoms: C11_12  and  C12_13
REMARK    6  A    between atoms: C12_13  and  C13_14
REMARK    7  A    between atoms: C17_19  and  C18_20
REMARK    8  A    between atoms: C18_20  and  C19_21
REMARK    9  A    between atoms: C18_20  and  N1_29
REMARK   10  A    between atoms: C22_24  and  O3_25
REMARK   11  A    between atoms: O3_25  and  C23_26
REMARK                            x       y       z     vdW  Elec       q    Type
REMARK                         _______ _______ _______ _____ _____    ______ ____
ROOT
ATOM      1  C4  UNL     1       0.132   0.807  -2.433  0.00  0.00    +0.000 C 
ATOM      2  C5  UNL     1       0.816   1.944  -2.229  0.00  0.00    +0.000 C 
ATOM      3  C6  UNL     1       1.066   2.497  -0.850  0.00  0.00    +0.000 C 
ATOM      4  C16 UNL     1       0.100   1.938   0.167  0.00  0.00    +0.000 C 
ATOM      5  O2  UNL     1      -0.068   2.555   1.256  0.00  0.00    +0.000 OA
ATOM      6  C17 UNL     1      -0.573   0.634  -0.068  0.00  0.00    +0.000 C 
ATOM      7  C31 UNL     1      -0.535   0.115  -1.308  0.00  0.00    +0.000 C 
ENDROOT
BRANCH   3   8
ATOM      8  C7  UNL     1       2.496   2.196  -0.452  0.00  0.00    +0.000 A 
ATOM      9  C8  UNL     1       3.474   3.198  -0.533  0.00  0.00    +0.000 A 
ATOM     10  C9  UNL     1       4.808   2.909  -0.234  0.00  0.00    +0.000 A 
ATOM     11  C10 UNL     1       5.193   1.612   0.132  0.00  0.00    +0.000 A 
ATOM     12  C11 UNL     1       4.225   0.591   0.202  0.00  0.00    +0.000 A 
ATOM     13  C15 UNL     1       2.886   0.892  -0.091  0.00  0.00    +0.000 A 
BRANCH  11  14
ATOM     14  O1  UNL     1       6.532   1.339   0.419  0.00  0.00    +0.000 OA
ATOM     15  H10 UNL     1       7.244   2.059   0.374  0.00  0.00    +0.000 HD
ENDBRANCH  11  14
BRANCH  12  16
ATOM     16  C12 UNL     1       4.596  -0.827   0.574  0.00  0.00    +0.000 C 
BRANCH  16  17
ATOM     17  C13 UNL     1       4.296  -1.779  -0.555  0.00  0.00    +0.000 C 
ATOM     18  C14 UNL     1       4.968  -1.729  -1.711  0.00  0.00    +0.000 C 
ENDBRANCH  16  17
ENDBRANCH  12  16
ENDBRANCH   3   8
BRANCH   1  19
ATOM     19  C3  UNL     1       0.140   0.167  -3.794  0.00  0.00    +0.000 C 
BRANCH  19  21
ATOM     20  C1  UNL     1       2.336  -0.131  -4.921  0.00  0.00    +0.000 C 
ATOM     21  C2  UNL     1       1.452  -0.541  -4.006  0.00  0.00    +0.000 C 
ENDBRANCH  19  21
ENDBRANCH   1  19
BRANCH   6  22
ATOM     22  C18 UNL     1      -1.247  -0.059   1.126  0.00  0.00    +0.000 C 
BRANCH  22  23
ATOM     23  C19 UNL     1      -2.493   0.677   1.598  0.00  0.00    +0.000 A 
ATOM     24  C20 UNL     1      -2.840   0.640   2.959  0.00  0.00    +0.000 A 
ATOM     25  C21 UNL     1      -4.011   1.255   3.412  0.00  0.00    +0.000 A 
ATOM     26  C22 UNL     1      -4.865   1.911   2.506  0.00  0.00    +0.000 A 
ATOM     27  C24 UNL     1      -4.520   1.952   1.151  0.00  0.00    +0.000 A 
ATOM     28  C25 UNL     1      -3.351   1.338   0.693  0.00  0.00    +0.000 A 
BRANCH  26  29
ATOM     29  O3  UNL     1      -6.059   2.526   2.907  0.00  0.00    +0.000 OA
ATOM     30  C23 UNL     1      -6.590   2.461   4.228  0.00  0.00    +0.000 C 
ENDBRANCH  26  29
ENDBRANCH  22  23
BRANCH  22  31
ATOM     31  N1  UNL     1      -1.486  -1.525   1.003  0.00  0.00    +0.000 NA
ATOM     32  C26 UNL     1      -0.263  -2.338   0.784  0.00  0.00    +0.000 C 
ATOM     33  C27 UNL     1      -0.534  -3.621  -0.014  0.00  0.00    +0.000 C 
ATOM     34  C28 UNL     1      -1.747  -4.355   0.558  0.00  0.00    +0.000 C 
ATOM     35  C29 UNL     1      -3.002  -3.461   0.619  0.00  0.00    +0.000 C 
ATOM     36  C30 UNL     1      -2.720  -1.981   0.315  0.00  0.00    +0.000 C 
ENDBRANCH  22  31
ENDBRANCH   6  22
TORSDOF 10
