REMARK  Name = resultss/4CJN/ligands/lig_175_t0.pdb
REMARK  4 active torsions:
REMARK  status: ('A' for Active; 'I' for Inactive)
REMARK    1  A    between atoms: C1_2  and  C9_12
REMARK    2  A    between atoms: N1_3  and  N2_4
REMARK    3  A    between atoms: C2_5  and  C3_6
REMARK    4  A    between atoms: C12_15  and  C13_16
REMARK                            x       y       z     vdW  Elec       q    Type
REMARK                         _______ _______ _______ _____ _____    ______ ____
ROOT
ATOM      1  C9  UNL     1       0.188   0.522  -0.508  0.00  0.00    +0.000 A 
ATOM      2  C10 UNL     1      -0.351  -0.729  -0.857  0.00  0.00    +0.000 A 
ATOM      3  C11 UNL     1      -1.724  -0.967  -0.748  0.00  0.00    +0.000 A 
ATOM      4  C12 UNL     1      -2.590   0.038  -0.282  0.00  0.00    +0.000 A 
ATOM      5  C20 UNL     1      -2.049   1.285   0.077  0.00  0.00    +0.000 A 
ATOM      6  C21 UNL     1      -0.676   1.522  -0.032  0.00  0.00    +0.000 A 
ENDROOT
BRANCH   4   7
ATOM      7  C13 UNL     1      -4.046  -0.204  -0.162  0.00  0.00    +0.000 A 
ATOM      8  N3  UNL     1      -4.920   0.735   0.286  0.00  0.00    +0.000 NA
ATOM      9  C14 UNL     1      -6.193   0.262   0.299  0.00  0.00    +0.000 A 
ATOM     10  C15 UNL     1      -7.304   0.999   0.711  0.00  0.00    +0.000 A 
ATOM     11  C16 UNL     1      -8.570   0.389   0.675  0.00  0.00    +0.000 A 
ATOM     12  C17 UNL     1      -8.709  -0.941   0.231  0.00  0.00    +0.000 A 
ATOM     13  C18 UNL     1      -7.584  -1.673  -0.181  0.00  0.00    +0.000 A 
ATOM     14  C19 UNL     1      -6.342  -1.045  -0.135  0.00  0.00    +0.000 A 
ATOM     15  S1  UNL     1      -4.839  -1.654  -0.557  0.00  0.00    +0.000 S 
ENDBRANCH   4   7
BRANCH   1  17
ATOM     16  O1  UNL     1       2.147   1.763  -0.002  0.00  0.00    +0.000 OA
ATOM     17  C1  UNL     1       1.645   0.781  -0.614  0.00  0.00    +0.000 C 
ATOM     18  N1  UNL     1       2.482  -0.042  -1.445  0.00  0.00    +0.000 N 
ATOM     19  H1  UNL     1       2.056  -0.497  -2.283  0.00  0.00    +0.000 HD
BRANCH  18  20
ATOM     20  N2  UNL     1       3.884  -0.091  -1.322  0.00  0.00    +0.000 NA
ATOM     21  C2  UNL     1       4.511   0.033  -0.192  0.00  0.00    +0.000 C 
BRANCH  21  22
ATOM     22  C3  UNL     1       5.985  -0.011  -0.131  0.00  0.00    +0.000 A 
ATOM     23  C4  UNL     1       6.765  -0.161  -1.295  0.00  0.00    +0.000 A 
ATOM     24  C5  UNL     1       8.160  -0.198  -1.209  0.00  0.00    +0.000 A 
ATOM     25  C6  UNL     1       8.789  -0.085   0.034  0.00  0.00    +0.000 A 
ATOM     26  C7  UNL     1       8.024   0.065   1.193  0.00  0.00    +0.000 A 
ATOM     27  C8  UNL     1       6.629   0.102   1.113  0.00  0.00    +0.000 A 
ENDBRANCH  21  22
ENDBRANCH  18  20
ENDBRANCH   1  17
TORSDOF 4
