REMARK  Name = resultss/4CJN/ligands/lig_330_t1.pdb
REMARK  7 active torsions:
REMARK  status: ('A' for Active; 'I' for Inactive)
REMARK    1  A    between atoms: C1_1  and  O1_2
REMARK    2  A    between atoms: O1_2  and  C2_3
REMARK    3  A    between atoms: C5_6  and  C6_7
REMARK    4  A    between atoms: C6_7  and  C7_8
REMARK    5  A    between atoms: C7_8  and  C8_9
REMARK    6  A    between atoms: C12_15  and  O4_16
REMARK    7  A    between atoms: O4_16  and  C13_17
REMARK                            x       y       z     vdW  Elec       q    Type
REMARK                         _______ _______ _______ _____ _____    ______ ____
ROOT
ATOM      1  C7  UNL     1       0.360   0.076  -0.079  0.00  0.00    +0.000 C 
ENDROOT
BRANCH   1   2
ATOM      2  C8  UNL     1       1.811  -0.326  -0.424  0.00  0.00    +0.000 C 
ATOM      3  C9  UNL     1       2.364   0.478  -1.623  0.00  0.00    +0.000 C 
ATOM      4  C10 UNL     1       3.825   0.196  -1.818  0.00  0.00    +0.000 C 
ATOM      5  O2  UNL     1       4.329   0.231  -2.972  0.00  0.00    +0.000 OA
ATOM      6  C11 UNL     1       4.670  -0.059  -0.642  0.00  0.00    +0.000 C 
ATOM      7  O3  UNL     1       5.905  -0.251  -0.792  0.00  0.00    +0.000 OA
ATOM      8  C12 UNL     1       4.036  -0.093   0.703  0.00  0.00    +0.000 C 
ATOM      9  C14 UNL     1       2.700  -0.160   0.795  0.00  0.00    +0.000 C 
BRANCH   8  10
ATOM     10  O4  UNL     1       4.768  -0.032   1.901  0.00  0.00    +0.000 OA
ATOM     11  C13 UNL     1       6.181   0.115   1.994  0.00  0.00    +0.000 C 
ENDBRANCH   8  10
ENDBRANCH   1   2
BRANCH   1  12
ATOM     12  C6  UNL     1      -0.639  -0.272  -1.193  0.00  0.00    +0.000 C 
BRANCH  12  16
ATOM     13  C2  UNL     1      -4.663   0.492   0.190  0.00  0.00    +0.000 A 
ATOM     14  C3  UNL     1      -4.087  -0.783   0.346  0.00  0.00    +0.000 A 
ATOM     15  C4  UNL     1      -2.788  -1.031  -0.109  0.00  0.00    +0.000 A 
ATOM     16  C5  UNL     1      -2.050  -0.015  -0.735  0.00  0.00    +0.000 A 
ATOM     17  C15 UNL     1      -2.620   1.259  -0.879  0.00  0.00    +0.000 A 
ATOM     18  C16 UNL     1      -3.918   1.506  -0.423  0.00  0.00    +0.000 A 
BRANCH  13  20
ATOM     19  C1  UNL     1      -6.828  -0.141   1.267  0.00  0.00    +0.000 C 
ATOM     20  O1  UNL     1      -5.961   0.791   0.629  0.00  0.00    +0.000 OA
ENDBRANCH  13  20
ENDBRANCH  12  16
ENDBRANCH   1  12
TORSDOF 5
