REMARK  Name = resultss/4CJN/ligands/lig_310_t0.pdb
REMARK  16 active torsions:
REMARK  status: ('A' for Active; 'I' for Inactive)
REMARK    1  A    between atoms: C1_1  and  O1_2
REMARK    2  A    between atoms: O1_2  and  C2_3
REMARK    3  A    between atoms: C4_5  and  O2_6
REMARK    4  A    between atoms: C8_11  and  O4_12
REMARK    5  A    between atoms: C9_13  and  O5_14
REMARK    6  A    between atoms: O5_14  and  C10_15
REMARK    7  A    between atoms: C11_17  and  C12_18
REMARK    8  A    between atoms: C12_18  and  O7_19
REMARK    9  A    between atoms: C13_20  and  O8_21
REMARK   10  A    between atoms: C14_22  and  O9_23
REMARK   11  A    between atoms: C15_24  and  O10_25
REMARK   12  A    between atoms: O10_25  and  C16_26
REMARK   13  A    between atoms: C17_28  and  C18_29
REMARK   14  A    between atoms: C19_30  and  O12_31
REMARK   15  A    between atoms: C20_32  and  O13_33
REMARK   16  A    between atoms: C21_34  and  O14_35
REMARK                            x       y       z     vdW  Elec       q    Type
REMARK                         _______ _______ _______ _____ _____    ______ ____
ROOT
ATOM      1  C10 UNL     1      -1.839  -1.152  -1.213  0.00  0.00    +0.000 C 
ATOM      2  O6  UNL     1      -2.630  -1.716  -2.246  0.00  0.00    +0.000 OA
ATOM      3  C11 UNL     1      -2.496  -1.087  -3.522  0.00  0.00    +0.000 C 
ATOM      4  C13 UNL     1      -1.689   0.242  -3.544  0.00  0.00    +0.000 C 
ATOM      5  C14 UNL     1      -2.102   1.136  -2.357  0.00  0.00    +0.000 C 
ATOM      6  C15 UNL     1      -2.159   0.348  -1.017  0.00  0.00    +0.000 C 
ENDROOT
BRANCH   4   7
ATOM      7  O8  UNL     1      -1.860   0.921  -4.764  0.00  0.00    +0.000 OA
ATOM      8  H13 UNL     1      -2.818   1.174  -4.842  0.00  0.00    +0.000 HD
ENDBRANCH   4   7
BRANCH   5   9
ATOM      9  O9  UNL     1      -1.245   2.245  -2.253  0.00  0.00    +0.000 OA
ATOM     10  H15 UNL     1      -0.328   1.902  -2.080  0.00  0.00    +0.000 HD
ENDBRANCH   5   9
BRANCH   1  11
ATOM     11  O5  UNL     1      -0.449  -1.375  -1.483  0.00  0.00    +0.000 OA
BRANCH  11  20
ATOM     12  C2  UNL     1       7.399   0.078   2.092  0.00  0.00    +0.000 A 
ATOM     13  C3  UNL     1       7.767  -0.303   0.792  0.00  0.00    +0.000 A 
ATOM     14  C4  UNL     1       6.796  -0.675  -0.151  0.00  0.00    +0.000 A 
ATOM     15  C5  UNL     1       5.425  -0.662   0.208  0.00  0.00    +0.000 A 
ATOM     16  C6  UNL     1       4.389  -0.995  -0.692  0.00  0.00    +0.000 A 
ATOM     17  O3  UNL     1       4.678  -1.398  -1.850  0.00  0.00    +0.000 OA
ATOM     18  C7  UNL     1       3.038  -0.910  -0.273  0.00  0.00    +0.000 A 
ATOM     19  C8  UNL     1       1.917  -1.120  -1.132  0.00  0.00    +0.000 A 
ATOM     20  C9  UNL     1       0.618  -1.153  -0.595  0.00  0.00    +0.000 A 
ATOM     21  C22 UNL     1       0.420  -0.941   0.780  0.00  0.00    +0.000 A 
ATOM     22  C23 UNL     1       1.500  -0.634   1.602  0.00  0.00    +0.000 A 
ATOM     23  C24 UNL     1       2.798  -0.609   1.090  0.00  0.00    +0.000 A 
ATOM     24  O15 UNL     1       3.797  -0.303   1.906  0.00  0.00    +0.000 OA
ATOM     25  C25 UNL     1       5.067  -0.296   1.526  0.00  0.00    +0.000 A 
ATOM     26  C26 UNL     1       6.050   0.066   2.452  0.00  0.00    +0.000 A 
BRANCH  12  28
ATOM     27  C1  UNL     1       9.742   0.575   2.819  0.00  0.00    +0.000 C 
ATOM     28  O1  UNL     1       8.338   0.474   3.054  0.00  0.00    +0.000 OA
ENDBRANCH  12  28
BRANCH  14  29
ATOM     29  O2  UNL     1       7.204  -1.054  -1.430  0.00  0.00    +0.000 OA
ATOM     30  H5  UNL     1       8.183  -1.084  -1.689  0.00  0.00    +0.000 HD
ENDBRANCH  14  29
BRANCH  19  31
ATOM     31  O4  UNL     1       2.025  -1.242  -2.524  0.00  0.00    +0.000 OA
ATOM     32  H6  UNL     1       2.811  -0.923  -3.065  0.00  0.00    +0.000 HD
ENDBRANCH  19  31
ENDBRANCH  11  20
ENDBRANCH   1  11
BRANCH   3  33
ATOM     33  C12 UNL     1      -1.950  -2.100  -4.545  0.00  0.00    +0.000 C 
BRANCH  33  34
ATOM     34  O7  UNL     1      -0.664  -2.532  -4.199  0.00  0.00    +0.000 OA
ATOM     35  H11 UNL     1      -0.776  -3.201  -3.477  0.00  0.00    +0.000 HD
ENDBRANCH  33  34
ENDBRANCH   3  33
BRANCH   6  36
ATOM     36  O10 UNL     1      -3.466   0.446  -0.471  0.00  0.00    +0.000 OA
BRANCH  36  37
ATOM     37  C16 UNL     1      -3.581   1.559   0.407  0.00  0.00    +0.000 C 
ATOM     38  O11 UNL     1      -3.251   1.190   1.737  0.00  0.00    +0.000 OA
ATOM     39  C17 UNL     1      -4.116   0.180   2.234  0.00  0.00    +0.000 C 
ATOM     40  C18 UNL     1      -3.624  -0.230   3.626  0.00  0.00    +0.000 C 
ATOM     41  C19 UNL     1      -5.576   0.689   2.304  0.00  0.00    +0.000 C 
ATOM     42  C20 UNL     1      -6.023   1.157   0.909  0.00  0.00    +0.000 C 
ATOM     43  C21 UNL     1      -5.002   2.150   0.328  0.00  0.00    +0.000 C 
BRANCH  41  44
ATOM     44  O12 UNL     1      -6.420  -0.345   2.746  0.00  0.00    +0.000 OA
ATOM     45  H23 UNL     1      -7.233   0.083   3.121  0.00  0.00    +0.000 HD
ENDBRANCH  41  44
BRANCH  42  46
ATOM     46  O13 UNL     1      -7.288   1.762   1.000  0.00  0.00    +0.000 OA
ATOM     47  H25 UNL     1      -7.637   1.846   0.072  0.00  0.00    +0.000 HD
ENDBRANCH  42  46
BRANCH  43  48
ATOM     48  O14 UNL     1      -5.064   3.358   1.041  0.00  0.00    +0.000 OA
ATOM     49  H27 UNL     1      -4.643   4.055   0.473  0.00  0.00    +0.000 HD
ENDBRANCH  43  48
ENDBRANCH  36  37
ENDBRANCH   6  36
TORSDOF 14
