REMARK  Name = resultss/4CJN/ligands/lig_367_t1.pdb
REMARK  13 active torsions:
REMARK  status: ('A' for Active; 'I' for Inactive)
REMARK    1  A    between atoms: C1_1  and  O1_2
REMARK    2  A    between atoms: O1_2  and  C2_3
REMARK    3  A    between atoms: C4_5  and  C5_6
REMARK    4  A    between atoms: C5_6  and  C6_7
REMARK    5  A    between atoms: C5_6  and  C16_20
REMARK    6  A    between atoms: C10_12  and  C11_13
REMARK    7  A    between atoms: C15_18  and  O4_19
REMARK    8  A    between atoms: C17_21  and  O5_22
REMARK    9  A    between atoms: C20_25  and  C21_26
REMARK   10  A    between atoms: C27_34  and  O8_35
REMARK   11  A    between atoms: O8_35  and  C28_36
REMARK   12  A    between atoms: C29_37  and  O9_38
REMARK   13  A    between atoms: O9_38  and  C30_39
REMARK                            x       y       z     vdW  Elec       q    Type
REMARK                         _______ _______ _______ _____ _____    ______ ____
ROOT
ATOM      1  C5  UNL     1       0.137   0.356  -1.041  0.00  0.00    +0.000 C 
ENDROOT
BRANCH   1   2
ATOM      2  C6  UNL     1       1.326  -0.274  -0.300  0.00  0.00    +0.000 A 
ATOM      3  C7  UNL     1       2.105  -1.257  -0.950  0.00  0.00    +0.000 A 
ATOM      4  O2  UNL     1       1.808  -1.625  -2.119  0.00  0.00    +0.000 OA
ATOM      5  C8  UNL     1       3.211  -1.824  -0.296  0.00  0.00    +0.000 A 
ATOM      6  C9  UNL     1       4.031  -2.792  -0.905  0.00  0.00    +0.000 A 
ATOM      7  C10 UNL     1       5.143  -3.312  -0.224  0.00  0.00    +0.000 A 
ATOM      8  C11 UNL     1       5.994  -4.368  -0.864  0.00  0.00    +0.000 C 
ATOM      9  C12 UNL     1       5.414  -2.886   1.083  0.00  0.00    +0.000 A 
ATOM     10  C13 UNL     1       4.601  -1.930   1.695  0.00  0.00    +0.000 A 
ATOM     11  C14 UNL     1       3.503  -1.397   1.014  0.00  0.00    +0.000 A 
ATOM     12  O3  UNL     1       2.736  -0.496   1.613  0.00  0.00    +0.000 OA
ATOM     13  C15 UNL     1       1.680   0.063   1.032  0.00  0.00    +0.000 A 
BRANCH  13  14
ATOM     14  O4  UNL     1       0.921   0.963   1.774  0.00  0.00    +0.000 OA
ATOM     15  H12 UNL     1       1.178   1.199   2.723  0.00  0.00    +0.000 HD
ENDBRANCH  13  14
ENDBRANCH   1   2
BRANCH   1  16
ATOM     16  C16 UNL     1      -1.104  -0.545  -1.147  0.00  0.00    +0.000 A 
ATOM     17  C17 UNL     1      -1.495  -1.454  -0.132  0.00  0.00    +0.000 A 
ATOM     18  C18 UNL     1      -2.682  -2.214  -0.300  0.00  0.00    +0.000 A 
ATOM     19  C19 UNL     1      -3.138  -3.163   0.645  0.00  0.00    +0.000 A 
ATOM     20  C20 UNL     1      -4.340  -3.860   0.436  0.00  0.00    +0.000 A 
ATOM     21  C21 UNL     1      -4.800  -4.892   1.425  0.00  0.00    +0.000 C 
ATOM     22  C22 UNL     1      -5.079  -3.636  -0.735  0.00  0.00    +0.000 A 
ATOM     23  C23 UNL     1      -4.640  -2.706  -1.675  0.00  0.00    +0.000 A 
ATOM     24  C24 UNL     1      -3.453  -1.996  -1.466  0.00  0.00    +0.000 A 
ATOM     25  O6  UNL     1      -3.068  -1.112  -2.374  0.00  0.00    +0.000 OA
ATOM     26  C25 UNL     1      -1.958  -0.396  -2.263  0.00  0.00    +0.000 A 
ATOM     27  O7  UNL     1      -1.686   0.434  -3.171  0.00  0.00    +0.000 OA
BRANCH  17  28
ATOM     28  O5  UNL     1      -0.707  -1.566   1.020  0.00  0.00    +0.000 OA
ATOM     29  H13 UNL     1      -0.854  -2.230   1.767  0.00  0.00    +0.000 HD
ENDBRANCH  17  28
ENDBRANCH   1  16
BRANCH   1  32
ATOM     30  C2  UNL     1      -1.580   3.397   0.590  0.00  0.00    +0.000 A 
ATOM     31  C3  UNL     1      -1.327   2.081   0.169  0.00  0.00    +0.000 A 
ATOM     32  C4  UNL     1      -0.189   1.778  -0.597  0.00  0.00    +0.000 A 
ATOM     33  C26 UNL     1       0.697   2.812  -0.930  0.00  0.00    +0.000 A 
ATOM     34  C27 UNL     1       0.465   4.138  -0.517  0.00  0.00    +0.000 A 
ATOM     35  C29 UNL     1      -0.681   4.426   0.266  0.00  0.00    +0.000 A 
BRANCH  30  37
ATOM     36  C1  UNL     1      -3.753   2.812   1.692  0.00  0.00    +0.000 C 
ATOM     37  O1  UNL     1      -2.719   3.728   1.344  0.00  0.00    +0.000 OA
ENDBRANCH  30  37
BRANCH  34  38
ATOM     38  O8  UNL     1       1.348   5.170  -0.875  0.00  0.00    +0.000 OA
ATOM     39  C28 UNL     1       2.513   5.005  -1.682  0.00  0.00    +0.000 C 
ENDBRANCH  34  38
BRANCH  35  40
ATOM     40  O9  UNL     1      -0.991   5.710   0.751  0.00  0.00    +0.000 OA
ATOM     41  C30 UNL     1      -0.153   6.861   0.703  0.00  0.00    +0.000 C 
ENDBRANCH  35  40
ENDBRANCH   1  32
TORSDOF 8
