REMARK  Name = resultss/4CJN/ligands/lig_438_t0.pdb
REMARK  10 active torsions:
REMARK  status: ('A' for Active; 'I' for Inactive)
REMARK    1  A    between atoms: C1_1  and  O1_2
REMARK    2  A    between atoms: O1_2  and  C2_3
REMARK    3  A    between atoms: C5_6  and  O2_7
REMARK    4  A    between atoms: O2_7  and  C6_8
REMARK    5  A    between atoms: C7_9  and  N1_10
REMARK    6  A    between atoms: N1_10  and  C8_11
REMARK    7  A    between atoms: C8_11  and  N2_13
REMARK    8  A    between atoms: N2_13  and  N3_14
REMARK    9  A    between atoms: C9_15  and  C10_17
REMARK   10  A    between atoms: C20_28  and  C21_29
REMARK                            x       y       z     vdW  Elec       q    Type
REMARK                         _______ _______ _______ _____ _____    ______ ____
ROOT
ATOM      1  N3  UNL     1       0.480   1.690   2.556  0.00  0.00    +0.000 N 
ATOM      2  C9  UNL     1       0.267   0.372   2.024  0.00  0.00    +0.000 C 
ATOM      3  O3  UNL     1       1.143  -0.520   2.192  0.00  0.00    +0.000 OA
ATOM      4  H11 UNL     1      -0.346   2.303   2.733  0.00  0.00    +0.000 HD
ENDROOT
BRANCH   2   5
ATOM      5  C10 UNL     1      -0.979   0.051   1.300  0.00  0.00    +0.000 A 
ATOM      6  C11 UNL     1      -1.217  -1.253   0.815  0.00  0.00    +0.000 A 
ATOM      7  C12 UNL     1      -2.415  -1.475   0.148  0.00  0.00    +0.000 A 
ATOM      8  C13 UNL     1      -3.340  -0.473  -0.050  0.00  0.00    +0.000 A 
ATOM      9  N4  UNL     1      -4.451  -0.944  -0.667  0.00  0.00    +0.000 N 
ATOM     10  C14 UNL     1      -4.203  -2.256  -0.872  0.00  0.00    +0.000 A 
ATOM     11  C15 UNL     1      -5.048  -3.189  -1.470  0.00  0.00    +0.000 A 
ATOM     12  C16 UNL     1      -4.597  -4.518  -1.570  0.00  0.00    +0.000 A 
ATOM     13  C17 UNL     1      -3.327  -4.885  -1.070  0.00  0.00    +0.000 A 
ATOM     14  C18 UNL     1      -2.492  -3.928  -0.467  0.00  0.00    +0.000 A 
ATOM     15  C19 UNL     1      -2.963  -2.618  -0.388  0.00  0.00    +0.000 A 
ATOM     16  C20 UNL     1      -3.084   0.823   0.417  0.00  0.00    +0.000 A 
ATOM     17  N5  UNL     1      -1.910   1.035   1.087  0.00  0.00    +0.000 NA
ATOM     18  H13 UNL     1      -5.328  -0.430  -0.904  0.00  0.00    +0.000 HD
BRANCH  16  19
ATOM     19  C21 UNL     1      -4.019   1.951   0.220  0.00  0.00    +0.000 A 
ATOM     20  C22 UNL     1      -4.607   2.193  -1.035  0.00  0.00    +0.000 A 
ATOM     21  C23 UNL     1      -5.471   3.279  -1.212  0.00  0.00    +0.000 A 
ATOM     22  C24 UNL     1      -5.742   4.139  -0.145  0.00  0.00    +0.000 A 
ATOM     23  C25 UNL     1      -5.143   3.920   1.099  0.00  0.00    +0.000 A 
ATOM     24  C26 UNL     1      -4.280   2.835   1.280  0.00  0.00    +0.000 A 
ENDBRANCH  16  19
ENDBRANCH   2   5
BRANCH   1  25
ATOM     25  N2  UNL     1       1.733   2.111   3.038  0.00  0.00    +0.000 N 
ATOM     26  H10 UNL     1       1.759   2.753   3.862  0.00  0.00    +0.000 HD
BRANCH  25  27
ATOM     27  C8  UNL     1       2.960   1.801   2.362  0.00  0.00    +0.000 C 
ATOM     28  S1  UNL     1       4.382   2.096   3.125  0.00  0.00    +0.000 S 
BRANCH  27  29
ATOM     29  N1  UNL     1       2.944   1.489   0.959  0.00  0.00    +0.000 N 
ATOM     30  H9  UNL     1       2.162   1.878   0.386  0.00  0.00    +0.000 HD
BRANCH  29  35
ATOM     31  C2  UNL     1       5.440  -1.246   0.332  0.00  0.00    +0.000 A 
ATOM     32  C3  UNL     1       5.781  -0.983  -1.006  0.00  0.00    +0.000 A 
ATOM     33  C4  UNL     1       5.194   0.085  -1.686  0.00  0.00    +0.000 A 
ATOM     34  C5  UNL     1       4.259   0.917  -1.041  0.00  0.00    +0.000 A 
ATOM     35  C7  UNL     1       3.928   0.669   0.304  0.00  0.00    +0.000 A 
ATOM     36  C27 UNL     1       4.515  -0.418   0.975  0.00  0.00    +0.000 A 
BRANCH  31  38
ATOM     37  C1  UNL     1       6.938  -3.238   0.526  0.00  0.00    +0.000 C 
ATOM     38  O1  UNL     1       5.990  -2.316   1.053  0.00  0.00    +0.000 OA
ENDBRANCH  31  38
BRANCH  34  39
ATOM     39  O2  UNL     1       3.650   1.998  -1.698  0.00  0.00    +0.000 OA
ATOM     40  C6  UNL     1       3.911   2.375  -3.047  0.00  0.00    +0.000 C 
ENDBRANCH  34  39
ENDBRANCH  29  35
ENDBRANCH  27  29
ENDBRANCH  25  27
ENDBRANCH   1  25
TORSDOF 8
