REMARK  Name = resultss/4CJN/ligands/lig_331_t2.pdb
REMARK  13 active torsions:
REMARK  status: ('A' for Active; 'I' for Inactive)
REMARK    1  A    between atoms: C1_1  and  O1_2
REMARK    2  A    between atoms: O1_2  and  C2_3
REMARK    3  A    between atoms: C4_5  and  C5_6
REMARK    4  A    between atoms: C8_10  and  C9_11
REMARK    5  A    between atoms: C9_11  and  C10_12
REMARK    6  A    between atoms: C10_12  and  C11_13
REMARK    7  A    between atoms: C18_21  and  O4_22
REMARK    8  A    between atoms: O4_22  and  C19_23
REMARK    9  A    between atoms: C21_26  and  C22_27
REMARK   10  A    between atoms: C22_27  and  O6_28
REMARK   11  A    between atoms: C24_30  and  O7_31
REMARK   12  A    between atoms: O7_31  and  C25_32
REMARK   13  A    between atoms: C26_33  and  O8_34
REMARK                            x       y       z     vdW  Elec       q    Type
REMARK                         _______ _______ _______ _____ _____    ______ ____
ROOT
ATOM      1  C5  UNL     1      -2.418  -0.596   0.831  0.00  0.00    +0.000 C 
ATOM      2  O2  UNL     1      -1.116  -0.001   0.824  0.00  0.00    +0.000 OA
ATOM      3  C6  UNL     1       0.016  -0.730   0.452  0.00  0.00    +0.000 A 
ATOM      4  C7  UNL     1       1.295  -0.229   0.701  0.00  0.00    +0.000 A 
ATOM      5  C8  UNL     1       2.426  -0.988   0.360  0.00  0.00    +0.000 A 
ATOM      6  C17 UNL     1       2.260  -2.241  -0.255  0.00  0.00    +0.000 A 
ATOM      7  C18 UNL     1       0.971  -2.742  -0.524  0.00  0.00    +0.000 A 
ATOM      8  C20 UNL     1      -0.145  -1.971  -0.177  0.00  0.00    +0.000 A 
ATOM      9  O5  UNL     1      -1.438  -2.425  -0.457  0.00  0.00    +0.000 OA
ATOM     10  C21 UNL     1      -2.569  -1.550  -0.383  0.00  0.00    +0.000 C 
ENDROOT
BRANCH   1  13
ATOM     11  C2  UNL     1      -4.371   2.555  -0.113  0.00  0.00    +0.000 A 
ATOM     12  C3  UNL     1      -3.382   1.556  -0.084  0.00  0.00    +0.000 A 
ATOM     13  C4  UNL     1      -3.469   0.490   0.824  0.00  0.00    +0.000 A 
ATOM     14  C23 UNL     1      -4.566   0.418   1.696  0.00  0.00    +0.000 A 
ATOM     15  C24 UNL     1      -5.565   1.408   1.676  0.00  0.00    +0.000 A 
ATOM     16  C26 UNL     1      -5.458   2.477   0.768  0.00  0.00    +0.000 A 
BRANCH  11  18
ATOM     17  C1  UNL     1      -3.270   3.846  -1.953  0.00  0.00    +0.000 C 
ATOM     18  O1  UNL     1      -4.311   3.639  -1.005  0.00  0.00    +0.000 OA
ENDBRANCH  11  18
BRANCH  15  19
ATOM     19  O7  UNL     1      -6.673   1.360   2.538  0.00  0.00    +0.000 OA
ATOM     20  C25 UNL     1      -6.909   0.334   3.496  0.00  0.00    +0.000 C 
ENDBRANCH  15  19
BRANCH  16  21
ATOM     21  O8  UNL     1      -6.432   3.477   0.727  0.00  0.00    +0.000 OA
ATOM     22  H28 UNL     1      -7.239   3.473   1.339  0.00  0.00    +0.000 HD
ENDBRANCH  16  21
ENDBRANCH   1  13
BRANCH   7  23
ATOM     23  O4  UNL     1       0.761  -3.986  -1.138  0.00  0.00    +0.000 OA
ATOM     24  C19 UNL     1       1.802  -4.868  -1.547  0.00  0.00    +0.000 C 
ENDBRANCH   7  23
BRANCH   5  25
ATOM     25  C9  UNL     1       3.806  -0.438   0.601  0.00  0.00    +0.000 C 
BRANCH  25  26
ATOM     26  C10 UNL     1       4.291   0.350  -0.619  0.00  0.00    +0.000 C 
BRANCH  26  27
ATOM     27  C11 UNL     1       5.678   0.889  -0.385  0.00  0.00    +0.000 C 
ATOM     28  C12 UNL     1       6.844   0.048  -0.736  0.00  0.00    +0.000 C 
ATOM     29  C13 UNL     1       8.091   0.462  -0.512  0.00  0.00    +0.000 C 
ATOM     30  C14 UNL     1       8.343   1.775   0.097  0.00  0.00    +0.000 C 
ATOM     31  O3  UNL     1       9.529   2.147   0.300  0.00  0.00    +0.000 OA
ATOM     32  C15 UNL     1       7.205   2.682   0.480  0.00  0.00    +0.000 C 
ATOM     33  C16 UNL     1       5.848   2.091   0.193  0.00  0.00    +0.000 C 
ENDBRANCH  26  27
ENDBRANCH  25  26
ENDBRANCH   5  25
BRANCH  10  34
ATOM     34  C22 UNL     1      -3.858  -2.385  -0.331  0.00  0.00    +0.000 C 
BRANCH  34  35
ATOM     35  O6  UNL     1      -3.908  -3.169   0.832  0.00  0.00    +0.000 OA
ATOM     36  H23 UNL     1      -3.312  -3.947   0.678  0.00  0.00    +0.000 HD
ENDBRANCH  34  35
ENDBRANCH  10  34
TORSDOF 10
