REMARK  Name = resultss/4CJN/ligands/lig_307_t2.pdb
REMARK  4 active torsions:
REMARK  status: ('A' for Active; 'I' for Inactive)
REMARK    1  A    between atoms: C1_1  and  O1_2
REMARK    2  A    between atoms: O1_2  and  C2_3
REMARK    3  A    between atoms: C8_11  and  O4_12
REMARK    4  A    between atoms: C9_13  and  O5_14
REMARK                            x       y       z     vdW  Elec       q    Type
REMARK                         _______ _______ _______ _____ _____    ______ ____
ROOT
ATOM      1  C2  UNL     1       3.154  -0.100  -0.278  0.00  0.00    +0.000 C 
ATOM      2  C3  UNL     1       2.926   1.134   0.204  0.00  0.00    +0.000 C 
ATOM      3  C4  UNL     1       1.567   1.625   0.456  0.00  0.00    +0.000 C 
ATOM      4  O2  UNL     1       1.415   2.792   0.908  0.00  0.00    +0.000 OA
ATOM      5  C5  UNL     1       0.403   0.753   0.178  0.00  0.00    +0.000 A 
ATOM      6  C6  UNL     1      -0.928   1.162   0.397  0.00  0.00    +0.000 A 
ATOM      7  O3  UNL     1      -1.167   2.316   0.849  0.00  0.00    +0.000 OA
ATOM      8  C7  UNL     1      -1.987   0.274   0.108  0.00  0.00    +0.000 A 
ATOM      9  C8  UNL     1      -3.352   0.607   0.300  0.00  0.00    +0.000 A 
ATOM     10  C9  UNL     1      -4.352  -0.334  -0.012  0.00  0.00    +0.000 A 
ATOM     11  C10 UNL     1      -3.998  -1.594  -0.510  0.00  0.00    +0.000 A 
ATOM     12  C11 UNL     1      -2.659  -1.926  -0.700  0.00  0.00    +0.000 A 
ATOM     13  C12 UNL     1      -1.654  -1.005  -0.396  0.00  0.00    +0.000 A 
ATOM     14  O6  UNL     1      -0.386  -1.347  -0.586  0.00  0.00    +0.000 OA
ATOM     15  C13 UNL     1       0.635  -0.538  -0.326  0.00  0.00    +0.000 A 
ATOM     16  C14 UNL     1       2.026  -1.056  -0.589  0.00  0.00    +0.000 C 
ENDROOT
BRANCH   1  18
ATOM     17  C1  UNL     1       5.652   0.169  -0.293  0.00  0.00    +0.000 C 
ATOM     18  O1  UNL     1       4.456  -0.572  -0.520  0.00  0.00    +0.000 OA
ENDBRANCH   1  18
BRANCH   9  19
ATOM     19  O4  UNL     1      -3.713   1.862   0.796  0.00  0.00    +0.000 OA
ATOM     20  H5  UNL     1      -4.679   2.131   0.944  0.00  0.00    +0.000 HD
ENDBRANCH   9  19
BRANCH  10  21
ATOM     21  O5  UNL     1      -5.696  -0.013   0.174  0.00  0.00    +0.000 OA
ATOM     22  H6  UNL     1      -6.435  -0.672  -0.043  0.00  0.00    +0.000 HD
ENDBRANCH  10  21
TORSDOF 3
