REMARK  Name = resultss/4CJN/ligands/lig_278_t2.pdb
REMARK  9 active torsions:
REMARK  status: ('A' for Active; 'I' for Inactive)
REMARK    1  A    between atoms: C2_2  and  C3_3
REMARK    2  A    between atoms: C3_3  and  C4_4
REMARK    3  A    between atoms: C6_6  and  C7_7
REMARK    4  A    between atoms: C11_12  and  C12_13
REMARK    5  A    between atoms: C12_13  and  C13_14
REMARK    6  A    between atoms: C16_17  and  O2_18
REMARK    7  A    between atoms: C17_19  and  C18_20
REMARK    8  A    between atoms: C18_20  and  C19_21
REMARK    9  A    between atoms: C18_20  and  N1_29
REMARK                            x       y       z     vdW  Elec       q    Type
REMARK                         _______ _______ _______ _____ _____    ______ ____
ROOT
ATOM      1  C4  UNL     1      -0.518   0.955  -2.423  0.00  0.00    +0.000 A 
ATOM      2  C5  UNL     1       0.849   0.934  -2.124  0.00  0.00    +0.000 A 
ATOM      3  C6  UNL     1       1.297   0.571  -0.847  0.00  0.00    +0.000 A 
ATOM      4  C16 UNL     1       0.357   0.259   0.163  0.00  0.00    +0.000 A 
ATOM      5  C17 UNL     1      -1.026   0.262  -0.137  0.00  0.00    +0.000 A 
ATOM      6  C30 UNL     1      -1.446   0.621  -1.430  0.00  0.00    +0.000 A 
ENDROOT
BRANCH   3   7
ATOM      7  C7  UNL     1       2.755   0.509  -0.605  0.00  0.00    +0.000 C 
ATOM      8  C8  UNL     1       3.571   1.728  -0.796  0.00  0.00    +0.000 C 
ATOM      9  C9  UNL     1       4.874   1.737  -0.520  0.00  0.00    +0.000 C 
ATOM     10  C10 UNL     1       5.544   0.515  -0.054  0.00  0.00    +0.000 C 
ATOM     11  O1  UNL     1       6.739   0.575   0.338  0.00  0.00    +0.000 OA
ATOM     12  C11 UNL     1       4.829  -0.816  -0.084  0.00  0.00    +0.000 C 
ATOM     13  C15 UNL     1       3.331  -0.653  -0.248  0.00  0.00    +0.000 C 
BRANCH  12  14
ATOM     14  C12 UNL     1       5.401  -1.686  -1.218  0.00  0.00    +0.000 C 
BRANCH  14  15
ATOM     15  C13 UNL     1       4.890  -3.101  -1.141  0.00  0.00    +0.000 C 
ATOM     16  C14 UNL     1       3.998  -3.578  -2.013  0.00  0.00    +0.000 C 
ENDBRANCH  14  15
ENDBRANCH  12  14
ENDBRANCH   3   7
BRANCH   4  17
ATOM     17  O2  UNL     1       0.773  -0.045   1.462  0.00  0.00    +0.000 OA
ATOM     18  H16 UNL     1       1.732   0.036   1.773  0.00  0.00    +0.000 HD
ENDBRANCH   4  17
BRANCH   1  19
ATOM     19  C3  UNL     1      -0.994   1.376  -3.788  0.00  0.00    +0.000 C 
BRANCH  19  21
ATOM     20  C1  UNL     1      -0.766   3.834  -3.532  0.00  0.00    +0.000 C 
ATOM     21  C2  UNL     1      -1.547   2.773  -3.754  0.00  0.00    +0.000 C 
ENDBRANCH  19  21
ENDBRANCH   1  19
BRANCH   5  22
ATOM     22  C18 UNL     1      -2.088  -0.023   0.922  0.00  0.00    +0.000 C 
BRANCH  22  23
ATOM     23  C19 UNL     1      -2.257   1.241   1.754  0.00  0.00    +0.000 A 
ATOM     24  C20 UNL     1      -1.480   1.485   2.903  0.00  0.00    +0.000 A 
ATOM     25  C21 UNL     1      -1.609   2.687   3.606  0.00  0.00    +0.000 A 
ATOM     26 CL1  UNL     1      -0.643   2.971   5.041  0.00  0.00    +0.000 Cl
ATOM     27  C22 UNL     1      -2.505   3.664   3.162  0.00  0.00    +0.000 A 
ATOM     28  C23 UNL     1      -3.272   3.440   2.016  0.00  0.00    +0.000 A 
ATOM     29 CL2  UNL     1      -4.383   4.674   1.450  0.00  0.00    +0.000 Cl
ATOM     30  C24 UNL     1      -3.147   2.238   1.314  0.00  0.00    +0.000 A 
ENDBRANCH  22  23
BRANCH  22  31
ATOM     31  N1  UNL     1      -1.776  -1.227   1.750  0.00  0.00    +0.000 NA
ATOM     32  C25 UNL     1      -2.813  -1.532   2.770  0.00  0.00    +0.000 C 
ATOM     33  C26 UNL     1      -4.105  -2.106   2.163  0.00  0.00    +0.000 C 
ATOM     34  C27 UNL     1      -3.807  -3.335   1.303  0.00  0.00    +0.000 C 
ATOM     35  C28 UNL     1      -2.724  -3.028   0.270  0.00  0.00    +0.000 C 
ATOM     36  C29 UNL     1      -1.477  -2.447   0.954  0.00  0.00    +0.000 C 
ENDBRANCH  22  31
ENDBRANCH   5  22
TORSDOF 9
