REMARK  Name = resultss/4CJN/ligands/lig_335_t1.pdb
REMARK  14 active torsions:
REMARK  status: ('A' for Active; 'I' for Inactive)
REMARK    1  A    between atoms: C1_1  and  O1_2
REMARK    2  A    between atoms: O1_2  and  C2_3
REMARK    3  A    between atoms: C4_5  and  C5_6
REMARK    4  A    between atoms: N2_16  and  N3_17
REMARK    5  A    between atoms: N3_17  and  C13_18
REMARK    6  A    between atoms: C21_26  and  O3_27
REMARK    7  A    between atoms: O3_27  and  C22_28
REMARK    8  A    between atoms: C22_28  and  C23_29
REMARK    9  A    between atoms: N4_31  and  C25_32
REMARK   10  A    between atoms: C25_32  and  C26_33
REMARK   11  A    between atoms: C26_33  and  O4_34
REMARK   12  A    between atoms: N5_35  and  C27_36
REMARK   13  A    between atoms: C27_36  and  C28_37
REMARK   14  A    between atoms: C31_40  and  C32_41
REMARK                            x       y       z     vdW  Elec       q    Type
REMARK                         _______ _______ _______ _____ _____    ______ ____
ROOT
ATOM      1  C2  UNL     1      -1.844   1.905  -0.250  0.00  0.00    +0.000 A 
ATOM      2  C3  UNL     1      -3.176   1.485  -0.067  0.00  0.00    +0.000 A 
ATOM      3  C4  UNL     1      -3.697   0.408  -0.804  0.00  0.00    +0.000 A 
ATOM      4  C19 UNL     1      -2.864  -0.264  -1.711  0.00  0.00    +0.000 A 
ATOM      5  C20 UNL     1      -1.543   0.147  -1.898  0.00  0.00    +0.000 A 
ATOM      6  C21 UNL     1      -1.026   1.237  -1.173  0.00  0.00    +0.000 A 
ENDROOT
BRANCH   3   7
ATOM      7  C5  UNL     1      -5.119  -0.060  -0.590  0.00  0.00    +0.000 C 
ATOM      8  N1  UNL     1      -6.056   1.049  -0.802  0.00  0.00    +0.000 N 
ATOM      9  C6  UNL     1      -6.608   1.824   0.269  0.00  0.00    +0.000 A 
ATOM     10  C7  UNL     1      -7.276   3.028  -0.003  0.00  0.00    +0.000 A 
ATOM     11  C8  UNL     1      -7.805   3.790   1.041  0.00  0.00    +0.000 A 
ATOM     12  C9  UNL     1      -7.674   3.354   2.362  0.00  0.00    +0.000 A 
ATOM     13  C10 UNL     1      -7.016   2.152   2.640  0.00  0.00    +0.000 A 
ATOM     14  C11 UNL     1      -6.482   1.381   1.593  0.00  0.00    +0.000 A 
ATOM     15  C12 UNL     1      -5.800   0.101   1.848  0.00  0.00    +0.000 C 
ATOM     16  O2  UNL     1      -5.716  -0.345   3.025  0.00  0.00    +0.000 OA
ATOM     17  N2  UNL     1      -5.253  -0.657   0.754  0.00  0.00    +0.000 N 
ATOM     18  H6  UNL     1      -6.208   1.369  -1.786  0.00  0.00    +0.000 HD
BRANCH  17  19
ATOM     19  N3  UNL     1      -4.566  -1.854   1.043  0.00  0.00    +0.000 N 
ATOM     20  H11 UNL     1      -3.961  -1.900   1.894  0.00  0.00    +0.000 HD
BRANCH  19  21
ATOM     21  C13 UNL     1      -4.632  -3.008   0.192  0.00  0.00    +0.000 A 
ATOM     22  C14 UNL     1      -5.809  -3.320  -0.511  0.00  0.00    +0.000 A 
ATOM     23  C15 UNL     1      -5.861  -4.456  -1.324  0.00  0.00    +0.000 A 
ATOM     24  C16 UNL     1      -4.746  -5.293  -1.432  0.00  0.00    +0.000 A 
ATOM     25  C17 UNL     1      -3.580  -4.998  -0.720  0.00  0.00    +0.000 A 
ATOM     26  C18 UNL     1      -3.525  -3.864   0.096  0.00  0.00    +0.000 A 
ENDBRANCH  19  21
ENDBRANCH  17  19
ENDBRANCH   3   7
BRANCH   1  28
ATOM     27  C1  UNL     1      -2.005   3.746   1.439  0.00  0.00    +0.000 C 
ATOM     28  O1  UNL     1      -1.298   2.981   0.467  0.00  0.00    +0.000 OA
ENDBRANCH   1  28
BRANCH   6  29
ATOM     29  O3  UNL     1       0.294   1.684  -1.341  0.00  0.00    +0.000 OA
BRANCH  29  30
ATOM     30  C22 UNL     1       1.239   1.097  -2.231  0.00  0.00    +0.000 C 
BRANCH  30  31
ATOM     31  C23 UNL     1       2.523   1.852  -2.155  0.00  0.00    +0.000 A 
ATOM     32  C24 UNL     1       3.414   1.857  -1.106  0.00  0.00    +0.000 A 
ATOM     33  N4  UNL     1       4.397   2.703  -1.460  0.00  0.00    +0.000 N 
ATOM     34  N6  UNL     1       4.124   3.186  -2.663  0.00  0.00    +0.000 NA
ATOM     35  N7  UNL     1       2.979   2.690  -3.109  0.00  0.00    +0.000 NA
BRANCH  33  36
ATOM     36  C25 UNL     1       5.608   3.008  -0.707  0.00  0.00    +0.000 C 
BRANCH  36  37
ATOM     37  C26 UNL     1       6.750   2.166  -1.211  0.00  0.00    +0.000 C 
ATOM     38  N5  UNL     1       7.141   1.072  -0.620  0.00  0.00    +0.000 NA
BRANCH  37  39
ATOM     39  O4  UNL     1       7.386   2.564  -2.384  0.00  0.00    +0.000 OA
ATOM     40  H24 UNL     1       8.150   2.024  -2.774  0.00  0.00    +0.000 HD
ENDBRANCH  37  39
BRANCH  38  41
ATOM     41  C27 UNL     1       6.584   0.514   0.609  0.00  0.00    +0.000 C 
BRANCH  41  42
ATOM     42  C28 UNL     1       7.233  -0.809   0.893  0.00  0.00    +0.000 A 
ATOM     43  C29 UNL     1       6.653  -1.997   0.422  0.00  0.00    +0.000 A 
ATOM     44  C30 UNL     1       7.268  -3.228   0.668  0.00  0.00    +0.000 A 
ATOM     45  C31 UNL     1       8.484  -3.285   1.366  0.00  0.00    +0.000 A 
ATOM     46  C32 UNL     1       9.122  -4.607   1.669  0.00  0.00    +0.000 C 
ATOM     47  C33 UNL     1       9.065  -2.097   1.836  0.00  0.00    +0.000 A 
ATOM     48  C34 UNL     1       8.450  -0.866   1.590  0.00  0.00    +0.000 A 
ENDBRANCH  41  42
ENDBRANCH  38  41
ENDBRANCH  36  37
ENDBRANCH  33  36
ENDBRANCH  30  31
ENDBRANCH  29  30
ENDBRANCH   6  29
TORSDOF 12
