REMARK  Name = resultss/4CJN/ligands/lig_336_t2.pdb
REMARK  13 active torsions:
REMARK  status: ('A' for Active; 'I' for Inactive)
REMARK    1  A    between atoms: C1_1  and  O1_2
REMARK    2  A    between atoms: O1_2  and  C2_3
REMARK    3  A    between atoms: C4_5  and  C5_6
REMARK    4  A    between atoms: C12_14  and  O2_15
REMARK    5  A    between atoms: N2_16  and  N3_17
REMARK    6  A    between atoms: N3_17  and  C13_18
REMARK    7  A    between atoms: C21_26  and  O3_27
REMARK    8  A    between atoms: O3_27  and  C22_28
REMARK    9  A    between atoms: C22_28  and  C23_29
REMARK   10  A    between atoms: N4_31  and  C25_32
REMARK   11  A    between atoms: C25_32  and  C26_33
REMARK   12  A    between atoms: N5_35  and  C27_36
REMARK   13  A    between atoms: C27_36  and  C28_37
REMARK                            x       y       z     vdW  Elec       q    Type
REMARK                         _______ _______ _______ _____ _____    ______ ____
ROOT
ATOM      1  C2  UNL     1      -1.401  -1.043  -1.825  0.00  0.00    +0.000 A 
ATOM      2  C3  UNL     1      -2.641  -0.388  -1.583  0.00  0.00    +0.000 A 
ATOM      3  C4  UNL     1      -3.114  -0.188  -0.303  0.00  0.00    +0.000 A 
ATOM      4  C19 UNL     1      -2.434  -0.776   0.780  0.00  0.00    +0.000 A 
ATOM      5  C20 UNL     1      -1.280  -1.545   0.547  0.00  0.00    +0.000 A 
ATOM      6  C21 UNL     1      -0.733  -1.609  -0.745  0.00  0.00    +0.000 A 
ENDROOT
BRANCH   3   7
ATOM      7  C5  UNL     1      -4.250   0.766  -0.083  0.00  0.00    +0.000 C 
ATOM      8  N1  UNL     1      -3.718   2.132  -0.025  0.00  0.00    +0.000 NA
ATOM      9  C6  UNL     1      -4.363   3.101   0.561  0.00  0.00    +0.000 A 
ATOM     10  C7  UNL     1      -3.906   4.412   0.438  0.00  0.00    +0.000 A 
ATOM     11  C8  UNL     1      -4.677   5.458   0.962  0.00  0.00    +0.000 A 
ATOM     12  C9  UNL     1      -5.876   5.199   1.614  0.00  0.00    +0.000 A 
ATOM     13  C10 UNL     1      -6.295   3.886   1.822  0.00  0.00    +0.000 A 
ATOM     14  C11 UNL     1      -5.532   2.813   1.329  0.00  0.00    +0.000 A 
ATOM     15  C12 UNL     1      -5.866   1.529   1.625  0.00  0.00    +0.000 C 
ATOM     16  N2  UNL     1      -5.062   0.480   1.127  0.00  0.00    +0.000 N 
BRANCH  15  17
ATOM     17  O2  UNL     1      -6.980   1.230   2.403  0.00  0.00    +0.000 OA
ATOM     18  H10 UNL     1      -7.810   0.816   1.985  0.00  0.00    +0.000 HD
ENDBRANCH  15  17
BRANCH  16  19
ATOM     19  N3  UNL     1      -5.287  -0.850   1.580  0.00  0.00    +0.000 N 
ATOM     20  H11 UNL     1      -5.182  -1.047   2.601  0.00  0.00    +0.000 HD
BRANCH  19  21
ATOM     21  C13 UNL     1      -5.812  -1.857   0.724  0.00  0.00    +0.000 A 
ATOM     22  C14 UNL     1      -7.132  -1.775   0.243  0.00  0.00    +0.000 A 
ATOM     23  C15 UNL     1      -7.661  -2.791  -0.559  0.00  0.00    +0.000 A 
ATOM     24  C16 UNL     1      -6.846  -3.884  -0.907  0.00  0.00    +0.000 A 
ATOM     25  C17 UNL     1      -5.532  -3.966  -0.424  0.00  0.00    +0.000 A 
ATOM     26  C18 UNL     1      -5.008  -2.959   0.392  0.00  0.00    +0.000 A 
ENDBRANCH  19  21
ENDBRANCH  16  19
ENDBRANCH   3   7
BRANCH   1  28
ATOM     27  C1  UNL     1      -1.258  -0.467  -4.286  0.00  0.00    +0.000 C 
ATOM     28  O1  UNL     1      -0.882  -1.234  -3.117  0.00  0.00    +0.000 OA
ENDBRANCH   1  28
BRANCH   6  29
ATOM     29  O3  UNL     1       0.537  -2.230  -0.978  0.00  0.00    +0.000 OA
BRANCH  29  30
ATOM     30  C22 UNL     1       1.689  -2.037  -0.151  0.00  0.00    +0.000 C 
BRANCH  30  31
ATOM     31  C23 UNL     1       2.732  -1.384  -0.928  0.00  0.00    +0.000 A 
ATOM     32  C24 UNL     1       3.166  -0.090  -0.813  0.00  0.00    +0.000 A 
ATOM     33  N4  UNL     1       4.256   0.002  -1.589  0.00  0.00    +0.000 N 
ATOM     34  N6  UNL     1       4.481  -1.182  -2.142  0.00  0.00    +0.000 NA
ATOM     35  N7  UNL     1       3.548  -2.048  -1.757  0.00  0.00    +0.000 NA
BRANCH  33  36
ATOM     36  C25 UNL     1       5.071   1.182  -1.816  0.00  0.00    +0.000 C 
BRANCH  36  37
ATOM     37  C26 UNL     1       6.449   0.992  -1.291  0.00  0.00    +0.000 C 
ATOM     38  O4  UNL     1       7.456   1.485  -1.896  0.00  0.00    +0.000 OA
ATOM     39  N5  UNL     1       6.654   0.241  -0.102  0.00  0.00    +0.000 N 
ATOM     40  H24 UNL     1       6.005   0.379   0.725  0.00  0.00    +0.000 HD
BRANCH  39  41
ATOM     41  C27 UNL     1       7.673  -0.794   0.003  0.00  0.00    +0.000 C 
BRANCH  41  42
ATOM     42  C28 UNL     1       8.612  -0.439   1.123  0.00  0.00    +0.000 A 
ATOM     43  C29 UNL     1       8.441  -1.003   2.400  0.00  0.00    +0.000 A 
ATOM     44  C30 UNL     1       9.215  -0.538   3.481  0.00  0.00    +0.000 A 
ATOM     45  C31 UNL     1      10.177   0.465   3.293  0.00  0.00    +0.000 A 
ATOM     46  C32 UNL     1      10.351   1.033   2.017  0.00  0.00    +0.000 A 
ATOM     47  C33 UNL     1       9.596   0.561   0.924  0.00  0.00    +0.000 A 
ENDBRANCH  41  42
ENDBRANCH  39  41
ENDBRANCH  36  37
ENDBRANCH  33  36
ENDBRANCH  30  31
ENDBRANCH  29  30
ENDBRANCH   6  29
TORSDOF 12
