REMARK  Name = resultss/4CJN/ligands/lig_414_t1.pdb
REMARK  5 active torsions:
REMARK  status: ('A' for Active; 'I' for Inactive)
REMARK    1  A    between atoms: C1_2  and  C9_15
REMARK    2  A    between atoms: N1_3  and  N2_4
REMARK    3  A    between atoms: C2_5  and  S1_6
REMARK    4  A    between atoms: N3_7  and  C3_8
REMARK    5  A    between atoms: C19_26  and  C20_27
REMARK                            x       y       z     vdW  Elec       q    Type
REMARK                         _______ _______ _______ _____ _____    ______ ____
ROOT
ATOM      1  C9  UNL     1      -0.285  -0.472  -0.236  0.00  0.00    +0.000 A 
ATOM      2  C10 UNL     1      -0.898  -1.507  -0.975  0.00  0.00    +0.000 A 
ATOM      3  C11 UNL     1      -2.285  -1.488  -1.067  0.00  0.00    +0.000 A 
ATOM      4  C12 UNL     1      -3.045  -0.504  -0.473  0.00  0.00    +0.000 A 
ATOM      5  N4  UNL     1      -4.369  -0.734  -0.644  0.00  0.00    +0.000 N 
ATOM      6  C13 UNL     1      -4.430  -1.870  -1.372  0.00  0.00    +0.000 A 
ATOM      7  C14 UNL     1      -5.579  -2.533  -1.802  0.00  0.00    +0.000 A 
ATOM      8  C15 UNL     1      -5.417  -3.722  -2.539  0.00  0.00    +0.000 A 
ATOM      9  C16 UNL     1      -4.126  -4.222  -2.822  0.00  0.00    +0.000 A 
ATOM     10  C17 UNL     1      -2.981  -3.539  -2.372  0.00  0.00    +0.000 A 
ATOM     11  C18 UNL     1      -3.172  -2.361  -1.652  0.00  0.00    +0.000 A 
ATOM     12  C19 UNL     1      -2.425   0.529   0.243  0.00  0.00    +0.000 A 
ATOM     13  N5  UNL     1      -1.061   0.500   0.343  0.00  0.00    +0.000 NA
ATOM     14  H9  UNL     1      -5.175  -0.187  -0.270  0.00  0.00    +0.000 HD
ENDROOT
BRANCH  12  15
ATOM     15  C20 UNL     1      -3.175   1.628   0.887  0.00  0.00    +0.000 A 
ATOM     16  C21 UNL     1      -4.191   2.313   0.197  0.00  0.00    +0.000 A 
ATOM     17  C22 UNL     1      -4.873   3.368   0.811  0.00  0.00    +0.000 A 
ATOM     18  C23 UNL     1      -4.538   3.757   2.110  0.00  0.00    +0.000 A 
ATOM     19  C24 UNL     1      -3.514   3.097   2.795  0.00  0.00    +0.000 A 
ATOM     20  C25 UNL     1      -2.830   2.041   2.184  0.00  0.00    +0.000 A 
ENDBRANCH  12  15
BRANCH   1  22
ATOM     21  O1  UNL     1       1.905  -1.303  -0.622  0.00  0.00    +0.000 OA
ATOM     22  C1  UNL     1       1.184  -0.424  -0.076  0.00  0.00    +0.000 C 
ATOM     23  N1  UNL     1       1.802   0.614   0.695  0.00  0.00    +0.000 N 
ATOM     24  H1  UNL     1       1.204   1.339   1.148  0.00  0.00    +0.000 HD
BRANCH  23  25
ATOM     25  N2  UNL     1       3.202   0.646   0.823  0.00  0.00    +0.000 NA
ATOM     26  C2  UNL     1       3.859   1.542   1.501  0.00  0.00    +0.000 C 
ATOM     27  N3  UNL     1       5.290   1.471   1.586  0.00  0.00    +0.000 N 
ATOM     28  H3  UNL     1       5.752   1.981   2.373  0.00  0.00    +0.000 HD
BRANCH  27  29
ATOM     29  C3  UNL     1       6.116   0.665   0.727  0.00  0.00    +0.000 A 
ATOM     30  C4  UNL     1       7.290   0.093   1.239  0.00  0.00    +0.000 A 
ATOM     31  C5  UNL     1       8.118  -0.678   0.418  0.00  0.00    +0.000 A 
ATOM     32  C6  UNL     1       7.788  -0.872  -0.926  0.00  0.00    +0.000 A 
ATOM     33  C7  UNL     1       6.633  -0.288  -1.453  0.00  0.00    +0.000 A 
ATOM     34 BR1  UNL     1       6.193  -0.536  -3.295  0.00  0.00    +0.000 Br
ATOM     35  C8  UNL     1       5.803   0.486  -0.634  0.00  0.00    +0.000 A 
ENDBRANCH  27  29
BRANCH  26  36
ATOM     36  S1  UNL     1       3.017   2.841   2.415  0.00  0.00    +0.000 S 
ATOM     37  H2  UNL     1       2.915   2.038   3.566  0.00  0.00    +0.000 HD
ENDBRANCH  26  36
ENDBRANCH  23  25
ENDBRANCH   1  22
TORSDOF 5
