REMARK  Name = resultss/4CJN/ligands/lig_373_t1.pdb
REMARK  9 active torsions:
REMARK  status: ('A' for Active; 'I' for Inactive)
REMARK    1  A    between atoms: C1_1  and  C2_2
REMARK    2  A    between atoms: C2_2  and  O1_3
REMARK    3  A    between atoms: O1_3  and  C3_4
REMARK    4  A    between atoms: C5_6  and  C6_7
REMARK    5  A    between atoms: C6_7  and  C7_8
REMARK    6  A    between atoms: C6_7  and  C16_21
REMARK    7  A    between atoms: C15_19  and  O4_20
REMARK    8  A    between atoms: C17_22  and  O5_23
REMARK    9  A    between atoms: C27_36  and  O8_37
REMARK                            x       y       z     vdW  Elec       q    Type
REMARK                         _______ _______ _______ _____ _____    ______ ____
ROOT
ATOM      1  C6  UNL     1      -0.889   0.701   0.728  0.00  0.00    +0.000 C 
ENDROOT
BRANCH   1   2
ATOM      2  C7  UNL     1      -2.105  -0.059   0.179  0.00  0.00    +0.000 A 
ATOM      3  C8  UNL     1      -2.140  -1.463  -0.009  0.00  0.00    +0.000 A 
ATOM      4  O2  UNL     1      -1.136  -2.176   0.261  0.00  0.00    +0.000 OA
ATOM      5  C9  UNL     1      -3.300  -2.068  -0.521  0.00  0.00    +0.000 A 
ATOM      6  C10 UNL     1      -3.398  -3.460  -0.712  0.00  0.00    +0.000 A 
ATOM      7  C11 UNL     1      -4.574  -4.019  -1.226  0.00  0.00    +0.000 A 
ATOM      8 CL1  UNL     1      -4.691  -5.754  -1.460  0.00  0.00    +0.000 Cl
ATOM      9  C12 UNL     1      -5.656  -3.196  -1.554  0.00  0.00    +0.000 A 
ATOM     10  C13 UNL     1      -5.567  -1.814  -1.371  0.00  0.00    +0.000 A 
ATOM     11  C14 UNL     1      -4.395  -1.246  -0.858  0.00  0.00    +0.000 A 
ATOM     12  O3  UNL     1      -4.321   0.068  -0.697  0.00  0.00    +0.000 OA
ATOM     13  C15 UNL     1      -3.246   0.679  -0.212  0.00  0.00    +0.000 A 
BRANCH  13  14
ATOM     14  O4  UNL     1      -3.259   2.067  -0.098  0.00  0.00    +0.000 OA
ATOM     15  H11 UNL     1      -4.072   2.602  -0.378  0.00  0.00    +0.000 HD
ENDBRANCH  13  14
ENDBRANCH   1   2
BRANCH   1  16
ATOM     16  C16 UNL     1      -0.085   1.454  -0.343  0.00  0.00    +0.000 A 
ATOM     17  C17 UNL     1       0.578   2.669  -0.025  0.00  0.00    +0.000 A 
ATOM     18  C18 UNL     1       1.254   3.372  -1.035  0.00  0.00    +0.000 A 
ATOM     19  C19 UNL     1       1.888   4.605  -0.788  0.00  0.00    +0.000 A 
ATOM     20  C20 UNL     1       2.556   5.272  -1.821  0.00  0.00    +0.000 A 
ATOM     21 CL2  UNL     1       3.340   6.810  -1.508  0.00  0.00    +0.000 Cl
ATOM     22  C21 UNL     1       2.600   4.714  -3.102  0.00  0.00    +0.000 A 
ATOM     23  C22 UNL     1       1.979   3.489  -3.355  0.00  0.00    +0.000 A 
ATOM     24  C23 UNL     1       1.309   2.815  -2.328  0.00  0.00    +0.000 A 
ATOM     25  O6  UNL     1       0.740   1.645  -2.577  0.00  0.00    +0.000 OA
ATOM     26  C24 UNL     1       0.075   0.952  -1.661  0.00  0.00    +0.000 A 
ATOM     27  O7  UNL     1      -0.397  -0.167  -1.992  0.00  0.00    +0.000 OA
BRANCH  17  28
ATOM     28  O5  UNL     1       0.600   3.186   1.277  0.00  0.00    +0.000 OA
ATOM     29  H12 UNL     1       0.283   2.685   2.095  0.00  0.00    +0.000 HD
ENDBRANCH  17  28
ENDBRANCH   1  16
BRANCH   1  32
ATOM     30  C3  UNL     1       2.002  -1.440   2.129  0.00  0.00    +0.000 A 
ATOM     31  C4  UNL     1       1.217  -0.674   1.245  0.00  0.00    +0.000 A 
ATOM     32  C5  UNL     1      -0.006  -0.113   1.666  0.00  0.00    +0.000 A 
ATOM     33  C25 UNL     1      -0.443  -0.352   2.980  0.00  0.00    +0.000 A 
ATOM     34  C26 UNL     1       0.330  -1.110   3.859  0.00  0.00    +0.000 A 
ATOM     35  C27 UNL     1       1.549  -1.652   3.443  0.00  0.00    +0.000 A 
BRANCH  35  36
ATOM     36  O8  UNL     1       2.296  -2.404   4.351  0.00  0.00    +0.000 OA
ATOM     37  H18 UNL     1       3.185  -2.821   4.104  0.00  0.00    +0.000 HD
ENDBRANCH  35  36
BRANCH  30  38
ATOM     38  O1  UNL     1       3.227  -2.004   1.737  0.00  0.00    +0.000 OA
BRANCH  38  40
ATOM     39  C1  UNL     1       5.131  -2.607   0.396  0.00  0.00    +0.000 C 
ATOM     40  C2  UNL     1       3.803  -1.867   0.441  0.00  0.00    +0.000 C 
ENDBRANCH  38  40
ENDBRANCH  30  38
ENDBRANCH   1  32
TORSDOF 8
