REMARK  Name = resultss/4CJN/ligands/lig_16_t0.pdb
REMARK  6 active torsions:
REMARK  status: ('A' for Active; 'I' for Inactive)
REMARK    1  A    between atoms: O1_1  and  C1_2
REMARK    2  A    between atoms: C1_2  and  C2_3
REMARK    3  A    between atoms: C3_5  and  C4_6
REMARK    4  A    between atoms: C4_6  and  O2_7
REMARK    5  A    between atoms: C5_8  and  O3_9
REMARK    6  A    between atoms: C6_10  and  O4_11
REMARK                            x       y       z     vdW  Elec       q    Type
REMARK                         _______ _______ _______ _____ _____    ______ ____
ROOT
ATOM      1  C2  UNL     1      -1.212  -0.416  -0.059  0.00  0.00    +0.000 C 
ATOM      2  N1  UNL     1      -0.092  -1.038  -0.779  0.00  0.00    +0.000 NA
ATOM      3  C3  UNL     1       1.098  -0.225  -0.502  0.00  0.00    +0.000 C 
ATOM      4  C5  UNL     1       0.843   0.496   0.815  0.00  0.00    +0.000 C 
ATOM      5  C6  UNL     1      -0.653   0.743   0.788  0.00  0.00    +0.000 C 
ATOM      6  H5  UNL     1       0.043  -2.003  -0.393  0.00  0.00    +0.000 HD
ENDROOT
BRANCH   4   7
ATOM      7  O3  UNL     1       1.560   1.702   0.871  0.00  0.00    +0.000 OA
ATOM      8  H11 UNL     1       1.479   2.033   1.804  0.00  0.00    +0.000 HD
ENDBRANCH   4   7
BRANCH   5   9
ATOM      9  O4  UNL     1      -1.173   0.723   2.091  0.00  0.00    +0.000 OA
ATOM     10  H13 UNL     1      -2.099   1.074   2.030  0.00  0.00    +0.000 HD
ENDBRANCH   5   9
BRANCH   1  11
ATOM     11  C1  UNL     1      -2.267   0.058  -1.070  0.00  0.00    +0.000 C 
BRANCH  11  12
ATOM     12  O1  UNL     1      -3.363   0.637  -0.414  0.00  0.00    +0.000 OA
ATOM     13  H1  UNL     1      -3.882  -0.110  -0.016  0.00  0.00    +0.000 HD
ENDBRANCH  11  12
ENDBRANCH   1  11
BRANCH   3  14
ATOM     14  C4  UNL     1       2.382  -1.076  -0.478  0.00  0.00    +0.000 C 
BRANCH  14  15
ATOM     15  O2  UNL     1       3.511  -0.267  -0.284  0.00  0.00    +0.000 OA
ATOM     16  H9  UNL     1       3.677   0.200  -1.144  0.00  0.00    +0.000 HD
ENDBRANCH  14  15
ENDBRANCH   3  14
TORSDOF 6
