REMARK  Name = resultss/4CJN/ligands/lig_422_t0.pdb
REMARK  8 active torsions:
REMARK  status: ('A' for Active; 'I' for Inactive)
REMARK    1  A    between atoms: C1_2  and  C10_19
REMARK    2  A    between atoms: N1_3  and  N2_4
REMARK    3  A    between atoms: N2_4  and  C2_5
REMARK    4  A    between atoms: C2_5  and  N3_7
REMARK    5  A    between atoms: N3_7  and  C3_8
REMARK    6  A    between atoms: C8_13  and  O2_14
REMARK    7  A    between atoms: O2_14  and  C9_15
REMARK    8  A    between atoms: C20_30  and  C21_31
REMARK                            x       y       z     vdW  Elec       q    Type
REMARK                         _______ _______ _______ _____ _____    ______ ____
ROOT
ATOM      1  O1  UNL     1       0.655  -2.066  -1.991  0.00  0.00    +0.000 OA
ATOM      2  C1  UNL     1       0.256  -1.170  -1.198  0.00  0.00    +0.000 C 
ATOM      3  N1  UNL     1       1.214  -0.345  -0.516  0.00  0.00    +0.000 N 
ATOM      4  H1  UNL     1       0.868   0.388   0.140  0.00  0.00    +0.000 HD
ENDROOT
BRANCH   2   5
ATOM      5  C10 UNL     1      -1.194  -0.981  -0.974  0.00  0.00    +0.000 A 
ATOM      6  C11 UNL     1      -2.139  -1.809  -1.618  0.00  0.00    +0.000 A 
ATOM      7  C12 UNL     1      -3.481  -1.576  -1.342  0.00  0.00    +0.000 A 
ATOM      8  C13 UNL     1      -3.891  -0.578  -0.485  0.00  0.00    +0.000 A 
ATOM      9  N4  UNL     1      -5.236  -0.588  -0.325  0.00  0.00    +0.000 N 
ATOM     10  C14 UNL     1      -5.670  -1.598  -1.111  0.00  0.00    +0.000 A 
ATOM     11  C15 UNL     1      -6.986  -2.024  -1.285  0.00  0.00    +0.000 A 
ATOM     12  C16 UNL     1      -7.217  -3.117  -2.141  0.00  0.00    +0.000 A 
ATOM     13  C17 UNL     1      -6.141  -3.758  -2.794  0.00  0.00    +0.000 A 
ATOM     14  C18 UNL     1      -4.820  -3.315  -2.600  0.00  0.00    +0.000 A 
ATOM     15  C19 UNL     1      -4.622  -2.226  -1.752  0.00  0.00    +0.000 A 
ATOM     16  C20 UNL     1      -2.945   0.249   0.135  0.00  0.00    +0.000 A 
ATOM     17  N5  UNL     1      -1.625   0.008  -0.126  0.00  0.00    +0.000 NA
ATOM     18  H9  UNL     1      -5.820   0.017   0.294  0.00  0.00    +0.000 HD
BRANCH  16  19
ATOM     19  C21 UNL     1      -3.313   1.350   1.050  0.00  0.00    +0.000 A 
ATOM     20  C22 UNL     1      -4.329   2.262   0.714  0.00  0.00    +0.000 A 
ATOM     21  C23 UNL     1      -4.646   3.315   1.578  0.00  0.00    +0.000 A 
ATOM     22  C24 UNL     1      -3.944   3.474   2.776  0.00  0.00    +0.000 A 
ATOM     23  C25 UNL     1      -2.918   2.585   3.107  0.00  0.00    +0.000 A 
ATOM     24  C26 UNL     1      -2.598   1.532   2.246  0.00  0.00    +0.000 A 
ENDBRANCH  16  19
ENDBRANCH   2   5
BRANCH   3  25
ATOM     25  N2  UNL     1       2.597  -0.500  -0.734  0.00  0.00    +0.000 N 
ATOM     26  H2  UNL     1       2.929  -1.171  -1.463  0.00  0.00    +0.000 HD
BRANCH  25  27
ATOM     27  C2  UNL     1       3.590   0.253  -0.017  0.00  0.00    +0.000 C 
ATOM     28  S1  UNL     1       3.170   1.158   1.294  0.00  0.00    +0.000 S 
BRANCH  27  29
ATOM     29  N3  UNL     1       4.974   0.085  -0.367  0.00  0.00    +0.000 N 
ATOM     30  H3  UNL     1       5.225  -0.644  -1.072  0.00  0.00    +0.000 HD
BRANCH  29  31
ATOM     31  C3  UNL     1       6.027   0.943   0.094  0.00  0.00    +0.000 A 
ATOM     32  C4  UNL     1       5.927   2.327  -0.129  0.00  0.00    +0.000 A 
ATOM     33  C5  UNL     1       6.994   3.174   0.176  0.00  0.00    +0.000 A 
ATOM     34  C6  UNL     1       8.179   2.646   0.685  0.00  0.00    +0.000 A 
ATOM     35  C7  UNL     1       8.294   1.272   0.907  0.00  0.00    +0.000 A 
ATOM     36  C8  UNL     1       7.222   0.410   0.640  0.00  0.00    +0.000 A 
BRANCH  36  37
ATOM     37  O2  UNL     1       7.403  -0.950   0.944  0.00  0.00    +0.000 OA
BRANCH  37  38
ATOM     38  C9  UNL     1       6.408  -1.830   1.471  0.00  0.00    +0.000 C 
ATOM     39  F1  UNL     1       5.514  -1.138   2.270  0.00  0.00    +0.000 F 
ATOM     40  F2  UNL     1       7.033  -2.792   2.240  0.00  0.00    +0.000 F 
ATOM     41  F3  UNL     1       5.735  -2.465   0.446  0.00  0.00    +0.000 F 
ENDBRANCH  37  38
ENDBRANCH  36  37
ENDBRANCH  29  31
ENDBRANCH  27  29
ENDBRANCH  25  27
ENDBRANCH   3  25
TORSDOF 8
