REMARK  Name = resultss/4CJN/ligands/lig_163_t1.pdb
REMARK  6 active torsions:
REMARK  status: ('A' for Active; 'I' for Inactive)
REMARK    1  A    between atoms: O1_1  and  C1_2
REMARK    2  A    between atoms: C1_2  and  C9_13
REMARK    3  A    between atoms: N1_3  and  N2_4
REMARK    4  A    between atoms: C2_5  and  C3_6
REMARK    5  A    between atoms: C6_9  and  O2_10
REMARK    6  A    between atoms: C12_16  and  C13_17
REMARK                            x       y       z     vdW  Elec       q    Type
REMARK                         _______ _______ _______ _____ _____    ______ ____
ROOT
ATOM      1  C9  UNL     1      -0.157  -1.283  -0.638  0.00  0.00    +0.000 A 
ATOM      2  C10 UNL     1       0.155   0.069  -0.857  0.00  0.00    +0.000 A 
ATOM      3  C11 UNL     1       1.473   0.519  -0.741  0.00  0.00    +0.000 A 
ATOM      4  C12 UNL     1       2.508  -0.376  -0.418  0.00  0.00    +0.000 A 
ATOM      5  C20 UNL     1       2.196  -1.733  -0.224  0.00  0.00    +0.000 A 
ATOM      6  C21 UNL     1       0.877  -2.182  -0.341  0.00  0.00    +0.000 A 
ENDROOT
BRANCH   4   7
ATOM      7  C13 UNL     1       3.902   0.112  -0.297  0.00  0.00    +0.000 A 
ATOM      8  N3  UNL     1       4.252   1.411  -0.478  0.00  0.00    +0.000 NA
ATOM      9  C14 UNL     1       5.587   1.594  -0.309  0.00  0.00    +0.000 A 
ATOM     10  C15 UNL     1       6.237   2.823  -0.433  0.00  0.00    +0.000 A 
ATOM     11  C16 UNL     1       7.628   2.874  -0.232  0.00  0.00    +0.000 A 
ATOM     12  C17 UNL     1       8.347   1.705   0.088  0.00  0.00    +0.000 A 
ATOM     13  C18 UNL     1       7.682   0.474   0.210  0.00  0.00    +0.000 A 
ATOM     14  C19 UNL     1       6.304   0.452   0.006  0.00  0.00    +0.000 A 
ATOM     15  S1  UNL     1       5.251  -0.850   0.082  0.00  0.00    +0.000 S 
ENDBRANCH   4   7
BRANCH   1  16
ATOM     16  C1  UNL     1      -1.542  -1.788  -0.783  0.00  0.00    +0.000 C 
ATOM     17  N1  UNL     1      -2.569  -1.175  -0.271  0.00  0.00    +0.000 NA
BRANCH  16  18
ATOM     18  O1  UNL     1      -1.745  -2.979  -1.476  0.00  0.00    +0.000 OA
ATOM     19  H1  UNL     1      -2.675  -3.366  -1.592  0.00  0.00    +0.000 HD
ENDBRANCH  16  18
BRANCH  17  20
ATOM     20  N2  UNL     1      -2.459  -0.011   0.505  0.00  0.00    +0.000 NA
ATOM     21  C2  UNL     1      -3.487   0.610   1.003  0.00  0.00    +0.000 C 
BRANCH  21  22
ATOM     22  C3  UNL     1      -4.887   0.180   0.793  0.00  0.00    +0.000 A 
ATOM     23  C4  UNL     1      -5.792   0.263   1.863  0.00  0.00    +0.000 A 
ATOM     24  C5  UNL     1      -7.128  -0.110   1.692  0.00  0.00    +0.000 A 
ATOM     25  C6  UNL     1      -7.581  -0.552   0.445  0.00  0.00    +0.000 A 
ATOM     26  C7  UNL     1      -6.691  -0.612  -0.636  0.00  0.00    +0.000 A 
ATOM     27  C8  UNL     1      -5.354  -0.240  -0.466  0.00  0.00    +0.000 A 
BRANCH  25  28
ATOM     28  O2  UNL     1      -8.915  -0.921   0.288  0.00  0.00    +0.000 OA
ATOM     29  H5  UNL     1      -9.274  -1.243  -0.603  0.00  0.00    +0.000 HD
ENDBRANCH  25  28
ENDBRANCH  21  22
ENDBRANCH  17  20
ENDBRANCH   1  16
TORSDOF 6
