REMARK  Name = resultss/4CJN/ligands/lig_143_t0.pdb
REMARK  14 active torsions:
REMARK  status: ('A' for Active; 'I' for Inactive)
REMARK    1  A    between atoms: O1_1  and  C1_2
REMARK    2  A    between atoms: C1_2  and  C2_3
REMARK    3  A    between atoms: C3_4  and  O2_5
REMARK    4  A    between atoms: C4_6  and  O3_7
REMARK    5  A    between atoms: C5_8  and  O4_9
REMARK    6  A    between atoms: N1_11  and  C7_12
REMARK    7  A    between atoms: C7_12  and  C8_13
REMARK    8  A    between atoms: C8_13  and  C9_16
REMARK    9  A    between atoms: C9_16  and  C10_17
REMARK   10  A    between atoms: C10_17  and  C11_18
REMARK   11  A    between atoms: C11_18  and  O5_19
REMARK   12  A    between atoms: O5_19  and  C12_20
REMARK   13  A    between atoms: C12_20  and  C13_21
REMARK   14  A    between atoms: C16_24  and  C17_25
REMARK                            x       y       z     vdW  Elec       q    Type
REMARK                         _______ _______ _______ _____ _____    ______ ____
ROOT
ATOM      1  C8  UNL     1      -2.596   0.428  -0.348  0.00  0.00    +0.000 C 
ATOM      2  F1  UNL     1      -2.516   1.109  -1.551  0.00  0.00    +0.000 F 
ATOM      3  F2  UNL     1      -2.170  -0.875  -0.543  0.00  0.00    +0.000 F 
ENDROOT
BRANCH   1   4
ATOM      4  C7  UNL     1      -4.056   0.418   0.123  0.00  0.00    +0.000 C 
BRANCH   4  10
ATOM      5  C2  UNL     1      -5.238  -1.691  -0.469  0.00  0.00    +0.000 C 
ATOM      6  C3  UNL     1      -6.562  -1.787   0.364  0.00  0.00    +0.000 C 
ATOM      7  C4  UNL     1      -7.092  -0.407   0.804  0.00  0.00    +0.000 C 
ATOM      8  C5  UNL     1      -7.255   0.509  -0.422  0.00  0.00    +0.000 C 
ATOM      9  C6  UNL     1      -6.033   0.484  -1.378  0.00  0.00    +0.000 C 
ATOM     10  N1  UNL     1      -4.891  -0.302  -0.867  0.00  0.00    +0.000 NA
BRANCH   6  11
ATOM     11  O2  UNL     1      -6.377  -2.625   1.480  0.00  0.00    +0.000 OA
ATOM     12  H6  UNL     1      -5.717  -2.182   2.079  0.00  0.00    +0.000 HD
ENDBRANCH   6  11
BRANCH   7  13
ATOM     13  O3  UNL     1      -8.339  -0.547   1.435  0.00  0.00    +0.000 OA
ATOM     14  H8  UNL     1      -8.163  -0.841   2.367  0.00  0.00    +0.000 HD
ENDBRANCH   7  13
BRANCH   8  15
ATOM     15  O4  UNL     1      -7.551   1.824  -0.022  0.00  0.00    +0.000 OA
ATOM     16  H10 UNL     1      -6.783   2.156   0.515  0.00  0.00    +0.000 HD
ENDBRANCH   8  15
BRANCH   5  17
ATOM     17  C1  UNL     1      -5.294  -2.580  -1.727  0.00  0.00    +0.000 C 
BRANCH  17  18
ATOM     18  O1  UNL     1      -5.380  -3.938  -1.379  0.00  0.00    +0.000 OA
ATOM     19  H1  UNL     1      -4.474  -4.210  -1.073  0.00  0.00    +0.000 HD
ENDBRANCH  17  18
ENDBRANCH   5  17
ENDBRANCH   4  10
ENDBRANCH   1   4
BRANCH   1  20
ATOM     20  C9  UNL     1      -1.689   1.117   0.687  0.00  0.00    +0.000 C 
BRANCH  20  21
ATOM     21  C10 UNL     1      -0.207   1.023   0.294  0.00  0.00    +0.000 C 
BRANCH  21  22
ATOM     22  C11 UNL     1       0.679   1.857   1.232  0.00  0.00    +0.000 C 
BRANCH  22  23
ATOM     23  O5  UNL     1       2.026   1.430   1.157  0.00  0.00    +0.000 OA
BRANCH  23  24
ATOM     24  C12 UNL     1       2.713   2.110   0.128  0.00  0.00    +0.000 C 
BRANCH  24  25
ATOM     25  C13 UNL     1       4.092   1.527   0.004  0.00  0.00    +0.000 A 
ATOM     26  C14 UNL     1       5.228   2.283   0.334  0.00  0.00    +0.000 A 
ATOM     27  C15 UNL     1       6.503   1.714   0.248  0.00  0.00    +0.000 A 
ATOM     28  C16 UNL     1       6.662   0.375  -0.157  0.00  0.00    +0.000 A 
ATOM     29  C23 UNL     1       5.521  -0.377  -0.487  0.00  0.00    +0.000 A 
ATOM     30  C24 UNL     1       4.249   0.195  -0.409  0.00  0.00    +0.000 A 
BRANCH  28  31
ATOM     31  C17 UNL     1       8.011  -0.237  -0.234  0.00  0.00    +0.000 A 
ATOM     32  C18 UNL     1       8.230  -1.545   0.237  0.00  0.00    +0.000 A 
ATOM     33  C19 UNL     1       9.501  -2.122   0.156  0.00  0.00    +0.000 A 
ATOM     34  C20 UNL     1      10.565  -1.404  -0.399  0.00  0.00    +0.000 A 
ATOM     35  C21 UNL     1      10.360  -0.104  -0.867  0.00  0.00    +0.000 A 
ATOM     36  C22 UNL     1       9.091   0.479  -0.786  0.00  0.00    +0.000 A 
ENDBRANCH  28  31
ENDBRANCH  24  25
ENDBRANCH  23  24
ENDBRANCH  22  23
ENDBRANCH  21  22
ENDBRANCH  20  21
ENDBRANCH   1  20
TORSDOF 14
