REMARK  Name = resultss/4CJN/ligands/lig_390_t1.pdb
REMARK  5 active torsions:
REMARK  status: ('A' for Active; 'I' for Inactive)
REMARK    1  A    between atoms: C1_1  and  C2_2
REMARK    2  A    between atoms: C2_2  and  N1_3
REMARK    3  A    between atoms: N3_19  and  C14_20
REMARK    4  A    between atoms: C17_23  and  S2_24
REMARK    5  A    between atoms: S2_24  and  N4_25
REMARK                            x       y       z     vdW  Elec       q    Type
REMARK                         _______ _______ _______ _____ _____    ______ ____
ROOT
ATOM      1  N1  UNL     1      -0.093  -1.422   0.102  0.00  0.00    +0.000 N 
ATOM      2  C3  UNL     1       1.231  -1.526  -0.411  0.00  0.00    +0.000 C 
ATOM      3  O1  UNL     1       1.555  -2.412  -1.247  0.00  0.00    +0.000 OA
ATOM      4  C4  UNL     1       2.188  -0.605   0.217  0.00  0.00    +0.000 C 
ATOM      5  C5  UNL     1       3.315  -0.129  -0.358  0.00  0.00    +0.000 C 
ATOM      6  C6  UNL     1       3.760  -0.293  -1.758  0.00  0.00    +0.000 C 
ATOM      7  O2  UNL     1       3.147  -0.917  -2.663  0.00  0.00    +0.000 OA
ATOM      8  N2  UNL     1       4.954   0.435  -2.010  0.00  0.00    +0.000 N 
ATOM      9  C7  UNL     1       5.267   1.063  -0.777  0.00  0.00    +0.000 A 
ATOM     10  C8  UNL     1       6.383   1.862  -0.534  0.00  0.00    +0.000 A 
ATOM     11  C9  UNL     1       6.577   2.360   0.762  0.00  0.00    +0.000 A 
ATOM     12  C10 UNL     1       5.670   2.038   1.789  0.00  0.00    +0.000 A 
ATOM     13  C11 UNL     1       4.555   1.225   1.527  0.00  0.00    +0.000 A 
ATOM     14  C12 UNL     1       4.349   0.763   0.218  0.00  0.00    +0.000 A 
ATOM     15  S1  UNL     1       1.506   0.014   1.762  0.00  0.00    +0.000 S 
ATOM     16  C13 UNL     1      -0.106  -0.402   1.105  0.00  0.00    +0.000 C 
ATOM     17  N3  UNL     1      -1.130   0.363   1.351  0.00  0.00    +0.000 NA
ATOM     18  H6  UNL     1       5.474   0.509  -2.912  0.00  0.00    +0.000 HD
ENDROOT
BRANCH  17  19
ATOM     19  C14 UNL     1      -2.395   0.354   0.674  0.00  0.00    +0.000 A 
ATOM     20  C15 UNL     1      -2.474   0.295  -0.729  0.00  0.00    +0.000 A 
ATOM     21  C16 UNL     1      -3.718   0.328  -1.366  0.00  0.00    +0.000 A 
ATOM     22  C17 UNL     1      -4.893   0.439  -0.611  0.00  0.00    +0.000 A 
ATOM     23  C18 UNL     1      -4.813   0.541   0.784  0.00  0.00    +0.000 A 
ATOM     24  C19 UNL     1      -3.568   0.508   1.421  0.00  0.00    +0.000 A 
BRANCH  22  25
ATOM     25  S2  UNL     1      -6.459   0.497  -1.414  0.00  0.00    +0.000 S 
ATOM     26  O3  UNL     1      -6.410  -0.305  -2.684  0.00  0.00    +0.000 OA
ATOM     27  O4  UNL     1      -7.514  -0.087  -0.516  0.00  0.00    +0.000 OA
BRANCH  25  28
ATOM     28  N4  UNL     1      -6.861   2.137  -1.783  0.00  0.00    +0.000 NA
ATOM     29  H13 UNL     1      -6.086   2.516  -2.372  0.00  0.00    +0.000 HD
ATOM     30  H14 UNL     1      -6.841   2.666  -0.883  0.00  0.00    +0.000 HD
ENDBRANCH  25  28
ENDBRANCH  22  25
ENDBRANCH  17  19
BRANCH   1  32
ATOM     31  C1  UNL     1      -0.612  -3.606   1.116  0.00  0.00    +0.000 C 
ATOM     32  C2  UNL     1      -1.025  -2.556   0.088  0.00  0.00    +0.000 C 
ENDBRANCH   1  32
TORSDOF 4
