REMARK  Name = resultss/4CJN/ligands/lig_166_t0.pdb
REMARK  7 active torsions:
REMARK  status: ('A' for Active; 'I' for Inactive)
REMARK    1  A    between atoms: C1_1  and  O1_2
REMARK    2  A    between atoms: O1_2  and  C2_3
REMARK    3  A    between atoms: C5_6  and  C6_7
REMARK    4  A    between atoms: N1_8  and  N2_9
REMARK    5  A    between atoms: C7_10  and  C8_12
REMARK    6  A    between atoms: C11_15  and  C12_16
REMARK    7  A    between atoms: C21_27  and  O3_28
REMARK                            x       y       z     vdW  Elec       q    Type
REMARK                         _______ _______ _______ _____ _____    ______ ____
ROOT
ATOM      1  N2  UNL     1       1.393  -0.343  -0.005  0.00  0.00    +0.000 N 
ATOM      2  C7  UNL     1       0.484   0.221   0.949  0.00  0.00    +0.000 C 
ATOM      3  O2  UNL     1       0.944   0.758   1.994  0.00  0.00    +0.000 OA
ATOM      4  H7  UNL     1       1.033  -0.936  -0.786  0.00  0.00    +0.000 HD
ENDROOT
BRANCH   2   5
ATOM      5  C8  UNL     1      -0.983   0.168   0.742  0.00  0.00    +0.000 A 
ATOM      6  C9  UNL     1      -1.534   0.062  -0.548  0.00  0.00    +0.000 A 
ATOM      7  C10 UNL     1      -2.919   0.020  -0.728  0.00  0.00    +0.000 A 
ATOM      8  C11 UNL     1      -3.787   0.089   0.376  0.00  0.00    +0.000 A 
ATOM      9  C19 UNL     1      -3.237   0.208   1.663  0.00  0.00    +0.000 A 
ATOM     10  C20 UNL     1      -1.851   0.251   1.843  0.00  0.00    +0.000 A 
BRANCH   8  11
ATOM     11  C12 UNL     1      -5.257   0.045   0.196  0.00  0.00    +0.000 A 
ATOM     12  N3  UNL     1      -6.134   0.113   1.231  0.00  0.00    +0.000 NA
ATOM     13  C13 UNL     1      -7.419   0.051   0.798  0.00  0.00    +0.000 A 
ATOM     14  C14 UNL     1      -8.536   0.098   1.633  0.00  0.00    +0.000 A 
ATOM     15  C15 UNL     1      -9.815   0.023   1.054  0.00  0.00    +0.000 A 
ATOM     16  C16 UNL     1      -9.961  -0.098  -0.343  0.00  0.00    +0.000 A 
ATOM     17  C17 UNL     1      -8.830  -0.144  -1.173  0.00  0.00    +0.000 A 
ATOM     18  C18 UNL     1      -7.575  -0.068  -0.574  0.00  0.00    +0.000 A 
ATOM     19  S1  UNL     1      -6.062  -0.097  -1.294  0.00  0.00    +0.000 S 
ENDBRANCH   8  11
ENDBRANCH   2   5
BRANCH   1  21
ATOM     20  C6  UNL     1       3.633  -0.681  -0.668  0.00  0.00    +0.000 C 
ATOM     21  N1  UNL     1       2.776  -0.161   0.153  0.00  0.00    +0.000 NA
BRANCH  20  25
ATOM     22  C2  UNL     1       7.832   0.207  -0.422  0.00  0.00    +0.000 A 
ATOM     23  C3  UNL     1       7.204  -0.027  -1.656  0.00  0.00    +0.000 A 
ATOM     24  C4  UNL     1       5.844  -0.342  -1.706  0.00  0.00    +0.000 A 
ATOM     25  C5  UNL     1       5.082  -0.425  -0.529  0.00  0.00    +0.000 A 
ATOM     26  C21 UNL     1       5.726  -0.237   0.720  0.00  0.00    +0.000 A 
ATOM     27  C22 UNL     1       7.085   0.100   0.754  0.00  0.00    +0.000 A 
BRANCH  22  29
ATOM     28  C1  UNL     1      10.071   0.678  -1.432  0.00  0.00    +0.000 C 
ATOM     29  O1  UNL     1       9.192   0.539  -0.320  0.00  0.00    +0.000 OA
ENDBRANCH  22  29
BRANCH  26  30
ATOM     30  O3  UNL     1       5.071  -0.409   1.942  0.00  0.00    +0.000 OA
ATOM     31  H16 UNL     1       4.157  -0.830   2.031  0.00  0.00    +0.000 HD
ENDBRANCH  26  30
ENDBRANCH  20  25
ENDBRANCH   1  21
TORSDOF 6
