REMARK  Name = resultss/4CJN/ligands/lig_369_t2.pdb
REMARK  9 active torsions:
REMARK  status: ('A' for Active; 'I' for Inactive)
REMARK    1  A    between atoms: C1_1  and  O1_2
REMARK    2  A    between atoms: O1_2  and  C2_3
REMARK    3  A    between atoms: C5_6  and  C6_7
REMARK    4  A    between atoms: C6_7  and  C7_8
REMARK    5  A    between atoms: C6_7  and  C17_21
REMARK    6  A    between atoms: C11_13  and  C12_14
REMARK    7  A    between atoms: C16_19  and  O4_20
REMARK    8  A    between atoms: C21_26  and  C22_27
REMARK    9  A    between atoms: C26_32  and  O7_33
REMARK                            x       y       z     vdW  Elec       q    Type
REMARK                         _______ _______ _______ _____ _____    ______ ____
ROOT
ATOM      1  C6  UNL     1       0.024   0.666   0.371  0.00  0.00    +0.000 C 
ENDROOT
BRANCH   1   2
ATOM      2  C7  UNL     1      -1.083  -0.313  -0.038  0.00  0.00    +0.000 A 
ATOM      3  C8  UNL     1      -2.173  -0.555   0.828  0.00  0.00    +0.000 A 
ATOM      4  O2  UNL     1      -2.242   0.033   1.943  0.00  0.00    +0.000 OA
ATOM      5  C9  UNL     1      -3.185  -1.451   0.445  0.00  0.00    +0.000 A 
ATOM      6  C10 UNL     1      -4.282  -1.743   1.278  0.00  0.00    +0.000 A 
ATOM      7  C11 UNL     1      -5.264  -2.656   0.863  0.00  0.00    +0.000 A 
ATOM      8  C12 UNL     1      -6.451  -2.937   1.736  0.00  0.00    +0.000 C 
ATOM      9  C13 UNL     1      -5.164  -3.252  -0.403  0.00  0.00    +0.000 A 
ATOM     10  C14 UNL     1      -4.080  -2.964  -1.235  0.00  0.00    +0.000 A 
ATOM     11  C15 UNL     1      -3.091  -2.068  -0.818  0.00  0.00    +0.000 A 
ATOM     12  O3  UNL     1      -2.072  -1.797  -1.622  0.00  0.00    +0.000 OA
ATOM     13  C16 UNL     1      -1.093  -0.958  -1.298  0.00  0.00    +0.000 A 
BRANCH  13  14
ATOM     14  O4  UNL     1      -0.091  -0.717  -2.231  0.00  0.00    +0.000 OA
ATOM     15  H13 UNL     1      -0.103  -1.174  -3.135  0.00  0.00    +0.000 HD
ENDBRANCH  13  14
ENDBRANCH   1   2
BRANCH   1  16
ATOM     16  C17 UNL     1       1.429   0.154   0.023  0.00  0.00    +0.000 A 
ATOM     17  C18 UNL     1       1.982  -0.900   0.784  0.00  0.00    +0.000 A 
ATOM     18  O5  UNL     1       1.322  -1.408   1.734  0.00  0.00    +0.000 OA
ATOM     19  C19 UNL     1       3.265  -1.385   0.484  0.00  0.00    +0.000 A 
ATOM     20  C20 UNL     1       3.865  -2.424   1.221  0.00  0.00    +0.000 A 
ATOM     21  C21 UNL     1       5.156  -2.869   0.895  0.00  0.00    +0.000 A 
ATOM     22  C22 UNL     1       5.778  -4.002   1.658  0.00  0.00    +0.000 C 
ATOM     23  C23 UNL     1       5.834  -2.294  -0.190  0.00  0.00    +0.000 A 
ATOM     24  C24 UNL     1       5.243  -1.264  -0.925  0.00  0.00    +0.000 A 
ATOM     25  C25 UNL     1       3.964  -0.807  -0.593  0.00  0.00    +0.000 A 
ATOM     26  O6  UNL     1       3.412   0.167  -1.305  0.00  0.00    +0.000 OA
ATOM     27  C26 UNL     1       2.202   0.657  -1.055  0.00  0.00    +0.000 A 
BRANCH  27  28
ATOM     28  O7  UNL     1       1.713   1.656  -1.889  0.00  0.00    +0.000 OA
ATOM     29  H20 UNL     1       2.268   2.006  -2.661  0.00  0.00    +0.000 HD
ENDBRANCH  27  28
ENDBRANCH   1  16
BRANCH   1  33
ATOM     30  C2  UNL     1      -0.664   4.809  -0.766  0.00  0.00    +0.000 A 
ATOM     31  C3  UNL     1       0.186   4.482   0.306  0.00  0.00    +0.000 A 
ATOM     32  C4  UNL     1       0.390   3.146   0.662  0.00  0.00    +0.000 A 
ATOM     33  C5  UNL     1      -0.252   2.108  -0.038  0.00  0.00    +0.000 A 
ATOM     34  C27 UNL     1      -1.097   2.444  -1.116  0.00  0.00    +0.000 A 
ATOM     35  C28 UNL     1      -1.299   3.781  -1.469  0.00  0.00    +0.000 A 
BRANCH  30  37
ATOM     36  C1  UNL     1      -0.319   7.275  -0.539  0.00  0.00    +0.000 C 
ATOM     37  O1  UNL     1      -0.900   6.134  -1.162  0.00  0.00    +0.000 OA
ENDBRANCH  30  37
ENDBRANCH   1  33
TORSDOF 6
