REMARK  Name = resultss/4CJN/ligands/lig_244_t2.pdb
REMARK  5 active torsions:
REMARK  status: ('A' for Active; 'I' for Inactive)
REMARK    1  A    between atoms: C1_1  and  O1_2
REMARK    2  A    between atoms: O1_2  and  C2_3
REMARK    3  A    between atoms: C6_7  and  C7_8
REMARK    4  A    between atoms: N1_9  and  N2_10
REMARK    5  A    between atoms: C15_20  and  O2_21
REMARK                            x       y       z     vdW  Elec       q    Type
REMARK                         _______ _______ _______ _____ _____    ______ ____
ROOT
ATOM      1  N2  UNL     1       1.081  -0.938   0.899  0.00  0.00    +0.000 N 
ATOM      2  C8  UNL     1       2.311  -0.256   0.627  0.00  0.00    +0.000 A 
ATOM      3  N3  UNL     1       3.374  -0.982   0.185  0.00  0.00    +0.000 NA
ATOM      4  C9  UNL     1       4.552  -0.395  -0.146  0.00  0.00    +0.000 A 
ATOM      5  C10 UNL     1       5.628  -1.161  -0.608  0.00  0.00    +0.000 A 
ATOM      6  C11 UNL     1       6.829  -0.534  -0.957  0.00  0.00    +0.000 A 
ATOM      7  C12 UNL     1       6.956   0.856  -0.847  0.00  0.00    +0.000 A 
ATOM      8  C13 UNL     1       5.882   1.626  -0.385  0.00  0.00    +0.000 A 
ATOM      9  C14 UNL     1       4.679   1.003  -0.034  0.00  0.00    +0.000 A 
ATOM     10  N4  UNL     1       3.631   1.730   0.430  0.00  0.00    +0.000 NA
ATOM     11  C15 UNL     1       2.455   1.144   0.782  0.00  0.00    +0.000 A 
ATOM     12  H8  UNL     1       1.129  -1.948   1.168  0.00  0.00    +0.000 HD
ENDROOT
BRANCH   1  14
ATOM     13  C7  UNL     1      -1.267  -1.022   0.663  0.00  0.00    +0.000 C 
ATOM     14  N1  UNL     1      -0.151  -0.376   0.529  0.00  0.00    +0.000 NA
BRANCH  13  19
ATOM     15  C2  UNL     1      -4.976  -0.590   0.060  0.00  0.00    +0.000 A 
ATOM     16  C3  UNL     1      -5.020   0.717  -0.459  0.00  0.00    +0.000 A 
ATOM     17  C4  UNL     1      -3.842   1.453  -0.610  0.00  0.00    +0.000 A 
ATOM     18  C5  UNL     1      -2.613   0.896  -0.248  0.00  0.00    +0.000 A 
ATOM     19  C6  UNL     1      -2.552  -0.409   0.271  0.00  0.00    +0.000 A 
ATOM     20  C16 UNL     1      -3.740  -1.143   0.421  0.00  0.00    +0.000 A 
BRANCH  15  22
ATOM     21  C1  UNL     1      -7.447  -0.938  -0.091  0.00  0.00    +0.000 C 
ATOM     22  O1  UNL     1      -6.129  -1.370   0.232  0.00  0.00    +0.000 OA
ENDBRANCH  15  22
ENDBRANCH  13  19
ENDBRANCH   1  14
BRANCH  11  23
ATOM     23  O2  UNL     1       1.451   1.947   1.321  0.00  0.00    +0.000 OA
ATOM     24  H13 UNL     1       0.625   1.575   1.771  0.00  0.00    +0.000 HD
ENDBRANCH  11  23
TORSDOF 4
