REMARK  Name = resultss/4CJN/ligands/lig_301_t0.pdb
REMARK  13 active torsions:
REMARK  status: ('A' for Active; 'I' for Inactive)
REMARK    1  A    between atoms: C1_1  and  O1_2
REMARK    2  A    between atoms: O1_2  and  C2_3
REMARK    3  A    between atoms: C4_5  and  O2_6
REMARK    4  A    between atoms: O2_6  and  C5_7
REMARK    5  A    between atoms: C6_9  and  C7_10
REMARK    6  A    between atoms: C7_10  and  O4_11
REMARK    7  A    between atoms: C8_12  and  O5_13
REMARK    8  A    between atoms: C9_14  and  O6_15
REMARK    9  A    between atoms: C10_16  and  O7_17
REMARK   10  A    between atoms: C14_22  and  O9_23
REMARK   11  A    between atoms: O9_23  and  C15_24
REMARK   12  A    between atoms: C16_25  and  O10_26
REMARK   13  A    between atoms: O10_26  and  C17_27
REMARK                            x       y       z     vdW  Elec       q    Type
REMARK                         _______ _______ _______ _____ _____    ______ ____
ROOT
ATOM      1  C2  UNL     1      -0.045   3.129   1.979  0.00  0.00    +0.000 A 
ATOM      2  C3  UNL     1      -0.911   2.217   1.371  0.00  0.00    +0.000 A 
ATOM      3  C4  UNL     1      -0.424   1.184   0.546  0.00  0.00    +0.000 A 
ATOM      4  C11 UNL     1       0.974   1.079   0.321  0.00  0.00    +0.000 A 
ATOM      5  C12 UNL     1       1.551   0.084  -0.503  0.00  0.00    +0.000 A 
ATOM      6  O8  UNL     1       0.813  -0.764  -1.077  0.00  0.00    +0.000 OA
ATOM      7  C13 UNL     1       2.957   0.043  -0.684  0.00  0.00    +0.000 A 
ATOM      8  C14 UNL     1       3.607  -0.924  -1.502  0.00  0.00    +0.000 A 
ATOM      9  C16 UNL     1       5.023  -0.884  -1.636  0.00  0.00    +0.000 A 
ATOM     10  C18 UNL     1       5.756   0.099  -0.947  0.00  0.00    +0.000 A 
ATOM     11  C19 UNL     1       5.114   1.036  -0.146  0.00  0.00    +0.000 A 
ATOM     12  C20 UNL     1       3.729   1.019  -0.013  0.00  0.00    +0.000 A 
ATOM     13  O11 UNL     1       3.153   1.936   0.753  0.00  0.00    +0.000 OA
ATOM     14  C21 UNL     1       1.843   2.006   0.941  0.00  0.00    +0.000 A 
ATOM     15  C22 UNL     1       1.336   3.015   1.762  0.00  0.00    +0.000 A 
ENDROOT
BRANCH   1  17
ATOM     16  C1  UNL     1       0.162   5.116   3.483  0.00  0.00    +0.000 C 
ATOM     17  O1  UNL     1      -0.598   4.134   2.788  0.00  0.00    +0.000 OA
ENDBRANCH   1  17
BRANCH   8  18
ATOM     18  O9  UNL     1       2.811  -1.889  -2.154  0.00  0.00    +0.000 OA
ATOM     19  C15 UNL     1       3.258  -2.960  -2.982  0.00  0.00    +0.000 C 
ENDBRANCH   8  18
BRANCH   9  20
ATOM     20  O10 UNL     1       5.680  -1.818  -2.454  0.00  0.00    +0.000 OA
ATOM     21  C17 UNL     1       7.087  -1.871  -2.675  0.00  0.00    +0.000 C 
ENDBRANCH   9  20
BRANCH   3  22
ATOM     22  O2  UNL     1      -1.298   0.259  -0.060  0.00  0.00    +0.000 OA
BRANCH  22  23
ATOM     23  C5  UNL     1      -2.712   0.178   0.136  0.00  0.00    +0.000 C 
ATOM     24  O3  UNL     1      -3.241  -0.668  -0.874  0.00  0.00    +0.000 OA
ATOM     25  C6  UNL     1      -4.638  -0.832  -0.700  0.00  0.00    +0.000 C 
ATOM     26  C8  UNL     1      -4.934  -1.697   0.558  0.00  0.00    +0.000 C 
ATOM     27  C9  UNL     1      -3.703  -1.740   1.493  0.00  0.00    +0.000 C 
ATOM     28  C10 UNL     1      -3.022  -0.362   1.567  0.00  0.00    +0.000 C 
BRANCH  26  29
ATOM     29  O5  UNL     1      -6.044  -1.155   1.234  0.00  0.00    +0.000 OA
ATOM     30  H11 UNL     1      -6.495  -1.903   1.706  0.00  0.00    +0.000 HD
ENDBRANCH  26  29
BRANCH  27  31
ATOM     31  O6  UNL     1      -4.060  -2.173   2.781  0.00  0.00    +0.000 OA
ATOM     32  H13 UNL     1      -4.261  -3.142   2.708  0.00  0.00    +0.000 HD
ENDBRANCH  27  31
BRANCH  28  33
ATOM     33  O7  UNL     1      -3.853   0.554   2.241  0.00  0.00    +0.000 OA
ATOM     34  H15 UNL     1      -3.703   0.423   3.215  0.00  0.00    +0.000 HD
ENDBRANCH  28  33
BRANCH  25  35
ATOM     35  C7  UNL     1      -5.218  -1.469  -1.972  0.00  0.00    +0.000 C 
BRANCH  35  36
ATOM     36  O4  UNL     1      -6.613  -1.597  -1.871  0.00  0.00    +0.000 OA
ATOM     37  H9  UNL     1      -6.995  -0.702  -2.072  0.00  0.00    +0.000 HD
ENDBRANCH  35  36
ENDBRANCH  25  35
ENDBRANCH  22  23
ENDBRANCH   3  22
TORSDOF 10
