REMARK  Name = resultss/4CJN/ligands/lig_390_t0.pdb
REMARK  7 active torsions:
REMARK  status: ('A' for Active; 'I' for Inactive)
REMARK    1  A    between atoms: C1_1  and  C2_2
REMARK    2  A    between atoms: C2_2  and  N1_3
REMARK    3  A    between atoms: C3_4  and  O1_5
REMARK    4  A    between atoms: C4_6  and  C5_7
REMARK    5  A    between atoms: N3_19  and  C14_20
REMARK    6  A    between atoms: C17_23  and  S2_24
REMARK    7  A    between atoms: S2_24  and  N4_25
REMARK                            x       y       z     vdW  Elec       q    Type
REMARK                         _______ _______ _______ _____ _____    ______ ____
ROOT
ATOM      1  N1  UNL     1      -0.052   0.634   0.344  0.00  0.00    +0.000 N 
ATOM      2  C3  UNL     1      -1.305   1.205   0.338  0.00  0.00    +0.000 A 
ATOM      3  C4  UNL     1      -2.364   0.330   0.568  0.00  0.00    +0.000 A 
ATOM      4  S1  UNL     1      -1.731  -1.209   0.764  0.00  0.00    +0.000 S 
ATOM      5  C13 UNL     1      -0.141  -0.723   0.548  0.00  0.00    +0.000 A 
ATOM      6  N3  UNL     1       0.828  -1.599   0.577  0.00  0.00    +0.000 NA
ENDROOT
BRANCH   3   7
ATOM      7  C5  UNL     1      -3.792   0.691   0.675  0.00  0.00    +0.000 C 
ATOM      8  C6  UNL     1      -4.367   1.886   1.280  0.00  0.00    +0.000 C 
ATOM      9  O2  UNL     1      -3.729   2.819   1.834  0.00  0.00    +0.000 OA
ATOM     10  N2  UNL     1      -5.787   1.832   1.213  0.00  0.00    +0.000 NA
ATOM     11  C7  UNL     1      -6.013   0.702   0.623  0.00  0.00    +0.000 A 
ATOM     12  C8  UNL     1      -7.280   0.200   0.323  0.00  0.00    +0.000 A 
ATOM     13  C9  UNL     1      -7.372  -1.037  -0.334  0.00  0.00    +0.000 A 
ATOM     14  C10 UNL     1      -6.207  -1.747  -0.684  0.00  0.00    +0.000 A 
ATOM     15  C11 UNL     1      -4.937  -1.231  -0.377  0.00  0.00    +0.000 A 
ATOM     16  C12 UNL     1      -4.861  -0.003   0.291  0.00  0.00    +0.000 A 
ENDBRANCH   3   7
BRANCH   6  17
ATOM     17  C14 UNL     1       2.234  -1.422   0.394  0.00  0.00    +0.000 A 
ATOM     18  C15 UNL     1       2.795  -1.531  -0.884  0.00  0.00    +0.000 A 
ATOM     19  C16 UNL     1       4.176  -1.403  -1.058  0.00  0.00    +0.000 A 
ATOM     20  C17 UNL     1       5.010  -1.201   0.051  0.00  0.00    +0.000 A 
ATOM     21  C18 UNL     1       4.450  -1.130   1.335  0.00  0.00    +0.000 A 
ATOM     22  C19 UNL     1       3.069  -1.258   1.507  0.00  0.00    +0.000 A 
BRANCH  20  23
ATOM     23  S2  UNL     1       6.746  -1.014  -0.170  0.00  0.00    +0.000 S 
ATOM     24  O3  UNL     1       7.198  -1.821  -1.355  0.00  0.00    +0.000 OA
ATOM     25  O4  UNL     1       7.472  -1.505   1.051  0.00  0.00    +0.000 OA
BRANCH  23  26
ATOM     26  N4  UNL     1       7.121   0.653  -0.432  0.00  0.00    +0.000 NA
ATOM     27  H13 UNL     1       6.753   1.180   0.392  0.00  0.00    +0.000 HD
ATOM     28  H14 UNL     1       6.565   0.964  -1.260  0.00  0.00    +0.000 HD
ENDBRANCH  23  26
ENDBRANCH  20  23
ENDBRANCH   6  17
BRANCH   1  30
ATOM     29  C1  UNL     1       1.441   1.616  -1.362  0.00  0.00    +0.000 C 
ATOM     30  C2  UNL     1       1.168   1.432   0.128  0.00  0.00    +0.000 C 
ENDBRANCH   1  30
BRANCH   2  31
ATOM     31  O1  UNL     1      -1.537   2.561   0.088  0.00  0.00    +0.000 OA
ATOM     32  H6  UNL     1      -0.811   3.222  -0.148  0.00  0.00    +0.000 HD
ENDBRANCH   2  31
TORSDOF 6
