REMARK  Name = resultss/4CJN/ligands/lig_45_t0.pdb
REMARK  4 active torsions:
REMARK  status: ('A' for Active; 'I' for Inactive)
REMARK    1  A    between atoms: O1_1  and  C1_2
REMARK    2  A    between atoms: C2_3  and  O2_4
REMARK    3  A    between atoms: C3_5  and  O3_6
REMARK    4  A    between atoms: C6_10  and  O5_11
REMARK                            x       y       z     vdW  Elec       q    Type
REMARK                         _______ _______ _______ _____ _____    ______ ____
ROOT
ATOM      1  C1  UNL     1      -0.449   1.077   0.323  0.00  0.00    +0.000 C 
ATOM      2  C2  UNL     1       0.590   0.808  -0.778  0.00  0.00    +0.000 C 
ATOM      3  C3  UNL     1       1.470  -0.408  -0.409  0.00  0.00    +0.000 C 
ATOM      4  C4  UNL     1       0.678  -1.627   0.096  0.00  0.00    +0.000 C 
ATOM      5  O4  UNL     1      -0.408  -1.941  -0.742  0.00  0.00    +0.000 OA
ATOM      6  C5  UNL     1      -0.732  -1.468   0.551  0.00  0.00    +0.000 C 
ATOM      7  C6  UNL     1      -1.434  -0.097   0.475  0.00  0.00    +0.000 C 
ENDROOT
BRANCH   1   8
ATOM      8  O1  UNL     1      -1.164   2.253   0.040  0.00  0.00    +0.000 OA
ATOM      9  H1  UNL     1      -0.558   3.014   0.241  0.00  0.00    +0.000 HD
ENDBRANCH   1   8
BRANCH   2  10
ATOM     10  O2  UNL     1      -0.052   0.600  -2.011  0.00  0.00    +0.000 OA
ATOM     11  H4  UNL     1       0.636   0.715  -2.718  0.00  0.00    +0.000 HD
ENDBRANCH   2  10
BRANCH   3  12
ATOM     12  O3  UNL     1       2.386  -0.045   0.591  0.00  0.00    +0.000 OA
ATOM     13  H6  UNL     1       3.103   0.482   0.149  0.00  0.00    +0.000 HD
ENDBRANCH   3  12
BRANCH   7  14
ATOM     14  O5  UNL     1      -2.370  -0.087  -0.574  0.00  0.00    +0.000 OA
ATOM     15  H10 UNL     1      -3.116  -0.682  -0.299  0.00  0.00    +0.000 HD
ENDBRANCH   7  14
TORSDOF 4
