REMARK  Name = resultss/4CJN/ligands/lig_298_t0.pdb
REMARK  10 active torsions:
REMARK  status: ('A' for Active; 'I' for Inactive)
REMARK    1  A    between atoms: C3_4  and  O2_5
REMARK    2  A    between atoms: O2_5  and  C4_6
REMARK    3  A    between atoms: C5_8  and  C6_9
REMARK    4  A    between atoms: C6_9  and  O4_10
REMARK    5  A    between atoms: C7_11  and  O5_12
REMARK    6  A    between atoms: C8_13  and  O6_14
REMARK    7  A    between atoms: C9_15  and  O7_16
REMARK    8  A    between atoms: C11_18  and  O8_19
REMARK    9  A    between atoms: C17_26  and  O10_27
REMARK   10  A    between atoms: C18_28  and  O11_29
REMARK                            x       y       z     vdW  Elec       q    Type
REMARK                         _______ _______ _______ _____ _____    ______ ____
ROOT
ATOM      1  O1  UNL     1       1.390   1.414  -0.750  0.00  0.00    +0.000 OA
ATOM      2  C1  UNL     1       2.238   0.580  -0.328  0.00  0.00    +0.000 A 
ATOM      3  C2  UNL     1       1.816  -0.563   0.392  0.00  0.00    +0.000 A 
ATOM      4  C3  UNL     1       0.451  -0.837   0.677  0.00  0.00    +0.000 A 
ATOM      5  C10 UNL     1       0.124  -2.000   1.406  0.00  0.00    +0.000 A 
ATOM      6  C11 UNL     1       1.122  -2.881   1.837  0.00  0.00    +0.000 A 
ATOM      7  C12 UNL     1       2.458  -2.611   1.553  0.00  0.00    +0.000 A 
ATOM      8  C13 UNL     1       2.812  -1.465   0.839  0.00  0.00    +0.000 A 
ATOM      9  O9  UNL     1       4.094  -1.239   0.587  0.00  0.00    +0.000 OA
ATOM     10  C14 UNL     1       4.526  -0.179  -0.083  0.00  0.00    +0.000 A 
ATOM     11  C15 UNL     1       5.897  -0.028  -0.298  0.00  0.00    +0.000 A 
ATOM     12  C16 UNL     1       6.383   1.074  -0.999  0.00  0.00    +0.000 A 
ATOM     13  C17 UNL     1       5.501   2.041  -1.495  0.00  0.00    +0.000 A 
ATOM     14  C18 UNL     1       4.115   1.905  -1.288  0.00  0.00    +0.000 A 
ATOM     15  C19 UNL     1       3.615   0.785  -0.575  0.00  0.00    +0.000 A 
ENDROOT
BRANCH   6  16
ATOM     16  O8  UNL     1       0.793  -4.031   2.552  0.00  0.00    +0.000 OA
ATOM     17  H13 UNL     1      -0.168  -4.260   2.776  0.00  0.00    +0.000 HD
ENDBRANCH   6  16
BRANCH  13  18
ATOM     18  O10 UNL     1       5.997   3.139  -2.195  0.00  0.00    +0.000 OA
ATOM     19  H17 UNL     1       6.990   3.262  -2.358  0.00  0.00    +0.000 HD
ENDBRANCH  13  18
BRANCH  14  20
ATOM     20  O11 UNL     1       3.243   2.875  -1.787  0.00  0.00    +0.000 OA
ATOM     21  H18 UNL     1       3.567   3.686  -2.300  0.00  0.00    +0.000 HD
ENDBRANCH  14  20
BRANCH   4  22
ATOM     22  O2  UNL     1      -0.539   0.065   0.239  0.00  0.00    +0.000 OA
BRANCH  22  23
ATOM     23  C4  UNL     1      -1.957  -0.113   0.291  0.00  0.00    +0.000 C 
ATOM     24  O3  UNL     1      -2.551   1.171   0.202  0.00  0.00    +0.000 OA
ATOM     25  C5  UNL     1      -3.958   1.093   0.369  0.00  0.00    +0.000 C 
ATOM     26  C7  UNL     1      -4.587   0.294  -0.802  0.00  0.00    +0.000 C 
ATOM     27  C8  UNL     1      -3.956  -1.108  -0.895  0.00  0.00    +0.000 C 
ATOM     28  C9  UNL     1      -2.419  -0.981  -0.901  0.00  0.00    +0.000 C 
BRANCH  26  29
ATOM     29  O5  UNL     1      -5.987   0.205  -0.689  0.00  0.00    +0.000 OA
ATOM     30  H7  UNL     1      -6.199  -0.153   0.212  0.00  0.00    +0.000 HD
ENDBRANCH  26  29
BRANCH  27  31
ATOM     31  O6  UNL     1      -4.374  -1.896   0.193  0.00  0.00    +0.000 OA
ATOM     32  H9  UNL     1      -4.285  -2.845  -0.085  0.00  0.00    +0.000 HD
ENDBRANCH  27  31
BRANCH  28  33
ATOM     33  O7  UNL     1      -1.827  -2.253  -0.842  0.00  0.00    +0.000 OA
ATOM     34  H11 UNL     1      -1.945  -2.665  -1.738  0.00  0.00    +0.000 HD
ENDBRANCH  28  33
BRANCH  25  35
ATOM     35  C6  UNL     1      -4.524   2.520   0.417  0.00  0.00    +0.000 C 
BRANCH  35  36
ATOM     36  O4  UNL     1      -3.997   3.217   1.514  0.00  0.00    +0.000 OA
ATOM     37  H5  UNL     1      -3.103   3.552   1.239  0.00  0.00    +0.000 HD
ENDBRANCH  35  36
ENDBRANCH  25  35
ENDBRANCH  22  23
ENDBRANCH   4  22
TORSDOF 10
