REMARK  Name = resultss/4CJN/ligands/lig_156_t0.pdb
REMARK  14 active torsions:
REMARK  status: ('A' for Active; 'I' for Inactive)
REMARK    1  A    between atoms: O1_1  and  C1_2
REMARK    2  A    between atoms: C1_2  and  C2_3
REMARK    3  A    between atoms: C3_4  and  O2_5
REMARK    4  A    between atoms: C4_6  and  O3_7
REMARK    5  A    between atoms: C5_8  and  O4_9
REMARK    6  A    between atoms: N1_11  and  C7_12
REMARK    7  A    between atoms: C7_12  and  C8_13
REMARK    8  A    between atoms: C8_13  and  C9_14
REMARK    9  A    between atoms: C9_14  and  C10_15
REMARK   10  A    between atoms: C10_15  and  C11_18
REMARK   11  A    between atoms: C11_18  and  O5_19
REMARK   12  A    between atoms: O5_19  and  C12_20
REMARK   13  A    between atoms: C12_20  and  C13_21
REMARK   14  A    between atoms: C16_24  and  C17_25
REMARK                            x       y       z     vdW  Elec       q    Type
REMARK                         _______ _______ _______ _____ _____    ______ ____
ROOT
ATOM      1  C9  UNL     1      -1.186  -0.150  -1.197  0.00  0.00    +0.000 C 
ENDROOT
BRANCH   1   2
ATOM      2  C10 UNL     1       0.114  -0.954  -1.013  0.00  0.00    +0.000 C 
ATOM      3  F1  UNL     1      -0.096  -2.268  -1.394  0.00  0.00    +0.000 F 
ATOM      4  F2  UNL     1       0.495  -0.933   0.319  0.00  0.00    +0.000 F 
BRANCH   2   5
ATOM      5  C11 UNL     1       1.249  -0.374  -1.863  0.00  0.00    +0.000 C 
BRANCH   5   6
ATOM      6  O5  UNL     1       1.545   0.940  -1.434  0.00  0.00    +0.000 OA
BRANCH   6   7
ATOM      7  C12 UNL     1       2.644   1.459  -2.157  0.00  0.00    +0.000 C 
BRANCH   7   8
ATOM      8  C13 UNL     1       3.937   1.111  -1.469  0.00  0.00    +0.000 A 
ATOM      9  C14 UNL     1       4.814   0.171  -2.030  0.00  0.00    +0.000 A 
ATOM     10  C15 UNL     1       6.008  -0.155  -1.383  0.00  0.00    +0.000 A 
ATOM     11  C16 UNL     1       6.345   0.450  -0.159  0.00  0.00    +0.000 A 
ATOM     12  C23 UNL     1       5.457   1.383   0.405  0.00  0.00    +0.000 A 
ATOM     13  C24 UNL     1       4.262   1.707  -0.243  0.00  0.00    +0.000 A 
BRANCH  11  14
ATOM     14  C17 UNL     1       7.620   0.111   0.525  0.00  0.00    +0.000 A 
ATOM     15  C18 UNL     1       8.085  -1.218   0.559  0.00  0.00    +0.000 A 
ATOM     16  C19 UNL     1       9.288  -1.531   1.200  0.00  0.00    +0.000 A 
ATOM     17  C20 UNL     1      10.039  -0.526   1.813  0.00  0.00    +0.000 A 
ATOM     18  C21 UNL     1       9.589   0.796   1.787  0.00  0.00    +0.000 A 
ATOM     19  C22 UNL     1       8.386   1.116   1.148  0.00  0.00    +0.000 A 
ENDBRANCH  11  14
ENDBRANCH   7   8
ENDBRANCH   6   7
ENDBRANCH   5   6
ENDBRANCH   2   5
ENDBRANCH   1   2
BRANCH   1  20
ATOM     20  C8  UNL     1      -2.340  -0.728  -0.365  0.00  0.00    +0.000 C 
BRANCH  20  21
ATOM     21  C7  UNL     1      -3.625   0.085  -0.563  0.00  0.00    +0.000 C 
BRANCH  21  27
ATOM     22  C2  UNL     1      -6.035  -0.432  -0.462  0.00  0.00    +0.000 C 
ATOM     23  C3  UNL     1      -7.241  -0.430   0.518  0.00  0.00    +0.000 C 
ATOM     24  C4  UNL     1      -7.164   0.779   1.490  0.00  0.00    +0.000 C 
ATOM     25  C5  UNL     1      -5.713   1.246   1.754  0.00  0.00    +0.000 C 
ATOM     26  C6  UNL     1      -4.738   0.063   1.623  0.00  0.00    +0.000 C 
ATOM     27  N1  UNL     1      -4.722  -0.499   0.246  0.00  0.00    +0.000 NA
BRANCH  23  28
ATOM     28  O2  UNL     1      -7.261  -1.623   1.267  0.00  0.00    +0.000 OA
ATOM     29  H6  UNL     1      -7.875  -2.253   0.807  0.00  0.00    +0.000 HD
ENDBRANCH  23  28
BRANCH  24  30
ATOM     30  O3  UNL     1      -7.944   1.853   1.023  0.00  0.00    +0.000 OA
ATOM     31  H8  UNL     1      -7.607   2.102   0.124  0.00  0.00    +0.000 HD
ENDBRANCH  24  30
BRANCH  25  32
ATOM     32  O4  UNL     1      -5.629   1.801   3.041  0.00  0.00    +0.000 OA
ATOM     33  H10 UNL     1      -4.788   2.327   3.073  0.00  0.00    +0.000 HD
ENDBRANCH  25  32
BRANCH  22  34
ATOM     34  C1  UNL     1      -6.154  -1.592  -1.473  0.00  0.00    +0.000 C 
BRANCH  34  35
ATOM     35  O1  UNL     1      -5.832  -2.813  -0.864  0.00  0.00    +0.000 OA
ATOM     36  H1  UNL     1      -5.943  -3.508  -1.564  0.00  0.00    +0.000 HD
ENDBRANCH  34  35
ENDBRANCH  22  34
ENDBRANCH  21  27
ENDBRANCH  20  21
ENDBRANCH   1  20
TORSDOF 14
