REMARK  Name = resultss/4CJN/ligands/lig_438_t2.pdb
REMARK  9 active torsions:
REMARK  status: ('A' for Active; 'I' for Inactive)
REMARK    1  A    between atoms: C1_1  and  O1_2
REMARK    2  A    between atoms: O1_2  and  C2_3
REMARK    3  A    between atoms: C5_6  and  O2_7
REMARK    4  A    between atoms: O2_7  and  C6_8
REMARK    5  A    between atoms: C7_9  and  N1_10
REMARK    6  A    between atoms: C8_11  and  S1_12
REMARK    7  A    between atoms: N2_13  and  N3_14
REMARK    8  A    between atoms: C9_15  and  C10_17
REMARK    9  A    between atoms: C20_28  and  C21_29
REMARK                            x       y       z     vdW  Elec       q    Type
REMARK                         _______ _______ _______ _____ _____    ______ ____
ROOT
ATOM      1  N3  UNL     1       0.923   0.245   0.243  0.00  0.00    +0.000 N 
ATOM      2  C9  UNL     1       0.093  -0.926   0.250  0.00  0.00    +0.000 C 
ATOM      3  O3  UNL     1       0.619  -2.061   0.411  0.00  0.00    +0.000 OA
ATOM      4  H11 UNL     1       0.557   1.121  -0.194  0.00  0.00    +0.000 HD
ENDROOT
BRANCH   2   5
ATOM      5  C10 UNL     1      -1.367  -0.809   0.058  0.00  0.00    +0.000 A 
ATOM      6  C11 UNL     1      -2.184  -1.959   0.007  0.00  0.00    +0.000 A 
ATOM      7  C12 UNL     1      -3.550  -1.762  -0.159  0.00  0.00    +0.000 A 
ATOM      8  C13 UNL     1      -4.100  -0.504  -0.275  0.00  0.00    +0.000 A 
ATOM      9  N4  UNL     1      -5.450  -0.564  -0.363  0.00  0.00    +0.000 N 
ATOM     10  C14 UNL     1      -5.742  -1.882  -0.318  0.00  0.00    +0.000 A 
ATOM     11  C15 UNL     1      -7.007  -2.466  -0.363  0.00  0.00    +0.000 A 
ATOM     12  C16 UNL     1      -7.088  -3.869  -0.283  0.00  0.00    +0.000 A 
ATOM     13  C17 UNL     1      -5.918  -4.650  -0.156  0.00  0.00    +0.000 A 
ATOM     14  C18 UNL     1      -4.652  -4.038  -0.107  0.00  0.00    +0.000 A 
ATOM     15  C19 UNL     1      -4.602  -2.648  -0.194  0.00  0.00    +0.000 A 
ATOM     16  C20 UNL     1      -3.277   0.629  -0.239  0.00  0.00    +0.000 A 
ATOM     17  N5  UNL     1      -1.935   0.433  -0.062  0.00  0.00    +0.000 NA
ATOM     18  H13 UNL     1      -6.131   0.226  -0.415  0.00  0.00    +0.000 HD
BRANCH  16  19
ATOM     19  C21 UNL     1      -3.797   2.006  -0.376  0.00  0.00    +0.000 A 
ATOM     20  C22 UNL     1      -4.708   2.338  -1.394  0.00  0.00    +0.000 A 
ATOM     21  C23 UNL     1      -5.168   3.652  -1.527  0.00  0.00    +0.000 A 
ATOM     22  C24 UNL     1      -4.714   4.645  -0.656  0.00  0.00    +0.000 A 
ATOM     23  C25 UNL     1      -3.793   4.329   0.345  0.00  0.00    +0.000 A 
ATOM     24  C26 UNL     1      -3.329   3.017   0.481  0.00  0.00    +0.000 A 
ENDBRANCH  16  19
ENDBRANCH   2   5
BRANCH   1  27
ATOM     25  N1  UNL     1       4.223  -0.230   1.833  0.00  0.00    +0.000 N 
ATOM     26  C8  UNL     1       2.802  -0.132   1.660  0.00  0.00    +0.000 C 
ATOM     27  N2  UNL     1       2.302   0.166   0.496  0.00  0.00    +0.000 NA
ATOM     28  H9  UNL     1       4.576  -0.718   2.686  0.00  0.00    +0.000 HD
BRANCH  25  33
ATOM     29  C2  UNL     1       7.128  -0.495  -0.512  0.00  0.00    +0.000 A 
ATOM     30  C3  UNL     1       7.062   0.740  -1.163  0.00  0.00    +0.000 A 
ATOM     31  C4  UNL     1       6.078   1.671  -0.823  0.00  0.00    +0.000 A 
ATOM     32  C5  UNL     1       5.132   1.377   0.177  0.00  0.00    +0.000 A 
ATOM     33  C7  UNL     1       5.172   0.118   0.811  0.00  0.00    +0.000 A 
ATOM     34  C27 UNL     1       6.181  -0.798   0.483  0.00  0.00    +0.000 A 
BRANCH  29  36
ATOM     35  C1  UNL     1       8.329  -2.679  -0.308  0.00  0.00    +0.000 C 
ATOM     36  O1  UNL     1       8.144  -1.389  -0.883  0.00  0.00    +0.000 OA
ENDBRANCH  29  36
BRANCH  32  37
ATOM     37  O2  UNL     1       4.165   2.312   0.578  0.00  0.00    +0.000 OA
ATOM     38  C6  UNL     1       4.003   3.605   0.004  0.00  0.00    +0.000 C 
ENDBRANCH  32  37
ENDBRANCH  25  33
BRANCH  26  39
ATOM     39  S1  UNL     1       1.744  -0.402   3.089  0.00  0.00    +0.000 S 
ATOM     40  H10 UNL     1       1.718  -1.794   2.883  0.00  0.00    +0.000 HD
ENDBRANCH  26  39
ENDBRANCH   1  27
TORSDOF 7
