REMARK  Name = resultss/4CJN/ligands/lig_290_t0.pdb
REMARK  3 active torsions:
REMARK  status: ('A' for Active; 'I' for Inactive)
REMARK    1  A    between atoms: C4_5  and  O2_6
REMARK    2  A    between atoms: C10_13  and  O4_14
REMARK    3  A    between atoms: C12_16  and  O5_17
REMARK                            x       y       z     vdW  Elec       q    Type
REMARK                         _______ _______ _______ _____ _____    ______ ____
ROOT
ATOM      1  O1  UNL     1      -0.259   2.147   1.189  0.00  0.00    +0.000 OA
ATOM      2  C1  UNL     1      -0.203   1.039   0.588  0.00  0.00    +0.000 A 
ATOM      3  C2  UNL     1      -1.389   0.347   0.283  0.00  0.00    +0.000 A 
ATOM      4  C3  UNL     1      -2.659   0.850   0.628  0.00  0.00    +0.000 A 
ATOM      5  C4  UNL     1      -3.816   0.127   0.305  0.00  0.00    +0.000 A 
ATOM      6  C5  UNL     1      -3.710  -1.098  -0.362  0.00  0.00    +0.000 A 
ATOM      7  C6  UNL     1      -2.455  -1.605  -0.708  0.00  0.00    +0.000 A 
ATOM      8  C7  UNL     1      -1.295  -0.891  -0.390  0.00  0.00    +0.000 A 
ATOM      9  O3  UNL     1      -0.110  -1.386  -0.726  0.00  0.00    +0.000 OA
ATOM     10  C8  UNL     1       1.034  -0.766  -0.457  0.00  0.00    +0.000 A 
ATOM     11  C9  UNL     1       2.237  -1.361  -0.848  0.00  0.00    +0.000 A 
ATOM     12  C10 UNL     1       3.455  -0.735  -0.581  0.00  0.00    +0.000 A 
ATOM     13  C11 UNL     1       3.475   0.496   0.082  0.00  0.00    +0.000 A 
ATOM     14  C12 UNL     1       2.280   1.112   0.484  0.00  0.00    +0.000 A 
ATOM     15  C13 UNL     1       1.040   0.482   0.215  0.00  0.00    +0.000 A 
ENDROOT
BRANCH   5  16
ATOM     16  O2  UNL     1      -5.076   0.617   0.642  0.00  0.00    +0.000 OA
ATOM     17  H2  UNL     1      -5.189   1.500   1.126  0.00  0.00    +0.000 HD
ENDBRANCH   5  16
BRANCH  12  18
ATOM     18  O4  UNL     1       4.642  -1.346  -0.980  0.00  0.00    +0.000 OA
ATOM     19  H6  UNL     1       5.544  -0.919  -0.801  0.00  0.00    +0.000 HD
ENDBRANCH  12  18
BRANCH  14  20
ATOM     20  O5  UNL     1       2.334   2.340   1.143  0.00  0.00    +0.000 OA
ATOM     21  H8  UNL     1       3.214   2.801   1.341  0.00  0.00    +0.000 HD
ENDBRANCH  14  20
TORSDOF 3
