REMARK  Name = resultss/4CJN/ligands/lig_167_t2.pdb
REMARK  4 active torsions:
REMARK  status: ('A' for Active; 'I' for Inactive)
REMARK    1  A    between atoms: C1_2  and  C9_13
REMARK    2  A    between atoms: N1_3  and  N2_4
REMARK    3  A    between atoms: C2_5  and  C3_6
REMARK    4  A    between atoms: C12_16  and  C13_17
REMARK                            x       y       z     vdW  Elec       q    Type
REMARK                         _______ _______ _______ _____ _____    ______ ____
ROOT
ATOM      1  C9  UNL     1      -0.095   0.486   0.452  0.00  0.00    +0.000 A 
ATOM      2  C10 UNL     1      -0.663  -0.647  -0.156  0.00  0.00    +0.000 A 
ATOM      3  C11 UNL     1      -2.050  -0.766  -0.282  0.00  0.00    +0.000 A 
ATOM      4  C12 UNL     1      -2.901   0.243   0.201  0.00  0.00    +0.000 A 
ATOM      5  C20 UNL     1      -2.334   1.369   0.819  0.00  0.00    +0.000 A 
ATOM      6  C21 UNL     1      -0.947   1.487   0.947  0.00  0.00    +0.000 A 
ENDROOT
BRANCH   4   7
ATOM      7  C13 UNL     1      -4.372   0.127   0.071  0.00  0.00    +0.000 A 
ATOM      8  N3  UNL     1      -5.235   1.073   0.526  0.00  0.00    +0.000 NA
ATOM      9  C14 UNL     1      -6.525   0.727   0.283  0.00  0.00    +0.000 A 
ATOM     10  C15 UNL     1      -7.630   1.503   0.637  0.00  0.00    +0.000 A 
ATOM     11  C16 UNL     1      -8.916   1.028   0.326  0.00  0.00    +0.000 A 
ATOM     12  C17 UNL     1      -9.081  -0.208  -0.331  0.00  0.00    +0.000 A 
ATOM     13  C18 UNL     1      -7.962  -0.979  -0.683  0.00  0.00    +0.000 A 
ATOM     14  C19 UNL     1      -6.700  -0.485  -0.363  0.00  0.00    +0.000 A 
ATOM     15  S1  UNL     1      -5.198  -1.171  -0.652  0.00  0.00    +0.000 S 
ENDBRANCH   4   7
BRANCH   1  17
ATOM     16  O1  UNL     1       1.840   1.365   1.509  0.00  0.00    +0.000 OA
ATOM     17  C1  UNL     1       1.375   0.624   0.600  0.00  0.00    +0.000 C 
ATOM     18  N1  UNL     1       2.280  -0.054  -0.280  0.00  0.00    +0.000 N 
ATOM     19  H1  UNL     1       1.919  -0.536  -1.134  0.00  0.00    +0.000 HD
BRANCH  18  20
ATOM     20  N2  UNL     1       3.661  -0.012  -0.032  0.00  0.00    +0.000 NA
ATOM     21  C2  UNL     1       4.516  -0.590  -0.817  0.00  0.00    +0.000 C 
BRANCH  21  22
ATOM     22  C3  UNL     1       5.972  -0.538  -0.545  0.00  0.00    +0.000 C 
ATOM     23  C4  UNL     1       6.811  -1.157  -1.392  0.00  0.00    +0.000 C 
ATOM     24  C5  UNL     1       8.311  -1.169  -1.214  0.00  0.00    +0.000 C 
ATOM     25  C6  UNL     1       8.804  -0.425   0.001  0.00  0.00    +0.000 C 
ATOM     26  C7  UNL     1       7.981   0.193   0.848  0.00  0.00    +0.000 C 
ATOM     27  C8  UNL     1       6.530   0.175   0.630  0.00  0.00    +0.000 C 
ATOM     28  O2  UNL     1       5.781   0.770   1.450  0.00  0.00    +0.000 OA
ENDBRANCH  21  22
ENDBRANCH  18  20
ENDBRANCH   1  17
TORSDOF 4
