REMARK  Name = resultss/4CJN/ligands/lig_299_t1.pdb
REMARK  12 active torsions:
REMARK  status: ('A' for Active; 'I' for Inactive)
REMARK    1  A    between atoms: C1_1  and  O1_2
REMARK    2  A    between atoms: O1_2  and  C2_3
REMARK    3  A    between atoms: C4_5  and  O2_6
REMARK    4  A    between atoms: C9_13  and  O5_14
REMARK    5  A    between atoms: O5_14  and  C10_15
REMARK    6  A    between atoms: C11_17  and  C12_18
REMARK    7  A    between atoms: C12_18  and  O7_19
REMARK    8  A    between atoms: C13_20  and  O8_21
REMARK    9  A    between atoms: C14_22  and  O9_23
REMARK   10  A    between atoms: C15_24  and  O10_25
REMARK   11  A    between atoms: C20_31  and  O12_32
REMARK   12  A    between atoms: O12_32  and  C21_33
REMARK                            x       y       z     vdW  Elec       q    Type
REMARK                         _______ _______ _______ _____ _____    ______ ____
ROOT
ATOM      1  C2  UNL     1       6.256  -0.320  -0.207  0.00  0.00    +0.000 A 
ATOM      2  C3  UNL     1       5.983  -1.680  -0.421  0.00  0.00    +0.000 A 
ATOM      3  C4  UNL     1       4.680  -2.176  -0.321  0.00  0.00    +0.000 A 
ATOM      4  C5  UNL     1       3.616  -1.303  -0.003  0.00  0.00    +0.000 A 
ATOM      5  C6  UNL     1       2.277  -1.743   0.113  0.00  0.00    +0.000 A 
ATOM      6  O3  UNL     1       1.983  -2.957  -0.068  0.00  0.00    +0.000 OA
ATOM      7  C7  UNL     1       1.265  -0.818   0.430  0.00  0.00    +0.000 A 
ATOM      8  C8  UNL     1      -0.164  -1.196   0.577  0.00  0.00    +0.000 C 
ATOM      9  O4  UNL     1      -0.513  -2.408   0.559  0.00  0.00    +0.000 OA
ATOM     10  C9  UNL     1      -1.235  -0.142   0.711  0.00  0.00    +0.000 C 
ATOM     11  C16 UNL     1      -0.683   1.221   1.050  0.00  0.00    +0.000 C 
ATOM     12  C17 UNL     1       0.615   1.527   0.972  0.00  0.00    +0.000 C 
ATOM     13  C18 UNL     1       1.628   0.520   0.623  0.00  0.00    +0.000 A 
ATOM     14  O11 UNL     1       2.893   0.900   0.511  0.00  0.00    +0.000 OA
ATOM     15  C19 UNL     1       3.888   0.072   0.213  0.00  0.00    +0.000 A 
ATOM     16  C20 UNL     1       5.214   0.562   0.112  0.00  0.00    +0.000 A 
ENDROOT
BRANCH   1  18
ATOM     17  C1  UNL     1       8.715  -0.571  -0.615  0.00  0.00    +0.000 C 
ATOM     18  O1  UNL     1       7.558   0.198  -0.301  0.00  0.00    +0.000 OA
ENDBRANCH   1  18
BRANCH   3  19
ATOM     19  O2  UNL     1       4.452  -3.536  -0.541  0.00  0.00    +0.000 OA
ATOM     20  H5  UNL     1       5.205  -4.173  -0.775  0.00  0.00    +0.000 HD
ENDBRANCH   3  19
BRANCH  16  21
ATOM     21  O12 UNL     1       5.566   1.910   0.319  0.00  0.00    +0.000 OA
ATOM     22  C21 UNL     1       4.684   2.972   0.671  0.00  0.00    +0.000 C 
ENDBRANCH  16  21
BRANCH  10  23
ATOM     23  O5  UNL     1      -1.925  -0.049  -0.525  0.00  0.00    +0.000 OA
BRANCH  23  24
ATOM     24  C10 UNL     1      -3.313  -0.273  -0.365  0.00  0.00    +0.000 C 
ATOM     25  O6  UNL     1      -3.877   0.797   0.375  0.00  0.00    +0.000 OA
ATOM     26  C11 UNL     1      -5.244   0.549   0.660  0.00  0.00    +0.000 C 
ATOM     27  C13 UNL     1      -6.072   0.549  -0.652  0.00  0.00    +0.000 C 
ATOM     28  C14 UNL     1      -5.494  -0.460  -1.673  0.00  0.00    +0.000 C 
ATOM     29  C15 UNL     1      -3.957  -0.328  -1.765  0.00  0.00    +0.000 C 
BRANCH  27  30
ATOM     30  O8  UNL     1      -7.414   0.238  -0.379  0.00  0.00    +0.000 OA
ATOM     31  H13 UNL     1      -7.941   0.524  -1.171  0.00  0.00    +0.000 HD
ENDBRANCH  27  30
BRANCH  28  32
ATOM     32  O9  UNL     1      -5.895  -1.780  -1.384  0.00  0.00    +0.000 OA
ATOM     33  H15 UNL     1      -5.560  -2.018  -0.483  0.00  0.00    +0.000 HD
ENDBRANCH  28  32
BRANCH  29  34
ATOM     34  O10 UNL     1      -3.404  -1.355  -2.552  0.00  0.00    +0.000 OA
ATOM     35  H17 UNL     1      -3.477  -2.204  -2.044  0.00  0.00    +0.000 HD
ENDBRANCH  29  34
BRANCH  26  36
ATOM     36  C12 UNL     1      -5.727   1.641   1.624  0.00  0.00    +0.000 C 
BRANCH  36  37
ATOM     37  O7  UNL     1      -7.002   1.333   2.114  0.00  0.00    +0.000 OA
ATOM     38  H11 UNL     1      -7.264   2.093   2.697  0.00  0.00    +0.000 HD
ENDBRANCH  36  37
ENDBRANCH  26  36
ENDBRANCH  23  24
ENDBRANCH  10  23
TORSDOF 10
