REMARK  Name = resultss/4CJN/ligands/lig_432_t0.pdb
REMARK  7 active torsions:
REMARK  status: ('A' for Active; 'I' for Inactive)
REMARK    1  A    between atoms: C1_2  and  C9_17
REMARK    2  A    between atoms: N1_3  and  N2_4
REMARK    3  A    between atoms: N2_4  and  C2_5
REMARK    4  A    between atoms: C2_5  and  N3_7
REMARK    5  A    between atoms: N3_7  and  C3_8
REMARK    6  A    between atoms: C6_11  and  N4_12
REMARK    7  A    between atoms: C19_28  and  C20_29
REMARK                            x       y       z     vdW  Elec       q    Type
REMARK                         _______ _______ _______ _____ _____    ______ ____
ROOT
ATOM      1  C9  UNL     1      -0.652   0.209  -0.507  0.00  0.00    +0.000 A 
ATOM      2  C10 UNL     1      -1.246  -0.273  -1.693  0.00  0.00    +0.000 A 
ATOM      3  C11 UNL     1      -2.623  -0.462  -1.685  0.00  0.00    +0.000 A 
ATOM      4  C12 UNL     1      -3.391  -0.201  -0.571  0.00  0.00    +0.000 A 
ATOM      5  N5  UNL     1      -4.707  -0.397  -0.824  0.00  0.00    +0.000 N 
ATOM      6  C13 UNL     1      -4.754  -0.805  -2.110  0.00  0.00    +0.000 A 
ATOM      7  C14 UNL     1      -5.892  -1.125  -2.851  0.00  0.00    +0.000 A 
ATOM      8  C15 UNL     1      -5.718  -1.511  -4.193  0.00  0.00    +0.000 A 
ATOM      9  C16 UNL     1      -4.426  -1.563  -4.764  0.00  0.00    +0.000 A 
ATOM     10  C17 UNL     1      -3.293  -1.230  -3.999  0.00  0.00    +0.000 A 
ATOM     11  C18 UNL     1      -3.496  -0.858  -2.671  0.00  0.00    +0.000 A 
ATOM     12  C19 UNL     1      -2.789   0.262   0.607  0.00  0.00    +0.000 A 
ATOM     13  N6  UNL     1      -1.435   0.461   0.591  0.00  0.00    +0.000 NA
ATOM     14  H9  UNL     1      -5.520  -0.237  -0.188  0.00  0.00    +0.000 HD
ENDROOT
BRANCH  12  15
ATOM     15  C20 UNL     1      -3.548   0.545   1.842  0.00  0.00    +0.000 A 
ATOM     16  C21 UNL     1      -3.282   1.716   2.572  0.00  0.00    +0.000 A 
ATOM     17  C22 UNL     1      -3.976   1.983   3.756  0.00  0.00    +0.000 A 
ATOM     18  C23 UNL     1      -4.930   1.078   4.228  0.00  0.00    +0.000 A 
ATOM     19  C24 UNL     1      -5.185  -0.100   3.521  0.00  0.00    +0.000 A 
ATOM     20  C25 UNL     1      -4.494  -0.371   2.337  0.00  0.00    +0.000 A 
ENDBRANCH  12  15
BRANCH   1  22
ATOM     21  O1  UNL     1       1.524   0.260  -1.450  0.00  0.00    +0.000 OA
ATOM     22  C1  UNL     1       0.803   0.457  -0.435  0.00  0.00    +0.000 C 
ATOM     23  N1  UNL     1       1.405   0.902   0.792  0.00  0.00    +0.000 N 
ATOM     24  H1  UNL     1       0.887   0.760   1.688  0.00  0.00    +0.000 HD
BRANCH  23  25
ATOM     25  N2  UNL     1       2.753   1.296   0.864  0.00  0.00    +0.000 N 
ATOM     26  H2  UNL     1       3.300   1.039   1.716  0.00  0.00    +0.000 HD
BRANCH  25  27
ATOM     27  C2  UNL     1       3.361   2.174  -0.097  0.00  0.00    +0.000 C 
ATOM     28  S1  UNL     1       2.451   3.304  -0.863  0.00  0.00    +0.000 S 
BRANCH  27  29
ATOM     29  N3  UNL     1       4.791   2.260  -0.190  0.00  0.00    +0.000 N 
ATOM     30  H3  UNL     1       5.211   3.167  -0.496  0.00  0.00    +0.000 HD
BRANCH  29  31
ATOM     31  C3  UNL     1       5.681   1.179   0.137  0.00  0.00    +0.000 A 
ATOM     32  C4  UNL     1       6.980   1.466   0.578  0.00  0.00    +0.000 A 
ATOM     33  C5  UNL     1       7.871   0.433   0.883  0.00  0.00    +0.000 A 
ATOM     34  C6  UNL     1       7.483  -0.910   0.737  0.00  0.00    +0.000 A 
ATOM     35  C7  UNL     1       6.187  -1.197   0.272  0.00  0.00    +0.000 A 
ATOM     36  C8  UNL     1       5.297  -0.163  -0.031  0.00  0.00    +0.000 A 
BRANCH  34  37
ATOM     37  N4  UNL     1       8.403  -1.972   1.051  0.00  0.00    +0.000 N 
ATOM     38  O2  UNL     1       8.064  -3.167   0.925  0.00  0.00    +0.000 OA
ATOM     39  O3  UNL     1       9.673  -1.688   1.499  0.00  0.00    +0.000 OA
ENDBRANCH  34  37
ENDBRANCH  29  31
ENDBRANCH  27  29
ENDBRANCH  25  27
ENDBRANCH  23  25
ENDBRANCH   1  22
TORSDOF 7
