REMARK  Name = resultss/4CJN/ligands/lig_270_t0.pdb
REMARK  8 active torsions:
REMARK  status: ('A' for Active; 'I' for Inactive)
REMARK    1  A    between atoms: C1_1  and  O1_2
REMARK    2  A    between atoms: O1_2  and  C2_3
REMARK    3  A    between atoms: C4_5  and  C5_6
REMARK    4  A    between atoms: C5_6  and  N1_7
REMARK    5  A    between atoms: C6_8  and  C7_10
REMARK    6  A    between atoms: C8_11  and  N2_12
REMARK    7  A    between atoms: C9_13  and  C10_15
REMARK    8  A    between atoms: C23_30  and  O4_31
REMARK                            x       y       z     vdW  Elec       q    Type
REMARK                         _______ _______ _______ _____ _____    ______ ____
ROOT
ATOM      1  C7  UNL     1      -0.797   0.009  -1.228  0.00  0.00    +0.000 A 
ATOM      2  C8  UNL     1      -2.189   0.102  -1.108  0.00  0.00    +0.000 A 
ATOM      3  S1  UNL     1      -2.907  -1.040  -2.123  0.00  0.00    +0.000 S 
ATOM      4  C15 UNL     1      -1.467  -1.665  -2.715  0.00  0.00    +0.000 A 
ATOM      5  C16 UNL     1      -0.395  -0.975  -2.157  0.00  0.00    +0.000 A 
ATOM      6  C17 UNL     1       1.031  -1.413  -2.400  0.00  0.00    +0.000 C 
ATOM      7  C18 UNL     1       1.154  -2.304  -3.650  0.00  0.00    +0.000 C 
ATOM      8  C19 UNL     1       0.059  -3.382  -3.686  0.00  0.00    +0.000 C 
ATOM      9  C20 UNL     1      -1.338  -2.748  -3.742  0.00  0.00    +0.000 C 
ENDROOT
BRANCH   1  11
ATOM     10  N1  UNL     1       1.169   1.582  -1.081  0.00  0.00    +0.000 N 
ATOM     11  C6  UNL     1       0.147   0.813  -0.432  0.00  0.00    +0.000 C 
ATOM     12  O2  UNL     1       0.049   0.822   0.825  0.00  0.00    +0.000 OA
ATOM     13  H7  UNL     1       1.112   1.732  -2.113  0.00  0.00    +0.000 HD
BRANCH  10  14
ATOM     14  C5  UNL     1       2.297   2.156  -0.353  0.00  0.00    +0.000 C 
BRANCH  14  17
ATOM     15  C2  UNL     1       4.042  -0.347   1.952  0.00  0.00    +0.000 A 
ATOM     16  C3  UNL     1       3.229   0.711   1.500  0.00  0.00    +0.000 A 
ATOM     17  C4  UNL     1       3.205   1.061   0.140  0.00  0.00    +0.000 A 
ATOM     18  C21 UNL     1       3.993   0.343  -0.771  0.00  0.00    +0.000 A 
ATOM     19  C22 UNL     1       4.800  -0.706  -0.329  0.00  0.00    +0.000 A 
ATOM     20  C23 UNL     1       4.827  -1.053   1.028  0.00  0.00    +0.000 A 
BRANCH  15  22
ATOM     21  C1  UNL     1       3.337  -0.112   4.342  0.00  0.00    +0.000 C 
ATOM     22  O1  UNL     1       4.093  -0.727   3.302  0.00  0.00    +0.000 OA
ENDBRANCH  15  22
BRANCH  20  23
ATOM     23  O4  UNL     1       5.632  -2.102   1.469  0.00  0.00    +0.000 OA
ATOM     24  H23 UNL     1       6.209  -2.634   0.827  0.00  0.00    +0.000 HD
ENDBRANCH  20  23
ENDBRANCH  14  17
ENDBRANCH  10  14
ENDBRANCH   1  11
BRANCH   2  25
ATOM     25  N2  UNL     1      -2.890   1.007  -0.236  0.00  0.00    +0.000 N 
ATOM     26  C9  UNL     1      -4.319   1.165  -0.226  0.00  0.00    +0.000 C 
ATOM     27  O3  UNL     1      -4.989   0.887  -1.257  0.00  0.00    +0.000 OA
ATOM     28  H8  UNL     1      -2.331   1.608   0.408  0.00  0.00    +0.000 HD
BRANCH  26  29
ATOM     29  C10 UNL     1      -5.015   1.697   0.971  0.00  0.00    +0.000 A 
ATOM     30  C11 UNL     1      -4.422   1.643   2.244  0.00  0.00    +0.000 A 
ATOM     31  C12 UNL     1      -5.105   2.133   3.359  0.00  0.00    +0.000 A 
ATOM     32  C13 UNL     1      -6.382   2.670   3.197  0.00  0.00    +0.000 A 
ATOM     33  N3  UNL     1      -6.951   2.711   1.963  0.00  0.00    +0.000 NA
ATOM     34  C14 UNL     1      -6.309   2.239   0.862  0.00  0.00    +0.000 A 
ENDBRANCH  26  29
ENDBRANCH   2  25
TORSDOF 7
