REMARK  Name = resultss/4CJN/ligands/lig_240_t1.pdb
REMARK  5 active torsions:
REMARK  status: ('A' for Active; 'I' for Inactive)
REMARK    1  A    between atoms: C1_2  and  C2_3
REMARK    2  A    between atoms: C1_2  and  C10_11
REMARK    3  A    between atoms: C3_4  and  C4_5
REMARK    4  A    between atoms: C10_11  and  C11_12
REMARK    5  A    between atoms: C18_21  and  O2_22
REMARK                            x       y       z     vdW  Elec       q    Type
REMARK                         _______ _______ _______ _____ _____    ______ ____
ROOT
ATOM      1  C11 UNL     1      -1.819  -0.468  -0.034  0.00  0.00    +0.000 A 
ATOM      2  N1  UNL     1      -2.723   0.161  -0.834  0.00  0.00    +0.000 NA
ATOM      3  C12 UNL     1      -4.055   0.117  -0.569  0.00  0.00    +0.000 A 
ATOM      4  C13 UNL     1      -4.971   0.764  -1.405  0.00  0.00    +0.000 A 
ATOM      5  C14 UNL     1      -6.339   0.708  -1.115  0.00  0.00    +0.000 A 
ATOM      6  C15 UNL     1      -6.792   0.007   0.010  0.00  0.00    +0.000 A 
ATOM      7  C16 UNL     1      -5.879  -0.640   0.850  0.00  0.00    +0.000 A 
ATOM      8  C17 UNL     1      -4.511  -0.587   0.564  0.00  0.00    +0.000 A 
ATOM      9  N2  UNL     1      -3.609  -1.205   1.370  0.00  0.00    +0.000 NA
ATOM     10  C18 UNL     1      -2.276  -1.161   1.102  0.00  0.00    +0.000 A 
ENDROOT
BRANCH  10  11
ATOM     11  O2  UNL     1      -1.377  -1.797   1.955  0.00  0.00    +0.000 OA
ATOM     12  H14 UNL     1      -1.701  -2.295   2.775  0.00  0.00    +0.000 HD
ENDBRANCH  10  11
BRANCH   1  13
ATOM     13  C10 UNL     1      -0.352  -0.365  -0.355  0.00  0.00    +0.000 C 
BRANCH  13  15
ATOM     14  O1  UNL     1      -0.342   1.549   1.097  0.00  0.00    +0.000 OA
ATOM     15  C1  UNL     1       0.342   0.699   0.463  0.00  0.00    +0.000 C 
BRANCH  15  16
ATOM     16  C2  UNL     1       1.815   0.805   0.526  0.00  0.00    +0.000 C 
ATOM     17  C3  UNL     1       2.640   0.075  -0.240  0.00  0.00    +0.000 C 
BRANCH  17  18
ATOM     18  C4  UNL     1       4.118   0.186  -0.190  0.00  0.00    +0.000 A 
ATOM     19  C5  UNL     1       4.804   0.672   0.943  0.00  0.00    +0.000 A 
ATOM     20  C6  UNL     1       6.201   0.745   0.946  0.00  0.00    +0.000 A 
ATOM     21  C7  UNL     1       6.928   0.329  -0.171  0.00  0.00    +0.000 A 
ATOM     22  C8  UNL     1       6.261  -0.169  -1.291  0.00  0.00    +0.000 A 
ATOM     23  C9  UNL     1       4.865  -0.246  -1.300  0.00  0.00    +0.000 A 
ENDBRANCH  17  18
ENDBRANCH  15  16
ENDBRANCH  13  15
ENDBRANCH   1  13
TORSDOF 5
