REMARK  Name = resultss/4CJN/ligands/lig_416_t0.pdb
REMARK  7 active torsions:
REMARK  status: ('A' for Active; 'I' for Inactive)
REMARK    1  A    between atoms: C1_1  and  C2_2
REMARK    2  A    between atoms: C7_7  and  N1_8
REMARK    3  A    between atoms: N1_8  and  C8_9
REMARK    4  A    between atoms: C8_9  and  N2_11
REMARK    5  A    between atoms: N2_11  and  N3_12
REMARK    6  A    between atoms: C9_13  and  C10_15
REMARK    7  A    between atoms: C20_26  and  C21_27
REMARK                            x       y       z     vdW  Elec       q    Type
REMARK                         _______ _______ _______ _____ _____    ______ ____
ROOT
ATOM      1  C10 UNL     1      -0.847   0.127   0.773  0.00  0.00    +0.000 A 
ATOM      2  C11 UNL     1      -1.612   0.324   1.943  0.00  0.00    +0.000 A 
ATOM      3  C12 UNL     1      -2.995   0.332   1.805  0.00  0.00    +0.000 A 
ATOM      4  C13 UNL     1      -3.611   0.150   0.586  0.00  0.00    +0.000 A 
ATOM      5  N4  UNL     1      -4.956   0.264   0.692  0.00  0.00    +0.000 N 
ATOM      6  C14 UNL     1      -5.181   0.502   2.002  0.00  0.00    +0.000 A 
ATOM      7  C15 UNL     1      -6.413   0.708   2.622  0.00  0.00    +0.000 A 
ATOM      8  C16 UNL     1      -6.420   0.963   4.006  0.00  0.00    +0.000 A 
ATOM      9  C17 UNL     1      -5.210   1.011   4.734  0.00  0.00    +0.000 A 
ATOM     10  C18 UNL     1      -3.978   0.806   4.087  0.00  0.00    +0.000 A 
ATOM     11  C19 UNL     1      -4.002   0.550   2.717  0.00  0.00    +0.000 A 
ATOM     12  C20 UNL     1      -2.842  -0.064  -0.566  0.00  0.00    +0.000 A 
ATOM     13  N5  UNL     1      -1.481  -0.058  -0.429  0.00  0.00    +0.000 NA
ATOM     14  H12 UNL     1      -5.672   0.218  -0.066  0.00  0.00    +0.000 HD
ENDROOT
BRANCH  12  15
ATOM     15  C21 UNL     1      -3.435  -0.286  -1.901  0.00  0.00    +0.000 A 
ATOM     16  C22 UNL     1      -2.898   0.370  -3.021  0.00  0.00    +0.000 A 
ATOM     17  C23 UNL     1      -3.434   0.149  -4.293  0.00  0.00    +0.000 A 
ATOM     18  C24 UNL     1      -4.500  -0.739  -4.460  0.00  0.00    +0.000 A 
ATOM     19  C25 UNL     1      -5.026  -1.413  -3.355  0.00  0.00    +0.000 A 
ATOM     20  C26 UNL     1      -4.493  -1.195  -2.081  0.00  0.00    +0.000 A 
ENDBRANCH  12  15
BRANCH   1  22
ATOM     21  N3  UNL     1       1.400  -0.038  -0.375  0.00  0.00    +0.000 N 
ATOM     22  C9  UNL     1       0.629   0.111   0.828  0.00  0.00    +0.000 C 
ATOM     23  O1  UNL     1       1.219   0.245   1.935  0.00  0.00    +0.000 OA
ATOM     24  H10 UNL     1       0.947   0.177  -1.291  0.00  0.00    +0.000 HD
BRANCH  21  25
ATOM     25  N2  UNL     1       2.800  -0.159  -0.343  0.00  0.00    +0.000 N 
ATOM     26  H9  UNL     1       3.356   0.506  -0.922  0.00  0.00    +0.000 HD
BRANCH  25  27
ATOM     27  C8  UNL     1       3.472  -1.226   0.353  0.00  0.00    +0.000 C 
ATOM     28  S1  UNL     1       2.623  -2.470   1.005  0.00  0.00    +0.000 S 
BRANCH  27  29
ATOM     29  N1  UNL     1       4.900  -1.218   0.499  0.00  0.00    +0.000 N 
ATOM     30  H8  UNL     1       5.313  -1.727   1.313  0.00  0.00    +0.000 HD
BRANCH  29  37
ATOM     31  C1  UNL     1       7.208   0.263   1.503  0.00  0.00    +0.000 C 
ATOM     32  C2  UNL     1       6.930   0.122   0.031  0.00  0.00    +0.000 A 
ATOM     33  C3  UNL     1       7.820   0.685  -0.900  0.00  0.00    +0.000 A 
ATOM     34  C4  UNL     1       7.584   0.559  -2.270  0.00  0.00    +0.000 A 
ATOM     35  C5  UNL     1       6.466  -0.140  -2.727  0.00  0.00    +0.000 A 
ATOM     36  C6  UNL     1       5.580  -0.715  -1.814  0.00  0.00    +0.000 A 
ATOM     37  C7  UNL     1       5.794  -0.582  -0.430  0.00  0.00    +0.000 A 
ENDBRANCH  29  37
ENDBRANCH  27  29
ENDBRANCH  25  27
ENDBRANCH  21  25
ENDBRANCH   1  22
TORSDOF 6
