REMARK  Name = resultss/4CJN/ligands/lig_364_t1.pdb
REMARK  6 active torsions:
REMARK  status: ('A' for Active; 'I' for Inactive)
REMARK    1  A    between atoms: C8_11  and  O3_12
REMARK    2  A    between atoms: C9_13  and  C10_14
REMARK    3  A    between atoms: C10_14  and  C11_15
REMARK    4  A    between atoms: C10_14  and  C17_24
REMARK    5  A    between atoms: C15_19  and  N1_20
REMARK    6  A    between atoms: C18_25  and  O6_26
REMARK                            x       y       z     vdW  Elec       q    Type
REMARK                         _______ _______ _______ _____ _____    ______ ____
ROOT
ATOM      1  C10 UNL     1       0.155   0.388   1.491  0.00  0.00    +0.000 C 
ENDROOT
BRANCH   1  13
ATOM      2  O1  UNL     1      -1.960   0.532   3.365  0.00  0.00    +0.000 OA
ATOM      3  C1  UNL     1      -2.257   0.039   2.244  0.00  0.00    +0.000 A 
ATOM      4  O2  UNL     1      -3.506  -0.356   2.039  0.00  0.00    +0.000 OA
ATOM      5  C2  UNL     1      -3.923  -0.873   0.893  0.00  0.00    +0.000 A 
ATOM      6  C3  UNL     1      -5.258  -1.274   0.775  0.00  0.00    +0.000 A 
ATOM      7  C4  UNL     1      -5.725  -1.823  -0.418  0.00  0.00    +0.000 A 
ATOM      8  C5  UNL     1      -4.860  -1.978  -1.502  0.00  0.00    +0.000 A 
ATOM      9 CL1  UNL     1      -5.453  -2.679  -2.998  0.00  0.00    +0.000 Cl
ATOM     10  C6  UNL     1      -3.522  -1.580  -1.398  0.00  0.00    +0.000 A 
ATOM     11  C7  UNL     1      -3.035  -1.015  -0.199  0.00  0.00    +0.000 A 
ATOM     12  C8  UNL     1      -1.697  -0.584  -0.029  0.00  0.00    +0.000 A 
ATOM     13  C9  UNL     1      -1.283  -0.082   1.229  0.00  0.00    +0.000 A 
BRANCH  12  14
ATOM     14  O3  UNL     1      -0.773  -0.615  -1.078  0.00  0.00    +0.000 OA
ATOM     15  H4  UNL     1      -0.983  -0.884  -2.027  0.00  0.00    +0.000 HD
ENDBRANCH  12  14
ENDBRANCH   1  13
BRANCH   1  16
ATOM     16  C17 UNL     1       1.212  -0.594   0.958  0.00  0.00    +0.000 A 
ATOM     17  C18 UNL     1       1.988  -0.360  -0.207  0.00  0.00    +0.000 A 
ATOM     18  C19 UNL     1       2.951  -1.322  -0.603  0.00  0.00    +0.000 A 
ATOM     19  C20 UNL     1       3.801  -1.155  -1.719  0.00  0.00    +0.000 A 
ATOM     20  C21 UNL     1       4.726  -2.149  -2.062  0.00  0.00    +0.000 A 
ATOM     21 CL2  UNL     1       5.776  -1.929  -3.450  0.00  0.00    +0.000 Cl
ATOM     22  C22 UNL     1       4.818  -3.315  -1.300  0.00  0.00    +0.000 A 
ATOM     23  C23 UNL     1       3.991  -3.492  -0.192  0.00  0.00    +0.000 A 
ATOM     24  C24 UNL     1       3.064  -2.506   0.162  0.00  0.00    +0.000 A 
ATOM     25  O7  UNL     1       2.295  -2.700   1.222  0.00  0.00    +0.000 OA
ATOM     26  C25 UNL     1       1.398  -1.818   1.638  0.00  0.00    +0.000 A 
ATOM     27  O8  UNL     1       0.708  -2.097   2.656  0.00  0.00    +0.000 OA
BRANCH  17  28
ATOM     28  O6  UNL     1       1.765   0.803  -0.952  0.00  0.00    +0.000 OA
ATOM     29  H10 UNL     1       2.210   1.027  -1.829  0.00  0.00    +0.000 HD
ENDBRANCH  17  28
ENDBRANCH   1  16
BRANCH   1  30
ATOM     30  C11 UNL     1       0.399   1.853   1.144  0.00  0.00    +0.000 A 
ATOM     31  C12 UNL     1       1.480   2.519   1.748  0.00  0.00    +0.000 A 
ATOM     32  C13 UNL     1       1.756   3.851   1.442  0.00  0.00    +0.000 A 
ATOM     33  C14 UNL     1       0.962   4.541   0.525  0.00  0.00    +0.000 A 
ATOM     34  C15 UNL     1      -0.120   3.902  -0.101  0.00  0.00    +0.000 A 
ATOM     35  C16 UNL     1      -0.394   2.556   0.212  0.00  0.00    +0.000 A 
BRANCH  34  36
ATOM     36  N1  UNL     1      -0.932   4.615  -1.053  0.00  0.00    +0.000 N 
ATOM     37  O4  UNL     1      -1.896   4.055  -1.616  0.00  0.00    +0.000 OA
ATOM     38  O5  UNL     1      -0.660   5.929  -1.358  0.00  0.00    +0.000 OA
ENDBRANCH  34  36
ENDBRANCH   1  30
TORSDOF 6
