REMARK  Name = resultss/4CJN/ligands/lig_269_t2.pdb
REMARK  6 active torsions:
REMARK  status: ('A' for Active; 'I' for Inactive)
REMARK    1  A    between atoms: C1_2  and  C17_23
REMARK    2  A    between atoms: N1_3  and  C2_4
REMARK    3  A    between atoms: C5_8  and  C6_9
REMARK    4  A    between atoms: C6_9  and  O2_10
REMARK    5  A    between atoms: N2_11  and  C7_12
REMARK    6  A    between atoms: C7_12  and  C8_13
REMARK                            x       y       z     vdW  Elec       q    Type
REMARK                         _______ _______ _______ _____ _____    ______ ____
ROOT
ATOM      1  C2  UNL     1       1.600  -0.418   0.177  0.00  0.00    +0.000 A 
ATOM      2  S1  UNL     1       2.401  -1.714   0.902  0.00  0.00    +0.000 S 
ATOM      3  C3  UNL     1       1.041  -2.685   1.043  0.00  0.00    +0.000 A 
ATOM      4  C4  UNL     1      -0.058  -2.041   0.477  0.00  0.00    +0.000 A 
ATOM      5  C5  UNL     1       0.249  -0.742   0.003  0.00  0.00    +0.000 A 
ATOM      6  C13 UNL     1      -1.443  -2.644   0.554  0.00  0.00    +0.000 C 
ATOM      7  C14 UNL     1      -1.406  -4.147   0.888  0.00  0.00    +0.000 C 
ATOM      8  C15 UNL     1      -0.417  -4.452   2.023  0.00  0.00    +0.000 C 
ATOM      9  C16 UNL     1       1.013  -4.067   1.619  0.00  0.00    +0.000 C 
ENDROOT
BRANCH   1  12
ATOM     10  O1  UNL     1       3.901   0.875   1.330  0.00  0.00    +0.000 OA
ATOM     11  C1  UNL     1       3.492   1.261   0.201  0.00  0.00    +0.000 C 
ATOM     12  N1  UNL     1       2.238   0.775  -0.307  0.00  0.00    +0.000 N 
ATOM     13  H1  UNL     1       1.751   1.329  -1.045  0.00  0.00    +0.000 HD
BRANCH  11  14
ATOM     14  C17 UNL     1       4.292   2.249  -0.563  0.00  0.00    +0.000 A 
ATOM     15  C18 UNL     1       5.242   3.052   0.091  0.00  0.00    +0.000 A 
ATOM     16  C19 UNL     1       5.995   3.979  -0.631  0.00  0.00    +0.000 A 
ATOM     17  C20 UNL     1       5.801   4.093  -2.007  0.00  0.00    +0.000 A 
ATOM     18  N4  UNL     1       4.890   3.303  -2.634  0.00  0.00    +0.000 NA
ATOM     19  C21 UNL     1       4.141   2.394  -1.953  0.00  0.00    +0.000 A 
ENDBRANCH  11  14
ENDBRANCH   1  12
BRANCH   5  20
ATOM     20  C6  UNL     1      -0.744   0.212  -0.533  0.00  0.00    +0.000 C 
ATOM     21  N2  UNL     1      -1.697  -0.218  -1.309  0.00  0.00    +0.000 NA
BRANCH  20  22
ATOM     22  O2  UNL     1      -0.629   1.562  -0.189  0.00  0.00    +0.000 OA
ATOM     23  H2  UNL     1      -1.252   2.280  -0.533  0.00  0.00    +0.000 HD
ENDBRANCH  20  22
BRANCH  21  24
ATOM     24  C7  UNL     1      -2.770   0.588  -1.888  0.00  0.00    +0.000 C 
BRANCH  24  25
ATOM     25  C8  UNL     1      -3.772   0.978  -0.833  0.00  0.00    +0.000 A 
ATOM     26  C9  UNL     1      -4.403  -0.004  -0.054  0.00  0.00    +0.000 A 
ATOM     27  C10 UNL     1      -5.337   0.367   0.915  0.00  0.00    +0.000 A 
ATOM     28  C11 UNL     1      -5.641   1.718   1.090  0.00  0.00    +0.000 A 
ATOM     29  N3  UNL     1      -5.034   2.658   0.319  0.00  0.00    +0.000 NA
ATOM     30  C12 UNL     1      -4.119   2.323  -0.630  0.00  0.00    +0.000 A 
ENDBRANCH  24  25
ENDBRANCH  21  24
ENDBRANCH   5  20
TORSDOF 6
