REMARK  Name = resultss/4CJN/ligands/lig_259_t1.pdb
REMARK  5 active torsions:
REMARK  status: ('A' for Active; 'I' for Inactive)
REMARK    1  A    between atoms: C1_1  and  C2_2
REMARK    2  A    between atoms: C4_4  and  O1_5
REMARK    3  A    between atoms: C9_10  and  C10_11
REMARK    4  A    between atoms: C18_20  and  O2_21
REMARK    5  A    between atoms: C27_32  and  O5_33
REMARK                            x       y       z     vdW  Elec       q    Type
REMARK                         _______ _______ _______ _____ _____    ______ ____
ROOT
ATOM      1  C1  UNL     1      -1.728   4.440   1.051  0.00  0.00    +0.000 C 
ATOM      2  C2  UNL     1      -0.645   3.411   0.912  0.00  0.00    +0.000 A 
ATOM      3  C3  UNL     1       0.677   3.719   1.301  0.00  0.00    +0.000 A 
ATOM      4  C4  UNL     1       1.719   2.788   1.127  0.00  0.00    +0.000 A 
ATOM      5  C5  UNL     1       1.409   1.541   0.563  0.00  0.00    +0.000 A 
ATOM      6  C6  UNL     1       0.097   1.232   0.191  0.00  0.00    +0.000 A 
ATOM      7  C7  UNL     1      -0.934   2.164   0.327  0.00  0.00    +0.000 A 
ATOM      8  C8  UNL     1       0.085  -0.058  -0.339  0.00  0.00    +0.000 A 
ATOM      9  C9  UNL     1      -0.911  -0.913  -0.837  0.00  0.00    +0.000 A 
ATOM     10  C18 UNL     1      -0.476  -2.173  -1.324  0.00  0.00    +0.000 A 
ATOM     11  O3  UNL     1       0.822  -2.517  -1.283  0.00  0.00    +0.000 OA
ATOM     12  C19 UNL     1       1.773  -1.716  -0.797  0.00  0.00    +0.000 A 
ATOM     13  C20 UNL     1       1.379  -0.482  -0.315  0.00  0.00    +0.000 A 
ATOM     14  C21 UNL     1       2.214   0.443   0.238  0.00  0.00    +0.000 A 
ATOM     15  C22 UNL     1       3.576   0.152   0.374  0.00  0.00    +0.000 A 
ATOM     16  O4  UNL     1       4.363   0.980   0.904  0.00  0.00    +0.000 OA
ATOM     17  C23 UNL     1       4.051  -1.109  -0.095  0.00  0.00    +0.000 A 
ATOM     18  C24 UNL     1       5.406  -1.450   0.068  0.00  0.00    +0.000 A 
ATOM     19  C25 UNL     1       5.885  -2.682  -0.364  0.00  0.00    +0.000 A 
ATOM     20  C26 UNL     1       5.036  -3.584  -0.995  0.00  0.00    +0.000 A 
ATOM     21  C27 UNL     1       3.690  -3.278  -1.215  0.00  0.00    +0.000 A 
ATOM     22  C28 UNL     1       3.155  -2.051  -0.724  0.00  0.00    +0.000 A 
ENDROOT
BRANCH   9  23
ATOM     23  C10 UNL     1      -2.345  -0.585  -0.788  0.00  0.00    +0.000 A 
ATOM     24  C11 UNL     1      -3.220  -0.519  -1.868  0.00  0.00    +0.000 A 
ATOM     25  N1  UNL     1      -4.476  -0.257  -1.440  0.00  0.00    +0.000 N 
ATOM     26  C12 UNL     1      -4.404  -0.175  -0.100  0.00  0.00    +0.000 A 
ATOM     27  C13 UNL     1      -5.450   0.066   0.790  0.00  0.00    +0.000 A 
ATOM     28  C14 UNL     1      -5.150   0.091   2.165  0.00  0.00    +0.000 A 
ATOM     29  C15 UNL     1      -3.829  -0.129   2.614  0.00  0.00    +0.000 A 
ATOM     30  C16 UNL     1      -2.794  -0.374   1.693  0.00  0.00    +0.000 A 
ATOM     31  C17 UNL     1      -3.121  -0.381   0.337  0.00  0.00    +0.000 A 
ATOM     32  H8  UNL     1      -5.329  -0.152  -2.033  0.00  0.00    +0.000 HD
ENDBRANCH   9  23
BRANCH   4  33
ATOM     33  O1  UNL     1       3.018   3.116   1.504  0.00  0.00    +0.000 OA
ATOM     34  H5  UNL     1       3.242   4.017   1.909  0.00  0.00    +0.000 HD
ENDBRANCH   4  33
BRANCH  10  35
ATOM     35  O2  UNL     1      -1.401  -3.079  -1.835  0.00  0.00    +0.000 OA
ATOM     36  H13 UNL     1      -1.102  -3.984  -2.179  0.00  0.00    +0.000 HD
ENDBRANCH  10  35
BRANCH  21  37
ATOM     37  O5  UNL     1       2.950  -4.215  -1.942  0.00  0.00    +0.000 OA
ATOM     38  H17 UNL     1       2.090  -4.014  -2.429  0.00  0.00    +0.000 HD
ENDBRANCH  21  37
TORSDOF 4
