REMARK  Name = resultss/4CJN/ligands/lig_186_t1.pdb
REMARK  7 active torsions:
REMARK  status: ('A' for Active; 'I' for Inactive)
REMARK    1  A    between atoms: O1_1  and  C1_2
REMARK    2  A    between atoms: C1_2  and  C9_14
REMARK    3  A    between atoms: N1_3  and  N2_4
REMARK    4  A    between atoms: C2_5  and  C3_6
REMARK    5  A    between atoms: C5_8  and  O2_9
REMARK    6  A    between atoms: C7_11  and  O3_12
REMARK    7  A    between atoms: C12_17  and  C13_18
REMARK                            x       y       z     vdW  Elec       q    Type
REMARK                         _______ _______ _______ _____ _____    ______ ____
ROOT
ATOM      1  C1  UNL     1      -1.621  -1.060  -1.062  0.00  0.00    +0.000 C 
ATOM      2  N1  UNL     1      -2.582  -0.355  -0.541  0.00  0.00    +0.000 NA
ENDROOT
BRANCH   1   3
ATOM      3  C9  UNL     1      -0.195  -0.837  -0.729  0.00  0.00    +0.000 A 
ATOM      4  C10 UNL     1       0.762  -0.846  -1.753  0.00  0.00    +0.000 A 
ATOM      5  C11 UNL     1       2.116  -0.662  -1.460  0.00  0.00    +0.000 A 
ATOM      6  C12 UNL     1       2.542  -0.481  -0.133  0.00  0.00    +0.000 A 
ATOM      7  C20 UNL     1       1.584  -0.496   0.895  0.00  0.00    +0.000 A 
ATOM      8  C21 UNL     1       0.229  -0.680   0.601  0.00  0.00    +0.000 A 
BRANCH   6   9
ATOM      9  C13 UNL     1       3.980  -0.286   0.167  0.00  0.00    +0.000 A 
ATOM     10  N3  UNL     1       4.943  -0.270  -0.791  0.00  0.00    +0.000 NA
ATOM     11  C14 UNL     1       6.174  -0.074  -0.254  0.00  0.00    +0.000 A 
ATOM     12  C15 UNL     1       7.357  -0.011  -0.994  0.00  0.00    +0.000 A 
ATOM     13  C16 UNL     1       8.569   0.197  -0.313  0.00  0.00    +0.000 A 
ATOM     14  C17 UNL     1       8.585   0.339   1.090  0.00  0.00    +0.000 A 
ATOM     15  C18 UNL     1       7.389   0.274   1.823  0.00  0.00    +0.000 A 
ATOM     16  C19 UNL     1       6.203   0.067   1.123  0.00  0.00    +0.000 A 
ATOM     17  S1  UNL     1       4.640  -0.054   1.716  0.00  0.00    +0.000 S 
ENDBRANCH   6   9
ENDBRANCH   1   3
BRANCH   1  18
ATOM     18  O1  UNL     1      -1.939  -2.048  -1.991  0.00  0.00    +0.000 OA
ATOM     19  H1  UNL     1      -2.900  -2.228  -2.256  0.00  0.00    +0.000 HD
ENDBRANCH   1  18
BRANCH   2  20
ATOM     20  N2  UNL     1      -2.358   0.710   0.345  0.00  0.00    +0.000 NA
ATOM     21  C2  UNL     1      -3.318   1.415   0.865  0.00  0.00    +0.000 C 
BRANCH  21  22
ATOM     22  C3  UNL     1      -4.752   1.192   0.571  0.00  0.00    +0.000 A 
ATOM     23  C4  UNL     1      -5.684   1.293   1.616  0.00  0.00    +0.000 A 
ATOM     24  C5  UNL     1      -7.049   1.114   1.370  0.00  0.00    +0.000 A 
ATOM     25  C6  UNL     1      -7.494   0.848   0.068  0.00  0.00    +0.000 A 
ATOM     26  C7  UNL     1      -6.579   0.775  -0.986  0.00  0.00    +0.000 A 
ATOM     27  C8  UNL     1      -5.211   0.954  -0.737  0.00  0.00    +0.000 A 
BRANCH  24  28
ATOM     28  O2  UNL     1      -7.955   1.202   2.425  0.00  0.00    +0.000 OA
ATOM     29  H4  UNL     1      -8.950   1.077   2.281  0.00  0.00    +0.000 HD
ENDBRANCH  24  28
BRANCH  26  30
ATOM     30  O3  UNL     1      -7.040   0.530  -2.278  0.00  0.00    +0.000 OA
ATOM     31  H6  UNL     1      -6.404   0.472  -3.065  0.00  0.00    +0.000 HD
ENDBRANCH  26  30
ENDBRANCH  21  22
ENDBRANCH   2  20
TORSDOF 7
