REMARK  Name = resultss/4CJN/ligands/lig_189_t0.pdb
REMARK  16 active torsions:
REMARK  status: ('A' for Active; 'I' for Inactive)
REMARK    1  A    between atoms: C1_1  and  C2_2
REMARK    2  A    between atoms: C2_2  and  C3_3
REMARK    3  A    between atoms: C3_3  and  C4_4
REMARK    4  A    between atoms: C4_4  and  C5_5
REMARK    5  A    between atoms: C5_5  and  O1_6
REMARK    6  A    between atoms: O1_6  and  C6_7
REMARK    7  A    between atoms: C6_7  and  C7_8
REMARK    8  A    between atoms: C6_7  and  C8_10
REMARK    9  A    between atoms: C7_8  and  O2_9
REMARK   10  A    between atoms: C8_10  and  O3_11
REMARK   11  A    between atoms: C8_10  and  C9_12
REMARK   12  A    between atoms: C9_12  and  S1_13
REMARK   13  A    between atoms: C11_15  and  O4_16
REMARK   14  A    between atoms: C12_17  and  O5_18
REMARK   15  A    between atoms: C13_19  and  C14_20
REMARK   16  A    between atoms: C14_20  and  O6_21
REMARK                            x       y       z     vdW  Elec       q    Type
REMARK                         _______ _______ _______ _____ _____    ______ ____
ROOT
ATOM      1  C9  UNL     1       0.868  -1.570   0.968  0.00  0.00    +0.000 C 
ENDROOT
BRANCH   1   2
ATOM      2  S1  UNL     1      -0.676  -0.853   1.559  0.00  0.00    +0.000 S 
ATOM      3  C10 UNL     1      -1.790   0.041   0.517  0.00  0.00    +0.000 C 
ATOM      4  C11 UNL     1      -3.150  -0.135   1.189  0.00  0.00    +0.000 C 
ATOM      5  C12 UNL     1      -3.202  -1.560   1.781  0.00  0.00    +0.000 C 
ATOM      6  C13 UNL     1      -1.846  -1.843   2.460  0.00  0.00    +0.000 C 
ATOM      7 CL1  UNL     1       0.000   0.000   0.000  0.00  0.00    +0.000 Cl
BRANCH   4   8
ATOM      8  O4  UNL     1      -4.176   0.059   0.253  0.00  0.00    +0.000 OA
ATOM      9  H23 UNL     1      -5.020   0.141   0.769  0.00  0.00    +0.000 HD
ENDBRANCH   4   8
BRANCH   5  10
ATOM     10  O5  UNL     1      -4.250  -1.647   2.713  0.00  0.00    +0.000 OA
ATOM     11  H25 UNL     1      -4.552  -2.592   2.721  0.00  0.00    +0.000 HD
ENDBRANCH   5  10
BRANCH   6  12
ATOM     12  C14 UNL     1      -1.479  -3.336   2.474  0.00  0.00    +0.000 C 
BRANCH  12  13
ATOM     13  O6  UNL     1      -2.416  -4.069   3.215  0.00  0.00    +0.000 OA
ATOM     14  H29 UNL     1      -2.240  -3.872   4.172  0.00  0.00    +0.000 HD
ENDBRANCH  12  13
ENDBRANCH   6  12
ENDBRANCH   1   2
BRANCH   1  15
ATOM     15  C8  UNL     1       0.877  -2.136  -0.472  0.00  0.00    +0.000 C 
BRANCH  15  16
ATOM     16  O3  UNL     1      -0.193  -3.025  -0.680  0.00  0.00    +0.000 OA
ATOM     17  H17 UNL     1      -1.016  -2.491  -0.808  0.00  0.00    +0.000 HD
ENDBRANCH  15  16
BRANCH  15  18
ATOM     18  C6  UNL     1       0.972  -1.054  -1.582  0.00  0.00    +0.000 C 
BRANCH  18  19
ATOM     19  O1  UNL     1       2.114  -0.241  -1.349  0.00  0.00    +0.000 OA
BRANCH  19  20
ATOM     20  C5  UNL     1       1.748   1.114  -1.188  0.00  0.00    +0.000 C 
BRANCH  20  21
ATOM     21  C4  UNL     1       3.007   1.942  -0.919  0.00  0.00    +0.000 C 
BRANCH  21  22
ATOM     22  C3  UNL     1       2.726   3.451  -0.866  0.00  0.00    +0.000 C 
BRANCH  22  24
ATOM     23  C1  UNL     1       1.800   5.380   0.474  0.00  0.00    +0.000 C 
ATOM     24  C2  UNL     1       1.935   3.863   0.385  0.00  0.00    +0.000 C 
ENDBRANCH  22  24
ENDBRANCH  21  22
ENDBRANCH  20  21
ENDBRANCH  19  20
ENDBRANCH  18  19
BRANCH  18  25
ATOM     25  C7  UNL     1       1.127  -1.714  -2.963  0.00  0.00    +0.000 C 
BRANCH  25  26
ATOM     26  O2  UNL     1       1.220  -0.737  -3.965  0.00  0.00    +0.000 OA
ATOM     27  H15 UNL     1       0.304  -0.378  -4.098  0.00  0.00    +0.000 HD
ENDBRANCH  25  26
ENDBRANCH  18  25
ENDBRANCH  15  18
ENDBRANCH   1  15
TORSDOF 15
