REMARK  Name = resultss/4CJN/ligands/lig_412_t1.pdb
REMARK  5 active torsions:
REMARK  status: ('A' for Active; 'I' for Inactive)
REMARK    1  A    between atoms: C1_2  and  C9_15
REMARK    2  A    between atoms: N1_3  and  N2_4
REMARK    3  A    between atoms: C2_5  and  S1_6
REMARK    4  A    between atoms: N3_7  and  C3_8
REMARK    5  A    between atoms: C19_26  and  C20_27
REMARK                            x       y       z     vdW  Elec       q    Type
REMARK                         _______ _______ _______ _____ _____    ______ ____
ROOT
ATOM      1  C9  UNL     1       0.339  -0.633  -0.276  0.00  0.00    +0.000 A 
ATOM      2  C10 UNL     1       1.021  -1.739  -0.826  0.00  0.00    +0.000 A 
ATOM      3  C11 UNL     1       2.405  -1.650  -0.922  0.00  0.00    +0.000 A 
ATOM      4  C12 UNL     1       3.098  -0.533  -0.508  0.00  0.00    +0.000 A 
ATOM      5  N4  UNL     1       4.435  -0.706  -0.639  0.00  0.00    +0.000 N 
ATOM      6  C13 UNL     1       4.573  -1.944  -1.162  0.00  0.00    +0.000 A 
ATOM      7  C14 UNL     1       5.764  -2.597  -1.474  0.00  0.00    +0.000 A 
ATOM      8  C15 UNL     1       5.683  -3.902  -1.995  0.00  0.00    +0.000 A 
ATOM      9  C16 UNL     1       4.428  -4.523  -2.185  0.00  0.00    +0.000 A 
ATOM     10  C17 UNL     1       3.239  -3.846  -1.858  0.00  0.00    +0.000 A 
ATOM     11  C18 UNL     1       3.350  -2.553  -1.350  0.00  0.00    +0.000 A 
ATOM     12  C19 UNL     1       2.408   0.566   0.023  0.00  0.00    +0.000 A 
ATOM     13  N5  UNL     1       1.048   0.470   0.129  0.00  0.00    +0.000 NA
ATOM     14  H9  UNL     1       5.202  -0.053  -0.367  0.00  0.00    +0.000 HD
ENDROOT
BRANCH  12  15
ATOM     15  C20 UNL     1       3.085   1.801   0.470  0.00  0.00    +0.000 A 
ATOM     16  C21 UNL     1       4.058   2.424  -0.331  0.00  0.00    +0.000 A 
ATOM     17  C22 UNL     1       4.670   3.607   0.094  0.00  0.00    +0.000 A 
ATOM     18  C23 UNL     1       4.307   4.185   1.314  0.00  0.00    +0.000 A 
ATOM     19  C24 UNL     1       3.325   3.585   2.106  0.00  0.00    +0.000 A 
ATOM     20  C25 UNL     1       2.710   2.402   1.684  0.00  0.00    +0.000 A 
ENDBRANCH  12  15
BRANCH   1  22
ATOM     21  O1  UNL     1      -1.786  -1.676  -0.451  0.00  0.00    +0.000 OA
ATOM     22  C1  UNL     1      -1.130  -0.651  -0.118  0.00  0.00    +0.000 C 
ATOM     23  N1  UNL     1      -1.820   0.496   0.401  0.00  0.00    +0.000 N 
ATOM     24  H1  UNL     1      -1.345   1.426   0.367  0.00  0.00    +0.000 HD
BRANCH  23  25
ATOM     25  N2  UNL     1      -3.206   0.479   0.634  0.00  0.00    +0.000 NA
ATOM     26  C2  UNL     1      -3.785  -0.316   1.487  0.00  0.00    +0.000 C 
ATOM     27  N3  UNL     1      -5.210  -0.281   1.653  0.00  0.00    +0.000 N 
ATOM     28  H3  UNL     1      -5.600  -0.646   2.551  0.00  0.00    +0.000 HD
BRANCH  27  29
ATOM     29  C3  UNL     1      -6.124   0.296   0.704  0.00  0.00    +0.000 A 
ATOM     30  C4  UNL     1      -7.311   0.889   1.164  0.00  0.00    +0.000 A 
ATOM     31  C5  UNL     1      -8.226   1.436   0.260  0.00  0.00    +0.000 A 
ATOM     32  C6  UNL     1      -7.971   1.383  -1.114  0.00  0.00    +0.000 A 
ATOM     33 CL1  UNL     1      -9.121   2.068  -2.248  0.00  0.00    +0.000 Cl
ATOM     34  C7  UNL     1      -6.804   0.774  -1.583  0.00  0.00    +0.000 A 
ATOM     35  C8  UNL     1      -5.886   0.226  -0.681  0.00  0.00    +0.000 A 
ENDBRANCH  27  29
BRANCH  26  36
ATOM     36  S1  UNL     1      -2.822  -1.356   2.593  0.00  0.00    +0.000 S 
ATOM     37  H2  UNL     1      -2.720  -0.332   3.552  0.00  0.00    +0.000 HD
ENDBRANCH  26  36
ENDBRANCH  23  25
ENDBRANCH   1  22
TORSDOF 5
