REMARK  Name = resultss/4CJN/ligands/lig_441_t0.pdb
REMARK  12 active torsions:
REMARK  status: ('A' for Active; 'I' for Inactive)
REMARK    1  A    between atoms: C1_1  and  O1_2
REMARK    2  A    between atoms: O1_2  and  C2_3
REMARK    3  A    between atoms: C4_5  and  N1_6
REMARK    4  A    between atoms: N1_6  and  C5_7
REMARK    5  A    between atoms: C5_7  and  N2_9
REMARK    6  A    between atoms: N2_9  and  N3_10
REMARK    7  A    between atoms: C6_11  and  C7_13
REMARK    8  A    between atoms: C17_24  and  C18_25
REMARK    9  A    between atoms: C25_33  and  O3_34
REMARK   10  A    between atoms: O3_34  and  C26_35
REMARK   11  A    between atoms: C27_36  and  O4_37
REMARK   12  A    between atoms: O4_37  and  C28_38
REMARK                            x       y       z     vdW  Elec       q    Type
REMARK                         _______ _______ _______ _____ _____    ______ ____
ROOT
ATOM      1  N3  UNL     1      -0.180   0.668  -0.197  0.00  0.00    +0.000 N 
ATOM      2  C6  UNL     1      -0.823  -0.483   0.364  0.00  0.00    +0.000 C 
ATOM      3  O2  UNL     1      -0.146  -1.325   1.014  0.00  0.00    +0.000 OA
ATOM      4  H7  UNL     1      -0.680   1.244  -0.912  0.00  0.00    +0.000 HD
ENDROOT
BRANCH   2   5
ATOM      5  C7  UNL     1      -2.270  -0.697   0.189  0.00  0.00    +0.000 A 
ATOM      6  C8  UNL     1      -2.808  -2.001   0.207  0.00  0.00    +0.000 A 
ATOM      7  C9  UNL     1      -4.186  -2.120   0.078  0.00  0.00    +0.000 A 
ATOM      8  C10 UNL     1      -5.009  -1.017  -0.031  0.00  0.00    +0.000 A 
ATOM      9  N4  UNL     1      -6.304  -1.383  -0.174  0.00  0.00    +0.000 N 
ATOM     10  C11 UNL     1      -6.287  -2.736  -0.142  0.00  0.00    +0.000 A 
ATOM     11  C12 UNL     1      -7.381  -3.592  -0.240  0.00  0.00    +0.000 A 
ATOM     12  C13 UNL     1      -7.142  -4.978  -0.170  0.00  0.00    +0.000 A 
ATOM     13  C14 UNL     1      -5.828  -5.473  -0.015  0.00  0.00    +0.000 A 
ATOM     14  C15 UNL     1      -4.737  -4.590   0.073  0.00  0.00    +0.000 A 
ATOM     15  C16 UNL     1      -5.006  -3.224   0.013  0.00  0.00    +0.000 A 
ATOM     16  C17 UNL     1      -4.463   0.272  -0.036  0.00  0.00    +0.000 A 
ATOM     17  N5  UNL     1      -3.103   0.385   0.061  0.00  0.00    +0.000 NA
ATOM     18  H9  UNL     1      -7.137  -0.771  -0.318  0.00  0.00    +0.000 HD
BRANCH  16  19
ATOM     19  C18 UNL     1      -5.293   1.495  -0.084  0.00  0.00    +0.000 A 
ATOM     20  C19 UNL     1      -6.400   1.646   0.770  0.00  0.00    +0.000 A 
ATOM     21  C20 UNL     1      -7.148   2.828   0.753  0.00  0.00    +0.000 A 
ATOM     22  C21 UNL     1      -6.795   3.869  -0.108  0.00  0.00    +0.000 A 
ATOM     23  C22 UNL     1      -5.687   3.734  -0.948  0.00  0.00    +0.000 A 
ATOM     24  C23 UNL     1      -4.932   2.557  -0.930  0.00  0.00    +0.000 A 
ENDBRANCH  16  19
ENDBRANCH   2   5
BRANCH   1  25
ATOM     25  N2  UNL     1       1.104   1.048   0.226  0.00  0.00    +0.000 N 
ATOM     26  H6  UNL     1       1.389   0.883   1.219  0.00  0.00    +0.000 HD
BRANCH  25  27
ATOM     27  C5  UNL     1       2.056   1.642  -0.667  0.00  0.00    +0.000 C 
ATOM     28  S1  UNL     1       1.910   1.463  -2.293  0.00  0.00    +0.000 S 
BRANCH  27  29
ATOM     29  N1  UNL     1       3.255   2.214  -0.134  0.00  0.00    +0.000 N 
ATOM     30  H5  UNL     1       3.188   3.167   0.296  0.00  0.00    +0.000 HD
BRANCH  29  33
ATOM     31  C2  UNL     1       6.971   1.724  -0.060  0.00  0.00    +0.000 A 
ATOM     32  C3  UNL     1       5.699   2.326  -0.020  0.00  0.00    +0.000 A 
ATOM     33  C4  UNL     1       4.538   1.566  -0.208  0.00  0.00    +0.000 A 
ATOM     34  C24 UNL     1       4.650   0.185  -0.436  0.00  0.00    +0.000 A 
ATOM     35  C25 UNL     1       5.913  -0.438  -0.458  0.00  0.00    +0.000 A 
ATOM     36  C27 UNL     1       7.069   0.330  -0.249  0.00  0.00    +0.000 A 
BRANCH  31  38
ATOM     37  C1  UNL     1       8.197   3.889   0.261  0.00  0.00    +0.000 C 
ATOM     38  O1  UNL     1       8.149   2.481   0.053  0.00  0.00    +0.000 OA
ENDBRANCH  31  38
BRANCH  35  39
ATOM     39  O3  UNL     1       6.061  -1.820  -0.665  0.00  0.00    +0.000 OA
ATOM     40  C26 UNL     1       4.986  -2.729  -0.878  0.00  0.00    +0.000 C 
ENDBRANCH  35  39
BRANCH  36  41
ATOM     41  O4  UNL     1       8.309  -0.320  -0.254  0.00  0.00    +0.000 OA
ATOM     42  C28 UNL     1       9.213  -0.278   0.847  0.00  0.00    +0.000 C 
ENDBRANCH  36  41
ENDBRANCH  29  33
ENDBRANCH  27  29
ENDBRANCH  25  27
ENDBRANCH   1  25
TORSDOF 9
