REMARK  Name = resultss/4CJN/ligands/lig_280_t1.pdb
REMARK  9 active torsions:
REMARK  status: ('A' for Active; 'I' for Inactive)
REMARK    1  A    between atoms: C2_2  and  C3_3
REMARK    2  A    between atoms: C3_3  and  C4_4
REMARK    3  A    between atoms: C6_6  and  C7_7
REMARK    4  A    between atoms: C10_10  and  O1_11
REMARK    5  A    between atoms: C11_12  and  C12_13
REMARK    6  A    between atoms: C12_13  and  C13_14
REMARK    7  A    between atoms: C17_19  and  C18_20
REMARK    8  A    between atoms: C18_20  and  C19_21
REMARK    9  A    between atoms: C18_20  and  N1_29
REMARK                            x       y       z     vdW  Elec       q    Type
REMARK                         _______ _______ _______ _____ _____    ______ ____
ROOT
ATOM      1  C4  UNL     1      -0.019   2.854  -1.649  0.00  0.00    +0.000 C 
ATOM      2  C5  UNL     1       1.158   2.430  -2.131  0.00  0.00    +0.000 C 
ATOM      3  C6  UNL     1       1.429   0.986  -2.472  0.00  0.00    +0.000 C 
ATOM      4  C16 UNL     1       0.196   0.125  -2.394  0.00  0.00    +0.000 C 
ATOM      5  O2  UNL     1       0.208  -1.002  -2.959  0.00  0.00    +0.000 OA
ATOM      6  C17 UNL     1      -1.016   0.588  -1.670  0.00  0.00    +0.000 C 
ATOM      7  C29 UNL     1      -1.138   1.908  -1.437  0.00  0.00    +0.000 C 
ENDROOT
BRANCH   3   8
ATOM      8  C7  UNL     1       2.500   0.428  -1.566  0.00  0.00    +0.000 A 
ATOM      9  C8  UNL     1       3.651  -0.154  -2.116  0.00  0.00    +0.000 A 
ATOM     10  C9  UNL     1       4.632  -0.697  -1.289  0.00  0.00    +0.000 A 
ATOM     11  C10 UNL     1       4.486  -0.673   0.099  0.00  0.00    +0.000 A 
ATOM     12  C11 UNL     1       3.332  -0.089   0.673  0.00  0.00    +0.000 A 
ATOM     13  C15 UNL     1       2.345   0.450  -0.170  0.00  0.00    +0.000 A 
BRANCH  11  14
ATOM     14  O1  UNL     1       5.504  -1.236   0.873  0.00  0.00    +0.000 OA
ATOM     15  H10 UNL     1       5.488  -1.266   1.886  0.00  0.00    +0.000 HD
ENDBRANCH  11  14
BRANCH  12  16
ATOM     16  C12 UNL     1       3.124  -0.054   2.167  0.00  0.00    +0.000 C 
BRANCH  16  17
ATOM     17  C13 UNL     1       2.799  -1.425   2.692  0.00  0.00    +0.000 C 
ATOM     18  C14 UNL     1       3.048  -1.756   3.963  0.00  0.00    +0.000 C 
ENDBRANCH  16  17
ENDBRANCH  12  16
ENDBRANCH   3   8
BRANCH   1  19
ATOM     19  C3  UNL     1      -0.181   4.276  -1.176  0.00  0.00    +0.000 C 
BRANCH  19  21
ATOM     20  C1  UNL     1       0.774   3.945   1.093  0.00  0.00    +0.000 C 
ATOM     21  C2  UNL     1      -0.253   4.323   0.328  0.00  0.00    +0.000 C 
ENDBRANCH  19  21
ENDBRANCH   1  19
BRANCH   6  22
ATOM     22  C18 UNL     1      -2.143  -0.399  -1.336  0.00  0.00    +0.000 C 
BRANCH  22  23
ATOM     23  C19 UNL     1      -3.101   0.075  -0.240  0.00  0.00    +0.000 A 
ATOM     24  C20 UNL     1      -2.631   0.621   0.972  0.00  0.00    +0.000 A 
ATOM     25  C21 UNL     1      -3.533   1.077   1.941  0.00  0.00    +0.000 A 
ATOM     26 CL1  UNL     1      -2.936   1.796   3.425  0.00  0.00    +0.000 Cl
ATOM     27  C22 UNL     1      -4.909   0.968   1.726  0.00  0.00    +0.000 A 
ATOM     28  C23 UNL     1      -5.388   0.405   0.541  0.00  0.00    +0.000 A 
ATOM     29 CL2  UNL     1      -7.114   0.253   0.274  0.00  0.00    +0.000 Cl
ATOM     30  C24 UNL     1      -4.489  -0.040  -0.436  0.00  0.00    +0.000 A 
ENDBRANCH  22  23
BRANCH  22  31
ATOM     31  N1  UNL     1      -1.601  -1.754  -1.050  0.00  0.00    +0.000 NA
ATOM     32  C25 UNL     1      -2.615  -2.824  -1.087  0.00  0.00    +0.000 C 
ATOM     33  C26 UNL     1      -1.961  -4.188  -0.795  0.00  0.00    +0.000 C 
ATOM     34  O3  UNL     1      -0.551  -4.093  -0.859  0.00  0.00    +0.000 OA
ATOM     35  C27 UNL     1      -0.080  -3.250   0.183  0.00  0.00    +0.000 C 
ATOM     36  C28 UNL     1      -0.773  -1.870   0.164  0.00  0.00    +0.000 C 
ENDBRANCH  22  31
ENDBRANCH   6  22
TORSDOF 9
