REMARK  Name = resultss/4CJN/ligands/lig_264_t2.pdb
REMARK  6 active torsions:
REMARK  status: ('A' for Active; 'I' for Inactive)
REMARK    1  A    between atoms: C1_2  and  C17_22
REMARK    2  A    between atoms: N1_3  and  C2_4
REMARK    3  A    between atoms: C5_8  and  C6_9
REMARK    4  A    between atoms: C6_9  and  O2_10
REMARK    5  A    between atoms: N2_11  and  C7_12
REMARK    6  A    between atoms: C7_12  and  C8_13
REMARK                            x       y       z     vdW  Elec       q    Type
REMARK                         _______ _______ _______ _____ _____    ______ ____
ROOT
ATOM      1  C2  UNL     1       1.782   0.917   0.292  0.00  0.00    +0.000 A 
ATOM      2  S1  UNL     1       2.197   2.487   0.813  0.00  0.00    +0.000 S 
ATOM      3  C3  UNL     1       0.612   3.024   0.804  0.00  0.00    +0.000 A 
ATOM      4  C4  UNL     1      -0.230   2.046   0.425  0.00  0.00    +0.000 A 
ATOM      5  C5  UNL     1       0.387   0.823   0.121  0.00  0.00    +0.000 A 
ATOM      6  C14 UNL     1      -1.633   2.516   0.371  0.00  0.00    +0.000 C 
ATOM      7  C15 UNL     1      -1.526   4.004   0.796  0.00  0.00    +0.000 C 
ATOM      8  C16 UNL     1      -0.036   4.315   1.079  0.00  0.00    +0.000 C 
ENDROOT
BRANCH   1  11
ATOM      9  O1  UNL     1       4.582   1.122  -0.311  0.00  0.00    +0.000 OA
ATOM     10  C1  UNL     1       4.097  -0.029  -0.131  0.00  0.00    +0.000 C 
ATOM     11  N1  UNL     1       2.703  -0.181   0.192  0.00  0.00    +0.000 N 
ATOM     12  H1  UNL     1       2.343  -1.132   0.424  0.00  0.00    +0.000 HD
BRANCH  10  13
ATOM     13  C17 UNL     1       4.984  -1.210  -0.261  0.00  0.00    +0.000 A 
ATOM     14  C18 UNL     1       6.365  -1.084  -0.035  0.00  0.00    +0.000 A 
ATOM     15  C19 UNL     1       7.203  -2.193  -0.162  0.00  0.00    +0.000 A 
ATOM     16  C20 UNL     1       6.656  -3.424  -0.526  0.00  0.00    +0.000 A 
ATOM     17  N3  UNL     1       5.322  -3.533  -0.758  0.00  0.00    +0.000 NA
ATOM     18  C21 UNL     1       4.484  -2.469  -0.638  0.00  0.00    +0.000 A 
ENDBRANCH  10  13
ENDBRANCH   1  11
BRANCH   5  19
ATOM     19  C6  UNL     1      -0.336  -0.371  -0.371  0.00  0.00    +0.000 C 
ATOM     20  N2  UNL     1      -1.622  -0.453  -0.190  0.00  0.00    +0.000 NA
BRANCH  19  21
ATOM     21  O2  UNL     1       0.371  -1.375  -1.039  0.00  0.00    +0.000 OA
ATOM     22  H2  UNL     1      -0.065  -2.215  -1.399  0.00  0.00    +0.000 HD
ENDBRANCH  19  21
BRANCH  20  23
ATOM     23  C7  UNL     1      -2.470  -1.553  -0.632  0.00  0.00    +0.000 C 
BRANCH  23  24
ATOM     24  C8  UNL     1      -3.890  -1.258  -0.248  0.00  0.00    +0.000 A 
ATOM     25  C9  UNL     1      -4.410  -1.727   0.970  0.00  0.00    +0.000 A 
ATOM     26  C10 UNL     1      -5.720  -1.412   1.344  0.00  0.00    +0.000 A 
ATOM     27  C11 UNL     1      -6.514  -0.618   0.512  0.00  0.00    +0.000 A 
ATOM     28  C12 UNL     1      -5.998  -0.133  -0.693  0.00  0.00    +0.000 A 
ATOM     29  C13 UNL     1      -4.689  -0.447  -1.071  0.00  0.00    +0.000 A 
ENDBRANCH  23  24
ENDBRANCH  20  23
ENDBRANCH   5  19
TORSDOF 6
