REMARK  Name = resultss/4CJN/ligands/lig_111_t0.pdb
REMARK  9 active torsions:
REMARK  status: ('A' for Active; 'I' for Inactive)
REMARK    1  A    between atoms: C1_1  and  C2_2
REMARK    2  A    between atoms: C2_2  and  C3_3
REMARK    3  A    between atoms: C3_3  and  C4_4
REMARK    4  A    between atoms: C4_4  and  N1_5
REMARK    5  A    between atoms: C6_7  and  O1_8
REMARK    6  A    between atoms: C7_9  and  O2_10
REMARK    7  A    between atoms: C8_11  and  O3_12
REMARK    8  A    between atoms: C9_13  and  C10_14
REMARK    9  A    between atoms: C10_14  and  O4_15
REMARK                            x       y       z     vdW  Elec       q    Type
REMARK                         _______ _______ _______ _____ _____    ______ ____
ROOT
ATOM      1  N1  UNL     1      -0.134   0.037  -0.210  0.00  0.00    +0.000 NA
ATOM      2  C5  UNL     1      -0.516   1.471  -0.314  0.00  0.00    +0.000 C 
ATOM      3  C6  UNL     1      -1.588   1.886   0.709  0.00  0.00    +0.000 C 
ATOM      4  C7  UNL     1      -2.880   1.039   0.561  0.00  0.00    +0.000 C 
ATOM      5  C8  UNL     1      -2.631  -0.315  -0.153  0.00  0.00    +0.000 C 
ATOM      6  C9  UNL     1      -1.235  -0.870   0.223  0.00  0.00    +0.000 C 
ENDROOT
BRANCH   3   7
ATOM      7  O1  UNL     1      -1.064   1.753   2.006  0.00  0.00    +0.000 OA
ATOM      8  H13 UNL     1      -1.628   2.311   2.604  0.00  0.00    +0.000 HD
ENDBRANCH   3   7
BRANCH   4   9
ATOM      9  O2  UNL     1      -3.852   1.785  -0.129  0.00  0.00    +0.000 OA
ATOM     10  H15 UNL     1      -4.724   1.339   0.031  0.00  0.00    +0.000 HD
ENDBRANCH   4   9
BRANCH   5  11
ATOM     11  O3  UNL     1      -2.724  -0.163  -1.549  0.00  0.00    +0.000 OA
ATOM     12  H17 UNL     1      -3.681  -0.269  -1.792  0.00  0.00    +0.000 HD
ENDBRANCH   5  11
BRANCH   1  13
ATOM     13  C4  UNL     1       1.102  -0.150   0.587  0.00  0.00    +0.000 C 
BRANCH  13  14
ATOM     14  C3  UNL     1       2.327  -0.059  -0.329  0.00  0.00    +0.000 C 
BRANCH  14  16
ATOM     15  C1  UNL     1       4.845  -0.173  -0.452  0.00  0.00    +0.000 C 
ATOM     16  C2  UNL     1       3.625  -0.261   0.461  0.00  0.00    +0.000 C 
ENDBRANCH  14  16
ENDBRANCH  13  14
ENDBRANCH   1  13
BRANCH   6  17
ATOM     17  C10 UNL     1      -1.033  -2.277  -0.377  0.00  0.00    +0.000 C 
BRANCH  17  18
ATOM     18  O4  UNL     1      -0.848  -2.199  -1.764  0.00  0.00    +0.000 OA
ATOM     19  H21 UNL     1      -0.732  -3.133  -2.080  0.00  0.00    +0.000 HD
ENDBRANCH  17  18
ENDBRANCH   6  17
TORSDOF 8
