REMARK  Name = resultss/4CJN/ligands/lig_429_t2.pdb
REMARK  7 active torsions:
REMARK  status: ('A' for Active; 'I' for Inactive)
REMARK    1  A    between atoms: C1_2  and  C15_21
REMARK    2  A    between atoms: N1_3  and  N2_4
REMARK    3  A    between atoms: C2_5  and  S1_6
REMARK    4  A    between atoms: N3_7  and  C3_8
REMARK    5  A    between atoms: C6_11  and  O2_12
REMARK    6  A    between atoms: O2_12  and  C7_13
REMARK    7  A    between atoms: C25_32  and  C26_33
REMARK                            x       y       z     vdW  Elec       q    Type
REMARK                         _______ _______ _______ _____ _____    ______ ____
ROOT
ATOM      1  O1  UNL     1      -1.551   3.170  -2.675  0.00  0.00    +0.000 OA
ATOM      2  C1  UNL     1      -1.573   2.125  -1.963  0.00  0.00    +0.000 C 
ATOM      3  N1  UNL     1      -0.353   1.415  -1.704  0.00  0.00    +0.000 N 
ATOM      4  H1  UNL     1      -0.362   0.618  -1.028  0.00  0.00    +0.000 HD
ENDROOT
BRANCH   2   5
ATOM      5  C15 UNL     1      -2.852   1.649  -1.392  0.00  0.00    +0.000 A 
ATOM      6  C16 UNL     1      -3.994   2.480  -1.382  0.00  0.00    +0.000 A 
ATOM      7  C17 UNL     1      -5.153   1.956  -0.824  0.00  0.00    +0.000 A 
ATOM      8  C18 UNL     1      -5.209   0.682  -0.307  0.00  0.00    +0.000 A 
ATOM      9  N4  UNL     1      -6.453   0.384   0.139  0.00  0.00    +0.000 N 
ATOM     10  C19 UNL     1      -7.178   1.501  -0.086  0.00  0.00    +0.000 A 
ATOM     11  C20 UNL     1      -8.525   1.709   0.216  0.00  0.00    +0.000 A 
ATOM     12  C21 UNL     1      -9.087   2.964  -0.097  0.00  0.00    +0.000 A 
ATOM     13  C22 UNL     1      -8.301   3.970  -0.701  0.00  0.00    +0.000 A 
ATOM     14  C23 UNL     1      -6.943   3.735  -0.996  0.00  0.00    +0.000 A 
ATOM     15  C24 UNL     1      -6.415   2.487  -0.674  0.00  0.00    +0.000 A 
ATOM     16  C25 UNL     1      -4.072  -0.130  -0.324  0.00  0.00    +0.000 A 
ATOM     17  N5  UNL     1      -2.929   0.383  -0.872  0.00  0.00    +0.000 NA
ATOM     18  H14 UNL     1      -6.795  -0.511   0.553  0.00  0.00    +0.000 HD
BRANCH  16  19
ATOM     19  C26 UNL     1      -4.059  -1.505   0.216  0.00  0.00    +0.000 A 
ATOM     20  C27 UNL     1      -3.487  -2.551  -0.538  0.00  0.00    +0.000 A 
ATOM     21  C28 UNL     1      -3.457  -3.857  -0.033  0.00  0.00    +0.000 A 
ATOM     22  C29 UNL     1      -3.976  -4.126   1.235  0.00  0.00    +0.000 A 
ATOM     23  C30 UNL     1      -4.522  -3.090   2.003  0.00  0.00    +0.000 A 
ATOM     24  C31 UNL     1      -4.565  -1.782   1.499  0.00  0.00    +0.000 A 
ENDBRANCH  16  19
ENDBRANCH   2   5
BRANCH   3  25
ATOM     25  N2  UNL     1       0.855   1.787  -2.325  0.00  0.00    +0.000 N 
ATOM     26  C2  UNL     1       2.123   1.310  -1.855  0.00  0.00    +0.000 C 
ATOM     27  N3  UNL     1       2.185   0.634  -0.744  0.00  0.00    +0.000 NA
ATOM     28  H2  UNL     1       0.841   2.442  -3.136  0.00  0.00    +0.000 HD
BRANCH  27  29
ATOM     29  C3  UNL     1       3.363   0.093  -0.132  0.00  0.00    +0.000 A 
ATOM     30  C4  UNL     1       4.285  -0.678  -0.861  0.00  0.00    +0.000 A 
ATOM     31  C5  UNL     1       5.411  -1.212  -0.227  0.00  0.00    +0.000 A 
ATOM     32  C6  UNL     1       5.624  -0.988   1.145  0.00  0.00    +0.000 A 
ATOM     33  C13 UNL     1       4.671  -0.276   1.879  0.00  0.00    +0.000 A 
ATOM     34  C14 UNL     1       3.545   0.258   1.246  0.00  0.00    +0.000 A 
BRANCH  32  35
ATOM     35  O2  UNL     1       6.745  -1.500   1.810  0.00  0.00    +0.000 OA
BRANCH  35  36
ATOM     36  C7  UNL     1       8.037  -1.598   1.271  0.00  0.00    +0.000 A 
ATOM     37  C8  UNL     1       8.488  -0.741   0.243  0.00  0.00    +0.000 A 
ATOM     38  C9  UNL     1       9.793  -0.860  -0.249  0.00  0.00    +0.000 A 
ATOM     39  C10 UNL     1      10.656  -1.822   0.280  0.00  0.00    +0.000 A 
ATOM     40  C11 UNL     1      10.221  -2.658   1.315  0.00  0.00    +0.000 A 
ATOM     41  C12 UNL     1       8.916  -2.545   1.806  0.00  0.00    +0.000 A 
ENDBRANCH  35  36
ENDBRANCH  32  35
ENDBRANCH  27  29
BRANCH  26  42
ATOM     42  S1  UNL     1       3.601   1.808  -2.750  0.00  0.00    +0.000 S 
ATOM     43  H3  UNL     1       3.730   2.985  -1.986  0.00  0.00    +0.000 HD
ENDBRANCH  26  42
ENDBRANCH   3  25
TORSDOF 7
