REMARK  Name = resultss/4CJN/ligands/lig_265_t1.pdb
REMARK  9 active torsions:
REMARK  status: ('A' for Active; 'I' for Inactive)
REMARK    1  A    between atoms: C1_1  and  O1_2
REMARK    2  A    between atoms: O1_2  and  C2_3
REMARK    3  A    between atoms: C4_5  and  C5_6
REMARK    4  A    between atoms: C5_6  and  N1_7
REMARK    5  A    between atoms: C6_8  and  O2_9
REMARK    6  A    between atoms: C6_8  and  C7_10
REMARK    7  A    between atoms: C8_11  and  N2_12
REMARK    8  A    between atoms: C9_13  and  C10_15
REMARK    9  A    between atoms: C22_29  and  O4_30
REMARK                            x       y       z     vdW  Elec       q    Type
REMARK                         _______ _______ _______ _____ _____    ______ ____
ROOT
ATOM      1  C7  UNL     1      -1.698  -1.394   0.102  0.00  0.00    +0.000 A 
ATOM      2  C8  UNL     1      -2.862  -0.814  -0.435  0.00  0.00    +0.000 A 
ATOM      3  S1  UNL     1      -3.877  -2.014  -1.078  0.00  0.00    +0.000 S 
ATOM      4  C15 UNL     1      -2.867  -3.264  -0.602  0.00  0.00    +0.000 A 
ATOM      5  C16 UNL     1      -1.757  -2.791  -0.003  0.00  0.00    +0.000 A 
ATOM      6  C17 UNL     1      -0.760  -3.858   0.235  0.00  0.00    +0.000 C 
ATOM      7  C18 UNL     1      -1.479  -5.136  -0.270  0.00  0.00    +0.000 C 
ATOM      8  C19 UNL     1      -2.833  -4.708  -0.886  0.00  0.00    +0.000 C 
ENDROOT
BRANCH   2   9
ATOM      9  N2  UNL     1      -3.172   0.584  -0.486  0.00  0.00    +0.000 N 
ATOM     10  C9  UNL     1      -3.024   1.450   0.650  0.00  0.00    +0.000 C 
ATOM     11  O3  UNL     1      -2.884   0.950   1.800  0.00  0.00    +0.000 OA
ATOM     12  H8  UNL     1      -3.727   0.924  -1.303  0.00  0.00    +0.000 HD
BRANCH  10  13
ATOM     13  C10 UNL     1      -3.057   2.924   0.494  0.00  0.00    +0.000 A 
ATOM     14  C11 UNL     1      -3.283   3.754   1.606  0.00  0.00    +0.000 A 
ATOM     15  C12 UNL     1      -3.302   5.141   1.455  0.00  0.00    +0.000 A 
ATOM     16  C13 UNL     1      -3.087   5.694   0.193  0.00  0.00    +0.000 A 
ATOM     17  N3  UNL     1      -2.857   4.885  -0.874  0.00  0.00    +0.000 NA
ATOM     18  C14 UNL     1      -2.835   3.531  -0.755  0.00  0.00    +0.000 A 
ENDBRANCH  10  13
ENDBRANCH   2   9
BRANCH   1  20
ATOM     19  N1  UNL     1       0.293  -1.222   1.428  0.00  0.00    +0.000 NA
ATOM     20  C6  UNL     1      -0.512  -0.654   0.575  0.00  0.00    +0.000 C 
BRANCH  20  21
ATOM     21  O2  UNL     1      -0.273   0.631   0.081  0.00  0.00    +0.000 OA
ATOM     22  H7  UNL     1       0.501   1.209   0.380  0.00  0.00    +0.000 HD
ENDBRANCH  20  21
BRANCH  19  23
ATOM     23  C5  UNL     1       1.527  -0.650   1.963  0.00  0.00    +0.000 C 
BRANCH  23  26
ATOM     24  C2  UNL     1       4.275   0.540  -0.421  0.00  0.00    +0.000 A 
ATOM     25  C3  UNL     1       3.261   0.542   0.558  0.00  0.00    +0.000 A 
ATOM     26  C4  UNL     1       2.611  -0.650   0.916  0.00  0.00    +0.000 A 
ATOM     27  C20 UNL     1       2.993  -1.853   0.304  0.00  0.00    +0.000 A 
ATOM     28  C21 UNL     1       3.998  -1.862  -0.665  0.00  0.00    +0.000 A 
ATOM     29  C22 UNL     1       4.638  -0.674  -1.032  0.00  0.00    +0.000 A 
BRANCH  24  31
ATOM     30  C1  UNL     1       4.660   3.010  -0.280  0.00  0.00    +0.000 C 
ATOM     31  O1  UNL     1       4.936   1.717  -0.808  0.00  0.00    +0.000 OA
ENDBRANCH  24  31
BRANCH  29  32
ATOM     32  O4  UNL     1       5.636  -0.721  -2.006  0.00  0.00    +0.000 OA
ATOM     33  H21 UNL     1       6.133   0.107  -2.310  0.00  0.00    +0.000 HD
ENDBRANCH  29  32
ENDBRANCH  23  26
ENDBRANCH  19  23
ENDBRANCH   1  20
TORSDOF 8
