REMARK  Name = resultss/4CJN/ligands/lig_178_t1.pdb
REMARK  8 active torsions:
REMARK  status: ('A' for Active; 'I' for Inactive)
REMARK    1  A    between atoms: O1_1  and  C1_2
REMARK    2  A    between atoms: C1_2  and  C9_15
REMARK    3  A    between atoms: N1_3  and  N2_4
REMARK    4  A    between atoms: C2_5  and  C3_6
REMARK    5  A    between atoms: C4_7  and  O2_8
REMARK    6  A    between atoms: C6_10  and  O3_11
REMARK    7  A    between atoms: C8_13  and  O4_14
REMARK    8  A    between atoms: C12_18  and  C13_19
REMARK                            x       y       z     vdW  Elec       q    Type
REMARK                         _______ _______ _______ _____ _____    ______ ____
ROOT
ATOM      1  C1  UNL     1      -1.545  -2.241   1.316  0.00  0.00    +0.000 C 
ATOM      2  N1  UNL     1      -2.653  -1.664   0.960  0.00  0.00    +0.000 NA
ENDROOT
BRANCH   1   3
ATOM      3  C9  UNL     1      -0.245  -1.627   0.953  0.00  0.00    +0.000 A 
ATOM      4  C10 UNL     1      -0.190  -0.439   0.201  0.00  0.00    +0.000 A 
ATOM      5  C11 UNL     1       1.040   0.132  -0.139  0.00  0.00    +0.000 A 
ATOM      6  C12 UNL     1       2.243  -0.471   0.266  0.00  0.00    +0.000 A 
ATOM      7  C20 UNL     1       2.188  -1.657   1.017  0.00  0.00    +0.000 A 
ATOM      8  C21 UNL     1       0.959  -2.228   1.356  0.00  0.00    +0.000 A 
BRANCH   6   9
ATOM      9  C13 UNL     1       3.552   0.126  -0.088  0.00  0.00    +0.000 A 
ATOM     10  N3  UNL     1       4.741  -0.420   0.279  0.00  0.00    +0.000 NA
ATOM     11  C14 UNL     1       5.787   0.320  -0.170  0.00  0.00    +0.000 A 
ATOM     12  C15 UNL     1       7.129   0.006   0.053  0.00  0.00    +0.000 A 
ATOM     13  C16 UNL     1       8.117   0.859  -0.469  0.00  0.00    +0.000 A 
ATOM     14  C17 UNL     1       7.756   2.006  -1.203  0.00  0.00    +0.000 A 
ATOM     15  C18 UNL     1       6.402   2.311  -1.421  0.00  0.00    +0.000 A 
ATOM     16  C19 UNL     1       5.444   1.450  -0.893  0.00  0.00    +0.000 A 
ATOM     17  S1  UNL     1       3.774   1.551  -0.988  0.00  0.00    +0.000 S 
ENDBRANCH   6   9
ENDBRANCH   1   3
BRANCH   1  18
ATOM     18  O1  UNL     1      -1.561  -3.438   2.038  0.00  0.00    +0.000 OA
ATOM     19  H1  UNL     1      -2.419  -3.901   2.311  0.00  0.00    +0.000 HD
ENDBRANCH   1  18
BRANCH   2  20
ATOM     20  N2  UNL     1      -3.914  -2.197   1.265  0.00  0.00    +0.000 NA
ATOM     21  C2  UNL     1      -5.014  -1.614   0.896  0.00  0.00    +0.000 C 
BRANCH  21  22
ATOM     22  C3  UNL     1      -5.021  -0.341   0.143  0.00  0.00    +0.000 A 
ATOM     23  C4  UNL     1      -5.616   0.809   0.710  0.00  0.00    +0.000 A 
ATOM     24  C5  UNL     1      -5.604   2.019   0.008  0.00  0.00    +0.000 A 
ATOM     25  C6  UNL     1      -5.005   2.103  -1.254  0.00  0.00    +0.000 A 
ATOM     26  C7  UNL     1      -4.429   0.967  -1.824  0.00  0.00    +0.000 A 
ATOM     27  C8  UNL     1      -4.446  -0.257  -1.149  0.00  0.00    +0.000 A 
BRANCH  23  28
ATOM     28  O2  UNL     1      -6.211   0.787   1.974  0.00  0.00    +0.000 OA
ATOM     29  H3  UNL     1      -6.240  -0.040   2.556  0.00  0.00    +0.000 HD
ENDBRANCH  23  28
BRANCH  25  30
ATOM     30  O3  UNL     1      -4.982   3.309  -1.950  0.00  0.00    +0.000 OA
ATOM     31  H5  UNL     1      -5.393   4.152  -1.564  0.00  0.00    +0.000 HD
ENDBRANCH  25  30
BRANCH  27  32
ATOM     32  O4  UNL     1      -3.905  -1.371  -1.794  0.00  0.00    +0.000 OA
ATOM     33  H7  UNL     1      -3.948  -2.306  -1.409  0.00  0.00    +0.000 HD
ENDBRANCH  27  32
ENDBRANCH  21  22
ENDBRANCH   2  20
TORSDOF 8
