REMARK  Name = resultss/4CJN/ligands/lig_292_t0.pdb
REMARK  7 active torsions:
REMARK  status: ('A' for Active; 'I' for Inactive)
REMARK    1  A    between atoms: C1_1  and  O1_2
REMARK    2  A    between atoms: O1_2  and  C2_3
REMARK    3  A    between atoms: C4_5  and  O2_6
REMARK    4  A    between atoms: C8_11  and  O4_12
REMARK    5  A    between atoms: C11_15  and  O5_16
REMARK    6  A    between atoms: C14_20  and  O7_21
REMARK    7  A    between atoms: O7_21  and  C15_22
REMARK                            x       y       z     vdW  Elec       q    Type
REMARK                         _______ _______ _______ _____ _____    ______ ____
ROOT
ATOM      1  C2  UNL     1      -2.680  -0.646   0.666  0.00  0.00    +0.000 A 
ATOM      2  C3  UNL     1      -2.302  -1.967   0.395  0.00  0.00    +0.000 A 
ATOM      3  C4  UNL     1      -1.018  -2.277  -0.052  0.00  0.00    +0.000 A 
ATOM      4  C5  UNL     1      -0.036  -1.248  -0.153  0.00  0.00    +0.000 A 
ATOM      5  C6  UNL     1       1.332  -1.487  -0.449  0.00  0.00    +0.000 A 
ATOM      6  O3  UNL     1       1.742  -2.664  -0.605  0.00  0.00    +0.000 OA
ATOM      7  C7  UNL     1       2.237  -0.403  -0.561  0.00  0.00    +0.000 A 
ATOM      8  C8  UNL     1       3.632  -0.535  -0.852  0.00  0.00    +0.000 A 
ATOM      9  C9  UNL     1       4.405   0.611  -1.067  0.00  0.00    +0.000 A 
ATOM     10  C10 UNL     1       3.855   1.882  -0.932  0.00  0.00    +0.000 A 
ATOM     11  C11 UNL     1       2.513   2.031  -0.583  0.00  0.00    +0.000 A 
ATOM     12  C12 UNL     1       1.707   0.900  -0.401  0.00  0.00    +0.000 A 
ATOM     13  O6  UNL     1       0.438   1.078  -0.070  0.00  0.00    +0.000 OA
ATOM     14  C13 UNL     1      -0.434   0.093   0.088  0.00  0.00    +0.000 A 
ATOM     15  C14 UNL     1      -1.758   0.392   0.495  0.00  0.00    +0.000 A 
ENDROOT
BRANCH   1  17
ATOM     16  C1  UNL     1      -5.021  -1.263   1.316  0.00  0.00    +0.000 C 
ATOM     17  O1  UNL     1      -3.976  -0.319   1.099  0.00  0.00    +0.000 OA
ENDBRANCH   1  17
BRANCH   3  18
ATOM     18  O2  UNL     1      -0.791  -3.611  -0.404  0.00  0.00    +0.000 OA
ATOM     19  H5  UNL     1      -0.092  -3.917  -1.065  0.00  0.00    +0.000 HD
ENDBRANCH   3  18
BRANCH   8  20
ATOM     20  O4  UNL     1       4.308  -1.757  -0.921  0.00  0.00    +0.000 OA
ATOM     21  H6  UNL     1       3.998  -2.615  -0.491  0.00  0.00    +0.000 HD
ENDBRANCH   8  20
BRANCH  11  22
ATOM     22  O5  UNL     1       1.966   3.303  -0.420  0.00  0.00    +0.000 OA
ATOM     23  H9  UNL     1       2.523   4.141  -0.547  0.00  0.00    +0.000 HD
ENDBRANCH  11  22
BRANCH  15  24
ATOM     24  O7  UNL     1      -2.221   1.697   0.756  0.00  0.00    +0.000 OA
ATOM     25  C15 UNL     1      -1.471   2.903   0.650  0.00  0.00    +0.000 C 
ENDBRANCH  15  24
TORSDOF 5
