REMARK  Name = resultss/4CJN/ligands/lig_82_t0.pdb
REMARK  5 active torsions:
REMARK  status: ('A' for Active; 'I' for Inactive)
REMARK    1  A    between atoms: O1_1  and  C1_2
REMARK    2  A    between atoms: C1_2  and  C2_3
REMARK    3  A    between atoms: C4_6  and  O2_7
REMARK    4  A    between atoms: C5_8  and  O3_9
REMARK    5  A    between atoms: C6_10  and  O4_11
REMARK                            x       y       z     vdW  Elec       q    Type
REMARK                         _______ _______ _______ _____ _____    ______ ____
ROOT
ATOM      1  C2  UNL     1       1.001  -0.207  -0.437  0.00  0.00    +0.000 C 
ATOM      2  N1  UNL     1       0.297  -1.494  -0.283  0.00  0.00    +0.000 NA
ATOM      3  C3  UNL     1      -1.107  -1.386  -0.707  0.00  0.00    +0.000 C 
ATOM      4  C4  UNL     1      -1.866  -0.341   0.134  0.00  0.00    +0.000 C 
ATOM      5  C5  UNL     1      -1.164   1.031   0.052  0.00  0.00    +0.000 C 
ATOM      6  C6  UNL     1       0.330   0.900   0.422  0.00  0.00    +0.000 C 
ATOM      7  H5  UNL     1       0.318  -1.789   0.723  0.00  0.00    +0.000 HD
ENDROOT
BRANCH   4   8
ATOM      8  O2  UNL     1      -3.206  -0.246  -0.282  0.00  0.00    +0.000 OA
ATOM      9  H9  UNL     1      -3.206   0.048  -1.231  0.00  0.00    +0.000 HD
ENDBRANCH   4   8
BRANCH   5  10
ATOM     10  O3  UNL     1      -1.804   1.970   0.881  0.00  0.00    +0.000 OA
ATOM     11  H11 UNL     1      -1.742   1.640   1.815  0.00  0.00    +0.000 HD
ENDBRANCH   5  10
BRANCH   6  12
ATOM     12  O4  UNL     1       0.986   2.134   0.264  0.00  0.00    +0.000 OA
ATOM     13  H13 UNL     1       0.939   2.379  -0.697  0.00  0.00    +0.000 HD
ENDBRANCH   6  12
BRANCH   1  14
ATOM     14  C1  UNL     1       2.489  -0.382  -0.090  0.00  0.00    +0.000 C 
BRANCH  14  15
ATOM     15  O1  UNL     1       2.647  -0.736   1.257  0.00  0.00    +0.000 OA
ATOM     16  H1  UNL     1       3.624  -0.831   1.404  0.00  0.00    +0.000 HD
ENDBRANCH  14  15
ENDBRANCH   1  14
TORSDOF 5
