REMARK  Name = resultss/4CJN/ligands/lig_349_t2.pdb
REMARK  10 active torsions:
REMARK  status: ('A' for Active; 'I' for Inactive)
REMARK    1  A    between atoms: C1_2  and  C2_3
REMARK    2  A    between atoms: C2_3  and  N1_4
REMARK    3  A    between atoms: C4_6  and  C5_7
REMARK    4  A    between atoms: C5_7  and  O2_8
REMARK    5  A    between atoms: O2_8  and  C6_9
REMARK    6  A    between atoms: C9_12  and  C10_13
REMARK    7  A    between atoms: C17_21  and  O3_22
REMARK    8  A    between atoms: N3_23  and  N4_24
REMARK    9  A    between atoms: N4_24  and  C18_25
REMARK   10  A    between atoms: N7_35  and  C26_36
REMARK                            x       y       z     vdW  Elec       q    Type
REMARK                         _______ _______ _______ _____ _____    ______ ____
ROOT
ATOM      1  C6  UNL     1       0.096  -0.875  -0.242  0.00  0.00    +0.000 A 
ATOM      2  C7  UNL     1      -0.667  -1.524  -1.230  0.00  0.00    +0.000 A 
ATOM      3  C8  UNL     1      -1.944  -1.057  -1.555  0.00  0.00    +0.000 A 
ATOM      4  C9  UNL     1      -2.478   0.069  -0.905  0.00  0.00    +0.000 A 
ATOM      5  C24 UNL     1      -1.714   0.713   0.084  0.00  0.00    +0.000 A 
ATOM      6  C25 UNL     1      -0.437   0.245   0.406  0.00  0.00    +0.000 A 
ENDROOT
BRANCH   4   7
ATOM      7  C10 UNL     1      -3.877   0.537  -1.227  0.00  0.00    +0.000 C 
ATOM      8  N2  UNL     1      -3.866   1.962  -1.567  0.00  0.00    +0.000 NA
ATOM      9  C11 UNL     1      -4.344   2.907  -0.810  0.00  0.00    +0.000 A 
ATOM     10  C12 UNL     1      -4.207   4.238  -1.224  0.00  0.00    +0.000 A 
ATOM     11  C13 UNL     1      -4.665   5.280  -0.416  0.00  0.00    +0.000 A 
ATOM     12  C14 UNL     1      -5.266   5.001   0.811  0.00  0.00    +0.000 A 
ATOM     13  C15 UNL     1      -5.422   3.679   1.232  0.00  0.00    +0.000 A 
ATOM     14  C16 UNL     1      -4.976   2.613   0.422  0.00  0.00    +0.000 A 
ATOM     15  C17 UNL     1      -5.160   1.334   0.795  0.00  0.00    +0.000 C 
ATOM     16  N3  UNL     1      -4.770   0.268  -0.094  0.00  0.00    +0.000 N 
BRANCH  15  17
ATOM     17  O3  UNL     1      -5.732   1.041   2.036  0.00  0.00    +0.000 OA
ATOM     18  H13 UNL     1      -5.805   0.094   2.390  0.00  0.00    +0.000 HD
ENDBRANCH  15  17
BRANCH  16  19
ATOM     19  N4  UNL     1      -5.161  -1.061   0.156  0.00  0.00    +0.000 N 
ATOM     20  H14 UNL     1      -4.427  -1.805   0.179  0.00  0.00    +0.000 HD
BRANCH  19  21
ATOM     21  C18 UNL     1      -6.541  -1.448   0.253  0.00  0.00    +0.000 A 
ATOM     22  C19 UNL     1      -7.566  -0.620  -0.238  0.00  0.00    +0.000 A 
ATOM     23  C20 UNL     1      -8.902  -1.022  -0.145  0.00  0.00    +0.000 A 
ATOM     24  C21 UNL     1      -9.227  -2.247   0.441  0.00  0.00    +0.000 A 
ATOM     25  C22 UNL     1      -8.215  -3.076   0.929  0.00  0.00    +0.000 A 
ATOM     26  C23 UNL     1      -6.876  -2.685   0.826  0.00  0.00    +0.000 A 
ENDBRANCH  19  21
ENDBRANCH  16  19
ENDBRANCH   4   7
BRANCH   1  27
ATOM     27  O2  UNL     1       1.375  -1.314   0.130  0.00  0.00    +0.000 OA
BRANCH  27  28
ATOM     28  C5  UNL     1       2.025  -2.455  -0.423  0.00  0.00    +0.000 C 
BRANCH  28  31
ATOM     29  N1  UNL     1       5.449  -2.861   0.704  0.00  0.00    +0.000 N 
ATOM     30  C3  UNL     1       4.586  -2.617  -0.297  0.00  0.00    +0.000 A 
ATOM     31  C4  UNL     1       3.331  -2.662   0.269  0.00  0.00    +0.000 A 
ATOM     32  N5  UNL     1       3.462  -2.918   1.586  0.00  0.00    +0.000 NA
ATOM     33  N6  UNL     1       4.762  -3.029   1.823  0.00  0.00    +0.000 NA
BRANCH  29  34
ATOM     34  C2  UNL     1       6.904  -2.861   0.622  0.00  0.00    +0.000 C 
BRANCH  34  36
ATOM     35  O1  UNL     1       7.241  -0.745   1.665  0.00  0.00    +0.000 OA
ATOM     36  C1  UNL     1       7.420  -1.455   0.638  0.00  0.00    +0.000 C 
ATOM     37  N7  UNL     1       8.068  -0.911  -0.523  0.00  0.00    +0.000 N 
ATOM     38  H22 UNL     1       7.905  -1.391  -1.437  0.00  0.00    +0.000 HD
BRANCH  37  39
ATOM     39  C26 UNL     1       8.824   0.314  -0.529  0.00  0.00    +0.000 A 
ATOM     40  C27 UNL     1       9.555   0.734   0.599  0.00  0.00    +0.000 A 
ATOM     41  C28 UNL     1      10.303   1.914   0.556  0.00  0.00    +0.000 A 
ATOM     42  C29 UNL     1      10.346   2.677  -0.616  0.00  0.00    +0.000 A 
ATOM     43 CL1  UNL     1      11.292   4.153  -0.669  0.00  0.00    +0.000 Cl
ATOM     44  C30 UNL     1       9.643   2.254  -1.748  0.00  0.00    +0.000 A 
ATOM     45  C31 UNL     1       8.891   1.075  -1.707  0.00  0.00    +0.000 A 
ENDBRANCH  37  39
ENDBRANCH  34  36
ENDBRANCH  29  34
ENDBRANCH  28  31
ENDBRANCH  27  28
ENDBRANCH   1  27
TORSDOF 10
