REMARK  Name = resultss/4CJN/ligands/lig_126_t0.pdb
REMARK  17 active torsions:
REMARK  status: ('A' for Active; 'I' for Inactive)
REMARK    1  A    between atoms: O1_1  and  C1_2
REMARK    2  A    between atoms: C1_2  and  C2_3
REMARK    3  A    between atoms: C3_4  and  O2_5
REMARK    4  A    between atoms: C4_6  and  O3_7
REMARK    5  A    between atoms: S1_9  and  C6_10
REMARK    6  A    between atoms: C6_10  and  C7_11
REMARK    7  A    between atoms: C7_11  and  O4_12
REMARK    8  A    between atoms: C7_11  and  C8_13
REMARK    9  A    between atoms: C8_13  and  O5_14
REMARK   10  A    between atoms: C8_13  and  C9_15
REMARK   11  A    between atoms: C9_15  and  O6_16
REMARK   12  A    between atoms: C9_15  and  C10_17
REMARK   13  A    between atoms: C10_17  and  O7_18
REMARK   14  A    between atoms: C10_17  and  C11_19
REMARK   15  A    between atoms: C11_19  and  O8_20
REMARK   16  A    between atoms: C11_19  and  C12_21
REMARK   17  A    between atoms: C12_21  and  O9_22
REMARK                            x       y       z     vdW  Elec       q    Type
REMARK                         _______ _______ _______ _____ _____    ______ ____
ROOT
ATOM      1  C7  UNL     1      -0.156  -0.817   1.312  0.00  0.00    +0.000 C 
ENDROOT
BRANCH   1   2
ATOM      2  O4  UNL     1      -0.963  -1.965   1.265  0.00  0.00    +0.000 OA
ATOM      3  H14 UNL     1      -0.502  -2.670   1.790  0.00  0.00    +0.000 HD
ENDBRANCH   1   2
BRANCH   1   4
ATOM      4  C8  UNL     1       1.059  -0.977   0.346  0.00  0.00    +0.000 C 
BRANCH   4   5
ATOM      5  O5  UNL     1       0.712  -0.729  -0.995  0.00  0.00    +0.000 OA
ATOM      6  H16 UNL     1       0.662   0.251  -1.125  0.00  0.00    +0.000 HD
ENDBRANCH   4   5
BRANCH   4   7
ATOM      7  C9  UNL     1       2.326  -0.187   0.798  0.00  0.00    +0.000 C 
BRANCH   7   8
ATOM      8  O6  UNL     1       2.047   1.181   0.976  0.00  0.00    +0.000 OA
ATOM      9  H18 UNL     1       1.982   1.603   0.081  0.00  0.00    +0.000 HD
ENDBRANCH   7   8
BRANCH   7  10
ATOM     10  C10 UNL     1       3.534  -0.400  -0.157  0.00  0.00    +0.000 C 
BRANCH  10  11
ATOM     11  O7  UNL     1       3.841  -1.771  -0.242  0.00  0.00    +0.000 OA
ATOM     12  H20 UNL     1       3.367  -2.131  -1.036  0.00  0.00    +0.000 HD
ENDBRANCH  10  11
BRANCH  10  13
ATOM     13  C11 UNL     1       4.786   0.377   0.324  0.00  0.00    +0.000 C 
BRANCH  13  14
ATOM     14  O8  UNL     1       5.171  -0.021   1.617  0.00  0.00    +0.000 OA
ATOM     15  H22 UNL     1       5.457  -0.971   1.570  0.00  0.00    +0.000 HD
ENDBRANCH  13  14
BRANCH  13  16
ATOM     16  C12 UNL     1       5.959   0.231  -0.663  0.00  0.00    +0.000 C 
BRANCH  16  17
ATOM     17  O9  UNL     1       7.064   0.975  -0.225  0.00  0.00    +0.000 OA
ATOM     18  H25 UNL     1       6.862   1.927  -0.423  0.00  0.00    +0.000 HD
ENDBRANCH  16  17
ENDBRANCH  13  16
ENDBRANCH  10  13
ENDBRANCH   7  10
ENDBRANCH   4   7
ENDBRANCH   1   4
BRANCH   1  19
ATOM     19  C6  UNL     1      -1.033   0.431   1.074  0.00  0.00    +0.000 C 
BRANCH  19  24
ATOM     20  C2  UNL     1      -3.581  -0.576  -0.045  0.00  0.00    +0.000 C 
ATOM     21  C3  UNL     1      -4.723   0.453  -0.209  0.00  0.00    +0.000 C 
ATOM     22  C4  UNL     1      -4.153   1.866   0.012  0.00  0.00    +0.000 C 
ATOM     23  C5  UNL     1      -2.788   1.913  -0.669  0.00  0.00    +0.000 C 
ATOM     24  S1  UNL     1      -2.078   0.320  -0.381  0.00  0.00    +0.000 S 
ATOM     25 CL1  UNL     1       0.000   0.000   0.000  0.00  0.00    +0.000 Cl
BRANCH  22  26
ATOM     26  O3  UNL     1      -5.016   2.829  -0.533  0.00  0.00    +0.000 OA
ATOM     27  H8  UNL     1      -4.706   3.710  -0.196  0.00  0.00    +0.000 HD
ENDBRANCH  22  26
BRANCH  21  28
ATOM     28  O2  UNL     1      -5.794   0.184   0.662  0.00  0.00    +0.000 OA
ATOM     29  H6  UNL     1      -5.454   0.257   1.592  0.00  0.00    +0.000 HD
ENDBRANCH  21  28
BRANCH  20  30
ATOM     30  C1  UNL     1      -3.748  -1.754  -1.017  0.00  0.00    +0.000 C 
BRANCH  30  31
ATOM     31  O1  UNL     1      -2.751  -2.718  -0.813  0.00  0.00    +0.000 OA
ATOM     32  H1  UNL     1      -3.027  -3.247  -0.020  0.00  0.00    +0.000 HD
ENDBRANCH  30  31
ENDBRANCH  20  30
ENDBRANCH  19  24
ENDBRANCH   1  19
TORSDOF 17
