REMARK  Name = resultss/4CJN/ligands/lig_63_t0.pdb
REMARK  12 active torsions:
REMARK  status: ('A' for Active; 'I' for Inactive)
REMARK    1  A    between atoms: C1_1  and  C2_2
REMARK    2  A    between atoms: C4_4  and  O1_5
REMARK    3  A    between atoms: C5_6  and  O2_7
REMARK    4  A    between atoms: C6_8  and  O3_9
REMARK    5  A    between atoms: C7_10  and  N1_11
REMARK    6  A    between atoms: N1_11  and  C8_12
REMARK    7  A    between atoms: C10_14  and  O4_15
REMARK    8  A    between atoms: C10_14  and  C11_16
REMARK    9  A    between atoms: C11_16  and  O5_17
REMARK   10  A    between atoms: C12_18  and  O6_19
REMARK   11  A    between atoms: C13_20  and  O7_21
REMARK   12  A    between atoms: C14_22  and  O8_23
REMARK                            x       y       z     vdW  Elec       q    Type
REMARK                         _______ _______ _______ _____ _____    ______ ____
ROOT
ATOM      1  C8  UNL     1       0.941  -0.408  -0.742  0.00  0.00    +0.000 C 
ATOM      2  C9  UNL     1       1.320   0.602   0.378  0.00  0.00    +0.000 C 
ATOM      3  C10 UNL     1       2.830   0.971   0.423  0.00  0.00    +0.000 C 
ATOM      4  C12 UNL     1       3.731  -0.315   0.569  0.00  0.00    +0.000 C 
ATOM      5  C13 UNL     1       2.965  -1.634   0.295  0.00  0.00    +0.000 C 
ATOM      6  C14 UNL     1       2.059  -1.493  -0.942  0.00  0.00    +0.000 C 
ENDROOT
BRANCH   1   7
ATOM      7  N1  UNL     1      -0.381  -1.032  -0.471  0.00  0.00    +0.000 NA
ATOM      8  H14 UNL     1      -0.562  -1.676  -1.274  0.00  0.00    +0.000 HD
BRANCH   7  15
ATOM      9  C1  UNL     1      -3.292  -1.921  -0.753  0.00  0.00    +0.000 C 
ATOM     10  C2  UNL     1      -2.753  -0.552  -1.221  0.00  0.00    +0.000 C 
ATOM     11  C3  UNL     1      -3.880   0.520  -1.234  0.00  0.00    +0.000 C 
ATOM     12  C4  UNL     1      -3.834   1.515  -0.049  0.00  0.00    +0.000 C 
ATOM     13  C5  UNL     1      -3.327   0.837   1.234  0.00  0.00    +0.000 C 
ATOM     14  C6  UNL     1      -1.892   0.252   1.069  0.00  0.00    +0.000 C 
ATOM     15  C7  UNL     1      -1.512  -0.065  -0.410  0.00  0.00    +0.000 C 
BRANCH  12  16
ATOM     16  O1  UNL     1      -3.013   2.614  -0.358  0.00  0.00    +0.000 OA
ATOM     17  H8  UNL     1      -3.529   3.194  -0.977  0.00  0.00    +0.000 HD
ENDBRANCH  12  16
BRANCH  13  18
ATOM     18  O2  UNL     1      -3.350   1.770   2.284  0.00  0.00    +0.000 OA
ATOM     19  H10 UNL     1      -3.303   1.253   3.130  0.00  0.00    +0.000 HD
ENDBRANCH  13  18
BRANCH  14  20
ATOM     20  O3  UNL     1      -1.763  -0.908   1.853  0.00  0.00    +0.000 OA
ATOM     21  H12 UNL     1      -1.666  -0.613   2.795  0.00  0.00    +0.000 HD
ENDBRANCH  14  20
ENDBRANCH   7  15
ENDBRANCH   1   7
BRANCH   3  22
ATOM     22  O4  UNL     1       3.048   1.848   1.508  0.00  0.00    +0.000 OA
ATOM     23  H18 UNL     1       2.680   1.433   2.332  0.00  0.00    +0.000 HD
ENDBRANCH   3  22
BRANCH   4  24
ATOM     24  O6  UNL     1       4.293  -0.376   1.859  0.00  0.00    +0.000 OA
ATOM     25  H23 UNL     1       5.138  -0.892   1.790  0.00  0.00    +0.000 HD
ENDBRANCH   4  24
BRANCH   5  26
ATOM     26  O7  UNL     1       3.886  -2.674   0.081  0.00  0.00    +0.000 OA
ATOM     27  H25 UNL     1       4.155  -3.014   0.974  0.00  0.00    +0.000 HD
ENDBRANCH   5  26
BRANCH   6  28
ATOM     28  O8  UNL     1       1.505  -2.748  -1.258  0.00  0.00    +0.000 OA
ATOM     29  H27 UNL     1       2.170  -3.238  -1.809  0.00  0.00    +0.000 HD
ENDBRANCH   6  28
BRANCH   3  30
ATOM     30  C11 UNL     1       3.203   1.758  -0.862  0.00  0.00    +0.000 C 
BRANCH  30  31
ATOM     31  O5  UNL     1       4.525   2.227  -0.798  0.00  0.00    +0.000 OA
ATOM     32  H21 UNL     1       4.507   3.073  -0.279  0.00  0.00    +0.000 HD
ENDBRANCH  30  31
ENDBRANCH   3  30
TORSDOF 11
