REMARK  Name = resultss/4CJN/ligands/lig_430_t0.pdb
REMARK  9 active torsions:
REMARK  status: ('A' for Active; 'I' for Inactive)
REMARK    1  A    between atoms: C1_2  and  C16_22
REMARK    2  A    between atoms: N1_3  and  N2_4
REMARK    3  A    between atoms: N2_4  and  C2_5
REMARK    4  A    between atoms: C2_5  and  N3_7
REMARK    5  A    between atoms: N3_7  and  C3_8
REMARK    6  A    between atoms: C7_12  and  O2_13
REMARK    7  A    between atoms: O2_13  and  C8_14
REMARK    8  A    between atoms: C8_14  and  C9_15
REMARK    9  A    between atoms: C26_33  and  C27_34
REMARK                            x       y       z     vdW  Elec       q    Type
REMARK                         _______ _______ _______ _____ _____    ______ ____
ROOT
ATOM      1  O1  UNL     1      -1.677  -1.920  -1.875  0.00  0.00    +0.000 OA
ATOM      2  C1  UNL     1      -2.025  -1.218  -0.886  0.00  0.00    +0.000 C 
ATOM      3  N1  UNL     1      -1.035  -0.768   0.051  0.00  0.00    +0.000 N 
ATOM      4  H1  UNL     1      -1.337  -0.179   0.858  0.00  0.00    +0.000 HD
ENDROOT
BRANCH   2   5
ATOM      5  C16 UNL     1      -3.448  -0.857  -0.708  0.00  0.00    +0.000 A 
ATOM      6  C17 UNL     1      -4.401  -1.182  -1.696  0.00  0.00    +0.000 A 
ATOM      7  C18 UNL     1      -5.718  -0.810  -1.456  0.00  0.00    +0.000 A 
ATOM      8  C19 UNL     1      -6.096  -0.150  -0.309  0.00  0.00    +0.000 A 
ATOM      9  N4  UNL     1      -7.434   0.058  -0.278  0.00  0.00    +0.000 N 
ATOM     10  C20 UNL     1      -7.891  -0.464  -1.435  0.00  0.00    +0.000 A 
ATOM     11  C21 UNL     1      -9.212  -0.499  -1.877  0.00  0.00    +0.000 A 
ATOM     12  C22 UNL     1      -9.472  -1.104  -3.119  0.00  0.00    +0.000 A 
ATOM     13  C23 UNL     1      -8.422  -1.661  -3.882  0.00  0.00    +0.000 A 
ATOM     14  C24 UNL     1      -7.096  -1.617  -3.414  0.00  0.00    +0.000 A 
ATOM     15  C25 UNL     1      -6.868  -1.005  -2.184  0.00  0.00    +0.000 A 
ATOM     16  C26 UNL     1      -5.139   0.182   0.659  0.00  0.00    +0.000 A 
ATOM     17  N5  UNL     1      -3.845  -0.194   0.424  0.00  0.00    +0.000 NA
ATOM     18  H16 UNL     1      -8.004   0.499   0.478  0.00  0.00    +0.000 HD
BRANCH  16  19
ATOM     19  C27 UNL     1      -5.468   0.919   1.896  0.00  0.00    +0.000 A 
ATOM     20  C28 UNL     1      -6.271   2.073   1.862  0.00  0.00    +0.000 A 
ATOM     21  C29 UNL     1      -6.539   2.782   3.039  0.00  0.00    +0.000 A 
ATOM     22  C30 UNL     1      -5.998   2.353   4.253  0.00  0.00    +0.000 A 
ATOM     23  C31 UNL     1      -5.185   1.218   4.293  0.00  0.00    +0.000 A 
ATOM     24  C32 UNL     1      -4.914   0.507   3.119  0.00  0.00    +0.000 A 
ENDBRANCH  16  19
ENDBRANCH   2   5
BRANCH   3  25
ATOM     25  N2  UNL     1       0.322  -1.116  -0.103  0.00  0.00    +0.000 N 
ATOM     26  H2  UNL     1       0.595  -1.812  -0.830  0.00  0.00    +0.000 HD
BRANCH  25  27
ATOM     27  C2  UNL     1       1.377  -0.509   0.664  0.00  0.00    +0.000 C 
ATOM     28  S1  UNL     1       1.054   0.668   1.768  0.00  0.00    +0.000 S 
BRANCH  27  29
ATOM     29  N3  UNL     1       2.708  -1.032   0.539  0.00  0.00    +0.000 N 
ATOM     30  H3  UNL     1       2.808  -2.048   0.323  0.00  0.00    +0.000 HD
BRANCH  29  31
ATOM     31  C3  UNL     1       3.907  -0.250   0.656  0.00  0.00    +0.000 A 
ATOM     32  C4  UNL     1       3.940   1.096   0.260  0.00  0.00    +0.000 A 
ATOM     33  C5  UNL     1       5.128   1.824   0.341  0.00  0.00    +0.000 A 
ATOM     34  C6  UNL     1       6.297   1.215   0.805  0.00  0.00    +0.000 A 
ATOM     35  C7  UNL     1       6.286  -0.140   1.181  0.00  0.00    +0.000 A 
ATOM     36  C15 UNL     1       5.088  -0.861   1.101  0.00  0.00    +0.000 A 
BRANCH  35  37
ATOM     37  O2  UNL     1       7.433  -0.808   1.639  0.00  0.00    +0.000 OA
BRANCH  37  38
ATOM     38  C8  UNL     1       8.767  -0.301   1.571  0.00  0.00    +0.000 C 
BRANCH  38  39
ATOM     39  C9  UNL     1       9.258  -0.305   0.148  0.00  0.00    +0.000 A 
ATOM     40  C10 UNL     1       9.357  -1.517  -0.551  0.00  0.00    +0.000 A 
ATOM     41  C11 UNL     1       9.808  -1.534  -1.874  0.00  0.00    +0.000 A 
ATOM     42  C12 UNL     1      10.168  -0.343  -2.506  0.00  0.00    +0.000 A 
ATOM     43  C13 UNL     1      10.073   0.869  -1.817  0.00  0.00    +0.000 A 
ATOM     44  C14 UNL     1       9.621   0.891  -0.494  0.00  0.00    +0.000 A 
ENDBRANCH  38  39
ENDBRANCH  37  38
ENDBRANCH  35  37
ENDBRANCH  29  31
ENDBRANCH  27  29
ENDBRANCH  25  27
ENDBRANCH   3  25
TORSDOF 9
