REMARK  Name = resultss/4CJN/ligands/lig_374_t2.pdb
REMARK  11 active torsions:
REMARK  status: ('A' for Active; 'I' for Inactive)
REMARK    1  A    between atoms: C1_1  and  O1_2
REMARK    2  A    between atoms: O1_2  and  C2_3
REMARK    3  A    between atoms: C4_5  and  C5_6
REMARK    4  A    between atoms: C5_6  and  C6_7
REMARK    5  A    between atoms: C5_6  and  C15_20
REMARK    6  A    between atoms: C14_18  and  O4_19
REMARK    7  A    between atoms: C23_31  and  O7_32
REMARK    8  A    between atoms: C25_34  and  O8_35
REMARK    9  A    between atoms: O8_35  and  C26_36
REMARK   10  A    between atoms: C27_37  and  O9_38
REMARK   11  A    between atoms: O9_38  and  C28_39
REMARK                            x       y       z     vdW  Elec       q    Type
REMARK                         _______ _______ _______ _____ _____    ______ ____
ROOT
ATOM      1  C5  UNL     1      -0.113   0.112   1.312  0.00  0.00    +0.000 C 
ENDROOT
BRANCH   1   2
ATOM      2  C6  UNL     1      -0.938  -1.130   0.965  0.00  0.00    +0.000 A 
ATOM      3  C7  UNL     1      -1.417  -1.367  -0.345  0.00  0.00    +0.000 A 
ATOM      4  O2  UNL     1      -1.228  -0.517  -1.256  0.00  0.00    +0.000 OA
ATOM      5  C8  UNL     1      -2.126  -2.547  -0.625  0.00  0.00    +0.000 A 
ATOM      6  C9  UNL     1      -2.633  -2.831  -1.907  0.00  0.00    +0.000 A 
ATOM      7  C10 UNL     1      -3.335  -4.019  -2.138  0.00  0.00    +0.000 A 
ATOM      8 CL1  UNL     1      -3.965  -4.368  -3.738  0.00  0.00    +0.000 Cl
ATOM      9  C11 UNL     1      -3.536  -4.929  -1.096  0.00  0.00    +0.000 A 
ATOM     10  C12 UNL     1      -3.037  -4.655   0.180  0.00  0.00    +0.000 A 
ATOM     11  C13 UNL     1      -2.333  -3.470   0.421  0.00  0.00    +0.000 A 
ATOM     12  O3  UNL     1      -1.863  -3.223   1.637  0.00  0.00    +0.000 OA
ATOM     13  C14 UNL     1      -1.186  -2.120   1.942  0.00  0.00    +0.000 A 
BRANCH  13  14
ATOM     14  O4  UNL     1      -0.723  -1.962   3.246  0.00  0.00    +0.000 OA
ATOM     15  H9  UNL     1      -0.897  -2.671   3.947  0.00  0.00    +0.000 HD
ENDBRANCH  13  14
ENDBRANCH   1   2
BRANCH   1  16
ATOM     16  C15 UNL     1      -0.790   1.474   1.036  0.00  0.00    +0.000 A 
ATOM     17  C16 UNL     1      -2.196   1.629   0.907  0.00  0.00    +0.000 A 
ATOM     18  O5  UNL     1      -2.973   0.647   1.052  0.00  0.00    +0.000 OA
ATOM     19  C17 UNL     1      -2.739   2.898   0.641  0.00  0.00    +0.000 A 
ATOM     20  C18 UNL     1      -4.118   3.094   0.426  0.00  0.00    +0.000 A 
ATOM     21  C19 UNL     1      -4.613   4.375   0.160  0.00  0.00    +0.000 A 
ATOM     22 CL2  UNL     1      -6.329   4.613  -0.115  0.00  0.00    +0.000 Cl
ATOM     23  C20 UNL     1      -3.741   5.467   0.112  0.00  0.00    +0.000 A 
ATOM     24  C21 UNL     1      -2.374   5.283   0.334  0.00  0.00    +0.000 A 
ATOM     25  C22 UNL     1      -1.871   4.005   0.601  0.00  0.00    +0.000 A 
ATOM     26  O6  UNL     1      -0.577   3.848   0.838  0.00  0.00    +0.000 OA
ATOM     27  C23 UNL     1      -0.021   2.666   1.079  0.00  0.00    +0.000 A 
BRANCH  27  28
ATOM     28  O7  UNL     1       1.334   2.629   1.397  0.00  0.00    +0.000 OA
ATOM     29  H13 UNL     1       1.883   3.479   1.430  0.00  0.00    +0.000 HD
ENDBRANCH  27  28
ENDBRANCH   1  16
BRANCH   1  32
ATOM     30  C2  UNL     1       2.800   0.221  -1.218  0.00  0.00    +0.000 A 
ATOM     31  C3  UNL     1       1.543   0.428  -0.618  0.00  0.00    +0.000 A 
ATOM     32  C4  UNL     1       1.261  -0.057   0.669  0.00  0.00    +0.000 A 
ATOM     33  C24 UNL     1       2.246  -0.785   1.347  0.00  0.00    +0.000 A 
ATOM     34  C25 UNL     1       3.507  -1.007   0.769  0.00  0.00    +0.000 A 
ATOM     35  C27 UNL     1       3.792  -0.505  -0.511  0.00  0.00    +0.000 A 
BRANCH  30  37
ATOM     36  C1  UNL     1       2.163   1.464  -3.303  0.00  0.00    +0.000 C 
ATOM     37  O1  UNL     1       3.077   0.723  -2.499  0.00  0.00    +0.000 OA
ENDBRANCH  30  37
BRANCH  34  38
ATOM     38  O8  UNL     1       4.511  -1.730   1.436  0.00  0.00    +0.000 OA
ATOM     39  C26 UNL     1       4.370  -2.303   2.732  0.00  0.00    +0.000 C 
ENDBRANCH  34  38
BRANCH  35  40
ATOM     40  O9  UNL     1       5.080  -0.767  -1.019  0.00  0.00    +0.000 OA
ATOM     41  C28 UNL     1       5.593  -0.361  -2.283  0.00  0.00    +0.000 C 
ENDBRANCH  35  40
ENDBRANCH   1  32
TORSDOF 8
