REMARK  Name = resultss/4CJN/ligands/lig_406_t2.pdb
REMARK  5 active torsions:
REMARK  status: ('A' for Active; 'I' for Inactive)
REMARK    1  A    between atoms: C1_2  and  C9_14
REMARK    2  A    between atoms: N1_3  and  N2_4
REMARK    3  A    between atoms: C2_5  and  S1_6
REMARK    4  A    between atoms: N3_7  and  C3_8
REMARK    5  A    between atoms: C19_25  and  C20_26
REMARK                            x       y       z     vdW  Elec       q    Type
REMARK                         _______ _______ _______ _____ _____    ______ ____
ROOT
ATOM      1  C9  UNL     1       0.218  -0.927   1.513  0.00  0.00    +0.000 A 
ATOM      2  C10 UNL     1      -0.600  -1.841   0.816  0.00  0.00    +0.000 A 
ATOM      3  C11 UNL     1      -1.618  -1.312   0.033  0.00  0.00    +0.000 A 
ATOM      4  C12 UNL     1      -1.847   0.044  -0.056  0.00  0.00    +0.000 A 
ATOM      5  N4  UNL     1      -2.833   0.319  -0.942  0.00  0.00    +0.000 N 
ATOM      6  C13 UNL     1      -3.235  -0.887  -1.398  0.00  0.00    +0.000 A 
ATOM      7  C14 UNL     1      -4.221  -1.142  -2.350  0.00  0.00    +0.000 A 
ATOM      8  C15 UNL     1      -4.465  -2.481  -2.705  0.00  0.00    +0.000 A 
ATOM      9  C16 UNL     1      -3.721  -3.528  -2.114  0.00  0.00    +0.000 A 
ATOM     10  C17 UNL     1      -2.726  -3.247  -1.161  0.00  0.00    +0.000 A 
ATOM     11  C18 UNL     1      -2.514  -1.912  -0.822  0.00  0.00    +0.000 A 
ATOM     12  C19 UNL     1      -1.048   0.941   0.667  0.00  0.00    +0.000 A 
ATOM     13  N5  UNL     1      -0.028   0.419   1.414  0.00  0.00    +0.000 NA
ATOM     14  H10 UNL     1      -3.184   1.252  -1.252  0.00  0.00    +0.000 HD
ENDROOT
BRANCH  12  15
ATOM     15  C20 UNL     1      -1.254   2.405   0.642  0.00  0.00    +0.000 A 
ATOM     16  C21 UNL     1      -2.541   2.958   0.765  0.00  0.00    +0.000 A 
ATOM     17  C22 UNL     1      -2.715   4.346   0.764  0.00  0.00    +0.000 A 
ATOM     18  C23 UNL     1      -1.609   5.191   0.655  0.00  0.00    +0.000 A 
ATOM     19  C24 UNL     1      -0.324   4.651   0.559  0.00  0.00    +0.000 A 
ATOM     20  C25 UNL     1      -0.145   3.264   0.561  0.00  0.00    +0.000 A 
ENDBRANCH  12  15
BRANCH   1  22
ATOM     21  O1  UNL     1       1.565  -2.629   2.473  0.00  0.00    +0.000 OA
ATOM     22  C1  UNL     1       1.388  -1.396   2.279  0.00  0.00    +0.000 C 
ATOM     23  N1  UNL     1       2.356  -0.453   2.763  0.00  0.00    +0.000 N 
ATOM     24  H1  UNL     1       2.039   0.502   3.040  0.00  0.00    +0.000 HD
BRANCH  23  25
ATOM     25  N2  UNL     1       3.718  -0.776   2.916  0.00  0.00    +0.000 N 
ATOM     26  C2  UNL     1       4.381  -1.800   2.155  0.00  0.00    +0.000 C 
ATOM     27  N3  UNL     1       4.191  -1.961   0.875  0.00  0.00    +0.000 NA
ATOM     28  H2  UNL     1       4.268  -0.276   3.649  0.00  0.00    +0.000 HD
BRANCH  27  29
ATOM     29  C3  UNL     1       3.440  -1.105   0.001  0.00  0.00    +0.000 A 
ATOM     30  C4  UNL     1       2.587  -1.681  -0.951  0.00  0.00    +0.000 A 
ATOM     31  C5  UNL     1       1.825  -0.870  -1.798  0.00  0.00    +0.000 A 
ATOM     32  C6  UNL     1       1.939   0.521  -1.724  0.00  0.00    +0.000 A 
ATOM     33  C7  UNL     1       2.823   1.101  -0.810  0.00  0.00    +0.000 A 
ATOM     34  C8  UNL     1       3.575   0.294   0.049  0.00  0.00    +0.000 A 
ENDBRANCH  27  29
BRANCH  26  35
ATOM     35  S1  UNL     1       5.505  -2.904   2.997  0.00  0.00    +0.000 S 
ATOM     36  H3  UNL     1       6.600  -2.052   2.762  0.00  0.00    +0.000 HD
ENDBRANCH  26  35
ENDBRANCH  23  25
ENDBRANCH   1  22
TORSDOF 5
