REMARK  Name = resultss/4CJN/ligands/lig_284_t1.pdb
REMARK  12 active torsions:
REMARK  status: ('A' for Active; 'I' for Inactive)
REMARK    1  A    between atoms: C1_1  and  C2_2
REMARK    2  A    between atoms: C2_2  and  C3_3
REMARK    3  A    between atoms: C4_4  and  C5_5
REMARK    4  A    between atoms: C5_5  and  C6_6
REMARK    5  A    between atoms: C6_6  and  C7_7
REMARK    6  A    between atoms: C7_7  and  C8_8
REMARK    7  A    between atoms: C9_9  and  C10_10
REMARK    8  A    between atoms: C10_10  and  C11_11
REMARK    9  A    between atoms: C15_17  and  C16_18
REMARK   10  A    between atoms: C16_18  and  C17_20
REMARK   11  A    between atoms: C18_21  and  C19_22
REMARK   12  A    between atoms: C22_25  and  O4_26
REMARK                            x       y       z     vdW  Elec       q    Type
REMARK                         _______ _______ _______ _____ _____    ______ ____
ROOT
ATOM      1  C11 UNL     1      -0.234  -0.536   0.939  0.00  0.00    +0.000 C 
ATOM      2  C12 UNL     1      -0.309  -1.898   0.291  0.00  0.00    +0.000 C 
ATOM      3  O1  UNL     1      -0.064  -2.899   0.949  0.00  0.00    +0.000 OA
ATOM      4  C13 UNL     1      -0.593  -2.028  -1.177  0.00  0.00    +0.000 C 
ATOM      5  C14 UNL     1      -1.573  -0.985  -1.647  0.00  0.00    +0.000 C 
ATOM      6  O2  UNL     1      -1.848  -0.934  -2.837  0.00  0.00    +0.000 OA
ATOM      7  C15 UNL     1      -2.272  -0.045  -0.687  0.00  0.00    +0.000 C 
ATOM      8  C25 UNL     1      -1.383   0.335   0.478  0.00  0.00    +0.000 C 
ATOM      9  O5  UNL     1      -1.620   1.365   1.089  0.00  0.00    +0.000 OA
ENDROOT
BRANCH   7  10
ATOM     10  C16 UNL     1      -3.555  -0.662  -0.171  0.00  0.00    +0.000 C 
ATOM     11  O3  UNL     1      -3.575  -1.894   0.099  0.00  0.00    +0.000 OA
BRANCH  10  12
ATOM     12  C17 UNL     1      -4.793   0.113   0.073  0.00  0.00    +0.000 C 
ATOM     13  C18 UNL     1      -4.856   1.454   0.058  0.00  0.00    +0.000 C 
BRANCH  13  14
ATOM     14  C19 UNL     1      -6.100   2.224   0.316  0.00  0.00    +0.000 A 
ATOM     15  C20 UNL     1      -5.989   3.583   0.662  0.00  0.00    +0.000 A 
ATOM     16  C21 UNL     1      -7.131   4.354   0.898  0.00  0.00    +0.000 A 
ATOM     17  C22 UNL     1      -8.401   3.783   0.783  0.00  0.00    +0.000 A 
ATOM     18  C23 UNL     1      -8.527   2.436   0.426  0.00  0.00    +0.000 A 
ATOM     19  C24 UNL     1      -7.388   1.661   0.187  0.00  0.00    +0.000 A 
BRANCH  17  20
ATOM     20  O4  UNL     1      -9.530   4.564   1.021  0.00  0.00    +0.000 OA
ATOM     21  H26 UNL     1     -10.464   4.180   0.948  0.00  0.00    +0.000 HD
ENDBRANCH  17  20
ENDBRANCH  13  14
ENDBRANCH  10  12
ENDBRANCH   7  10
BRANCH   1  22
ATOM     22  C10 UNL     1       1.109   0.153   0.625  0.00  0.00    +0.000 C 
BRANCH  22  25
ATOM     23  C7  UNL     1       3.568  -0.208   1.031  0.00  0.00    +0.000 C 
ATOM     24  C8  UNL     1       3.917   1.006   0.203  0.00  0.00    +0.000 C 
ATOM     25  C9  UNL     1       2.285  -0.585   1.223  0.00  0.00    +0.000 C 
BRANCH  23  26
ATOM     26  C6  UNL     1       4.682  -1.024   1.654  0.00  0.00    +0.000 C 
BRANCH  26  27
ATOM     27  C5  UNL     1       4.908  -2.346   0.906  0.00  0.00    +0.000 C 
BRANCH  27  31
ATOM     28  C1  UNL     1       7.756  -1.974  -0.004  0.00  0.00    +0.000 C 
ATOM     29  C2  UNL     1       6.580  -1.913  -0.950  0.00  0.00    +0.000 C 
ATOM     30  C3  UNL     1       6.817  -1.639  -2.412  0.00  0.00    +0.000 C 
ATOM     31  C4  UNL     1       5.311  -2.113  -0.531  0.00  0.00    +0.000 C 
ENDBRANCH  27  31
ENDBRANCH  26  27
ENDBRANCH  23  26
ENDBRANCH  22  25
ENDBRANCH   1  22
TORSDOF 9
