REMARK  Name = resultss/4CJN/ligands/lig_224_t0.pdb
REMARK  22 active torsions:
REMARK  status: ('A' for Active; 'I' for Inactive)
REMARK    1  A    between atoms: C1_1  and  O1_2
REMARK    2  A    between atoms: O1_2  and  C2_3
REMARK    3  A    between atoms: C5_6  and  C6_7
REMARK    4  A    between atoms: C9_11  and  O3_12
REMARK    5  A    between atoms: O3_12  and  C10_13
REMARK    6  A    between atoms: C12_15  and  O4_16
REMARK    7  A    between atoms: O4_16  and  C13_17
REMARK    8  A    between atoms: C16_21  and  O6_22
REMARK    9  A    between atoms: O6_22  and  C17_23
REMARK   10  A    between atoms: C17_23  and  C18_24
REMARK   11  A    between atoms: C18_24  and  C19_25
REMARK   12  A    between atoms: C19_25  and  C20_26
REMARK   13  A    between atoms: C20_26  and  C21_27
REMARK   14  A    between atoms: C21_27  and  C22_28
REMARK   15  A    between atoms: C22_28  and  C23_29
REMARK   16  A    between atoms: C23_29  and  C24_30
REMARK   17  A    between atoms: C24_30  and  N1_31
REMARK   18  A    between atoms: C26_33  and  O7_34
REMARK   19  A    between atoms: C27_35  and  O8_36
REMARK   20  A    between atoms: C28_37  and  O9_38
REMARK   21  A    between atoms: C29_39  and  C30_40
REMARK   22  A    between atoms: C30_40  and  O10_41
REMARK                            x       y       z     vdW  Elec       q    Type
REMARK                         _______ _______ _______ _____ _____    ______ ____
ROOT
ATOM      1  O6  UNL     1      -2.169  -2.284  -0.100  0.00  0.00    +0.000 OA
ENDROOT
BRANCH   1  12
ATOM      2  C6  UNL     1      -4.015  -0.765  -0.644  0.00  0.00    +0.000 A 
ATOM      3  O2  UNL     1      -4.588   0.425  -0.485  0.00  0.00    +0.000 OA
ATOM      4  C7  UNL     1      -4.153   1.335   0.381  0.00  0.00    +0.000 A 
ATOM      5  C8  UNL     1      -4.815   2.561   0.463  0.00  0.00    +0.000 A 
ATOM      6  C9  UNL     1      -4.384   3.547   1.352  0.00  0.00    +0.000 A 
ATOM      7  C11 UNL     1      -3.276   3.292   2.181  0.00  0.00    +0.000 A 
ATOM      8  C12 UNL     1      -2.594   2.060   2.120  0.00  0.00    +0.000 A 
ATOM      9  C14 UNL     1      -3.039   1.069   1.209  0.00  0.00    +0.000 A 
ATOM     10  C15 UNL     1      -2.406  -0.184   1.068  0.00  0.00    +0.000 A 
ATOM     11  O5  UNL     1      -1.407  -0.496   1.773  0.00  0.00    +0.000 OA
ATOM     12  C16 UNL     1      -2.872  -1.093   0.112  0.00  0.00    +0.000 A 
BRANCH   2  16
ATOM     13  C2  UNL     1      -5.809  -3.438  -3.499  0.00  0.00    +0.000 A 
ATOM     14  C3  UNL     1      -5.721  -2.066  -3.760  0.00  0.00    +0.000 A 
ATOM     15  C4  UNL     1      -5.134  -1.203  -2.830  0.00  0.00    +0.000 A 
ATOM     16  C5  UNL     1      -4.612  -1.701  -1.625  0.00  0.00    +0.000 A 
ATOM     17  C31 UNL     1      -4.723  -3.076  -1.352  0.00  0.00    +0.000 A 
ATOM     18  C32 UNL     1      -5.309  -3.939  -2.282  0.00  0.00    +0.000 A 
BRANCH  13  20
ATOM     19  C1  UNL     1      -6.569  -5.671  -4.325  0.00  0.00    +0.000 C 
ATOM     20  O1  UNL     1      -6.402  -4.264  -4.465  0.00  0.00    +0.000 OA
ENDBRANCH  13  20
ENDBRANCH   2  16
BRANCH   8  21
ATOM     21  O4  UNL     1      -1.480   1.803   2.938  0.00  0.00    +0.000 OA
ATOM     22  C13 UNL     1      -0.925   2.722   3.872  0.00  0.00    +0.000 C 
ENDBRANCH   8  21
BRANCH   6  23
ATOM     23  O3  UNL     1      -5.080   4.765   1.379  0.00  0.00    +0.000 OA
ATOM     24  C10 UNL     1      -4.738   5.870   2.212  0.00  0.00    +0.000 C 
ENDBRANCH   6  23
ENDBRANCH   1  12
BRANCH   1  25
ATOM     25  C17 UNL     1      -1.322  -2.470  -1.234  0.00  0.00    +0.000 C 
BRANCH  25  26
ATOM     26  C18 UNL     1      -0.066  -1.600  -1.101  0.00  0.00    +0.000 C 
BRANCH  26  27
ATOM     27  C19 UNL     1       0.866  -1.683  -2.323  0.00  0.00    +0.000 C 
BRANCH  27  28
ATOM     28  C20 UNL     1       1.581  -3.036  -2.497  0.00  0.00    +0.000 C 
BRANCH  28  29
ATOM     29  C21 UNL     1       2.555  -3.412  -1.363  0.00  0.00    +0.000 C 
BRANCH  29  30
ATOM     30  C22 UNL     1       3.738  -2.430  -1.211  0.00  0.00    +0.000 C 
BRANCH  30  31
ATOM     31  C23 UNL     1       3.578  -1.514   0.011  0.00  0.00    +0.000 C 
BRANCH  31  32
ATOM     32  C24 UNL     1       4.707  -0.481   0.089  0.00  0.00    +0.000 C 
BRANCH  32  33
ATOM     33  N1  UNL     1       4.515   0.390   1.282  0.00  0.00    +0.000 NA
ATOM     34  C25 UNL     1       5.654   0.241   2.236  0.00  0.00    +0.000 C 
ATOM     35  C26 UNL     1       5.904   1.480   3.119  0.00  0.00    +0.000 C 
ATOM     36  C27 UNL     1       6.158   2.738   2.245  0.00  0.00    +0.000 C 
ATOM     37  C28 UNL     1       5.384   2.706   0.894  0.00  0.00    +0.000 C 
ATOM     38  C29 UNL     1       4.124   1.811   1.011  0.00  0.00    +0.000 C 
BRANCH  37  39
ATOM     39  O9  UNL     1       5.072   4.013   0.477  0.00  0.00    +0.000 OA
ATOM     40  H37 UNL     1       4.480   4.416   1.166  0.00  0.00    +0.000 HD
ENDBRANCH  37  39
BRANCH  36  41
ATOM     41  O8  UNL     1       7.534   2.922   2.015  0.00  0.00    +0.000 OA
ATOM     42  H35 UNL     1       7.875   2.112   1.553  0.00  0.00    +0.000 HD
ENDBRANCH  36  41
BRANCH  35  43
ATOM     43  O7  UNL     1       4.811   1.698   3.974  0.00  0.00    +0.000 OA
ATOM     44  H33 UNL     1       4.824   0.973   4.651  0.00  0.00    +0.000 HD
ENDBRANCH  35  43
BRANCH  38  45
ATOM     45  C30 UNL     1       3.133   1.992  -0.169  0.00  0.00    +0.000 C 
BRANCH  45  46
ATOM     46  O10 UNL     1       2.467   3.220  -0.056  0.00  0.00    +0.000 OA
ATOM     47  H41 UNL     1       1.813   3.253  -0.801  0.00  0.00    +0.000 HD
ENDBRANCH  45  46
ENDBRANCH  38  45
ENDBRANCH  32  33
ENDBRANCH  31  32
ENDBRANCH  30  31
ENDBRANCH  29  30
ENDBRANCH  28  29
ENDBRANCH  27  28
ENDBRANCH  26  27
ENDBRANCH  25  26
ENDBRANCH   1  25
TORSDOF 19
