REMARK  Name = resultss/4CJN/ligands/lig_238_t0.pdb
REMARK  6 active torsions:
REMARK  status: ('A' for Active; 'I' for Inactive)
REMARK    1  A    between atoms: C1_1  and  O1_2
REMARK    2  A    between atoms: O1_2  and  C2_3
REMARK    3  A    between atoms: C6_7  and  O2_8
REMARK    4  A    between atoms: C7_9  and  C8_10
REMARK    5  A    between atoms: C8_10  and  O3_11
REMARK    6  A    between atoms: C11_16  and  O6_17
REMARK                            x       y       z     vdW  Elec       q    Type
REMARK                         _______ _______ _______ _____ _____    ______ ____
ROOT
ATOM      1  C2  UNL     1      -1.217  -0.654  -0.293  0.00  0.00    +0.000 A 
ATOM      2  C3  UNL     1       0.049  -1.141   0.068  0.00  0.00    +0.000 A 
ATOM      3  C4  UNL     1       1.105  -0.265   0.355  0.00  0.00    +0.000 A 
ATOM      4  C5  UNL     1       0.875   1.128   0.360  0.00  0.00    +0.000 A 
ATOM      5  C6  UNL     1      -0.378   1.631  -0.076  0.00  0.00    +0.000 A 
ATOM      6  C7  UNL     1      -1.421   0.736  -0.398  0.00  0.00    +0.000 A 
ATOM      7  C9  UNL     1       1.965   1.992   0.885  0.00  0.00    +0.000 C 
ATOM      8  O4  UNL     1       1.737   3.150   1.322  0.00  0.00    +0.000 OA
ATOM      9  O5  UNL     1       3.253   1.467   1.011  0.00  0.00    +0.000 OA
ATOM     10  C10 UNL     1       3.582   0.186   0.485  0.00  0.00    +0.000 C 
ATOM     11  C11 UNL     1       2.457  -0.818   0.789  0.00  0.00    +0.000 C 
ENDROOT
BRANCH   1  13
ATOM     12  C1  UNL     1      -2.224  -2.942  -0.489  0.00  0.00    +0.000 C 
ATOM     13  O1  UNL     1      -2.291  -1.521  -0.557  0.00  0.00    +0.000 OA
ENDBRANCH   1  13
BRANCH   5  14
ATOM     14  O2  UNL     1      -0.613   3.002  -0.226  0.00  0.00    +0.000 OA
ATOM     15  H5  UNL     1       0.119   3.696  -0.269  0.00  0.00    +0.000 HD
ENDBRANCH   5  14
BRANCH  11  16
ATOM     16  O6  UNL     1       2.740  -2.053   0.179  0.00  0.00    +0.000 OA
ATOM     17  H12 UNL     1       2.732  -1.910  -0.804  0.00  0.00    +0.000 HD
ENDBRANCH  11  16
BRANCH   6  18
ATOM     18  C8  UNL     1      -2.775   1.268  -0.801  0.00  0.00    +0.000 C 
BRANCH  18  19
ATOM     19  O3  UNL     1      -3.552   1.473   0.346  0.00  0.00    +0.000 OA
ATOM     20  H8  UNL     1      -4.426   1.820   0.029  0.00  0.00    +0.000 HD
ENDBRANCH  18  19
ENDBRANCH   6  18
TORSDOF 5
