REMARK  Name = resultss/4CJN/ligands/lig_215_t1.pdb
REMARK  13 active torsions:
REMARK  status: ('A' for Active; 'I' for Inactive)
REMARK    1  A    between atoms: C1_1  and  C2_2
REMARK    2  A    between atoms: C3_3  and  C4_4
REMARK    3  A    between atoms: C4_4  and  C5_5
REMARK    4  A    between atoms: C7_7  and  C8_8
REMARK    5  A    between atoms: C10_11  and  C11_12
REMARK    6  A    between atoms: C11_12  and  C12_13
REMARK    7  A    between atoms: C11_12  and  C13_14
REMARK    8  A    between atoms: C11_12  and  C14_15
REMARK    9  A    between atoms: C14_15  and  C15_16
REMARK   10  A    between atoms: C16_17  and  O2_18
REMARK   11  A    between atoms: C18_20  and  O3_21
REMARK   12  A    between atoms: C23_28  and  O6_29
REMARK   13  A    between atoms: C24_30  and  O7_31
REMARK                            x       y       z     vdW  Elec       q    Type
REMARK                         _______ _______ _______ _____ _____    ______ ____
ROOT
ATOM      1  C8  UNL     1      -0.568   1.068  -2.295  0.00  0.00    +0.000 C 
ATOM      2  O1  UNL     1      -1.538   0.697  -1.315  0.00  0.00    +0.000 OA
ATOM      3  C9  UNL     1      -1.679  -0.592  -0.783  0.00  0.00    +0.000 A 
ATOM      4  C10 UNL     1      -2.355  -0.773   0.462  0.00  0.00    +0.000 A 
ATOM      5  C16 UNL     1      -2.306  -2.074   1.039  0.00  0.00    +0.000 A 
ATOM      6  C17 UNL     1      -1.738  -3.141   0.337  0.00  0.00    +0.000 A 
ATOM      7  C18 UNL     1      -1.179  -2.976  -0.924  0.00  0.00    +0.000 A 
ATOM      8  C19 UNL     1      -1.162  -1.690  -1.513  0.00  0.00    +0.000 A 
ATOM      9  C20 UNL     1      -0.667  -1.419  -2.893  0.00  0.00    +0.000 C 
ATOM     10  O4  UNL     1      -0.540  -2.337  -3.748  0.00  0.00    +0.000 OA
ATOM     11  C21 UNL     1      -0.389  -0.035  -3.294  0.00  0.00    +0.000 C 
ATOM     12  O5  UNL     1       0.044   0.221  -4.451  0.00  0.00    +0.000 OA
ENDROOT
BRANCH   1  15
ATOM     13  C5  UNL     1       3.022   1.061  -0.880  0.00  0.00    +0.000 A 
ATOM     14  C6  UNL     1       1.844   0.637  -1.520  0.00  0.00    +0.000 A 
ATOM     15  C7  UNL     1       0.720   1.481  -1.607  0.00  0.00    +0.000 A 
ATOM     16  C22 UNL     1       0.769   2.736  -0.984  0.00  0.00    +0.000 A 
ATOM     17  C23 UNL     1       1.917   3.160  -0.310  0.00  0.00    +0.000 A 
ATOM     18  C24 UNL     1       3.048   2.328  -0.248  0.00  0.00    +0.000 A 
BRANCH  17  19
ATOM     19  O6  UNL     1       1.909   4.416   0.297  0.00  0.00    +0.000 OA
ATOM     20  H25 UNL     1       2.727   4.803   0.755  0.00  0.00    +0.000 HD
ENDBRANCH  17  19
BRANCH  18  21
ATOM     21  O7  UNL     1       4.170   2.778   0.454  0.00  0.00    +0.000 OA
ATOM     22  H26 UNL     1       4.997   2.218   0.603  0.00  0.00    +0.000 HD
ENDBRANCH  18  21
BRANCH  13  23
ATOM     23  C4  UNL     1       4.214   0.135  -0.857  0.00  0.00    +0.000 C 
BRANCH  23  26
ATOM     24  C1  UNL     1       5.493  -2.069   2.046  0.00  0.00    +0.000 C 
ATOM     25  C2  UNL     1       5.361  -1.383   0.721  0.00  0.00    +0.000 C 
ATOM     26  C3  UNL     1       4.335  -0.560   0.472  0.00  0.00    +0.000 C 
ENDBRANCH  23  26
ENDBRANCH  13  23
ENDBRANCH   1  15
BRANCH   4  27
ATOM     27  C11 UNL     1      -3.045   0.452   1.158  0.00  0.00    +0.000 C 
ATOM     28  C12 UNL     1      -3.948   0.077   2.370  0.00  0.00    +0.000 C 
ATOM     29  C13 UNL     1      -1.942   1.388   1.703  0.00  0.00    +0.000 C 
BRANCH  27  30
ATOM     30  C14 UNL     1      -3.955   1.263   0.167  0.00  0.00    +0.000 C 
ATOM     31  C15 UNL     1      -4.897   0.394  -0.673  0.00  0.00    +0.000 C 
ENDBRANCH  27  30
ENDBRANCH   4  27
BRANCH   5  32
ATOM     32  O2  UNL     1      -2.802  -2.342   2.314  0.00  0.00    +0.000 OA
ATOM     33  H21 UNL     1      -2.837  -3.281   2.693  0.00  0.00    +0.000 HD
ENDBRANCH   5  32
BRANCH   7  34
ATOM     34  O3  UNL     1      -0.628  -4.115  -1.520  0.00  0.00    +0.000 OA
ATOM     35  H23 UNL     1      -0.089  -4.123  -2.378  0.00  0.00    +0.000 HD
ENDBRANCH   7  34
TORSDOF 9
