REMARK  Name = resultss/4CJN/ligands/lig_169_t0.pdb
REMARK  6 active torsions:
REMARK  status: ('A' for Active; 'I' for Inactive)
REMARK    1  A    between atoms: C1_2  and  C9_14
REMARK    2  A    between atoms: N1_3  and  N2_4
REMARK    3  A    between atoms: C2_5  and  C3_6
REMARK    4  A    between atoms: C6_9  and  O2_10
REMARK    5  A    between atoms: C7_11  and  O3_12
REMARK    6  A    between atoms: C12_17  and  C13_18
REMARK                            x       y       z     vdW  Elec       q    Type
REMARK                         _______ _______ _______ _____ _____    ______ ____
ROOT
ATOM      1  O1  UNL     1       1.774  -0.708  -1.789  0.00  0.00    +0.000 OA
ATOM      2  C1  UNL     1       1.210  -0.730  -0.661  0.00  0.00    +0.000 C 
ATOM      3  N1  UNL     1       2.001  -0.924   0.525  0.00  0.00    +0.000 N 
ATOM      4  H1  UNL     1       1.565  -1.414   1.338  0.00  0.00    +0.000 HD
ENDROOT
BRANCH   2   5
ATOM      5  C9  UNL     1      -0.266  -0.606  -0.579  0.00  0.00    +0.000 A 
ATOM      6  C10 UNL     1      -0.897  -0.266   0.630  0.00  0.00    +0.000 A 
ATOM      7  C11 UNL     1      -2.288  -0.144   0.696  0.00  0.00    +0.000 A 
ATOM      8  C12 UNL     1      -3.080  -0.355  -0.446  0.00  0.00    +0.000 A 
ATOM      9  C20 UNL     1      -2.448  -0.686  -1.657  0.00  0.00    +0.000 A 
ATOM     10  C21 UNL     1      -1.057  -0.807  -1.723  0.00  0.00    +0.000 A 
BRANCH   8  11
ATOM     11  C13 UNL     1      -4.553  -0.225  -0.364  0.00  0.00    +0.000 A 
ATOM     12  N3  UNL     1      -5.208   0.094   0.783  0.00  0.00    +0.000 NA
ATOM     13  C14 UNL     1      -6.550   0.150   0.589  0.00  0.00    +0.000 A 
ATOM     14  C15 UNL     1      -7.479   0.454   1.586  0.00  0.00    +0.000 A 
ATOM     15  C16 UNL     1      -8.845   0.478   1.251  0.00  0.00    +0.000 A 
ATOM     16  C17 UNL     1      -9.262   0.200  -0.066  0.00  0.00    +0.000 A 
ATOM     17  C18 UNL     1      -8.319  -0.105  -1.060  0.00  0.00    +0.000 A 
ATOM     18  C19 UNL     1      -6.973  -0.122  -0.701  0.00  0.00    +0.000 A 
ATOM     19  S1  UNL     1      -5.635  -0.447  -1.656  0.00  0.00    +0.000 S 
ENDBRANCH   8  11
ENDBRANCH   2   5
BRANCH   3  20
ATOM     20  N2  UNL     1       3.389  -0.694   0.575  0.00  0.00    +0.000 NA
ATOM     21  C2  UNL     1       3.988   0.234  -0.108  0.00  0.00    +0.000 C 
BRANCH  21  22
ATOM     22  C3  UNL     1       5.452   0.415  -0.026  0.00  0.00    +0.000 A 
ATOM     23  C4  UNL     1       6.060   1.443  -0.758  0.00  0.00    +0.000 A 
ATOM     24  C5  UNL     1       7.442   1.632  -0.697  0.00  0.00    +0.000 A 
ATOM     25  C6  UNL     1       8.242   0.801   0.095  0.00  0.00    +0.000 A 
ATOM     26  C7  UNL     1       7.639  -0.241   0.838  0.00  0.00    +0.000 A 
ATOM     27  C8  UNL     1       6.252  -0.424   0.771  0.00  0.00    +0.000 A 
BRANCH  25  28
ATOM     28  O2  UNL     1       9.617   1.043   0.113  0.00  0.00    +0.000 OA
ATOM     29  H5  UNL     1      10.279   0.502   0.650  0.00  0.00    +0.000 HD
ENDBRANCH  25  28
BRANCH  26  30
ATOM     30  O3  UNL     1       8.372  -1.111   1.649  0.00  0.00    +0.000 OA
ATOM     31  H6  UNL     1       9.374  -1.064   1.766  0.00  0.00    +0.000 HD
ENDBRANCH  26  30
ENDBRANCH  21  22
ENDBRANCH   3  20
TORSDOF 6
