REMARK  Name = resultss/4CJN/ligands/lig_307_t1.pdb
REMARK  3 active torsions:
REMARK  status: ('A' for Active; 'I' for Inactive)
REMARK    1  A    between atoms: C1_1  and  O1_2
REMARK    2  A    between atoms: O1_2  and  C2_3
REMARK    3  A    between atoms: C4_5  and  O2_6
REMARK                            x       y       z     vdW  Elec       q    Type
REMARK                         _______ _______ _______ _____ _____    ______ ____
ROOT
ATOM      1  C2  UNL     1       2.871   0.112  -0.739  0.00  0.00    +0.000 A 
ATOM      2  C3  UNL     1       2.873   0.262   0.659  0.00  0.00    +0.000 A 
ATOM      3  C4  UNL     1       1.674   0.226   1.387  0.00  0.00    +0.000 A 
ATOM      4  C5  UNL     1       0.445   0.036   0.710  0.00  0.00    +0.000 A 
ATOM      5  C6  UNL     1      -0.801  -0.009   1.373  0.00  0.00    +0.000 A 
ATOM      6  O3  UNL     1      -0.866   0.130   2.625  0.00  0.00    +0.000 OA
ATOM      7  C7  UNL     1      -1.979  -0.200   0.624  0.00  0.00    +0.000 A 
ATOM      8  C8  UNL     1      -3.328  -0.233   1.245  0.00  0.00    +0.000 C 
ATOM      9  O4  UNL     1      -3.473  -0.342   2.493  0.00  0.00    +0.000 OA
ATOM     10  C9  UNL     1      -4.513  -0.141   0.378  0.00  0.00    +0.000 C 
ATOM     11  O5  UNL     1      -5.671  -0.218   0.869  0.00  0.00    +0.000 OA
ATOM     12  C10 UNL     1      -4.332   0.117  -1.089  0.00  0.00    +0.000 C 
ATOM     13  C11 UNL     1      -3.089  -0.607  -1.622  0.00  0.00    +0.000 C 
ATOM     14  C12 UNL     1      -1.870  -0.341  -0.774  0.00  0.00    +0.000 A 
ATOM     15  O6  UNL     1      -0.681  -0.296  -1.363  0.00  0.00    +0.000 OA
ATOM     16  C13 UNL     1       0.452  -0.114  -0.696  0.00  0.00    +0.000 A 
ATOM     17  C14 UNL     1       1.657  -0.075  -1.404  0.00  0.00    +0.000 A 
ENDROOT
BRANCH   1  19
ATOM     18  C1  UNL     1       5.353   0.325  -0.961  0.00  0.00    +0.000 C 
ATOM     19  O1  UNL     1       4.048   0.142  -1.501  0.00  0.00    +0.000 OA
ENDBRANCH   1  19
BRANCH   3  20
ATOM     20  O2  UNL     1       1.714   0.378   2.773  0.00  0.00    +0.000 OA
ATOM     21  H5  UNL     1       2.586   0.514   3.271  0.00  0.00    +0.000 HD
ENDBRANCH   3  20
TORSDOF 2
