REMARK  Name = resultss/4CJN/ligands/lig_1_t0.pdb
REMARK  7 active torsions:
REMARK  status: ('A' for Active; 'I' for Inactive)
REMARK    1  A    between atoms: O1_1  and  C1_2
REMARK    2  A    between atoms: C1_2  and  C2_3
REMARK    3  A    between atoms: C3_5  and  C4_6
REMARK    4  A    between atoms: C4_6  and  O2_7
REMARK    5  A    between atoms: C5_8  and  O3_9
REMARK    6  A    between atoms: C6_10  and  O4_11
REMARK    7  A    between atoms: C7_12  and  O5_13
REMARK                            x       y       z     vdW  Elec       q    Type
REMARK                         _______ _______ _______ _____ _____    ______ ____
ROOT
ATOM      1  C2  UNL     1      -1.098  -0.499   0.640  0.00  0.00    +0.000 C 
ATOM      2  N1  UNL     1       0.303  -0.962   0.481  0.00  0.00    +0.000 NA
ATOM      3  C3  UNL     1       0.960  -0.405  -0.716  0.00  0.00    +0.000 C 
ATOM      4  C5  UNL     1       1.133   1.135  -0.578  0.00  0.00    +0.000 C 
ATOM      5  C6  UNL     1       0.014   1.776   0.284  0.00  0.00    +0.000 C 
ATOM      6  C7  UNL     1      -1.292   0.968   0.150  0.00  0.00    +0.000 C 
ATOM      7  H5  UNL     1       0.333  -2.008   0.445  0.00  0.00    +0.000 HD
ENDROOT
BRANCH   4   8
ATOM      8  O3  UNL     1       1.131   1.705  -1.864  0.00  0.00    +0.000 OA
ATOM      9  H11 UNL     1       1.560   2.597  -1.787  0.00  0.00    +0.000 HD
ENDBRANCH   4   8
BRANCH   5  10
ATOM     10  O4  UNL     1       0.429   1.806   1.629  0.00  0.00    +0.000 OA
ATOM     11  H13 UNL     1       0.014   2.605   2.048  0.00  0.00    +0.000 HD
ENDBRANCH   5  10
BRANCH   6  12
ATOM     12  O5  UNL     1      -2.358   1.599   0.817  0.00  0.00    +0.000 OA
ATOM     13  H15 UNL     1      -2.155   1.602   1.788  0.00  0.00    +0.000 HD
ENDBRANCH   6  12
BRANCH   1  14
ATOM     14  C1  UNL     1      -2.102  -1.443  -0.058  0.00  0.00    +0.000 C 
BRANCH  14  15
ATOM     15  O1  UNL     1      -2.082  -2.718   0.527  0.00  0.00    +0.000 OA
ATOM     16  H1  UNL     1      -2.564  -2.641   1.391  0.00  0.00    +0.000 HD
ENDBRANCH  14  15
ENDBRANCH   1  14
BRANCH   3  17
ATOM     17  C4  UNL     1       2.315  -1.097  -0.965  0.00  0.00    +0.000 C 
BRANCH  17  18
ATOM     18  O2  UNL     1       3.167  -0.961   0.141  0.00  0.00    +0.000 OA
ATOM     19  H9  UNL     1       2.911  -1.668   0.790  0.00  0.00    +0.000 HD
ENDBRANCH  17  18
ENDBRANCH   3  17
TORSDOF 7
