REMARK  Name = resultss/4CJN/ligands/lig_264_t1.pdb
REMARK  6 active torsions:
REMARK  status: ('A' for Active; 'I' for Inactive)
REMARK    1  A    between atoms: O1_1  and  C1_2
REMARK    2  A    between atoms: C1_2  and  C17_22
REMARK    3  A    between atoms: N1_3  and  C2_4
REMARK    4  A    between atoms: C5_8  and  C6_9
REMARK    5  A    between atoms: N2_11  and  C7_12
REMARK    6  A    between atoms: C7_12  and  C8_13
REMARK                            x       y       z     vdW  Elec       q    Type
REMARK                         _______ _______ _______ _____ _____    ______ ____
ROOT
ATOM      1  C2  UNL     1       1.562   1.160  -0.276  0.00  0.00    +0.000 A 
ATOM      2  S1  UNL     1       2.574   2.424  -0.801  0.00  0.00    +0.000 S 
ATOM      3  C3  UNL     1       1.412   3.604  -0.547  0.00  0.00    +0.000 A 
ATOM      4  C4  UNL     1       0.294   3.073  -0.008  0.00  0.00    +0.000 A 
ATOM      5  C5  UNL     1       0.346   1.685   0.185  0.00  0.00    +0.000 A 
ATOM      6  C14 UNL     1      -0.621   4.122   0.500  0.00  0.00    +0.000 C 
ATOM      7  C15 UNL     1       0.135   5.440   0.192  0.00  0.00    +0.000 C 
ATOM      8  C16 UNL     1       1.482   5.072  -0.474  0.00  0.00    +0.000 C 
ENDROOT
BRANCH   5   9
ATOM      9  C6  UNL     1      -0.688   0.887   0.877  0.00  0.00    +0.000 C 
ATOM     10  O2  UNL     1      -0.340  -0.105   1.572  0.00  0.00    +0.000 OA
ATOM     11  N2  UNL     1      -2.079   1.215   0.746  0.00  0.00    +0.000 N 
ATOM     12  H2  UNL     1      -2.375   1.940   0.056  0.00  0.00    +0.000 HD
BRANCH  11  13
ATOM     13  C7  UNL     1      -3.124   0.484   1.459  0.00  0.00    +0.000 C 
BRANCH  13  14
ATOM     14  C8  UNL     1      -3.322  -0.875   0.844  0.00  0.00    +0.000 A 
ATOM     15  C9  UNL     1      -3.905  -0.991  -0.428  0.00  0.00    +0.000 A 
ATOM     16  C10 UNL     1      -4.067  -2.250  -1.017  0.00  0.00    +0.000 A 
ATOM     17  C11 UNL     1      -3.645  -3.398  -0.341  0.00  0.00    +0.000 A 
ATOM     18  C12 UNL     1      -3.060  -3.290   0.924  0.00  0.00    +0.000 A 
ATOM     19  C13 UNL     1      -2.897  -2.034   1.516  0.00  0.00    +0.000 A 
ENDBRANCH  13  14
ENDBRANCH  11  13
ENDBRANCH   5   9
BRANCH   1  21
ATOM     20  C1  UNL     1       2.758  -0.906  -0.840  0.00  0.00    +0.000 C 
ATOM     21  N1  UNL     1       1.974  -0.198  -0.076  0.00  0.00    +0.000 NA
BRANCH  20  22
ATOM     22  C17 UNL     1       3.166  -2.263  -0.407  0.00  0.00    +0.000 A 
ATOM     23  C18 UNL     1       2.709  -2.814   0.805  0.00  0.00    +0.000 A 
ATOM     24  C19 UNL     1       3.105  -4.096   1.189  0.00  0.00    +0.000 A 
ATOM     25  C20 UNL     1       3.958  -4.824   0.360  0.00  0.00    +0.000 A 
ATOM     26  N3  UNL     1       4.396  -4.286  -0.808  0.00  0.00    +0.000 NA
ATOM     27  C21 UNL     1       4.025  -3.039  -1.206  0.00  0.00    +0.000 A 
ENDBRANCH  20  22
BRANCH  20  28
ATOM     28  O1  UNL     1       3.195  -0.433  -2.081  0.00  0.00    +0.000 OA
ATOM     29  H1  UNL     1       2.801   0.379  -2.535  0.00  0.00    +0.000 HD
ENDBRANCH  20  28
ENDBRANCH   1  21
TORSDOF 6
