REMARK  Name = resultss/4CJN/ligands/lig_165_t2.pdb
REMARK  4 active torsions:
REMARK  status: ('A' for Active; 'I' for Inactive)
REMARK    1  A    between atoms: C1_2  and  C9_14
REMARK    2  A    between atoms: N1_3  and  N2_4
REMARK    3  A    between atoms: C2_5  and  C3_6
REMARK    4  A    between atoms: C12_17  and  C13_18
REMARK                            x       y       z     vdW  Elec       q    Type
REMARK                         _______ _______ _______ _____ _____    ______ ____
ROOT
ATOM      1  C9  UNL     1       0.279   0.374  -0.700  0.00  0.00    +0.000 A 
ATOM      2  C10 UNL     1       1.226   0.415  -1.737  0.00  0.00    +0.000 A 
ATOM      3  C11 UNL     1       2.586   0.246  -1.465  0.00  0.00    +0.000 A 
ATOM      4  C12 UNL     1       3.033   0.040  -0.149  0.00  0.00    +0.000 A 
ATOM      5  C20 UNL     1       2.087   0.012   0.890  0.00  0.00    +0.000 A 
ATOM      6  C21 UNL     1       0.726   0.181   0.619  0.00  0.00    +0.000 A 
ENDROOT
BRANCH   4   7
ATOM      7  C13 UNL     1       4.477  -0.138   0.128  0.00  0.00    +0.000 A 
ATOM      8  N3  UNL     1       5.427  -0.115  -0.842  0.00  0.00    +0.000 NA
ATOM      9  C14 UNL     1       6.669  -0.303  -0.326  0.00  0.00    +0.000 A 
ATOM     10  C15 UNL     1       7.842  -0.327  -1.082  0.00  0.00    +0.000 A 
ATOM     11  C16 UNL     1       9.067  -0.531  -0.421  0.00  0.00    +0.000 A 
ATOM     12  C17 UNL     1       9.103  -0.707   0.977  0.00  0.00    +0.000 A 
ATOM     13  C18 UNL     1       7.916  -0.680   1.726  0.00  0.00    +0.000 A 
ATOM     14  C19 UNL     1       6.718  -0.476   1.047  0.00  0.00    +0.000 A 
ATOM     15  S1  UNL     1       5.161  -0.396   1.663  0.00  0.00    +0.000 S 
ENDBRANCH   4   7
BRANCH   1  17
ATOM     16  O1  UNL     1      -1.499   1.169  -2.056  0.00  0.00    +0.000 OA
ATOM     17  C1  UNL     1      -1.161   0.561  -1.004  0.00  0.00    +0.000 C 
ATOM     18  N1  UNL     1      -2.179   0.048  -0.135  0.00  0.00    +0.000 N 
ATOM     19  H1  UNL     1      -1.926  -0.597   0.647  0.00  0.00    +0.000 HD
BRANCH  18  20
ATOM     20  N2  UNL     1      -3.527   0.356  -0.377  0.00  0.00    +0.000 NA
ATOM     21  C2  UNL     1      -4.478  -0.110   0.371  0.00  0.00    +0.000 C 
BRANCH  21  22
ATOM     22  C3  UNL     1      -5.909   0.249   0.087  0.00  0.00    +0.000 C 
ATOM     23  C4  UNL     1      -6.477   1.082   1.255  0.00  0.00    +0.000 C 
ATOM     24  C5  UNL     1      -7.968   1.284   1.137  0.00  0.00    +0.000 C 
ATOM     25  C6  UNL     1      -8.766   0.317   0.674  0.00  0.00    +0.000 C 
ATOM     26  C7  UNL     1      -8.196  -0.917   0.114  0.00  0.00    +0.000 C 
ATOM     27  O2  UNL     1      -8.946  -1.889  -0.171  0.00  0.00    +0.000 OA
ATOM     28  C8  UNL     1      -6.747  -0.989  -0.137  0.00  0.00    +0.000 C 
ATOM     29  O3  UNL     1      -6.240  -2.039  -0.618  0.00  0.00    +0.000 OA
ENDBRANCH  21  22
ENDBRANCH  18  20
ENDBRANCH   1  17
TORSDOF 4
