REMARK  Name = resultss/4CJN/ligands/lig_282_t0.pdb
REMARK  11 active torsions:
REMARK  status: ('A' for Active; 'I' for Inactive)
REMARK    1  A    between atoms: C2_2  and  C3_3
REMARK    2  A    between atoms: C3_3  and  C4_4
REMARK    3  A    between atoms: C6_6  and  C7_7
REMARK    4  A    between atoms: C10_10  and  O1_11
REMARK    5  A    between atoms: C11_12  and  C12_13
REMARK    6  A    between atoms: C12_13  and  C13_14
REMARK    7  A    between atoms: C16_17  and  O2_18
REMARK    8  A    between atoms: C17_19  and  C18_20
REMARK    9  A    between atoms: C18_20  and  C19_21
REMARK   10  A    between atoms: C18_20  and  N1_29
REMARK   11  A    between atoms: C27_32  and  C28_33
REMARK                            x       y       z     vdW  Elec       q    Type
REMARK                         _______ _______ _______ _____ _____    ______ ____
ROOT
ATOM      1  C4  UNL     1       1.046  -1.952   1.643  0.00  0.00    +0.000 A 
ATOM      2  C5  UNL     1       1.985  -1.056   1.122  0.00  0.00    +0.000 A 
ATOM      3  C6  UNL     1       1.616  -0.112   0.153  0.00  0.00    +0.000 A 
ATOM      4  C16 UNL     1       0.282  -0.078  -0.316  0.00  0.00    +0.000 A 
ATOM      5  C17 UNL     1      -0.681  -0.954   0.236  0.00  0.00    +0.000 A 
ATOM      6  C31 UNL     1      -0.283  -1.888   1.208  0.00  0.00    +0.000 A 
ENDROOT
BRANCH   3   7
ATOM      7  C7  UNL     1       2.634   0.852  -0.319  0.00  0.00    +0.000 A 
ATOM      8  C8  UNL     1       2.441   2.229  -0.140  0.00  0.00    +0.000 A 
ATOM      9  C9  UNL     1       3.421   3.136  -0.548  0.00  0.00    +0.000 A 
ATOM     10  C10 UNL     1       4.610   2.679  -1.132  0.00  0.00    +0.000 A 
ATOM     11  C11 UNL     1       4.815   1.298  -1.317  0.00  0.00    +0.000 A 
ATOM     12  C15 UNL     1       3.827   0.392  -0.897  0.00  0.00    +0.000 A 
BRANCH  10  13
ATOM     13  O1  UNL     1       5.590   3.592  -1.522  0.00  0.00    +0.000 OA
ATOM     14  H9  UNL     1       5.466   4.590  -1.397  0.00  0.00    +0.000 HD
ENDBRANCH  10  13
BRANCH  11  15
ATOM     15  C12 UNL     1       6.101   0.780  -1.909  0.00  0.00    +0.000 C 
BRANCH  15  16
ATOM     16  C13 UNL     1       7.185   0.732  -0.868  0.00  0.00    +0.000 C 
ATOM     17  C14 UNL     1       7.174  -0.173   0.115  0.00  0.00    +0.000 C 
ENDBRANCH  15  16
ENDBRANCH  11  15
ENDBRANCH   3   7
BRANCH   4  18
ATOM     18  O2  UNL     1      -0.102   0.807  -1.327  0.00  0.00    +0.000 OA
ATOM     19  H16 UNL     1       0.552   1.387  -1.836  0.00  0.00    +0.000 HD
ENDBRANCH   4  18
BRANCH   1  20
ATOM     20  C3  UNL     1       1.450  -2.931   2.713  0.00  0.00    +0.000 C 
BRANCH  20  22
ATOM     21  C1  UNL     1       0.332  -1.946   4.697  0.00  0.00    +0.000 C 
ATOM     22  C2  UNL     1       1.463  -2.265   4.061  0.00  0.00    +0.000 C 
ENDBRANCH  20  22
ENDBRANCH   1  20
BRANCH   5  23
ATOM     23  C18 UNL     1      -2.136  -0.952  -0.231  0.00  0.00    +0.000 C 
BRANCH  23  24
ATOM     24  C19 UNL     1      -2.186  -1.614  -1.602  0.00  0.00    +0.000 A 
ATOM     25  C20 UNL     1      -2.162  -0.863  -2.794  0.00  0.00    +0.000 A 
ATOM     26  C21 UNL     1      -2.170  -1.505  -4.036  0.00  0.00    +0.000 A 
ATOM     27 CL1  UNL     1      -2.148  -0.557  -5.512  0.00  0.00    +0.000 Cl
ATOM     28  C22 UNL     1      -2.194  -2.900  -4.104  0.00  0.00    +0.000 A 
ATOM     29  C23 UNL     1      -2.207  -3.657  -2.929  0.00  0.00    +0.000 A 
ATOM     30 CL2  UNL     1      -2.227  -5.409  -3.014  0.00  0.00    +0.000 Cl
ATOM     31  C24 UNL     1      -2.198  -3.018  -1.685  0.00  0.00    +0.000 A 
ENDBRANCH  23  24
BRANCH  23  32
ATOM     32  N1  UNL     1      -2.744   0.411  -0.224  0.00  0.00    +0.000 NA
ATOM     33  C25 UNL     1      -2.476   1.132   1.052  0.00  0.00    +0.000 C 
ATOM     34  C26 UNL     1      -3.460   2.284   1.284  0.00  0.00    +0.000 C 
ATOM     35  C27 UNL     1      -4.898   1.748   1.449  0.00  0.00    +0.000 C 
ATOM     36  C28 UNL     1      -5.920   2.826   1.067  0.00  0.00    +0.000 C 
ATOM     37  C29 UNL     1      -5.120   0.446   0.644  0.00  0.00    +0.000 C 
ATOM     38  C30 UNL     1      -4.195   0.378  -0.581  0.00  0.00    +0.000 C 
ENDBRANCH  23  32
ENDBRANCH   5  23
TORSDOF 10
