REMARK  Name = resultss/4CJN/ligands/lig_7_t0.pdb
REMARK  7 active torsions:
REMARK  status: ('A' for Active; 'I' for Inactive)
REMARK    1  A    between atoms: O1_1  and  C1_2
REMARK    2  A    between atoms: C1_2  and  C2_3
REMARK    3  A    between atoms: C3_5  and  C4_6
REMARK    4  A    between atoms: C4_6  and  O2_7
REMARK    5  A    between atoms: C5_8  and  O3_9
REMARK    6  A    between atoms: C6_10  and  O4_11
REMARK    7  A    between atoms: C7_12  and  O5_13
REMARK                            x       y       z     vdW  Elec       q    Type
REMARK                         _______ _______ _______ _____ _____    ______ ____
ROOT
ATOM      1  C2  UNL     1      -1.073  -0.616   0.785  0.00  0.00    +0.000 C 
ATOM      2  N1  UNL     1       0.148  -1.288   0.300  0.00  0.00    +0.000 NA
ATOM      3  C3  UNL     1       0.814  -0.559  -0.797  0.00  0.00    +0.000 C 
ATOM      4  C5  UNL     1       1.191   0.878  -0.369  0.00  0.00    +0.000 C 
ATOM      5  C6  UNL     1      -0.063   1.637   0.100  0.00  0.00    +0.000 C 
ATOM      6  C7  UNL     1      -0.784   0.849   1.210  0.00  0.00    +0.000 C 
ATOM      7  H5  UNL     1       0.809  -1.368   1.109  0.00  0.00    +0.000 HD
ENDROOT
BRANCH   4   8
ATOM      8  O3  UNL     1       1.767   1.554  -1.458  0.00  0.00    +0.000 OA
ATOM      9  H11 UNL     1       2.315   2.292  -1.084  0.00  0.00    +0.000 HD
ENDBRANCH   4   8
BRANCH   5  10
ATOM     10  O4  UNL     1       0.321   2.897   0.590  0.00  0.00    +0.000 OA
ATOM     11  H13 UNL     1      -0.483   3.479   0.555  0.00  0.00    +0.000 HD
ENDBRANCH   5  10
BRANCH   6  12
ATOM     12  O5  UNL     1      -1.974   1.509   1.559  0.00  0.00    +0.000 OA
ATOM     13  H15 UNL     1      -2.265   1.132   2.430  0.00  0.00    +0.000 HD
ENDBRANCH   6  12
BRANCH   1  14
ATOM     14  C1  UNL     1      -2.234  -0.748  -0.226  0.00  0.00    +0.000 C 
BRANCH  14  15
ATOM     15  O1  UNL     1      -2.385  -2.083  -0.631  0.00  0.00    +0.000 OA
ATOM     16  H1  UNL     1      -2.799  -2.566   0.131  0.00  0.00    +0.000 HD
ENDBRANCH  14  15
ENDBRANCH   1  14
BRANCH   3  17
ATOM     17  C4  UNL     1       2.040  -1.355  -1.287  0.00  0.00    +0.000 C 
BRANCH  17  18
ATOM     18  O2  UNL     1       3.041  -1.413  -0.304  0.00  0.00    +0.000 OA
ATOM     19  H9  UNL     1       2.877  -2.235   0.228  0.00  0.00    +0.000 HD
ENDBRANCH  17  18
ENDBRANCH   3  17
TORSDOF 7
