REMARK  Name = resultss/4CJN/ligands/lig_166_t2.pdb
REMARK  6 active torsions:
REMARK  status: ('A' for Active; 'I' for Inactive)
REMARK    1  A    between atoms: C1_1  and  O1_2
REMARK    2  A    between atoms: O1_2  and  C2_3
REMARK    3  A    between atoms: C5_6  and  C6_7
REMARK    4  A    between atoms: N1_8  and  N2_9
REMARK    5  A    between atoms: C7_10  and  C8_12
REMARK    6  A    between atoms: C11_15  and  C12_16
REMARK                            x       y       z     vdW  Elec       q    Type
REMARK                         _______ _______ _______ _____ _____    ______ ____
ROOT
ATOM      1  N2  UNL     1       1.335   0.643  -0.986  0.00  0.00    +0.000 N 
ATOM      2  C7  UNL     1       0.486  -0.492  -0.742  0.00  0.00    +0.000 C 
ATOM      3  O2  UNL     1       0.986  -1.650  -0.713  0.00  0.00    +0.000 OA
ATOM      4  H8  UNL     1       0.930   1.469  -1.479  0.00  0.00    +0.000 HD
ENDROOT
BRANCH   2   5
ATOM      5  C8  UNL     1      -0.978  -0.324  -0.573  0.00  0.00    +0.000 A 
ATOM      6  C9  UNL     1      -1.839  -1.425  -0.725  0.00  0.00    +0.000 A 
ATOM      7  C10 UNL     1      -3.219  -1.278  -0.562  0.00  0.00    +0.000 A 
ATOM      8  C11 UNL     1      -3.771  -0.027  -0.238  0.00  0.00    +0.000 A 
ATOM      9  C19 UNL     1      -2.910   1.072  -0.076  0.00  0.00    +0.000 A 
ATOM     10  C20 UNL     1      -1.530   0.925  -0.239  0.00  0.00    +0.000 A 
BRANCH   8  11
ATOM     11  C12 UNL     1      -5.236   0.118  -0.068  0.00  0.00    +0.000 A 
ATOM     12  N3  UNL     1      -6.106  -0.915  -0.210  0.00  0.00    +0.000 NA
ATOM     13  C13 UNL     1      -7.387  -0.517  -0.003  0.00  0.00    +0.000 A 
ATOM     14  C14 UNL     1      -8.497  -1.359  -0.081  0.00  0.00    +0.000 A 
ATOM     15  C15 UNL     1      -9.773  -0.819   0.157  0.00  0.00    +0.000 A 
ATOM     16  C16 UNL     1      -9.923   0.548   0.468  0.00  0.00    +0.000 A 
ATOM     17  C17 UNL     1      -8.799   1.385   0.544  0.00  0.00    +0.000 A 
ATOM     18  C18 UNL     1      -7.547   0.824   0.304  0.00  0.00    +0.000 A 
ATOM     19  S1  UNL     1      -6.043   1.563   0.322  0.00  0.00    +0.000 S 
ENDBRANCH   8  11
ENDBRANCH   2   5
BRANCH   1  21
ATOM     20  C6  UNL     1       3.320  -0.078   0.125  0.00  0.00    +0.000 C 
ATOM     21  N1  UNL     1       2.730   0.618  -0.800  0.00  0.00    +0.000 NA
BRANCH  20  25
ATOM     22  C2  UNL     1       7.669  -0.179   0.652  0.00  0.00    +0.000 C 
ATOM     23  C3  UNL     1       7.083   0.646  -0.481  0.00  0.00    +0.000 C 
ATOM     24  C4  UNL     1       5.577   0.618  -0.580  0.00  0.00    +0.000 C 
ATOM     25  C5  UNL     1       4.796  -0.080   0.263  0.00  0.00    +0.000 C 
ATOM     26  C21 UNL     1       5.428  -0.863   1.343  0.00  0.00    +0.000 C 
ATOM     27  O3  UNL     1       4.726  -1.530   2.150  0.00  0.00    +0.000 OA
ATOM     28  C22 UNL     1       6.887  -0.871   1.486  0.00  0.00    +0.000 C 
BRANCH  22  30
ATOM     29  C1  UNL     1      10.004   0.447   0.044  0.00  0.00    +0.000 C 
ATOM     30  O1  UNL     1       9.055  -0.238   0.854  0.00  0.00    +0.000 OA
ENDBRANCH  22  30
ENDBRANCH  20  25
ENDBRANCH   1  21
TORSDOF 5
