REMARK  Name = resultss/4CJN/ligands/lig_304_t0.pdb
REMARK  7 active torsions:
REMARK  status: ('A' for Active; 'I' for Inactive)
REMARK    1  A    between atoms: C1_1  and  O1_2
REMARK    2  A    between atoms: O1_2  and  C2_3
REMARK    3  A    between atoms: C4_5  and  O2_6
REMARK    4  A    between atoms: C8_11  and  O4_12
REMARK    5  A    between atoms: C9_13  and  O5_14
REMARK    6  A    between atoms: C14_20  and  O7_21
REMARK    7  A    between atoms: O7_21  and  C15_22
REMARK                            x       y       z     vdW  Elec       q    Type
REMARK                         _______ _______ _______ _____ _____    ______ ____
ROOT
ATOM      1  C2  UNL     1      -2.651  -0.242  -0.036  0.00  0.00    +0.000 A 
ATOM      2  C3  UNL     1      -2.295  -1.587  -0.228  0.00  0.00    +0.000 A 
ATOM      3  C4  UNL     1      -0.959  -1.994  -0.255  0.00  0.00    +0.000 A 
ATOM      4  C5  UNL     1       0.075  -1.023  -0.168  0.00  0.00    +0.000 A 
ATOM      5  C6  UNL     1       1.451  -1.316  -0.336  0.00  0.00    +0.000 A 
ATOM      6  O3  UNL     1       1.805  -2.440  -0.776  0.00  0.00    +0.000 OA
ATOM      7  C7  UNL     1       2.422  -0.311  -0.103  0.00  0.00    +0.000 A 
ATOM      8  C8  UNL     1       3.832  -0.537  -0.124  0.00  0.00    +0.000 A 
ATOM      9  C9  UNL     1       4.713   0.558  -0.032  0.00  0.00    +0.000 A 
ATOM     10  C10 UNL     1       4.216   1.849   0.151  0.00  0.00    +0.000 A 
ATOM     11  C11 UNL     1       2.846   2.067   0.248  0.00  0.00    +0.000 A 
ATOM     12  C12 UNL     1       1.950   1.005   0.117  0.00  0.00    +0.000 A 
ATOM     13  O6  UNL     1       0.652   1.259   0.181  0.00  0.00    +0.000 OA
ATOM     14  C13 UNL     1      -0.285   0.328   0.055  0.00  0.00    +0.000 A 
ATOM     15  C14 UNL     1      -1.630   0.723   0.127  0.00  0.00    +0.000 A 
ENDROOT
BRANCH   1  17
ATOM     16  C1  UNL     1      -5.110  -0.731  -0.151  0.00  0.00    +0.000 C 
ATOM     17  O1  UNL     1      -3.999   0.148   0.001  0.00  0.00    +0.000 OA
ENDBRANCH   1  17
BRANCH   3  18
ATOM     18  O2  UNL     1      -0.724  -3.370  -0.327  0.00  0.00    +0.000 OA
ATOM     19  H5  UNL     1       0.132  -3.816  -0.031  0.00  0.00    +0.000 HD
ENDBRANCH   3  18
BRANCH   8  20
ATOM     20  O4  UNL     1       4.398  -1.814  -0.188  0.00  0.00    +0.000 OA
ATOM     21  H6  UNL     1       3.918  -2.662   0.079  0.00  0.00    +0.000 HD
ENDBRANCH   8  20
BRANCH   9  22
ATOM     22  O5  UNL     1       6.095   0.380  -0.099  0.00  0.00    +0.000 OA
ATOM     23  H7  UNL     1       6.519  -0.530  -0.231  0.00  0.00    +0.000 HD
ENDBRANCH   9  22
BRANCH  15  24
ATOM     24  O7  UNL     1      -1.877   2.092   0.352  0.00  0.00    +0.000 OA
ATOM     25  C15 UNL     1      -3.149   2.717   0.478  0.00  0.00    +0.000 C 
ENDBRANCH  15  24
TORSDOF 5
