REMARK  Name = resultss/4CJN/ligands/lig_275_t0.pdb
REMARK  8 active torsions:
REMARK  status: ('A' for Active; 'I' for Inactive)
REMARK    1  A    between atoms: O1_1  and  C1_2
REMARK    2  A    between atoms: C1_2  and  C2_3
REMARK    3  A    between atoms: C2_3  and  N1_4
REMARK    4  A    between atoms: C4_6  and  O2_7
REMARK    5  A    between atoms: C5_8  and  O3_9
REMARK    6  A    between atoms: C6_10  and  O4_11
REMARK    7  A    between atoms: C7_12  and  C8_13
REMARK    8  A    between atoms: C8_13  and  O5_14
REMARK                            x       y       z     vdW  Elec       q    Type
REMARK                         _______ _______ _______ _____ _____    ______ ____
ROOT
ATOM      1  N1  UNL     1       0.672  -0.115  -0.146  0.00  0.00    +0.000 NA
ATOM      2  C3  UNL     1       0.098  -1.107  -1.086  0.00  0.00    +0.000 C 
ATOM      3  C4  UNL     1      -1.156  -1.758  -0.498  0.00  0.00    +0.000 C 
ATOM      4  C5  UNL     1      -2.214  -0.678  -0.232  0.00  0.00    +0.000 C 
ATOM      5  C6  UNL     1      -1.637   0.410   0.692  0.00  0.00    +0.000 C 
ATOM      6  C7  UNL     1      -0.299   0.984   0.143  0.00  0.00    +0.000 C 
ENDROOT
BRANCH   3   7
ATOM      7  O2  UNL     1      -1.655  -2.750  -1.362  0.00  0.00    +0.000 OA
ATOM      8  H9  UNL     1      -1.895  -2.312  -2.221  0.00  0.00    +0.000 HD
ENDBRANCH   3   7
BRANCH   4   9
ATOM      9  O3  UNL     1      -3.376  -1.246   0.323  0.00  0.00    +0.000 OA
ATOM     10  H11 UNL     1      -3.124  -1.669   1.186  0.00  0.00    +0.000 HD
ENDBRANCH   4   9
BRANCH   5  11
ATOM     11  O4  UNL     1      -2.575   1.450   0.815  0.00  0.00    +0.000 OA
ATOM     12  H13 UNL     1      -3.233   1.169   1.503  0.00  0.00    +0.000 HD
ENDBRANCH   5  11
BRANCH   1  13
ATOM     13  C2  UNL     1       1.961   0.378  -0.702  0.00  0.00    +0.000 C 
BRANCH  13  14
ATOM     14  C1  UNL     1       3.120  -0.494  -0.219  0.00  0.00    +0.000 C 
BRANCH  14  15
ATOM     15  O1  UNL     1       3.178  -0.475   1.181  0.00  0.00    +0.000 OA
ATOM     16  H1  UNL     1       3.946  -1.051   1.432  0.00  0.00    +0.000 HD
ENDBRANCH  14  15
ENDBRANCH  13  14
ENDBRANCH   1  13
BRANCH   6  17
ATOM     17  C8  UNL     1       0.270   1.983   1.197  0.00  0.00    +0.000 C 
BRANCH  17  18
ATOM     18  O5  UNL     1       0.780   3.133   0.577  0.00  0.00    +0.000 OA
ATOM     19  H17 UNL     1      -0.003   3.674   0.295  0.00  0.00    +0.000 HD
ENDBRANCH  17  18
ENDBRANCH   6  17
TORSDOF 8
