REMARK  Name = resultss/4CJN/ligands/lig_287_t1.pdb
REMARK  9 active torsions:
REMARK  status: ('A' for Active; 'I' for Inactive)
REMARK    1  A    between atoms: C1_1  and  O1_2
REMARK    2  A    between atoms: O1_2  and  C2_3
REMARK    3  A    between atoms: C6_8  and  O3_9
REMARK    4  A    between atoms: C8_11  and  O4_12
REMARK    5  A    between atoms: O4_12  and  C9_13
REMARK    6  A    between atoms: C10_14  and  O5_15
REMARK    7  A    between atoms: O5_15  and  C11_16
REMARK    8  A    between atoms: C16_22  and  O7_23
REMARK    9  A    between atoms: O7_23  and  C17_24
REMARK                            x       y       z     vdW  Elec       q    Type
REMARK                         _______ _______ _______ _____ _____    ______ ____
ROOT
ATOM      1  C2  UNL     1       3.949   0.357   0.022  0.00  0.00    +0.000 A 
ATOM      2  C3  UNL     1       3.568   1.699   0.198  0.00  0.00    +0.000 A 
ATOM      3  C4  UNL     1       2.226   2.081   0.251  0.00  0.00    +0.000 A 
ATOM      4  O2  UNL     1       1.963   3.310   0.332  0.00  0.00    +0.000 OA
ATOM      5  C5  UNL     1       1.206   1.108   0.172  0.00  0.00    +0.000 A 
ATOM      6  C6  UNL     1      -0.182   1.375   0.288  0.00  0.00    +0.000 A 
ATOM      7  C7  UNL     1      -1.116   0.348  -0.009  0.00  0.00    +0.000 A 
ATOM      8  C8  UNL     1      -2.525   0.567  -0.002  0.00  0.00    +0.000 A 
ATOM      9  C10 UNL     1      -3.404  -0.517  -0.278  0.00  0.00    +0.000 A 
ATOM     10  C12 UNL     1      -2.870  -1.786  -0.560  0.00  0.00    +0.000 A 
ATOM     11  C13 UNL     1      -1.498  -1.993  -0.573  0.00  0.00    +0.000 A 
ATOM     12  C14 UNL     1      -0.621  -0.947  -0.303  0.00  0.00    +0.000 A 
ATOM     13  O6  UNL     1       0.678  -1.206  -0.320  0.00  0.00    +0.000 OA
ATOM     14  C15 UNL     1       1.611  -0.296  -0.101  0.00  0.00    +0.000 A 
ATOM     15  C16 UNL     1       2.980  -0.642  -0.139  0.00  0.00    +0.000 A 
ENDROOT
BRANCH   1  17
ATOM     16  C1  UNL     1       6.402   0.863   0.134  0.00  0.00    +0.000 C 
ATOM     17  O1  UNL     1       5.300  -0.028  -0.013  0.00  0.00    +0.000 OA
ENDBRANCH   1  17
BRANCH   6  18
ATOM     18  O3  UNL     1      -0.653   2.617   0.727  0.00  0.00    +0.000 OA
ATOM     19  H5  UNL     1      -0.116   3.260   1.291  0.00  0.00    +0.000 HD
ENDBRANCH   6  18
BRANCH   8  20
ATOM     20  O4  UNL     1      -2.998   1.868   0.271  0.00  0.00    +0.000 OA
ATOM     21  C9  UNL     1      -4.352   2.304   0.321  0.00  0.00    +0.000 C 
ENDBRANCH   8  20
BRANCH   9  22
ATOM     22  O5  UNL     1      -4.794  -0.318  -0.268  0.00  0.00    +0.000 OA
ATOM     23  C11 UNL     1      -5.769  -1.323  -0.529  0.00  0.00    +0.000 C 
ENDBRANCH   9  22
BRANCH  15  24
ATOM     24  O7  UNL     1       3.445  -1.957  -0.339  0.00  0.00    +0.000 OA
ATOM     25  C17 UNL     1       2.644  -3.123  -0.492  0.00  0.00    +0.000 C 
ENDBRANCH  15  24
TORSDOF 5
