REMARK  Name = resultss/4CJN/ligands/lig_295_t2.pdb
REMARK  2 active torsions:
REMARK  status: ('A' for Active; 'I' for Inactive)
REMARK    1  A    between atoms: C3_4  and  O2_5
REMARK    2  A    between atoms: C5_7  and  O3_8
REMARK                            x       y       z     vdW  Elec       q    Type
REMARK                         _______ _______ _______ _____ _____    ______ ____
ROOT
ATOM      1  O1  UNL     1       0.024   2.697  -0.091  0.00  0.00    +0.000 OA
ATOM      2  C1  UNL     1      -0.011   1.436  -0.102  0.00  0.00    +0.000 A 
ATOM      3  C2  UNL     1       1.181   0.685  -0.013  0.00  0.00    +0.000 A 
ATOM      4  C3  UNL     1       2.464   1.278   0.083  0.00  0.00    +0.000 A 
ATOM      5  C4  UNL     1       3.603   0.465   0.171  0.00  0.00    +0.000 A 
ATOM      6  C5  UNL     1       3.487  -0.927   0.165  0.00  0.00    +0.000 A 
ATOM      7  C6  UNL     1       2.224  -1.520   0.070  0.00  0.00    +0.000 A 
ATOM      8  C7  UNL     1       1.076  -0.727  -0.018  0.00  0.00    +0.000 A 
ATOM      9  O4  UNL     1      -0.110  -1.317  -0.110  0.00  0.00    +0.000 OA
ATOM     10  C8  UNL     1      -1.250  -0.642  -0.192  0.00  0.00    +0.000 A 
ATOM     11  C9  UNL     1      -2.538  -1.413  -0.348  0.00  0.00    +0.000 C 
ATOM     12  C10 UNL     1      -3.716  -0.713   0.341  0.00  0.00    +0.000 C 
ATOM     13  C11 UNL     1      -3.791   0.730  -0.062  0.00  0.00    +0.000 C 
ATOM     14  O5  UNL     1      -4.910   1.301  -0.166  0.00  0.00    +0.000 OA
ATOM     15  C12 UNL     1      -2.546   1.487  -0.265  0.00  0.00    +0.000 C 
ATOM     16  O6  UNL     1      -2.597   2.724  -0.498  0.00  0.00    +0.000 OA
ATOM     17  C13 UNL     1      -1.248   0.767  -0.194  0.00  0.00    +0.000 A 
ENDROOT
BRANCH   4  18
ATOM     18  O2  UNL     1       2.615   2.666   0.091  0.00  0.00    +0.000 OA
ATOM     19  H1  UNL     1       3.527   3.102   0.160  0.00  0.00    +0.000 HD
ENDBRANCH   4  18
BRANCH   6  20
ATOM     20  O3  UNL     1       4.635  -1.712   0.253  0.00  0.00    +0.000 OA
ATOM     21  H3  UNL     1       4.585  -2.724   0.251  0.00  0.00    +0.000 HD
ENDBRANCH   6  20
TORSDOF 2
