REMARK  Name = resultss/4CJN/ligands/lig_296_t2.pdb
REMARK  12 active torsions:
REMARK  status: ('A' for Active; 'I' for Inactive)
REMARK    1  A    between atoms: C1_1  and  O1_2
REMARK    2  A    between atoms: O1_2  and  C2_3
REMARK    3  A    between atoms: C4_5  and  O2_6
REMARK    4  A    between atoms: O2_6  and  C5_7
REMARK    5  A    between atoms: C6_9  and  C7_10
REMARK    6  A    between atoms: C7_10  and  O4_11
REMARK    7  A    between atoms: C8_12  and  O5_13
REMARK    8  A    between atoms: C9_14  and  O6_15
REMARK    9  A    between atoms: C10_16  and  O7_17
REMARK   10  A    between atoms: C12_19  and  O8_20
REMARK   11  A    between atoms: C17_26  and  O10_27
REMARK   12  A    between atoms: O10_27  and  C18_28
REMARK                            x       y       z     vdW  Elec       q    Type
REMARK                         _______ _______ _______ _____ _____    ______ ____
ROOT
ATOM      1  C2  UNL     1      -0.511  -1.410   2.435  0.00  0.00    +0.000 A 
ATOM      2  C3  UNL     1      -1.081  -0.743   1.351  0.00  0.00    +0.000 A 
ATOM      3  C4  UNL     1      -0.333   0.159   0.568  0.00  0.00    +0.000 A 
ATOM      4  C11 UNL     1       1.004   0.465   0.946  0.00  0.00    +0.000 A 
ATOM      5  C12 UNL     1       1.802   1.439   0.286  0.00  0.00    +0.000 A 
ATOM      6  C13 UNL     1       3.164   1.534   0.604  0.00  0.00    +0.000 A 
ATOM      7  C14 UNL     1       4.026   2.431  -0.038  0.00  0.00    +0.000 A 
ATOM      8  C15 UNL     1       5.367   2.505   0.337  0.00  0.00    +0.000 A 
ATOM      9  C16 UNL     1       5.879   1.698   1.360  0.00  0.00    +0.000 A 
ATOM     10  O9  UNL     1       7.097   1.797   1.665  0.00  0.00    +0.000 OA
ATOM     11  C17 UNL     1       5.062   0.785   2.047  0.00  0.00    +0.000 A 
ATOM     12  C19 UNL     1       3.697   0.686   1.694  0.00  0.00    +0.000 A 
ATOM     13  O11 UNL     1       2.876  -0.136   2.325  0.00  0.00    +0.000 OA
ATOM     14  C20 UNL     1       1.594  -0.276   2.008  0.00  0.00    +0.000 A 
ATOM     15  C21 UNL     1       0.836  -1.187   2.745  0.00  0.00    +0.000 A 
ENDROOT
BRANCH   1  17
ATOM     16  C1  UNL     1      -0.869  -3.045   4.294  0.00  0.00    +0.000 C 
ATOM     17  O1  UNL     1      -1.316  -2.296   3.168  0.00  0.00    +0.000 OA
ENDBRANCH   1  17
BRANCH   5  18
ATOM     18  O8  UNL     1       1.282   2.348  -0.642  0.00  0.00    +0.000 OA
ATOM     19  H16 UNL     1       0.324   2.672  -0.632  0.00  0.00    +0.000 HD
ENDBRANCH   5  18
BRANCH  11  20
ATOM     20  O10 UNL     1       5.661   0.012   3.061  0.00  0.00    +0.000 OA
ATOM     21  C18 UNL     1       5.025  -1.000   3.834  0.00  0.00    +0.000 C 
ENDBRANCH  11  20
BRANCH   3  22
ATOM     22  O2  UNL     1      -0.880   0.731  -0.595  0.00  0.00    +0.000 OA
BRANCH  22  23
ATOM     23  C5  UNL     1      -2.056   0.307  -1.289  0.00  0.00    +0.000 C 
ATOM     24  O3  UNL     1      -2.377   1.304  -2.242  0.00  0.00    +0.000 OA
ATOM     25  C6  UNL     1      -3.676   1.089  -2.781  0.00  0.00    +0.000 C 
ATOM     26  C8  UNL     1      -3.862  -0.363  -3.330  0.00  0.00    +0.000 C 
ATOM     27  C9  UNL     1      -2.497  -1.081  -3.382  0.00  0.00    +0.000 C 
ATOM     28  C10 UNL     1      -1.791  -1.045  -2.004  0.00  0.00    +0.000 C 
BRANCH  26  29
ATOM     29  O5  UNL     1      -4.742  -1.076  -2.497  0.00  0.00    +0.000 OA
ATOM     30  H11 UNL     1      -5.656  -0.745  -2.699  0.00  0.00    +0.000 HD
ENDBRANCH  26  29
BRANCH  27  31
ATOM     31  O6  UNL     1      -2.604  -2.388  -3.892  0.00  0.00    +0.000 OA
ATOM     32  H13 UNL     1      -3.261  -2.886  -3.341  0.00  0.00    +0.000 HD
ENDBRANCH  27  31
BRANCH  28  33
ATOM     33  O7  UNL     1      -2.241  -2.097  -1.187  0.00  0.00    +0.000 OA
ATOM     34  H15 UNL     1      -1.671  -2.885  -1.385  0.00  0.00    +0.000 HD
ENDBRANCH  28  33
BRANCH  25  35
ATOM     35  C7  UNL     1      -3.913   2.121  -3.893  0.00  0.00    +0.000 C 
BRANCH  35  36
ATOM     36  O4  UNL     1      -3.743   3.424  -3.401  0.00  0.00    +0.000 OA
ATOM     37  H9  UNL     1      -4.551   3.633  -2.865  0.00  0.00    +0.000 HD
ENDBRANCH  35  36
ENDBRANCH  25  35
ENDBRANCH  22  23
ENDBRANCH   3  22
TORSDOF 10
