REMARK  Name = resultss/4CJN/ligands/lig_266_t1.pdb
REMARK  8 active torsions:
REMARK  status: ('A' for Active; 'I' for Inactive)
REMARK    1  A    between atoms: C1_1  and  O1_2
REMARK    2  A    between atoms: O1_2  and  C2_3
REMARK    3  A    between atoms: C5_6  and  C6_7
REMARK    4  A    between atoms: C6_7  and  N1_8
REMARK    5  A    between atoms: C7_9  and  O2_10
REMARK    6  A    between atoms: C7_9  and  C8_11
REMARK    7  A    between atoms: C9_12  and  N2_13
REMARK    8  A    between atoms: C10_14  and  C11_16
REMARK                            x       y       z     vdW  Elec       q    Type
REMARK                         _______ _______ _______ _____ _____    ______ ____
ROOT
ATOM      1  C8  UNL     1      -1.174  -0.906   0.139  0.00  0.00    +0.000 A 
ATOM      2  C9  UNL     1      -2.430  -0.308   0.311  0.00  0.00    +0.000 A 
ATOM      3  S1  UNL     1      -3.392  -1.298   1.282  0.00  0.00    +0.000 S 
ATOM      4  C16 UNL     1      -2.232  -2.486   1.510  0.00  0.00    +0.000 A 
ATOM      5  C17 UNL     1      -1.059  -2.125   0.852  0.00  0.00    +0.000 A 
ATOM      6  C18 UNL     1       0.161  -3.014   0.879  0.00  0.00    +0.000 C 
ATOM      7  C19 UNL     1       0.094  -4.058   2.008  0.00  0.00    +0.000 C 
ATOM      8  C20 UNL     1      -1.289  -4.726   2.073  0.00  0.00    +0.000 C 
ATOM      9  C21 UNL     1      -2.380  -3.693   2.386  0.00  0.00    +0.000 C 
ENDROOT
BRANCH   2  10
ATOM     10  N2  UNL     1      -2.893   0.864  -0.379  0.00  0.00    +0.000 N 
ATOM     11  C10 UNL     1      -3.941   1.718   0.116  0.00  0.00    +0.000 C 
ATOM     12  O3  UNL     1      -4.484   1.467   1.226  0.00  0.00    +0.000 OA
ATOM     13  H9  UNL     1      -2.474   1.064  -1.313  0.00  0.00    +0.000 HD
BRANCH  11  14
ATOM     14  C11 UNL     1      -4.403   2.898  -0.658  0.00  0.00    +0.000 A 
ATOM     15  C12 UNL     1      -3.568   3.551  -1.582  0.00  0.00    +0.000 A 
ATOM     16  C13 UNL     1      -4.036   4.663  -2.289  0.00  0.00    +0.000 A 
ATOM     17  C14 UNL     1      -5.331   5.125  -2.056  0.00  0.00    +0.000 A 
ATOM     18  N3  UNL     1      -6.125   4.499  -1.150  0.00  0.00    +0.000 NA
ATOM     19  C15 UNL     1      -5.696   3.413  -0.452  0.00  0.00    +0.000 A 
ENDBRANCH  11  14
ENDBRANCH   2  10
BRANCH   1  21
ATOM     20  N1  UNL     1       0.761  -1.080  -1.283  0.00  0.00    +0.000 NA
ATOM     21  C7  UNL     1      -0.092  -0.306  -0.675  0.00  0.00    +0.000 C 
BRANCH  21  22
ATOM     22  O2  UNL     1      -0.018   1.087  -0.775  0.00  0.00    +0.000 OA
ATOM     23  H8  UNL     1       0.663   1.569  -1.344  0.00  0.00    +0.000 HD
ENDBRANCH  21  22
BRANCH  20  24
ATOM     24  C6  UNL     1       1.891  -0.650  -2.105  0.00  0.00    +0.000 C 
BRANCH  24  28
ATOM     25  C2  UNL     1       5.045   1.001   0.352  0.00  0.00    +0.000 A 
ATOM     26  C3  UNL     1       4.488   1.756  -0.687  0.00  0.00    +0.000 A 
ATOM     27  C4  UNL     1       3.472   1.225  -1.485  0.00  0.00    +0.000 A 
ATOM     28  C5  UNL     1       2.989  -0.072  -1.250  0.00  0.00    +0.000 A 
ATOM     29  C22 UNL     1       3.560  -0.838  -0.224  0.00  0.00    +0.000 A 
ATOM     30  C23 UNL     1       4.577  -0.307   0.576  0.00  0.00    +0.000 A 
BRANCH  25  32
ATOM     31  C1  UNL     1       6.693   0.943   2.232  0.00  0.00    +0.000 C 
ATOM     32  O1  UNL     1       6.055   1.584   1.133  0.00  0.00    +0.000 OA
ENDBRANCH  25  32
ENDBRANCH  24  28
ENDBRANCH  20  24
ENDBRANCH   1  21
TORSDOF 7
