REMARK  Name = resultss/4CJN/ligands/lig_376_t1.pdb
REMARK  4 active torsions:
REMARK  status: ('A' for Active; 'I' for Inactive)
REMARK    1  A    between atoms: N1_1  and  S1_2
REMARK    2  A    between atoms: S1_2  and  C1_5
REMARK    3  A    between atoms: C4_8  and  N2_9
REMARK    4  A    between atoms: C8_15  and  C9_16
REMARK                            x       y       z     vdW  Elec       q    Type
REMARK                         _______ _______ _______ _____ _____    ______ ____
ROOT
ATOM      1  N2  UNL     1       1.306  -0.877  -2.120  0.00  0.00    +0.000 N 
ATOM      2  C5  UNL     1      -0.030  -0.693  -1.629  0.00  0.00    +0.000 C 
ATOM      3  N3  UNL     1      -0.270  -0.386  -0.394  0.00  0.00    +0.000 NA
ATOM      4  C6  UNL     1      -1.656  -0.304  -0.123  0.00  0.00    +0.000 C 
ATOM      5  O3  UNL     1      -2.093  -0.093   1.039  0.00  0.00    +0.000 OA
ATOM      6  C7  UNL     1      -2.488  -0.560  -1.294  0.00  0.00    +0.000 C 
ATOM      7  C8  UNL     1      -3.826  -0.530  -1.379  0.00  0.00    +0.000 C 
ATOM      8  S2  UNL     1      -1.459  -1.011  -2.685  0.00  0.00    +0.000 S 
ATOM      9  H5  UNL     1       1.419  -1.410  -3.011  0.00  0.00    +0.000 HD
ENDROOT
BRANCH   1  13
ATOM     10  C1  UNL     1       4.857   0.319  -0.109  0.00  0.00    +0.000 A 
ATOM     11  C2  UNL     1       4.837  -0.841  -0.894  0.00  0.00    +0.000 A 
ATOM     12  C3  UNL     1       3.665  -1.227  -1.551  0.00  0.00    +0.000 A 
ATOM     13  C4  UNL     1       2.492  -0.470  -1.416  0.00  0.00    +0.000 A 
ATOM     14  C15 UNL     1       2.520   0.703  -0.639  0.00  0.00    +0.000 A 
ATOM     15  C16 UNL     1       3.693   1.088   0.016  0.00  0.00    +0.000 A 
BRANCH  10  16
ATOM     16  S1  UNL     1       6.330   0.794   0.728  0.00  0.00    +0.000 S 
ATOM     17  O1  UNL     1       7.529   0.389  -0.084  0.00  0.00    +0.000 OA
ATOM     18  O2  UNL     1       6.354   2.286   0.911  0.00  0.00    +0.000 OA
BRANCH  16  19
ATOM     19  N1  UNL     1       6.387   0.024   2.274  0.00  0.00    +0.000 NA
ATOM     20  H1  UNL     1       7.301   0.279   2.710  0.00  0.00    +0.000 HD
ATOM     21  H2  UNL     1       6.412  -1.006   2.101  0.00  0.00    +0.000 HD
ENDBRANCH  16  19
ENDBRANCH  10  16
ENDBRANCH   1  13
BRANCH   7  22
ATOM     22  C9  UNL     1      -4.729  -0.087  -0.299  0.00  0.00    +0.000 A 
ATOM     23  C10 UNL     1      -5.819  -0.894   0.061  0.00  0.00    +0.000 A 
ATOM     24  C11 UNL     1      -6.714  -0.468   1.048  0.00  0.00    +0.000 A 
ATOM     25  C12 UNL     1      -6.540   0.774   1.663  0.00  0.00    +0.000 A 
ATOM     26  C13 UNL     1      -5.475   1.597   1.287  0.00  0.00    +0.000 A 
ATOM     27  C14 UNL     1      -4.577   1.175   0.302  0.00  0.00    +0.000 A 
ENDBRANCH   7  22
TORSDOF 4
