REMARK  Name = resultss/4CJN/ligands/lig_155_t0.pdb
REMARK  14 active torsions:
REMARK  status: ('A' for Active; 'I' for Inactive)
REMARK    1  A    between atoms: O1_1  and  C1_2
REMARK    2  A    between atoms: C1_2  and  C2_3
REMARK    3  A    between atoms: C3_4  and  O2_5
REMARK    4  A    between atoms: C4_6  and  O3_7
REMARK    5  A    between atoms: C5_8  and  O4_9
REMARK    6  A    between atoms: N1_11  and  C7_12
REMARK    7  A    between atoms: C7_12  and  C8_13
REMARK    8  A    between atoms: C8_13  and  C9_16
REMARK    9  A    between atoms: C9_16  and  C10_17
REMARK   10  A    between atoms: C10_17  and  C11_18
REMARK   11  A    between atoms: C11_18  and  O5_19
REMARK   12  A    between atoms: O5_19  and  C12_20
REMARK   13  A    between atoms: C12_20  and  C13_21
REMARK   14  A    between atoms: C16_24  and  C17_25
REMARK                            x       y       z     vdW  Elec       q    Type
REMARK                         _______ _______ _______ _____ _____    ______ ____
ROOT
ATOM      1  C8  UNL     1      -2.013  -0.102   0.322  0.00  0.00    +0.000 C 
ATOM      2  F1  UNL     1      -2.023  -0.949  -0.771  0.00  0.00    +0.000 F 
ATOM      3  F2  UNL     1      -1.839  -0.869   1.463  0.00  0.00    +0.000 F 
ENDROOT
BRANCH   1   4
ATOM      4  C7  UNL     1      -3.356   0.648   0.411  0.00  0.00    +0.000 C 
BRANCH   4  10
ATOM      5  C2  UNL     1      -4.964  -0.782  -0.834  0.00  0.00    +0.000 C 
ATOM      6  C3  UNL     1      -6.402  -0.305  -1.180  0.00  0.00    +0.000 C 
ATOM      7  C4  UNL     1      -7.427  -0.696  -0.089  0.00  0.00    +0.000 C 
ATOM      8  C5  UNL     1      -6.837  -0.590   1.344  0.00  0.00    +0.000 C 
ATOM      9  C6  UNL     1      -5.566   0.272   1.362  0.00  0.00    +0.000 C 
ATOM     10  N1  UNL     1      -4.498  -0.299   0.505  0.00  0.00    +0.000 NA
BRANCH   6  11
ATOM     11  O2  UNL     1      -6.798  -0.817  -2.428  0.00  0.00    +0.000 OA
ATOM     12  H6  UNL     1      -7.548  -0.250  -2.747  0.00  0.00    +0.000 HD
ENDBRANCH   6  11
BRANCH   7  13
ATOM     13  O3  UNL     1      -8.549   0.142  -0.210  0.00  0.00    +0.000 OA
ATOM     14  H8  UNL     1      -9.301  -0.315   0.253  0.00  0.00    +0.000 HD
ENDBRANCH   7  13
BRANCH   8  15
ATOM     15  O4  UNL     1      -6.549  -1.873   1.836  0.00  0.00    +0.000 OA
ATOM     16  H10 UNL     1      -6.431  -1.794   2.817  0.00  0.00    +0.000 HD
ENDBRANCH   8  15
BRANCH   5  17
ATOM     17  C1  UNL     1      -4.817  -2.318  -0.898  0.00  0.00    +0.000 C 
BRANCH  17  18
ATOM     18  O1  UNL     1      -4.869  -2.757  -2.228  0.00  0.00    +0.000 OA
ATOM     19  H1  UNL     1      -4.809  -3.748  -2.200  0.00  0.00    +0.000 HD
ENDBRANCH  17  18
ENDBRANCH   5  17
ENDBRANCH   4  10
ENDBRANCH   1   4
BRANCH   1  20
ATOM     20  C9  UNL     1      -0.818   0.857   0.145  0.00  0.00    +0.000 C 
BRANCH  20  21
ATOM     21  C10 UNL     1      -0.501   1.709   1.387  0.00  0.00    +0.000 C 
BRANCH  21  22
ATOM     22  C11 UNL     1       0.697   2.625   1.135  0.00  0.00    +0.000 C 
BRANCH  22  23
ATOM     23  O5  UNL     1       1.856   1.844   0.917  0.00  0.00    +0.000 OA
BRANCH  23  24
ATOM     24  C12 UNL     1       2.830   2.608   0.238  0.00  0.00    +0.000 C 
BRANCH  24  25
ATOM     25  C13 UNL     1       4.055   1.766   0.025  0.00  0.00    +0.000 A 
ATOM     26  C14 UNL     1       5.295   2.146   0.560  0.00  0.00    +0.000 A 
ATOM     27  C15 UNL     1       6.428   1.355   0.347  0.00  0.00    +0.000 A 
ATOM     28  C16 UNL     1       6.340   0.167  -0.400  0.00  0.00    +0.000 A 
ATOM     29  C23 UNL     1       5.095  -0.213  -0.930  0.00  0.00    +0.000 A 
ATOM     30  C24 UNL     1       3.965   0.581  -0.721  0.00  0.00    +0.000 A 
BRANCH  28  31
ATOM     31  C17 UNL     1       7.545  -0.666  -0.636  0.00  0.00    +0.000 A 
ATOM     32  C18 UNL     1       7.471  -2.070  -0.552  0.00  0.00    +0.000 A 
ATOM     33  C19 UNL     1       8.601  -2.853  -0.798  0.00  0.00    +0.000 A 
ATOM     34  C20 UNL     1       9.818  -2.248  -1.124  0.00  0.00    +0.000 A 
ATOM     35  C21 UNL     1       9.907  -0.855  -1.197  0.00  0.00    +0.000 A 
ATOM     36  C22 UNL     1       8.778  -0.067  -0.956  0.00  0.00    +0.000 A 
ENDBRANCH  28  31
ENDBRANCH  24  25
ENDBRANCH  23  24
ENDBRANCH  22  23
ENDBRANCH  21  22
ENDBRANCH  20  21
ENDBRANCH   1  20
TORSDOF 14
