REMARK  Name = resultss/4CJN/ligands/lig_322_t0.pdb
REMARK  12 active torsions:
REMARK  status: ('A' for Active; 'I' for Inactive)
REMARK    1  A    between atoms: C1_1  and  O1_2
REMARK    2  A    between atoms: O1_2  and  C2_3
REMARK    3  A    between atoms: C4_5  and  O2_6
REMARK    4  A    between atoms: C9_12  and  O4_13
REMARK    5  A    between atoms: O4_13  and  C10_14
REMARK    6  A    between atoms: C11_16  and  C12_17
REMARK    7  A    between atoms: C12_17  and  O6_18
REMARK    8  A    between atoms: C13_19  and  O7_20
REMARK    9  A    between atoms: C14_21  and  O8_22
REMARK   10  A    between atoms: C15_23  and  O9_24
REMARK   11  A    between atoms: C20_30  and  O11_31
REMARK   12  A    between atoms: O11_31  and  C21_32
REMARK                            x       y       z     vdW  Elec       q    Type
REMARK                         _______ _______ _______ _____ _____    ______ ____
ROOT
ATOM      1  C2  UNL     1      -5.963   1.059   0.745  0.00  0.00    +0.000 A 
ATOM      2  C3  UNL     1      -5.278   1.273   1.950  0.00  0.00    +0.000 A 
ATOM      3  C4  UNL     1      -3.898   1.091   2.042  0.00  0.00    +0.000 A 
ATOM      4  C5  UNL     1      -3.174   0.606   0.918  0.00  0.00    +0.000 A 
ATOM      5  C6  UNL     1      -1.797   0.265   0.955  0.00  0.00    +0.000 A 
ATOM      6  O3  UNL     1      -1.154   0.266   2.038  0.00  0.00    +0.000 OA
ATOM      7  C7  UNL     1      -1.144  -0.123  -0.229  0.00  0.00    +0.000 A 
ATOM      8  C8  UNL     1       0.231  -0.428  -0.261  0.00  0.00    +0.000 A 
ATOM      9  C9  UNL     1       0.851  -0.807  -1.469  0.00  0.00    +0.000 A 
ATOM     10  C16 UNL     1       0.081  -0.885  -2.635  0.00  0.00    +0.000 A 
ATOM     11  C17 UNL     1      -1.283  -0.593  -2.608  0.00  0.00    +0.000 A 
ATOM     12  C18 UNL     1      -1.898  -0.214  -1.412  0.00  0.00    +0.000 A 
ATOM     13  O10 UNL     1      -3.197   0.045  -1.400  0.00  0.00    +0.000 OA
ATOM     14  C19 UNL     1      -3.864   0.425  -0.315  0.00  0.00    +0.000 A 
ATOM     15  C20 UNL     1      -5.262   0.646  -0.393  0.00  0.00    +0.000 A 
ENDROOT
BRANCH   1  17
ATOM     16  C1  UNL     1      -8.192   1.695   1.695  0.00  0.00    +0.000 C 
ATOM     17  O1  UNL     1      -7.349   1.257   0.635  0.00  0.00    +0.000 OA
ENDBRANCH   1  17
BRANCH   3  18
ATOM     18  O2  UNL     1      -3.304   1.444   3.257  0.00  0.00    +0.000 OA
ATOM     19  H5  UNL     1      -2.333   1.696   3.363  0.00  0.00    +0.000 HD
ENDBRANCH   3  18
BRANCH  15  20
ATOM     20  O11 UNL     1      -6.015   0.469  -1.571  0.00  0.00    +0.000 OA
ATOM     21  C21 UNL     1      -5.551  -0.090  -2.796  0.00  0.00    +0.000 C 
ENDBRANCH  15  20
BRANCH   9  22
ATOM     22  O4  UNL     1       2.219  -1.116  -1.558  0.00  0.00    +0.000 OA
BRANCH  22  23
ATOM     23  C10 UNL     1       3.161  -1.055  -0.484  0.00  0.00    +0.000 C 
ATOM     24  O5  UNL     1       4.320  -1.774  -0.884  0.00  0.00    +0.000 OA
ATOM     25  C11 UNL     1       5.355  -1.620   0.072  0.00  0.00    +0.000 C 
ATOM     26  C13 UNL     1       5.940  -0.184   0.002  0.00  0.00    +0.000 C 
ATOM     27  C14 UNL     1       4.901   0.801  -0.587  0.00  0.00    +0.000 C 
ATOM     28  C15 UNL     1       3.476   0.434  -0.138  0.00  0.00    +0.000 C 
BRANCH  26  29
ATOM     29  O7  UNL     1       6.316   0.218   1.296  0.00  0.00    +0.000 OA
ATOM     30  H13 UNL     1       7.079   0.844   1.202  0.00  0.00    +0.000 HD
ENDBRANCH  26  29
BRANCH  27  31
ATOM     31  O8  UNL     1       5.195   2.125  -0.223  0.00  0.00    +0.000 OA
ATOM     32  H15 UNL     1       5.960   2.412  -0.787  0.00  0.00    +0.000 HD
ENDBRANCH  27  31
BRANCH  28  33
ATOM     33  O9  UNL     1       3.343   0.626   1.248  0.00  0.00    +0.000 OA
ATOM     34  H17 UNL     1       3.149   1.588   1.392  0.00  0.00    +0.000 HD
ENDBRANCH  28  33
BRANCH  25  35
ATOM     35  C12 UNL     1       6.430  -2.681  -0.191  0.00  0.00    +0.000 C 
BRANCH  35  36
ATOM     36  O6  UNL     1       7.450  -2.582   0.765  0.00  0.00    +0.000 OA
ATOM     37  H11 UNL     1       8.116  -3.278   0.531  0.00  0.00    +0.000 HD
ENDBRANCH  35  36
ENDBRANCH  25  35
ENDBRANCH  22  23
ENDBRANCH   9  22
TORSDOF 10
