REMARK  Name = resultss/4CJN/ligands/lig_396_t0.pdb
REMARK  1 active torsions:
REMARK  status: ('A' for Active; 'I' for Inactive)
REMARK    1  A    between atoms: C7_13  and  C8_14
REMARK                            x       y       z     vdW  Elec       q    Type
REMARK                         _______ _______ _______ _____ _____    ______ ____
ROOT
ATOM      1  O1  UNL     1       0.641  -2.865   1.222  0.00  0.00    +0.000 OA
ATOM      2  C1  UNL     1       0.678  -1.720   0.697  0.00  0.00    +0.000 C 
ATOM      3  N1  UNL     1       1.896  -1.052   0.431  0.00  0.00    +0.000 NA
ATOM      4  C2  UNL     1       1.710   0.115  -0.100  0.00  0.00    +0.000 C 
ATOM      5  N2  UNL     1       2.798   0.977  -0.463  0.00  0.00    +0.000 N 
ATOM      6  C3  UNL     1       4.193   0.699  -0.260  0.00  0.00    +0.000 A 
ATOM      7  N3  UNL     1       5.162   1.553  -0.654  0.00  0.00    +0.000 NA
ATOM      8  C4  UNL     1       6.404   1.087  -0.353  0.00  0.00    +0.000 A 
ATOM      9  C5  UNL     1       6.434  -0.146   0.288  0.00  0.00    +0.000 A 
ATOM     10  S1  UNL     1       4.847  -0.666   0.482  0.00  0.00    +0.000 S 
ATOM     11  S2  UNL     1      -0.002   0.615  -0.389  0.00  0.00    +0.000 S 
ATOM     12  C6  UNL     1      -0.499  -0.959   0.314  0.00  0.00    +0.000 C 
ATOM     13  C7  UNL     1      -1.758  -1.337   0.581  0.00  0.00    +0.000 C 
ATOM     14  H1  UNL     1       2.554   1.887  -0.915  0.00  0.00    +0.000 HD
ENDROOT
BRANCH  13  15
ATOM     15  C8  UNL     1      -2.954  -0.546   0.225  0.00  0.00    +0.000 A 
ATOM     16  C9  UNL     1      -3.990  -0.417   1.163  0.00  0.00    +0.000 A 
ATOM     17  C10 UNL     1      -5.148   0.299   0.842  0.00  0.00    +0.000 A 
ATOM     18  C11 UNL     1      -5.288   0.875  -0.424  0.00  0.00    +0.000 A 
ATOM     19  F1  UNL     1      -6.412   1.566  -0.734  0.00  0.00    +0.000 F 
ATOM     20  C12 UNL     1      -4.274   0.727  -1.374  0.00  0.00    +0.000 A 
ATOM     21  C13 UNL     1      -3.115   0.012  -1.056  0.00  0.00    +0.000 A 
ENDBRANCH  13  15
TORSDOF 1
