REMARK  Name = resultss/4CJN/ligands/lig_243_t2.pdb
REMARK  3 active torsions:
REMARK  status: ('A' for Active; 'I' for Inactive)
REMARK    1  A    between atoms: O1_1  and  C1_2
REMARK    2  A    between atoms: N3_12  and  N4_13
REMARK    3  A    between atoms: C9_14  and  C10_15
REMARK                            x       y       z     vdW  Elec       q    Type
REMARK                         _______ _______ _______ _____ _____    ______ ____
ROOT
ATOM      1  C1  UNL     1      -1.705   1.324   1.914  0.00  0.00    +0.000 A 
ATOM      2  N1  UNL     1      -3.025   1.161   1.627  0.00  0.00    +0.000 NA
ATOM      3  C2  UNL     1      -3.441   0.474   0.533  0.00  0.00    +0.000 A 
ATOM      4  C3  UNL     1      -4.805   0.320   0.261  0.00  0.00    +0.000 A 
ATOM      5  C4  UNL     1      -5.212  -0.395  -0.872  0.00  0.00    +0.000 A 
ATOM      6  C5  UNL     1      -4.258  -0.954  -1.731  0.00  0.00    +0.000 A 
ATOM      7  C6  UNL     1      -2.893  -0.801  -1.463  0.00  0.00    +0.000 A 
ATOM      8  C7  UNL     1      -2.483  -0.087  -0.331  0.00  0.00    +0.000 A 
ATOM      9  N2  UNL     1      -1.165   0.076  -0.054  0.00  0.00    +0.000 NA
ATOM     10  C8  UNL     1      -0.738   0.767   1.039  0.00  0.00    +0.000 A 
ATOM     11  N3  UNL     1       0.673   0.912   1.258  0.00  0.00    +0.000 N 
ATOM     12  H6  UNL     1       1.045   1.510   2.027  0.00  0.00    +0.000 HD
ENDROOT
BRANCH   1  13
ATOM     13  O1  UNL     1      -1.368   2.031   3.069  0.00  0.00    +0.000 OA
ATOM     14  H1  UNL     1      -0.424   2.168   3.397  0.00  0.00    +0.000 HD
ENDBRANCH   1  13
BRANCH  11  15
ATOM     15  N4  UNL     1       1.578   0.267   0.399  0.00  0.00    +0.000 NA
ATOM     16  C9  UNL     1       2.861   0.378   0.547  0.00  0.00    +0.000 C 
BRANCH  16  17
ATOM     17  C10 UNL     1       3.774  -0.311  -0.370  0.00  0.00    +0.000 A 
ATOM     18  C11 UNL     1       5.160  -0.265  -0.310  0.00  0.00    +0.000 A 
ATOM     19  C12 UNL     1       5.780  -1.019  -1.314  0.00  0.00    +0.000 A 
ATOM     20  C13 UNL     1       4.886  -1.658  -2.165  0.00  0.00    +0.000 A 
ATOM     21  S1  UNL     1       3.323  -1.284  -1.667  0.00  0.00    +0.000 S 
ENDBRANCH  16  17
ENDBRANCH  11  15
TORSDOF 3
