REMARK  Name = resultss/4CJN/ligands/lig_309_t0.pdb
REMARK  8 active torsions:
REMARK  status: ('A' for Active; 'I' for Inactive)
REMARK    1  A    between atoms: C1_1  and  O1_2
REMARK    2  A    between atoms: O1_2  and  C2_3
REMARK    3  A    between atoms: C4_5  and  O2_6
REMARK    4  A    between atoms: C8_11  and  O4_12
REMARK    5  A    between atoms: O4_12  and  C9_13
REMARK    6  A    between atoms: C10_14  and  O5_15
REMARK    7  A    between atoms: C15_21  and  O7_22
REMARK    8  A    between atoms: O7_22  and  C16_23
REMARK                            x       y       z     vdW  Elec       q    Type
REMARK                         _______ _______ _______ _____ _____    ______ ____
ROOT
ATOM      1  C2  UNL     1      -3.168  -0.905   0.296  0.00  0.00    +0.000 A 
ATOM      2  C3  UNL     1      -2.509  -2.127   0.107  0.00  0.00    +0.000 A 
ATOM      3  C4  UNL     1      -1.124  -2.186  -0.056  0.00  0.00    +0.000 A 
ATOM      4  C5  UNL     1      -0.349  -0.998   0.056  0.00  0.00    +0.000 A 
ATOM      5  C6  UNL     1       1.070  -0.981   0.055  0.00  0.00    +0.000 A 
ATOM      6  O3  UNL     1       1.723  -2.058   0.074  0.00  0.00    +0.000 OA
ATOM      7  C7  UNL     1       1.759   0.250   0.089  0.00  0.00    +0.000 A 
ATOM      8  C8  UNL     1       3.174   0.352   0.024  0.00  0.00    +0.000 A 
ATOM      9  C10 UNL     1       3.790   1.617   0.106  0.00  0.00    +0.000 A 
ATOM     10  C11 UNL     1       3.009   2.769   0.209  0.00  0.00    +0.000 A 
ATOM     11  C12 UNL     1       1.619   2.677   0.252  0.00  0.00    +0.000 A 
ATOM     12  C13 UNL     1       0.994   1.430   0.199  0.00  0.00    +0.000 A 
ATOM     13  O6  UNL     1      -0.327   1.372   0.267  0.00  0.00    +0.000 OA
ATOM     14  C14 UNL     1      -1.023   0.244   0.215  0.00  0.00    +0.000 A 
ATOM     15  C15 UNL     1      -2.435   0.286   0.331  0.00  0.00    +0.000 A 
ENDROOT
BRANCH   1  17
ATOM     16  C1  UNL     1      -5.441  -1.952   0.427  0.00  0.00    +0.000 C 
ATOM     17  O1  UNL     1      -4.563  -0.830   0.442  0.00  0.00    +0.000 OA
ENDBRANCH   1  17
BRANCH   3  18
ATOM     18  O2  UNL     1      -0.586  -3.440  -0.362  0.00  0.00    +0.000 OA
ATOM     19  H5  UNL     1       0.293  -3.581  -0.837  0.00  0.00    +0.000 HD
ENDBRANCH   3  18
BRANCH   8  20
ATOM     20  O4  UNL     1       3.968  -0.788  -0.122  0.00  0.00    +0.000 OA
ATOM     21  C9  UNL     1       4.441  -1.199  -1.399  0.00  0.00    +0.000 C 
ENDBRANCH   8  20
BRANCH   9  22
ATOM     22  O5  UNL     1       5.179   1.749   0.094  0.00  0.00    +0.000 OA
ATOM     23  H9  UNL     1       5.800   0.950   0.069  0.00  0.00    +0.000 HD
ENDBRANCH   9  22
BRANCH  15  24
ATOM     24  O7  UNL     1      -3.171   1.477   0.494  0.00  0.00    +0.000 OA
ATOM     25  C16 UNL     1      -2.646   2.799   0.551  0.00  0.00    +0.000 C 
ENDBRANCH  15  24
TORSDOF 5
