REMARK  Name = resultss/4CJN/ligands/lig_414_t2.pdb
REMARK  5 active torsions:
REMARK  status: ('A' for Active; 'I' for Inactive)
REMARK    1  A    between atoms: C1_2  and  C9_15
REMARK    2  A    between atoms: N1_3  and  N2_4
REMARK    3  A    between atoms: C2_5  and  S1_6
REMARK    4  A    between atoms: N3_7  and  C3_8
REMARK    5  A    between atoms: C19_26  and  C20_27
REMARK                            x       y       z     vdW  Elec       q    Type
REMARK                         _______ _______ _______ _____ _____    ______ ____
ROOT
ATOM      1  C9  UNL     1      -0.226   0.333  -1.096  0.00  0.00    +0.000 A 
ATOM      2  C10 UNL     1      -0.613   1.580  -0.560  0.00  0.00    +0.000 A 
ATOM      3  C11 UNL     1      -1.842   1.641   0.086  0.00  0.00    +0.000 A 
ATOM      4  C12 UNL     1      -2.658   0.537   0.214  0.00  0.00    +0.000 A 
ATOM      5  N4  UNL     1      -3.826   0.857   0.822  0.00  0.00    +0.000 N 
ATOM      6  C13 UNL     1      -3.725   2.176   1.092  0.00  0.00    +0.000 A 
ATOM      7  C14 UNL     1      -4.680   2.985   1.707  0.00  0.00    +0.000 A 
ATOM      8  C15 UNL     1      -4.378   4.349   1.877  0.00  0.00    +0.000 A 
ATOM      9  C16 UNL     1      -3.144   4.873   1.428  0.00  0.00    +0.000 A 
ATOM     10  C17 UNL     1      -2.198   4.039   0.805  0.00  0.00    +0.000 A 
ATOM     11  C18 UNL     1      -2.522   2.692   0.657  0.00  0.00    +0.000 A 
ATOM     12  C19 UNL     1      -2.255  -0.700  -0.306  0.00  0.00    +0.000 A 
ATOM     13  N5  UNL     1      -1.051  -0.754  -0.953  0.00  0.00    +0.000 NA
ATOM     14  H9  UNL     1      -4.646   0.241   1.012  0.00  0.00    +0.000 HD
ENDROOT
BRANCH  12  15
ATOM     15  C20 UNL     1      -3.069  -1.927  -0.186  0.00  0.00    +0.000 A 
ATOM     16  C21 UNL     1      -3.645  -2.297   1.043  0.00  0.00    +0.000 A 
ATOM     17  C22 UNL     1      -4.391  -3.476   1.146  0.00  0.00    +0.000 A 
ATOM     18  C23 UNL     1      -4.556  -4.300   0.029  0.00  0.00    +0.000 A 
ATOM     19  C24 UNL     1      -3.970  -3.951  -1.190  0.00  0.00    +0.000 A 
ATOM     20  C25 UNL     1      -3.223  -2.773  -1.297  0.00  0.00    +0.000 A 
ENDBRANCH  12  15
BRANCH   1  22
ATOM     21  O1  UNL     1       1.842   1.165  -1.908  0.00  0.00    +0.000 OA
ATOM     22  C1  UNL     1       1.062   0.179  -1.803  0.00  0.00    +0.000 C 
ATOM     23  N1  UNL     1       1.420  -1.080  -2.394  0.00  0.00    +0.000 N 
ATOM     24  H1  UNL     1       0.664  -1.764  -2.618  0.00  0.00    +0.000 HD
BRANCH  23  25
ATOM     25  N2  UNL     1       2.713  -1.339  -2.886  0.00  0.00    +0.000 N 
ATOM     26  C2  UNL     1       3.901  -1.021  -2.149  0.00  0.00    +0.000 C 
ATOM     27  N3  UNL     1       3.810  -0.682  -0.894  0.00  0.00    +0.000 NA
ATOM     28  H2  UNL     1       2.809  -1.919  -3.749  0.00  0.00    +0.000 HD
BRANCH  27  29
ATOM     29  C3  UNL     1       4.889  -0.306  -0.026  0.00  0.00    +0.000 A 
ATOM     30  C4  UNL     1       5.844   0.650  -0.414  0.00  0.00    +0.000 A 
ATOM     31  C5  UNL     1       6.854   1.035   0.473  0.00  0.00    +0.000 A 
ATOM     32  C6  UNL     1       6.904   0.488   1.759  0.00  0.00    +0.000 A 
ATOM     33  C7  UNL     1       5.935  -0.436   2.163  0.00  0.00    +0.000 A 
ATOM     34 BR1  UNL     1       5.988  -1.165   3.927  0.00  0.00    +0.000 Br
ATOM     35  C8  UNL     1       4.924  -0.822   1.276  0.00  0.00    +0.000 A 
ENDBRANCH  27  29
BRANCH  26  36
ATOM     36  S1  UNL     1       5.491  -1.270  -2.953  0.00  0.00    +0.000 S 
ATOM     37  H3  UNL     1       5.551  -2.612  -2.536  0.00  0.00    +0.000 HD
ENDBRANCH  26  36
ENDBRANCH  23  25
ENDBRANCH   1  22
TORSDOF 5
