REMARK  Name = resultss/4CJN/ligands/lig_244_t1.pdb
REMARK  4 active torsions:
REMARK  status: ('A' for Active; 'I' for Inactive)
REMARK    1  A    between atoms: C1_1  and  O1_2
REMARK    2  A    between atoms: O1_2  and  C2_3
REMARK    3  A    between atoms: C6_7  and  C7_8
REMARK    4  A    between atoms: N1_9  and  N2_10
REMARK                            x       y       z     vdW  Elec       q    Type
REMARK                         _______ _______ _______ _____ _____    ______ ____
ROOT
ATOM      1  N2  UNL     1       0.960  -0.956   0.107  0.00  0.00    +0.000 NA
ATOM      2  C8  UNL     1       2.089  -0.306   0.027  0.00  0.00    +0.000 A 
ATOM      3  N3  UNL     1       3.251  -1.018   0.085  0.00  0.00    +0.000 N 
ATOM      4  C9  UNL     1       4.467  -0.409   0.009  0.00  0.00    +0.000 A 
ATOM      5  C10 UNL     1       5.652  -1.159   0.070  0.00  0.00    +0.000 A 
ATOM      6  C11 UNL     1       6.892  -0.517  -0.009  0.00  0.00    +0.000 A 
ATOM      7  C12 UNL     1       6.956   0.872  -0.150  0.00  0.00    +0.000 A 
ATOM      8  C13 UNL     1       5.781   1.627  -0.212  0.00  0.00    +0.000 A 
ATOM      9  C14 UNL     1       4.532   0.992  -0.133  0.00  0.00    +0.000 A 
ATOM     10  N4  UNL     1       3.377   1.710  -0.191  0.00  0.00    +0.000 N 
ATOM     11  C15 UNL     1       2.161   1.104  -0.115  0.00  0.00    +0.000 A 
ATOM     12  O2  UNL     1       1.120   1.813  -0.174  0.00  0.00    +0.000 OA
ATOM     13  H8  UNL     1       3.203  -2.058   0.190  0.00  0.00    +0.000 HD
ATOM     14  H13 UNL     1       3.418   2.750  -0.297  0.00  0.00    +0.000 HD
ENDROOT
BRANCH   1  16
ATOM     15  C7  UNL     1      -1.383  -1.062   0.146  0.00  0.00    +0.000 C 
ATOM     16  N1  UNL     1      -0.305  -0.351   0.061  0.00  0.00    +0.000 NA
BRANCH  15  21
ATOM     17  C2  UNL     1      -5.145  -0.673   0.152  0.00  0.00    +0.000 A 
ATOM     18  C3  UNL     1      -5.277   0.722   0.013  0.00  0.00    +0.000 A 
ATOM     19  C4  UNL     1      -4.141   1.529  -0.082  0.00  0.00    +0.000 A 
ATOM     20  C5  UNL     1      -2.867   0.959  -0.040  0.00  0.00    +0.000 A 
ATOM     21  C6  UNL     1      -2.718  -0.432   0.098  0.00  0.00    +0.000 A 
ATOM     22  C16 UNL     1      -3.864  -1.238   0.193  0.00  0.00    +0.000 A 
BRANCH  17  24
ATOM     23  C1  UNL     1      -7.609  -1.092   0.224  0.00  0.00    +0.000 C 
ATOM     24  O1  UNL     1      -6.253  -1.527   0.251  0.00  0.00    +0.000 OA
ENDBRANCH  17  24
ENDBRANCH  15  21
ENDBRANCH   1  16
TORSDOF 3
