REMARK  Name = resultss/4CJN/ligands/lig_52_t0.pdb
REMARK  12 active torsions:
REMARK  status: ('A' for Active; 'I' for Inactive)
REMARK    1  A    between atoms: C1_1  and  C2_2
REMARK    2  A    between atoms: C4_4  and  O1_5
REMARK    3  A    between atoms: C5_6  and  O2_7
REMARK    4  A    between atoms: C6_8  and  O3_9
REMARK    5  A    between atoms: C7_10  and  N1_11
REMARK    6  A    between atoms: N1_11  and  C8_12
REMARK    7  A    between atoms: C10_14  and  O4_15
REMARK    8  A    between atoms: C10_14  and  C11_16
REMARK    9  A    between atoms: C11_16  and  O5_17
REMARK   10  A    between atoms: C12_18  and  O6_19
REMARK   11  A    between atoms: C13_20  and  O7_21
REMARK   12  A    between atoms: C14_22  and  O8_23
REMARK                            x       y       z     vdW  Elec       q    Type
REMARK                         _______ _______ _______ _____ _____    ______ ____
ROOT
ATOM      1  C8  UNL     1       0.990  -0.387  -0.736  0.00  0.00    +0.000 C 
ATOM      2  C9  UNL     1       1.333   0.689   0.332  0.00  0.00    +0.000 C 
ATOM      3  C10 UNL     1       2.823   1.135   0.338  0.00  0.00    +0.000 C 
ATOM      4  C12 UNL     1       3.789  -0.096   0.526  0.00  0.00    +0.000 C 
ATOM      5  C13 UNL     1       3.088  -1.463   0.322  0.00  0.00    +0.000 C 
ATOM      6  C14 UNL     1       2.159  -1.423  -0.906  0.00  0.00    +0.000 C 
ENDROOT
BRANCH   1   7
ATOM      7  N1  UNL     1      -0.295  -1.062  -0.418  0.00  0.00    +0.000 NA
ATOM      8  H14 UNL     1      -0.453  -1.755  -1.184  0.00  0.00    +0.000 HD
BRANCH   7  15
ATOM      9  C1  UNL     1      -3.167  -2.100  -0.633  0.00  0.00    +0.000 C 
ATOM     10  C2  UNL     1      -2.693  -0.732  -1.170  0.00  0.00    +0.000 C 
ATOM     11  C3  UNL     1      -3.869   0.284  -1.221  0.00  0.00    +0.000 C 
ATOM     12  C4  UNL     1      -3.828   1.354  -0.104  0.00  0.00    +0.000 C 
ATOM     13  C5  UNL     1      -3.312   0.760   1.216  0.00  0.00    +0.000 C 
ATOM     14  C6  UNL     1      -1.862   0.209   1.075  0.00  0.00    +0.000 C 
ATOM     15  C7  UNL     1      -1.472  -0.151  -0.390  0.00  0.00    +0.000 C 
BRANCH  12  16
ATOM     16  O1  UNL     1      -5.114   1.883   0.093  0.00  0.00    +0.000 OA
ATOM     17  H8  UNL     1      -5.307   2.463  -0.689  0.00  0.00    +0.000 HD
ENDBRANCH  12  16
BRANCH  13  18
ATOM     18  O2  UNL     1      -3.351   1.753   2.210  0.00  0.00    +0.000 OA
ATOM     19  H10 UNL     1      -3.297   1.286   3.085  0.00  0.00    +0.000 HD
ENDBRANCH  13  18
BRANCH  14  20
ATOM     20  O3  UNL     1      -1.700  -0.916   1.902  0.00  0.00    +0.000 OA
ATOM     21  H12 UNL     1      -1.627  -0.583   2.835  0.00  0.00    +0.000 HD
ENDBRANCH  14  20
ENDBRANCH   7  15
ENDBRANCH   1   7
BRANCH   3  22
ATOM     22  O4  UNL     1       3.010   2.070   1.379  0.00  0.00    +0.000 OA
ATOM     23  H18 UNL     1       2.675   1.674   2.226  0.00  0.00    +0.000 HD
ENDBRANCH   3  22
BRANCH   4  24
ATOM     24  O6  UNL     1       4.370  -0.072   1.808  0.00  0.00    +0.000 OA
ATOM     25  H23 UNL     1       5.239  -0.549   1.750  0.00  0.00    +0.000 HD
ENDBRANCH   4  24
BRANCH   5  26
ATOM     26  O7  UNL     1       4.058  -2.464   0.139  0.00  0.00    +0.000 OA
ATOM     27  H25 UNL     1       4.356  -2.749   1.042  0.00  0.00    +0.000 HD
ENDBRANCH   5  26
BRANCH   6  28
ATOM     28  O8  UNL     1       1.665  -2.717  -1.158  0.00  0.00    +0.000 OA
ATOM     29  H27 UNL     1       2.347  -3.197  -1.697  0.00  0.00    +0.000 HD
ENDBRANCH   6  28
BRANCH   3  30
ATOM     30  C11 UNL     1       3.138   1.881  -0.986  0.00  0.00    +0.000 C 
BRANCH  30  31
ATOM     31  O5  UNL     1       4.435   2.419  -0.965  0.00  0.00    +0.000 OA
ATOM     32  H21 UNL     1       4.381   3.285  -0.483  0.00  0.00    +0.000 HD
ENDBRANCH  30  31
ENDBRANCH   3  30
TORSDOF 11
