REMARK  Name = resultss/4CJN/ligands/lig_342_t1.pdb
REMARK  11 active torsions:
REMARK  status: ('A' for Active; 'I' for Inactive)
REMARK    1  A    between atoms: C2_1  and  O1_28
REMARK    2  A    between atoms: C4_3  and  C5_7
REMARK    3  A    between atoms: C21_6  and  O3_29
REMARK    4  A    between atoms: N2_17  and  N3_19
REMARK    5  A    between atoms: N3_19  and  C13_21
REMARK    6  A    between atoms: O3_29  and  C22_30
REMARK    7  A    between atoms: C22_30  and  C23_31
REMARK    8  A    between atoms: N4_33  and  C25_36
REMARK    9  A    between atoms: C25_36  and  C26_37
REMARK   10  A    between atoms: C26_37  and  O4_47
REMARK   11  A    between atoms: N5_38  and  C27_39
REMARK                            x       y       z     vdW  Elec       q    Type
REMARK                         _______ _______ _______ _____ _____    ______ ____
ROOT
ATOM      1  C2  UNL     1      28.731  -8.637 -43.056  0.00  0.00    +0.000 C 
ATOM      2  C3  UNL     1      29.887  -9.384 -42.756  0.00  0.00    +0.000 C 
ATOM      3  C4  UNL     1      29.845 -10.421 -41.807  0.00  0.00    +0.000 C 
ATOM      4  C19 UNL     1      28.617 -10.741 -41.205  0.00  0.00    +0.000 C 
ATOM      5  C20 UNL     1      27.464 -10.013 -41.508  0.00  0.00    +0.000 C 
ATOM      6  C21 UNL     1      27.518  -8.949 -42.427  0.00  0.00    +0.000 C 
ENDROOT
BRANCH   3   7
ATOM      7  C5  UNL     1      31.068 -11.254 -41.483  0.00  0.00    +0.000 C 
ATOM      8  N1  UNL     1      31.274 -12.251 -42.538  0.00  0.00    +0.000 N 
ATOM      9  C6  UNL     1      32.161 -12.034 -43.643  0.00  0.00    +0.000 C 
ATOM     10  C7  UNL     1      32.089 -12.858 -44.777  0.00  0.00    +0.000 C 
ATOM     11  C8  UNL     1      32.963 -12.653 -45.851  0.00  0.00    +0.000 C 
ATOM     12  C9  UNL     1      33.908 -11.625 -45.797  0.00  0.00    +0.000 C 
ATOM     13  C10 UNL     1      33.988 -10.805 -44.667  0.00  0.00    +0.000 C 
ATOM     14  C11 UNL     1      33.118 -11.011 -43.581  0.00  0.00    +0.000 C 
ATOM     15  C12 UNL     1      33.199 -10.193 -42.360  0.00  0.00    +0.000 C 
ATOM     16  O2  UNL     1      34.096  -9.313 -42.244  0.00  0.00    +0.000 OA
ATOM     17  N2  UNL     1      32.264 -10.411 -41.288  0.00  0.00    +0.000 N 
ATOM     18  H6  UNL     1      30.623 -13.069 -42.565  0.00  0.00    +0.000 HD
BRANCH  17  19
ATOM     19  N3  UNL     1      32.350  -9.599 -40.140  0.00  0.00    +0.000 N 
ATOM     20  H11 UNL     1      33.292  -9.281 -39.820  0.00  0.00    +0.000 HD
BRANCH  19  21
ATOM     21  C13 UNL     1      31.202  -9.271 -39.339  0.00  0.00    +0.000 C 
ATOM     22  C14 UNL     1      30.509  -8.071 -39.579  0.00  0.00    +0.000 C 
ATOM     23  C15 UNL     1      29.407  -7.720 -38.792  0.00  0.00    +0.000 C 
ATOM     24  C16 UNL     1      28.993  -8.560 -37.756  0.00  0.00    +0.000 C 
ATOM     25  C17 UNL     1      29.683  -9.751 -37.502  0.00  0.00    +0.000 C 
ATOM     26  C18 UNL     1      30.789 -10.103 -38.282  0.00  0.00    +0.000 C 
ENDBRANCH  19  21
ENDBRANCH  17  19
ENDBRANCH   3   7
BRANCH   1  28
ATOM     27  C1  UNL     1      28.331  -7.678 -45.335  0.00  0.00    +0.000 C 
ATOM     28  O1  UNL     1      28.751  -7.577 -43.978  0.00  0.00    +0.000 OA
ENDBRANCH   1  28
BRANCH   6  29
ATOM     29  O3  UNL     1      26.391  -8.174 -42.740  0.00  0.00    +0.000 OA
BRANCH  29  30
ATOM     30  C22 UNL     1      25.986  -7.004 -42.035  0.00  0.00    +0.000 C 
BRANCH  30  31
ATOM     31  C23 UNL     1      25.619  -7.379 -40.637  0.00  0.00    +0.000 C 
ATOM     32  C24 UNL     1      26.043  -6.768 -39.479  0.00  0.00    +0.000 C 
ATOM     33  N4  UNL     1      25.423  -7.405 -38.475  0.00  0.00    +0.000 N 
ATOM     34  N6  UNL     1      24.668  -8.364 -38.987  0.00  0.00    +0.000 NA
ATOM     35  N7  UNL     1      24.768  -8.372 -40.309  0.00  0.00    +0.000 NA
BRANCH  33  36
ATOM     36  C25 UNL     1      25.535  -7.108 -37.049  0.00  0.00    +0.000 C 
BRANCH  36  37
ATOM     37  C26 UNL     1      24.468  -7.830 -36.270  0.00  0.00    +0.000 C 
ATOM     38  N5  UNL     1      24.718  -8.504 -35.182  0.00  0.00    +0.000 NA
BRANCH  38  39
ATOM     39  C27 UNL     1      26.012  -8.713 -34.599  0.00  0.00    +0.000 C 
ATOM     40  C28 UNL     1      26.785  -9.825 -34.969  0.00  0.00    +0.000 C 
ATOM     41  C29 UNL     1      28.042 -10.034 -34.401  0.00  0.00    +0.000 C 
ATOM     42  C30 UNL     1      28.546  -9.139 -33.448  0.00  0.00    +0.000 C 
ATOM     43  C31 UNL     1      29.891  -9.382 -32.828  0.00  0.00    +0.000 C 
ATOM     44  C32 UNL     1      27.755  -8.055 -33.035  0.00  0.00    +0.000 C 
ATOM     45  C33 UNL     1      26.487  -7.836 -33.603  0.00  0.00    +0.000 C 
ATOM     46  C34 UNL     1      25.658  -6.661 -33.170  0.00  0.00    +0.000 C 
ENDBRANCH  38  39
BRANCH  37  47
ATOM     47  O4  UNL     1      23.152  -7.731 -36.716  0.00  0.00    +0.000 OA
ATOM     48  H24 UNL     1      22.544  -6.991 -36.386  0.00  0.00    +0.000 HD
ENDBRANCH  37  47
ENDBRANCH  36  37
ENDBRANCH  33  36
ENDBRANCH  30  31
ENDBRANCH  29  30
ENDBRANCH   6  29
TORSDOF 11
