REMARK  Name = resultss/4CJN/ligands/lig_438_t0.pdb
REMARK  8 active torsions:
REMARK  status: ('A' for Active; 'I' for Inactive)
REMARK    1  A    between atoms: N3_1  and  N2_25
REMARK    2  A    between atoms: C9_2  and  C10_5
REMARK    3  A    between atoms: C20_16  and  C21_19
REMARK    4  A    between atoms: N2_25  and  C8_27
REMARK    5  A    between atoms: C8_27  and  N1_29
REMARK    6  A    between atoms: N1_29  and  C7_35
REMARK    7  A    between atoms: C2_31  and  O1_38
REMARK    8  A    between atoms: C5_34  and  O2_39
REMARK                            x       y       z     vdW  Elec       q    Type
REMARK                         _______ _______ _______ _____ _____    ______ ____
ROOT
ATOM      1  N3  UNL     1      25.132  -9.489 -42.735  0.00  0.00    +0.000 N 
ATOM      2  C9  UNL     1      25.352  -9.487 -41.315  0.00  0.00    +0.000 C 
ATOM      3  O3  UNL     1      24.377  -9.326 -40.530  0.00  0.00    +0.000 OA
ATOM      4  H11 UNL     1      25.829  -9.958 -43.354  0.00  0.00    +0.000 HD
ENDROOT
BRANCH   2   5
ATOM      5  C10 UNL     1      26.708  -9.691 -40.769  0.00  0.00    +0.000 C 
ATOM      6  C11 UNL     1      26.987  -9.427 -39.410  0.00  0.00    +0.000 C 
ATOM      7  C12 UNL     1      28.287  -9.649 -38.973  0.00  0.00    +0.000 A 
ATOM      8  C13 UNL     1      29.278 -10.098 -39.819  0.00  0.00    +0.000 A 
ATOM      9  N4  UNL     1      30.441 -10.298 -39.152  0.00  0.00    +0.000 N 
ATOM     10  C14 UNL     1      30.171  -9.949 -37.875  0.00  0.00    +0.000 A 
ATOM     11  C15 UNL     1      31.045  -9.986 -36.790  0.00  0.00    +0.000 C 
ATOM     12  C16 UNL     1      30.552  -9.592 -35.533  0.00  0.00    +0.000 C 
ATOM     13  C17 UNL     1      29.208  -9.180 -35.385  0.00  0.00    +0.000 C 
ATOM     14  C18 UNL     1      28.343  -9.154 -36.493  0.00  0.00    +0.000 C 
ATOM     15  C19 UNL     1      28.861  -9.543 -37.727  0.00  0.00    +0.000 A 
ATOM     16  C20 UNL     1      28.995 -10.336 -41.170  0.00  0.00    +0.000 C 
ATOM     17  N5  UNL     1      27.710 -10.131 -41.595  0.00  0.00    +0.000 NA
ATOM     18  H13 UNL     1      31.343 -10.673 -39.519  0.00  0.00    +0.000 HD
BRANCH  16  19
ATOM     19  C21 UNL     1      30.013 -10.795 -42.139  0.00  0.00    +0.000 C 
ATOM     20  C22 UNL     1      30.595  -9.900 -43.056  0.00  0.00    +0.000 C 
ATOM     21  C23 UNL     1      31.539 -10.355 -43.983  0.00  0.00    +0.000 C 
ATOM     22  C24 UNL     1      31.897 -11.705 -44.013  0.00  0.00    +0.000 C 
ATOM     23  C25 UNL     1      31.306 -12.605 -43.122  0.00  0.00    +0.000 C 
ATOM     24  C26 UNL     1      30.363 -12.154 -42.193  0.00  0.00    +0.000 C 
ENDBRANCH  16  19
ENDBRANCH   2   5
BRANCH   1  25
ATOM     25  N2  UNL     1      23.918  -9.066 -43.307  0.00  0.00    +0.000 N 
ATOM     26  H10 UNL     1      23.262  -9.792 -43.674  0.00  0.00    +0.000 HD
BRANCH  25  27
ATOM     27  C8  UNL     1      23.611  -7.681 -43.523  0.00  0.00    +0.000 C 
ATOM     28  S1  UNL     1      22.076  -7.262 -43.922  0.00  0.00    +0.000 S 
BRANCH  27  29
ATOM     29  N1  UNL     1      24.676  -6.724 -43.643  0.00  0.00    +0.000 N 
ATOM     30  H9  UNL     1      24.633  -5.873 -43.038  0.00  0.00    +0.000 HD
BRANCH  29  35
ATOM     31  C2  UNL     1      26.659  -6.907 -46.827  0.00  0.00    +0.000 C 
ATOM     32  C3  UNL     1      27.961  -7.040 -46.314  0.00  0.00    +0.000 C 
ATOM     33  C4  UNL     1      28.175  -7.070 -44.935  0.00  0.00    +0.000 C 
ATOM     34  C5  UNL     1      27.092  -6.976 -44.041  0.00  0.00    +0.000 C 
ATOM     35  C7  UNL     1      25.785  -6.861 -44.550  0.00  0.00    +0.000 C 
ATOM     36  C27 UNL     1      25.582  -6.818 -45.940  0.00  0.00    +0.000 C 
BRANCH  31  38
ATOM     37  C1  UNL     1      25.241  -6.250 -48.778  0.00  0.00    +0.000 C 
ATOM     38  O1  UNL     1      26.394  -6.855 -48.204  0.00  0.00    +0.000 OA
ENDBRANCH  31  38
BRANCH  34  39
ATOM     39  O2  UNL     1      27.275  -7.002 -42.649  0.00  0.00    +0.000 OA
ATOM     40  C6  UNL     1      28.498  -6.689 -41.988  0.00  0.00    +0.000 C 
ENDBRANCH  34  39
ENDBRANCH  29  35
ENDBRANCH  27  29
ENDBRANCH  25  27
ENDBRANCH   1  25
TORSDOF 8
