REMARK  Name = resultss/4CJN/ligands/lig_364_t0.pdb
REMARK  6 active torsions:
REMARK  status: ('A' for Active; 'I' for Inactive)
REMARK    1  A    between atoms: C10_1  and  C9_13
REMARK    2  A    between atoms: C10_1  and  C17_16
REMARK    3  A    between atoms: C10_1  and  C11_30
REMARK    4  A    between atoms: C1_2  and  O1_14
REMARK    5  A    between atoms: C25_27  and  O8_28
REMARK    6  A    between atoms: C15_34  and  N1_36
REMARK                            x       y       z     vdW  Elec       q    Type
REMARK                         _______ _______ _______ _____ _____    ______ ____
ROOT
ATOM      1  C10 UNL     1      27.451  -9.744 -38.757  0.00  0.00    +0.000 C 
ENDROOT
BRANCH   1  13
ATOM      2  C1  UNL     1      29.765  -8.756 -39.427  0.00  0.00    +0.000 A 
ATOM      3  O2  UNL     1      30.868  -8.807 -40.167  0.00  0.00    +0.000 OA
ATOM      4  C2  UNL     1      31.089  -9.745 -41.078  0.00  0.00    +0.000 A 
ATOM      5  C3  UNL     1      32.281  -9.728 -41.813  0.00  0.00    +0.000 C 
ATOM      6  C4  UNL     1      32.523 -10.706 -42.781  0.00  0.00    +0.000 C 
ATOM      7  C5  UNL     1      31.575 -11.706 -43.021  0.00  0.00    +0.000 C 
ATOM      8 CL1  UNL     1      31.884 -12.931 -44.239  0.00  0.00    +0.000 Cl
ATOM      9  C6  UNL     1      30.382 -11.732 -42.291  0.00  0.00    +0.000 C 
ATOM     10  C7  UNL     1      30.131 -10.751 -41.311  0.00  0.00    +0.000 A 
ATOM     11  C8  UNL     1      28.950 -10.737 -40.553  0.00  0.00    +0.000 A 
ATOM     12  O3  UNL     1      28.065 -11.616 -40.747  0.00  0.00    +0.000 OA
ATOM     13  C9  UNL     1      28.752  -9.738 -39.573  0.00  0.00    +0.000 A 
BRANCH   2  14
ATOM     14  O1  UNL     1      29.628  -7.704 -38.527  0.00  0.00    +0.000 OA
ATOM     15  H1  UNL     1      30.219  -6.885 -38.591  0.00  0.00    +0.000 HD
ENDBRANCH   2  14
ENDBRANCH   1  13
BRANCH   1  16
ATOM     16  C17 UNL     1      26.429  -8.717 -39.260  0.00  0.00    +0.000 A 
ATOM     17  C18 UNL     1      25.481  -9.085 -40.241  0.00  0.00    +0.000 A 
ATOM     18  O6  UNL     1      25.471 -10.257 -40.710  0.00  0.00    +0.000 OA
ATOM     19  C19 UNL     1      24.542  -8.143 -40.694  0.00  0.00    +0.000 A 
ATOM     20  C20 UNL     1      23.589  -8.449 -41.683  0.00  0.00    +0.000 C 
ATOM     21  C21 UNL     1      22.675  -7.475 -42.105  0.00  0.00    +0.000 C 
ATOM     22 CL2  UNL     1      21.490  -7.861 -43.339  0.00  0.00    +0.000 Cl
ATOM     23  C22 UNL     1      22.707  -6.196 -41.543  0.00  0.00    +0.000 C 
ATOM     24  C23 UNL     1      23.647  -5.884 -40.558  0.00  0.00    +0.000 C 
ATOM     25  C24 UNL     1      24.564  -6.850 -40.131  0.00  0.00    +0.000 A 
ATOM     26  O7  UNL     1      25.446  -6.545 -39.188  0.00  0.00    +0.000 OA
ATOM     27  C25 UNL     1      26.350  -7.406 -38.733  0.00  0.00    +0.000 A 
BRANCH  27  28
ATOM     28  O8  UNL     1      27.203  -6.994 -37.715  0.00  0.00    +0.000 OA
ATOM     29  H13 UNL     1      27.170  -6.045 -37.363  0.00  0.00    +0.000 HD
ENDBRANCH  27  28
ENDBRANCH   1  16
BRANCH   1  30
ATOM     30  C11 UNL     1      27.643  -9.725 -37.244  0.00  0.00    +0.000 C 
ATOM     31  C12 UNL     1      26.506  -9.644 -36.421  0.00  0.00    +0.000 C 
ATOM     32  C13 UNL     1      26.633  -9.647 -35.031  0.00  0.00    +0.000 C 
ATOM     33  C14 UNL     1      27.893  -9.736 -34.440  0.00  0.00    +0.000 C 
ATOM     34  C15 UNL     1      29.047  -9.828 -35.236  0.00  0.00    +0.000 C 
ATOM     35  C16 UNL     1      28.913  -9.824 -36.637  0.00  0.00    +0.000 C 
BRANCH  34  36
ATOM     36  N1  UNL     1      30.345  -9.928 -34.622  0.00  0.00    +0.000 N 
ATOM     37  O4  UNL     1      31.383  -9.740 -35.290  0.00  0.00    +0.000 OA
ATOM     38  O5  UNL     1      30.465 -10.233 -33.285  0.00  0.00    +0.000 OA
ENDBRANCH  34  36
ENDBRANCH   1  30
TORSDOF 6
