REMARK  Name = resultss/4CJN/ligands/lig_181_t0.pdb
REMARK  5 active torsions:
REMARK  status: ('A' for Active; 'I' for Inactive)
REMARK    1  A    between atoms: C9_1  and  C8_17
REMARK    2  A    between atoms: C12_4  and  C13_7
REMARK    3  A    between atoms: N2_16  and  N1_21
REMARK    4  A    between atoms: C7_20  and  C6_26
REMARK    5  A    between atoms: C2_22  and  O1_29
REMARK                            x       y       z     vdW  Elec       q    Type
REMARK                         _______ _______ _______ _____ _____    ______ ____
ROOT
ATOM      1  C9  UNL     1      25.493  -8.619 -42.223  0.00  0.00    +0.000 C 
ATOM      2  C10 UNL     1      25.992  -9.422 -41.182  0.00  0.00    +0.000 C 
ATOM      3  C11 UNL     1      27.304  -9.901 -41.219  0.00  0.00    +0.000 C 
ATOM      4  C12 UNL     1      28.147  -9.594 -42.300  0.00  0.00    +0.000 C 
ATOM      5  C20 UNL     1      27.647  -8.799 -43.346  0.00  0.00    +0.000 C 
ATOM      6  C21 UNL     1      26.333  -8.320 -43.308  0.00  0.00    +0.000 C 
ENDROOT
BRANCH   4   7
ATOM      7  C13 UNL     1      29.538 -10.106 -42.329  0.00  0.00    +0.000 A 
ATOM      8  N3  UNL     1      29.903 -11.221 -43.015  0.00  0.00    +0.000 NA
ATOM      9  C14 UNL     1      31.230 -11.473 -42.879  0.00  0.00    +0.000 A 
ATOM     10  C15 UNL     1      31.891 -12.552 -43.469  0.00  0.00    +0.000 C 
ATOM     11  C16 UNL     1      33.272 -12.700 -43.248  0.00  0.00    +0.000 C 
ATOM     12  C17 UNL     1      33.970 -11.775 -42.445  0.00  0.00    +0.000 C 
ATOM     13  C18 UNL     1      33.293 -10.695 -41.856  0.00  0.00    +0.000 C 
ATOM     14  C19 UNL     1      31.926 -10.572 -42.091  0.00  0.00    +0.000 A 
ATOM     15  S1  UNL     1      30.863  -9.403 -41.531  0.00  0.00    +0.000 S 
ENDBRANCH   4   7
BRANCH   1  17
ATOM     16  N2  UNL     1      23.333  -7.955 -43.385  0.00  0.00    +0.000 N 
ATOM     17  C8  UNL     1      24.097  -8.121 -42.177  0.00  0.00    +0.000 C 
ATOM     18  O2  UNL     1      23.588  -7.798 -41.069  0.00  0.00    +0.000 OA
ATOM     19  H8  UNL     1      23.844  -7.744 -44.271  0.00  0.00    +0.000 HD
BRANCH  16  21
ATOM     20  C7  UNL     1      21.303  -6.708 -43.512  0.00  0.00    +0.000 C 
ATOM     21  N1  UNL     1      21.930  -7.840 -43.403  0.00  0.00    +0.000 NA
BRANCH  20  26
ATOM     22  C2  UNL     1      17.747  -7.049 -44.753  0.00  0.00    +0.000 C 
ATOM     23  C3  UNL     1      17.022  -6.579 -43.643  0.00  0.00    +0.000 C 
ATOM     24  C4  UNL     1      17.692  -6.153 -42.494  0.00  0.00    +0.000 C 
ATOM     25  C5  UNL     1      19.088  -6.190 -42.440  0.00  0.00    +0.000 C 
ATOM     26  C6  UNL     1      19.828  -6.656 -43.542  0.00  0.00    +0.000 C 
ATOM     27  C22 UNL     1      19.146  -7.083 -44.692  0.00  0.00    +0.000 C 
BRANCH  22  29
ATOM     28  C1  UNL     1      17.758  -7.565 -47.200  0.00  0.00    +0.000 C 
ATOM     29  O1  UNL     1      17.120  -7.487 -45.929  0.00  0.00    +0.000 OA
ENDBRANCH  22  29
ENDBRANCH  20  26
ENDBRANCH  16  21
ENDBRANCH   1  17
TORSDOF 5
