REMARK  Name = resultss/4CJN/ligands/lig_337_t2.pdb
REMARK  12 active torsions:
REMARK  status: ('A' for Active; 'I' for Inactive)
REMARK    1  A    between atoms: C2_1  and  O1_28
REMARK    2  A    between atoms: C4_3  and  C5_7
REMARK    3  A    between atoms: C21_6  and  O3_29
REMARK    4  A    between atoms: C12_15  and  O2_17
REMARK    5  A    between atoms: N2_16  and  N3_19
REMARK    6  A    between atoms: N3_19  and  C13_21
REMARK    7  A    between atoms: O3_29  and  C22_30
REMARK    8  A    between atoms: C22_30  and  C23_31
REMARK    9  A    between atoms: N4_33  and  C25_36
REMARK   10  A    between atoms: C25_36  and  C26_37
REMARK   11  A    between atoms: N5_39  and  C27_41
REMARK   12  A    between atoms: C30_44  and  N6_47
REMARK                            x       y       z     vdW  Elec       q    Type
REMARK                         _______ _______ _______ _____ _____    ______ ____
ROOT
ATOM      1  C2  UNL     1      26.605  -8.809 -36.845  0.00  0.00    +0.000 C 
ATOM      2  C3  UNL     1      27.339  -8.054 -35.908  0.00  0.00    +0.000 C 
ATOM      3  C4  UNL     1      27.047  -6.694 -35.703  0.00  0.00    +0.000 C 
ATOM      4  C19 UNL     1      25.987  -6.100 -36.412  0.00  0.00    +0.000 C 
ATOM      5  C20 UNL     1      25.249  -6.848 -37.333  0.00  0.00    +0.000 C 
ATOM      6  C21 UNL     1      25.561  -8.197 -37.559  0.00  0.00    +0.000 C 
ENDROOT
BRANCH   3   7
ATOM      7  C5  UNL     1      27.855  -5.883 -34.717  0.00  0.00    +0.000 C 
ATOM      8  N1  UNL     1      29.278  -6.124 -34.939  0.00  0.00    +0.000 NA
ATOM      9  C6  UNL     1      30.098  -6.656 -34.078  0.00  0.00    +0.000 C 
ATOM     10  C7  UNL     1      31.438  -6.819 -34.455  0.00  0.00    +0.000 C 
ATOM     11  C8  UNL     1      32.362  -7.376 -33.570  0.00  0.00    +0.000 C 
ATOM     12  C9  UNL     1      31.953  -7.785 -32.301  0.00  0.00    +0.000 C 
ATOM     13  C10 UNL     1      30.617  -7.633 -31.907  0.00  0.00    +0.000 C 
ATOM     14  C11 UNL     1      29.663  -7.058 -32.786  0.00  0.00    +0.000 C 
ATOM     15  C12 UNL     1      28.368  -6.867 -32.430  0.00  0.00    +0.000 C 
ATOM     16  N2  UNL     1      27.463  -6.222 -33.344  0.00  0.00    +0.000 N 
BRANCH  15  17
ATOM     17  O2  UNL     1      27.861  -7.240 -31.177  0.00  0.00    +0.000 OA
ATOM     18  H10 UNL     1      28.056  -6.792 -30.295  0.00  0.00    +0.000 HD
ENDBRANCH  15  17
BRANCH  16  19
ATOM     19  N3  UNL     1      26.126  -6.021 -32.951  0.00  0.00    +0.000 N 
ATOM     20  H11 UNL     1      25.862  -5.089 -32.541  0.00  0.00    +0.000 HD
BRANCH  19  21
ATOM     21  C13 UNL     1      25.104  -6.997 -33.203  0.00  0.00    +0.000 C 
ATOM     22  C14 UNL     1      23.810  -6.575 -33.538  0.00  0.00    +0.000 C 
ATOM     23  C15 UNL     1      22.814  -7.514 -33.833  0.00  0.00    +0.000 C 
ATOM     24  C16 UNL     1      23.109  -8.878 -33.805  0.00  0.00    +0.000 C 
ATOM     25  C17 UNL     1      24.401  -9.308 -33.485  0.00  0.00    +0.000 C 
ATOM     26  C18 UNL     1      25.397  -8.372 -33.187  0.00  0.00    +0.000 C 
ENDBRANCH  19  21
ENDBRANCH  16  19
ENDBRANCH   3   7
BRANCH   1  28
ATOM     27  C1  UNL     1      28.157 -10.705 -37.369  0.00  0.00    +0.000 C 
ATOM     28  O1  UNL     1      26.869 -10.167 -37.081  0.00  0.00    +0.000 OA
ENDBRANCH   1  28
BRANCH   6  29
ATOM     29  O3  UNL     1      24.839  -8.934 -38.503  0.00  0.00    +0.000 OA
BRANCH  29  30
ATOM     30  C22 UNL     1      25.020  -8.752 -39.909  0.00  0.00    +0.000 C 
BRANCH  30  31
ATOM     31  C23 UNL     1      26.371  -9.248 -40.314  0.00  0.00    +0.000 C 
ATOM     32  C24 UNL     1      27.553  -8.542 -40.270  0.00  0.00    +0.000 C 
ATOM     33  N4  UNL     1      28.507  -9.399 -40.667  0.00  0.00    +0.000 N 
ATOM     34  N7  UNL     1      27.952 -10.578 -40.897  0.00  0.00    +0.000 NA
ATOM     35  N8  UNL     1      26.645 -10.519 -40.682  0.00  0.00    +0.000 NA
BRANCH  33  36
ATOM     36  C25 UNL     1      29.936  -9.134 -40.754  0.00  0.00    +0.000 C 
BRANCH  36  37
ATOM     37  C26 UNL     1      30.467  -9.649 -42.055  0.00  0.00    +0.000 C 
ATOM     38  O4  UNL     1      29.848  -9.387 -43.121  0.00  0.00    +0.000 OA
ATOM     39  N5  UNL     1      31.672 -10.424 -42.078  0.00  0.00    +0.000 N 
ATOM     40  H24 UNL     1      32.346 -10.285 -41.297  0.00  0.00    +0.000 HD
BRANCH  39  41
ATOM     41  C27 UNL     1      32.084 -11.265 -43.172  0.00  0.00    +0.000 C 
ATOM     42  C28 UNL     1      31.544 -12.553 -43.282  0.00  0.00    +0.000 C 
ATOM     43  C29 UNL     1      31.894 -13.390 -44.345  0.00  0.00    +0.000 C 
ATOM     44  C30 UNL     1      32.790 -12.944 -45.332  0.00  0.00    +0.000 C 
ATOM     45  C31 UNL     1      33.312 -11.642 -45.239  0.00  0.00    +0.000 C 
ATOM     46  C32 UNL     1      32.959 -10.809 -44.172  0.00  0.00    +0.000 C 
BRANCH  44  47
ATOM     47  N6  UNL     1      33.154 -13.793 -46.433  0.00  0.00    +0.000 N 
ATOM     48  O5  UNL     1      32.739 -14.970 -46.488  0.00  0.00    +0.000 OA
ATOM     49  O6  UNL     1      33.976 -13.328 -47.438  0.00  0.00    +0.000 OA
ENDBRANCH  44  47
ENDBRANCH  39  41
ENDBRANCH  36  37
ENDBRANCH  33  36
ENDBRANCH  30  31
ENDBRANCH  29  30
ENDBRANCH   6  29
TORSDOF 12
