REMARK  Name = resultss/4CJN/ligands/lig_179_t2.pdb
REMARK  4 active torsions:
REMARK  status: ('A' for Active; 'I' for Inactive)
REMARK    1  A    between atoms: C9_1  and  C1_17
REMARK    2  A    between atoms: C12_4  and  C13_7
REMARK    3  A    between atoms: N1_18  and  N2_20
REMARK    4  A    between atoms: C2_21  and  C3_22
REMARK                            x       y       z     vdW  Elec       q    Type
REMARK                         _______ _______ _______ _____ _____    ______ ____
ROOT
ATOM      1  C9  UNL     1      29.922  -9.554 -40.550  0.00  0.00    +0.000 C 
ATOM      2  C10 UNL     1      31.327  -9.594 -40.574  0.00  0.00    +0.000 C 
ATOM      3  C11 UNL     1      32.004 -10.216 -41.626  0.00  0.00    +0.000 C 
ATOM      4  C12 UNL     1      31.293 -10.808 -42.683  0.00  0.00    +0.000 C 
ATOM      5  C20 UNL     1      29.888 -10.761 -42.665  0.00  0.00    +0.000 C 
ATOM      6  C21 UNL     1      29.211 -10.139 -41.612  0.00  0.00    +0.000 C 
ENDROOT
BRANCH   4   7
ATOM      7  C13 UNL     1      32.021 -11.465 -43.794  0.00  0.00    +0.000 A 
ATOM      8  N3  UNL     1      31.734 -12.717 -44.232  0.00  0.00    +0.000 NA
ATOM      9  C14 UNL     1      32.544 -13.084 -45.257  0.00  0.00    +0.000 A 
ATOM     10  C15 UNL     1      32.482 -14.316 -45.910  0.00  0.00    +0.000 C 
ATOM     11  C16 UNL     1      33.384 -14.569 -46.960  0.00  0.00    +0.000 C 
ATOM     12  C17 UNL     1      34.328 -13.595 -47.341  0.00  0.00    +0.000 C 
ATOM     13  C18 UNL     1      34.380 -12.359 -46.677  0.00  0.00    +0.000 C 
ATOM     14  C19 UNL     1      33.477 -12.134 -45.642  0.00  0.00    +0.000 A 
ATOM     15  S1  UNL     1      33.301 -10.775 -44.676  0.00  0.00    +0.000 S 
ENDBRANCH   4   7
BRANCH   1  17
ATOM     16  O1  UNL     1      29.226  -7.628 -39.350  0.00  0.00    +0.000 OA
ATOM     17  C1  UNL     1      29.212  -8.887 -39.432  0.00  0.00    +0.000 C 
ATOM     18  N1  UNL     1      28.549  -9.657 -38.415  0.00  0.00    +0.000 N 
ATOM     19  H1  UNL     1      28.919 -10.608 -38.193  0.00  0.00    +0.000 HD
BRANCH  18  20
ATOM     20  N2  UNL     1      27.576  -9.121 -37.550  0.00  0.00    +0.000 NA
ATOM     21  C2  UNL     1      27.234  -9.674 -36.424  0.00  0.00    +0.000 C 
BRANCH  21  22
ATOM     22  C3  UNL     1      26.192  -9.079 -35.560  0.00  0.00    +0.000 C 
ATOM     23  C4  UNL     1      25.844  -9.777 -34.302  0.00  0.00    +0.000 C 
ATOM     24  C5  UNL     1      24.958  -9.269 -33.446  0.00  0.00    +0.000 C 
ATOM     25  C6  UNL     1      24.281  -8.000 -33.739  0.00  0.00    +0.000 C 
ATOM     26  O2  UNL     1      23.513  -7.493 -32.879  0.00  0.00    +0.000 OA
ATOM     27  C7  UNL     1      24.473  -7.314 -35.065  0.00  0.00    +0.000 C 
ATOM     28 BR1  UNL     1      22.819  -7.390 -36.072  0.00  0.00    +0.000 Br
ATOM     29  C8  UNL     1      25.574  -7.928 -35.894  0.00  0.00    +0.000 C 
ENDBRANCH  21  22
ENDBRANCH  18  20
ENDBRANCH   1  17
TORSDOF 4
