REMARK  Name = resultss/4CJN/ligands/lig_83_t0.pdb
REMARK  4 active torsions:
REMARK  status: ('A' for Active; 'I' for Inactive)
REMARK    1  A    between atoms: C9_10  and  C10_18
REMARK    2  A    between atoms: C21_17  and  C22_24
REMARK    3  A    between atoms: C22_24  and  C23_25
REMARK    4  A    between atoms: C27_31  and  O5_32
REMARK                            x       y       z     vdW  Elec       q    Type
REMARK                         _______ _______ _______ _____ _____    ______ ____
ROOT
ATOM      1  C1  UNL     1      24.920  -8.315 -38.311  0.00  0.00    +0.000 C 
ATOM      2  C2  UNL     1      26.219  -8.274 -37.968  0.00  0.00    +0.000 C 
ATOM      3  C3  UNL     1      26.994  -6.981 -38.125  0.00  0.00    +0.000 C 
ATOM      4  C4  UNL     1      28.226  -6.933 -37.204  0.00  0.00    +0.000 C 
ATOM      5  C5  UNL     1      27.942  -7.716 -35.898  0.00  0.00    +0.000 C 
ATOM      6  C6  UNL     1      28.751  -7.272 -34.604  0.00  0.00    +0.000 C 
ATOM      7  C7  UNL     1      28.151  -5.914 -34.124  0.00  0.00    +0.000 C 
ATOM      8  C8  UNL     1      30.282  -7.011 -34.862  0.00  0.00    +0.000 C 
ATOM      9  O1  UNL     1      31.126  -8.086 -34.521  0.00  0.00    +0.000 OA
ATOM     10  C9  UNL     1      30.830  -8.522 -33.214  0.00  0.00    +0.000 C 
ATOM     11  O2  UNL     1      29.603  -9.214 -33.232  0.00  0.00    +0.000 OA
ATOM     12  C16 UNL     1      28.535  -8.308 -33.424  0.00  0.00    +0.000 C 
ATOM     13  C17 UNL     1      27.239  -9.120 -33.601  0.00  0.00    +0.000 C 
ATOM     14  C18 UNL     1      27.165  -9.931 -34.920  0.00  0.00    +0.000 C 
ATOM     15  C19 UNL     1      27.839  -9.263 -36.180  0.00  0.00    +0.000 C 
ATOM     16  C20 UNL     1      29.249  -9.900 -36.353  0.00  0.00    +0.000 C 
ATOM     17  C21 UNL     1      26.944  -9.535 -37.497  0.00  0.00    +0.000 C 
ENDROOT
BRANCH  10  18
ATOM     18  C10 UNL     1      31.905  -9.473 -32.755  0.00  0.00    +0.000 C 
ATOM     19  C11 UNL     1      31.590 -10.543 -31.897  0.00  0.00    +0.000 C 
ATOM     20  C12 UNL     1      32.582 -11.443 -31.495  0.00  0.00    +0.000 C 
ATOM     21  C13 UNL     1      33.893 -11.290 -31.951  0.00  0.00    +0.000 C 
ATOM     22  C14 UNL     1      34.215 -10.241 -32.816  0.00  0.00    +0.000 C 
ATOM     23  C15 UNL     1      33.226  -9.339 -33.221  0.00  0.00    +0.000 C 
ENDBRANCH  10  18
BRANCH  17  24
ATOM     24  C22 UNL     1      27.690 -10.142 -38.728  0.00  0.00    +0.000 C 
BRANCH  24  25
ATOM     25  C23 UNL     1      26.891 -10.055 -40.004  0.00  0.00    +0.000 C 
ATOM     26  C24 UNL     1      27.387  -9.612 -41.171  0.00  0.00    +0.000 C 
ATOM     27  C25 UNL     1      26.654  -9.562 -42.413  0.00  0.00    +0.000 C 
ATOM     28  O3  UNL     1      25.453  -9.910 -42.569  0.00  0.00    +0.000 OA
ATOM     29  O4  UNL     1      27.445  -9.088 -43.433  0.00  0.00    +0.000 OA
ATOM     30  C26 UNL     1      28.762  -8.803 -42.973  0.00  0.00    +0.000 C 
ATOM     31  C27 UNL     1      28.767  -9.091 -41.447  0.00  0.00    +0.000 C 
BRANCH  31  32
ATOM     32  O5  UNL     1      28.987  -7.907 -40.726  0.00  0.00    +0.000 OA
ATOM     33  H34 UNL     1      29.219  -8.182 -39.801  0.00  0.00    +0.000 HD
ENDBRANCH  31  32
ENDBRANCH  24  25
ENDBRANCH  17  24
TORSDOF 4
