REMARK  Name = resultss/4CJN/ligands/lig_441_t0.pdb
REMARK  9 active torsions:
REMARK  status: ('A' for Active; 'I' for Inactive)
REMARK    1  A    between atoms: N3_1  and  N2_25
REMARK    2  A    between atoms: C6_2  and  C7_5
REMARK    3  A    between atoms: C17_16  and  C18_19
REMARK    4  A    between atoms: N2_25  and  C5_27
REMARK    5  A    between atoms: C5_27  and  N1_29
REMARK    6  A    between atoms: N1_29  and  C4_33
REMARK    7  A    between atoms: C2_31  and  O1_38
REMARK    8  A    between atoms: C25_35  and  O3_39
REMARK    9  A    between atoms: C27_36  and  O4_41
REMARK                            x       y       z     vdW  Elec       q    Type
REMARK                         _______ _______ _______ _____ _____    ______ ____
ROOT
ATOM      1  N3  UNL     1      25.414  -8.929 -35.923  0.00  0.00    +0.000 N 
ATOM      2  C6  UNL     1      26.468  -9.573 -36.649  0.00  0.00    +0.000 C 
ATOM      3  O2  UNL     1      27.270 -10.337 -36.046  0.00  0.00    +0.000 OA
ATOM      4  H7  UNL     1      24.893  -8.136 -36.361  0.00  0.00    +0.000 HD
ENDROOT
BRANCH   2   5
ATOM      5  C7  UNL     1      26.630  -9.352 -38.096  0.00  0.00    +0.000 C 
ATOM      6  C8  UNL     1      27.812  -9.753 -38.754  0.00  0.00    +0.000 C 
ATOM      7  C9  UNL     1      27.873  -9.549 -40.127  0.00  0.00    +0.000 A 
ATOM      8  C10 UNL     1      26.818  -9.010 -40.835  0.00  0.00    +0.000 A 
ATOM      9  N4  UNL     1      27.122  -8.882 -42.148  0.00  0.00    +0.000 N 
ATOM     10  C11 UNL     1      28.382  -9.361 -42.260  0.00  0.00    +0.000 A 
ATOM     11  C12 UNL     1      29.145  -9.456 -43.421  0.00  0.00    +0.000 C 
ATOM     12  C13 UNL     1      30.439 -10.002 -43.318  0.00  0.00    +0.000 C 
ATOM     13  C14 UNL     1      30.941 -10.427 -42.068  0.00  0.00    +0.000 C 
ATOM     14  C15 UNL     1      30.157 -10.313 -40.906  0.00  0.00    +0.000 C 
ATOM     15  C16 UNL     1      28.876  -9.781 -41.042  0.00  0.00    +0.000 A 
ATOM     16  C17 UNL     1      25.646  -8.627 -40.171  0.00  0.00    +0.000 C 
ATOM     17  N5  UNL     1      25.600  -8.800 -38.815  0.00  0.00    +0.000 NA
ATOM     18  H9  UNL     1      26.539  -8.471 -42.910  0.00  0.00    +0.000 HD
BRANCH  16  19
ATOM     19  C18 UNL     1      24.458  -8.104 -40.879  0.00  0.00    +0.000 C 
ATOM     20  C19 UNL     1      23.976  -6.809 -40.615  0.00  0.00    +0.000 C 
ATOM     21  C20 UNL     1      22.882  -6.304 -41.326  0.00  0.00    +0.000 C 
ATOM     22  C21 UNL     1      22.266  -7.082 -42.309  0.00  0.00    +0.000 C 
ATOM     23  C22 UNL     1      22.748  -8.363 -42.589  0.00  0.00    +0.000 C 
ATOM     24  C23 UNL     1      23.845  -8.869 -41.885  0.00  0.00    +0.000 C 
ENDBRANCH  16  19
ENDBRANCH   2   5
BRANCH   1  25
ATOM     25  N2  UNL     1      25.054  -9.372 -34.640  0.00  0.00    +0.000 N 
ATOM     26  H6  UNL     1      24.878 -10.390 -34.477  0.00  0.00    +0.000 HD
BRANCH  25  27
ATOM     27  C5  UNL     1      24.938  -8.473 -33.528  0.00  0.00    +0.000 C 
ATOM     28  S1  UNL     1      23.533  -7.677 -33.234  0.00  0.00    +0.000 S 
BRANCH  27  29
ATOM     29  N1  UNL     1      26.113  -8.107 -32.797  0.00  0.00    +0.000 N 
ATOM     30  H5  UNL     1      25.985  -7.748 -31.821  0.00  0.00    +0.000 HD
BRANCH  29  33
ATOM     31  C2  UNL     1      29.585  -9.313 -33.536  0.00  0.00    +0.000 C 
ATOM     32  C3  UNL     1      28.290  -9.211 -32.992  0.00  0.00    +0.000 C 
ATOM     33  C4  UNL     1      27.438  -8.162 -33.356  0.00  0.00    +0.000 C 
ATOM     34  C24 UNL     1      27.885  -7.203 -34.280  0.00  0.00    +0.000 C 
ATOM     35  C25 UNL     1      29.169  -7.301 -34.851  0.00  0.00    +0.000 C 
ATOM     36  C27 UNL     1      30.007  -8.368 -34.493  0.00  0.00    +0.000 C 
BRANCH  31  38
ATOM     37  C1  UNL     1      31.497 -10.151 -32.145  0.00  0.00    +0.000 C 
ATOM     38  O1  UNL     1      30.479 -10.316 -33.128  0.00  0.00    +0.000 OA
ENDBRANCH  31  38
BRANCH  35  39
ATOM     39  O3  UNL     1      29.641  -6.370 -35.792  0.00  0.00    +0.000 OA
ATOM     40  C26 UNL     1      29.270  -6.345 -37.166  0.00  0.00    +0.000 C 
ENDBRANCH  35  39
BRANCH  36  41
ATOM     41  O4  UNL     1      31.269  -8.452 -35.094  0.00  0.00    +0.000 OA
ATOM     42  C28 UNL     1      31.535  -9.267 -36.233  0.00  0.00    +0.000 C 
ENDBRANCH  36  41
ENDBRANCH  29  33
ENDBRANCH  27  29
ENDBRANCH  25  27
ENDBRANCH   1  25
TORSDOF 9
