REMARK  Name = resultss/4CJN/ligands/lig_437_t0.pdb
REMARK  8 active torsions:
REMARK  status: ('A' for Active; 'I' for Inactive)
REMARK    1  A    between atoms: N3_1  and  N2_25
REMARK    2  A    between atoms: C7_2  and  C8_5
REMARK    3  A    between atoms: C18_16  and  C19_19
REMARK    4  A    between atoms: N2_25  and  C6_27
REMARK    5  A    between atoms: C6_27  and  N1_29
REMARK    6  A    between atoms: N1_29  and  C5_34
REMARK    7  A    between atoms: C2_31  and  O1_38
REMARK    8  A    between atoms: C25_35  and  O3_39
REMARK                            x       y       z     vdW  Elec       q    Type
REMARK                         _______ _______ _______ _____ _____    ______ ____
ROOT
ATOM      1  N3  UNL     1      29.106 -10.681 -39.758  0.00  0.00    +0.000 N 
ATOM      2  C7  UNL     1      27.885 -10.301 -39.113  0.00  0.00    +0.000 C 
ATOM      3  O2  UNL     1      26.809 -10.299 -39.769  0.00  0.00    +0.000 OA
ATOM      4  H8  UNL     1      29.983 -10.780 -39.198  0.00  0.00    +0.000 HD
ENDROOT
BRANCH   2   5
ATOM      5  C8  UNL     1      27.874  -9.929 -37.688  0.00  0.00    +0.000 C 
ATOM      6  C9  UNL     1      29.067  -9.935 -36.937  0.00  0.00    +0.000 C 
ATOM      7  C10 UNL     1      28.974  -9.587 -35.596  0.00  0.00    +0.000 A 
ATOM      8  C11 UNL     1      27.772  -9.254 -35.007  0.00  0.00    +0.000 A 
ATOM      9  N4  UNL     1      27.926  -9.006 -33.684  0.00  0.00    +0.000 N 
ATOM     10  C12 UNL     1      29.244  -9.172 -33.452  0.00  0.00    +0.000 A 
ATOM     11  C13 UNL     1      29.913  -9.009 -32.239  0.00  0.00    +0.000 C 
ATOM     12  C14 UNL     1      31.309  -9.206 -32.222  0.00  0.00    +0.000 C 
ATOM     13  C15 UNL     1      31.999  -9.558 -33.405  0.00  0.00    +0.000 C 
ATOM     14  C16 UNL     1      31.302  -9.725 -34.618  0.00  0.00    +0.000 C 
ATOM     15  C17 UNL     1      29.921  -9.521 -34.603  0.00  0.00    +0.000 A 
ATOM     16  C18 UNL     1      26.597  -9.236 -35.768  0.00  0.00    +0.000 C 
ATOM     17  N5  UNL     1      26.689  -9.584 -37.087  0.00  0.00    +0.000 NA
ATOM     18  H10 UNL     1      27.194  -8.761 -32.982  0.00  0.00    +0.000 HD
BRANCH  16  19
ATOM     19  C19 UNL     1      25.274  -8.910 -35.191  0.00  0.00    +0.000 C 
ATOM     20  C20 UNL     1      24.357  -8.155 -35.943  0.00  0.00    +0.000 C 
ATOM     21  C21 UNL     1      23.098  -7.844 -35.416  0.00  0.00    +0.000 C 
ATOM     22  C22 UNL     1      22.753  -8.268 -34.130  0.00  0.00    +0.000 C 
ATOM     23  C23 UNL     1      23.672  -8.992 -33.363  0.00  0.00    +0.000 C 
ATOM     24  C24 UNL     1      24.931  -9.307 -33.886  0.00  0.00    +0.000 C 
ENDBRANCH  16  19
ENDBRANCH   2   5
BRANCH   1  25
ATOM     25  N2  UNL     1      29.102 -11.120 -41.090  0.00  0.00    +0.000 N 
ATOM     26  H7  UNL     1      28.341 -11.763 -41.408  0.00  0.00    +0.000 HD
BRANCH  25  27
ATOM     27  C6  UNL     1      30.117 -10.710 -42.015  0.00  0.00    +0.000 C 
ATOM     28  S1  UNL     1      29.755  -9.653 -43.223  0.00  0.00    +0.000 S 
BRANCH  27  29
ATOM     29  N1  UNL     1      31.416 -11.319 -41.949  0.00  0.00    +0.000 N 
ATOM     30  H6  UNL     1      31.835 -11.489 -41.007  0.00  0.00    +0.000 HD
BRANCH  29  34
ATOM     31  C2  UNL     1      33.528 -12.692 -45.372  0.00  0.00    +0.000 C 
ATOM     32  C3  UNL     1      32.351 -13.326 -44.963  0.00  0.00    +0.000 C 
ATOM     33  C4  UNL     1      31.659 -12.874 -43.837  0.00  0.00    +0.000 C 
ATOM     34  C5  UNL     1      32.131 -11.774 -43.108  0.00  0.00    +0.000 C 
ATOM     35  C25 UNL     1      33.297 -11.106 -43.521  0.00  0.00    +0.000 C 
ATOM     36  C27 UNL     1      33.996 -11.574 -44.654  0.00  0.00    +0.000 C 
BRANCH  31  38
ATOM     37  C1  UNL     1      33.717 -14.273 -47.303  0.00  0.00    +0.000 C 
ATOM     38  O1  UNL     1      34.199 -13.204 -46.494  0.00  0.00    +0.000 OA
ENDBRANCH  31  38
BRANCH  35  39
ATOM     39  O3  UNL     1      33.738  -9.999 -42.779  0.00  0.00    +0.000 OA
ATOM     40  C26 UNL     1      34.379 -10.080 -41.509  0.00  0.00    +0.000 C 
ENDBRANCH  35  39
ENDBRANCH  29  34
ENDBRANCH  27  29
ENDBRANCH  25  27
ENDBRANCH   1  25
TORSDOF 8
