REMARK  Name = resultss/4CJN/ligands/lig_439_t0.pdb
REMARK  8 active torsions:
REMARK  status: ('A' for Active; 'I' for Inactive)
REMARK    1  A    between atoms: N3_1  and  N2_25
REMARK    2  A    between atoms: C7_2  and  C8_5
REMARK    3  A    between atoms: C18_16  and  C19_19
REMARK    4  A    between atoms: N2_25  and  C6_27
REMARK    5  A    between atoms: C6_27  and  N1_29
REMARK    6  A    between atoms: N1_29  and  C5_34
REMARK    7  A    between atoms: C2_31  and  O1_38
REMARK    8  A    between atoms: C26_36  and  O3_39
REMARK                            x       y       z     vdW  Elec       q    Type
REMARK                         _______ _______ _______ _____ _____    ______ ____
ROOT
ATOM      1  N3  UNL     1      28.608 -10.705 -39.848  0.00  0.00    +0.000 N 
ATOM      2  C7  UNL     1      27.603  -9.910 -39.201  0.00  0.00    +0.000 C 
ATOM      3  O2  UNL     1      26.665  -9.412 -39.882  0.00  0.00    +0.000 OA
ATOM      4  H8  UNL     1      29.171 -11.370 -39.272  0.00  0.00    +0.000 HD
ENDROOT
BRANCH   2   5
ATOM      5  C8  UNL     1      27.656  -9.679 -37.743  0.00  0.00    +0.000 C 
ATOM      6  C9  UNL     1      28.878  -9.763 -37.041  0.00  0.00    +0.000 C 
ATOM      7  C10 UNL     1      28.842  -9.527 -35.673  0.00  0.00    +0.000 A 
ATOM      8  C11 UNL     1      27.671  -9.234 -35.010  0.00  0.00    +0.000 A 
ATOM      9  N4  UNL     1      27.897  -8.981 -33.698  0.00  0.00    +0.000 N 
ATOM     10  C12 UNL     1      29.229  -9.138 -33.541  0.00  0.00    +0.000 A 
ATOM     11  C13 UNL     1      29.964  -8.974 -32.368  0.00  0.00    +0.000 C 
ATOM     12  C14 UNL     1      31.357  -9.167 -32.429  0.00  0.00    +0.000 C 
ATOM     13  C15 UNL     1      31.982  -9.511 -33.649  0.00  0.00    +0.000 C 
ATOM     14  C16 UNL     1      31.221  -9.666 -34.823  0.00  0.00    +0.000 C 
ATOM     15  C17 UNL     1      29.844  -9.475 -34.730  0.00  0.00    +0.000 A 
ATOM     16  C18 UNL     1      26.460  -9.175 -35.712  0.00  0.00    +0.000 C 
ATOM     17  N5  UNL     1      26.501  -9.392 -37.063  0.00  0.00    +0.000 NA
ATOM     18  H10 UNL     1      27.212  -8.690 -32.966  0.00  0.00    +0.000 HD
BRANCH  16  19
ATOM     19  C19 UNL     1      25.163  -8.895 -35.061  0.00  0.00    +0.000 C 
ATOM     20  C20 UNL     1      24.919  -9.370 -33.761  0.00  0.00    +0.000 C 
ATOM     21  C21 UNL     1      23.706  -9.089 -33.124  0.00  0.00    +0.000 C 
ATOM     22  C22 UNL     1      22.736  -8.321 -33.772  0.00  0.00    +0.000 C 
ATOM     23  C23 UNL     1      22.978  -7.826 -35.055  0.00  0.00    +0.000 C 
ATOM     24  C24 UNL     1      24.189  -8.105 -35.697  0.00  0.00    +0.000 C 
ENDBRANCH  16  19
ENDBRANCH   2   5
BRANCH   1  25
ATOM     25  N2  UNL     1      28.673 -10.824 -41.246  0.00  0.00    +0.000 N 
ATOM     26  H7  UNL     1      28.149 -11.602 -41.706  0.00  0.00    +0.000 HD
BRANCH  25  27
ATOM     27  C6  UNL     1      29.528 -10.003 -42.055  0.00  0.00    +0.000 C 
ATOM     28  S1  UNL     1      28.856  -8.756 -42.887  0.00  0.00    +0.000 S 
BRANCH  27  29
ATOM     29  N1  UNL     1      30.948 -10.245 -42.091  0.00  0.00    +0.000 N 
ATOM     30  H6  UNL     1      31.562  -9.723 -41.428  0.00  0.00    +0.000 HD
BRANCH  29  34
ATOM     31  C2  UNL     1      32.982 -12.938 -44.680  0.00  0.00    +0.000 C 
ATOM     32  C3  UNL     1      31.957 -13.405 -43.838  0.00  0.00    +0.000 C 
ATOM     33  C4  UNL     1      31.282 -12.525 -42.991  0.00  0.00    +0.000 C 
ATOM     34  C5  UNL     1      31.601 -11.160 -42.987  0.00  0.00    +0.000 C 
ATOM     35  C25 UNL     1      32.640 -10.696 -43.804  0.00  0.00    +0.000 C 
ATOM     36  C26 UNL     1      33.329 -11.578 -44.660  0.00  0.00    +0.000 C 
BRANCH  31  38
ATOM     37  C1  UNL     1      33.074 -14.622 -46.529  0.00  0.00    +0.000 C 
ATOM     38  O1  UNL     1      33.684 -13.792 -45.545  0.00  0.00    +0.000 OA
ENDBRANCH  31  38
BRANCH  36  39
ATOM     39  O3  UNL     1      34.366 -11.141 -45.500  0.00  0.00    +0.000 OA
ATOM     40  C27 UNL     1      34.221 -10.887 -46.894  0.00  0.00    +0.000 C 
ENDBRANCH  36  39
ENDBRANCH  29  34
ENDBRANCH  27  29
ENDBRANCH  25  27
ENDBRANCH   1  25
TORSDOF 8
