REMARK  Name = resultss/4CJN/ligands/lig_340_t1.pdb
REMARK  12 active torsions:
REMARK  status: ('A' for Active; 'I' for Inactive)
REMARK    1  A    between atoms: C11_1  and  O3_29
REMARK    2  A    between atoms: C14_4  and  C15_7
REMARK    3  A    between atoms: C30_6  and  O5_27
REMARK    4  A    between atoms: N4_17  and  N5_19
REMARK    5  A    between atoms: N5_19  and  C23_21
REMARK    6  A    between atoms: O3_29  and  C10_30
REMARK    7  A    between atoms: C10_30  and  C9_33
REMARK    8  A    between atoms: N2_31  and  C7_36
REMARK    9  A    between atoms: C7_36  and  C6_38
REMARK   10  A    between atoms: N1_37  and  C5_42
REMARK   11  A    between atoms: C6_38  and  O2_47
REMARK   12  A    between atoms: C2_39  and  O1_46
REMARK                            x       y       z     vdW  Elec       q    Type
REMARK                         _______ _______ _______ _____ _____    ______ ____
ROOT
ATOM      1  C11 UNL     1      28.264 -10.009 -35.898  0.00  0.00    +0.000 C 
ATOM      2  C12 UNL     1      29.666 -10.005 -36.014  0.00  0.00    +0.000 C 
ATOM      3  C13 UNL     1      30.463  -9.630 -34.933  0.00  0.00    +0.000 C 
ATOM      4  C14 UNL     1      29.882  -9.279 -33.703  0.00  0.00    +0.000 C 
ATOM      5  C29 UNL     1      28.480  -9.264 -33.594  0.00  0.00    +0.000 C 
ATOM      6  C30 UNL     1      27.668  -9.628 -34.687  0.00  0.00    +0.000 C 
ENDROOT
BRANCH   4   7
ATOM      7  C15 UNL     1      30.734  -8.858 -32.524  0.00  0.00    +0.000 C 
ATOM      8  N3  UNL     1      30.948  -9.984 -31.606  0.00  0.00    +0.000 N 
ATOM      9  C16 UNL     1      32.115 -10.819 -31.666  0.00  0.00    +0.000 C 
ATOM     10  C17 UNL     1      32.147 -12.039 -30.975  0.00  0.00    +0.000 C 
ATOM     11  C18 UNL     1      33.265 -12.871 -31.069  0.00  0.00    +0.000 C 
ATOM     12  C19 UNL     1      34.362 -12.488 -31.846  0.00  0.00    +0.000 C 
ATOM     13  C20 UNL     1      34.344 -11.269 -32.530  0.00  0.00    +0.000 C 
ATOM     14  C21 UNL     1      33.220 -10.429 -32.442  0.00  0.00    +0.000 C 
ATOM     15  C22 UNL     1      33.173  -9.129 -33.129  0.00  0.00    +0.000 C 
ATOM     16  O4  UNL     1      34.153  -8.735 -33.819  0.00  0.00    +0.000 OA
ATOM     17  N4  UNL     1      32.008  -8.297 -32.992  0.00  0.00    +0.000 N 
ATOM     18  H15 UNL     1      30.148 -10.273 -30.996  0.00  0.00    +0.000 HD
BRANCH  17  19
ATOM     19  N5  UNL     1      32.032  -6.970 -33.461  0.00  0.00    +0.000 N 
ATOM     20  H20 UNL     1      32.530  -6.247 -32.892  0.00  0.00    +0.000 HD
BRANCH  19  21
ATOM     21  C23 UNL     1      31.588  -6.616 -34.781  0.00  0.00    +0.000 C 
ATOM     22  C24 UNL     1      30.274  -6.169 -35.018  0.00  0.00    +0.000 C 
ATOM     23  C25 UNL     1      29.849  -5.884 -36.320  0.00  0.00    +0.000 C 
ATOM     24  C26 UNL     1      30.724  -6.058 -37.396  0.00  0.00    +0.000 C 
ATOM     25  C27 UNL     1      32.027  -6.505 -37.172  0.00  0.00    +0.000 C 
ATOM     26  C28 UNL     1      32.457  -6.788 -35.872  0.00  0.00    +0.000 C 
ENDBRANCH  19  21
ENDBRANCH  17  19
ENDBRANCH   4   7
BRANCH   6  27
ATOM     27  O5  UNL     1      26.266  -9.622 -34.608  0.00  0.00    +0.000 OA
ATOM     28  C31 UNL     1      25.515  -8.883 -33.650  0.00  0.00    +0.000 C 
ENDBRANCH   6  27
BRANCH   1  29
ATOM     29  O3  UNL     1      27.431 -10.380 -36.967  0.00  0.00    +0.000 OA
BRANCH  29  30
ATOM     30  C10 UNL     1      26.654  -9.464 -37.734  0.00  0.00    +0.000 C 
BRANCH  30  33
ATOM     31  N2  UNL     1      29.088  -8.368 -40.183  0.00  0.00    +0.000 N 
ATOM     32  C8  UNL     1      28.574  -9.351 -39.426  0.00  0.00    +0.000 C 
ATOM     33  C9  UNL     1      27.528  -8.785 -38.733  0.00  0.00    +0.000 C 
ATOM     34  N6  UNL     1      27.448  -7.481 -39.062  0.00  0.00    +0.000 NA
ATOM     35  N7  UNL     1      28.410  -7.255 -39.947  0.00  0.00    +0.000 NA
BRANCH  31  36
ATOM     36  C7  UNL     1      30.246  -8.464 -41.065  0.00  0.00    +0.000 C 
BRANCH  36  38
ATOM     37  N1  UNL     1      29.313 -10.010 -42.766  0.00  0.00    +0.000 NA
ATOM     38  C6  UNL     1      30.197  -9.757 -41.841  0.00  0.00    +0.000 C 
BRANCH  37  42
ATOM     39  C2  UNL     1      26.325  -7.430 -44.333  0.00  0.00    +0.000 C 
ATOM     40  C3  UNL     1      27.652  -7.336 -44.798  0.00  0.00    +0.000 C 
ATOM     41  C4  UNL     1      28.639  -8.178 -44.282  0.00  0.00    +0.000 C 
ATOM     42  C5  UNL     1      28.323  -9.112 -43.282  0.00  0.00    +0.000 C 
ATOM     43  C32 UNL     1      26.999  -9.235 -42.851  0.00  0.00    +0.000 C 
ATOM     44  C33 UNL     1      26.009  -8.391 -43.365  0.00  0.00    +0.000 C 
BRANCH  39  46
ATOM     45  C1  UNL     1      24.136  -7.057 -45.481  0.00  0.00    +0.000 C 
ATOM     46  O1  UNL     1      25.300  -6.596 -44.800  0.00  0.00    +0.000 OA
ENDBRANCH  39  46
ENDBRANCH  37  42
BRANCH  38  47
ATOM     47  O2  UNL     1      31.118 -10.747 -41.509  0.00  0.00    +0.000 OA
ATOM     48  H6  UNL     1      31.892 -10.555 -40.884  0.00  0.00    +0.000 HD
ENDBRANCH  38  47
ENDBRANCH  36  38
ENDBRANCH  31  36
ENDBRANCH  30  33
ENDBRANCH  29  30
ENDBRANCH   1  29
TORSDOF 12
