REMARK  Name = resultss/4CJN/ligands/lig_421_t0.pdb
REMARK  7 active torsions:
REMARK  status: ('A' for Active; 'I' for Inactive)
REMARK    1  A    between atoms: C1_2  and  C10_5
REMARK    2  A    between atoms: N1_3  and  N2_25
REMARK    3  A    between atoms: C20_16  and  C21_19
REMARK    4  A    between atoms: N2_25  and  C2_27
REMARK    5  A    between atoms: C2_27  and  N3_29
REMARK    6  A    between atoms: N3_29  and  C3_31
REMARK    7  A    between atoms: C6_34  and  C7_37
REMARK                            x       y       z     vdW  Elec       q    Type
REMARK                         _______ _______ _______ _____ _____    ______ ____
ROOT
ATOM      1  O1  UNL     1      26.370  -6.729 -39.781  0.00  0.00    +0.000 OA
ATOM      2  C1  UNL     1      25.623  -7.316 -38.950  0.00  0.00    +0.000 C 
ATOM      3  N1  UNL     1      24.274  -7.647 -39.315  0.00  0.00    +0.000 N 
ATOM      4  H1  UNL     1      23.681  -8.173 -38.634  0.00  0.00    +0.000 HD
ENDROOT
BRANCH   2   5
ATOM      5  C10 UNL     1      26.147  -7.666 -37.612  0.00  0.00    +0.000 C 
ATOM      6  C11 UNL     1      27.511  -7.984 -37.433  0.00  0.00    +0.000 C 
ATOM      7  C12 UNL     1      27.917  -8.336 -36.150  0.00  0.00    +0.000 A 
ATOM      8  C13 UNL     1      27.044  -8.360 -35.085  0.00  0.00    +0.000 A 
ATOM      9  N4  UNL     1      27.653  -8.806 -33.959  0.00  0.00    +0.000 N 
ATOM     10  C14 UNL     1      28.929  -9.047 -34.330  0.00  0.00    +0.000 A 
ATOM     11  C15 UNL     1      29.962  -9.532 -33.528  0.00  0.00    +0.000 C 
ATOM     12  C16 UNL     1      31.224  -9.725 -34.122  0.00  0.00    +0.000 C 
ATOM     13  C17 UNL     1      31.426  -9.438 -35.492  0.00  0.00    +0.000 C 
ATOM     14  C18 UNL     1      30.367  -8.957 -36.284  0.00  0.00    +0.000 C 
ATOM     15  C19 UNL     1      29.130  -8.768 -35.666  0.00  0.00    +0.000 A 
ATOM     16  C20 UNL     1      25.698  -8.016 -35.270  0.00  0.00    +0.000 C 
ATOM     17  N5  UNL     1      25.295  -7.693 -36.537  0.00  0.00    +0.000 NA
ATOM     18  H9  UNL     1      27.233  -8.972 -33.019  0.00  0.00    +0.000 HD
BRANCH  16  19
ATOM     19  C21 UNL     1      24.710  -8.003 -34.172  0.00  0.00    +0.000 C 
ATOM     20  C22 UNL     1      24.071  -6.810 -33.785  0.00  0.00    +0.000 C 
ATOM     21  C23 UNL     1      23.118  -6.820 -32.762  0.00  0.00    +0.000 C 
ATOM     22  C24 UNL     1      22.782  -8.019 -32.128  0.00  0.00    +0.000 C 
ATOM     23  C25 UNL     1      23.395  -9.211 -32.521  0.00  0.00    +0.000 C 
ATOM     24  C26 UNL     1      24.350  -9.206 -33.543  0.00  0.00    +0.000 C 
ENDBRANCH  16  19
ENDBRANCH   2   5
BRANCH   3  25
ATOM     25  N2  UNL     1      23.765  -7.341 -40.590  0.00  0.00    +0.000 N 
ATOM     26  H2  UNL     1      23.487  -6.359 -40.814  0.00  0.00    +0.000 HD
BRANCH  25  27
ATOM     27  C2  UNL     1      23.723  -8.322 -41.637  0.00  0.00    +0.000 C 
ATOM     28  S1  UNL     1      22.681  -8.102 -42.888  0.00  0.00    +0.000 S 
BRANCH  27  29
ATOM     29  N3  UNL     1      24.403  -9.575 -41.484  0.00  0.00    +0.000 N 
ATOM     30  H3  UNL     1      23.825 -10.416 -41.264  0.00  0.00    +0.000 HD
BRANCH  29  31
ATOM     31  C3  UNL     1      25.822  -9.744 -41.656  0.00  0.00    +0.000 C 
ATOM     32  C4  UNL     1      26.440  -9.259 -42.818  0.00  0.00    +0.000 C 
ATOM     33  C5  UNL     1      27.815  -9.430 -43.018  0.00  0.00    +0.000 C 
ATOM     34  C6  UNL     1      28.598 -10.095 -42.056  0.00  0.00    +0.000 C 
ATOM     35  C8  UNL     1      27.970 -10.615 -40.911  0.00  0.00    +0.000 C 
ATOM     36  C9  UNL     1      26.596 -10.444 -40.713  0.00  0.00    +0.000 C 
BRANCH  34  37
ATOM     37  C7  UNL     1      30.069 -10.340 -42.276  0.00  0.00    +0.000 C 
ATOM     38  F1  UNL     1      30.793  -9.578 -41.378  0.00  0.00    +0.000 F 
ATOM     39  F2  UNL     1      30.391 -11.675 -42.098  0.00  0.00    +0.000 F 
ATOM     40  F3  UNL     1      30.421  -9.969 -43.563  0.00  0.00    +0.000 F 
ENDBRANCH  34  37
ENDBRANCH  29  31
ENDBRANCH  27  29
ENDBRANCH  25  27
ENDBRANCH   3  25
TORSDOF 7
