REMARK  Name = resultss/4CJN/ligands/lig_357_t0.pdb
REMARK  9 active torsions:
REMARK  status: ('A' for Active; 'I' for Inactive)
REMARK    1  A    between atoms: C11_1  and  O2_27
REMARK    2  A    between atoms: C14_4  and  C15_7
REMARK    3  A    between atoms: N4_17  and  N5_19
REMARK    4  A    between atoms: N5_19  and  C23_21
REMARK    5  A    between atoms: O2_27  and  C10_28
REMARK    6  A    between atoms: C10_28  and  C9_31
REMARK    7  A    between atoms: N2_29  and  C7_34
REMARK    8  A    between atoms: C7_34  and  C6_36
REMARK    9  A    between atoms: N1_35  and  C5_43
REMARK                            x       y       z     vdW  Elec       q    Type
REMARK                         _______ _______ _______ _____ _____    ______ ____
ROOT
ATOM      1  C11 UNL     1      28.560  -9.334 -38.780  0.00  0.00    +0.000 C 
ATOM      2  C12 UNL     1      28.841  -7.966 -38.861  0.00  0.00    +0.000 C 
ATOM      3  C13 UNL     1      28.298  -7.070 -37.936  0.00  0.00    +0.000 C 
ATOM      4  C14 UNL     1      27.450  -7.529 -36.913  0.00  0.00    +0.000 C 
ATOM      5  C29 UNL     1      27.180  -8.906 -36.821  0.00  0.00    +0.000 C 
ATOM      6  C30 UNL     1      27.722  -9.800 -37.747  0.00  0.00    +0.000 C 
ENDROOT
BRANCH   4   7
ATOM      7  C15 UNL     1      26.881  -6.568 -35.892  0.00  0.00    +0.000 C 
ATOM      8  N3  UNL     1      25.418  -6.596 -35.963  0.00  0.00    +0.000 N 
ATOM      9  C16 UNL     1      24.609  -7.381 -35.078  0.00  0.00    +0.000 C 
ATOM     10  C17 UNL     1      23.255  -7.605 -35.373  0.00  0.00    +0.000 C 
ATOM     11  C18 UNL     1      22.461  -8.357 -34.501  0.00  0.00    +0.000 C 
ATOM     12  C19 UNL     1      23.012  -8.887 -33.331  0.00  0.00    +0.000 C 
ATOM     13  C20 UNL     1      24.358  -8.667 -33.032  0.00  0.00    +0.000 C 
ATOM     14  C21 UNL     1      25.164  -7.914 -33.907  0.00  0.00    +0.000 C 
ATOM     15  C22 UNL     1      26.579  -7.645 -33.611  0.00  0.00    +0.000 C 
ATOM     16  O3  UNL     1      27.083  -8.053 -32.530  0.00  0.00    +0.000 OA
ATOM     17  N4  UNL     1      27.383  -6.893 -34.541  0.00  0.00    +0.000 N 
ATOM     18  H15 UNL     1      24.966  -6.149 -36.793  0.00  0.00    +0.000 HD
BRANCH  17  19
ATOM     19  N5  UNL     1      28.727  -6.617 -34.211  0.00  0.00    +0.000 N 
ATOM     20  H20 UNL     1      28.990  -5.629 -33.998  0.00  0.00    +0.000 HD
BRANCH  19  21
ATOM     21  C23 UNL     1      29.787  -7.438 -34.713  0.00  0.00    +0.000 C 
ATOM     22  C24 UNL     1      30.864  -6.872 -35.413  0.00  0.00    +0.000 C 
ATOM     23  C25 UNL     1      31.884  -7.690 -35.910  0.00  0.00    +0.000 C 
ATOM     24  C26 UNL     1      31.826  -9.075 -35.724  0.00  0.00    +0.000 C 
ATOM     25  C27 UNL     1      30.742  -9.646 -35.048  0.00  0.00    +0.000 C 
ATOM     26  C28 UNL     1      29.722  -8.830 -34.547  0.00  0.00    +0.000 C 
ENDBRANCH  19  21
ENDBRANCH  17  19
ENDBRANCH   4   7
BRANCH   1  27
ATOM     27  O2  UNL     1      29.125 -10.186 -39.744  0.00  0.00    +0.000 OA
BRANCH  27  28
ATOM     28  C10 UNL     1      28.395 -10.924 -40.723  0.00  0.00    +0.000 C 
BRANCH  28  31
ATOM     29  N2  UNL     1      26.721  -8.660 -43.015  0.00  0.00    +0.000 N 
ATOM     30  C8  UNL     1      27.859  -9.218 -42.570  0.00  0.00    +0.000 C 
ATOM     31  C9  UNL     1      27.499 -10.020 -41.508  0.00  0.00    +0.000 C 
ATOM     32  N6  UNL     1      26.162  -9.942 -41.348  0.00  0.00    +0.000 NA
ATOM     33  N7  UNL     1      25.716  -9.108 -42.278  0.00  0.00    +0.000 NA
BRANCH  29  34
ATOM     34  C7  UNL     1      26.570  -7.784 -44.171  0.00  0.00    +0.000 C 
BRANCH  34  36
ATOM     35  N1  UNL     1      24.043  -7.934 -44.374  0.00  0.00    +0.000 N 
ATOM     36  C6  UNL     1      25.218  -7.140 -44.152  0.00  0.00    +0.000 C 
ATOM     37  O1  UNL     1      25.131  -5.887 -44.030  0.00  0.00    +0.000 OA
ATOM     38  H6  UNL     1      24.174  -8.932 -44.658  0.00  0.00    +0.000 HD
BRANCH  35  43
ATOM     39  C1  UNL     1      18.663  -5.883 -44.277  0.00  0.00    +0.000 C 
ATOM     40  C2  UNL     1      20.060  -6.432 -44.311  0.00  0.00    +0.000 C 
ATOM     41  C3  UNL     1      20.684  -6.839 -43.126  0.00  0.00    +0.000 C 
ATOM     42  C4  UNL     1      21.991  -7.329 -43.150  0.00  0.00    +0.000 C 
ATOM     43  C5  UNL     1      22.709  -7.394 -44.357  0.00  0.00    +0.000 C 
ATOM     44  C31 UNL     1      22.094  -6.958 -45.553  0.00  0.00    +0.000 C 
ATOM     45  C32 UNL     1      22.816  -7.016 -46.872  0.00  0.00    +0.000 C 
ATOM     46  C33 UNL     1      20.771  -6.484 -45.519  0.00  0.00    +0.000 C 
ENDBRANCH  35  43
ENDBRANCH  34  36
ENDBRANCH  29  34
ENDBRANCH  28  31
ENDBRANCH  27  28
ENDBRANCH   1  27
TORSDOF 9
