REMARK  Name = resultss/4CJN/ligands/lig_342_t1.pdb
REMARK  11 active torsions:
REMARK  status: ('A' for Active; 'I' for Inactive)
REMARK    1  A    between atoms: C2_1  and  O1_28
REMARK    2  A    between atoms: C4_3  and  C5_7
REMARK    3  A    between atoms: C21_6  and  O3_29
REMARK    4  A    between atoms: N2_17  and  N3_19
REMARK    5  A    between atoms: N3_19  and  C13_21
REMARK    6  A    between atoms: O3_29  and  C22_30
REMARK    7  A    between atoms: C22_30  and  C23_31
REMARK    8  A    between atoms: N4_33  and  C25_36
REMARK    9  A    between atoms: C25_36  and  C26_37
REMARK   10  A    between atoms: C26_37  and  O4_47
REMARK   11  A    between atoms: N5_38  and  C27_39
REMARK                            x       y       z     vdW  Elec       q    Type
REMARK                         _______ _______ _______ _____ _____    ______ ____
ROOT
ATOM      1  C2  UNL     1      27.761  -9.224 -34.594  0.00  0.00    +0.000 C 
ATOM      2  C3  UNL     1      29.169  -9.227 -34.633  0.00  0.00    +0.000 C 
ATOM      3  C4  UNL     1      29.855  -9.653 -35.784  0.00  0.00    +0.000 C 
ATOM      4  C19 UNL     1      29.113 -10.021 -36.919  0.00  0.00    +0.000 C 
ATOM      5  C20 UNL     1      27.716 -10.008 -36.892  0.00  0.00    +0.000 C 
ATOM      6  C21 UNL     1      27.034  -9.620 -35.724  0.00  0.00    +0.000 C 
ENDROOT
BRANCH   3   7
ATOM      7  C5  UNL     1      31.367  -9.643 -35.860  0.00  0.00    +0.000 C 
ATOM      8  N1  UNL     1      31.786  -9.607 -37.264  0.00  0.00    +0.000 N 
ATOM      9  C6  UNL     1      32.105  -8.385 -37.943  0.00  0.00    +0.000 C 
ATOM     10  C7  UNL     1      32.188  -8.359 -39.345  0.00  0.00    +0.000 C 
ATOM     11  C8  UNL     1      32.510  -7.169 -40.007  0.00  0.00    +0.000 C 
ATOM     12  C9  UNL     1      32.749  -6.004 -39.274  0.00  0.00    +0.000 C 
ATOM     13  C10 UNL     1      32.675  -6.026 -37.877  0.00  0.00    +0.000 C 
ATOM     14  C11 UNL     1      32.359  -7.220 -37.206  0.00  0.00    +0.000 C 
ATOM     15  C12 UNL     1      32.309  -7.291 -35.736  0.00  0.00    +0.000 C 
ATOM     16  O2  UNL     1      32.603  -6.279 -35.042  0.00  0.00    +0.000 OA
ATOM     17  N2  UNL     1      31.943  -8.523 -35.089  0.00  0.00    +0.000 N 
ATOM     18  H6  UNL     1      31.683 -10.485 -37.823  0.00  0.00    +0.000 HD
BRANCH  17  19
ATOM     19  N3  UNL     1      31.883  -8.556 -33.682  0.00  0.00    +0.000 N 
ATOM     20  H11 UNL     1      31.474  -7.739 -33.178  0.00  0.00    +0.000 HD
BRANCH  19  21
ATOM     21  C13 UNL     1      32.448  -9.631 -32.912  0.00  0.00    +0.000 C 
ATOM     22  C14 UNL     1      33.808  -9.955 -33.065  0.00  0.00    +0.000 C 
ATOM     23  C15 UNL     1      34.369 -11.016 -32.346  0.00  0.00    +0.000 C 
ATOM     24  C16 UNL     1      33.575 -11.766 -31.475  0.00  0.00    +0.000 C 
ATOM     25  C17 UNL     1      32.218 -11.458 -31.324  0.00  0.00    +0.000 C 
ATOM     26  C18 UNL     1      31.651 -10.402 -32.045  0.00  0.00    +0.000 C 
ENDBRANCH  19  21
ENDBRANCH  17  19
ENDBRANCH   3   7
BRANCH   1  28
ATOM     27  C1  UNL     1      26.926  -7.486 -32.995  0.00  0.00    +0.000 C 
ATOM     28  O1  UNL     1      27.051  -8.831 -33.448  0.00  0.00    +0.000 OA
ENDBRANCH   1  28
BRANCH   6  29
ATOM     29  O3  UNL     1      25.632  -9.620 -35.644  0.00  0.00    +0.000 OA
BRANCH  29  30
ATOM     30  C22 UNL     1      24.808  -8.468 -35.795  0.00  0.00    +0.000 C 
BRANCH  30  31
ATOM     31  C23 UNL     1      25.231  -7.722 -37.018  0.00  0.00    +0.000 C 
ATOM     32  C24 UNL     1      24.991  -8.078 -38.326  0.00  0.00    +0.000 C 
ATOM     33  N4  UNL     1      25.505  -7.094 -39.078  0.00  0.00    +0.000 N 
ATOM     34  N6  UNL     1      26.043  -6.189 -38.276  0.00  0.00    +0.000 NA
ATOM     35  N7  UNL     1      25.890  -6.548 -37.009  0.00  0.00    +0.000 NA
BRANCH  33  36
ATOM     36  C25 UNL     1      25.483  -7.004 -40.535  0.00  0.00    +0.000 C 
BRANCH  36  37
ATOM     37  C26 UNL     1      24.583  -8.059 -41.120  0.00  0.00    +0.000 C 
ATOM     38  N5  UNL     1      25.026  -9.199 -41.572  0.00  0.00    +0.000 NA
BRANCH  38  39
ATOM     39  C27 UNL     1      26.402  -9.601 -41.641  0.00  0.00    +0.000 C 
ATOM     40  C28 UNL     1      26.962 -10.388 -40.622  0.00  0.00    +0.000 C 
ATOM     41  C29 UNL     1      28.300 -10.778 -40.684  0.00  0.00    +0.000 C 
ATOM     42  C30 UNL     1      29.105 -10.381 -41.761  0.00  0.00    +0.000 C 
ATOM     43  C31 UNL     1      30.549 -10.789 -41.809  0.00  0.00    +0.000 C 
ATOM     44  C32 UNL     1      28.564  -9.549 -42.754  0.00  0.00    +0.000 C 
ATOM     45  C33 UNL     1      27.216  -9.153 -42.701  0.00  0.00    +0.000 C 
ATOM     46  C34 UNL     1      26.642  -8.280 -43.780  0.00  0.00    +0.000 C 
ENDBRANCH  38  39
BRANCH  37  47
ATOM     47  O4  UNL     1      23.212  -7.814 -41.133  0.00  0.00    +0.000 OA
ATOM     48  H24 UNL     1      22.587  -8.380 -41.695  0.00  0.00    +0.000 HD
ENDBRANCH  37  47
ENDBRANCH  36  37
ENDBRANCH  33  36
ENDBRANCH  30  31
ENDBRANCH  29  30
ENDBRANCH   6  29
TORSDOF 11
