REMARK  Name = resultss/4CJN/ligands/lig_437_t0.pdb
REMARK  8 active torsions:
REMARK  status: ('A' for Active; 'I' for Inactive)
REMARK    1  A    between atoms: N3_1  and  N2_25
REMARK    2  A    between atoms: C7_2  and  C8_5
REMARK    3  A    between atoms: C18_16  and  C19_19
REMARK    4  A    between atoms: N2_25  and  C6_27
REMARK    5  A    between atoms: C6_27  and  N1_29
REMARK    6  A    between atoms: N1_29  and  C5_34
REMARK    7  A    between atoms: C2_31  and  O1_38
REMARK    8  A    between atoms: C25_35  and  O3_39
REMARK                            x       y       z     vdW  Elec       q    Type
REMARK                         _______ _______ _______ _____ _____    ______ ____
ROOT
ATOM      1  N3  UNL     1      28.982 -10.310 -39.686  0.00  0.00    +0.000 N 
ATOM      2  C7  UNL     1      28.071 -10.791 -38.692  0.00  0.00    +0.000 C 
ATOM      3  O2  UNL     1      27.293 -11.743 -38.968  0.00  0.00    +0.000 OA
ATOM      4  H8  UNL     1      29.696  -9.589 -39.435  0.00  0.00    +0.000 HD
ENDROOT
BRANCH   2   5
ATOM      5  C8  UNL     1      28.047 -10.193 -37.346  0.00  0.00    +0.000 C 
ATOM      6  C9  UNL     1      29.243 -10.006 -36.624  0.00  0.00    +0.000 C 
ATOM      7  C10 UNL     1      29.137  -9.450 -35.355  0.00  0.00    +0.000 A 
ATOM      8  C11 UNL     1      27.920  -9.100 -34.808  0.00  0.00    +0.000 A 
ATOM      9  N4  UNL     1      28.068  -8.631 -33.545  0.00  0.00    +0.000 N 
ATOM     10  C12 UNL     1      29.395  -8.677 -33.311  0.00  0.00    +0.000 A 
ATOM     11  C13 UNL     1      30.061  -8.279 -32.152  0.00  0.00    +0.000 C 
ATOM     12  C14 UNL     1      31.466  -8.386 -32.127  0.00  0.00    +0.000 C 
ATOM     13  C15 UNL     1      32.169  -8.883 -33.249  0.00  0.00    +0.000 C 
ATOM     14  C16 UNL     1      31.476  -9.287 -34.406  0.00  0.00    +0.000 C 
ATOM     15  C17 UNL     1      30.085  -9.167 -34.402  0.00  0.00    +0.000 A 
ATOM     16  C18 UNL     1      26.741  -9.277 -35.541  0.00  0.00    +0.000 C 
ATOM     17  N5  UNL     1      26.846  -9.828 -36.788  0.00  0.00    +0.000 NA
ATOM     18  H10 UNL     1      27.327  -8.319 -32.879  0.00  0.00    +0.000 HD
BRANCH  16  19
ATOM     19  C19 UNL     1      25.404  -8.941 -35.003  0.00  0.00    +0.000 C 
ATOM     20  C20 UNL     1      24.515  -8.179 -35.780  0.00  0.00    +0.000 C 
ATOM     21  C21 UNL     1      23.244  -7.859 -35.290  0.00  0.00    +0.000 C 
ATOM     22  C22 UNL     1      22.858  -8.283 -34.015  0.00  0.00    +0.000 C 
ATOM     23  C23 UNL     1      23.749  -9.015 -33.223  0.00  0.00    +0.000 C 
ATOM     24  C24 UNL     1      25.021  -9.337 -33.709  0.00  0.00    +0.000 C 
ENDBRANCH  16  19
ENDBRANCH   2   5
BRANCH   1  25
ATOM     25  N2  UNL     1      29.067 -10.937 -40.938  0.00  0.00    +0.000 N 
ATOM     26  H7  UNL     1      28.722 -11.919 -41.037  0.00  0.00    +0.000 HD
BRANCH  25  27
ATOM     27  C6  UNL     1      29.617 -10.261 -42.076  0.00  0.00    +0.000 C 
ATOM     28  S1  UNL     1      30.662 -11.046 -43.077  0.00  0.00    +0.000 S 
BRANCH  27  29
ATOM     29  N1  UNL     1      29.343  -8.864 -42.265  0.00  0.00    +0.000 N 
ATOM     30  H6  UNL     1      29.966  -8.170 -41.794  0.00  0.00    +0.000 HD
BRANCH  29  34
ATOM     31  C2  UNL     1      26.288  -7.396 -44.829  0.00  0.00    +0.000 C 
ATOM     32  C3  UNL     1      27.635  -7.263 -45.181  0.00  0.00    +0.000 C 
ATOM     33  C4  UNL     1      28.638  -7.745 -44.337  0.00  0.00    +0.000 C 
ATOM     34  C5  UNL     1      28.306  -8.376 -43.129  0.00  0.00    +0.000 C 
ATOM     35  C25 UNL     1      26.956  -8.545 -42.773  0.00  0.00    +0.000 C 
ATOM     36  C27 UNL     1      25.950  -8.048 -43.627  0.00  0.00    +0.000 C 
BRANCH  31  38
ATOM     37  C1  UNL     1      23.990  -7.363 -45.820  0.00  0.00    +0.000 C 
ATOM     38  O1  UNL     1      25.322  -6.870 -45.701  0.00  0.00    +0.000 OA
ENDBRANCH  31  38
BRANCH  35  39
ATOM     39  O3  UNL     1      26.655  -9.193 -41.565  0.00  0.00    +0.000 OA
ATOM     40  C26 UNL     1      25.501  -9.997 -41.344  0.00  0.00    +0.000 C 
ENDBRANCH  35  39
ENDBRANCH  29  34
ENDBRANCH  27  29
ENDBRANCH  25  27
ENDBRANCH   1  25
TORSDOF 8
