REMARK  Name = resultss/4CJN/ligands/lig_100_t0.pdb
REMARK  10 active torsions:
REMARK  status: ('A' for Active; 'I' for Inactive)
REMARK    1  A    between atoms: C6_6  and  C8_29
REMARK    2  A    between atoms: C15_8  and  O3_39
REMARK    3  A    between atoms: C26_13  and  C27_14
REMARK    4  A    between atoms: C28_15  and  C29_16
REMARK    5  A    between atoms: C32_19  and  C33_23
REMARK    6  A    between atoms: C8_29  and  O1_30
REMARK    7  A    between atoms: O1_30  and  C9_31
REMARK    8  A    between atoms: C9_31  and  C10_33
REMARK    9  A    between atoms: O3_39  and  C16_40
REMARK   10  A    between atoms: C16_40  and  C17_42
REMARK                            x       y       z     vdW  Elec       q    Type
REMARK                         _______ _______ _______ _____ _____    ______ ____
ROOT
ATOM      1  C1  UNL     1      28.241  -7.049 -45.640  0.00  0.00    +0.000 C 
ATOM      2  C2  UNL     1      27.565  -7.081 -44.478  0.00  0.00    +0.000 C 
ATOM      3  C3  UNL     1      26.612  -5.927 -44.177  0.00  0.00    +0.000 C 
ATOM      4  C4  UNL     1      25.529  -6.179 -43.094  0.00  0.00    +0.000 C 
ATOM      5  C5  UNL     1      25.418  -7.668 -42.678  0.00  0.00    +0.000 C 
ATOM      6  C6  UNL     1      24.190  -8.116 -41.735  0.00  0.00    +0.000 C 
ATOM      7  C7  UNL     1      23.520  -9.401 -42.326  0.00  0.00    +0.000 C 
ATOM      8  C15 UNL     1      24.683  -8.506 -40.299  0.00  0.00    +0.000 C 
ATOM      9  C22 UNL     1      25.893  -9.480 -40.263  0.00  0.00    +0.000 C 
ATOM     10  C23 UNL     1      26.746  -9.527 -41.543  0.00  0.00    +0.000 C 
ATOM     11  C24 UNL     1      26.858  -8.157 -42.247  0.00  0.00    +0.000 C 
ATOM     12  C25 UNL     1      27.608  -7.167 -41.293  0.00  0.00    +0.000 C 
ATOM     13  C26 UNL     1      27.689  -8.309 -43.567  0.00  0.00    +0.000 C 
ENDROOT
BRANCH  13  14
ATOM     14  C27 UNL     1      29.130  -8.735 -43.321  0.00  0.00    +0.000 C 
ATOM     15  C28 UNL     1      29.508 -10.012 -43.174  0.00  0.00    +0.000 C 
BRANCH  15  16
ATOM     16  C29 UNL     1      30.896 -10.394 -42.857  0.00  0.00    +0.000 C 
ATOM     17  C30 UNL     1      31.704 -11.025 -43.702  0.00  0.00    +0.000 C 
ATOM     18  C31 UNL     1      32.981 -11.263 -43.012  0.00  0.00    +0.000 C 
ATOM     19  C32 UNL     1      34.065 -11.895 -43.479  0.00  0.00    +0.000 C 
ATOM     20  O5  UNL     1      32.922 -10.707 -41.741  0.00  0.00    +0.000 OA
ATOM     21  C39 UNL     1      31.650 -10.173 -41.621  0.00  0.00    +0.000 C 
ATOM     22  O6  UNL     1      31.249  -9.549 -40.604  0.00  0.00    +0.000 OA
BRANCH  19  23
ATOM     23  C33 UNL     1      34.139 -12.569 -44.792  0.00  0.00    +0.000 C 
ATOM     24  C34 UNL     1      34.273 -11.787 -45.952  0.00  0.00    +0.000 C 
ATOM     25  C35 UNL     1      34.380 -12.396 -47.207  0.00  0.00    +0.000 C 
ATOM     26  C36 UNL     1      34.375 -13.788 -47.313  0.00  0.00    +0.000 C 
ATOM     27  C37 UNL     1      34.276 -14.576 -46.162  0.00  0.00    +0.000 C 
ATOM     28  C38 UNL     1      34.172 -13.971 -44.905  0.00  0.00    +0.000 C 
ENDBRANCH  19  23
ENDBRANCH  15  16
ENDBRANCH  13  14
BRANCH   6  29
ATOM     29  C8  UNL     1      23.052  -7.018 -41.581  0.00  0.00    +0.000 C 
BRANCH  29  30
ATOM     30  O1  UNL     1      22.614  -6.421 -42.808  0.00  0.00    +0.000 OA
BRANCH  30  31
ATOM     31  C9  UNL     1      21.809  -7.025 -43.784  0.00  0.00    +0.000 C 
ATOM     32  O2  UNL     1      20.735  -7.600 -43.465  0.00  0.00    +0.000 OA
BRANCH  31  33
ATOM     33  C10 UNL     1      22.215  -6.960 -45.204  0.00  0.00    +0.000 C 
ATOM     34  C11 UNL     1      23.461  -7.455 -45.626  0.00  0.00    +0.000 C 
ATOM     35  C12 UNL     1      23.828  -7.375 -46.972  0.00  0.00    +0.000 C 
ATOM     36  C13 UNL     1      22.947  -6.804 -47.890  0.00  0.00    +0.000 C 
ATOM     37  N1  UNL     1      21.744  -6.330 -47.473  0.00  0.00    +0.000 NA
ATOM     38  C14 UNL     1      21.362  -6.393 -46.168  0.00  0.00    +0.000 C 
ENDBRANCH  31  33
ENDBRANCH  30  31
ENDBRANCH  29  30
ENDBRANCH   6  29
BRANCH   8  39
ATOM     39  O3  UNL     1      24.954  -7.329 -39.533  0.00  0.00    +0.000 OA
BRANCH  39  40
ATOM     40  C16 UNL     1      24.337  -7.037 -38.310  0.00  0.00    +0.000 C 
ATOM     41  O4  UNL     1      23.420  -6.173 -38.252  0.00  0.00    +0.000 OA
BRANCH  40  42
ATOM     42  C17 UNL     1      24.773  -7.738 -37.084  0.00  0.00    +0.000 C 
ATOM     43  C18 UNL     1      25.991  -8.438 -37.044  0.00  0.00    +0.000 C 
ATOM     44  C19 UNL     1      26.378  -9.104 -35.881  0.00  0.00    +0.000 C 
ATOM     45  C20 UNL     1      25.547  -9.064 -34.761  0.00  0.00    +0.000 C 
ATOM     46  N2  UNL     1      24.372  -8.382 -34.808  0.00  0.00    +0.000 NA
ATOM     47  C21 UNL     1      23.970  -7.727 -35.930  0.00  0.00    +0.000 C 
ENDBRANCH  40  42
ENDBRANCH  39  40
ENDBRANCH   8  39
TORSDOF 10
