REMARK  Name = resultss/4CJN/ligands/lig_185_t2.pdb
REMARK  4 active torsions:
REMARK  status: ('A' for Active; 'I' for Inactive)
REMARK    1  A    between atoms: C9_1  and  C1_17
REMARK    2  A    between atoms: C12_4  and  C13_7
REMARK    3  A    between atoms: N1_18  and  N2_20
REMARK    4  A    between atoms: C2_21  and  C3_22
REMARK                            x       y       z     vdW  Elec       q    Type
REMARK                         _______ _______ _______ _____ _____    ______ ____
ROOT
ATOM      1  C9  UNL     1      25.113  -9.168 -40.946  0.00  0.00    +0.000 C 
ATOM      2  C10 UNL     1      24.951  -8.343 -39.819  0.00  0.00    +0.000 C 
ATOM      3  C11 UNL     1      25.839  -8.427 -38.743  0.00  0.00    +0.000 C 
ATOM      4  C12 UNL     1      26.913  -9.333 -38.771  0.00  0.00    +0.000 C 
ATOM      5  C20 UNL     1      27.080 -10.150 -39.902  0.00  0.00    +0.000 C 
ATOM      6  C21 UNL     1      26.192 -10.068 -40.977  0.00  0.00    +0.000 C 
ENDROOT
BRANCH   4   7
ATOM      7  C13 UNL     1      27.849  -9.413 -37.626  0.00  0.00    +0.000 A 
ATOM      8  N3  UNL     1      27.436  -9.515 -36.336  0.00  0.00    +0.000 NA
ATOM      9  C14 UNL     1      28.489  -9.572 -35.480  0.00  0.00    +0.000 A 
ATOM     10  C15 UNL     1      28.374  -9.680 -34.093  0.00  0.00    +0.000 C 
ATOM     11  C16 UNL     1      29.548  -9.731 -33.321  0.00  0.00    +0.000 C 
ATOM     12  C17 UNL     1      30.813  -9.674 -33.939  0.00  0.00    +0.000 C 
ATOM     13  C18 UNL     1      30.916  -9.566 -35.335  0.00  0.00    +0.000 C 
ATOM     14  C19 UNL     1      29.738  -9.519 -36.076  0.00  0.00    +0.000 A 
ATOM     15  S1  UNL     1      29.545  -9.393 -37.736  0.00  0.00    +0.000 S 
ENDBRANCH   4   7
BRANCH   1  17
ATOM     16  O1  UNL     1      24.104 -10.011 -42.923  0.00  0.00    +0.000 OA
ATOM     17  C1  UNL     1      24.168  -9.069 -42.086  0.00  0.00    +0.000 C 
ATOM     18  N1  UNL     1      23.361  -7.894 -42.276  0.00  0.00    +0.000 N 
ATOM     19  H1  UNL     1      23.727  -6.979 -41.930  0.00  0.00    +0.000 HD
BRANCH  18  20
ATOM     20  N2  UNL     1      22.214  -7.868 -43.092  0.00  0.00    +0.000 NA
ATOM     21  C2  UNL     1      21.537  -6.787 -43.346  0.00  0.00    +0.000 C 
BRANCH  21  22
ATOM     22  C3  UNL     1      20.326  -6.822 -44.198  0.00  0.00    +0.000 C 
ATOM     23  C4  UNL     1      19.106  -7.024 -43.667  0.00  0.00    +0.000 C 
ATOM     24  C5  UNL     1      17.893  -6.998 -44.505  0.00  0.00    +0.000 C 
ATOM     25  O2  UNL     1      16.778  -7.289 -44.000  0.00  0.00    +0.000 OA
ATOM     26  C6  UNL     1      17.973  -6.540 -45.934  0.00  0.00    +0.000 C 
ATOM     27  C7  UNL     1      19.302  -6.958 -46.572  0.00  0.00    +0.000 C 
ATOM     28  C8  UNL     1      20.461  -6.646 -45.667  0.00  0.00    +0.000 C 
ATOM     29  O3  UNL     1      21.563  -6.299 -46.170  0.00  0.00    +0.000 OA
ENDBRANCH  21  22
ENDBRANCH  18  20
ENDBRANCH   1  17
TORSDOF 4
