REMARK  Name = resultss/4CJN/ligands/lig_426_t0.pdb
REMARK  7 active torsions:
REMARK  status: ('A' for Active; 'I' for Inactive)
REMARK    1  A    between atoms: C8_1  and  C7_22
REMARK    2  A    between atoms: C18_12  and  C19_15
REMARK    3  A    between atoms: N3_21  and  N2_25
REMARK    4  A    between atoms: N2_25  and  C6_27
REMARK    5  A    between atoms: C6_27  and  N1_29
REMARK    6  A    between atoms: N1_29  and  C5_34
REMARK    7  A    between atoms: C2_31  and  O1_38
REMARK                            x       y       z     vdW  Elec       q    Type
REMARK                         _______ _______ _______ _____ _____    ______ ____
ROOT
ATOM      1  C8  UNL     1      26.475  -9.746 -41.132  0.00  0.00    +0.000 C 
ATOM      2  C9  UNL     1      26.275  -9.646 -39.739  0.00  0.00    +0.000 C 
ATOM      3  C10 UNL     1      27.383  -9.844 -38.923  0.00  0.00    +0.000 A 
ATOM      4  C11 UNL     1      28.629 -10.131 -39.435  0.00  0.00    +0.000 A 
ATOM      5  N4  UNL     1      29.558 -10.215 -38.452  0.00  0.00    +0.000 N 
ATOM      6  C12 UNL     1      28.873  -9.994 -37.309  0.00  0.00    +0.000 A 
ATOM      7  C13 UNL     1      29.385  -9.963 -36.013  0.00  0.00    +0.000 C 
ATOM      8  C14 UNL     1      28.494  -9.694 -34.958  0.00  0.00    +0.000 C 
ATOM      9  C15 UNL     1      27.125  -9.458 -35.217  0.00  0.00    +0.000 C 
ATOM     10  C16 UNL     1      26.631  -9.489 -36.533  0.00  0.00    +0.000 C 
ATOM     11  C17 UNL     1      27.536  -9.764 -37.557  0.00  0.00    +0.000 A 
ATOM     12  C18 UNL     1      28.811 -10.243 -40.819  0.00  0.00    +0.000 C 
ATOM     13  N5  UNL     1      27.723 -10.035 -41.621  0.00  0.00    +0.000 NA
ATOM     14  H10 UNL     1      30.585 -10.376 -38.544  0.00  0.00    +0.000 HD
ENDROOT
BRANCH  12  15
ATOM     15  C19 UNL     1      30.115 -10.566 -41.436  0.00  0.00    +0.000 C 
ATOM     16  C20 UNL     1      31.248  -9.799 -41.115  0.00  0.00    +0.000 C 
ATOM     17  C21 UNL     1      32.482 -10.079 -41.710  0.00  0.00    +0.000 C 
ATOM     18  C22 UNL     1      32.592 -11.115 -42.641  0.00  0.00    +0.000 C 
ATOM     19  C23 UNL     1      31.466 -11.868 -42.984  0.00  0.00    +0.000 C 
ATOM     20  C24 UNL     1      30.231 -11.593 -42.391  0.00  0.00    +0.000 C 
ENDBRANCH  12  15
BRANCH   1  22
ATOM     21  N3  UNL     1      24.101  -9.009 -41.607  0.00  0.00    +0.000 N 
ATOM     22  C7  UNL     1      25.356  -9.532 -42.074  0.00  0.00    +0.000 C 
ATOM     23  O2  UNL     1      25.507  -9.792 -43.299  0.00  0.00    +0.000 OA
ATOM     24  H8  UNL     1      24.074  -8.507 -40.691  0.00  0.00    +0.000 HD
BRANCH  21  25
ATOM     25  N2  UNL     1      22.967  -8.933 -42.434  0.00  0.00    +0.000 N 
ATOM     26  H7  UNL     1      22.489  -9.821 -42.703  0.00  0.00    +0.000 HD
BRANCH  25  27
ATOM     27  C6  UNL     1      22.540  -7.712 -43.060  0.00  0.00    +0.000 C 
ATOM     28  S1  UNL     1      20.939  -7.374 -43.186  0.00  0.00    +0.000 S 
BRANCH  27  29
ATOM     29  N1  UNL     1      23.490  -6.668 -43.326  0.00  0.00    +0.000 N 
ATOM     30  H6  UNL     1      23.517  -5.851 -42.675  0.00  0.00    +0.000 HD
BRANCH  29  34
ATOM     31  C2  UNL     1      26.276  -6.677 -46.545  0.00  0.00    +0.000 C 
ATOM     32  C3  UNL     1      24.927  -6.966 -46.784  0.00  0.00    +0.000 C 
ATOM     33  C4  UNL     1      24.005  -6.968 -45.734  0.00  0.00    +0.000 C 
ATOM     34  C5  UNL     1      24.422  -6.694 -44.419  0.00  0.00    +0.000 C 
ATOM     35  C25 UNL     1      25.769  -6.384 -44.183  0.00  0.00    +0.000 C 
ATOM     36  C26 UNL     1      26.693  -6.382 -45.233  0.00  0.00    +0.000 C 
BRANCH  31  38
ATOM     37  C1  UNL     1      26.768  -6.565 -48.994  0.00  0.00    +0.000 C 
ATOM     38  O1  UNL     1      27.163  -6.690 -47.631  0.00  0.00    +0.000 OA
ENDBRANCH  31  38
ENDBRANCH  29  34
ENDBRANCH  27  29
ENDBRANCH  25  27
ENDBRANCH  21  25
ENDBRANCH   1  22
TORSDOF 7
