REMARK  Name = resultss/4CJN/ligands/lig_162_t2.pdb
REMARK  4 active torsions:
REMARK  status: ('A' for Active; 'I' for Inactive)
REMARK    1  A    between atoms: C8_1  and  C1_17
REMARK    2  A    between atoms: C11_4  and  C12_7
REMARK    3  A    between atoms: C1_17  and  N1_18
REMARK    4  A    between atoms: N2_19  and  C2_20
REMARK                            x       y       z     vdW  Elec       q    Type
REMARK                         _______ _______ _______ _____ _____    ______ ____
ROOT
ATOM      1  C8  UNL     1      28.526  -9.328 -42.333  0.00  0.00    +0.000 C 
ATOM      2  C9  UNL     1      28.455  -8.390 -43.379  0.00  0.00    +0.000 C 
ATOM      3  C10 UNL     1      27.216  -7.932 -43.840  0.00  0.00    +0.000 C 
ATOM      4  C11 UNL     1      26.022  -8.400 -43.267  0.00  0.00    +0.000 C 
ATOM      5  C19 UNL     1      26.093  -9.335 -42.220  0.00  0.00    +0.000 C 
ATOM      6  C20 UNL     1      27.331  -9.794 -41.759  0.00  0.00    +0.000 C 
ENDROOT
BRANCH   4   7
ATOM      7  C12 UNL     1      24.716  -7.908 -43.764  0.00  0.00    +0.000 A 
ATOM      8  N4  UNL     1      23.599  -7.860 -42.993  0.00  0.00    +0.000 NA
ATOM      9  C13 UNL     1      22.539  -7.370 -43.686  0.00  0.00    +0.000 A 
ATOM     10  C14 UNL     1      21.258  -7.205 -43.155  0.00  0.00    +0.000 C 
ATOM     11  C15 UNL     1      20.246  -6.687 -43.983  0.00  0.00    +0.000 C 
ATOM     12  C16 UNL     1      20.525  -6.342 -45.321  0.00  0.00    +0.000 C 
ATOM     13  C17 UNL     1      21.817  -6.514 -45.843  0.00  0.00    +0.000 C 
ATOM     14  C18 UNL     1      22.800  -7.029 -45.003  0.00  0.00    +0.000 A 
ATOM     15  S1  UNL     1      24.412  -7.341 -45.337  0.00  0.00    +0.000 S 
ENDBRANCH   4   7
BRANCH   1  17
ATOM     16  O1  UNL     1      30.680  -8.985 -41.397  0.00  0.00    +0.000 OA
ATOM     17  C1  UNL     1      29.839  -9.810 -41.844  0.00  0.00    +0.000 C 
BRANCH  17  18
ATOM     18  N1  UNL     1      30.180 -11.203 -41.962  0.00  0.00    +0.000 NA
ATOM     19  N2  UNL     1      30.983 -11.719 -42.813  0.00  0.00    +0.000 NA
BRANCH  19  20
ATOM     20  C2  UNL     1      31.800 -10.994 -43.743  0.00  0.00    +0.000 C 
ATOM     21  C3  UNL     1      32.498 -11.637 -44.688  0.00  0.00    +0.000 C 
ATOM     22  C4  UNL     1      33.368 -10.885 -45.616  0.00  0.00    +0.000 C 
ATOM     23  C5  UNL     1      34.056 -11.538 -46.557  0.00  0.00    +0.000 C 
ATOM     24  C6  UNL     1      33.965 -13.007 -46.687  0.00  0.00    +0.000 C 
ATOM     25  C7  UNL     1      33.186 -13.719 -45.865  0.00  0.00    +0.000 C 
ATOM     26  N3  UNL     1      32.425 -13.067 -44.839  0.00  0.00    +0.000 N 
ATOM     27  H6  UNL     1      31.825 -13.652 -44.215  0.00  0.00    +0.000 HD
ENDBRANCH  19  20
ENDBRANCH  17  18
ENDBRANCH   1  17
TORSDOF 4
