REMARK  Name = resultss/4CJN/ligands/lig_428_t0.pdb
REMARK  8 active torsions:
REMARK  status: ('A' for Active; 'I' for Inactive)
REMARK    1  A    between atoms: C9_1  and  C8_22
REMARK    2  A    between atoms: C19_12  and  C20_15
REMARK    3  A    between atoms: N3_21  and  N2_25
REMARK    4  A    between atoms: N2_25  and  C7_27
REMARK    5  A    between atoms: C7_27  and  N1_29
REMARK    6  A    between atoms: N1_29  and  C6_34
REMARK    7  A    between atoms: C3_31  and  O1_37
REMARK    8  A    between atoms: O1_37  and  C2_39
REMARK                            x       y       z     vdW  Elec       q    Type
REMARK                         _______ _______ _______ _____ _____    ______ ____
ROOT
ATOM      1  C9  UNL     1      27.382  -9.343 -38.592  0.00  0.00    +0.000 C 
ATOM      2  C10 UNL     1      27.040  -9.429 -37.226  0.00  0.00    +0.000 C 
ATOM      3  C11 UNL     1      25.796  -8.935 -36.848  0.00  0.00    +0.000 A 
ATOM      4  C12 UNL     1      24.919  -8.389 -37.760  0.00  0.00    +0.000 A 
ATOM      5  N4  UNL     1      23.805  -7.918 -37.148  0.00  0.00    +0.000 N 
ATOM      6  C13 UNL     1      23.988  -8.192 -35.838  0.00  0.00    +0.000 A 
ATOM      7  C14 UNL     1      23.125  -7.887 -34.786  0.00  0.00    +0.000 C 
ATOM      8  C15 UNL     1      23.523  -8.241 -33.483  0.00  0.00    +0.000 C 
ATOM      9  C16 UNL     1      24.763  -8.881 -33.260  0.00  0.00    +0.000 C 
ATOM     10  C17 UNL     1      25.621  -9.173 -34.336  0.00  0.00    +0.000 C 
ATOM     11  C18 UNL     1      25.197  -8.816 -35.616  0.00  0.00    +0.000 A 
ATOM     12  C19 UNL     1      25.262  -8.323 -39.117  0.00  0.00    +0.000 C 
ATOM     13  N5  UNL     1      26.493  -8.795 -39.482  0.00  0.00    +0.000 NA
ATOM     14  H12 UNL     1      22.995  -7.417 -37.575  0.00  0.00    +0.000 HD
ENDROOT
BRANCH  12  15
ATOM     15  C20 UNL     1      24.363  -7.764 -40.147  0.00  0.00    +0.000 C 
ATOM     16  C21 UNL     1      23.838  -6.464 -40.023  0.00  0.00    +0.000 C 
ATOM     17  C22 UNL     1      22.975  -5.956 -40.998  0.00  0.00    +0.000 C 
ATOM     18  C23 UNL     1      22.616  -6.743 -42.096  0.00  0.00    +0.000 C 
ATOM     19  C24 UNL     1      23.114  -8.044 -42.215  0.00  0.00    +0.000 C 
ATOM     20  C25 UNL     1      23.978  -8.555 -41.242  0.00  0.00    +0.000 C 
ENDBRANCH  12  15
BRANCH   1  22
ATOM     21  N3  UNL     1      28.778 -10.628 -40.267  0.00  0.00    +0.000 N 
ATOM     22  C8  UNL     1      28.691  -9.829 -39.077  0.00  0.00    +0.000 C 
ATOM     23  O2  UNL     1      29.739  -9.558 -38.428  0.00  0.00    +0.000 OA
ATOM     24  H10 UNL     1      27.919 -11.104 -40.616  0.00  0.00    +0.000 HD
BRANCH  21  25
ATOM     25  N2  UNL     1      30.013 -10.992 -40.835  0.00  0.00    +0.000 N 
ATOM     26  H9  UNL     1      30.476 -11.866 -40.496  0.00  0.00    +0.000 HD
BRANCH  25  27
ATOM     27  C7  UNL     1      30.602 -10.289 -41.939  0.00  0.00    +0.000 C 
ATOM     28  S1  UNL     1      29.642  -9.454 -42.981  0.00  0.00    +0.000 S 
BRANCH  27  29
ATOM     29  N1  UNL     1      31.966 -10.574 -42.294  0.00  0.00    +0.000 N 
ATOM     30  H8  UNL     1      32.718 -10.222 -41.661  0.00  0.00    +0.000 HD
BRANCH  29  34
ATOM     31  C3  UNL     1      33.100 -12.661 -45.828  0.00  0.00    +0.000 C 
ATOM     32  C4  UNL     1      32.333 -13.301 -44.848  0.00  0.00    +0.000 C 
ATOM     33  C5  UNL     1      31.961 -12.628 -43.681  0.00  0.00    +0.000 C 
ATOM     34  C6  UNL     1      32.359 -11.296 -43.474  0.00  0.00    +0.000 C 
ATOM     35  C26 UNL     1      33.099 -10.642 -44.468  0.00  0.00    +0.000 C 
ATOM     36  C27 UNL     1      33.477 -11.317 -45.633  0.00  0.00    +0.000 C 
BRANCH  31  37
ATOM     37  O1  UNL     1      33.452 -13.392 -46.975  0.00  0.00    +0.000 OA
BRANCH  37  39
ATOM     38  C1  UNL     1      34.240 -15.443 -48.016  0.00  0.00    +0.000 C 
ATOM     39  C2  UNL     1      33.132 -14.763 -47.218  0.00  0.00    +0.000 C 
ENDBRANCH  37  39
ENDBRANCH  31  37
ENDBRANCH  29  34
ENDBRANCH  27  29
ENDBRANCH  25  27
ENDBRANCH  21  25
ENDBRANCH   1  22
TORSDOF 8
