REMARK  Name = resultss/4CJN/ligands/lig_429_t1.pdb
REMARK  7 active torsions:
REMARK  status: ('A' for Active; 'I' for Inactive)
REMARK    1  A    between atoms: C1_2  and  C15_5
REMARK    2  A    between atoms: N1_3  and  N2_25
REMARK    3  A    between atoms: C25_16  and  C26_19
REMARK    4  A    between atoms: C2_26  and  S1_42
REMARK    5  A    between atoms: N3_27  and  C3_29
REMARK    6  A    between atoms: C6_32  and  O2_35
REMARK    7  A    between atoms: O2_35  and  C7_36
REMARK                            x       y       z     vdW  Elec       q    Type
REMARK                         _______ _______ _______ _____ _____    ______ ____
ROOT
ATOM      1  O1  UNL     1      24.948  -9.180 -39.211  0.00  0.00    +0.000 OA
ATOM      2  C1  UNL     1      26.003  -8.599 -38.836  0.00  0.00    +0.000 C 
ATOM      3  N1  UNL     1      26.782  -7.859 -39.789  0.00  0.00    +0.000 N 
ATOM      4  H1  UNL     1      27.461  -7.146 -39.440  0.00  0.00    +0.000 HD
ENDROOT
BRANCH   2   5
ATOM      5  C15 UNL     1      26.416  -8.669 -37.418  0.00  0.00    +0.000 C 
ATOM      6  C16 UNL     1      27.746  -8.987 -37.069  0.00  0.00    +0.000 C 
ATOM      7  C17 UNL     1      28.057  -9.020 -35.715  0.00  0.00    +0.000 A 
ATOM      8  C18 UNL     1      27.118  -8.762 -34.741  0.00  0.00    +0.000 A 
ATOM      9  N4  UNL     1      27.671  -8.789 -33.504  0.00  0.00    +0.000 N 
ATOM     10  C19 UNL     1      28.972  -9.086 -33.715  0.00  0.00    +0.000 A 
ATOM     11  C20 UNL     1      29.973  -9.213 -32.753  0.00  0.00    +0.000 C 
ATOM     12  C21 UNL     1      31.277  -9.506 -33.193  0.00  0.00    +0.000 C 
ATOM     13  C22 UNL     1      31.553  -9.661 -34.571  0.00  0.00    +0.000 C 
ATOM     14  C23 UNL     1      30.528  -9.523 -35.524  0.00  0.00    +0.000 C 
ATOM     15  C24 UNL     1      29.246  -9.237 -35.059  0.00  0.00    +0.000 A 
ATOM     16  C25 UNL     1      25.797  -8.461 -35.099  0.00  0.00    +0.000 C 
ATOM     17  N5  UNL     1      25.496  -8.415 -36.432  0.00  0.00    +0.000 NA
ATOM     18  H14 UNL     1      27.216  -8.586 -32.588  0.00  0.00    +0.000 HD
BRANCH  16  19
ATOM     19  C26 UNL     1      24.739  -8.189 -34.105  0.00  0.00    +0.000 C 
ATOM     20  C27 UNL     1      24.202  -9.245 -33.350  0.00  0.00    +0.000 C 
ATOM     21  C28 UNL     1      23.216  -8.997 -32.391  0.00  0.00    +0.000 C 
ATOM     22  C29 UNL     1      22.769  -7.693 -32.167  0.00  0.00    +0.000 C 
ATOM     23  C30 UNL     1      23.313  -6.633 -32.898  0.00  0.00    +0.000 C 
ATOM     24  C31 UNL     1      24.298  -6.877 -33.858  0.00  0.00    +0.000 C 
ENDBRANCH  16  19
ENDBRANCH   2   5
BRANCH   3  25
ATOM     25  N2  UNL     1      26.418  -7.814 -41.144  0.00  0.00    +0.000 NA
ATOM     26  C2  UNL     1      26.767  -8.721 -42.010  0.00  0.00    +0.000 C 
ATOM     27  N3  UNL     1      26.330  -8.623 -43.373  0.00  0.00    +0.000 N 
ATOM     28  H3  UNL     1      26.910  -9.101 -44.099  0.00  0.00    +0.000 HD
BRANCH  27  29
ATOM     29  C3  UNL     1      25.158  -7.906 -43.806  0.00  0.00    +0.000 C 
ATOM     30  C4  UNL     1      25.213  -7.149 -44.987  0.00  0.00    +0.000 C 
ATOM     31  C5  UNL     1      24.081  -6.472 -45.449  0.00  0.00    +0.000 C 
ATOM     32  C6  UNL     1      22.867  -6.561 -44.748  0.00  0.00    +0.000 C 
ATOM     33  C13 UNL     1      22.810  -7.311 -43.569  0.00  0.00    +0.000 C 
ATOM     34  C14 UNL     1      23.939  -7.995 -43.109  0.00  0.00    +0.000 C 
BRANCH  32  35
ATOM     35  O2  UNL     1      21.716  -5.884 -45.174  0.00  0.00    +0.000 OA
BRANCH  35  36
ATOM     36  C7  UNL     1      20.552  -6.493 -45.667  0.00  0.00    +0.000 C 
ATOM     37  C8  UNL     1      20.551  -6.970 -46.985  0.00  0.00    +0.000 C 
ATOM     38  C9  UNL     1      19.403  -7.561 -47.522  0.00  0.00    +0.000 C 
ATOM     39  C10 UNL     1      18.243  -7.669 -46.748  0.00  0.00    +0.000 C 
ATOM     40  C11 UNL     1      18.230  -7.184 -45.438  0.00  0.00    +0.000 C 
ATOM     41  C12 UNL     1      19.377  -6.593 -44.898  0.00  0.00    +0.000 C 
ENDBRANCH  35  36
ENDBRANCH  32  35
ENDBRANCH  27  29
BRANCH  26  42
ATOM     42  S1  UNL     1      27.924 -10.026 -41.573  0.00  0.00    +0.000 S 
ATOM     43  H2  UNL     1      27.752 -10.674 -42.809  0.00  0.00    +0.000 HD
ENDBRANCH  26  42
ENDBRANCH   3  25
TORSDOF 7
