REMARK  Name = resultss/4CJN/ligands/lig_341_t1.pdb
REMARK  12 active torsions:
REMARK  status: ('A' for Active; 'I' for Inactive)
REMARK    1  A    between atoms: C12_1  and  O2_29
REMARK    2  A    between atoms: C15_4  and  C16_7
REMARK    3  A    between atoms: C31_6  and  O4_27
REMARK    4  A    between atoms: N4_17  and  N5_19
REMARK    5  A    between atoms: N5_19  and  C24_21
REMARK    6  A    between atoms: O2_29  and  C11_30
REMARK    7  A    between atoms: C11_30  and  C10_33
REMARK    8  A    between atoms: N2_31  and  C8_36
REMARK    9  A    between atoms: C8_36  and  C7_38
REMARK   10  A    between atoms: N1_37  and  C6_42
REMARK   11  A    between atoms: C7_38  and  O1_47
REMARK   12  A    between atoms: C3_39  and  C2_46
REMARK                            x       y       z     vdW  Elec       q    Type
REMARK                         _______ _______ _______ _____ _____    ______ ____
ROOT
ATOM      1  C12 UNL     1      27.271  -9.646 -37.455  0.00  0.00    +0.000 C 
ATOM      2  C13 UNL     1      28.639  -9.923 -37.268  0.00  0.00    +0.000 C 
ATOM      3  C14 UNL     1      29.245  -9.678 -36.035  0.00  0.00    +0.000 C 
ATOM      4  C15 UNL     1      28.500  -9.155 -34.967  0.00  0.00    +0.000 C 
ATOM      5  C30 UNL     1      27.146  -8.849 -35.163  0.00  0.00    +0.000 C 
ATOM      6  C31 UNL     1      26.519  -9.116 -36.394  0.00  0.00    +0.000 C 
ENDROOT
BRANCH   4   7
ATOM      7  C16 UNL     1      29.168  -8.858 -33.641  0.00  0.00    +0.000 C 
ATOM      8  N3  UNL     1      29.953 -10.029 -33.231  0.00  0.00    +0.000 N 
ATOM      9  C17 UNL     1      31.134  -9.926 -32.424  0.00  0.00    +0.000 C 
ATOM     10  C18 UNL     1      31.702 -11.076 -31.856  0.00  0.00    +0.000 C 
ATOM     11  C19 UNL     1      32.846 -10.973 -31.059  0.00  0.00    +0.000 C 
ATOM     12  C20 UNL     1      33.430  -9.725 -30.830  0.00  0.00    +0.000 C 
ATOM     13  C21 UNL     1      32.877  -8.579 -31.403  0.00  0.00    +0.000 C 
ATOM     14  C22 UNL     1      31.728  -8.675 -32.208  0.00  0.00    +0.000 C 
ATOM     15  C23 UNL     1      31.144  -7.494 -32.863  0.00  0.00    +0.000 C 
ATOM     16  O3  UNL     1      31.644  -6.351 -32.676  0.00  0.00    +0.000 OA
ATOM     17  N4  UNL     1      30.011  -7.650 -33.737  0.00  0.00    +0.000 N 
ATOM     18  H17 UNL     1      29.527 -10.975 -33.367  0.00  0.00    +0.000 HD
BRANCH  17  19
ATOM     19  N5  UNL     1      29.527  -6.532 -34.448  0.00  0.00    +0.000 N 
ATOM     20  H22 UNL     1      28.847  -5.893 -33.975  0.00  0.00    +0.000 HD
BRANCH  19  21
ATOM     21  C24 UNL     1      29.791  -6.335 -35.851  0.00  0.00    +0.000 C 
ATOM     22  C25 UNL     1      28.725  -6.064 -36.724  0.00  0.00    +0.000 C 
ATOM     23  C26 UNL     1      28.955  -5.897 -38.094  0.00  0.00    +0.000 C 
ATOM     24  C27 UNL     1      30.251  -6.015 -38.605  0.00  0.00    +0.000 C 
ATOM     25  C28 UNL     1      31.318  -6.287 -37.746  0.00  0.00    +0.000 C 
ATOM     26  C29 UNL     1      31.092  -6.450 -36.375  0.00  0.00    +0.000 C 
ENDBRANCH  19  21
ENDBRANCH  17  19
ENDBRANCH   4   7
BRANCH   6  27
ATOM     27  O4  UNL     1      25.153  -8.868 -36.603  0.00  0.00    +0.000 OA
ATOM     28  C32 UNL     1      24.619  -7.633 -37.071  0.00  0.00    +0.000 C 
ENDBRANCH   6  27
BRANCH   1  29
ATOM     29  O2  UNL     1      26.622  -9.880 -38.677  0.00  0.00    +0.000 OA
BRANCH  29  30
ATOM     30  C11 UNL     1      27.283  -9.982 -39.936  0.00  0.00    +0.000 C 
BRANCH  30  33
ATOM     31  N2  UNL     1      24.541  -9.215 -42.187  0.00  0.00    +0.000 N 
ATOM     32  C9  UNL     1      25.009  -9.312 -40.932  0.00  0.00    +0.000 C 
ATOM     33  C10 UNL     1      26.295  -9.796 -41.043  0.00  0.00    +0.000 C 
ATOM     34  N6  UNL     1      26.576  -9.963 -42.352  0.00  0.00    +0.000 NA
ATOM     35  N7  UNL     1      25.488  -9.613 -43.023  0.00  0.00    +0.000 NA
BRANCH  31  36
ATOM     36  C8  UNL     1      23.209  -8.777 -42.588  0.00  0.00    +0.000 C 
BRANCH  36  38
ATOM     37  N1  UNL     1      23.412  -6.357 -43.043  0.00  0.00    +0.000 NA
ATOM     38  C7  UNL     1      23.024  -7.320 -42.257  0.00  0.00    +0.000 C 
BRANCH  37  42
ATOM     39  C3  UNL     1      25.670  -6.889 -46.598  0.00  0.00    +0.000 C 
ATOM     40  C4  UNL     1      26.295  -6.488 -45.407  0.00  0.00    +0.000 C 
ATOM     41  C5  UNL     1      25.542  -6.298 -44.244  0.00  0.00    +0.000 C 
ATOM     42  C6  UNL     1      24.157  -6.496 -44.260  0.00  0.00    +0.000 C 
ATOM     43  C33 UNL     1      23.538  -6.943 -45.435  0.00  0.00    +0.000 C 
ATOM     44  C34 UNL     1      24.288  -7.131 -46.600  0.00  0.00    +0.000 C 
BRANCH  39  46
ATOM     45  C1  UNL     1      27.669  -6.173 -47.905  0.00  0.00    +0.000 C 
ATOM     46  C2  UNL     1      26.483  -7.131 -47.841  0.00  0.00    +0.000 C 
ENDBRANCH  39  46
ENDBRANCH  37  42
BRANCH  38  47
ATOM     47  O1  UNL     1      22.339  -6.998 -41.088  0.00  0.00    +0.000 OA
ATOM     48  H8  UNL     1      22.005  -6.056 -40.919  0.00  0.00    +0.000 HD
ENDBRANCH  38  47
ENDBRANCH  36  38
ENDBRANCH  31  36
ENDBRANCH  30  33
ENDBRANCH  29  30
ENDBRANCH   1  29
TORSDOF 12
