REMARK  Name = resultss/4CJN/ligands/lig_260_t2.pdb
REMARK  17 active torsions:
REMARK  status: ('A' for Active; 'I' for Inactive)
REMARK    1  A    between atoms: C11_1  and  O2_34
REMARK    2  A    between atoms: C12_2  and  O3_27
REMARK    3  A    between atoms: C20_5  and  O5_25
REMARK    4  A    between atoms: C22_7  and  O6_23
REMARK    5  A    between atoms: C23_8  and  C24_46
REMARK    6  A    between atoms: C26_10  and  O8_21
REMARK    7  A    between atoms: O3_27  and  C13_28
REMARK    8  A    between atoms: C13_28  and  C14_30
REMARK    9  A    between atoms: C14_30  and  C16_32
REMARK   10  A    between atoms: O2_34  and  C10_35
REMARK   11  A    between atoms: C10_35  and  C9_37
REMARK   12  A    between atoms: C9_37  and  C8_38
REMARK   13  A    between atoms: C8_38  and  C7_40
REMARK   14  A    between atoms: C6_39  and  C5_41
REMARK   15  A    between atoms: C5_41  and  C4_43
REMARK   16  A    between atoms: C3_42  and  C2_45
REMARK   17  A    between atoms: C24_46  and  O7_47
REMARK                            x       y       z     vdW  Elec       q    Type
REMARK                         _______ _______ _______ _____ _____    ______ ____
ROOT
ATOM      1  C11 UNL     1      29.125  -8.197 -37.205  0.00  0.00    +0.000 C 
ATOM      2  C12 UNL     1      27.636  -7.777 -37.349  0.00  0.00    +0.000 C 
ATOM      3  C18 UNL     1      26.965  -8.115 -38.708  0.00  0.00    +0.000 C 
ATOM      4  C19 UNL     1      25.569  -7.461 -38.774  0.00  0.00    +0.000 C 
ATOM      5  C20 UNL     1      27.933  -7.774 -39.917  0.00  0.00    +0.000 C 
ATOM      6  C21 UNL     1      29.126  -8.739 -39.776  0.00  0.00    +0.000 C 
ATOM      7  C22 UNL     1      29.643  -9.650 -40.670  0.00  0.00    +0.000 C 
ATOM      8  C23 UNL     1      29.260  -9.887 -42.113  0.00  0.00    +0.000 C 
ATOM      9  C25 UNL     1      28.015  -9.807 -42.614  0.00  0.00    +0.000 C 
ATOM     10  C26 UNL     1      26.880  -9.236 -41.840  0.00  0.00    +0.000 C 
ATOM     11  C27 UNL     1      25.685  -8.906 -42.679  0.00  0.00    +0.000 C 
ATOM     12  O9  UNL     1      25.067  -9.731 -43.408  0.00  0.00    +0.000 OA
ATOM     13  C28 UNL     1      25.285  -7.529 -42.473  0.00  0.00    +0.000 C 
ATOM     14  C29 UNL     1      24.021  -6.908 -42.974  0.00  0.00    +0.000 C 
ATOM     15  C30 UNL     1      26.141  -6.937 -41.654  0.00  0.00    +0.000 C 
ATOM     16  C31 UNL     1      27.309  -7.833 -41.342  0.00  0.00    +0.000 C 
ATOM     17  C32 UNL     1      29.895  -8.587 -38.474  0.00  0.00    +0.000 C 
ATOM     18  C33 UNL     1      29.655  -9.642 -37.369  0.00  0.00    +0.000 C 
ATOM     19  C34 UNL     1      28.624 -10.774 -37.567  0.00  0.00    +0.000 C 
ATOM     20  C35 UNL     1      30.916 -10.016 -36.569  0.00  0.00    +0.000 C 
ENDROOT
BRANCH   5  21
ATOM     21  O5  UNL     1      28.461  -6.474 -39.746  0.00  0.00    +0.000 OA
ATOM     22  H30 UNL     1      28.411  -6.233 -38.786  0.00  0.00    +0.000 HD
ENDBRANCH   5  21
BRANCH   7  23
ATOM     23  O6  UNL     1      30.685 -10.455 -40.185  0.00  0.00    +0.000 OA
ATOM     24  H31 UNL     1      30.982 -10.459 -39.220  0.00  0.00    +0.000 HD
ENDBRANCH   7  23
BRANCH  10  25
ATOM     25  O8  UNL     1      26.494 -10.100 -40.804  0.00  0.00    +0.000 OA
ATOM     26  H36 UNL     1      26.888  -9.756 -39.960  0.00  0.00    +0.000 HD
ENDBRANCH  10  25
BRANCH   1  27
ATOM     27  O2  UNL     1      29.899  -7.362 -36.339  0.00  0.00    +0.000 OA
BRANCH  27  28
ATOM     28  C10 UNL     1      30.921  -6.530 -36.807  0.00  0.00    +0.000 C 
ATOM     29  O1  UNL     1      30.794  -5.906 -37.894  0.00  0.00    +0.000 OA
BRANCH  28  30
ATOM     30  C9  UNL     1      32.180  -6.371 -36.014  0.00  0.00    +0.000 C 
BRANCH  30  31
ATOM     31  C8  UNL     1      31.971  -6.841 -34.572  0.00  0.00    +0.000 C 
BRANCH  31  33
ATOM     32  C6  UNL     1      32.551  -8.986 -33.356  0.00  0.00    +0.000 C 
ATOM     33  C7  UNL     1      32.822  -8.052 -34.285  0.00  0.00    +0.000 C 
BRANCH  32  34
ATOM     34  C5  UNL     1      31.359  -8.965 -32.436  0.00  0.00    +0.000 C 
BRANCH  34  36
ATOM     35  C3  UNL     1      28.976  -9.083 -33.292  0.00  0.00    +0.000 C 
ATOM     36  C4  UNL     1      30.164  -9.662 -33.037  0.00  0.00    +0.000 C 
BRANCH  35  38
ATOM     37  C1  UNL     1      27.948  -7.425 -31.718  0.00  0.00    +0.000 C 
ATOM     38  C2  UNL     1      28.657  -7.631 -33.055  0.00  0.00    +0.000 C 
ENDBRANCH  35  38
ENDBRANCH  34  36
ENDBRANCH  32  34
ENDBRANCH  31  33
ENDBRANCH  30  31
ENDBRANCH  28  30
ENDBRANCH  27  28
ENDBRANCH   1  27
BRANCH   2  39
ATOM     39  O3  UNL     1      26.898  -8.360 -36.270  0.00  0.00    +0.000 OA
BRANCH  39  40
ATOM     40  C13 UNL     1      25.992  -7.664 -35.462  0.00  0.00    +0.000 C 
ATOM     41  O4  UNL     1      26.134  -6.426 -35.253  0.00  0.00    +0.000 OA
BRANCH  40  42
ATOM     42  C14 UNL     1      24.805  -8.400 -34.896  0.00  0.00    +0.000 C 
ATOM     43  C15 UNL     1      24.866  -8.442 -33.361  0.00  0.00    +0.000 C 
BRANCH  42  44
ATOM     44  C16 UNL     1      23.508  -7.741 -35.413  0.00  0.00    +0.000 C 
ATOM     45  C17 UNL     1      22.287  -8.097 -34.566  0.00  0.00    +0.000 C 
ENDBRANCH  42  44
ENDBRANCH  40  42
ENDBRANCH  39  40
ENDBRANCH   2  39
BRANCH   8  46
ATOM     46  C24 UNL     1      30.341 -10.347 -43.068  0.00  0.00    +0.000 C 
BRANCH  46  47
ATOM     47  O7  UNL     1      30.786 -11.625 -42.722  0.00  0.00    +0.000 OA
ATOM     48  H34 UNL     1      30.689 -11.712 -41.740  0.00  0.00    +0.000 HD
ENDBRANCH  46  47
ENDBRANCH   8  46
TORSDOF 17
