REMARK  Name = resultss/4CJN/ligands/lig_96_t0.pdb
REMARK  10 active torsions:
REMARK  status: ('A' for Active; 'I' for Inactive)
REMARK    1  A    between atoms: C6_6  and  C8_28
REMARK    2  A    between atoms: C15_8  and  O3_38
REMARK    3  A    between atoms: C26_13  and  C27_14
REMARK    4  A    between atoms: C28_15  and  C29_16
REMARK    5  A    between atoms: C32_19  and  C33_23
REMARK    6  A    between atoms: C8_28  and  O1_29
REMARK    7  A    between atoms: O1_29  and  C9_30
REMARK    8  A    between atoms: C9_30  and  C10_32
REMARK    9  A    between atoms: O3_38  and  C16_39
REMARK   10  A    between atoms: C16_39  and  C17_41
REMARK                            x       y       z     vdW  Elec       q    Type
REMARK                         _______ _______ _______ _____ _____    ______ ____
ROOT
ATOM      1  C1  UNL     1      24.359  -8.188 -35.857  0.00  0.00    +0.000 C 
ATOM      2  C2  UNL     1      25.439  -8.990 -35.903  0.00  0.00    +0.000 C 
ATOM      3  C3  UNL     1      25.960  -9.632 -34.645  0.00  0.00    +0.000 C 
ATOM      4  C4  UNL     1      27.336  -9.044 -34.301  0.00  0.00    +0.000 C 
ATOM      5  C5  UNL     1      28.316  -9.097 -35.518  0.00  0.00    +0.000 C 
ATOM      6  C6  UNL     1      29.830  -8.755 -35.192  0.00  0.00    +0.000 C 
ATOM      7  C7  UNL     1      30.368  -9.732 -34.107  0.00  0.00    +0.000 C 
ATOM      8  C15 UNL     1      30.678  -9.012 -36.482  0.00  0.00    +0.000 C 
ATOM      9  C22 UNL     1      30.135  -8.263 -37.707  0.00  0.00    +0.000 C 
ATOM     10  C23 UNL     1      28.681  -8.648 -38.009  0.00  0.00    +0.000 C 
ATOM     11  C24 UNL     1      27.711  -8.405 -36.815  0.00  0.00    +0.000 C 
ATOM     12  C25 UNL     1      27.464  -6.869 -36.636  0.00  0.00    +0.000 C 
ATOM     13  C26 UNL     1      26.341  -9.119 -37.123  0.00  0.00    +0.000 C 
ENDROOT
BRANCH  13  14
ATOM     14  C27 UNL     1      25.680  -8.706 -38.428  0.00  0.00    +0.000 C 
ATOM     15  C28 UNL     1      26.003  -9.297 -39.583  0.00  0.00    +0.000 C 
BRANCH  15  16
ATOM     16  C29 UNL     1      25.401  -8.924 -40.879  0.00  0.00    +0.000 C 
ATOM     17  C30 UNL     1      24.245  -8.292 -41.085  0.00  0.00    +0.000 C 
ATOM     18  C31 UNL     1      24.090  -8.112 -42.532  0.00  0.00    +0.000 C 
ATOM     19  C32 UNL     1      23.063  -7.494 -43.123  0.00  0.00    +0.000 C 
ATOM     20  O6  UNL     1      25.187  -8.656 -43.186  0.00  0.00    +0.000 OA
ATOM     21  C37 UNL     1      26.006  -9.152 -42.186  0.00  0.00    +0.000 C 
ATOM     22  O7  UNL     1      27.112  -9.714 -42.396  0.00  0.00    +0.000 OA
BRANCH  19  23
ATOM     23  C33 UNL     1      22.918  -7.341 -44.583  0.00  0.00    +0.000 C 
ATOM     24  C34 UNL     1      23.923  -7.334 -45.539  0.00  0.00    +0.000 C 
ATOM     25  C35 UNL     1      23.280  -7.194 -46.750  0.00  0.00    +0.000 C 
ATOM     26  C36 UNL     1      21.932  -7.125 -46.466  0.00  0.00    +0.000 C 
ATOM     27  O5  UNL     1      21.748  -7.220 -45.169  0.00  0.00    +0.000 OA
ENDBRANCH  19  23
ENDBRANCH  15  16
ENDBRANCH  13  14
BRANCH   6  28
ATOM     28  C8  UNL     1      30.067  -7.304 -34.669  0.00  0.00    +0.000 C 
BRANCH  28  29
ATOM     29  O1  UNL     1      30.610  -7.304 -33.351  0.00  0.00    +0.000 OA
BRANCH  29  30
ATOM     30  C9  UNL     1      31.878  -6.796 -33.050  0.00  0.00    +0.000 C 
ATOM     31  O2  UNL     1      32.379  -5.883 -33.764  0.00  0.00    +0.000 OA
BRANCH  30  32
ATOM     32  C10 UNL     1      32.626  -7.332 -31.891  0.00  0.00    +0.000 C 
ATOM     33  C11 UNL     1      32.715  -8.715 -31.663  0.00  0.00    +0.000 C 
ATOM     34  C12 UNL     1      33.421  -9.200 -30.560  0.00  0.00    +0.000 C 
ATOM     35  C13 UNL     1      34.038  -8.300 -29.693  0.00  0.00    +0.000 C 
ATOM     36  N1  UNL     1      33.947  -6.963 -29.923  0.00  0.00    +0.000 NA
ATOM     37  C14 UNL     1      33.264  -6.464 -30.988  0.00  0.00    +0.000 C 
ENDBRANCH  30  32
ENDBRANCH  29  30
ENDBRANCH  28  29
ENDBRANCH   6  28
BRANCH   8  38
ATOM     38  O3  UNL     1      32.042  -8.639 -36.263  0.00  0.00    +0.000 OA
BRANCH  38  39
ATOM     39  C16 UNL     1      32.780  -7.830 -37.136  0.00  0.00    +0.000 C 
ATOM     40  O4  UNL     1      32.968  -6.611 -36.869  0.00  0.00    +0.000 OA
BRANCH  39  41
ATOM     41  C17 UNL     1      33.338  -8.412 -38.375  0.00  0.00    +0.000 C 
ATOM     42  C18 UNL     1      33.698  -9.768 -38.439  0.00  0.00    +0.000 C 
ATOM     43  C19 UNL     1      34.209 -10.303 -39.623  0.00  0.00    +0.000 C 
ATOM     44  C20 UNL     1      34.359  -9.477 -40.737  0.00  0.00    +0.000 C 
ATOM     45  N2  UNL     1      34.012  -8.165 -40.665  0.00  0.00    +0.000 NA
ATOM     46  C21 UNL     1      33.511  -7.619 -39.523  0.00  0.00    +0.000 C 
ENDBRANCH  39  41
ENDBRANCH  38  39
ENDBRANCH   8  38
TORSDOF 10
