REMARK  Name = resultss/4CJN/ligands/lig_419_t1.pdb
REMARK  6 active torsions:
REMARK  status: ('A' for Active; 'I' for Inactive)
REMARK    1  A    between atoms: C1_2  and  C10_5
REMARK    2  A    between atoms: N1_3  and  N2_25
REMARK    3  A    between atoms: C20_16  and  C21_19
REMARK    4  A    between atoms: C2_26  and  S1_39
REMARK    5  A    between atoms: N3_27  and  C3_29
REMARK    6  A    between atoms: C8_34  and  C9_35
REMARK                            x       y       z     vdW  Elec       q    Type
REMARK                         _______ _______ _______ _____ _____    ______ ____
ROOT
ATOM      1  O1  UNL     1      27.297  -9.669 -38.359  0.00  0.00    +0.000 OA
ATOM      2  C1  UNL     1      27.368  -8.591 -39.010  0.00  0.00    +0.000 C 
ATOM      3  N1  UNL     1      26.989  -7.356 -38.386  0.00  0.00    +0.000 N 
ATOM      4  H1  UNL     1      26.726  -6.548 -38.992  0.00  0.00    +0.000 HD
ENDROOT
BRANCH   2   5
ATOM      5  C10 UNL     1      27.827  -8.608 -40.415  0.00  0.00    +0.000 C 
ATOM      6  C11 UNL     1      27.153  -7.864 -41.407  0.00  0.00    +0.000 C 
ATOM      7  C12 UNL     1      27.651  -7.934 -42.704  0.00  0.00    +0.000 A 
ATOM      8  C13 UNL     1      28.754  -8.698 -43.024  0.00  0.00    +0.000 A 
ATOM      9  N4  UNL     1      29.087  -8.556 -44.330  0.00  0.00    +0.000 N 
ATOM     10  C14 UNL     1      28.166  -7.705 -44.832  0.00  0.00    +0.000 A 
ATOM     11  C15 UNL     1      28.084  -7.227 -46.139  0.00  0.00    +0.000 C 
ATOM     12  C16 UNL     1      27.053  -6.320 -46.448  0.00  0.00    +0.000 C 
ATOM     13  C17 UNL     1      26.138  -5.910 -45.453  0.00  0.00    +0.000 C 
ATOM     14  C18 UNL     1      26.243  -6.399 -44.138  0.00  0.00    +0.000 C 
ATOM     15  C19 UNL     1      27.269  -7.302 -43.864  0.00  0.00    +0.000 A 
ATOM     16  C20 UNL     1      29.405  -9.444 -42.033  0.00  0.00    +0.000 C 
ATOM     17  N5  UNL     1      28.919  -9.364 -40.758  0.00  0.00    +0.000 NA
ATOM     18  H9  UNL     1      29.896  -8.973 -44.840  0.00  0.00    +0.000 HD
BRANCH  16  19
ATOM     19  C21 UNL     1      30.579 -10.298 -42.309  0.00  0.00    +0.000 C 
ATOM     20  C22 UNL     1      31.870  -9.905 -41.913  0.00  0.00    +0.000 C 
ATOM     21  C23 UNL     1      32.974 -10.712 -42.213  0.00  0.00    +0.000 C 
ATOM     22  C24 UNL     1      32.801 -11.904 -42.918  0.00  0.00    +0.000 C 
ATOM     23  C25 UNL     1      31.524 -12.292 -43.332  0.00  0.00    +0.000 C 
ATOM     24  C26 UNL     1      30.418 -11.490 -43.038  0.00  0.00    +0.000 C 
ENDBRANCH  16  19
ENDBRANCH   2   5
BRANCH   3  25
ATOM     25  N2  UNL     1      26.636  -7.295 -37.026  0.00  0.00    +0.000 NA
ATOM     26  C2  UNL     1      25.488  -6.863 -36.595  0.00  0.00    +0.000 C 
ATOM     27  N3  UNL     1      25.214  -6.832 -35.187  0.00  0.00    +0.000 N 
ATOM     28  H3  UNL     1      24.223  -6.695 -34.886  0.00  0.00    +0.000 HD
BRANCH  27  29
ATOM     29  C3  UNL     1      26.221  -7.040 -34.180  0.00  0.00    +0.000 C 
ATOM     30  C4  UNL     1      26.925  -5.937 -33.665  0.00  0.00    +0.000 C 
ATOM     31  C5  UNL     1      27.873  -6.108 -32.657  0.00  0.00    +0.000 C 
ATOM     32  C6  UNL     1      28.121  -7.378 -32.141  0.00  0.00    +0.000 C 
ATOM     33  C7  UNL     1      27.424  -8.483 -32.632  0.00  0.00    +0.000 C 
ATOM     34  C8  UNL     1      26.477  -8.337 -33.665  0.00  0.00    +0.000 C 
BRANCH  34  35
ATOM     35  C9  UNL     1      25.728  -9.547 -34.185  0.00  0.00    +0.000 C 
ATOM     36  F1  UNL     1      25.726  -9.589 -35.569  0.00  0.00    +0.000 F 
ATOM     37  F2  UNL     1      26.329 -10.699 -33.709  0.00  0.00    +0.000 F 
ATOM     38  F3  UNL     1      24.409  -9.512 -33.761  0.00  0.00    +0.000 F 
ENDBRANCH  34  35
ENDBRANCH  27  29
BRANCH  26  39
ATOM     39  S1  UNL     1      24.166  -6.432 -37.735  0.00  0.00    +0.000 S 
ATOM     40  H2  UNL     1      23.170  -6.696 -36.778  0.00  0.00    +0.000 HD
ENDBRANCH  26  39
ENDBRANCH   3  25
TORSDOF 6
