REMARK  Name = resultss/4CJN/ligands/lig_175_t0.pdb
REMARK  4 active torsions:
REMARK  status: ('A' for Active; 'I' for Inactive)
REMARK    1  A    between atoms: C9_1  and  C1_17
REMARK    2  A    between atoms: C12_4  and  C13_7
REMARK    3  A    between atoms: N1_18  and  N2_20
REMARK    4  A    between atoms: C2_21  and  C3_22
REMARK                            x       y       z     vdW  Elec       q    Type
REMARK                         _______ _______ _______ _____ _____    ______ ____
ROOT
ATOM      1  C9  UNL     1      28.602  -9.123 -41.015  0.00  0.00    +0.000 C 
ATOM      2  C10 UNL     1      29.222  -8.060 -41.696  0.00  0.00    +0.000 C 
ATOM      3  C11 UNL     1      28.670  -7.553 -42.875  0.00  0.00    +0.000 C 
ATOM      4  C12 UNL     1      27.488  -8.100 -43.406  0.00  0.00    +0.000 C 
ATOM      5  C20 UNL     1      26.875  -9.171 -42.731  0.00  0.00    +0.000 C 
ATOM      6  C21 UNL     1      27.428  -9.677 -41.552  0.00  0.00    +0.000 C 
ENDROOT
BRANCH   4   7
ATOM      7  C13 UNL     1      26.895  -7.571 -44.655  0.00  0.00    +0.000 A 
ATOM      8  N3  UNL     1      27.617  -7.355 -45.786  0.00  0.00    +0.000 NA
ATOM      9  C14 UNL     1      26.838  -6.869 -46.787  0.00  0.00    +0.000 A 
ATOM     10  C15 UNL     1      27.303  -6.551 -48.064  0.00  0.00    +0.000 C 
ATOM     11  C16 UNL     1      26.389  -6.055 -49.010  0.00  0.00    +0.000 C 
ATOM     12  C17 UNL     1      25.032  -5.883 -48.671  0.00  0.00    +0.000 C 
ATOM     13  C18 UNL     1      24.577  -6.206 -47.382  0.00  0.00    +0.000 C 
ATOM     14  C19 UNL     1      25.503  -6.695 -46.465  0.00  0.00    +0.000 A 
ATOM     15  S1  UNL     1      25.261  -7.161 -44.873  0.00  0.00    +0.000 S 
ENDBRANCH   4   7
BRANCH   1  17
ATOM     16  O1  UNL     1      30.399 -10.014 -39.746  0.00  0.00    +0.000 OA
ATOM     17  C1  UNL     1      29.185  -9.672 -39.767  0.00  0.00    +0.000 C 
ATOM     18  N1  UNL     1      28.372  -9.867 -38.596  0.00  0.00    +0.000 N 
ATOM     19  H1  UNL     1      27.354 -10.060 -38.726  0.00  0.00    +0.000 HD
BRANCH  18  20
ATOM     20  N2  UNL     1      28.905 -10.035 -37.304  0.00  0.00    +0.000 NA
ATOM     21  C2  UNL     1      29.347  -9.054 -36.577  0.00  0.00    +0.000 C 
BRANCH  21  22
ATOM     22  C3  UNL     1      29.910  -9.297 -35.234  0.00  0.00    +0.000 C 
ATOM     23  C4  UNL     1      31.299  -9.429 -35.032  0.00  0.00    +0.000 C 
ATOM     24  C5  UNL     1      31.806  -9.657 -33.749  0.00  0.00    +0.000 C 
ATOM     25  C6  UNL     1      30.937  -9.753 -32.658  0.00  0.00    +0.000 C 
ATOM     26  C7  UNL     1      29.559  -9.622 -32.849  0.00  0.00    +0.000 C 
ATOM     27  C8  UNL     1      29.047  -9.395 -34.130  0.00  0.00    +0.000 C 
ENDBRANCH  21  22
ENDBRANCH  18  20
ENDBRANCH   1  17
TORSDOF 4
