REMARK  Name = resultss/4CJN/ligands/lig_251_t0.pdb
REMARK  13 active torsions:
REMARK  status: ('A' for Active; 'I' for Inactive)
REMARK    1  A    between atoms: C4_1  and  C3_36
REMARK    2  A    between atoms: C6_3  and  C7_10
REMARK    3  A    between atoms: C28_6  and  S2_39
REMARK    4  A    between atoms: C9_12  and  C10_19
REMARK    5  A    between atoms: C14_15  and  S1_22
REMARK    6  A    between atoms: C10_19  and  C11_20
REMARK    7  A    between atoms: S1_22  and  C15_23
REMARK    8  A    between atoms: C15_23  and  C16_24
REMARK    9  A    between atoms: C17_27  and  C18_29
REMARK   10  A    between atoms: C3_36  and  C2_38
REMARK   11  A    between atoms: S2_39  and  C29_40
REMARK   12  A    between atoms: C29_40  and  C30_41
REMARK   13  A    between atoms: C31_44  and  C32_46
REMARK                            x       y       z     vdW  Elec       q    Type
REMARK                         _______ _______ _______ _____ _____    ______ ____
ROOT
ATOM      1  C4  UNL     1      27.120 -12.455 -40.059  0.00  0.00    +0.000 C 
ATOM      2  C5  UNL     1      27.996 -11.981 -39.049  0.00  0.00    +0.000 C 
ATOM      3  C6  UNL     1      28.070 -10.604 -38.741  0.00  0.00    +0.000 C 
ATOM      4  C27 UNL     1      27.265  -9.742 -39.481  0.00  0.00    +0.000 A 
ATOM      5  O3  UNL     1      27.149  -8.443 -39.400  0.00  0.00    +0.000 OA
ATOM      6  C28 UNL     1      26.299  -8.101 -40.351  0.00  0.00    +0.000 A 
ATOM      7  N6  UNL     1      25.844  -9.152 -41.079  0.00  0.00    +0.000 NA
ATOM      8  C39 UNL     1      26.467 -10.185 -40.488  0.00  0.00    +0.000 A 
ATOM      9  C40 UNL     1      26.363 -11.533 -40.816  0.00  0.00    +0.000 C 
ENDROOT
BRANCH   3  10
ATOM     10  C7  UNL     1      29.053 -10.098 -37.769  0.00  0.00    +0.000 C 
ATOM     11  C8  UNL     1      30.321  -9.618 -38.195  0.00  0.00    +0.000 C 
ATOM     12  C9  UNL     1      31.241  -9.085 -37.260  0.00  0.00    +0.000 C 
ATOM     13  C13 UNL     1      30.846  -9.068 -35.919  0.00  0.00    +0.000 A 
ATOM     14  O1  UNL     1      31.484  -8.597 -34.879  0.00  0.00    +0.000 OA
ATOM     15  C14 UNL     1      30.690  -8.823 -33.844  0.00  0.00    +0.000 A 
ATOM     16  N3  UNL     1      29.523  -9.432 -34.176  0.00  0.00    +0.000 NA
ATOM     17  C25 UNL     1      29.647  -9.567 -35.508  0.00  0.00    +0.000 A 
ATOM     18  C26 UNL     1      28.713 -10.080 -36.401  0.00  0.00    +0.000 C 
BRANCH  12  19
ATOM     19  C10 UNL     1      32.605  -8.604 -37.678  0.00  0.00    +0.000 C 
BRANCH  19  20
ATOM     20  C11 UNL     1      33.320  -9.622 -38.524  0.00  0.00    +0.000 C 
ATOM     21  C12 UNL     1      33.424  -9.460 -39.845  0.00  0.00    +0.000 C 
ENDBRANCH  19  20
ENDBRANCH  12  19
BRANCH  15  22
ATOM     22  S1  UNL     1      31.078  -8.345 -32.163  0.00  0.00    +0.000 S 
BRANCH  22  23
ATOM     23  C15 UNL     1      30.713  -6.566 -32.367  0.00  0.00    +0.000 C 
BRANCH  23  24
ATOM     24  C16 UNL     1      29.485  -6.436 -33.210  0.00  0.00    +0.000 A 
ATOM     25  N1  UNL     1      29.452  -5.906 -34.452  0.00  0.00    +0.000 NA
ATOM     26  N2  UNL     1      28.204  -6.039 -34.878  0.00  0.00    +0.000 NA
ATOM     27  C17 UNL     1      27.523  -6.646 -33.881  0.00  0.00    +0.000 A 
ATOM     28  O2  UNL     1      28.308  -6.888 -32.853  0.00  0.00    +0.000 OA
BRANCH  27  29
ATOM     29  C18 UNL     1      26.096  -7.028 -33.941  0.00  0.00    +0.000 C 
ATOM     30  C19 UNL     1      25.673  -8.124 -34.709  0.00  0.00    +0.000 C 
ATOM     31  C20 UNL     1      24.322  -8.487 -34.740  0.00  0.00    +0.000 C 
ATOM     32  C21 UNL     1      23.386  -7.767 -33.997  0.00  0.00    +0.000 C 
ATOM     33  C22 UNL     1      23.794  -6.680 -33.209  0.00  0.00    +0.000 C 
ATOM     34  C23 UNL     1      22.780  -5.891 -32.441  0.00  0.00    +0.000 C 
ATOM     35  C24 UNL     1      25.145  -6.304 -33.199  0.00  0.00    +0.000 C 
ENDBRANCH  27  29
ENDBRANCH  23  24
ENDBRANCH  22  23
ENDBRANCH  15  22
ENDBRANCH   3  10
BRANCH   1  36
ATOM     36  C3  UNL     1      27.023 -13.930 -40.339  0.00  0.00    +0.000 C 
BRANCH  36  38
ATOM     37  C1  UNL     1      24.971 -15.280 -39.993  0.00  0.00    +0.000 C 
ATOM     38  C2  UNL     1      25.607 -14.314 -40.663  0.00  0.00    +0.000 C 
ENDBRANCH  36  38
ENDBRANCH   1  36
BRANCH   6  39
ATOM     39  S2  UNL     1      25.777  -6.411 -40.645  0.00  0.00    +0.000 S 
BRANCH  39  40
ATOM     40  C29 UNL     1      24.040  -6.700 -40.142  0.00  0.00    +0.000 C 
BRANCH  40  41
ATOM     41  C30 UNL     1      23.169  -6.641 -41.356  0.00  0.00    +0.000 A 
ATOM     42  N4  UNL     1      21.940  -6.096 -41.385  0.00  0.00    +0.000 NA
ATOM     43  N5  UNL     1      21.538  -6.150 -42.650  0.00  0.00    +0.000 NA
ATOM     44  C31 UNL     1      22.544  -6.721 -43.343  0.00  0.00    +0.000 A 
ATOM     45  O4  UNL     1      23.544  -7.031 -42.552  0.00  0.00    +0.000 OA
BRANCH  44  46
ATOM     46  C32 UNL     1      22.545  -6.922 -44.805  0.00  0.00    +0.000 C 
ATOM     47  C33 UNL     1      23.734  -7.240 -45.482  0.00  0.00    +0.000 C 
ATOM     48  C34 UNL     1      23.716  -7.491 -46.859  0.00  0.00    +0.000 C 
ATOM     49  C35 UNL     1      22.514  -7.425 -47.568  0.00  0.00    +0.000 C 
ATOM     50  C36 UNL     1      21.325  -7.086 -46.911  0.00  0.00    +0.000 C 
ATOM     51  C37 UNL     1      20.025  -7.078 -47.662  0.00  0.00    +0.000 C 
ATOM     52  C38 UNL     1      21.340  -6.849 -45.526  0.00  0.00    +0.000 C 
ENDBRANCH  44  46
ENDBRANCH  40  41
ENDBRANCH  39  40
ENDBRANCH   6  39
TORSDOF 13
