REMARK  Name = resultss/4CJN/ligands/lig_407_t0.pdb
REMARK  6 active torsions:
REMARK  status: ('A' for Active; 'I' for Inactive)
REMARK    1  A    between atoms: C9_1  and  C1_22
REMARK    2  A    between atoms: C19_12  and  C20_15
REMARK    3  A    between atoms: N1_23  and  N2_25
REMARK    4  A    between atoms: N2_25  and  C2_27
REMARK    5  A    between atoms: C2_27  and  N3_29
REMARK    6  A    between atoms: N3_29  and  C3_31
REMARK                            x       y       z     vdW  Elec       q    Type
REMARK                         _______ _______ _______ _____ _____    ______ ____
ROOT
ATOM      1  C9  UNL     1      25.618  -8.284 -38.079  0.00  0.00    +0.000 C 
ATOM      2  C10 UNL     1      26.995  -8.572 -37.964  0.00  0.00    +0.000 C 
ATOM      3  C11 UNL     1      27.511  -8.709 -36.681  0.00  0.00    +0.000 A 
ATOM      4  C12 UNL     1      26.726  -8.566 -35.556  0.00  0.00    +0.000 A 
ATOM      5  N4  UNL     1      27.435  -8.810 -34.428  0.00  0.00    +0.000 N 
ATOM      6  C13 UNL     1      28.684  -9.088 -34.857  0.00  0.00    +0.000 A 
ATOM      7  C14 UNL     1      29.789  -9.420 -34.075  0.00  0.00    +0.000 C 
ATOM      8  C15 UNL     1      31.003  -9.696 -34.732  0.00  0.00    +0.000 C 
ATOM      9  C16 UNL     1      31.087  -9.641 -36.142  0.00  0.00    +0.000 C 
ATOM     10  C17 UNL     1      29.957  -9.309 -36.911  0.00  0.00    +0.000 C 
ATOM     11  C18 UNL     1      28.771  -9.035 -36.233  0.00  0.00    +0.000 A 
ATOM     12  C19 UNL     1      25.364  -8.266 -35.683  0.00  0.00    +0.000 C 
ATOM     13  N5  UNL     1      24.856  -8.145 -36.947  0.00  0.00    +0.000 NA
ATOM     14  H9  UNL     1      27.097  -8.820 -33.441  0.00  0.00    +0.000 HD
ENDROOT
BRANCH  12  15
ATOM     15  C20 UNL     1      24.468  -8.081 -34.522  0.00  0.00    +0.000 C 
ATOM     16  C21 UNL     1      24.140  -9.160 -33.681  0.00  0.00    +0.000 C 
ATOM     17  C22 UNL     1      23.313  -8.964 -32.572  0.00  0.00    +0.000 C 
ATOM     18  C23 UNL     1      22.817  -7.689 -32.285  0.00  0.00    +0.000 C 
ATOM     19  C24 UNL     1      23.155  -6.607 -33.102  0.00  0.00    +0.000 C 
ATOM     20  C25 UNL     1      23.983  -6.799 -34.213  0.00  0.00    +0.000 C 
ENDBRANCH  12  15
BRANCH   1  22
ATOM     21  O1  UNL     1      25.081  -7.056 -40.039  0.00  0.00    +0.000 OA
ATOM     22  C1  UNL     1      24.982  -8.143 -39.406  0.00  0.00    +0.000 C 
ATOM     23  N1  UNL     1      24.237  -9.230 -39.974  0.00  0.00    +0.000 N 
ATOM     24  H1  UNL     1      23.882  -9.982 -39.342  0.00  0.00    +0.000 HD
BRANCH  23  25
ATOM     25  N2  UNL     1      23.713  -9.162 -41.276  0.00  0.00    +0.000 N 
ATOM     26  H2  UNL     1      22.687  -9.314 -41.394  0.00  0.00    +0.000 HD
BRANCH  25  27
ATOM     27  C2  UNL     1      24.544  -9.014 -42.442  0.00  0.00    +0.000 C 
ATOM     28  S1  UNL     1      24.232  -7.851 -43.558  0.00  0.00    +0.000 S 
BRANCH  27  29
ATOM     29  N3  UNL     1      25.651  -9.900 -42.667  0.00  0.00    +0.000 N 
ATOM     30  H3  UNL     1      25.462 -10.806 -43.152  0.00  0.00    +0.000 HD
BRANCH  29  31
ATOM     31  C3  UNL     1      27.004  -9.607 -42.281  0.00  0.00    +0.000 C 
ATOM     32  C4  UNL     1      27.804  -8.739 -43.048  0.00  0.00    +0.000 C 
ATOM     33  C5  UNL     1      29.130  -8.490 -42.679  0.00  0.00    +0.000 C 
ATOM     34  C6  UNL     1      29.672  -9.114 -41.553  0.00  0.00    +0.000 C 
ATOM     35  C7  UNL     1      28.892  -9.994 -40.797  0.00  0.00    +0.000 C 
ATOM     36  C8  UNL     1      27.565 -10.247 -41.163  0.00  0.00    +0.000 C 
ATOM     37  F1  UNL     1      26.821 -11.105 -40.420  0.00  0.00    +0.000 F 
ENDBRANCH  29  31
ENDBRANCH  27  29
ENDBRANCH  25  27
ENDBRANCH  23  25
ENDBRANCH   1  22
TORSDOF 6
