REMARK  Name = resultss/4CJN/ligands/lig_341_t1.pdb
REMARK  12 active torsions:
REMARK  status: ('A' for Active; 'I' for Inactive)
REMARK    1  A    between atoms: C12_1  and  O2_29
REMARK    2  A    between atoms: C15_4  and  C16_7
REMARK    3  A    between atoms: C31_6  and  O4_27
REMARK    4  A    between atoms: N4_17  and  N5_19
REMARK    5  A    between atoms: N5_19  and  C24_21
REMARK    6  A    between atoms: O2_29  and  C11_30
REMARK    7  A    between atoms: C11_30  and  C10_33
REMARK    8  A    between atoms: N2_31  and  C8_36
REMARK    9  A    between atoms: C8_36  and  C7_38
REMARK   10  A    between atoms: N1_37  and  C6_42
REMARK   11  A    between atoms: C7_38  and  O1_47
REMARK   12  A    between atoms: C3_39  and  C2_46
REMARK                            x       y       z     vdW  Elec       q    Type
REMARK                         _______ _______ _______ _____ _____    ______ ____
ROOT
ATOM      1  C12 UNL     1      27.274  -9.621 -37.689  0.00  0.00    +0.000 C 
ATOM      2  C13 UNL     1      28.628  -9.930 -37.460  0.00  0.00    +0.000 C 
ATOM      3  C14 UNL     1      29.206  -9.690 -36.213  0.00  0.00    +0.000 C 
ATOM      4  C15 UNL     1      28.443  -9.140 -35.170  0.00  0.00    +0.000 C 
ATOM      5  C30 UNL     1      27.103  -8.802 -35.407  0.00  0.00    +0.000 C 
ATOM      6  C31 UNL     1      26.505  -9.064 -36.654  0.00  0.00    +0.000 C 
ENDROOT
BRANCH   4   7
ATOM      7  C16 UNL     1      29.081  -8.848 -33.828  0.00  0.00    +0.000 C 
ATOM      8  N3  UNL     1      29.846 -10.026 -33.399  0.00  0.00    +0.000 N 
ATOM      9  C17 UNL     1      31.006  -9.932 -32.563  0.00  0.00    +0.000 C 
ATOM     10  C18 UNL     1      31.551 -11.087 -31.981  0.00  0.00    +0.000 C 
ATOM     11  C19 UNL     1      32.676 -10.994 -31.156  0.00  0.00    +0.000 C 
ATOM     12  C20 UNL     1      33.263  -9.750 -30.911  0.00  0.00    +0.000 C 
ATOM     13  C21 UNL     1      32.734  -8.599 -31.498  0.00  0.00    +0.000 C 
ATOM     14  C22 UNL     1      31.605  -8.686 -32.331  0.00  0.00    +0.000 C 
ATOM     15  C23 UNL     1      31.047  -7.501 -33.001  0.00  0.00    +0.000 C 
ATOM     16  O3  UNL     1      31.551  -6.362 -32.800  0.00  0.00    +0.000 OA
ATOM     17  N4  UNL     1      29.935  -7.648 -33.903  0.00  0.00    +0.000 N 
ATOM     18  H17 UNL     1      29.415 -10.968 -33.546  0.00  0.00    +0.000 HD
BRANCH  17  19
ATOM     19  N5  UNL     1      29.478  -6.525 -34.625  0.00  0.00    +0.000 N 
ATOM     20  H22 UNL     1      28.815  -5.864 -34.157  0.00  0.00    +0.000 HD
BRANCH  19  21
ATOM     21  C24 UNL     1      29.743  -6.351 -36.030  0.00  0.00    +0.000 C 
ATOM     22  C25 UNL     1      28.687  -6.029 -36.899  0.00  0.00    +0.000 C 
ATOM     23  C26 UNL     1      28.918  -5.883 -38.271  0.00  0.00    +0.000 C 
ATOM     24  C27 UNL     1      30.203  -6.072 -38.790  0.00  0.00    +0.000 C 
ATOM     25  C28 UNL     1      31.259  -6.395 -37.934  0.00  0.00    +0.000 C 
ATOM     26  C29 UNL     1      31.033  -6.537 -36.561  0.00  0.00    +0.000 C 
ENDBRANCH  19  21
ENDBRANCH  17  19
ENDBRANCH   4   7
BRANCH   6  27
ATOM     27  O4  UNL     1      25.152  -8.785 -36.904  0.00  0.00    +0.000 OA
ATOM     28  C32 UNL     1      24.500  -7.568 -36.551  0.00  0.00    +0.000 C 
ENDBRANCH   6  27
BRANCH   1  29
ATOM     29  O2  UNL     1      26.655  -9.849 -38.927  0.00  0.00    +0.000 OA
BRANCH  29  30
ATOM     30  C11 UNL     1      26.829  -9.030 -40.081  0.00  0.00    +0.000 C 
BRANCH  30  33
ATOM     31  N2  UNL     1      23.804  -8.861 -42.079  0.00  0.00    +0.000 N 
ATOM     32  C9  UNL     1      24.517  -8.424 -41.028  0.00  0.00    +0.000 C 
ATOM     33  C10 UNL     1      25.661  -9.193 -40.999  0.00  0.00    +0.000 C 
ATOM     34  N6  UNL     1      25.619 -10.058 -42.034  0.00  0.00    +0.000 NA
ATOM     35  N7  UNL     1      24.474  -9.841 -42.666  0.00  0.00    +0.000 NA
BRANCH  31  36
ATOM     36  C8  UNL     1      22.496  -8.376 -42.505  0.00  0.00    +0.000 C 
BRANCH  36  38
ATOM     37  N1  UNL     1      21.677  -6.924 -44.329  0.00  0.00    +0.000 NA
ATOM     38  C7  UNL     1      22.611  -7.689 -43.840  0.00  0.00    +0.000 C 
BRANCH  37  42
ATOM     39  C3  UNL     1      17.823  -6.387 -42.632  0.00  0.00    +0.000 C 
ATOM     40  C4  UNL     1      17.972  -6.995 -43.889  0.00  0.00    +0.000 C 
ATOM     41  C5  UNL     1      19.244  -7.153 -44.449  0.00  0.00    +0.000 C 
ATOM     42  C6  UNL     1      20.378  -6.697 -43.767  0.00  0.00    +0.000 C 
ATOM     43  C33 UNL     1      20.235  -6.134 -42.491  0.00  0.00    +0.000 C 
ATOM     44  C34 UNL     1      18.965  -5.973 -41.930  0.00  0.00    +0.000 C 
BRANCH  39  46
ATOM     45  C1  UNL     1      15.400  -6.921 -42.880  0.00  0.00    +0.000 C 
ATOM     46  C2  UNL     1      16.460  -6.251 -42.010  0.00  0.00    +0.000 C 
ENDBRANCH  39  46
ENDBRANCH  37  42
BRANCH  38  47
ATOM     47  O1  UNL     1      23.805  -7.825 -44.544  0.00  0.00    +0.000 OA
ATOM     48  H8  UNL     1      24.698  -7.816 -44.067  0.00  0.00    +0.000 HD
ENDBRANCH  38  47
ENDBRANCH  36  38
ENDBRANCH  31  36
ENDBRANCH  30  33
ENDBRANCH  29  30
ENDBRANCH   1  29
TORSDOF 12
