REMARK  Name = resultss/4CJN/ligands/lig_176_t0.pdb
REMARK  4 active torsions:
REMARK  status: ('A' for Active; 'I' for Inactive)
REMARK    1  A    between atoms: C9_1  and  C1_17
REMARK    2  A    between atoms: C12_4  and  C13_7
REMARK    3  A    between atoms: N1_18  and  N2_20
REMARK    4  A    between atoms: C2_21  and  C3_22
REMARK                            x       y       z     vdW  Elec       q    Type
REMARK                         _______ _______ _______ _____ _____    ______ ____
ROOT
ATOM      1  C9  UNL     1      25.850  -8.571 -41.496  0.00  0.00    +0.000 C 
ATOM      2  C10 UNL     1      26.506  -7.908 -42.548  0.00  0.00    +0.000 C 
ATOM      3  C11 UNL     1      25.813  -7.556 -43.708  0.00  0.00    +0.000 C 
ATOM      4  C12 UNL     1      24.445  -7.852 -43.843  0.00  0.00    +0.000 C 
ATOM      5  C20 UNL     1      23.785  -8.503 -42.787  0.00  0.00    +0.000 C 
ATOM      6  C21 UNL     1      24.480  -8.855 -41.625  0.00  0.00    +0.000 C 
ENDROOT
BRANCH   4   7
ATOM      7  C13 UNL     1      23.720  -7.475 -45.079  0.00  0.00    +0.000 A 
ATOM      8  N3  UNL     1      22.365  -7.431 -45.160  0.00  0.00    +0.000 NA
ATOM      9  C14 UNL     1      21.954  -7.057 -46.400  0.00  0.00    +0.000 A 
ATOM     10  C15 UNL     1      20.618  -6.925 -46.781  0.00  0.00    +0.000 C 
ATOM     11  C16 UNL     1      20.328  -6.530 -48.099  0.00  0.00    +0.000 C 
ATOM     12  C17 UNL     1      21.370  -6.276 -49.014  0.00  0.00    +0.000 C 
ATOM     13  C18 UNL     1      22.711  -6.413 -48.619  0.00  0.00    +0.000 C 
ATOM     14  C19 UNL     1      22.969  -6.805 -47.307  0.00  0.00    +0.000 A 
ATOM     15  S1  UNL     1      24.447  -7.051 -46.556  0.00  0.00    +0.000 S 
ENDBRANCH   4   7
BRANCH   1  17
ATOM     16  O1  UNL     1      26.829 -10.160 -40.031  0.00  0.00    +0.000 OA
ATOM     17  C1  UNL     1      26.570  -8.945 -40.254  0.00  0.00    +0.000 C 
ATOM     18  N1  UNL     1      26.995  -7.955 -39.311  0.00  0.00    +0.000 N 
ATOM     19  H1  UNL     1      26.939  -6.940 -39.553  0.00  0.00    +0.000 HD
BRANCH  18  20
ATOM     20  N2  UNL     1      27.555  -8.349 -38.085  0.00  0.00    +0.000 NA
ATOM     21  C2  UNL     1      27.162  -7.841 -36.959  0.00  0.00    +0.000 C 
BRANCH  21  22
ATOM     22  C3  UNL     1      27.764  -8.269 -35.680  0.00  0.00    +0.000 C 
ATOM     23  C4  UNL     1      28.460  -9.487 -35.619  0.00  0.00    +0.000 C 
ATOM     24  C5  UNL     1      29.037  -9.913 -34.420  0.00  0.00    +0.000 C 
ATOM     25  C6  UNL     1      28.926  -9.129 -33.269  0.00  0.00    +0.000 C 
ATOM     26  F1  UNL     1      29.490  -9.552 -32.110  0.00  0.00    +0.000 F 
ATOM     27  C7  UNL     1      28.234  -7.913 -33.317  0.00  0.00    +0.000 C 
ATOM     28 BR1  UNL     1      28.074  -6.830 -31.749  0.00  0.00    +0.000 Br
ATOM     29  C8  UNL     1      27.655  -7.484 -34.516  0.00  0.00    +0.000 C 
ENDBRANCH  21  22
ENDBRANCH  18  20
ENDBRANCH   1  17
TORSDOF 4
