REMARK  Name = resultss/4CJN/ligands/lig_249_t0.pdb
REMARK  13 active torsions:
REMARK  status: ('A' for Active; 'I' for Inactive)
REMARK    1  A    between atoms: C4_1  and  C3_36
REMARK    2  A    between atoms: C6_3  and  C7_10
REMARK    3  A    between atoms: C27_6  and  S2_39
REMARK    4  A    between atoms: C9_12  and  C10_19
REMARK    5  A    between atoms: C14_15  and  S1_22
REMARK    6  A    between atoms: C10_19  and  C11_20
REMARK    7  A    between atoms: S1_22  and  C15_23
REMARK    8  A    between atoms: C15_23  and  C16_24
REMARK    9  A    between atoms: C17_27  and  C18_29
REMARK   10  A    between atoms: C3_36  and  C2_38
REMARK   11  A    between atoms: S2_39  and  C28_40
REMARK   12  A    between atoms: C28_40  and  C29_41
REMARK   13  A    between atoms: C30_44  and  C31_46
REMARK                            x       y       z     vdW  Elec       q    Type
REMARK                         _______ _______ _______ _____ _____    ______ ____
ROOT
ATOM      1  C4  UNL     1      31.508  -9.587 -33.021  0.00  0.00    +0.000 C 
ATOM      2  C5  UNL     1      31.462  -9.305 -34.409  0.00  0.00    +0.000 C 
ATOM      3  C6  UNL     1      30.442  -8.490 -34.959  0.00  0.00    +0.000 C 
ATOM      4  C26 UNL     1      29.499  -7.974 -34.060  0.00  0.00    +0.000 A 
ATOM      5  O3  UNL     1      28.493  -7.170 -34.285  0.00  0.00    +0.000 OA
ATOM      6  C27 UNL     1      27.920  -6.973 -33.109  0.00  0.00    +0.000 A 
ATOM      7  N6  UNL     1      28.530  -7.628 -32.088  0.00  0.00    +0.000 NA
ATOM      8  C37 UNL     1      29.535  -8.253 -32.725  0.00  0.00    +0.000 A 
ATOM      9  C38 UNL     1      30.525  -9.049 -32.161  0.00  0.00    +0.000 C 
ENDROOT
BRANCH   3  10
ATOM     10  C7  UNL     1      30.394  -8.207 -36.416  0.00  0.00    +0.000 C 
ATOM     11  C8  UNL     1      31.306  -8.851 -37.297  0.00  0.00    +0.000 C 
ATOM     12  C9  UNL     1      31.224  -8.667 -38.693  0.00  0.00    +0.000 C 
ATOM     13  C13 UNL     1      30.235  -7.803 -39.162  0.00  0.00    +0.000 A 
ATOM     14  O1  UNL     1      29.947  -7.476 -40.394  0.00  0.00    +0.000 OA
ATOM     15  C14 UNL     1      28.944  -6.619 -40.308  0.00  0.00    +0.000 A 
ATOM     16  N3  UNL     1      28.551  -6.364 -39.032  0.00  0.00    +0.000 NA
ATOM     17  C24 UNL     1      29.386  -7.144 -38.326  0.00  0.00    +0.000 A 
ATOM     18  C25 UNL     1      29.422  -7.323 -36.947  0.00  0.00    +0.000 C 
BRANCH  12  19
ATOM     19  C10 UNL     1      32.233  -9.283 -39.622  0.00  0.00    +0.000 C 
BRANCH  19  20
ATOM     20  C11 UNL     1      33.557  -8.594 -39.439  0.00  0.00    +0.000 C 
ATOM     21  C12 UNL     1      33.948  -7.587 -40.228  0.00  0.00    +0.000 C 
ENDBRANCH  19  20
ENDBRANCH  12  19
BRANCH  15  22
ATOM     22  S1  UNL     1      28.151  -5.883 -41.737  0.00  0.00    +0.000 S 
BRANCH  22  23
ATOM     23  C15 UNL     1      28.187  -7.398 -42.754  0.00  0.00    +0.000 C 
BRANCH  23  24
ATOM     24  C16 UNL     1      26.831  -7.610 -43.341  0.00  0.00    +0.000 A 
ATOM     25  N1  UNL     1      25.937  -8.491 -42.855  0.00  0.00    +0.000 NA
ATOM     26  N2  UNL     1      24.895  -8.443 -43.670  0.00  0.00    +0.000 NA
ATOM     27  C17 UNL     1      25.192  -7.531 -44.621  0.00  0.00    +0.000 A 
ATOM     28  O2  UNL     1      26.385  -7.020 -44.426  0.00  0.00    +0.000 OA
BRANCH  27  29
ATOM     29  C18 UNL     1      24.302  -7.203 -45.756  0.00  0.00    +0.000 C 
ATOM     30  C19 UNL     1      22.929  -7.012 -45.511  0.00  0.00    +0.000 C 
ATOM     31  C20 UNL     1      22.045  -6.761 -46.565  0.00  0.00    +0.000 C 
ATOM     32  C21 UNL     1      22.518  -6.686 -47.873  0.00  0.00    +0.000 C 
ATOM     33  C22 UNL     1      23.883  -6.853 -48.131  0.00  0.00    +0.000 C 
ATOM     34  C23 UNL     1      24.782  -7.102 -47.082  0.00  0.00    +0.000 C 
ATOM     35 BR1  UNL     1      26.653  -7.198 -47.518  0.00  0.00    +0.000 Br
ENDBRANCH  27  29
ENDBRANCH  23  24
ENDBRANCH  22  23
ENDBRANCH  15  22
ENDBRANCH   3  10
BRANCH   1  36
ATOM     36  C3  UNL     1      32.636 -10.405 -32.455  0.00  0.00    +0.000 C 
BRANCH  36  38
ATOM     37  C1  UNL     1      32.345 -12.570 -31.277  0.00  0.00    +0.000 C 
ATOM     38  C2  UNL     1      32.153 -11.248 -31.305  0.00  0.00    +0.000 C 
ENDBRANCH  36  38
ENDBRANCH   1  36
BRANCH   6  39
ATOM     39  S2  UNL     1      26.475  -5.942 -32.881  0.00  0.00    +0.000 S 
BRANCH  39  40
ATOM     40  C28 UNL     1      25.292  -7.324 -33.008  0.00  0.00    +0.000 C 
BRANCH  40  41
ATOM     41  C29 UNL     1      25.177  -7.779 -34.426  0.00  0.00    +0.000 A 
ATOM     42  N4  UNL     1      24.066  -7.656 -35.172  0.00  0.00    +0.000 NA
ATOM     43  N5  UNL     1      24.359  -8.180 -36.354  0.00  0.00    +0.000 NA
ATOM     44  C30 UNL     1      25.637  -8.602 -36.283  0.00  0.00    +0.000 A 
ATOM     45  O4  UNL     1      26.145  -8.348 -35.101  0.00  0.00    +0.000 OA
BRANCH  44  46
ATOM     46  C31 UNL     1      26.393  -9.239 -37.386  0.00  0.00    +0.000 C 
ATOM     47  C32 UNL     1      27.388 -10.176 -37.053  0.00  0.00    +0.000 C 
ATOM     48  C33 UNL     1      28.143 -10.802 -38.046  0.00  0.00    +0.000 C 
ATOM     49  C34 UNL     1      27.915 -10.509 -39.387  0.00  0.00    +0.000 C 
ATOM     50  C35 UNL     1      26.928  -9.588 -39.740  0.00  0.00    +0.000 C 
ATOM     51  C36 UNL     1      26.162  -8.950 -38.754  0.00  0.00    +0.000 C 
ATOM     52 BR2  UNL     1      24.784  -7.765 -39.369  0.00  0.00    +0.000 Br
ENDBRANCH  44  46
ENDBRANCH  40  41
ENDBRANCH  39  40
ENDBRANCH   6  39
TORSDOF 13
