REMARK  Name = resultss/4CJN/ligands/lig_259_t1.pdb
REMARK  4 active torsions:
REMARK  status: ('A' for Active; 'I' for Inactive)
REMARK    1  A    between atoms: C4_4  and  O1_33
REMARK    2  A    between atoms: C9_9  and  C10_23
REMARK    3  A    between atoms: C18_10  and  O2_35
REMARK    4  A    between atoms: C27_21  and  O5_37
REMARK                            x       y       z     vdW  Elec       q    Type
REMARK                         _______ _______ _______ _____ _____    ______ ____
ROOT
ATOM      1  C1  UNL     1      28.756  -7.828 -44.708  0.00  0.00    +0.000 C 
ATOM      2  C2  UNL     1      28.300  -8.120 -43.309  0.00  0.00    +0.000 C 
ATOM      3  C3  UNL     1      26.956  -7.893 -42.942  0.00  0.00    +0.000 C 
ATOM      4  C4  UNL     1      26.519  -8.107 -41.620  0.00  0.00    +0.000 C 
ATOM      5  C5  UNL     1      27.454  -8.559 -40.676  0.00  0.00    +0.000 A 
ATOM      6  C6  UNL     1      28.782  -8.796 -41.044  0.00  0.00    +0.000 A 
ATOM      7  C7  UNL     1      29.230  -8.551 -42.344  0.00  0.00    +0.000 C 
ATOM      8  C8  UNL     1      29.478  -9.229 -39.916  0.00  0.00    +0.000 A 
ATOM      9  C9  UNL     1      30.796  -9.645 -39.665  0.00  0.00    +0.000 A 
ATOM     10  C18 UNL     1      31.107  -9.984 -38.323  0.00  0.00    +0.000 A 
ATOM     11  O3  UNL     1      30.170  -9.921 -37.362  0.00  0.00    +0.000 OA
ATOM     12  C19 UNL     1      28.912  -9.542 -37.594  0.00  0.00    +0.000 A 
ATOM     13  C20 UNL     1      28.579  -9.206 -38.893  0.00  0.00    +0.000 A 
ATOM     14  C21 UNL     1      27.337  -8.825 -39.307  0.00  0.00    +0.000 A 
ATOM     15  C22 UNL     1      26.284  -8.784 -38.387  0.00  0.00    +0.000 A 
ATOM     16  O4  UNL     1      25.122  -8.458 -38.750  0.00  0.00    +0.000 OA
ATOM     17  C23 UNL     1      26.554  -9.126 -37.029  0.00  0.00    +0.000 A 
ATOM     18  C24 UNL     1      25.507  -9.138 -36.089  0.00  0.00    +0.000 C 
ATOM     19  C25 UNL     1      25.746  -9.488 -34.765  0.00  0.00    +0.000 C 
ATOM     20  C26 UNL     1      27.033  -9.801 -34.342  0.00  0.00    +0.000 C 
ATOM     21  C27 UNL     1      28.114  -9.768 -35.227  0.00  0.00    +0.000 C 
ATOM     22  C28 UNL     1      27.889  -9.477 -36.605  0.00  0.00    +0.000 A 
ENDROOT
BRANCH   9  23
ATOM     23  C10 UNL     1      31.797  -9.816 -40.731  0.00  0.00    +0.000 C 
ATOM     24  C11 UNL     1      33.047  -9.209 -40.802  0.00  0.00    +0.000 C 
ATOM     25  N1  UNL     1      33.723  -9.653 -41.886  0.00  0.00    +0.000 N 
ATOM     26  C12 UNL     1      32.919 -10.546 -42.488  0.00  0.00    +0.000 C 
ATOM     27  C13 UNL     1      33.188 -11.284 -43.640  0.00  0.00    +0.000 C 
ATOM     28  C14 UNL     1      32.203 -12.185 -44.088  0.00  0.00    +0.000 C 
ATOM     29  C15 UNL     1      30.989 -12.329 -43.380  0.00  0.00    +0.000 C 
ATOM     30  C16 UNL     1      30.747 -11.574 -42.218  0.00  0.00    +0.000 C 
ATOM     31  C17 UNL     1      31.738 -10.682 -41.806  0.00  0.00    +0.000 C 
ATOM     32  H8  UNL     1      34.682  -9.365 -42.185  0.00  0.00    +0.000 HD
ENDBRANCH   9  23
BRANCH   4  33
ATOM     33  O1  UNL     1      25.193  -7.865 -41.275  0.00  0.00    +0.000 OA
ATOM     34  H5  UNL     1      24.944  -7.181 -40.570  0.00  0.00    +0.000 HD
ENDBRANCH   4  33
BRANCH  10  35
ATOM     35  O2  UNL     1      32.391 -10.405 -37.991  0.00  0.00    +0.000 OA
ATOM     36  H13 UNL     1      33.165 -10.257 -38.629  0.00  0.00    +0.000 HD
ENDBRANCH  10  35
BRANCH  21  37
ATOM     37  O5  UNL     1      29.376 -10.006 -34.677  0.00  0.00    +0.000 OA
ATOM     38  H17 UNL     1      30.043 -10.672 -35.037  0.00  0.00    +0.000 HD
ENDBRANCH  21  37
TORSDOF 4
