REMARK  Name = resultss/4CJN/ligands/lig_239_t0.pdb
REMARK  6 active torsions:
REMARK  status: ('A' for Active; 'I' for Inactive)
REMARK    1  A    between atoms: C7_1  and  N1_9
REMARK    2  A    between atoms: C11_5  and  C12_19
REMARK    3  A    between atoms: C6_7  and  C5_14
REMARK    4  A    between atoms: C2_11  and  O1_18
REMARK    5  A    between atoms: C12_19  and  C13_21
REMARK    6  A    between atoms: C13_21  and  C14_22
REMARK                            x       y       z     vdW  Elec       q    Type
REMARK                         _______ _______ _______ _____ _____    ______ ____
ROOT
ATOM      1  C7  UNL     1      30.992  -9.551 -40.099  0.00  0.00    +0.000 C 
ATOM      2  C8  UNL     1      31.757  -8.879 -39.137  0.00  0.00    +0.000 C 
ATOM      3  C9  UNL     1      31.139  -8.067 -38.186  0.00  0.00    +0.000 C 
ATOM      4  C10 UNL     1      29.752  -7.907 -38.191  0.00  0.00    +0.000 C 
ATOM      5  C11 UNL     1      28.963  -8.559 -39.157  0.00  0.00    +0.000 C 
ATOM      6  C22 UNL     1      29.597  -9.372 -40.117  0.00  0.00    +0.000 C 
ENDROOT
BRANCH   1   9
ATOM      7  C6  UNL     1      30.965 -11.057 -42.140  0.00  0.00    +0.000 C 
ATOM      8  O2  UNL     1      29.740 -11.328 -42.013  0.00  0.00    +0.000 OA
ATOM      9  N1  UNL     1      31.653 -10.366 -41.084  0.00  0.00    +0.000 N 
ATOM     10  H6  UNL     1      32.672 -10.558 -40.955  0.00  0.00    +0.000 HD
BRANCH   7  14
ATOM     11  C2  UNL     1      33.041 -12.364 -45.680  0.00  0.00    +0.000 C 
ATOM     12  C3  UNL     1      32.986 -10.998 -45.356  0.00  0.00    +0.000 C 
ATOM     13  C4  UNL     1      32.313 -10.570 -44.207  0.00  0.00    +0.000 C 
ATOM     14  C5  UNL     1      31.688 -11.501 -43.357  0.00  0.00    +0.000 C 
ATOM     15  C23 UNL     1      31.737 -12.865 -43.692  0.00  0.00    +0.000 C 
ATOM     16  C24 UNL     1      32.411 -13.289 -44.841  0.00  0.00    +0.000 C 
BRANCH  11  18
ATOM     17  C1  UNL     1      33.724 -14.206 -47.227  0.00  0.00    +0.000 C 
ATOM     18  O1  UNL     1      33.705 -12.842 -46.820  0.00  0.00    +0.000 OA
ENDBRANCH  11  18
ENDBRANCH   7  14
ENDBRANCH   1   9
BRANCH   5  19
ATOM     19  C12 UNL     1      27.487  -8.386 -39.191  0.00  0.00    +0.000 C 
ATOM     20  O3  UNL     1      26.771  -9.300 -39.687  0.00  0.00    +0.000 OA
BRANCH  19  21
ATOM     21  C13 UNL     1      26.829  -7.120 -38.697  0.00  0.00    +0.000 C 
BRANCH  21  22
ATOM     22  C14 UNL     1      25.745  -7.405 -37.691  0.00  0.00    +0.000 A 
ATOM     23  N2  UNL     1      26.081  -7.949 -36.489  0.00  0.00    +0.000 NA
ATOM     24  C15 UNL     1      25.145  -8.199 -35.537  0.00  0.00    +0.000 A 
ATOM     25  C16 UNL     1      25.514  -8.763 -34.311  0.00  0.00    +0.000 C 
ATOM     26  C17 UNL     1      24.541  -9.015 -33.339  0.00  0.00    +0.000 C 
ATOM     27  C18 UNL     1      23.200  -8.705 -33.589  0.00  0.00    +0.000 C 
ATOM     28  C19 UNL     1      22.824  -8.139 -34.813  0.00  0.00    +0.000 C 
ATOM     29  C20 UNL     1      23.794  -7.883 -35.794  0.00  0.00    +0.000 A 
ATOM     30  N3  UNL     1      23.454  -7.331 -36.993  0.00  0.00    +0.000 N 
ATOM     31  C21 UNL     1      24.398  -7.081 -37.943  0.00  0.00    +0.000 A 
ATOM     32  O4  UNL     1      24.058  -6.559 -39.040  0.00  0.00    +0.000 OA
ATOM     33  H16 UNL     1      22.457  -7.088 -37.191  0.00  0.00    +0.000 HD
ENDBRANCH  21  22
ENDBRANCH  19  21
ENDBRANCH   5  19
TORSDOF 6
