REMARK  Name = resultss/4CJN/ligands/lig_182_t2.pdb
REMARK  4 active torsions:
REMARK  status: ('A' for Active; 'I' for Inactive)
REMARK    1  A    between atoms: C9_1  and  C1_17
REMARK    2  A    between atoms: C12_4  and  C13_7
REMARK    3  A    between atoms: N1_18  and  N2_20
REMARK    4  A    between atoms: C2_21  and  C3_22
REMARK                            x       y       z     vdW  Elec       q    Type
REMARK                         _______ _______ _______ _____ _____    ______ ____
ROOT
ATOM      1  C9  UNL     1      28.967  -9.814 -40.880  0.00  0.00    +0.000 C 
ATOM      2  C10 UNL     1      29.492  -9.499 -39.615  0.00  0.00    +0.000 C 
ATOM      3  C11 UNL     1      28.643  -9.266 -38.529  0.00  0.00    +0.000 C 
ATOM      4  C12 UNL     1      27.248  -9.336 -38.684  0.00  0.00    +0.000 C 
ATOM      5  C20 UNL     1      26.721  -9.638 -39.952  0.00  0.00    +0.000 C 
ATOM      6  C21 UNL     1      27.571  -9.872 -41.038  0.00  0.00    +0.000 C 
ENDROOT
BRANCH   4   7
ATOM      7  C13 UNL     1      26.357  -9.087 -37.527  0.00  0.00    +0.000 A 
ATOM      8  N3  UNL     1      26.563  -9.635 -36.301  0.00  0.00    +0.000 NA
ATOM      9  C14 UNL     1      25.605  -9.249 -35.418  0.00  0.00    +0.000 A 
ATOM     10  C15 UNL     1      25.554  -9.654 -34.083  0.00  0.00    +0.000 C 
ATOM     11  C16 UNL     1      24.506  -9.180 -33.274  0.00  0.00    +0.000 C 
ATOM     12  C17 UNL     1      23.529  -8.316 -33.806  0.00  0.00    +0.000 C 
ATOM     13  C18 UNL     1      23.590  -7.917 -35.151  0.00  0.00    +0.000 C 
ATOM     14  C19 UNL     1      24.638  -8.400 -35.930  0.00  0.00    +0.000 A 
ATOM     15  S1  UNL     1      24.971  -8.104 -37.545  0.00  0.00    +0.000 S 
ENDBRANCH   4   7
BRANCH   1  17
ATOM     16  O1  UNL     1      29.656  -9.486 -43.126  0.00  0.00    +0.000 OA
ATOM     17  C1  UNL     1      29.880 -10.054 -42.023  0.00  0.00    +0.000 C 
ATOM     18  N1  UNL     1      31.026 -10.905 -41.896  0.00  0.00    +0.000 N 
ATOM     19  H1  UNL     1      31.322 -11.251 -40.955  0.00  0.00    +0.000 HD
BRANCH  18  20
ATOM     20  N2  UNL     1      31.794 -11.218 -43.028  0.00  0.00    +0.000 NA
ATOM     21  C2  UNL     1      31.716 -12.375 -43.611  0.00  0.00    +0.000 C 
BRANCH  21  22
ATOM     22  C3  UNL     1      32.530 -12.694 -44.803  0.00  0.00    +0.000 C 
ATOM     23  C4  UNL     1      33.454 -11.662 -45.321  0.00  0.00    +0.000 C 
ATOM     24  C5  UNL     1      34.223 -11.873 -46.394  0.00  0.00    +0.000 C 
ATOM     25  C6  UNL     1      34.218 -13.169 -47.162  0.00  0.00    +0.000 C 
ATOM     26  C7  UNL     1      33.264 -14.187 -46.598  0.00  0.00    +0.000 C 
ATOM     27  O2  UNL     1      33.164 -15.314 -47.150  0.00  0.00    +0.000 OA
ATOM     28  C8  UNL     1      32.445 -13.887 -45.413  0.00  0.00    +0.000 C 
ENDBRANCH  21  22
ENDBRANCH  18  20
ENDBRANCH   1  17
TORSDOF 4
