REMARK  Name = resultss/4CJN/ligands/lig_434_t0.pdb
REMARK  6 active torsions:
REMARK  status: ('A' for Active; 'I' for Inactive)
REMARK    1  A    between atoms: C8_1  and  C7_22
REMARK    2  A    between atoms: C18_12  and  C19_15
REMARK    3  A    between atoms: N3_21  and  N2_25
REMARK    4  A    between atoms: N2_25  and  C6_27
REMARK    5  A    between atoms: C6_27  and  N1_29
REMARK    6  A    between atoms: N1_29  and  C5_35
REMARK                            x       y       z     vdW  Elec       q    Type
REMARK                         _______ _______ _______ _____ _____    ______ ____
ROOT
ATOM      1  C8  UNL     1      25.229  -7.836 -39.283  0.00  0.00    +0.000 C 
ATOM      2  C9  UNL     1      24.257  -7.348 -40.182  0.00  0.00    +0.000 C 
ATOM      3  C10 UNL     1      24.488  -7.543 -41.540  0.00  0.00    +0.000 A 
ATOM      4  C11 UNL     1      25.618  -8.181 -42.006  0.00  0.00    +0.000 A 
ATOM      5  N4  UNL     1      25.589  -8.310 -43.354  0.00  0.00    +0.000 N 
ATOM      6  C12 UNL     1      24.433  -7.723 -43.732  0.00  0.00    +0.000 A 
ATOM      7  C13 UNL     1      23.936  -7.599 -45.029  0.00  0.00    +0.000 C 
ATOM      8  C14 UNL     1      22.694  -6.958 -45.202  0.00  0.00    +0.000 C 
ATOM      9  C15 UNL     1      21.978  -6.463 -44.088  0.00  0.00    +0.000 C 
ATOM     10  C16 UNL     1      22.496  -6.605 -42.788  0.00  0.00    +0.000 C 
ATOM     11  C17 UNL     1      23.732  -7.239 -42.648  0.00  0.00    +0.000 A 
ATOM     12  C18 UNL     1      26.587  -8.643 -41.105  0.00  0.00    +0.000 C 
ATOM     13  N5  UNL     1      26.349  -8.460 -39.769  0.00  0.00    +0.000 NA
ATOM     14  H10 UNL     1      26.280  -8.785 -43.975  0.00  0.00    +0.000 HD
ENDROOT
BRANCH  12  15
ATOM     15  C19 UNL     1      27.836  -9.309 -41.532  0.00  0.00    +0.000 C 
ATOM     16  C20 UNL     1      28.619  -8.735 -42.550  0.00  0.00    +0.000 C 
ATOM     17  C21 UNL     1      29.789  -9.367 -42.984  0.00  0.00    +0.000 C 
ATOM     18  C22 UNL     1      30.180 -10.581 -42.413  0.00  0.00    +0.000 C 
ATOM     19  C23 UNL     1      29.396 -11.172 -41.416  0.00  0.00    +0.000 C 
ATOM     20  C24 UNL     1      28.223 -10.544 -40.982  0.00  0.00    +0.000 C 
ENDBRANCH  12  15
BRANCH   1  22
ATOM     21  N3  UNL     1      24.768  -8.826 -37.000  0.00  0.00    +0.000 N 
ATOM     22  C7  UNL     1      25.054  -7.684 -37.823  0.00  0.00    +0.000 C 
ATOM     23  O1  UNL     1      25.148  -6.542 -37.296  0.00  0.00    +0.000 OA
ATOM     24  H8  UNL     1      24.638  -9.757 -37.456  0.00  0.00    +0.000 HD
BRANCH  21  25
ATOM     25  N2  UNL     1      24.678  -8.710 -35.599  0.00  0.00    +0.000 N 
ATOM     26  H7  UNL     1      23.741  -8.593 -35.152  0.00  0.00    +0.000 HD
BRANCH  25  27
ATOM     27  C6  UNL     1      25.836  -8.697 -34.748  0.00  0.00    +0.000 C 
ATOM     28  S1  UNL     1      26.275  -7.315 -33.967  0.00  0.00    +0.000 S 
BRANCH  27  29
ATOM     29  N1  UNL     1      26.729  -9.822 -34.778  0.00  0.00    +0.000 N 
ATOM     30  H6  UNL     1      26.472 -10.660 -34.207  0.00  0.00    +0.000 HD
BRANCH  29  35
ATOM     31  C1  UNL     1      31.606  -9.846 -37.840  0.00  0.00    +0.000 C 
ATOM     32  C2  UNL     1      30.337  -9.829 -37.039  0.00  0.00    +0.000 C 
ATOM     33  C3  UNL     1      29.104 -10.043 -37.668  0.00  0.00    +0.000 C 
ATOM     34  C4  UNL     1      27.925 -10.046 -36.924  0.00  0.00    +0.000 C 
ATOM     35  C5  UNL     1      27.956  -9.865 -35.531  0.00  0.00    +0.000 C 
ATOM     36  C25 UNL     1      29.199  -9.666 -34.886  0.00  0.00    +0.000 C 
ATOM     37  C26 UNL     1      29.274  -9.455 -33.398  0.00  0.00    +0.000 C 
ATOM     38  C27 UNL     1      30.380  -9.652 -35.648  0.00  0.00    +0.000 C 
ENDBRANCH  29  35
ENDBRANCH  27  29
ENDBRANCH  25  27
ENDBRANCH  21  25
ENDBRANCH   1  22
TORSDOF 6
