REMARK  Name = resultss/4CJN/ligands/lig_259_t1.pdb
REMARK  4 active torsions:
REMARK  status: ('A' for Active; 'I' for Inactive)
REMARK    1  A    between atoms: C4_4  and  O1_33
REMARK    2  A    between atoms: C9_9  and  C10_23
REMARK    3  A    between atoms: C18_10  and  O2_35
REMARK    4  A    between atoms: C27_21  and  O5_37
REMARK                            x       y       z     vdW  Elec       q    Type
REMARK                         _______ _______ _______ _____ _____    ______ ____
ROOT
ATOM      1  C1  UNL     1      29.927  -9.096 -32.311  0.00  0.00    +0.000 C 
ATOM      2  C2  UNL     1      29.975  -9.281 -33.799  0.00  0.00    +0.000 C 
ATOM      3  C3  UNL     1      31.210  -9.510 -34.443  0.00  0.00    +0.000 C 
ATOM      4  C4  UNL     1      31.286  -9.631 -35.844  0.00  0.00    +0.000 C 
ATOM      5  C5  UNL     1      30.099  -9.525 -36.585  0.00  0.00    +0.000 A 
ATOM      6  C6  UNL     1      28.874  -9.312 -35.945  0.00  0.00    +0.000 A 
ATOM      7  C7  UNL     1      28.798  -9.155 -34.559  0.00  0.00    +0.000 C 
ATOM      8  C8  UNL     1      27.877  -9.245 -36.918  0.00  0.00    +0.000 A 
ATOM      9  C9  UNL     1      26.483  -9.088 -36.896  0.00  0.00    +0.000 A 
ATOM     10  C18 UNL     1      25.832  -9.039 -38.156  0.00  0.00    +0.000 A 
ATOM     11  O3  UNL     1      26.531  -9.159 -39.298  0.00  0.00    +0.000 OA
ATOM     12  C19 UNL     1      27.855  -9.324 -39.327  0.00  0.00    +0.000 A 
ATOM     13  C20 UNL     1      28.516  -9.376 -38.114  0.00  0.00    +0.000 A 
ATOM     14  C21 UNL     1      29.858  -9.565 -37.963  0.00  0.00    +0.000 A 
ATOM     15  C22 UNL     1      30.661  -9.756 -39.093  0.00  0.00    +0.000 A 
ATOM     16  O4  UNL     1      31.899  -9.957 -38.979  0.00  0.00    +0.000 OA
ATOM     17  C23 UNL     1      30.043  -9.723 -40.379  0.00  0.00    +0.000 A 
ATOM     18  C24 UNL     1      30.815  -9.956 -41.532  0.00  0.00    +0.000 C 
ATOM     19  C25 UNL     1      30.228  -9.949 -42.793  0.00  0.00    +0.000 C 
ATOM     20  C26 UNL     1      28.872  -9.678 -42.935  0.00  0.00    +0.000 C 
ATOM     21  C27 UNL     1      28.068  -9.404 -41.824  0.00  0.00    +0.000 C 
ATOM     22  C28 UNL     1      28.627  -9.469 -40.514  0.00  0.00    +0.000 A 
ENDROOT
BRANCH   9  23
ATOM     23  C10 UNL     1      25.700  -9.061 -35.650  0.00  0.00    +0.000 C 
ATOM     24  C11 UNL     1      25.645 -10.059 -34.682  0.00  0.00    +0.000 C 
ATOM     25  N1  UNL     1      24.878  -9.662 -33.640  0.00  0.00    +0.000 N 
ATOM     26  C12 UNL     1      24.465  -8.417 -33.935  0.00  0.00    +0.000 C 
ATOM     27  C13 UNL     1      23.661  -7.586 -33.155  0.00  0.00    +0.000 C 
ATOM     28  C14 UNL     1      23.365  -6.303 -33.652  0.00  0.00    +0.000 C 
ATOM     29  C15 UNL     1      23.878  -5.883 -34.900  0.00  0.00    +0.000 C 
ATOM     30  C16 UNL     1      24.690  -6.742 -35.663  0.00  0.00    +0.000 C 
ATOM     31  C17 UNL     1      24.955  -8.010 -35.149  0.00  0.00    +0.000 C 
ATOM     32  H8  UNL     1      24.662 -10.211 -32.778  0.00  0.00    +0.000 HD
ENDBRANCH   9  23
BRANCH   4  33
ATOM     33  O1  UNL     1      32.515  -9.843 -36.461  0.00  0.00    +0.000 OA
ATOM     34  H5  UNL     1      32.734 -10.717 -36.923  0.00  0.00    +0.000 HD
ENDBRANCH   4  33
BRANCH  10  35
ATOM     35  O2  UNL     1      24.450  -8.885 -38.221  0.00  0.00    +0.000 OA
ATOM     36  H13 UNL     1      24.031  -8.268 -38.907  0.00  0.00    +0.000 HD
ENDBRANCH  10  35
BRANCH  21  37
ATOM     37  O5  UNL     1      26.742  -9.052 -42.089  0.00  0.00    +0.000 OA
ATOM     38  H17 UNL     1      26.150  -8.531 -41.459  0.00  0.00    +0.000 HD
ENDBRANCH  21  37
TORSDOF 4
