REMARK  Name = resultss/4CJN/ligands/lig_162_t2.pdb
REMARK  4 active torsions:
REMARK  status: ('A' for Active; 'I' for Inactive)
REMARK    1  A    between atoms: C8_1  and  C1_17
REMARK    2  A    between atoms: C11_4  and  C12_7
REMARK    3  A    between atoms: C1_17  and  N1_18
REMARK    4  A    between atoms: N2_19  and  C2_20
REMARK                            x       y       z     vdW  Elec       q    Type
REMARK                         _______ _______ _______ _____ _____    ______ ____
ROOT
ATOM      1  C8  UNL     1      29.949  -8.808 -39.179  0.00  0.00    +0.000 C 
ATOM      2  C9  UNL     1      28.965  -7.804 -39.204  0.00  0.00    +0.000 C 
ATOM      3  C10 UNL     1      27.919  -7.811 -38.276  0.00  0.00    +0.000 C 
ATOM      4  C11 UNL     1      27.832  -8.820 -37.303  0.00  0.00    +0.000 C 
ATOM      5  C19 UNL     1      28.816  -9.822 -37.277  0.00  0.00    +0.000 C 
ATOM      6  C20 UNL     1      29.863  -9.816 -38.204  0.00  0.00    +0.000 C 
ENDROOT
BRANCH   4   7
ATOM      7  C12 UNL     1      26.718  -8.818 -36.326  0.00  0.00    +0.000 A 
ATOM      8  N4  UNL     1      25.507  -8.259 -36.583  0.00  0.00    +0.000 NA
ATOM      9  C13 UNL     1      24.665  -8.393 -35.526  0.00  0.00    +0.000 A 
ATOM     10  C14 UNL     1      23.353  -7.916 -35.498  0.00  0.00    +0.000 C 
ATOM     11  C15 UNL     1      22.586  -8.120 -34.337  0.00  0.00    +0.000 C 
ATOM     12  C16 UNL     1      23.136  -8.793 -33.227  0.00  0.00    +0.000 C 
ATOM     13  C17 UNL     1      24.456  -9.267 -33.268  0.00  0.00    +0.000 C 
ATOM     14  C18 UNL     1      25.194  -9.051 -34.428  0.00  0.00    +0.000 A 
ATOM     15  S1  UNL     1      26.774  -9.495 -34.768  0.00  0.00    +0.000 S 
ENDBRANCH   4   7
BRANCH   1  17
ATOM     16  O1  UNL     1      31.680  -7.725 -40.391  0.00  0.00    +0.000 OA
ATOM     17  C1  UNL     1      31.060  -8.798 -40.160  0.00  0.00    +0.000 C 
BRANCH  17  18
ATOM     18  N1  UNL     1      31.366  -9.988 -40.908  0.00  0.00    +0.000 NA
ATOM     19  N2  UNL     1      30.743 -10.421 -41.938  0.00  0.00    +0.000 NA
BRANCH  19  20
ATOM     20  C2  UNL     1      29.687  -9.737 -42.627  0.00  0.00    +0.000 C 
ATOM     21  C3  UNL     1      28.416  -9.855 -42.222  0.00  0.00    +0.000 C 
ATOM     22  C4  UNL     1      27.330  -9.180 -42.963  0.00  0.00    +0.000 C 
ATOM     23  C5  UNL     1      26.066  -9.303 -42.547  0.00  0.00    +0.000 C 
ATOM     24  C6  UNL     1      25.731 -10.106 -41.353  0.00  0.00    +0.000 C 
ATOM     25  C7  UNL     1      26.689 -10.729 -40.657  0.00  0.00    +0.000 C 
ATOM     26  N3  UNL     1      28.062 -10.629 -41.061  0.00  0.00    +0.000 N 
ATOM     27  H6  UNL     1      28.786 -11.126 -40.495  0.00  0.00    +0.000 HD
ENDBRANCH  19  20
ENDBRANCH  17  18
ENDBRANCH   1  17
TORSDOF 4
