REMARK  Name = resultss/4CJN/ligands/lig_179_t2.pdb
REMARK  4 active torsions:
REMARK  status: ('A' for Active; 'I' for Inactive)
REMARK    1  A    between atoms: C9_1  and  C1_17
REMARK    2  A    between atoms: C12_4  and  C13_7
REMARK    3  A    between atoms: N1_18  and  N2_20
REMARK    4  A    between atoms: C2_21  and  C3_22
REMARK                            x       y       z     vdW  Elec       q    Type
REMARK                         _______ _______ _______ _____ _____    ______ ____
ROOT
ATOM      1  C9  UNL     1      26.200  -8.572 -39.719  0.00  0.00    +0.000 C 
ATOM      2  C10 UNL     1      25.122  -7.714 -39.439  0.00  0.00    +0.000 C 
ATOM      3  C11 UNL     1      24.196  -7.386 -40.433  0.00  0.00    +0.000 C 
ATOM      4  C12 UNL     1      24.321  -7.913 -41.729  0.00  0.00    +0.000 C 
ATOM      5  C20 UNL     1      25.393  -8.779 -42.007  0.00  0.00    +0.000 C 
ATOM      6  C21 UNL     1      26.320  -9.107 -41.013  0.00  0.00    +0.000 C 
ENDROOT
BRANCH   4   7
ATOM      7  C13 UNL     1      23.334  -7.559 -42.775  0.00  0.00    +0.000 A 
ATOM      8  N3  UNL     1      22.018  -7.350 -42.514  0.00  0.00    +0.000 NA
ATOM      9  C14 UNL     1      21.331  -7.040 -43.642  0.00  0.00    +0.000 A 
ATOM     10  C15 UNL     1      19.961  -6.772 -43.683  0.00  0.00    +0.000 C 
ATOM     11  C16 UNL     1      19.371  -6.463 -44.922  0.00  0.00    +0.000 C 
ATOM     12  C17 UNL     1      20.151  -6.425 -46.095  0.00  0.00    +0.000 C 
ATOM     13  C18 UNL     1      21.527  -6.696 -46.040  0.00  0.00    +0.000 C 
ATOM     14  C19 UNL     1      22.086  -6.999 -44.802  0.00  0.00    +0.000 A 
ATOM     15  S1  UNL     1      23.680  -7.363 -44.428  0.00  0.00    +0.000 S 
ENDBRANCH   4   7
BRANCH   1  17
ATOM     16  O1  UNL     1      28.315  -9.354 -38.978  0.00  0.00    +0.000 OA
ATOM     17  C1  UNL     1      27.175  -8.918 -38.657  0.00  0.00    +0.000 C 
ATOM     18  N1  UNL     1      26.822  -8.810 -37.267  0.00  0.00    +0.000 N 
ATOM     19  H1  UNL     1      25.821  -8.934 -36.999  0.00  0.00    +0.000 HD
BRANCH  18  20
ATOM     20  N2  UNL     1      27.771  -8.770 -36.229  0.00  0.00    +0.000 NA
ATOM     21  C2  UNL     1      28.729  -9.639 -36.097  0.00  0.00    +0.000 C 
BRANCH  21  22
ATOM     22  C3  UNL     1      29.690  -9.561 -34.975  0.00  0.00    +0.000 C 
ATOM     23  C4  UNL     1      29.151  -9.458 -33.601  0.00  0.00    +0.000 C 
ATOM     24  C5  UNL     1      29.954  -9.443 -32.538  0.00  0.00    +0.000 C 
ATOM     25  C6  UNL     1      31.412  -9.510 -32.703  0.00  0.00    +0.000 C 
ATOM     26  O2  UNL     1      32.149  -9.584 -31.685  0.00  0.00    +0.000 OA
ATOM     27  C7  UNL     1      32.033  -9.466 -34.073  0.00  0.00    +0.000 C 
ATOM     28 BR1  UNL     1      32.990  -7.795 -34.288  0.00  0.00    +0.000 Br
ATOM     29  C8  UNL     1      31.021  -9.591 -35.186  0.00  0.00    +0.000 C 
ENDBRANCH  21  22
ENDBRANCH  18  20
ENDBRANCH   1  17
TORSDOF 4
