REMARK  Name = resultss/4CJN/ligands/lig_169_t2.pdb
REMARK  4 active torsions:
REMARK  status: ('A' for Active; 'I' for Inactive)
REMARK    1  A    between atoms: C9_1  and  C1_17
REMARK    2  A    between atoms: C12_4  and  C13_7
REMARK    3  A    between atoms: N1_18  and  N2_20
REMARK    4  A    between atoms: C2_21  and  C3_22
REMARK                            x       y       z     vdW  Elec       q    Type
REMARK                         _______ _______ _______ _____ _____    ______ ____
ROOT
ATOM      1  C9  UNL     1      29.149  -9.384 -40.236  0.00  0.00    +0.000 C 
ATOM      2  C10 UNL     1      28.543  -9.861 -41.411  0.00  0.00    +0.000 C 
ATOM      3  C11 UNL     1      29.311 -10.454 -42.418  0.00  0.00    +0.000 C 
ATOM      4  C12 UNL     1      30.705 -10.577 -42.275  0.00  0.00    +0.000 C 
ATOM      5  C20 UNL     1      31.311 -10.090 -41.105  0.00  0.00    +0.000 C 
ATOM      6  C21 UNL     1      30.543  -9.496 -40.100  0.00  0.00    +0.000 C 
ENDROOT
BRANCH   4   7
ATOM      7  C13 UNL     1      31.528 -11.204 -43.335  0.00  0.00    +0.000 A 
ATOM      8  N3  UNL     1      32.195 -10.489 -44.277  0.00  0.00    +0.000 NA
ATOM      9  C14 UNL     1      32.873 -11.300 -45.129  0.00  0.00    +0.000 A 
ATOM     10  C15 UNL     1      33.649 -10.849 -46.198  0.00  0.00    +0.000 C 
ATOM     11  C16 UNL     1      34.301 -11.797 -47.006  0.00  0.00    +0.000 C 
ATOM     12  C17 UNL     1      34.170 -13.176 -46.738  0.00  0.00    +0.000 C 
ATOM     13  C18 UNL     1      33.387 -13.616 -45.659  0.00  0.00    +0.000 C 
ATOM     14  C19 UNL     1      32.752 -12.656 -44.875  0.00  0.00    +0.000 A 
ATOM     15  S1  UNL     1      31.764 -12.875 -43.539  0.00  0.00    +0.000 S 
ENDBRANCH   4   7
BRANCH   1  17
ATOM     16  O1  UNL     1      27.681  -7.709 -39.419  0.00  0.00    +0.000 OA
ATOM     17  C1  UNL     1      28.348  -8.748 -39.161  0.00  0.00    +0.000 C 
ATOM     18  N1  UNL     1      28.331  -9.278 -37.831  0.00  0.00    +0.000 N 
ATOM     19  H1  UNL     1      29.000 -10.033 -37.557  0.00  0.00    +0.000 HD
BRANCH  18  20
ATOM     20  N2  UNL     1      27.461  -8.735 -36.871  0.00  0.00    +0.000 NA
ATOM     21  C2  UNL     1      26.352  -9.323 -36.542  0.00  0.00    +0.000 C 
BRANCH  21  22
ATOM     22  C3  UNL     1      25.442  -8.739 -35.532  0.00  0.00    +0.000 C 
ATOM     23  C4  UNL     1      25.737  -8.997 -34.066  0.00  0.00    +0.000 C 
ATOM     24  C5  UNL     1      24.469  -9.007 -33.198  0.00  0.00    +0.000 C 
ATOM     25  C6  UNL     1      23.606  -7.819 -33.500  0.00  0.00    +0.000 C 
ATOM     26  O2  UNL     1      22.891  -7.304 -32.600  0.00  0.00    +0.000 OA
ATOM     27  C7  UNL     1      23.551  -7.318 -34.880  0.00  0.00    +0.000 C 
ATOM     28  O3  UNL     1      22.735  -6.414 -35.202  0.00  0.00    +0.000 OA
ATOM     29  C8  UNL     1      24.451  -7.899 -35.888  0.00  0.00    +0.000 C 
ENDBRANCH  21  22
ENDBRANCH  18  20
ENDBRANCH   1  17
TORSDOF 4
