REMARK  Name = resultss/4CJN/ligands/lig_351_t0.pdb
REMARK  10 active torsions:
REMARK  status: ('A' for Active; 'I' for Inactive)
REMARK    1  A    between atoms: C12_1  and  O2_27
REMARK    2  A    between atoms: C15_4  and  C16_7
REMARK    3  A    between atoms: N4_17  and  N5_19
REMARK    4  A    between atoms: N5_19  and  C24_21
REMARK    5  A    between atoms: O2_27  and  C11_28
REMARK    6  A    between atoms: C11_28  and  C10_31
REMARK    7  A    between atoms: N2_29  and  C8_34
REMARK    8  A    between atoms: C8_34  and  C7_36
REMARK    9  A    between atoms: N1_35  and  C6_42
REMARK   10  A    between atoms: C3_39  and  C2_46
REMARK                            x       y       z     vdW  Elec       q    Type
REMARK                         _______ _______ _______ _____ _____    ______ ____
ROOT
ATOM      1  C12 UNL     1      26.402  -8.016 -39.811  0.00  0.00    +0.000 C 
ATOM      2  C13 UNL     1      25.859  -8.906 -38.878  0.00  0.00    +0.000 C 
ATOM      3  C14 UNL     1      26.164  -8.785 -37.521  0.00  0.00    +0.000 C 
ATOM      4  C15 UNL     1      27.017  -7.767 -37.065  0.00  0.00    +0.000 C 
ATOM      5  C30 UNL     1      27.568  -6.874 -38.005  0.00  0.00    +0.000 C 
ATOM      6  C31 UNL     1      27.255  -6.991 -39.363  0.00  0.00    +0.000 C 
ENDROOT
BRANCH   4   7
ATOM      7  C16 UNL     1      27.370  -7.716 -35.589  0.00  0.00    +0.000 C 
ATOM      8  N3  UNL     1      26.494  -6.758 -34.909  0.00  0.00    +0.000 N 
ATOM      9  C17 UNL     1      25.272  -7.159 -34.275  0.00  0.00    +0.000 C 
ATOM     10  C18 UNL     1      24.313  -6.198 -33.922  0.00  0.00    +0.000 C 
ATOM     11  C19 UNL     1      23.117  -6.590 -33.314  0.00  0.00    +0.000 C 
ATOM     12  C20 UNL     1      22.874  -7.942 -33.055  0.00  0.00    +0.000 C 
ATOM     13  C21 UNL     1      23.830  -8.905 -33.393  0.00  0.00    +0.000 C 
ATOM     14  C22 UNL     1      25.037  -8.516 -34.001  0.00  0.00    +0.000 C 
ATOM     15  C23 UNL     1      26.082  -9.493 -34.340  0.00  0.00    +0.000 C 
ATOM     16  O3  UNL     1      25.903 -10.721 -34.112  0.00  0.00    +0.000 OA
ATOM     17  N4  UNL     1      27.308  -9.041 -34.951  0.00  0.00    +0.000 N 
ATOM     18  H17 UNL     1      26.686  -5.739 -35.044  0.00  0.00    +0.000 HD
BRANCH  17  19
ATOM     19  N5  UNL     1      28.382  -9.932 -35.148  0.00  0.00    +0.000 N 
ATOM     20  H22 UNL     1      28.241 -10.758 -35.774  0.00  0.00    +0.000 HD
BRANCH  19  21
ATOM     21  C24 UNL     1      29.689  -9.710 -34.595  0.00  0.00    +0.000 C 
ATOM     22  C25 UNL     1      29.898  -9.681 -33.203  0.00  0.00    +0.000 C 
ATOM     23  C26 UNL     1      31.179  -9.463 -32.687  0.00  0.00    +0.000 C 
ATOM     24  C27 UNL     1      32.257  -9.256 -33.552  0.00  0.00    +0.000 C 
ATOM     25  C28 UNL     1      32.055  -9.260 -34.934  0.00  0.00    +0.000 C 
ATOM     26  C29 UNL     1      30.775  -9.482 -35.454  0.00  0.00    +0.000 C 
ENDBRANCH  19  21
ENDBRANCH  17  19
ENDBRANCH   4   7
BRANCH   1  27
ATOM     27  O2  UNL     1      26.078  -8.196 -41.165  0.00  0.00    +0.000 OA
BRANCH  27  28
ATOM     28  C11 UNL     1      26.582  -7.411 -42.245  0.00  0.00    +0.000 C 
BRANCH  28  31
ATOM     29  N2  UNL     1      24.774  -7.249 -45.387  0.00  0.00    +0.000 N 
ATOM     30  C9  UNL     1      25.944  -7.248 -44.727  0.00  0.00    +0.000 C 
ATOM     31  C10 UNL     1      25.630  -7.430 -43.399  0.00  0.00    +0.000 C 
ATOM     32  N6  UNL     1      24.288  -7.511 -43.284  0.00  0.00    +0.000 NA
ATOM     33  N7  UNL     1      23.794  -7.399 -44.509  0.00  0.00    +0.000 NA
BRANCH  29  34
ATOM     34  C8  UNL     1      24.579  -7.013 -46.812  0.00  0.00    +0.000 C 
BRANCH  34  36
ATOM     35  N1  UNL     1      22.081  -6.551 -46.862  0.00  0.00    +0.000 N 
ATOM     36  C7  UNL     1      23.186  -7.403 -47.205  0.00  0.00    +0.000 C 
ATOM     37  O1  UNL     1      22.997  -8.484 -47.825  0.00  0.00    +0.000 OA
ATOM     38  H8  UNL     1      22.226  -5.845 -46.106  0.00  0.00    +0.000 HD
BRANCH  35  42
ATOM     39  C3  UNL     1      18.159  -6.836 -48.491  0.00  0.00    +0.000 C 
ATOM     40  C4  UNL     1      19.249  -6.556 -49.330  0.00  0.00    +0.000 C 
ATOM     41  C5  UNL     1      20.541  -6.462 -48.804  0.00  0.00    +0.000 C 
ATOM     42  C6  UNL     1      20.766  -6.671 -47.432  0.00  0.00    +0.000 C 
ATOM     43  C32 UNL     1      19.675  -6.940 -46.595  0.00  0.00    +0.000 C 
ATOM     44  C33 UNL     1      18.382  -7.034 -47.121  0.00  0.00    +0.000 C 
BRANCH  39  46
ATOM     45  C1  UNL     1      15.837  -7.637 -48.066  0.00  0.00    +0.000 C 
ATOM     46  C2  UNL     1      16.773  -6.961 -49.063  0.00  0.00    +0.000 C 
ENDBRANCH  39  46
ENDBRANCH  35  42
ENDBRANCH  34  36
ENDBRANCH  29  34
ENDBRANCH  28  31
ENDBRANCH  27  28
ENDBRANCH   1  27
TORSDOF 10
