REMARK  Name = resultss/4CJN/ligands/lig_331_t1.pdb
REMARK  10 active torsions:
REMARK  status: ('A' for Active; 'I' for Inactive)
REMARK    1  A    between atoms: C5_1  and  C4_13
REMARK    2  A    between atoms: C8_5  and  C9_24
REMARK    3  A    between atoms: C18_7  and  O4_22
REMARK    4  A    between atoms: C21_10  and  C22_34
REMARK    5  A    between atoms: C2_11  and  O1_19
REMARK    6  A    between atoms: C24_15  and  O7_20
REMARK    7  A    between atoms: C9_24  and  C10_25
REMARK    8  A    between atoms: C10_25  and  C11_26
REMARK    9  A    between atoms: C14_29  and  O3_32
REMARK   10  A    between atoms: C22_34  and  O6_35
REMARK                            x       y       z     vdW  Elec       q    Type
REMARK                         _______ _______ _______ _____ _____    ______ ____
ROOT
ATOM      1  C5  UNL     1      25.979  -7.523 -42.622  0.00  0.00    +0.000 C 
ATOM      2  O2  UNL     1      26.834  -8.555 -43.127  0.00  0.00    +0.000 OA
ATOM      3  C6  UNL     1      27.774  -9.187 -42.308  0.00  0.00    +0.000 C 
ATOM      4  C7  UNL     1      28.771  -9.990 -42.863  0.00  0.00    +0.000 C 
ATOM      5  C8  UNL     1      29.735 -10.587 -42.036  0.00  0.00    +0.000 C 
ATOM      6  C17 UNL     1      29.672 -10.391 -40.645  0.00  0.00    +0.000 C 
ATOM      7  C18 UNL     1      28.656  -9.595 -40.079  0.00  0.00    +0.000 C 
ATOM      8  C20 UNL     1      27.703  -9.007 -40.920  0.00  0.00    +0.000 C 
ATOM      9  O5  UNL     1      26.665  -8.236 -40.389  0.00  0.00    +0.000 OA
ATOM     10  C21 UNL     1      25.529  -7.868 -41.177  0.00  0.00    +0.000 C 
ENDROOT
BRANCH   1  13
ATOM     11  C2  UNL     1      22.422  -6.640 -43.956  0.00  0.00    +0.000 C 
ATOM     12  C3  UNL     1      23.651  -6.812 -43.094  0.00  0.00    +0.000 C 
ATOM     13  C4  UNL     1      24.802  -7.336 -43.553  0.00  0.00    +0.000 C 
ATOM     14  C23 UNL     1      24.958  -7.669 -44.987  0.00  0.00    +0.000 C 
ATOM     15  C24 UNL     1      23.991  -7.404 -45.880  0.00  0.00    +0.000 C 
ATOM     16  C26 UNL     1      22.727  -6.801 -45.422  0.00  0.00    +0.000 C 
ATOM     17  O8  UNL     1      21.863  -6.453 -46.271  0.00  0.00    +0.000 OA
BRANCH  11  19
ATOM     18  C1  UNL     1      20.296  -7.002 -43.087  0.00  0.00    +0.000 C 
ATOM     19  O1  UNL     1      21.460  -7.615 -43.597  0.00  0.00    +0.000 OA
ENDBRANCH  11  19
BRANCH  15  20
ATOM     20  O7  UNL     1      24.138  -7.671 -47.252  0.00  0.00    +0.000 OA
ATOM     21  C25 UNL     1      24.773  -6.805 -48.188  0.00  0.00    +0.000 C 
ENDBRANCH  15  20
ENDBRANCH   1  13
BRANCH   7  22
ATOM     22  O4  UNL     1      28.556  -9.375 -38.696  0.00  0.00    +0.000 OA
ATOM     23  C19 UNL     1      27.999 -10.305 -37.772  0.00  0.00    +0.000 C 
ENDBRANCH   7  22
BRANCH   5  24
ATOM     24  C9  UNL     1      30.794 -11.477 -42.629  0.00  0.00    +0.000 C 
BRANCH  24  25
ATOM     25  C10 UNL     1      31.774 -10.657 -43.473  0.00  0.00    +0.000 C 
BRANCH  25  26
ATOM     26  C11 UNL     1      32.444 -11.528 -44.500  0.00  0.00    +0.000 C 
ATOM     27  C12 UNL     1      32.188 -12.908 -44.535  0.00  0.00    +0.000 C 
ATOM     28  C13 UNL     1      32.786 -13.713 -45.510  0.00  0.00    +0.000 C 
ATOM     29  C14 UNL     1      33.639 -13.143 -46.465  0.00  0.00    +0.000 C 
ATOM     30  C15 UNL     1      33.887 -11.766 -46.442  0.00  0.00    +0.000 C 
ATOM     31  C16 UNL     1      33.289 -10.961 -45.468  0.00  0.00    +0.000 C 
BRANCH  29  32
ATOM     32  O3  UNL     1      34.242 -13.934 -47.441  0.00  0.00    +0.000 OA
ATOM     33  H14 UNL     1      34.693 -13.524 -48.250  0.00  0.00    +0.000 HD
ENDBRANCH  29  32
ENDBRANCH  25  26
ENDBRANCH  24  25
ENDBRANCH   5  24
BRANCH  10  34
ATOM     34  C22 UNL     1      24.782  -6.713 -40.492  0.00  0.00    +0.000 C 
BRANCH  34  35
ATOM     35  O6  UNL     1      23.853  -7.193 -39.557  0.00  0.00    +0.000 OA
ATOM     36  H24 UNL     1      23.114  -6.532 -39.522  0.00  0.00    +0.000 HD
ENDBRANCH  34  35
ENDBRANCH  10  34
TORSDOF 10
