REMARK  Name = resultss/4CJN/ligands/lig_253_t1.pdb
REMARK  10 active torsions:
REMARK  status: ('A' for Active; 'I' for Inactive)
REMARK    1  A    between atoms: C4_1  and  C3_19
REMARK    2  A    between atoms: C6_3  and  C7_22
REMARK    3  A    between atoms: C17_4  and  O3_17
REMARK    4  A    between atoms: C18_5  and  C19_7
REMARK    5  A    between atoms: C24_13  and  C25_15
REMARK    6  A    between atoms: C3_19  and  C2_21
REMARK    7  A    between atoms: C7_22  and  S1_23
REMARK    8  A    between atoms: S1_23  and  C8_24
REMARK    9  A    between atoms: C9_27  and  C10_29
REMARK   10  A    between atoms: C14_33  and  O1_35
REMARK                            x       y       z     vdW  Elec       q    Type
REMARK                         _______ _______ _______ _____ _____    ______ ____
ROOT
ATOM      1  C4  UNL     1      29.004  -9.900 -41.818  0.00  0.00    +0.000 C 
ATOM      2  C5  UNL     1      28.538  -9.442 -40.581  0.00  0.00    +0.000 C 
ATOM      3  C6  UNL     1      27.698  -8.319 -40.497  0.00  0.00    +0.000 C 
ATOM      4  C17 UNL     1      27.313  -7.648 -41.684  0.00  0.00    +0.000 C 
ATOM      5  C18 UNL     1      27.759  -8.125 -42.936  0.00  0.00    +0.000 C 
ATOM      6  C28 UNL     1      28.601  -9.247 -42.990  0.00  0.00    +0.000 C 
ENDROOT
BRANCH   5   7
ATOM      7  C19 UNL     1      27.354  -7.459 -44.200  0.00  0.00    +0.000 C 
ATOM      8  C20 UNL     1      28.287  -7.127 -45.111  0.00  0.00    +0.000 C 
ATOM      9  C21 UNL     1      27.920  -6.456 -46.403  0.00  0.00    +0.000 C 
ATOM     10  C22 UNL     1      26.613  -6.991 -46.901  0.00  0.00    +0.000 C 
ATOM     11  O4  UNL     1      26.497  -7.307 -48.115  0.00  0.00    +0.000 OA
ATOM     12  C23 UNL     1      25.517  -7.202 -45.918  0.00  0.00    +0.000 C 
ATOM     13  C24 UNL     1      24.219  -7.378 -46.243  0.00  0.00    +0.000 C 
ATOM     14  C27 UNL     1      25.890  -7.140 -44.449  0.00  0.00    +0.000 C 
BRANCH  13  15
ATOM     15  C25 UNL     1      23.655  -7.285 -47.605  0.00  0.00    +0.000 C 
ATOM     16  C26 UNL     1      23.236  -6.118 -48.090  0.00  0.00    +0.000 C 
ENDBRANCH  13  15
ENDBRANCH   5   7
BRANCH   4  17
ATOM     17  O3  UNL     1      26.511  -6.503 -41.645  0.00  0.00    +0.000 OA
ATOM     18  H16 UNL     1      25.507  -6.516 -41.761  0.00  0.00    +0.000 HD
ENDBRANCH   4  17
BRANCH   1  19
ATOM     19  C3  UNL     1      29.899 -11.108 -41.888  0.00  0.00    +0.000 C 
BRANCH  19  21
ATOM     20  C1  UNL     1      31.960 -10.930 -43.259  0.00  0.00    +0.000 C 
ATOM     21  C2  UNL     1      30.642 -11.148 -43.194  0.00  0.00    +0.000 C 
ENDBRANCH  19  21
ENDBRANCH   1  19
BRANCH   3  22
ATOM     22  C7  UNL     1      27.283  -7.827 -39.131  0.00  0.00    +0.000 C 
BRANCH  22  23
ATOM     23  S1  UNL     1      25.828  -8.748 -38.513  0.00  0.00    +0.000 S 
BRANCH  23  24
ATOM     24  C8  UNL     1      26.610  -9.241 -36.979  0.00  0.00    +0.000 A 
ATOM     25  N1  UNL     1      25.954  -9.798 -35.945  0.00  0.00    +0.000 NA
ATOM     26  N2  UNL     1      26.857  -9.992 -34.999  0.00  0.00    +0.000 NA
ATOM     27  C9  UNL     1      28.030  -9.549 -35.494  0.00  0.00    +0.000 A 
ATOM     28  O2  UNL     1      27.883  -9.089 -36.714  0.00  0.00    +0.000 OA
BRANCH  27  29
ATOM     29  C10 UNL     1      29.311  -9.576 -34.762  0.00  0.00    +0.000 C 
ATOM     30  C11 UNL     1      29.331  -9.597 -33.358  0.00  0.00    +0.000 C 
ATOM     31  C12 UNL     1      30.547  -9.623 -32.671  0.00  0.00    +0.000 C 
ATOM     32  C13 UNL     1      31.753  -9.631 -33.376  0.00  0.00    +0.000 C 
ATOM     33  C14 UNL     1      31.750  -9.612 -34.784  0.00  0.00    +0.000 C 
ATOM     34  C16 UNL     1      30.527  -9.581 -35.465  0.00  0.00    +0.000 C 
BRANCH  33  35
ATOM     35  O1  UNL     1      32.934  -9.628 -35.538  0.00  0.00    +0.000 OA
ATOM     36  C15 UNL     1      32.981  -9.746 -36.956  0.00  0.00    +0.000 C 
ENDBRANCH  33  35
ENDBRANCH  27  29
ENDBRANCH  23  24
ENDBRANCH  22  23
ENDBRANCH   3  22
TORSDOF 10
