REMARK  Name = resultss/4CJN/ligands/lig_250_t0.pdb
REMARK  13 active torsions:
REMARK  status: ('A' for Active; 'I' for Inactive)
REMARK    1  A    between atoms: C4_1  and  C3_36
REMARK    2  A    between atoms: C6_3  and  C7_10
REMARK    3  A    between atoms: C28_6  and  S2_39
REMARK    4  A    between atoms: C9_12  and  C10_19
REMARK    5  A    between atoms: C14_15  and  S1_22
REMARK    6  A    between atoms: C10_19  and  C11_20
REMARK    7  A    between atoms: S1_22  and  C15_23
REMARK    8  A    between atoms: C15_23  and  C16_24
REMARK    9  A    between atoms: C17_27  and  C18_29
REMARK   10  A    between atoms: C3_36  and  C2_38
REMARK   11  A    between atoms: S2_39  and  C29_40
REMARK   12  A    between atoms: C29_40  and  C30_41
REMARK   13  A    between atoms: C31_44  and  C32_46
REMARK                            x       y       z     vdW  Elec       q    Type
REMARK                         _______ _______ _______ _____ _____    ______ ____
ROOT
ATOM      1  C4  UNL     1      32.839 -11.574 -44.264  0.00  0.00    +0.000 C 
ATOM      2  C5  UNL     1      31.710 -10.735 -44.061  0.00  0.00    +0.000 C 
ATOM      3  C6  UNL     1      31.533 -10.042 -42.841  0.00  0.00    +0.000 C 
ATOM      4  C27 UNL     1      32.510 -10.230 -41.859  0.00  0.00    +0.000 A 
ATOM      5  O3  UNL     1      32.574  -9.727 -40.655  0.00  0.00    +0.000 OA
ATOM      6  C28 UNL     1      33.689 -10.199 -40.127  0.00  0.00    +0.000 A 
ATOM      7  N6  UNL     1      34.379 -11.025 -40.957  0.00  0.00    +0.000 NA
ATOM      8  C39 UNL     1      33.598 -11.027 -42.051  0.00  0.00    +0.000 A 
ATOM      9  C40 UNL     1      33.803 -11.717 -43.241  0.00  0.00    +0.000 C 
ENDROOT
BRANCH   3  10
ATOM     10  C7  UNL     1      30.379  -9.139 -42.622  0.00  0.00    +0.000 C 
ATOM     11  C8  UNL     1      30.464  -8.091 -41.665  0.00  0.00    +0.000 C 
ATOM     12  C9  UNL     1      29.370  -7.232 -41.429  0.00  0.00    +0.000 C 
ATOM     13  C13 UNL     1      28.207  -7.466 -42.164  0.00  0.00    +0.000 A 
ATOM     14  O1  UNL     1      27.065  -6.837 -42.116  0.00  0.00    +0.000 OA
ATOM     15  C14 UNL     1      26.284  -7.448 -42.989  0.00  0.00    +0.000 A 
ATOM     16  N3  UNL     1      26.888  -8.481 -43.633  0.00  0.00    +0.000 NA
ATOM     17  C25 UNL     1      28.116  -8.465 -43.085  0.00  0.00    +0.000 A 
ATOM     18  C26 UNL     1      29.181  -9.322 -43.352  0.00  0.00    +0.000 C 
BRANCH  12  19
ATOM     19  C10 UNL     1      29.433  -6.166 -40.372  0.00  0.00    +0.000 C 
BRANCH  19  20
ATOM     20  C11 UNL     1      29.695  -6.784 -39.028  0.00  0.00    +0.000 C 
ATOM     21  C12 UNL     1      28.874  -6.585 -37.992  0.00  0.00    +0.000 C 
ENDBRANCH  19  20
ENDBRANCH  12  19
BRANCH  15  22
ATOM     22  S1  UNL     1      24.589  -6.963 -43.287  0.00  0.00    +0.000 S 
BRANCH  22  23
ATOM     23  C15 UNL     1      24.317  -6.444 -41.563  0.00  0.00    +0.000 C 
BRANCH  23  24
ATOM     24  C16 UNL     1      24.603  -7.589 -40.654  0.00  0.00    +0.000 A 
ATOM     25  N1  UNL     1      24.159  -8.843 -40.858  0.00  0.00    +0.000 NA
ATOM     26  N2  UNL     1      24.644  -9.570 -39.864  0.00  0.00    +0.000 NA
ATOM     27  C17 UNL     1      25.370  -8.736 -39.091  0.00  0.00    +0.000 A 
ATOM     28  O2  UNL     1      25.346  -7.515 -39.577  0.00  0.00    +0.000 OA
BRANCH  27  29
ATOM     29  C18 UNL     1      26.101  -9.120 -37.854  0.00  0.00    +0.000 C 
ATOM     30  C19 UNL     1      25.503  -8.806 -36.618  0.00  0.00    +0.000 C 
ATOM     31  C20 UNL     1      26.124  -9.136 -35.414  0.00  0.00    +0.000 C 
ATOM     32  C21 UNL     1      27.355  -9.787 -35.418  0.00  0.00    +0.000 C 
ATOM     33  C22 UNL     1      27.971 -10.108 -36.627  0.00  0.00    +0.000 C 
ATOM     34  C23 UNL     1      27.365  -9.778 -37.855  0.00  0.00    +0.000 C 
ATOM     35  C24 UNL     1      28.090 -10.141 -39.125  0.00  0.00    +0.000 C 
ENDBRANCH  27  29
ENDBRANCH  23  24
ENDBRANCH  22  23
ENDBRANCH  15  22
ENDBRANCH   3  10
BRANCH   1  36
ATOM     36  C3  UNL     1      33.037 -12.271 -45.583  0.00  0.00    +0.000 C 
BRANCH  36  38
ATOM     37  C1  UNL     1      32.853 -14.594 -46.437  0.00  0.00    +0.000 C 
ATOM     38  C2  UNL     1      32.518 -13.681 -45.520  0.00  0.00    +0.000 C 
ENDBRANCH  36  38
ENDBRANCH   1  36
BRANCH   6  39
ATOM     39  S2  UNL     1      34.243  -9.781 -38.478  0.00  0.00    +0.000 S 
BRANCH  39  40
ATOM     40  C29 UNL     1      32.683 -10.284 -37.676  0.00  0.00    +0.000 C 
BRANCH  40  41
ATOM     41  C30 UNL     1      32.274  -9.273 -36.659  0.00  0.00    +0.000 A 
ATOM     42  N4  UNL     1      33.004  -8.194 -36.324  0.00  0.00    +0.000 NA
ATOM     43  N5  UNL     1      32.315  -7.564 -35.384  0.00  0.00    +0.000 NA
ATOM     44  C31 UNL     1      31.193  -8.282 -35.177  0.00  0.00    +0.000 A 
ATOM     45  O4  UNL     1      31.169  -9.336 -35.959  0.00  0.00    +0.000 OA
BRANCH  44  46
ATOM     46  C32 UNL     1      30.116  -7.949 -34.206  0.00  0.00    +0.000 C 
ATOM     47  C33 UNL     1      29.283  -6.852 -34.507  0.00  0.00    +0.000 C 
ATOM     48  C34 UNL     1      28.253  -6.474 -33.644  0.00  0.00    +0.000 C 
ATOM     49  C35 UNL     1      28.039  -7.176 -32.463  0.00  0.00    +0.000 C 
ATOM     50  C36 UNL     1      28.848  -8.266 -32.141  0.00  0.00    +0.000 C 
ATOM     51  C37 UNL     1      29.888  -8.672 -32.998  0.00  0.00    +0.000 C 
ATOM     52  C38 UNL     1      30.728  -9.855 -32.591  0.00  0.00    +0.000 C 
ENDBRANCH  44  46
ENDBRANCH  40  41
ENDBRANCH  39  40
ENDBRANCH   6  39
TORSDOF 13
