REMARK  Name = resultss/4CJN/ligands/lig_443_t0.pdb
REMARK  7 active torsions:
REMARK  status: ('A' for Active; 'I' for Inactive)
REMARK    1  A    between atoms: C9_1  and  C1_22
REMARK    2  A    between atoms: C19_12  and  C20_15
REMARK    3  A    between atoms: N1_23  and  N2_25
REMARK    4  A    between atoms: N2_25  and  C2_27
REMARK    5  A    between atoms: C2_27  and  N3_29
REMARK    6  A    between atoms: N3_29  and  C3_31
REMARK    7  A    between atoms: C7_35  and  N4_37
REMARK                            x       y       z     vdW  Elec       q    Type
REMARK                         _______ _______ _______ _____ _____    ______ ____
ROOT
ATOM      1  C9  UNL     1      27.046  -9.373 -37.864  0.00  0.00    +0.000 C 
ATOM      2  C10 UNL     1      25.754  -8.989 -37.444  0.00  0.00    +0.000 C 
ATOM      3  C11 UNL     1      25.620  -8.533 -36.138  0.00  0.00    +0.000 A 
ATOM      4  C12 UNL     1      26.689  -8.458 -35.274  0.00  0.00    +0.000 A 
ATOM      5  N5  UNL     1      26.325  -7.921 -34.084  0.00  0.00    +0.000 N 
ATOM      6  C13 UNL     1      25.002  -7.677 -34.206  0.00  0.00    +0.000 A 
ATOM      7  C14 UNL     1      24.161  -7.106 -33.253  0.00  0.00    +0.000 C 
ATOM      8  C15 UNL     1      22.809  -6.914 -33.597  0.00  0.00    +0.000 C 
ATOM      9  C16 UNL     1      22.334  -7.287 -34.874  0.00  0.00    +0.000 C 
ATOM     10  C17 UNL     1      23.203  -7.854 -35.824  0.00  0.00    +0.000 C 
ATOM     11  C18 UNL     1      24.534  -8.038 -35.452  0.00  0.00    +0.000 A 
ATOM     12  C19 UNL     1      27.964  -8.858 -35.697  0.00  0.00    +0.000 C 
ATOM     13  N6  UNL     1      28.096  -9.294 -36.985  0.00  0.00    +0.000 NA
ATOM     14  H9  UNL     1      26.928  -7.704 -33.261  0.00  0.00    +0.000 HD
ENDROOT
BRANCH  12  15
ATOM     15  C20 UNL     1      29.151  -8.823 -34.817  0.00  0.00    +0.000 C 
ATOM     16  C21 UNL     1      30.131  -7.826 -34.963  0.00  0.00    +0.000 C 
ATOM     17  C22 UNL     1      31.236  -7.794 -34.105  0.00  0.00    +0.000 C 
ATOM     18  C23 UNL     1      31.363  -8.744 -33.090  0.00  0.00    +0.000 C 
ATOM     19  C24 UNL     1      30.381  -9.724 -32.923  0.00  0.00    +0.000 C 
ATOM     20  C25 UNL     1      29.275  -9.761 -33.778  0.00  0.00    +0.000 C 
ENDBRANCH  12  15
BRANCH   1  22
ATOM     21  O1  UNL     1      26.562  -9.428 -40.186  0.00  0.00    +0.000 OA
ATOM     22  C1  UNL     1      27.283  -9.853 -39.242  0.00  0.00    +0.000 C 
ATOM     23  N1  UNL     1      28.326 -10.802 -39.516  0.00  0.00    +0.000 N 
ATOM     24  H1  UNL     1      28.908 -11.159 -38.726  0.00  0.00    +0.000 HD
BRANCH  23  25
ATOM     25  N2  UNL     1      28.605 -11.220 -40.831  0.00  0.00    +0.000 N 
ATOM     26  H2  UNL     1      27.913 -11.811 -41.341  0.00  0.00    +0.000 HD
BRANCH  25  27
ATOM     27  C2  UNL     1      29.794 -10.812 -41.527  0.00  0.00    +0.000 C 
ATOM     28  S1  UNL     1      30.265  -9.242 -41.512  0.00  0.00    +0.000 S 
BRANCH  27  29
ATOM     29  N3  UNL     1      30.692 -11.797 -42.059  0.00  0.00    +0.000 N 
ATOM     30  H3  UNL     1      30.464 -12.806 -41.902  0.00  0.00    +0.000 HD
BRANCH  29  31
ATOM     31  C3  UNL     1      31.885 -11.479 -42.796  0.00  0.00    +0.000 C 
ATOM     32  C4  UNL     1      32.926 -10.794 -42.154  0.00  0.00    +0.000 C 
ATOM     33  C5  UNL     1      34.083 -10.450 -42.856  0.00  0.00    +0.000 C 
ATOM     34  C6  UNL     1      34.208 -10.776 -44.208  0.00  0.00    +0.000 C 
ATOM     35  C7  UNL     1      33.168 -11.445 -44.878  0.00  0.00    +0.000 C 
ATOM     36  C8  UNL     1      32.006 -11.786 -44.164  0.00  0.00    +0.000 C 
BRANCH  35  37
ATOM     37  N4  UNL     1      33.285 -11.769 -46.276  0.00  0.00    +0.000 N 
ATOM     38  O2  UNL     1      33.475 -10.873 -47.125  0.00  0.00    +0.000 OA
ATOM     39  O3  UNL     1      33.190 -13.074 -46.702  0.00  0.00    +0.000 OA
ENDBRANCH  35  37
ENDBRANCH  29  31
ENDBRANCH  27  29
ENDBRANCH  25  27
ENDBRANCH  23  25
ENDBRANCH   1  22
TORSDOF 7
