REMARK  Name = resultss/4CJN/ligands/lig_249_t0.pdb
REMARK  13 active torsions:
REMARK  status: ('A' for Active; 'I' for Inactive)
REMARK    1  A    between atoms: C4_1  and  C3_36
REMARK    2  A    between atoms: C6_3  and  C7_10
REMARK    3  A    between atoms: C27_6  and  S2_39
REMARK    4  A    between atoms: C9_12  and  C10_19
REMARK    5  A    between atoms: C14_15  and  S1_22
REMARK    6  A    between atoms: C10_19  and  C11_20
REMARK    7  A    between atoms: S1_22  and  C15_23
REMARK    8  A    between atoms: C15_23  and  C16_24
REMARK    9  A    between atoms: C17_27  and  C18_29
REMARK   10  A    between atoms: C3_36  and  C2_38
REMARK   11  A    between atoms: S2_39  and  C28_40
REMARK   12  A    between atoms: C28_40  and  C29_41
REMARK   13  A    between atoms: C30_44  and  C31_46
REMARK                            x       y       z     vdW  Elec       q    Type
REMARK                         _______ _______ _______ _____ _____    ______ ____
ROOT
ATOM      1  C4  UNL     1      31.955 -12.120 -42.712  0.00  0.00    +0.000 C 
ATOM      2  C5  UNL     1      30.740 -11.751 -42.080  0.00  0.00    +0.000 C 
ATOM      3  C6  UNL     1      30.663 -10.605 -41.252  0.00  0.00    +0.000 C 
ATOM      4  C26 UNL     1      31.840  -9.859 -41.103  0.00  0.00    +0.000 A 
ATOM      5  O3  UNL     1      32.039  -8.749 -40.441  0.00  0.00    +0.000 OA
ATOM      6  C27 UNL     1      33.314  -8.445 -40.624  0.00  0.00    +0.000 A 
ATOM      7  N6  UNL     1      33.980  -9.333 -41.408  0.00  0.00    +0.000 NA
ATOM      8  C37 UNL     1      33.013 -10.219 -41.701  0.00  0.00    +0.000 A 
ATOM      9  C38 UNL     1      33.114 -11.338 -42.518  0.00  0.00    +0.000 C 
ENDROOT
BRANCH   3  10
ATOM     10  C7  UNL     1      29.390 -10.229 -40.585  0.00  0.00    +0.000 C 
ATOM     11  C8  UNL     1      28.196 -10.106 -41.349  0.00  0.00    +0.000 C 
ATOM     12  C9  UNL     1      26.959  -9.835 -40.728  0.00  0.00    +0.000 C 
ATOM     13  C13 UNL     1      26.967  -9.663 -39.345  0.00  0.00    +0.000 A 
ATOM     14  O1  UNL     1      25.966  -9.419 -38.541  0.00  0.00    +0.000 OA
ATOM     15  C14 UNL     1      26.495  -9.328 -37.333  0.00  0.00    +0.000 A 
ATOM     16  N3  UNL     1      27.842  -9.509 -37.311  0.00  0.00    +0.000 NA
ATOM     17  C24 UNL     1      28.111  -9.733 -38.608  0.00  0.00    +0.000 A 
ATOM     18  C25 UNL     1      29.343 -10.023 -39.184  0.00  0.00    +0.000 C 
BRANCH  12  19
ATOM     19  C10 UNL     1      25.709  -9.626 -41.537  0.00  0.00    +0.000 C 
BRANCH  19  20
ATOM     20  C11 UNL     1      25.417  -8.154 -41.623  0.00  0.00    +0.000 C 
ATOM     21  C12 UNL     1      26.279  -7.290 -42.169  0.00  0.00    +0.000 C 
ENDBRANCH  19  20
ENDBRANCH  12  19
BRANCH  15  22
ATOM     22  S1  UNL     1      25.528  -9.028 -35.855  0.00  0.00    +0.000 S 
BRANCH  22  23
ATOM     23  C15 UNL     1      26.564 -10.054 -34.757  0.00  0.00    +0.000 C 
BRANCH  23  24
ATOM     24  C16 UNL     1      27.319  -9.154 -33.836  0.00  0.00    +0.000 A 
ATOM     25  N1  UNL     1      26.735  -8.239 -33.041  0.00  0.00    +0.000 NA
ATOM     26  N2  UNL     1      27.721  -7.599 -32.433  0.00  0.00    +0.000 NA
ATOM     27  C17 UNL     1      28.870  -8.150 -32.878  0.00  0.00    +0.000 A 
ATOM     28  O2  UNL     1      28.628  -9.104 -33.746  0.00  0.00    +0.000 OA
BRANCH  27  29
ATOM     29  C18 UNL     1      30.217  -7.693 -32.472  0.00  0.00    +0.000 C 
ATOM     30  C19 UNL     1      30.376  -6.373 -32.008  0.00  0.00    +0.000 C 
ATOM     31  C20 UNL     1      31.642  -5.883 -31.674  0.00  0.00    +0.000 C 
ATOM     32  C21 UNL     1      32.762  -6.703 -31.785  0.00  0.00    +0.000 C 
ATOM     33  C22 UNL     1      32.618  -8.023 -32.225  0.00  0.00    +0.000 C 
ATOM     34  C23 UNL     1      31.353  -8.530 -32.562  0.00  0.00    +0.000 C 
ATOM     35 BR1  UNL     1      31.237 -10.388 -33.040  0.00  0.00    +0.000 Br
ENDBRANCH  27  29
ENDBRANCH  23  24
ENDBRANCH  22  23
ENDBRANCH  15  22
ENDBRANCH   3  10
BRANCH   1  36
ATOM     36  C3  UNL     1      31.994 -13.307 -43.634  0.00  0.00    +0.000 C 
BRANCH  36  38
ATOM     37  C1  UNL     1      33.020 -13.626 -45.871  0.00  0.00    +0.000 C 
ATOM     38  C2  UNL     1      33.126 -13.177 -44.617  0.00  0.00    +0.000 C 
ENDBRANCH  36  38
ENDBRANCH   1  36
BRANCH   6  39
ATOM     39  S2  UNL     1      34.093  -7.002 -39.907  0.00  0.00    +0.000 S 
BRANCH  39  40
ATOM     40  C28 UNL     1      34.071  -7.659 -38.206  0.00  0.00    +0.000 C 
BRANCH  40  41
ATOM     41  C29 UNL     1      32.899  -7.116 -37.455  0.00  0.00    +0.000 A 
ATOM     42  N4  UNL     1      32.968  -6.594 -36.219  0.00  0.00    +0.000 NA
ATOM     43  N5  UNL     1      31.732  -6.237 -35.903  0.00  0.00    +0.000 NA
ATOM     44  C30 UNL     1      30.956  -6.556 -36.958  0.00  0.00    +0.000 A 
ATOM     45  O4  UNL     1      31.673  -7.088 -37.918  0.00  0.00    +0.000 OA
BRANCH  44  46
ATOM     46  C31 UNL     1      29.497  -6.317 -37.054  0.00  0.00    +0.000 C 
ATOM     47  C32 UNL     1      28.756  -6.254 -35.860  0.00  0.00    +0.000 C 
ATOM     48  C33 UNL     1      27.376  -6.043 -35.883  0.00  0.00    +0.000 C 
ATOM     49  C34 UNL     1      26.714  -5.885 -37.097  0.00  0.00    +0.000 C 
ATOM     50  C35 UNL     1      27.432  -5.937 -38.294  0.00  0.00    +0.000 C 
ATOM     51  C36 UNL     1      28.817  -6.150 -38.285  0.00  0.00    +0.000 C 
ATOM     52 BR2  UNL     1      29.700  -6.122 -39.989  0.00  0.00    +0.000 Br
ENDBRANCH  44  46
ENDBRANCH  40  41
ENDBRANCH  39  40
ENDBRANCH   6  39
TORSDOF 13
