REMARK  Name = resultss/4CJN/ligands/lig_372_t2.pdb
REMARK  7 active torsions:
REMARK  status: ('A' for Active; 'I' for Inactive)
REMARK    1  A    between atoms: C5_1  and  C6_2
REMARK    2  A    between atoms: C5_1  and  C15_16
REMARK    3  A    between atoms: C5_1  and  C4_32
REMARK    4  A    between atoms: C14_13  and  O4_14
REMARK    5  A    between atoms: C23_27  and  O7_28
REMARK    6  A    between atoms: C2_30  and  O1_37
REMARK    7  A    between atoms: C26_35  and  O8_38
REMARK                            x       y       z     vdW  Elec       q    Type
REMARK                         _______ _______ _______ _____ _____    ______ ____
ROOT
ATOM      1  C5  UNL     1      27.336  -9.829 -39.998  0.00  0.00    +0.000 C 
ENDROOT
BRANCH   1   2
ATOM      2  C6  UNL     1      28.823  -9.479 -40.138  0.00  0.00    +0.000 A 
ATOM      3  C7  UNL     1      29.670 -10.301 -40.915  0.00  0.00    +0.000 A 
ATOM      4  O2  UNL     1      29.210 -11.327 -41.487  0.00  0.00    +0.000 OA
ATOM      5  C8  UNL     1      31.028  -9.971 -41.055  0.00  0.00    +0.000 A 
ATOM      6  C9  UNL     1      31.920 -10.765 -41.799  0.00  0.00    +0.000 C 
ATOM      7  C10 UNL     1      33.266 -10.397 -41.907  0.00  0.00    +0.000 C 
ATOM      8 CL1  UNL     1      34.375 -11.391 -42.836  0.00  0.00    +0.000 Cl
ATOM      9  C11 UNL     1      33.729  -9.238 -41.277  0.00  0.00    +0.000 C 
ATOM     10  C12 UNL     1      32.850  -8.443 -40.538  0.00  0.00    +0.000 C 
ATOM     11  C13 UNL     1      31.503  -8.803 -40.424  0.00  0.00    +0.000 A 
ATOM     12  O3  UNL     1      30.676  -8.034 -39.728  0.00  0.00    +0.000 OA
ATOM     13  C14 UNL     1      29.385  -8.310 -39.572  0.00  0.00    +0.000 A 
BRANCH  13  14
ATOM     14  O4  UNL     1      28.599  -7.413 -38.856  0.00  0.00    +0.000 OA
ATOM     15  H9  UNL     1      28.297  -6.541 -39.271  0.00  0.00    +0.000 HD
ENDBRANCH  13  14
ENDBRANCH   1   2
BRANCH   1  16
ATOM     16  C15 UNL     1      26.772  -9.528 -38.599  0.00  0.00    +0.000 A 
ATOM     17  C16 UNL     1      25.778  -8.541 -38.363  0.00  0.00    +0.000 A 
ATOM     18  O5  UNL     1      25.342  -7.824 -39.305  0.00  0.00    +0.000 OA
ATOM     19  C17 UNL     1      25.283  -8.342 -37.065  0.00  0.00    +0.000 A 
ATOM     20  C18 UNL     1      24.282  -7.392 -36.781  0.00  0.00    +0.000 C 
ATOM     21  C19 UNL     1      23.817  -7.230 -35.471  0.00  0.00    +0.000 C 
ATOM     22 CL2  UNL     1      22.570  -6.046 -35.124  0.00  0.00    +0.000 Cl
ATOM     23  C20 UNL     1      24.345  -8.011 -34.438  0.00  0.00    +0.000 C 
ATOM     24  C21 UNL     1      25.339  -8.953 -34.711  0.00  0.00    +0.000 C 
ATOM     25  C22 UNL     1      25.811  -9.121 -36.017  0.00  0.00    +0.000 A 
ATOM     26  O6  UNL     1      26.763 -10.011 -36.259  0.00  0.00    +0.000 OA
ATOM     27  C23 UNL     1      27.265 -10.236 -37.468  0.00  0.00    +0.000 A 
BRANCH  27  28
ATOM     28  O7  UNL     1      28.288 -11.182 -37.562  0.00  0.00    +0.000 OA
ATOM     29  H13 UNL     1      28.243 -12.016 -38.131  0.00  0.00    +0.000 HD
ENDBRANCH  27  28
ENDBRANCH   1  16
BRANCH   1  32
ATOM     30  C2  UNL     1      26.000  -7.688 -42.927  0.00  0.00    +0.000 C 
ATOM     31  C3  UNL     1      26.818  -8.145 -41.876  0.00  0.00    +0.000 C 
ATOM     32  C4  UNL     1      26.491  -9.317 -41.160  0.00  0.00    +0.000 C 
ATOM     33  C24 UNL     1      25.317 -10.011 -41.504  0.00  0.00    +0.000 C 
ATOM     34  C25 UNL     1      24.504  -9.561 -42.544  0.00  0.00    +0.000 C 
ATOM     35  C26 UNL     1      24.839  -8.408 -43.257  0.00  0.00    +0.000 C 
BRANCH  30  37
ATOM     36  C1  UNL     1      27.204  -6.483 -44.762  0.00  0.00    +0.000 C 
ATOM     37  O1  UNL     1      26.308  -6.529 -43.657  0.00  0.00    +0.000 OA
ENDBRANCH  30  37
BRANCH  35  38
ATOM     38  O8  UNL     1      24.002  -7.991 -44.292  0.00  0.00    +0.000 OA
ATOM     39  H16 UNL     1      23.000  -8.141 -44.270  0.00  0.00    +0.000 HD
ENDBRANCH  35  38
ENDBRANCH   1  32
TORSDOF 7
