REMARK  Name = resultss/4CJN/ligands/lig_250_t0.pdb
REMARK  13 active torsions:
REMARK  status: ('A' for Active; 'I' for Inactive)
REMARK    1  A    between atoms: C4_1  and  C3_36
REMARK    2  A    between atoms: C6_3  and  C7_10
REMARK    3  A    between atoms: C28_6  and  S2_39
REMARK    4  A    between atoms: C9_12  and  C10_19
REMARK    5  A    between atoms: C14_15  and  S1_22
REMARK    6  A    between atoms: C10_19  and  C11_20
REMARK    7  A    between atoms: S1_22  and  C15_23
REMARK    8  A    between atoms: C15_23  and  C16_24
REMARK    9  A    between atoms: C17_27  and  C18_29
REMARK   10  A    between atoms: C3_36  and  C2_38
REMARK   11  A    between atoms: S2_39  and  C29_40
REMARK   12  A    between atoms: C29_40  and  C30_41
REMARK   13  A    between atoms: C31_44  and  C32_46
REMARK                            x       y       z     vdW  Elec       q    Type
REMARK                         _______ _______ _______ _____ _____    ______ ____
ROOT
ATOM      1  C4  UNL     1      24.663  -8.481 -34.643  0.00  0.00    +0.000 C 
ATOM      2  C5  UNL     1      26.072  -8.637 -34.739  0.00  0.00    +0.000 C 
ATOM      3  C6  UNL     1      26.760  -8.290 -35.924  0.00  0.00    +0.000 C 
ATOM      4  C27 UNL     1      25.990  -7.798 -36.982  0.00  0.00    +0.000 A 
ATOM      5  O3  UNL     1      26.372  -7.426 -38.175  0.00  0.00    +0.000 OA
ATOM      6  C28 UNL     1      25.275  -7.035 -38.798  0.00  0.00    +0.000 A 
ATOM      7  N6  UNL     1      24.151  -7.145 -38.044  0.00  0.00    +0.000 NA
ATOM      8  C39 UNL     1      24.640  -7.639 -36.893  0.00  0.00    +0.000 A 
ATOM      9  C40 UNL     1      23.935  -7.966 -35.740  0.00  0.00    +0.000 C 
ENDROOT
BRANCH   3  10
ATOM     10  C7  UNL     1      28.233  -8.418 -36.032  0.00  0.00    +0.000 C 
ATOM     11  C8  UNL     1      29.078  -7.668 -35.169  0.00  0.00    +0.000 C 
ATOM     12  C9  UNL     1      30.483  -7.762 -35.267  0.00  0.00    +0.000 C 
ATOM     13  C13 UNL     1      30.996  -8.609 -36.250  0.00  0.00    +0.000 A 
ATOM     14  O1  UNL     1      32.242  -8.851 -36.556  0.00  0.00    +0.000 OA
ATOM     15  C14 UNL     1      32.202  -9.705 -37.563  0.00  0.00    +0.000 A 
ATOM     16  N3  UNL     1      30.943 -10.049 -37.938  0.00  0.00    +0.000 NA
ATOM     17  C25 UNL     1      30.196  -9.334 -37.079  0.00  0.00    +0.000 A 
ATOM     18  C26 UNL     1      28.806  -9.275 -37.000  0.00  0.00    +0.000 C 
BRANCH  12  19
ATOM     19  C10 UNL     1      31.380  -6.922 -34.403  0.00  0.00    +0.000 C 
BRANCH  19  20
ATOM     20  C11 UNL     1      31.931  -7.746 -33.275  0.00  0.00    +0.000 C 
ATOM     21  C12 UNL     1      31.133  -8.440 -32.457  0.00  0.00    +0.000 C 
ENDBRANCH  19  20
ENDBRANCH  12  19
BRANCH  15  22
ATOM     22  S1  UNL     1      33.671 -10.340 -38.360  0.00  0.00    +0.000 S 
BRANCH  22  23
ATOM     23  C15 UNL     1      33.600  -9.122 -39.712  0.00  0.00    +0.000 C 
BRANCH  23  24
ATOM     24  C16 UNL     1      32.560  -9.537 -40.694  0.00  0.00    +0.000 A 
ATOM     25  N1  UNL     1      32.724 -10.522 -41.596  0.00  0.00    +0.000 NA
ATOM     26  N2  UNL     1      31.579 -10.610 -42.255  0.00  0.00    +0.000 NA
ATOM     27  C17 UNL     1      30.756  -9.680 -41.729  0.00  0.00    +0.000 A 
ATOM     28  O2  UNL     1      31.358  -9.019 -40.767  0.00  0.00    +0.000 OA
BRANCH  27  29
ATOM     29  C18 UNL     1      29.357  -9.419 -42.164  0.00  0.00    +0.000 C 
ATOM     30  C19 UNL     1      29.166  -8.556 -43.261  0.00  0.00    +0.000 C 
ATOM     31  C20 UNL     1      27.886  -8.263 -43.730  0.00  0.00    +0.000 C 
ATOM     32  C21 UNL     1      26.770  -8.827 -43.116  0.00  0.00    +0.000 C 
ATOM     33  C22 UNL     1      26.931  -9.682 -42.026  0.00  0.00    +0.000 C 
ATOM     34  C23 UNL     1      28.214  -9.986 -41.531  0.00  0.00    +0.000 C 
ATOM     35  C24 UNL     1      28.317 -10.907 -40.343  0.00  0.00    +0.000 C 
ENDBRANCH  27  29
ENDBRANCH  23  24
ENDBRANCH  22  23
ENDBRANCH  15  22
ENDBRANCH   3  10
BRANCH   1  36
ATOM     36  C3  UNL     1      23.949  -8.814 -33.361  0.00  0.00    +0.000 C 
BRANCH  36  38
ATOM     37  C1  UNL     1      23.653  -6.401 -32.865  0.00  0.00    +0.000 C 
ATOM     38  C2  UNL     1      23.146  -7.637 -32.880  0.00  0.00    +0.000 C 
ENDBRANCH  36  38
ENDBRANCH   1  36
BRANCH   6  39
ATOM     39  S2  UNL     1      25.274  -6.407 -40.474  0.00  0.00    +0.000 S 
BRANCH  39  40
ATOM     40  C29 UNL     1      23.465  -6.539 -40.669  0.00  0.00    +0.000 C 
BRANCH  40  41
ATOM     41  C30 UNL     1      23.122  -6.901 -42.075  0.00  0.00    +0.000 A 
ATOM     42  N4  UNL     1      22.017  -7.578 -42.438  0.00  0.00    +0.000 NA
ATOM     43  N5  UNL     1      22.087  -7.713 -43.753  0.00  0.00    +0.000 NA
ATOM     44  C31 UNL     1      23.231  -7.119 -44.145  0.00  0.00    +0.000 A 
ATOM     45  O4  UNL     1      23.871  -6.621 -43.112  0.00  0.00    +0.000 OA
BRANCH  44  46
ATOM     46  C32 UNL     1      23.725  -7.023 -45.547  0.00  0.00    +0.000 C 
ATOM     47  C33 UNL     1      25.119  -7.002 -45.745  0.00  0.00    +0.000 C 
ATOM     48  C34 UNL     1      25.661  -6.909 -47.028  0.00  0.00    +0.000 C 
ATOM     49  C35 UNL     1      24.822  -6.828 -48.135  0.00  0.00    +0.000 C 
ATOM     50  C36 UNL     1      23.438  -6.848 -47.967  0.00  0.00    +0.000 C 
ATOM     51  C37 UNL     1      22.868  -6.949 -46.683  0.00  0.00    +0.000 C 
ATOM     52  C38 UNL     1      21.365  -6.962 -46.569  0.00  0.00    +0.000 C 
ENDBRANCH  44  46
ENDBRANCH  40  41
ENDBRANCH  39  40
ENDBRANCH   6  39
TORSDOF 13
