REMARK  Name = resultss/4CJN/ligands/lig_408_t0.pdb
REMARK  6 active torsions:
REMARK  status: ('A' for Active; 'I' for Inactive)
REMARK    1  A    between atoms: C9_1  and  C1_22
REMARK    2  A    between atoms: C19_12  and  C20_15
REMARK    3  A    between atoms: N1_23  and  N2_25
REMARK    4  A    between atoms: N2_25  and  C2_27
REMARK    5  A    between atoms: C2_27  and  N3_29
REMARK    6  A    between atoms: N3_29  and  C3_31
REMARK                            x       y       z     vdW  Elec       q    Type
REMARK                         _______ _______ _______ _____ _____    ______ ____
ROOT
ATOM      1  C9  UNL     1      27.795  -9.390 -38.100  0.00  0.00    +0.000 C 
ATOM      2  C10 UNL     1      26.590  -8.959 -38.696  0.00  0.00    +0.000 C 
ATOM      3  C11 UNL     1      26.523  -8.982 -40.084  0.00  0.00    +0.000 A 
ATOM      4  C12 UNL     1      27.582  -9.399 -40.862  0.00  0.00    +0.000 A 
ATOM      5  N4  UNL     1      27.259  -9.397 -42.177  0.00  0.00    +0.000 N 
ATOM      6  C13 UNL     1      25.983  -8.954 -42.217  0.00  0.00    +0.000 A 
ATOM      7  C14 UNL     1      25.187  -8.784 -43.349  0.00  0.00    +0.000 C 
ATOM      8  C15 UNL     1      23.868  -8.329 -43.165  0.00  0.00    +0.000 C 
ATOM      9  C16 UNL     1      23.375  -8.059 -41.868  0.00  0.00    +0.000 C 
ATOM     10  C17 UNL     1      24.197  -8.242 -40.740  0.00  0.00    +0.000 C 
ATOM     11  C18 UNL     1      25.499  -8.688 -40.953  0.00  0.00    +0.000 A 
ATOM     12  C19 UNL     1      28.780  -9.809 -40.259  0.00  0.00    +0.000 C 
ATOM     13  N5  UNL     1      28.837  -9.798 -38.893  0.00  0.00    +0.000 NA
ATOM     14  H9  UNL     1      27.840  -9.703 -42.988  0.00  0.00    +0.000 HD
ENDROOT
BRANCH  12  15
ATOM     15  C20 UNL     1      29.960 -10.250 -41.031  0.00  0.00    +0.000 C 
ATOM     16  C21 UNL     1      29.849 -11.245 -42.018  0.00  0.00    +0.000 C 
ATOM     17  C22 UNL     1      30.971 -11.633 -42.758  0.00  0.00    +0.000 C 
ATOM     18  C23 UNL     1      32.206 -11.023 -42.529  0.00  0.00    +0.000 C 
ATOM     19  C24 UNL     1      32.321 -10.018 -41.565  0.00  0.00    +0.000 C 
ATOM     20  C25 UNL     1      31.201  -9.626 -40.823  0.00  0.00    +0.000 C 
ENDBRANCH  12  15
BRANCH   1  22
ATOM     21  O1  UNL     1      27.395 -10.339 -35.961  0.00  0.00    +0.000 OA
ATOM     22  C1  UNL     1      27.944  -9.420 -36.630  0.00  0.00    +0.000 C 
ATOM     23  N1  UNL     1      28.702  -8.404 -35.954  0.00  0.00    +0.000 N 
ATOM     24  H1  UNL     1      28.886  -7.501 -36.447  0.00  0.00    +0.000 HD
BRANCH  23  25
ATOM     25  N2  UNL     1      28.968  -8.468 -34.575  0.00  0.00    +0.000 N 
ATOM     26  H2  UNL     1      29.776  -9.043 -34.250  0.00  0.00    +0.000 HD
BRANCH  25  27
ATOM     27  C2  UNL     1      28.108  -7.876 -33.590  0.00  0.00    +0.000 C 
ATOM     28  S1  UNL     1      28.587  -6.475 -32.879  0.00  0.00    +0.000 S 
BRANCH  27  29
ATOM     29  N3  UNL     1      26.839  -8.482 -33.271  0.00  0.00    +0.000 N 
ATOM     30  H3  UNL     1      26.809  -9.229 -32.543  0.00  0.00    +0.000 HD
BRANCH  29  31
ATOM     31  C3  UNL     1      25.596  -8.163 -33.917  0.00  0.00    +0.000 C 
ATOM     32  C4  UNL     1      25.580  -7.215 -34.951  0.00  0.00    +0.000 C 
ATOM     33  C5  UNL     1      24.387  -6.918 -35.617  0.00  0.00    +0.000 C 
ATOM     34  C6  UNL     1      23.206  -7.579 -35.268  0.00  0.00    +0.000 C 
ATOM     35  C7  UNL     1      23.219  -8.546 -34.258  0.00  0.00    +0.000 C 
ATOM     36  F1  UNL     1      22.078  -9.202 -33.934  0.00  0.00    +0.000 F 
ATOM     37  C8  UNL     1      24.411  -8.845 -33.590  0.00  0.00    +0.000 C 
ENDBRANCH  29  31
ENDBRANCH  27  29
ENDBRANCH  25  27
ENDBRANCH  23  25
ENDBRANCH   1  22
TORSDOF 6
