REMARK  Name = resultss/4CJN/ligands/lig_161_t1.pdb
REMARK  7 active torsions:
REMARK  status: ('A' for Active; 'I' for Inactive)
REMARK    1  A    between atoms: N2_1  and  N1_19
REMARK    2  A    between atoms: C8_2  and  C9_3
REMARK    3  A    between atoms: C8_2  and  O3_30
REMARK    4  A    between atoms: C12_6  and  C13_9
REMARK    5  A    between atoms: C7_18  and  C6_24
REMARK    6  A    between atoms: C2_20  and  O1_27
REMARK    7  A    between atoms: C5_23  and  O2_28
REMARK                            x       y       z     vdW  Elec       q    Type
REMARK                         _______ _______ _______ _____ _____    ______ ____
ROOT
ATOM      1  N2  UNL     1      27.465  -8.887 -38.385  0.00  0.00    +0.000 NA
ATOM      2  C8  UNL     1      28.011  -8.233 -39.367  0.00  0.00    +0.000 C 
ENDROOT
BRANCH   2   3
ATOM      3  C9  UNL     1      28.853  -8.951 -40.355  0.00  0.00    +0.000 C 
ATOM      4  C10 UNL     1      28.519  -8.922 -41.720  0.00  0.00    +0.000 C 
ATOM      5  C11 UNL     1      29.306  -9.593 -42.660  0.00  0.00    +0.000 C 
ATOM      6  C12 UNL     1      30.445 -10.312 -42.258  0.00  0.00    +0.000 C 
ATOM      7  C20 UNL     1      30.779 -10.342 -40.893  0.00  0.00    +0.000 C 
ATOM      8  C21 UNL     1      29.994  -9.670 -39.953  0.00  0.00    +0.000 C 
BRANCH   6   9
ATOM      9  C13 UNL     1      31.285 -11.027 -43.246  0.00  0.00    +0.000 A 
ATOM     10  N3  UNL     1      31.998 -10.394 -44.212  0.00  0.00    +0.000 NA
ATOM     11  C14 UNL     1      32.683 -11.275 -44.984  0.00  0.00    +0.000 A 
ATOM     12  C15 UNL     1      33.502 -10.917 -46.056  0.00  0.00    +0.000 C 
ATOM     13  C16 UNL     1      34.156 -11.932 -46.776  0.00  0.00    +0.000 C 
ATOM     14  C17 UNL     1      33.984 -13.285 -46.418  0.00  0.00    +0.000 C 
ATOM     15  C18 UNL     1      33.158 -13.634 -45.338  0.00  0.00    +0.000 C 
ATOM     16  C19 UNL     1      32.523 -12.608 -44.643  0.00  0.00    +0.000 A 
ATOM     17  S1  UNL     1      31.489 -12.713 -43.327  0.00  0.00    +0.000 S 
ENDBRANCH   6   9
ENDBRANCH   2   3
BRANCH   1  19
ATOM     18  C7  UNL     1      25.674  -8.889 -36.873  0.00  0.00    +0.000 C 
ATOM     19  N1  UNL     1      26.661  -8.259 -37.424  0.00  0.00    +0.000 NA
BRANCH  18  24
ATOM     20  C2  UNL     1      22.670  -7.177 -35.333  0.00  0.00    +0.000 C 
ATOM     21  C3  UNL     1      23.083  -7.015 -34.009  0.00  0.00    +0.000 C 
ATOM     22  C4  UNL     1      24.340  -7.458 -33.598  0.00  0.00    +0.000 C 
ATOM     23  C5  UNL     1      25.209  -8.073 -34.509  0.00  0.00    +0.000 C 
ATOM     24  C6  UNL     1      24.809  -8.247 -35.855  0.00  0.00    +0.000 C 
ATOM     25  C22 UNL     1      23.538  -7.795 -36.253  0.00  0.00    +0.000 C 
BRANCH  20  27
ATOM     26  C1  UNL     1      21.116  -5.955 -36.866  0.00  0.00    +0.000 C 
ATOM     27  O1  UNL     1      21.396  -6.714 -35.694  0.00  0.00    +0.000 OA
ENDBRANCH  20  27
BRANCH  23  28
ATOM     28  O2  UNL     1      26.461  -8.507 -34.073  0.00  0.00    +0.000 OA
ATOM     29  H6  UNL     1      26.689  -8.573 -33.088  0.00  0.00    +0.000 HD
ENDBRANCH  23  28
ENDBRANCH  18  24
ENDBRANCH   1  19
BRANCH   2  30
ATOM     30  O3  UNL     1      27.815  -6.856 -39.506  0.00  0.00    +0.000 OA
ATOM     31  H8  UNL     1      26.896  -6.438 -39.572  0.00  0.00    +0.000 HD
ENDBRANCH   2  30
TORSDOF 7
