REMARK  Name = resultss/4CJN/ligands/lig_364_t0.pdb
REMARK  6 active torsions:
REMARK  status: ('A' for Active; 'I' for Inactive)
REMARK    1  A    between atoms: C10_1  and  C9_13
REMARK    2  A    between atoms: C10_1  and  C17_16
REMARK    3  A    between atoms: C10_1  and  C11_30
REMARK    4  A    between atoms: C1_2  and  O1_14
REMARK    5  A    between atoms: C25_27  and  O8_28
REMARK    6  A    between atoms: C15_34  and  N1_36
REMARK                            x       y       z     vdW  Elec       q    Type
REMARK                         _______ _______ _______ _____ _____    ______ ____
ROOT
ATOM      1  C10 UNL     1      27.812  -8.296 -40.035  0.00  0.00    +0.000 C 
ENDROOT
BRANCH   1  13
ATOM      2  C1  UNL     1      30.411  -8.158 -39.971  0.00  0.00    +0.000 A 
ATOM      3  O2  UNL     1      31.598  -8.619 -40.352  0.00  0.00    +0.000 OA
ATOM      4  C2  UNL     1      31.748  -9.650 -41.173  0.00  0.00    +0.000 A 
ATOM      5  C3  UNL     1      33.035 -10.074 -41.522  0.00  0.00    +0.000 C 
ATOM      6  C4  UNL     1      33.207 -11.154 -42.392  0.00  0.00    +0.000 C 
ATOM      7  C5  UNL     1      32.093 -11.815 -42.920  0.00  0.00    +0.000 C 
ATOM      8 CL1  UNL     1      32.315 -13.168 -44.013  0.00  0.00    +0.000 Cl
ATOM      9  C6  UNL     1      30.802 -11.397 -42.576  0.00  0.00    +0.000 C 
ATOM     10  C7  UNL     1      30.620 -10.311 -41.698  0.00  0.00    +0.000 A 
ATOM     11  C8  UNL     1      29.345  -9.859 -41.323  0.00  0.00    +0.000 A 
ATOM     12  O3  UNL     1      28.315 -10.422 -41.787  0.00  0.00    +0.000 OA
ATOM     13  C9  UNL     1      29.216  -8.773 -40.428  0.00  0.00    +0.000 A 
BRANCH   2  14
ATOM     14  O1  UNL     1      30.377  -7.048 -39.133  0.00  0.00    +0.000 OA
ATOM     15  H1  UNL     1      31.076  -6.320 -39.207  0.00  0.00    +0.000 HD
ENDBRANCH   2  14
ENDBRANCH   1  13
BRANCH   1  16
ATOM     16  C17 UNL     1      27.408  -8.732 -38.621  0.00  0.00    +0.000 A 
ATOM     17  C18 UNL     1      26.727  -7.833 -37.770  0.00  0.00    +0.000 A 
ATOM     18  O6  UNL     1      26.449  -6.667 -38.166  0.00  0.00    +0.000 OA
ATOM     19  C19 UNL     1      26.354  -8.240 -36.478  0.00  0.00    +0.000 A 
ATOM     20  C20 UNL     1      25.692  -7.380 -35.582  0.00  0.00    +0.000 C 
ATOM     21  C21 UNL     1      25.343  -7.830 -34.303  0.00  0.00    +0.000 C 
ATOM     22 CL2  UNL     1      24.519  -6.753 -33.190  0.00  0.00    +0.000 Cl
ATOM     23  C22 UNL     1      25.651  -9.136 -33.912  0.00  0.00    +0.000 C 
ATOM     24  C23 UNL     1      26.305  -9.998 -34.796  0.00  0.00    +0.000 C 
ATOM     25  C24 UNL     1      26.658  -9.558 -36.076  0.00  0.00    +0.000 A 
ATOM     26  O7  UNL     1      27.269 -10.388 -36.910  0.00  0.00    +0.000 OA
ATOM     27  C25 UNL     1      27.639 -10.043 -38.138  0.00  0.00    +0.000 A 
BRANCH  27  28
ATOM     28  O8  UNL     1      28.241 -11.004 -38.943  0.00  0.00    +0.000 OA
ATOM     29  H13 UNL     1      27.808 -11.908 -39.084  0.00  0.00    +0.000 HD
ENDBRANCH  27  28
ENDBRANCH   1  16
BRANCH   1  30
ATOM     30  C11 UNL     1      26.732  -8.546 -41.083  0.00  0.00    +0.000 C 
ATOM     31  C12 UNL     1      25.703  -9.457 -40.787  0.00  0.00    +0.000 C 
ATOM     32  C13 UNL     1      24.682  -9.699 -41.708  0.00  0.00    +0.000 C 
ATOM     33  C14 UNL     1      24.667  -9.034 -42.933  0.00  0.00    +0.000 C 
ATOM     34  C15 UNL     1      25.677  -8.110 -43.253  0.00  0.00    +0.000 C 
ATOM     35  C16 UNL     1      26.704  -7.870 -42.321  0.00  0.00    +0.000 C 
BRANCH  34  36
ATOM     36  N1  UNL     1      25.653  -7.420 -44.515  0.00  0.00    +0.000 N 
ATOM     37  O4  UNL     1      26.666  -6.820 -44.934  0.00  0.00    +0.000 OA
ATOM     38  O5  UNL     1      24.512  -7.408 -45.286  0.00  0.00    +0.000 OA
ENDBRANCH  34  36
ENDBRANCH   1  30
TORSDOF 6
