REMARK  Name = resultss/4CJN/ligands/lig_372_t2.pdb
REMARK  7 active torsions:
REMARK  status: ('A' for Active; 'I' for Inactive)
REMARK    1  A    between atoms: C5_1  and  C6_2
REMARK    2  A    between atoms: C5_1  and  C15_16
REMARK    3  A    between atoms: C5_1  and  C4_32
REMARK    4  A    between atoms: C14_13  and  O4_14
REMARK    5  A    between atoms: C23_27  and  O7_28
REMARK    6  A    between atoms: C2_30  and  O1_37
REMARK    7  A    between atoms: C26_35  and  O8_38
REMARK                            x       y       z     vdW  Elec       q    Type
REMARK                         _______ _______ _______ _____ _____    ______ ____
ROOT
ATOM      1  C5  UNL     1      27.832  -8.201 -38.255  0.00  0.00    +0.000 C 
ENDROOT
BRANCH   1   2
ATOM      2  C6  UNL     1      27.088  -8.529 -39.555  0.00  0.00    +0.000 A 
ATOM      3  C7  UNL     1      26.595  -7.483 -40.368  0.00  0.00    +0.000 A 
ATOM      4  O2  UNL     1      26.756  -6.280 -40.023  0.00  0.00    +0.000 OA
ATOM      5  C8  UNL     1      25.927  -7.785 -41.566  0.00  0.00    +0.000 A 
ATOM      6  C9  UNL     1      25.398  -6.784 -42.402  0.00  0.00    +0.000 C 
ATOM      7  C10 UNL     1      24.736  -7.134 -43.586  0.00  0.00    +0.000 C 
ATOM      8 CL1  UNL     1      24.078  -5.883 -44.625  0.00  0.00    +0.000 Cl
ATOM      9  C11 UNL     1      24.601  -8.479 -43.942  0.00  0.00    +0.000 C 
ATOM     10  C12 UNL     1      25.125  -9.479 -43.119  0.00  0.00    +0.000 C 
ATOM     11  C13 UNL     1      25.787  -9.139 -41.934  0.00  0.00    +0.000 A 
ATOM     12  O3  UNL     1      26.289 -10.097 -41.166  0.00  0.00    +0.000 OA
ATOM     13  C14 UNL     1      26.928  -9.854 -40.026  0.00  0.00    +0.000 A 
BRANCH  13  14
ATOM     14  O4  UNL     1      27.450 -10.932 -39.319  0.00  0.00    +0.000 OA
ATOM     15  H9  UNL     1      27.134 -11.140 -38.381  0.00  0.00    +0.000 HD
ENDBRANCH  13  14
ENDBRANCH   1   2
BRANCH   1  16
ATOM     16  C15 UNL     1      26.983  -8.437 -36.995  0.00  0.00    +0.000 A 
ATOM     17  C16 UNL     1      26.190  -7.422 -36.396  0.00  0.00    +0.000 A 
ATOM     18  O5  UNL     1      26.187  -6.247 -36.856  0.00  0.00    +0.000 OA
ATOM     19  C17 UNL     1      25.411  -7.717 -35.265  0.00  0.00    +0.000 A 
ATOM     20  C18 UNL     1      24.592  -6.752 -34.647  0.00  0.00    +0.000 C 
ATOM     21  C19 UNL     1      23.830  -7.092 -33.523  0.00  0.00    +0.000 C 
ATOM     22 CL2  UNL     1      22.811  -5.887 -32.757  0.00  0.00    +0.000 Cl
ATOM     23  C20 UNL     1      23.882  -8.391 -33.009  0.00  0.00    +0.000 C 
ATOM     24  C21 UNL     1      24.694  -9.353 -33.615  0.00  0.00    +0.000 C 
ATOM     25  C22 UNL     1      25.459  -9.022 -34.738  0.00  0.00    +0.000 A 
ATOM     26  O6  UNL     1      26.234  -9.940 -35.295  0.00  0.00    +0.000 OA
ATOM     27  C23 UNL     1      26.989  -9.712 -36.364  0.00  0.00    +0.000 A 
BRANCH  27  28
ATOM     28  O7  UNL     1      27.779 -10.771 -36.820  0.00  0.00    +0.000 OA
ATOM     29  H13 UNL     1      28.716 -10.669 -37.181  0.00  0.00    +0.000 HD
ENDBRANCH  27  28
ENDBRANCH   1  16
BRANCH   1  32
ATOM     30  C2  UNL     1      31.236  -9.528 -36.991  0.00  0.00    +0.000 C 
ATOM     31  C3  UNL     1      29.928  -9.005 -36.996  0.00  0.00    +0.000 C 
ATOM     32  C4  UNL     1      29.238  -8.791 -38.208  0.00  0.00    +0.000 C 
ATOM     33  C24 UNL     1      29.890  -9.092 -39.416  0.00  0.00    +0.000 C 
ATOM     34  C25 UNL     1      31.185  -9.609 -39.417  0.00  0.00    +0.000 C 
ATOM     35  C26 UNL     1      31.859  -9.832 -38.214  0.00  0.00    +0.000 C 
BRANCH  30  37
ATOM     36  C1  UNL     1      32.090  -8.800 -34.753  0.00  0.00    +0.000 C 
ATOM     37  O1  UNL     1      31.941  -9.755 -35.798  0.00  0.00    +0.000 OA
ENDBRANCH  30  37
BRANCH  35  38
ATOM     38  O8  UNL     1      33.153 -10.352 -38.255  0.00  0.00    +0.000 OA
ATOM     39  H16 UNL     1      33.974  -9.760 -38.226  0.00  0.00    +0.000 HD
ENDBRANCH  35  38
ENDBRANCH   1  32
TORSDOF 7
