REMARK  Name = resultss/4CJN/ligands/lig_258_t2.pdb
REMARK  3 active torsions:
REMARK  status: ('A' for Active; 'I' for Inactive)
REMARK    1  A    between atoms: C9_10  and  C10_25
REMARK    2  A    between atoms: C16_11  and  O3_33
REMARK    3  A    between atoms: C13_28  and  O2_31
REMARK                            x       y       z     vdW  Elec       q    Type
REMARK                         _______ _______ _______ _____ _____    ______ ____
ROOT
ATOM      1  C1  UNL     1      26.359  -6.500 -43.378  0.00  0.00    +0.000 C 
ATOM      2  C2  UNL     1      25.544  -7.054 -42.205  0.00  0.00    +0.000 C 
ATOM      3  C3  UNL     1      24.735  -5.919 -41.521  0.00  0.00    +0.000 C 
ATOM      4  C4  UNL     1      24.158  -6.372 -40.207  0.00  0.00    +0.000 C 
ATOM      5  O1  UNL     1      23.066  -5.906 -39.793  0.00  0.00    +0.000 OA
ATOM      6  C5  UNL     1      24.955  -7.318 -39.409  0.00  0.00    +0.000 A 
ATOM      7  C6  UNL     1      26.083  -7.943 -39.950  0.00  0.00    +0.000 A 
ATOM      8  C7  UNL     1      26.447  -7.795 -41.233  0.00  0.00    +0.000 C 
ATOM      9  C8  UNL     1      26.679  -8.705 -38.939  0.00  0.00    +0.000 A 
ATOM     10  C9  UNL     1      27.812  -9.532 -38.855  0.00  0.00    +0.000 A 
ATOM     11  C16 UNL     1      28.057 -10.157 -37.596  0.00  0.00    +0.000 A 
ATOM     12  O4  UNL     1      27.233  -9.945 -36.556  0.00  0.00    +0.000 OA
ATOM     13  C17 UNL     1      26.159  -9.155 -36.634  0.00  0.00    +0.000 A 
ATOM     14  C18 UNL     1      25.893  -8.544 -37.841  0.00  0.00    +0.000 A 
ATOM     15  C19 UNL     1      24.841  -7.713 -38.076  0.00  0.00    +0.000 A 
ATOM     16  C20 UNL     1      23.941  -7.416 -37.044  0.00  0.00    +0.000 C 
ATOM     17  O5  UNL     1      22.970  -6.639 -37.240  0.00  0.00    +0.000 OA
ATOM     18  C21 UNL     1      24.155  -8.019 -35.768  0.00  0.00    +0.000 C 
ATOM     19  C22 UNL     1      23.276  -7.759 -34.700  0.00  0.00    +0.000 C 
ATOM     20  C23 UNL     1      23.482  -8.348 -33.452  0.00  0.00    +0.000 C 
ATOM     21  C24 UNL     1      24.565  -9.202 -33.244  0.00  0.00    +0.000 C 
ATOM     22  C25 UNL     1      25.460  -9.483 -34.281  0.00  0.00    +0.000 C 
ATOM     23  O6  UNL     1      26.426 -10.260 -34.056  0.00  0.00    +0.000 OA
ATOM     24  C26 UNL     1      25.273  -8.901 -35.556  0.00  0.00    +0.000 C 
ENDROOT
BRANCH  10  25
ATOM     25  C10 UNL     1      28.719  -9.732 -39.996  0.00  0.00    +0.000 C 
ATOM     26  C11 UNL     1      28.551 -10.839 -40.841  0.00  0.00    +0.000 C 
ATOM     27  C12 UNL     1      29.419 -11.035 -41.919  0.00  0.00    +0.000 C 
ATOM     28  C13 UNL     1      30.455 -10.126 -42.163  0.00  0.00    +0.000 C 
ATOM     29  C14 UNL     1      30.620  -9.016 -41.323  0.00  0.00    +0.000 C 
ATOM     30  C15 UNL     1      29.753  -8.819 -40.244  0.00  0.00    +0.000 C 
BRANCH  28  31
ATOM     31  O2  UNL     1      31.314 -10.336 -43.239  0.00  0.00    +0.000 OA
ATOM     32  H10 UNL     1      31.642 -11.264 -43.482  0.00  0.00    +0.000 HD
ENDBRANCH  28  31
ENDBRANCH  10  25
BRANCH  11  33
ATOM     33  O3  UNL     1      29.156 -10.995 -37.405  0.00  0.00    +0.000 OA
ATOM     34  H13 UNL     1      29.102 -11.857 -36.876  0.00  0.00    +0.000 HD
ENDBRANCH  11  33
TORSDOF 3
