REMARK  Name = resultss/4CJN/ligands/lig_239_t0.pdb
REMARK  6 active torsions:
REMARK  status: ('A' for Active; 'I' for Inactive)
REMARK    1  A    between atoms: C7_1  and  N1_9
REMARK    2  A    between atoms: C11_5  and  C12_19
REMARK    3  A    between atoms: C6_7  and  C5_14
REMARK    4  A    between atoms: C2_11  and  O1_18
REMARK    5  A    between atoms: C12_19  and  C13_21
REMARK    6  A    between atoms: C13_21  and  C14_22
REMARK                            x       y       z     vdW  Elec       q    Type
REMARK                         _______ _______ _______ _____ _____    ______ ____
ROOT
ATOM      1  C7  UNL     1      28.043  -8.943 -42.564  0.00  0.00    +0.000 C 
ATOM      2  C8  UNL     1      27.156  -8.513 -43.560  0.00  0.00    +0.000 C 
ATOM      3  C9  UNL     1      25.862  -8.114 -43.228  0.00  0.00    +0.000 C 
ATOM      4  C10 UNL     1      25.434  -8.147 -41.899  0.00  0.00    +0.000 C 
ATOM      5  C11 UNL     1      26.300  -8.590 -40.882  0.00  0.00    +0.000 C 
ATOM      6  C22 UNL     1      27.603  -8.999 -41.229  0.00  0.00    +0.000 C 
ENDROOT
BRANCH   1   9
ATOM      7  C6  UNL     1      29.933 -10.634 -42.542  0.00  0.00    +0.000 C 
ATOM      8  O2  UNL     1      29.481 -11.233 -41.527  0.00  0.00    +0.000 OA
ATOM      9  N1  UNL     1      29.366  -9.373 -42.933  0.00  0.00    +0.000 N 
ATOM     10  H6  UNL     1      29.987  -8.683 -43.413  0.00  0.00    +0.000 HD
BRANCH   7  14
ATOM     11  C2  UNL     1      33.274 -12.304 -44.688  0.00  0.00    +0.000 C 
ATOM     12  C3  UNL     1      32.477 -13.123 -43.869  0.00  0.00    +0.000 C 
ATOM     13  C4  UNL     1      31.392 -12.584 -43.171  0.00  0.00    +0.000 C 
ATOM     14  C5  UNL     1      31.078 -11.217 -43.284  0.00  0.00    +0.000 C 
ATOM     15  C23 UNL     1      31.884 -10.401 -44.096  0.00  0.00    +0.000 C 
ATOM     16  C24 UNL     1      32.968 -10.943 -44.792  0.00  0.00    +0.000 C 
BRANCH  11  18
ATOM     17  C1  UNL     1      34.269 -13.670 -46.530  0.00  0.00    +0.000 C 
ATOM     18  O1  UNL     1      34.371 -12.799 -45.409  0.00  0.00    +0.000 OA
ENDBRANCH  11  18
ENDBRANCH   7  14
ENDBRANCH   1   9
BRANCH   5  19
ATOM     19  C12 UNL     1      25.857  -8.653 -39.464  0.00  0.00    +0.000 C 
ATOM     20  O3  UNL     1      24.738  -9.171 -39.191  0.00  0.00    +0.000 OA
BRANCH  19  21
ATOM     21  C13 UNL     1      26.688  -8.064 -38.351  0.00  0.00    +0.000 C 
BRANCH  21  22
ATOM     22  C14 UNL     1      26.103  -8.360 -36.994  0.00  0.00    +0.000 A 
ATOM     23  N2  UNL     1      25.172  -7.514 -36.474  0.00  0.00    +0.000 NA
ATOM     24  C15 UNL     1      24.595  -7.750 -35.268  0.00  0.00    +0.000 A 
ATOM     25  C16 UNL     1      23.644  -6.863 -34.751  0.00  0.00    +0.000 C 
ATOM     26  C17 UNL     1      23.056  -7.118 -33.508  0.00  0.00    +0.000 C 
ATOM     27  C18 UNL     1      23.415  -8.257 -32.781  0.00  0.00    +0.000 C 
ATOM     28  C19 UNL     1      24.364  -9.149 -33.293  0.00  0.00    +0.000 C 
ATOM     29  C20 UNL     1      24.959  -8.901 -34.539  0.00  0.00    +0.000 A 
ATOM     30  N3  UNL     1      25.884  -9.755 -35.060  0.00  0.00    +0.000 N 
ATOM     31  C21 UNL     1      26.460  -9.514 -36.271  0.00  0.00    +0.000 A 
ATOM     32  O4  UNL     1      27.305 -10.326 -36.736  0.00  0.00    +0.000 OA
ATOM     33  H16 UNL     1      26.158 -10.614 -34.530  0.00  0.00    +0.000 HD
ENDBRANCH  21  22
ENDBRANCH  19  21
ENDBRANCH   5  19
TORSDOF 6
