REMARK  Name = resultss/4CJN/ligands/lig_439_t0.pdb
REMARK  8 active torsions:
REMARK  status: ('A' for Active; 'I' for Inactive)
REMARK    1  A    between atoms: N3_1  and  N2_25
REMARK    2  A    between atoms: C7_2  and  C8_5
REMARK    3  A    between atoms: C18_16  and  C19_19
REMARK    4  A    between atoms: N2_25  and  C6_27
REMARK    5  A    between atoms: C6_27  and  N1_29
REMARK    6  A    between atoms: N1_29  and  C5_34
REMARK    7  A    between atoms: C2_31  and  O1_38
REMARK    8  A    between atoms: C26_36  and  O3_39
REMARK                            x       y       z     vdW  Elec       q    Type
REMARK                         _______ _______ _______ _____ _____    ______ ____
ROOT
ATOM      1  N3  UNL     1      24.234  -8.452 -37.418  0.00  0.00    +0.000 N 
ATOM      2  C7  UNL     1      24.855  -7.448 -38.236  0.00  0.00    +0.000 C 
ATOM      3  O2  UNL     1      25.232  -6.363 -37.714  0.00  0.00    +0.000 OA
ATOM      4  H8  UNL     1      24.226  -9.440 -37.755  0.00  0.00    +0.000 HD
ENDROOT
BRANCH   2   5
ATOM      5  C8  UNL     1      25.061  -7.682 -39.679  0.00  0.00    +0.000 C 
ATOM      6  C9  UNL     1      24.075  -7.314 -40.620  0.00  0.00    +0.000 C 
ATOM      7  C10 UNL     1      24.350  -7.565 -41.959  0.00  0.00    +0.000 A 
ATOM      8  C11 UNL     1      25.524  -8.157 -42.368  0.00  0.00    +0.000 A 
ATOM      9  N4  UNL     1      25.592  -8.237 -43.719  0.00  0.00    +0.000 N 
ATOM     10  C12 UNL     1      24.430  -7.702 -44.154  0.00  0.00    +0.000 A 
ATOM     11  C13 UNL     1      24.021  -7.541 -45.477  0.00  0.00    +0.000 C 
ATOM     12  C14 UNL     1      22.772  -6.937 -45.713  0.00  0.00    +0.000 C 
ATOM     13  C15 UNL     1      21.968  -6.504 -44.634  0.00  0.00    +0.000 C 
ATOM     14  C16 UNL     1      22.404  -6.672 -43.306  0.00  0.00    +0.000 C 
ATOM     15  C17 UNL     1      23.641  -7.280 -43.104  0.00  0.00    +0.000 A 
ATOM     16  C18 UNL     1      26.487  -8.538 -41.423  0.00  0.00    +0.000 C 
ATOM     17  N5  UNL     1      26.221  -8.275 -40.107  0.00  0.00    +0.000 NA
ATOM     18  H10 UNL     1      26.375  -8.594 -44.309  0.00  0.00    +0.000 HD
BRANCH  16  19
ATOM     19  C19 UNL     1      27.755  -9.204 -41.788  0.00  0.00    +0.000 C 
ATOM     20  C20 UNL     1      28.095 -10.431 -41.193  0.00  0.00    +0.000 C 
ATOM     21  C21 UNL     1      29.279 -11.084 -41.550  0.00  0.00    +0.000 C 
ATOM     22  C22 UNL     1      30.124 -10.527 -42.512  0.00  0.00    +0.000 C 
ATOM     23  C23 UNL     1      29.784  -9.319 -43.126  0.00  0.00    +0.000 C 
ATOM     24  C24 UNL     1      28.601  -8.662 -42.772  0.00  0.00    +0.000 C 
ENDBRANCH  16  19
ENDBRANCH   2   5
BRANCH   1  25
ATOM     25  N2  UNL     1      23.889  -8.208 -36.078  0.00  0.00    +0.000 N 
ATOM     26  H7  UNL     1      23.017  -7.668 -35.878  0.00  0.00    +0.000 HD
BRANCH  25  27
ATOM     27  C6  UNL     1      24.747  -8.555 -34.982  0.00  0.00    +0.000 C 
ATOM     28  S1  UNL     1      24.744  -7.591 -33.652  0.00  0.00    +0.000 S 
BRANCH  27  29
ATOM     29  N1  UNL     1      25.552  -9.749 -35.037  0.00  0.00    +0.000 N 
ATOM     30  H6  UNL     1      25.082 -10.675 -34.938  0.00  0.00    +0.000 HD
BRANCH  29  34
ATOM     31  C2  UNL     1      29.768  -9.695 -35.602  0.00  0.00    +0.000 C 
ATOM     32  C3  UNL     1      29.229  -9.778 -34.305  0.00  0.00    +0.000 C 
ATOM     33  C4  UNL     1      27.847  -9.803 -34.114  0.00  0.00    +0.000 C 
ATOM     34  C5  UNL     1      26.978  -9.769 -35.214  0.00  0.00    +0.000 C 
ATOM     35  C25 UNL     1      27.511  -9.658 -36.505  0.00  0.00    +0.000 C 
ATOM     36  C26 UNL     1      28.904  -9.629 -36.707  0.00  0.00    +0.000 C 
BRANCH  31  38
ATOM     37  C1  UNL     1      31.969  -8.508 -35.703  0.00  0.00    +0.000 C 
ATOM     38  O1  UNL     1      31.152  -9.668 -35.834  0.00  0.00    +0.000 OA
ENDBRANCH  31  38
BRANCH  36  39
ATOM     39  O3  UNL     1      29.469  -9.533 -37.990  0.00  0.00    +0.000 OA
ATOM     40  C27 UNL     1      29.678  -8.310 -38.688  0.00  0.00    +0.000 C 
ENDBRANCH  36  39
ENDBRANCH  29  34
ENDBRANCH  27  29
ENDBRANCH  25  27
ENDBRANCH   1  25
TORSDOF 8
