REMARK  Name = resultss/4CJN/ligands/lig_344_t0.pdb
REMARK  10 active torsions:
REMARK  status: ('A' for Active; 'I' for Inactive)
REMARK    1  A    between atoms: C2_1  and  O1_28
REMARK    2  A    between atoms: C4_3  and  C5_7
REMARK    3  A    between atoms: C21_6  and  O3_29
REMARK    4  A    between atoms: N2_17  and  N3_19
REMARK    5  A    between atoms: N3_19  and  C13_21
REMARK    6  A    between atoms: O3_29  and  C22_30
REMARK    7  A    between atoms: C22_30  and  C23_31
REMARK    8  A    between atoms: N4_33  and  C25_36
REMARK    9  A    between atoms: C25_36  and  C26_37
REMARK   10  A    between atoms: N5_39  and  C27_41
REMARK                            x       y       z     vdW  Elec       q    Type
REMARK                         _______ _______ _______ _____ _____    ______ ____
ROOT
ATOM      1  C2  UNL     1      27.614  -9.796 -35.658  0.00  0.00    +0.000 C 
ATOM      2  C3  UNL     1      28.709  -9.718 -34.777  0.00  0.00    +0.000 C 
ATOM      3  C4  UNL     1      28.662  -8.887 -33.647  0.00  0.00    +0.000 C 
ATOM      4  C19 UNL     1      27.515  -8.117 -33.411  0.00  0.00    +0.000 C 
ATOM      5  C20 UNL     1      26.428  -8.186 -34.282  0.00  0.00    +0.000 C 
ATOM      6  C21 UNL     1      26.465  -9.034 -35.406  0.00  0.00    +0.000 C 
ENDROOT
BRANCH   3   7
ATOM      7  C5  UNL     1      29.853  -8.796 -32.719  0.00  0.00    +0.000 C 
ATOM      8  N1  UNL     1      30.289 -10.154 -32.371  0.00  0.00    +0.000 N 
ATOM      9  C6  UNL     1      31.662 -10.523 -32.200  0.00  0.00    +0.000 C 
ATOM     10  C7  UNL     1      31.992 -11.764 -31.633  0.00  0.00    +0.000 C 
ATOM     11  C8  UNL     1      33.331 -12.130 -31.471  0.00  0.00    +0.000 C 
ATOM     12  C9  UNL     1      34.347 -11.264 -31.881  0.00  0.00    +0.000 C 
ATOM     13  C10 UNL     1      34.026 -10.033 -32.457  0.00  0.00    +0.000 C 
ATOM     14  C11 UNL     1      32.681  -9.659 -32.621  0.00  0.00    +0.000 C 
ATOM     15  C12 UNL     1      32.310  -8.382 -33.245  0.00  0.00    +0.000 C 
ATOM     16  O2  UNL     1      33.206  -7.610 -33.685  0.00  0.00    +0.000 OA
ATOM     17  N2  UNL     1      30.928  -8.003 -33.354  0.00  0.00    +0.000 N 
ATOM     18  H6  UNL     1      29.553 -10.833 -32.068  0.00  0.00    +0.000 HD
BRANCH  17  19
ATOM     19  N3  UNL     1      30.615  -6.819 -34.053  0.00  0.00    +0.000 N 
ATOM     20  H11 UNL     1      30.539  -5.925 -33.515  0.00  0.00    +0.000 HD
BRANCH  19  21
ATOM     21  C13 UNL     1      30.440  -6.786 -35.477  0.00  0.00    +0.000 C 
ATOM     22  C14 UNL     1      29.437  -5.979 -36.035  0.00  0.00    +0.000 C 
ATOM     23  C15 UNL     1      29.243  -5.953 -37.421  0.00  0.00    +0.000 C 
ATOM     24  C16 UNL     1      30.041  -6.742 -38.255  0.00  0.00    +0.000 C 
ATOM     25  C17 UNL     1      31.032  -7.561 -37.704  0.00  0.00    +0.000 C 
ATOM     26  C18 UNL     1      31.229  -7.588 -36.320  0.00  0.00    +0.000 C 
ENDBRANCH  19  21
ENDBRANCH  17  19
ENDBRANCH   3   7
BRANCH   1  28
ATOM     27  C1  UNL     1      28.419 -10.384 -37.954  0.00  0.00    +0.000 C 
ATOM     28  O1  UNL     1      27.630 -10.623 -36.792  0.00  0.00    +0.000 OA
ENDBRANCH   1  28
BRANCH   6  29
ATOM     29  O3  UNL     1      25.382  -9.150 -36.295  0.00  0.00    +0.000 OA
BRANCH  29  30
ATOM     30  C22 UNL     1      24.862  -8.095 -37.104  0.00  0.00    +0.000 C 
BRANCH  30  31
ATOM     31  C23 UNL     1      25.468  -8.135 -38.471  0.00  0.00    +0.000 C 
ATOM     32  C24 UNL     1      25.050  -8.903 -39.534  0.00  0.00    +0.000 C 
ATOM     33  N4  UNL     1      25.889  -8.622 -40.544  0.00  0.00    +0.000 N 
ATOM     34  N6  UNL     1      26.787  -7.749 -40.116  0.00  0.00    +0.000 NA
ATOM     35  N7  UNL     1      26.552  -7.429 -38.852  0.00  0.00    +0.000 NA
BRANCH  33  36
ATOM     36  C25 UNL     1      25.903  -9.242 -41.864  0.00  0.00    +0.000 C 
BRANCH  36  37
ATOM     37  C26 UNL     1      27.316  -9.467 -42.303  0.00  0.00    +0.000 C 
ATOM     38  O4  UNL     1      27.736  -8.911 -43.353  0.00  0.00    +0.000 OA
ATOM     39  N5  UNL     1      28.175 -10.324 -41.536  0.00  0.00    +0.000 N 
ATOM     40  H24 UNL     1      27.722 -11.010 -40.888  0.00  0.00    +0.000 HD
BRANCH  39  41
ATOM     41  C27 UNL     1      29.604 -10.378 -41.688  0.00  0.00    +0.000 C 
ATOM     42  C28 UNL     1      30.210 -11.177 -42.676  0.00  0.00    +0.000 C 
ATOM     43  C29 UNL     1      31.602 -11.192 -42.815  0.00  0.00    +0.000 C 
ATOM     44  C30 UNL     1      32.398 -10.405 -41.978  0.00  0.00    +0.000 C 
ATOM     45  C31 UNL     1      31.804  -9.592 -41.010  0.00  0.00    +0.000 C 
ATOM     46  C32 UNL     1      30.412  -9.572 -40.869  0.00  0.00    +0.000 C 
ENDBRANCH  39  41
ENDBRANCH  36  37
ENDBRANCH  33  36
ENDBRANCH  30  31
ENDBRANCH  29  30
ENDBRANCH   6  29
TORSDOF 10
