REMARK  Name = resultss/4CJN/ligands/lig_251_t0.pdb
REMARK  13 active torsions:
REMARK  status: ('A' for Active; 'I' for Inactive)
REMARK    1  A    between atoms: C4_1  and  C3_36
REMARK    2  A    between atoms: C6_3  and  C7_10
REMARK    3  A    between atoms: C28_6  and  S2_39
REMARK    4  A    between atoms: C9_12  and  C10_19
REMARK    5  A    between atoms: C14_15  and  S1_22
REMARK    6  A    between atoms: C10_19  and  C11_20
REMARK    7  A    between atoms: S1_22  and  C15_23
REMARK    8  A    between atoms: C15_23  and  C16_24
REMARK    9  A    between atoms: C17_27  and  C18_29
REMARK   10  A    between atoms: C3_36  and  C2_38
REMARK   11  A    between atoms: S2_39  and  C29_40
REMARK   12  A    between atoms: C29_40  and  C30_41
REMARK   13  A    between atoms: C31_44  and  C32_46
REMARK                            x       y       z     vdW  Elec       q    Type
REMARK                         _______ _______ _______ _____ _____    ______ ____
ROOT
ATOM      1  C4  UNL     1      33.186 -11.224 -42.877  0.00  0.00    +0.000 C 
ATOM      2  C5  UNL     1      31.854 -10.792 -43.107  0.00  0.00    +0.000 C 
ATOM      3  C6  UNL     1      31.183  -9.980 -42.167  0.00  0.00    +0.000 C 
ATOM      4  C27 UNL     1      31.876  -9.641 -41.008  0.00  0.00    +0.000 A 
ATOM      5  O3  UNL     1      31.489  -8.915 -39.993  0.00  0.00    +0.000 OA
ATOM      6  C28 UNL     1      32.492  -8.938 -39.134  0.00  0.00    +0.000 A 
ATOM      7  N6  UNL     1      33.550  -9.679 -39.552  0.00  0.00    +0.000 NA
ATOM      8  C39 UNL     1      33.132 -10.099 -40.758  0.00  0.00    +0.000 A 
ATOM      9  C40 UNL     1      33.826 -10.896 -41.662  0.00  0.00    +0.000 C 
ENDROOT
BRANCH   3  10
ATOM     10  C7  UNL     1      29.768  -9.618 -42.352  0.00  0.00    +0.000 C 
ATOM     11  C8  UNL     1      28.751 -10.220 -41.563  0.00  0.00    +0.000 C 
ATOM     12  C9  UNL     1      27.398  -9.830 -41.711  0.00  0.00    +0.000 C 
ATOM     13  C13 UNL     1      27.121  -8.848 -42.667  0.00  0.00    +0.000 A 
ATOM     14  O1  UNL     1      25.977  -8.290 -42.966  0.00  0.00    +0.000 OA
ATOM     15  C14 UNL     1      26.245  -7.427 -43.933  0.00  0.00    +0.000 A 
ATOM     16  N3  UNL     1      27.557  -7.393 -44.283  0.00  0.00    +0.000 NA
ATOM     17  C25 UNL     1      28.091  -8.302 -43.451  0.00  0.00    +0.000 A 
ATOM     18  C26 UNL     1      29.432  -8.649 -43.319  0.00  0.00    +0.000 C 
BRANCH  12  19
ATOM     19  C10 UNL     1      26.297 -10.476 -40.914  0.00  0.00    +0.000 C 
BRANCH  19  20
ATOM     20  C11 UNL     1      25.295  -9.465 -40.425  0.00  0.00    +0.000 C 
ATOM     21  C12 UNL     1      25.541  -8.732 -39.337  0.00  0.00    +0.000 C 
ENDBRANCH  19  20
ENDBRANCH  12  19
BRANCH  15  22
ATOM     22  S1  UNL     1      25.020  -6.368 -44.697  0.00  0.00    +0.000 S 
BRANCH  22  23
ATOM     23  C15 UNL     1      23.727  -7.647 -44.877  0.00  0.00    +0.000 C 
BRANCH  23  24
ATOM     24  C16 UNL     1      22.573  -7.269 -44.005  0.00  0.00    +0.000 A 
ATOM     25  N1  UNL     1      22.679  -6.787 -42.748  0.00  0.00    +0.000 NA
ATOM     26  N2  UNL     1      21.444  -6.512 -42.352  0.00  0.00    +0.000 NA
ATOM     27  C17 UNL     1      20.632  -6.836 -43.382  0.00  0.00    +0.000 A 
ATOM     28  O2  UNL     1      21.323  -7.304 -44.399  0.00  0.00    +0.000 OA
BRANCH  27  29
ATOM     29  C18 UNL     1      19.165  -6.655 -43.392  0.00  0.00    +0.000 C 
ATOM     30  C19 UNL     1      18.464  -6.364 -42.211  0.00  0.00    +0.000 C 
ATOM     31  C20 UNL     1      17.078  -6.176 -42.239  0.00  0.00    +0.000 C 
ATOM     32  C21 UNL     1      16.383  -6.265 -43.445  0.00  0.00    +0.000 C 
ATOM     33  C22 UNL     1      17.069  -6.537 -44.639  0.00  0.00    +0.000 C 
ATOM     34  C23 UNL     1      16.313  -6.666 -45.924  0.00  0.00    +0.000 C 
ATOM     35  C24 UNL     1      18.455  -6.750 -44.604  0.00  0.00    +0.000 C 
ENDBRANCH  27  29
ENDBRANCH  23  24
ENDBRANCH  22  23
ENDBRANCH  15  22
ENDBRANCH   3  10
BRANCH   1  36
ATOM     36  C3  UNL     1      33.897 -12.052 -43.913  0.00  0.00    +0.000 C 
BRANCH  36  38
ATOM     37  C1  UNL     1      33.446 -11.992 -46.351  0.00  0.00    +0.000 C 
ATOM     38  C2  UNL     1      33.019 -12.264 -45.114  0.00  0.00    +0.000 C 
ENDBRANCH  36  38
ENDBRANCH   1  36
BRANCH   6  39
ATOM     39  S2  UNL     1      32.471  -8.064 -37.569  0.00  0.00    +0.000 S 
BRANCH  39  40
ATOM     40  C29 UNL     1      32.008  -9.533 -36.581  0.00  0.00    +0.000 C 
BRANCH  40  41
ATOM     41  C30 UNL     1      30.971  -9.135 -35.580  0.00  0.00    +0.000 A 
ATOM     42  N4  UNL     1      31.196  -8.318 -34.535  0.00  0.00    +0.000 NA
ATOM     43  N5  UNL     1      30.019  -8.133 -33.947  0.00  0.00    +0.000 NA
ATOM     44  C31 UNL     1      29.122  -8.840 -34.663  0.00  0.00    +0.000 A 
ATOM     45  O4  UNL     1      29.702  -9.463 -35.661  0.00  0.00    +0.000 OA
BRANCH  44  46
ATOM     46  C32 UNL     1      27.671  -8.869 -34.394  0.00  0.00    +0.000 C 
ATOM     47  C33 UNL     1      26.957 -10.077 -34.452  0.00  0.00    +0.000 C 
ATOM     48  C34 UNL     1      25.595 -10.107 -34.135  0.00  0.00    +0.000 C 
ATOM     49  C35 UNL     1      24.936  -8.934 -33.759  0.00  0.00    +0.000 C 
ATOM     50  C36 UNL     1      25.629  -7.717 -33.720  0.00  0.00    +0.000 C 
ATOM     51  C37 UNL     1      24.936  -6.469 -33.255  0.00  0.00    +0.000 C 
ATOM     52  C38 UNL     1      27.000  -7.690 -34.024  0.00  0.00    +0.000 C 
ENDBRANCH  44  46
ENDBRANCH  40  41
ENDBRANCH  39  40
ENDBRANCH   6  39
TORSDOF 13
