REMARK  Name = resultss/4CJN/ligands/lig_408_t0.pdb
REMARK  6 active torsions:
REMARK  status: ('A' for Active; 'I' for Inactive)
REMARK    1  A    between atoms: C9_1  and  C1_22
REMARK    2  A    between atoms: C19_12  and  C20_15
REMARK    3  A    between atoms: N1_23  and  N2_25
REMARK    4  A    between atoms: N2_25  and  C2_27
REMARK    5  A    between atoms: C2_27  and  N3_29
REMARK    6  A    between atoms: N3_29  and  C3_31
REMARK                            x       y       z     vdW  Elec       q    Type
REMARK                         _______ _______ _______ _____ _____    ______ ____
ROOT
ATOM      1  C9  UNL     1      27.748  -9.959 -37.677  0.00  0.00    +0.000 C 
ATOM      2  C10 UNL     1      28.976  -9.905 -36.984  0.00  0.00    +0.000 C 
ATOM      3  C11 UNL     1      28.936  -9.536 -35.645  0.00  0.00    +0.000 A 
ATOM      4  C12 UNL     1      27.755  -9.226 -35.006  0.00  0.00    +0.000 A 
ATOM      5  N4  UNL     1      27.960  -8.963 -33.693  0.00  0.00    +0.000 N 
ATOM      6  C13 UNL     1      29.292  -9.094 -33.519  0.00  0.00    +0.000 A 
ATOM      7  C14 UNL     1      30.005  -8.937 -32.331  0.00  0.00    +0.000 C 
ATOM      8  C15 UNL     1      31.397  -9.143 -32.365  0.00  0.00    +0.000 C 
ATOM      9  C16 UNL     1      32.041  -9.502 -33.571  0.00  0.00    +0.000 C 
ATOM     10  C17 UNL     1      31.300  -9.660 -34.756  0.00  0.00    +0.000 C 
ATOM     11  C18 UNL     1      29.925  -9.444 -34.694  0.00  0.00    +0.000 A 
ATOM     12  C19 UNL     1      26.543  -9.267 -35.708  0.00  0.00    +0.000 C 
ATOM     13  N5  UNL     1      26.584  -9.644 -37.022  0.00  0.00    +0.000 NA
ATOM     14  H9  UNL     1      27.251  -8.744 -32.958  0.00  0.00    +0.000 HD
ENDROOT
BRANCH  12  15
ATOM     15  C20 UNL     1      25.243  -8.929 -35.092  0.00  0.00    +0.000 C 
ATOM     16  C21 UNL     1      24.938  -9.331 -33.779  0.00  0.00    +0.000 C 
ATOM     17  C22 UNL     1      23.714  -8.981 -33.202  0.00  0.00    +0.000 C 
ATOM     18  C23 UNL     1      22.791  -8.219 -33.921  0.00  0.00    +0.000 C 
ATOM     19  C24 UNL     1      23.095  -7.796 -35.218  0.00  0.00    +0.000 C 
ATOM     20  C25 UNL     1      24.319  -8.144 -35.800  0.00  0.00    +0.000 C 
ENDBRANCH  12  15
BRANCH   1  22
ATOM     21  O1  UNL     1      26.619 -10.254 -39.744  0.00  0.00    +0.000 OA
ATOM     22  C1  UNL     1      27.697 -10.364 -39.097  0.00  0.00    +0.000 C 
ATOM     23  N1  UNL     1      28.865 -10.892 -39.746  0.00  0.00    +0.000 N 
ATOM     24  H1  UNL     1      29.642 -11.266 -39.158  0.00  0.00    +0.000 HD
BRANCH  23  25
ATOM     25  N2  UNL     1      28.888 -11.171 -41.124  0.00  0.00    +0.000 N 
ATOM     26  H2  UNL     1      28.417 -12.039 -41.464  0.00  0.00    +0.000 HD
BRANCH  25  27
ATOM     27  C2  UNL     1      29.630 -10.381 -42.065  0.00  0.00    +0.000 C 
ATOM     28  S1  UNL     1      30.808 -11.117 -42.942  0.00  0.00    +0.000 S 
BRANCH  27  29
ATOM     29  N3  UNL     1      29.313  -8.988 -42.258  0.00  0.00    +0.000 N 
ATOM     30  H3  UNL     1      29.841  -8.273 -41.712  0.00  0.00    +0.000 HD
BRANCH  29  31
ATOM     31  C3  UNL     1      28.279  -8.498 -43.127  0.00  0.00    +0.000 C 
ATOM     32  C4  UNL     1      26.937  -8.604 -42.731  0.00  0.00    +0.000 C 
ATOM     33  C5  UNL     1      25.919  -8.100 -43.545  0.00  0.00    +0.000 C 
ATOM     34  C6  UNL     1      26.235  -7.470 -44.752  0.00  0.00    +0.000 C 
ATOM     35  C7  UNL     1      27.570  -7.334 -45.142  0.00  0.00    +0.000 C 
ATOM     36  F1  UNL     1      27.877  -6.705 -46.302  0.00  0.00    +0.000 F 
ATOM     37  C8  UNL     1      28.591  -7.838 -44.329  0.00  0.00    +0.000 C 
ENDBRANCH  29  31
ENDBRANCH  27  29
ENDBRANCH  25  27
ENDBRANCH  23  25
ENDBRANCH   1  22
TORSDOF 6
