REMARK  Name = resultss/4CJN/ligands/lig_337_t2.pdb
REMARK  12 active torsions:
REMARK  status: ('A' for Active; 'I' for Inactive)
REMARK    1  A    between atoms: C2_1  and  O1_28
REMARK    2  A    between atoms: C4_3  and  C5_7
REMARK    3  A    between atoms: C21_6  and  O3_29
REMARK    4  A    between atoms: C12_15  and  O2_17
REMARK    5  A    between atoms: N2_16  and  N3_19
REMARK    6  A    between atoms: N3_19  and  C13_21
REMARK    7  A    between atoms: O3_29  and  C22_30
REMARK    8  A    between atoms: C22_30  and  C23_31
REMARK    9  A    between atoms: N4_33  and  C25_36
REMARK   10  A    between atoms: C25_36  and  C26_37
REMARK   11  A    between atoms: N5_39  and  C27_41
REMARK   12  A    between atoms: C30_44  and  N6_47
REMARK                            x       y       z     vdW  Elec       q    Type
REMARK                         _______ _______ _______ _____ _____    ______ ____
ROOT
ATOM      1  C2  UNL     1      27.165  -7.406 -38.202  0.00  0.00    +0.000 C 
ATOM      2  C3  UNL     1      27.985  -6.893 -37.178  0.00  0.00    +0.000 C 
ATOM      3  C4  UNL     1      28.472  -7.736 -36.163  0.00  0.00    +0.000 C 
ATOM      4  C19 UNL     1      28.166  -9.109 -36.200  0.00  0.00    +0.000 C 
ATOM      5  C20 UNL     1      27.363  -9.624 -37.220  0.00  0.00    +0.000 C 
ATOM      6  C21 UNL     1      26.852  -8.777 -38.215  0.00  0.00    +0.000 C 
ENDROOT
BRANCH   3   7
ATOM      7  C5  UNL     1      29.329  -7.174 -35.053  0.00  0.00    +0.000 C 
ATOM      8  N1  UNL     1      30.603  -7.886 -35.013  0.00  0.00    +0.000 NA
ATOM      9  C6  UNL     1      31.038  -8.599 -34.014  0.00  0.00    +0.000 C 
ATOM     10  C7  UNL     1      32.288  -9.221 -34.142  0.00  0.00    +0.000 C 
ATOM     11  C8  UNL     1      32.808  -9.991 -33.101  0.00  0.00    +0.000 C 
ATOM     12  C9  UNL     1      32.078 -10.157 -31.925  0.00  0.00    +0.000 C 
ATOM     13  C10 UNL     1      30.826  -9.546 -31.779  0.00  0.00    +0.000 C 
ATOM     14  C11 UNL     1      30.283  -8.748 -32.820  0.00  0.00    +0.000 C 
ATOM     15  C12 UNL     1      29.088  -8.117 -32.705  0.00  0.00    +0.000 C 
ATOM     16  N2  UNL     1      28.620  -7.272 -33.771  0.00  0.00    +0.000 N 
BRANCH  15  17
ATOM     17  O2  UNL     1      28.282  -8.217 -31.562  0.00  0.00    +0.000 OA
ATOM     18  H10 UNL     1      27.510  -8.853 -31.429  0.00  0.00    +0.000 HD
ENDBRANCH  15  17
BRANCH  16  19
ATOM     19  N3  UNL     1      27.383  -6.615 -33.628  0.00  0.00    +0.000 N 
ATOM     20  H11 UNL     1      27.388  -5.593 -33.377  0.00  0.00    +0.000 HD
BRANCH  19  21
ATOM     21  C13 UNL     1      26.138  -7.262 -33.929  0.00  0.00    +0.000 C 
ATOM     22  C14 UNL     1      25.869  -8.530 -33.395  0.00  0.00    +0.000 C 
ATOM     23  C15 UNL     1      24.640  -9.154 -33.641  0.00  0.00    +0.000 C 
ATOM     24  C16 UNL     1      23.670  -8.510 -34.411  0.00  0.00    +0.000 C 
ATOM     25  C17 UNL     1      23.925  -7.239 -34.936  0.00  0.00    +0.000 C 
ATOM     26  C18 UNL     1      25.153  -6.614 -34.694  0.00  0.00    +0.000 C 
ENDBRANCH  19  21
ENDBRANCH  16  19
ENDBRANCH   3   7
BRANCH   1  28
ATOM     27  C1  UNL     1      27.455  -5.893 -40.177  0.00  0.00    +0.000 C 
ATOM     28  O1  UNL     1      26.657  -6.596 -39.229  0.00  0.00    +0.000 OA
ENDBRANCH   1  28
BRANCH   6  29
ATOM     29  O3  UNL     1      26.025  -9.292 -39.217  0.00  0.00    +0.000 OA
BRANCH  29  30
ATOM     30  C22 UNL     1      26.547  -9.988 -40.350  0.00  0.00    +0.000 C 
BRANCH  30  31
ATOM     31  C23 UNL     1      25.922  -9.460 -41.602  0.00  0.00    +0.000 C 
ATOM     32  C24 UNL     1      26.377  -8.409 -42.368  0.00  0.00    +0.000 C 
ATOM     33  N4  UNL     1      25.544  -8.333 -43.418  0.00  0.00    +0.000 N 
ATOM     34  N7  UNL     1      24.656  -9.310 -43.329  0.00  0.00    +0.000 NA
ATOM     35  N8  UNL     1      24.866 -10.022 -42.231  0.00  0.00    +0.000 NA
BRANCH  33  36
ATOM     36  C25 UNL     1      25.629  -7.400 -44.532  0.00  0.00    +0.000 C 
BRANCH  36  37
ATOM     37  C26 UNL     1      24.271  -6.852 -44.838  0.00  0.00    +0.000 C 
ATOM     38  O4  UNL     1      23.827  -5.890 -44.155  0.00  0.00    +0.000 OA
ATOM     39  N5  UNL     1      23.495  -7.415 -45.902  0.00  0.00    +0.000 N 
ATOM     40  H24 UNL     1      24.011  -7.894 -46.669  0.00  0.00    +0.000 HD
BRANCH  39  41
ATOM     41  C27 UNL     1      22.075  -7.239 -46.063  0.00  0.00    +0.000 C 
ATOM     42  C28 UNL     1      21.307  -6.856 -44.956  0.00  0.00    +0.000 C 
ATOM     43  C29 UNL     1      19.931  -6.645 -45.075  0.00  0.00    +0.000 C 
ATOM     44  C30 UNL     1      19.295  -6.804 -46.319  0.00  0.00    +0.000 C 
ATOM     45  C31 UNL     1      20.069  -7.160 -47.437  0.00  0.00    +0.000 C 
ATOM     46  C32 UNL     1      21.445  -7.371 -47.312  0.00  0.00    +0.000 C 
BRANCH  44  47
ATOM     47  N6  UNL     1      17.881  -6.584 -46.456  0.00  0.00    +0.000 N 
ATOM     48  O5  UNL     1      17.092  -6.971 -45.569  0.00  0.00    +0.000 OA
ATOM     49  O6  UNL     1      17.373  -5.954 -47.573  0.00  0.00    +0.000 OA
ENDBRANCH  44  47
ENDBRANCH  39  41
ENDBRANCH  36  37
ENDBRANCH  33  36
ENDBRANCH  30  31
ENDBRANCH  29  30
ENDBRANCH   6  29
TORSDOF 12
