REMARK  Name = resultss/4CJN/ligands/lig_347_t2.pdb
REMARK  11 active torsions:
REMARK  status: ('A' for Active; 'I' for Inactive)
REMARK    1  A    between atoms: C6_1  and  O2_27
REMARK    2  A    between atoms: C9_4  and  C10_7
REMARK    3  A    between atoms: C17_15  and  O3_17
REMARK    4  A    between atoms: N3_16  and  N4_19
REMARK    5  A    between atoms: N4_19  and  C18_21
REMARK    6  A    between atoms: O2_27  and  C5_28
REMARK    7  A    between atoms: C5_28  and  C4_31
REMARK    8  A    between atoms: N1_29  and  C2_34
REMARK    9  A    between atoms: C2_34  and  C1_36
REMARK   10  A    between atoms: N7_37  and  C26_39
REMARK   11  A    between atoms: C29_42  and  N8_45
REMARK                            x       y       z     vdW  Elec       q    Type
REMARK                         _______ _______ _______ _____ _____    ______ ____
ROOT
ATOM      1  C6  UNL     1      25.152  -8.812 -40.968  0.00  0.00    +0.000 C 
ATOM      2  C7  UNL     1      25.139  -7.423 -40.740  0.00  0.00    +0.000 C 
ATOM      3  C8  UNL     1      24.885  -6.536 -41.790  0.00  0.00    +0.000 C 
ATOM      4  C9  UNL     1      24.646  -7.017 -43.089  0.00  0.00    +0.000 C 
ATOM      5  C24 UNL     1      24.630  -8.410 -43.306  0.00  0.00    +0.000 C 
ATOM      6  C25 UNL     1      24.895  -9.295 -42.257  0.00  0.00    +0.000 C 
ENDROOT
BRANCH   4   7
ATOM      7  C10 UNL     1      24.337  -6.034 -44.196  0.00  0.00    +0.000 C 
ATOM      8  N2  UNL     1      22.892  -5.941 -44.367  0.00  0.00    +0.000 NA
ATOM      9  C11 UNL     1      22.234  -6.402 -45.388  0.00  0.00    +0.000 C 
ATOM     10  C12 UNL     1      20.836  -6.298 -45.375  0.00  0.00    +0.000 C 
ATOM     11  C13 UNL     1      20.077  -6.805 -46.428  0.00  0.00    +0.000 C 
ATOM     12  C14 UNL     1      20.709  -7.411 -47.510  0.00  0.00    +0.000 C 
ATOM     13  C15 UNL     1      22.102  -7.512 -47.547  0.00  0.00    +0.000 C 
ATOM     14  C16 UNL     1      22.896  -7.012 -46.484  0.00  0.00    +0.000 C 
ATOM     15  C17 UNL     1      24.254  -7.066 -46.501  0.00  0.00    +0.000 C 
ATOM     16  N3  UNL     1      25.009  -6.408 -45.450  0.00  0.00    +0.000 N 
BRANCH  15  17
ATOM     17  O3  UNL     1      24.952  -7.761 -47.497  0.00  0.00    +0.000 OA
ATOM     18  H13 UNL     1      24.856  -8.746 -47.699  0.00  0.00    +0.000 HD
ENDBRANCH  15  17
BRANCH  16  19
ATOM     19  N4  UNL     1      26.410  -6.217 -45.510  0.00  0.00    +0.000 N 
ATOM     20  H14 UNL     1      26.805  -5.587 -46.250  0.00  0.00    +0.000 HD
BRANCH  19  21
ATOM     21  C18 UNL     1      27.336  -6.723 -44.543  0.00  0.00    +0.000 C 
ATOM     22  C19 UNL     1      27.818  -8.034 -44.650  0.00  0.00    +0.000 C 
ATOM     23  C20 UNL     1      28.755  -8.509 -43.724  0.00  0.00    +0.000 C 
ATOM     24  C21 UNL     1      29.204  -7.678 -42.692  0.00  0.00    +0.000 C 
ATOM     25  C22 UNL     1      28.728  -6.366 -42.589  0.00  0.00    +0.000 C 
ATOM     26  C23 UNL     1      27.802  -5.884 -43.520  0.00  0.00    +0.000 C 
ENDBRANCH  19  21
ENDBRANCH  16  19
ENDBRANCH   4   7
BRANCH   1  27
ATOM     27  O2  UNL     1      25.419  -9.739 -39.948  0.00  0.00    +0.000 OA
BRANCH  27  28
ATOM     28  C5  UNL     1      26.416  -9.566 -38.945  0.00  0.00    +0.000 C 
BRANCH  28  31
ATOM     29  N1  UNL     1      25.591  -7.710 -35.940  0.00  0.00    +0.000 N 
ATOM     30  C3  UNL     1      26.518  -8.300 -36.714  0.00  0.00    +0.000 C 
ATOM     31  C4  UNL     1      25.830  -8.840 -37.779  0.00  0.00    +0.000 C 
ATOM     32  N5  UNL     1      24.521  -8.546 -37.640  0.00  0.00    +0.000 NA
ATOM     33  N6  UNL     1      24.406  -7.858 -36.513  0.00  0.00    +0.000 NA
BRANCH  29  34
ATOM     34  C2  UNL     1      25.829  -6.958 -34.712  0.00  0.00    +0.000 C 
BRANCH  34  36
ATOM     35  O1  UNL     1      26.630  -8.177 -32.830  0.00  0.00    +0.000 OA
ATOM     36  C1  UNL     1      26.922  -7.604 -33.915  0.00  0.00    +0.000 C 
ATOM     37  N7  UNL     1      28.288  -7.512 -34.351  0.00  0.00    +0.000 N 
ATOM     38  H22 UNL     1      28.518  -6.812 -35.091  0.00  0.00    +0.000 HD
BRANCH  37  39
ATOM     39  C26 UNL     1      29.379  -8.240 -33.760  0.00  0.00    +0.000 C 
ATOM     40  C27 UNL     1      29.655  -9.543 -34.197  0.00  0.00    +0.000 C 
ATOM     41  C28 UNL     1      30.690 -10.283 -33.618  0.00  0.00    +0.000 C 
ATOM     42  C29 UNL     1      31.461  -9.736 -32.576  0.00  0.00    +0.000 C 
ATOM     43  C30 UNL     1      31.171  -8.439 -32.126  0.00  0.00    +0.000 C 
ATOM     44  C31 UNL     1      30.136  -7.699 -32.706  0.00  0.00    +0.000 C 
BRANCH  42  45
ATOM     45  N8  UNL     1      32.517 -10.500 -31.966  0.00  0.00    +0.000 N 
ATOM     46  O4  UNL     1      33.471  -9.928 -31.402  0.00  0.00    +0.000 OA
ATOM     47  O5  UNL     1      32.492 -11.876 -31.994  0.00  0.00    +0.000 OA
ENDBRANCH  42  45
ENDBRANCH  37  39
ENDBRANCH  34  36
ENDBRANCH  29  34
ENDBRANCH  28  31
ENDBRANCH  27  28
ENDBRANCH   1  27
TORSDOF 11
