REMARK  Name = resultss/4CJN/ligands/lig_420_t0.pdb
REMARK  7 active torsions:
REMARK  status: ('A' for Active; 'I' for Inactive)
REMARK    1  A    between atoms: C1_2  and  C10_5
REMARK    2  A    between atoms: N1_3  and  N2_25
REMARK    3  A    between atoms: C20_16  and  C21_19
REMARK    4  A    between atoms: N2_25  and  C2_27
REMARK    5  A    between atoms: C2_27  and  N3_29
REMARK    6  A    between atoms: N3_29  and  C3_31
REMARK    7  A    between atoms: C7_35  and  C8_37
REMARK                            x       y       z     vdW  Elec       q    Type
REMARK                         _______ _______ _______ _____ _____    ______ ____
ROOT
ATOM      1  O1  UNL     1      26.924  -9.750 -39.870  0.00  0.00    +0.000 OA
ATOM      2  C1  UNL     1      27.895 -10.101 -39.145  0.00  0.00    +0.000 C 
ATOM      3  N1  UNL     1      28.991 -10.827 -39.726  0.00  0.00    +0.000 N 
ATOM      4  H1  UNL     1      29.624 -11.370 -39.098  0.00  0.00    +0.000 HD
ENDROOT
BRANCH   2   5
ATOM      5  C10 UNL     1      27.892  -9.776 -37.704  0.00  0.00    +0.000 C 
ATOM      6  C11 UNL     1      29.090  -9.781 -36.959  0.00  0.00    +0.000 C 
ATOM      7  C12 UNL     1      28.999  -9.480 -35.605  0.00  0.00    +0.000 A 
ATOM      8  C13 UNL     1      27.798  -9.181 -35.000  0.00  0.00    +0.000 A 
ATOM      9  N4  UNL     1      27.953  -8.986 -33.669  0.00  0.00    +0.000 N 
ATOM     10  C14 UNL     1      29.276  -9.148 -33.447  0.00  0.00    +0.000 A 
ATOM     11  C15 UNL     1      29.941  -9.058 -32.225  0.00  0.00    +0.000 C 
ATOM     12  C16 UNL     1      31.331  -9.282 -32.214  0.00  0.00    +0.000 C 
ATOM     13  C17 UNL     1      32.017  -9.595 -33.408  0.00  0.00    +0.000 C 
ATOM     14  C18 UNL     1      31.324  -9.686 -34.629  0.00  0.00    +0.000 C 
ATOM     15  C19 UNL     1      29.951  -9.451 -34.611  0.00  0.00    +0.000 A 
ATOM     16  C20 UNL     1      26.616  -9.165 -35.753  0.00  0.00    +0.000 C 
ATOM     17  N5  UNL     1      26.707  -9.474 -37.082  0.00  0.00    +0.000 NA
ATOM     18  H9  UNL     1      27.218  -8.789 -32.953  0.00  0.00    +0.000 HD
BRANCH  16  19
ATOM     19  C21 UNL     1      25.298  -8.839 -35.173  0.00  0.00    +0.000 C 
ATOM     20  C22 UNL     1      24.336  -8.127 -35.911  0.00  0.00    +0.000 C 
ATOM     21  C23 UNL     1      23.084  -7.849 -35.356  0.00  0.00    +0.000 C 
ATOM     22  C24 UNL     1      22.775  -8.290 -34.068  0.00  0.00    +0.000 C 
ATOM     23  C25 UNL     1      23.716  -9.016 -33.333  0.00  0.00    +0.000 C 
ATOM     24  C26 UNL     1      24.970  -9.297 -33.885  0.00  0.00    +0.000 C 
ENDBRANCH  16  19
ENDBRANCH   2   5
BRANCH   3  25
ATOM     25  N2  UNL     1      29.079 -11.056 -41.109  0.00  0.00    +0.000 N 
ATOM     26  H2  UNL     1      28.286 -11.541 -41.586  0.00  0.00    +0.000 HD
BRANCH  25  27
ATOM     27  C2  UNL     1      30.257 -10.759 -41.873  0.00  0.00    +0.000 C 
ATOM     28  S1  UNL     1      31.327  -9.672 -41.265  0.00  0.00    +0.000 S 
BRANCH  27  29
ATOM     29  N3  UNL     1      30.506 -11.436 -43.121  0.00  0.00    +0.000 N 
ATOM     30  H3  UNL     1      29.716 -11.558 -43.792  0.00  0.00    +0.000 HD
BRANCH  29  31
ATOM     31  C3  UNL     1      31.769 -12.001 -43.507  0.00  0.00    +0.000 C 
ATOM     32  C4  UNL     1      32.881 -11.831 -42.671  0.00  0.00    +0.000 C 
ATOM     33  C5  UNL     1      34.114 -12.388 -43.017  0.00  0.00    +0.000 C 
ATOM     34  C6  UNL     1      34.241 -13.141 -44.187  0.00  0.00    +0.000 C 
ATOM     35  C7  UNL     1      33.124 -13.370 -45.009  0.00  0.00    +0.000 C 
ATOM     36  C9  UNL     1      31.892 -12.785 -44.667  0.00  0.00    +0.000 C 
BRANCH  35  37
ATOM     37  C8  UNL     1      33.268 -14.156 -46.288  0.00  0.00    +0.000 C 
ATOM     38  F1  UNL     1      34.123 -15.230 -46.112  0.00  0.00    +0.000 F 
ATOM     39  F2  UNL     1      33.781 -13.357 -47.296  0.00  0.00    +0.000 F 
ATOM     40  F3  UNL     1      32.027 -14.627 -46.675  0.00  0.00    +0.000 F 
ENDBRANCH  35  37
ENDBRANCH  29  31
ENDBRANCH  27  29
ENDBRANCH  25  27
ENDBRANCH   3  25
TORSDOF 7
