REMARK  Name = resultss/4CJN/ligands/lig_433_t0.pdb
REMARK  6 active torsions:
REMARK  status: ('A' for Active; 'I' for Inactive)
REMARK    1  A    between atoms: C9_1  and  C1_22
REMARK    2  A    between atoms: C19_12  and  C20_15
REMARK    3  A    between atoms: N1_23  and  N2_25
REMARK    4  A    between atoms: N2_25  and  C2_27
REMARK    5  A    between atoms: C2_27  and  N3_29
REMARK    6  A    between atoms: N3_29  and  C3_31
REMARK                            x       y       z     vdW  Elec       q    Type
REMARK                         _______ _______ _______ _____ _____    ______ ____
ROOT
ATOM      1  C9  UNL     1      27.906 -10.012 -37.670  0.00  0.00    +0.000 C 
ATOM      2  C10 UNL     1      29.129  -9.944 -36.969  0.00  0.00    +0.000 C 
ATOM      3  C11 UNL     1      29.076  -9.570 -35.631  0.00  0.00    +0.000 A 
ATOM      4  C12 UNL     1      27.888  -9.269 -35.002  0.00  0.00    +0.000 A 
ATOM      5  N4  UNL     1      28.082  -8.994 -33.689  0.00  0.00    +0.000 N 
ATOM      6  C13 UNL     1      29.415  -9.109 -33.507  0.00  0.00    +0.000 A 
ATOM      7  C14 UNL     1      30.118  -8.935 -32.315  0.00  0.00    +0.000 C 
ATOM      8  C15 UNL     1      31.513  -9.124 -32.341  0.00  0.00    +0.000 C 
ATOM      9  C16 UNL     1      32.168  -9.485 -33.540  0.00  0.00    +0.000 C 
ATOM     10  C17 UNL     1      31.436  -9.659 -34.729  0.00  0.00    +0.000 C 
ATOM     11  C18 UNL     1      30.059  -9.459 -34.674  0.00  0.00    +0.000 A 
ATOM     12  C19 UNL     1      26.681  -9.325 -35.713  0.00  0.00    +0.000 C 
ATOM     13  N5  UNL     1      26.735  -9.705 -37.025  0.00  0.00    +0.000 NA
ATOM     14  H8  UNL     1      27.367  -8.777 -32.961  0.00  0.00    +0.000 HD
ENDROOT
BRANCH  12  15
ATOM     15  C20 UNL     1      25.375  -8.989 -35.109  0.00  0.00    +0.000 C 
ATOM     16  C21 UNL     1      25.060  -9.387 -33.797  0.00  0.00    +0.000 C 
ATOM     17  C22 UNL     1      23.834  -9.031 -33.228  0.00  0.00    +0.000 C 
ATOM     18  C23 UNL     1      22.917  -8.268 -33.956  0.00  0.00    +0.000 C 
ATOM     19  C24 UNL     1      23.231  -7.852 -35.253  0.00  0.00    +0.000 C 
ATOM     20  C25 UNL     1      24.457  -8.203 -35.826  0.00  0.00    +0.000 C 
ENDBRANCH  12  15
BRANCH   1  22
ATOM     21  O1  UNL     1      26.767 -10.482 -39.699  0.00  0.00    +0.000 OA
ATOM     22  C1  UNL     1      27.872 -10.410 -39.095  0.00  0.00    +0.000 C 
ATOM     23  N1  UNL     1      29.087 -10.711 -39.798  0.00  0.00    +0.000 N 
ATOM     24  H1  UNL     1      29.999 -10.602 -39.300  0.00  0.00    +0.000 HD
BRANCH  23  25
ATOM     25  N2  UNL     1      29.065 -11.178 -41.126  0.00  0.00    +0.000 N 
ATOM     26  H2  UNL     1      28.642 -12.110 -41.336  0.00  0.00    +0.000 HD
BRANCH  25  27
ATOM     27  C2  UNL     1      29.677 -10.460 -42.209  0.00  0.00    +0.000 C 
ATOM     28  S1  UNL     1      30.918 -11.133 -43.055  0.00  0.00    +0.000 S 
BRANCH  27  29
ATOM     29  N3  UNL     1      29.366  -9.067 -42.378  0.00  0.00    +0.000 N 
ATOM     30  H3  UNL     1      30.017  -8.371 -41.947  0.00  0.00    +0.000 HD
BRANCH  29  31
ATOM     31  C3  UNL     1      28.236  -8.564 -43.111  0.00  0.00    +0.000 C 
ATOM     32  C4  UNL     1      28.446  -7.679 -44.181  0.00  0.00    +0.000 C 
ATOM     33  C5  UNL     1      27.361  -7.158 -44.891  0.00  0.00    +0.000 C 
ATOM     34  C6  UNL     1      26.056  -7.503 -44.529  0.00  0.00    +0.000 C 
ATOM     35  F1  UNL     1      25.005  -6.992 -45.219  0.00  0.00    +0.000 F 
ATOM     36  C7  UNL     1      25.834  -8.363 -43.449  0.00  0.00    +0.000 C 
ATOM     37  F2  UNL     1      24.567  -8.685 -43.086  0.00  0.00    +0.000 F 
ATOM     38  C8  UNL     1      26.919  -8.886 -42.737  0.00  0.00    +0.000 C 
ENDBRANCH  29  31
ENDBRANCH  27  29
ENDBRANCH  25  27
ENDBRANCH  23  25
ENDBRANCH   1  22
TORSDOF 6
