REMARK  Name = resultss/4CJN/ligands/lig_415_t0.pdb
REMARK  6 active torsions:
REMARK  status: ('A' for Active; 'I' for Inactive)
REMARK    1  A    between atoms: C9_1  and  C1_22
REMARK    2  A    between atoms: C19_12  and  C20_15
REMARK    3  A    between atoms: N1_23  and  N2_25
REMARK    4  A    between atoms: N2_25  and  C2_27
REMARK    5  A    between atoms: C2_27  and  N3_29
REMARK    6  A    between atoms: N3_29  and  C3_31
REMARK                            x       y       z     vdW  Elec       q    Type
REMARK                         _______ _______ _______ _____ _____    ______ ____
ROOT
ATOM      1  C9  UNL     1      24.933  -7.521 -39.695  0.00  0.00    +0.000 C 
ATOM      2  C10 UNL     1      24.019  -7.049 -40.660  0.00  0.00    +0.000 C 
ATOM      3  C11 UNL     1      24.321  -7.292 -41.995  0.00  0.00    +0.000 A 
ATOM      4  C12 UNL     1      25.465  -7.959 -42.377  0.00  0.00    +0.000 A 
ATOM      5  N4  UNL     1      25.507  -8.132 -43.720  0.00  0.00    +0.000 N 
ATOM      6  C13 UNL     1      24.381  -7.547 -44.181  0.00  0.00    +0.000 A 
ATOM      7  C14 UNL     1      23.954  -7.468 -45.506  0.00  0.00    +0.000 C 
ATOM      8  C15 UNL     1      22.729  -6.826 -45.767  0.00  0.00    +0.000 C 
ATOM      9  C16 UNL     1      21.961  -6.287 -44.709  0.00  0.00    +0.000 C 
ATOM     10  C17 UNL     1      22.409  -6.384 -43.379  0.00  0.00    +0.000 C 
ATOM     11  C18 UNL     1      23.628  -7.019 -43.153  0.00  0.00    +0.000 A 
ATOM     12  C19 UNL     1      26.373  -8.409 -41.411  0.00  0.00    +0.000 C 
ATOM     13  N5  UNL     1      26.066  -8.181 -40.097  0.00  0.00    +0.000 NA
ATOM     14  H9  UNL     1      26.225  -8.638 -44.286  0.00  0.00    +0.000 HD
ENDROOT
BRANCH  12  15
ATOM     15  C20 UNL     1      27.627  -9.114 -41.750  0.00  0.00    +0.000 C 
ATOM     16  C21 UNL     1      28.017 -10.272 -41.055  0.00  0.00    +0.000 C 
ATOM     17  C22 UNL     1      29.194 -10.942 -41.404  0.00  0.00    +0.000 C 
ATOM     18  C23 UNL     1      29.983 -10.470 -42.458  0.00  0.00    +0.000 C 
ATOM     19  C24 UNL     1      29.591  -9.332 -43.167  0.00  0.00    +0.000 C 
ATOM     20  C25 UNL     1      28.415  -8.660 -42.821  0.00  0.00    +0.000 C 
ENDBRANCH  12  15
BRANCH   1  22
ATOM     21  O1  UNL     1      24.973  -6.222 -37.709  0.00  0.00    +0.000 OA
ATOM     22  C1  UNL     1      24.681  -7.323 -38.252  0.00  0.00    +0.000 C 
ATOM     23  N1  UNL     1      24.124  -8.384 -37.459  0.00  0.00    +0.000 N 
ATOM     24  H1  UNL     1      24.182  -9.363 -37.816  0.00  0.00    +0.000 HD
BRANCH  23  25
ATOM     25  N2  UNL     1      23.729  -8.190 -36.124  0.00  0.00    +0.000 N 
ATOM     26  H2  UNL     1      22.825  -7.699 -35.940  0.00  0.00    +0.000 HD
BRANCH  25  27
ATOM     27  C2  UNL     1      24.585  -8.480 -35.007  0.00  0.00    +0.000 C 
ATOM     28  S1  UNL     1      24.397  -7.660 -33.597  0.00  0.00    +0.000 S 
BRANCH  27  29
ATOM     29  N3  UNL     1      25.411  -9.654 -35.017  0.00  0.00    +0.000 N 
ATOM     30  H3  UNL     1      24.964 -10.572 -34.794  0.00  0.00    +0.000 HD
BRANCH  29  31
ATOM     31  C3  UNL     1      26.811  -9.646 -35.344  0.00  0.00    +0.000 C 
ATOM     32  C4  UNL     1      27.759  -9.601 -34.311  0.00  0.00    +0.000 C 
ATOM     33  C5  UNL     1      29.126  -9.572 -34.605  0.00  0.00    +0.000 C 
ATOM     34  C6  UNL     1      29.557  -9.573 -35.936  0.00  0.00    +0.000 C 
ATOM     35 BR1  UNL     1      31.424  -9.530 -36.336  0.00  0.00    +0.000 Br
ATOM     36  C7  UNL     1      28.619  -9.596 -36.972  0.00  0.00    +0.000 C 
ATOM     37  C8  UNL     1      27.252  -9.625 -36.680  0.00  0.00    +0.000 C 
ENDBRANCH  29  31
ENDBRANCH  27  29
ENDBRANCH  25  27
ENDBRANCH  23  25
ENDBRANCH   1  22
TORSDOF 6
