REMARK  Name = resultss/4CJN/ligands/lig_338_t1.pdb
REMARK  11 active torsions:
REMARK  status: ('A' for Active; 'I' for Inactive)
REMARK    1  A    between atoms: C2_1  and  O1_28
REMARK    2  A    between atoms: C4_3  and  C5_7
REMARK    3  A    between atoms: C21_6  and  O3_29
REMARK    4  A    between atoms: N2_17  and  N3_19
REMARK    5  A    between atoms: N3_19  and  C13_21
REMARK    6  A    between atoms: O3_29  and  C22_30
REMARK    7  A    between atoms: C22_30  and  C23_31
REMARK    8  A    between atoms: N4_33  and  C25_36
REMARK    9  A    between atoms: C25_36  and  C26_37
REMARK   10  A    between atoms: C26_37  and  O4_46
REMARK   11  A    between atoms: N5_38  and  C27_39
REMARK                            x       y       z     vdW  Elec       q    Type
REMARK                         _______ _______ _______ _____ _____    ______ ____
ROOT
ATOM      1  C2  UNL     1      24.500  -7.304 -40.821  0.00  0.00    +0.000 C 
ATOM      2  C3  UNL     1      24.628  -7.445 -39.427  0.00  0.00    +0.000 C 
ATOM      3  C4  UNL     1      25.730  -6.898 -38.748  0.00  0.00    +0.000 C 
ATOM      4  C19 UNL     1      26.700  -6.193 -39.473  0.00  0.00    +0.000 C 
ATOM      5  C20 UNL     1      26.572  -6.036 -40.853  0.00  0.00    +0.000 C 
ATOM      6  C21 UNL     1      25.476  -6.594 -41.538  0.00  0.00    +0.000 C 
ENDROOT
BRANCH   3   7
ATOM      7  C5  UNL     1      25.930  -7.174 -37.276  0.00  0.00    +0.000 C 
ATOM      8  N1  UNL     1      24.677  -6.937 -36.549  0.00  0.00    +0.000 N 
ATOM      9  C6  UNL     1      24.395  -7.590 -35.304  0.00  0.00    +0.000 C 
ATOM     10  C7  UNL     1      23.392  -7.093 -34.455  0.00  0.00    +0.000 C 
ATOM     11  C8  UNL     1      23.138  -7.718 -33.228  0.00  0.00    +0.000 C 
ATOM     12  C9  UNL     1      23.875  -8.843 -32.848  0.00  0.00    +0.000 C 
ATOM     13  C10 UNL     1      24.858  -9.356 -33.700  0.00  0.00    +0.000 C 
ATOM     14  C11 UNL     1      25.119  -8.733 -34.933  0.00  0.00    +0.000 C 
ATOM     15  C12 UNL     1      26.126  -9.260 -35.867  0.00  0.00    +0.000 C 
ATOM     16  O2  UNL     1      26.723 -10.341 -35.614  0.00  0.00    +0.000 OA
ATOM     17  N2  UNL     1      26.404  -8.555 -37.089  0.00  0.00    +0.000 N 
ATOM     18  H6  UNL     1      24.103  -6.104 -36.818  0.00  0.00    +0.000 HD
BRANCH  17  19
ATOM     19  N3  UNL     1      27.397  -9.055 -37.954  0.00  0.00    +0.000 N 
ATOM     20  H11 UNL     1      27.106  -9.737 -38.693  0.00  0.00    +0.000 HD
BRANCH  19  21
ATOM     21  C13 UNL     1      28.796  -8.921 -37.653  0.00  0.00    +0.000 C 
ATOM     22  C14 UNL     1      29.628 -10.047 -37.512  0.00  0.00    +0.000 C 
ATOM     23  C15 UNL     1      30.993  -9.889 -37.251  0.00  0.00    +0.000 C 
ATOM     24  C16 UNL     1      31.540  -8.609 -37.134  0.00  0.00    +0.000 C 
ATOM     25  C17 UNL     1      30.725  -7.485 -37.290  0.00  0.00    +0.000 C 
ATOM     26  C18 UNL     1      29.358  -7.638 -37.543  0.00  0.00    +0.000 C 
ENDBRANCH  19  21
ENDBRANCH  17  19
ENDBRANCH   3   7
BRANCH   1  28
ATOM     27  C1  UNL     1      22.274  -7.144 -41.952  0.00  0.00    +0.000 C 
ATOM     28  O1  UNL     1      23.427  -7.865 -41.531  0.00  0.00    +0.000 OA
ENDBRANCH   1  28
BRANCH   6  29
ATOM     29  O3  UNL     1      25.325  -6.471 -42.929  0.00  0.00    +0.000 OA
BRANCH  29  30
ATOM     30  C22 UNL     1      25.616  -7.502 -43.867  0.00  0.00    +0.000 C 
BRANCH  30  31
ATOM     31  C23 UNL     1      26.971  -8.058 -43.582  0.00  0.00    +0.000 C 
ATOM     32  C24 UNL     1      27.250  -9.269 -42.993  0.00  0.00    +0.000 C 
ATOM     33  N4  UNL     1      28.589  -9.330 -42.897  0.00  0.00    +0.000 N 
ATOM     34  N6  UNL     1      29.101  -8.225 -43.410  0.00  0.00    +0.000 NA
ATOM     35  N7  UNL     1      28.134  -7.420 -43.828  0.00  0.00    +0.000 NA
BRANCH  33  36
ATOM     36  C25 UNL     1      29.376 -10.459 -42.418  0.00  0.00    +0.000 C 
BRANCH  36  37
ATOM     37  C26 UNL     1      30.666  -9.957 -41.824  0.00  0.00    +0.000 C 
ATOM     38  N5  UNL     1      31.839 -10.375 -42.208  0.00  0.00    +0.000 NA
BRANCH  38  39
ATOM     39  C27 UNL     1      32.115 -11.247 -43.313  0.00  0.00    +0.000 C 
ATOM     40  C28 UNL     1      31.777 -12.603 -43.224  0.00  0.00    +0.000 C 
ATOM     41  C29 UNL     1      32.108 -13.483 -44.263  0.00  0.00    +0.000 C 
ATOM     42  C30 UNL     1      32.800 -13.014 -45.384  0.00  0.00    +0.000 C 
ATOM     43 BR1  UNL     1      33.261 -14.217 -46.795  0.00  0.00    +0.000 Br
ATOM     44  C31 UNL     1      33.164 -11.664 -45.466  0.00  0.00    +0.000 C 
ATOM     45  C32 UNL     1      32.833 -10.785 -44.429  0.00  0.00    +0.000 C 
ENDBRANCH  38  39
BRANCH  37  46
ATOM     46  O4  UNL     1      30.586  -9.067 -40.756  0.00  0.00    +0.000 OA
ATOM     47  H24 UNL     1      30.913  -9.326 -39.831  0.00  0.00    +0.000 HD
ENDBRANCH  37  46
ENDBRANCH  36  37
ENDBRANCH  33  36
ENDBRANCH  30  31
ENDBRANCH  29  30
ENDBRANCH   6  29
TORSDOF 11
