REMARK  Name = resultss/4CJN/ligands/lig_260_t2.pdb
REMARK  17 active torsions:
REMARK  status: ('A' for Active; 'I' for Inactive)
REMARK    1  A    between atoms: C11_1  and  O2_34
REMARK    2  A    between atoms: C12_2  and  O3_27
REMARK    3  A    between atoms: C20_5  and  O5_25
REMARK    4  A    between atoms: C22_7  and  O6_23
REMARK    5  A    between atoms: C23_8  and  C24_46
REMARK    6  A    between atoms: C26_10  and  O8_21
REMARK    7  A    between atoms: O3_27  and  C13_28
REMARK    8  A    between atoms: C13_28  and  C14_30
REMARK    9  A    between atoms: C14_30  and  C16_32
REMARK   10  A    between atoms: O2_34  and  C10_35
REMARK   11  A    between atoms: C10_35  and  C9_37
REMARK   12  A    between atoms: C9_37  and  C8_38
REMARK   13  A    between atoms: C8_38  and  C7_40
REMARK   14  A    between atoms: C6_39  and  C5_41
REMARK   15  A    between atoms: C5_41  and  C4_43
REMARK   16  A    between atoms: C3_42  and  C2_45
REMARK   17  A    between atoms: C24_46  and  O7_47
REMARK                            x       y       z     vdW  Elec       q    Type
REMARK                         _______ _______ _______ _____ _____    ______ ____
ROOT
ATOM      1  C11 UNL     1      28.520  -8.615 -39.408  0.00  0.00    +0.000 C 
ATOM      2  C12 UNL     1      27.123  -8.578 -38.730  0.00  0.00    +0.000 C 
ATOM      3  C18 UNL     1      25.911  -8.400 -39.685  0.00  0.00    +0.000 C 
ATOM      4  C19 UNL     1      24.628  -8.179 -38.858  0.00  0.00    +0.000 C 
ATOM      5  C20 UNL     1      26.213  -7.295 -40.781  0.00  0.00    +0.000 C 
ATOM      6  C21 UNL     1      27.355  -7.867 -41.641  0.00  0.00    +0.000 C 
ATOM      7  C22 UNL     1      27.424  -8.084 -42.999  0.00  0.00    +0.000 C 
ATOM      8  C23 UNL     1      26.428  -7.707 -44.073  0.00  0.00    +0.000 C 
ATOM      9  C25 UNL     1      25.091  -7.727 -43.939  0.00  0.00    +0.000 C 
ATOM     10  C26 UNL     1      24.424  -7.901 -42.619  0.00  0.00    +0.000 C 
ATOM     11  C27 UNL     1      22.972  -7.539 -42.626  0.00  0.00    +0.000 C 
ATOM     12  O9  UNL     1      22.105  -8.054 -43.385  0.00  0.00    +0.000 OA
ATOM     13  C28 UNL     1      22.684  -6.576 -41.583  0.00  0.00    +0.000 C 
ATOM     14  C29 UNL     1      21.320  -6.144 -41.152  0.00  0.00    +0.000 C 
ATOM     15  C30 UNL     1      23.809  -6.238 -40.970  0.00  0.00    +0.000 C 
ATOM     16  C31 UNL     1      25.007  -6.839 -41.655  0.00  0.00    +0.000 C 
ATOM     17  C32 UNL     1      28.632  -8.150 -40.866  0.00  0.00    +0.000 C 
ATOM     18  C33 UNL     1      28.944  -9.621 -40.506  0.00  0.00    +0.000 C 
ATOM     19  C34 UNL     1      27.958 -10.751 -40.871  0.00  0.00    +0.000 C 
ATOM     20  C35 UNL     1      30.438  -9.985 -40.576  0.00  0.00    +0.000 C 
ENDROOT
BRANCH   5  21
ATOM     21  O5  UNL     1      26.736  -6.141 -40.156  0.00  0.00    +0.000 OA
ATOM     22  H30 UNL     1      27.567  -6.387 -39.677  0.00  0.00    +0.000 HD
ENDBRANCH   5  21
BRANCH   7  23
ATOM     23  O6  UNL     1      28.587  -8.721 -43.457  0.00  0.00    +0.000 OA
ATOM     24  H31 UNL     1      28.660  -9.721 -43.586  0.00  0.00    +0.000 HD
ENDBRANCH   7  23
BRANCH  10  25
ATOM     25  O8  UNL     1      24.571  -9.216 -42.153  0.00  0.00    +0.000 OA
ATOM     26  H36 UNL     1      25.390  -9.595 -42.567  0.00  0.00    +0.000 HD
ENDBRANCH  10  25
BRANCH   1  27
ATOM     27  O2  UNL     1      29.589  -8.116 -38.598  0.00  0.00    +0.000 OA
BRANCH  27  28
ATOM     28  C10 UNL     1      29.442  -7.014 -37.750  0.00  0.00    +0.000 C 
ATOM     29  O1  UNL     1      29.103  -5.890 -38.209  0.00  0.00    +0.000 OA
BRANCH  28  30
ATOM     30  C9  UNL     1      29.683  -7.162 -36.281  0.00  0.00    +0.000 C 
BRANCH  30  31
ATOM     31  C8  UNL     1      31.148  -7.507 -36.008  0.00  0.00    +0.000 C 
BRANCH  31  33
ATOM     32  C6  UNL     1      31.202  -9.593 -34.572  0.00  0.00    +0.000 C 
ATOM     33  C7  UNL     1      31.305  -8.987 -35.768  0.00  0.00    +0.000 C 
BRANCH  32  34
ATOM     34  C5  UNL     1      30.930  -8.888 -33.269  0.00  0.00    +0.000 C 
BRANCH  34  36
ATOM     35  C3  UNL     1      28.587  -8.272 -32.523  0.00  0.00    +0.000 C 
ATOM     36  C4  UNL     1      29.550  -9.187 -32.738  0.00  0.00    +0.000 C 
BRANCH  35  38
ATOM     37  C1  UNL     1      29.331  -6.048 -31.636  0.00  0.00    +0.000 C 
ATOM     38  C2  UNL     1      28.717  -6.800 -32.815  0.00  0.00    +0.000 C 
ENDBRANCH  35  38
ENDBRANCH  34  36
ENDBRANCH  32  34
ENDBRANCH  31  33
ENDBRANCH  30  31
ENDBRANCH  28  30
ENDBRANCH  27  28
ENDBRANCH   1  27
BRANCH   2  39
ATOM     39  O3  UNL     1      26.971  -9.767 -37.948  0.00  0.00    +0.000 OA
BRANCH  39  40
ATOM     40  C13 UNL     1      27.103  -9.822 -36.555  0.00  0.00    +0.000 C 
ATOM     41  O4  UNL     1      28.145 -10.301 -36.025  0.00  0.00    +0.000 OA
BRANCH  40  42
ATOM     42  C14 UNL     1      26.009  -9.243 -35.696  0.00  0.00    +0.000 C 
ATOM     43  C15 UNL     1      25.891 -10.008 -34.368  0.00  0.00    +0.000 C 
BRANCH  42  44
ATOM     44  C16 UNL     1      26.278  -7.738 -35.483  0.00  0.00    +0.000 C 
ATOM     45  C17 UNL     1      25.274  -7.087 -34.532  0.00  0.00    +0.000 C 
ENDBRANCH  42  44
ENDBRANCH  40  42
ENDBRANCH  39  40
ENDBRANCH   2  39
BRANCH   8  46
ATOM     46  C24 UNL     1      26.961  -7.368 -45.448  0.00  0.00    +0.000 C 
BRANCH  46  47
ATOM     47  O7  UNL     1      26.055  -6.558 -46.138  0.00  0.00    +0.000 OA
ATOM     48  H34 UNL     1      25.579  -6.012 -45.461  0.00  0.00    +0.000 HD
ENDBRANCH  46  47
ENDBRANCH   8  46
TORSDOF 17
