REMARK  Name = resultss/4CJN/ligands/lig_253_t1.pdb
REMARK  10 active torsions:
REMARK  status: ('A' for Active; 'I' for Inactive)
REMARK    1  A    between atoms: C4_1  and  C3_19
REMARK    2  A    between atoms: C6_3  and  C7_22
REMARK    3  A    between atoms: C17_4  and  O3_17
REMARK    4  A    between atoms: C18_5  and  C19_7
REMARK    5  A    between atoms: C24_13  and  C25_15
REMARK    6  A    between atoms: C3_19  and  C2_21
REMARK    7  A    between atoms: C7_22  and  S1_23
REMARK    8  A    between atoms: S1_23  and  C8_24
REMARK    9  A    between atoms: C9_27  and  C10_29
REMARK   10  A    between atoms: C14_33  and  O1_35
REMARK                            x       y       z     vdW  Elec       q    Type
REMARK                         _______ _______ _______ _____ _____    ______ ____
ROOT
ATOM      1  C4  UNL     1      28.185  -7.996 -43.319  0.00  0.00    +0.000 C 
ATOM      2  C5  UNL     1      27.283  -8.540 -42.398  0.00  0.00    +0.000 C 
ATOM      3  C6  UNL     1      27.610  -9.689 -41.661  0.00  0.00    +0.000 C 
ATOM      4  C17 UNL     1      28.875 -10.298 -41.847  0.00  0.00    +0.000 C 
ATOM      5  C18 UNL     1      29.798  -9.735 -42.755  0.00  0.00    +0.000 C 
ATOM      6  C28 UNL     1      29.443  -8.588 -43.482  0.00  0.00    +0.000 C 
ENDROOT
BRANCH   5   7
ATOM      7  C19 UNL     1      31.142 -10.335 -42.956  0.00  0.00    +0.000 C 
ATOM      8  C20 UNL     1      31.998 -10.422 -41.921  0.00  0.00    +0.000 C 
ATOM      9  C21 UNL     1      33.365 -11.023 -42.080  0.00  0.00    +0.000 C 
ATOM     10  C22 UNL     1      33.307 -12.171 -43.039  0.00  0.00    +0.000 C 
ATOM     11  O4  UNL     1      33.890 -13.249 -42.749  0.00  0.00    +0.000 OA
ATOM     12  C23 UNL     1      32.492 -12.016 -44.275  0.00  0.00    +0.000 C 
ATOM     13  C24 UNL     1      32.584 -12.816 -45.359  0.00  0.00    +0.000 C 
ATOM     14  C27 UNL     1      31.550 -10.829 -44.333  0.00  0.00    +0.000 C 
BRANCH  13  15
ATOM     15  C25 UNL     1      33.571 -13.899 -45.544  0.00  0.00    +0.000 C 
ATOM     16  C26 UNL     1      33.404 -14.818 -46.493  0.00  0.00    +0.000 C 
ENDBRANCH  13  15
ENDBRANCH   5   7
BRANCH   4  17
ATOM     17  O3  UNL     1      29.229 -11.467 -41.163  0.00  0.00    +0.000 OA
ATOM     18  H16 UNL     1      29.650 -12.271 -41.607  0.00  0.00    +0.000 HD
ENDBRANCH   4  17
BRANCH   1  19
ATOM     19  C3  UNL     1      27.817  -6.760 -44.098  0.00  0.00    +0.000 C 
BRANCH  19  21
ATOM     20  C1  UNL     1      27.162  -7.096 -46.467  0.00  0.00    +0.000 C 
ATOM     21  C2  UNL     1      28.129  -6.936 -45.557  0.00  0.00    +0.000 C 
ENDBRANCH  19  21
ENDBRANCH   1  19
BRANCH   3  22
ATOM     22  C7  UNL     1      26.572 -10.273 -40.733  0.00  0.00    +0.000 C 
BRANCH  22  23
ATOM     23  S1  UNL     1      24.928  -9.526 -41.027  0.00  0.00    +0.000 S 
BRANCH  23  24
ATOM     24  C8  UNL     1      24.937  -8.557 -39.521  0.00  0.00    +0.000 A 
ATOM     25  N1  UNL     1      25.422  -7.306 -39.434  0.00  0.00    +0.000 NA
ATOM     26  N2  UNL     1      25.277  -6.943 -38.170  0.00  0.00    +0.000 NA
ATOM     27  C9  UNL     1      24.705  -7.986 -37.537  0.00  0.00    +0.000 A 
ATOM     28  O2  UNL     1      24.490  -8.982 -38.365  0.00  0.00    +0.000 OA
BRANCH  27  29
ATOM     29  C10 UNL     1      24.365  -8.009 -36.101  0.00  0.00    +0.000 C 
ATOM     30  C11 UNL     1      23.033  -7.863 -35.679  0.00  0.00    +0.000 C 
ATOM     31  C12 UNL     1      22.719  -7.886 -34.318  0.00  0.00    +0.000 C 
ATOM     32  C13 UNL     1      23.726  -8.057 -33.366  0.00  0.00    +0.000 C 
ATOM     33  C14 UNL     1      25.066  -8.207 -33.772  0.00  0.00    +0.000 C 
ATOM     34  C16 UNL     1      25.374  -8.178 -35.139  0.00  0.00    +0.000 C 
BRANCH  33  35
ATOM     35  O1  UNL     1      26.113  -8.391 -32.856  0.00  0.00    +0.000 OA
ATOM     36  C15 UNL     1      27.482  -8.115 -33.134  0.00  0.00    +0.000 C 
ENDBRANCH  33  35
ENDBRANCH  27  29
ENDBRANCH  23  24
ENDBRANCH  22  23
ENDBRANCH   3  22
TORSDOF 10
