REMARK  Name = resultss/4CJN/ligands/lig_345_t2.pdb
REMARK  11 active torsions:
REMARK  status: ('A' for Active; 'I' for Inactive)
REMARK    1  A    between atoms: C12_1  and  O2_27
REMARK    2  A    between atoms: C15_4  and  C16_7
REMARK    3  A    between atoms: C23_15  and  O3_17
REMARK    4  A    between atoms: N4_16  and  N5_19
REMARK    5  A    between atoms: N5_19  and  C24_21
REMARK    6  A    between atoms: O2_27  and  C11_28
REMARK    7  A    between atoms: C11_28  and  C10_31
REMARK    8  A    between atoms: N2_29  and  C8_34
REMARK    9  A    between atoms: C8_34  and  C7_36
REMARK   10  A    between atoms: N1_35  and  C6_39
REMARK   11  A    between atoms: C6_39  and  C5_44
REMARK                            x       y       z     vdW  Elec       q    Type
REMARK                         _______ _______ _______ _____ _____    ______ ____
ROOT
ATOM      1  C12 UNL     1      24.298  -7.407 -40.283  0.00  0.00    +0.000 C 
ATOM      2  C13 UNL     1      24.697  -8.586 -39.624  0.00  0.00    +0.000 C 
ATOM      3  C14 UNL     1      25.326  -8.521 -38.377  0.00  0.00    +0.000 C 
ATOM      4  C15 UNL     1      25.574  -7.280 -37.769  0.00  0.00    +0.000 C 
ATOM      5  C30 UNL     1      25.166  -6.106 -38.427  0.00  0.00    +0.000 C 
ATOM      6  C31 UNL     1      24.537  -6.173 -39.673  0.00  0.00    +0.000 C 
ENDROOT
BRANCH   4   7
ATOM      7  C16 UNL     1      26.287  -7.215 -36.436  0.00  0.00    +0.000 C 
ATOM      8  N3  UNL     1      25.492  -6.440 -35.484  0.00  0.00    +0.000 NA
ATOM      9  C17 UNL     1      24.775  -6.963 -34.531  0.00  0.00    +0.000 C 
ATOM     10  C18 UNL     1      23.993  -6.110 -33.742  0.00  0.00    +0.000 C 
ATOM     11  C19 UNL     1      23.177  -6.627 -32.738  0.00  0.00    +0.000 C 
ATOM     12  C20 UNL     1      23.138  -8.000 -32.509  0.00  0.00    +0.000 C 
ATOM     13  C21 UNL     1      23.923  -8.867 -33.273  0.00  0.00    +0.000 C 
ATOM     14  C22 UNL     1      24.766  -8.365 -34.292  0.00  0.00    +0.000 C 
ATOM     15  C23 UNL     1      25.594  -9.165 -35.009  0.00  0.00    +0.000 C 
ATOM     16  N4  UNL     1      26.533  -8.564 -35.921  0.00  0.00    +0.000 NA
BRANCH  15  17
ATOM     17  O3  UNL     1      25.588 -10.561 -34.902  0.00  0.00    +0.000 OA
ATOM     18  H21 UNL     1      25.575 -11.070 -34.032  0.00  0.00    +0.000 HD
ENDBRANCH  15  17
BRANCH  16  19
ATOM     19  N5  UNL     1      27.604  -9.311 -36.444  0.00  0.00    +0.000 N 
ATOM     20  H22 UNL     1      27.503  -9.730 -37.398  0.00  0.00    +0.000 HD
BRANCH  19  21
ATOM     21  C24 UNL     1      28.878  -9.402 -35.784  0.00  0.00    +0.000 C 
ATOM     22  C25 UNL     1      30.079  -9.438 -36.517  0.00  0.00    +0.000 C 
ATOM     23  C26 UNL     1      31.307  -9.539 -35.854  0.00  0.00    +0.000 C 
ATOM     24  C27 UNL     1      31.345  -9.619 -34.460  0.00  0.00    +0.000 C 
ATOM     25  C28 UNL     1      30.158  -9.607 -33.725  0.00  0.00    +0.000 C 
ATOM     26  C29 UNL     1      28.928  -9.503 -34.384  0.00  0.00    +0.000 C 
ENDBRANCH  19  21
ENDBRANCH  16  19
ENDBRANCH   4   7
BRANCH   1  27
ATOM     27  O2  UNL     1      23.679  -7.414 -41.544  0.00  0.00    +0.000 OA
BRANCH  27  28
ATOM     28  C11 UNL     1      22.341  -7.000 -41.812  0.00  0.00    +0.000 C 
BRANCH  28  31
ATOM     29  N2  UNL     1      21.170  -6.715 -45.239  0.00  0.00    +0.000 N 
ATOM     30  C9  UNL     1      20.946  -6.538 -43.925  0.00  0.00    +0.000 C 
ATOM     31  C10 UNL     1      22.081  -6.987 -43.285  0.00  0.00    +0.000 C 
ATOM     32  N6  UNL     1      22.952  -7.423 -44.217  0.00  0.00    +0.000 NA
ATOM     33  N7  UNL     1      22.369  -7.251 -45.396  0.00  0.00    +0.000 NA
BRANCH  29  34
ATOM     34  C8  UNL     1      20.237  -6.443 -46.329  0.00  0.00    +0.000 C 
BRANCH  34  36
ATOM     35  N1  UNL     1      17.888  -6.063 -45.435  0.00  0.00    +0.000 N 
ATOM     36  C7  UNL     1      18.873  -6.955 -45.978  0.00  0.00    +0.000 C 
ATOM     37  O1  UNL     1      18.600  -8.172 -46.157  0.00  0.00    +0.000 OA
ATOM     38  H8  UNL     1      18.121  -5.053 -45.334  0.00  0.00    +0.000 HD
BRANCH  35  39
ATOM     39  C6  UNL     1      16.535  -6.497 -45.089  0.00  0.00    +0.000 C 
BRANCH  39  44
ATOM     40  C1  UNL     1      15.910  -6.934 -39.318  0.00  0.00    +0.000 C 
ATOM     41  C2  UNL     1      16.069  -6.802 -40.803  0.00  0.00    +0.000 C 
ATOM     42  C3  UNL     1      17.263  -6.311 -41.353  0.00  0.00    +0.000 C 
ATOM     43  C4  UNL     1      17.415  -6.216 -42.741  0.00  0.00    +0.000 C 
ATOM     44  C5  UNL     1      16.377  -6.621 -43.596  0.00  0.00    +0.000 C 
ATOM     45  C32 UNL     1      15.190  -7.129 -43.044  0.00  0.00    +0.000 C 
ATOM     46  C33 UNL     1      15.040  -7.227 -41.657  0.00  0.00    +0.000 C 
ENDBRANCH  39  44
ENDBRANCH  35  39
ENDBRANCH  34  36
ENDBRANCH  29  34
ENDBRANCH  28  31
ENDBRANCH  27  28
ENDBRANCH   1  27
TORSDOF 11
