REMARK  Name = resultss/4CJN/ligands/lig_372_t2.pdb
REMARK  7 active torsions:
REMARK  status: ('A' for Active; 'I' for Inactive)
REMARK    1  A    between atoms: C5_1  and  C6_2
REMARK    2  A    between atoms: C5_1  and  C15_16
REMARK    3  A    between atoms: C5_1  and  C4_32
REMARK    4  A    between atoms: C14_13  and  O4_14
REMARK    5  A    between atoms: C23_27  and  O7_28
REMARK    6  A    between atoms: C2_30  and  O1_37
REMARK    7  A    between atoms: C26_35  and  O8_38
REMARK                            x       y       z     vdW  Elec       q    Type
REMARK                         _______ _______ _______ _____ _____    ______ ____
ROOT
ATOM      1  C5  UNL     1      27.760  -9.120 -41.439  0.00  0.00    +0.000 C 
ENDROOT
BRANCH   1   2
ATOM      2  C6  UNL     1      27.435  -8.487 -40.081  0.00  0.00    +0.000 A 
ATOM      3  C7  UNL     1      27.076  -9.308 -38.989  0.00  0.00    +0.000 A 
ATOM      4  O2  UNL     1      27.012 -10.560 -39.129  0.00  0.00    +0.000 OA
ATOM      5  C8  UNL     1      26.792  -8.728 -37.742  0.00  0.00    +0.000 A 
ATOM      6  C9  UNL     1      26.409  -9.496 -36.626  0.00  0.00    +0.000 C 
ATOM      7  C10 UNL     1      26.133  -8.871 -35.404  0.00  0.00    +0.000 C 
ATOM      8 CL1  UNL     1      25.655  -9.833 -34.017  0.00  0.00    +0.000 Cl
ATOM      9  C11 UNL     1      26.238  -7.482 -35.287  0.00  0.00    +0.000 C 
ATOM     10  C12 UNL     1      26.620  -6.712 -36.387  0.00  0.00    +0.000 C 
ATOM     11  C13 UNL     1      26.898  -7.327 -37.613  0.00  0.00    +0.000 A 
ATOM     12  O3  UNL     1      27.269  -6.586 -38.649  0.00  0.00    +0.000 OA
ATOM     13  C14 UNL     1      27.546  -7.096 -39.845  0.00  0.00    +0.000 A 
BRANCH  13  14
ATOM     14  O4  UNL     1      27.966  -6.231 -40.850  0.00  0.00    +0.000 OA
ATOM     15  H9  UNL     1      28.675  -5.532 -40.671  0.00  0.00    +0.000 HD
ENDBRANCH  13  14
ENDBRANCH   1   2
BRANCH   1  16
ATOM     16  C15 UNL     1      27.196  -8.326 -42.629  0.00  0.00    +0.000 A 
ATOM     17  C16 UNL     1      25.872  -8.499 -43.116  0.00  0.00    +0.000 A 
ATOM     18  O5  UNL     1      25.105  -9.363 -42.610  0.00  0.00    +0.000 OA
ATOM     19  C17 UNL     1      25.411  -7.715 -44.184  0.00  0.00    +0.000 A 
ATOM     20  C18 UNL     1      24.101  -7.832 -44.690  0.00  0.00    +0.000 C 
ATOM     21  C19 UNL     1      23.684  -7.027 -45.756  0.00  0.00    +0.000 C 
ATOM     22 CL2  UNL     1      22.051  -7.177 -46.380  0.00  0.00    +0.000 Cl
ATOM     23  C20 UNL     1      24.566  -6.104 -46.325  0.00  0.00    +0.000 C 
ATOM     24  C21 UNL     1      25.868  -5.984 -45.831  0.00  0.00    +0.000 C 
ATOM     25  C22 UNL     1      26.294  -6.785 -44.766  0.00  0.00    +0.000 A 
ATOM     26  O6  UNL     1      27.535  -6.668 -44.316  0.00  0.00    +0.000 OA
ATOM     27  C23 UNL     1      28.019  -7.386 -43.309  0.00  0.00    +0.000 A 
BRANCH  27  28
ATOM     28  O7  UNL     1      29.357  -7.175 -42.967  0.00  0.00    +0.000 OA
ATOM     29  H13 UNL     1      29.685  -6.416 -42.387  0.00  0.00    +0.000 HD
ENDBRANCH  27  28
ENDBRANCH   1  16
BRANCH   1  32
ATOM     30  C2  UNL     1      31.036 -10.763 -42.671  0.00  0.00    +0.000 C 
ATOM     31  C3  UNL     1      29.682 -10.386 -42.595  0.00  0.00    +0.000 C 
ATOM     32  C4  UNL     1      29.224  -9.529 -41.571  0.00  0.00    +0.000 C 
ATOM     33  C24 UNL     1      30.146  -9.075 -40.611  0.00  0.00    +0.000 C 
ATOM     34  C25 UNL     1      31.488  -9.446 -40.682  0.00  0.00    +0.000 C 
ATOM     35  C26 UNL     1      31.938 -10.283 -41.705  0.00  0.00    +0.000 C 
BRANCH  30  37
ATOM     36  C1  UNL     1      31.737 -13.008 -43.531  0.00  0.00    +0.000 C 
ATOM     37  O1  UNL     1      31.516 -11.609 -43.683  0.00  0.00    +0.000 OA
ENDBRANCH  30  37
BRANCH  35  38
ATOM     38  O8  UNL     1      33.289 -10.631 -41.744  0.00  0.00    +0.000 OA
ATOM     39  H16 UNL     1      33.603 -11.544 -42.053  0.00  0.00    +0.000 HD
ENDBRANCH  35  38
ENDBRANCH   1  32
TORSDOF 7
