REMARK  Name = resultss/4CJN/ligands/lig_429_t1.pdb
REMARK  7 active torsions:
REMARK  status: ('A' for Active; 'I' for Inactive)
REMARK    1  A    between atoms: C1_2  and  C15_5
REMARK    2  A    between atoms: N1_3  and  N2_25
REMARK    3  A    between atoms: C25_16  and  C26_19
REMARK    4  A    between atoms: C2_26  and  S1_42
REMARK    5  A    between atoms: N3_27  and  C3_29
REMARK    6  A    between atoms: C6_32  and  O2_35
REMARK    7  A    between atoms: O2_35  and  C7_36
REMARK                            x       y       z     vdW  Elec       q    Type
REMARK                         _______ _______ _______ _____ _____    ______ ____
ROOT
ATOM      1  O1  UNL     1      26.793  -9.564 -39.614  0.00  0.00    +0.000 OA
ATOM      2  C1  UNL     1      27.679  -8.888 -39.025  0.00  0.00    +0.000 C 
ATOM      3  N1  UNL     1      28.570  -8.064 -39.795  0.00  0.00    +0.000 N 
ATOM      4  H1  UNL     1      29.084  -7.292 -39.315  0.00  0.00    +0.000 HD
ENDROOT
BRANCH   2   5
ATOM      5  C15 UNL     1      27.782  -8.934 -37.552  0.00  0.00    +0.000 C 
ATOM      6  C16 UNL     1      29.017  -9.198 -36.922  0.00  0.00    +0.000 C 
ATOM      7  C17 UNL     1      29.032  -9.212 -35.532  0.00  0.00    +0.000 A 
ATOM      8  C18 UNL     1      27.897  -8.985 -34.785  0.00  0.00    +0.000 A 
ATOM      9  N4  UNL     1      28.174  -8.983 -33.459  0.00  0.00    +0.000 N 
ATOM     10  C19 UNL     1      29.499  -9.230 -33.382  0.00  0.00    +0.000 A 
ATOM     11  C20 UNL     1      30.275  -9.313 -32.227  0.00  0.00    +0.000 C 
ATOM     12  C21 UNL     1      31.653  -9.558 -32.374  0.00  0.00    +0.000 C 
ATOM     13  C22 UNL     1      32.223  -9.709 -33.659  0.00  0.00    +0.000 C 
ATOM     14  C23 UNL     1      31.422  -9.616 -34.811  0.00  0.00    +0.000 C 
ATOM     15  C24 UNL     1      30.060  -9.378 -34.634  0.00  0.00    +0.000 A 
ATOM     16  C25 UNL     1      26.674  -8.737 -35.421  0.00  0.00    +0.000 C 
ATOM     17  N5  UNL     1      26.663  -8.710 -36.789  0.00  0.00    +0.000 NA
ATOM     18  H14 UNL     1      27.526  -8.793 -32.663  0.00  0.00    +0.000 HD
BRANCH  16  19
ATOM     19  C26 UNL     1      25.418  -8.501 -34.680  0.00  0.00    +0.000 C 
ATOM     20  C27 UNL     1      24.611  -7.399 -35.009  0.00  0.00    +0.000 C 
ATOM     21  C28 UNL     1      23.408  -7.178 -34.330  0.00  0.00    +0.000 C 
ATOM     22  C29 UNL     1      22.995  -8.062 -33.331  0.00  0.00    +0.000 C 
ATOM     23  C30 UNL     1      23.780  -9.173 -33.013  0.00  0.00    +0.000 C 
ATOM     24  C31 UNL     1      24.983  -9.397 -33.688  0.00  0.00    +0.000 C 
ENDBRANCH  16  19
ENDBRANCH   2   5
BRANCH   3  25
ATOM     25  N2  UNL     1      28.504  -8.039 -41.197  0.00  0.00    +0.000 NA
ATOM     26  C2  UNL     1      28.960  -8.996 -41.953  0.00  0.00    +0.000 C 
ATOM     27  N3  UNL     1      28.828  -8.913 -43.379  0.00  0.00    +0.000 N 
ATOM     28  H3  UNL     1      29.511  -9.453 -43.956  0.00  0.00    +0.000 HD
BRANCH  27  29
ATOM     29  C3  UNL     1      27.830  -8.132 -44.064  0.00  0.00    +0.000 C 
ATOM     30  C4  UNL     1      28.218  -7.303 -45.128  0.00  0.00    +0.000 C 
ATOM     31  C5  UNL     1      27.267  -6.561 -45.834  0.00  0.00    +0.000 C 
ATOM     32  C6  UNL     1      25.906  -6.654 -45.499  0.00  0.00    +0.000 C 
ATOM     33  C13 UNL     1      25.516  -7.476 -44.437  0.00  0.00    +0.000 C 
ATOM     34  C14 UNL     1      26.466  -8.224 -43.734  0.00  0.00    +0.000 C 
BRANCH  32  35
ATOM     35  O2  UNL     1      24.925  -5.914 -46.174  0.00  0.00    +0.000 OA
BRANCH  35  36
ATOM     36  C7  UNL     1      23.580  -6.289 -46.316  0.00  0.00    +0.000 C 
ATOM     37  C8  UNL     1      22.670  -5.916 -45.319  0.00  0.00    +0.000 C 
ATOM     38  C9  UNL     1      21.326  -6.291 -45.412  0.00  0.00    +0.000 C 
ATOM     39  C10 UNL     1      20.885  -7.052 -46.498  0.00  0.00    +0.000 C 
ATOM     40  C11 UNL     1      21.788  -7.440 -47.492  0.00  0.00    +0.000 C 
ATOM     41  C12 UNL     1      23.133  -7.066 -47.401  0.00  0.00    +0.000 C 
ENDBRANCH  35  36
ENDBRANCH  32  35
ENDBRANCH  27  29
BRANCH  26  42
ATOM     42  S1  UNL     1      29.897 -10.362 -41.257  0.00  0.00    +0.000 S 
ATOM     43  H2  UNL     1      28.828 -10.754 -40.432  0.00  0.00    +0.000 HD
ENDBRANCH  26  42
ENDBRANCH   3  25
TORSDOF 7
