REMARK  Name = resultss/4CJN/ligands/lig_284_t2.pdb
REMARK  10 active torsions:
REMARK  status: ('A' for Active; 'I' for Inactive)
REMARK    1  A    between atoms: C11_1  and  C10_23
REMARK    2  A    between atoms: C15_7  and  C16_9
REMARK    3  A    between atoms: C25_8  and  O5_21
REMARK    4  A    between atoms: C16_9  and  C17_11
REMARK    5  A    between atoms: C18_12  and  C19_13
REMARK    6  A    between atoms: C22_16  and  O4_19
REMARK    7  A    between atoms: C10_23  and  C9_26
REMARK    8  A    between atoms: C7_24  and  C6_27
REMARK    9  A    between atoms: C6_27  and  C5_28
REMARK   10  A    between atoms: C5_28  and  C4_32
REMARK                            x       y       z     vdW  Elec       q    Type
REMARK                         _______ _______ _______ _____ _____    ______ ____
ROOT
ATOM      1  C11 UNL     1      26.947  -8.095 -38.879  0.00  0.00    +0.000 C 
ATOM      2  C12 UNL     1      27.802  -6.913 -38.598  0.00  0.00    +0.000 C 
ATOM      3  O1  UNL     1      27.535  -6.153 -37.634  0.00  0.00    +0.000 OA
ATOM      4  C13 UNL     1      28.950  -6.570 -39.487  0.00  0.00    +0.000 C 
ATOM      5  C14 UNL     1      29.569  -7.820 -40.024  0.00  0.00    +0.000 C 
ATOM      6  O2  UNL     1      30.778  -7.861 -40.216  0.00  0.00    +0.000 OA
ATOM      7  C15 UNL     1      28.702  -8.972 -40.468  0.00  0.00    +0.000 C 
ATOM      8  C25 UNL     1      27.354  -9.031 -39.775  0.00  0.00    +0.000 C 
ENDROOT
BRANCH   7   9
ATOM      9  C16 UNL     1      28.496  -8.900 -41.960  0.00  0.00    +0.000 C 
ATOM     10  O3  UNL     1      27.506  -8.263 -42.421  0.00  0.00    +0.000 OA
BRANCH   9  11
ATOM     11  C17 UNL     1      29.439  -9.582 -42.872  0.00  0.00    +0.000 C 
ATOM     12  C18 UNL     1      30.331 -10.480 -42.434  0.00  0.00    +0.000 C 
BRANCH  12  13
ATOM     13  C19 UNL     1      31.290 -11.189 -43.318  0.00  0.00    +0.000 C 
ATOM     14  C20 UNL     1      32.126 -10.510 -44.227  0.00  0.00    +0.000 C 
ATOM     15  C21 UNL     1      33.013 -11.223 -45.041  0.00  0.00    +0.000 C 
ATOM     16  C22 UNL     1      33.090 -12.617 -44.949  0.00  0.00    +0.000 C 
ATOM     17  C23 UNL     1      32.277 -13.298 -44.036  0.00  0.00    +0.000 C 
ATOM     18  C24 UNL     1      31.387 -12.590 -43.223  0.00  0.00    +0.000 C 
BRANCH  16  19
ATOM     19  O4  UNL     1      33.977 -13.313 -45.769  0.00  0.00    +0.000 OA
ATOM     20  H25 UNL     1      34.974 -13.310 -45.591  0.00  0.00    +0.000 HD
ENDBRANCH  16  19
ENDBRANCH  12  13
ENDBRANCH   9  11
ENDBRANCH   7   9
BRANCH   8  21
ATOM     21  O5  UNL     1      26.543 -10.118 -40.123  0.00  0.00    +0.000 OA
ATOM     22  H28 UNL     1      26.555 -11.014 -39.655  0.00  0.00    +0.000 HD
ENDBRANCH   8  21
BRANCH   1  23
ATOM     23  C10 UNL     1      25.584  -8.174 -38.216  0.00  0.00    +0.000 C 
BRANCH  23  26
ATOM     24  C7  UNL     1      25.402  -8.417 -35.717  0.00  0.00    +0.000 C 
ATOM     25  C8  UNL     1      25.023  -6.960 -35.567  0.00  0.00    +0.000 C 
ATOM     26  C9  UNL     1      25.674  -8.951 -36.927  0.00  0.00    +0.000 C 
BRANCH  24  27
ATOM     27  C6  UNL     1      25.480  -9.301 -34.485  0.00  0.00    +0.000 C 
BRANCH  27  28
ATOM     28  C5  UNL     1      26.816 -10.063 -34.420  0.00  0.00    +0.000 C 
BRANCH  28  32
ATOM     29  C1  UNL     1      29.005  -9.917 -36.456  0.00  0.00    +0.000 C 
ATOM     30  C2  UNL     1      28.970  -9.030 -35.238  0.00  0.00    +0.000 C 
ATOM     31  C3  UNL     1      30.078  -8.027 -35.056  0.00  0.00    +0.000 C 
ATOM     32  C4  UNL     1      27.989  -9.117 -34.318  0.00  0.00    +0.000 C 
ENDBRANCH  28  32
ENDBRANCH  27  28
ENDBRANCH  24  27
ENDBRANCH  23  26
ENDBRANCH   1  23
TORSDOF 10
