REMARK  Name = resultss/4CJN/ligands/lig_427_t0.pdb
REMARK  8 active torsions:
REMARK  status: ('A' for Active; 'I' for Inactive)
REMARK    1  A    between atoms: C11_1  and  C10_22
REMARK    2  A    between atoms: C21_12  and  C22_15
REMARK    3  A    between atoms: N3_21  and  N2_25
REMARK    4  A    between atoms: N2_25  and  C9_27
REMARK    5  A    between atoms: C9_27  and  N1_29
REMARK    6  A    between atoms: N1_29  and  C8_36
REMARK    7  A    between atoms: C3_31  and  O1_37
REMARK    8  A    between atoms: O1_37  and  C2_39
REMARK                            x       y       z     vdW  Elec       q    Type
REMARK                         _______ _______ _______ _____ _____    ______ ____
ROOT
ATOM      1  C11 UNL     1      26.589  -9.747 -40.588  0.00  0.00    +0.000 C 
ATOM      2  C12 UNL     1      27.532  -9.973 -41.615  0.00  0.00    +0.000 C 
ATOM      3  C13 UNL     1      28.862 -10.120 -41.235  0.00  0.00    +0.000 A 
ATOM      4  C14 UNL     1      29.258 -10.057 -39.917  0.00  0.00    +0.000 A 
ATOM      5  N4  UNL     1      30.604 -10.167 -39.803  0.00  0.00    +0.000 N 
ATOM      6  C15 UNL     1      31.047 -10.316 -41.070  0.00  0.00    +0.000 A 
ATOM      7  C16 UNL     1      32.369 -10.458 -41.486  0.00  0.00    +0.000 C 
ATOM      8  C17 UNL     1      32.616 -10.580 -42.867  0.00  0.00    +0.000 C 
ATOM      9  C18 UNL     1      31.548 -10.554 -43.793  0.00  0.00    +0.000 C 
ATOM     10  C19 UNL     1      30.221 -10.406 -43.348  0.00  0.00    +0.000 C 
ATOM     11  C20 UNL     1      30.008 -10.293 -41.975  0.00  0.00    +0.000 A 
ATOM     12  C21 UNL     1      28.310  -9.849 -38.906  0.00  0.00    +0.000 C 
ATOM     13  N5  UNL     1      27.006  -9.692 -39.283  0.00  0.00    +0.000 NA
ATOM     14  H14 UNL     1      31.186 -10.113 -38.938  0.00  0.00    +0.000 HD
ENDROOT
BRANCH  12  15
ATOM     15  C22 UNL     1      28.664  -9.789 -37.473  0.00  0.00    +0.000 C 
ATOM     16  C23 UNL     1      27.686  -9.954 -36.478  0.00  0.00    +0.000 C 
ATOM     17  C24 UNL     1      28.033  -9.870 -35.126  0.00  0.00    +0.000 C 
ATOM     18  C25 UNL     1      29.355  -9.606 -34.757  0.00  0.00    +0.000 C 
ATOM     19  C26 UNL     1      30.330  -9.419 -35.740  0.00  0.00    +0.000 C 
ATOM     20  C27 UNL     1      29.987  -9.502 -37.093  0.00  0.00    +0.000 C 
ENDBRANCH  12  15
BRANCH   1  22
ATOM     21  N3  UNL     1      24.679  -9.770 -42.244  0.00  0.00    +0.000 N 
ATOM     22  C10 UNL     1      25.156  -9.578 -40.902  0.00  0.00    +0.000 C 
ATOM     23  O2  UNL     1      24.343  -9.280 -39.987  0.00  0.00    +0.000 OA
ATOM     24  H12 UNL     1      25.256 -10.335 -42.907  0.00  0.00    +0.000 HD
BRANCH  21  25
ATOM     25  N2  UNL     1      23.378  -9.410 -42.639  0.00  0.00    +0.000 N 
ATOM     26  H11 UNL     1      22.654 -10.161 -42.700  0.00  0.00    +0.000 HD
BRANCH  25  27
ATOM     27  C9  UNL     1      23.049  -8.092 -43.101  0.00  0.00    +0.000 C 
ATOM     28  S1  UNL     1      22.455  -7.005 -42.025  0.00  0.00    +0.000 S 
BRANCH  27  29
ATOM     29  N1  UNL     1      23.004  -7.817 -44.512  0.00  0.00    +0.000 N 
ATOM     30  H10 UNL     1      22.066  -7.767 -44.970  0.00  0.00    +0.000 HD
BRANCH  29  36
ATOM     31  C3  UNL     1      24.096  -7.454 -46.712  0.00  0.00    +0.000 C 
ATOM     32  C4  UNL     1      25.250  -7.109 -47.444  0.00  0.00    +0.000 C 
ATOM     33  C5  UNL     1      26.432  -6.766 -46.780  0.00  0.00    +0.000 C 
ATOM     34  C6  UNL     1      26.474  -6.755 -45.386  0.00  0.00    +0.000 C 
ATOM     35  C7  UNL     1      25.340  -7.102 -44.650  0.00  0.00    +0.000 C 
ATOM     36  C8  UNL     1      24.156  -7.477 -45.302  0.00  0.00    +0.000 C 
BRANCH  31  37
ATOM     37  O1  UNL     1      22.882  -7.755 -47.347  0.00  0.00    +0.000 OA
BRANCH  37  39
ATOM     38  C1  UNL     1      20.567  -7.129 -47.489  0.00  0.00    +0.000 C 
ATOM     39  C2  UNL     1      21.991  -6.791 -47.899  0.00  0.00    +0.000 C 
ENDBRANCH  37  39
ENDBRANCH  31  37
ENDBRANCH  29  36
ENDBRANCH  27  29
ENDBRANCH  25  27
ENDBRANCH  21  25
ENDBRANCH   1  22
TORSDOF 8
