REMARK  Name = resultss/4CJN/ligands/lig_312_t0.pdb
REMARK  12 active torsions:
REMARK  status: ('A' for Active; 'I' for Inactive)
REMARK    1  A    between atoms: C10_1  and  O5_11
REMARK    2  A    between atoms: C12_4  and  O7_7
REMARK    3  A    between atoms: C13_5  and  O8_9
REMARK    4  A    between atoms: C14_6  and  O9_33
REMARK    5  A    between atoms: O5_11  and  C9_20
REMARK    6  A    between atoms: C2_12  and  O1_28
REMARK    7  A    between atoms: C4_14  and  O2_29
REMARK    8  A    between atoms: C8_19  and  O4_31
REMARK    9  A    between atoms: O9_33  and  C15_34
REMARK   10  A    between atoms: C18_38  and  O11_41
REMARK   11  A    between atoms: C19_39  and  O12_43
REMARK   12  A    between atoms: C20_40  and  O13_45
REMARK                            x       y       z     vdW  Elec       q    Type
REMARK                         _______ _______ _______ _____ _____    ______ ____
ROOT
ATOM      1  C10 UNL     1      24.803  -7.671 -41.392  0.00  0.00    +0.000 C 
ATOM      2  O6  UNL     1      24.404  -6.343 -41.083  0.00  0.00    +0.000 OA
ATOM      3  C11 UNL     1      23.056  -6.295 -40.652  0.00  0.00    +0.000 C 
ATOM      4  C12 UNL     1      22.074  -6.865 -41.703  0.00  0.00    +0.000 C 
ATOM      5  C13 UNL     1      22.823  -7.324 -42.962  0.00  0.00    +0.000 C 
ATOM      6  C14 UNL     1      23.964  -8.273 -42.556  0.00  0.00    +0.000 C 
ENDROOT
BRANCH   4   7
ATOM      7  O7  UNL     1      21.130  -5.883 -42.058  0.00  0.00    +0.000 OA
ATOM      8  H11 UNL     1      21.553  -5.296 -42.736  0.00  0.00    +0.000 HD
ENDBRANCH   4   7
BRANCH   5   9
ATOM      9  O8  UNL     1      21.930  -7.987 -43.820  0.00  0.00    +0.000 OA
ATOM     10  H13 UNL     1      21.175  -7.364 -43.989  0.00  0.00    +0.000 HD
ENDBRANCH   5   9
BRANCH   1  11
ATOM     11  O5  UNL     1      24.709  -8.526 -40.248  0.00  0.00    +0.000 OA
BRANCH  11  20
ATOM     12  C2  UNL     1      29.486  -9.312 -32.907  0.00  0.00    +0.000 C 
ATOM     13  C3  UNL     1      28.348  -8.681 -32.382  0.00  0.00    +0.000 C 
ATOM     14  C4  UNL     1      27.289  -8.297 -33.219  0.00  0.00    +0.000 C 
ATOM     15  C5  UNL     1      27.363  -8.547 -34.610  0.00  0.00    +0.000 A 
ATOM     16  C6  UNL     1      26.335  -8.193 -35.512  0.00  0.00    +0.000 A 
ATOM     17  O3  UNL     1      25.348  -7.531 -35.098  0.00  0.00    +0.000 OA
ATOM     18  C7  UNL     1      26.436  -8.564 -36.878  0.00  0.00    +0.000 A 
ATOM     19  C8  UNL     1      25.406  -8.349 -37.848  0.00  0.00    +0.000 C 
ATOM     20  C9  UNL     1      25.641  -8.691 -39.206  0.00  0.00    +0.000 C 
ATOM     21  C21 UNL     1      26.859  -9.265 -39.570  0.00  0.00    +0.000 C 
ATOM     22  C22 UNL     1      27.843  -9.521 -38.625  0.00  0.00    +0.000 C 
ATOM     23  C23 UNL     1      27.642  -9.186 -37.290  0.00  0.00    +0.000 A 
ATOM     24  O14 UNL     1      28.602  -9.463 -36.417  0.00  0.00    +0.000 OA
ATOM     25  C24 UNL     1      28.508  -9.190 -35.126  0.00  0.00    +0.000 A 
ATOM     26  C25 UNL     1      29.558  -9.554 -34.278  0.00  0.00    +0.000 C 
BRANCH  12  28
ATOM     27  C1  UNL     1      31.555 -10.655 -32.501  0.00  0.00    +0.000 C 
ATOM     28  O1  UNL     1      30.562  -9.717 -32.102  0.00  0.00    +0.000 OA
ENDBRANCH  12  28
BRANCH  14  29
ATOM     29  O2  UNL     1      26.166  -7.685 -32.658  0.00  0.00    +0.000 OA
ATOM     30  H5  UNL     1      25.949  -6.712 -32.825  0.00  0.00    +0.000 HD
ENDBRANCH  14  29
BRANCH  19  31
ATOM     31  O4  UNL     1      24.154  -7.850 -37.490  0.00  0.00    +0.000 OA
ATOM     32  H6  UNL     1      23.946  -6.863 -37.433  0.00  0.00    +0.000 HD
ENDBRANCH  19  31
ENDBRANCH  11  20
ENDBRANCH   1  11
BRANCH   6  33
ATOM     33  O9  UNL     1      24.801  -8.499 -43.682  0.00  0.00    +0.000 OA
BRANCH  33  34
ATOM     34  C15 UNL     1      25.739  -7.451 -43.848  0.00  0.00    +0.000 C 
ATOM     35  O10 UNL     1      25.285  -6.529 -44.835  0.00  0.00    +0.000 OA
ATOM     36  C16 UNL     1      25.659  -6.930 -46.137  0.00  0.00    +0.000 C 
ATOM     37  C17 UNL     1      24.863  -6.116 -47.155  0.00  0.00    +0.000 C 
ATOM     38  C18 UNL     1      27.177  -6.721 -46.329  0.00  0.00    +0.000 C 
ATOM     39  C19 UNL     1      27.966  -7.110 -45.045  0.00  0.00    +0.000 C 
ATOM     40  C20 UNL     1      27.142  -8.055 -44.148  0.00  0.00    +0.000 C 
BRANCH  38  41
ATOM     41  O11 UNL     1      27.620  -7.493 -47.416  0.00  0.00    +0.000 OA
ATOM     42  H21 UNL     1      28.550  -7.775 -47.193  0.00  0.00    +0.000 HD
ENDBRANCH  38  41
BRANCH  39  43
ATOM     43  O12 UNL     1      28.371  -5.968 -44.329  0.00  0.00    +0.000 OA
ATOM     44  H23 UNL     1      28.921  -5.403 -44.932  0.00  0.00    +0.000 HD
ENDBRANCH  39  43
BRANCH  40  45
ATOM     45  O13 UNL     1      27.839  -8.305 -42.955  0.00  0.00    +0.000 OA
ATOM     46  H25 UNL     1      28.563  -7.629 -42.895  0.00  0.00    +0.000 HD
ENDBRANCH  40  45
ENDBRANCH  33  34
ENDBRANCH   6  33
TORSDOF 12
