REMARK  Name = resultss/4CJN/ligands/lig_239_t0.pdb
REMARK  6 active torsions:
REMARK  status: ('A' for Active; 'I' for Inactive)
REMARK    1  A    between atoms: C7_1  and  N1_9
REMARK    2  A    between atoms: C11_5  and  C12_19
REMARK    3  A    between atoms: C6_7  and  C5_14
REMARK    4  A    between atoms: C2_11  and  O1_18
REMARK    5  A    between atoms: C12_19  and  C13_21
REMARK    6  A    between atoms: C13_21  and  C14_22
REMARK                            x       y       z     vdW  Elec       q    Type
REMARK                         _______ _______ _______ _____ _____    ______ ____
ROOT
ATOM      1  C7  UNL     1      28.615  -9.703 -42.145  0.00  0.00    +0.000 C 
ATOM      2  C8  UNL     1      27.417  -9.131 -42.593  0.00  0.00    +0.000 C 
ATOM      3  C9  UNL     1      26.399  -8.827 -41.690  0.00  0.00    +0.000 C 
ATOM      4  C10 UNL     1      26.560  -9.099 -40.330  0.00  0.00    +0.000 C 
ATOM      5  C11 UNL     1      27.747  -9.688 -39.856  0.00  0.00    +0.000 C 
ATOM      6  C22 UNL     1      28.767  -9.998 -40.778  0.00  0.00    +0.000 C 
ENDROOT
BRANCH   1   9
ATOM      7  C6  UNL     1      30.918 -10.585 -42.738  0.00  0.00    +0.000 C 
ATOM      8  O2  UNL     1      31.360 -10.423 -41.567  0.00  0.00    +0.000 OA
ATOM      9  N1  UNL     1      29.642 -10.029 -43.098  0.00  0.00    +0.000 N 
ATOM     10  H6  UNL     1      29.496  -9.739 -44.092  0.00  0.00    +0.000 HD
BRANCH   7  14
ATOM     11  C2  UNL     1      33.298 -12.686 -45.649  0.00  0.00    +0.000 C 
ATOM     12  C3  UNL     1      33.310 -11.280 -45.606  0.00  0.00    +0.000 C 
ATOM     13  C4  UNL     1      32.538 -10.596 -44.661  0.00  0.00    +0.000 C 
ATOM     14  C5  UNL     1      31.746 -11.302 -43.738  0.00  0.00    +0.000 C 
ATOM     15  C23 UNL     1      31.729 -12.707 -43.794  0.00  0.00    +0.000 C 
ATOM     16  C24 UNL     1      32.502 -13.388 -44.738  0.00  0.00    +0.000 C 
BRANCH  11  18
ATOM     17  C1  UNL     1      33.585 -14.568 -47.269  0.00  0.00    +0.000 C 
ATOM     18  O1  UNL     1      34.056 -13.417 -46.576  0.00  0.00    +0.000 OA
ENDBRANCH  11  18
ENDBRANCH   7  14
ENDBRANCH   1   9
BRANCH   5  19
ATOM     19  C12 UNL     1      27.930 -10.004 -38.415  0.00  0.00    +0.000 C 
ATOM     20  O3  UNL     1      27.844 -11.204 -38.032  0.00  0.00    +0.000 OA
BRANCH  19  21
ATOM     21  C13 UNL     1      28.162  -8.919 -37.392  0.00  0.00    +0.000 C 
BRANCH  21  22
ATOM     22  C14 UNL     1      27.141  -8.962 -36.285  0.00  0.00    +0.000 A 
ATOM     23  N2  UNL     1      25.900  -8.450 -36.506  0.00  0.00    +0.000 NA
ATOM     24  C15 UNL     1      24.936  -8.489 -35.550  0.00  0.00    +0.000 A 
ATOM     25  C16 UNL     1      23.668  -7.951 -35.799  0.00  0.00    +0.000 C 
ATOM     26  C17 UNL     1      22.685  -7.998 -34.806  0.00  0.00    +0.000 C 
ATOM     27  C18 UNL     1      22.964  -8.581 -33.566  0.00  0.00    +0.000 C 
ATOM     28  C19 UNL     1      24.229  -9.122 -33.311  0.00  0.00    +0.000 C 
ATOM     29  C20 UNL     1      25.222  -9.079 -34.301  0.00  0.00    +0.000 A 
ATOM     30  N3  UNL     1      26.462  -9.601 -34.078  0.00  0.00    +0.000 N 
ATOM     31  C21 UNL     1      27.424  -9.560 -35.042  0.00  0.00    +0.000 A 
ATOM     32  O4  UNL     1      28.559 -10.060 -34.814  0.00  0.00    +0.000 OA
ATOM     33  H16 UNL     1      26.683 -10.045 -33.158  0.00  0.00    +0.000 HD
ENDBRANCH  21  22
ENDBRANCH  19  21
ENDBRANCH   5  19
TORSDOF 6
