REMARK  Name = resultss/4CJN/ligands/lig_437_t0.pdb
REMARK  8 active torsions:
REMARK  status: ('A' for Active; 'I' for Inactive)
REMARK    1  A    between atoms: N3_1  and  N2_25
REMARK    2  A    between atoms: C7_2  and  C8_5
REMARK    3  A    between atoms: C18_16  and  C19_19
REMARK    4  A    between atoms: N2_25  and  C6_27
REMARK    5  A    between atoms: C6_27  and  N1_29
REMARK    6  A    between atoms: N1_29  and  C5_34
REMARK    7  A    between atoms: C2_31  and  O1_38
REMARK    8  A    between atoms: C25_35  and  O3_39
REMARK                            x       y       z     vdW  Elec       q    Type
REMARK                         _______ _______ _______ _____ _____    ______ ____
ROOT
ATOM      1  N3  UNL     1      24.472  -9.348 -39.885  0.00  0.00    +0.000 N 
ATOM      2  C7  UNL     1      25.155  -8.238 -39.290  0.00  0.00    +0.000 C 
ATOM      3  O2  UNL     1      25.236  -7.148 -39.917  0.00  0.00    +0.000 OA
ATOM      4  H8  UNL     1      24.316 -10.221 -39.333  0.00  0.00    +0.000 HD
ENDROOT
BRANCH   2   5
ATOM      5  C8  UNL     1      25.749  -8.357 -37.947  0.00  0.00    +0.000 C 
ATOM      6  C9  UNL     1      27.114  -8.674 -37.794  0.00  0.00    +0.000 C 
ATOM      7  C10 UNL     1      27.597  -8.783 -36.496  0.00  0.00    +0.000 A 
ATOM      8  C11 UNL     1      26.787  -8.600 -35.395  0.00  0.00    +0.000 A 
ATOM      9  N4  UNL     1      27.469  -8.811 -34.244  0.00  0.00    +0.000 N 
ATOM     10  C12 UNL     1      28.724  -9.114 -34.635  0.00  0.00    +0.000 A 
ATOM     11  C13 UNL     1      29.817  -9.396 -33.817  0.00  0.00    +0.000 C 
ATOM     12  C14 UNL     1      31.055  -9.661 -34.435  0.00  0.00    +0.000 C 
ATOM     13  C15 UNL     1      31.173  -9.639 -35.844  0.00  0.00    +0.000 C 
ATOM     14  C16 UNL     1      30.054  -9.360 -36.652  0.00  0.00    +0.000 C 
ATOM     15  C17 UNL     1      28.842  -9.099 -36.010  0.00  0.00    +0.000 A 
ATOM     16  C18 UNL     1      25.436  -8.270 -35.561  0.00  0.00    +0.000 C 
ATOM     17  N5  UNL     1      24.961  -8.167 -36.839  0.00  0.00    +0.000 NA
ATOM     18  H10 UNL     1      27.113  -8.772 -33.263  0.00  0.00    +0.000 HD
BRANCH  16  19
ATOM     19  C19 UNL     1      24.511  -8.082 -34.422  0.00  0.00    +0.000 C 
ATOM     20  C20 UNL     1      24.057  -6.791 -34.102  0.00  0.00    +0.000 C 
ATOM     21  C21 UNL     1      23.176  -6.596 -33.033  0.00  0.00    +0.000 C 
ATOM     22  C22 UNL     1      22.755  -7.685 -32.266  0.00  0.00    +0.000 C 
ATOM     23  C23 UNL     1      23.226  -8.969 -32.557  0.00  0.00    +0.000 C 
ATOM     24  C24 UNL     1      24.107  -9.169 -33.625  0.00  0.00    +0.000 C 
ENDBRANCH  16  19
ENDBRANCH   2   5
BRANCH   1  25
ATOM     25  N2  UNL     1      23.830  -9.207 -41.125  0.00  0.00    +0.000 N 
ATOM     26  H7  UNL     1      22.788  -9.277 -41.166  0.00  0.00    +0.000 HD
BRANCH  25  27
ATOM     27  C6  UNL     1      24.574  -8.977 -42.328  0.00  0.00    +0.000 C 
ATOM     28  S1  UNL     1      24.080  -7.826 -43.396  0.00  0.00    +0.000 S 
BRANCH  27  29
ATOM     29  N1  UNL     1      25.678  -9.836 -42.648  0.00  0.00    +0.000 N 
ATOM     30  H6  UNL     1      25.496 -10.673 -43.247  0.00  0.00    +0.000 HD
BRANCH  29  34
ATOM     31  C2  UNL     1      29.688  -9.020 -41.500  0.00  0.00    +0.000 C 
ATOM     32  C3  UNL     1      29.100  -8.330 -42.564  0.00  0.00    +0.000 C 
ATOM     33  C4  UNL     1      27.783  -8.600 -42.941  0.00  0.00    +0.000 C 
ATOM     34  C5  UNL     1      27.030  -9.562 -42.251  0.00  0.00    +0.000 C 
ATOM     35  C25 UNL     1      27.595 -10.245 -41.160  0.00  0.00    +0.000 C 
ATOM     36  C27 UNL     1      28.929  -9.972 -40.791  0.00  0.00    +0.000 C 
BRANCH  31  38
ATOM     37  C1  UNL     1      31.428  -7.799 -40.178  0.00  0.00    +0.000 C 
ATOM     38  O1  UNL     1      31.023  -8.729 -41.179  0.00  0.00    +0.000 OA
ENDBRANCH  31  38
BRANCH  35  39
ATOM     39  O3  UNL     1      26.813 -11.192 -40.481  0.00  0.00    +0.000 OA
ATOM     40  C26 UNL     1      27.305 -12.422 -39.956  0.00  0.00    +0.000 C 
ENDBRANCH  35  39
ENDBRANCH  29  34
ENDBRANCH  27  29
ENDBRANCH  25  27
ENDBRANCH   1  25
TORSDOF 8
