REMARK  Name = resultss/4CJN/ligands/lig_431_t0.pdb
REMARK  7 active torsions:
REMARK  status: ('A' for Active; 'I' for Inactive)
REMARK    1  A    between atoms: C9_1  and  C1_22
REMARK    2  A    between atoms: C19_12  and  C20_15
REMARK    3  A    between atoms: N1_23  and  N2_25
REMARK    4  A    between atoms: N2_25  and  C2_27
REMARK    5  A    between atoms: C2_27  and  N3_29
REMARK    6  A    between atoms: N3_29  and  C3_31
REMARK    7  A    between atoms: C7_35  and  N4_37
REMARK                            x       y       z     vdW  Elec       q    Type
REMARK                         _______ _______ _______ _____ _____    ______ ____
ROOT
ATOM      1  C9  UNL     1      26.065  -9.170 -37.953  0.00  0.00    +0.000 C 
ATOM      2  C10 UNL     1      27.262  -9.622 -38.550  0.00  0.00    +0.000 C 
ATOM      3  C11 UNL     1      27.399  -9.438 -39.921  0.00  0.00    +0.000 A 
ATOM      4  C12 UNL     1      26.415  -8.849 -40.683  0.00  0.00    +0.000 A 
ATOM      5  N5  UNL     1      26.803  -8.719 -41.974  0.00  0.00    +0.000 N 
ATOM      6  C13 UNL     1      28.043  -9.255 -42.018  0.00  0.00    +0.000 A 
ATOM      7  C14 UNL     1      28.881  -9.346 -43.127  0.00  0.00    +0.000 C 
ATOM      8  C15 UNL     1      30.153  -9.921 -42.947  0.00  0.00    +0.000 C 
ATOM      9  C16 UNL     1      30.558 -10.384 -41.675  0.00  0.00    +0.000 C 
ATOM     10  C17 UNL     1      29.697 -10.275 -40.567  0.00  0.00    +0.000 C 
ATOM     11  C18 UNL     1      28.442  -9.706 -40.777  0.00  0.00    +0.000 A 
ATOM     12  C19 UNL     1      25.223  -8.419 -40.083  0.00  0.00    +0.000 C 
ATOM     13  N6  UNL     1      25.097  -8.589 -38.732  0.00  0.00    +0.000 NA
ATOM     14  H9  UNL     1      26.287  -8.272 -42.763  0.00  0.00    +0.000 HD
ENDROOT
BRANCH  12  15
ATOM     15  C20 UNL     1      24.118  -7.797 -40.842  0.00  0.00    +0.000 C 
ATOM     16  C21 UNL     1      23.721  -6.473 -40.589  0.00  0.00    +0.000 C 
ATOM     17  C22 UNL     1      22.690  -5.892 -41.334  0.00  0.00    +0.000 C 
ATOM     18  C23 UNL     1      22.060  -6.620 -42.345  0.00  0.00    +0.000 C 
ATOM     19  C24 UNL     1      22.465  -7.929 -42.619  0.00  0.00    +0.000 C 
ATOM     20  C25 UNL     1      23.495  -8.515 -41.876  0.00  0.00    +0.000 C 
ENDBRANCH  12  15
BRANCH   1  22
ATOM     21  O1  UNL     1      26.629 -10.019 -35.811  0.00  0.00    +0.000 OA
ATOM     22  C1  UNL     1      25.845  -9.309 -36.498  0.00  0.00    +0.000 C 
ATOM     23  N1  UNL     1      24.743  -8.644 -35.860  0.00  0.00    +0.000 N 
ATOM     24  H1  UNL     1      24.091  -8.071 -36.439  0.00  0.00    +0.000 HD
BRANCH  23  25
ATOM     25  N2  UNL     1      24.557  -8.715 -34.466  0.00  0.00    +0.000 N 
ATOM     26  H2  UNL     1      24.270  -9.618 -34.030  0.00  0.00    +0.000 HD
BRANCH  25  27
ATOM     27  C2  UNL     1      24.804  -7.593 -33.603  0.00  0.00    +0.000 C 
ATOM     28  S1  UNL     1      23.579  -6.590 -33.178  0.00  0.00    +0.000 S 
BRANCH  27  29
ATOM     29  N3  UNL     1      26.068  -7.460 -32.936  0.00  0.00    +0.000 N 
ATOM     30  H3  UNL     1      26.064  -7.305 -31.902  0.00  0.00    +0.000 HD
BRANCH  29  31
ATOM     31  C3  UNL     1      27.339  -7.530 -33.605  0.00  0.00    +0.000 C 
ATOM     32  C4  UNL     1      27.629  -6.613 -34.625  0.00  0.00    +0.000 C 
ATOM     33  C5  UNL     1      28.844  -6.678 -35.308  0.00  0.00    +0.000 C 
ATOM     34  C6  UNL     1      29.779  -7.665 -34.988  0.00  0.00    +0.000 C 
ATOM     35  C7  UNL     1      29.500  -8.609 -33.983  0.00  0.00    +0.000 C 
ATOM     36  C8  UNL     1      28.273  -8.537 -33.301  0.00  0.00    +0.000 C 
BRANCH  35  37
ATOM     37  N4  UNL     1      30.453  -9.639 -33.661  0.00  0.00    +0.000 N 
ATOM     38  O2  UNL     1      30.231 -10.447 -32.734  0.00  0.00    +0.000 OA
ATOM     39  O3  UNL     1      31.628  -9.753 -34.370  0.00  0.00    +0.000 OA
ENDBRANCH  35  37
ENDBRANCH  29  31
ENDBRANCH  27  29
ENDBRANCH  25  27
ENDBRANCH  23  25
ENDBRANCH   1  22
TORSDOF 7
