REMARK  Name = resultss/4CJN/ligands/lig_93_t0.pdb
REMARK  7 active torsions:
REMARK  status: ('A' for Active; 'I' for Inactive)
REMARK    1  A    between atoms: C6_6  and  C8_33
REMARK    2  A    between atoms: C9_8  and  O2_14
REMARK    3  A    between atoms: C14_13  and  C15_16
REMARK    4  A    between atoms: C16_17  and  C17_18
REMARK    5  A    between atoms: C20_21  and  C21_25
REMARK    6  A    between atoms: C24_28  and  O3_31
REMARK    7  A    between atoms: C8_33  and  O1_34
REMARK                            x       y       z     vdW  Elec       q    Type
REMARK                         _______ _______ _______ _____ _____    ______ ____
ROOT
ATOM      1  C1  UNL     1      27.574  -6.050 -39.850  0.00  0.00    +0.000 C 
ATOM      2  C2  UNL     1      27.243  -6.561 -38.647  0.00  0.00    +0.000 C 
ATOM      3  C3  UNL     1      28.364  -6.753 -37.647  0.00  0.00    +0.000 C 
ATOM      4  C4  UNL     1      28.040  -7.784 -36.564  0.00  0.00    +0.000 C 
ATOM      5  C5  UNL     1      26.643  -7.533 -35.940  0.00  0.00    +0.000 C 
ATOM      6  C6  UNL     1      26.382  -8.230 -34.528  0.00  0.00    +0.000 C 
ATOM      7  C7  UNL     1      27.329  -7.591 -33.469  0.00  0.00    +0.000 C 
ATOM      8  C9  UNL     1      24.920  -7.895 -34.075  0.00  0.00    +0.000 C 
ATOM      9  C10 UNL     1      23.868  -8.210 -35.152  0.00  0.00    +0.000 C 
ATOM     10  C11 UNL     1      24.129  -7.392 -36.413  0.00  0.00    +0.000 C 
ATOM     11  C12 UNL     1      25.523  -7.672 -37.047  0.00  0.00    +0.000 C 
ATOM     12  C13 UNL     1      25.515  -9.079 -37.713  0.00  0.00    +0.000 C 
ATOM     13  C14 UNL     1      25.790  -6.570 -38.150  0.00  0.00    +0.000 C 
ENDROOT
BRANCH   8  14
ATOM     14  O2  UNL     1      24.589  -8.511 -32.851  0.00  0.00    +0.000 OA
ATOM     15  H15 UNL     1      25.370  -8.439 -32.243  0.00  0.00    +0.000 HD
ENDBRANCH   8  14
BRANCH  13  16
ATOM     16  C15 UNL     1      24.737  -6.578 -39.253  0.00  0.00    +0.000 C 
ATOM     17  C16 UNL     1      24.645  -7.538 -40.181  0.00  0.00    +0.000 C 
BRANCH  17  18
ATOM     18  C17 UNL     1      23.604  -7.557 -41.227  0.00  0.00    +0.000 C 
ATOM     19  C18 UNL     1      22.707  -6.591 -41.400  0.00  0.00    +0.000 C 
ATOM     20  C19 UNL     1      21.876  -6.949 -42.552  0.00  0.00    +0.000 C 
ATOM     21  C20 UNL     1      20.846  -6.230 -43.011  0.00  0.00    +0.000 C 
ATOM     22  O4  UNL     1      22.304  -8.162 -43.073  0.00  0.00    +0.000 OA
ATOM     23  C28 UNL     1      23.371  -8.551 -42.282  0.00  0.00    +0.000 C 
ATOM     24  O5  UNL     1      24.047  -9.593 -42.489  0.00  0.00    +0.000 OA
BRANCH  21  25
ATOM     25  C21 UNL     1      20.029  -6.616 -44.184  0.00  0.00    +0.000 C 
ATOM     26  C22 UNL     1      20.546  -6.596 -45.492  0.00  0.00    +0.000 C 
ATOM     27  C23 UNL     1      19.735  -6.940 -46.578  0.00  0.00    +0.000 C 
ATOM     28  C24 UNL     1      18.388  -7.295 -46.375  0.00  0.00    +0.000 C 
ATOM     29  C26 UNL     1      17.871  -7.293 -45.076  0.00  0.00    +0.000 C 
ATOM     30  C27 UNL     1      18.680  -6.948 -43.989  0.00  0.00    +0.000 C 
BRANCH  28  31
ATOM     31  O3  UNL     1      17.535  -7.646 -47.432  0.00  0.00    +0.000 OA
ATOM     32  C25 UNL     1      16.147  -7.334 -47.485  0.00  0.00    +0.000 C 
ENDBRANCH  28  31
ENDBRANCH  21  25
ENDBRANCH  17  18
ENDBRANCH  13  16
BRANCH   6  33
ATOM     33  C8  UNL     1      26.614  -9.779 -34.470  0.00  0.00    +0.000 C 
BRANCH  33  34
ATOM     34  O1  UNL     1      25.420 -10.514 -34.472  0.00  0.00    +0.000 OA
ATOM     35  H13 UNL     1      25.453 -11.127 -35.251  0.00  0.00    +0.000 HD
ENDBRANCH  33  34
ENDBRANCH   6  33
TORSDOF 7
