REMARK  Name = resultss/4CJN/ligands/lig_259_t1.pdb
REMARK  4 active torsions:
REMARK  status: ('A' for Active; 'I' for Inactive)
REMARK    1  A    between atoms: C4_4  and  O1_33
REMARK    2  A    between atoms: C9_9  and  C10_23
REMARK    3  A    between atoms: C18_10  and  O2_35
REMARK    4  A    between atoms: C27_21  and  O5_37
REMARK                            x       y       z     vdW  Elec       q    Type
REMARK                         _______ _______ _______ _____ _____    ______ ____
ROOT
ATOM      1  C1  UNL     1      23.735  -8.023 -36.658  0.00  0.00    +0.000 C 
ATOM      2  C2  UNL     1      25.031  -8.293 -35.952  0.00  0.00    +0.000 C 
ATOM      3  C3  UNL     1      25.128  -8.104 -34.557  0.00  0.00    +0.000 C 
ATOM      4  C4  UNL     1      26.350  -8.298 -33.883  0.00  0.00    +0.000 C 
ATOM      5  C5  UNL     1      27.468  -8.691 -34.633  0.00  0.00    +0.000 A 
ATOM      6  C6  UNL     1      27.367  -8.892 -36.013  0.00  0.00    +0.000 A 
ATOM      7  C7  UNL     1      26.168  -8.666 -36.693  0.00  0.00    +0.000 C 
ATOM      8  C8  UNL     1      28.621  -9.270 -36.493  0.00  0.00    +0.000 A 
ATOM      9  C9  UNL     1      29.130  -9.632 -37.751  0.00  0.00    +0.000 A 
ATOM     10  C18 UNL     1      30.518  -9.923 -37.810  0.00  0.00    +0.000 A 
ATOM     11  O3  UNL     1      31.281  -9.868 -36.706  0.00  0.00    +0.000 OA
ATOM     12  C19 UNL     1      30.802  -9.539 -35.504  0.00  0.00    +0.000 A 
ATOM     13  C20 UNL     1      29.453  -9.251 -35.415  0.00  0.00    +0.000 A 
ATOM     14  C21 UNL     1      28.798  -8.924 -34.265  0.00  0.00    +0.000 A 
ATOM     15  C22 UNL     1      29.499  -8.895 -33.054  0.00  0.00    +0.000 A 
ATOM     16  O4  UNL     1      28.912  -8.621 -31.975  0.00  0.00    +0.000 OA
ATOM     17  C23 UNL     1      30.895  -9.192 -33.071  0.00  0.00    +0.000 A 
ATOM     18  C24 UNL     1      31.619  -9.215 -31.865  0.00  0.00    +0.000 C 
ATOM     19  C25 UNL     1      32.975  -9.521 -31.856  0.00  0.00    +0.000 C 
ATOM     20  C26 UNL     1      33.645  -9.777 -33.047  0.00  0.00    +0.000 C 
ATOM     21  C27 UNL     1      32.980  -9.730 -34.276  0.00  0.00    +0.000 C 
ATOM     22  C28 UNL     1      31.576  -9.484 -34.310  0.00  0.00    +0.000 A 
ENDROOT
BRANCH   9  23
ATOM     23  C10 UNL     1      28.280  -9.797 -38.941  0.00  0.00    +0.000 C 
ATOM     24  C11 UNL     1      27.610 -10.952 -39.331  0.00  0.00    +0.000 C 
ATOM     25  N1  UNL     1      26.871 -10.716 -40.438  0.00  0.00    +0.000 N 
ATOM     26  C12 UNL     1      27.054  -9.419 -40.740  0.00  0.00    +0.000 C 
ATOM     27  C13 UNL     1      26.484  -8.706 -41.794  0.00  0.00    +0.000 C 
ATOM     28  C14 UNL     1      26.801  -7.340 -41.911  0.00  0.00    +0.000 C 
ATOM     29  C15 UNL     1      27.667  -6.723 -40.981  0.00  0.00    +0.000 C 
ATOM     30  C16 UNL     1      28.225  -7.466 -39.924  0.00  0.00    +0.000 C 
ATOM     31  C17 UNL     1      27.900  -8.820 -39.842  0.00  0.00    +0.000 C 
ATOM     32  H8  UNL     1      26.271 -11.403 -40.947  0.00  0.00    +0.000 HD
ENDBRANCH   9  23
BRANCH   4  33
ATOM     33  O1  UNL     1      26.428  -8.093 -32.508  0.00  0.00    +0.000 OA
ATOM     34  H5  UNL     1      26.887  -8.758 -31.897  0.00  0.00    +0.000 HD
ENDBRANCH   4  33
BRANCH  10  35
ATOM     35  O2  UNL     1      31.101 -10.291 -39.019  0.00  0.00    +0.000 OA
ATOM     36  H13 UNL     1      32.004  -9.920 -39.291  0.00  0.00    +0.000 HD
ENDBRANCH  10  35
BRANCH  21  37
ATOM     37  O5  UNL     1      33.768  -9.909 -35.417  0.00  0.00    +0.000 OA
ATOM     38  H17 UNL     1      34.069 -10.804 -35.771  0.00  0.00    +0.000 HD
ENDBRANCH  21  37
TORSDOF 4
