REMARK  Name = resultss/4CJN/ligands/lig_102_t0.pdb
REMARK  6 active torsions:
REMARK  status: ('A' for Active; 'I' for Inactive)
REMARK    1  A    between atoms: C6_6  and  C8_31
REMARK    2  A    between atoms: C9_8  and  O2_14
REMARK    3  A    between atoms: C14_13  and  C15_16
REMARK    4  A    between atoms: C16_17  and  C17_18
REMARK    5  A    between atoms: C20_21  and  C21_25
REMARK    6  A    between atoms: C8_31  and  O1_32
REMARK                            x       y       z     vdW  Elec       q    Type
REMARK                         _______ _______ _______ _____ _____    ______ ____
ROOT
ATOM      1  C1  UNL     1      28.970 -10.382 -38.158  0.00  0.00    +0.000 C 
ATOM      2  C2  UNL     1      28.781  -9.388 -37.266  0.00  0.00    +0.000 C 
ATOM      3  C3  UNL     1      29.221  -9.554 -35.833  0.00  0.00    +0.000 C 
ATOM      4  C4  UNL     1      28.018  -9.420 -34.890  0.00  0.00    +0.000 C 
ATOM      5  C5  UNL     1      27.170  -8.146 -35.182  0.00  0.00    +0.000 C 
ATOM      6  C6  UNL     1      26.047  -7.852 -34.087  0.00  0.00    +0.000 C 
ATOM      7  C7  UNL     1      26.728  -7.207 -32.844  0.00  0.00    +0.000 C 
ATOM      8  C9  UNL     1      25.001  -6.803 -34.624  0.00  0.00    +0.000 C 
ATOM      9  C10 UNL     1      25.618  -5.890 -35.690  0.00  0.00    +0.000 C 
ATOM     10  C11 UNL     1      25.979  -6.675 -36.952  0.00  0.00    +0.000 C 
ATOM     11  C12 UNL     1      26.712  -8.044 -36.703  0.00  0.00    +0.000 C 
ATOM     12  C13 UNL     1      25.770  -9.233 -37.070  0.00  0.00    +0.000 C 
ATOM     13  C14 UNL     1      28.022  -8.109 -37.585  0.00  0.00    +0.000 C 
ENDROOT
BRANCH   8  14
ATOM     14  O2  UNL     1      23.853  -7.432 -35.143  0.00  0.00    +0.000 OA
ATOM     15  H15 UNL     1      23.208  -6.716 -35.399  0.00  0.00    +0.000 HD
ENDBRANCH   8  14
BRANCH  13  16
ATOM     16  C15 UNL     1      27.979  -7.804 -39.085  0.00  0.00    +0.000 C 
ATOM     17  C16 UNL     1      27.170  -8.356 -40.000  0.00  0.00    +0.000 C 
BRANCH  17  18
ATOM     18  C17 UNL     1      27.199  -7.969 -41.422  0.00  0.00    +0.000 C 
ATOM     19  C18 UNL     1      26.721  -6.851 -41.962  0.00  0.00    +0.000 C 
ATOM     20  C19 UNL     1      26.856  -6.974 -43.419  0.00  0.00    +0.000 C 
ATOM     21  C20 UNL     1      26.480  -6.049 -44.310  0.00  0.00    +0.000 C 
ATOM     22  O3  UNL     1      27.447  -8.192 -43.727  0.00  0.00    +0.000 OA
ATOM     23  C27 UNL     1      27.651  -8.822 -42.515  0.00  0.00    +0.000 C 
ATOM     24  O4  UNL     1      28.167  -9.961 -42.391  0.00  0.00    +0.000 OA
BRANCH  21  25
ATOM     25  C21 UNL     1      26.624  -6.205 -45.777  0.00  0.00    +0.000 C 
ATOM     26  C22 UNL     1      27.818  -5.884 -46.452  0.00  0.00    +0.000 C 
ATOM     27  C23 UNL     1      27.916  -6.054 -47.836  0.00  0.00    +0.000 C 
ATOM     28  C24 UNL     1      26.836  -6.566 -48.557  0.00  0.00    +0.000 C 
ATOM     29  C25 UNL     1      25.666  -6.933 -47.890  0.00  0.00    +0.000 C 
ATOM     30  C26 UNL     1      25.560  -6.755 -46.506  0.00  0.00    +0.000 C 
ENDBRANCH  21  25
ENDBRANCH  17  18
ENDBRANCH  13  16
BRANCH   6  31
ATOM     31  C8  UNL     1      25.296  -9.139 -33.602  0.00  0.00    +0.000 C 
BRANCH  31  32
ATOM     32  O1  UNL     1      24.313  -8.859 -32.636  0.00  0.00    +0.000 OA
ATOM     33  H13 UNL     1      24.670  -9.148 -31.756  0.00  0.00    +0.000 HD
ENDBRANCH  31  32
ENDBRANCH   6  31
TORSDOF 6
