REMARK  Name = resultss/4CJN/ligands/lig_431_t0.pdb
REMARK  7 active torsions:
REMARK  status: ('A' for Active; 'I' for Inactive)
REMARK    1  A    between atoms: C9_1  and  C1_22
REMARK    2  A    between atoms: C19_12  and  C20_15
REMARK    3  A    between atoms: N1_23  and  N2_25
REMARK    4  A    between atoms: N2_25  and  C2_27
REMARK    5  A    between atoms: C2_27  and  N3_29
REMARK    6  A    between atoms: N3_29  and  C3_31
REMARK    7  A    between atoms: C7_35  and  N4_37
REMARK                            x       y       z     vdW  Elec       q    Type
REMARK                         _______ _______ _______ _____ _____    ______ ____
ROOT
ATOM      1  C9  UNL     1      29.279 -10.440 -40.862  0.00  0.00    +0.000 C 
ATOM      2  C10 UNL     1      29.814 -11.211 -41.916  0.00  0.00    +0.000 C 
ATOM      3  C11 UNL     1      31.160 -11.037 -42.213  0.00  0.00    +0.000 A 
ATOM      4  C12 UNL     1      31.954 -10.148 -41.522  0.00  0.00    +0.000 A 
ATOM      5  N5  UNL     1      33.239 -10.204 -41.944  0.00  0.00    +0.000 N 
ATOM      6  C13 UNL     1      33.240 -11.130 -42.928  0.00  0.00    +0.000 A 
ATOM      7  C14 UNL     1      34.334 -11.565 -43.673  0.00  0.00    +0.000 C 
ATOM      8  C15 UNL     1      34.118 -12.566 -44.639  0.00  0.00    +0.000 C 
ATOM      9  C16 UNL     1      32.829 -13.108 -44.835  0.00  0.00    +0.000 C 
ATOM     10  C17 UNL     1      31.739 -12.659 -44.065  0.00  0.00    +0.000 C 
ATOM     11  C18 UNL     1      31.983 -11.663 -43.121  0.00  0.00    +0.000 A 
ATOM     12  C19 UNL     1      31.408  -9.375 -40.487  0.00  0.00    +0.000 C 
ATOM     13  N6  UNL     1      30.086  -9.558 -40.190  0.00  0.00    +0.000 NA
ATOM     14  H9  UNL     1      34.065  -9.682 -41.576  0.00  0.00    +0.000 HD
ENDROOT
BRANCH  12  15
ATOM     15  C20 UNL     1      32.195  -8.390 -39.718  0.00  0.00    +0.000 C 
ATOM     16  C21 UNL     1      32.190  -7.028 -40.066  0.00  0.00    +0.000 C 
ATOM     17  C22 UNL     1      32.922  -6.105 -39.312  0.00  0.00    +0.000 C 
ATOM     18  C23 UNL     1      33.649  -6.530 -38.199  0.00  0.00    +0.000 C 
ATOM     19  C24 UNL     1      33.640  -7.878 -37.831  0.00  0.00    +0.000 C 
ATOM     20  C25 UNL     1      32.911  -8.805 -38.582  0.00  0.00    +0.000 C 
ENDBRANCH  12  15
BRANCH   1  22
ATOM     21  O1  UNL     1      27.562 -11.171 -39.397  0.00  0.00    +0.000 OA
ATOM     22  C1  UNL     1      27.860 -10.576 -40.468  0.00  0.00    +0.000 C 
ATOM     23  N1  UNL     1      26.818 -10.037 -41.296  0.00  0.00    +0.000 N 
ATOM     24  H1  UNL     1      27.074  -9.558 -42.188  0.00  0.00    +0.000 HD
BRANCH  23  25
ATOM     25  N2  UNL     1      25.467 -10.101 -40.904  0.00  0.00    +0.000 N 
ATOM     26  H2  UNL     1      24.969 -11.018 -40.925  0.00  0.00    +0.000 HD
BRANCH  25  27
ATOM     27  C2  UNL     1      24.756  -8.952 -40.417  0.00  0.00    +0.000 C 
ATOM     28  S1  UNL     1      23.894  -8.013 -41.449  0.00  0.00    +0.000 S 
BRANCH  27  29
ATOM     29  N3  UNL     1      24.615  -8.736 -39.005  0.00  0.00    +0.000 N 
ATOM     30  H3  UNL     1      23.647  -8.695 -38.609  0.00  0.00    +0.000 HD
BRANCH  29  31
ATOM     31  C3  UNL     1      25.723  -8.572 -38.104  0.00  0.00    +0.000 C 
ATOM     32  C4  UNL     1      26.747  -7.672 -38.431  0.00  0.00    +0.000 C 
ATOM     33  C5  UNL     1      27.847  -7.517 -37.585  0.00  0.00    +0.000 C 
ATOM     34  C6  UNL     1      27.942  -8.267 -36.411  0.00  0.00    +0.000 C 
ATOM     35  C7  UNL     1      26.938  -9.192 -36.074  0.00  0.00    +0.000 C 
ATOM     36  C8  UNL     1      25.834  -9.343 -36.932  0.00  0.00    +0.000 C 
BRANCH  35  37
ATOM     37  N4  UNL     1      27.040  -9.980 -34.873  0.00  0.00    +0.000 N 
ATOM     38  O2  UNL     1      26.037 -10.556 -34.401  0.00  0.00    +0.000 OA
ATOM     39  O3  UNL     1      28.247 -10.113 -34.224  0.00  0.00    +0.000 OA
ENDBRANCH  35  37
ENDBRANCH  29  31
ENDBRANCH  27  29
ENDBRANCH  25  27
ENDBRANCH  23  25
ENDBRANCH   1  22
TORSDOF 7
