REMARK  Name = resultss/4CJN/ligands/lig_331_t1.pdb
REMARK  10 active torsions:
REMARK  status: ('A' for Active; 'I' for Inactive)
REMARK    1  A    between atoms: C5_1  and  C4_13
REMARK    2  A    between atoms: C8_5  and  C9_24
REMARK    3  A    between atoms: C18_7  and  O4_22
REMARK    4  A    between atoms: C21_10  and  C22_34
REMARK    5  A    between atoms: C2_11  and  O1_19
REMARK    6  A    between atoms: C24_15  and  O7_20
REMARK    7  A    between atoms: C9_24  and  C10_25
REMARK    8  A    between atoms: C10_25  and  C11_26
REMARK    9  A    between atoms: C14_29  and  O3_32
REMARK   10  A    between atoms: C22_34  and  O6_35
REMARK                            x       y       z     vdW  Elec       q    Type
REMARK                         _______ _______ _______ _____ _____    ______ ____
ROOT
ATOM      1  C5  UNL     1      24.947  -7.552 -43.899  0.00  0.00    +0.000 C 
ATOM      2  O2  UNL     1      26.269  -8.008 -44.203  0.00  0.00    +0.000 OA
ATOM      3  C6  UNL     1      27.060  -8.642 -43.241  0.00  0.00    +0.000 C 
ATOM      4  C7  UNL     1      28.424  -8.840 -43.462  0.00  0.00    +0.000 C 
ATOM      5  C8  UNL     1      29.216  -9.441 -42.473  0.00  0.00    +0.000 C 
ATOM      6  C17 UNL     1      28.623  -9.865 -41.270  0.00  0.00    +0.000 C 
ATOM      7  C18 UNL     1      27.243  -9.683 -41.051  0.00  0.00    +0.000 C 
ATOM      8  C20 UNL     1      26.467  -9.081 -42.050  0.00  0.00    +0.000 C 
ATOM      9  O5  UNL     1      25.089  -8.913 -41.876  0.00  0.00    +0.000 OA
ATOM     10  C21 UNL     1      24.235  -8.574 -42.972  0.00  0.00    +0.000 C 
ENDROOT
BRANCH   1  13
ATOM     11  C2  UNL     1      24.082  -7.263 -47.692  0.00  0.00    +0.000 C 
ATOM     12  C3  UNL     1      24.774  -7.517 -46.373  0.00  0.00    +0.000 C 
ATOM     13  C4  UNL     1      24.179  -7.323 -45.183  0.00  0.00    +0.000 C 
ATOM     14  C23 UNL     1      22.747  -6.955 -45.109  0.00  0.00    +0.000 C 
ATOM     15  C24 UNL     1      21.986  -6.865 -46.211  0.00  0.00    +0.000 C 
ATOM     16  C26 UNL     1      22.594  -7.100 -47.532  0.00  0.00    +0.000 C 
ATOM     17  O8  UNL     1      21.860  -7.122 -48.557  0.00  0.00    +0.000 OA
BRANCH  11  19
ATOM     18  C1  UNL     1      25.956  -6.235 -48.607  0.00  0.00    +0.000 C 
ATOM     19  O1  UNL     1      24.596  -6.076 -48.267  0.00  0.00    +0.000 OA
ENDBRANCH  11  19
BRANCH  15  20
ATOM     20  O7  UNL     1      20.614  -6.560 -46.158  0.00  0.00    +0.000 OA
ATOM     21  C25 UNL     1      19.839  -6.498 -44.964  0.00  0.00    +0.000 C 
ENDBRANCH  15  20
ENDBRANCH   1  13
BRANCH   7  22
ATOM     22  O4  UNL     1      26.609 -10.093 -39.867  0.00  0.00    +0.000 OA
ATOM     23  C19 UNL     1      26.683  -9.390 -38.630  0.00  0.00    +0.000 C 
ENDBRANCH   7  22
BRANCH   5  24
ATOM     24  C9  UNL     1      30.682  -9.682 -42.720  0.00  0.00    +0.000 C 
BRANCH  24  25
ATOM     25  C10 UNL     1      31.012 -11.170 -42.581  0.00  0.00    +0.000 C 
BRANCH  25  26
ATOM     26  C11 UNL     1      31.810 -11.648 -43.764  0.00  0.00    +0.000 C 
ATOM     27  C12 UNL     1      31.820 -13.008 -44.110  0.00  0.00    +0.000 C 
ATOM     28  C13 UNL     1      32.537 -13.447 -45.228  0.00  0.00    +0.000 C 
ATOM     29  C14 UNL     1      33.241 -12.528 -46.016  0.00  0.00    +0.000 C 
ATOM     30  C15 UNL     1      33.224 -11.169 -45.683  0.00  0.00    +0.000 C 
ATOM     31  C16 UNL     1      32.508 -10.729 -44.565  0.00  0.00    +0.000 C 
BRANCH  29  32
ATOM     32  O3  UNL     1      33.959 -12.953 -47.133  0.00  0.00    +0.000 OA
ATOM     33  H14 UNL     1      34.102 -12.346 -47.932  0.00  0.00    +0.000 HD
ENDBRANCH  29  32
ENDBRANCH  25  26
ENDBRANCH  24  25
ENDBRANCH   5  24
BRANCH  10  34
ATOM     34  C22 UNL     1      22.892  -8.056 -42.433  0.00  0.00    +0.000 C 
BRANCH  34  35
ATOM     35  O6  UNL     1      23.066  -7.339 -41.240  0.00  0.00    +0.000 OA
ATOM     36  H24 UNL     1      23.104  -8.007 -40.507  0.00  0.00    +0.000 HD
ENDBRANCH  34  35
ENDBRANCH  10  34
TORSDOF 10
