REMARK  Name = resultss/4CJN/ligands/lig_96_t0.pdb
REMARK  10 active torsions:
REMARK  status: ('A' for Active; 'I' for Inactive)
REMARK    1  A    between atoms: C6_6  and  C8_28
REMARK    2  A    between atoms: C15_8  and  O3_38
REMARK    3  A    between atoms: C26_13  and  C27_14
REMARK    4  A    between atoms: C28_15  and  C29_16
REMARK    5  A    between atoms: C32_19  and  C33_23
REMARK    6  A    between atoms: C8_28  and  O1_29
REMARK    7  A    between atoms: O1_29  and  C9_30
REMARK    8  A    between atoms: C9_30  and  C10_32
REMARK    9  A    between atoms: O3_38  and  C16_39
REMARK   10  A    between atoms: C16_39  and  C17_41
REMARK                            x       y       z     vdW  Elec       q    Type
REMARK                         _______ _______ _______ _____ _____    ______ ____
ROOT
ATOM      1  C1  UNL     1      27.779  -6.798 -44.999  0.00  0.00    +0.000 C 
ATOM      2  C2  UNL     1      27.701  -6.608 -43.669  0.00  0.00    +0.000 C 
ATOM      3  C3  UNL     1      28.893  -6.094 -42.906  0.00  0.00    +0.000 C 
ATOM      4  C4  UNL     1      29.414  -7.192 -41.968  0.00  0.00    +0.000 C 
ATOM      5  C5  UNL     1      28.276  -7.792 -41.079  0.00  0.00    +0.000 C 
ATOM      6  C6  UNL     1      28.757  -8.743 -39.904  0.00  0.00    +0.000 C 
ATOM      7  C7  UNL     1      29.732  -7.971 -38.969  0.00  0.00    +0.000 C 
ATOM      8  C15 UNL     1      27.509  -9.115 -39.036  0.00  0.00    +0.000 C 
ATOM      9  C22 UNL     1      26.363  -9.707 -39.868  0.00  0.00    +0.000 C 
ATOM     10  C23 UNL     1      25.905  -8.744 -40.970  0.00  0.00    +0.000 C 
ATOM     11  C24 UNL     1      27.048  -8.318 -41.940  0.00  0.00    +0.000 C 
ATOM     12  C25 UNL     1      27.420  -9.513 -42.880  0.00  0.00    +0.000 C 
ATOM     13  C26 UNL     1      26.544  -7.107 -42.813  0.00  0.00    +0.000 C 
ENDROOT
BRANCH  13  14
ATOM     14  C27 UNL     1      25.264  -7.364 -43.591  0.00  0.00    +0.000 C 
ATOM     15  C28 UNL     1      24.398  -6.377 -43.843  0.00  0.00    +0.000 C 
BRANCH  15  16
ATOM     16  C29 UNL     1      23.135  -6.577 -44.582  0.00  0.00    +0.000 C 
ATOM     17  C30 UNL     1      21.908  -6.212 -44.208  0.00  0.00    +0.000 C 
ATOM     18  C31 UNL     1      20.986  -6.591 -45.283  0.00  0.00    +0.000 C 
ATOM     19  C32 UNL     1      19.669  -6.362 -45.281  0.00  0.00    +0.000 C 
ATOM     20  O6  UNL     1      21.697  -7.194 -46.312  0.00  0.00    +0.000 OA
ATOM     21  C37 UNL     1      23.020  -7.187 -45.902  0.00  0.00    +0.000 C 
ATOM     22  O7  UNL     1      23.971  -7.643 -46.587  0.00  0.00    +0.000 OA
BRANCH  19  23
ATOM     23  C33 UNL     1      18.757  -6.769 -46.366  0.00  0.00    +0.000 C 
ATOM     24  C34 UNL     1      18.756  -6.332 -47.682  0.00  0.00    +0.000 C 
ATOM     25  C35 UNL     1      17.737  -7.024 -48.301  0.00  0.00    +0.000 C 
ATOM     26  C36 UNL     1      17.181  -7.836 -47.336  0.00  0.00    +0.000 C 
ATOM     27  O5  UNL     1      17.811  -7.666 -46.197  0.00  0.00    +0.000 OA
ENDBRANCH  19  23
ENDBRANCH  15  16
ENDBRANCH  13  14
BRANCH   6  28
ATOM     28  C8  UNL     1      29.492 -10.035 -40.377  0.00  0.00    +0.000 C 
BRANCH  28  29
ATOM     29  O1  UNL     1      30.872 -10.012 -40.024  0.00  0.00    +0.000 OA
BRANCH  29  30
ATOM     30  C9  UNL     1      31.889  -9.737 -40.944  0.00  0.00    +0.000 C 
ATOM     31  O2  UNL     1      32.586  -8.691 -40.822  0.00  0.00    +0.000 OA
BRANCH  30  32
ATOM     32  C10 UNL     1      32.144 -10.678 -42.057  0.00  0.00    +0.000 C 
ATOM     33  C11 UNL     1      31.113 -11.472 -42.586  0.00  0.00    +0.000 C 
ATOM     34  C12 UNL     1      31.377 -12.357 -43.634  0.00  0.00    +0.000 C 
ATOM     35  C13 UNL     1      32.669 -12.442 -44.149  0.00  0.00    +0.000 C 
ATOM     36  N1  UNL     1      33.660 -11.668 -43.632  0.00  0.00    +0.000 NA
ATOM     37  C14 UNL     1      33.431 -10.799 -42.611  0.00  0.00    +0.000 C 
ENDBRANCH  30  32
ENDBRANCH  29  30
ENDBRANCH  28  29
ENDBRANCH   6  28
BRANCH   8  38
ATOM     38  O3  UNL     1      27.876 -10.040 -38.007  0.00  0.00    +0.000 OA
BRANCH  38  39
ATOM     39  C16 UNL     1      27.546  -9.877 -36.656  0.00  0.00    +0.000 C 
ATOM     40  O4  UNL     1      26.338  -9.779 -36.304  0.00  0.00    +0.000 OA
BRANCH  39  41
ATOM     41  C17 UNL     1      28.621  -9.818 -35.644  0.00  0.00    +0.000 C 
ATOM     42  C18 UNL     1      29.956  -9.594 -36.018  0.00  0.00    +0.000 C 
ATOM     43  C19 UNL     1      30.956  -9.526 -35.046  0.00  0.00    +0.000 C 
ATOM     44  C20 UNL     1      30.614  -9.686 -33.703  0.00  0.00    +0.000 C 
ATOM     45  N2  UNL     1      29.320  -9.908 -33.350  0.00  0.00    +0.000 NA
ATOM     46  C21 UNL     1      28.327  -9.978 -34.278  0.00  0.00    +0.000 C 
ENDBRANCH  39  41
ENDBRANCH  38  39
ENDBRANCH   8  38
TORSDOF 10
