REMARK  Name = resultss/4CJN/ligands/lig_186_t2.pdb
REMARK  4 active torsions:
REMARK  status: ('A' for Active; 'I' for Inactive)
REMARK    1  A    between atoms: C9_1  and  C1_17
REMARK    2  A    between atoms: C12_4  and  C13_7
REMARK    3  A    between atoms: N1_18  and  N2_20
REMARK    4  A    between atoms: C2_21  and  C3_22
REMARK                            x       y       z     vdW  Elec       q    Type
REMARK                         _______ _______ _______ _____ _____    ______ ____
ROOT
ATOM      1  C9  UNL     1      24.320  -7.621 -42.218  0.00  0.00    +0.000 C 
ATOM      2  C10 UNL     1      24.855  -7.579 -43.517  0.00  0.00    +0.000 C 
ATOM      3  C11 UNL     1      24.025  -7.379 -44.622  0.00  0.00    +0.000 C 
ATOM      4  C12 UNL     1      22.638  -7.222 -44.457  0.00  0.00    +0.000 C 
ATOM      5  C20 UNL     1      22.100  -7.278 -43.159  0.00  0.00    +0.000 C 
ATOM      6  C21 UNL     1      22.931  -7.476 -42.052  0.00  0.00    +0.000 C 
ENDROOT
BRANCH   4   7
ATOM      7  C13 UNL     1      21.767  -7.010 -45.636  0.00  0.00    +0.000 A 
ATOM      8  N3  UNL     1      20.411  -6.974 -45.561  0.00  0.00    +0.000 NA
ATOM      9  C14 UNL     1      19.851  -6.767 -46.780  0.00  0.00    +0.000 A 
ATOM     10  C15 UNL     1      18.478  -6.683 -47.013  0.00  0.00    +0.000 C 
ATOM     11  C16 UNL     1      18.028  -6.466 -48.327  0.00  0.00    +0.000 C 
ATOM     12  C17 UNL     1      18.951  -6.337 -49.385  0.00  0.00    +0.000 C 
ATOM     13  C18 UNL     1      20.330  -6.423 -49.138  0.00  0.00    +0.000 C 
ATOM     14  C19 UNL     1      20.748  -6.639 -47.828  0.00  0.00    +0.000 A 
ATOM     15  S1  UNL     1      22.307  -6.785 -47.232  0.00  0.00    +0.000 S 
ENDBRANCH   4   7
BRANCH   1  17
ATOM     16  O1  UNL     1      26.459  -7.689 -41.193  0.00  0.00    +0.000 OA
ATOM     17  C1  UNL     1      25.214  -7.839 -41.055  0.00  0.00    +0.000 C 
ATOM     18  N1  UNL     1      24.692  -8.200 -39.770  0.00  0.00    +0.000 N 
ATOM     19  H1  UNL     1      23.663  -8.167 -39.593  0.00  0.00    +0.000 HD
BRANCH  18  20
ATOM     20  N2  UNL     1      25.569  -8.530 -38.725  0.00  0.00    +0.000 NA
ATOM     21  C2  UNL     1      25.190  -8.529 -37.486  0.00  0.00    +0.000 C 
BRANCH  21  22
ATOM     22  C3  UNL     1      26.136  -8.878 -36.406  0.00  0.00    +0.000 C 
ATOM     23  C4  UNL     1      27.380  -9.265 -36.734  0.00  0.00    +0.000 C 
ATOM     24  C5  UNL     1      28.376  -9.654 -35.718  0.00  0.00    +0.000 C 
ATOM     25  O2  UNL     1      29.526 -10.008 -36.089  0.00  0.00    +0.000 OA
ATOM     26  C6  UNL     1      28.035  -9.681 -34.259  0.00  0.00    +0.000 C 
ATOM     27  C7  UNL     1      26.798  -8.880 -33.980  0.00  0.00    +0.000 C 
ATOM     28  O3  UNL     1      26.672  -8.314 -32.903  0.00  0.00    +0.000 OA
ATOM     29  C8  UNL     1      25.662  -8.868 -34.967  0.00  0.00    +0.000 C 
ENDBRANCH  21  22
ENDBRANCH  18  20
ENDBRANCH   1  17
TORSDOF 4
