REMARK  Name = resultss/4CJN/ligands/lig_351_t0.pdb
REMARK  10 active torsions:
REMARK  status: ('A' for Active; 'I' for Inactive)
REMARK    1  A    between atoms: C12_1  and  O2_27
REMARK    2  A    between atoms: C15_4  and  C16_7
REMARK    3  A    between atoms: N4_17  and  N5_19
REMARK    4  A    between atoms: N5_19  and  C24_21
REMARK    5  A    between atoms: O2_27  and  C11_28
REMARK    6  A    between atoms: C11_28  and  C10_31
REMARK    7  A    between atoms: N2_29  and  C8_34
REMARK    8  A    between atoms: C8_34  and  C7_36
REMARK    9  A    between atoms: N1_35  and  C6_42
REMARK   10  A    between atoms: C3_39  and  C2_46
REMARK                            x       y       z     vdW  Elec       q    Type
REMARK                         _______ _______ _______ _____ _____    ______ ____
ROOT
ATOM      1  C12 UNL     1      27.638  -6.738 -44.395  0.00  0.00    +0.000 C 
ATOM      2  C13 UNL     1      28.343  -7.913 -44.672  0.00  0.00    +0.000 C 
ATOM      3  C14 UNL     1      28.695  -8.790 -43.643  0.00  0.00    +0.000 C 
ATOM      4  C15 UNL     1      28.345  -8.511 -42.312  0.00  0.00    +0.000 C 
ATOM      5  C30 UNL     1      27.639  -7.324 -42.033  0.00  0.00    +0.000 C 
ATOM      6  C31 UNL     1      27.281  -6.451 -43.065  0.00  0.00    +0.000 C 
ENDROOT
BRANCH   4   7
ATOM      7  C16 UNL     1      28.807  -9.460 -41.222  0.00  0.00    +0.000 C 
ATOM      8  N3  UNL     1      29.192 -10.742 -41.820  0.00  0.00    +0.000 N 
ATOM      9  C17 UNL     1      30.544 -11.031 -42.201  0.00  0.00    +0.000 C 
ATOM     10  C18 UNL     1      30.822 -12.114 -43.049  0.00  0.00    +0.000 C 
ATOM     11  C19 UNL     1      32.138 -12.387 -43.428  0.00  0.00    +0.000 C 
ATOM     12  C20 UNL     1      33.183 -11.584 -42.962  0.00  0.00    +0.000 C 
ATOM     13  C21 UNL     1      32.915 -10.511 -42.107  0.00  0.00    +0.000 C 
ATOM     14  C22 UNL     1      31.594 -10.233 -41.718  0.00  0.00    +0.000 C 
ATOM     15  C23 UNL     1      31.274  -9.135 -40.792  0.00  0.00    +0.000 C 
ATOM     16  O3  UNL     1      32.191  -8.396 -40.342  0.00  0.00    +0.000 OA
ATOM     17  N4  UNL     1      29.903  -8.900 -40.415  0.00  0.00    +0.000 N 
ATOM     18  H17 UNL     1      28.428 -11.385 -42.131  0.00  0.00    +0.000 HD
BRANCH  17  19
ATOM     19  N5  UNL     1      29.586  -7.955 -39.418  0.00  0.00    +0.000 N 
ATOM     20  H22 UNL     1      29.586  -6.940 -39.669  0.00  0.00    +0.000 HD
BRANCH  19  21
ATOM     21  C24 UNL     1      29.180  -8.330 -38.092  0.00  0.00    +0.000 C 
ATOM     22  C25 UNL     1      29.085  -9.681 -37.711  0.00  0.00    +0.000 C 
ATOM     23  C26 UNL     1      28.688 -10.022 -36.414  0.00  0.00    +0.000 C 
ATOM     24  C27 UNL     1      28.366  -9.021 -35.494  0.00  0.00    +0.000 C 
ATOM     25  C28 UNL     1      28.434  -7.678 -35.870  0.00  0.00    +0.000 C 
ATOM     26  C29 UNL     1      28.836  -7.333 -37.165  0.00  0.00    +0.000 C 
ENDBRANCH  19  21
ENDBRANCH  17  19
ENDBRANCH   4   7
BRANCH   1  27
ATOM     27  O2  UNL     1      27.328  -5.883 -45.465  0.00  0.00    +0.000 OA
BRANCH  27  28
ATOM     28  C11 UNL     1      26.894  -6.304 -46.758  0.00  0.00    +0.000 C 
BRANCH  28  31
ATOM     29  N2  UNL     1      23.393  -6.999 -46.104  0.00  0.00    +0.000 N 
ATOM     30  C9  UNL     1      24.509  -6.312 -45.808  0.00  0.00    +0.000 C 
ATOM     31  C10 UNL     1      25.456  -6.714 -46.723  0.00  0.00    +0.000 C 
ATOM     32  N6  UNL     1      24.904  -7.644 -47.529  0.00  0.00    +0.000 NA
ATOM     33  N7  UNL     1      23.649  -7.797 -47.129  0.00  0.00    +0.000 NA
BRANCH  29  34
ATOM     34  C8  UNL     1      22.135  -6.975 -45.369  0.00  0.00    +0.000 C 
BRANCH  34  36
ATOM     35  N1  UNL     1      23.532  -8.119 -43.583  0.00  0.00    +0.000 N 
ATOM     36  C7  UNL     1      22.376  -7.344 -43.937  0.00  0.00    +0.000 C 
ATOM     37  O1  UNL     1      21.553  -6.976 -43.056  0.00  0.00    +0.000 OA
ATOM     38  H8  UNL     1      24.013  -8.653 -44.341  0.00  0.00    +0.000 HD
BRANCH  35  42
ATOM     39  C3  UNL     1      25.047  -8.601 -39.634  0.00  0.00    +0.000 C 
ATOM     40  C4  UNL     1      24.445  -7.391 -40.012  0.00  0.00    +0.000 C 
ATOM     41  C5  UNL     1      23.943  -7.223 -41.306  0.00  0.00    +0.000 C 
ATOM     42  C6  UNL     1      24.015  -8.275 -42.237  0.00  0.00    +0.000 C 
ATOM     43  C32 UNL     1      24.625  -9.480 -41.860  0.00  0.00    +0.000 C 
ATOM     44  C33 UNL     1      25.127  -9.647 -40.565  0.00  0.00    +0.000 C 
BRANCH  39  46
ATOM     45  C1  UNL     1      24.617  -8.153 -37.219  0.00  0.00    +0.000 C 
ATOM     46  C2  UNL     1      25.563  -8.788 -38.233  0.00  0.00    +0.000 C 
ENDBRANCH  39  46
ENDBRANCH  35  42
ENDBRANCH  34  36
ENDBRANCH  29  34
ENDBRANCH  28  31
ENDBRANCH  27  28
ENDBRANCH   1  27
TORSDOF 10
