REMARK  Name = resultss/4CJN/ligands/lig_433_t0.pdb
REMARK  6 active torsions:
REMARK  status: ('A' for Active; 'I' for Inactive)
REMARK    1  A    between atoms: C9_1  and  C1_22
REMARK    2  A    between atoms: C19_12  and  C20_15
REMARK    3  A    between atoms: N1_23  and  N2_25
REMARK    4  A    between atoms: N2_25  and  C2_27
REMARK    5  A    between atoms: C2_27  and  N3_29
REMARK    6  A    between atoms: N3_29  and  C3_31
REMARK                            x       y       z     vdW  Elec       q    Type
REMARK                         _______ _______ _______ _____ _____    ______ ____
ROOT
ATOM      1  C9  UNL     1      27.932  -9.947 -37.663  0.00  0.00    +0.000 C 
ATOM      2  C10 UNL     1      29.141  -9.899 -36.936  0.00  0.00    +0.000 C 
ATOM      3  C11 UNL     1      29.061  -9.561 -35.591  0.00  0.00    +0.000 A 
ATOM      4  C12 UNL     1      27.860  -9.275 -34.977  0.00  0.00    +0.000 A 
ATOM      5  N4  UNL     1      28.028  -9.036 -33.654  0.00  0.00    +0.000 N 
ATOM      6  C13 UNL     1      29.357  -9.156 -33.448  0.00  0.00    +0.000 A 
ATOM      7  C14 UNL     1      30.037  -9.014 -32.238  0.00  0.00    +0.000 C 
ATOM      8  C15 UNL     1      31.431  -9.204 -32.241  0.00  0.00    +0.000 C 
ATOM      9  C16 UNL     1      32.110  -9.533 -33.436  0.00  0.00    +0.000 C 
ATOM     10  C17 UNL     1      31.403  -9.675 -34.644  0.00  0.00    +0.000 C 
ATOM     11  C18 UNL     1      30.024  -9.475 -34.611  0.00  0.00    +0.000 A 
ATOM     12  C19 UNL     1      26.669  -9.311 -35.713  0.00  0.00    +0.000 C 
ATOM     13  N5  UNL     1      26.749  -9.657 -37.034  0.00  0.00    +0.000 NA
ATOM     14  H8  UNL     1      27.299  -8.837 -32.935  0.00  0.00    +0.000 HD
ENDROOT
BRANCH  12  15
ATOM     15  C20 UNL     1      25.351  -8.991 -35.127  0.00  0.00    +0.000 C 
ATOM     16  C21 UNL     1      25.021  -9.396 -33.821  0.00  0.00    +0.000 C 
ATOM     17  C22 UNL     1      23.783  -9.055 -33.268  0.00  0.00    +0.000 C 
ATOM     18  C23 UNL     1      22.869  -8.298 -34.007  0.00  0.00    +0.000 C 
ATOM     19  C24 UNL     1      23.197  -7.875 -35.298  0.00  0.00    +0.000 C 
ATOM     20  C25 UNL     1      24.435  -8.212 -35.855  0.00  0.00    +0.000 C 
ENDBRANCH  12  15
BRANCH   1  22
ATOM     21  O1  UNL     1      26.859 -10.214 -39.764  0.00  0.00    +0.000 OA
ATOM     22  C1  UNL     1      27.926 -10.307 -39.099  0.00  0.00    +0.000 C 
ATOM     23  N1  UNL     1      29.128 -10.758 -39.742  0.00  0.00    +0.000 N 
ATOM     24  H1  UNL     1      30.016 -10.785 -39.193  0.00  0.00    +0.000 HD
BRANCH  23  25
ATOM     25  N2  UNL     1      29.120 -11.190 -41.083  0.00  0.00    +0.000 N 
ATOM     26  H2  UNL     1      28.428 -11.912 -41.385  0.00  0.00    +0.000 HD
BRANCH  25  27
ATOM     27  C2  UNL     1      30.082 -10.737 -42.048  0.00  0.00    +0.000 C 
ATOM     28  S1  UNL     1      29.654  -9.635 -43.193  0.00  0.00    +0.000 S 
BRANCH  27  29
ATOM     29  N3  UNL     1      31.334 -11.436 -42.157  0.00  0.00    +0.000 N 
ATOM     30  H3  UNL     1      31.772 -11.783 -41.274  0.00  0.00    +0.000 HD
BRANCH  29  31
ATOM     31  C3  UNL     1      32.015 -11.704 -43.395  0.00  0.00    +0.000 C 
ATOM     32  C4  UNL     1      32.767 -10.685 -44.002  0.00  0.00    +0.000 C 
ATOM     33  C5  UNL     1      33.416 -10.915 -45.218  0.00  0.00    +0.000 C 
ATOM     34  C6  UNL     1      33.307 -12.159 -45.847  0.00  0.00    +0.000 C 
ATOM     35  F1  UNL     1      33.937 -12.377 -47.028  0.00  0.00    +0.000 F 
ATOM     36  C7  UNL     1      32.540 -13.172 -45.263  0.00  0.00    +0.000 C 
ATOM     37  F2  UNL     1      32.419 -14.374 -45.881  0.00  0.00    +0.000 F 
ATOM     38  C8  UNL     1      31.889 -12.944 -44.046  0.00  0.00    +0.000 C 
ENDBRANCH  29  31
ENDBRANCH  27  29
ENDBRANCH  25  27
ENDBRANCH  23  25
ENDBRANCH   1  22
TORSDOF 6
