REMARK  Name = resultss/4CJN/ligands/lig_428_t0.pdb
REMARK  8 active torsions:
REMARK  status: ('A' for Active; 'I' for Inactive)
REMARK    1  A    between atoms: C9_1  and  C8_22
REMARK    2  A    between atoms: C19_12  and  C20_15
REMARK    3  A    between atoms: N3_21  and  N2_25
REMARK    4  A    between atoms: N2_25  and  C7_27
REMARK    5  A    between atoms: C7_27  and  N1_29
REMARK    6  A    between atoms: N1_29  and  C6_34
REMARK    7  A    between atoms: C3_31  and  O1_37
REMARK    8  A    between atoms: O1_37  and  C2_39
REMARK                            x       y       z     vdW  Elec       q    Type
REMARK                         _______ _______ _______ _____ _____    ______ ____
ROOT
ATOM      1  C9  UNL     1      27.996  -9.979 -37.535  0.00  0.00    +0.000 C 
ATOM      2  C10 UNL     1      29.175  -9.976 -36.759  0.00  0.00    +0.000 C 
ATOM      3  C11 UNL     1      29.057  -9.611 -35.422  0.00  0.00    +0.000 A 
ATOM      4  C12 UNL     1      27.845  -9.271 -34.861  0.00  0.00    +0.000 A 
ATOM      5  N4  UNL     1      27.992  -8.890 -33.569  0.00  0.00    +0.000 N 
ATOM      6  C13 UNL     1      29.313  -9.011 -33.321  0.00  0.00    +0.000 A 
ATOM      7  C14 UNL     1      29.976  -8.719 -32.129  0.00  0.00    +0.000 C 
ATOM      8  C15 UNL     1      31.372  -8.893 -32.091  0.00  0.00    +0.000 C 
ATOM      9  C16 UNL     1      32.071  -9.345 -33.234  0.00  0.00    +0.000 C 
ATOM     10  C17 UNL     1      31.382  -9.627 -34.427  0.00  0.00    +0.000 C 
ATOM     11  C18 UNL     1      29.999  -9.452 -34.433  0.00  0.00    +0.000 A 
ATOM     12  C19 UNL     1      26.678  -9.293 -35.637  0.00  0.00    +0.000 C 
ATOM     13  N5  UNL     1      26.800  -9.637 -36.955  0.00  0.00    +0.000 NA
ATOM     14  H12 UNL     1      27.261  -8.539 -32.911  0.00  0.00    +0.000 HD
ENDROOT
BRANCH  12  15
ATOM     15  C20 UNL     1      25.346  -8.954 -35.094  0.00  0.00    +0.000 C 
ATOM     16  C21 UNL     1      24.438  -8.176 -35.835  0.00  0.00    +0.000 C 
ATOM     17  C22 UNL     1      23.188  -7.850 -35.300  0.00  0.00    +0.000 C 
ATOM     18  C23 UNL     1      22.839  -8.284 -34.019  0.00  0.00    +0.000 C 
ATOM     19  C24 UNL     1      23.744  -9.038 -33.267  0.00  0.00    +0.000 C 
ATOM     20  C25 UNL     1      24.995  -9.367 -33.798  0.00  0.00    +0.000 C 
ENDBRANCH  12  15
BRANCH   1  22
ATOM     21  N3  UNL     1      29.289 -10.448 -39.659  0.00  0.00    +0.000 N 
ATOM     22  C8  UNL     1      28.035 -10.337 -38.968  0.00  0.00    +0.000 C 
ATOM     23  O2  UNL     1      26.957 -10.527 -39.595  0.00  0.00    +0.000 OA
ATOM     24  H10 UNL     1      30.133  -9.998 -39.243  0.00  0.00    +0.000 HD
BRANCH  21  25
ATOM     25  N2  UNL     1      29.376 -10.919 -40.982  0.00  0.00    +0.000 N 
ATOM     26  H9  UNL     1      28.749 -11.705 -41.270  0.00  0.00    +0.000 HD
BRANCH  25  27
ATOM     27  C7  UNL     1      30.192 -10.293 -41.982  0.00  0.00    +0.000 C 
ATOM     28  S1  UNL     1      29.487  -9.398 -43.169  0.00  0.00    +0.000 S 
BRANCH  27  29
ATOM     29  N1  UNL     1      31.563 -10.702 -42.115  0.00  0.00    +0.000 N 
ATOM     30  H8  UNL     1      32.224 -10.451 -41.346  0.00  0.00    +0.000 HD
BRANCH  29  34
ATOM     31  C3  UNL     1      33.077 -12.782 -45.508  0.00  0.00    +0.000 C 
ATOM     32  C4  UNL     1      32.356 -13.470 -44.525  0.00  0.00    +0.000 C 
ATOM     33  C5  UNL     1      31.860 -12.799 -43.404  0.00  0.00    +0.000 C 
ATOM     34  C6  UNL     1      32.086 -11.420 -43.246  0.00  0.00    +0.000 C 
ATOM     35  C26 UNL     1      32.781 -10.724 -44.244  0.00  0.00    +0.000 C 
ATOM     36  C27 UNL     1      33.282 -11.396 -45.363  0.00  0.00    +0.000 C 
BRANCH  31  37
ATOM     37  O1  UNL     1      33.559 -13.512 -46.607  0.00  0.00    +0.000 OA
BRANCH  37  39
ATOM     38  C1  UNL     1      33.887 -15.757 -47.482  0.00  0.00    +0.000 C 
ATOM     39  C2  UNL     1      32.902 -14.622 -47.221  0.00  0.00    +0.000 C 
ENDBRANCH  37  39
ENDBRANCH  31  37
ENDBRANCH  29  34
ENDBRANCH  27  29
ENDBRANCH  25  27
ENDBRANCH  21  25
ENDBRANCH   1  22
TORSDOF 8
