REMARK  Name = resultss/4CJN/ligands/lig_239_t0.pdb
REMARK  6 active torsions:
REMARK  status: ('A' for Active; 'I' for Inactive)
REMARK    1  A    between atoms: C7_1  and  N1_9
REMARK    2  A    between atoms: C11_5  and  C12_19
REMARK    3  A    between atoms: C6_7  and  C5_14
REMARK    4  A    between atoms: C2_11  and  O1_18
REMARK    5  A    between atoms: C12_19  and  C13_21
REMARK    6  A    between atoms: C13_21  and  C14_22
REMARK                            x       y       z     vdW  Elec       q    Type
REMARK                         _______ _______ _______ _____ _____    ______ ____
ROOT
ATOM      1  C7  UNL     1      28.004  -9.122 -40.137  0.00  0.00    +0.000 C 
ATOM      2  C8  UNL     1      29.098  -9.491 -40.932  0.00  0.00    +0.000 C 
ATOM      3  C9  UNL     1      28.940  -9.683 -42.304  0.00  0.00    +0.000 C 
ATOM      4  C10 UNL     1      27.687  -9.519 -42.898  0.00  0.00    +0.000 C 
ATOM      5  C11 UNL     1      26.569  -9.166 -42.120  0.00  0.00    +0.000 C 
ATOM      6  C22 UNL     1      26.737  -8.981 -40.733  0.00  0.00    +0.000 C 
ENDROOT
BRANCH   1   9
ATOM      7  C6  UNL     1      28.202 -10.041 -37.781  0.00  0.00    +0.000 C 
ATOM      8  O2  UNL     1      27.647 -11.133 -38.083  0.00  0.00    +0.000 OA
ATOM      9  N1  UNL     1      28.186  -8.952 -38.720  0.00  0.00    +0.000 N 
ATOM     10  H6  UNL     1      28.190  -7.978 -38.341  0.00  0.00    +0.000 HD
BRANCH   7  14
ATOM     11  C2  UNL     1      30.005  -9.553 -33.900  0.00  0.00    +0.000 C 
ATOM     12  C3  UNL     1      28.629  -9.816 -34.014  0.00  0.00    +0.000 C 
ATOM     13  C4  UNL     1      28.041  -9.975 -35.272  0.00  0.00    +0.000 C 
ATOM     14  C5  UNL     1      28.818  -9.882 -36.441  0.00  0.00    +0.000 C 
ATOM     15  C23 UNL     1      30.192  -9.608 -36.322  0.00  0.00    +0.000 C 
ATOM     16  C24 UNL     1      30.776  -9.450 -35.062  0.00  0.00    +0.000 C 
BRANCH  11  18
ATOM     17  C1  UNL     1      31.581 -10.305 -32.111  0.00  0.00    +0.000 C 
ATOM     18  O1  UNL     1      30.641  -9.388 -32.660  0.00  0.00    +0.000 OA
ENDBRANCH  11  18
ENDBRANCH   7  14
ENDBRANCH   1   9
BRANCH   5  19
ATOM     19  C12 UNL     1      25.223  -9.007 -42.730  0.00  0.00    +0.000 C 
ATOM     20  O3  UNL     1      24.558 -10.038 -43.030  0.00  0.00    +0.000 OA
BRANCH  19  21
ATOM     21  C13 UNL     1      24.656  -7.645 -43.048  0.00  0.00    +0.000 C 
BRANCH  21  22
ATOM     22  C14 UNL     1      24.821  -7.292 -44.503  0.00  0.00    +0.000 A 
ATOM     23  N2  UNL     1      26.071  -7.069 -44.994  0.00  0.00    +0.000 NA
ATOM     24  C15 UNL     1      26.276  -6.774 -46.304  0.00  0.00    +0.000 A 
ATOM     25  C16 UNL     1      27.569  -6.543 -46.785  0.00  0.00    +0.000 C 
ATOM     26  C17 UNL     1      27.767  -6.242 -48.136  0.00  0.00    +0.000 C 
ATOM     27  C18 UNL     1      26.676  -6.171 -49.008  0.00  0.00    +0.000 C 
ATOM     28  C19 UNL     1      25.380  -6.402 -48.534  0.00  0.00    +0.000 C 
ATOM     29  C20 UNL     1      25.172  -6.706 -47.180  0.00  0.00    +0.000 A 
ATOM     30  N3  UNL     1      23.920  -6.937 -46.694  0.00  0.00    +0.000 N 
ATOM     31  C21 UNL     1      23.720  -7.233 -45.379  0.00  0.00    +0.000 A 
ATOM     32  O4  UNL     1      22.552  -7.454 -44.958  0.00  0.00    +0.000 OA
ATOM     33  H16 UNL     1      23.095  -6.893 -47.336  0.00  0.00    +0.000 HD
ENDBRANCH  21  22
ENDBRANCH  19  21
ENDBRANCH   5  19
TORSDOF 6
