REMARK  Name = resultss/4CJN/ligands/lig_419_t1.pdb
REMARK  6 active torsions:
REMARK  status: ('A' for Active; 'I' for Inactive)
REMARK    1  A    between atoms: C1_2  and  C10_5
REMARK    2  A    between atoms: N1_3  and  N2_25
REMARK    3  A    between atoms: C20_16  and  C21_19
REMARK    4  A    between atoms: C2_26  and  S1_39
REMARK    5  A    between atoms: N3_27  and  C3_29
REMARK    6  A    between atoms: C8_34  and  C9_35
REMARK                            x       y       z     vdW  Elec       q    Type
REMARK                         _______ _______ _______ _____ _____    ______ ____
ROOT
ATOM      1  O1  UNL     1      25.759  -8.845 -38.757  0.00  0.00    +0.000 OA
ATOM      2  C1  UNL     1      26.606  -7.995 -39.146  0.00  0.00    +0.000 C 
ATOM      3  N1  UNL     1      27.036  -6.960 -38.251  0.00  0.00    +0.000 N 
ATOM      4  H1  UNL     1      27.452  -6.091 -38.652  0.00  0.00    +0.000 HD
ENDROOT
BRANCH   2   5
ATOM      5  C10 UNL     1      27.138  -8.061 -40.523  0.00  0.00    +0.000 C 
ATOM      6  C11 UNL     1      26.451  -7.456 -41.596  0.00  0.00    +0.000 C 
ATOM      7  C12 UNL     1      27.022  -7.563 -42.860  0.00  0.00    +0.000 A 
ATOM      8  C13 UNL     1      28.208  -8.235 -43.072  0.00  0.00    +0.000 A 
ATOM      9  N4  UNL     1      28.596  -8.150 -44.368  0.00  0.00    +0.000 N 
ATOM     10  C14 UNL     1      27.626  -7.429 -44.972  0.00  0.00    +0.000 A 
ATOM     11  C15 UNL     1      27.570  -7.051 -46.314  0.00  0.00    +0.000 C 
ATOM     12  C16 UNL     1      26.475  -6.273 -46.735  0.00  0.00    +0.000 C 
ATOM     13  C17 UNL     1      25.473  -5.888 -45.816  0.00  0.00    +0.000 C 
ATOM     14  C18 UNL     1      25.553  -6.275 -44.465  0.00  0.00    +0.000 C 
ATOM     15  C19 UNL     1      26.644  -7.052 -44.079  0.00  0.00    +0.000 A 
ATOM     16  C20 UNL     1      28.873  -8.846 -42.001  0.00  0.00    +0.000 C 
ATOM     17  N5  UNL     1      28.314  -8.728 -40.758  0.00  0.00    +0.000 NA
ATOM     18  H9  UNL     1      29.467  -8.518 -44.808  0.00  0.00    +0.000 HD
BRANCH  16  19
ATOM     19  C21 UNL     1      30.136  -9.596 -42.159  0.00  0.00    +0.000 C 
ATOM     20  C22 UNL     1      30.245 -10.644 -43.089  0.00  0.00    +0.000 C 
ATOM     21  C23 UNL     1      31.440 -11.366 -43.201  0.00  0.00    +0.000 C 
ATOM     22  C24 UNL     1      32.525 -11.056 -42.378  0.00  0.00    +0.000 C 
ATOM     23  C25 UNL     1      32.418 -10.030 -41.437  0.00  0.00    +0.000 C 
ATOM     24  C26 UNL     1      31.227  -9.307 -41.319  0.00  0.00    +0.000 C 
ENDBRANCH  16  19
ENDBRANCH   2   5
BRANCH   3  25
ATOM     25  N2  UNL     1      26.618  -6.924 -36.909  0.00  0.00    +0.000 NA
ATOM     26  C2  UNL     1      27.433  -6.823 -35.899  0.00  0.00    +0.000 C 
ATOM     27  N3  UNL     1      26.918  -6.797 -34.561  0.00  0.00    +0.000 N 
ATOM     28  H3  UNL     1      27.563  -6.496 -33.796  0.00  0.00    +0.000 HD
BRANCH  27  29
ATOM     29  C3  UNL     1      25.551  -7.105 -34.232  0.00  0.00    +0.000 C 
ATOM     30  C4  UNL     1      24.630  -6.059 -34.043  0.00  0.00    +0.000 C 
ATOM     31  C5  UNL     1      23.291  -6.333 -33.770  0.00  0.00    +0.000 C 
ATOM     32  C6  UNL     1      22.850  -7.653 -33.694  0.00  0.00    +0.000 C 
ATOM     33  C7  UNL     1      23.748  -8.704 -33.888  0.00  0.00    +0.000 C 
ATOM     34  C8  UNL     1      25.110  -8.450 -34.146  0.00  0.00    +0.000 C 
BRANCH  34  35
ATOM     35  C9  UNL     1      26.070  -9.603 -34.357  0.00  0.00    +0.000 C 
ATOM     36  F1  UNL     1      27.283  -9.377 -33.729  0.00  0.00    +0.000 F 
ATOM     37  F2  UNL     1      25.516 -10.763 -33.843  0.00  0.00    +0.000 F 
ATOM     38  F3  UNL     1      26.319  -9.777 -35.709  0.00  0.00    +0.000 F 
ENDBRANCH  34  35
ENDBRANCH  27  29
BRANCH  26  39
ATOM     39  S1  UNL     1      29.196  -6.569 -36.145  0.00  0.00    +0.000 S 
ATOM     40  H2  UNL     1      29.180  -5.349 -35.446  0.00  0.00    +0.000 HD
ENDBRANCH  26  39
ENDBRANCH   3  25
TORSDOF 6
