REMARK  Name = resultss/4CJN/ligands/lig_96_t0.pdb
REMARK  10 active torsions:
REMARK  status: ('A' for Active; 'I' for Inactive)
REMARK    1  A    between atoms: C6_6  and  C8_28
REMARK    2  A    between atoms: C15_8  and  O3_38
REMARK    3  A    between atoms: C26_13  and  C27_14
REMARK    4  A    between atoms: C28_15  and  C29_16
REMARK    5  A    between atoms: C32_19  and  C33_23
REMARK    6  A    between atoms: C8_28  and  O1_29
REMARK    7  A    between atoms: O1_29  and  C9_30
REMARK    8  A    between atoms: C9_30  and  C10_32
REMARK    9  A    between atoms: O3_38  and  C16_39
REMARK   10  A    between atoms: C16_39  and  C17_41
REMARK                            x       y       z     vdW  Elec       q    Type
REMARK                         _______ _______ _______ _____ _____    ______ ____
ROOT
ATOM      1  C1  UNL     1      26.082  -6.913 -47.067  0.00  0.00    +0.000 C 
ATOM      2  C2  UNL     1      26.479  -6.372 -45.900  0.00  0.00    +0.000 C 
ATOM      3  C3  UNL     1      27.945  -6.253 -45.579  0.00  0.00    +0.000 C 
ATOM      4  C4  UNL     1      28.292  -7.185 -44.410  0.00  0.00    +0.000 C 
ATOM      5  C5  UNL     1      27.336  -6.976 -43.191  0.00  0.00    +0.000 C 
ATOM      6  C6  UNL     1      27.770  -7.703 -41.849  0.00  0.00    +0.000 C 
ATOM      7  C7  UNL     1      29.188  -7.222 -41.427  0.00  0.00    +0.000 C 
ATOM      8  C15 UNL     1      26.792  -7.254 -40.713  0.00  0.00    +0.000 C 
ATOM      9  C22 UNL     1      25.317  -7.479 -41.077  0.00  0.00    +0.000 C 
ATOM     10  C23 UNL     1      24.929  -6.733 -42.359  0.00  0.00    +0.000 C 
ATOM     11  C24 UNL     1      25.803  -7.114 -43.591  0.00  0.00    +0.000 C 
ATOM     12  C25 UNL     1      25.423  -8.549 -44.088  0.00  0.00    +0.000 C 
ATOM     13  C26 UNL     1      25.532  -6.077 -44.744  0.00  0.00    +0.000 C 
ENDROOT
BRANCH  13  14
ATOM     14  C27 UNL     1      24.075  -5.940 -45.157  0.00  0.00    +0.000 C 
ATOM     15  C28 UNL     1      23.323  -7.017 -45.405  0.00  0.00    +0.000 C 
BRANCH  15  16
ATOM     16  C29 UNL     1      21.908  -6.938 -45.821  0.00  0.00    +0.000 C 
ATOM     17  C30 UNL     1      21.398  -7.214 -47.022  0.00  0.00    +0.000 C 
ATOM     18  C31 UNL     1      19.947  -7.024 -46.941  0.00  0.00    +0.000 C 
ATOM     19  C32 UNL     1      19.088  -7.232 -47.945  0.00  0.00    +0.000 C 
ATOM     20  O6  UNL     1      19.603  -6.626 -45.656  0.00  0.00    +0.000 OA
ATOM     21  C37 UNL     1      20.795  -6.575 -44.954  0.00  0.00    +0.000 C 
ATOM     22  O7  UNL     1      20.881  -6.262 -43.737  0.00  0.00    +0.000 OA
BRANCH  19  23
ATOM     23  C33 UNL     1      17.632  -7.017 -47.847  0.00  0.00    +0.000 C 
ATOM     24  C34 UNL     1      16.875  -6.039 -48.474  0.00  0.00    +0.000 C 
ATOM     25  C35 UNL     1      15.573  -6.275 -48.089  0.00  0.00    +0.000 C 
ATOM     26  C36 UNL     1      15.611  -7.374 -47.257  0.00  0.00    +0.000 C 
ATOM     27  O5  UNL     1      16.849  -7.796 -47.136  0.00  0.00    +0.000 OA
ENDBRANCH  19  23
ENDBRANCH  15  16
ENDBRANCH  13  14
BRANCH   6  28
ATOM     28  C8  UNL     1      27.815  -9.259 -41.942  0.00  0.00    +0.000 C 
BRANCH  28  29
ATOM     29  O1  UNL     1      29.084  -9.721 -42.396  0.00  0.00    +0.000 OA
BRANCH  29  30
ATOM     30  C9  UNL     1      29.661 -10.917 -41.958  0.00  0.00    +0.000 C 
ATOM     31  O2  UNL     1      29.040 -11.657 -41.144  0.00  0.00    +0.000 OA
BRANCH  30  32
ATOM     32  C10 UNL     1      30.998 -11.310 -42.453  0.00  0.00    +0.000 C 
ATOM     33  C11 UNL     1      31.192 -12.525 -43.132  0.00  0.00    +0.000 C 
ATOM     34  C12 UNL     1      32.463 -12.880 -43.586  0.00  0.00    +0.000 C 
ATOM     35  C13 UNL     1      33.536 -12.018 -43.362  0.00  0.00    +0.000 C 
ATOM     36  N1  UNL     1      33.338 -10.844 -42.706  0.00  0.00    +0.000 NA
ATOM     37  C14 UNL     1      32.111 -10.475 -42.251  0.00  0.00    +0.000 C 
ENDBRANCH  30  32
ENDBRANCH  29  30
ENDBRANCH  28  29
ENDBRANCH   6  28
BRANCH   8  38
ATOM     38  O3  UNL     1      27.091  -7.946 -39.497  0.00  0.00    +0.000 OA
BRANCH  38  39
ATOM     39  C16 UNL     1      27.173  -7.326 -38.244  0.00  0.00    +0.000 C 
ATOM     40  O4  UNL     1      27.581  -6.134 -38.150  0.00  0.00    +0.000 OA
BRANCH  39  41
ATOM     41  C17 UNL     1      26.782  -8.074 -37.032  0.00  0.00    +0.000 C 
ATOM     42  C18 UNL     1      26.055  -7.455 -36.002  0.00  0.00    +0.000 C 
ATOM     43  C19 UNL     1      25.680  -8.183 -34.871  0.00  0.00    +0.000 C 
ATOM     44  C20 UNL     1      26.039  -9.528 -34.775  0.00  0.00    +0.000 C 
ATOM     45  N2  UNL     1      26.748 -10.117 -35.774  0.00  0.00    +0.000 NA
ATOM     46  C21 UNL     1      27.124  -9.431 -36.886  0.00  0.00    +0.000 C 
ENDBRANCH  39  41
ENDBRANCH  38  39
ENDBRANCH   8  38
TORSDOF 10
