REMARK  Name = resultss/4CJN/ligands/lig_102_t0.pdb
REMARK  6 active torsions:
REMARK  status: ('A' for Active; 'I' for Inactive)
REMARK    1  A    between atoms: C6_6  and  C8_31
REMARK    2  A    between atoms: C9_8  and  O2_14
REMARK    3  A    between atoms: C14_13  and  C15_16
REMARK    4  A    between atoms: C16_17  and  C17_18
REMARK    5  A    between atoms: C20_21  and  C21_25
REMARK    6  A    between atoms: C8_31  and  O1_32
REMARK                            x       y       z     vdW  Elec       q    Type
REMARK                         _______ _______ _______ _____ _____    ______ ____
ROOT
ATOM      1  C1  UNL     1      29.757  -7.698 -39.369  0.00  0.00    +0.000 C 
ATOM      2  C2  UNL     1      29.112  -7.333 -38.242  0.00  0.00    +0.000 C 
ATOM      3  C3  UNL     1      29.887  -6.981 -36.997  0.00  0.00    +0.000 C 
ATOM      4  C4  UNL     1      29.500  -7.921 -35.848  0.00  0.00    +0.000 C 
ATOM      5  C5  UNL     1      27.957  -8.032 -35.661  0.00  0.00    +0.000 C 
ATOM      6  C6  UNL     1      27.520  -8.816 -34.343  0.00  0.00    +0.000 C 
ATOM      7  C7  UNL     1      27.676  -7.858 -33.125  0.00  0.00    +0.000 C 
ATOM      8  C9  UNL     1      25.998  -9.220 -34.408  0.00  0.00    +0.000 C 
ATOM      9  C10 UNL     1      25.204  -8.271 -35.312  0.00  0.00    +0.000 C 
ATOM     10  C11 UNL     1      25.644  -8.397 -36.772  0.00  0.00    +0.000 C 
ATOM     11  C12 UNL     1      27.200  -8.434 -37.002  0.00  0.00    +0.000 C 
ATOM     12  C13 UNL     1      27.640  -9.857 -37.471  0.00  0.00    +0.000 C 
ATOM     13  C14 UNL     1      27.597  -7.365 -38.097  0.00  0.00    +0.000 C 
ENDROOT
BRANCH   8  14
ATOM     14  O2  UNL     1      25.831 -10.547 -34.848  0.00  0.00    +0.000 OA
ATOM     15  H15 UNL     1      25.430 -10.513 -35.759  0.00  0.00    +0.000 HD
ENDBRANCH   8  14
BRANCH  13  16
ATOM     16  C15 UNL     1      26.871  -7.307 -39.443  0.00  0.00    +0.000 C 
ATOM     17  C16 UNL     1      26.560  -8.339 -40.240  0.00  0.00    +0.000 C 
BRANCH  17  18
ATOM     18  C17 UNL     1      25.836  -8.169 -41.512  0.00  0.00    +0.000 C 
ATOM     19  C18 UNL     1      25.632  -7.035 -42.177  0.00  0.00    +0.000 C 
ATOM     20  C19 UNL     1      24.749  -7.341 -43.309  0.00  0.00    +0.000 C 
ATOM     21  C20 UNL     1      24.311  -6.452 -44.209  0.00  0.00    +0.000 C 
ATOM     22  O3  UNL     1      24.449  -8.697 -43.308  0.00  0.00    +0.000 OA
ATOM     23  C27 UNL     1      25.096  -9.217 -42.204  0.00  0.00    +0.000 C 
ATOM     24  O4  UNL     1      25.052 -10.428 -41.868  0.00  0.00    +0.000 OA
BRANCH  21  25
ATOM     25  C21 UNL     1      23.415  -6.792 -45.339  0.00  0.00    +0.000 C 
ATOM     26  C22 UNL     1      23.896  -7.354 -46.538  0.00  0.00    +0.000 C 
ATOM     27  C23 UNL     1      23.015  -7.668 -47.577  0.00  0.00    +0.000 C 
ATOM     28  C24 UNL     1      21.645  -7.446 -47.425  0.00  0.00    +0.000 C 
ATOM     29  C25 UNL     1      21.153  -6.936 -46.222  0.00  0.00    +0.000 C 
ATOM     30  C26 UNL     1      22.032  -6.611 -45.183  0.00  0.00    +0.000 C 
ENDBRANCH  21  25
ENDBRANCH  17  18
ENDBRANCH  13  16
BRANCH   6  31
ATOM     31  C8  UNL     1      28.388 -10.090 -34.058  0.00  0.00    +0.000 C 
BRANCH  31  32
ATOM     32  O1  UNL     1      29.358  -9.871 -33.064  0.00  0.00    +0.000 OA
ATOM     33  H13 UNL     1      29.052  -9.103 -32.514  0.00  0.00    +0.000 HD
ENDBRANCH  31  32
ENDBRANCH   6  31
TORSDOF 6
