REMARK  Name = resultss/4CJN/ligands/lig_343_t0.pdb
REMARK  10 active torsions:
REMARK  status: ('A' for Active; 'I' for Inactive)
REMARK    1  A    between atoms: C2_1  and  O1_28
REMARK    2  A    between atoms: C4_3  and  C5_7
REMARK    3  A    between atoms: C21_6  and  O3_29
REMARK    4  A    between atoms: N2_17  and  N3_19
REMARK    5  A    between atoms: N3_19  and  C13_21
REMARK    6  A    between atoms: O3_29  and  C22_30
REMARK    7  A    between atoms: C22_30  and  C23_31
REMARK    8  A    between atoms: N4_33  and  C25_36
REMARK    9  A    between atoms: C25_36  and  C26_37
REMARK   10  A    between atoms: N5_39  and  C27_41
REMARK                            x       y       z     vdW  Elec       q    Type
REMARK                         _______ _______ _______ _____ _____    ______ ____
ROOT
ATOM      1  C2  UNL     1      26.172  -8.395 -40.010  0.00  0.00    +0.000 C 
ATOM      2  C3  UNL     1      26.049  -8.373 -38.608  0.00  0.00    +0.000 C 
ATOM      3  C4  UNL     1      27.002  -7.716 -37.815  0.00  0.00    +0.000 C 
ATOM      4  C19 UNL     1      28.065  -7.046 -38.435  0.00  0.00    +0.000 C 
ATOM      5  C20 UNL     1      28.204  -7.075 -39.822  0.00  0.00    +0.000 C 
ATOM      6  C21 UNL     1      27.264  -7.755 -40.622  0.00  0.00    +0.000 C 
ENDROOT
BRANCH   3   7
ATOM      7  C5  UNL     1      26.854  -7.659 -36.308  0.00  0.00    +0.000 C 
ATOM      8  N1  UNL     1      25.594  -6.988 -35.975  0.00  0.00    +0.000 N 
ATOM      9  C6  UNL     1      24.767  -7.372 -34.869  0.00  0.00    +0.000 C 
ATOM     10  C7  UNL     1      23.748  -6.515 -34.415  0.00  0.00    +0.000 C 
ATOM     11  C8  UNL     1      22.931  -6.893 -33.346  0.00  0.00    +0.000 C 
ATOM     12  C9  UNL     1      23.110  -8.138 -32.738  0.00  0.00    +0.000 C 
ATOM     13  C10 UNL     1      24.107  -9.004 -33.195  0.00  0.00    +0.000 C 
ATOM     14  C11 UNL     1      24.944  -8.620 -34.259  0.00  0.00    +0.000 C 
ATOM     15  C12 UNL     1      26.001  -9.505 -34.768  0.00  0.00    +0.000 C 
ATOM     16  O2  UNL     1      26.103 -10.686 -34.334  0.00  0.00    +0.000 OA
ATOM     17  N2  UNL     1      26.933  -9.025 -35.752  0.00  0.00    +0.000 N 
ATOM     18  H6  UNL     1      25.403  -6.069 -36.437  0.00  0.00    +0.000 HD
BRANCH  17  19
ATOM     19  N3  UNL     1      27.926  -9.909 -36.219  0.00  0.00    +0.000 N 
ATOM     20  H11 UNL     1      27.638 -10.722 -36.806  0.00  0.00    +0.000 HD
BRANCH  19  21
ATOM     21  C13 UNL     1      29.320  -9.725 -35.923  0.00  0.00    +0.000 C 
ATOM     22  C14 UNL     1      29.772  -9.638 -34.595  0.00  0.00    +0.000 C 
ATOM     23  C15 UNL     1      31.136  -9.507 -34.324  0.00  0.00    +0.000 C 
ATOM     24  C16 UNL     1      32.059  -9.461 -35.371  0.00  0.00    +0.000 C 
ATOM     25  C17 UNL     1      31.619  -9.556 -36.693  0.00  0.00    +0.000 C 
ATOM     26  C18 UNL     1      30.256  -9.693 -36.969  0.00  0.00    +0.000 C 
ENDBRANCH  19  21
ENDBRANCH  17  19
ENDBRANCH   3   7
BRANCH   1  28
ATOM     27  C1  UNL     1      25.316 -10.376 -41.278  0.00  0.00    +0.000 C 
ATOM     28  O1  UNL     1      25.224  -9.028 -40.829  0.00  0.00    +0.000 OA
ENDBRANCH   1  28
BRANCH   6  29
ATOM     29  O3  UNL     1      27.381  -7.813 -42.022  0.00  0.00    +0.000 OA
BRANCH  29  30
ATOM     30  C22 UNL     1      27.273  -6.680 -42.880  0.00  0.00    +0.000 C 
BRANCH  30  31
ATOM     31  C23 UNL     1      26.247  -6.941 -43.933  0.00  0.00    +0.000 C 
ATOM     32  C24 UNL     1      26.414  -6.827 -45.297  0.00  0.00    +0.000 C 
ATOM     33  N4  UNL     1      25.221  -7.113 -45.840  0.00  0.00    +0.000 N 
ATOM     34  N6  UNL     1      24.368  -7.374 -44.862  0.00  0.00    +0.000 NA
ATOM     35  N7  UNL     1      24.969  -7.279 -43.685  0.00  0.00    +0.000 NA
BRANCH  33  36
ATOM     36  C25 UNL     1      24.865  -7.049 -47.253  0.00  0.00    +0.000 C 
BRANCH  36  37
ATOM     37  C26 UNL     1      23.419  -7.393 -47.431  0.00  0.00    +0.000 C 
ATOM     38  O4  UNL     1      23.102  -8.557 -47.795  0.00  0.00    +0.000 OA
ATOM     39  N5  UNL     1      22.417  -6.378 -47.273  0.00  0.00    +0.000 N 
ATOM     40  H24 UNL     1      22.731  -5.379 -47.282  0.00  0.00    +0.000 HD
BRANCH  39  41
ATOM     41  C27 UNL     1      21.004  -6.640 -47.289  0.00  0.00    +0.000 C 
ATOM     42  C28 UNL     1      20.327  -6.697 -48.517  0.00  0.00    +0.000 C 
ATOM     43  C29 UNL     1      18.948  -6.919 -48.560  0.00  0.00    +0.000 C 
ATOM     44  C30 UNL     1      18.222  -7.083 -47.369  0.00  0.00    +0.000 C 
ATOM     45  C31 UNL     1      16.733  -7.271 -47.415  0.00  0.00    +0.000 C 
ATOM     46  C32 UNL     1      18.888  -6.989 -46.136  0.00  0.00    +0.000 C 
ATOM     47  C33 UNL     1      20.270  -6.770 -46.094  0.00  0.00    +0.000 C 
ENDBRANCH  39  41
ENDBRANCH  36  37
ENDBRANCH  33  36
ENDBRANCH  30  31
ENDBRANCH  29  30
ENDBRANCH   6  29
TORSDOF 10
