REMARK  Name = resultss/4CJN/ligands/lig_359_t1.pdb
REMARK  7 active torsions:
REMARK  status: ('A' for Active; 'I' for Inactive)
REMARK    1  A    between atoms: C2_1  and  N1_2
REMARK    2  A    between atoms: C2_1  and  C1_22
REMARK    3  A    between atoms: C3_3  and  C4_13
REMARK    4  A    between atoms: C4_13  and  C5_14
REMARK    5  A    between atoms: N3_23  and  N4_25
REMARK    6  A    between atoms: C18_26  and  C19_27
REMARK    7  A    between atoms: C18_26  and  O3_38
REMARK                            x       y       z     vdW  Elec       q    Type
REMARK                         _______ _______ _______ _____ _____    ______ ____
ROOT
ATOM      1  C2  UNL     1      27.721  -7.292 -37.226  0.00  0.00    +0.000 C 
ENDROOT
BRANCH   1   2
ATOM      2  N1  UNL     1      26.804  -7.833 -36.197  0.00  0.00    +0.000 N 
ATOM      3  C3  UNL     1      26.994  -9.084 -35.639  0.00  0.00    +0.000 A 
ATOM      4  N2  UNL     1      26.152  -9.531 -34.670  0.00  0.00    +0.000 NA
ATOM      5  C11 UNL     1      25.117  -8.786 -34.219  0.00  0.00    +0.000 A 
ATOM      6  C12 UNL     1      24.275  -9.291 -33.219  0.00  0.00    +0.000 C 
ATOM      7  C13 UNL     1      23.207  -8.520 -32.751  0.00  0.00    +0.000 C 
ATOM      8  C14 UNL     1      22.977  -7.246 -33.278  0.00  0.00    +0.000 C 
ATOM      9  C15 UNL     1      23.816  -6.736 -34.276  0.00  0.00    +0.000 C 
ATOM     10  C16 UNL     1      24.893  -7.508 -34.755  0.00  0.00    +0.000 A 
ATOM     11  C17 UNL     1      25.766  -7.044 -35.753  0.00  0.00    +0.000 A 
ATOM     12  O2  UNL     1      25.596  -5.886 -36.234  0.00  0.00    +0.000 OA
BRANCH   3  13
ATOM     13  C4  UNL     1      28.117 -10.016 -36.048  0.00  0.00    +0.000 C 
BRANCH  13  14
ATOM     14  C5  UNL     1      29.370  -9.790 -35.240  0.00  0.00    +0.000 C 
ATOM     15  C6  UNL     1      29.325  -9.830 -33.836  0.00  0.00    +0.000 C 
ATOM     16  C7  UNL     1      30.487  -9.626 -33.087  0.00  0.00    +0.000 C 
ATOM     17  C8  UNL     1      31.700  -9.364 -33.729  0.00  0.00    +0.000 C 
ATOM     18 BR1  UNL     1      33.283  -9.085 -32.700  0.00  0.00    +0.000 Br
ATOM     19  C9  UNL     1      31.750  -9.299 -35.125  0.00  0.00    +0.000 C 
ATOM     20  C10 UNL     1      30.588  -9.502 -35.878  0.00  0.00    +0.000 C 
ENDBRANCH  13  14
ENDBRANCH   3  13
ENDBRANCH   1   2
BRANCH   1  22
ATOM     21  O1  UNL     1      27.401  -6.028 -39.216  0.00  0.00    +0.000 OA
ATOM     22  C1  UNL     1      27.028  -7.024 -38.538  0.00  0.00    +0.000 C 
ATOM     23  N3  UNL     1      25.970  -7.865 -39.030  0.00  0.00    +0.000 N 
ATOM     24  H13 UNL     1      25.509  -8.537 -38.380  0.00  0.00    +0.000 HD
BRANCH  23  25
ATOM     25  N4  UNL     1      25.274  -7.547 -40.209  0.00  0.00    +0.000 NA
ATOM     26  C18 UNL     1      24.430  -8.347 -40.797  0.00  0.00    +0.000 C 
BRANCH  26  27
ATOM     27  C19 UNL     1      23.817  -7.960 -42.097  0.00  0.00    +0.000 C 
ATOM     28  C20 UNL     1      22.471  -7.562 -42.132  0.00  0.00    +0.000 C 
ATOM     29  C21 UNL     1      21.875  -7.214 -43.347  0.00  0.00    +0.000 C 
ATOM     30  C22 UNL     1      20.533  -6.812 -43.417  0.00  0.00    +0.000 C 
ATOM     31  C23 UNL     1      19.970  -6.472 -44.652  0.00  0.00    +0.000 C 
ATOM     32  C24 UNL     1      20.742  -6.536 -45.817  0.00  0.00    +0.000 C 
ATOM     33  C25 UNL     1      22.082  -6.939 -45.754  0.00  0.00    +0.000 C 
ATOM     34  C26 UNL     1      22.653  -7.276 -44.521  0.00  0.00    +0.000 C 
ATOM     35  O4  UNL     1      23.926  -7.649 -44.461  0.00  0.00    +0.000 OA
ATOM     36  C27 UNL     1      24.530  -7.981 -43.322  0.00  0.00    +0.000 C 
ATOM     37  O5  UNL     1      25.746  -8.305 -43.359  0.00  0.00    +0.000 OA
ENDBRANCH  26  27
BRANCH  26  38
ATOM     38  O3  UNL     1      24.072  -9.567 -40.216  0.00  0.00    +0.000 OA
ATOM     39  H14 UNL     1      23.774 -10.368 -40.759  0.00  0.00    +0.000 HD
ENDBRANCH  26  38
ENDBRANCH  23  25
ENDBRANCH   1  22
TORSDOF 7
