REMARK  Name = resultss/4CJN/ligands/lig_416_t0.pdb
REMARK  6 active torsions:
REMARK  status: ('A' for Active; 'I' for Inactive)
REMARK    1  A    between atoms: C10_1  and  C9_22
REMARK    2  A    between atoms: C20_12  and  C21_15
REMARK    3  A    between atoms: N3_21  and  N2_25
REMARK    4  A    between atoms: N2_25  and  C8_27
REMARK    5  A    between atoms: C8_27  and  N1_29
REMARK    6  A    between atoms: N1_29  and  C7_37
REMARK                            x       y       z     vdW  Elec       q    Type
REMARK                         _______ _______ _______ _____ _____    ______ ____
ROOT
ATOM      1  C10 UNL     1      27.723  -9.895 -37.542  0.00  0.00    +0.000 C 
ATOM      2  C11 UNL     1      28.932  -9.928 -36.815  0.00  0.00    +0.000 C 
ATOM      3  C12 UNL     1      28.871  -9.609 -35.464  0.00  0.00    +0.000 A 
ATOM      4  C13 UNL     1      27.687  -9.277 -34.842  0.00  0.00    +0.000 A 
ATOM      5  N4  UNL     1      27.889  -8.943 -33.545  0.00  0.00    +0.000 N 
ATOM      6  C14 UNL     1      29.218  -9.087 -33.353  0.00  0.00    +0.000 A 
ATOM      7  C15 UNL     1      29.931  -8.850 -32.178  0.00  0.00    +0.000 C 
ATOM      8  C16 UNL     1      31.324  -9.044 -32.202  0.00  0.00    +0.000 C 
ATOM      9  C17 UNL     1      31.971  -9.462 -33.387  0.00  0.00    +0.000 C 
ATOM     10  C18 UNL     1      31.233  -9.690 -34.562  0.00  0.00    +0.000 C 
ATOM     11  C19 UNL     1      29.854  -9.495 -34.508  0.00  0.00    +0.000 A 
ATOM     12  C20 UNL     1      26.489  -9.266 -35.569  0.00  0.00    +0.000 C 
ATOM     13  N5  UNL     1      26.555  -9.568 -36.902  0.00  0.00    +0.000 NA
ATOM     14  H12 UNL     1      27.190  -8.610 -32.846  0.00  0.00    +0.000 HD
ENDROOT
BRANCH  12  15
ATOM     15  C21 UNL     1      25.182  -8.940 -34.963  0.00  0.00    +0.000 C 
ATOM     16  C22 UNL     1      24.895  -9.361 -33.654  0.00  0.00    +0.000 C 
ATOM     17  C23 UNL     1      23.671  -9.038 -33.060  0.00  0.00    +0.000 C 
ATOM     18  C24 UNL     1      22.730  -8.279 -33.762  0.00  0.00    +0.000 C 
ATOM     19  C25 UNL     1      23.016  -7.837 -35.056  0.00  0.00    +0.000 C 
ATOM     20  C26 UNL     1      24.238  -8.159 -35.654  0.00  0.00    +0.000 C 
ENDBRANCH  12  15
BRANCH   1  22
ATOM     21  N3  UNL     1      28.818 -10.864 -39.605  0.00  0.00    +0.000 N 
ATOM     22  C9  UNL     1      27.698 -10.213 -38.984  0.00  0.00    +0.000 C 
ATOM     23  O1  UNL     1      26.681  -9.928 -39.674  0.00  0.00    +0.000 OA
ATOM     24  H10 UNL     1      29.495 -11.382 -39.001  0.00  0.00    +0.000 HD
BRANCH  21  25
ATOM     25  N2  UNL     1      28.865 -11.088 -40.991  0.00  0.00    +0.000 N 
ATOM     26  H9  UNL     1      28.187 -11.769 -41.395  0.00  0.00    +0.000 HD
BRANCH  25  27
ATOM     27  C8  UNL     1      29.878 -10.511 -41.837  0.00  0.00    +0.000 C 
ATOM     28  S1  UNL     1      29.481  -9.436 -43.011  0.00  0.00    +0.000 S 
BRANCH  27  29
ATOM     29  N1  UNL     1      31.258 -10.874 -41.677  0.00  0.00    +0.000 N 
ATOM     30  H8  UNL     1      31.713 -10.679 -40.756  0.00  0.00    +0.000 HD
BRANCH  29  37
ATOM     31  C1  UNL     1      34.089 -10.216 -41.963  0.00  0.00    +0.000 C 
ATOM     32  C2  UNL     1      33.415 -11.236 -42.840  0.00  0.00    +0.000 C 
ATOM     33  C3  UNL     1      34.167 -11.925 -43.807  0.00  0.00    +0.000 C 
ATOM     34  C4  UNL     1      33.562 -12.880 -44.625  0.00  0.00    +0.000 C 
ATOM     35  C5  UNL     1      32.204 -13.168 -44.481  0.00  0.00    +0.000 C 
ATOM     36  C6  UNL     1      31.447 -12.499 -43.517  0.00  0.00    +0.000 C 
ATOM     37  C7  UNL     1      32.038 -11.521 -42.696  0.00  0.00    +0.000 C 
ENDBRANCH  29  37
ENDBRANCH  27  29
ENDBRANCH  25  27
ENDBRANCH  21  25
ENDBRANCH   1  22
TORSDOF 6
