REMARK  Name = resultss/4CJN/ligands/lig_372_t2.pdb
REMARK  7 active torsions:
REMARK  status: ('A' for Active; 'I' for Inactive)
REMARK    1  A    between atoms: C5_1  and  C6_2
REMARK    2  A    between atoms: C5_1  and  C15_16
REMARK    3  A    between atoms: C5_1  and  C4_32
REMARK    4  A    between atoms: C14_13  and  O4_14
REMARK    5  A    between atoms: C23_27  and  O7_28
REMARK    6  A    between atoms: C2_30  and  O1_37
REMARK    7  A    between atoms: C26_35  and  O8_38
REMARK                            x       y       z     vdW  Elec       q    Type
REMARK                         _______ _______ _______ _____ _____    ______ ____
ROOT
ATOM      1  C5  UNL     1      28.680  -9.928 -40.881  0.00  0.00    +0.000 C 
ENDROOT
BRANCH   1   2
ATOM      2  C6  UNL     1      28.893  -9.082 -39.620  0.00  0.00    +0.000 A 
ATOM      3  C7  UNL     1      28.722  -9.663 -38.344  0.00  0.00    +0.000 A 
ATOM      4  O2  UNL     1      28.383 -10.874 -38.237  0.00  0.00    +0.000 OA
ATOM      5  C8  UNL     1      28.931  -8.891 -37.189  0.00  0.00    +0.000 A 
ATOM      6  C9  UNL     1      28.753  -9.413 -35.895  0.00  0.00    +0.000 C 
ATOM      7  C10 UNL     1      28.971  -8.603 -34.774  0.00  0.00    +0.000 C 
ATOM      8 CL1  UNL     1      28.747  -9.259 -33.162  0.00  0.00    +0.000 Cl
ATOM      9  C11 UNL     1      29.368  -7.273 -34.937  0.00  0.00    +0.000 C 
ATOM     10  C12 UNL     1      29.550  -6.747 -36.218  0.00  0.00    +0.000 C 
ATOM     11  C13 UNL     1      29.334  -7.549 -37.344  0.00  0.00    +0.000 A 
ATOM     12  O3  UNL     1      29.519  -7.040 -38.556  0.00  0.00    +0.000 OA
ATOM     13  C14 UNL     1      29.331  -7.737 -39.672  0.00  0.00    +0.000 A 
BRANCH  13  14
ATOM     14  O4  UNL     1      29.594  -7.117 -40.889  0.00  0.00    +0.000 OA
ATOM     15  H9  UNL     1      30.496  -6.697 -41.074  0.00  0.00    +0.000 HD
ENDBRANCH  13  14
ENDBRANCH   1   2
BRANCH   1  16
ATOM     16  C15 UNL     1      27.705  -9.287 -41.883  0.00  0.00    +0.000 A 
ATOM     17  C16 UNL     1      28.138  -8.579 -43.037  0.00  0.00    +0.000 A 
ATOM     18  O5  UNL     1      29.366  -8.404 -43.265  0.00  0.00    +0.000 OA
ATOM     19  C17 UNL     1      27.193  -8.049 -43.929  0.00  0.00    +0.000 A 
ATOM     20  C18 UNL     1      27.569  -7.358 -45.097  0.00  0.00    +0.000 C 
ATOM     21  C19 UNL     1      26.591  -6.849 -45.959  0.00  0.00    +0.000 C 
ATOM     22 CL2  UNL     1      27.065  -5.991 -47.413  0.00  0.00    +0.000 Cl
ATOM     23  C20 UNL     1      25.236  -7.023 -45.662  0.00  0.00    +0.000 C 
ATOM     24  C21 UNL     1      24.854  -7.705 -44.504  0.00  0.00    +0.000 C 
ATOM     25  C22 UNL     1      25.825  -8.216 -43.636  0.00  0.00    +0.000 A 
ATOM     26  O6  UNL     1      25.449  -8.850 -42.535  0.00  0.00    +0.000 OA
ATOM     27  C23 UNL     1      26.303  -9.369 -41.660  0.00  0.00    +0.000 A 
BRANCH  27  28
ATOM     28  O7  UNL     1      25.758  -9.980 -40.529  0.00  0.00    +0.000 OA
ATOM     29  H13 UNL     1      25.174 -10.804 -40.550  0.00  0.00    +0.000 HD
ENDBRANCH  27  28
ENDBRANCH   1  16
BRANCH   1  32
ATOM     30  C2  UNL     1      32.420 -10.345 -41.772  0.00  0.00    +0.000 C 
ATOM     31  C3  UNL     1      31.237  -9.864 -41.176  0.00  0.00    +0.000 C 
ATOM     32  C4  UNL     1      29.986 -10.438 -41.484  0.00  0.00    +0.000 C 
ATOM     33  C24 UNL     1      29.938 -11.490 -42.416  0.00  0.00    +0.000 C 
ATOM     34  C25 UNL     1      31.106 -11.969 -43.009  0.00  0.00    +0.000 C 
ATOM     35  C26 UNL     1      32.344 -11.406 -42.691  0.00  0.00    +0.000 C 
BRANCH  30  37
ATOM     36  C1  UNL     1      34.365  -9.964 -40.242  0.00  0.00    +0.000 C 
ATOM     37  O1  UNL     1      33.677  -9.794 -41.477  0.00  0.00    +0.000 OA
ENDBRANCH  30  37
BRANCH  35  38
ATOM     38  O8  UNL     1      33.490 -11.913 -43.303  0.00  0.00    +0.000 OA
ATOM     39  H16 UNL     1      33.603 -11.929 -44.309  0.00  0.00    +0.000 HD
ENDBRANCH  35  38
ENDBRANCH   1  32
TORSDOF 7
