REMARK  Name = resultss/4CJN/ligands/lig_180_t0.pdb
REMARK  4 active torsions:
REMARK  status: ('A' for Active; 'I' for Inactive)
REMARK    1  A    between atoms: C9_1  and  C1_17
REMARK    2  A    between atoms: C12_4  and  C13_7
REMARK    3  A    between atoms: N1_18  and  N2_20
REMARK    4  A    between atoms: C2_21  and  C3_22
REMARK                            x       y       z     vdW  Elec       q    Type
REMARK                         _______ _______ _______ _____ _____    ______ ____
ROOT
ATOM      1  C9  UNL     1      23.618  -7.347 -40.926  0.00  0.00    +0.000 C 
ATOM      2  C10 UNL     1      22.673  -6.306 -40.905  0.00  0.00    +0.000 C 
ATOM      3  C11 UNL     1      21.728  -6.183 -41.928  0.00  0.00    +0.000 C 
ATOM      4  C12 UNL     1      21.700  -7.102 -42.991  0.00  0.00    +0.000 C 
ATOM      5  C20 UNL     1      22.637  -8.150 -43.005  0.00  0.00    +0.000 C 
ATOM      6  C21 UNL     1      23.581  -8.272 -41.982  0.00  0.00    +0.000 C 
ENDROOT
BRANCH   4   7
ATOM      7  C13 UNL     1      20.695  -6.963 -44.069  0.00  0.00    +0.000 A 
ATOM      8  N3  UNL     1      21.001  -7.072 -45.388  0.00  0.00    +0.000 NA
ATOM      9  C14 UNL     1      19.902  -6.903 -46.169  0.00  0.00    +0.000 A 
ATOM     10  C15 UNL     1      19.909  -6.961 -47.564  0.00  0.00    +0.000 C 
ATOM     11  C16 UNL     1      18.698  -6.769 -48.253  0.00  0.00    +0.000 C 
ATOM     12  C17 UNL     1      17.505  -6.523 -47.545  0.00  0.00    +0.000 C 
ATOM     13  C18 UNL     1      17.511  -6.467 -46.142  0.00  0.00    +0.000 C 
ATOM     14  C19 UNL     1      18.723  -6.661 -45.484  0.00  0.00    +0.000 A 
ATOM     15  S1  UNL     1      19.039  -6.652 -43.838  0.00  0.00    +0.000 S 
ENDBRANCH   4   7
BRANCH   1  17
ATOM     16  O1  UNL     1      25.525  -6.620 -39.715  0.00  0.00    +0.000 OA
ATOM     17  C1  UNL     1      24.623  -7.493 -39.846  0.00  0.00    +0.000 C 
ATOM     18  N1  UNL     1      24.582  -8.597 -38.932  0.00  0.00    +0.000 N 
ATOM     19  H1  UNL     1      23.754  -9.235 -38.918  0.00  0.00    +0.000 HD
BRANCH  18  20
ATOM     20  N2  UNL     1      25.622  -8.780 -38.007  0.00  0.00    +0.000 NA
ATOM     21  C2  UNL     1      25.406  -8.794 -36.729  0.00  0.00    +0.000 C 
BRANCH  21  22
ATOM     22  C3  UNL     1      26.513  -8.987 -35.770  0.00  0.00    +0.000 C 
ATOM     23  C4  UNL     1      26.385  -8.495 -34.461  0.00  0.00    +0.000 C 
ATOM     24  C5  UNL     1      27.422  -8.667 -33.538  0.00  0.00    +0.000 C 
ATOM     25  C6  UNL     1      28.593  -9.331 -33.913  0.00  0.00    +0.000 C 
ATOM     26 CL1  UNL     1      29.891  -9.546 -32.752  0.00  0.00    +0.000 Cl
ATOM     27  C7  UNL     1      28.729  -9.825 -35.213  0.00  0.00    +0.000 C 
ATOM     28  C8  UNL     1      27.695  -9.655 -36.140  0.00  0.00    +0.000 C 
ENDBRANCH  21  22
ENDBRANCH  18  20
ENDBRANCH   1  17
TORSDOF 4
