REMARK  Name = resultss/4CJN/ligands/lig_388_t1.pdb
REMARK  5 active torsions:
REMARK  status: ('A' for Active; 'I' for Inactive)
REMARK    1  A    between atoms: N2_1  and  C4_21
REMARK    2  A    between atoms: C6_4  and  O3_30
REMARK    3  A    between atoms: C7_5  and  C8_8
REMARK    4  A    between atoms: C1_18  and  S1_24
REMARK    5  A    between atoms: S1_24  and  N1_27
REMARK                            x       y       z     vdW  Elec       q    Type
REMARK                         _______ _______ _______ _____ _____    ______ ____
ROOT
ATOM      1  N2  UNL     1      31.285 -10.110 -41.404  0.00  0.00    +0.000 NA
ATOM      2  C5  UNL     1      30.114 -10.140 -40.837  0.00  0.00    +0.000 A 
ATOM      3  N3  UNL     1      29.043 -10.832 -41.297  0.00  0.00    +0.000 N 
ATOM      4  C6  UNL     1      27.948 -10.649 -40.511  0.00  0.00    +0.000 A 
ATOM      5  C7  UNL     1      28.134  -9.778 -39.436  0.00  0.00    +0.000 A 
ATOM      6  S2  UNL     1      29.737  -9.258 -39.458  0.00  0.00    +0.000 S 
ATOM      7  H5  UNL     1      29.028 -11.419 -42.157  0.00  0.00    +0.000 HD
ENDROOT
BRANCH   5   8
ATOM      8  C8  UNL     1      27.150  -9.414 -38.404  0.00  0.00    +0.000 C 
ATOM      9  C9  UNL     1      25.801  -8.911 -38.611  0.00  0.00    +0.000 C 
ATOM     10  O4  UNL     1      25.258  -8.684 -39.724  0.00  0.00    +0.000 OA
ATOM     11  N4  UNL     1      25.165  -8.689 -37.357  0.00  0.00    +0.000 NA
ATOM     12  C10 UNL     1      26.067  -9.050 -36.501  0.00  0.00    +0.000 C 
ATOM     13  C11 UNL     1      25.903  -9.035 -35.116  0.00  0.00    +0.000 C 
ATOM     14  C12 UNL     1      26.958  -9.495 -34.311  0.00  0.00    +0.000 C 
ATOM     15  C13 UNL     1      28.147  -9.971 -34.897  0.00  0.00    +0.000 C 
ATOM     16  C14 UNL     1      28.301  -9.980 -36.293  0.00  0.00    +0.000 C 
ATOM     17  C15 UNL     1      27.252  -9.492 -37.081  0.00  0.00    +0.000 C 
ENDBRANCH   5   8
BRANCH   1  21
ATOM     18  C1  UNL     1      32.652 -12.434 -44.682  0.00  0.00    +0.000 C 
ATOM     19  C2  UNL     1      33.128 -11.132 -44.483  0.00  0.00    +0.000 C 
ATOM     20  C3  UNL     1      32.666 -10.372 -43.404  0.00  0.00    +0.000 C 
ATOM     21  C4  UNL     1      31.703 -10.894 -42.531  0.00  0.00    +0.000 C 
ATOM     22  C16 UNL     1      31.247 -12.210 -42.716  0.00  0.00    +0.000 C 
ATOM     23  C17 UNL     1      31.709 -12.970 -43.794  0.00  0.00    +0.000 C 
BRANCH  18  24
ATOM     24  S1  UNL     1      33.224 -13.385 -46.050  0.00  0.00    +0.000 S 
ATOM     25  O1  UNL     1      34.177 -14.443 -45.570  0.00  0.00    +0.000 OA
ATOM     26  O2  UNL     1      32.062 -14.055 -46.728  0.00  0.00    +0.000 OA
BRANCH  24  27
ATOM     27  N1  UNL     1      34.026 -12.347 -47.175  0.00  0.00    +0.000 NA
ATOM     28  H1  UNL     1      34.236 -12.920 -48.023  0.00  0.00    +0.000 HD
ATOM     29  H2  UNL     1      33.336 -11.619 -47.466  0.00  0.00    +0.000 HD
ENDBRANCH  24  27
ENDBRANCH  18  24
ENDBRANCH   1  21
BRANCH   4  30
ATOM     30  O3  UNL     1      26.749 -11.313 -40.753  0.00  0.00    +0.000 OA
ATOM     31  H6  UNL     1      25.885 -10.798 -40.876  0.00  0.00    +0.000 HD
ENDBRANCH   4  30
TORSDOF 5
