REMARK  Name = resultss/4CJN/ligands/lig_170_t0.pdb
REMARK  6 active torsions:
REMARK  status: ('A' for Active; 'I' for Inactive)
REMARK    1  A    between atoms: C1_2  and  C9_5
REMARK    2  A    between atoms: N1_3  and  N2_20
REMARK    3  A    between atoms: C12_8  and  C13_11
REMARK    4  A    between atoms: C2_21  and  C3_22
REMARK    5  A    between atoms: C6_25  and  O2_28
REMARK    6  A    between atoms: C8_27  and  O3_30
REMARK                            x       y       z     vdW  Elec       q    Type
REMARK                         _______ _______ _______ _____ _____    ______ ____
ROOT
ATOM      1  O1  UNL     1      24.772  -8.846 -38.626  0.00  0.00    +0.000 OA
ATOM      2  C1  UNL     1      25.440  -9.041 -39.679  0.00  0.00    +0.000 C 
ATOM      3  N1  UNL     1      26.711  -9.697 -39.588  0.00  0.00    +0.000 N 
ATOM      4  H1  UNL     1      27.199 -10.018 -40.455  0.00  0.00    +0.000 HD
ENDROOT
BRANCH   2   5
ATOM      5  C9  UNL     1      24.888  -8.604 -40.983  0.00  0.00    +0.000 C 
ATOM      6  C10 UNL     1      25.435  -9.100 -42.179  0.00  0.00    +0.000 C 
ATOM      7  C11 UNL     1      24.923  -8.700 -43.416  0.00  0.00    +0.000 C 
ATOM      8  C12 UNL     1      23.846  -7.801 -43.487  0.00  0.00    +0.000 C 
ATOM      9  C20 UNL     1      23.290  -7.314 -42.291  0.00  0.00    +0.000 C 
ATOM     10  C21 UNL     1      23.803  -7.713 -41.054  0.00  0.00    +0.000 C 
BRANCH   8  11
ATOM     11  C13 UNL     1      23.310  -7.383 -44.804  0.00  0.00    +0.000 A 
ATOM     12  N3  UNL     1      21.984  -7.362 -45.094  0.00  0.00    +0.000 NA
ATOM     13  C14 UNL     1      21.760  -6.942 -46.365  0.00  0.00    +0.000 A 
ATOM     14  C15 UNL     1      20.495  -6.819 -46.943  0.00  0.00    +0.000 C 
ATOM     15  C16 UNL     1      20.402  -6.372 -48.273  0.00  0.00    +0.000 C 
ATOM     16  C17 UNL     1      21.565  -6.055 -49.003  0.00  0.00    +0.000 C 
ATOM     17  C18 UNL     1      22.831  -6.183 -48.410  0.00  0.00    +0.000 C 
ATOM     18  C19 UNL     1      22.895  -6.628 -47.092  0.00  0.00    +0.000 A 
ATOM     19  S1  UNL     1      24.245  -6.877 -46.130  0.00  0.00    +0.000 S 
ENDBRANCH   8  11
ENDBRANCH   2   5
BRANCH   3  20
ATOM     20  N2  UNL     1      27.266  -9.979 -38.330  0.00  0.00    +0.000 NA
ATOM     21  C2  UNL     1      28.081  -9.160 -37.742  0.00  0.00    +0.000 C 
BRANCH  21  22
ATOM     22  C3  UNL     1      28.604  -9.437 -36.388  0.00  0.00    +0.000 C 
ATOM     23  C4  UNL     1      29.986  -9.287 -36.180  0.00  0.00    +0.000 C 
ATOM     24  C5  UNL     1      30.539  -9.459 -34.910  0.00  0.00    +0.000 C 
ATOM     25  C6  UNL     1      29.720  -9.788 -33.827  0.00  0.00    +0.000 C 
ATOM     26  C7  UNL     1      28.348  -9.965 -34.022  0.00  0.00    +0.000 C 
ATOM     27  C8  UNL     1      27.782  -9.818 -35.296  0.00  0.00    +0.000 C 
BRANCH  25  28
ATOM     28  O2  UNL     1      30.259  -9.949 -32.552  0.00  0.00    +0.000 OA
ATOM     29  H5  UNL     1      30.710 -10.813 -32.273  0.00  0.00    +0.000 HD
ENDBRANCH  25  28
BRANCH  27  30
ATOM     30  O3  UNL     1      26.420 -10.096 -35.434  0.00  0.00    +0.000 OA
ATOM     31  H7  UNL     1      26.014 -11.004 -35.255  0.00  0.00    +0.000 HD
ENDBRANCH  27  30
ENDBRANCH  21  22
ENDBRANCH   3  20
TORSDOF 6
