REMARK  Name = resultss/4CJN/ligands/lig_241_t0.pdb
REMARK  6 active torsions:
REMARK  status: ('A' for Active; 'I' for Inactive)
REMARK    1  A    between atoms: C9_1  and  N1_18
REMARK    2  A    between atoms: C13_6  and  C14_27
REMARK    3  A    between atoms: C6_13  and  C5_22
REMARK    4  A    between atoms: C2_19  and  O1_26
REMARK    5  A    between atoms: C14_27  and  C15_28
REMARK    6  A    between atoms: C18_31  and  O3_34
REMARK                            x       y       z     vdW  Elec       q    Type
REMARK                         _______ _______ _______ _____ _____    ______ ____
ROOT
ATOM      1  C9  UNL     1      30.172  -8.756 -36.453  0.00  0.00    +0.000 C 
ATOM      2  C10 UNL     1      29.438  -7.605 -36.787  0.00  0.00    +0.000 C 
ATOM      3  C11 UNL     1      28.987  -7.406 -38.095  0.00  0.00    +0.000 C 
ATOM      4  C12 UNL     1      29.275  -8.349 -39.085  0.00  0.00    +0.000 A 
ATOM      5  N2  UNL     1      28.845  -8.161 -40.360  0.00  0.00    +0.000 NA
ATOM      6  C13 UNL     1      29.126  -9.058 -41.344  0.00  0.00    +0.000 A 
ATOM      7  C21 UNL     1      29.863 -10.214 -41.026  0.00  0.00    +0.000 A 
ATOM      8  O4  UNL     1      30.129 -11.072 -41.912  0.00  0.00    +0.000 OA
ATOM      9  N3  UNL     1      30.295 -10.407 -39.749  0.00  0.00    +0.000 N 
ATOM     10  C22 UNL     1      30.018  -9.502 -38.767  0.00  0.00    +0.000 A 
ATOM     11  C23 UNL     1      30.465  -9.700 -37.452  0.00  0.00    +0.000 C 
ATOM     12  H18 UNL     1      30.846 -11.268 -39.523  0.00  0.00    +0.000 HD
ENDROOT
BRANCH   1  18
ATOM     13  C6  UNL     1      30.001  -9.778 -34.125  0.00  0.00    +0.000 C 
ATOM     14  S1  UNL     1      30.873  -9.612 -32.522  0.00  0.00    +0.000 S 
ATOM     15  C7  UNL     1      32.168  -8.524 -33.199  0.00  0.00    +0.000 C 
ATOM     16  C8  UNL     1      31.850  -8.307 -34.626  0.00  0.00    +0.000 C 
ATOM     17  O2  UNL     1      32.602  -7.625 -35.370  0.00  0.00    +0.000 OA
ATOM     18  N1  UNL     1      30.673  -8.939 -35.114  0.00  0.00    +0.000 N 
BRANCH  13  22
ATOM     19  C2  UNL     1      25.863  -8.577 -33.701  0.00  0.00    +0.000 C 
ATOM     20  C3  UNL     1      26.876  -7.875 -33.037  0.00  0.00    +0.000 C 
ATOM     21  C4  UNL     1      28.211  -8.268 -33.162  0.00  0.00    +0.000 C 
ATOM     22  C5  UNL     1      28.555  -9.369 -33.965  0.00  0.00    +0.000 C 
ATOM     23  C24 UNL     1      27.541 -10.076 -34.628  0.00  0.00    +0.000 C 
ATOM     24  C25 UNL     1      26.205  -9.686 -34.498  0.00  0.00    +0.000 C 
BRANCH  19  26
ATOM     25  C1  UNL     1      23.512  -8.908 -32.919  0.00  0.00    +0.000 C 
ATOM     26  O1  UNL     1      24.540  -8.143 -33.542  0.00  0.00    +0.000 OA
ENDBRANCH  19  26
ENDBRANCH  13  22
ENDBRANCH   1  18
BRANCH   6  27
ATOM     27  C14 UNL     1      28.591  -8.813 -42.728  0.00  0.00    +0.000 C 
BRANCH  27  28
ATOM     28  C15 UNL     1      27.094  -8.951 -42.740  0.00  0.00    +0.000 C 
ATOM     29  C16 UNL     1      26.453  -9.836 -41.857  0.00  0.00    +0.000 C 
ATOM     30  C17 UNL     1      25.058  -9.934 -41.846  0.00  0.00    +0.000 C 
ATOM     31  C18 UNL     1      24.290  -9.146 -42.709  0.00  0.00    +0.000 C 
ATOM     32  C19 UNL     1      24.923  -8.256 -43.587  0.00  0.00    +0.000 C 
ATOM     33  C20 UNL     1      26.318  -8.155 -43.600  0.00  0.00    +0.000 C 
BRANCH  31  34
ATOM     34  O3  UNL     1      22.901  -9.254 -42.687  0.00  0.00    +0.000 OA
ATOM     35  H15 UNL     1      22.315  -8.664 -43.266  0.00  0.00    +0.000 HD
ENDBRANCH  31  34
ENDBRANCH  27  28
ENDBRANCH   6  27
TORSDOF 6
