REMARK  Name = resultss/4CJN/ligands/lig_346_t2.pdb
REMARK  11 active torsions:
REMARK  status: ('A' for Active; 'I' for Inactive)
REMARK    1  A    between atoms: C6_1  and  O2_27
REMARK    2  A    between atoms: C9_4  and  C10_7
REMARK    3  A    between atoms: C17_15  and  O3_17
REMARK    4  A    between atoms: N3_16  and  N4_19
REMARK    5  A    between atoms: N4_19  and  C18_21
REMARK    6  A    between atoms: O2_27  and  C5_28
REMARK    7  A    between atoms: C5_28  and  C4_31
REMARK    8  A    between atoms: N1_29  and  C2_34
REMARK    9  A    between atoms: C2_34  and  C1_36
REMARK   10  A    between atoms: N7_37  and  C26_39
REMARK   11  A    between atoms: C26_39  and  C27_40
REMARK                            x       y       z     vdW  Elec       q    Type
REMARK                         _______ _______ _______ _____ _____    ______ ____
ROOT
ATOM      1  C6  UNL     1      25.414  -8.439 -38.005  0.00  0.00    +0.000 C 
ATOM      2  C7  UNL     1      25.675  -7.064 -37.961  0.00  0.00    +0.000 C 
ATOM      3  C8  UNL     1      26.553  -6.537 -37.011  0.00  0.00    +0.000 C 
ATOM      4  C9  UNL     1      27.185  -7.381 -36.082  0.00  0.00    +0.000 C 
ATOM      5  C24 UNL     1      26.934  -8.763 -36.131  0.00  0.00    +0.000 C 
ATOM      6  C25 UNL     1      26.053  -9.288 -37.082  0.00  0.00    +0.000 C 
ENDROOT
BRANCH   4   7
ATOM      7  C10 UNL     1      28.160  -6.817 -35.076  0.00  0.00    +0.000 C 
ATOM      8  N2  UNL     1      29.442  -7.515 -35.200  0.00  0.00    +0.000 NA
ATOM      9  C11 UNL     1      29.975  -8.264 -34.282  0.00  0.00    +0.000 C 
ATOM     10  C12 UNL     1      31.187  -8.909 -34.563  0.00  0.00    +0.000 C 
ATOM     11  C13 UNL     1      31.786  -9.737 -33.611  0.00  0.00    +0.000 C 
ATOM     12  C14 UNL     1      31.179  -9.921 -32.368  0.00  0.00    +0.000 C 
ATOM     13  C15 UNL     1      29.976  -9.278 -32.072  0.00  0.00    +0.000 C 
ATOM     14  C16 UNL     1      29.357  -8.439 -33.023  0.00  0.00    +0.000 C 
ATOM     15  C17 UNL     1      28.207  -7.800 -32.740  0.00  0.00    +0.000 C 
ATOM     16  N3  UNL     1      27.601  -6.933 -33.720  0.00  0.00    +0.000 N 
BRANCH  15  17
ATOM     17  O3  UNL     1      27.613  -7.955 -31.485  0.00  0.00    +0.000 OA
ATOM     18  H13 UNL     1      27.001  -8.730 -31.265  0.00  0.00    +0.000 HD
ENDBRANCH  15  17
BRANCH  16  19
ATOM     19  N4  UNL     1      26.347  -6.350 -33.449  0.00  0.00    +0.000 N 
ATOM     20  H14 UNL     1      26.317  -5.422 -32.973  0.00  0.00    +0.000 HD
BRANCH  19  21
ATOM     21  C18 UNL     1      25.117  -7.048 -33.688  0.00  0.00    +0.000 C 
ATOM     22  C19 UNL     1      24.915  -8.348 -33.189  0.00  0.00    +0.000 C 
ATOM     23  C20 UNL     1      23.719  -9.023 -33.447  0.00  0.00    +0.000 C 
ATOM     24  C21 UNL     1      22.720  -8.410 -34.207  0.00  0.00    +0.000 C 
ATOM     25  C22 UNL     1      22.919  -7.122 -34.716  0.00  0.00    +0.000 C 
ATOM     26  C23 UNL     1      24.115  -6.445 -34.462  0.00  0.00    +0.000 C 
ENDBRANCH  19  21
ENDBRANCH  16  19
ENDBRANCH   4   7
BRANCH   1  27
ATOM     27  O2  UNL     1      24.523  -8.912 -38.984  0.00  0.00    +0.000 OA
BRANCH  27  28
ATOM     28  C5  UNL     1      24.708  -8.793 -40.393  0.00  0.00    +0.000 C 
BRANCH  28  31
ATOM     29  N1  UNL     1      28.159  -9.169 -41.450  0.00  0.00    +0.000 N 
ATOM     30  C3  UNL     1      27.090  -8.376 -41.249  0.00  0.00    +0.000 C 
ATOM     31  C4  UNL     1      26.094  -9.200 -40.776  0.00  0.00    +0.000 C 
ATOM     32  N5  UNL     1      26.573 -10.462 -40.713  0.00  0.00    +0.000 NA
ATOM     33  N6  UNL     1      27.830 -10.413 -41.134  0.00  0.00    +0.000 NA
BRANCH  29  34
ATOM     34  C2  UNL     1      29.457  -8.765 -41.977  0.00  0.00    +0.000 C 
BRANCH  34  36
ATOM     35  O1  UNL     1      31.198 -10.057 -40.974  0.00  0.00    +0.000 OA
ATOM     36  C1  UNL     1      30.418  -9.917 -41.955  0.00  0.00    +0.000 C 
ATOM     37  N7  UNL     1      30.412 -10.882 -43.018  0.00  0.00    +0.000 N 
ATOM     38  H22 UNL     1      29.777 -10.736 -43.834  0.00  0.00    +0.000 HD
BRANCH  37  39
ATOM     39  C26 UNL     1      31.247 -12.080 -42.993  0.00  0.00    +0.000 C 
BRANCH  39  40
ATOM     40  C27 UNL     1      32.165 -12.102 -44.186  0.00  0.00    +0.000 C 
ATOM     41  C28 UNL     1      32.730 -10.906 -44.661  0.00  0.00    +0.000 C 
ATOM     42  C29 UNL     1      33.572 -10.918 -45.779  0.00  0.00    +0.000 C 
ATOM     43  C30 UNL     1      33.853 -12.124 -46.429  0.00  0.00    +0.000 C 
ATOM     44  C31 UNL     1      33.291 -13.317 -45.964  0.00  0.00    +0.000 C 
ATOM     45  C32 UNL     1      32.447 -13.308 -44.849  0.00  0.00    +0.000 C 
ENDBRANCH  39  40
ENDBRANCH  37  39
ENDBRANCH  34  36
ENDBRANCH  29  34
ENDBRANCH  28  31
ENDBRANCH  27  28
ENDBRANCH   1  27
TORSDOF 11
