REMARK  Name = resultss/4CJN/ligands/lig_181_t0.pdb
REMARK  5 active torsions:
REMARK  status: ('A' for Active; 'I' for Inactive)
REMARK    1  A    between atoms: C9_1  and  C8_17
REMARK    2  A    between atoms: C12_4  and  C13_7
REMARK    3  A    between atoms: N2_16  and  N1_21
REMARK    4  A    between atoms: C7_20  and  C6_26
REMARK    5  A    between atoms: C2_22  and  O1_29
REMARK                            x       y       z     vdW  Elec       q    Type
REMARK                         _______ _______ _______ _____ _____    ______ ____
ROOT
ATOM      1  C9  UNL     1      30.228  -9.782 -40.496  0.00  0.00    +0.000 C 
ATOM      2  C10 UNL     1      29.514 -10.648 -41.343  0.00  0.00    +0.000 C 
ATOM      3  C11 UNL     1      30.146 -11.266 -42.426  0.00  0.00    +0.000 C 
ATOM      4  C12 UNL     1      31.506 -11.029 -42.690  0.00  0.00    +0.000 C 
ATOM      5  C20 UNL     1      32.218 -10.156 -41.850  0.00  0.00    +0.000 C 
ATOM      6  C21 UNL     1      31.584  -9.537 -40.767  0.00  0.00    +0.000 C 
ENDROOT
BRANCH   4   7
ATOM      7  C13 UNL     1      32.167 -11.689 -43.841  0.00  0.00    +0.000 A 
ATOM      8  N3  UNL     1      31.818 -12.923 -44.289  0.00  0.00    +0.000 NA
ATOM      9  C14 UNL     1      32.576 -13.297 -45.352  0.00  0.00    +0.000 A 
ATOM     10  C15 UNL     1      32.446 -14.514 -46.022  0.00  0.00    +0.000 C 
ATOM     11  C16 UNL     1      33.296 -14.778 -47.111  0.00  0.00    +0.000 C 
ATOM     12  C17 UNL     1      34.259 -13.830 -47.513  0.00  0.00    +0.000 C 
ATOM     13  C18 UNL     1      34.380 -12.610 -46.829  0.00  0.00    +0.000 C 
ATOM     14  C19 UNL     1      33.526 -12.374 -45.755  0.00  0.00    +0.000 A 
ATOM     15  S1  UNL     1      33.434 -11.028 -44.760  0.00  0.00    +0.000 S 
ENDBRANCH   4   7
BRANCH   1  17
ATOM     16  N2  UNL     1      28.121  -8.927 -39.360  0.00  0.00    +0.000 N 
ATOM     17  C8  UNL     1      29.546  -9.127 -39.354  0.00  0.00    +0.000 C 
ATOM     18  O2  UNL     1      30.230  -8.699 -38.384  0.00  0.00    +0.000 OA
ATOM     19  H8  UNL     1      27.640  -8.815 -40.280  0.00  0.00    +0.000 HD
BRANCH  16  21
ATOM     20  C7  UNL     1      26.882  -9.577 -37.428  0.00  0.00    +0.000 C 
ATOM     21  N1  UNL     1      27.374  -8.654 -38.199  0.00  0.00    +0.000 NA
BRANCH  20  26
ATOM     22  C2  UNL     1      24.319  -7.949 -35.173  0.00  0.00    +0.000 C 
ATOM     23  C3  UNL     1      24.639  -8.526 -33.930  0.00  0.00    +0.000 C 
ATOM     24  C4  UNL     1      25.688  -9.444 -33.831  0.00  0.00    +0.000 C 
ATOM     25  C5  UNL     1      26.426  -9.794 -34.964  0.00  0.00    +0.000 C 
ATOM     26  C6  UNL     1      26.120  -9.225 -36.213  0.00  0.00    +0.000 C 
ATOM     27  C22 UNL     1      25.064  -8.304 -36.305  0.00  0.00    +0.000 C 
BRANCH  22  29
ATOM     28  C1  UNL     1      22.422  -6.592 -34.270  0.00  0.00    +0.000 C 
ATOM     29  O1  UNL     1      23.276  -7.023 -35.325  0.00  0.00    +0.000 OA
ENDBRANCH  22  29
ENDBRANCH  20  26
ENDBRANCH  16  21
ENDBRANCH   1  17
TORSDOF 5
