REMARK  Name = resultss/4CJN/ligands/lig_440_t0.pdb
REMARK  8 active torsions:
REMARK  status: ('A' for Active; 'I' for Inactive)
REMARK    1  A    between atoms: N3_1  and  N2_25
REMARK    2  A    between atoms: C6_2  and  C7_5
REMARK    3  A    between atoms: C17_16  and  C18_19
REMARK    4  A    between atoms: N2_25  and  C5_27
REMARK    5  A    between atoms: C5_27  and  N1_29
REMARK    6  A    between atoms: N1_29  and  C4_33
REMARK    7  A    between atoms: C2_31  and  O1_38
REMARK    8  A    between atoms: C25_35  and  O3_39
REMARK                            x       y       z     vdW  Elec       q    Type
REMARK                         _______ _______ _______ _____ _____    ______ ____
ROOT
ATOM      1  N3  UNL     1      26.337  -9.881 -39.908  0.00  0.00    +0.000 N 
ATOM      2  C6  UNL     1      27.438 -10.343 -39.110  0.00  0.00    +0.000 C 
ATOM      3  O2  UNL     1      28.326 -11.071 -39.633  0.00  0.00    +0.000 OA
ATOM      4  H7  UNL     1      25.561  -9.361 -39.444  0.00  0.00    +0.000 HD
ENDROOT
BRANCH   2   5
ATOM      5  C7  UNL     1      27.539  -9.976 -37.680  0.00  0.00    +0.000 C 
ATOM      6  C8  UNL     1      28.787  -9.980 -37.022  0.00  0.00    +0.000 C 
ATOM      7  C9  UNL     1      28.803  -9.598 -35.686  0.00  0.00    +0.000 A 
ATOM      8  C10 UNL     1      27.655  -9.235 -35.013  0.00  0.00    +0.000 A 
ATOM      9  N4  UNL     1      27.931  -8.840 -33.747  0.00  0.00    +0.000 N 
ATOM     10  C11 UNL     1      29.270  -8.980 -33.625  0.00  0.00    +0.000 A 
ATOM     11  C12 UNL     1      30.049  -8.694 -32.504  0.00  0.00    +0.000 C 
ATOM     12  C13 UNL     1      31.438  -8.902 -32.595  0.00  0.00    +0.000 C 
ATOM     13  C14 UNL     1      32.014  -9.378 -33.793  0.00  0.00    +0.000 C 
ATOM     14  C15 UNL     1      31.210  -9.653 -34.915  0.00  0.00    +0.000 C 
ATOM     15  C16 UNL     1      29.839  -9.445 -34.793  0.00  0.00    +0.000 A 
ATOM     16  C17 UNL     1      26.418  -9.255 -35.672  0.00  0.00    +0.000 C 
ATOM     17  N5  UNL     1      26.408  -9.616 -36.991  0.00  0.00    +0.000 NA
ATOM     18  H9  UNL     1      27.275  -8.469 -33.026  0.00  0.00    +0.000 HD
BRANCH  16  19
ATOM     19  C18 UNL     1      25.145  -8.901 -35.009  0.00  0.00    +0.000 C 
ATOM     20  C19 UNL     1      24.182  -8.111 -35.663  0.00  0.00    +0.000 C 
ATOM     21  C20 UNL     1      22.996  -7.760 -35.009  0.00  0.00    +0.000 C 
ATOM     22  C21 UNL     1      22.767  -8.181 -33.699  0.00  0.00    +0.000 C 
ATOM     23  C22 UNL     1      23.728  -8.946 -33.033  0.00  0.00    +0.000 C 
ATOM     24  C23 UNL     1      24.916  -9.299 -33.681  0.00  0.00    +0.000 C 
ENDBRANCH  16  19
ENDBRANCH   2   5
BRANCH   1  25
ATOM     25  N2  UNL     1      26.309 -10.094 -41.301  0.00  0.00    +0.000 N 
ATOM     26  H6  UNL     1      26.169 -11.061 -41.670  0.00  0.00    +0.000 HD
BRANCH  25  27
ATOM     27  C5  UNL     1      26.489  -9.038 -42.256  0.00  0.00    +0.000 C 
ATOM     28  S1  UNL     1      25.356  -7.855 -42.435  0.00  0.00    +0.000 S 
BRANCH  27  29
ATOM     29  N1  UNL     1      27.727  -8.965 -42.982  0.00  0.00    +0.000 N 
ATOM     30  H5  UNL     1      27.674  -8.807 -44.013  0.00  0.00    +0.000 HD
BRANCH  29  33
ATOM     31  C2  UNL     1      30.672  -8.381 -40.749  0.00  0.00    +0.000 C 
ATOM     32  C3  UNL     1      29.428  -8.237 -41.374  0.00  0.00    +0.000 C 
ATOM     33  C4  UNL     1      29.027  -9.117 -42.387  0.00  0.00    +0.000 C 
ATOM     34  C24 UNL     1      29.874 -10.177 -42.752  0.00  0.00    +0.000 C 
ATOM     35  C25 UNL     1      31.117 -10.347 -42.132  0.00  0.00    +0.000 C 
ATOM     36  C27 UNL     1      31.519  -9.439 -41.133  0.00  0.00    +0.000 C 
BRANCH  31  38
ATOM     37  C1  UNL     1      30.163  -7.032 -38.708  0.00  0.00    +0.000 C 
ATOM     38  O1  UNL     1      31.027  -7.456 -39.757  0.00  0.00    +0.000 OA
ENDBRANCH  31  38
BRANCH  35  39
ATOM     39  O3  UNL     1      31.916 -11.431 -42.529  0.00  0.00    +0.000 OA
ATOM     40  C26 UNL     1      31.433 -12.579 -43.220  0.00  0.00    +0.000 C 
ENDBRANCH  35  39
ENDBRANCH  29  33
ENDBRANCH  27  29
ENDBRANCH  25  27
ENDBRANCH   1  25
TORSDOF 8
