REMARK  Name = resultss/4CJN/ligands/lig_435_t0.pdb
REMARK  6 active torsions:
REMARK  status: ('A' for Active; 'I' for Inactive)
REMARK    1  A    between atoms: C10_1  and  C9_22
REMARK    2  A    between atoms: C20_12  and  C21_15
REMARK    3  A    between atoms: N3_21  and  N2_25
REMARK    4  A    between atoms: N2_25  and  C8_27
REMARK    5  A    between atoms: C8_27  and  N1_29
REMARK    6  A    between atoms: N1_29  and  C7_37
REMARK                            x       y       z     vdW  Elec       q    Type
REMARK                         _______ _______ _______ _____ _____    ______ ____
ROOT
ATOM      1  C10 UNL     1      26.324  -9.801 -40.894  0.00  0.00    +0.000 C 
ATOM      2  C11 UNL     1      26.181  -9.698 -39.494  0.00  0.00    +0.000 C 
ATOM      3  C12 UNL     1      27.327  -9.857 -38.725  0.00  0.00    +0.000 A 
ATOM      4  C13 UNL     1      28.558 -10.116 -39.288  0.00  0.00    +0.000 A 
ATOM      5  N4  UNL     1      29.530 -10.168 -38.347  0.00  0.00    +0.000 N 
ATOM      6  C14 UNL     1      28.889  -9.954 -37.177  0.00  0.00    +0.000 A 
ATOM      7  C15 UNL     1      29.456  -9.894 -35.905  0.00  0.00    +0.000 C 
ATOM      8  C16 UNL     1      28.605  -9.632 -34.814  0.00  0.00    +0.000 C 
ATOM      9  C17 UNL     1      27.220  -9.433 -35.015  0.00  0.00    +0.000 C 
ATOM     10  C18 UNL     1      26.671  -9.492 -36.309  0.00  0.00    +0.000 C 
ATOM     11  C19 UNL     1      27.537  -9.761 -37.369  0.00  0.00    +0.000 A 
ATOM     12  C20 UNL     1      28.685 -10.234 -40.679  0.00  0.00    +0.000 C 
ATOM     13  N5  UNL     1      27.558 -10.062 -41.434  0.00  0.00    +0.000 NA
ATOM     14  H13 UNL     1      30.556 -10.302 -38.483  0.00  0.00    +0.000 HD
ENDROOT
BRANCH  12  15
ATOM     15  C21 UNL     1      29.967 -10.535 -41.349  0.00  0.00    +0.000 C 
ATOM     16  C22 UNL     1      30.050 -11.529 -42.341  0.00  0.00    +0.000 C 
ATOM     17  C23 UNL     1      31.263 -11.778 -42.991  0.00  0.00    +0.000 C 
ATOM     18  C24 UNL     1      32.398 -11.029 -42.668  0.00  0.00    +0.000 C 
ATOM     19  C25 UNL     1      32.320 -10.026 -41.698  0.00  0.00    +0.000 C 
ATOM     20  C26 UNL     1      31.109  -9.773 -41.047  0.00  0.00    +0.000 C 
ENDBRANCH  12  15
BRANCH   1  22
ATOM     21  N3  UNL     1      23.930  -9.098 -41.287  0.00  0.00    +0.000 N 
ATOM     22  C9  UNL     1      25.159  -9.649 -41.788  0.00  0.00    +0.000 C 
ATOM     23  O1  UNL     1      25.236 -10.015 -42.992  0.00  0.00    +0.000 OA
ATOM     24  H11 UNL     1      23.737  -9.147 -40.262  0.00  0.00    +0.000 HD
BRANCH  21  25
ATOM     25  N2  UNL     1      22.888  -8.691 -42.141  0.00  0.00    +0.000 N 
ATOM     26  H10 UNL     1      22.133  -9.377 -42.363  0.00  0.00    +0.000 HD
BRANCH  25  27
ATOM     27  C8  UNL     1      22.742  -7.336 -42.585  0.00  0.00    +0.000 C 
ATOM     28  S1  UNL     1      21.268  -6.623 -42.476  0.00  0.00    +0.000 S 
BRANCH  27  29
ATOM     29  N1  UNL     1      23.909  -6.545 -42.870  0.00  0.00    +0.000 N 
ATOM     30  H9  UNL     1      24.169  -5.804 -42.182  0.00  0.00    +0.000 HD
BRANCH  29  37
ATOM     31  C1  UNL     1      24.181  -7.202 -47.795  0.00  0.00    +0.000 C 
ATOM     32  C2  UNL     1      24.859  -7.058 -46.465  0.00  0.00    +0.000 C 
ATOM     33  C3  UNL     1      26.258  -7.060 -46.375  0.00  0.00    +0.000 C 
ATOM     34  C4  UNL     1      26.884  -6.902 -45.138  0.00  0.00    +0.000 C 
ATOM     35  C5  UNL     1      26.124  -6.720 -43.971  0.00  0.00    +0.000 C 
ATOM     36  C6  UNL     1      26.826  -6.554 -42.649  0.00  0.00    +0.000 C 
ATOM     37  C7  UNL     1      24.712  -6.695 -44.056  0.00  0.00    +0.000 C 
ATOM     38  C27 UNL     1      24.093  -6.870 -45.307  0.00  0.00    +0.000 C 
ENDBRANCH  29  37
ENDBRANCH  27  29
ENDBRANCH  25  27
ENDBRANCH  21  25
ENDBRANCH   1  22
TORSDOF 6
