REMARK  Name = resultss/4CJN/ligands/lig_258_t2.pdb
REMARK  3 active torsions:
REMARK  status: ('A' for Active; 'I' for Inactive)
REMARK    1  A    between atoms: C9_10  and  C10_25
REMARK    2  A    between atoms: C16_11  and  O3_33
REMARK    3  A    between atoms: C13_28  and  O2_31
REMARK                            x       y       z     vdW  Elec       q    Type
REMARK                         _______ _______ _______ _____ _____    ______ ____
ROOT
ATOM      1  C1  UNL     1      23.914  -7.890 -36.818  0.00  0.00    +0.000 C 
ATOM      2  C2  UNL     1      24.989  -8.532 -35.936  0.00  0.00    +0.000 C 
ATOM      3  C3  UNL     1      25.225  -7.681 -34.659  0.00  0.00    +0.000 C 
ATOM      4  C4  UNL     1      26.460  -8.126 -33.925  0.00  0.00    +0.000 C 
ATOM      5  O1  UNL     1      26.529  -8.032 -32.672  0.00  0.00    +0.000 OA
ATOM      6  C5  UNL     1      27.593  -8.604 -34.734  0.00  0.00    +0.000 A 
ATOM      7  C6  UNL     1      27.446  -8.849 -36.103  0.00  0.00    +0.000 A 
ATOM      8  C7  UNL     1      26.264  -8.759 -36.731  0.00  0.00    +0.000 C 
ATOM      9  C8  UNL     1      28.699  -9.200 -36.615  0.00  0.00    +0.000 A 
ATOM     10  C9  UNL     1      29.193  -9.545 -37.884  0.00  0.00    +0.000 A 
ATOM     11  C16 UNL     1      30.583  -9.861 -37.967  0.00  0.00    +0.000 A 
ATOM     12  O4  UNL     1      31.359  -9.818 -36.871  0.00  0.00    +0.000 OA
ATOM     13  C17 UNL     1      30.891  -9.485 -35.666  0.00  0.00    +0.000 A 
ATOM     14  C18 UNL     1      29.551  -9.182 -35.554  0.00  0.00    +0.000 A 
ATOM     15  C19 UNL     1      28.928  -8.826 -34.398  0.00  0.00    +0.000 A 
ATOM     16  C20 UNL     1      29.663  -8.734 -33.209  0.00  0.00    +0.000 A 
ATOM     17  O5  UNL     1      29.107  -8.392 -32.132  0.00  0.00    +0.000 OA
ATOM     18  C21 UNL     1      31.057  -9.037 -33.251  0.00  0.00    +0.000 A 
ATOM     19  C22 UNL     1      31.839  -8.967 -32.083  0.00  0.00    +0.000 C 
ATOM     20  C23 UNL     1      33.201  -9.264 -32.123  0.00  0.00    +0.000 C 
ATOM     21  C24 UNL     1      33.810  -9.635 -33.322  0.00  0.00    +0.000 C 
ATOM     22  C25 UNL     1      33.065  -9.716 -34.503  0.00  0.00    +0.000 C 
ATOM     23  O6  UNL     1      33.650 -10.055 -35.567  0.00  0.00    +0.000 OA
ATOM     24  C26 UNL     1      31.683  -9.421 -34.490  0.00  0.00    +0.000 A 
ENDROOT
BRANCH  10  25
ATOM     25  C10 UNL     1      28.334  -9.561 -39.079  0.00  0.00    +0.000 C 
ATOM     26  C11 UNL     1      28.153  -8.390 -39.829  0.00  0.00    +0.000 C 
ATOM     27  C12 UNL     1      27.329  -8.402 -40.958  0.00  0.00    +0.000 C 
ATOM     28  C13 UNL     1      26.686  -9.582 -41.347  0.00  0.00    +0.000 C 
ATOM     29  C14 UNL     1      26.871 -10.754 -40.601  0.00  0.00    +0.000 C 
ATOM     30  C15 UNL     1      27.694 -10.744 -39.471  0.00  0.00    +0.000 C 
BRANCH  28  31
ATOM     31  O2  UNL     1      25.865  -9.579 -42.472  0.00  0.00    +0.000 OA
ATOM     32  H10 UNL     1      26.076  -9.003 -43.280  0.00  0.00    +0.000 HD
ENDBRANCH  28  31
ENDBRANCH  10  25
BRANCH  11  33
ATOM     33  O3  UNL     1      31.174 -10.213 -39.180  0.00  0.00    +0.000 OA
ATOM     34  H13 UNL     1      30.942  -9.761 -40.055  0.00  0.00    +0.000 HD
ENDBRANCH  11  33
TORSDOF 3
