REMARK  Name = resultss/4CJN/ligands/lig_434_t0.pdb
REMARK  6 active torsions:
REMARK  status: ('A' for Active; 'I' for Inactive)
REMARK    1  A    between atoms: C8_1  and  C7_22
REMARK    2  A    between atoms: C18_12  and  C19_15
REMARK    3  A    between atoms: N3_21  and  N2_25
REMARK    4  A    between atoms: N2_25  and  C6_27
REMARK    5  A    between atoms: C6_27  and  N1_29
REMARK    6  A    between atoms: N1_29  and  C5_35
REMARK                            x       y       z     vdW  Elec       q    Type
REMARK                         _______ _______ _______ _____ _____    ______ ____
ROOT
ATOM      1  C8  UNL     1      25.692  -8.339 -38.135  0.00  0.00    +0.000 C 
ATOM      2  C9  UNL     1      27.071  -8.603 -38.002  0.00  0.00    +0.000 C 
ATOM      3  C10 UNL     1      27.575  -8.734 -36.712  0.00  0.00    +0.000 A 
ATOM      4  C11 UNL     1      26.774  -8.609 -35.597  0.00  0.00    +0.000 A 
ATOM      5  N4  UNL     1      27.474  -8.841 -34.461  0.00  0.00    +0.000 N 
ATOM      6  C12 UNL     1      28.734  -9.092 -34.876  0.00  0.00    +0.000 A 
ATOM      7  C13 UNL     1      29.838  -9.397 -34.081  0.00  0.00    +0.000 C 
ATOM      8  C14 UNL     1      31.067  -9.640 -34.724  0.00  0.00    +0.000 C 
ATOM      9  C15 UNL     1      31.168  -9.579 -36.133  0.00  0.00    +0.000 C 
ATOM     10  C16 UNL     1      30.038  -9.276 -36.915  0.00  0.00    +0.000 C 
ATOM     11  C17 UNL     1      28.835  -9.034 -36.250  0.00  0.00    +0.000 A 
ATOM     12  C18 UNL     1      25.409  -8.325 -35.740  0.00  0.00    +0.000 C 
ATOM     13  N5  UNL     1      24.915  -8.211 -37.012  0.00  0.00    +0.000 NA
ATOM     14  H10 UNL     1      27.125  -8.860 -33.478  0.00  0.00    +0.000 HD
ENDROOT
BRANCH  12  15
ATOM     15  C19 UNL     1      24.495  -8.148 -34.591  0.00  0.00    +0.000 C 
ATOM     16  C20 UNL     1      23.888  -6.899 -34.370  0.00  0.00    +0.000 C 
ATOM     17  C21 UNL     1      23.042  -6.708 -33.272  0.00  0.00    +0.000 C 
ATOM     18  C22 UNL     1      22.805  -7.759 -32.381  0.00  0.00    +0.000 C 
ATOM     19  C23 UNL     1      23.423  -8.998 -32.580  0.00  0.00    +0.000 C 
ATOM     20  C24 UNL     1      24.272  -9.192 -33.675  0.00  0.00    +0.000 C 
ENDBRANCH  12  15
BRANCH   1  22
ATOM     21  N3  UNL     1      24.313  -9.281 -40.036  0.00  0.00    +0.000 N 
ATOM     22  C7  UNL     1      25.071  -8.202 -39.470  0.00  0.00    +0.000 C 
ATOM     23  O1  UNL     1      25.216  -7.131 -40.121  0.00  0.00    +0.000 OA
ATOM     24  H8  UNL     1      24.247 -10.182 -39.512  0.00  0.00    +0.000 HD
BRANCH  21  25
ATOM     25  N2  UNL     1      23.650  -9.136 -41.271  0.00  0.00    +0.000 N 
ATOM     26  H7  UNL     1      22.624  -9.326 -41.330  0.00  0.00    +0.000 HD
BRANCH  25  27
ATOM     27  C6  UNL     1      24.338  -8.780 -42.481  0.00  0.00    +0.000 C 
ATOM     28  S1  UNL     1      23.752  -7.582 -43.447  0.00  0.00    +0.000 S 
BRANCH  27  29
ATOM     29  N1  UNL     1      25.394  -9.633 -42.953  0.00  0.00    +0.000 N 
ATOM     30  H6  UNL     1      25.161 -10.325 -43.701  0.00  0.00    +0.000 HD
BRANCH  29  35
ATOM     31  C1  UNL     1      30.822  -9.656 -41.030  0.00  0.00    +0.000 C 
ATOM     32  C2  UNL     1      29.411  -9.655 -41.541  0.00  0.00    +0.000 C 
ATOM     33  C3  UNL     1      28.433 -10.434 -40.911  0.00  0.00    +0.000 C 
ATOM     34  C4  UNL     1      27.117 -10.420 -41.372  0.00  0.00    +0.000 C 
ATOM     35  C5  UNL     1      26.746  -9.604 -42.454  0.00  0.00    +0.000 C 
ATOM     36  C25 UNL     1      27.724  -8.801 -43.084  0.00  0.00    +0.000 C 
ATOM     37  C26 UNL     1      27.369  -7.924 -44.254  0.00  0.00    +0.000 C 
ATOM     38  C27 UNL     1      29.050  -8.833 -42.619  0.00  0.00    +0.000 C 
ENDBRANCH  29  35
ENDBRANCH  27  29
ENDBRANCH  25  27
ENDBRANCH  21  25
ENDBRANCH   1  22
TORSDOF 6
