REMARK  Name = resultss/4CJN/ligands/lig_356_t2.pdb
REMARK  9 active torsions:
REMARK  status: ('A' for Active; 'I' for Inactive)
REMARK    1  A    between atoms: N2_1  and  C8_7
REMARK    2  A    between atoms: C10_3  and  C11_20
REMARK    3  A    between atoms: C7_6  and  N1_8
REMARK    4  A    between atoms: C7_6  and  O1_18
REMARK    5  A    between atoms: N1_8  and  C6_13
REMARK    6  A    between atoms: C3_10  and  C2_17
REMARK    7  A    between atoms: C11_20  and  O2_21
REMARK    8  A    between atoms: O2_21  and  C12_22
REMARK    9  A    between atoms: C15_25  and  C16_28
REMARK                            x       y       z     vdW  Elec       q    Type
REMARK                         _______ _______ _______ _____ _____    ______ ____
ROOT
ATOM      1  N2  UNL     1      24.771  -8.103 -39.077  0.00  0.00    +0.000 N 
ATOM      2  C9  UNL     1      24.642  -8.419 -37.776  0.00  0.00    +0.000 C 
ATOM      3  C10 UNL     1      24.861  -7.251 -37.080  0.00  0.00    +0.000 C 
ATOM      4  N5  UNL     1      25.117  -6.263 -37.965  0.00  0.00    +0.000 NA
ATOM      5  N6  UNL     1      25.039  -6.808 -39.172  0.00  0.00    +0.000 NA
ENDROOT
BRANCH   1   7
ATOM      6  C7  UNL     1      25.522  -9.283 -41.078  0.00  0.00    +0.000 C 
ATOM      7  C8  UNL     1      24.551  -8.955 -40.210  0.00  0.00    +0.000 C 
BRANCH   6   8
ATOM      8  N1  UNL     1      26.825  -8.682 -40.999  0.00  0.00    +0.000 N 
ATOM      9  H8  UNL     1      26.895  -7.698 -40.651  0.00  0.00    +0.000 HD
BRANCH   8  13
ATOM     10  C3  UNL     1      30.307 -10.499 -42.643  0.00  0.00    +0.000 C 
ATOM     11  C4  UNL     1      29.674 -11.051 -41.520  0.00  0.00    +0.000 C 
ATOM     12  C5  UNL     1      28.531 -10.446 -40.985  0.00  0.00    +0.000 C 
ATOM     13  C6  UNL     1      28.010  -9.274 -41.559  0.00  0.00    +0.000 C 
ATOM     14  C25 UNL     1      28.627  -8.740 -42.705  0.00  0.00    +0.000 C 
ATOM     15  C26 UNL     1      29.768  -9.347 -43.240  0.00  0.00    +0.000 C 
BRANCH  10  17
ATOM     16  C1  UNL     1      31.333 -12.686 -43.268  0.00  0.00    +0.000 C 
ATOM     17  C2  UNL     1      31.517 -11.171 -43.237  0.00  0.00    +0.000 C 
ENDBRANCH  10  17
ENDBRANCH   8  13
ENDBRANCH   6   8
BRANCH   6  18
ATOM     18  O1  UNL     1      25.240 -10.174 -42.116  0.00  0.00    +0.000 OA
ATOM     19  H9  UNL     1      25.159 -11.171 -41.956  0.00  0.00    +0.000 HD
ENDBRANCH   6  18
ENDBRANCH   1   7
BRANCH   3  20
ATOM     20  C11 UNL     1      24.849  -7.089 -35.591  0.00  0.00    +0.000 C 
BRANCH  20  21
ATOM     21  O2  UNL     1      25.229  -8.300 -34.938  0.00  0.00    +0.000 OA
BRANCH  21  22
ATOM     22  C12 UNL     1      26.515  -8.599 -34.461  0.00  0.00    +0.000 C 
ATOM     23  C13 UNL     1      27.254  -9.708 -34.911  0.00  0.00    +0.000 C 
ATOM     24  C14 UNL     1      28.517  -9.980 -34.375  0.00  0.00    +0.000 C 
ATOM     25  C15 UNL     1      29.069  -9.147 -33.386  0.00  0.00    +0.000 C 
ATOM     26  C23 UNL     1      28.339  -8.024 -32.963  0.00  0.00    +0.000 C 
ATOM     27  C24 UNL     1      27.073  -7.757 -33.495  0.00  0.00    +0.000 C 
BRANCH  25  28
ATOM     28  C16 UNL     1      30.395  -9.436 -32.787  0.00  0.00    +0.000 A 
ATOM     29  N3  UNL     1      31.202  -8.459 -32.282  0.00  0.00    +0.000 NA
ATOM     30  C17 UNL     1      32.261  -9.149 -31.823  0.00  0.00    +0.000 A 
ATOM     31  C18 UNL     1      33.399  -8.646 -31.196  0.00  0.00    +0.000 C 
ATOM     32  C19 UNL     1      34.380  -9.571 -30.785  0.00  0.00    +0.000 C 
ATOM     33  C20 UNL     1      34.198 -10.957 -31.011  0.00  0.00    +0.000 C 
ATOM     34  C21 UNL     1      33.034 -11.428 -31.647  0.00  0.00    +0.000 C 
ATOM     35  C22 UNL     1      32.088 -10.483 -32.039  0.00  0.00    +0.000 A 
ATOM     36  N4  UNL     1      30.913 -10.686 -32.650  0.00  0.00    +0.000 N 
ATOM     37  H20 UNL     1      30.495 -11.604 -32.913  0.00  0.00    +0.000 HD
ENDBRANCH  25  28
ENDBRANCH  21  22
ENDBRANCH  20  21
ENDBRANCH   3  20
TORSDOF 9
