REMARK  Name = resultss/4CJN/ligands/lig_249_t0.pdb
REMARK  13 active torsions:
REMARK  status: ('A' for Active; 'I' for Inactive)
REMARK    1  A    between atoms: C4_1  and  C3_36
REMARK    2  A    between atoms: C6_3  and  C7_10
REMARK    3  A    between atoms: C27_6  and  S2_39
REMARK    4  A    between atoms: C9_12  and  C10_19
REMARK    5  A    between atoms: C14_15  and  S1_22
REMARK    6  A    between atoms: C10_19  and  C11_20
REMARK    7  A    between atoms: S1_22  and  C15_23
REMARK    8  A    between atoms: C15_23  and  C16_24
REMARK    9  A    between atoms: C17_27  and  C18_29
REMARK   10  A    between atoms: C3_36  and  C2_38
REMARK   11  A    between atoms: S2_39  and  C28_40
REMARK   12  A    between atoms: C28_40  and  C29_41
REMARK   13  A    between atoms: C30_44  and  C31_46
REMARK                            x       y       z     vdW  Elec       q    Type
REMARK                         _______ _______ _______ _____ _____    ______ ____
ROOT
ATOM      1  C4  UNL     1      27.228 -12.392 -40.282  0.00  0.00    +0.000 C 
ATOM      2  C5  UNL     1      26.147 -11.536 -40.608  0.00  0.00    +0.000 C 
ATOM      3  C6  UNL     1      26.263 -10.130 -40.484  0.00  0.00    +0.000 C 
ATOM      4  C26 UNL     1      27.496  -9.639 -40.037  0.00  0.00    +0.000 A 
ATOM      5  O3  UNL     1      27.887  -8.401 -39.875  0.00  0.00    +0.000 OA
ATOM      6  C27 UNL     1      29.137  -8.471 -39.447  0.00  0.00    +0.000 A 
ATOM      7  N6  UNL     1      29.601  -9.742 -39.324  0.00  0.00    +0.000 NA
ATOM      8  C37 UNL     1      28.535 -10.463 -39.711  0.00  0.00    +0.000 A 
ATOM      9  C38 UNL     1      28.447 -11.845 -39.824  0.00  0.00    +0.000 C 
ENDROOT
BRANCH   3  10
ATOM     10  C7  UNL     1      25.123  -9.237 -40.819  0.00  0.00    +0.000 C 
ATOM     11  C8  UNL     1      24.928  -8.029 -40.093  0.00  0.00    +0.000 C 
ATOM     12  C9  UNL     1      23.907  -7.123 -40.447  0.00  0.00    +0.000 C 
ATOM     13  C13 UNL     1      23.084  -7.480 -41.514  0.00  0.00    +0.000 A 
ATOM     14  O1  UNL     1      22.087  -6.819 -42.039  0.00  0.00    +0.000 OA
ATOM     15  C14 UNL     1      21.625  -7.587 -43.010  0.00  0.00    +0.000 A 
ATOM     16  N3  UNL     1      22.299  -8.759 -43.148  0.00  0.00    +0.000 NA
ATOM     17  C24 UNL     1      23.231  -8.655 -42.187  0.00  0.00    +0.000 A 
ATOM     18  C25 UNL     1      24.242  -9.559 -41.881  0.00  0.00    +0.000 C 
BRANCH  12  19
ATOM     19  C10 UNL     1      23.647  -5.885 -39.635  0.00  0.00    +0.000 C 
BRANCH  19  20
ATOM     20  C11 UNL     1      23.524  -6.262 -38.185  0.00  0.00    +0.000 C 
ATOM     21  C12 UNL     1      22.354  -6.217 -37.537  0.00  0.00    +0.000 C 
ENDBRANCH  19  20
ENDBRANCH  12  19
BRANCH  15  22
ATOM     22  S1  UNL     1      20.259  -7.118 -44.072  0.00  0.00    +0.000 S 
BRANCH  22  23
ATOM     23  C15 UNL     1      21.201  -5.887 -45.034  0.00  0.00    +0.000 C 
BRANCH  23  24
ATOM     24  C16 UNL     1      22.470  -6.518 -45.503  0.00  0.00    +0.000 A 
ATOM     25  N1  UNL     1      22.539  -7.384 -46.530  0.00  0.00    +0.000 NA
ATOM     26  N2  UNL     1      23.801  -7.773 -46.599  0.00  0.00    +0.000 NA
ATOM     27  C17 UNL     1      24.458  -7.125 -45.613  0.00  0.00    +0.000 A 
ATOM     28  O2  UNL     1      23.641  -6.355 -44.932  0.00  0.00    +0.000 OA
BRANCH  27  29
ATOM     29  C18 UNL     1      25.895  -7.309 -45.318  0.00  0.00    +0.000 C 
ATOM     30  C19 UNL     1      26.283  -7.651 -44.008  0.00  0.00    +0.000 C 
ATOM     31  C20 UNL     1      27.635  -7.773 -43.674  0.00  0.00    +0.000 C 
ATOM     32  C21 UNL     1      28.617  -7.570 -44.641  0.00  0.00    +0.000 C 
ATOM     33  C22 UNL     1      28.247  -7.251 -45.952  0.00  0.00    +0.000 C 
ATOM     34  C23 UNL     1      26.894  -7.127 -46.303  0.00  0.00    +0.000 C 
ATOM     35 BR1  UNL     1      26.480  -6.804 -48.152  0.00  0.00    +0.000 Br
ENDBRANCH  27  29
ENDBRANCH  23  24
ENDBRANCH  22  23
ENDBRANCH  15  22
ENDBRANCH   3  10
BRANCH   1  36
ATOM     36  C3  UNL     1      27.099 -13.878 -40.480  0.00  0.00    +0.000 C 
BRANCH  36  38
ATOM     37  C1  UNL     1      25.160 -15.217 -39.703  0.00  0.00    +0.000 C 
ATOM     38  C2  UNL     1      25.650 -14.282 -40.522  0.00  0.00    +0.000 C 
ENDBRANCH  36  38
ENDBRANCH   1  36
BRANCH   6  39
ATOM     39  S2  UNL     1      30.127  -7.030 -39.065  0.00  0.00    +0.000 S 
BRANCH  39  40
ATOM     40  C28 UNL     1      28.698  -5.992 -38.611  0.00  0.00    +0.000 C 
BRANCH  40  41
ATOM     41  C29 UNL     1      28.216  -6.342 -37.241  0.00  0.00    +0.000 A 
ATOM     42  N4  UNL     1      28.923  -6.140 -36.116  0.00  0.00    +0.000 NA
ATOM     43  N5  UNL     1      28.166  -6.585 -35.124  0.00  0.00    +0.000 NA
ATOM     44  C30 UNL     1      27.028  -7.042 -35.681  0.00  0.00    +0.000 A 
ATOM     45  O4  UNL     1      27.052  -6.885 -36.983  0.00  0.00    +0.000 OA
BRANCH  44  46
ATOM     46  C31 UNL     1      25.880  -7.617 -34.942  0.00  0.00    +0.000 C 
ATOM     47  C32 UNL     1      24.714  -6.839 -34.820  0.00  0.00    +0.000 C 
ATOM     48  C33 UNL     1      23.602  -7.318 -34.126  0.00  0.00    +0.000 C 
ATOM     49  C34 UNL     1      23.632  -8.584 -33.547  0.00  0.00    +0.000 C 
ATOM     50  C35 UNL     1      24.776  -9.375 -33.662  0.00  0.00    +0.000 C 
ATOM     51  C36 UNL     1      25.901  -8.906 -34.354  0.00  0.00    +0.000 C 
ATOM     52 BR2  UNL     1      27.381 -10.118 -34.510  0.00  0.00    +0.000 Br
ENDBRANCH  44  46
ENDBRANCH  40  41
ENDBRANCH  39  40
ENDBRANCH   6  39
TORSDOF 13
