REMARK  Name = resultss/4CJN/ligands/lig_407_t0.pdb
REMARK  6 active torsions:
REMARK  status: ('A' for Active; 'I' for Inactive)
REMARK    1  A    between atoms: C9_1  and  C1_22
REMARK    2  A    between atoms: C19_12  and  C20_15
REMARK    3  A    between atoms: N1_23  and  N2_25
REMARK    4  A    between atoms: N2_25  and  C2_27
REMARK    5  A    between atoms: C2_27  and  N3_29
REMARK    6  A    between atoms: N3_29  and  C3_31
REMARK                            x       y       z     vdW  Elec       q    Type
REMARK                         _______ _______ _______ _____ _____    ______ ____
ROOT
ATOM      1  C9  UNL     1      27.267  -9.651 -38.074  0.00  0.00    +0.000 C 
ATOM      2  C10 UNL     1      26.001  -9.177 -37.668  0.00  0.00    +0.000 C 
ATOM      3  C11 UNL     1      25.869  -8.768 -36.346  0.00  0.00    +0.000 A 
ATOM      4  C12 UNL     1      26.919  -8.821 -35.454  0.00  0.00    +0.000 A 
ATOM      5  N4  UNL     1      26.567  -8.309 -34.250  0.00  0.00    +0.000 N 
ATOM      6  C13 UNL     1      25.274  -7.950 -34.391  0.00  0.00    +0.000 A 
ATOM      7  C14 UNL     1      24.455  -7.359 -33.431  0.00  0.00    +0.000 C 
ATOM      8  C15 UNL     1      23.132  -7.044 -33.795  0.00  0.00    +0.000 C 
ATOM      9  C16 UNL     1      22.661  -7.318 -35.100  0.00  0.00    +0.000 C 
ATOM     10  C17 UNL     1      23.508  -7.911 -36.054  0.00  0.00    +0.000 C 
ATOM     11  C18 UNL     1      24.810  -8.217 -35.662  0.00  0.00    +0.000 A 
ATOM     12  C19 UNL     1      28.166  -9.307 -35.865  0.00  0.00    +0.000 C 
ATOM     13  N5  UNL     1      28.297  -9.696 -37.170  0.00  0.00    +0.000 NA
ATOM     14  H9  UNL     1      27.163  -8.179 -33.404  0.00  0.00    +0.000 HD
ENDROOT
BRANCH  12  15
ATOM     15  C20 UNL     1      29.329  -9.410 -34.958  0.00  0.00    +0.000 C 
ATOM     16  C21 UNL     1      30.634  -9.164 -35.423  0.00  0.00    +0.000 C 
ATOM     17  C22 UNL     1      31.720  -9.239 -34.547  0.00  0.00    +0.000 C 
ATOM     18  C23 UNL     1      31.514  -9.548 -33.199  0.00  0.00    +0.000 C 
ATOM     19  C24 UNL     1      30.219  -9.773 -32.725  0.00  0.00    +0.000 C 
ATOM     20  C25 UNL     1      29.129  -9.698 -33.598  0.00  0.00    +0.000 C 
ENDBRANCH  12  15
BRANCH   1  22
ATOM     21  O1  UNL     1      26.715  -9.717 -40.382  0.00  0.00    +0.000 OA
ATOM     22  C1  UNL     1      27.502 -10.086 -39.467  0.00  0.00    +0.000 C 
ATOM     23  N1  UNL     1      28.610 -10.940 -39.785  0.00  0.00    +0.000 N 
ATOM     24  H1  UNL     1      29.052 -11.498 -39.020  0.00  0.00    +0.000 HD
BRANCH  23  25
ATOM     25  N2  UNL     1      28.919 -11.282 -41.113  0.00  0.00    +0.000 N 
ATOM     26  H2  UNL     1      28.502 -12.158 -41.497  0.00  0.00    +0.000 HD
BRANCH  25  27
ATOM     27  C2  UNL     1      29.868 -10.545 -41.905  0.00  0.00    +0.000 C 
ATOM     28  S1  UNL     1      29.396  -9.252 -42.799  0.00  0.00    +0.000 S 
BRANCH  27  29
ATOM     29  N3  UNL     1      31.247 -10.943 -41.951  0.00  0.00    +0.000 N 
ATOM     30  H3  UNL     1      31.797 -10.903 -41.063  0.00  0.00    +0.000 HD
BRANCH  29  31
ATOM     31  C3  UNL     1      31.908 -11.409 -43.138  0.00  0.00    +0.000 C 
ATOM     32  C4  UNL     1      32.677 -10.535 -43.929  0.00  0.00    +0.000 C 
ATOM     33  C5  UNL     1      33.287 -10.994 -45.100  0.00  0.00    +0.000 C 
ATOM     34  C6  UNL     1      33.123 -12.322 -45.500  0.00  0.00    +0.000 C 
ATOM     35  C7  UNL     1      32.345 -13.193 -44.733  0.00  0.00    +0.000 C 
ATOM     36  C8  UNL     1      31.732 -12.738 -43.560  0.00  0.00    +0.000 C 
ATOM     37  F1  UNL     1      30.978 -13.595 -42.827  0.00  0.00    +0.000 F 
ENDBRANCH  29  31
ENDBRANCH  27  29
ENDBRANCH  25  27
ENDBRANCH  23  25
ENDBRANCH   1  22
TORSDOF 6
