REMARK  Name = resultss/4CJN/ligands/lig_421_t0.pdb
REMARK  7 active torsions:
REMARK  status: ('A' for Active; 'I' for Inactive)
REMARK    1  A    between atoms: C1_2  and  C10_5
REMARK    2  A    between atoms: N1_3  and  N2_25
REMARK    3  A    between atoms: C20_16  and  C21_19
REMARK    4  A    between atoms: N2_25  and  C2_27
REMARK    5  A    between atoms: C2_27  and  N3_29
REMARK    6  A    between atoms: N3_29  and  C3_31
REMARK    7  A    between atoms: C6_34  and  C7_37
REMARK                            x       y       z     vdW  Elec       q    Type
REMARK                         _______ _______ _______ _____ _____    ______ ____
ROOT
ATOM      1  O1  UNL     1      26.927  -9.827 -39.760  0.00  0.00    +0.000 OA
ATOM      2  C1  UNL     1      27.933 -10.121 -39.059  0.00  0.00    +0.000 C 
ATOM      3  N1  UNL     1      29.062 -10.766 -39.669  0.00  0.00    +0.000 N 
ATOM      4  H1  UNL     1      29.907 -10.964 -39.088  0.00  0.00    +0.000 HD
ENDROOT
BRANCH   2   5
ATOM      5  C10 UNL     1      27.946  -9.791 -37.617  0.00  0.00    +0.000 C 
ATOM      6  C11 UNL     1      29.158  -9.773 -36.893  0.00  0.00    +0.000 C 
ATOM      7  C12 UNL     1      29.081  -9.487 -35.534  0.00  0.00    +0.000 A 
ATOM      8  C13 UNL     1      27.884  -9.212 -34.910  0.00  0.00    +0.000 A 
ATOM      9  N4  UNL     1      28.053  -9.040 -33.576  0.00  0.00    +0.000 N 
ATOM     10  C14 UNL     1      29.380  -9.197 -33.374  0.00  0.00    +0.000 A 
ATOM     11  C15 UNL     1      30.060  -9.124 -32.158  0.00  0.00    +0.000 C 
ATOM     12  C16 UNL     1      31.453  -9.333 -32.169  0.00  0.00    +0.000 C 
ATOM     13  C17 UNL     1      32.130  -9.613 -33.379  0.00  0.00    +0.000 C 
ATOM     14  C18 UNL     1      31.421  -9.689 -34.592  0.00  0.00    +0.000 C 
ATOM     15  C19 UNL     1      30.044  -9.469 -34.552  0.00  0.00    +0.000 A 
ATOM     16  C20 UNL     1      26.691  -9.205 -35.645  0.00  0.00    +0.000 C 
ATOM     17  N5  UNL     1      26.766  -9.511 -36.976  0.00  0.00    +0.000 NA
ATOM     18  H9  UNL     1      27.326  -8.868 -32.848  0.00  0.00    +0.000 HD
BRANCH  16  19
ATOM     19  C21 UNL     1      25.376  -8.902 -35.045  0.00  0.00    +0.000 C 
ATOM     20  C22 UNL     1      24.427  -8.124 -35.734  0.00  0.00    +0.000 C 
ATOM     21  C23 UNL     1      23.175  -7.870 -35.164  0.00  0.00    +0.000 C 
ATOM     22  C24 UNL     1      22.854  -8.401 -33.913  0.00  0.00    +0.000 C 
ATOM     23  C25 UNL     1      23.782  -9.193 -33.232  0.00  0.00    +0.000 C 
ATOM     24  C26 UNL     1      25.035  -9.449 -33.797  0.00  0.00    +0.000 C 
ENDBRANCH  16  19
ENDBRANCH   2   5
BRANCH   3  25
ATOM     25  N2  UNL     1      29.077 -11.069 -41.043  0.00  0.00    +0.000 N 
ATOM     26  H2  UNL     1      28.477 -11.842 -41.409  0.00  0.00    +0.000 HD
BRANCH  25  27
ATOM     27  C2  UNL     1      29.809 -10.267 -41.981  0.00  0.00    +0.000 C 
ATOM     28  S1  UNL     1      28.978  -9.317 -43.031  0.00  0.00    +0.000 S 
BRANCH  27  29
ATOM     29  N3  UNL     1      31.219 -10.461 -42.155  0.00  0.00    +0.000 N 
ATOM     30  H3  UNL     1      31.860 -10.000 -41.473  0.00  0.00    +0.000 HD
BRANCH  29  31
ATOM     31  C3  UNL     1      31.795 -11.284 -43.187  0.00  0.00    +0.000 C 
ATOM     32  C4  UNL     1      32.692 -10.716 -44.103  0.00  0.00    +0.000 C 
ATOM     33  C5  UNL     1      33.249 -11.491 -45.128  0.00  0.00    +0.000 C 
ATOM     34  C6  UNL     1      32.915 -12.852 -45.254  0.00  0.00    +0.000 C 
ATOM     35  C8  UNL     1      31.987 -13.410 -44.359  0.00  0.00    +0.000 C 
ATOM     36  C9  UNL     1      31.430 -12.634 -43.337  0.00  0.00    +0.000 C 
BRANCH  34  37
ATOM     37  C7  UNL     1      33.460 -13.691 -46.382  0.00  0.00    +0.000 C 
ATOM     38  F1  UNL     1      32.408 -14.285 -47.054  0.00  0.00    +0.000 F 
ATOM     39  F2  UNL     1      34.190 -12.923 -47.276  0.00  0.00    +0.000 F 
ATOM     40  F3  UNL     1      34.285 -14.681 -45.876  0.00  0.00    +0.000 F 
ENDBRANCH  34  37
ENDBRANCH  29  31
ENDBRANCH  27  29
ENDBRANCH  25  27
ENDBRANCH   3  25
TORSDOF 7
