REMARK  Name = resultss/4CJN/ligands/lig_438_t0.pdb
REMARK  8 active torsions:
REMARK  status: ('A' for Active; 'I' for Inactive)
REMARK    1  A    between atoms: N3_1  and  N2_25
REMARK    2  A    between atoms: C9_2  and  C10_5
REMARK    3  A    between atoms: C20_16  and  C21_19
REMARK    4  A    between atoms: N2_25  and  C8_27
REMARK    5  A    between atoms: C8_27  and  N1_29
REMARK    6  A    between atoms: N1_29  and  C7_35
REMARK    7  A    between atoms: C2_31  and  O1_38
REMARK    8  A    between atoms: C5_34  and  O2_39
REMARK                            x       y       z     vdW  Elec       q    Type
REMARK                         _______ _______ _______ _____ _____    ______ ____
ROOT
ATOM      1  N3  UNL     1      30.425  -9.779 -38.471  0.00  0.00    +0.000 N 
ATOM      2  C9  UNL     1      29.627  -9.696 -37.278  0.00  0.00    +0.000 C 
ATOM      3  O3  UNL     1      30.154  -9.926 -36.156  0.00  0.00    +0.000 OA
ATOM      4  H11 UNL     1      30.113  -9.266 -39.324  0.00  0.00    +0.000 HD
ENDROOT
BRANCH   2   5
ATOM      5  C10 UNL     1      28.200  -9.325 -37.358  0.00  0.00    +0.000 C 
ATOM      6  C11 UNL     1      27.431  -9.157 -36.187  0.00  0.00    +0.000 C 
ATOM      7  C12 UNL     1      26.097  -8.803 -36.347  0.00  0.00    +0.000 A 
ATOM      8  C13 UNL     1      25.530  -8.628 -37.590  0.00  0.00    +0.000 A 
ATOM      9  N4  UNL     1      24.240  -8.225 -37.490  0.00  0.00    +0.000 N 
ATOM     10  C14 UNL     1      23.997  -8.168 -36.162  0.00  0.00    +0.000 A 
ATOM     11  C15 UNL     1      22.808  -7.794 -35.539  0.00  0.00    +0.000 C 
ATOM     12  C16 UNL     1      22.776  -7.787 -34.132  0.00  0.00    +0.000 C 
ATOM     13  C17 UNL     1      23.921  -8.144 -33.385  0.00  0.00    +0.000 C 
ATOM     14  C18 UNL     1      25.112  -8.514 -34.035  0.00  0.00    +0.000 C 
ATOM     15  C19 UNL     1      25.112  -8.518 -35.429  0.00  0.00    +0.000 A 
ATOM     16  C20 UNL     1      26.297  -8.818 -38.747  0.00  0.00    +0.000 C 
ATOM     17  N5  UNL     1      27.614  -9.152 -38.586  0.00  0.00    +0.000 NA
ATOM     18  H13 UNL     1      23.578  -7.974 -38.257  0.00  0.00    +0.000 HD
BRANCH  16  19
ATOM     19  C21 UNL     1      25.749  -8.670 -40.112  0.00  0.00    +0.000 C 
ATOM     20  C22 UNL     1      25.440  -9.799 -40.893  0.00  0.00    +0.000 C 
ATOM     21  C23 UNL     1      24.945  -9.643 -42.193  0.00  0.00    +0.000 C 
ATOM     22  C24 UNL     1      24.770  -8.364 -42.727  0.00  0.00    +0.000 C 
ATOM     23  C25 UNL     1      25.099  -7.238 -41.966  0.00  0.00    +0.000 C 
ATOM     24  C26 UNL     1      25.592  -7.390 -40.667  0.00  0.00    +0.000 C 
ENDBRANCH  16  19
ENDBRANCH   2   5
BRANCH   1  25
ATOM     25  N2  UNL     1      31.709 -10.354 -38.476  0.00  0.00    +0.000 N 
ATOM     26  H10 UNL     1      31.902 -11.146 -37.822  0.00  0.00    +0.000 HD
BRANCH  25  27
ATOM     27  C8  UNL     1      32.792  -9.808 -39.243  0.00  0.00    +0.000 C 
ATOM     28  S1  UNL     1      34.164  -9.355 -38.467  0.00  0.00    +0.000 S 
BRANCH  27  29
ATOM     29  N1  UNL     1      32.577  -9.427 -40.612  0.00  0.00    +0.000 N 
ATOM     30  H9  UNL     1      32.603  -8.408 -40.840  0.00  0.00    +0.000 HD
BRANCH  29  35
ATOM     31  C2  UNL     1      33.140 -11.925 -43.359  0.00  0.00    +0.000 C 
ATOM     32  C3  UNL     1      31.813 -12.243 -43.695  0.00  0.00    +0.000 C 
ATOM     33  C4  UNL     1      30.751 -11.636 -43.024  0.00  0.00    +0.000 C 
ATOM     34  C5  UNL     1      30.993 -10.694 -42.006  0.00  0.00    +0.000 C 
ATOM     35  C7  UNL     1      32.320 -10.359 -41.678  0.00  0.00    +0.000 C 
ATOM     36  C27 UNL     1      33.382 -10.987 -42.351  0.00  0.00    +0.000 C 
BRANCH  31  38
ATOM     37  C1  UNL     1      34.152 -13.356 -45.142  0.00  0.00    +0.000 C 
ATOM     38  O1  UNL     1      34.241 -12.520 -43.993  0.00  0.00    +0.000 OA
ENDBRANCH  31  38
BRANCH  34  39
ATOM     39  O2  UNL     1      29.947 -10.067 -41.310  0.00  0.00    +0.000 OA
ATOM     40  C6  UNL     1      29.066  -9.100 -41.875  0.00  0.00    +0.000 C 
ENDBRANCH  34  39
ENDBRANCH  29  35
ENDBRANCH  27  29
ENDBRANCH  25  27
ENDBRANCH   1  25
TORSDOF 8
