REMARK  Name = resultss/4CJN/ligands/lig_359_t1.pdb
REMARK  7 active torsions:
REMARK  status: ('A' for Active; 'I' for Inactive)
REMARK    1  A    between atoms: C2_1  and  N1_2
REMARK    2  A    between atoms: C2_1  and  C1_22
REMARK    3  A    between atoms: C3_3  and  C4_13
REMARK    4  A    between atoms: C4_13  and  C5_14
REMARK    5  A    between atoms: N3_23  and  N4_25
REMARK    6  A    between atoms: C18_26  and  C19_27
REMARK    7  A    between atoms: C18_26  and  O3_38
REMARK                            x       y       z     vdW  Elec       q    Type
REMARK                         _______ _______ _______ _____ _____    ______ ____
ROOT
ATOM      1  C2  UNL     1      28.470 -10.935 -40.717  0.00  0.00    +0.000 C 
ENDROOT
BRANCH   1   2
ATOM      2  N1  UNL     1      28.409  -9.986 -41.853  0.00  0.00    +0.000 N 
ATOM      3  C3  UNL     1      29.548  -9.588 -42.529  0.00  0.00    +0.000 A 
ATOM      4  N2  UNL     1      29.447  -8.745 -43.591  0.00  0.00    +0.000 NA
ATOM      5  C11 UNL     1      28.255  -8.273 -44.022  0.00  0.00    +0.000 A 
ATOM      6  C12 UNL     1      28.202  -7.404 -45.120  0.00  0.00    +0.000 C 
ATOM      7  C13 UNL     1      26.970  -6.919 -45.568  0.00  0.00    +0.000 C 
ATOM      8  C14 UNL     1      25.790  -7.298 -44.922  0.00  0.00    +0.000 C 
ATOM      9  C15 UNL     1      25.837  -8.166 -43.825  0.00  0.00    +0.000 C 
ATOM     10  C16 UNL     1      27.074  -8.659 -43.367  0.00  0.00    +0.000 A 
ATOM     11  C17 UNL     1      27.178  -9.534 -42.272  0.00  0.00    +0.000 A 
ATOM     12  O2  UNL     1      26.125  -9.912 -41.681  0.00  0.00    +0.000 OA
BRANCH   3  13
ATOM     13  C4  UNL     1      30.942 -10.047 -42.154  0.00  0.00    +0.000 C 
BRANCH  13  14
ATOM     14  C5  UNL     1      31.503 -11.037 -43.144  0.00  0.00    +0.000 C 
ATOM     15  C6  UNL     1      31.207 -12.405 -43.025  0.00  0.00    +0.000 C 
ATOM     16  C7  UNL     1      31.723 -13.322 -43.944  0.00  0.00    +0.000 C 
ATOM     17  C8  UNL     1      32.551 -12.885 -44.982  0.00  0.00    +0.000 C 
ATOM     18 BR1  UNL     1      33.254 -14.142 -46.234  0.00  0.00    +0.000 Br
ATOM     19  C9  UNL     1      32.871 -11.528 -45.095  0.00  0.00    +0.000 C 
ATOM     20  C10 UNL     1      32.357 -10.608 -44.175  0.00  0.00    +0.000 C 
ENDBRANCH  13  14
ENDBRANCH   3  13
ENDBRANCH   1   2
BRANCH   1  22
ATOM     21  O1  UNL     1      28.853  -9.044 -39.325  0.00  0.00    +0.000 OA
ATOM     22  C1  UNL     1      28.456 -10.240 -39.379  0.00  0.00    +0.000 C 
ATOM     23  N3  UNL     1      28.007 -10.895 -38.181  0.00  0.00    +0.000 N 
ATOM     24  H13 UNL     1      27.902 -11.932 -38.176  0.00  0.00    +0.000 HD
BRANCH  23  25
ATOM     25  N4  UNL     1      28.088 -10.262 -36.928  0.00  0.00    +0.000 NA
ATOM     26  C18 UNL     1      27.124  -9.564 -36.399  0.00  0.00    +0.000 C 
BRANCH  26  27
ATOM     27  C19 UNL     1      27.340  -8.849 -35.111  0.00  0.00    +0.000 C 
ATOM     28  C20 UNL     1      28.467  -8.026 -34.962  0.00  0.00    +0.000 C 
ATOM     29  C21 UNL     1      28.695  -7.363 -33.754  0.00  0.00    +0.000 C 
ATOM     30  C22 UNL     1      29.811  -6.533 -33.571  0.00  0.00    +0.000 C 
ATOM     31  C23 UNL     1      30.006  -5.885 -32.347  0.00  0.00    +0.000 C 
ATOM     32  C24 UNL     1      29.092  -6.066 -31.303  0.00  0.00    +0.000 C 
ATOM     33  C25 UNL     1      27.977  -6.895 -31.478  0.00  0.00    +0.000 C 
ATOM     34  C26 UNL     1      27.773  -7.542 -32.703  0.00  0.00    +0.000 C 
ATOM     35  O4  UNL     1      26.710  -8.320 -32.871  0.00  0.00    +0.000 OA
ATOM     36  C27 UNL     1      26.457  -8.963 -34.009  0.00  0.00    +0.000 C 
ATOM     37  O5  UNL     1      25.413  -9.665 -34.083  0.00  0.00    +0.000 OA
ENDBRANCH  26  27
BRANCH  26  38
ATOM     38  O3  UNL     1      25.871  -9.486 -37.015  0.00  0.00    +0.000 OA
ATOM     39  H14 UNL     1      25.109  -8.932 -36.643  0.00  0.00    +0.000 HD
ENDBRANCH  26  38
ENDBRANCH  23  25
ENDBRANCH   1  22
TORSDOF 7
