REMARK  Name = resultss/4CJN/ligands/lig_429_t1.pdb
REMARK  7 active torsions:
REMARK  status: ('A' for Active; 'I' for Inactive)
REMARK    1  A    between atoms: C1_2  and  C15_5
REMARK    2  A    between atoms: N1_3  and  N2_25
REMARK    3  A    between atoms: C25_16  and  C26_19
REMARK    4  A    between atoms: C2_26  and  S1_42
REMARK    5  A    between atoms: N3_27  and  C3_29
REMARK    6  A    between atoms: C6_32  and  O2_35
REMARK    7  A    between atoms: O2_35  and  C7_36
REMARK                            x       y       z     vdW  Elec       q    Type
REMARK                         _______ _______ _______ _____ _____    ______ ____
ROOT
ATOM      1  O1  UNL     1      29.328  -9.828 -37.574  0.00  0.00    +0.000 OA
ATOM      2  C1  UNL     1      29.662  -8.820 -38.256  0.00  0.00    +0.000 C 
ATOM      3  N1  UNL     1      30.137  -7.639 -37.590  0.00  0.00    +0.000 N 
ATOM      4  H1  UNL     1      30.686  -6.939 -38.136  0.00  0.00    +0.000 HD
ENDROOT
BRANCH   2   5
ATOM      5  C15 UNL     1      29.578  -8.871 -39.730  0.00  0.00    +0.000 C 
ATOM      6  C16 UNL     1      28.652  -8.066 -40.428  0.00  0.00    +0.000 C 
ATOM      7  C17 UNL     1      28.644  -8.163 -41.815  0.00  0.00    +0.000 A 
ATOM      8  C18 UNL     1      29.494  -9.007 -42.496  0.00  0.00    +0.000 A 
ATOM      9  N4  UNL     1      29.347  -8.877 -43.836  0.00  0.00    +0.000 N 
ATOM     10  C19 UNL     1      28.378  -7.950 -43.989  0.00  0.00    +0.000 A 
ATOM     11  C20 UNL     1      27.871  -7.451 -45.187  0.00  0.00    +0.000 C 
ATOM     12  C21 UNL     1      26.871  -6.464 -45.121  0.00  0.00    +0.000 C 
ATOM     13  C22 UNL     1      26.405  -5.995 -43.871  0.00  0.00    +0.000 C 
ATOM     14  C23 UNL     1      26.935  -6.509 -42.673  0.00  0.00    +0.000 C 
ATOM     15  C24 UNL     1      27.921  -7.489 -42.771  0.00  0.00    +0.000 A 
ATOM     16  C25 UNL     1      30.400  -9.811 -41.791  0.00  0.00    +0.000 C 
ATOM     17  N5  UNL     1      30.416  -9.704 -40.427  0.00  0.00    +0.000 NA
ATOM     18  H14 UNL     1      29.885  -9.351 -44.594  0.00  0.00    +0.000 HD
BRANCH  16  19
ATOM     19  C26 UNL     1      31.328 -10.748 -42.457  0.00  0.00    +0.000 C 
ATOM     20  C27 UNL     1      30.840 -11.954 -42.987  0.00  0.00    +0.000 C 
ATOM     21  C28 UNL     1      31.704 -12.838 -43.640  0.00  0.00    +0.000 C 
ATOM     22  C29 UNL     1      33.057 -12.519 -43.782  0.00  0.00    +0.000 C 
ATOM     23  C30 UNL     1      33.546 -11.312 -43.277  0.00  0.00    +0.000 C 
ATOM     24  C31 UNL     1      32.685 -10.425 -42.624  0.00  0.00    +0.000 C 
ENDBRANCH  16  19
ENDBRANCH   2   5
BRANCH   3  25
ATOM     25  N2  UNL     1      30.188  -7.568 -36.189  0.00  0.00    +0.000 NA
ATOM     26  C2  UNL     1      29.198  -7.146 -35.456  0.00  0.00    +0.000 C 
ATOM     27  N3  UNL     1      29.314  -7.131 -34.026  0.00  0.00    +0.000 N 
ATOM     28  H3  UNL     1      28.711  -6.457 -33.503  0.00  0.00    +0.000 HD
BRANCH  27  29
ATOM     29  C3  UNL     1      30.207  -7.971 -33.269  0.00  0.00    +0.000 C 
ATOM     30  C4  UNL     1      31.301  -7.391 -32.610  0.00  0.00    +0.000 C 
ATOM     31  C5  UNL     1      32.164  -8.177 -31.840  0.00  0.00    +0.000 C 
ATOM     32  C6  UNL     1      31.930  -9.555 -31.699  0.00  0.00    +0.000 C 
ATOM     33  C13 UNL     1      30.843 -10.137 -32.358  0.00  0.00    +0.000 C 
ATOM     34  C14 UNL     1      29.975  -9.352 -33.123  0.00  0.00    +0.000 C 
BRANCH  32  35
ATOM     35  O2  UNL     1      32.782 -10.377 -30.948  0.00  0.00    +0.000 OA
BRANCH  35  36
ATOM     36  C7  UNL     1      32.999 -11.744 -31.176  0.00  0.00    +0.000 C 
ATOM     37  C8  UNL     1      34.132 -12.133 -31.903  0.00  0.00    +0.000 C 
ATOM     38  C9  UNL     1      34.370 -13.484 -32.172  0.00  0.00    +0.000 C 
ATOM     39  C10 UNL     1      33.471 -14.456 -31.726  0.00  0.00    +0.000 C 
ATOM     40  C11 UNL     1      32.331 -14.078 -31.010  0.00  0.00    +0.000 C 
ATOM     41  C12 UNL     1      32.090 -12.727 -30.739  0.00  0.00    +0.000 C 
ENDBRANCH  35  36
ENDBRANCH  32  35
ENDBRANCH  27  29
BRANCH  26  42
ATOM     42  S1  UNL     1      27.730  -6.428 -36.204  0.00  0.00    +0.000 S 
ATOM     43  H2  UNL     1      28.239  -5.122 -36.095  0.00  0.00    +0.000 HD
ENDBRANCH  26  42
ENDBRANCH   3  25
TORSDOF 7
