REMARK  Name = resultss/4CJN/ligands/lig_179_t2.pdb
REMARK  4 active torsions:
REMARK  status: ('A' for Active; 'I' for Inactive)
REMARK    1  A    between atoms: C9_1  and  C1_17
REMARK    2  A    between atoms: C12_4  and  C13_7
REMARK    3  A    between atoms: N1_18  and  N2_20
REMARK    4  A    between atoms: C2_21  and  C3_22
REMARK                            x       y       z     vdW  Elec       q    Type
REMARK                         _______ _______ _______ _____ _____    ______ ____
ROOT
ATOM      1  C9  UNL     1      27.627  -8.797 -38.083  0.00  0.00    +0.000 C 
ATOM      2  C10 UNL     1      27.980 -10.018 -37.483  0.00  0.00    +0.000 C 
ATOM      3  C11 UNL     1      28.817 -10.045 -36.363  0.00  0.00    +0.000 C 
ATOM      4  C12 UNL     1      29.315  -8.852 -35.814  0.00  0.00    +0.000 C 
ATOM      5  C20 UNL     1      28.954  -7.630 -36.409  0.00  0.00    +0.000 C 
ATOM      6  C21 UNL     1      28.118  -7.603 -37.528  0.00  0.00    +0.000 C 
ENDROOT
BRANCH   4   7
ATOM      7  C13 UNL     1      30.201  -8.892 -34.627  0.00  0.00    +0.000 A 
ATOM      8  N3  UNL     1      30.500 -10.037 -33.962  0.00  0.00    +0.000 NA
ATOM      9  C14 UNL     1      31.330  -9.801 -32.915  0.00  0.00    +0.000 A 
ATOM     10  C15 UNL     1      31.809 -10.787 -32.050  0.00  0.00    +0.000 C 
ATOM     11  C16 UNL     1      32.665 -10.406 -31.001  0.00  0.00    +0.000 C 
ATOM     12  C17 UNL     1      33.030  -9.055 -30.831  0.00  0.00    +0.000 C 
ATOM     13  C18 UNL     1      32.543  -8.074 -31.709  0.00  0.00    +0.000 C 
ATOM     14  C19 UNL     1      31.697  -8.477 -32.738  0.00  0.00    +0.000 A 
ATOM     15  S1  UNL     1      30.966  -7.546 -33.925  0.00  0.00    +0.000 S 
ENDBRANCH   4   7
BRANCH   1  17
ATOM     16  O1  UNL     1      25.484  -8.735 -39.103  0.00  0.00    +0.000 OA
ATOM     17  C1  UNL     1      26.735  -8.778 -39.268  0.00  0.00    +0.000 C 
ATOM     18  N1  UNL     1      27.273  -8.855 -40.599  0.00  0.00    +0.000 N 
ATOM     19  H1  UNL     1      28.176  -9.360 -40.740  0.00  0.00    +0.000 HD
BRANCH  18  20
ATOM     20  N2  UNL     1      26.549  -8.488 -41.749  0.00  0.00    +0.000 NA
ATOM     21  C2  UNL     1      27.039  -7.750 -42.701  0.00  0.00    +0.000 C 
BRANCH  21  22
ATOM     22  C3  UNL     1      26.228  -7.379 -43.880  0.00  0.00    +0.000 C 
ATOM     23  C4  UNL     1      24.857  -7.926 -43.985  0.00  0.00    +0.000 C 
ATOM     24  C5  UNL     1      24.047  -7.588 -44.989  0.00  0.00    +0.000 C 
ATOM     25  C6  UNL     1      24.504  -6.670 -46.039  0.00  0.00    +0.000 C 
ATOM     26  O2  UNL     1      23.697  -6.294 -46.930  0.00  0.00    +0.000 OA
ATOM     27  C7  UNL     1      25.932  -6.194 -46.077  0.00  0.00    +0.000 C 
ATOM     28 BR1  UNL     1      26.823  -6.963 -47.616  0.00  0.00    +0.000 Br
ATOM     29  C8  UNL     1      26.709  -6.558 -44.835  0.00  0.00    +0.000 C 
ENDBRANCH  21  22
ENDBRANCH  18  20
ENDBRANCH   1  17
TORSDOF 4
