REMARK  Name = resultss/4CJN/ligands/lig_260_t2.pdb
REMARK  17 active torsions:
REMARK  status: ('A' for Active; 'I' for Inactive)
REMARK    1  A    between atoms: C11_1  and  O2_34
REMARK    2  A    between atoms: C12_2  and  O3_27
REMARK    3  A    between atoms: C20_5  and  O5_25
REMARK    4  A    between atoms: C22_7  and  O6_23
REMARK    5  A    between atoms: C23_8  and  C24_46
REMARK    6  A    between atoms: C26_10  and  O8_21
REMARK    7  A    between atoms: O3_27  and  C13_28
REMARK    8  A    between atoms: C13_28  and  C14_30
REMARK    9  A    between atoms: C14_30  and  C16_32
REMARK   10  A    between atoms: O2_34  and  C10_35
REMARK   11  A    between atoms: C10_35  and  C9_37
REMARK   12  A    between atoms: C9_37  and  C8_38
REMARK   13  A    between atoms: C8_38  and  C7_40
REMARK   14  A    between atoms: C6_39  and  C5_41
REMARK   15  A    between atoms: C5_41  and  C4_43
REMARK   16  A    between atoms: C3_42  and  C2_45
REMARK   17  A    between atoms: C24_46  and  O7_47
REMARK                            x       y       z     vdW  Elec       q    Type
REMARK                         _______ _______ _______ _____ _____    ______ ____
ROOT
ATOM      1  C11 UNL     1      28.469  -8.130 -36.874  0.00  0.00    +0.000 C 
ATOM      2  C12 UNL     1      26.993  -7.722 -37.139  0.00  0.00    +0.000 C 
ATOM      3  C18 UNL     1      26.442  -8.054 -38.553  0.00  0.00    +0.000 C 
ATOM      4  C19 UNL     1      25.051  -7.412 -38.730  0.00  0.00    +0.000 C 
ATOM      5  C20 UNL     1      27.505  -7.693 -39.672  0.00  0.00    +0.000 C 
ATOM      6  C21 UNL     1      28.691  -8.648 -39.440  0.00  0.00    +0.000 C 
ATOM      7  C22 UNL     1      29.291  -9.546 -40.295  0.00  0.00    +0.000 C 
ATOM      8  C23 UNL     1      29.033  -9.773 -41.767  0.00  0.00    +0.000 C 
ATOM      9  C25 UNL     1      27.835  -9.700 -42.371  0.00  0.00    +0.000 C 
ATOM     10  C26 UNL     1      26.632  -9.146 -41.690  0.00  0.00    +0.000 C 
ATOM     11  C27 UNL     1      25.509  -8.819 -42.624  0.00  0.00    +0.000 C 
ATOM     12  O9  UNL     1      24.963  -9.643 -43.409  0.00  0.00    +0.000 OA
ATOM     13  C28 UNL     1      25.079  -7.448 -42.441  0.00  0.00    +0.000 C 
ATOM     14  C29 UNL     1      23.856  -6.834 -43.041  0.00  0.00    +0.000 C 
ATOM     15  C30 UNL     1      25.858  -6.856 -41.547  0.00  0.00    +0.000 C 
ATOM     16  C31 UNL     1      27.004  -7.744 -41.146  0.00  0.00    +0.000 C 
ATOM     17  C32 UNL     1      29.346  -8.501 -38.076  0.00  0.00    +0.000 C 
ATOM     18  C33 UNL     1      29.025  -9.569 -37.005  0.00  0.00    +0.000 C 
ATOM     19  C34 UNL     1      28.026 -10.708 -37.299  0.00  0.00    +0.000 C 
ATOM     20  C35 UNL     1      30.218  -9.939 -36.104  0.00  0.00    +0.000 C 
ENDROOT
BRANCH   5  21
ATOM     21  O5  UNL     1      28.004  -6.390 -39.446  0.00  0.00    +0.000 OA
ATOM     22  H30 UNL     1      28.766  -6.445 -38.816  0.00  0.00    +0.000 HD
ENDBRANCH   5  21
BRANCH   7  23
ATOM     23  O6  UNL     1      30.296 -10.346 -39.731  0.00  0.00    +0.000 OA
ATOM     24  H31 UNL     1      31.015 -10.802 -40.276  0.00  0.00    +0.000 HD
ENDBRANCH   7  23
BRANCH  10  25
ATOM     25  O8  UNL     1      26.169 -10.023 -40.697  0.00  0.00    +0.000 OA
ATOM     26  H36 UNL     1      25.519  -9.527 -40.134  0.00  0.00    +0.000 HD
ENDBRANCH  10  25
BRANCH   1  27
ATOM     27  O2  UNL     1      29.158  -7.297 -35.938  0.00  0.00    +0.000 OA
BRANCH  27  28
ATOM     28  C10 UNL     1      28.680  -7.057 -34.646  0.00  0.00    +0.000 C 
ATOM     29  O1  UNL     1      28.420  -5.884 -34.264  0.00  0.00    +0.000 OA
BRANCH  28  30
ATOM     30  C9  UNL     1      28.468  -8.198 -33.701  0.00  0.00    +0.000 C 
BRANCH  30  31
ATOM     31  C8  UNL     1      29.567  -8.227 -32.637  0.00  0.00    +0.000 C 
BRANCH  31  33
ATOM     32  C6  UNL     1      31.447  -9.921 -32.522  0.00  0.00    +0.000 C 
ATOM     33  C7  UNL     1      30.138  -9.617 -32.508  0.00  0.00    +0.000 C 
BRANCH  32  34
ATOM     34  C5  UNL     1      32.562  -8.922 -32.688  0.00  0.00    +0.000 C 
BRANCH  34  36
ATOM     35  C3  UNL     1      33.397  -8.443 -35.032  0.00  0.00    +0.000 C 
ATOM     36  C4  UNL     1      33.393  -9.196 -33.917  0.00  0.00    +0.000 C 
BRANCH  35  38
ATOM     37  C1  UNL     1      32.468  -6.820 -36.701  0.00  0.00    +0.000 C 
ATOM     38  C2  UNL     1      32.600  -7.180 -35.223  0.00  0.00    +0.000 C 
ENDBRANCH  35  38
ENDBRANCH  34  36
ENDBRANCH  32  34
ENDBRANCH  31  33
ENDBRANCH  30  31
ENDBRANCH  28  30
ENDBRANCH  27  28
ENDBRANCH   1  27
BRANCH   2  39
ATOM     39  O3  UNL     1      26.172  -8.322 -36.131  0.00  0.00    +0.000 OA
BRANCH  39  40
ATOM     40  C13 UNL     1      25.253  -7.625 -35.338  0.00  0.00    +0.000 C 
ATOM     41  O4  UNL     1      25.283  -6.364 -35.275  0.00  0.00    +0.000 OA
BRANCH  40  42
ATOM     42  C14 UNL     1      24.184  -8.398 -34.610  0.00  0.00    +0.000 C 
ATOM     43  C15 UNL     1      24.727  -8.980 -33.295  0.00  0.00    +0.000 C 
BRANCH  42  44
ATOM     44  C16 UNL     1      22.962  -7.482 -34.385  0.00  0.00    +0.000 C 
ATOM     45  C17 UNL     1      22.037  -7.424 -35.599  0.00  0.00    +0.000 C 
ENDBRANCH  42  44
ENDBRANCH  40  42
ENDBRANCH  39  40
ENDBRANCH   2  39
BRANCH   8  46
ATOM     46  C24 UNL     1      30.195 -10.214 -42.631  0.00  0.00    +0.000 C 
BRANCH  46  47
ATOM     47  O7  UNL     1      30.631 -11.486 -42.251  0.00  0.00    +0.000 OA
ATOM     48  H34 UNL     1      31.522 -11.376 -41.833  0.00  0.00    +0.000 HD
ENDBRANCH  46  47
ENDBRANCH   8  46
TORSDOF 17
