REMARK  Name = resultss/4CJN/ligands/lig_356_t2.pdb
REMARK  9 active torsions:
REMARK  status: ('A' for Active; 'I' for Inactive)
REMARK    1  A    between atoms: N2_1  and  C8_7
REMARK    2  A    between atoms: C10_3  and  C11_20
REMARK    3  A    between atoms: C7_6  and  N1_8
REMARK    4  A    between atoms: C7_6  and  O1_18
REMARK    5  A    between atoms: N1_8  and  C6_13
REMARK    6  A    between atoms: C3_10  and  C2_17
REMARK    7  A    between atoms: C11_20  and  O2_21
REMARK    8  A    between atoms: O2_21  and  C12_22
REMARK    9  A    between atoms: C15_25  and  C16_28
REMARK                            x       y       z     vdW  Elec       q    Type
REMARK                         _______ _______ _______ _____ _____    ______ ____
ROOT
ATOM      1  N2  UNL     1      26.337  -9.415 -36.078  0.00  0.00    +0.000 N 
ATOM      2  C9  UNL     1      25.929  -8.880 -37.243  0.00  0.00    +0.000 C 
ATOM      3  C10 UNL     1      26.697  -9.471 -38.220  0.00  0.00    +0.000 C 
ATOM      4  N5  UNL     1      27.547 -10.341 -37.633  0.00  0.00    +0.000 NA
ATOM      5  N6  UNL     1      27.293 -10.297 -36.331  0.00  0.00    +0.000 NA
ENDROOT
BRANCH   1   7
ATOM      6  C7  UNL     1      26.357  -8.378 -33.868  0.00  0.00    +0.000 C 
ATOM      7  C8  UNL     1      25.787  -9.190 -34.773  0.00  0.00    +0.000 C 
BRANCH   6   8
ATOM      8  N1  UNL     1      27.643  -7.782 -34.109  0.00  0.00    +0.000 N 
ATOM      9  H8  UNL     1      27.725  -7.079 -34.879  0.00  0.00    +0.000 HD
BRANCH   8  13
ATOM     10  C3  UNL     1      31.259  -9.174 -32.345  0.00  0.00    +0.000 C 
ATOM     11  C4  UNL     1      30.460 -10.033 -33.114  0.00  0.00    +0.000 C 
ATOM     12  C5  UNL     1      29.273  -9.567 -33.689  0.00  0.00    +0.000 C 
ATOM     13  C6  UNL     1      28.860  -8.239 -33.494  0.00  0.00    +0.000 C 
ATOM     14  C25 UNL     1      29.677  -7.370 -32.749  0.00  0.00    +0.000 C 
ATOM     15  C26 UNL     1      30.866  -7.836 -32.177  0.00  0.00    +0.000 C 
BRANCH  10  17
ATOM     16  C1  UNL     1      32.404 -11.101 -31.247  0.00  0.00    +0.000 C 
ATOM     17  C2  UNL     1      32.553  -9.670 -31.756  0.00  0.00    +0.000 C 
ENDBRANCH  10  17
ENDBRANCH   8  13
ENDBRANCH   6   8
BRANCH   6  18
ATOM     18  O1  UNL     1      25.720  -8.161 -32.644  0.00  0.00    +0.000 OA
ATOM     19  H9  UNL     1      24.810  -8.556 -32.438  0.00  0.00    +0.000 HD
ENDBRANCH   6  18
ENDBRANCH   1   7
BRANCH   3  20
ATOM     20  C11 UNL     1      26.635  -9.190 -39.690  0.00  0.00    +0.000 C 
BRANCH  20  21
ATOM     21  O2  UNL     1      27.844  -8.587 -40.151  0.00  0.00    +0.000 OA
BRANCH  21  22
ATOM     22  C12 UNL     1      28.742  -9.160 -41.066  0.00  0.00    +0.000 C 
ATOM     23  C13 UNL     1      28.855  -8.720 -42.398  0.00  0.00    +0.000 C 
ATOM     24  C14 UNL     1      29.741  -9.352 -43.277  0.00  0.00    +0.000 C 
ATOM     25  C15 UNL     1      30.535 -10.427 -42.843  0.00  0.00    +0.000 C 
ATOM     26  C23 UNL     1      30.439 -10.841 -41.504  0.00  0.00    +0.000 C 
ATOM     27  C24 UNL     1      29.549 -10.214 -40.628  0.00  0.00    +0.000 C 
BRANCH  25  28
ATOM     28  C16 UNL     1      31.460 -11.126 -43.769  0.00  0.00    +0.000 A 
ATOM     29  N3  UNL     1      31.477 -12.483 -43.905  0.00  0.00    +0.000 NA
ATOM     30  C17 UNL     1      32.417 -12.681 -44.846  0.00  0.00    +0.000 A 
ATOM     31  C18 UNL     1      32.846 -13.894 -45.381  0.00  0.00    +0.000 C 
ATOM     32  C19 UNL     1      33.843 -13.852 -46.375  0.00  0.00    +0.000 C 
ATOM     33  C20 UNL     1      34.378 -12.613 -46.802  0.00  0.00    +0.000 C 
ATOM     34  C21 UNL     1      33.920 -11.407 -46.239  0.00  0.00    +0.000 C 
ATOM     35  C22 UNL     1      32.934 -11.490 -45.258  0.00  0.00    +0.000 A 
ATOM     36  N4  UNL     1      32.342 -10.492 -44.587  0.00  0.00    +0.000 N 
ATOM     37  H20 UNL     1      32.508  -9.470 -44.711  0.00  0.00    +0.000 HD
ENDBRANCH  25  28
ENDBRANCH  21  22
ENDBRANCH  20  21
ENDBRANCH   3  20
TORSDOF 9
