REMARK  Name = resultss/4CJN/ligands/lig_260_t2.pdb
REMARK  17 active torsions:
REMARK  status: ('A' for Active; 'I' for Inactive)
REMARK    1  A    between atoms: C11_1  and  O2_34
REMARK    2  A    between atoms: C12_2  and  O3_27
REMARK    3  A    between atoms: C20_5  and  O5_25
REMARK    4  A    between atoms: C22_7  and  O6_23
REMARK    5  A    between atoms: C23_8  and  C24_46
REMARK    6  A    between atoms: C26_10  and  O8_21
REMARK    7  A    between atoms: O3_27  and  C13_28
REMARK    8  A    between atoms: C13_28  and  C14_30
REMARK    9  A    between atoms: C14_30  and  C16_32
REMARK   10  A    between atoms: O2_34  and  C10_35
REMARK   11  A    between atoms: C10_35  and  C9_37
REMARK   12  A    between atoms: C9_37  and  C8_38
REMARK   13  A    between atoms: C8_38  and  C7_40
REMARK   14  A    between atoms: C6_39  and  C5_41
REMARK   15  A    between atoms: C5_41  and  C4_43
REMARK   16  A    between atoms: C3_42  and  C2_45
REMARK   17  A    between atoms: C24_46  and  O7_47
REMARK                            x       y       z     vdW  Elec       q    Type
REMARK                         _______ _______ _______ _____ _____    ______ ____
ROOT
ATOM      1  C11 UNL     1      28.093  -8.706 -37.004  0.00  0.00    +0.000 C 
ATOM      2  C12 UNL     1      26.550  -8.629 -36.834  0.00  0.00    +0.000 C 
ATOM      3  C18 UNL     1      25.729  -8.519 -38.149  0.00  0.00    +0.000 C 
ATOM      4  C19 UNL     1      24.248  -8.248 -37.813  0.00  0.00    +0.000 C 
ATOM      5  C20 UNL     1      26.399  -7.488 -39.149  0.00  0.00    +0.000 C 
ATOM      6  C21 UNL     1      27.752  -8.112 -39.540  0.00  0.00    +0.000 C 
ATOM      7  C22 UNL     1      28.265  -8.418 -40.782  0.00  0.00    +0.000 C 
ATOM      8  C23 UNL     1      27.691  -8.116 -42.148  0.00  0.00    +0.000 C 
ATOM      9  C25 UNL     1      26.385  -8.132 -42.466  0.00  0.00    +0.000 C 
ATOM     10  C26 UNL     1      25.314  -8.221 -41.436  0.00  0.00    +0.000 C 
ATOM     11  C27 UNL     1      23.954  -7.865 -41.950  0.00  0.00    +0.000 C 
ATOM     12  O9  UNL     1      23.380  -8.433 -42.921  0.00  0.00    +0.000 OA
ATOM     13  C28 UNL     1      23.354  -6.836 -41.126  0.00  0.00    +0.000 C 
ATOM     14  C29 UNL     1      21.932  -6.381 -41.203  0.00  0.00    +0.000 C 
ATOM     15  C30 UNL     1      24.216  -6.454 -40.196  0.00  0.00    +0.000 C 
ATOM     16  C31 UNL     1      25.563  -7.095 -40.402  0.00  0.00    +0.000 C 
ATOM     17  C32 UNL     1      28.692  -8.338 -38.367  0.00  0.00    +0.000 C 
ATOM     18  C33 UNL     1      28.838  -9.781 -37.831  0.00  0.00    +0.000 C 
ATOM     19  C34 UNL     1      28.010 -10.936 -38.432  0.00  0.00    +0.000 C 
ATOM     20  C35 UNL     1      30.264 -10.144 -37.376  0.00  0.00    +0.000 C 
ENDROOT
BRANCH   5  21
ATOM     21  O5  UNL     1      26.706  -6.293 -38.460  0.00  0.00    +0.000 OA
ATOM     22  H30 UNL     1      27.585  -6.397 -38.016  0.00  0.00    +0.000 HD
ENDBRANCH   5  21
BRANCH   7  23
ATOM     23  O6  UNL     1      29.502  -9.080 -40.784  0.00  0.00    +0.000 OA
ATOM     24  H31 UNL     1      30.390  -8.600 -40.732  0.00  0.00    +0.000 HD
ENDBRANCH   7  23
BRANCH  10  25
ATOM     25  O8  UNL     1      25.273  -9.502 -40.865  0.00  0.00    +0.000 OA
ATOM     26  H36 UNL     1      25.552  -9.420 -39.916  0.00  0.00    +0.000 HD
ENDBRANCH  10  25
BRANCH   1  27
ATOM     27  O2  UNL     1      28.840  -8.150 -35.918  0.00  0.00    +0.000 OA
BRANCH  27  28
ATOM     28  C10 UNL     1      29.251  -6.814 -35.891  0.00  0.00    +0.000 C 
ATOM     29  O1  UNL     1      28.407  -5.883 -35.801  0.00  0.00    +0.000 OA
BRANCH  28  30
ATOM     30  C9  UNL     1      30.707  -6.477 -35.966  0.00  0.00    +0.000 C 
BRANCH  30  31
ATOM     31  C8  UNL     1      31.390  -6.734 -34.620  0.00  0.00    +0.000 C 
BRANCH  31  33
ATOM     32  C6  UNL     1      33.716  -7.705 -34.866  0.00  0.00    +0.000 C 
ATOM     33  C7  UNL     1      32.888  -6.650 -34.765  0.00  0.00    +0.000 C 
BRANCH  32  34
ATOM     34  C5  UNL     1      33.284  -9.147 -34.834  0.00  0.00    +0.000 C 
BRANCH  34  36
ATOM     35  C3  UNL     1      32.065 -10.066 -32.810  0.00  0.00    +0.000 C 
ATOM     36  C4  UNL     1      33.199  -9.683 -33.427  0.00  0.00    +0.000 C 
BRANCH  35  38
ATOM     37  C1  UNL     1      29.703  -9.251 -32.605  0.00  0.00    +0.000 C 
ATOM     38  C2  UNL     1      30.697 -10.057 -33.439  0.00  0.00    +0.000 C 
ENDBRANCH  35  38
ENDBRANCH  34  36
ENDBRANCH  32  34
ENDBRANCH  31  33
ENDBRANCH  30  31
ENDBRANCH  28  30
ENDBRANCH  27  28
ENDBRANCH   1  27
BRANCH   2  39
ATOM     39  O3  UNL     1      26.124  -9.764 -36.074  0.00  0.00    +0.000 OA
BRANCH  39  40
ATOM     40  C13 UNL     1      25.743  -9.719 -34.728  0.00  0.00    +0.000 C 
ATOM     41  O4  UNL     1      25.767 -10.762 -34.016  0.00  0.00    +0.000 OA
BRANCH  40  42
ATOM     42  C14 UNL     1      25.364  -8.392 -34.122  0.00  0.00    +0.000 C 
ATOM     43  C15 UNL     1      23.966  -8.458 -33.487  0.00  0.00    +0.000 C 
BRANCH  42  44
ATOM     44  C16 UNL     1      26.449  -7.972 -33.107  0.00  0.00    +0.000 C 
ATOM     45  C17 UNL     1      26.521  -6.458 -32.913  0.00  0.00    +0.000 C 
ENDBRANCH  42  44
ENDBRANCH  40  42
ENDBRANCH  39  40
ENDBRANCH   2  39
BRANCH   8  46
ATOM     46  C24 UNL     1      28.658  -7.867 -43.285  0.00  0.00    +0.000 C 
BRANCH  46  47
ATOM     47  O7  UNL     1      29.463  -8.990 -43.495  0.00  0.00    +0.000 OA
ATOM     48  H34 UNL     1      28.984  -9.768 -43.112  0.00  0.00    +0.000 HD
ENDBRANCH  46  47
ENDBRANCH   8  46
TORSDOF 17
