REMARK  Name = resultss/4CJN/ligands/lig_98_t0.pdb
REMARK  10 active torsions:
REMARK  status: ('A' for Active; 'I' for Inactive)
REMARK    1  A    between atoms: C6_6  and  C8_30
REMARK    2  A    between atoms: C15_8  and  O3_40
REMARK    3  A    between atoms: C26_13  and  C27_14
REMARK    4  A    between atoms: C28_15  and  C29_16
REMARK    5  A    between atoms: C32_19  and  C33_23
REMARK    6  A    between atoms: C8_30  and  O1_31
REMARK    7  A    between atoms: O1_31  and  C9_32
REMARK    8  A    between atoms: C9_32  and  C10_34
REMARK    9  A    between atoms: O3_40  and  C16_41
REMARK   10  A    between atoms: C16_41  and  C17_43
REMARK                            x       y       z     vdW  Elec       q    Type
REMARK                         _______ _______ _______ _____ _____    ______ ____
ROOT
ATOM      1  C1  UNL     1      27.675 -10.706 -38.319  0.00  0.00    +0.000 C 
ATOM      2  C2  UNL     1      27.376 -10.080 -39.473  0.00  0.00    +0.000 C 
ATOM      3  C3  UNL     1      26.403 -10.784 -40.416  0.00  0.00    +0.000 C 
ATOM      4  C4  UNL     1      25.883  -9.972 -41.630  0.00  0.00    +0.000 C 
ATOM      5  C5  UNL     1      26.066  -8.444 -41.452  0.00  0.00    +0.000 C 
ATOM      6  C6  UNL     1      25.331  -7.452 -42.488  0.00  0.00    +0.000 C 
ATOM      7  C7  UNL     1      24.616  -6.306 -41.699  0.00  0.00    +0.000 C 
ATOM      8  C15 UNL     1      26.366  -6.750 -43.430  0.00  0.00    +0.000 C 
ATOM      9  C22 UNL     1      27.576  -6.103 -42.701  0.00  0.00    +0.000 C 
ATOM     10  C23 UNL     1      27.888  -6.665 -41.302  0.00  0.00    +0.000 C 
ATOM     11  C24 UNL     1      27.600  -8.177 -41.180  0.00  0.00    +0.000 C 
ATOM     12  C25 UNL     1      28.571  -8.946 -42.144  0.00  0.00    +0.000 C 
ATOM     13  C26 UNL     1      27.884  -8.655 -39.715  0.00  0.00    +0.000 C 
ENDROOT
BRANCH  13  14
ATOM     14  C27 UNL     1      29.354  -8.532 -39.349  0.00  0.00    +0.000 C 
ATOM     15  C28 UNL     1      29.752  -7.833 -38.279  0.00  0.00    +0.000 C 
BRANCH  15  16
ATOM     16  C29 UNL     1      31.167  -7.678 -37.886  0.00  0.00    +0.000 C 
ATOM     17  C30 UNL     1      31.591  -7.720 -36.625  0.00  0.00    +0.000 C 
ATOM     18  C31 UNL     1      33.045  -7.501 -36.631  0.00  0.00    +0.000 C 
ATOM     19  C32 UNL     1      33.872  -7.460 -35.579  0.00  0.00    +0.000 C 
ATOM     20  O5  UNL     1      33.471  -7.303 -37.936  0.00  0.00    +0.000 OA
ATOM     21  C39 UNL     1      32.339  -7.409 -38.724  0.00  0.00    +0.000 C 
ATOM     22  O6  UNL     1      32.346  -7.255 -39.974  0.00  0.00    +0.000 OA
BRANCH  19  23
ATOM     23  C33 UNL     1      33.453  -7.709 -34.184  0.00  0.00    +0.000 C 
ATOM     24  C34 UNL     1      33.232  -6.617 -33.330  0.00  0.00    +0.000 C 
ATOM     25  C35 UNL     1      32.862  -6.824 -31.998  0.00  0.00    +0.000 C 
ATOM     26  C36 UNL     1      32.728  -8.123 -31.502  0.00  0.00    +0.000 C 
ATOM     27  C37 UNL     1      32.978  -9.218 -32.335  0.00  0.00    +0.000 C 
ATOM     28 BR1  UNL     1      32.825 -10.994 -31.649  0.00  0.00    +0.000 Br
ATOM     29  C38 UNL     1      33.350  -9.014 -33.667  0.00  0.00    +0.000 C 
ENDBRANCH  19  23
ENDBRANCH  15  16
ENDBRANCH  13  14
BRANCH   6  30
ATOM     30  C8  UNL     1      24.239  -8.153 -43.402  0.00  0.00    +0.000 C 
BRANCH  30  31
ATOM     31  O1  UNL     1      23.386  -7.256 -44.126  0.00  0.00    +0.000 OA
BRANCH  31  32
ATOM     32  C9  UNL     1      22.011  -7.072 -43.926  0.00  0.00    +0.000 C 
ATOM     33  O2  UNL     1      21.531  -7.034 -42.764  0.00  0.00    +0.000 OA
BRANCH  32  34
ATOM     34  C10 UNL     1      21.124  -6.892 -45.096  0.00  0.00    +0.000 C 
ATOM     35  C11 UNL     1      21.623  -7.038 -46.400  0.00  0.00    +0.000 C 
ATOM     36  C12 UNL     1      20.776  -6.869 -47.497  0.00  0.00    +0.000 C 
ATOM     37  C13 UNL     1      19.434  -6.554 -47.285  0.00  0.00    +0.000 C 
ATOM     38  N1  UNL     1      18.962  -6.415 -46.018  0.00  0.00    +0.000 NA
ATOM     39  C14 UNL     1      19.764  -6.572 -44.932  0.00  0.00    +0.000 C 
ENDBRANCH  32  34
ENDBRANCH  31  32
ENDBRANCH  30  31
ENDBRANCH   6  30
BRANCH   8  40
ATOM     40  O3  UNL     1      26.804  -7.664 -44.437  0.00  0.00    +0.000 OA
BRANCH  40  41
ATOM     41  C16 UNL     1      27.511  -7.293 -45.585  0.00  0.00    +0.000 C 
ATOM     42  O4  UNL     1      28.771  -7.367 -45.607  0.00  0.00    +0.000 OA
BRANCH  41  43
ATOM     43  C17 UNL     1      26.773  -6.814 -46.772  0.00  0.00    +0.000 C 
ATOM     44  C18 UNL     1      27.462  -6.330 -47.896  0.00  0.00    +0.000 C 
ATOM     45  C19 UNL     1      26.756  -5.883 -49.013  0.00  0.00    +0.000 C 
ATOM     46  C20 UNL     1      25.361  -5.928 -49.003  0.00  0.00    +0.000 C 
ATOM     47  N2  UNL     1      24.703  -6.399 -47.912  0.00  0.00    +0.000 NA
ATOM     48  C21 UNL     1      25.368  -6.838 -46.809  0.00  0.00    +0.000 C 
ENDBRANCH  41  43
ENDBRANCH  40  41
ENDBRANCH   8  40
TORSDOF 10
