REMARK  Name = resultss/4CJN/ligands/lig_342_t1.pdb
REMARK  11 active torsions:
REMARK  status: ('A' for Active; 'I' for Inactive)
REMARK    1  A    between atoms: C2_1  and  O1_28
REMARK    2  A    between atoms: C4_3  and  C5_7
REMARK    3  A    between atoms: C21_6  and  O3_29
REMARK    4  A    between atoms: N2_17  and  N3_19
REMARK    5  A    between atoms: N3_19  and  C13_21
REMARK    6  A    between atoms: O3_29  and  C22_30
REMARK    7  A    between atoms: C22_30  and  C23_31
REMARK    8  A    between atoms: N4_33  and  C25_36
REMARK    9  A    between atoms: C25_36  and  C26_37
REMARK   10  A    between atoms: C26_37  and  O4_47
REMARK   11  A    between atoms: N5_38  and  C27_39
REMARK                            x       y       z     vdW  Elec       q    Type
REMARK                         _______ _______ _______ _____ _____    ______ ____
ROOT
ATOM      1  C2  UNL     1      28.852  -7.199 -38.749  0.00  0.00    +0.000 C 
ATOM      2  C3  UNL     1      28.284  -6.423 -37.720  0.00  0.00    +0.000 C 
ATOM      3  C4  UNL     1      27.604  -7.034 -36.652  0.00  0.00    +0.000 C 
ATOM      4  C19 UNL     1      27.549  -8.437 -36.596  0.00  0.00    +0.000 C 
ATOM      5  C20 UNL     1      28.121  -9.213 -37.606  0.00  0.00    +0.000 C 
ATOM      6  C21 UNL     1      28.766  -8.597 -38.695  0.00  0.00    +0.000 C 
ENDROOT
BRANCH   3   7
ATOM      7  C5  UNL     1      27.005  -6.224 -35.522  0.00  0.00    +0.000 C 
ATOM      8  N1  UNL     1      25.548  -6.176 -35.674  0.00  0.00    +0.000 N 
ATOM      9  C6  UNL     1      24.671  -7.090 -35.001  0.00  0.00    +0.000 C 
ATOM     10  C7  UNL     1      23.335  -7.218 -35.413  0.00  0.00    +0.000 C 
ATOM     11  C8  UNL     1      22.477  -8.101 -34.749  0.00  0.00    +0.000 C 
ATOM     12  C9  UNL     1      22.949  -8.860 -33.675  0.00  0.00    +0.000 C 
ATOM     13  C10 UNL     1      24.277  -8.732 -33.256  0.00  0.00    +0.000 C 
ATOM     14  C11 UNL     1      25.142  -7.840 -33.914  0.00  0.00    +0.000 C 
ATOM     15  C12 UNL     1      26.536  -7.650 -33.477  0.00  0.00    +0.000 C 
ATOM     16  O2  UNL     1      26.969  -8.256 -32.459  0.00  0.00    +0.000 OA
ATOM     17  N2  UNL     1      27.399  -6.757 -34.203  0.00  0.00    +0.000 N 
ATOM     18  H6  UNL     1      25.159  -5.564 -36.427  0.00  0.00    +0.000 HD
BRANCH  17  19
ATOM     19  N3  UNL     1      28.734  -6.611 -33.775  0.00  0.00    +0.000 N 
ATOM     20  H11 UNL     1      28.975  -5.809 -33.151  0.00  0.00    +0.000 HD
BRANCH  19  21
ATOM     21  C13 UNL     1      29.791  -7.467 -34.241  0.00  0.00    +0.000 C 
ATOM     22  C14 UNL     1      29.853  -8.799 -33.794  0.00  0.00    +0.000 C 
ATOM     23  C15 UNL     1      30.890  -9.639 -34.213  0.00  0.00    +0.000 C 
ATOM     24  C16 UNL     1      31.876  -9.154 -35.075  0.00  0.00    +0.000 C 
ATOM     25  C17 UNL     1      31.830  -7.827 -35.516  0.00  0.00    +0.000 C 
ATOM     26  C18 UNL     1      30.798  -6.981 -35.095  0.00  0.00    +0.000 C 
ENDBRANCH  19  21
ENDBRANCH  17  19
ENDBRANCH   3   7
BRANCH   1  28
ATOM     27  C1  UNL     1      28.873  -6.198 -41.045  0.00  0.00    +0.000 C 
ATOM     28  O1  UNL     1      29.513  -6.614 -39.843  0.00  0.00    +0.000 OA
ENDBRANCH   1  28
BRANCH   6  29
ATOM     29  O3  UNL     1      29.330  -9.337 -39.746  0.00  0.00    +0.000 OA
BRANCH  29  30
ATOM     30  C22 UNL     1      28.809 -10.564 -40.249  0.00  0.00    +0.000 C 
BRANCH  30  31
ATOM     31  C23 UNL     1      27.463 -10.314 -40.847  0.00  0.00    +0.000 C 
ATOM     32  C24 UNL     1      27.187  -9.604 -41.994  0.00  0.00    +0.000 C 
ATOM     33  N4  UNL     1      25.860  -9.686 -42.170  0.00  0.00    +0.000 N 
ATOM     34  N6  UNL     1      25.347 -10.397 -41.179  0.00  0.00    +0.000 NA
ATOM     35  N7  UNL     1      26.305 -10.795 -40.353  0.00  0.00    +0.000 NA
BRANCH  33  36
ATOM     36  C25 UNL     1      25.086  -9.107 -43.264  0.00  0.00    +0.000 C 
BRANCH  36  37
ATOM     37  C26 UNL     1      24.565  -7.747 -42.886  0.00  0.00    +0.000 C 
ATOM     38  N5  UNL     1      24.584  -6.728 -43.699  0.00  0.00    +0.000 NA
BRANCH  38  39
ATOM     39  C27 UNL     1      25.139  -6.716 -45.023  0.00  0.00    +0.000 C 
ATOM     40  C28 UNL     1      26.514  -6.508 -45.213  0.00  0.00    +0.000 C 
ATOM     41  C29 UNL     1      27.056  -6.492 -46.498  0.00  0.00    +0.000 C 
ATOM     42  C30 UNL     1      26.233  -6.678 -47.617  0.00  0.00    +0.000 C 
ATOM     43  C31 UNL     1      26.822  -6.640 -48.997  0.00  0.00    +0.000 C 
ATOM     44  C32 UNL     1      24.849  -6.833 -47.435  0.00  0.00    +0.000 C 
ATOM     45  C33 UNL     1      24.295  -6.852 -46.143  0.00  0.00    +0.000 C 
ATOM     46  C34 UNL     1      22.816  -7.040 -45.959  0.00  0.00    +0.000 C 
ENDBRANCH  38  39
BRANCH  37  47
ATOM     47  O4  UNL     1      23.999  -7.592 -41.623  0.00  0.00    +0.000 OA
ATOM     48  H24 UNL     1      24.008  -6.694 -41.153  0.00  0.00    +0.000 HD
ENDBRANCH  37  47
ENDBRANCH  36  37
ENDBRANCH  33  36
ENDBRANCH  30  31
ENDBRANCH  29  30
ENDBRANCH   6  29
TORSDOF 11
