REMARK  Name = resultss/4CJN/ligands/lig_167_t2.pdb
REMARK  4 active torsions:
REMARK  status: ('A' for Active; 'I' for Inactive)
REMARK    1  A    between atoms: C9_1  and  C1_17
REMARK    2  A    between atoms: C12_4  and  C13_7
REMARK    3  A    between atoms: N1_18  and  N2_20
REMARK    4  A    between atoms: C2_21  and  C3_22
REMARK                            x       y       z     vdW  Elec       q    Type
REMARK                         _______ _______ _______ _____ _____    ______ ____
ROOT
ATOM      1  C9  UNL     1      25.398  -9.164 -40.794  0.00  0.00    +0.000 C 
ATOM      2  C10 UNL     1      26.556  -9.959 -40.764  0.00  0.00    +0.000 C 
ATOM      3  C11 UNL     1      27.322 -10.056 -39.599  0.00  0.00    +0.000 C 
ATOM      4  C12 UNL     1      26.949  -9.357 -38.438  0.00  0.00    +0.000 C 
ATOM      5  C20 UNL     1      25.798  -8.554 -38.471  0.00  0.00    +0.000 C 
ATOM      6  C21 UNL     1      25.034  -8.455 -39.638  0.00  0.00    +0.000 C 
ENDROOT
BRANCH   4   7
ATOM      7  C13 UNL     1      27.752  -9.455 -37.197  0.00  0.00    +0.000 A 
ATOM      8  N3  UNL     1      29.110  -9.408 -37.186  0.00  0.00    +0.000 NA
ATOM      9  C14 UNL     1      29.601  -9.518 -35.925  0.00  0.00    +0.000 A 
ATOM     10  C15 UNL     1      30.959  -9.502 -35.603  0.00  0.00    +0.000 C 
ATOM     11  C16 UNL     1      31.335  -9.624 -34.254  0.00  0.00    +0.000 C 
ATOM     12  C17 UNL     1      30.355  -9.760 -33.250  0.00  0.00    +0.000 C 
ATOM     13  C18 UNL     1      28.992  -9.773 -33.586  0.00  0.00    +0.000 C 
ATOM     14  C19 UNL     1      28.648  -9.650 -34.930  0.00  0.00    +0.000 A 
ATOM     15  S1  UNL     1      27.124  -9.633 -35.628  0.00  0.00    +0.000 S 
ENDBRANCH   4   7
BRANCH   1  17
ATOM     16  O1  UNL     1      24.654  -9.940 -42.910  0.00  0.00    +0.000 OA
ATOM     17  C1  UNL     1      24.578  -9.044 -42.025  0.00  0.00    +0.000 C 
ATOM     18  N1  UNL     1      23.714  -7.922 -42.240  0.00  0.00    +0.000 N 
ATOM     19  H1  UNL     1      23.760  -7.095 -41.602  0.00  0.00    +0.000 HD
BRANCH  18  20
ATOM     20  N2  UNL     1      22.852  -7.903 -43.348  0.00  0.00    +0.000 NA
ATOM     21  C2  UNL     1      22.893  -6.955 -44.231  0.00  0.00    +0.000 C 
BRANCH  21  22
ATOM     22  C3  UNL     1      21.978  -6.947 -45.398  0.00  0.00    +0.000 C 
ATOM     23  C4  UNL     1      20.719  -6.511 -45.230  0.00  0.00    +0.000 C 
ATOM     24  C5  UNL     1      19.703  -6.459 -46.346  0.00  0.00    +0.000 C 
ATOM     25  C6  UNL     1      20.213  -6.938 -47.681  0.00  0.00    +0.000 C 
ATOM     26  C7  UNL     1      21.461  -7.372 -47.860  0.00  0.00    +0.000 C 
ATOM     27  C8  UNL     1      22.410  -7.403 -46.742  0.00  0.00    +0.000 C 
ATOM     28  O2  UNL     1      23.582  -7.818 -46.946  0.00  0.00    +0.000 OA
ENDBRANCH  21  22
ENDBRANCH  18  20
ENDBRANCH   1  17
TORSDOF 4
