REMARK  Name = resultss/4CJN/ligands/lig_340_t1.pdb
REMARK  12 active torsions:
REMARK  status: ('A' for Active; 'I' for Inactive)
REMARK    1  A    between atoms: C11_1  and  O3_29
REMARK    2  A    between atoms: C14_4  and  C15_7
REMARK    3  A    between atoms: C30_6  and  O5_27
REMARK    4  A    between atoms: N4_17  and  N5_19
REMARK    5  A    between atoms: N5_19  and  C23_21
REMARK    6  A    between atoms: O3_29  and  C10_30
REMARK    7  A    between atoms: C10_30  and  C9_33
REMARK    8  A    between atoms: N2_31  and  C7_36
REMARK    9  A    between atoms: C7_36  and  C6_38
REMARK   10  A    between atoms: N1_37  and  C5_42
REMARK   11  A    between atoms: C6_38  and  O2_47
REMARK   12  A    between atoms: C2_39  and  O1_46
REMARK                            x       y       z     vdW  Elec       q    Type
REMARK                         _______ _______ _______ _____ _____    ______ ____
ROOT
ATOM      1  C11 UNL     1      25.424  -7.296 -40.065  0.00  0.00    +0.000 C 
ATOM      2  C12 UNL     1      24.607  -7.637 -38.972  0.00  0.00    +0.000 C 
ATOM      3  C13 UNL     1      25.140  -7.706 -37.686  0.00  0.00    +0.000 C 
ATOM      4  C14 UNL     1      26.494  -7.410 -37.456  0.00  0.00    +0.000 C 
ATOM      5  C29 UNL     1      27.315  -7.090 -38.550  0.00  0.00    +0.000 C 
ATOM      6  C30 UNL     1      26.786  -7.031 -39.855  0.00  0.00    +0.000 C 
ENDROOT
BRANCH   4   7
ATOM      7  C15 UNL     1      27.091  -7.494 -36.066  0.00  0.00    +0.000 C 
ATOM      8  N3  UNL     1      26.386  -6.598 -35.140  0.00  0.00    +0.000 N 
ATOM      9  C16 UNL     1      25.315  -7.047 -34.295  0.00  0.00    +0.000 C 
ATOM     10  C17 UNL     1      24.488  -6.116 -33.649  0.00  0.00    +0.000 C 
ATOM     11  C18 UNL     1      23.419  -6.553 -32.862  0.00  0.00    +0.000 C 
ATOM     12  C19 UNL     1      23.173  -7.920 -32.709  0.00  0.00    +0.000 C 
ATOM     13  C20 UNL     1      23.997  -8.856 -33.342  0.00  0.00    +0.000 C 
ATOM     14  C21 UNL     1      25.073  -8.422 -34.137  0.00  0.00    +0.000 C 
ATOM     15  C22 UNL     1      25.975  -9.376 -34.800  0.00  0.00    +0.000 C 
ATOM     16  O4  UNL     1      25.802 -10.618 -34.666  0.00  0.00    +0.000 OA
ATOM     17  N4  UNL     1      27.073  -8.883 -35.588  0.00  0.00    +0.000 N 
ATOM     18  H15 UNL     1      26.574  -5.572 -35.219  0.00  0.00    +0.000 HD
BRANCH  17  19
ATOM     19  N5  UNL     1      28.064  -9.770 -36.047  0.00  0.00    +0.000 N 
ATOM     20  H20 UNL     1      27.848 -10.378 -36.871  0.00  0.00    +0.000 HD
BRANCH  19  21
ATOM     21  C23 UNL     1      29.418  -9.721 -35.569  0.00  0.00    +0.000 C 
ATOM     22  C24 UNL     1      29.717  -9.849 -34.200  0.00  0.00    +0.000 C 
ATOM     23  C25 UNL     1      31.038  -9.742 -33.752  0.00  0.00    +0.000 C 
ATOM     24  C26 UNL     1      32.068  -9.489 -34.662  0.00  0.00    +0.000 C 
ATOM     25  C27 UNL     1      31.781  -9.356 -36.022  0.00  0.00    +0.000 C 
ATOM     26  C28 UNL     1      30.462  -9.466 -36.475  0.00  0.00    +0.000 C 
ENDBRANCH  19  21
ENDBRANCH  17  19
ENDBRANCH   4   7
BRANCH   6  27
ATOM     27  O5  UNL     1      27.581  -6.715 -40.969  0.00  0.00    +0.000 OA
ATOM     28  C31 UNL     1      28.986  -6.938 -41.046  0.00  0.00    +0.000 C 
ENDBRANCH   6  27
BRANCH   1  29
ATOM     29  O3  UNL     1      24.921  -7.217 -41.374  0.00  0.00    +0.000 OA
BRANCH  29  30
ATOM     30  C10 UNL     1      24.827  -8.325 -42.266  0.00  0.00    +0.000 C 
BRANCH  30  33
ATOM     31  N2  UNL     1      23.183  -6.857 -45.141  0.00  0.00    +0.000 N 
ATOM     32  C8  UNL     1      23.316  -6.946 -43.808  0.00  0.00    +0.000 C 
ATOM     33  C9  UNL     1      24.324  -7.857 -43.589  0.00  0.00    +0.000 C 
ATOM     34  N6  UNL     1      24.759  -8.313 -44.780  0.00  0.00    +0.000 NA
ATOM     35  N7  UNL     1      24.047  -7.686 -45.707  0.00  0.00    +0.000 NA
BRANCH  31  36
ATOM     36  C7  UNL     1      22.210  -6.048 -45.867  0.00  0.00    +0.000 C 
BRANCH  36  38
ATOM     37  N1  UNL     1      21.538  -6.527 -48.205  0.00  0.00    +0.000 NA
ATOM     38  C6  UNL     1      22.452  -6.157 -47.352  0.00  0.00    +0.000 C 
BRANCH  37  42
ATOM     39  C2  UNL     1      17.459  -7.398 -47.405  0.00  0.00    +0.000 C 
ATOM     40  C3  UNL     1      17.806  -6.621 -48.529  0.00  0.00    +0.000 C 
ATOM     41  C4  UNL     1      19.146  -6.328 -48.794  0.00  0.00    +0.000 C 
ATOM     42  C5  UNL     1      20.155  -6.786 -47.932  0.00  0.00    +0.000 C 
ATOM     43  C32 UNL     1      19.815  -7.591 -46.842  0.00  0.00    +0.000 C 
ATOM     44  C33 UNL     1      18.474  -7.886 -46.574  0.00  0.00    +0.000 C 
BRANCH  39  46
ATOM     45  C1  UNL     1      14.994  -7.081 -47.672  0.00  0.00    +0.000 C 
ATOM     46  O1  UNL     1      16.130  -7.704 -47.080  0.00  0.00    +0.000 OA
ENDBRANCH  39  46
ENDBRANCH  37  42
BRANCH  38  47
ATOM     47  O2  UNL     1      23.737  -5.898 -47.819  0.00  0.00    +0.000 OA
ATOM     48  H6  UNL     1      24.198  -5.017 -47.625  0.00  0.00    +0.000 HD
ENDBRANCH  38  47
ENDBRANCH  36  38
ENDBRANCH  31  36
ENDBRANCH  30  33
ENDBRANCH  29  30
ENDBRANCH   1  29
TORSDOF 12
