REMARK  Name = resultss/4CJN/ligands/lig_356_t2.pdb
REMARK  9 active torsions:
REMARK  status: ('A' for Active; 'I' for Inactive)
REMARK    1  A    between atoms: N2_1  and  C8_7
REMARK    2  A    between atoms: C10_3  and  C11_20
REMARK    3  A    between atoms: C7_6  and  N1_8
REMARK    4  A    between atoms: C7_6  and  O1_18
REMARK    5  A    between atoms: N1_8  and  C6_13
REMARK    6  A    between atoms: C3_10  and  C2_17
REMARK    7  A    between atoms: C11_20  and  O2_21
REMARK    8  A    between atoms: O2_21  and  C12_22
REMARK    9  A    between atoms: C15_25  and  C16_28
REMARK                            x       y       z     vdW  Elec       q    Type
REMARK                         _______ _______ _______ _____ _____    ______ ____
ROOT
ATOM      1  N2  UNL     1      26.593  -8.618 -39.952  0.00  0.00    +0.000 N 
ATOM      2  C9  UNL     1      27.816  -8.166 -40.280  0.00  0.00    +0.000 C 
ATOM      3  C10 UNL     1      28.490  -9.245 -40.807  0.00  0.00    +0.000 C 
ATOM      4  N5  UNL     1      27.669 -10.317 -40.786  0.00  0.00    +0.000 NA
ATOM      5  N6  UNL     1      26.517  -9.902 -40.276  0.00  0.00    +0.000 NA
ENDROOT
BRANCH   1   7
ATOM      6  C7  UNL     1      24.892  -8.125 -38.271  0.00  0.00    +0.000 C 
ATOM      7  C8  UNL     1      25.487  -7.859 -39.446  0.00  0.00    +0.000 C 
BRANCH   6   8
ATOM      8  N1  UNL     1      25.248  -9.288 -37.504  0.00  0.00    +0.000 N 
ATOM      9  H8  UNL     1      24.689 -10.161 -37.642  0.00  0.00    +0.000 HD
BRANCH   8  13
ATOM     10  C3  UNL     1      27.985  -9.244 -34.243  0.00  0.00    +0.000 C 
ATOM     11  C4  UNL     1      26.658  -8.822 -34.070  0.00  0.00    +0.000 C 
ATOM     12  C5  UNL     1      25.766  -8.839 -35.148  0.00  0.00    +0.000 C 
ATOM     13  C6  UNL     1      26.189  -9.267 -36.417  0.00  0.00    +0.000 C 
ATOM     14  C25 UNL     1      27.511  -9.720 -36.582  0.00  0.00    +0.000 C 
ATOM     15  C26 UNL     1      28.401  -9.706 -35.503  0.00  0.00    +0.000 C 
BRANCH  10  17
ATOM     16  C1  UNL     1      29.098  -7.855 -32.494  0.00  0.00    +0.000 C 
ATOM     17  C2  UNL     1      28.932  -9.258 -33.073  0.00  0.00    +0.000 C 
ENDBRANCH  10  17
ENDBRANCH   8  13
ENDBRANCH   6   8
BRANCH   6  18
ATOM     18  O1  UNL     1      23.866  -7.294 -37.819  0.00  0.00    +0.000 OA
ATOM     19  H9  UNL     1      24.035  -6.330 -37.556  0.00  0.00    +0.000 HD
ENDBRANCH   6  18
ENDBRANCH   1   7
BRANCH   3  20
ATOM     20  C11 UNL     1      29.904  -9.255 -41.302  0.00  0.00    +0.000 C 
BRANCH  20  21
ATOM     21  O2  UNL     1      30.709  -8.323 -40.579  0.00  0.00    +0.000 OA
BRANCH  21  22
ATOM     22  C12 UNL     1      30.993  -8.387 -39.206  0.00  0.00    +0.000 C 
ATOM     23  C13 UNL     1      30.916  -7.265 -38.360  0.00  0.00    +0.000 C 
ATOM     24  C14 UNL     1      31.245  -7.378 -37.005  0.00  0.00    +0.000 C 
ATOM     25  C15 UNL     1      31.651  -8.611 -36.468  0.00  0.00    +0.000 C 
ATOM     26  C23 UNL     1      31.698  -9.734 -37.311  0.00  0.00    +0.000 C 
ATOM     27  C24 UNL     1      31.374  -9.619 -38.667  0.00  0.00    +0.000 C 
BRANCH  25  28
ATOM     28  C16 UNL     1      32.031  -8.743 -35.040  0.00  0.00    +0.000 A 
ATOM     29  N3  UNL     1      32.139  -9.951 -34.416  0.00  0.00    +0.000 NA
ATOM     30  C17 UNL     1      32.527  -9.616 -33.173  0.00  0.00    +0.000 A 
ATOM     31  C18 UNL     1      32.793 -10.469 -32.104  0.00  0.00    +0.000 C 
ATOM     32  C19 UNL     1      33.202  -9.885 -30.889  0.00  0.00    +0.000 C 
ATOM     33  C20 UNL     1      33.330  -8.479 -30.777  0.00  0.00    +0.000 C 
ATOM     34  C21 UNL     1      33.052  -7.649 -31.880  0.00  0.00    +0.000 C 
ATOM     35  C22 UNL     1      32.651  -8.264 -33.063  0.00  0.00    +0.000 A 
ATOM     36  N4  UNL     1      32.340  -7.692 -34.234  0.00  0.00    +0.000 N 
ATOM     37  H20 UNL     1      32.374  -6.675 -34.462  0.00  0.00    +0.000 HD
ENDBRANCH  25  28
ENDBRANCH  21  22
ENDBRANCH  20  21
ENDBRANCH   3  20
TORSDOF 9
