REMARK  Name = resultss/4CJN/ligands/lig_345_t2.pdb
REMARK  11 active torsions:
REMARK  status: ('A' for Active; 'I' for Inactive)
REMARK    1  A    between atoms: C12_1  and  O2_27
REMARK    2  A    between atoms: C15_4  and  C16_7
REMARK    3  A    between atoms: C23_15  and  O3_17
REMARK    4  A    between atoms: N4_16  and  N5_19
REMARK    5  A    between atoms: N5_19  and  C24_21
REMARK    6  A    between atoms: O2_27  and  C11_28
REMARK    7  A    between atoms: C11_28  and  C10_31
REMARK    8  A    between atoms: N2_29  and  C8_34
REMARK    9  A    between atoms: C8_34  and  C7_36
REMARK   10  A    between atoms: N1_35  and  C6_39
REMARK   11  A    between atoms: C6_39  and  C5_44
REMARK                            x       y       z     vdW  Elec       q    Type
REMARK                         _______ _______ _______ _____ _____    ______ ____
ROOT
ATOM      1  C12 UNL     1      28.578  -9.400 -42.418  0.00  0.00    +0.000 C 
ATOM      2  C13 UNL     1      28.924  -8.053 -42.195  0.00  0.00    +0.000 C 
ATOM      3  C14 UNL     1      28.049  -7.027 -42.563  0.00  0.00    +0.000 C 
ATOM      4  C15 UNL     1      26.816  -7.326 -43.166  0.00  0.00    +0.000 C 
ATOM      5  C30 UNL     1      26.471  -8.672 -43.379  0.00  0.00    +0.000 C 
ATOM      6  C31 UNL     1      27.347  -9.696 -43.009  0.00  0.00    +0.000 C 
ENDROOT
BRANCH   4   7
ATOM      7  C16 UNL     1      25.889  -6.209 -43.594  0.00  0.00    +0.000 C 
ATOM      8  N3  UNL     1      26.028  -5.969 -45.030  0.00  0.00    +0.000 NA
ATOM      9  C17 UNL     1      25.173  -6.371 -45.926  0.00  0.00    +0.000 C 
ATOM     10  C18 UNL     1      25.470  -6.150 -47.276  0.00  0.00    +0.000 C 
ATOM     11  C19 UNL     1      24.607  -6.599 -48.272  0.00  0.00    +0.000 C 
ATOM     12  C20 UNL     1      23.436  -7.271 -47.929  0.00  0.00    +0.000 C 
ATOM     13  C21 UNL     1      23.112  -7.489 -46.588  0.00  0.00    +0.000 C 
ATOM     14  C22 UNL     1      23.968  -7.034 -45.558  0.00  0.00    +0.000 C 
ATOM     15  C23 UNL     1      23.657  -7.163 -44.245  0.00  0.00    +0.000 C 
ATOM     16  N4  UNL     1      24.502  -6.539 -43.260  0.00  0.00    +0.000 NA
BRANCH  15  17
ATOM     17  O3  UNL     1      22.539  -7.875 -43.792  0.00  0.00    +0.000 OA
ATOM     18  H21 UNL     1      22.570  -8.802 -43.399  0.00  0.00    +0.000 HD
ENDBRANCH  15  17
BRANCH  16  19
ATOM     19  N5  UNL     1      24.061  -6.382 -41.933  0.00  0.00    +0.000 N 
ATOM     20  H22 UNL     1      23.160  -5.878 -41.761  0.00  0.00    +0.000 HD
BRANCH  19  21
ATOM     21  C24 UNL     1      24.723  -7.007 -40.819  0.00  0.00    +0.000 C 
ATOM     22  C25 UNL     1      24.532  -8.369 -40.526  0.00  0.00    +0.000 C 
ATOM     23  C26 UNL     1      25.177  -8.953 -39.430  0.00  0.00    +0.000 C 
ATOM     24  C27 UNL     1      26.004  -8.180 -38.612  0.00  0.00    +0.000 C 
ATOM     25  C28 UNL     1      26.183  -6.822 -38.882  0.00  0.00    +0.000 C 
ATOM     26  C29 UNL     1      25.542  -6.235 -39.978  0.00  0.00    +0.000 C 
ENDBRANCH  19  21
ENDBRANCH  16  19
ENDBRANCH   4   7
BRANCH   1  27
ATOM     27  O2  UNL     1      29.427 -10.469 -42.084  0.00  0.00    +0.000 OA
BRANCH  27  28
ATOM     28  C11 UNL     1      30.674 -10.762 -42.709  0.00  0.00    +0.000 C 
BRANCH  28  31
ATOM     29  N2  UNL     1      33.000  -9.476 -40.233  0.00  0.00    +0.000 N 
ATOM     30  C9  UNL     1      31.730  -9.670 -40.633  0.00  0.00    +0.000 C 
ATOM     31  C10 UNL     1      31.811 -10.314 -41.848  0.00  0.00    +0.000 C 
ATOM     32  N6  UNL     1      33.113 -10.489 -42.153  0.00  0.00    +0.000 NA
ATOM     33  N7  UNL     1      33.813  -9.964 -41.156  0.00  0.00    +0.000 NA
BRANCH  29  34
ATOM     34  C8  UNL     1      33.440  -8.780 -39.028  0.00  0.00    +0.000 C 
BRANCH  34  36
ATOM     35  N1  UNL     1      31.374  -8.137 -37.695  0.00  0.00    +0.000 N 
ATOM     36  C7  UNL     1      32.413  -7.770 -38.614  0.00  0.00    +0.000 C 
ATOM     37  O1  UNL     1      32.466  -6.601 -39.081  0.00  0.00    +0.000 OA
ATOM     38  H8  UNL     1      31.373  -9.096 -37.288  0.00  0.00    +0.000 HD
BRANCH  35  39
ATOM     39  C6  UNL     1      30.353  -7.194 -37.238  0.00  0.00    +0.000 C 
BRANCH  39  44
ATOM     40  C1  UNL     1      26.048  -9.956 -34.461  0.00  0.00    +0.000 C 
ATOM     41  C2  UNL     1      27.144  -9.237 -35.189  0.00  0.00    +0.000 C 
ATOM     42  C3  UNL     1      27.337  -7.858 -35.008  0.00  0.00    +0.000 C 
ATOM     43  C4  UNL     1      28.378  -7.199 -35.669  0.00  0.00    +0.000 C 
ATOM     44  C5  UNL     1      29.246  -7.911 -36.511  0.00  0.00    +0.000 C 
ATOM     45  C32 UNL     1      29.063  -9.294 -36.676  0.00  0.00    +0.000 C 
ATOM     46  C33 UNL     1      28.024  -9.953 -36.013  0.00  0.00    +0.000 C 
ENDBRANCH  39  44
ENDBRANCH  35  39
ENDBRANCH  34  36
ENDBRANCH  29  34
ENDBRANCH  28  31
ENDBRANCH  27  28
ENDBRANCH   1  27
TORSDOF 11
