REMARK  Name = resultss/4CJN/ligands/lig_262_t1.pdb
REMARK  5 active torsions:
REMARK  status: ('A' for Active; 'I' for Inactive)
REMARK    1  A    between atoms: C4_1  and  C2_26
REMARK    2  A    between atoms: C14_12  and  C15_15
REMARK    3  A    between atoms: C18_18  and  O3_21
REMARK    4  A    between atoms: C19_19  and  O4_23
REMARK    5  A    between atoms: C2_26  and  O1_28
REMARK                            x       y       z     vdW  Elec       q    Type
REMARK                         _______ _______ _______ _____ _____    ______ ____
ROOT
ATOM      1  C4  UNL     1      26.461  -9.258 -38.113  0.00  0.00    +0.000 C 
ATOM      2  C5  UNL     1      25.846  -8.466 -39.306  0.00  0.00    +0.000 C 
ATOM      3  C6  UNL     1      26.794  -8.698 -40.420  0.00  0.00    +0.000 C 
ATOM      4  C7  UNL     1      26.754  -8.106 -41.699  0.00  0.00    +0.000 C 
ATOM      5  C8  UNL     1      27.737  -8.457 -42.650  0.00  0.00    +0.000 C 
ATOM      6  C9  UNL     1      28.709  -9.395 -42.276  0.00  0.00    +0.000 C 
ATOM      7  C10 UNL     1      28.731  -9.965 -41.019  0.00  0.00    +0.000 C 
ATOM      8  C11 UNL     1      27.766  -9.614 -40.081  0.00  0.00    +0.000 C 
ATOM      9  C12 UNL     1      27.612 -10.123 -38.702  0.00  0.00    +0.000 C 
ATOM     10  O2  UNL     1      29.784 -10.861 -40.866  0.00  0.00    +0.000 OA
ATOM     11  C13 UNL     1      30.482 -10.888 -42.077  0.00  0.00    +0.000 C 
ATOM     12  C14 UNL     1      31.567 -11.648 -42.271  0.00  0.00    +0.000 C 
ATOM     13  C21 UNL     1      29.833  -9.949 -43.007  0.00  0.00    +0.000 C 
ATOM     14  O5  UNL     1      30.211  -9.613 -44.159  0.00  0.00    +0.000 OA
ENDROOT
BRANCH  12  15
ATOM     15  C15 UNL     1      32.290 -11.760 -43.551  0.00  0.00    +0.000 C 
ATOM     16  C16 UNL     1      33.210 -10.777 -43.954  0.00  0.00    +0.000 C 
ATOM     17  C17 UNL     1      33.850 -10.878 -45.192  0.00  0.00    +0.000 C 
ATOM     18  C18 UNL     1      33.564 -11.947 -46.051  0.00  0.00    +0.000 C 
ATOM     19  C19 UNL     1      32.620 -12.916 -45.667  0.00  0.00    +0.000 C 
ATOM     20  C20 UNL     1      31.982 -12.812 -44.426  0.00  0.00    +0.000 C 
BRANCH  18  21
ATOM     21  O3  UNL     1      34.205 -12.046 -47.285  0.00  0.00    +0.000 OA
ATOM     22  H18 UNL     1      34.824 -12.818 -47.501  0.00  0.00    +0.000 HD
ENDBRANCH  18  21
BRANCH  19  23
ATOM     23  O4  UNL     1      32.304 -13.985 -46.503  0.00  0.00    +0.000 OA
ATOM     24  H19 UNL     1      33.011 -14.618 -46.860  0.00  0.00    +0.000 HD
ENDBRANCH  19  23
ENDBRANCH  12  15
BRANCH   1  26
ATOM     25  C1  UNL     1      25.826  -7.381 -36.451  0.00  0.00    +0.000 C 
ATOM     26  C2  UNL     1      26.924  -8.367 -36.906  0.00  0.00    +0.000 C 
ATOM     27  C3  UNL     1      27.332  -9.248 -35.705  0.00  0.00    +0.000 C 
BRANCH  26  28
ATOM     28  O1  UNL     1      28.041  -7.600 -37.293  0.00  0.00    +0.000 OA
ATOM     29  H7  UNL     1      28.199  -6.911 -36.594  0.00  0.00    +0.000 HD
ENDBRANCH  26  28
ENDBRANCH   1  26
TORSDOF 5
