REMARK  Name = resultss/4CJN/ligands/lig_408_t0.pdb
REMARK  6 active torsions:
REMARK  status: ('A' for Active; 'I' for Inactive)
REMARK    1  A    between atoms: C9_1  and  C1_22
REMARK    2  A    between atoms: C19_12  and  C20_15
REMARK    3  A    between atoms: N1_23  and  N2_25
REMARK    4  A    between atoms: N2_25  and  C2_27
REMARK    5  A    between atoms: C2_27  and  N3_29
REMARK    6  A    between atoms: N3_29  and  C3_31
REMARK                            x       y       z     vdW  Elec       q    Type
REMARK                         _______ _______ _______ _____ _____    ______ ____
ROOT
ATOM      1  C9  UNL     1      26.966  -9.828 -40.934  0.00  0.00    +0.000 C 
ATOM      2  C10 UNL     1      27.263  -9.600 -39.573  0.00  0.00    +0.000 C 
ATOM      3  C11 UNL     1      28.575  -9.811 -39.164  0.00  0.00    +0.000 A 
ATOM      4  C12 UNL     1      29.555 -10.232 -40.036  0.00  0.00    +0.000 A 
ATOM      5  N4  UNL     1      30.762 -10.302 -39.425  0.00  0.00    +0.000 N 
ATOM      6  C13 UNL     1      30.522  -9.937 -38.147  0.00  0.00    +0.000 A 
ATOM      7  C14 UNL     1      31.451  -9.836 -37.112  0.00  0.00    +0.000 C 
ATOM      8  C15 UNL     1      30.990  -9.413 -35.851  0.00  0.00    +0.000 C 
ATOM      9  C16 UNL     1      29.626  -9.098 -35.653  0.00  0.00    +0.000 C 
ATOM     10  C17 UNL     1      28.708  -9.203 -36.714  0.00  0.00    +0.000 C 
ATOM     11  C18 UNL     1      29.191  -9.630 -37.949  0.00  0.00    +0.000 A 
ATOM     12  C19 UNL     1      29.245 -10.470 -41.383  0.00  0.00    +0.000 C 
ATOM     13  N5  UNL     1      27.957 -10.248 -41.785  0.00  0.00    +0.000 NA
ATOM     14  H9  UNL     1      31.687 -10.545 -39.843  0.00  0.00    +0.000 HD
ENDROOT
BRANCH  12  15
ATOM     15  C20 UNL     1      30.242 -10.939 -42.368  0.00  0.00    +0.000 C 
ATOM     16  C21 UNL     1      30.892 -10.035 -43.226  0.00  0.00    +0.000 C 
ATOM     17  C22 UNL     1      31.852 -10.492 -44.135  0.00  0.00    +0.000 C 
ATOM     18  C23 UNL     1      32.179 -11.848 -44.186  0.00  0.00    +0.000 C 
ATOM     19  C24 UNL     1      31.554 -12.751 -43.322  0.00  0.00    +0.000 C 
ATOM     20  C25 UNL     1      30.594 -12.298 -42.410  0.00  0.00    +0.000 C 
ENDBRANCH  12  15
BRANCH   1  22
ATOM     21  O1  UNL     1      24.646  -9.412 -40.659  0.00  0.00    +0.000 OA
ATOM     22  C1  UNL     1      25.603  -9.606 -41.459  0.00  0.00    +0.000 C 
ATOM     23  N1  UNL     1      25.356  -9.617 -42.874  0.00  0.00    +0.000 N 
ATOM     24  H1  UNL     1      26.055 -10.071 -43.503  0.00  0.00    +0.000 HD
BRANCH  23  25
ATOM     25  N2  UNL     1      24.100  -9.288 -43.412  0.00  0.00    +0.000 N 
ATOM     26  H2  UNL     1      23.398 -10.051 -43.541  0.00  0.00    +0.000 HD
BRANCH  25  27
ATOM     27  C2  UNL     1      23.783  -7.976 -43.902  0.00  0.00    +0.000 C 
ATOM     28  S1  UNL     1      23.288  -6.841 -42.824  0.00  0.00    +0.000 S 
BRANCH  27  29
ATOM     29  N3  UNL     1      23.942  -7.662 -45.300  0.00  0.00    +0.000 N 
ATOM     30  H3  UNL     1      23.112  -7.734 -45.927  0.00  0.00    +0.000 HD
BRANCH  29  31
ATOM     31  C3  UNL     1      25.185  -7.292 -45.919  0.00  0.00    +0.000 C 
ATOM     32  C4  UNL     1      26.325  -7.111 -45.121  0.00  0.00    +0.000 C 
ATOM     33  C5  UNL     1      27.552  -6.786 -45.708  0.00  0.00    +0.000 C 
ATOM     34  C6  UNL     1      27.653  -6.660 -47.096  0.00  0.00    +0.000 C 
ATOM     35  C7  UNL     1      26.529  -6.867 -47.901  0.00  0.00    +0.000 C 
ATOM     36  F1  UNL     1      26.632  -6.764 -49.248  0.00  0.00    +0.000 F 
ATOM     37  C8  UNL     1      25.300  -7.191 -47.317  0.00  0.00    +0.000 C 
ENDBRANCH  29  31
ENDBRANCH  27  29
ENDBRANCH  25  27
ENDBRANCH  23  25
ENDBRANCH   1  22
TORSDOF 6
