REMARK  Name = resultss/4CJN/ligands/lig_93_t0.pdb
REMARK  7 active torsions:
REMARK  status: ('A' for Active; 'I' for Inactive)
REMARK    1  A    between atoms: C6_6  and  C8_33
REMARK    2  A    between atoms: C9_8  and  O2_14
REMARK    3  A    between atoms: C14_13  and  C15_16
REMARK    4  A    between atoms: C16_17  and  C17_18
REMARK    5  A    between atoms: C20_21  and  C21_25
REMARK    6  A    between atoms: C24_28  and  O3_31
REMARK    7  A    between atoms: C8_33  and  O1_34
REMARK                            x       y       z     vdW  Elec       q    Type
REMARK                         _______ _______ _______ _____ _____    ______ ____
ROOT
ATOM      1  C1  UNL     1      27.516  -7.748 -44.626  0.00  0.00    +0.000 C 
ATOM      2  C2  UNL     1      27.463  -8.007 -43.305  0.00  0.00    +0.000 C 
ATOM      3  C3  UNL     1      28.781  -8.220 -42.590  0.00  0.00    +0.000 C 
ATOM      4  C4  UNL     1      28.642  -9.006 -41.285  0.00  0.00    +0.000 C 
ATOM      5  C5  UNL     1      27.503  -8.441 -40.399  0.00  0.00    +0.000 C 
ATOM      6  C6  UNL     1      27.551  -8.860 -38.860  0.00  0.00    +0.000 C 
ATOM      7  C7  UNL     1      28.814  -8.227 -38.205  0.00  0.00    +0.000 C 
ATOM      8  C9  UNL     1      26.313  -8.229 -38.137  0.00  0.00    +0.000 C 
ATOM      9  C10 UNL     1      24.981  -8.533 -38.845  0.00  0.00    +0.000 C 
ATOM     10  C11 UNL     1      24.988  -7.971 -40.264  0.00  0.00    +0.000 C 
ATOM     11  C12 UNL     1      26.119  -8.566 -41.152  0.00  0.00    +0.000 C 
ATOM     12  C13 UNL     1      25.770 -10.040 -41.515  0.00  0.00    +0.000 C 
ATOM     13  C14 UNL     1      26.205  -7.705 -42.476  0.00  0.00    +0.000 C 
ENDROOT
BRANCH   8  14
ATOM     14  O2  UNL     1      26.253  -8.587 -36.775  0.00  0.00    +0.000 OA
ATOM     15  H15 UNL     1      26.801  -7.942 -36.257  0.00  0.00    +0.000 HD
ENDBRANCH   8  14
BRANCH  13  16
ATOM     16  C15 UNL     1      24.902  -7.714 -43.267  0.00  0.00    +0.000 C 
ATOM     17  C16 UNL     1      24.255  -6.602 -43.641  0.00  0.00    +0.000 C 
BRANCH  17  18
ATOM     18  C17 UNL     1      23.011  -6.616 -44.434  0.00  0.00    +0.000 C 
ATOM     19  C18 UNL     1      22.945  -7.002 -45.705  0.00  0.00    +0.000 C 
ATOM     20  C19 UNL     1      21.546  -6.913 -46.131  0.00  0.00    +0.000 C 
ATOM     21  C20 UNL     1      21.095  -7.194 -47.358  0.00  0.00    +0.000 C 
ATOM     22  O4  UNL     1      20.767  -6.465 -45.072  0.00  0.00    +0.000 OA
ATOM     23  C28 UNL     1      21.644  -6.284 -44.016  0.00  0.00    +0.000 C 
ATOM     24  O5  UNL     1      21.282  -5.925 -42.865  0.00  0.00    +0.000 OA
BRANCH  21  25
ATOM     25  C21 UNL     1      19.672  -7.101 -47.755  0.00  0.00    +0.000 C 
ATOM     26  C22 UNL     1      18.654  -7.758 -47.041  0.00  0.00    +0.000 C 
ATOM     27  C23 UNL     1      17.323  -7.670 -47.463  0.00  0.00    +0.000 C 
ATOM     28  C24 UNL     1      16.991  -6.935 -48.616  0.00  0.00    +0.000 C 
ATOM     29  C26 UNL     1      18.008  -6.300 -49.336  0.00  0.00    +0.000 C 
ATOM     30  C27 UNL     1      19.338  -6.388 -48.916  0.00  0.00    +0.000 C 
BRANCH  28  31
ATOM     31  O3  UNL     1      15.672  -6.819 -49.079  0.00  0.00    +0.000 OA
ATOM     32  C25 UNL     1      14.678  -7.829 -48.939  0.00  0.00    +0.000 C 
ENDBRANCH  28  31
ENDBRANCH  21  25
ENDBRANCH  17  18
ENDBRANCH  13  16
BRANCH   6  33
ATOM     33  C8  UNL     1      27.609 -10.399 -38.566  0.00  0.00    +0.000 C 
BRANCH  33  34
ATOM     34  O1  UNL     1      27.933 -10.692 -37.234  0.00  0.00    +0.000 OA
ATOM     35  H13 UNL     1      28.061  -9.827 -36.766  0.00  0.00    +0.000 HD
ENDBRANCH  33  34
ENDBRANCH   6  33
TORSDOF 7
