REMARK  Name = resultss/4CJN/ligands/lig_180_t0.pdb
REMARK  4 active torsions:
REMARK  status: ('A' for Active; 'I' for Inactive)
REMARK    1  A    between atoms: C9_1  and  C1_17
REMARK    2  A    between atoms: C12_4  and  C13_7
REMARK    3  A    between atoms: N1_18  and  N2_20
REMARK    4  A    between atoms: C2_21  and  C3_22
REMARK                            x       y       z     vdW  Elec       q    Type
REMARK                         _______ _______ _______ _____ _____    ______ ____
ROOT
ATOM      1  C9  UNL     1      25.498  -9.277 -40.552  0.00  0.00    +0.000 C 
ATOM      2  C10 UNL     1      26.590 -10.162 -40.559  0.00  0.00    +0.000 C 
ATOM      3  C11 UNL     1      27.472 -10.212 -39.475  0.00  0.00    +0.000 C 
ATOM      4  C12 UNL     1      27.277  -9.385 -38.355  0.00  0.00    +0.000 C 
ATOM      5  C20 UNL     1      26.177  -8.509 -38.343  0.00  0.00    +0.000 C 
ATOM      6  C21 UNL     1      25.297  -8.460 -39.427  0.00  0.00    +0.000 C 
ENDROOT
BRANCH   4   7
ATOM      7  C13 UNL     1      28.217  -9.446 -37.212  0.00  0.00    +0.000 A 
ATOM      8  N3  UNL     1      27.810  -9.471 -35.917  0.00  0.00    +0.000 NA
ATOM      9  C14 UNL     1      28.866  -9.527 -35.065  0.00  0.00    +0.000 A 
ATOM     10  C15 UNL     1      28.757  -9.563 -33.673  0.00  0.00    +0.000 C 
ATOM     11  C16 UNL     1      29.933  -9.622 -32.905  0.00  0.00    +0.000 C 
ATOM     12  C17 UNL     1      31.195  -9.644 -33.533  0.00  0.00    +0.000 C 
ATOM     13  C18 UNL     1      31.292  -9.607 -34.933  0.00  0.00    +0.000 C 
ATOM     14  C19 UNL     1      30.111  -9.549 -35.670  0.00  0.00    +0.000 A 
ATOM     15  S1  UNL     1      29.912  -9.496 -37.333  0.00  0.00    +0.000 S 
ENDBRANCH   4   7
BRANCH   1  17
ATOM     16  O1  UNL     1      24.663 -10.046 -42.635  0.00  0.00    +0.000 OA
ATOM     17  C1  UNL     1      24.552  -9.216 -41.692  0.00  0.00    +0.000 C 
ATOM     18  N1  UNL     1      23.498  -8.245 -41.737  0.00  0.00    +0.000 N 
ATOM     19  H1  UNL     1      23.287  -7.661 -40.896  0.00  0.00    +0.000 HD
BRANCH  18  20
ATOM     20  N2  UNL     1      22.704  -8.126 -42.888  0.00  0.00    +0.000 NA
ATOM     21  C2  UNL     1      22.842  -7.136 -43.714  0.00  0.00    +0.000 C 
BRANCH  21  22
ATOM     22  C3  UNL     1      21.997  -7.026 -44.920  0.00  0.00    +0.000 C 
ATOM     23  C4  UNL     1      22.554  -7.301 -46.180  0.00  0.00    +0.000 C 
ATOM     24  C5  UNL     1      21.772  -7.204 -47.335  0.00  0.00    +0.000 C 
ATOM     25  C6  UNL     1      20.427  -6.832 -47.243  0.00  0.00    +0.000 C 
ATOM     26 CL1  UNL     1      19.448  -6.712 -48.694  0.00  0.00    +0.000 Cl
ATOM     27  C7  UNL     1      19.864  -6.558 -45.994  0.00  0.00    +0.000 C 
ATOM     28  C8  UNL     1      20.642  -6.653 -44.836  0.00  0.00    +0.000 C 
ENDBRANCH  21  22
ENDBRANCH  18  20
ENDBRANCH   1  17
TORSDOF 4
