REMARK  Name = resultss/4CJN/ligands/lig_165_t0.pdb
REMARK  6 active torsions:
REMARK  status: ('A' for Active; 'I' for Inactive)
REMARK    1  A    between atoms: C1_2  and  C9_5
REMARK    2  A    between atoms: N1_3  and  N2_20
REMARK    3  A    between atoms: C12_8  and  C13_11
REMARK    4  A    between atoms: C2_21  and  C3_22
REMARK    5  A    between atoms: C7_26  and  O2_28
REMARK    6  A    between atoms: C8_27  and  O3_30
REMARK                            x       y       z     vdW  Elec       q    Type
REMARK                         _______ _______ _______ _____ _____    ______ ____
ROOT
ATOM      1  O1  UNL     1      29.155 -10.316 -43.069  0.00  0.00    +0.000 OA
ATOM      2  C1  UNL     1      29.568 -10.548 -41.900  0.00  0.00    +0.000 C 
ATOM      3  N1  UNL     1      30.849 -11.167 -41.721  0.00  0.00    +0.000 N 
ATOM      4  H1  UNL     1      31.137 -11.514 -40.780  0.00  0.00    +0.000 HD
ENDROOT
BRANCH   2   5
ATOM      5  C9  UNL     1      28.713 -10.195 -40.741  0.00  0.00    +0.000 C 
ATOM      6  C10 UNL     1      29.257 -10.049 -39.452  0.00  0.00    +0.000 C 
ATOM      7  C11 UNL     1      28.438  -9.710 -38.370  0.00  0.00    +0.000 C 
ATOM      8  C12 UNL     1      27.060  -9.503 -38.552  0.00  0.00    +0.000 C 
ATOM      9  C20 UNL     1      26.519  -9.636 -39.843  0.00  0.00    +0.000 C 
ATOM     10  C21 UNL     1      27.338  -9.974 -40.924  0.00  0.00    +0.000 C 
BRANCH   8  11
ATOM     11  C13 UNL     1      26.203  -9.144 -37.398  0.00  0.00    +0.000 A 
ATOM     12  N3  UNL     1      26.375  -9.665 -36.156  0.00  0.00    +0.000 NA
ATOM     13  C14 UNL     1      25.459  -9.175 -35.281  0.00  0.00    +0.000 A 
ATOM     14  C15 UNL     1      25.389  -9.527 -33.932  0.00  0.00    +0.000 C 
ATOM     15  C16 UNL     1      24.390  -8.943 -33.133  0.00  0.00    +0.000 C 
ATOM     16  C17 UNL     1      23.481  -8.020 -33.688  0.00  0.00    +0.000 C 
ATOM     17  C18 UNL     1      23.561  -7.673 -35.046  0.00  0.00    +0.000 C 
ATOM     18  C19 UNL     1      24.560  -8.266 -35.815  0.00  0.00    +0.000 A 
ATOM     19  S1  UNL     1      24.901  -8.052 -37.442  0.00  0.00    +0.000 S 
ENDBRANCH   8  11
ENDBRANCH   2   5
BRANCH   3  20
ATOM     20  N2  UNL     1      31.691 -11.365 -42.827  0.00  0.00    +0.000 NA
ATOM     21  C2  UNL     1      31.703 -12.480 -43.486  0.00  0.00    +0.000 C 
BRANCH  21  22
ATOM     22  C3  UNL     1      32.543 -12.651 -44.690  0.00  0.00    +0.000 C 
ATOM     23  C4  UNL     1      32.897 -13.960 -45.057  0.00  0.00    +0.000 C 
ATOM     24  C5  UNL     1      33.621 -14.203 -46.224  0.00  0.00    +0.000 C 
ATOM     25  C6  UNL     1      34.008 -13.141 -47.040  0.00  0.00    +0.000 C 
ATOM     26  C7  UNL     1      33.694 -11.825 -46.679  0.00  0.00    +0.000 C 
ATOM     27  C8  UNL     1      32.983 -11.567 -45.496  0.00  0.00    +0.000 C 
BRANCH  26  28
ATOM     28  O2  UNL     1      34.100 -10.762 -47.483  0.00  0.00    +0.000 OA
ATOM     29  H6  UNL     1      33.548 -10.455 -48.277  0.00  0.00    +0.000 HD
ENDBRANCH  26  28
BRANCH  27  30
ATOM     30  O3  UNL     1      32.769 -10.232 -45.141  0.00  0.00    +0.000 OA
ATOM     31  H7  UNL     1      33.512  -9.589 -44.909  0.00  0.00    +0.000 HD
ENDBRANCH  27  30
ENDBRANCH  21  22
ENDBRANCH   3  20
TORSDOF 6
