REMARK  Name = resultss/4CJN/ligands/lig_371_t0.pdb
REMARK  6 active torsions:
REMARK  status: ('A' for Active; 'I' for Inactive)
REMARK    1  A    between atoms: C10_1  and  C9_13
REMARK    2  A    between atoms: C10_1  and  C17_16
REMARK    3  A    between atoms: C10_1  and  C11_30
REMARK    4  A    between atoms: C1_2  and  O1_14
REMARK    5  A    between atoms: C25_27  and  O7_28
REMARK    6  A    between atoms: C15_34  and  O4_36
REMARK                            x       y       z     vdW  Elec       q    Type
REMARK                         _______ _______ _______ _____ _____    ______ ____
ROOT
ATOM      1  C10 UNL     1      29.016  -9.998 -40.801  0.00  0.00    +0.000 C 
ENDROOT
BRANCH   1  13
ATOM      2  C1  UNL     1      29.857  -7.854 -39.598  0.00  0.00    +0.000 A 
ATOM      3  O2  UNL     1      30.107  -7.181 -38.479  0.00  0.00    +0.000 OA
ATOM      4  C2  UNL     1      29.843  -7.658 -37.270  0.00  0.00    +0.000 A 
ATOM      5  C3  UNL     1      30.151  -6.887 -36.143  0.00  0.00    +0.000 C 
ATOM      6  C4  UNL     1      29.871  -7.372 -34.865  0.00  0.00    +0.000 C 
ATOM      7  C5  UNL     1      29.271  -8.626 -34.703  0.00  0.00    +0.000 C 
ATOM      8 CL1  UNL     1      28.912  -9.228 -33.090  0.00  0.00    +0.000 Cl
ATOM      9  C6  UNL     1      28.958  -9.402 -35.824  0.00  0.00    +0.000 C 
ATOM     10  C7  UNL     1      29.248  -8.926 -37.118  0.00  0.00    +0.000 A 
ATOM     11  C8  UNL     1      28.968  -9.673 -38.273  0.00  0.00    +0.000 A 
ATOM     12  O3  UNL     1      28.409 -10.800 -38.173  0.00  0.00    +0.000 OA
ATOM     13  C9  UNL     1      29.304  -9.159 -39.547  0.00  0.00    +0.000 A 
BRANCH   2  14
ATOM     14  O1  UNL     1      30.130  -7.234 -40.816  0.00  0.00    +0.000 OA
ATOM     15  H1  UNL     1      30.526  -6.309 -40.845  0.00  0.00    +0.000 HD
ENDBRANCH   2  14
ENDBRANCH   1  13
BRANCH   1  16
ATOM     16  C17 UNL     1      27.958  -9.411 -41.751  0.00  0.00    +0.000 A 
ATOM     17  C18 UNL     1      28.294  -8.699 -42.933  0.00  0.00    +0.000 A 
ATOM     18  O5  UNL     1      29.500  -8.557 -43.285  0.00  0.00    +0.000 OA
ATOM     19  C19 UNL     1      27.275  -8.163 -43.739  0.00  0.00    +0.000 A 
ATOM     20  C20 UNL     1      27.555  -7.391 -44.885  0.00  0.00    +0.000 C 
ATOM     21  C21 UNL     1      26.510  -6.882 -45.663  0.00  0.00    +0.000 C 
ATOM     22 CL2  UNL     1      26.864  -5.889 -47.068  0.00  0.00    +0.000 Cl
ATOM     23  C22 UNL     1      25.181  -7.148 -45.310  0.00  0.00    +0.000 C 
ATOM     24  C23 UNL     1      24.895  -7.908 -44.173  0.00  0.00    +0.000 C 
ATOM     25  C24 UNL     1      25.936  -8.409 -43.383  0.00  0.00    +0.000 A 
ATOM     26  O6  UNL     1      25.649  -9.121 -42.302  0.00  0.00    +0.000 OA
ATOM     27  C25 UNL     1      26.573  -9.625 -41.493  0.00  0.00    +0.000 A 
BRANCH  27  28
ATOM     28  O7  UNL     1      26.120 -10.381 -40.408  0.00  0.00    +0.000 OA
ATOM     29  H14 UNL     1      25.148 -10.461 -40.128  0.00  0.00    +0.000 HD
ENDBRANCH  27  28
ENDBRANCH   1  16
BRANCH   1  30
ATOM     30  C11 UNL     1      30.271 -10.470 -41.525  0.00  0.00    +0.000 C 
ATOM     31  C12 UNL     1      30.165 -11.508 -42.468  0.00  0.00    +0.000 C 
ATOM     32  C13 UNL     1      31.297 -11.963 -43.151  0.00  0.00    +0.000 C 
ATOM     33  C14 UNL     1      32.548 -11.396 -42.896  0.00  0.00    +0.000 C 
ATOM     34  C15 UNL     1      32.675 -10.374 -41.951  0.00  0.00    +0.000 C 
ATOM     35  C16 UNL     1      31.542  -9.911 -41.265  0.00  0.00    +0.000 C 
BRANCH  34  36
ATOM     36  O4  UNL     1      33.932  -9.828 -41.700  0.00  0.00    +0.000 OA
ATOM     37  H9  UNL     1      34.456 -10.059 -40.863  0.00  0.00    +0.000 HD
ENDBRANCH  34  36
ENDBRANCH   1  30
TORSDOF 6
