REMARK  Name = resultss/4CJN/ligands/lig_441_t0.pdb
REMARK  9 active torsions:
REMARK  status: ('A' for Active; 'I' for Inactive)
REMARK    1  A    between atoms: N3_1  and  N2_25
REMARK    2  A    between atoms: C6_2  and  C7_5
REMARK    3  A    between atoms: C17_16  and  C18_19
REMARK    4  A    between atoms: N2_25  and  C5_27
REMARK    5  A    between atoms: C5_27  and  N1_29
REMARK    6  A    between atoms: N1_29  and  C4_33
REMARK    7  A    between atoms: C2_31  and  O1_38
REMARK    8  A    between atoms: C25_35  and  O3_39
REMARK    9  A    between atoms: C27_36  and  O4_41
REMARK                            x       y       z     vdW  Elec       q    Type
REMARK                         _______ _______ _______ _____ _____    ______ ____
ROOT
ATOM      1  N3  UNL     1      29.229 -10.498 -39.726  0.00  0.00    +0.000 N 
ATOM      2  C6  UNL     1      27.993 -10.356 -39.015  0.00  0.00    +0.000 C 
ATOM      3  O2  UNL     1      26.899 -10.504 -39.623  0.00  0.00    +0.000 OA
ATOM      4  H7  UNL     1      30.119 -10.164 -39.291  0.00  0.00    +0.000 HD
ENDROOT
BRANCH   2   5
ATOM      5  C7  UNL     1      27.985 -10.035 -37.577  0.00  0.00    +0.000 C 
ATOM      6  C8  UNL     1      29.194  -9.952 -36.856  0.00  0.00    +0.000 C 
ATOM      7  C9  UNL     1      29.109  -9.603 -35.514  0.00  0.00    +0.000 A 
ATOM      8  C10 UNL     1      27.903  -9.315 -34.907  0.00  0.00    +0.000 A 
ATOM      9  N4  UNL     1      28.068  -9.032 -33.595  0.00  0.00    +0.000 N 
ATOM     10  C11 UNL     1      29.401  -9.134 -33.384  0.00  0.00    +0.000 A 
ATOM     11  C12 UNL     1      30.081  -8.924 -32.186  0.00  0.00    +0.000 C 
ATOM     12  C13 UNL     1      31.481  -9.071 -32.188  0.00  0.00    +0.000 C 
ATOM     13  C14 UNL     1      32.164  -9.430 -33.372  0.00  0.00    +0.000 C 
ATOM     14  C15 UNL     1      31.456  -9.646 -34.568  0.00  0.00    +0.000 C 
ATOM     15  C16 UNL     1      30.073  -9.481 -34.538  0.00  0.00    +0.000 A 
ATOM     16  C17 UNL     1      26.711  -9.390 -35.638  0.00  0.00    +0.000 C 
ATOM     17  N5  UNL     1      26.795  -9.763 -36.952  0.00  0.00    +0.000 NA
ATOM     18  H9  UNL     1      27.337  -8.819 -32.881  0.00  0.00    +0.000 HD
BRANCH  16  19
ATOM     19  C18 UNL     1      25.395  -9.032 -35.066  0.00  0.00    +0.000 C 
ATOM     20  C19 UNL     1      25.049  -9.422 -33.760  0.00  0.00    +0.000 C 
ATOM     21  C20 UNL     1      23.822  -9.034 -33.210  0.00  0.00    +0.000 C 
ATOM     22  C21 UNL     1      22.937  -8.251 -33.953  0.00  0.00    +0.000 C 
ATOM     23  C22 UNL     1      23.280  -7.845 -35.245  0.00  0.00    +0.000 C 
ATOM     24  C23 UNL     1      24.507  -8.224 -35.797  0.00  0.00    +0.000 C 
ENDBRANCH  16  19
ENDBRANCH   2   5
BRANCH   1  25
ATOM     25  N2  UNL     1      29.261 -11.110 -40.990  0.00  0.00    +0.000 N 
ATOM     26  H6  UNL     1      28.910 -12.090 -41.097  0.00  0.00    +0.000 HD
BRANCH  25  27
ATOM     27  C5  UNL     1      29.744 -10.428 -42.155  0.00  0.00    +0.000 C 
ATOM     28  S1  UNL     1      30.841 -11.137 -43.151  0.00  0.00    +0.000 S 
BRANCH  27  29
ATOM     29  N1  UNL     1      29.431  -9.043 -42.337  0.00  0.00    +0.000 N 
ATOM     30  H5  UNL     1      30.090  -8.339 -41.928  0.00  0.00    +0.000 HD
BRANCH  29  33
ATOM     31  C2  UNL     1      27.221  -7.253 -44.779  0.00  0.00    +0.000 C 
ATOM     32  C3  UNL     1      28.360  -7.703 -44.085  0.00  0.00    +0.000 C 
ATOM     33  C4  UNL     1      28.240  -8.585 -43.004  0.00  0.00    +0.000 C 
ATOM     34  C24 UNL     1      26.965  -9.025 -42.613  0.00  0.00    +0.000 C 
ATOM     35  C25 UNL     1      25.816  -8.602 -43.309  0.00  0.00    +0.000 C 
ATOM     36  C27 UNL     1      25.949  -7.733 -44.403  0.00  0.00    +0.000 C 
BRANCH  31  38
ATOM     37  C1  UNL     1      27.457  -6.632 -47.198  0.00  0.00    +0.000 C 
ATOM     38  O1  UNL     1      27.314  -6.312 -45.818  0.00  0.00    +0.000 OA
ENDBRANCH  31  38
BRANCH  35  39
ATOM     39  O3  UNL     1      24.527  -9.036 -42.957  0.00  0.00    +0.000 OA
ATOM     40  C26 UNL     1      23.827  -8.636 -41.784  0.00  0.00    +0.000 C 
ENDBRANCH  35  39
BRANCH  36  41
ATOM     41  O4  UNL     1      24.792  -7.347 -45.090  0.00  0.00    +0.000 OA
ATOM     42  C28 UNL     1      24.082  -6.145 -44.803  0.00  0.00    +0.000 C 
ENDBRANCH  36  41
ENDBRANCH  29  33
ENDBRANCH  27  29
ENDBRANCH  25  27
ENDBRANCH   1  25
TORSDOF 9
