REMARK  Name = resultss/4CJN/ligands/lig_354_t1.pdb
REMARK  10 active torsions:
REMARK  status: ('A' for Active; 'I' for Inactive)
REMARK    1  A    between atoms: C6_1  and  O2_27
REMARK    2  A    between atoms: C9_4  and  C10_7
REMARK    3  A    between atoms: N3_17  and  N4_19
REMARK    4  A    between atoms: N4_19  and  C18_21
REMARK    5  A    between atoms: O2_27  and  C5_28
REMARK    6  A    between atoms: C5_28  and  C4_31
REMARK    7  A    between atoms: N1_29  and  C2_34
REMARK    8  A    between atoms: C2_34  and  C1_35
REMARK    9  A    between atoms: C1_35  and  O1_43
REMARK   10  A    between atoms: N7_36  and  C26_37
REMARK                            x       y       z     vdW  Elec       q    Type
REMARK                         _______ _______ _______ _____ _____    ______ ____
ROOT
ATOM      1  C6  UNL     1      25.712  -8.165 -40.165  0.00  0.00    +0.000 C 
ATOM      2  C7  UNL     1      26.922  -7.505 -39.886  0.00  0.00    +0.000 C 
ATOM      3  C8  UNL     1      27.347  -7.337 -38.565  0.00  0.00    +0.000 C 
ATOM      4  C9  UNL     1      26.570  -7.819 -37.498  0.00  0.00    +0.000 C 
ATOM      5  C24 UNL     1      25.367  -8.487 -37.782  0.00  0.00    +0.000 C 
ATOM      6  C25 UNL     1      24.944  -8.656 -39.103  0.00  0.00    +0.000 C 
ENDROOT
BRANCH   4   7
ATOM      7  C10 UNL     1      27.034  -7.625 -36.071  0.00  0.00    +0.000 C 
ATOM      8  N2  UNL     1      26.111  -6.735 -35.356  0.00  0.00    +0.000 N 
ATOM      9  C11 UNL     1      25.065  -7.219 -34.502  0.00  0.00    +0.000 C 
ATOM     10  C12 UNL     1      24.069  -6.344 -34.044  0.00  0.00    +0.000 C 
ATOM     11  C13 UNL     1      23.039  -6.817 -33.225  0.00  0.00    +0.000 C 
ATOM     12  C14 UNL     1      23.000  -8.164 -32.859  0.00  0.00    +0.000 C 
ATOM     13  C15 UNL     1      23.990  -9.042 -33.308  0.00  0.00    +0.000 C 
ATOM     14  C16 UNL     1      25.029  -8.572 -34.131  0.00  0.00    +0.000 C 
ATOM     15  C17 UNL     1      26.099  -9.462 -34.609  0.00  0.00    +0.000 C 
ATOM     16  O3  UNL     1      26.073 -10.693 -34.332  0.00  0.00    +0.000 OA
ATOM     17  N3  UNL     1      27.177  -8.922 -35.395  0.00  0.00    +0.000 N 
ATOM     18  H10 UNL     1      26.134  -5.718 -35.599  0.00  0.00    +0.000 HD
BRANCH  17  19
ATOM     19  N4  UNL     1      28.296  -9.719 -35.706  0.00  0.00    +0.000 N 
ATOM     20  H15 UNL     1      28.268 -10.308 -36.569  0.00  0.00    +0.000 HD
BRANCH  19  21
ATOM     21  C18 UNL     1      29.525  -9.657 -34.961  0.00  0.00    +0.000 C 
ATOM     22  C19 UNL     1      30.772  -9.581 -35.611  0.00  0.00    +0.000 C 
ATOM     23  C20 UNL     1      31.955  -9.541 -34.866  0.00  0.00    +0.000 C 
ATOM     24  C21 UNL     1      31.905  -9.588 -33.471  0.00  0.00    +0.000 C 
ATOM     25  C22 UNL     1      30.673  -9.682 -32.818  0.00  0.00    +0.000 C 
ATOM     26  C23 UNL     1      29.489  -9.721 -33.559  0.00  0.00    +0.000 C 
ENDBRANCH  19  21
ENDBRANCH  17  19
ENDBRANCH   4   7
BRANCH   1  27
ATOM     27  O2  UNL     1      25.232  -8.352 -41.472  0.00  0.00    +0.000 OA
BRANCH  27  28
ATOM     28  C5  UNL     1      24.537  -7.373 -42.242  0.00  0.00    +0.000 C 
BRANCH  28  31
ATOM     29  N1  UNL     1      25.249  -7.139 -45.792  0.00  0.00    +0.000 N 
ATOM     30  C3  UNL     1      24.348  -7.197 -44.797  0.00  0.00    +0.000 C 
ATOM     31  C4  UNL     1      25.078  -7.317 -43.635  0.00  0.00    +0.000 C 
ATOM     32  N5  UNL     1      26.390  -7.307 -43.950  0.00  0.00    +0.000 NA
ATOM     33  N6  UNL     1      26.463  -7.195 -45.269  0.00  0.00    +0.000 NA
BRANCH  29  34
ATOM     34  C2  UNL     1      24.968  -6.929 -47.208  0.00  0.00    +0.000 C 
BRANCH  34  35
ATOM     35  C1  UNL     1      23.561  -7.334 -47.511  0.00  0.00    +0.000 C 
ATOM     36  N7  UNL     1      22.615  -6.441 -47.429  0.00  0.00    +0.000 NA
BRANCH  36  37
ATOM     37  C26 UNL     1      21.232  -6.629 -47.760  0.00  0.00    +0.000 C 
ATOM     38  C27 UNL     1      20.316  -6.891 -46.731  0.00  0.00    +0.000 C 
ATOM     39  C28 UNL     1      18.954  -7.025 -47.015  0.00  0.00    +0.000 C 
ATOM     40  C29 UNL     1      18.494  -6.872 -48.327  0.00  0.00    +0.000 C 
ATOM     41  C30 UNL     1      19.396  -6.576 -49.354  0.00  0.00    +0.000 C 
ATOM     42  C31 UNL     1      20.758  -6.441 -49.071  0.00  0.00    +0.000 C 
ENDBRANCH  36  37
BRANCH  35  43
ATOM     43  O1  UNL     1      23.299  -8.676 -47.796  0.00  0.00    +0.000 OA
ATOM     44  H1  UNL     1      23.984  -9.299 -48.203  0.00  0.00    +0.000 HD
ENDBRANCH  35  43
ENDBRANCH  34  35
ENDBRANCH  29  34
ENDBRANCH  28  31
ENDBRANCH  27  28
ENDBRANCH   1  27
TORSDOF 10
