REMARK  Name = resultss/4CJN/ligands/lig_441_t0.pdb
REMARK  9 active torsions:
REMARK  status: ('A' for Active; 'I' for Inactive)
REMARK    1  A    between atoms: N3_1  and  N2_25
REMARK    2  A    between atoms: C6_2  and  C7_5
REMARK    3  A    between atoms: C17_16  and  C18_19
REMARK    4  A    between atoms: N2_25  and  C5_27
REMARK    5  A    between atoms: C5_27  and  N1_29
REMARK    6  A    between atoms: N1_29  and  C4_33
REMARK    7  A    between atoms: C2_31  and  O1_38
REMARK    8  A    between atoms: C25_35  and  O3_39
REMARK    9  A    between atoms: C27_36  and  O4_41
REMARK                            x       y       z     vdW  Elec       q    Type
REMARK                         _______ _______ _______ _____ _____    ______ ____
ROOT
ATOM      1  N3  UNL     1      26.074  -8.525 -33.491  0.00  0.00    +0.000 N 
ATOM      2  C6  UNL     1      26.637  -9.657 -34.166  0.00  0.00    +0.000 C 
ATOM      3  O2  UNL     1      25.910 -10.651 -34.436  0.00  0.00    +0.000 OA
ATOM      4  H7  UNL     1      26.705  -7.804 -33.073  0.00  0.00    +0.000 HD
ENDROOT
BRANCH   2   5
ATOM      5  C7  UNL     1      28.059  -9.674 -34.548  0.00  0.00    +0.000 C 
ATOM      6  C8  UNL     1      28.436  -9.628 -35.906  0.00  0.00    +0.000 C 
ATOM      7  C9  UNL     1      29.797  -9.605 -36.186  0.00  0.00    +0.000 A 
ATOM      8  C10 UNL     1      30.750  -9.595 -35.188  0.00  0.00    +0.000 A 
ATOM      9  N4  UNL     1      32.001  -9.602 -35.703  0.00  0.00    +0.000 N 
ATOM     10  C11 UNL     1      31.823  -9.605 -37.044  0.00  0.00    +0.000 A 
ATOM     11  C12 UNL     1      32.814  -9.601 -38.023  0.00  0.00    +0.000 C 
ATOM     12  C13 UNL     1      32.409  -9.591 -39.372  0.00  0.00    +0.000 C 
ATOM     13  C14 UNL     1      31.037  -9.596 -39.709  0.00  0.00    +0.000 C 
ATOM     14  C15 UNL     1      30.053  -9.609 -38.704  0.00  0.00    +0.000 C 
ATOM     15  C16 UNL     1      30.485  -9.605 -37.379  0.00  0.00    +0.000 A 
ATOM     16  C17 UNL     1      30.362  -9.630 -33.843  0.00  0.00    +0.000 C 
ATOM     17  N5  UNL     1      29.022  -9.682 -33.571  0.00  0.00    +0.000 NA
ATOM     18  H9  UNL     1      32.911  -9.637 -35.192  0.00  0.00    +0.000 HD
BRANCH  16  19
ATOM     19  C18 UNL     1      31.328  -9.555 -32.726  0.00  0.00    +0.000 C 
ATOM     20  C19 UNL     1      31.859 -10.726 -32.156  0.00  0.00    +0.000 C 
ATOM     21  C20 UNL     1      32.812 -10.644 -31.135  0.00  0.00    +0.000 C 
ATOM     22  C21 UNL     1      33.247  -9.398 -30.681  0.00  0.00    +0.000 C 
ATOM     23  C22 UNL     1      32.738  -8.230 -31.253  0.00  0.00    +0.000 C 
ATOM     24  C23 UNL     1      31.790  -8.306 -32.278  0.00  0.00    +0.000 C 
ENDBRANCH  16  19
ENDBRANCH   2   5
BRANCH   1  25
ATOM     25  N2  UNL     1      24.682  -8.358 -33.413  0.00  0.00    +0.000 N 
ATOM     26  H6  UNL     1      24.156  -8.779 -32.612  0.00  0.00    +0.000 HD
BRANCH  25  27
ATOM     27  C5  UNL     1      23.948  -7.607 -34.390  0.00  0.00    +0.000 C 
ATOM     28  S1  UNL     1      22.384  -7.973 -34.733  0.00  0.00    +0.000 S 
BRANCH  27  29
ATOM     29  N1  UNL     1      24.643  -6.671 -35.222  0.00  0.00    +0.000 N 
ATOM     30  H5  UNL     1      24.632  -5.664 -34.932  0.00  0.00    +0.000 HD
BRANCH  29  33
ATOM     31  C2  UNL     1      27.260  -6.883 -37.897  0.00  0.00    +0.000 C 
ATOM     32  C3  UNL     1      26.573  -6.524 -36.722  0.00  0.00    +0.000 C 
ATOM     33  C4  UNL     1      25.302  -7.043 -36.446  0.00  0.00    +0.000 C 
ATOM     34  C24 UNL     1      24.711  -7.935 -37.355  0.00  0.00    +0.000 C 
ATOM     35  C25 UNL     1      25.393  -8.323 -38.525  0.00  0.00    +0.000 C 
ATOM     36  C27 UNL     1      26.675  -7.812 -38.782  0.00  0.00    +0.000 C 
BRANCH  31  38
ATOM     37  C1  UNL     1      29.568  -6.094 -37.307  0.00  0.00    +0.000 C 
ATOM     38  O1  UNL     1      28.503  -6.317 -38.227  0.00  0.00    +0.000 OA
ENDBRANCH  31  38
BRANCH  35  39
ATOM     39  O3  UNL     1      24.840  -9.227 -39.447  0.00  0.00    +0.000 OA
ATOM     40  C26 UNL     1      24.218  -8.859 -40.673  0.00  0.00    +0.000 C 
ENDBRANCH  35  39
BRANCH  36  41
ATOM     41  O4  UNL     1      27.338  -8.232 -39.942  0.00  0.00    +0.000 OA
ATOM     42  C28 UNL     1      27.526  -7.392 -41.077  0.00  0.00    +0.000 C 
ENDBRANCH  36  41
ENDBRANCH  29  33
ENDBRANCH  27  29
ENDBRANCH  25  27
ENDBRANCH   1  25
TORSDOF 9
