REMARK  Name = resultss/4CJN/ligands/lig_338_t1.pdb
REMARK  11 active torsions:
REMARK  status: ('A' for Active; 'I' for Inactive)
REMARK    1  A    between atoms: C2_1  and  O1_28
REMARK    2  A    between atoms: C4_3  and  C5_7
REMARK    3  A    between atoms: C21_6  and  O3_29
REMARK    4  A    between atoms: N2_17  and  N3_19
REMARK    5  A    between atoms: N3_19  and  C13_21
REMARK    6  A    between atoms: O3_29  and  C22_30
REMARK    7  A    between atoms: C22_30  and  C23_31
REMARK    8  A    between atoms: N4_33  and  C25_36
REMARK    9  A    between atoms: C25_36  and  C26_37
REMARK   10  A    between atoms: C26_37  and  O4_46
REMARK   11  A    between atoms: N5_38  and  C27_39
REMARK                            x       y       z     vdW  Elec       q    Type
REMARK                         _______ _______ _______ _____ _____    ______ ____
ROOT
ATOM      1  C2  UNL     1      27.552  -7.350 -33.756  0.00  0.00    +0.000 C 
ATOM      2  C3  UNL     1      28.841  -7.551 -33.228  0.00  0.00    +0.000 C 
ATOM      3  C4  UNL     1      29.484  -8.793 -33.359  0.00  0.00    +0.000 C 
ATOM      4  C19 UNL     1      28.835  -9.833 -34.038  0.00  0.00    +0.000 C 
ATOM      5  C20 UNL     1      27.564  -9.636 -34.577  0.00  0.00    +0.000 C 
ATOM      6  C21 UNL     1      26.910  -8.397 -34.435  0.00  0.00    +0.000 C 
ENDROOT
BRANCH   3   7
ATOM      7  C5  UNL     1      30.806  -9.041 -32.671  0.00  0.00    +0.000 C 
ATOM      8  N1  UNL     1      30.791 -10.358 -32.022  0.00  0.00    +0.000 N 
ATOM      9  C6  UNL     1      32.001 -11.084 -31.765  0.00  0.00    +0.000 C 
ATOM     10  C7  UNL     1      32.011 -12.140 -30.839  0.00  0.00    +0.000 C 
ATOM     11  C8  UNL     1      33.200 -12.828 -30.572  0.00  0.00    +0.000 C 
ATOM     12  C9  UNL     1      34.380 -12.473 -31.232  0.00  0.00    +0.000 C 
ATOM     13  C10 UNL     1      34.371 -11.438 -32.172  0.00  0.00    +0.000 C 
ATOM     14  C11 UNL     1      33.180 -10.742 -32.444  0.00  0.00    +0.000 C 
ATOM     15  C12 UNL     1      33.127  -9.666 -33.447  0.00  0.00    +0.000 C 
ATOM     16  O2  UNL     1      34.139  -9.400 -34.149  0.00  0.00    +0.000 OA
ATOM     17  N2  UNL     1      31.903  -8.939 -33.648  0.00  0.00    +0.000 N 
ATOM     18  H6  UNL     1      29.918 -10.651 -31.526  0.00  0.00    +0.000 HD
BRANCH  17  19
ATOM     19  N3  UNL     1      31.879  -7.889 -34.587  0.00  0.00    +0.000 N 
ATOM     20  H11 UNL     1      32.052  -6.917 -34.239  0.00  0.00    +0.000 HD
BRANCH  19  21
ATOM     21  C13 UNL     1      31.318  -8.062 -35.898  0.00  0.00    +0.000 C 
ATOM     22  C14 UNL     1      30.659  -7.009 -36.560  0.00  0.00    +0.000 C 
ATOM     23  C15 UNL     1      30.149  -7.193 -37.849  0.00  0.00    +0.000 C 
ATOM     24  C16 UNL     1      30.297  -8.424 -38.491  0.00  0.00    +0.000 C 
ATOM     25  C17 UNL     1      30.965  -9.471 -37.849  0.00  0.00    +0.000 C 
ATOM     26  C18 UNL     1      31.469  -9.293 -36.557  0.00  0.00    +0.000 C 
ENDBRANCH  19  21
ENDBRANCH  17  19
ENDBRANCH   3   7
BRANCH   1  28
ATOM     27  C1  UNL     1      25.833  -5.894 -32.667  0.00  0.00    +0.000 C 
ATOM     28  O1  UNL     1      26.870  -6.130 -33.614  0.00  0.00    +0.000 OA
ENDBRANCH   1  28
BRANCH   6  29
ATOM     29  O3  UNL     1      25.623  -8.170 -34.950  0.00  0.00    +0.000 OA
BRANCH  29  30
ATOM     30  C22 UNL     1      25.033  -8.916 -36.009  0.00  0.00    +0.000 C 
BRANCH  30  31
ATOM     31  C23 UNL     1      24.979  -8.069 -37.236  0.00  0.00    +0.000 C 
ATOM     32  C24 UNL     1      25.318  -8.457 -38.512  0.00  0.00    +0.000 C 
ATOM     33  N4  UNL     1      25.157  -7.366 -39.281  0.00  0.00    +0.000 N 
ATOM     34  N6  UNL     1      24.734  -6.371 -38.522  0.00  0.00    +0.000 NA
ATOM     35  N7  UNL     1      24.626  -6.768 -37.261  0.00  0.00    +0.000 NA
BRANCH  33  36
ATOM     36  C25 UNL     1      25.309  -7.293 -40.729  0.00  0.00    +0.000 C 
BRANCH  36  37
ATOM     37  C26 UNL     1      24.561  -8.431 -41.371  0.00  0.00    +0.000 C 
ATOM     38  N5  UNL     1      25.153  -9.439 -41.948  0.00  0.00    +0.000 NA
BRANCH  38  39
ATOM     39  C27 UNL     1      26.562  -9.712 -41.956  0.00  0.00    +0.000 C 
ATOM     40  C28 UNL     1      27.136 -10.404 -40.882  0.00  0.00    +0.000 C 
ATOM     41  C29 UNL     1      28.521 -10.613 -40.838  0.00  0.00    +0.000 C 
ATOM     42  C30 UNL     1      29.338 -10.110 -41.855  0.00  0.00    +0.000 C 
ATOM     43 BR1  UNL     1      31.228 -10.385 -41.787  0.00  0.00    +0.000 Br
ATOM     44  C31 UNL     1      28.772  -9.394 -42.917  0.00  0.00    +0.000 C 
ATOM     45  C32 UNL     1      27.389  -9.186 -42.962  0.00  0.00    +0.000 C 
ENDBRANCH  38  39
BRANCH  37  46
ATOM     46  O4  UNL     1      23.171  -8.350 -41.420  0.00  0.00    +0.000 OA
ATOM     47  H24 UNL     1      22.696  -7.952 -42.223  0.00  0.00    +0.000 HD
ENDBRANCH  37  46
ENDBRANCH  36  37
ENDBRANCH  33  36
ENDBRANCH  30  31
ENDBRANCH  29  30
ENDBRANCH   6  29
TORSDOF 11
