REMARK  Name = resultss/4CJN/ligands/lig_83_t0.pdb
REMARK  4 active torsions:
REMARK  status: ('A' for Active; 'I' for Inactive)
REMARK    1  A    between atoms: C9_10  and  C10_18
REMARK    2  A    between atoms: C21_17  and  C22_24
REMARK    3  A    between atoms: C22_24  and  C23_25
REMARK    4  A    between atoms: C27_31  and  O5_32
REMARK                            x       y       z     vdW  Elec       q    Type
REMARK                         _______ _______ _______ _____ _____    ______ ____
ROOT
ATOM      1  C1  UNL     1      28.899  -9.332 -38.315  0.00  0.00    +0.000 C 
ATOM      2  C2  UNL     1      28.010  -8.479 -38.851  0.00  0.00    +0.000 C 
ATOM      3  C3  UNL     1      28.470  -7.111 -39.314  0.00  0.00    +0.000 C 
ATOM      4  C4  UNL     1      27.523  -6.513 -40.370  0.00  0.00    +0.000 C 
ATOM      5  C5  UNL     1      26.901  -7.644 -41.226  0.00  0.00    +0.000 C 
ATOM      6  C6  UNL     1      26.455  -7.264 -42.703  0.00  0.00    +0.000 C 
ATOM      7  C7  UNL     1      27.753  -7.100 -43.554  0.00  0.00    +0.000 C 
ATOM      8  C8  UNL     1      25.683  -5.896 -42.809  0.00  0.00    +0.000 C 
ATOM      9  O1  UNL     1      24.280  -6.017 -42.854  0.00  0.00    +0.000 OA
ATOM     10  C9  UNL     1      23.918  -6.958 -43.838  0.00  0.00    +0.000 C 
ATOM     11  O2  UNL     1      24.226  -8.250 -43.368  0.00  0.00    +0.000 OA
ATOM     12  C16 UNL     1      25.626  -8.445 -43.360  0.00  0.00    +0.000 C 
ATOM     13  C17 UNL     1      25.922  -9.798 -42.688  0.00  0.00    +0.000 C 
ATOM     14  C18 UNL     1      25.620  -9.840 -41.169  0.00  0.00    +0.000 C 
ATOM     15  C19 UNL     1      25.893  -8.504 -40.375  0.00  0.00    +0.000 C 
ATOM     16  C20 UNL     1      24.531  -7.772 -40.203  0.00  0.00    +0.000 C 
ATOM     17  C21 UNL     1      26.526  -8.841 -38.926  0.00  0.00    +0.000 C 
ENDROOT
BRANCH  10  18
ATOM     18  C10 UNL     1      22.431  -6.881 -44.073  0.00  0.00    +0.000 C 
ATOM     19  C11 UNL     1      21.532  -7.051 -43.005  0.00  0.00    +0.000 C 
ATOM     20  C12 UNL     1      20.153  -6.950 -43.218  0.00  0.00    +0.000 C 
ATOM     21  C13 UNL     1      19.660  -6.669 -44.494  0.00  0.00    +0.000 C 
ATOM     22  C14 UNL     1      20.544  -6.482 -45.559  0.00  0.00    +0.000 C 
ATOM     23  C15 UNL     1      21.923  -6.583 -45.351  0.00  0.00    +0.000 C 
ENDBRANCH  10  18
BRANCH  17  24
ATOM     24  C22 UNL     1      25.816  -8.194 -37.694  0.00  0.00    +0.000 C 
BRANCH  24  25
ATOM     25  C23 UNL     1      25.839  -9.076 -36.470  0.00  0.00    +0.000 C 
ATOM     26  C24 UNL     1      25.336  -8.718 -35.278  0.00  0.00    +0.000 C 
ATOM     27  C25 UNL     1      25.307  -9.562 -34.108  0.00  0.00    +0.000 C 
ATOM     28  O3  UNL     1      25.761 -10.736 -34.040  0.00  0.00    +0.000 OA
ATOM     29  O4  UNL     1      24.702  -8.920 -33.052  0.00  0.00    +0.000 OA
ATOM     30  C26 UNL     1      24.262  -7.618 -33.426  0.00  0.00    +0.000 C 
ATOM     31  C27 UNL     1      24.706  -7.410 -34.899  0.00  0.00    +0.000 C 
BRANCH  31  32
ATOM     32  O5  UNL     1      25.652  -6.377 -34.984  0.00  0.00    +0.000 OA
ATOM     33  H34 UNL     1      26.453  -6.690 -34.489  0.00  0.00    +0.000 HD
ENDBRANCH  31  32
ENDBRANCH  24  25
ENDBRANCH  17  24
TORSDOF 4
