REMARK  Name = resultss/4CJN/ligands/lig_331_t1.pdb
REMARK  10 active torsions:
REMARK  status: ('A' for Active; 'I' for Inactive)
REMARK    1  A    between atoms: C5_1  and  C4_13
REMARK    2  A    between atoms: C8_5  and  C9_24
REMARK    3  A    between atoms: C18_7  and  O4_22
REMARK    4  A    between atoms: C21_10  and  C22_34
REMARK    5  A    between atoms: C2_11  and  O1_19
REMARK    6  A    between atoms: C24_15  and  O7_20
REMARK    7  A    between atoms: C9_24  and  C10_25
REMARK    8  A    between atoms: C10_25  and  C11_26
REMARK    9  A    between atoms: C14_29  and  O3_32
REMARK   10  A    between atoms: C22_34  and  O6_35
REMARK                            x       y       z     vdW  Elec       q    Type
REMARK                         _______ _______ _______ _____ _____    ______ ____
ROOT
ATOM      1  C5  UNL     1      27.150  -8.271 -37.333  0.00  0.00    +0.000 C 
ATOM      2  O2  UNL     1      26.224  -8.119 -38.414  0.00  0.00    +0.000 OA
ATOM      3  C6  UNL     1      26.463  -8.697 -39.665  0.00  0.00    +0.000 C 
ATOM      4  C7  UNL     1      25.700  -8.327 -40.773  0.00  0.00    +0.000 C 
ATOM      5  C8  UNL     1      25.974  -8.882 -42.032  0.00  0.00    +0.000 C 
ATOM      6  C17 UNL     1      27.004  -9.831 -42.162  0.00  0.00    +0.000 C 
ATOM      7  C18 UNL     1      27.764 -10.220 -41.042  0.00  0.00    +0.000 C 
ATOM      8  C20 UNL     1      27.476  -9.655 -39.793  0.00  0.00    +0.000 C 
ATOM      9  O5  UNL     1      28.192 -10.042 -38.655  0.00  0.00    +0.000 OA
ATOM     10  C21 UNL     1      27.740  -9.708 -37.340  0.00  0.00    +0.000 C 
ENDROOT
BRANCH   1  13
ATOM     11  C2  UNL     1      26.518  -6.972 -33.710  0.00  0.00    +0.000 C 
ATOM     12  C3  UNL     1      27.127  -7.288 -35.057  0.00  0.00    +0.000 C 
ATOM     13  C4  UNL     1      26.465  -7.947 -36.025  0.00  0.00    +0.000 C 
ATOM     14  C23 UNL     1      25.037  -8.298 -35.854  0.00  0.00    +0.000 C 
ATOM     15  C24 UNL     1      24.344  -7.921 -34.768  0.00  0.00    +0.000 C 
ATOM     16  C26 UNL     1      25.026  -7.171 -33.699  0.00  0.00    +0.000 C 
ATOM     17  O8  UNL     1      24.354  -6.723 -32.730  0.00  0.00    +0.000 OA
BRANCH  11  19
ATOM     18  C1  UNL     1      28.447  -8.066 -33.009  0.00  0.00    +0.000 C 
ATOM     19  O1  UNL     1      27.084  -7.824 -32.732  0.00  0.00    +0.000 OA
ENDBRANCH  11  19
BRANCH  15  20
ATOM     20  O7  UNL     1      22.977  -8.206 -34.608  0.00  0.00    +0.000 OA
ATOM     21  C25 UNL     1      21.913  -7.403 -35.110  0.00  0.00    +0.000 C 
ENDBRANCH  15  20
ENDBRANCH   1  13
BRANCH   7  22
ATOM     22  O4  UNL     1      28.799 -11.165 -41.126  0.00  0.00    +0.000 OA
ATOM     23  C19 UNL     1      29.997 -10.981 -41.874  0.00  0.00    +0.000 C 
ENDBRANCH   7  22
BRANCH   5  24
ATOM     24  C9  UNL     1      25.135  -8.507 -43.224  0.00  0.00    +0.000 C 
BRANCH  24  25
ATOM     25  C10 UNL     1      25.456  -7.080 -43.679  0.00  0.00    +0.000 C 
BRANCH  25  26
ATOM     26  C11 UNL     1      25.872  -7.068 -45.125  0.00  0.00    +0.000 C 
ATOM     27  C12 UNL     1      27.231  -7.128 -45.473  0.00  0.00    +0.000 C 
ATOM     28  C13 UNL     1      27.615  -7.148 -46.818  0.00  0.00    +0.000 C 
ATOM     29  C14 UNL     1      26.643  -7.118 -47.827  0.00  0.00    +0.000 C 
ATOM     30  C15 UNL     1      25.288  -7.071 -47.485  0.00  0.00    +0.000 C 
ATOM     31  C16 UNL     1      24.902  -7.052 -46.141  0.00  0.00    +0.000 C 
BRANCH  29  32
ATOM     32  O3  UNL     1      27.014  -7.137 -49.170  0.00  0.00    +0.000 OA
ATOM     33  H14 UNL     1      27.979  -7.263 -49.451  0.00  0.00    +0.000 HD
ENDBRANCH  29  32
ENDBRANCH  25  26
ENDBRANCH  24  25
ENDBRANCH   5  24
BRANCH  10  34
ATOM     34  C22 UNL     1      28.894  -9.884 -36.341  0.00  0.00    +0.000 C 
BRANCH  34  35
ATOM     35  O6  UNL     1      29.912  -8.946 -36.571  0.00  0.00    +0.000 OA
ATOM     36  H24 UNL     1      30.390  -8.826 -35.710  0.00  0.00    +0.000 HD
ENDBRANCH  34  35
ENDBRANCH  10  34
TORSDOF 10
