REMARK  Name = resultss/4CJN/ligands/lig_410_t0.pdb
REMARK  6 active torsions:
REMARK  status: ('A' for Active; 'I' for Inactive)
REMARK    1  A    between atoms: C9_1  and  C1_22
REMARK    2  A    between atoms: C19_12  and  C20_15
REMARK    3  A    between atoms: N1_23  and  N2_25
REMARK    4  A    between atoms: N2_25  and  C2_27
REMARK    5  A    between atoms: C2_27  and  N3_29
REMARK    6  A    between atoms: N3_29  and  C3_31
REMARK                            x       y       z     vdW  Elec       q    Type
REMARK                         _______ _______ _______ _____ _____    ______ ____
ROOT
ATOM      1  C9  UNL     1      26.530  -9.749 -41.224  0.00  0.00    +0.000 C 
ATOM      2  C10 UNL     1      26.314  -9.643 -39.833  0.00  0.00    +0.000 C 
ATOM      3  C11 UNL     1      27.413  -9.832 -39.003  0.00  0.00    +0.000 A 
ATOM      4  C12 UNL     1      28.665 -10.120 -39.499  0.00  0.00    +0.000 A 
ATOM      5  N4  UNL     1      29.583 -10.196 -38.506  0.00  0.00    +0.000 N 
ATOM      6  C13 UNL     1      28.884  -9.972 -37.372  0.00  0.00    +0.000 A 
ATOM      7  C14 UNL     1      29.380  -9.935 -36.070  0.00  0.00    +0.000 C 
ATOM      8  C15 UNL     1      28.476  -9.665 -35.027  0.00  0.00    +0.000 C 
ATOM      9  C16 UNL     1      27.109  -9.432 -35.302  0.00  0.00    +0.000 C 
ATOM     10  C17 UNL     1      26.632  -9.468 -36.625  0.00  0.00    +0.000 C 
ATOM     11  C18 UNL     1      27.549  -9.746 -37.636  0.00  0.00    +0.000 A 
ATOM     12  C19 UNL     1      28.864 -10.239 -40.881  0.00  0.00    +0.000 C 
ATOM     13  N5  UNL     1      27.785 -10.038 -41.696  0.00  0.00    +0.000 NA
ATOM     14  H9  UNL     1      30.612 -10.355 -38.584  0.00  0.00    +0.000 HD
ENDROOT
BRANCH  12  15
ATOM     15  C20 UNL     1      30.175 -10.562 -41.482  0.00  0.00    +0.000 C 
ATOM     16  C21 UNL     1      30.303 -11.589 -42.433  0.00  0.00    +0.000 C 
ATOM     17  C22 UNL     1      31.547 -11.864 -43.011  0.00  0.00    +0.000 C 
ATOM     18  C23 UNL     1      32.668 -11.110 -42.655  0.00  0.00    +0.000 C 
ATOM     19  C24 UNL     1      32.545 -10.072 -41.726  0.00  0.00    +0.000 C 
ATOM     20  C25 UNL     1      31.303  -9.794 -41.146  0.00  0.00    +0.000 C 
ENDBRANCH  12  15
BRANCH   1  22
ATOM     21  O1  UNL     1      25.641  -9.596 -43.419  0.00  0.00    +0.000 OA
ATOM     22  C1  UNL     1      25.418  -9.552 -42.179  0.00  0.00    +0.000 C 
ATOM     23  N1  UNL     1      24.083  -9.312 -41.706  0.00  0.00    +0.000 N 
ATOM     24  H1  UNL     1      23.907  -9.280 -40.676  0.00  0.00    +0.000 HD
BRANCH  23  25
ATOM     25  N2  UNL     1      23.021  -9.081 -42.600  0.00  0.00    +0.000 N 
ATOM     26  H2  UNL     1      22.481  -9.891 -42.979  0.00  0.00    +0.000 HD
BRANCH  25  27
ATOM     27  C2  UNL     1      22.672  -7.761 -43.050  0.00  0.00    +0.000 C 
ATOM     28  S1  UNL     1      21.115  -7.247 -42.985  0.00  0.00    +0.000 S 
BRANCH  27  29
ATOM     29  N3  UNL     1      23.637  -6.955 -43.744  0.00  0.00    +0.000 N 
ATOM     30  H3  UNL     1      24.220  -6.295 -43.184  0.00  0.00    +0.000 HD
BRANCH  29  31
ATOM     31  C3  UNL     1      23.865  -7.034 -45.162  0.00  0.00    +0.000 C 
ATOM     32  C4  UNL     1      22.803  -7.317 -46.041  0.00  0.00    +0.000 C 
ATOM     33  C5  UNL     1      23.030  -7.429 -47.415  0.00  0.00    +0.000 C 
ATOM     34  C6  UNL     1      24.319  -7.267 -47.926  0.00  0.00    +0.000 C 
ATOM     35  C7  UNL     1      25.384  -6.999 -47.064  0.00  0.00    +0.000 C 
ATOM     36  C8  UNL     1      25.166  -6.888 -45.685  0.00  0.00    +0.000 C 
ATOM     37 CL1  UNL     1      26.536  -6.529 -44.641  0.00  0.00    +0.000 Cl
ENDBRANCH  29  31
ENDBRANCH  27  29
ENDBRANCH  25  27
ENDBRANCH  23  25
ENDBRANCH   1  22
TORSDOF 6
