REMARK  Name = resultss/4CJN/ligands/lig_415_t0.pdb
REMARK  6 active torsions:
REMARK  status: ('A' for Active; 'I' for Inactive)
REMARK    1  A    between atoms: C9_1  and  C1_22
REMARK    2  A    between atoms: C19_12  and  C20_15
REMARK    3  A    between atoms: N1_23  and  N2_25
REMARK    4  A    between atoms: N2_25  and  C2_27
REMARK    5  A    between atoms: C2_27  and  N3_29
REMARK    6  A    between atoms: N3_29  and  C3_31
REMARK                            x       y       z     vdW  Elec       q    Type
REMARK                         _______ _______ _______ _____ _____    ______ ____
ROOT
ATOM      1  C9  UNL     1      27.862 -10.023 -37.684  0.00  0.00    +0.000 C 
ATOM      2  C10 UNL     1      29.080  -9.947 -36.976  0.00  0.00    +0.000 C 
ATOM      3  C11 UNL     1      29.020  -9.529 -35.651  0.00  0.00    +0.000 A 
ATOM      4  C12 UNL     1      27.831  -9.193 -35.042  0.00  0.00    +0.000 A 
ATOM      5  N4  UNL     1      28.018  -8.882 -33.736  0.00  0.00    +0.000 N 
ATOM      6  C13 UNL     1      29.348  -9.009 -33.538  0.00  0.00    +0.000 A 
ATOM      7  C14 UNL     1      30.045  -8.809 -32.346  0.00  0.00    +0.000 C 
ATOM      8  C15 UNL     1      31.436  -9.017 -32.353  0.00  0.00    +0.000 C 
ATOM      9  C16 UNL     1      32.096  -9.421 -33.536  0.00  0.00    +0.000 C 
ATOM     10  C17 UNL     1      31.372  -9.624 -34.725  0.00  0.00    +0.000 C 
ATOM     11  C18 UNL     1      29.997  -9.403 -34.689  0.00  0.00    +0.000 A 
ATOM     12  C19 UNL     1      26.631  -9.256 -35.759  0.00  0.00    +0.000 C 
ATOM     13  N5  UNL     1      26.689  -9.682 -37.058  0.00  0.00    +0.000 NA
ATOM     14  H9  UNL     1      27.300  -8.634 -33.020  0.00  0.00    +0.000 HD
ENDROOT
BRANCH  12  15
ATOM     15  C20 UNL     1      25.322  -8.893 -35.175  0.00  0.00    +0.000 C 
ATOM     16  C21 UNL     1      24.380  -8.155 -35.913  0.00  0.00    +0.000 C 
ATOM     17  C22 UNL     1      23.137  -7.840 -35.355  0.00  0.00    +0.000 C 
ATOM     18  C23 UNL     1      22.819  -8.271 -34.064  0.00  0.00    +0.000 C 
ATOM     19  C24 UNL     1      23.741  -9.024 -33.332  0.00  0.00    +0.000 C 
ATOM     20  C25 UNL     1      24.985  -9.340 -33.887  0.00  0.00    +0.000 C 
ENDBRANCH  12  15
BRANCH   1  22
ATOM     21  O1  UNL     1      26.725 -10.582 -39.691  0.00  0.00    +0.000 OA
ATOM     22  C1  UNL     1      27.830 -10.476 -39.091  0.00  0.00    +0.000 C 
ATOM     23  N1  UNL     1      29.048 -10.817 -39.772  0.00  0.00    +0.000 N 
ATOM     24  H1  UNL     1      29.898 -11.036 -39.207  0.00  0.00    +0.000 HD
BRANCH  23  25
ATOM     25  N2  UNL     1      29.078 -11.105 -41.148  0.00  0.00    +0.000 N 
ATOM     26  H2  UNL     1      28.645 -11.997 -41.478  0.00  0.00    +0.000 HD
BRANCH  25  27
ATOM     27  C2  UNL     1      29.822 -10.320 -42.093  0.00  0.00    +0.000 C 
ATOM     28  S1  UNL     1      31.138 -10.962 -42.835  0.00  0.00    +0.000 S 
BRANCH  27  29
ATOM     29  N3  UNL     1      29.276  -9.092 -42.598  0.00  0.00    +0.000 N 
ATOM     30  H3  UNL     1      29.889  -8.486 -43.189  0.00  0.00    +0.000 HD
BRANCH  29  31
ATOM     31  C3  UNL     1      27.926  -8.658 -42.360  0.00  0.00    +0.000 C 
ATOM     32  C4  UNL     1      27.687  -7.616 -41.451  0.00  0.00    +0.000 C 
ATOM     33  C5  UNL     1      26.381  -7.191 -41.188  0.00  0.00    +0.000 C 
ATOM     34  C6  UNL     1      25.300  -7.815 -41.821  0.00  0.00    +0.000 C 
ATOM     35 BR1  UNL     1      23.517  -7.235 -41.459  0.00  0.00    +0.000 Br
ATOM     36  C7  UNL     1      25.527  -8.868 -42.712  0.00  0.00    +0.000 C 
ATOM     37  C8  UNL     1      26.832  -9.295 -42.976  0.00  0.00    +0.000 C 
ENDBRANCH  29  31
ENDBRANCH  27  29
ENDBRANCH  25  27
ENDBRANCH  23  25
ENDBRANCH   1  22
TORSDOF 6
