REMARK  Name = resultss/4CJN/ligands/lig_418_t0.pdb
REMARK  6 active torsions:
REMARK  status: ('A' for Active; 'I' for Inactive)
REMARK    1  A    between atoms: C8_1  and  C7_22
REMARK    2  A    between atoms: C18_12  and  C19_15
REMARK    3  A    between atoms: N3_21  and  N2_25
REMARK    4  A    between atoms: N2_25  and  C6_27
REMARK    5  A    between atoms: C6_27  and  N1_29
REMARK    6  A    between atoms: N1_29  and  C5_35
REMARK                            x       y       z     vdW  Elec       q    Type
REMARK                         _______ _______ _______ _____ _____    ______ ____
ROOT
ATOM      1  C8  UNL     1      28.007  -8.712 -37.289  0.00  0.00    +0.000 C 
ATOM      2  C9  UNL     1      27.335  -8.676 -36.048  0.00  0.00    +0.000 C 
ATOM      3  C10 UNL     1      25.967  -8.431 -36.072  0.00  0.00    +0.000 A 
ATOM      4  C11 UNL     1      25.280  -8.222 -37.249  0.00  0.00    +0.000 A 
ATOM      5  N4  UNL     1      23.953  -8.072 -37.025  0.00  0.00    +0.000 N 
ATOM      6  C12 UNL     1      23.816  -8.171 -35.685  0.00  0.00    +0.000 A 
ATOM      7  C13 UNL     1      22.633  -8.096 -34.953  0.00  0.00    +0.000 C 
ATOM      8  C14 UNL     1      22.712  -8.248 -33.555  0.00  0.00    +0.000 C 
ATOM      9  C15 UNL     1      23.957  -8.472 -32.926  0.00  0.00    +0.000 C 
ATOM     10  C16 UNL     1      25.138  -8.550 -33.686  0.00  0.00    +0.000 C 
ATOM     11  C17 UNL     1      25.030  -8.389 -35.067  0.00  0.00    +0.000 A 
ATOM     12  C18 UNL     1      25.961  -8.242 -38.474  0.00  0.00    +0.000 C 
ATOM     13  N5  UNL     1      27.304  -8.497 -38.448  0.00  0.00    +0.000 NA
ATOM     14  H10 UNL     1      23.188  -7.947 -37.723  0.00  0.00    +0.000 HD
ENDROOT
BRANCH  12  15
ATOM     15  C19 UNL     1      25.294  -8.007 -39.772  0.00  0.00    +0.000 C 
ATOM     16  C20 UNL     1      24.644  -9.051 -40.453  0.00  0.00    +0.000 C 
ATOM     17  C21 UNL     1      23.993  -8.804 -41.666  0.00  0.00    +0.000 C 
ATOM     18  C22 UNL     1      23.973  -7.514 -42.200  0.00  0.00    +0.000 C 
ATOM     19  C23 UNL     1      24.598  -6.466 -41.519  0.00  0.00    +0.000 C 
ATOM     20  C24 UNL     1      25.249  -6.708 -40.306  0.00  0.00    +0.000 C 
ENDBRANCH  12  15
BRANCH   1  22
ATOM     21  N3  UNL     1      29.951 -10.161 -38.016  0.00  0.00    +0.000 N 
ATOM     22  C7  UNL     1      29.460  -8.983 -37.357  0.00  0.00    +0.000 C 
ATOM     23  O1  UNL     1      30.273  -8.178 -36.828  0.00  0.00    +0.000 OA
ATOM     24  H8  UNL     1      29.270 -10.818 -38.456  0.00  0.00    +0.000 HD
BRANCH  21  25
ATOM     25  N2  UNL     1      31.329 -10.426 -38.110  0.00  0.00    +0.000 N 
ATOM     26  H7  UNL     1      31.762 -11.148 -37.490  0.00  0.00    +0.000 HD
BRANCH  25  27
ATOM     27  C6  UNL     1      32.179  -9.672 -38.984  0.00  0.00    +0.000 C 
ATOM     28  S1  UNL     1      33.453  -8.859 -38.344  0.00  0.00    +0.000 S 
BRANCH  27  29
ATOM     29  N1  UNL     1      32.064  -9.823 -40.408  0.00  0.00    +0.000 N 
ATOM     30  H6  UNL     1      32.911 -10.140 -40.933  0.00  0.00    +0.000 HD
BRANCH  29  35
ATOM     31  C1  UNL     1      27.253  -8.697 -43.356  0.00  0.00    +0.000 C 
ATOM     32  C2  UNL     1      28.527  -8.971 -42.614  0.00  0.00    +0.000 C 
ATOM     33  C3  UNL     1      29.140 -10.229 -42.704  0.00  0.00    +0.000 C 
ATOM     34  C4  UNL     1      30.307 -10.498 -41.982  0.00  0.00    +0.000 C 
ATOM     35  C5  UNL     1      30.878  -9.515 -41.162  0.00  0.00    +0.000 C 
ATOM     36  C25 UNL     1      30.240  -8.267 -41.043  0.00  0.00    +0.000 C 
ATOM     37  C26 UNL     1      29.072  -7.999 -41.764  0.00  0.00    +0.000 C 
ENDBRANCH  29  35
ENDBRANCH  27  29
ENDBRANCH  25  27
ENDBRANCH  21  25
ENDBRANCH   1  22
TORSDOF 6
