REMARK  Name = resultss/4CJN/ligands/lig_239_t0.pdb
REMARK  6 active torsions:
REMARK  status: ('A' for Active; 'I' for Inactive)
REMARK    1  A    between atoms: C7_1  and  N1_9
REMARK    2  A    between atoms: C11_5  and  C12_19
REMARK    3  A    between atoms: C6_7  and  C5_14
REMARK    4  A    between atoms: C2_11  and  O1_18
REMARK    5  A    between atoms: C12_19  and  C13_21
REMARK    6  A    between atoms: C13_21  and  C14_22
REMARK                            x       y       z     vdW  Elec       q    Type
REMARK                         _______ _______ _______ _____ _____    ______ ____
ROOT
ATOM      1  C7  UNL     1      27.949  -9.082 -42.122  0.00  0.00    +0.000 C 
ATOM      2  C8  UNL     1      26.876  -9.209 -43.013  0.00  0.00    +0.000 C 
ATOM      3  C9  UNL     1      25.584  -8.863 -42.616  0.00  0.00    +0.000 C 
ATOM      4  C10 UNL     1      25.347  -8.395 -41.322  0.00  0.00    +0.000 C 
ATOM      5  C11 UNL     1      26.405  -8.274 -40.403  0.00  0.00    +0.000 C 
ATOM      6  C22 UNL     1      27.705  -8.632 -40.811  0.00  0.00    +0.000 C 
ENDROOT
BRANCH   1   9
ATOM      7  C6  UNL     1      29.838 -10.765 -42.306  0.00  0.00    +0.000 C 
ATOM      8  O2  UNL     1      29.391 -11.476 -41.365  0.00  0.00    +0.000 OA
ATOM      9  N1  UNL     1      29.269  -9.467 -42.546  0.00  0.00    +0.000 N 
ATOM     10  H6  UNL     1      29.889  -8.727 -42.947  0.00  0.00    +0.000 HD
BRANCH   7  14
ATOM     11  C2  UNL     1      33.128 -12.225 -44.670  0.00  0.00    +0.000 C 
ATOM     12  C3  UNL     1      32.749 -10.873 -44.743  0.00  0.00    +0.000 C 
ATOM     13  C4  UNL     1      31.681 -10.396 -43.976  0.00  0.00    +0.000 C 
ATOM     14  C5  UNL     1      30.977 -11.259 -43.117  0.00  0.00    +0.000 C 
ATOM     15  C23 UNL     1      31.354 -12.612 -43.057  0.00  0.00    +0.000 C 
ATOM     16  C24 UNL     1      32.422 -13.085 -43.824  0.00  0.00    +0.000 C 
BRANCH  11  18
ATOM     17  C1  UNL     1      34.047 -13.418 -46.666  0.00  0.00    +0.000 C 
ATOM     18  O1  UNL     1      34.194 -12.749 -45.418  0.00  0.00    +0.000 OA
ENDBRANCH  11  18
ENDBRANCH   7  14
ENDBRANCH   1   9
BRANCH   5  19
ATOM     19  C12 UNL     1      26.170  -7.797 -39.014  0.00  0.00    +0.000 C 
ATOM     20  O3  UNL     1      26.482  -6.612 -38.709  0.00  0.00    +0.000 OA
BRANCH  19  21
ATOM     21  C13 UNL     1      25.619  -8.712 -37.949  0.00  0.00    +0.000 C 
BRANCH  21  22
ATOM     22  C14 UNL     1      26.614  -8.955 -36.844  0.00  0.00    +0.000 A 
ATOM     23  N2  UNL     1      26.532  -8.217 -35.703  0.00  0.00    +0.000 NA
ATOM     24  C15 UNL     1      27.388  -8.415 -34.667  0.00  0.00    +0.000 A 
ATOM     25  C16 UNL     1      27.287  -7.641 -33.506  0.00  0.00    +0.000 C 
ATOM     26  C17 UNL     1      28.174  -7.856 -32.446  0.00  0.00    +0.000 C 
ATOM     27  C18 UNL     1      29.160  -8.843 -32.543  0.00  0.00    +0.000 C 
ATOM     28  C19 UNL     1      29.265  -9.622 -33.701  0.00  0.00    +0.000 C 
ATOM     29  C20 UNL     1      28.379  -9.413 -34.769  0.00  0.00    +0.000 A 
ATOM     30  N3  UNL     1      28.460 -10.160 -35.907  0.00  0.00    +0.000 N 
ATOM     31  C21 UNL     1      27.598  -9.957 -36.942  0.00  0.00    +0.000 A 
ATOM     32  O4  UNL     1      27.687 -10.670 -37.979  0.00  0.00    +0.000 OA
ATOM     33  H16 UNL     1      29.188 -10.906 -35.991  0.00  0.00    +0.000 HD
ENDBRANCH  21  22
ENDBRANCH  19  21
ENDBRANCH   5  19
TORSDOF 6
