REMARK  Name = resultss/4CJN/ligands/lig_338_t1.pdb
REMARK  11 active torsions:
REMARK  status: ('A' for Active; 'I' for Inactive)
REMARK    1  A    between atoms: C2_1  and  O1_28
REMARK    2  A    between atoms: C4_3  and  C5_7
REMARK    3  A    between atoms: C21_6  and  O3_29
REMARK    4  A    between atoms: N2_17  and  N3_19
REMARK    5  A    between atoms: N3_19  and  C13_21
REMARK    6  A    between atoms: O3_29  and  C22_30
REMARK    7  A    between atoms: C22_30  and  C23_31
REMARK    8  A    between atoms: N4_33  and  C25_36
REMARK    9  A    between atoms: C25_36  and  C26_37
REMARK   10  A    between atoms: C26_37  and  O4_46
REMARK   11  A    between atoms: N5_38  and  C27_39
REMARK                            x       y       z     vdW  Elec       q    Type
REMARK                         _______ _______ _______ _____ _____    ______ ____
ROOT
ATOM      1  C2  UNL     1      24.834  -7.666 -40.326  0.00  0.00    +0.000 C 
ATOM      2  C3  UNL     1      24.818  -7.688 -38.919  0.00  0.00    +0.000 C 
ATOM      3  C4  UNL     1      25.963  -7.338 -38.183  0.00  0.00    +0.000 C 
ATOM      4  C19 UNL     1      27.123  -6.948 -38.865  0.00  0.00    +0.000 C 
ATOM      5  C20 UNL     1      27.141  -6.909 -40.259  0.00  0.00    +0.000 C 
ATOM      6  C21 UNL     1      26.001  -7.273 -41.000  0.00  0.00    +0.000 C 
ENDROOT
BRANCH   3   7
ATOM      7  C5  UNL     1      25.980  -7.498 -36.680  0.00  0.00    +0.000 C 
ATOM      8  N1  UNL     1      24.773  -6.895 -36.101  0.00  0.00    +0.000 N 
ATOM      9  C6  UNL     1      24.248  -7.329 -34.839  0.00  0.00    +0.000 C 
ATOM     10  C7  UNL     1      23.339  -6.523 -34.135  0.00  0.00    +0.000 C 
ATOM     11  C8  UNL     1      22.849  -6.937 -32.891  0.00  0.00    +0.000 C 
ATOM     12  C9  UNL     1      23.256  -8.159 -32.350  0.00  0.00    +0.000 C 
ATOM     13  C10 UNL     1      24.143  -8.978 -33.056  0.00  0.00    +0.000 C 
ATOM     14  C11 UNL     1      24.639  -8.566 -34.306  0.00  0.00    +0.000 C 
ATOM     15  C12 UNL     1      25.551  -9.413 -35.091  0.00  0.00    +0.000 C 
ATOM     16  O2  UNL     1      25.843 -10.572 -34.693  0.00  0.00    +0.000 OA
ATOM     17  N2  UNL     1      26.084  -8.926 -36.334  0.00  0.00    +0.000 N 
ATOM     18  H6  UNL     1      24.444  -5.983 -36.493  0.00  0.00    +0.000 HD
BRANCH  17  19
ATOM     19  N3  UNL     1      26.984  -9.735 -37.055  0.00  0.00    +0.000 N 
ATOM     20  H11 UNL     1      26.592 -10.532 -37.608  0.00  0.00    +0.000 HD
BRANCH  19  21
ATOM     21  C13 UNL     1      28.397  -9.704 -36.797  0.00  0.00    +0.000 C 
ATOM     22  C14 UNL     1      28.903  -9.455 -35.507  0.00  0.00    +0.000 C 
ATOM     23  C15 UNL     1      30.282  -9.462 -35.275  0.00  0.00    +0.000 C 
ATOM     24  C16 UNL     1      31.167  -9.722 -36.323  0.00  0.00    +0.000 C 
ATOM     25  C17 UNL     1      30.674  -9.989 -37.603  0.00  0.00    +0.000 C 
ATOM     26  C18 UNL     1      29.296  -9.975 -37.841  0.00  0.00    +0.000 C 
ENDBRANCH  19  21
ENDBRANCH  17  19
ENDBRANCH   3   7
BRANCH   1  28
ATOM     27  C1  UNL     1      22.767  -7.128 -41.629  0.00  0.00    +0.000 C 
ATOM     28  O1  UNL     1      23.716  -8.041 -41.089  0.00  0.00    +0.000 OA
ENDBRANCH   1  28
BRANCH   6  29
ATOM     29  O3  UNL     1      25.989  -7.263 -42.404  0.00  0.00    +0.000 OA
BRANCH  29  30
ATOM     30  C22 UNL     1      26.238  -8.401 -43.223  0.00  0.00    +0.000 C 
BRANCH  30  31
ATOM     31  C23 UNL     1      27.637  -8.869 -43.002  0.00  0.00    +0.000 C 
ATOM     32  C24 UNL     1      28.059  -9.764 -42.046  0.00  0.00    +0.000 C 
ATOM     33  N4  UNL     1      29.392  -9.851 -42.187  0.00  0.00    +0.000 N 
ATOM     34  N6  UNL     1      29.765  -9.064 -43.181  0.00  0.00    +0.000 NA
ATOM     35  N7  UNL     1      28.713  -8.440 -43.693  0.00  0.00    +0.000 NA
BRANCH  33  36
ATOM     36  C25 UNL     1      30.288 -10.740 -41.458  0.00  0.00    +0.000 C 
BRANCH  36  37
ATOM     37  C26 UNL     1      31.499 -11.037 -42.303  0.00  0.00    +0.000 C 
ATOM     38  N5  UNL     1      32.677 -10.532 -42.065  0.00  0.00    +0.000 NA
BRANCH  38  39
ATOM     39  C27 UNL     1      33.056  -9.748 -40.925  0.00  0.00    +0.000 C 
ATOM     40  C28 UNL     1      33.948 -10.282 -39.986  0.00  0.00    +0.000 C 
ATOM     41  C29 UNL     1      34.270  -9.559 -38.829  0.00  0.00    +0.000 C 
ATOM     42  C30 UNL     1      33.683  -8.312 -38.596  0.00  0.00    +0.000 C 
ATOM     43 BR1  UNL     1      34.114  -7.334 -37.012  0.00  0.00    +0.000 Br
ATOM     44  C31 UNL     1      32.770  -7.786 -39.518  0.00  0.00    +0.000 C 
ATOM     45  C32 UNL     1      32.448  -8.506 -40.674  0.00  0.00    +0.000 C 
ENDBRANCH  38  39
BRANCH  37  46
ATOM     46  O4  UNL     1      31.321 -11.822 -43.439  0.00  0.00    +0.000 OA
ATOM     47  H24 UNL     1      31.817 -12.701 -43.553  0.00  0.00    +0.000 HD
ENDBRANCH  37  46
ENDBRANCH  36  37
ENDBRANCH  33  36
ENDBRANCH  30  31
ENDBRANCH  29  30
ENDBRANCH   6  29
TORSDOF 11
