REMARK  Name = resultss/4CJN/ligands/lig_354_t1.pdb
REMARK  10 active torsions:
REMARK  status: ('A' for Active; 'I' for Inactive)
REMARK    1  A    between atoms: C6_1  and  O2_27
REMARK    2  A    between atoms: C9_4  and  C10_7
REMARK    3  A    between atoms: N3_17  and  N4_19
REMARK    4  A    between atoms: N4_19  and  C18_21
REMARK    5  A    between atoms: O2_27  and  C5_28
REMARK    6  A    between atoms: C5_28  and  C4_31
REMARK    7  A    between atoms: N1_29  and  C2_34
REMARK    8  A    between atoms: C2_34  and  C1_35
REMARK    9  A    between atoms: C1_35  and  O1_43
REMARK   10  A    between atoms: N7_36  and  C26_37
REMARK                            x       y       z     vdW  Elec       q    Type
REMARK                         _______ _______ _______ _____ _____    ______ ____
ROOT
ATOM      1  C6  UNL     1      25.476  -7.584 -44.502  0.00  0.00    +0.000 C 
ATOM      2  C7  UNL     1      26.727  -7.065 -44.879  0.00  0.00    +0.000 C 
ATOM      3  C8  UNL     1      27.875  -7.390 -44.149  0.00  0.00    +0.000 C 
ATOM      4  C9  UNL     1      27.794  -8.234 -43.029  0.00  0.00    +0.000 C 
ATOM      5  C24 UNL     1      26.542  -8.758 -42.663  0.00  0.00    +0.000 C 
ATOM      6  C25 UNL     1      25.396  -8.434 -43.394  0.00  0.00    +0.000 C 
ENDROOT
BRANCH   4   7
ATOM      7  C10 UNL     1      29.040  -8.573 -42.241  0.00  0.00    +0.000 C 
ATOM      8  N2  UNL     1      29.050  -7.838 -40.970  0.00  0.00    +0.000 N 
ATOM      9  C11 UNL     1      28.621  -8.418 -39.730  0.00  0.00    +0.000 C 
ATOM     10  C12 UNL     1      28.421  -7.605 -38.604  0.00  0.00    +0.000 C 
ATOM     11  C13 UNL     1      27.986  -8.165 -37.399  0.00  0.00    +0.000 C 
ATOM     12  C14 UNL     1      27.752  -9.539 -37.312  0.00  0.00    +0.000 C 
ATOM     13  C15 UNL     1      27.952 -10.357 -38.428  0.00  0.00    +0.000 C 
ATOM     14  C16 UNL     1      28.390  -9.799 -39.641  0.00  0.00    +0.000 C 
ATOM     15  C17 UNL     1      28.629 -10.631 -40.832  0.00  0.00    +0.000 C 
ATOM     16  O3  UNL     1      28.389 -11.869 -40.802  0.00  0.00    +0.000 OA
ATOM     17  N3  UNL     1      29.139 -10.024 -42.034  0.00  0.00    +0.000 N 
ATOM     18  H10 UNL     1      29.242  -6.810 -41.007  0.00  0.00    +0.000 HD
BRANCH  17  19
ATOM     19  N4  UNL     1      29.543 -10.829 -43.118  0.00  0.00    +0.000 N 
ATOM     20  H15 UNL     1      28.842 -11.059 -43.859  0.00  0.00    +0.000 HD
BRANCH  19  21
ATOM     21  C18 UNL     1      30.907 -11.236 -43.318  0.00  0.00    +0.000 C 
ATOM     22  C19 UNL     1      31.831 -10.403 -43.977  0.00  0.00    +0.000 C 
ATOM     23  C20 UNL     1      33.148 -10.829 -44.175  0.00  0.00    +0.000 C 
ATOM     24  C21 UNL     1      33.551 -12.090 -43.731  0.00  0.00    +0.000 C 
ATOM     25  C22 UNL     1      32.636 -12.931 -43.092  0.00  0.00    +0.000 C 
ATOM     26  C23 UNL     1      31.319 -12.508 -42.890  0.00  0.00    +0.000 C 
ENDBRANCH  19  21
ENDBRANCH  17  19
ENDBRANCH   4   7
BRANCH   1  27
ATOM     27  O2  UNL     1      24.290  -7.282 -45.193  0.00  0.00    +0.000 OA
BRANCH  27  28
ATOM     28  C5  UNL     1      23.464  -6.144 -44.952  0.00  0.00    +0.000 C 
BRANCH  28  31
ATOM     29  N1  UNL     1      20.060  -6.646 -43.800  0.00  0.00    +0.000 N 
ATOM     30  C3  UNL     1      20.961  -5.883 -44.443  0.00  0.00    +0.000 C 
ATOM     31  C4  UNL     1      22.158  -6.558 -44.352  0.00  0.00    +0.000 C 
ATOM     32  N5  UNL     1      21.951  -7.711 -43.683  0.00  0.00    +0.000 NA
ATOM     33  N6  UNL     1      20.665  -7.738 -43.362  0.00  0.00    +0.000 NA
BRANCH  29  34
ATOM     34  C2  UNL     1      18.627  -6.395 -43.691  0.00  0.00    +0.000 C 
BRANCH  34  35
ATOM     35  C1  UNL     1      17.933  -6.881 -44.923  0.00  0.00    +0.000 C 
ATOM     36  N7  UNL     1      16.943  -6.186 -45.407  0.00  0.00    +0.000 NA
BRANCH  36  37
ATOM     37  C26 UNL     1      16.220  -6.456 -46.616  0.00  0.00    +0.000 C 
ATOM     38  C27 UNL     1      16.733  -5.989 -47.835  0.00  0.00    +0.000 C 
ATOM     39  C28 UNL     1      16.080  -6.284 -49.035  0.00  0.00    +0.000 C 
ATOM     40  C29 UNL     1      14.922  -7.069 -49.028  0.00  0.00    +0.000 C 
ATOM     41  C30 UNL     1      14.423  -7.567 -47.821  0.00  0.00    +0.000 C 
ATOM     42  C31 UNL     1      15.075  -7.275 -46.619  0.00  0.00    +0.000 C 
ENDBRANCH  36  37
BRANCH  35  43
ATOM     43  O1  UNL     1      18.321  -8.108 -45.467  0.00  0.00    +0.000 OA
ATOM     44  H1  UNL     1      17.720  -8.921 -45.484  0.00  0.00    +0.000 HD
ENDBRANCH  35  43
ENDBRANCH  34  35
ENDBRANCH  29  34
ENDBRANCH  28  31
ENDBRANCH  27  28
ENDBRANCH   1  27
TORSDOF 10
