REMARK  Name = resultss/4CJN/ligands/lig_432_t0.pdb
REMARK  7 active torsions:
REMARK  status: ('A' for Active; 'I' for Inactive)
REMARK    1  A    between atoms: C9_1  and  C1_22
REMARK    2  A    between atoms: C19_12  and  C20_15
REMARK    3  A    between atoms: N1_23  and  N2_25
REMARK    4  A    between atoms: N2_25  and  C2_27
REMARK    5  A    between atoms: C2_27  and  N3_29
REMARK    6  A    between atoms: N3_29  and  C3_31
REMARK    7  A    between atoms: C6_34  and  N4_37
REMARK                            x       y       z     vdW  Elec       q    Type
REMARK                         _______ _______ _______ _____ _____    ______ ____
ROOT
ATOM      1  C9  UNL     1      27.879  -9.660 -40.009  0.00  0.00    +0.000 C 
ATOM      2  C10 UNL     1      27.231  -8.698 -40.813  0.00  0.00    +0.000 C 
ATOM      3  C11 UNL     1      27.769  -8.452 -42.071  0.00  0.00    +0.000 A 
ATOM      4  C12 UNL     1      28.893  -9.106 -42.526  0.00  0.00    +0.000 A 
ATOM      5  N5  UNL     1      29.188  -8.749 -43.799  0.00  0.00    +0.000 N 
ATOM      6  C13 UNL     1      28.242  -7.844 -44.131  0.00  0.00    +0.000 A 
ATOM      7  C14 UNL     1      28.101  -7.183 -45.352  0.00  0.00    +0.000 C 
ATOM      8  C15 UNL     1      27.025  -6.288 -45.496  0.00  0.00    +0.000 C 
ATOM      9  C16 UNL     1      26.118  -6.078 -44.433  0.00  0.00    +0.000 C 
ATOM     10  C17 UNL     1      26.276  -6.760 -43.213  0.00  0.00    +0.000 C 
ATOM     11  C18 UNL     1      27.355  -7.636 -43.097  0.00  0.00    +0.000 A 
ATOM     12  C19 UNL     1      29.539 -10.047 -41.713  0.00  0.00    +0.000 C 
ATOM     13  N6  UNL     1      28.997 -10.298 -40.481  0.00  0.00    +0.000 NA
ATOM     14  H9  UNL     1      29.951  -9.111 -44.414  0.00  0.00    +0.000 HD
ENDROOT
BRANCH  12  15
ATOM     15  C20 UNL     1      30.756 -10.772 -42.130  0.00  0.00    +0.000 C 
ATOM     16  C21 UNL     1      32.021 -10.211 -41.884  0.00  0.00    +0.000 C 
ATOM     17  C22 UNL     1      33.180 -10.875 -42.297  0.00  0.00    +0.000 C 
ATOM     18  C23 UNL     1      33.087 -12.096 -42.969  0.00  0.00    +0.000 C 
ATOM     19  C24 UNL     1      31.833 -12.650 -43.238  0.00  0.00    +0.000 C 
ATOM     20  C25 UNL     1      30.671 -11.990 -42.828  0.00  0.00    +0.000 C 
ENDBRANCH  12  15
BRANCH   1  22
ATOM     21  O1  UNL     1      27.747 -11.052 -38.092  0.00  0.00    +0.000 OA
ATOM     22  C1  UNL     1      27.362  -9.997 -38.666  0.00  0.00    +0.000 C 
ATOM     23  N1  UNL     1      26.406  -9.141 -38.019  0.00  0.00    +0.000 N 
ATOM     24  H1  UNL     1      25.859  -8.467 -38.600  0.00  0.00    +0.000 HD
BRANCH  23  25
ATOM     25  N2  UNL     1      26.005  -9.341 -36.686  0.00  0.00    +0.000 N 
ATOM     26  H2  UNL     1      25.567 -10.254 -36.431  0.00  0.00    +0.000 HD
BRANCH  25  27
ATOM     27  C2  UNL     1      26.017  -8.293 -35.703  0.00  0.00    +0.000 C 
ATOM     28  S1  UNL     1      24.692  -8.030 -34.772  0.00  0.00    +0.000 S 
BRANCH  27  29
ATOM     29  N3  UNL     1      27.254  -7.663 -35.338  0.00  0.00    +0.000 N 
ATOM     30  H3  UNL     1      27.373  -6.648 -35.557  0.00  0.00    +0.000 HD
BRANCH  29  31
ATOM     31  C3  UNL     1      28.329  -8.340 -34.664  0.00  0.00    +0.000 C 
ATOM     32  C4  UNL     1      29.339  -8.949 -35.421  0.00  0.00    +0.000 C 
ATOM     33  C5  UNL     1      30.385  -9.631 -34.791  0.00  0.00    +0.000 C 
ATOM     34  C6  UNL     1      30.430  -9.729 -33.390  0.00  0.00    +0.000 C 
ATOM     35  C7  UNL     1      29.404  -9.137 -32.632  0.00  0.00    +0.000 C 
ATOM     36  C8  UNL     1      28.360  -8.455 -33.264  0.00  0.00    +0.000 C 
BRANCH  34  37
ATOM     37  N4  UNL     1      31.508 -10.432 -32.744  0.00  0.00    +0.000 N 
ATOM     38  O2  UNL     1      31.314 -11.058 -31.681  0.00  0.00    +0.000 OA
ATOM     39  O3  UNL     1      32.773 -10.425 -33.286  0.00  0.00    +0.000 OA
ENDBRANCH  34  37
ENDBRANCH  29  31
ENDBRANCH  27  29
ENDBRANCH  25  27
ENDBRANCH  23  25
ENDBRANCH   1  22
TORSDOF 7
