REMARK  Name = resultss/4CJN/ligands/lig_433_t0.pdb
REMARK  6 active torsions:
REMARK  status: ('A' for Active; 'I' for Inactive)
REMARK    1  A    between atoms: C9_1  and  C1_22
REMARK    2  A    between atoms: C19_12  and  C20_15
REMARK    3  A    between atoms: N1_23  and  N2_25
REMARK    4  A    between atoms: N2_25  and  C2_27
REMARK    5  A    between atoms: C2_27  and  N3_29
REMARK    6  A    between atoms: N3_29  and  C3_31
REMARK                            x       y       z     vdW  Elec       q    Type
REMARK                         _______ _______ _______ _____ _____    ______ ____
ROOT
ATOM      1  C9  UNL     1      27.343  -9.452 -38.927  0.00  0.00    +0.000 C 
ATOM      2  C10 UNL     1      27.105  -9.436 -37.536  0.00  0.00    +0.000 C 
ATOM      3  C11 UNL     1      25.913  -8.870 -37.101  0.00  0.00    +0.000 A 
ATOM      4  C12 UNL     1      24.992  -8.337 -37.977  0.00  0.00    +0.000 A 
ATOM      5  N4  UNL     1      23.886  -7.903 -37.325  0.00  0.00    +0.000 N 
ATOM      6  C13 UNL     1      24.134  -8.154 -36.021  0.00  0.00    +0.000 A 
ATOM      7  C14 UNL     1      23.290  -7.899 -34.940  0.00  0.00    +0.000 C 
ATOM      8  C15 UNL     1      23.737  -8.261 -33.656  0.00  0.00    +0.000 C 
ATOM      9  C16 UNL     1      25.002  -8.868 -33.480  0.00  0.00    +0.000 C 
ATOM     10  C17 UNL     1      25.834  -9.119 -34.585  0.00  0.00    +0.000 C 
ATOM     11  C18 UNL     1      25.367  -8.745 -35.843  0.00  0.00    +0.000 A 
ATOM     12  C19 UNL     1      25.246  -8.345 -39.354  0.00  0.00    +0.000 C 
ATOM     13  N5  UNL     1      26.414  -8.914 -39.781  0.00  0.00    +0.000 NA
ATOM     14  H8  UNL     1      23.015  -7.496 -37.729  0.00  0.00    +0.000 HD
ENDROOT
BRANCH  12  15
ATOM     15  C20 UNL     1      24.316  -7.768 -40.347  0.00  0.00    +0.000 C 
ATOM     16  C21 UNL     1      23.912  -6.423 -40.265  0.00  0.00    +0.000 C 
ATOM     17  C22 UNL     1      23.059  -5.883 -41.232  0.00  0.00    +0.000 C 
ATOM     18  C23 UNL     1      22.613  -6.673 -42.295  0.00  0.00    +0.000 C 
ATOM     19  C24 UNL     1      23.026  -8.005 -42.394  0.00  0.00    +0.000 C 
ATOM     20  C25 UNL     1      23.880  -8.550 -41.431  0.00  0.00    +0.000 C 
ENDBRANCH  12  15
BRANCH   1  22
ATOM     21  O1  UNL     1      29.701  -9.705 -39.002  0.00  0.00    +0.000 OA
ATOM     22  C1  UNL     1      28.583 -10.043 -39.476  0.00  0.00    +0.000 C 
ATOM     23  N1  UNL     1      28.523 -11.004 -40.542  0.00  0.00    +0.000 N 
ATOM     24  H1  UNL     1      27.589 -11.312 -40.893  0.00  0.00    +0.000 HD
BRANCH  23  25
ATOM     25  N2  UNL     1      29.697 -11.508 -41.136  0.00  0.00    +0.000 N 
ATOM     26  H2  UNL     1      30.169 -12.339 -40.716  0.00  0.00    +0.000 HD
BRANCH  25  27
ATOM     27  C2  UNL     1      30.328 -10.875 -42.260  0.00  0.00    +0.000 C 
ATOM     28  S1  UNL     1      31.202 -11.768 -43.332  0.00  0.00    +0.000 S 
BRANCH  27  29
ATOM     29  N3  UNL     1      30.399  -9.440 -42.297  0.00  0.00    +0.000 N 
ATOM     30  H3  UNL     1      31.343  -9.000 -42.198  0.00  0.00    +0.000 HD
BRANCH  29  31
ATOM     31  C3  UNL     1      29.269  -8.569 -42.475  0.00  0.00    +0.000 C 
ATOM     32  C4  UNL     1      29.254  -7.319 -41.835  0.00  0.00    +0.000 C 
ATOM     33  C5  UNL     1      28.155  -6.467 -41.973  0.00  0.00    +0.000 C 
ATOM     34  C6  UNL     1      27.053  -6.863 -42.739  0.00  0.00    +0.000 C 
ATOM     35  F1  UNL     1      25.987  -6.034 -42.868  0.00  0.00    +0.000 F 
ATOM     36  C7  UNL     1      27.047  -8.116 -43.359  0.00  0.00    +0.000 C 
ATOM     37  F2  UNL     1      25.972  -8.508 -44.087  0.00  0.00    +0.000 F 
ATOM     38  C8  UNL     1      28.146  -8.970 -43.222  0.00  0.00    +0.000 C 
ENDBRANCH  29  31
ENDBRANCH  27  29
ENDBRANCH  25  27
ENDBRANCH  23  25
ENDBRANCH   1  22
TORSDOF 6
