REMARK  Name = resultss/4CJN/ligands/lig_169_t2.pdb
REMARK  4 active torsions:
REMARK  status: ('A' for Active; 'I' for Inactive)
REMARK    1  A    between atoms: C9_1  and  C1_17
REMARK    2  A    between atoms: C12_4  and  C13_7
REMARK    3  A    between atoms: N1_18  and  N2_20
REMARK    4  A    between atoms: C2_21  and  C3_22
REMARK                            x       y       z     vdW  Elec       q    Type
REMARK                         _______ _______ _______ _____ _____    ______ ____
ROOT
ATOM      1  C9  UNL     1      24.991  -8.495 -40.004  0.00  0.00    +0.000 C 
ATOM      2  C10 UNL     1      24.648  -7.830 -38.814  0.00  0.00    +0.000 C 
ATOM      3  C11 UNL     1      25.443  -7.960 -37.672  0.00  0.00    +0.000 C 
ATOM      4  C12 UNL     1      26.596  -8.765 -37.690  0.00  0.00    +0.000 C 
ATOM      5  C20 UNL     1      26.932  -9.439 -38.876  0.00  0.00    +0.000 C 
ATOM      6  C21 UNL     1      26.136  -9.309 -40.017  0.00  0.00    +0.000 C 
ENDROOT
BRANCH   4   7
ATOM      7  C13 UNL     1      27.446  -8.909 -36.485  0.00  0.00    +0.000 A 
ATOM      8  N3  UNL     1      27.161  -8.310 -35.301  0.00  0.00    +0.000 NA
ATOM      9  C14 UNL     1      28.095  -8.601 -34.359  0.00  0.00    +0.000 A 
ATOM     10  C15 UNL     1      28.067  -8.127 -33.047  0.00  0.00    +0.000 C 
ATOM     11  C16 UNL     1      29.099  -8.506 -32.170  0.00  0.00    +0.000 C 
ATOM     12  C17 UNL     1      30.139  -9.349 -32.613  0.00  0.00    +0.000 C 
ATOM     13  C18 UNL     1      30.156  -9.819 -33.935  0.00  0.00    +0.000 C 
ATOM     14  C19 UNL     1      29.122  -9.428 -34.783  0.00  0.00    +0.000 A 
ATOM     15  S1  UNL     1      28.876  -9.824 -36.393  0.00  0.00    +0.000 S 
ENDBRANCH   4   7
BRANCH   1  17
ATOM     16  O1  UNL     1      24.427  -9.074 -42.235  0.00  0.00    +0.000 OA
ATOM     17  C1  UNL     1      24.155  -8.372 -41.223  0.00  0.00    +0.000 C 
ATOM     18  N1  UNL     1      23.053  -7.458 -41.281  0.00  0.00    +0.000 N 
ATOM     19  H1  UNL     1      22.912  -6.755 -40.521  0.00  0.00    +0.000 HD
BRANCH  18  20
ATOM     20  N2  UNL     1      22.200  -7.460 -42.397  0.00  0.00    +0.000 NA
ATOM     21  C2  UNL     1      21.196  -6.643 -42.492  0.00  0.00    +0.000 C 
BRANCH  21  22
ATOM     22  C3  UNL     1      20.302  -6.656 -43.670  0.00  0.00    +0.000 C 
ATOM     23  C4  UNL     1      18.806  -6.553 -43.437  0.00  0.00    +0.000 C 
ATOM     24  C5  UNL     1      17.985  -7.265 -44.524  0.00  0.00    +0.000 C 
ATOM     25  C6  UNL     1      18.468  -6.885 -45.891  0.00  0.00    +0.000 C 
ATOM     26  O2  UNL     1      17.668  -6.842 -46.863  0.00  0.00    +0.000 OA
ATOM     27  C7  UNL     1      19.903  -6.642 -46.091  0.00  0.00    +0.000 C 
ATOM     28  O3  UNL     1      20.368  -6.459 -47.247  0.00  0.00    +0.000 OA
ATOM     29  C8  UNL     1      20.797  -6.633 -44.923  0.00  0.00    +0.000 C 
ENDBRANCH  21  22
ENDBRANCH  18  20
ENDBRANCH   1  17
TORSDOF 4
