REMARK  Name = resultss/4CJN/ligands/lig_430_t1.pdb
REMARK  8 active torsions:
REMARK  status: ('A' for Active; 'I' for Inactive)
REMARK    1  A    between atoms: C1_2  and  C16_5
REMARK    2  A    between atoms: N1_3  and  N2_25
REMARK    3  A    between atoms: C26_16  and  C27_19
REMARK    4  A    between atoms: C2_26  and  S1_43
REMARK    5  A    between atoms: N3_27  and  C3_29
REMARK    6  A    between atoms: C7_33  and  O2_35
REMARK    7  A    between atoms: O2_35  and  C8_36
REMARK    8  A    between atoms: C8_36  and  C9_37
REMARK                            x       y       z     vdW  Elec       q    Type
REMARK                         _______ _______ _______ _____ _____    ______ ____
ROOT
ATOM      1  O1  UNL     1      24.677  -9.101 -40.081  0.00  0.00    +0.000 OA
ATOM      2  C1  UNL     1      24.562  -7.898 -40.445  0.00  0.00    +0.000 C 
ATOM      3  N1  UNL     1      24.916  -6.850 -39.536  0.00  0.00    +0.000 N 
ATOM      4  H1  UNL     1      24.826  -5.857 -39.845  0.00  0.00    +0.000 HD
ENDROOT
BRANCH   2   5
ATOM      5  C16 UNL     1      24.074  -7.581 -41.804  0.00  0.00    +0.000 C 
ATOM      6  C17 UNL     1      22.701  -7.355 -42.045  0.00  0.00    +0.000 C 
ATOM      7  C18 UNL     1      22.321  -7.086 -43.355  0.00  0.00    +0.000 A 
ATOM      8  C19 UNL     1      23.235  -7.027 -44.386  0.00  0.00    +0.000 A 
ATOM      9  N4  UNL     1      22.624  -6.822 -45.576  0.00  0.00    +0.000 N 
ATOM     10  C20 UNL     1      21.308  -6.733 -45.279  0.00  0.00    +0.000 A 
ATOM     11  C21 UNL     1      20.256  -6.536 -46.171  0.00  0.00    +0.000 C 
ATOM     12  C22 UNL     1      18.950  -6.494 -45.650  0.00  0.00    +0.000 C 
ATOM     13  C23 UNL     1      18.724  -6.654 -44.264  0.00  0.00    +0.000 C 
ATOM     14  C24 UNL     1      19.803  -6.857 -43.383  0.00  0.00    +0.000 C 
ATOM     15  C25 UNL     1      21.084  -6.889 -43.927  0.00  0.00    +0.000 A 
ATOM     16  C26 UNL     1      24.598  -7.230 -44.130  0.00  0.00    +0.000 C 
ATOM     17  N5  UNL     1      24.966  -7.514 -42.844  0.00  0.00    +0.000 NA
ATOM     18  H16 UNL     1      23.054  -6.778 -46.526  0.00  0.00    +0.000 HD
BRANCH  16  19
ATOM     19  C27 UNL     1      25.634  -7.159 -45.179  0.00  0.00    +0.000 C 
ATOM     20  C28 UNL     1      25.285  -7.027 -46.535  0.00  0.00    +0.000 C 
ATOM     21  C29 UNL     1      26.277  -6.930 -47.514  0.00  0.00    +0.000 C 
ATOM     22  C30 UNL     1      27.626  -6.951 -47.149  0.00  0.00    +0.000 C 
ATOM     23  C31 UNL     1      27.983  -7.058 -45.802  0.00  0.00    +0.000 C 
ATOM     24  C32 UNL     1      26.993  -7.155 -44.820  0.00  0.00    +0.000 C 
ENDBRANCH  16  19
ENDBRANCH   2   5
BRANCH   3  25
ATOM     25  N2  UNL     1      25.375  -7.165 -38.245  0.00  0.00    +0.000 NA
ATOM     26  C2  UNL     1      24.683  -6.976 -37.158  0.00  0.00    +0.000 C 
ATOM     27  N3  UNL     1      25.245  -7.310 -35.881  0.00  0.00    +0.000 N 
ATOM     28  H3  UNL     1      24.869  -6.811 -35.044  0.00  0.00    +0.000 HD
BRANCH  27  29
ATOM     29  C3  UNL     1      26.314  -8.252 -35.682  0.00  0.00    +0.000 C 
ATOM     30  C4  UNL     1      26.866  -8.477 -34.409  0.00  0.00    +0.000 C 
ATOM     31  C5  UNL     1      27.944  -9.352 -34.254  0.00  0.00    +0.000 C 
ATOM     32  C6  UNL     1      28.486 -10.005 -35.364  0.00  0.00    +0.000 C 
ATOM     33  C7  UNL     1      27.945  -9.790 -36.645  0.00  0.00    +0.000 C 
ATOM     34  C15 UNL     1      26.868  -8.907 -36.791  0.00  0.00    +0.000 C 
BRANCH  33  35
ATOM     35  O2  UNL     1      28.434 -10.435 -37.793  0.00  0.00    +0.000 OA
BRANCH  35  36
ATOM     36  C8  UNL     1      27.659 -10.775 -38.942  0.00  0.00    +0.000 C 
BRANCH  36  37
ATOM     37  C9  UNL     1      28.256 -10.157 -40.177  0.00  0.00    +0.000 C 
ATOM     38  C10 UNL     1      28.926 -10.947 -41.127  0.00  0.00    +0.000 C 
ATOM     39  C11 UNL     1      29.471 -10.357 -42.274  0.00  0.00    +0.000 C 
ATOM     40  C12 UNL     1      29.347  -8.980 -42.479  0.00  0.00    +0.000 C 
ATOM     41  C13 UNL     1      28.680  -8.188 -41.539  0.00  0.00    +0.000 C 
ATOM     42  C14 UNL     1      28.136  -8.773 -40.391  0.00  0.00    +0.000 C 
ENDBRANCH  36  37
ENDBRANCH  35  36
ENDBRANCH  33  35
ENDBRANCH  27  29
BRANCH  26  43
ATOM     43  S1  UNL     1      23.066  -6.194 -37.192  0.00  0.00    +0.000 S 
ATOM     44  H2  UNL     1      22.439  -7.353 -36.702  0.00  0.00    +0.000 HD
ENDBRANCH  26  43
ENDBRANCH   3  25
TORSDOF 8
