REMARK  Name = resultss/4CJN/ligands/lig_343_t0.pdb
REMARK  10 active torsions:
REMARK  status: ('A' for Active; 'I' for Inactive)
REMARK    1  A    between atoms: C2_1  and  O1_28
REMARK    2  A    between atoms: C4_3  and  C5_7
REMARK    3  A    between atoms: C21_6  and  O3_29
REMARK    4  A    between atoms: N2_17  and  N3_19
REMARK    5  A    between atoms: N3_19  and  C13_21
REMARK    6  A    between atoms: O3_29  and  C22_30
REMARK    7  A    between atoms: C22_30  and  C23_31
REMARK    8  A    between atoms: N4_33  and  C25_36
REMARK    9  A    between atoms: C25_36  and  C26_37
REMARK   10  A    between atoms: N5_39  and  C27_41
REMARK                            x       y       z     vdW  Elec       q    Type
REMARK                         _______ _______ _______ _____ _____    ______ ____
ROOT
ATOM      1  C2  UNL     1      26.344  -8.348 -34.471  0.00  0.00    +0.000 C 
ATOM      2  C3  UNL     1      27.433  -8.235 -33.585  0.00  0.00    +0.000 C 
ATOM      3  C4  UNL     1      28.639  -8.904 -33.844  0.00  0.00    +0.000 C 
ATOM      4  C19 UNL     1      28.765  -9.660 -35.017  0.00  0.00    +0.000 C 
ATOM      5  C20 UNL     1      27.687  -9.790 -35.892  0.00  0.00    +0.000 C 
ATOM      6  C21 UNL     1      26.465  -9.141 -35.624  0.00  0.00    +0.000 C 
ENDROOT
BRANCH   3   7
ATOM      7  C5  UNL     1      29.825  -8.757 -32.913  0.00  0.00    +0.000 C 
ATOM      8  N1  UNL     1      30.287 -10.090 -32.511  0.00  0.00    +0.000 N 
ATOM      9  C6  UNL     1      31.669 -10.419 -32.322  0.00  0.00    +0.000 C 
ATOM     10  C7  UNL     1      32.030 -11.599 -31.648  0.00  0.00    +0.000 C 
ATOM     11  C8  UNL     1      33.377 -11.930 -31.475  0.00  0.00    +0.000 C 
ATOM     12  C9  UNL     1      34.372 -11.098 -31.994  0.00  0.00    +0.000 C 
ATOM     13  C10 UNL     1      34.022  -9.933 -32.682  0.00  0.00    +0.000 C 
ATOM     14  C11 UNL     1      32.667  -9.587 -32.843  0.00  0.00    +0.000 C 
ATOM     15  C12 UNL     1      32.262  -8.371 -33.564  0.00  0.00    +0.000 C 
ATOM     16  O2  UNL     1      33.124  -7.670 -34.159  0.00  0.00    +0.000 OA
ATOM     17  N2  UNL     1      30.882  -7.969 -33.579  0.00  0.00    +0.000 N 
ATOM     18  H6  UNL     1      29.567 -10.758 -32.150  0.00  0.00    +0.000 HD
BRANCH  17  19
ATOM     19  N3  UNL     1      30.534  -6.802 -34.288  0.00  0.00    +0.000 N 
ATOM     20  H11 UNL     1      30.502  -5.894 -33.775  0.00  0.00    +0.000 HD
BRANCH  19  21
ATOM     21  C13 UNL     1      30.229  -6.817 -35.693  0.00  0.00    +0.000 C 
ATOM     22  C14 UNL     1      30.991  -7.585 -36.590  0.00  0.00    +0.000 C 
ATOM     23  C15 UNL     1      30.652  -7.626 -37.945  0.00  0.00    +0.000 C 
ATOM     24  C16 UNL     1      29.554  -6.903 -38.415  0.00  0.00    +0.000 C 
ATOM     25  C17 UNL     1      28.786  -6.145 -37.528  0.00  0.00    +0.000 C 
ATOM     26  C18 UNL     1      29.117  -6.106 -36.172  0.00  0.00    +0.000 C 
ENDBRANCH  19  21
ENDBRANCH  17  19
ENDBRANCH   3   7
BRANCH   1  28
ATOM     27  C1  UNL     1      24.076  -8.164 -33.429  0.00  0.00    +0.000 C 
ATOM     28  O1  UNL     1      25.133  -7.674 -34.247  0.00  0.00    +0.000 OA
ENDBRANCH   1  28
BRANCH   6  29
ATOM     29  O3  UNL     1      25.356  -9.260 -36.480  0.00  0.00    +0.000 OA
BRANCH  29  30
ATOM     30  C22 UNL     1      24.824  -8.187 -37.253  0.00  0.00    +0.000 C 
BRANCH  30  31
ATOM     31  C23 UNL     1      25.306  -8.293 -38.661  0.00  0.00    +0.000 C 
ATOM     32  C24 UNL     1      26.040  -7.356 -39.357  0.00  0.00    +0.000 C 
ATOM     33  N4  UNL     1      26.203  -7.857 -40.591  0.00  0.00    +0.000 N 
ATOM     34  N6  UNL     1      25.592  -9.030 -40.651  0.00  0.00    +0.000 NA
ATOM     35  N7  UNL     1      25.037  -9.324 -39.485  0.00  0.00    +0.000 NA
BRANCH  33  36
ATOM     36  C25 UNL     1      26.843  -7.199 -41.725  0.00  0.00    +0.000 C 
BRANCH  36  37
ATOM     37  C26 UNL     1      27.967  -8.045 -42.238  0.00  0.00    +0.000 C 
ATOM     38  O4  UNL     1      28.254  -8.012 -43.464  0.00  0.00    +0.000 OA
ATOM     39  N5  UNL     1      28.646  -8.947 -41.352  0.00  0.00    +0.000 N 
ATOM     40  H24 UNL     1      28.185  -9.173 -40.439  0.00  0.00    +0.000 HD
BRANCH  39  41
ATOM     41  C27 UNL     1      29.818  -9.695 -41.717  0.00  0.00    +0.000 C 
ATOM     42  C28 UNL     1      31.064  -9.326 -41.187  0.00  0.00    +0.000 C 
ATOM     43  C29 UNL     1      32.224 -10.016 -41.549  0.00  0.00    +0.000 C 
ATOM     44  C30 UNL     1      32.155 -11.088 -42.455  0.00  0.00    +0.000 C 
ATOM     45  C31 UNL     1      33.408 -11.795 -42.882  0.00  0.00    +0.000 C 
ATOM     46  C32 UNL     1      30.916 -11.436 -43.018  0.00  0.00    +0.000 C 
ATOM     47  C33 UNL     1      29.754 -10.746 -42.651  0.00  0.00    +0.000 C 
ENDBRANCH  39  41
ENDBRANCH  36  37
ENDBRANCH  33  36
ENDBRANCH  30  31
ENDBRANCH  29  30
ENDBRANCH   6  29
TORSDOF 10
