REMARK  Name = resultss/4CJN/ligands/lig_429_t1.pdb
REMARK  7 active torsions:
REMARK  status: ('A' for Active; 'I' for Inactive)
REMARK    1  A    between atoms: C1_2  and  C15_5
REMARK    2  A    between atoms: N1_3  and  N2_25
REMARK    3  A    between atoms: C25_16  and  C26_19
REMARK    4  A    between atoms: C2_26  and  S1_42
REMARK    5  A    between atoms: N3_27  and  C3_29
REMARK    6  A    between atoms: C6_32  and  O2_35
REMARK    7  A    between atoms: O2_35  and  C7_36
REMARK                            x       y       z     vdW  Elec       q    Type
REMARK                         _______ _______ _______ _____ _____    ______ ____
ROOT
ATOM      1  O1  UNL     1      26.571 -10.060 -41.085  0.00  0.00    +0.000 OA
ATOM      2  C1  UNL     1      27.024  -8.983 -41.559  0.00  0.00    +0.000 C 
ATOM      3  N1  UNL     1      28.274  -8.466 -41.076  0.00  0.00    +0.000 N 
ATOM      4  H1  UNL     1      28.789  -7.769 -41.658  0.00  0.00    +0.000 HD
ENDROOT
BRANCH   2   5
ATOM      5  C15 UNL     1      26.275  -8.274 -42.618  0.00  0.00    +0.000 C 
ATOM      6  C16 UNL     1      26.889  -7.959 -43.849  0.00  0.00    +0.000 C 
ATOM      7  C17 UNL     1      26.114  -7.303 -44.797  0.00  0.00    +0.000 A 
ATOM      8  C18 UNL     1      24.800  -6.961 -44.561  0.00  0.00    +0.000 A 
ATOM      9  N4  UNL     1      24.235  -6.392 -45.652  0.00  0.00    +0.000 N 
ATOM     10  C19 UNL     1      25.220  -6.364 -46.575  0.00  0.00    +0.000 A 
ATOM     11  C20 UNL     1      25.137  -5.885 -47.881  0.00  0.00    +0.000 C 
ATOM     12  C21 UNL     1      26.284  -5.971 -48.691  0.00  0.00    +0.000 C 
ATOM     13  C22 UNL     1      27.479  -6.533 -48.185  0.00  0.00    +0.000 C 
ATOM     14  C23 UNL     1      27.539  -7.015 -46.865  0.00  0.00    +0.000 C 
ATOM     15  C24 UNL     1      26.388  -6.912 -46.086  0.00  0.00    +0.000 A 
ATOM     16  C25 UNL     1      24.204  -7.268 -43.330  0.00  0.00    +0.000 C 
ATOM     17  N5  UNL     1      24.965  -7.926 -42.403  0.00  0.00    +0.000 NA
ATOM     18  H14 UNL     1      23.248  -6.079 -45.780  0.00  0.00    +0.000 HD
BRANCH  16  19
ATOM     19  C26 UNL     1      22.806  -6.918 -43.006  0.00  0.00    +0.000 C 
ATOM     20  C27 UNL     1      21.809  -7.048 -43.987  0.00  0.00    +0.000 C 
ATOM     21  C28 UNL     1      20.479  -6.741 -43.685  0.00  0.00    +0.000 C 
ATOM     22  C29 UNL     1      20.131  -6.318 -42.400  0.00  0.00    +0.000 C 
ATOM     23  C30 UNL     1      21.113  -6.208 -41.412  0.00  0.00    +0.000 C 
ATOM     24  C31 UNL     1      22.444  -6.513 -41.709  0.00  0.00    +0.000 C 
ENDBRANCH  16  19
ENDBRANCH   2   5
BRANCH   3  25
ATOM     25  N2  UNL     1      28.977  -9.112 -40.047  0.00  0.00    +0.000 NA
ATOM     26  C2  UNL     1      30.084  -9.770 -40.238  0.00  0.00    +0.000 C 
ATOM     27  N3  UNL     1      30.763 -10.378 -39.131  0.00  0.00    +0.000 N 
ATOM     28  H3  UNL     1      31.387 -11.190 -39.337  0.00  0.00    +0.000 HD
BRANCH  27  29
ATOM     29  C3  UNL     1      30.634  -9.953 -37.760  0.00  0.00    +0.000 C 
ATOM     30  C4  UNL     1      29.378 -10.012 -37.137  0.00  0.00    +0.000 C 
ATOM     31  C5  UNL     1      29.232  -9.640 -35.798  0.00  0.00    +0.000 C 
ATOM     32  C6  UNL     1      30.347  -9.222 -35.053  0.00  0.00    +0.000 C 
ATOM     33  C13 UNL     1      31.599  -9.158 -35.672  0.00  0.00    +0.000 C 
ATOM     34  C14 UNL     1      31.749  -9.537 -37.009  0.00  0.00    +0.000 C 
BRANCH  32  35
ATOM     35  O2  UNL     1      30.235  -8.827 -33.713  0.00  0.00    +0.000 OA
BRANCH  35  36
ATOM     36  C7  UNL     1      31.188  -9.073 -32.712  0.00  0.00    +0.000 C 
ATOM     37  C8  UNL     1      31.894  -7.989 -32.175  0.00  0.00    +0.000 C 
ATOM     38  C9  UNL     1      32.869  -8.196 -31.194  0.00  0.00    +0.000 C 
ATOM     39  C10 UNL     1      33.153  -9.491 -30.751  0.00  0.00    +0.000 C 
ATOM     40  C11 UNL     1      32.463 -10.580 -31.290  0.00  0.00    +0.000 C 
ATOM     41  C12 UNL     1      31.487 -10.376 -32.271  0.00  0.00    +0.000 C 
ENDBRANCH  35  36
ENDBRANCH  32  35
ENDBRANCH  27  29
BRANCH  26  42
ATOM     42  S1  UNL     1      30.710 -10.070 -41.896  0.00  0.00    +0.000 S 
ATOM     43  H2  UNL     1      31.899 -10.641 -41.408  0.00  0.00    +0.000 HD
ENDBRANCH  26  42
ENDBRANCH   3  25
TORSDOF 7
