REMARK  Name = resultss/4CJN/ligands/lig_429_t1.pdb
REMARK  7 active torsions:
REMARK  status: ('A' for Active; 'I' for Inactive)
REMARK    1  A    between atoms: C1_2  and  C15_5
REMARK    2  A    between atoms: N1_3  and  N2_25
REMARK    3  A    between atoms: C25_16  and  C26_19
REMARK    4  A    between atoms: C2_26  and  S1_42
REMARK    5  A    between atoms: N3_27  and  C3_29
REMARK    6  A    between atoms: C6_32  and  O2_35
REMARK    7  A    between atoms: O2_35  and  C7_36
REMARK                            x       y       z     vdW  Elec       q    Type
REMARK                         _______ _______ _______ _____ _____    ______ ____
ROOT
ATOM      1  O1  UNL     1      28.334  -9.325 -38.501  0.00  0.00    +0.000 OA
ATOM      2  C1  UNL     1      29.519  -9.586 -38.847  0.00  0.00    +0.000 C 
ATOM      3  N1  UNL     1      30.517  -9.814 -37.840  0.00  0.00    +0.000 N 
ATOM      4  H1  UNL     1      31.394 -10.316 -38.104  0.00  0.00    +0.000 HD
ENDROOT
BRANCH   2   5
ATOM      5  C15 UNL     1      29.863  -9.672 -40.282  0.00  0.00    +0.000 C 
ATOM      6  C16 UNL     1      31.040 -10.327 -40.703  0.00  0.00    +0.000 C 
ATOM      7  C17 UNL     1      31.286 -10.376 -42.070  0.00  0.00    +0.000 A 
ATOM      8  C18 UNL     1      30.430  -9.808 -42.989  0.00  0.00    +0.000 A 
ATOM      9  N4  UNL     1      30.845 -10.041 -44.258  0.00  0.00    +0.000 N 
ATOM     10  C19 UNL     1      31.987 -10.750 -44.122  0.00  0.00    +0.000 A 
ATOM     11  C20 UNL     1      32.794 -11.250 -45.143  0.00  0.00    +0.000 C 
ATOM     12  C21 UNL     1      33.935 -11.988 -44.780  0.00  0.00    +0.000 C 
ATOM     13  C22 UNL     1      34.243 -12.214 -43.419  0.00  0.00    +0.000 C 
ATOM     14  C23 UNL     1      33.411 -11.704 -42.405  0.00  0.00    +0.000 C 
ATOM     15  C24 UNL     1      32.290 -10.974 -42.795  0.00  0.00    +0.000 A 
ATOM     16  C25 UNL     1      29.272  -9.148 -42.558  0.00  0.00    +0.000 C 
ATOM     17  N5  UNL     1      29.024  -9.114 -41.213  0.00  0.00    +0.000 NA
ATOM     18  H14 UNL     1      30.376  -9.775 -45.151  0.00  0.00    +0.000 HD
BRANCH  16  19
ATOM     19  C26 UNL     1      28.321  -8.506 -43.488  0.00  0.00    +0.000 C 
ATOM     20  C27 UNL     1      26.939  -8.640 -43.276  0.00  0.00    +0.000 C 
ATOM     21  C28 UNL     1      26.029  -8.018 -44.137  0.00  0.00    +0.000 C 
ATOM     22  C29 UNL     1      26.491  -7.246 -45.205  0.00  0.00    +0.000 C 
ATOM     23  C30 UNL     1      27.864  -7.089 -45.411  0.00  0.00    +0.000 C 
ATOM     24  C31 UNL     1      28.776  -7.710 -44.553  0.00  0.00    +0.000 C 
ENDBRANCH  16  19
ENDBRANCH   2   5
BRANCH   3  25
ATOM     25  N2  UNL     1      30.210  -9.702 -36.475  0.00  0.00    +0.000 NA
ATOM     26  C2  UNL     1      31.097  -9.437 -35.560  0.00  0.00    +0.000 C 
ATOM     27  N3  UNL     1      30.701  -9.306 -34.187  0.00  0.00    +0.000 N 
ATOM     28  H3  UNL     1      31.428  -9.485 -33.459  0.00  0.00    +0.000 HD
BRANCH  27  29
ATOM     29  C3  UNL     1      29.374  -8.956 -33.749  0.00  0.00    +0.000 C 
ATOM     30  C4  UNL     1      29.213  -7.960 -32.773  0.00  0.00    +0.000 C 
ATOM     31  C5  UNL     1      27.936  -7.575 -32.355  0.00  0.00    +0.000 C 
ATOM     32  C6  UNL     1      26.796  -8.167 -32.925  0.00  0.00    +0.000 C 
ATOM     33  C13 UNL     1      26.953  -9.163 -33.894  0.00  0.00    +0.000 C 
ATOM     34  C14 UNL     1      28.229  -9.544 -34.319  0.00  0.00    +0.000 C 
BRANCH  32  35
ATOM     35  O2  UNL     1      25.501  -7.818 -32.519  0.00  0.00    +0.000 OA
BRANCH  35  36
ATOM     36  C7  UNL     1      24.399  -7.658 -33.374  0.00  0.00    +0.000 C 
ATOM     37  C8  UNL     1      23.431  -8.671 -33.418  0.00  0.00    +0.000 C 
ATOM     38  C9  UNL     1      22.331  -8.560 -34.275  0.00  0.00    +0.000 C 
ATOM     39  C10 UNL     1      22.197  -7.441 -35.102  0.00  0.00    +0.000 C 
ATOM     40  C11 UNL     1      23.164  -6.432 -35.074  0.00  0.00    +0.000 C 
ATOM     41  C12 UNL     1      24.265  -6.540 -34.218  0.00  0.00    +0.000 C 
ENDBRANCH  35  36
ENDBRANCH  32  35
ENDBRANCH  27  29
BRANCH  26  42
ATOM     42  S1  UNL     1      32.850  -9.383 -35.955  0.00  0.00    +0.000 S 
ATOM     43  H2  UNL     1      33.100  -8.400 -34.980  0.00  0.00    +0.000 HD
ENDBRANCH  26  42
ENDBRANCH   3  25
TORSDOF 7
