REMARK  Name = resultss/4CJN/ligands/lig_178_t2.pdb
REMARK  4 active torsions:
REMARK  status: ('A' for Active; 'I' for Inactive)
REMARK    1  A    between atoms: C1_2  and  C9_5
REMARK    2  A    between atoms: N1_3  and  N2_20
REMARK    3  A    between atoms: C12_8  and  C13_11
REMARK    4  A    between atoms: C2_21  and  C3_22
REMARK                            x       y       z     vdW  Elec       q    Type
REMARK                         _______ _______ _______ _____ _____    ______ ____
ROOT
ATOM      1  O1  UNL     1      29.813 -10.021 -39.129  0.00  0.00    +0.000 OA
ATOM      2  C1  UNL     1      29.343  -8.863 -39.298  0.00  0.00    +0.000 C 
ATOM      3  N1  UNL     1      29.374  -7.929 -38.212  0.00  0.00    +0.000 N 
ATOM      4  H1  UNL     1      29.169  -6.925 -38.400  0.00  0.00    +0.000 HD
ENDROOT
BRANCH   2   5
ATOM      5  C9  UNL     1      28.780  -8.489 -40.619  0.00  0.00    +0.000 C 
ATOM      6  C10 UNL     1      28.502  -7.149 -40.938  0.00  0.00    +0.000 C 
ATOM      7  C11 UNL     1      27.967  -6.812 -42.185  0.00  0.00    +0.000 C 
ATOM      8  C12 UNL     1      27.693  -7.807 -43.138  0.00  0.00    +0.000 C 
ATOM      9  C20 UNL     1      27.960  -9.148 -42.814  0.00  0.00    +0.000 C 
ATOM     10  C21 UNL     1      28.494  -9.486 -41.567  0.00  0.00    +0.000 C 
BRANCH   8  11
ATOM     11  C13 UNL     1      27.126  -7.461 -44.463  0.00  0.00    +0.000 A 
ATOM     12  N3  UNL     1      25.792  -7.396 -44.706  0.00  0.00    +0.000 NA
ATOM     13  C14 UNL     1      25.539  -7.059 -45.997  0.00  0.00    +0.000 A 
ATOM     14  C15 UNL     1      24.260  -6.917 -46.539  0.00  0.00    +0.000 C 
ATOM     15  C16 UNL     1      24.136  -6.564 -47.894  0.00  0.00    +0.000 C 
ATOM     16  C17 UNL     1      25.284  -6.361 -48.686  0.00  0.00    +0.000 C 
ATOM     17  C18 UNL     1      26.566  -6.508 -48.130  0.00  0.00    +0.000 C 
ATOM     18  C19 UNL     1      26.659  -6.857 -46.786  0.00  0.00    +0.000 A 
ATOM     19  S1  UNL     1      28.032  -7.101 -45.856  0.00  0.00    +0.000 S 
ENDBRANCH   8  11
ENDBRANCH   2   5
BRANCH   3  20
ATOM     20  N2  UNL     1      29.760  -8.363 -36.930  0.00  0.00    +0.000 NA
ATOM     21  C2  UNL     1      29.083  -8.150 -35.839  0.00  0.00    +0.000 C 
BRANCH  21  22
ATOM     22  C3  UNL     1      27.750  -7.440 -35.802  0.00  0.00    +0.000 C 
ATOM     23  C4  UNL     1      26.738  -8.179 -36.632  0.00  0.00    +0.000 C 
ATOM     24  O2  UNL     1      26.383  -7.725 -37.709  0.00  0.00    +0.000 OA
ATOM     25  C5  UNL     1      26.205  -9.506 -36.174  0.00  0.00    +0.000 C 
ATOM     26  C6  UNL     1      26.130  -9.617 -34.672  0.00  0.00    +0.000 C 
ATOM     27  O3  UNL     1      25.725 -10.664 -34.190  0.00  0.00    +0.000 OA
ATOM     28  C7  UNL     1      26.500  -8.493 -33.732  0.00  0.00    +0.000 C 
ATOM     29  C8  UNL     1      27.251  -7.357 -34.384  0.00  0.00    +0.000 C 
ATOM     30  O4  UNL     1      27.507  -6.364 -33.720  0.00  0.00    +0.000 OA
ENDBRANCH  21  22
ENDBRANCH   3  20
TORSDOF 4
