REMARK  Name = resultss/4CJN/ligands/lig_417_t0.pdb
REMARK  6 active torsions:
REMARK  status: ('A' for Active; 'I' for Inactive)
REMARK    1  A    between atoms: C9_1  and  C8_22
REMARK    2  A    between atoms: C19_12  and  C20_15
REMARK    3  A    between atoms: N3_21  and  N2_25
REMARK    4  A    between atoms: N2_25  and  C7_27
REMARK    5  A    between atoms: C7_27  and  N1_29
REMARK    6  A    between atoms: N1_29  and  C6_36
REMARK                            x       y       z     vdW  Elec       q    Type
REMARK                         _______ _______ _______ _____ _____    ______ ____
ROOT
ATOM      1  C9  UNL     1      28.309  -9.739 -38.170  0.00  0.00    +0.000 C 
ATOM      2  C10 UNL     1      27.052  -9.341 -38.675  0.00  0.00    +0.000 C 
ATOM      3  C11 UNL     1      26.894  -9.336 -40.056  0.00  0.00    +0.000 A 
ATOM      4  C12 UNL     1      27.912  -9.695 -40.911  0.00  0.00    +0.000 A 
ATOM      5  N4  UNL     1      27.500  -9.677 -42.202  0.00  0.00    +0.000 N 
ATOM      6  C13 UNL     1      26.210  -9.280 -42.147  0.00  0.00    +0.000 A 
ATOM      7  C14 UNL     1      25.334  -9.116 -43.219  0.00  0.00    +0.000 C 
ATOM      8  C15 UNL     1      24.016  -8.712 -42.937  0.00  0.00    +0.000 C 
ATOM      9  C16 UNL     1      23.603  -8.488 -41.603  0.00  0.00    +0.000 C 
ATOM     10  C17 UNL     1      24.503  -8.667 -40.537  0.00  0.00    +0.000 C 
ATOM     11  C18 UNL     1      25.802  -9.060 -40.848  0.00  0.00    +0.000 A 
ATOM     12  C19 UNL     1      29.161 -10.072 -40.400  0.00  0.00    +0.000 C 
ATOM     13  N5  UNL     1      29.309 -10.089 -39.040  0.00  0.00    +0.000 NA
ATOM     14  H11 UNL     1      28.037  -9.944 -43.058  0.00  0.00    +0.000 HD
ENDROOT
BRANCH  12  15
ATOM     15  C20 UNL     1      30.304 -10.450 -41.257  0.00  0.00    +0.000 C 
ATOM     16  C21 UNL     1      31.566  -9.854 -41.087  0.00  0.00    +0.000 C 
ATOM     17  C22 UNL     1      32.644 -10.244 -41.888  0.00  0.00    +0.000 C 
ATOM     18  C23 UNL     1      32.476 -11.240 -42.853  0.00  0.00    +0.000 C 
ATOM     19  C24 UNL     1      31.231 -11.854 -43.014  0.00  0.00    +0.000 C 
ATOM     20  C25 UNL     1      30.150 -11.466 -42.215  0.00  0.00    +0.000 C 
ENDBRANCH  12  15
BRANCH   1  22
ATOM     21  N3  UNL     1      27.471  -9.689 -35.783  0.00  0.00    +0.000 N 
ATOM     22  C8  UNL     1      28.559  -9.790 -36.713  0.00  0.00    +0.000 C 
ATOM     23  O1  UNL     1      29.739  -9.918 -36.285  0.00  0.00    +0.000 OA
ATOM     24  H9  UNL     1      26.498  -9.591 -36.148  0.00  0.00    +0.000 HD
BRANCH  21  25
ATOM     25  N2  UNL     1      27.687  -9.755 -34.394  0.00  0.00    +0.000 N 
ATOM     26  H8  UNL     1      27.857 -10.681 -33.939  0.00  0.00    +0.000 HD
BRANCH  25  27
ATOM     27  C7  UNL     1      27.597  -8.589 -33.565  0.00  0.00    +0.000 C 
ATOM     28  S1  UNL     1      28.778  -7.453 -33.662  0.00  0.00    +0.000 S 
BRANCH  27  29
ATOM     29  N1  UNL     1      26.382  -8.304 -32.851  0.00  0.00    +0.000 N 
ATOM     30  H7  UNL     1      26.448  -8.170 -31.817  0.00  0.00    +0.000 HD
BRANCH  29  36
ATOM     31  C1  UNL     1      23.440  -6.542 -36.451  0.00  0.00    +0.000 C 
ATOM     32  C2  UNL     1      23.643  -7.416 -35.249  0.00  0.00    +0.000 C 
ATOM     33  C3  UNL     1      22.568  -8.140 -34.713  0.00  0.00    +0.000 C 
ATOM     34  C4  UNL     1      22.752  -8.934 -33.577  0.00  0.00    +0.000 C 
ATOM     35  C5  UNL     1      24.002  -8.995 -32.958  0.00  0.00    +0.000 C 
ATOM     36  C6  UNL     1      25.081  -8.243 -33.461  0.00  0.00    +0.000 C 
ATOM     37  C26 UNL     1      24.895  -7.466 -34.614  0.00  0.00    +0.000 C 
ENDBRANCH  29  36
ENDBRANCH  27  29
ENDBRANCH  25  27
ENDBRANCH  21  25
ENDBRANCH   1  22
TORSDOF 6
