REMARK  Name = resultss/4CJN/ligands/lig_359_t1.pdb
REMARK  7 active torsions:
REMARK  status: ('A' for Active; 'I' for Inactive)
REMARK    1  A    between atoms: C2_1  and  N1_2
REMARK    2  A    between atoms: C2_1  and  C1_22
REMARK    3  A    between atoms: C3_3  and  C4_13
REMARK    4  A    between atoms: C4_13  and  C5_14
REMARK    5  A    between atoms: N3_23  and  N4_25
REMARK    6  A    between atoms: C18_26  and  C19_27
REMARK    7  A    between atoms: C18_26  and  O3_38
REMARK                            x       y       z     vdW  Elec       q    Type
REMARK                         _______ _______ _______ _____ _____    ______ ____
ROOT
ATOM      1  C2  UNL     1      27.400  -7.284 -38.001  0.00  0.00    +0.000 C 
ENDROOT
BRANCH   1   2
ATOM      2  N1  UNL     1      26.661  -7.906 -36.879  0.00  0.00    +0.000 N 
ATOM      3  C3  UNL     1      26.874  -9.222 -36.509  0.00  0.00    +0.000 A 
ATOM      4  N2  UNL     1      26.203  -9.746 -35.449  0.00  0.00    +0.000 NA
ATOM      5  C11 UNL     1      25.320  -9.019 -34.727  0.00  0.00    +0.000 A 
ATOM      6  C12 UNL     1      24.652  -9.605 -33.644  0.00  0.00    +0.000 C 
ATOM      7  C13 UNL     1      23.742  -8.853 -32.895  0.00  0.00    +0.000 C 
ATOM      8  C14 UNL     1      23.498  -7.516 -33.224  0.00  0.00    +0.000 C 
ATOM      9  C15 UNL     1      24.164  -6.926 -34.305  0.00  0.00    +0.000 C 
ATOM     10  C16 UNL     1      25.081  -7.678 -35.065  0.00  0.00    +0.000 A 
ATOM     11  C17 UNL     1      25.778  -7.134 -36.158  0.00  0.00    +0.000 A 
ATOM     12  O2  UNL     1      25.594  -5.921 -36.467  0.00  0.00    +0.000 OA
BRANCH   3  13
ATOM     13  C4  UNL     1      27.838 -10.143 -37.228  0.00  0.00    +0.000 C 
BRANCH  13  14
ATOM     14  C5  UNL     1      29.268  -9.916 -36.806  0.00  0.00    +0.000 C 
ATOM     15  C6  UNL     1      30.308 -10.010 -37.745  0.00  0.00    +0.000 C 
ATOM     16  C7  UNL     1      31.633  -9.795 -37.355  0.00  0.00    +0.000 C 
ATOM     17  C8  UNL     1      31.933  -9.499 -36.023  0.00  0.00    +0.000 C 
ATOM     18 BR1  UNL     1      33.744  -9.207 -35.496  0.00  0.00    +0.000 Br
ATOM     19  C9  UNL     1      30.907  -9.426 -35.076  0.00  0.00    +0.000 C 
ATOM     20  C10 UNL     1      29.580  -9.642 -35.463  0.00  0.00    +0.000 C 
ENDBRANCH  13  14
ENDBRANCH   3  13
ENDBRANCH   1   2
BRANCH   1  22
ATOM     21  O1  UNL     1      26.244  -6.055 -39.678  0.00  0.00    +0.000 OA
ATOM     22  C1  UNL     1      26.577  -7.198 -39.261  0.00  0.00    +0.000 C 
ATOM     23  N3  UNL     1      26.170  -8.368 -39.991  0.00  0.00    +0.000 N 
ATOM     24  H13 UNL     1      26.240  -9.303 -39.535  0.00  0.00    +0.000 HD
BRANCH  23  25
ATOM     25  N4  UNL     1      25.326  -8.273 -41.111  0.00  0.00    +0.000 NA
ATOM     26  C18 UNL     1      25.692  -7.785 -42.262  0.00  0.00    +0.000 C 
BRANCH  26  27
ATOM     27  C19 UNL     1      24.697  -7.634 -43.359  0.00  0.00    +0.000 C 
ATOM     28  C20 UNL     1      25.147  -7.484 -44.680  0.00  0.00    +0.000 C 
ATOM     29  C21 UNL     1      24.228  -7.322 -45.719  0.00  0.00    +0.000 C 
ATOM     30  C22 UNL     1      24.643  -7.170 -47.050  0.00  0.00    +0.000 C 
ATOM     31  C23 UNL     1      23.693  -7.010 -48.065  0.00  0.00    +0.000 C 
ATOM     32  C24 UNL     1      22.329  -6.998 -47.754  0.00  0.00    +0.000 C 
ATOM     33  C25 UNL     1      21.908  -7.148 -46.427  0.00  0.00    +0.000 C 
ATOM     34  C26 UNL     1      22.853  -7.313 -45.407  0.00  0.00    +0.000 C 
ATOM     35  O4  UNL     1      22.451  -7.465 -44.150  0.00  0.00    +0.000 OA
ATOM     36  C27 UNL     1      23.297  -7.627 -43.135  0.00  0.00    +0.000 C 
ATOM     37  O5  UNL     1      22.825  -7.782 -41.978  0.00  0.00    +0.000 OA
ENDBRANCH  26  27
BRANCH  26  38
ATOM     38  O3  UNL     1      27.018  -7.410 -42.495  0.00  0.00    +0.000 OA
ATOM     39  H14 UNL     1      27.289  -6.463 -42.728  0.00  0.00    +0.000 HD
ENDBRANCH  26  38
ENDBRANCH  23  25
ENDBRANCH   1  22
TORSDOF 7
