REMARK  Name = resultss/4CJN/ligands/lig_354_t1.pdb
REMARK  10 active torsions:
REMARK  status: ('A' for Active; 'I' for Inactive)
REMARK    1  A    between atoms: C6_1  and  O2_27
REMARK    2  A    between atoms: C9_4  and  C10_7
REMARK    3  A    between atoms: N3_17  and  N4_19
REMARK    4  A    between atoms: N4_19  and  C18_21
REMARK    5  A    between atoms: O2_27  and  C5_28
REMARK    6  A    between atoms: C5_28  and  C4_31
REMARK    7  A    between atoms: N1_29  and  C2_34
REMARK    8  A    between atoms: C2_34  and  C1_35
REMARK    9  A    between atoms: C1_35  and  O1_43
REMARK   10  A    between atoms: N7_36  and  C26_37
REMARK                            x       y       z     vdW  Elec       q    Type
REMARK                         _______ _______ _______ _____ _____    ______ ____
ROOT
ATOM      1  C6  UNL     1      25.435  -7.606 -39.870  0.00  0.00    +0.000 C 
ATOM      2  C7  UNL     1      26.478  -6.732 -39.512  0.00  0.00    +0.000 C 
ATOM      3  C8  UNL     1      26.955  -6.704 -38.198  0.00  0.00    +0.000 C 
ATOM      4  C9  UNL     1      26.398  -7.542 -37.218  0.00  0.00    +0.000 C 
ATOM      5  C24 UNL     1      25.363  -8.420 -37.582  0.00  0.00    +0.000 C 
ATOM      6  C25 UNL     1      24.888  -8.448 -38.896  0.00  0.00    +0.000 C 
ENDROOT
BRANCH   4   7
ATOM      7  C10 UNL     1      26.916  -7.498 -35.797  0.00  0.00    +0.000 C 
ATOM      8  N2  UNL     1      26.050  -6.649 -34.969  0.00  0.00    +0.000 N 
ATOM      9  C11 UNL     1      25.016  -7.177 -34.126  0.00  0.00    +0.000 C 
ATOM     10  C12 UNL     1      24.068  -6.316 -33.552  0.00  0.00    +0.000 C 
ATOM     11  C13 UNL     1      23.049  -6.830 -32.744  0.00  0.00    +0.000 C 
ATOM     12  C14 UNL     1      22.974  -8.203 -32.503  0.00  0.00    +0.000 C 
ATOM     13  C15 UNL     1      23.916  -9.067 -33.068  0.00  0.00    +0.000 C 
ATOM     14  C16 UNL     1      24.943  -8.556 -33.881  0.00  0.00    +0.000 C 
ATOM     15  C17 UNL     1      25.964  -9.433 -34.478  0.00  0.00    +0.000 C 
ATOM     16  O3  UNL     1      25.903 -10.682 -34.316  0.00  0.00    +0.000 OA
ATOM     17  N3  UNL     1      27.034  -8.857 -35.249  0.00  0.00    +0.000 N 
ATOM     18  H10 UNL     1      26.102  -5.615 -35.117  0.00  0.00    +0.000 HD
BRANCH  17  19
ATOM     19  N4  UNL     1      28.113  -9.657 -35.673  0.00  0.00    +0.000 N 
ATOM     20  H15 UNL     1      27.998 -10.238 -36.535  0.00  0.00    +0.000 HD
BRANCH  19  21
ATOM     21  C18 UNL     1      29.408  -9.610 -35.049  0.00  0.00    +0.000 C 
ATOM     22  C19 UNL     1      30.582  -9.453 -35.810  0.00  0.00    +0.000 C 
ATOM     23  C20 UNL     1      31.831  -9.429 -35.182  0.00  0.00    +0.000 C 
ATOM     24  C21 UNL     1      31.921  -9.574 -33.796  0.00  0.00    +0.000 C 
ATOM     25  C22 UNL     1      30.762  -9.748 -33.035  0.00  0.00    +0.000 C 
ATOM     26  C23 UNL     1      29.512  -9.772 -33.659  0.00  0.00    +0.000 C 
ENDBRANCH  19  21
ENDBRANCH  17  19
ENDBRANCH   4   7
BRANCH   1  27
ATOM     27  O2  UNL     1      24.910  -7.668 -41.172  0.00  0.00    +0.000 OA
BRANCH  27  28
ATOM     28  C5  UNL     1      25.058  -8.768 -42.068  0.00  0.00    +0.000 C 
BRANCH  28  31
ATOM     29  N1  UNL     1      28.425 -10.114 -41.932  0.00  0.00    +0.000 N 
ATOM     30  C3  UNL     1      27.182 -10.059 -41.424  0.00  0.00    +0.000 C 
ATOM     31  C4  UNL     1      26.498  -9.149 -42.199  0.00  0.00    +0.000 C 
ATOM     32  N5  UNL     1      27.328  -8.696 -43.161  0.00  0.00    +0.000 NA
ATOM     33  N6  UNL     1      28.493  -9.303 -42.974  0.00  0.00    +0.000 NA
BRANCH  29  34
ATOM     34  C2  UNL     1      29.502 -10.998 -41.501  0.00  0.00    +0.000 C 
BRANCH  34  35
ATOM     35  C1  UNL     1      30.676 -10.185 -41.055  0.00  0.00    +0.000 C 
ATOM     36  N7  UNL     1      30.698  -9.724 -39.836  0.00  0.00    +0.000 NA
BRANCH  36  37
ATOM     37  C26 UNL     1      31.770  -9.001 -39.216  0.00  0.00    +0.000 C 
ATOM     38  C27 UNL     1      31.587  -7.646 -38.906  0.00  0.00    +0.000 C 
ATOM     39  C28 UNL     1      32.594  -6.929 -38.252  0.00  0.00    +0.000 C 
ATOM     40  C29 UNL     1      33.780  -7.568 -37.881  0.00  0.00    +0.000 C 
ATOM     41  C30 UNL     1      33.957  -8.927 -38.155  0.00  0.00    +0.000 C 
ATOM     42  C31 UNL     1      32.952  -9.647 -38.808  0.00  0.00    +0.000 C 
ENDBRANCH  36  37
BRANCH  35  43
ATOM     43  O1  UNL     1      31.672  -9.884 -41.986  0.00  0.00    +0.000 OA
ATOM     44  H1  UNL     1      32.594  -9.560 -41.724  0.00  0.00    +0.000 HD
ENDBRANCH  35  43
ENDBRANCH  34  35
ENDBRANCH  29  34
ENDBRANCH  28  31
ENDBRANCH  27  28
ENDBRANCH   1  27
TORSDOF 10
