REMARK  Name = resultss/4CJN/ligands/lig_241_t0.pdb
REMARK  6 active torsions:
REMARK  status: ('A' for Active; 'I' for Inactive)
REMARK    1  A    between atoms: C9_1  and  N1_18
REMARK    2  A    between atoms: C13_6  and  C14_27
REMARK    3  A    between atoms: C6_13  and  C5_22
REMARK    4  A    between atoms: C2_19  and  O1_26
REMARK    5  A    between atoms: C14_27  and  C15_28
REMARK    6  A    between atoms: C18_31  and  O3_34
REMARK                            x       y       z     vdW  Elec       q    Type
REMARK                         _______ _______ _______ _____ _____    ______ ____
ROOT
ATOM      1  C9  UNL     1      25.437  -7.980 -38.972  0.00  0.00    +0.000 C 
ATOM      2  C10 UNL     1      26.612  -7.219 -38.838  0.00  0.00    +0.000 C 
ATOM      3  C11 UNL     1      27.191  -7.022 -37.582  0.00  0.00    +0.000 C 
ATOM      4  C12 UNL     1      26.595  -7.573 -36.444  0.00  0.00    +0.000 A 
ATOM      5  N2  UNL     1      27.148  -7.382 -35.218  0.00  0.00    +0.000 NA
ATOM      6  C13 UNL     1      26.578  -7.895 -34.094  0.00  0.00    +0.000 A 
ATOM      7  C21 UNL     1      25.400  -8.657 -34.210  0.00  0.00    +0.000 A 
ATOM      8  O4  UNL     1      24.854  -9.158 -33.189  0.00  0.00    +0.000 OA
ATOM      9  N3  UNL     1      24.843  -8.851 -35.438  0.00  0.00    +0.000 N 
ATOM     10  C22 UNL     1      25.413  -8.329 -36.561  0.00  0.00    +0.000 A 
ATOM     11  C23 UNL     1      24.838  -8.527 -37.825  0.00  0.00    +0.000 C 
ATOM     12  H18 UNL     1      23.964  -9.416 -35.514  0.00  0.00    +0.000 HD
ENDROOT
BRANCH   1  18
ATOM     13  C6  UNL     1      24.933  -9.375 -41.043  0.00  0.00    +0.000 C 
ATOM     14  S1  UNL     1      24.139  -9.114 -42.675  0.00  0.00    +0.000 S 
ATOM     15  C7  UNL     1      23.578  -7.429 -42.268  0.00  0.00    +0.000 C 
ATOM     16  C8  UNL     1      24.059  -7.128 -40.904  0.00  0.00    +0.000 C 
ATOM     17  O2  UNL     1      23.782  -6.040 -40.334  0.00  0.00    +0.000 OA
ATOM     18  N1  UNL     1      24.819  -8.146 -40.263  0.00  0.00    +0.000 N 
BRANCH  13  22
ATOM     19  C2  UNL     1      29.073 -10.504 -41.622  0.00  0.00    +0.000 C 
ATOM     20  C3  UNL     1      28.327 -11.059 -40.576  0.00  0.00    +0.000 C 
ATOM     21  C4  UNL     1      26.995 -10.687 -40.379  0.00  0.00    +0.000 C 
ATOM     22  C5  UNL     1      26.382  -9.757 -41.236  0.00  0.00    +0.000 C 
ATOM     23  C24 UNL     1      27.130  -9.196 -42.283  0.00  0.00    +0.000 C 
ATOM     24  C25 UNL     1      28.464  -9.564 -42.476  0.00  0.00    +0.000 C 
BRANCH  19  26
ATOM     25  C1  UNL     1      30.905 -11.616 -42.908  0.00  0.00    +0.000 C 
ATOM     26  O1  UNL     1      30.406 -10.909 -41.776  0.00  0.00    +0.000 OA
ENDBRANCH  19  26
ENDBRANCH  13  22
ENDBRANCH   1  18
BRANCH   6  27
ATOM     27  C14 UNL     1      27.257  -7.681 -32.769  0.00  0.00    +0.000 C 
BRANCH  27  28
ATOM     28  C15 UNL     1      28.663  -8.211 -32.812  0.00  0.00    +0.000 C 
ATOM     29  C16 UNL     1      28.947  -9.425 -33.459  0.00  0.00    +0.000 C 
ATOM     30  C17 UNL     1      30.263  -9.896 -33.529  0.00  0.00    +0.000 C 
ATOM     31  C18 UNL     1      31.306  -9.157 -32.962  0.00  0.00    +0.000 C 
ATOM     32  C19 UNL     1      31.030  -7.941 -32.322  0.00  0.00    +0.000 C 
ATOM     33  C20 UNL     1      29.716  -7.468 -32.252  0.00  0.00    +0.000 C 
BRANCH  31  34
ATOM     34  O3  UNL     1      32.611  -9.639 -33.041  0.00  0.00    +0.000 OA
ATOM     35  H15 UNL     1      33.403  -9.071 -32.761  0.00  0.00    +0.000 HD
ENDBRANCH  31  34
ENDBRANCH  27  28
ENDBRANCH   6  27
TORSDOF 6
