REMARK  Name = resultss/4CJN/ligands/lig_420_t0.pdb
REMARK  7 active torsions:
REMARK  status: ('A' for Active; 'I' for Inactive)
REMARK    1  A    between atoms: C1_2  and  C10_5
REMARK    2  A    between atoms: N1_3  and  N2_25
REMARK    3  A    between atoms: C20_16  and  C21_19
REMARK    4  A    between atoms: N2_25  and  C2_27
REMARK    5  A    between atoms: C2_27  and  N3_29
REMARK    6  A    between atoms: N3_29  and  C3_31
REMARK    7  A    between atoms: C7_35  and  C8_37
REMARK                            x       y       z     vdW  Elec       q    Type
REMARK                         _______ _______ _______ _____ _____    ______ ____
ROOT
ATOM      1  O1  UNL     1      27.518 -10.389 -36.080  0.00  0.00    +0.000 OA
ATOM      2  C1  UNL     1      28.417  -9.907 -36.822  0.00  0.00    +0.000 C 
ATOM      3  N1  UNL     1      29.648  -9.448 -36.242  0.00  0.00    +0.000 N 
ATOM      4  H1  UNL     1      30.247  -8.789 -36.788  0.00  0.00    +0.000 HD
ENDROOT
BRANCH   2   5
ATOM      5  C10 UNL     1      28.192  -9.808 -38.280  0.00  0.00    +0.000 C 
ATOM      6  C11 UNL     1      26.950  -9.376 -38.791  0.00  0.00    +0.000 C 
ATOM      7  C12 UNL     1      26.814  -9.325 -40.174  0.00  0.00    +0.000 A 
ATOM      8  C13 UNL     1      27.841  -9.675 -41.024  0.00  0.00    +0.000 A 
ATOM      9  N4  UNL     1      27.451  -9.606 -42.319  0.00  0.00    +0.000 N 
ATOM     10  C14 UNL     1      26.167  -9.189 -42.272  0.00  0.00    +0.000 A 
ATOM     11  C15 UNL     1      25.313  -8.972 -43.354  0.00  0.00    +0.000 C 
ATOM     12  C16 UNL     1      23.997  -8.553 -43.080  0.00  0.00    +0.000 C 
ATOM     13  C17 UNL     1      23.565  -8.368 -41.747  0.00  0.00    +0.000 C 
ATOM     14  C18 UNL     1      24.443  -8.599 -40.672  0.00  0.00    +0.000 C 
ATOM     15  C19 UNL     1      25.741  -9.005 -40.974  0.00  0.00    +0.000 A 
ATOM     16  C20 UNL     1      29.074 -10.089 -40.504  0.00  0.00    +0.000 C 
ATOM     17  N5  UNL     1      29.201 -10.150 -39.144  0.00  0.00    +0.000 NA
ATOM     18  H9  UNL     1      27.998  -9.853 -43.174  0.00  0.00    +0.000 HD
BRANCH  16  19
ATOM     19  C21 UNL     1      30.220 -10.463 -41.356  0.00  0.00    +0.000 C 
ATOM     20  C22 UNL     1      31.466  -9.826 -41.217  0.00  0.00    +0.000 C 
ATOM     21  C23 UNL     1      32.548 -10.211 -42.015  0.00  0.00    +0.000 C 
ATOM     22  C24 UNL     1      32.401 -11.241 -42.946  0.00  0.00    +0.000 C 
ATOM     23  C25 UNL     1      31.173 -11.894 -43.078  0.00  0.00    +0.000 C 
ATOM     24  C26 UNL     1      30.088 -11.514 -42.281  0.00  0.00    +0.000 C 
ENDBRANCH  16  19
ENDBRANCH   2   5
BRANCH   3  25
ATOM     25  N2  UNL     1      29.940  -9.627 -34.880  0.00  0.00    +0.000 N 
ATOM     26  H2  UNL     1      30.376 -10.528 -34.578  0.00  0.00    +0.000 HD
BRANCH  25  27
ATOM     27  C2  UNL     1      29.562  -8.678 -33.872  0.00  0.00    +0.000 C 
ATOM     28  S1  UNL     1      30.603  -7.459 -33.518  0.00  0.00    +0.000 S 
BRANCH  27  29
ATOM     29  N3  UNL     1      28.277  -8.777 -33.224  0.00  0.00    +0.000 N 
ATOM     30  H3  UNL     1      28.193  -9.366 -32.367  0.00  0.00    +0.000 HD
BRANCH  29  31
ATOM     31  C3  UNL     1      27.074  -8.148 -33.693  0.00  0.00    +0.000 C 
ATOM     32  C4  UNL     1      27.150  -7.208 -34.729  0.00  0.00    +0.000 C 
ATOM     33  C5  UNL     1      25.991  -6.599 -35.214  0.00  0.00    +0.000 C 
ATOM     34  C6  UNL     1      24.744  -6.943 -34.687  0.00  0.00    +0.000 C 
ATOM     35  C7  UNL     1      24.642  -7.926 -33.687  0.00  0.00    +0.000 C 
ATOM     36  C9  UNL     1      25.816  -8.516 -33.187  0.00  0.00    +0.000 C 
BRANCH  35  37
ATOM     37  C8  UNL     1      23.299  -8.275 -33.097  0.00  0.00    +0.000 C 
ATOM     38  F1  UNL     1      23.421  -9.286 -32.159  0.00  0.00    +0.000 F 
ATOM     39  F2  UNL     1      22.428  -8.705 -34.084  0.00  0.00    +0.000 F 
ATOM     40  F3  UNL     1      22.767  -7.155 -32.485  0.00  0.00    +0.000 F 
ENDBRANCH  35  37
ENDBRANCH  29  31
ENDBRANCH  27  29
ENDBRANCH  25  27
ENDBRANCH   3  25
TORSDOF 7
