REMARK  Name = resultss/4CJN/ligands/lig_98_t0.pdb
REMARK  10 active torsions:
REMARK  status: ('A' for Active; 'I' for Inactive)
REMARK    1  A    between atoms: C6_6  and  C8_30
REMARK    2  A    between atoms: C15_8  and  O3_40
REMARK    3  A    between atoms: C26_13  and  C27_14
REMARK    4  A    between atoms: C28_15  and  C29_16
REMARK    5  A    between atoms: C32_19  and  C33_23
REMARK    6  A    between atoms: C8_30  and  O1_31
REMARK    7  A    between atoms: O1_31  and  C9_32
REMARK    8  A    between atoms: C9_32  and  C10_34
REMARK    9  A    between atoms: O3_40  and  C16_41
REMARK   10  A    between atoms: C16_41  and  C17_43
REMARK                            x       y       z     vdW  Elec       q    Type
REMARK                         _______ _______ _______ _____ _____    ______ ____
ROOT
ATOM      1  C1  UNL     1      30.139  -9.933 -43.477  0.00  0.00    +0.000 C 
ATOM      2  C2  UNL     1      29.609  -9.630 -42.278  0.00  0.00    +0.000 C 
ATOM      3  C3  UNL     1      30.047 -10.481 -41.088  0.00  0.00    +0.000 C 
ATOM      4  C4  UNL     1      29.620  -9.996 -39.678  0.00  0.00    +0.000 C 
ATOM      5  C5  UNL     1      29.215  -8.502 -39.654  0.00  0.00    +0.000 C 
ATOM      6  C6  UNL     1      29.016  -7.777 -38.229  0.00  0.00    +0.000 C 
ATOM      7  C7  UNL     1      29.757  -6.399 -38.233  0.00  0.00    +0.000 C 
ATOM      8  C15 UNL     1      27.507  -7.458 -37.961  0.00  0.00    +0.000 C 
ATOM      9  C22 UNL     1      26.776  -6.742 -39.130  0.00  0.00    +0.000 C 
ATOM     10  C23 UNL     1      27.413  -6.917 -40.520  0.00  0.00    +0.000 C 
ATOM     11  C24 UNL     1      28.062  -8.304 -40.718  0.00  0.00    +0.000 C 
ATOM     12  C25 UNL     1      26.933  -9.393 -40.657  0.00  0.00    +0.000 C 
ATOM     13  C26 UNL     1      28.738  -8.378 -42.129  0.00  0.00    +0.000 C 
ENDROOT
BRANCH  13  14
ATOM     14  C27 UNL     1      27.722  -8.287 -43.255  0.00  0.00    +0.000 C 
ATOM     15  C28 UNL     1      27.625  -7.194 -44.023  0.00  0.00    +0.000 C 
BRANCH  15  16
ATOM     16  C29 UNL     1      26.650  -7.054 -45.123  0.00  0.00    +0.000 C 
ATOM     17  C30 UNL     1      25.333  -7.001 -44.939  0.00  0.00    +0.000 C 
ATOM     18  C31 UNL     1      24.697  -6.887 -46.259  0.00  0.00    +0.000 C 
ATOM     19  C32 UNL     1      23.390  -6.811 -46.536  0.00  0.00    +0.000 C 
ATOM     20  O5  UNL     1      25.678  -6.900 -47.241  0.00  0.00    +0.000 OA
ATOM     21  C39 UNL     1      26.884  -6.998 -46.569  0.00  0.00    +0.000 C 
ATOM     22  O6  UNL     1      27.999  -7.065 -47.150  0.00  0.00    +0.000 OA
BRANCH  19  23
ATOM     23  C33 UNL     1      22.326  -6.754 -45.511  0.00  0.00    +0.000 C 
ATOM     24  C34 UNL     1      20.983  -6.777 -45.917  0.00  0.00    +0.000 C 
ATOM     25  C35 UNL     1      19.957  -6.698 -44.970  0.00  0.00    +0.000 C 
ATOM     26  C36 UNL     1      20.264  -6.574 -43.613  0.00  0.00    +0.000 C 
ATOM     27  C37 UNL     1      21.600  -6.517 -43.201  0.00  0.00    +0.000 C 
ATOM     28 BR1  UNL     1      22.020  -6.318 -41.349  0.00  0.00    +0.000 Br
ATOM     29  C38 UNL     1      22.628  -6.595 -44.146  0.00  0.00    +0.000 C 
ENDBRANCH  19  23
ENDBRANCH  15  16
ENDBRANCH  13  14
BRANCH   6  30
ATOM     30  C8  UNL     1      29.565  -8.608 -36.991  0.00  0.00    +0.000 C 
BRANCH  30  31
ATOM     31  O1  UNL     1      30.184  -7.825 -35.961  0.00  0.00    +0.000 OA
BRANCH  31  32
ATOM     32  C9  UNL     1      30.095  -8.048 -34.580  0.00  0.00    +0.000 C 
ATOM     33  O2  UNL     1      30.940  -8.769 -33.990  0.00  0.00    +0.000 OA
BRANCH  32  34
ATOM     34  C10 UNL     1      29.010  -7.403 -33.809  0.00  0.00    +0.000 C 
ATOM     35  C11 UNL     1      28.139  -6.492 -34.426  0.00  0.00    +0.000 C 
ATOM     36  C12 UNL     1      27.116  -5.890 -33.689  0.00  0.00    +0.000 C 
ATOM     37  C13 UNL     1      26.971  -6.204 -32.338  0.00  0.00    +0.000 C 
ATOM     38  N1  UNL     1      27.820  -7.088 -31.750  0.00  0.00    +0.000 NA
ATOM     39  C14 UNL     1      28.824  -7.685 -32.444  0.00  0.00    +0.000 C 
ENDBRANCH  32  34
ENDBRANCH  31  32
ENDBRANCH  30  31
ENDBRANCH   6  30
BRANCH   8  40
ATOM     40  O3  UNL     1      26.819  -8.652 -37.581  0.00  0.00    +0.000 OA
BRANCH  40  41
ATOM     41  C16 UNL     1      25.451  -8.716 -37.297  0.00  0.00    +0.000 C 
ATOM     42  O4  UNL     1      24.617  -8.900 -38.226  0.00  0.00    +0.000 OA
BRANCH  41  43
ATOM     43  C17 UNL     1      24.990  -8.568 -35.902  0.00  0.00    +0.000 C 
ATOM     44  C18 UNL     1      25.619  -9.273 -34.862  0.00  0.00    +0.000 C 
ATOM     45  C19 UNL     1      25.179  -9.123 -33.547  0.00  0.00    +0.000 C 
ATOM     46  C20 UNL     1      24.114  -8.264 -33.275  0.00  0.00    +0.000 C 
ATOM     47  N2  UNL     1      23.512  -7.585 -34.287  0.00  0.00    +0.000 NA
ATOM     48  C21 UNL     1      23.920  -7.715 -35.578  0.00  0.00    +0.000 C 
ENDBRANCH  41  43
ENDBRANCH  40  41
ENDBRANCH   8  40
TORSDOF 10
