REMARK  Name = resultss/4CJN/ligands/lig_343_t0.pdb
REMARK  10 active torsions:
REMARK  status: ('A' for Active; 'I' for Inactive)
REMARK    1  A    between atoms: C2_1  and  O1_28
REMARK    2  A    between atoms: C4_3  and  C5_7
REMARK    3  A    between atoms: C21_6  and  O3_29
REMARK    4  A    between atoms: N2_17  and  N3_19
REMARK    5  A    between atoms: N3_19  and  C13_21
REMARK    6  A    between atoms: O3_29  and  C22_30
REMARK    7  A    between atoms: C22_30  and  C23_31
REMARK    8  A    between atoms: N4_33  and  C25_36
REMARK    9  A    between atoms: C25_36  and  C26_37
REMARK   10  A    between atoms: N5_39  and  C27_41
REMARK                            x       y       z     vdW  Elec       q    Type
REMARK                         _______ _______ _______ _____ _____    ______ ____
ROOT
ATOM      1  C2  UNL     1      27.781 -10.424 -39.517  0.00  0.00    +0.000 C 
ATOM      2  C3  UNL     1      27.969 -10.541 -38.127  0.00  0.00    +0.000 C 
ATOM      3  C4  UNL     1      27.926  -9.409 -37.299  0.00  0.00    +0.000 C 
ATOM      4  C19 UNL     1      27.655  -8.156 -37.867  0.00  0.00    +0.000 C 
ATOM      5  C20 UNL     1      27.482  -8.028 -39.244  0.00  0.00    +0.000 C 
ATOM      6  C21 UNL     1      27.550  -9.158 -40.083  0.00  0.00    +0.000 C 
ENDROOT
BRANCH   3   7
ATOM      7  C5  UNL     1      28.092  -9.535 -35.799  0.00  0.00    +0.000 C 
ATOM      8  N1  UNL     1      29.511  -9.744 -35.490  0.00  0.00    +0.000 N 
ATOM      9  C6  UNL     1      30.155  -9.186 -34.337  0.00  0.00    +0.000 C 
ATOM     10  C7  UNL     1      31.413  -9.664 -33.929  0.00  0.00    +0.000 C 
ATOM     11  C8  UNL     1      32.049  -9.112 -32.813  0.00  0.00    +0.000 C 
ATOM     12  C9  UNL     1      31.446  -8.065 -32.113  0.00  0.00    +0.000 C 
ATOM     13  C10 UNL     1      30.205  -7.571 -32.524  0.00  0.00    +0.000 C 
ATOM     14  C11 UNL     1      29.552  -8.136 -33.634  0.00  0.00    +0.000 C 
ATOM     15  C12 UNL     1      28.247  -7.641 -34.097  0.00  0.00    +0.000 C 
ATOM     16  O2  UNL     1      27.738  -6.612 -33.573  0.00  0.00    +0.000 OA
ATOM     17  N2  UNL     1      27.540  -8.335 -35.138  0.00  0.00    +0.000 N 
ATOM     18  H6  UNL     1      30.011 -10.495 -36.019  0.00  0.00    +0.000 HD
BRANCH  17  19
ATOM     19  N3  UNL     1      26.296  -7.823 -35.557  0.00  0.00    +0.000 N 
ATOM     20  H11 UNL     1      26.272  -7.164 -36.366  0.00  0.00    +0.000 HD
BRANCH  19  21
ATOM     21  C13 UNL     1      25.061  -8.180 -34.916  0.00  0.00    +0.000 C 
ATOM     22  C14 UNL     1      25.052  -8.960 -33.746  0.00  0.00    +0.000 C 
ATOM     23  C15 UNL     1      23.845  -9.258 -33.109  0.00  0.00    +0.000 C 
ATOM     24  C16 UNL     1      22.639  -8.784 -33.631  0.00  0.00    +0.000 C 
ATOM     25  C17 UNL     1      22.641  -8.001 -34.788  0.00  0.00    +0.000 C 
ATOM     26  C18 UNL     1      23.845  -7.695 -35.425  0.00  0.00    +0.000 C 
ENDBRANCH  19  21
ENDBRANCH  17  19
ENDBRANCH   3   7
BRANCH   1  28
ATOM     27  C1  UNL     1      27.261 -12.817 -40.034  0.00  0.00    +0.000 C 
ATOM     28  O1  UNL     1      27.800 -11.542 -40.366  0.00  0.00    +0.000 OA
ENDBRANCH   1  28
BRANCH   6  29
ATOM     29  O3  UNL     1      27.391  -9.062 -41.476  0.00  0.00    +0.000 OA
BRANCH  29  30
ATOM     30  C22 UNL     1      26.304  -9.635 -42.199  0.00  0.00    +0.000 C 
BRANCH  30  31
ATOM     31  C23 UNL     1      25.109  -8.746 -42.100  0.00  0.00    +0.000 C 
ATOM     32  C24 UNL     1      24.631  -7.892 -43.071  0.00  0.00    +0.000 C 
ATOM     33  N4  UNL     1      23.576  -7.268 -42.526  0.00  0.00    +0.000 N 
ATOM     34  N6  UNL     1      23.424  -7.706 -41.286  0.00  0.00    +0.000 NA
ATOM     35  N7  UNL     1      24.346  -8.613 -40.999  0.00  0.00    +0.000 NA
BRANCH  33  36
ATOM     36  C25 UNL     1      22.779  -6.206 -43.131  0.00  0.00    +0.000 C 
BRANCH  36  37
ATOM     37  C26 UNL     1      21.589  -6.794 -43.825  0.00  0.00    +0.000 C 
ATOM     38  O4  UNL     1      21.132  -7.901 -43.434  0.00  0.00    +0.000 OA
ATOM     39  N5  UNL     1      21.035  -6.139 -44.976  0.00  0.00    +0.000 N 
ATOM     40  H24 UNL     1      21.619  -5.410 -45.448  0.00  0.00    +0.000 HD
BRANCH  39  41
ATOM     41  C27 UNL     1      19.818  -6.551 -45.622  0.00  0.00    +0.000 C 
ATOM     42  C28 UNL     1      19.879  -7.151 -46.888  0.00  0.00    +0.000 C 
ATOM     43  C29 UNL     1      18.711  -7.532 -47.552  0.00  0.00    +0.000 C 
ATOM     44  C30 UNL     1      17.457  -7.312 -46.958  0.00  0.00    +0.000 C 
ATOM     45  C31 UNL     1      16.200  -7.676 -47.694  0.00  0.00    +0.000 C 
ATOM     46  C32 UNL     1      17.389  -6.676 -45.707  0.00  0.00    +0.000 C 
ATOM     47  C33 UNL     1      18.561  -6.298 -45.042  0.00  0.00    +0.000 C 
ENDBRANCH  39  41
ENDBRANCH  36  37
ENDBRANCH  33  36
ENDBRANCH  30  31
ENDBRANCH  29  30
ENDBRANCH   6  29
TORSDOF 10
