REMARK  Name = resultss/4CJN/ligands/lig_416_t0.pdb
REMARK  6 active torsions:
REMARK  status: ('A' for Active; 'I' for Inactive)
REMARK    1  A    between atoms: C10_1  and  C9_22
REMARK    2  A    between atoms: C20_12  and  C21_15
REMARK    3  A    between atoms: N3_21  and  N2_25
REMARK    4  A    between atoms: N2_25  and  C8_27
REMARK    5  A    between atoms: C8_27  and  N1_29
REMARK    6  A    between atoms: N1_29  and  C7_37
REMARK                            x       y       z     vdW  Elec       q    Type
REMARK                         _______ _______ _______ _____ _____    ______ ____
ROOT
ATOM      1  C10 UNL     1      25.214  -7.463 -38.998  0.00  0.00    +0.000 C 
ATOM      2  C11 UNL     1      24.301  -7.532 -37.923  0.00  0.00    +0.000 C 
ATOM      3  C12 UNL     1      24.795  -7.956 -36.695  0.00  0.00    +0.000 A 
ATOM      4  C13 UNL     1      26.119  -8.292 -36.514  0.00  0.00    +0.000 A 
ATOM      5  N4  UNL     1      26.347  -8.735 -35.255  0.00  0.00    +0.000 N 
ATOM      6  C14 UNL     1      25.148  -8.656 -34.638  0.00  0.00    +0.000 A 
ATOM      7  C15 UNL     1      24.852  -9.012 -33.323  0.00  0.00    +0.000 C 
ATOM      8  C16 UNL     1      23.522  -8.868 -32.884  0.00  0.00    +0.000 C 
ATOM      9  C17 UNL     1      22.526  -8.381 -33.760  0.00  0.00    +0.000 C 
ATOM     10  C18 UNL     1      22.846  -8.034 -35.084  0.00  0.00    +0.000 C 
ATOM     11  C19 UNL     1      24.172  -8.181 -35.489  0.00  0.00    +0.000 A 
ATOM     12  C20 UNL     1      27.021  -8.201 -37.583  0.00  0.00    +0.000 C 
ATOM     13  N5  UNL     1      26.529  -7.797 -38.793  0.00  0.00    +0.000 NA
ATOM     14  H12 UNL     1      27.236  -9.097 -34.846  0.00  0.00    +0.000 HD
ENDROOT
BRANCH  12  15
ATOM     15  C21 UNL     1      28.457  -8.526 -37.456  0.00  0.00    +0.000 C 
ATOM     16  C22 UNL     1      29.347  -7.565 -36.949  0.00  0.00    +0.000 C 
ATOM     17  C23 UNL     1      30.704  -7.869 -36.800  0.00  0.00    +0.000 C 
ATOM     18  C24 UNL     1      31.180  -9.137 -37.142  0.00  0.00    +0.000 C 
ATOM     19  C25 UNL     1      30.297 -10.106 -37.626  0.00  0.00    +0.000 C 
ATOM     20  C26 UNL     1      28.940  -9.807 -37.776  0.00  0.00    +0.000 C 
ENDBRANCH  12  15
BRANCH   1  22
ATOM     21  N3  UNL     1      23.730  -7.740 -41.026  0.00  0.00    +0.000 N 
ATOM     22  C9  UNL     1      24.773  -7.030 -40.339  0.00  0.00    +0.000 C 
ATOM     23  O1  UNL     1      25.302  -6.020 -40.880  0.00  0.00    +0.000 OA
ATOM     24  H10 UNL     1      23.085  -8.345 -40.471  0.00  0.00    +0.000 HD
BRANCH  21  25
ATOM     25  N2  UNL     1      23.360  -7.414 -42.342  0.00  0.00    +0.000 N 
ATOM     26  H9  UNL     1      22.498  -6.844 -42.475  0.00  0.00    +0.000 HD
BRANCH  25  27
ATOM     27  C8  UNL     1      24.050  -7.934 -43.495  0.00  0.00    +0.000 C 
ATOM     28  S1  UNL     1      23.898  -7.214 -44.961  0.00  0.00    +0.000 S 
BRANCH  27  29
ATOM     29  N1  UNL     1      24.879  -9.101 -43.386  0.00  0.00    +0.000 N 
ATOM     30  H8  UNL     1      24.464 -10.024 -43.648  0.00  0.00    +0.000 HD
BRANCH  29  37
ATOM     31  C1  UNL     1      25.713 -10.601 -41.023  0.00  0.00    +0.000 C 
ATOM     32  C2  UNL     1      26.687  -9.802 -41.845  0.00  0.00    +0.000 C 
ATOM     33  C3  UNL     1      28.049  -9.799 -41.496  0.00  0.00    +0.000 C 
ATOM     34  C4  UNL     1      28.970  -9.070 -42.250  0.00  0.00    +0.000 C 
ATOM     35  C5  UNL     1      28.547  -8.348 -43.367  0.00  0.00    +0.000 C 
ATOM     36  C6  UNL     1      27.199  -8.352 -43.732  0.00  0.00    +0.000 C 
ATOM     37  C7  UNL     1      26.255  -9.067 -42.972  0.00  0.00    +0.000 C 
ENDBRANCH  29  37
ENDBRANCH  27  29
ENDBRANCH  25  27
ENDBRANCH  21  25
ENDBRANCH   1  22
TORSDOF 6
