REMARK  Name = resultss/4CJN/ligands/lig_424_t0.pdb
REMARK  7 active torsions:
REMARK  status: ('A' for Active; 'I' for Inactive)
REMARK    1  A    between atoms: C10_1  and  C9_22
REMARK    2  A    between atoms: C20_12  and  C21_15
REMARK    3  A    between atoms: N3_21  and  N2_25
REMARK    4  A    between atoms: N2_25  and  C8_27
REMARK    5  A    between atoms: C8_27  and  N1_29
REMARK    6  A    between atoms: N1_29  and  C7_36
REMARK    7  A    between atoms: C2_31  and  O1_38
REMARK                            x       y       z     vdW  Elec       q    Type
REMARK                         _______ _______ _______ _____ _____    ______ ____
ROOT
ATOM      1  C10 UNL     1      27.895  -9.984 -37.683  0.00  0.00    +0.000 C 
ATOM      2  C11 UNL     1      29.115  -9.929 -36.973  0.00  0.00    +0.000 C 
ATOM      3  C12 UNL     1      29.054  -9.572 -35.631  0.00  0.00    +0.000 A 
ATOM      4  C13 UNL     1      27.863  -9.273 -35.006  0.00  0.00    +0.000 A 
ATOM      5  N4  UNL     1      28.050  -9.016 -33.689  0.00  0.00    +0.000 N 
ATOM      6  C14 UNL     1      29.382  -9.139 -33.499  0.00  0.00    +0.000 A 
ATOM      7  C15 UNL     1      30.079  -8.981 -32.302  0.00  0.00    +0.000 C 
ATOM      8  C16 UNL     1      31.473  -9.172 -32.321  0.00  0.00    +0.000 C 
ATOM      9  C17 UNL     1      32.134  -9.520 -33.521  0.00  0.00    +0.000 C 
ATOM     10  C18 UNL     1      31.409  -9.680 -34.716  0.00  0.00    +0.000 C 
ATOM     11  C19 UNL     1      30.031  -9.479 -34.667  0.00  0.00    +0.000 A 
ATOM     12  C20 UNL     1      26.661  -9.311 -35.725  0.00  0.00    +0.000 C 
ATOM     13  N5  UNL     1      26.722  -9.677 -37.042  0.00  0.00    +0.000 NA
ATOM     14  H12 UNL     1      27.332  -8.804 -32.962  0.00  0.00    +0.000 HD
ENDROOT
BRANCH  12  15
ATOM     15  C21 UNL     1      25.353  -8.979 -35.125  0.00  0.00    +0.000 C 
ATOM     16  C22 UNL     1      25.022  -9.408 -33.827  0.00  0.00    +0.000 C 
ATOM     17  C23 UNL     1      23.791  -9.062 -33.261  0.00  0.00    +0.000 C 
ATOM     18  C24 UNL     1      22.886  -8.276 -33.981  0.00  0.00    +0.000 C 
ATOM     19  C25 UNL     1      23.215  -7.828 -35.263  0.00  0.00    +0.000 C 
ATOM     20  C26 UNL     1      24.446  -8.171 -35.831  0.00  0.00    +0.000 C 
ENDBRANCH  12  15
BRANCH   1  22
ATOM     21  N3  UNL     1      29.089 -10.625 -39.817  0.00  0.00    +0.000 N 
ATOM     22  C9  UNL     1      27.866 -10.356 -39.112  0.00  0.00    +0.000 C 
ATOM     23  O2  UNL     1      26.764 -10.421 -39.721  0.00  0.00    +0.000 OA
ATOM     24  H10 UNL     1      29.983 -10.240 -39.440  0.00  0.00    +0.000 HD
BRANCH  21  25
ATOM     25  N2  UNL     1      29.105 -11.202 -41.099  0.00  0.00    +0.000 N 
ATOM     26  H9  UNL     1      28.448 -11.991 -41.297  0.00  0.00    +0.000 HD
BRANCH  25  27
ATOM     27  C8  UNL     1      29.866 -10.652 -42.184  0.00  0.00    +0.000 C 
ATOM     28  S1  UNL     1      31.071 -11.554 -42.841  0.00  0.00    +0.000 S 
BRANCH  27  29
ATOM     29  N1  UNL     1      29.418  -9.453 -42.841  0.00  0.00    +0.000 N 
ATOM     30  H8  UNL     1      30.077  -8.987 -43.504  0.00  0.00    +0.000 HD
BRANCH  29  36
ATOM     31  C2  UNL     1      28.103  -7.799 -41.535  0.00  0.00    +0.000 C 
ATOM     32  C3  UNL     1      26.866  -7.176 -41.276  0.00  0.00    +0.000 C 
ATOM     33  C4  UNL     1      25.723  -7.550 -41.988  0.00  0.00    +0.000 C 
ATOM     34  C5  UNL     1      25.799  -8.549 -42.958  0.00  0.00    +0.000 C 
ATOM     35  C6  UNL     1      27.020  -9.169 -43.229  0.00  0.00    +0.000 C 
ATOM     36  C7  UNL     1      28.181  -8.785 -42.543  0.00  0.00    +0.000 C 
BRANCH  31  38
ATOM     37  C1  UNL     1      29.316  -6.510 -39.763  0.00  0.00    +0.000 C 
ATOM     38  O1  UNL     1      29.258  -7.482 -40.802  0.00  0.00    +0.000 OA
ENDBRANCH  31  38
ENDBRANCH  29  36
ENDBRANCH  27  29
ENDBRANCH  25  27
ENDBRANCH  21  25
ENDBRANCH   1  22
TORSDOF 7
