REMARK  Name = resultss/4CJN/ligands/lig_100_t0.pdb
REMARK  10 active torsions:
REMARK  status: ('A' for Active; 'I' for Inactive)
REMARK    1  A    between atoms: C6_6  and  C8_29
REMARK    2  A    between atoms: C15_8  and  O3_39
REMARK    3  A    between atoms: C26_13  and  C27_14
REMARK    4  A    between atoms: C28_15  and  C29_16
REMARK    5  A    between atoms: C32_19  and  C33_23
REMARK    6  A    between atoms: C8_29  and  O1_30
REMARK    7  A    between atoms: O1_30  and  C9_31
REMARK    8  A    between atoms: C9_31  and  C10_33
REMARK    9  A    between atoms: O3_39  and  C16_40
REMARK   10  A    between atoms: C16_40  and  C17_42
REMARK                            x       y       z     vdW  Elec       q    Type
REMARK                         _______ _______ _______ _____ _____    ______ ____
ROOT
ATOM      1  C1  UNL     1      29.600 -10.120 -42.940  0.00  0.00    +0.000 C 
ATOM      2  C2  UNL     1      28.906  -9.787 -41.837  0.00  0.00    +0.000 C 
ATOM      3  C3  UNL     1      28.606 -10.890 -40.825  0.00  0.00    +0.000 C 
ATOM      4  C4  UNL     1      28.222 -10.438 -39.391  0.00  0.00    +0.000 C 
ATOM      5  C5  UNL     1      28.469  -8.928 -39.141  0.00  0.00    +0.000 C 
ATOM      6  C6  UNL     1      28.333  -8.362 -37.638  0.00  0.00    +0.000 C 
ATOM      7  C7  UNL     1      29.572  -7.466 -37.304  0.00  0.00    +0.000 C 
ATOM      8  C15 UNL     1      27.077  -7.437 -37.486  0.00  0.00    +0.000 C 
ATOM      9  C22 UNL     1      26.925  -6.350 -38.585  0.00  0.00    +0.000 C 
ATOM     10  C23 UNL     1      27.676  -6.624 -39.899  0.00  0.00    +0.000 C 
ATOM     11  C24 UNL     1      27.714  -8.123 -40.273  0.00  0.00    +0.000 C 
ATOM     12  C25 UNL     1      26.249  -8.609 -40.532  0.00  0.00    +0.000 C 
ATOM     13  C26 UNL     1      28.548  -8.317 -41.587  0.00  0.00    +0.000 C 
ENDROOT
BRANCH  13  14
ATOM     14  C27 UNL     1      27.925  -7.633 -42.796  0.00  0.00    +0.000 C 
ATOM     15  C28 UNL     1      26.950  -8.178 -43.534  0.00  0.00    +0.000 C 
BRANCH  15  16
ATOM     16  C29 UNL     1      26.419  -7.531 -44.748  0.00  0.00    +0.000 C 
ATOM     17  C30 UNL     1      25.135  -7.243 -44.934  0.00  0.00    +0.000 C 
ATOM     18  C31 UNL     1      24.998  -6.644 -46.271  0.00  0.00    +0.000 C 
ATOM     19  C32 UNL     1      23.878  -6.234 -46.880  0.00  0.00    +0.000 C 
ATOM     20  O5  UNL     1      26.254  -6.539 -46.854  0.00  0.00    +0.000 OA
ATOM     21  C39 UNL     1      27.141  -7.081 -45.939  0.00  0.00    +0.000 C 
ATOM     22  O6  UNL     1      28.387  -7.122 -46.116  0.00  0.00    +0.000 OA
BRANCH  19  23
ATOM     23  C33 UNL     1      22.517  -6.402 -46.327  0.00  0.00    +0.000 C 
ATOM     24  C34 UNL     1      22.237  -5.904 -45.043  0.00  0.00    +0.000 C 
ATOM     25  C35 UNL     1      20.951  -6.016 -44.506  0.00  0.00    +0.000 C 
ATOM     26  C36 UNL     1      19.929  -6.607 -45.252  0.00  0.00    +0.000 C 
ATOM     27  C37 UNL     1      20.188  -7.076 -46.543  0.00  0.00    +0.000 C 
ATOM     28  C38 UNL     1      21.473  -6.963 -47.086  0.00  0.00    +0.000 C 
ENDBRANCH  19  23
ENDBRANCH  15  16
ENDBRANCH  13  14
BRANCH   6  29
ATOM     29  C8  UNL     1      28.251  -9.490 -36.522  0.00  0.00    +0.000 C 
BRANCH  29  30
ATOM     30  O1  UNL     1      29.338  -9.502 -35.590  0.00  0.00    +0.000 OA
BRANCH  30  31
ATOM     31  C9  UNL     1      29.236  -9.632 -34.197  0.00  0.00    +0.000 C 
ATOM     32  O2  UNL     1      28.210 -10.140 -33.673  0.00  0.00    +0.000 OA
BRANCH  31  33
ATOM     33  C10 UNL     1      30.358  -9.191 -33.341  0.00  0.00    +0.000 C 
ATOM     34  C11 UNL     1      31.455 -10.035 -33.091  0.00  0.00    +0.000 C 
ATOM     35  C12 UNL     1      32.500  -9.601 -32.272  0.00  0.00    +0.000 C 
ATOM     36  C13 UNL     1      32.447  -8.326 -31.709  0.00  0.00    +0.000 C 
ATOM     37  N1  UNL     1      31.384  -7.518 -31.958  0.00  0.00    +0.000 NA
ATOM     38  C14 UNL     1      30.351  -7.916 -32.750  0.00  0.00    +0.000 C 
ENDBRANCH  31  33
ENDBRANCH  30  31
ENDBRANCH  29  30
ENDBRANCH   6  29
BRANCH   8  39
ATOM     39  O3  UNL     1      25.890  -8.230 -37.386  0.00  0.00    +0.000 OA
BRANCH  39  40
ATOM     40  C16 UNL     1      24.679  -7.756 -36.865  0.00  0.00    +0.000 C 
ATOM     41  O4  UNL     1      23.944  -6.997 -37.555  0.00  0.00    +0.000 OA
BRANCH  40  42
ATOM     42  C17 UNL     1      24.270  -8.141 -35.498  0.00  0.00    +0.000 C 
ATOM     43  C18 UNL     1      25.211  -8.607 -34.564  0.00  0.00    +0.000 C 
ATOM     44  C19 UNL     1      24.802  -8.978 -33.283  0.00  0.00    +0.000 C 
ATOM     45  C20 UNL     1      23.454  -8.875 -32.939  0.00  0.00    +0.000 C 
ATOM     46  N2  UNL     1      22.551  -8.420 -33.847  0.00  0.00    +0.000 NA
ATOM     47  C21 UNL     1      22.923  -8.056 -35.104  0.00  0.00    +0.000 C 
ENDBRANCH  40  42
ENDBRANCH  39  40
ENDBRANCH   8  39
TORSDOF 10
