REMARK  Name = resultss/4CJN/ligands/lig_431_t0.pdb
REMARK  7 active torsions:
REMARK  status: ('A' for Active; 'I' for Inactive)
REMARK    1  A    between atoms: C9_1  and  C1_22
REMARK    2  A    between atoms: C19_12  and  C20_15
REMARK    3  A    between atoms: N1_23  and  N2_25
REMARK    4  A    between atoms: N2_25  and  C2_27
REMARK    5  A    between atoms: C2_27  and  N3_29
REMARK    6  A    between atoms: N3_29  and  C3_31
REMARK    7  A    between atoms: C7_35  and  N4_37
REMARK                            x       y       z     vdW  Elec       q    Type
REMARK                         _______ _______ _______ _____ _____    ______ ____
ROOT
ATOM      1  C9  UNL     1      26.441  -9.510 -40.918  0.00  0.00    +0.000 C 
ATOM      2  C10 UNL     1      26.289  -9.460 -39.515  0.00  0.00    +0.000 C 
ATOM      3  C11 UNL     1      27.416  -9.718 -38.744  0.00  0.00    +0.000 A 
ATOM      4  C12 UNL     1      28.636 -10.019 -39.307  0.00  0.00    +0.000 A 
ATOM      5  N5  UNL     1      29.594 -10.163 -38.360  0.00  0.00    +0.000 N 
ATOM      6  C13 UNL     1      28.952  -9.967 -37.187  0.00  0.00    +0.000 A 
ATOM      7  C14 UNL     1      29.508  -9.992 -35.910  0.00  0.00    +0.000 C 
ATOM      8  C15 UNL     1      28.660  -9.733 -34.816  0.00  0.00    +0.000 C 
ATOM      9  C16 UNL     1      27.291  -9.452 -35.021  0.00  0.00    +0.000 C 
ATOM     10  C17 UNL     1      26.752  -9.424 -36.321  0.00  0.00    +0.000 C 
ATOM     11  C18 UNL     1      27.615  -9.691 -37.383  0.00  0.00    +0.000 A 
ATOM     12  C19 UNL     1      28.771 -10.083 -40.701  0.00  0.00    +0.000 C 
ATOM     13  N6  UNL     1      27.664  -9.816 -41.457  0.00  0.00    +0.000 NA
ATOM     14  H9  UNL     1      30.612 -10.347 -38.492  0.00  0.00    +0.000 HD
ENDROOT
BRANCH  12  15
ATOM     15  C20 UNL     1      30.044 -10.420 -41.371  0.00  0.00    +0.000 C 
ATOM     16  C21 UNL     1      31.235  -9.750 -41.043  0.00  0.00    +0.000 C 
ATOM     17  C22 UNL     1      32.436 -10.099 -41.669  0.00  0.00    +0.000 C 
ATOM     18  C23 UNL     1      32.460 -11.125 -42.615  0.00  0.00    +0.000 C 
ATOM     19  C24 UNL     1      31.285 -11.813 -42.930  0.00  0.00    +0.000 C 
ATOM     20  C25 UNL     1      30.082 -11.468 -42.307  0.00  0.00    +0.000 C 
ENDBRANCH  12  15
BRANCH   1  22
ATOM     21  O1  UNL     1      25.470  -9.222 -43.063  0.00  0.00    +0.000 OA
ATOM     22  C1  UNL     1      25.298  -9.231 -41.814  0.00  0.00    +0.000 C 
ATOM     23  N1  UNL     1      23.994  -8.968 -41.273  0.00  0.00    +0.000 N 
ATOM     24  H1  UNL     1      23.865  -8.963 -40.237  0.00  0.00    +0.000 HD
BRANCH  23  25
ATOM     25  N2  UNL     1      22.883  -8.763 -42.114  0.00  0.00    +0.000 N 
ATOM     26  H2  UNL     1      22.252  -9.564 -42.337  0.00  0.00    +0.000 HD
BRANCH  25  27
ATOM     27  C2  UNL     1      22.549  -7.469 -42.639  0.00  0.00    +0.000 C 
ATOM     28  S1  UNL     1      21.351  -6.582 -41.954  0.00  0.00    +0.000 S 
BRANCH  27  29
ATOM     29  N3  UNL     1      23.391  -6.848 -43.621  0.00  0.00    +0.000 N 
ATOM     30  H3  UNL     1      24.147  -6.207 -43.286  0.00  0.00    +0.000 HD
BRANCH  29  31
ATOM     31  C3  UNL     1      23.258  -7.056 -45.037  0.00  0.00    +0.000 C 
ATOM     32  C4  UNL     1      24.412  -7.180 -45.824  0.00  0.00    +0.000 C 
ATOM     33  C5  UNL     1      24.308  -7.355 -47.205  0.00  0.00    +0.000 C 
ATOM     34  C6  UNL     1      23.054  -7.397 -47.817  0.00  0.00    +0.000 C 
ATOM     35  C7  UNL     1      21.884  -7.253 -47.050  0.00  0.00    +0.000 C 
ATOM     36  C8  UNL     1      21.997  -7.076 -45.660  0.00  0.00    +0.000 C 
BRANCH  35  37
ATOM     37  N4  UNL     1      20.588  -7.279 -47.678  0.00  0.00    +0.000 N 
ATOM     38  O2  UNL     1      19.619  -7.833 -47.119  0.00  0.00    +0.000 OA
ATOM     39  O3  UNL     1      20.395  -6.691 -48.908  0.00  0.00    +0.000 OA
ENDBRANCH  35  37
ENDBRANCH  29  31
ENDBRANCH  27  29
ENDBRANCH  25  27
ENDBRANCH  23  25
ENDBRANCH   1  22
TORSDOF 7
