REMARK  Name = resultss/4CJN/ligands/lig_180_t0.pdb
REMARK  4 active torsions:
REMARK  status: ('A' for Active; 'I' for Inactive)
REMARK    1  A    between atoms: C9_1  and  C1_17
REMARK    2  A    between atoms: C12_4  and  C13_7
REMARK    3  A    between atoms: N1_18  and  N2_20
REMARK    4  A    between atoms: C2_21  and  C3_22
REMARK                            x       y       z     vdW  Elec       q    Type
REMARK                         _______ _______ _______ _____ _____    ______ ____
ROOT
ATOM      1  C9  UNL     1      28.139  -9.076 -40.442  0.00  0.00    +0.000 C 
ATOM      2  C10 UNL     1      27.623  -7.776 -40.582  0.00  0.00    +0.000 C 
ATOM      3  C11 UNL     1      27.145  -7.331 -41.819  0.00  0.00    +0.000 C 
ATOM      4  C12 UNL     1      27.164  -8.178 -42.941  0.00  0.00    +0.000 C 
ATOM      5  C20 UNL     1      27.669  -9.482 -42.797  0.00  0.00    +0.000 C 
ATOM      6  C21 UNL     1      28.146  -9.925 -41.561  0.00  0.00    +0.000 C 
ENDROOT
BRANCH   4   7
ATOM      7  C13 UNL     1      26.656  -7.696 -44.246  0.00  0.00    +0.000 A 
ATOM      8  N3  UNL     1      27.464  -7.430 -45.305  0.00  0.00    +0.000 NA
ATOM      9  C14 UNL     1      26.750  -7.003 -46.379  0.00  0.00    +0.000 A 
ATOM     10  C15 UNL     1      27.309  -6.654 -47.610  0.00  0.00    +0.000 C 
ATOM     11  C16 UNL     1      26.456  -6.228 -48.642  0.00  0.00    +0.000 C 
ATOM     12  C17 UNL     1      25.064  -6.155 -48.434  0.00  0.00    +0.000 C 
ATOM     13  C18 UNL     1      24.513  -6.507 -47.191  0.00  0.00    +0.000 C 
ATOM     14  C19 UNL     1      25.381  -6.927 -46.186  0.00  0.00    +0.000 A 
ATOM     15  S1  UNL     1      25.023  -7.406 -44.620  0.00  0.00    +0.000 S 
ENDBRANCH   4   7
BRANCH   1  17
ATOM     16  O1  UNL     1      27.840 -10.085 -38.315  0.00  0.00    +0.000 OA
ATOM     17  C1  UNL     1      28.644  -9.564 -39.136  0.00  0.00    +0.000 C 
ATOM     18  N1  UNL     1      30.033  -9.475 -38.792  0.00  0.00    +0.000 N 
ATOM     19  H1  UNL     1      30.736  -9.202 -39.516  0.00  0.00    +0.000 HD
BRANCH  18  20
ATOM     20  N2  UNL     1      30.458  -9.822 -37.500  0.00  0.00    +0.000 NA
ATOM     21  C2  UNL     1      30.677  -8.925 -36.589  0.00  0.00    +0.000 C 
BRANCH  21  22
ATOM     22  C3  UNL     1      31.125  -9.309 -35.235  0.00  0.00    +0.000 C 
ATOM     23  C4  UNL     1      30.169  -9.635 -34.258  0.00  0.00    +0.000 C 
ATOM     24  C5  UNL     1      30.571 -10.001 -32.970  0.00  0.00    +0.000 C 
ATOM     25  C6  UNL     1      31.930 -10.045 -32.645  0.00  0.00    +0.000 C 
ATOM     26 CL1  UNL     1      32.431 -10.505 -31.027  0.00  0.00    +0.000 Cl
ATOM     27  C7  UNL     1      32.888  -9.723 -33.610  0.00  0.00    +0.000 C 
ATOM     28  C8  UNL     1      32.491  -9.356 -34.899  0.00  0.00    +0.000 C 
ENDBRANCH  21  22
ENDBRANCH  18  20
ENDBRANCH   1  17
TORSDOF 4
