REMARK  Name = resultss/4CJN/ligands/lig_336_t1.pdb
REMARK  12 active torsions:
REMARK  status: ('A' for Active; 'I' for Inactive)
REMARK    1  A    between atoms: C2_1  and  O1_28
REMARK    2  A    between atoms: C4_3  and  C5_7
REMARK    3  A    between atoms: C21_6  and  O3_29
REMARK    4  A    between atoms: N2_17  and  N3_19
REMARK    5  A    between atoms: N3_19  and  C13_21
REMARK    6  A    between atoms: O3_29  and  C22_30
REMARK    7  A    between atoms: C22_30  and  C23_31
REMARK    8  A    between atoms: N4_33  and  C25_36
REMARK    9  A    between atoms: C25_36  and  C26_37
REMARK   10  A    between atoms: C26_37  and  O4_39
REMARK   11  A    between atoms: N5_38  and  C27_41
REMARK   12  A    between atoms: C27_41  and  C28_42
REMARK                            x       y       z     vdW  Elec       q    Type
REMARK                         _______ _______ _______ _____ _____    ______ ____
ROOT
ATOM      1  C2  UNL     1      26.057  -7.123 -38.957  0.00  0.00    +0.000 C 
ATOM      2  C3  UNL     1      26.970  -6.831 -37.925  0.00  0.00    +0.000 C 
ATOM      3  C4  UNL     1      27.262  -7.789 -36.939  0.00  0.00    +0.000 C 
ATOM      4  C19 UNL     1      26.604  -9.030 -36.968  0.00  0.00    +0.000 C 
ATOM      5  C20 UNL     1      25.705  -9.330 -37.990  0.00  0.00    +0.000 C 
ATOM      6  C21 UNL     1      25.438  -8.383 -39.000  0.00  0.00    +0.000 C 
ENDROOT
BRANCH   3   7
ATOM      7  C5  UNL     1      28.252  -7.486 -35.836  0.00  0.00    +0.000 C 
ATOM      8  N1  UNL     1      29.252  -8.559 -35.779  0.00  0.00    +0.000 N 
ATOM      9  C6  UNL     1      29.924  -8.915 -34.564  0.00  0.00    +0.000 C 
ATOM     10  C7  UNL     1      31.117  -9.653 -34.608  0.00  0.00    +0.000 C 
ATOM     11  C8  UNL     1      31.784  -9.984 -33.424  0.00  0.00    +0.000 C 
ATOM     12  C9  UNL     1      31.259  -9.595 -32.191  0.00  0.00    +0.000 C 
ATOM     13  C10 UNL     1      30.057  -8.880 -32.137  0.00  0.00    +0.000 C 
ATOM     14  C11 UNL     1      29.386  -8.535 -33.328  0.00  0.00    +0.000 C 
ATOM     15  C12 UNL     1      28.120  -7.784 -33.314  0.00  0.00    +0.000 C 
ATOM     16  O2  UNL     1      27.539  -7.538 -32.223  0.00  0.00    +0.000 OA
ATOM     17  N2  UNL     1      27.547  -7.322 -34.548  0.00  0.00    +0.000 N 
ATOM     18  H6  UNL     1      29.657  -8.895 -36.684  0.00  0.00    +0.000 HD
BRANCH  17  19
ATOM     19  N3  UNL     1      26.349  -6.586 -34.496  0.00  0.00    +0.000 N 
ATOM     20  H11 UNL     1      26.404  -5.542 -34.555  0.00  0.00    +0.000 HD
BRANCH  19  21
ATOM     21  C13 UNL     1      25.059  -7.221 -34.426  0.00  0.00    +0.000 C 
ATOM     22  C14 UNL     1      24.786  -8.208 -33.463  0.00  0.00    +0.000 C 
ATOM     23  C15 UNL     1      23.540  -8.845 -33.438  0.00  0.00    +0.000 C 
ATOM     24  C16 UNL     1      22.560  -8.501 -34.374  0.00  0.00    +0.000 C 
ATOM     25  C17 UNL     1      22.824  -7.526 -35.340  0.00  0.00    +0.000 C 
ATOM     26  C18 UNL     1      24.070  -6.889 -35.367  0.00  0.00    +0.000 C 
ENDBRANCH  19  21
ENDBRANCH  17  19
ENDBRANCH   3   7
BRANCH   1  28
ATOM     27  C1  UNL     1      26.548  -5.883 -41.072  0.00  0.00    +0.000 C 
ATOM     28  O1  UNL     1      25.731  -6.183 -39.945  0.00  0.00    +0.000 OA
ENDBRANCH   1  28
BRANCH   6  29
ATOM     29  O3  UNL     1      24.563  -8.657 -40.064  0.00  0.00    +0.000 OA
BRANCH  29  30
ATOM     30  C22 UNL     1      24.742  -9.715 -41.004  0.00  0.00    +0.000 C 
BRANCH  30  31
ATOM     31  C23 UNL     1      25.989  -9.488 -41.795  0.00  0.00    +0.000 C 
ATOM     32  C24 UNL     1      27.287  -9.679 -41.366  0.00  0.00    +0.000 C 
ATOM     33  N4  UNL     1      28.073  -9.226 -42.357  0.00  0.00    +0.000 N 
ATOM     34  N6  UNL     1      27.302  -8.780 -43.338  0.00  0.00    +0.000 NA
ATOM     35  N7  UNL     1      26.023  -8.915 -43.017  0.00  0.00    +0.000 NA
BRANCH  33  36
ATOM     36  C25 UNL     1      29.534  -9.219 -42.374  0.00  0.00    +0.000 C 
BRANCH  36  37
ATOM     37  C26 UNL     1      30.073 -10.615 -42.383  0.00  0.00    +0.000 C 
ATOM     38  N5  UNL     1      31.051 -10.917 -43.190  0.00  0.00    +0.000 NA
BRANCH  37  39
ATOM     39  O4  UNL     1      29.530 -11.548 -41.491  0.00  0.00    +0.000 OA
ATOM     40  H24 UNL     1      28.673 -11.394 -40.977  0.00  0.00    +0.000 HD
ENDBRANCH  37  39
BRANCH  38  41
ATOM     41  C27 UNL     1      31.684 -12.226 -43.323  0.00  0.00    +0.000 C 
BRANCH  41  42
ATOM     42  C28 UNL     1      32.498 -12.312 -44.590  0.00  0.00    +0.000 C 
ATOM     43  C29 UNL     1      33.022 -11.145 -45.179  0.00  0.00    +0.000 C 
ATOM     44  C30 UNL     1      33.810 -11.230 -46.333  0.00  0.00    +0.000 C 
ATOM     45  C31 UNL     1      34.088 -12.476 -46.897  0.00  0.00    +0.000 C 
ATOM     46  C32 UNL     1      33.577 -13.641 -46.315  0.00  0.00    +0.000 C 
ATOM     47  C33 UNL     1      32.790 -13.562 -45.162  0.00  0.00    +0.000 C 
ENDBRANCH  41  42
ENDBRANCH  38  41
ENDBRANCH  36  37
ENDBRANCH  33  36
ENDBRANCH  30  31
ENDBRANCH  29  30
ENDBRANCH   6  29
TORSDOF 12
