REMARK  Name = resultss/4CJN/ligands/lig_432_t0.pdb
REMARK  7 active torsions:
REMARK  status: ('A' for Active; 'I' for Inactive)
REMARK    1  A    between atoms: C9_1  and  C1_22
REMARK    2  A    between atoms: C19_12  and  C20_15
REMARK    3  A    between atoms: N1_23  and  N2_25
REMARK    4  A    between atoms: N2_25  and  C2_27
REMARK    5  A    between atoms: C2_27  and  N3_29
REMARK    6  A    between atoms: N3_29  and  C3_31
REMARK    7  A    between atoms: C6_34  and  N4_37
REMARK                            x       y       z     vdW  Elec       q    Type
REMARK                         _______ _______ _______ _____ _____    ______ ____
ROOT
ATOM      1  C9  UNL     1      25.888  -8.421 -41.150  0.00  0.00    +0.000 C 
ATOM      2  C10 UNL     1      25.465  -7.781 -42.335  0.00  0.00    +0.000 C 
ATOM      3  C11 UNL     1      26.393  -7.666 -43.363  0.00  0.00    +0.000 A 
ATOM      4  C12 UNL     1      27.680  -8.146 -43.245  0.00  0.00    +0.000 A 
ATOM      5  N5  UNL     1      28.375  -7.979 -44.395  0.00  0.00    +0.000 N 
ATOM      6  C13 UNL     1      27.512  -7.367 -45.234  0.00  0.00    +0.000 A 
ATOM      7  C14 UNL     1      27.748  -6.987 -46.556  0.00  0.00    +0.000 C 
ATOM      8  C15 UNL     1      26.696  -6.377 -47.264  0.00  0.00    +0.000 C 
ATOM      9  C16 UNL     1      25.442  -6.166 -46.647  0.00  0.00    +0.000 C 
ATOM     10  C17 UNL     1      25.225  -6.562 -45.315  0.00  0.00    +0.000 C 
ATOM     11  C18 UNL     1      26.287  -7.158 -44.637  0.00  0.00    +0.000 A 
ATOM     12  C19 UNL     1      28.094  -8.766 -42.058  0.00  0.00    +0.000 C 
ATOM     13  N6  UNL     1      27.173  -8.890 -41.053  0.00  0.00    +0.000 NA
ATOM     14  H9  UNL     1      29.350  -8.283 -44.613  0.00  0.00    +0.000 HD
ENDROOT
BRANCH  12  15
ATOM     15  C20 UNL     1      29.461  -9.287 -41.857  0.00  0.00    +0.000 C 
ATOM     16  C21 UNL     1      30.318  -8.662 -40.935  0.00  0.00    +0.000 C 
ATOM     17  C22 UNL     1      31.623  -9.130 -40.753  0.00  0.00    +0.000 C 
ATOM     18  C23 UNL     1      32.087 -10.216 -41.499  0.00  0.00    +0.000 C 
ATOM     19  C24 UNL     1      31.250 -10.830 -42.434  0.00  0.00    +0.000 C 
ATOM     20  C25 UNL     1      29.945 -10.366 -42.619  0.00  0.00    +0.000 C 
ENDBRANCH  12  15
BRANCH   1  22
ATOM     21  O1  UNL     1      24.246  -9.640 -39.948  0.00  0.00    +0.000 OA
ATOM     22  C1  UNL     1      24.960  -8.603 -40.015  0.00  0.00    +0.000 C 
ATOM     23  N1  UNL     1      24.850  -7.595 -38.997  0.00  0.00    +0.000 N 
ATOM     24  H1  UNL     1      25.183  -6.627 -39.207  0.00  0.00    +0.000 HD
BRANCH  23  25
ATOM     25  N2  UNL     1      24.098  -7.793 -37.825  0.00  0.00    +0.000 N 
ATOM     26  H2  UNL     1      23.069  -7.620 -37.861  0.00  0.00    +0.000 HD
BRANCH  25  27
ATOM     27  C2  UNL     1      24.700  -8.060 -36.548  0.00  0.00    +0.000 C 
ATOM     28  S1  UNL     1      24.331  -7.117 -35.257  0.00  0.00    +0.000 S 
BRANCH  27  29
ATOM     29  N3  UNL     1      25.398  -9.294 -36.324  0.00  0.00    +0.000 N 
ATOM     30  H3  UNL     1      24.856 -10.186 -36.396  0.00  0.00    +0.000 HD
BRANCH  29  31
ATOM     31  C3  UNL     1      26.803  -9.379 -36.032  0.00  0.00    +0.000 C 
ATOM     32  C4  UNL     1      27.726  -9.390 -37.086  0.00  0.00    +0.000 C 
ATOM     33  C5  UNL     1      29.097  -9.492 -36.829  0.00  0.00    +0.000 C 
ATOM     34  C6  UNL     1      29.569  -9.600 -35.510  0.00  0.00    +0.000 C 
ATOM     35  C7  UNL     1      28.640  -9.611 -34.454  0.00  0.00    +0.000 C 
ATOM     36  C8  UNL     1      27.271  -9.508 -34.712  0.00  0.00    +0.000 C 
BRANCH  34  37
ATOM     37  N4  UNL     1      30.981  -9.705 -35.248  0.00  0.00    +0.000 N 
ATOM     38  O2  UNL     1      31.815  -9.450 -36.142  0.00  0.00    +0.000 OA
ATOM     39  O3  UNL     1      31.436 -10.091 -34.008  0.00  0.00    +0.000 OA
ENDBRANCH  34  37
ENDBRANCH  29  31
ENDBRANCH  27  29
ENDBRANCH  25  27
ENDBRANCH  23  25
ENDBRANCH   1  22
TORSDOF 7
