REMARK  Name = resultss/4CJN/ligands/lig_371_t0.pdb
REMARK  6 active torsions:
REMARK  status: ('A' for Active; 'I' for Inactive)
REMARK    1  A    between atoms: C10_1  and  C9_13
REMARK    2  A    between atoms: C10_1  and  C17_16
REMARK    3  A    between atoms: C10_1  and  C11_30
REMARK    4  A    between atoms: C1_2  and  O1_14
REMARK    5  A    between atoms: C25_27  and  O7_28
REMARK    6  A    between atoms: C15_34  and  O4_36
REMARK                            x       y       z     vdW  Elec       q    Type
REMARK                         _______ _______ _______ _____ _____    ______ ____
ROOT
ATOM      1  C10 UNL     1      28.541  -8.581 -40.759  0.00  0.00    +0.000 C 
ENDROOT
BRANCH   1  13
ATOM      2  C1  UNL     1      26.047  -8.963 -41.377  0.00  0.00    +0.000 A 
ATOM      3  O2  UNL     1      25.034  -8.824 -42.227  0.00  0.00    +0.000 OA
ATOM      4  C2  UNL     1      25.136  -8.175 -43.380  0.00  0.00    +0.000 A 
ATOM      5  C3  UNL     1      24.022  -8.088 -44.222  0.00  0.00    +0.000 C 
ATOM      6  C4  UNL     1      24.111  -7.402 -45.434  0.00  0.00    +0.000 C 
ATOM      7  C5  UNL     1      25.312  -6.788 -45.809  0.00  0.00    +0.000 C 
ATOM      8 CL1  UNL     1      25.417  -5.917 -47.332  0.00  0.00    +0.000 Cl
ATOM      9  C6  UNL     1      26.430  -6.870 -44.972  0.00  0.00    +0.000 C 
ATOM     10  C7  UNL     1      26.352  -7.571 -43.752  0.00  0.00    +0.000 A 
ATOM     11  C8  UNL     1      27.451  -7.694 -42.886  0.00  0.00    +0.000 A 
ATOM     12  O3  UNL     1      28.546  -7.140 -43.176  0.00  0.00    +0.000 OA
ATOM     13  C9  UNL     1      27.325  -8.432 -41.686  0.00  0.00    +0.000 A 
BRANCH   2  14
ATOM     14  O1  UNL     1      25.811  -9.622 -40.173  0.00  0.00    +0.000 OA
ATOM     15  H1  UNL     1      25.614  -9.103 -39.332  0.00  0.00    +0.000 HD
ENDBRANCH   2  14
ENDBRANCH   1  13
BRANCH   1  16
ATOM     16  C17 UNL     1      28.210  -8.911 -39.294  0.00  0.00    +0.000 A 
ATOM     17  C18 UNL     1      28.016  -7.913 -38.304  0.00  0.00    +0.000 A 
ATOM     18  O5  UNL     1      28.061  -6.685 -38.601  0.00  0.00    +0.000 OA
ATOM     19  C19 UNL     1      27.747  -8.288 -36.976  0.00  0.00    +0.000 A 
ATOM     20  C20 UNL     1      27.612  -7.340 -35.942  0.00  0.00    +0.000 C 
ATOM     21  C21 UNL     1      27.337  -7.757 -34.636  0.00  0.00    +0.000 C 
ATOM     22 CL2  UNL     1      27.209  -6.574 -33.344  0.00  0.00    +0.000 Cl
ATOM     23  C22 UNL     1      27.183  -9.120 -34.354  0.00  0.00    +0.000 C 
ATOM     24  C23 UNL     1      27.319 -10.067 -35.373  0.00  0.00    +0.000 C 
ATOM     25  C24 UNL     1      27.608  -9.657 -36.679  0.00  0.00    +0.000 A 
ATOM     26  O6  UNL     1      27.743 -10.567 -37.633  0.00  0.00    +0.000 OA
ATOM     27  C25 UNL     1      28.025 -10.267 -38.896  0.00  0.00    +0.000 A 
BRANCH  27  28
ATOM     28  O7  UNL     1      28.107 -11.332 -39.796  0.00  0.00    +0.000 OA
ATOM     29  H14 UNL     1      27.713 -11.328 -40.732  0.00  0.00    +0.000 HD
ENDBRANCH  27  28
ENDBRANCH   1  16
BRANCH   1  30
ATOM     30  C11 UNL     1      29.645  -9.459 -41.333  0.00  0.00    +0.000 C 
ATOM     31  C12 UNL     1      29.339 -10.339 -42.388  0.00  0.00    +0.000 C 
ATOM     32  C13 UNL     1      30.329 -11.157 -42.939  0.00  0.00    +0.000 C 
ATOM     33  C14 UNL     1      31.634 -11.116 -42.441  0.00  0.00    +0.000 C 
ATOM     34  C15 UNL     1      31.954 -10.259 -41.384  0.00  0.00    +0.000 C 
ATOM     35  C16 UNL     1      30.965  -9.434 -40.829  0.00  0.00    +0.000 C 
BRANCH  34  36
ATOM     36  O4  UNL     1      33.257 -10.240 -40.890  0.00  0.00    +0.000 OA
ATOM     37  H9  UNL     1      34.061 -10.307 -41.505  0.00  0.00    +0.000 HD
ENDBRANCH  34  36
ENDBRANCH   1  30
TORSDOF 6
