REMARK  Name = resultss/4CJN/ligands/lig_430_t1.pdb
REMARK  8 active torsions:
REMARK  status: ('A' for Active; 'I' for Inactive)
REMARK    1  A    between atoms: C1_2  and  C16_5
REMARK    2  A    between atoms: N1_3  and  N2_25
REMARK    3  A    between atoms: C26_16  and  C27_19
REMARK    4  A    between atoms: C2_26  and  S1_43
REMARK    5  A    between atoms: N3_27  and  C3_29
REMARK    6  A    between atoms: C7_33  and  O2_35
REMARK    7  A    between atoms: O2_35  and  C8_36
REMARK    8  A    between atoms: C8_36  and  C9_37
REMARK                            x       y       z     vdW  Elec       q    Type
REMARK                         _______ _______ _______ _____ _____    ______ ____
ROOT
ATOM      1  O1  UNL     1      22.704  -9.071 -42.892  0.00  0.00    +0.000 OA
ATOM      2  C1  UNL     1      23.688  -8.303 -42.711  0.00  0.00    +0.000 C 
ATOM      3  N1  UNL     1      23.787  -7.094 -43.472  0.00  0.00    +0.000 N 
ATOM      4  H1  UNL     1      24.599  -6.457 -43.314  0.00  0.00    +0.000 HD
ENDROOT
BRANCH   2   5
ATOM      5  C16 UNL     1      24.722  -8.648 -41.712  0.00  0.00    +0.000 C 
ATOM      6  C17 UNL     1      24.456  -8.542 -40.329  0.00  0.00    +0.000 C 
ATOM      7  C18 UNL     1      25.490  -8.863 -39.457  0.00  0.00    +0.000 A 
ATOM      8  C19 UNL     1      26.725  -9.279 -39.906  0.00  0.00    +0.000 A 
ATOM      9  N4  UNL     1      27.586  -9.464 -38.878  0.00  0.00    +0.000 N 
ATOM     10  C20 UNL     1      26.869  -9.176 -37.769  0.00  0.00    +0.000 A 
ATOM     11  C21 UNL     1      27.314  -9.204 -36.449  0.00  0.00    +0.000 C 
ATOM     12  C22 UNL     1      26.402  -8.847 -35.438  0.00  0.00    +0.000 C 
ATOM     13  C23 UNL     1      25.081  -8.467 -35.766  0.00  0.00    +0.000 C 
ATOM     14  C24 UNL     1      24.656  -8.440 -37.107  0.00  0.00    +0.000 C 
ATOM     15  C25 UNL     1      25.579  -8.805 -38.084  0.00  0.00    +0.000 A 
ATOM     16  C26 UNL     1      26.970  -9.401 -41.280  0.00  0.00    +0.000 C 
ATOM     17  N5  UNL     1      25.957  -9.067 -42.137  0.00  0.00    +0.000 NA
ATOM     18  H16 UNL     1      28.595  -9.732 -38.918  0.00  0.00    +0.000 HD
BRANCH  16  19
ATOM     19  C27 UNL     1      28.260  -9.864 -41.831  0.00  0.00    +0.000 C 
ATOM     20  C28 UNL     1      28.882 -11.025 -41.341  0.00  0.00    +0.000 C 
ATOM     21  C29 UNL     1      30.087 -11.467 -41.892  0.00  0.00    +0.000 C 
ATOM     22  C30 UNL     1      30.677 -10.761 -42.945  0.00  0.00    +0.000 C 
ATOM     23  C31 UNL     1      30.055  -9.618 -43.454  0.00  0.00    +0.000 C 
ATOM     24  C32 UNL     1      28.848  -9.173 -42.905  0.00  0.00    +0.000 C 
ENDBRANCH  16  19
ENDBRANCH   2   5
BRANCH   3  25
ATOM     25  N2  UNL     1      22.800  -6.779 -44.423  0.00  0.00    +0.000 NA
ATOM     26  C2  UNL     1      23.053  -6.443 -45.655  0.00  0.00    +0.000 C 
ATOM     27  N3  UNL     1      21.978  -6.118 -46.547  0.00  0.00    +0.000 N 
ATOM     28  H3  UNL     1      22.196  -5.498 -47.359  0.00  0.00    +0.000 HD
BRANCH  27  29
ATOM     29  C3  UNL     1      20.617  -6.555 -46.377  0.00  0.00    +0.000 C 
ATOM     30  C4  UNL     1      20.006  -7.423 -47.298  0.00  0.00    +0.000 C 
ATOM     31  C5  UNL     1      18.665  -7.782 -47.142  0.00  0.00    +0.000 C 
ATOM     32  C6  UNL     1      17.920  -7.276 -46.074  0.00  0.00    +0.000 C 
ATOM     33  C7  UNL     1      18.518  -6.406 -45.144  0.00  0.00    +0.000 C 
ATOM     34  C15 UNL     1      19.861  -6.047 -45.311  0.00  0.00    +0.000 C 
BRANCH  33  35
ATOM     35  O2  UNL     1      17.826  -5.883 -44.039  0.00  0.00    +0.000 OA
BRANCH  35  36
ATOM     36  C8  UNL     1      18.260  -5.958 -42.682  0.00  0.00    +0.000 C 
BRANCH  36  37
ATOM     37  C9  UNL     1      17.122  -6.374 -41.790  0.00  0.00    +0.000 C 
ATOM     38  C10 UNL     1      15.995  -7.028 -42.317  0.00  0.00    +0.000 C 
ATOM     39  C11 UNL     1      14.947  -7.413 -41.473  0.00  0.00    +0.000 C 
ATOM     40  C12 UNL     1      15.020  -7.152 -40.101  0.00  0.00    +0.000 C 
ATOM     41  C13 UNL     1      16.139  -6.503 -39.570  0.00  0.00    +0.000 C 
ATOM     42  C14 UNL     1      17.187  -6.114 -40.410  0.00  0.00    +0.000 C 
ENDBRANCH  36  37
ENDBRANCH  35  36
ENDBRANCH  33  35
ENDBRANCH  27  29
BRANCH  26  43
ATOM     43  S1  UNL     1      24.736  -6.258 -46.256  0.00  0.00    +0.000 S 
ATOM     44  H2  UNL     1      24.851  -4.975 -45.694  0.00  0.00    +0.000 HD
ENDBRANCH  26  43
ENDBRANCH   3  25
TORSDOF 8
