REMARK  Name = resultss/4CJN/ligands/lig_343_t0.pdb
REMARK  10 active torsions:
REMARK  status: ('A' for Active; 'I' for Inactive)
REMARK    1  A    between atoms: C2_1  and  O1_28
REMARK    2  A    between atoms: C4_3  and  C5_7
REMARK    3  A    between atoms: C21_6  and  O3_29
REMARK    4  A    between atoms: N2_17  and  N3_19
REMARK    5  A    between atoms: N3_19  and  C13_21
REMARK    6  A    between atoms: O3_29  and  C22_30
REMARK    7  A    between atoms: C22_30  and  C23_31
REMARK    8  A    between atoms: N4_33  and  C25_36
REMARK    9  A    between atoms: C25_36  and  C26_37
REMARK   10  A    between atoms: N5_39  and  C27_41
REMARK                            x       y       z     vdW  Elec       q    Type
REMARK                         _______ _______ _______ _____ _____    ______ ____
ROOT
ATOM      1  C2  UNL     1      30.012  -9.794 -37.838  0.00  0.00    +0.000 C 
ATOM      2  C3  UNL     1      30.192  -9.504 -36.472  0.00  0.00    +0.000 C 
ATOM      3  C4  UNL     1      29.116  -9.583 -35.575  0.00  0.00    +0.000 C 
ATOM      4  C19 UNL     1      27.860  -9.992 -36.046  0.00  0.00    +0.000 C 
ATOM      5  C20 UNL     1      27.669 -10.266 -37.400  0.00  0.00    +0.000 C 
ATOM      6  C21 UNL     1      28.741 -10.163 -38.309  0.00  0.00    +0.000 C 
ENDROOT
BRANCH   3   7
ATOM      7  C5  UNL     1      29.312  -9.307 -34.099  0.00  0.00    +0.000 C 
ATOM      8  N1  UNL     1      30.311 -10.239 -33.565  0.00  0.00    +0.000 N 
ATOM      9  C6  UNL     1      31.270  -9.875 -32.564  0.00  0.00    +0.000 C 
ATOM     10  C7  UNL     1      31.987 -10.870 -31.875  0.00  0.00    +0.000 C 
ATOM     11  C8  UNL     1      32.933 -10.517 -30.909  0.00  0.00    +0.000 C 
ATOM     12  C9  UNL     1      33.187  -9.169 -30.640  0.00  0.00    +0.000 C 
ATOM     13  C10 UNL     1      32.493  -8.174 -31.334  0.00  0.00    +0.000 C 
ATOM     14  C11 UNL     1      31.526  -8.525 -32.294  0.00  0.00    +0.000 C 
ATOM     15  C12 UNL     1      30.779  -7.506 -33.045  0.00  0.00    +0.000 C 
ATOM     16  O2  UNL     1      31.076  -6.286 -32.926  0.00  0.00    +0.000 OA
ATOM     17  N2  UNL     1      29.696  -7.894 -33.907  0.00  0.00    +0.000 N 
ATOM     18  H6  UNL     1      30.178 -11.256 -33.775  0.00  0.00    +0.000 HD
BRANCH  17  19
ATOM     19  N3  UNL     1      29.011  -6.887 -34.615  0.00  0.00    +0.000 N 
ATOM     20  H11 UNL     1      29.551  -6.275 -35.265  0.00  0.00    +0.000 HD
BRANCH  19  21
ATOM     21  C13 UNL     1      27.596  -6.678 -34.478  0.00  0.00    +0.000 C 
ATOM     22  C14 UNL     1      26.758  -6.642 -35.606  0.00  0.00    +0.000 C 
ATOM     23  C15 UNL     1      25.378  -6.485 -35.452  0.00  0.00    +0.000 C 
ATOM     24  C16 UNL     1      24.823  -6.362 -34.176  0.00  0.00    +0.000 C 
ATOM     25  C17 UNL     1      25.648  -6.407 -33.050  0.00  0.00    +0.000 C 
ATOM     26  C18 UNL     1      27.028  -6.569 -33.198  0.00  0.00    +0.000 C 
ENDBRANCH  19  21
ENDBRANCH  17  19
ENDBRANCH   3   7
BRANCH   1  28
ATOM     27  C1  UNL     1      31.791  -8.559 -39.094  0.00  0.00    +0.000 C 
ATOM     28  O1  UNL     1      31.075  -9.742 -38.754  0.00  0.00    +0.000 OA
ENDBRANCH   1  28
BRANCH   6  29
ATOM     29  O3  UNL     1      28.579 -10.422 -39.682  0.00  0.00    +0.000 OA
BRANCH  29  30
ATOM     30  C22 UNL     1      27.439 -11.066 -40.245  0.00  0.00    +0.000 C 
BRANCH  30  31
ATOM     31  C23 UNL     1      26.590 -10.060 -40.950  0.00  0.00    +0.000 C 
ATOM     32  C24 UNL     1      25.486  -9.409 -40.442  0.00  0.00    +0.000 C 
ATOM     33  N4  UNL     1      25.020  -8.640 -41.438  0.00  0.00    +0.000 N 
ATOM     34  N6  UNL     1      25.789  -8.821 -42.501  0.00  0.00    +0.000 NA
ATOM     35  N7  UNL     1      26.759  -9.682 -42.230  0.00  0.00    +0.000 NA
BRANCH  33  36
ATOM     36  C25 UNL     1      23.814  -7.819 -41.420  0.00  0.00    +0.000 C 
BRANCH  36  37
ATOM     37  C26 UNL     1      23.119  -7.905 -42.743  0.00  0.00    +0.000 C 
ATOM     38  O4  UNL     1      22.222  -8.774 -42.913  0.00  0.00    +0.000 OA
ATOM     39  N5  UNL     1      23.535  -7.062 -43.827  0.00  0.00    +0.000 N 
ATOM     40  H24 UNL     1      24.466  -6.589 -43.746  0.00  0.00    +0.000 HD
BRANCH  39  41
ATOM     41  C27 UNL     1      22.844  -6.976 -45.084  0.00  0.00    +0.000 C 
ATOM     42  C28 UNL     1      23.457  -7.472 -46.244  0.00  0.00    +0.000 C 
ATOM     43  C29 UNL     1      22.821  -7.373 -47.484  0.00  0.00    +0.000 C 
ATOM     44  C30 UNL     1      21.558  -6.767 -47.583  0.00  0.00    +0.000 C 
ATOM     45  C31 UNL     1      20.898  -6.616 -48.923  0.00  0.00    +0.000 C 
ATOM     46  C32 UNL     1      20.956  -6.234 -46.431  0.00  0.00    +0.000 C 
ATOM     47  C33 UNL     1      21.593  -6.337 -45.189  0.00  0.00    +0.000 C 
ENDBRANCH  39  41
ENDBRANCH  36  37
ENDBRANCH  33  36
ENDBRANCH  30  31
ENDBRANCH  29  30
ENDBRANCH   6  29
TORSDOF 10
