REMARK  Name = resultss/4CJN/ligands/lig_422_t0.pdb
REMARK  8 active torsions:
REMARK  status: ('A' for Active; 'I' for Inactive)
REMARK    1  A    between atoms: C1_2  and  C10_5
REMARK    2  A    between atoms: N1_3  and  N2_25
REMARK    3  A    between atoms: C20_16  and  C21_19
REMARK    4  A    between atoms: N2_25  and  C2_27
REMARK    5  A    between atoms: C2_27  and  N3_29
REMARK    6  A    between atoms: N3_29  and  C3_31
REMARK    7  A    between atoms: C8_36  and  O2_37
REMARK    8  A    between atoms: O2_37  and  C9_38
REMARK                            x       y       z     vdW  Elec       q    Type
REMARK                         _______ _______ _______ _____ _____    ______ ____
ROOT
ATOM      1  O1  UNL     1      29.872 -10.014 -36.691  0.00  0.00    +0.000 OA
ATOM      2  C1  UNL     1      28.688  -9.966 -37.122  0.00  0.00    +0.000 C 
ATOM      3  N1  UNL     1      27.593  -9.944 -36.192  0.00  0.00    +0.000 N 
ATOM      4  H1  UNL     1      26.619  -9.909 -36.565  0.00  0.00    +0.000 HD
ENDROOT
BRANCH   2   5
ATOM      5  C10 UNL     1      28.438  -9.940 -38.579  0.00  0.00    +0.000 C 
ATOM      6  C11 UNL     1      27.173  -9.574 -39.090  0.00  0.00    +0.000 C 
ATOM      7  C12 UNL     1      27.025  -9.560 -40.472  0.00  0.00    +0.000 A 
ATOM      8  C13 UNL     1      28.056  -9.894 -41.323  0.00  0.00    +0.000 A 
ATOM      9  N4  UNL     1      27.692  -9.743 -42.619  0.00  0.00    +0.000 N 
ATOM     10  C14 UNL     1      26.408  -9.326 -42.571  0.00  0.00    +0.000 A 
ATOM     11  C15 UNL     1      25.582  -9.016 -43.651  0.00  0.00    +0.000 C 
ATOM     12  C16 UNL     1      24.274  -8.577 -43.376  0.00  0.00    +0.000 C 
ATOM     13  C17 UNL     1      23.824  -8.452 -42.043  0.00  0.00    +0.000 C 
ATOM     14  C18 UNL     1      24.676  -8.765 -40.968  0.00  0.00    +0.000 C 
ATOM     15  C19 UNL     1      25.964  -9.204 -41.271  0.00  0.00    +0.000 A 
ATOM     16  C20 UNL     1      29.301 -10.273 -40.805  0.00  0.00    +0.000 C 
ATOM     17  N5  UNL     1      29.449 -10.271 -39.446  0.00  0.00    +0.000 NA
ATOM     18  H9  UNL     1      28.274  -9.877 -43.476  0.00  0.00    +0.000 HD
BRANCH  16  19
ATOM     19  C21 UNL     1      30.445 -10.662 -41.657  0.00  0.00    +0.000 C 
ATOM     20  C22 UNL     1      30.333 -11.716 -42.581  0.00  0.00    +0.000 C 
ATOM     21  C23 UNL     1      31.433 -12.090 -43.360  0.00  0.00    +0.000 C 
ATOM     22  C24 UNL     1      32.654 -11.426 -43.214  0.00  0.00    +0.000 C 
ATOM     23  C25 UNL     1      32.779 -10.392 -42.282  0.00  0.00    +0.000 C 
ATOM     24  C26 UNL     1      31.683 -10.016 -41.502  0.00  0.00    +0.000 C 
ENDBRANCH  16  19
ENDBRANCH   2   5
BRANCH   3  25
ATOM     25  N2  UNL     1      27.815  -9.948 -34.801  0.00  0.00    +0.000 N 
ATOM     26  H2  UNL     1      28.126 -10.830 -34.335  0.00  0.00    +0.000 HD
BRANCH  25  27
ATOM     27  C2  UNL     1      27.667  -8.775 -33.983  0.00  0.00    +0.000 C 
ATOM     28  S1  UNL     1      28.714  -8.479 -32.746  0.00  0.00    +0.000 S 
BRANCH  27  29
ATOM     29  N3  UNL     1      26.688  -7.791 -34.353  0.00  0.00    +0.000 N 
ATOM     30  H3  UNL     1      27.008  -6.935 -34.860  0.00  0.00    +0.000 HD
BRANCH  29  31
ATOM     31  C3  UNL     1      25.274  -7.965 -34.186  0.00  0.00    +0.000 C 
ATOM     32  C4  UNL     1      24.802  -8.704 -33.088  0.00  0.00    +0.000 C 
ATOM     33  C5  UNL     1      23.446  -9.015 -32.971  0.00  0.00    +0.000 C 
ATOM     34  C6  UNL     1      22.551  -8.610 -33.960  0.00  0.00    +0.000 C 
ATOM     35  C7  UNL     1      23.007  -7.879 -35.059  0.00  0.00    +0.000 C 
ATOM     36  C8  UNL     1      24.358  -7.528 -35.176  0.00  0.00    +0.000 C 
BRANCH  36  37
ATOM     37  O2  UNL     1      24.722  -6.744 -36.285  0.00  0.00    +0.000 OA
BRANCH  37  38
ATOM     38  C9  UNL     1      24.642  -7.143 -37.655  0.00  0.00    +0.000 C 
ATOM     39  F1  UNL     1      25.772  -6.746 -38.348  0.00  0.00    +0.000 F 
ATOM     40  F2  UNL     1      23.539  -6.539 -38.226  0.00  0.00    +0.000 F 
ATOM     41  F3  UNL     1      24.483  -8.511 -37.749  0.00  0.00    +0.000 F 
ENDBRANCH  37  38
ENDBRANCH  36  37
ENDBRANCH  29  31
ENDBRANCH  27  29
ENDBRANCH  25  27
ENDBRANCH   3  25
TORSDOF 8
