REMARK  Name = resultss/4CJN/ligands/lig_165_t0.pdb
REMARK  6 active torsions:
REMARK  status: ('A' for Active; 'I' for Inactive)
REMARK    1  A    between atoms: C1_2  and  C9_5
REMARK    2  A    between atoms: N1_3  and  N2_20
REMARK    3  A    between atoms: C12_8  and  C13_11
REMARK    4  A    between atoms: C2_21  and  C3_22
REMARK    5  A    between atoms: C7_26  and  O2_28
REMARK    6  A    between atoms: C8_27  and  O3_30
REMARK                            x       y       z     vdW  Elec       q    Type
REMARK                         _______ _______ _______ _____ _____    ______ ____
ROOT
ATOM      1  O1  UNL     1      28.648  -8.159 -39.370  0.00  0.00    +0.000 OA
ATOM      2  C1  UNL     1      29.289  -9.234 -39.211  0.00  0.00    +0.000 C 
ATOM      3  N1  UNL     1      29.326  -9.839 -37.912  0.00  0.00    +0.000 N 
ATOM      4  H1  UNL     1      29.978 -10.633 -37.721  0.00  0.00    +0.000 HD
ENDROOT
BRANCH   2   5
ATOM      5  C9  UNL     1      30.003  -9.834 -40.363  0.00  0.00    +0.000 C 
ATOM      6  C10 UNL     1      31.365  -9.575 -40.592  0.00  0.00    +0.000 C 
ATOM      7  C11 UNL     1      32.026 -10.154 -41.680  0.00  0.00    +0.000 C 
ATOM      8  C12 UNL     1      31.342 -11.009 -42.561  0.00  0.00    +0.000 C 
ATOM      9  C20 UNL     1      29.982 -11.278 -42.324  0.00  0.00    +0.000 C 
ATOM     10  C21 UNL     1      29.322 -10.701 -41.236  0.00  0.00    +0.000 C 
BRANCH   8  11
ATOM     11  C13 UNL     1      32.053 -11.616 -43.710  0.00  0.00    +0.000 A 
ATOM     12  N3  UNL     1      31.748 -12.842 -44.208  0.00  0.00    +0.000 NA
ATOM     13  C14 UNL     1      32.547 -13.164 -45.257  0.00  0.00    +0.000 A 
ATOM     14  C15 UNL     1      32.467 -14.361 -45.972  0.00  0.00    +0.000 C 
ATOM     15  C16 UNL     1      33.357 -14.569 -47.041  0.00  0.00    +0.000 C 
ATOM     16  C17 UNL     1      34.308 -13.587 -47.380  0.00  0.00    +0.000 C 
ATOM     17  C18 UNL     1      34.379 -12.387 -46.654  0.00  0.00    +0.000 C 
ATOM     18  C19 UNL     1      33.486 -12.206 -45.601  0.00  0.00    +0.000 A 
ATOM     19  S1  UNL     1      33.332 -10.896 -44.566  0.00  0.00    +0.000 S 
ENDBRANCH   8  11
ENDBRANCH   2   5
BRANCH   3  20
ATOM     20  N2  UNL     1      28.532  -9.323 -36.876  0.00  0.00    +0.000 NA
ATOM     21  C2  UNL     1      28.655  -9.729 -35.652  0.00  0.00    +0.000 C 
BRANCH  21  22
ATOM     22  C3  UNL     1      27.861  -9.127 -34.560  0.00  0.00    +0.000 C 
ATOM     23  C4  UNL     1      28.519  -8.246 -33.687  0.00  0.00    +0.000 C 
ATOM     24  C5  UNL     1      27.816  -7.580 -32.682  0.00  0.00    +0.000 C 
ATOM     25  C6  UNL     1      26.446  -7.789 -32.532  0.00  0.00    +0.000 C 
ATOM     26  C7  UNL     1      25.775  -8.687 -33.370  0.00  0.00    +0.000 C 
ATOM     27  C8  UNL     1      26.476  -9.378 -34.372  0.00  0.00    +0.000 C 
BRANCH  26  28
ATOM     28  O2  UNL     1      24.409  -8.913 -33.205  0.00  0.00    +0.000 OA
ATOM     29  H6  UNL     1      24.059  -9.569 -32.515  0.00  0.00    +0.000 HD
ENDBRANCH  26  28
BRANCH  27  30
ATOM     30  O3  UNL     1      25.774 -10.323 -35.126  0.00  0.00    +0.000 OA
ATOM     31  H7  UNL     1      25.766 -11.311 -34.917  0.00  0.00    +0.000 HD
ENDBRANCH  27  30
ENDBRANCH  21  22
ENDBRANCH   3  20
TORSDOF 6
