REMARK  Name = resultss/4CJN/ligands/lig_342_t1.pdb
REMARK  11 active torsions:
REMARK  status: ('A' for Active; 'I' for Inactive)
REMARK    1  A    between atoms: C2_1  and  O1_28
REMARK    2  A    between atoms: C4_3  and  C5_7
REMARK    3  A    between atoms: C21_6  and  O3_29
REMARK    4  A    between atoms: N2_17  and  N3_19
REMARK    5  A    between atoms: N3_19  and  C13_21
REMARK    6  A    between atoms: O3_29  and  C22_30
REMARK    7  A    between atoms: C22_30  and  C23_31
REMARK    8  A    between atoms: N4_33  and  C25_36
REMARK    9  A    between atoms: C25_36  and  C26_37
REMARK   10  A    between atoms: C26_37  and  O4_47
REMARK   11  A    between atoms: N5_38  and  C27_39
REMARK                            x       y       z     vdW  Elec       q    Type
REMARK                         _______ _______ _______ _____ _____    ______ ____
ROOT
ATOM      1  C2  UNL     1      31.587  -9.165 -38.065  0.00  0.00    +0.000 C 
ATOM      2  C3  UNL     1      30.949 -10.003 -39.001  0.00  0.00    +0.000 C 
ATOM      3  C4  UNL     1      30.170  -9.459 -40.037  0.00  0.00    +0.000 C 
ATOM      4  C19 UNL     1      30.085  -8.062 -40.161  0.00  0.00    +0.000 C 
ATOM      5  C20 UNL     1      30.726  -7.225 -39.244  0.00  0.00    +0.000 C 
ATOM      6  C21 UNL     1      31.471  -7.773 -38.184  0.00  0.00    +0.000 C 
ENDROOT
BRANCH   3   7
ATOM      7  C5  UNL     1      29.493 -10.336 -41.069  0.00  0.00    +0.000 C 
ATOM      8  N1  UNL     1      28.116 -10.612 -40.648  0.00  0.00    +0.000 N 
ATOM      9  C6  UNL     1      26.999  -9.837 -41.102  0.00  0.00    +0.000 C 
ATOM     10  C7  UNL     1      25.764  -9.924 -40.441  0.00  0.00    +0.000 C 
ATOM     11  C8  UNL     1      24.671  -9.176 -40.892  0.00  0.00    +0.000 C 
ATOM     12  C9  UNL     1      24.808  -8.338 -42.001  0.00  0.00    +0.000 C 
ATOM     13  C10 UNL     1      26.034  -8.251 -42.668  0.00  0.00    +0.000 C 
ATOM     14  C11 UNL     1      27.134  -9.006 -42.224  0.00  0.00    +0.000 C 
ATOM     15  C12 UNL     1      28.429  -8.971 -42.924  0.00  0.00    +0.000 C 
ATOM     16  O2  UNL     1      28.562  -8.290 -43.978  0.00  0.00    +0.000 OA
ATOM     17  N2  UNL     1      29.541  -9.729 -42.414  0.00  0.00    +0.000 N 
ATOM     18  H6  UNL     1      27.976 -11.289 -39.863  0.00  0.00    +0.000 HD
BRANCH  17  19
ATOM     19  N3  UNL     1      30.774  -9.659 -43.091  0.00  0.00    +0.000 N 
ATOM     20  H11 UNL     1      31.152  -8.720 -43.349  0.00  0.00    +0.000 HD
BRANCH  19  21
ATOM     21  C13 UNL     1      31.485 -10.833 -43.521  0.00  0.00    +0.000 C 
ATOM     22  C14 UNL     1      32.488 -10.717 -44.499  0.00  0.00    +0.000 C 
ATOM     23  C15 UNL     1      33.171 -11.851 -44.952  0.00  0.00    +0.000 C 
ATOM     24  C16 UNL     1      32.851 -13.110 -44.438  0.00  0.00    +0.000 C 
ATOM     25  C17 UNL     1      31.846 -13.237 -43.472  0.00  0.00    +0.000 C 
ATOM     26  C18 UNL     1      31.156 -12.107 -43.021  0.00  0.00    +0.000 C 
ENDBRANCH  19  21
ENDBRANCH  17  19
ENDBRANCH   3   7
BRANCH   1  28
ATOM     27  C1  UNL     1      33.727 -10.029 -37.090  0.00  0.00    +0.000 C 
ATOM     28  O1  UNL     1      32.348  -9.682 -37.003  0.00  0.00    +0.000 OA
ENDBRANCH   1  28
BRANCH   6  29
ATOM     29  O3  UNL     1      32.108  -6.971 -37.225  0.00  0.00    +0.000 OA
BRANCH  29  30
ATOM     30  C22 UNL     1      31.497  -5.883 -36.537  0.00  0.00    +0.000 C 
BRANCH  30  31
ATOM     31  C23 UNL     1      30.227  -6.355 -35.908  0.00  0.00    +0.000 C 
ATOM     32  C24 UNL     1      30.104  -7.236 -34.857  0.00  0.00    +0.000 C 
ATOM     33  N4  UNL     1      28.790  -7.323 -34.599  0.00  0.00    +0.000 N 
ATOM     34  N6  UNL     1      28.141  -6.548 -35.453  0.00  0.00    +0.000 NA
ATOM     35  N7  UNL     1      28.995  -5.943 -36.266  0.00  0.00    +0.000 NA
BRANCH  33  36
ATOM     36  C25 UNL     1      28.156  -8.123 -33.555  0.00  0.00    +0.000 C 
BRANCH  36  37
ATOM     37  C26 UNL     1      28.020  -9.557 -33.992  0.00  0.00    +0.000 C 
ATOM     38  N5  UNL     1      26.935 -10.033 -34.537  0.00  0.00    +0.000 NA
BRANCH  38  39
ATOM     39  C27 UNL     1      25.712  -9.312 -34.750  0.00  0.00    +0.000 C 
ATOM     40  C28 UNL     1      24.784  -9.169 -33.707  0.00  0.00    +0.000 C 
ATOM     41  C29 UNL     1      23.592  -8.472 -33.911  0.00  0.00    +0.000 C 
ATOM     42  C30 UNL     1      23.305  -7.911 -35.164  0.00  0.00    +0.000 C 
ATOM     43  C31 UNL     1      22.013  -7.180 -35.380  0.00  0.00    +0.000 C 
ATOM     44  C32 UNL     1      24.207  -8.097 -36.224  0.00  0.00    +0.000 C 
ATOM     45  C33 UNL     1      25.410  -8.797 -36.027  0.00  0.00    +0.000 C 
ATOM     46  C34 UNL     1      26.377  -8.972 -37.163  0.00  0.00    +0.000 C 
ENDBRANCH  38  39
BRANCH  37  47
ATOM     47  O4  UNL     1      29.124 -10.393 -33.844  0.00  0.00    +0.000 OA
ATOM     48  H24 UNL     1      29.267 -10.921 -32.991  0.00  0.00    +0.000 HD
ENDBRANCH  37  47
ENDBRANCH  36  37
ENDBRANCH  33  36
ENDBRANCH  30  31
ENDBRANCH  29  30
ENDBRANCH   6  29
TORSDOF 11
