REMARK  Name = resultss/4CJN/ligands/lig_414_t0.pdb
REMARK  6 active torsions:
REMARK  status: ('A' for Active; 'I' for Inactive)
REMARK    1  A    between atoms: C9_1  and  C1_22
REMARK    2  A    between atoms: C19_12  and  C20_15
REMARK    3  A    between atoms: N1_23  and  N2_25
REMARK    4  A    between atoms: N2_25  and  C2_27
REMARK    5  A    between atoms: C2_27  and  N3_29
REMARK    6  A    between atoms: N3_29  and  C3_31
REMARK                            x       y       z     vdW  Elec       q    Type
REMARK                         _______ _______ _______ _____ _____    ______ ____
ROOT
ATOM      1  C9  UNL     1      30.639  -9.694 -36.966  0.00  0.00    +0.000 C 
ATOM      2  C10 UNL     1      29.241  -9.499 -36.974  0.00  0.00    +0.000 C 
ATOM      3  C11 UNL     1      28.614  -9.328 -35.745  0.00  0.00    +0.000 A 
ATOM      4  C12 UNL     1      29.312  -9.350 -34.558  0.00  0.00    +0.000 A 
ATOM      5  N4  UNL     1      28.500  -9.095 -33.504  0.00  0.00    +0.000 N 
ATOM      6  C13 UNL     1      27.274  -8.930 -34.046  0.00  0.00    +0.000 A 
ATOM      7  C14 UNL     1      26.090  -8.635 -33.373  0.00  0.00    +0.000 C 
ATOM      8  C15 UNL     1      24.917  -8.483 -34.137  0.00  0.00    +0.000 C 
ATOM      9  C16 UNL     1      24.953  -8.623 -35.543  0.00  0.00    +0.000 C 
ATOM     10  C17 UNL     1      26.161  -8.915 -36.201  0.00  0.00    +0.000 C 
ATOM     11  C18 UNL     1      27.304  -9.067 -35.418  0.00  0.00    +0.000 A 
ATOM     12  C19 UNL     1      30.698  -9.559 -34.560  0.00  0.00    +0.000 C 
ATOM     13  N5  UNL     1      31.314  -9.714 -35.771  0.00  0.00    +0.000 NA
ATOM     14  H9  UNL     1      28.756  -9.005 -32.496  0.00  0.00    +0.000 HD
ENDROOT
BRANCH  12  15
ATOM     15  C20 UNL     1      31.506  -9.611 -33.324  0.00  0.00    +0.000 C 
ATOM     16  C21 UNL     1      31.494 -10.749 -32.498  0.00  0.00    +0.000 C 
ATOM     17  C22 UNL     1      32.285 -10.793 -31.345  0.00  0.00    +0.000 C 
ATOM     18  C23 UNL     1      33.102  -9.709 -31.015  0.00  0.00    +0.000 C 
ATOM     19  C24 UNL     1      33.137  -8.583 -31.841  0.00  0.00    +0.000 C 
ATOM     20  C25 UNL     1      32.349  -8.535 -32.995  0.00  0.00    +0.000 C 
ENDBRANCH  12  15
BRANCH   1  22
ATOM     21  O1  UNL     1      32.650  -9.845 -38.216  0.00  0.00    +0.000 OA
ATOM     22  C1  UNL     1      31.388  -9.862 -38.228  0.00  0.00    +0.000 C 
ATOM     23  N1  UNL     1      30.690 -10.034 -39.471  0.00  0.00    +0.000 N 
ATOM     24  H1  UNL     1      29.689  -9.747 -39.531  0.00  0.00    +0.000 HD
BRANCH  23  25
ATOM     25  N2  UNL     1      31.368 -10.317 -40.671  0.00  0.00    +0.000 N 
ATOM     26  H2  UNL     1      32.390 -10.103 -40.725  0.00  0.00    +0.000 HD
BRANCH  25  27
ATOM     27  C2  UNL     1      30.698 -10.770 -41.855  0.00  0.00    +0.000 C 
ATOM     28  S1  UNL     1      29.445  -9.876 -42.431  0.00  0.00    +0.000 S 
BRANCH  27  29
ATOM     29  N3  UNL     1      31.148 -11.955 -42.541  0.00  0.00    +0.000 N 
ATOM     30  H3  UNL     1      30.920 -12.888 -42.132  0.00  0.00    +0.000 HD
BRANCH  29  31
ATOM     31  C3  UNL     1      31.930 -11.956 -43.746  0.00  0.00    +0.000 C 
ATOM     32  C4  UNL     1      32.613 -10.791 -44.124  0.00  0.00    +0.000 C 
ATOM     33  C5  UNL     1      33.407 -10.780 -45.275  0.00  0.00    +0.000 C 
ATOM     34  C6  UNL     1      33.538 -11.939 -46.046  0.00  0.00    +0.000 C 
ATOM     35  C7  UNL     1      32.883 -13.113 -45.661  0.00  0.00    +0.000 C 
ATOM     36 BR1  UNL     1      33.084 -14.702 -46.700  0.00  0.00    +0.000 Br
ATOM     37  C8  UNL     1      32.088 -13.126 -44.510  0.00  0.00    +0.000 C 
ENDBRANCH  29  31
ENDBRANCH  27  29
ENDBRANCH  25  27
ENDBRANCH  23  25
ENDBRANCH   1  22
TORSDOF 6
