REMARK  Name = resultss/4CJN/ligands/lig_164_t0.pdb
REMARK  4 active torsions:
REMARK  status: ('A' for Active; 'I' for Inactive)
REMARK    1  A    between atoms: C7_1  and  C1_17
REMARK    2  A    between atoms: C10_4  and  C11_7
REMARK    3  A    between atoms: N1_18  and  N2_20
REMARK    4  A    between atoms: C2_21  and  C3_22
REMARK                            x       y       z     vdW  Elec       q    Type
REMARK                         _______ _______ _______ _____ _____    ______ ____
ROOT
ATOM      1  C7  UNL     1      24.931  -8.666 -40.899  0.00  0.00    +0.000 C 
ATOM      2  C8  UNL     1      23.888  -7.727 -40.971  0.00  0.00    +0.000 C 
ATOM      3  C9  UNL     1      23.361  -7.342 -42.208  0.00  0.00    +0.000 C 
ATOM      4  C10 UNL     1      23.870  -7.881 -43.401  0.00  0.00    +0.000 C 
ATOM      5  C18 UNL     1      24.922  -8.811 -43.330  0.00  0.00    +0.000 C 
ATOM      6  C19 UNL     1      25.448  -9.197 -42.094  0.00  0.00    +0.000 C 
ENDROOT
BRANCH   4   7
ATOM      7  C11 UNL     1      23.304  -7.466 -44.705  0.00  0.00    +0.000 A 
ATOM      8  N3  UNL     1      21.973  -7.308 -44.921  0.00  0.00    +0.000 NA
ATOM      9  C12 UNL     1      21.718  -6.923 -46.198  0.00  0.00    +0.000 A 
ATOM     10  C13 UNL     1      20.442  -6.683 -46.711  0.00  0.00    +0.000 C 
ATOM     11  C14 UNL     1      20.317  -6.289 -48.054  0.00  0.00    +0.000 C 
ATOM     12  C15 UNL     1      21.462  -6.140 -48.863  0.00  0.00    +0.000 C 
ATOM     13  C16 UNL     1      22.740  -6.383 -48.337  0.00  0.00    +0.000 C 
ATOM     14  C17 UNL     1      22.835  -6.773 -47.004  0.00  0.00    +0.000 A 
ATOM     15  S2  UNL     1      24.206  -7.129 -46.106  0.00  0.00    +0.000 S 
ENDBRANCH   4   7
BRANCH   1  17
ATOM     16  O1  UNL     1      24.796  -8.871 -38.539  0.00  0.00    +0.000 OA
ATOM     17  C1  UNL     1      25.482  -9.061 -39.580  0.00  0.00    +0.000 C 
ATOM     18  N1  UNL     1      26.773  -9.672 -39.464  0.00  0.00    +0.000 N 
ATOM     19  H1  UNL     1      27.284  -9.987 -40.319  0.00  0.00    +0.000 HD
BRANCH  18  20
ATOM     20  N2  UNL     1      27.324  -9.910 -38.195  0.00  0.00    +0.000 NA
ATOM     21  C2  UNL     1      28.181  -9.100 -37.659  0.00  0.00    +0.000 C 
BRANCH  21  22
ATOM     22  C3  UNL     1      28.740  -9.376 -36.331  0.00  0.00    +0.000 C 
ATOM     23  C4  UNL     1      28.024  -9.645 -35.170  0.00  0.00    +0.000 C 
ATOM     24  C5  UNL     1      28.844  -9.867 -34.058  0.00  0.00    +0.000 C 
ATOM     25  C6  UNL     1      30.202  -9.777 -34.339  0.00  0.00    +0.000 C 
ATOM     26  S1  UNL     1      30.381  -9.418 -35.973  0.00  0.00    +0.000 S 
ENDBRANCH  21  22
ENDBRANCH  18  20
ENDBRANCH   1  17
TORSDOF 4
