REMARK  Name = resultss/4CJN/ligands/lig_432_t0.pdb
REMARK  7 active torsions:
REMARK  status: ('A' for Active; 'I' for Inactive)
REMARK    1  A    between atoms: C9_1  and  C1_22
REMARK    2  A    between atoms: C19_12  and  C20_15
REMARK    3  A    between atoms: N1_23  and  N2_25
REMARK    4  A    between atoms: N2_25  and  C2_27
REMARK    5  A    between atoms: C2_27  and  N3_29
REMARK    6  A    between atoms: N3_29  and  C3_31
REMARK    7  A    between atoms: C6_34  and  N4_37
REMARK                            x       y       z     vdW  Elec       q    Type
REMARK                         _______ _______ _______ _____ _____    ______ ____
ROOT
ATOM      1  C9  UNL     1      27.593  -9.802 -37.488  0.00  0.00    +0.000 C 
ATOM      2  C10 UNL     1      28.841  -9.789 -36.830  0.00  0.00    +0.000 C 
ATOM      3  C11 UNL     1      28.847  -9.464 -35.479  0.00  0.00    +0.000 A 
ATOM      4  C12 UNL     1      27.690  -9.157 -34.795  0.00  0.00    +0.000 A 
ATOM      5  N5  UNL     1      27.939  -8.939 -33.482  0.00  0.00    +0.000 N 
ATOM      6  C13 UNL     1      29.273  -9.094 -33.353  0.00  0.00    +0.000 A 
ATOM      7  C14 UNL     1      30.025  -8.985 -32.182  0.00  0.00    +0.000 C 
ATOM      8  C15 UNL     1      31.411  -9.208 -32.265  0.00  0.00    +0.000 C 
ATOM      9  C16 UNL     1      32.013  -9.538 -33.501  0.00  0.00    +0.000 C 
ATOM     10  C17 UNL     1      31.235  -9.649 -34.668  0.00  0.00    +0.000 C 
ATOM     11  C18 UNL     1      29.865  -9.416 -34.556  0.00  0.00    +0.000 A 
ATOM     12  C19 UNL     1      26.457  -9.156 -35.462  0.00  0.00    +0.000 C 
ATOM     13  N6  UNL     1      26.454  -9.492 -36.789  0.00  0.00    +0.000 NA
ATOM     14  H9  UNL     1      27.256  -8.732 -32.719  0.00  0.00    +0.000 HD
ENDROOT
BRANCH  12  15
ATOM     15  C20 UNL     1      25.182  -8.820 -34.796  0.00  0.00    +0.000 C 
ATOM     16  C21 UNL     1      24.875  -9.389 -33.549  0.00  0.00    +0.000 C 
ATOM     17  C22 UNL     1      23.660  -9.098 -32.920  0.00  0.00    +0.000 C 
ATOM     18  C23 UNL     1      22.738  -8.249 -33.537  0.00  0.00    +0.000 C 
ATOM     19  C24 UNL     1      23.025  -7.697 -34.788  0.00  0.00    +0.000 C 
ATOM     20  C25 UNL     1      24.238  -7.984 -35.420  0.00  0.00    +0.000 C 
ENDBRANCH  12  15
BRANCH   1  22
ATOM     21  O1  UNL     1      26.639  -9.585 -39.649  0.00  0.00    +0.000 OA
ATOM     22  C1  UNL     1      27.493 -10.157 -38.919  0.00  0.00    +0.000 C 
ATOM     23  N1  UNL     1      28.351 -11.164 -39.479  0.00  0.00    +0.000 N 
ATOM     24  H1  UNL     1      28.817 -11.844 -38.837  0.00  0.00    +0.000 HD
BRANCH  23  25
ATOM     25  N2  UNL     1      28.398 -11.423 -40.861  0.00  0.00    +0.000 N 
ATOM     26  H2  UNL     1      27.829 -12.215 -41.236  0.00  0.00    +0.000 HD
BRANCH  25  27
ATOM     27  C2  UNL     1      29.314 -10.761 -41.748  0.00  0.00    +0.000 C 
ATOM     28  S1  UNL     1      28.847  -9.402 -42.539  0.00  0.00    +0.000 S 
BRANCH  27  29
ATOM     29  N3  UNL     1      30.706 -11.111 -41.737  0.00  0.00    +0.000 N 
ATOM     30  H3  UNL     1      31.202 -11.131 -40.817  0.00  0.00    +0.000 HD
BRANCH  29  31
ATOM     31  C3  UNL     1      31.453 -11.459 -42.915  0.00  0.00    +0.000 C 
ATOM     32  C4  UNL     1      31.542 -12.803 -43.302  0.00  0.00    +0.000 C 
ATOM     33  C5  UNL     1      32.279 -13.170 -44.432  0.00  0.00    +0.000 C 
ATOM     34  C6  UNL     1      32.955 -12.198 -45.189  0.00  0.00    +0.000 C 
ATOM     35  C7  UNL     1      32.884 -10.852 -44.787  0.00  0.00    +0.000 C 
ATOM     36  C8  UNL     1      32.146 -10.487 -43.658  0.00  0.00    +0.000 C 
BRANCH  34  37
ATOM     37  N4  UNL     1      33.714 -12.578 -46.352  0.00  0.00    +0.000 N 
ATOM     38  O2  UNL     1      34.003 -11.737 -47.228  0.00  0.00    +0.000 OA
ATOM     39  O3  UNL     1      34.132 -13.879 -46.520  0.00  0.00    +0.000 OA
ENDBRANCH  34  37
ENDBRANCH  29  31
ENDBRANCH  27  29
ENDBRANCH  25  27
ENDBRANCH  23  25
ENDBRANCH   1  22
TORSDOF 7
