REMARK  Name = resultss/4CJN/ligands/lig_348_t0.pdb
REMARK  9 active torsions:
REMARK  status: ('A' for Active; 'I' for Inactive)
REMARK    1  A    between atoms: C6_1  and  O2_27
REMARK    2  A    between atoms: C9_4  and  C10_7
REMARK    3  A    between atoms: N3_17  and  N4_19
REMARK    4  A    between atoms: N4_19  and  C18_21
REMARK    5  A    between atoms: O2_27  and  C5_28
REMARK    6  A    between atoms: C5_28  and  C4_31
REMARK    7  A    between atoms: N1_29  and  C2_34
REMARK    8  A    between atoms: C2_34  and  C1_36
REMARK    9  A    between atoms: N7_37  and  C26_39
REMARK                            x       y       z     vdW  Elec       q    Type
REMARK                         _______ _______ _______ _____ _____    ______ ____
ROOT
ATOM      1  C6  UNL     1      27.114  -9.252 -41.753  0.00  0.00    +0.000 C 
ATOM      2  C7  UNL     1      27.462 -10.240 -40.826  0.00  0.00    +0.000 C 
ATOM      3  C8  UNL     1      28.689 -10.900 -40.918  0.00  0.00    +0.000 C 
ATOM      4  C9  UNL     1      29.594 -10.579 -41.943  0.00  0.00    +0.000 C 
ATOM      5  C24 UNL     1      29.244  -9.596 -42.881  0.00  0.00    +0.000 C 
ATOM      6  C25 UNL     1      28.016  -8.936 -42.789  0.00  0.00    +0.000 C 
ENDROOT
BRANCH   4   7
ATOM      7  C10 UNL     1      30.898 -11.335 -42.072  0.00  0.00    +0.000 C 
ATOM      8  N2  UNL     1      30.868 -12.151 -43.294  0.00  0.00    +0.000 N 
ATOM      9  C11 UNL     1      32.045 -12.450 -44.053  0.00  0.00    +0.000 C 
ATOM     10  C12 UNL     1      32.015 -13.449 -45.038  0.00  0.00    +0.000 C 
ATOM     11  C13 UNL     1      33.161 -13.741 -45.782  0.00  0.00    +0.000 C 
ATOM     12  C14 UNL     1      34.344 -13.034 -45.551  0.00  0.00    +0.000 C 
ATOM     13  C15 UNL     1      34.380 -12.031 -44.577  0.00  0.00    +0.000 C 
ATOM     14  C16 UNL     1      33.229 -11.733 -43.826  0.00  0.00    +0.000 C 
ATOM     15  C17 UNL     1      33.223 -10.664 -42.817  0.00  0.00    +0.000 C 
ATOM     16  O3  UNL     1      34.265  -9.984 -42.610  0.00  0.00    +0.000 OA
ATOM     17  N3  UNL     1      32.024 -10.385 -42.074  0.00  0.00    +0.000 N 
ATOM     18  H9  UNL     1      29.996 -12.694 -43.494  0.00  0.00    +0.000 HD
BRANCH  17  19
ATOM     19  N4  UNL     1      32.040  -9.359 -41.109  0.00  0.00    +0.000 N 
ATOM     20  H14 UNL     1      31.922  -8.371 -41.427  0.00  0.00    +0.000 HD
BRANCH  19  21
ATOM     21  C18 UNL     1      32.404  -9.602 -39.740  0.00  0.00    +0.000 C 
ATOM     22  C19 UNL     1      31.407  -9.630 -38.753  0.00  0.00    +0.000 C 
ATOM     23  C20 UNL     1      31.743  -9.835 -37.412  0.00  0.00    +0.000 C 
ATOM     24  C21 UNL     1      33.080 -10.007 -37.045  0.00  0.00    +0.000 C 
ATOM     25  C22 UNL     1      34.081  -9.972 -38.018  0.00  0.00    +0.000 C 
ATOM     26  C23 UNL     1      33.748  -9.768 -39.360  0.00  0.00    +0.000 C 
ENDBRANCH  19  21
ENDBRANCH  17  19
ENDBRANCH   4   7
BRANCH   1  27
ATOM     27  O2  UNL     1      25.866  -8.621 -41.613  0.00  0.00    +0.000 OA
BRANCH  27  28
ATOM     28  C5  UNL     1      25.655  -7.316 -41.076  0.00  0.00    +0.000 C 
BRANCH  28  31
ATOM     29  N1  UNL     1      25.286  -7.840 -37.504  0.00  0.00    +0.000 N 
ATOM     30  C3  UNL     1      24.857  -8.072 -38.757  0.00  0.00    +0.000 C 
ATOM     31  C4  UNL     1      25.695  -7.355 -39.580  0.00  0.00    +0.000 C 
ATOM     32  N5  UNL     1      26.598  -6.709 -38.817  0.00  0.00    +0.000 NA
ATOM     33  N6  UNL     1      26.320  -7.016 -37.558  0.00  0.00    +0.000 NA
BRANCH  29  34
ATOM     34  C2  UNL     1      24.679  -8.321 -36.269  0.00  0.00    +0.000 C 
BRANCH  34  36
ATOM     35  O1  UNL     1      25.757 -10.153 -35.188  0.00  0.00    +0.000 OA
ATOM     36  C1  UNL     1      25.736  -8.909 -35.387  0.00  0.00    +0.000 C 
ATOM     37  N7  UNL     1      26.711  -8.052 -34.773  0.00  0.00    +0.000 N 
ATOM     38  H22 UNL     1      26.483  -7.035 -34.688  0.00  0.00    +0.000 HD
BRANCH  37  39
ATOM     39  C26 UNL     1      27.953  -8.518 -34.219  0.00  0.00    +0.000 C 
ATOM     40  C27 UNL     1      28.298  -8.162 -32.905  0.00  0.00    +0.000 C 
ATOM     41  C28 UNL     1      29.514  -8.580 -32.354  0.00  0.00    +0.000 C 
ATOM     42  C29 UNL     1      30.403  -9.343 -33.114  0.00  0.00    +0.000 C 
ATOM     43 BR1  UNL     1      32.066  -9.908 -32.363  0.00  0.00    +0.000 Br
ATOM     44  C30 UNL     1      30.080  -9.684 -34.431  0.00  0.00    +0.000 C 
ATOM     45  C31 UNL     1      28.865  -9.271 -34.985  0.00  0.00    +0.000 C 
ENDBRANCH  37  39
ENDBRANCH  34  36
ENDBRANCH  29  34
ENDBRANCH  28  31
ENDBRANCH  27  28
ENDBRANCH   1  27
TORSDOF 9
