REMARK  Name = resultss/4CJN/ligands/lig_173_t0.pdb
REMARK  4 active torsions:
REMARK  status: ('A' for Active; 'I' for Inactive)
REMARK    1  A    between atoms: C9_1  and  C1_17
REMARK    2  A    between atoms: C12_4  and  C13_7
REMARK    3  A    between atoms: N1_18  and  N2_20
REMARK    4  A    between atoms: C2_21  and  C3_22
REMARK                            x       y       z     vdW  Elec       q    Type
REMARK                         _______ _______ _______ _____ _____    ______ ____
ROOT
ATOM      1  C9  UNL     1      28.116  -9.134 -40.337  0.00  0.00    +0.000 C 
ATOM      2  C10 UNL     1      27.804  -7.776 -40.521  0.00  0.00    +0.000 C 
ATOM      3  C11 UNL     1      27.391  -7.306 -41.771  0.00  0.00    +0.000 C 
ATOM      4  C12 UNL     1      27.274  -8.183 -42.863  0.00  0.00    +0.000 C 
ATOM      5  C20 UNL     1      27.574  -9.543 -42.676  0.00  0.00    +0.000 C 
ATOM      6  C21 UNL     1      27.985 -10.013 -41.425  0.00  0.00    +0.000 C 
ENDROOT
BRANCH   4   7
ATOM      7  C13 UNL     1      26.838  -7.673 -44.184  0.00  0.00    +0.000 A 
ATOM      8  N3  UNL     1      27.700  -7.410 -45.200  0.00  0.00    +0.000 NA
ATOM      9  C14 UNL     1      27.047  -6.954 -46.299  0.00  0.00    +0.000 A 
ATOM     10  C15 UNL     1      27.670  -6.602 -47.499  0.00  0.00    +0.000 C 
ATOM     11  C16 UNL     1      26.876  -6.143 -48.563  0.00  0.00    +0.000 C 
ATOM     12  C17 UNL     1      25.477  -6.042 -48.419  0.00  0.00    +0.000 C 
ATOM     13  C18 UNL     1      24.861  -6.400 -47.209  0.00  0.00    +0.000 C 
ATOM     14  C19 UNL     1      25.672  -6.851 -46.170  0.00  0.00    +0.000 A 
ATOM     15  S1  UNL     1      25.231  -7.343 -44.630  0.00  0.00    +0.000 S 
ENDBRANCH   4   7
BRANCH   1  17
ATOM     16  O1  UNL     1      27.820 -10.479 -38.404  0.00  0.00    +0.000 OA
ATOM     17  C1  UNL     1      28.549  -9.650 -39.014  0.00  0.00    +0.000 C 
ATOM     18  N1  UNL     1      29.787  -9.241 -38.424  0.00  0.00    +0.000 N 
ATOM     19  H1  UNL     1      30.478  -8.689 -38.981  0.00  0.00    +0.000 HD
BRANCH  18  20
ATOM     20  N2  UNL     1      30.106  -9.641 -37.116  0.00  0.00    +0.000 NA
ATOM     21  C2  UNL     1      30.712  -8.849 -36.287  0.00  0.00    +0.000 C 
BRANCH  21  22
ATOM     22  C3  UNL     1      31.039  -9.290 -34.915  0.00  0.00    +0.000 C 
ATOM     23  C4  UNL     1      30.032  -9.632 -33.992  0.00  0.00    +0.000 C 
ATOM     24  C5  UNL     1      30.371 -10.045 -32.700  0.00  0.00    +0.000 C 
ATOM     25  C6  UNL     1      31.713 -10.122 -32.317  0.00  0.00    +0.000 C 
ATOM     26  F1  UNL     1      32.038 -10.523 -31.064  0.00  0.00    +0.000 F 
ATOM     27  C7  UNL     1      32.719  -9.786 -33.227  0.00  0.00    +0.000 C 
ATOM     28  C8  UNL     1      32.385  -9.371 -34.520  0.00  0.00    +0.000 C 
ENDBRANCH  21  22
ENDBRANCH  18  20
ENDBRANCH   1  17
TORSDOF 4
