REMARK  Name = resultss/4CJN/ligands/lig_415_t0.pdb
REMARK  6 active torsions:
REMARK  status: ('A' for Active; 'I' for Inactive)
REMARK    1  A    between atoms: C9_1  and  C1_22
REMARK    2  A    between atoms: C19_12  and  C20_15
REMARK    3  A    between atoms: N1_23  and  N2_25
REMARK    4  A    between atoms: N2_25  and  C2_27
REMARK    5  A    between atoms: C2_27  and  N3_29
REMARK    6  A    between atoms: N3_29  and  C3_31
REMARK                            x       y       z     vdW  Elec       q    Type
REMARK                         _______ _______ _______ _____ _____    ______ ____
ROOT
ATOM      1  C9  UNL     1      27.658  -9.819 -37.647  0.00  0.00    +0.000 C 
ATOM      2  C10 UNL     1      28.896  -9.785 -36.971  0.00  0.00    +0.000 C 
ATOM      3  C11 UNL     1      28.873  -9.472 -35.617  0.00  0.00    +0.000 A 
ATOM      4  C12 UNL     1      27.700  -9.196 -34.948  0.00  0.00    +0.000 A 
ATOM      5  N4  UNL     1      27.924  -8.986 -33.629  0.00  0.00    +0.000 N 
ATOM      6  C13 UNL     1      29.260  -9.114 -33.480  0.00  0.00    +0.000 A 
ATOM      7  C14 UNL     1      29.990  -8.999 -32.297  0.00  0.00    +0.000 C 
ATOM      8  C15 UNL     1      31.383  -9.191 -32.361  0.00  0.00    +0.000 C 
ATOM      9  C16 UNL     1      32.010  -9.496 -33.591  0.00  0.00    +0.000 C 
ATOM     10  C17 UNL     1      31.252  -9.613 -34.770  0.00  0.00    +0.000 C 
ATOM     11  C18 UNL     1      29.877  -9.410 -34.677  0.00  0.00    +0.000 A 
ATOM     12  C19 UNL     1      26.479  -9.217 -35.633  0.00  0.00    +0.000 C 
ATOM     13  N5  UNL     1      26.502  -9.540 -36.963  0.00  0.00    +0.000 NA
ATOM     14  H9  UNL     1      27.226  -8.802 -32.875  0.00  0.00    +0.000 HD
ENDROOT
BRANCH  12  15
ATOM     15  C20 UNL     1      25.186  -8.914 -34.984  0.00  0.00    +0.000 C 
ATOM     16  C21 UNL     1      24.930  -9.311 -33.660  0.00  0.00    +0.000 C 
ATOM     17  C22 UNL     1      23.711  -8.994 -33.052  0.00  0.00    +0.000 C 
ATOM     18  C23 UNL     1      22.745  -8.268 -33.754  0.00  0.00    +0.000 C 
ATOM     19  C24 UNL     1      23.000  -7.851 -35.063  0.00  0.00    +0.000 C 
ATOM     20  C25 UNL     1      24.217  -8.165 -35.674  0.00  0.00    +0.000 C 
ENDBRANCH  12  15
BRANCH   1  22
ATOM     21  O1  UNL     1      26.678  -9.665 -39.803  0.00  0.00    +0.000 OA
ATOM     22  C1  UNL     1      27.588 -10.162 -39.083  0.00  0.00    +0.000 C 
ATOM     23  N1  UNL     1      28.535 -11.074 -39.660  0.00  0.00    +0.000 N 
ATOM     24  H1  UNL     1      29.067 -11.715 -39.029  0.00  0.00    +0.000 HD
BRANCH  23  25
ATOM     25  N2  UNL     1      28.598 -11.310 -41.044  0.00  0.00    +0.000 N 
ATOM     26  H2  UNL     1      28.032 -12.093 -41.441  0.00  0.00    +0.000 HD
BRANCH  25  27
ATOM     27  C2  UNL     1      29.530 -10.639 -41.908  0.00  0.00    +0.000 C 
ATOM     28  S1  UNL     1      29.088  -9.256 -42.673  0.00  0.00    +0.000 S 
BRANCH  27  29
ATOM     29  N3  UNL     1      30.918 -11.007 -41.894  0.00  0.00    +0.000 N 
ATOM     30  H3  UNL     1      31.429 -10.968 -40.983  0.00  0.00    +0.000 HD
BRANCH  29  31
ATOM     31  C3  UNL     1      31.640 -11.451 -43.055  0.00  0.00    +0.000 C 
ATOM     32  C4  UNL     1      31.675 -12.819 -43.363  0.00  0.00    +0.000 C 
ATOM     33  C5  UNL     1      32.389 -13.277 -44.476  0.00  0.00    +0.000 C 
ATOM     34  C6  UNL     1      33.087 -12.372 -45.282  0.00  0.00    +0.000 C 
ATOM     35 BR1  UNL     1      34.063 -12.998 -46.799  0.00  0.00    +0.000 Br
ATOM     36  C7  UNL     1      33.075 -11.009 -44.971  0.00  0.00    +0.000 C 
ATOM     37  C8  UNL     1      32.363 -10.549 -43.859  0.00  0.00    +0.000 C 
ENDBRANCH  29  31
ENDBRANCH  27  29
ENDBRANCH  25  27
ENDBRANCH  23  25
ENDBRANCH   1  22
TORSDOF 6
