REMARK  Name = resultss/4CJN/ligands/lig_167_t2.pdb
REMARK  4 active torsions:
REMARK  status: ('A' for Active; 'I' for Inactive)
REMARK    1  A    between atoms: C9_1  and  C1_17
REMARK    2  A    between atoms: C12_4  and  C13_7
REMARK    3  A    between atoms: N1_18  and  N2_20
REMARK    4  A    between atoms: C2_21  and  C3_22
REMARK                            x       y       z     vdW  Elec       q    Type
REMARK                         _______ _______ _______ _____ _____    ______ ____
ROOT
ATOM      1  C9  UNL     1      25.095  -8.939 -40.793  0.00  0.00    +0.000 C 
ATOM      2  C10 UNL     1      26.301  -9.655 -40.686  0.00  0.00    +0.000 C 
ATOM      3  C11 UNL     1      26.990  -9.706 -39.471  0.00  0.00    +0.000 C 
ATOM      4  C12 UNL     1      26.493  -9.040 -38.337  0.00  0.00    +0.000 C 
ATOM      5  C20 UNL     1      25.296  -8.316 -38.448  0.00  0.00    +0.000 C 
ATOM      6  C21 UNL     1      24.607  -8.262 -39.664  0.00  0.00    +0.000 C 
ENDROOT
BRANCH   4   7
ATOM      7  C13 UNL     1      27.216  -9.091 -37.045  0.00  0.00    +0.000 A 
ATOM      8  N3  UNL     1      26.794  -8.435 -35.932  0.00  0.00    +0.000 NA
ATOM      9  C14 UNL     1      27.632  -8.645 -34.885  0.00  0.00    +0.000 A 
ATOM     10  C15 UNL     1      27.455  -8.100 -33.612  0.00  0.00    +0.000 C 
ATOM     11  C16 UNL     1      28.398  -8.398 -32.613  0.00  0.00    +0.000 C 
ATOM     12  C17 UNL     1      29.499  -9.231 -32.896  0.00  0.00    +0.000 C 
ATOM     13  C18 UNL     1      29.665  -9.774 -34.180  0.00  0.00    +0.000 C 
ATOM     14  C19 UNL     1      28.717  -9.463 -35.150  0.00  0.00    +0.000 A 
ATOM     15  S1  UNL     1      28.650  -9.956 -36.751  0.00  0.00    +0.000 S 
ENDBRANCH   4   7
BRANCH   1  17
ATOM     16  O1  UNL     1      24.588  -9.723 -42.975  0.00  0.00    +0.000 OA
ATOM     17  C1  UNL     1      24.355  -8.868 -42.077  0.00  0.00    +0.000 C 
ATOM     18  N1  UNL     1      23.392  -7.837 -42.327  0.00  0.00    +0.000 N 
ATOM     19  H1  UNL     1      23.305  -7.030 -41.668  0.00  0.00    +0.000 HD
BRANCH  18  20
ATOM     20  N2  UNL     1      22.612  -7.875 -43.493  0.00  0.00    +0.000 NA
ATOM     21  C2  UNL     1      22.364  -6.808 -44.187  0.00  0.00    +0.000 C 
BRANCH  21  22
ATOM     22  C3  UNL     1      21.540  -6.860 -45.418  0.00  0.00    +0.000 C 
ATOM     23  C4  UNL     1      22.149  -7.082 -46.595  0.00  0.00    +0.000 C 
ATOM     24  C5  UNL     1      21.409  -7.156 -47.910  0.00  0.00    +0.000 C 
ATOM     25  C6  UNL     1      19.918  -6.960 -47.803  0.00  0.00    +0.000 C 
ATOM     26  C7  UNL     1      19.304  -6.740 -46.641  0.00  0.00    +0.000 C 
ATOM     27  C8  UNL     1      20.069  -6.677 -45.390  0.00  0.00    +0.000 C 
ATOM     28  O2  UNL     1      19.456  -6.468 -44.309  0.00  0.00    +0.000 OA
ENDBRANCH  21  22
ENDBRANCH  18  20
ENDBRANCH   1  17
TORSDOF 4
