REMARK  Name = resultss/4CJN/ligands/lig_343_t0.pdb
REMARK  10 active torsions:
REMARK  status: ('A' for Active; 'I' for Inactive)
REMARK    1  A    between atoms: C2_1  and  O1_28
REMARK    2  A    between atoms: C4_3  and  C5_7
REMARK    3  A    between atoms: C21_6  and  O3_29
REMARK    4  A    between atoms: N2_17  and  N3_19
REMARK    5  A    between atoms: N3_19  and  C13_21
REMARK    6  A    between atoms: O3_29  and  C22_30
REMARK    7  A    between atoms: C22_30  and  C23_31
REMARK    8  A    between atoms: N4_33  and  C25_36
REMARK    9  A    between atoms: C25_36  and  C26_37
REMARK   10  A    between atoms: N5_39  and  C27_41
REMARK                            x       y       z     vdW  Elec       q    Type
REMARK                         _______ _______ _______ _____ _____    ______ ____
ROOT
ATOM      1  C2  UNL     1      28.304  -9.926 -38.662  0.00  0.00    +0.000 C 
ATOM      2  C3  UNL     1      27.430  -9.367 -37.710  0.00  0.00    +0.000 C 
ATOM      3  C4  UNL     1      27.857  -8.328 -36.869  0.00  0.00    +0.000 C 
ATOM      4  C19 UNL     1      29.157  -7.823 -37.010  0.00  0.00    +0.000 C 
ATOM      5  C20 UNL     1      30.034  -8.381 -37.939  0.00  0.00    +0.000 C 
ATOM      6  C21 UNL     1      29.618  -9.442 -38.769  0.00  0.00    +0.000 C 
ENDROOT
BRANCH   3   7
ATOM      7  C5  UNL     1      26.910  -7.699 -35.868  0.00  0.00    +0.000 C 
ATOM      8  N1  UNL     1      25.769  -7.121 -36.585  0.00  0.00    +0.000 N 
ATOM      9  C6  UNL     1      24.429  -7.139 -36.077  0.00  0.00    +0.000 C 
ATOM     10  C7  UNL     1      23.444  -6.313 -36.646  0.00  0.00    +0.000 C 
ATOM     11  C8  UNL     1      22.133  -6.340 -36.161  0.00  0.00    +0.000 C 
ATOM     12  C9  UNL     1      21.791  -7.208 -35.121  0.00  0.00    +0.000 C 
ATOM     13  C10 UNL     1      22.760  -8.046 -34.562  0.00  0.00    +0.000 C 
ATOM     14  C11 UNL     1      24.085  -8.009 -35.034  0.00  0.00    +0.000 C 
ATOM     15  C12 UNL     1      25.129  -8.879 -34.473  0.00  0.00    +0.000 C 
ATOM     16  O2  UNL     1      24.828  -9.766 -33.629  0.00  0.00    +0.000 OA
ATOM     17  N2  UNL     1      26.499  -8.711 -34.873  0.00  0.00    +0.000 N 
ATOM     18  H6  UNL     1      25.980  -6.493 -37.395  0.00  0.00    +0.000 HD
BRANCH  17  19
ATOM     19  N3  UNL     1      27.468  -9.570 -34.317  0.00  0.00    +0.000 N 
ATOM     20  H11 UNL     1      27.339 -10.600 -34.414  0.00  0.00    +0.000 HD
BRANCH  19  21
ATOM     21  C13 UNL     1      28.629  -9.076 -33.628  0.00  0.00    +0.000 C 
ATOM     22  C14 UNL     1      29.893  -9.653 -33.837  0.00  0.00    +0.000 C 
ATOM     23  C15 UNL     1      31.019  -9.131 -33.195  0.00  0.00    +0.000 C 
ATOM     24  C16 UNL     1      30.894  -8.032 -32.341  0.00  0.00    +0.000 C 
ATOM     25  C17 UNL     1      29.643  -7.447 -32.137  0.00  0.00    +0.000 C 
ATOM     26  C18 UNL     1      28.515  -7.962 -32.781  0.00  0.00    +0.000 C 
ENDBRANCH  19  21
ENDBRANCH  17  19
ENDBRANCH   3   7
BRANCH   1  28
ATOM     27  C1  UNL     1      26.864 -10.828 -40.501  0.00  0.00    +0.000 C 
ATOM     28  O1  UNL     1      27.898 -10.952 -39.529  0.00  0.00    +0.000 OA
ENDBRANCH   1  28
BRANCH   6  29
ATOM     29  O3  UNL     1      30.481 -10.033 -39.708  0.00  0.00    +0.000 OA
BRANCH  29  30
ATOM     30  C22 UNL     1      31.097  -9.328 -40.783  0.00  0.00    +0.000 C 
BRANCH  30  31
ATOM     31  C23 UNL     1      30.057  -8.600 -41.569  0.00  0.00    +0.000 C 
ATOM     32  C24 UNL     1      29.309  -9.100 -42.614  0.00  0.00    +0.000 C 
ATOM     33  N4  UNL     1      28.543  -8.084 -43.039  0.00  0.00    +0.000 N 
ATOM     34  N6  UNL     1      28.817  -7.017 -42.304  0.00  0.00    +0.000 NA
ATOM     35  N7  UNL     1      29.737  -7.305 -41.395  0.00  0.00    +0.000 NA
BRANCH  33  36
ATOM     36  C25 UNL     1      27.636  -8.090 -44.182  0.00  0.00    +0.000 C 
BRANCH  36  37
ATOM     37  C26 UNL     1      26.345  -7.428 -43.812  0.00  0.00    +0.000 C 
ATOM     38  O4  UNL     1      25.914  -6.479 -44.519  0.00  0.00    +0.000 OA
ATOM     39  N5  UNL     1      25.658  -7.818 -42.614  0.00  0.00    +0.000 N 
ATOM     40  H24 UNL     1      26.192  -8.373 -41.905  0.00  0.00    +0.000 HD
BRANCH  39  41
ATOM     41  C27 UNL     1      24.352  -7.339 -42.249  0.00  0.00    +0.000 C 
ATOM     42  C28 UNL     1      24.216  -6.478 -41.150  0.00  0.00    +0.000 C 
ATOM     43  C29 UNL     1      22.956  -6.022 -40.754  0.00  0.00    +0.000 C 
ATOM     44  C30 UNL     1      21.807  -6.429 -41.453  0.00  0.00    +0.000 C 
ATOM     45  C31 UNL     1      20.449  -5.979 -40.996  0.00  0.00    +0.000 C 
ATOM     46  C32 UNL     1      21.934  -7.321 -42.530  0.00  0.00    +0.000 C 
ATOM     47  C33 UNL     1      23.198  -7.774 -42.928  0.00  0.00    +0.000 C 
ENDBRANCH  39  41
ENDBRANCH  36  37
ENDBRANCH  33  36
ENDBRANCH  30  31
ENDBRANCH  29  30
ENDBRANCH   6  29
TORSDOF 10
