REMARK  Name = resultss/4CJN/ligands/lig_347_t2.pdb
REMARK  11 active torsions:
REMARK  status: ('A' for Active; 'I' for Inactive)
REMARK    1  A    between atoms: C6_1  and  O2_27
REMARK    2  A    between atoms: C9_4  and  C10_7
REMARK    3  A    between atoms: C17_15  and  O3_17
REMARK    4  A    between atoms: N3_16  and  N4_19
REMARK    5  A    between atoms: N4_19  and  C18_21
REMARK    6  A    between atoms: O2_27  and  C5_28
REMARK    7  A    between atoms: C5_28  and  C4_31
REMARK    8  A    between atoms: N1_29  and  C2_34
REMARK    9  A    between atoms: C2_34  and  C1_36
REMARK   10  A    between atoms: N7_37  and  C26_39
REMARK   11  A    between atoms: C29_42  and  N8_45
REMARK                            x       y       z     vdW  Elec       q    Type
REMARK                         _______ _______ _______ _____ _____    ______ ____
ROOT
ATOM      1  C6  UNL     1      31.054  -9.129 -38.888  0.00  0.00    +0.000 C 
ATOM      2  C7  UNL     1      31.155  -7.758 -38.582  0.00  0.00    +0.000 C 
ATOM      3  C8  UNL     1      31.304  -7.339 -37.257  0.00  0.00    +0.000 C 
ATOM      4  C9  UNL     1      31.347  -8.277 -36.211  0.00  0.00    +0.000 C 
ATOM      5  C24 UNL     1      31.276  -9.650 -36.526  0.00  0.00    +0.000 C 
ATOM      6  C25 UNL     1      31.117 -10.067 -37.850  0.00  0.00    +0.000 C 
ENDROOT
BRANCH   4   7
ATOM      7  C10 UNL     1      31.547  -7.792 -34.793  0.00  0.00    +0.000 C 
ATOM      8  N2  UNL     1      32.785  -8.352 -34.263  0.00  0.00    +0.000 NA
ATOM      9  C11 UNL     1      32.852  -9.265 -33.341  0.00  0.00    +0.000 C 
ATOM     10  C12 UNL     1      34.118  -9.753 -32.985  0.00  0.00    +0.000 C 
ATOM     11  C13 UNL     1      34.248 -10.756 -32.026  0.00  0.00    +0.000 C 
ATOM     12  C14 UNL     1      33.114 -11.272 -31.404  0.00  0.00    +0.000 C 
ATOM     13  C15 UNL     1      31.847 -10.789 -31.735  0.00  0.00    +0.000 C 
ATOM     14  C16 UNL     1      31.687  -9.775 -32.714  0.00  0.00    +0.000 C 
ATOM     15  C17 UNL     1      30.472  -9.260 -33.039  0.00  0.00    +0.000 C 
ATOM     16  N3  UNL     1      30.394  -8.127 -33.943  0.00  0.00    +0.000 N 
BRANCH  15  17
ATOM     17  O3  UNL     1      29.282  -9.808 -32.542  0.00  0.00    +0.000 OA
ATOM     18  H13 UNL     1      28.705 -10.485 -33.020  0.00  0.00    +0.000 HD
ENDBRANCH  15  17
BRANCH  16  19
ATOM     19  N4  UNL     1      29.205  -7.389 -34.154  0.00  0.00    +0.000 N 
ATOM     20  H14 UNL     1      29.024  -6.538 -33.567  0.00  0.00    +0.000 HD
BRANCH  19  21
ATOM     21  C18 UNL     1      28.274  -7.642 -35.212  0.00  0.00    +0.000 C 
ATOM     22  C19 UNL     1      27.846  -6.593 -36.036  0.00  0.00    +0.000 C 
ATOM     23  C20 UNL     1      26.967  -6.854 -37.095  0.00  0.00    +0.000 C 
ATOM     24  C21 UNL     1      26.515  -8.158 -37.326  0.00  0.00    +0.000 C 
ATOM     25  C22 UNL     1      26.949  -9.207 -36.507  0.00  0.00    +0.000 C 
ATOM     26  C23 UNL     1      27.837  -8.952 -35.456  0.00  0.00    +0.000 C 
ENDBRANCH  19  21
ENDBRANCH  16  19
ENDBRANCH   4   7
BRANCH   1  27
ATOM     27  O2  UNL     1      30.886  -9.596 -40.201  0.00  0.00    +0.000 OA
BRANCH  27  28
ATOM     28  C5  UNL     1      29.987  -9.027 -41.149  0.00  0.00    +0.000 C 
BRANCH  28  31
ATOM     29  N1  UNL     1      26.441  -9.571 -40.613  0.00  0.00    +0.000 N 
ATOM     30  C3  UNL     1      27.449  -8.729 -40.897  0.00  0.00    +0.000 C 
ATOM     31  C4  UNL     1      28.597  -9.491 -40.859  0.00  0.00    +0.000 C 
ATOM     32  N5  UNL     1      28.259 -10.767 -40.581  0.00  0.00    +0.000 NA
ATOM     33  N6  UNL     1      26.941 -10.785 -40.437  0.00  0.00    +0.000 NA
BRANCH  29  34
ATOM     34  C2  UNL     1      25.019  -9.249 -40.576  0.00  0.00    +0.000 C 
BRANCH  34  36
ATOM     35  O1  UNL     1      24.261 -10.083 -42.674  0.00  0.00    +0.000 OA
ATOM     36  C1  UNL     1      24.496  -9.064 -41.969  0.00  0.00    +0.000 C 
ATOM     37  N7  UNL     1      24.328  -7.743 -42.510  0.00  0.00    +0.000 N 
ATOM     38  H22 UNL     1      24.783  -6.948 -42.007  0.00  0.00    +0.000 HD
BRANCH  37  39
ATOM     39  C26 UNL     1      23.672  -7.455 -43.757  0.00  0.00    +0.000 C 
ATOM     40  C27 UNL     1      22.296  -7.190 -43.766  0.00  0.00    +0.000 C 
ATOM     41  C28 UNL     1      21.628  -6.937 -44.969  0.00  0.00    +0.000 C 
ATOM     42  C29 UNL     1      22.326  -6.959 -46.190  0.00  0.00    +0.000 C 
ATOM     43  C30 UNL     1      23.700  -7.243 -46.181  0.00  0.00    +0.000 C 
ATOM     44  C31 UNL     1      24.367  -7.496 -44.978  0.00  0.00    +0.000 C 
BRANCH  42  45
ATOM     45  N8  UNL     1      21.640  -6.716 -47.431  0.00  0.00    +0.000 N 
ATOM     46  O4  UNL     1      20.558  -6.095 -47.448  0.00  0.00    +0.000 OA
ATOM     47  O5  UNL     1      22.166  -7.165 -48.621  0.00  0.00    +0.000 OA
ENDBRANCH  42  45
ENDBRANCH  37  39
ENDBRANCH  34  36
ENDBRANCH  29  34
ENDBRANCH  28  31
ENDBRANCH  27  28
ENDBRANCH   1  27
TORSDOF 11
