REMARK  Name = resultss/4CJN/ligands/lig_342_t1.pdb
REMARK  11 active torsions:
REMARK  status: ('A' for Active; 'I' for Inactive)
REMARK    1  A    between atoms: C2_1  and  O1_28
REMARK    2  A    between atoms: C4_3  and  C5_7
REMARK    3  A    between atoms: C21_6  and  O3_29
REMARK    4  A    between atoms: N2_17  and  N3_19
REMARK    5  A    between atoms: N3_19  and  C13_21
REMARK    6  A    between atoms: O3_29  and  C22_30
REMARK    7  A    between atoms: C22_30  and  C23_31
REMARK    8  A    between atoms: N4_33  and  C25_36
REMARK    9  A    between atoms: C25_36  and  C26_37
REMARK   10  A    between atoms: C26_37  and  O4_47
REMARK   11  A    between atoms: N5_38  and  C27_39
REMARK                            x       y       z     vdW  Elec       q    Type
REMARK                         _______ _______ _______ _____ _____    ______ ____
ROOT
ATOM      1  C2  UNL     1      26.315  -9.157 -39.505  0.00  0.00    +0.000 C 
ATOM      2  C3  UNL     1      26.790  -9.083 -38.181  0.00  0.00    +0.000 C 
ATOM      3  C4  UNL     1      26.747  -7.872 -37.469  0.00  0.00    +0.000 C 
ATOM      4  C19 UNL     1      26.169  -6.746 -38.079  0.00  0.00    +0.000 C 
ATOM      5  C20 UNL     1      25.684  -6.815 -39.387  0.00  0.00    +0.000 C 
ATOM      6  C21 UNL     1      25.765  -8.018 -40.111  0.00  0.00    +0.000 C 
ENDROOT
BRANCH   3   7
ATOM      7  C5  UNL     1      27.230  -7.772 -36.037  0.00  0.00    +0.000 C 
ATOM      8  N1  UNL     1      26.408  -6.799 -35.311  0.00  0.00    +0.000 N 
ATOM      9  C6  UNL     1      25.275  -7.183 -34.521  0.00  0.00    +0.000 C 
ATOM     10  C7  UNL     1      24.341  -6.218 -34.113  0.00  0.00    +0.000 C 
ATOM     11  C8  UNL     1      23.241  -6.591 -33.332  0.00  0.00    +0.000 C 
ATOM     12  C9  UNL     1      23.069  -7.926 -32.960  0.00  0.00    +0.000 C 
ATOM     13  C10 UNL     1      23.999  -8.891 -33.359  0.00  0.00    +0.000 C 
ATOM     14  C11 UNL     1      25.111  -8.521 -34.136  0.00  0.00    +0.000 C 
ATOM     15  C12 UNL     1      26.131  -9.502 -34.542  0.00  0.00    +0.000 C 
ATOM     16  O2  UNL     1      26.051 -10.699 -34.152  0.00  0.00    +0.000 OA
ATOM     17  N2  UNL     1      27.233  -9.090 -35.371  0.00  0.00    +0.000 N 
ATOM     18  H6  UNL     1      26.561  -5.786 -35.519  0.00  0.00    +0.000 HD
BRANCH  17  19
ATOM     19  N3  UNL     1      28.183 -10.053 -35.762  0.00  0.00    +0.000 N 
ATOM     20  H11 UNL     1      27.856 -11.022 -35.975  0.00  0.00    +0.000 HD
BRANCH  19  21
ATOM     21  C13 UNL     1      29.594  -9.778 -35.789  0.00  0.00    +0.000 C 
ATOM     22  C14 UNL     1      30.296  -9.871 -37.003  0.00  0.00    +0.000 C 
ATOM     23  C15 UNL     1      31.675  -9.636 -37.044  0.00  0.00    +0.000 C 
ATOM     24  C16 UNL     1      32.363  -9.314 -35.873  0.00  0.00    +0.000 C 
ATOM     25  C17 UNL     1      31.675  -9.231 -34.657  0.00  0.00    +0.000 C 
ATOM     26  C18 UNL     1      30.298  -9.471 -34.610  0.00  0.00    +0.000 C 
ENDBRANCH  19  21
ENDBRANCH  17  19
ENDBRANCH   3   7
BRANCH   1  28
ATOM     27  C1  UNL     1      27.423 -11.303 -40.166  0.00  0.00    +0.000 C 
ATOM     28  O1  UNL     1      26.371 -10.347 -40.250  0.00  0.00    +0.000 OA
ENDBRANCH   1  28
BRANCH   6  29
ATOM     29  O3  UNL     1      25.316  -8.125 -41.437  0.00  0.00    +0.000 OA
BRANCH  29  30
ATOM     30  C22 UNL     1      25.951  -7.524 -42.562  0.00  0.00    +0.000 C 
BRANCH  30  31
ATOM     31  C23 UNL     1      27.388  -7.929 -42.586  0.00  0.00    +0.000 C 
ATOM     32  C24 UNL     1      27.910  -9.093 -43.104  0.00  0.00    +0.000 C 
ATOM     33  N4  UNL     1      29.240  -9.002 -42.952  0.00  0.00    +0.000 N 
ATOM     34  N6  UNL     1      29.519  -7.851 -42.361  0.00  0.00    +0.000 NA
ATOM     35  N7  UNL     1      28.404  -7.173 -42.125  0.00  0.00    +0.000 NA
BRANCH  33  36
ATOM     36  C25 UNL     1      30.236  -9.986 -43.365  0.00  0.00    +0.000 C 
BRANCH  36  37
ATOM     37  C26 UNL     1      30.951 -10.555 -42.169  0.00  0.00    +0.000 C 
ATOM     38  N5  UNL     1      31.925 -11.416 -42.268  0.00  0.00    +0.000 NA
BRANCH  38  39
ATOM     39  C27 UNL     1      32.422 -11.991 -43.486  0.00  0.00    +0.000 C 
ATOM     40  C28 UNL     1      31.746 -13.063 -44.089  0.00  0.00    +0.000 C 
ATOM     41  C29 UNL     1      32.228 -13.628 -45.271  0.00  0.00    +0.000 C 
ATOM     42  C30 UNL     1      33.397 -13.134 -45.866  0.00  0.00    +0.000 C 
ATOM     43  C31 UNL     1      33.919 -13.760 -47.127  0.00  0.00    +0.000 C 
ATOM     44  C32 UNL     1      34.105 -12.097 -45.238  0.00  0.00    +0.000 C 
ATOM     45  C33 UNL     1      33.626 -11.522 -44.048  0.00  0.00    +0.000 C 
ATOM     46  C34 UNL     1      34.380 -10.398 -43.395  0.00  0.00    +0.000 C 
ENDBRANCH  38  39
BRANCH  37  47
ATOM     47  O4  UNL     1      30.577 -10.100 -40.907  0.00  0.00    +0.000 OA
ATOM     48  H24 UNL     1      29.604  -9.930 -40.680  0.00  0.00    +0.000 HD
ENDBRANCH  37  47
ENDBRANCH  36  37
ENDBRANCH  33  36
ENDBRANCH  30  31
ENDBRANCH  29  30
ENDBRANCH   6  29
TORSDOF 11
