REMARK  Name = resultss/4CJN/ligands/lig_411_t0.pdb
REMARK  6 active torsions:
REMARK  status: ('A' for Active; 'I' for Inactive)
REMARK    1  A    between atoms: C9_1  and  C1_22
REMARK    2  A    between atoms: C19_12  and  C20_15
REMARK    3  A    between atoms: N1_23  and  N2_25
REMARK    4  A    between atoms: N2_25  and  C2_27
REMARK    5  A    between atoms: C2_27  and  N3_29
REMARK    6  A    between atoms: N3_29  and  C3_31
REMARK                            x       y       z     vdW  Elec       q    Type
REMARK                         _______ _______ _______ _____ _____    ______ ____
ROOT
ATOM      1  C9  UNL     1      25.601  -8.304 -37.990  0.00  0.00    +0.000 C 
ATOM      2  C10 UNL     1      26.981  -8.586 -37.883  0.00  0.00    +0.000 C 
ATOM      3  C11 UNL     1      27.509  -8.701 -36.603  0.00  0.00    +0.000 A 
ATOM      4  C12 UNL     1      26.736  -8.545 -35.473  0.00  0.00    +0.000 A 
ATOM      5  N4  UNL     1      27.456  -8.769 -34.349  0.00  0.00    +0.000 N 
ATOM      6  C13 UNL     1      28.702  -9.050 -34.786  0.00  0.00    +0.000 A 
ATOM      7  C14 UNL     1      29.815  -9.366 -34.009  0.00  0.00    +0.000 C 
ATOM      8  C15 UNL     1      31.024  -9.647 -34.674  0.00  0.00    +0.000 C 
ATOM      9  C16 UNL     1      31.093  -9.613 -36.085  0.00  0.00    +0.000 C 
ATOM     10  C17 UNL     1      29.955  -9.297 -36.848  0.00  0.00    +0.000 C 
ATOM     11  C18 UNL     1      28.775  -9.017 -36.164  0.00  0.00    +0.000 A 
ATOM     12  C19 UNL     1      25.370  -8.251 -35.592  0.00  0.00    +0.000 C 
ATOM     13  N5  UNL     1      24.850  -8.152 -36.853  0.00  0.00    +0.000 NA
ATOM     14  H9  UNL     1      27.126  -8.766 -33.358  0.00  0.00    +0.000 HD
ENDROOT
BRANCH  12  15
ATOM     15  C20 UNL     1      24.485  -8.053 -34.424  0.00  0.00    +0.000 C 
ATOM     16  C21 UNL     1      23.954  -6.787 -34.125  0.00  0.00    +0.000 C 
ATOM     17  C22 UNL     1      23.097  -6.622 -33.032  0.00  0.00    +0.000 C 
ATOM     18  C23 UNL     1      22.755  -7.720 -32.238  0.00  0.00    +0.000 C 
ATOM     19  C24 UNL     1      23.261  -8.986 -32.542  0.00  0.00    +0.000 C 
ATOM     20  C25 UNL     1      24.118  -9.156 -33.634  0.00  0.00    +0.000 C 
ENDBRANCH  12  15
BRANCH   1  22
ATOM     21  O1  UNL     1      24.962  -7.083 -39.921  0.00  0.00    +0.000 OA
ATOM     22  C1  UNL     1      24.952  -8.188 -39.312  0.00  0.00    +0.000 C 
ATOM     23  N1  UNL     1      24.300  -9.322 -39.905  0.00  0.00    +0.000 N 
ATOM     24  H1  UNL     1      24.027 -10.123 -39.293  0.00  0.00    +0.000 HD
BRANCH  23  25
ATOM     25  N2  UNL     1      23.778  -9.281 -41.210  0.00  0.00    +0.000 N 
ATOM     26  H2  UNL     1      22.760  -9.475 -41.344  0.00  0.00    +0.000 HD
BRANCH  25  27
ATOM     27  C2  UNL     1      24.602  -9.104 -42.372  0.00  0.00    +0.000 C 
ATOM     28  S1  UNL     1      24.151  -7.981 -43.483  0.00  0.00    +0.000 S 
BRANCH  27  29
ATOM     29  N3  UNL     1      25.815  -9.867 -42.529  0.00  0.00    +0.000 N 
ATOM     30  H3  UNL     1      25.798 -10.716 -43.136  0.00  0.00    +0.000 HD
BRANCH  29  31
ATOM     31  C3  UNL     1      27.058  -9.571 -41.873  0.00  0.00    +0.000 C 
ATOM     32  C4  UNL     1      27.683 -10.560 -41.101  0.00  0.00    +0.000 C 
ATOM     33  C5  UNL     1      28.911 -10.303 -40.484  0.00  0.00    +0.000 C 
ATOM     34  C6  UNL     1      29.532  -9.063 -40.650  0.00  0.00    +0.000 C 
ATOM     35  C7  UNL     1      28.931  -8.079 -41.441  0.00  0.00    +0.000 C 
ATOM     36 CL1  UNL     1      29.722  -6.530 -41.670  0.00  0.00    +0.000 Cl
ATOM     37  C8  UNL     1      27.702  -8.334 -42.060  0.00  0.00    +0.000 C 
ENDBRANCH  29  31
ENDBRANCH  27  29
ENDBRANCH  25  27
ENDBRANCH  23  25
ENDBRANCH   1  22
TORSDOF 6
