REMARK  Name = resultss/4CJN/ligands/lig_262_t1.pdb
REMARK  5 active torsions:
REMARK  status: ('A' for Active; 'I' for Inactive)
REMARK    1  A    between atoms: C4_1  and  C2_26
REMARK    2  A    between atoms: C14_12  and  C15_15
REMARK    3  A    between atoms: C18_18  and  O3_21
REMARK    4  A    between atoms: C19_19  and  O4_23
REMARK    5  A    between atoms: C2_26  and  O1_28
REMARK                            x       y       z     vdW  Elec       q    Type
REMARK                         _______ _______ _______ _____ _____    ______ ____
ROOT
ATOM      1  C4  UNL     1      32.363 -10.677 -42.959  0.00  0.00    +0.000 C 
ATOM      2  C5  UNL     1      31.004 -10.353 -43.649  0.00  0.00    +0.000 C 
ATOM      3  C6  UNL     1      30.079 -10.099 -42.521  0.00  0.00    +0.000 C 
ATOM      4  C7  UNL     1      28.690  -9.871 -42.604  0.00  0.00    +0.000 C 
ATOM      5  C8  UNL     1      27.961  -9.630 -41.419  0.00  0.00    +0.000 C 
ATOM      6  C9  UNL     1      28.662  -9.619 -40.206  0.00  0.00    +0.000 C 
ATOM      7  C10 UNL     1      30.022  -9.843 -40.145  0.00  0.00    +0.000 C 
ATOM      8  C11 UNL     1      30.739 -10.087 -41.312  0.00  0.00    +0.000 C 
ATOM      9  C12 UNL     1      32.190 -10.329 -41.454  0.00  0.00    +0.000 C 
ATOM     10  O2  UNL     1      30.506  -9.792 -38.841  0.00  0.00    +0.000 OA
ATOM     11  C13 UNL     1      29.418  -9.516 -38.009  0.00  0.00    +0.000 C 
ATOM     12  C14 UNL     1      29.533  -9.406 -36.679  0.00  0.00    +0.000 C 
ATOM     13  C21 UNL     1      28.210  -9.410 -38.844  0.00  0.00    +0.000 C 
ATOM     14  O5  UNL     1      27.017  -9.266 -38.468  0.00  0.00    +0.000 OA
ENDROOT
BRANCH  12  15
ATOM     15  C15 UNL     1      28.427  -9.047 -35.772  0.00  0.00    +0.000 C 
ATOM     16  C16 UNL     1      28.362  -7.778 -35.173  0.00  0.00    +0.000 C 
ATOM     17  C17 UNL     1      27.331  -7.473 -34.281  0.00  0.00    +0.000 C 
ATOM     18  C18 UNL     1      26.367  -8.437 -33.958  0.00  0.00    +0.000 C 
ATOM     19  C19 UNL     1      26.446  -9.719 -34.529  0.00  0.00    +0.000 C 
ATOM     20  C20 UNL     1      27.480 -10.020 -35.423  0.00  0.00    +0.000 C 
BRANCH  18  21
ATOM     21  O3  UNL     1      25.339  -8.130 -33.068  0.00  0.00    +0.000 OA
ATOM     22  H18 UNL     1      25.171  -7.179 -32.759  0.00  0.00    +0.000 HD
ENDBRANCH  18  21
BRANCH  19  23
ATOM     23  O4  UNL     1      25.510 -10.705 -34.219  0.00  0.00    +0.000 OA
ATOM     24  H19 UNL     1      25.205 -11.391 -34.899  0.00  0.00    +0.000 HD
ENDBRANCH  19  23
ENDBRANCH  12  15
BRANCH   1  26
ATOM     25  C1  UNL     1      31.727 -13.145 -43.398  0.00  0.00    +0.000 C 
ATOM     26  C2  UNL     1      32.881 -12.141 -43.191  0.00  0.00    +0.000 C 
ATOM     27  C3  UNL     1      33.818 -12.198 -44.419  0.00  0.00    +0.000 C 
BRANCH  26  28
ATOM     28  O1  UNL     1      33.607 -12.564 -42.060  0.00  0.00    +0.000 OA
ATOM     29  H7  UNL     1      33.069 -13.255 -41.590  0.00  0.00    +0.000 HD
ENDBRANCH  26  28
ENDBRANCH   1  26
TORSDOF 5
