REMARK  Name = resultss/4CJN/ligands/lig_349_t1.pdb
REMARK  10 active torsions:
REMARK  status: ('A' for Active; 'I' for Inactive)
REMARK    1  A    between atoms: C6_1  and  O2_27
REMARK    2  A    between atoms: C9_4  and  C10_7
REMARK    3  A    between atoms: N3_17  and  N4_19
REMARK    4  A    between atoms: N4_19  and  C18_21
REMARK    5  A    between atoms: O2_27  and  C5_28
REMARK    6  A    between atoms: C5_28  and  C4_31
REMARK    7  A    between atoms: N1_29  and  C2_34
REMARK    8  A    between atoms: C2_34  and  C1_35
REMARK    9  A    between atoms: C1_35  and  O1_44
REMARK   10  A    between atoms: N7_36  and  C26_37
REMARK                            x       y       z     vdW  Elec       q    Type
REMARK                         _______ _______ _______ _____ _____    ______ ____
ROOT
ATOM      1  C6  UNL     1      25.436  -8.075 -38.396  0.00  0.00    +0.000 C 
ATOM      2  C7  UNL     1      26.480  -8.946 -38.720  0.00  0.00    +0.000 C 
ATOM      3  C8  UNL     1      27.449  -8.579 -39.658  0.00  0.00    +0.000 C 
ATOM      4  C9  UNL     1      27.390  -7.324 -40.287  0.00  0.00    +0.000 C 
ATOM      5  C24 UNL     1      26.344  -6.446 -39.957  0.00  0.00    +0.000 C 
ATOM      6  C25 UNL     1      25.375  -6.817 -39.020  0.00  0.00    +0.000 C 
ENDROOT
BRANCH   4   7
ATOM      7  C10 UNL     1      28.414  -6.930 -41.330  0.00  0.00    +0.000 C 
ATOM      8  N2  UNL     1      29.720  -6.704 -40.700  0.00  0.00    +0.000 N 
ATOM      9  C11 UNL     1      30.752  -7.701 -40.665  0.00  0.00    +0.000 C 
ATOM     10  C12 UNL     1      31.881  -7.518 -39.853  0.00  0.00    +0.000 C 
ATOM     11  C13 UNL     1      32.877  -8.498 -39.802  0.00  0.00    +0.000 C 
ATOM     12  C14 UNL     1      32.753  -9.663 -40.563  0.00  0.00    +0.000 C 
ATOM     13  C15 UNL     1      31.635  -9.849 -41.382  0.00  0.00    +0.000 C 
ATOM     14  C16 UNL     1      30.631  -8.866 -41.439  0.00  0.00    +0.000 C 
ATOM     15  C17 UNL     1      29.450  -9.018 -42.304  0.00  0.00    +0.000 C 
ATOM     16  O3  UNL     1      29.279 -10.079 -42.965  0.00  0.00    +0.000 OA
ATOM     17  N3  UNL     1      28.487  -7.951 -42.387  0.00  0.00    +0.000 N 
ATOM     18  H10 UNL     1      29.842  -5.832 -40.137  0.00  0.00    +0.000 HD
BRANCH  17  19
ATOM     19  N4  UNL     1      27.450  -7.998 -43.342  0.00  0.00    +0.000 N 
ATOM     20  H15 UNL     1      27.698  -7.960 -44.355  0.00  0.00    +0.000 HD
BRANCH  19  21
ATOM     21  C18 UNL     1      26.074  -8.222 -42.990  0.00  0.00    +0.000 C 
ATOM     22  C19 UNL     1      25.138  -7.193 -43.173  0.00  0.00    +0.000 C 
ATOM     23  C20 UNL     1      23.794  -7.395 -42.848  0.00  0.00    +0.000 C 
ATOM     24  C21 UNL     1      23.372  -8.629 -42.348  0.00  0.00    +0.000 C 
ATOM     25  C22 UNL     1      24.293  -9.667 -42.181  0.00  0.00    +0.000 C 
ATOM     26  C23 UNL     1      25.639  -9.469 -42.506  0.00  0.00    +0.000 C 
ENDBRANCH  19  21
ENDBRANCH  17  19
ENDBRANCH   4   7
BRANCH   1  27
ATOM     27  O2  UNL     1      24.483  -8.498 -37.457  0.00  0.00    +0.000 OA
BRANCH  27  28
ATOM     28  C5  UNL     1      23.806  -7.630 -36.552  0.00  0.00    +0.000 C 
BRANCH  28  31
ATOM     29  N1  UNL     1      26.131  -7.013 -33.839  0.00  0.00    +0.000 N 
ATOM     30  C3  UNL     1      25.776  -6.826 -35.121  0.00  0.00    +0.000 C 
ATOM     31  C4  UNL     1      24.597  -7.516 -35.291  0.00  0.00    +0.000 C 
ATOM     32  N5  UNL     1      24.263  -8.091 -34.117  0.00  0.00    +0.000 NA
ATOM     33  N6  UNL     1      25.212  -7.764 -33.251  0.00  0.00    +0.000 NA
BRANCH  29  34
ATOM     34  C2  UNL     1      27.290  -6.441 -33.162  0.00  0.00    +0.000 C 
BRANCH  34  35
ATOM     35  C1  UNL     1      27.824  -7.418 -32.148  0.00  0.00    +0.000 C 
ATOM     36  N7  UNL     1      28.493  -8.488 -32.477  0.00  0.00    +0.000 NA
BRANCH  36  37
ATOM     37  C26 UNL     1      28.915  -8.847 -33.798  0.00  0.00    +0.000 C 
ATOM     38  C27 UNL     1      30.187  -8.484 -34.270  0.00  0.00    +0.000 C 
ATOM     39  C28 UNL     1      30.602  -8.879 -35.546  0.00  0.00    +0.000 C 
ATOM     40  C29 UNL     1      29.758  -9.656 -36.348  0.00  0.00    +0.000 C 
ATOM     41 CL1  UNL     1      30.282 -10.154 -37.945  0.00  0.00    +0.000 Cl
ATOM     42  C30 UNL     1      28.502 -10.046 -35.868  0.00  0.00    +0.000 C 
ATOM     43  C31 UNL     1      28.087  -9.652 -34.592  0.00  0.00    +0.000 C 
ENDBRANCH  36  37
BRANCH  35  44
ATOM     44  O1  UNL     1      27.523  -7.198 -30.805  0.00  0.00    +0.000 OA
ATOM     45  H1  UNL     1      26.642  -6.782 -30.528  0.00  0.00    +0.000 HD
ENDBRANCH  35  44
ENDBRANCH  34  35
ENDBRANCH  29  34
ENDBRANCH  28  31
ENDBRANCH  27  28
ENDBRANCH   1  27
TORSDOF 10
