REMARK  Name = resultss/4CJN/ligands/lig_182_t2.pdb
REMARK  4 active torsions:
REMARK  status: ('A' for Active; 'I' for Inactive)
REMARK    1  A    between atoms: C9_1  and  C1_17
REMARK    2  A    between atoms: C12_4  and  C13_7
REMARK    3  A    between atoms: N1_18  and  N2_20
REMARK    4  A    between atoms: C2_21  and  C3_22
REMARK                            x       y       z     vdW  Elec       q    Type
REMARK                         _______ _______ _______ _____ _____    ______ ____
ROOT
ATOM      1  C9  UNL     1      25.203  -9.264 -40.767  0.00  0.00    +0.000 C 
ATOM      2  C10 UNL     1      24.819  -8.606 -39.586  0.00  0.00    +0.000 C 
ATOM      3  C11 UNL     1      25.620  -8.669 -38.443  0.00  0.00    +0.000 C 
ATOM      4  C12 UNL     1      26.821  -9.400 -38.450  0.00  0.00    +0.000 C 
ATOM      5  C20 UNL     1      27.199 -10.070 -39.627  0.00  0.00    +0.000 C 
ATOM      6  C21 UNL     1      26.398 -10.005 -40.771  0.00  0.00    +0.000 C 
ENDROOT
BRANCH   4   7
ATOM      7  C13 UNL     1      27.662  -9.461 -37.233  0.00  0.00    +0.000 A 
ATOM      8  N3  UNL     1      29.020  -9.471 -37.269  0.00  0.00    +0.000 NA
ATOM      9  C14 UNL     1      29.550  -9.532 -36.020  0.00  0.00    +0.000 A 
ATOM     10  C15 UNL     1      30.918  -9.557 -35.743  0.00  0.00    +0.000 C 
ATOM     11  C16 UNL     1      31.334  -9.621 -34.401  0.00  0.00    +0.000 C 
ATOM     12  C17 UNL     1      30.385  -9.659 -33.361  0.00  0.00    +0.000 C 
ATOM     13  C18 UNL     1      29.011  -9.633 -33.652  0.00  0.00    +0.000 C 
ATOM     14  C19 UNL     1      28.627  -9.571 -34.988  0.00  0.00    +0.000 A 
ATOM     15  S1  UNL     1      27.082  -9.528 -35.637  0.00  0.00    +0.000 S 
ENDBRANCH   4   7
BRANCH   1  17
ATOM     16  O1  UNL     1      24.599  -9.922 -42.965  0.00  0.00    +0.000 OA
ATOM     17  C1  UNL     1      24.340  -9.190 -41.971  0.00  0.00    +0.000 C 
ATOM     18  N1  UNL     1      23.205  -8.318 -42.023  0.00  0.00    +0.000 N 
ATOM     19  H1  UNL     1      22.878  -7.830 -41.158  0.00  0.00    +0.000 HD
BRANCH  18  20
ATOM     20  N2  UNL     1      22.488  -8.171 -43.220  0.00  0.00    +0.000 NA
ATOM     21  C2  UNL     1      22.383  -7.025 -43.820  0.00  0.00    +0.000 C 
BRANCH  21  22
ATOM     22  C3  UNL     1      21.625  -6.882 -45.081  0.00  0.00    +0.000 C 
ATOM     23  C4  UNL     1      20.192  -6.524 -45.005  0.00  0.00    +0.000 C 
ATOM     24  C5  UNL     1      19.438  -6.377 -46.099  0.00  0.00    +0.000 C 
ATOM     25  C6  UNL     1      19.977  -6.561 -47.494  0.00  0.00    +0.000 C 
ATOM     26  C7  UNL     1      21.437  -6.925 -47.521  0.00  0.00    +0.000 C 
ATOM     27  O2  UNL     1      22.009  -7.108 -48.628  0.00  0.00    +0.000 OA
ATOM     28  C8  UNL     1      22.207  -7.072 -46.276  0.00  0.00    +0.000 C 
ENDBRANCH  21  22
ENDBRANCH  18  20
ENDBRANCH   1  17
TORSDOF 4
