REMARK  Name = resultss/4CJN/ligands/lig_440_t0.pdb
REMARK  8 active torsions:
REMARK  status: ('A' for Active; 'I' for Inactive)
REMARK    1  A    between atoms: N3_1  and  N2_25
REMARK    2  A    between atoms: C6_2  and  C7_5
REMARK    3  A    between atoms: C17_16  and  C18_19
REMARK    4  A    between atoms: N2_25  and  C5_27
REMARK    5  A    between atoms: C5_27  and  N1_29
REMARK    6  A    between atoms: N1_29  and  C4_33
REMARK    7  A    between atoms: C2_31  and  O1_38
REMARK    8  A    between atoms: C25_35  and  O3_39
REMARK                            x       y       z     vdW  Elec       q    Type
REMARK                         _______ _______ _______ _____ _____    ______ ____
ROOT
ATOM      1  N3  UNL     1      28.968 -10.708 -39.734  0.00  0.00    +0.000 N 
ATOM      2  C6  UNL     1      27.755 -10.431 -39.017  0.00  0.00    +0.000 C 
ATOM      3  O2  UNL     1      26.645 -10.517 -39.610  0.00  0.00    +0.000 OA
ATOM      4  H7  UNL     1      29.883 -10.540 -39.260  0.00  0.00    +0.000 HD
ENDROOT
BRANCH   2   5
ATOM      5  C7  UNL     1      27.794 -10.043 -37.589  0.00  0.00    +0.000 C 
ATOM      6  C8  UNL     1      29.012 -10.037 -36.877  0.00  0.00    +0.000 C 
ATOM      7  C9  UNL     1      28.971  -9.635 -35.548  0.00  0.00    +0.000 A 
ATOM      8  C10 UNL     1      27.796  -9.261 -34.931  0.00  0.00    +0.000 A 
ATOM      9  N4  UNL     1      28.018  -8.846 -33.661  0.00  0.00    +0.000 N 
ATOM     10  C11 UNL     1      29.349  -8.986 -33.479  0.00  0.00    +0.000 A 
ATOM     11  C12 UNL     1      30.080  -8.683 -32.330  0.00  0.00    +0.000 C 
ATOM     12  C13 UNL     1      31.470  -8.894 -32.357  0.00  0.00    +0.000 C 
ATOM     13  C14 UNL     1      32.098  -9.389 -33.522  0.00  0.00    +0.000 C 
ATOM     14  C15 UNL     1      31.342  -9.680 -34.673  0.00  0.00    +0.000 C 
ATOM     15  C16 UNL     1      29.967  -9.469 -34.614  0.00  0.00    +0.000 A 
ATOM     16  C17 UNL     1      26.588  -9.289 -35.643  0.00  0.00    +0.000 C 
ATOM     17  N5  UNL     1      26.635  -9.671 -36.955  0.00  0.00    +0.000 NA
ATOM     18  H9  UNL     1      27.331  -8.464 -32.974  0.00  0.00    +0.000 HD
BRANCH  16  19
ATOM     19  C18 UNL     1      25.289  -8.925 -35.041  0.00  0.00    +0.000 C 
ATOM     20  C19 UNL     1      24.939  -9.363 -33.751  0.00  0.00    +0.000 C 
ATOM     21  C20 UNL     1      23.691  -9.035 -33.209  0.00  0.00    +0.000 C 
ATOM     22  C21 UNL     1      22.781  -8.280 -33.950  0.00  0.00    +0.000 C 
ATOM     23  C22 UNL     1      23.110  -7.861 -35.241  0.00  0.00    +0.000 C 
ATOM     24  C23 UNL     1      24.356  -8.187 -35.789  0.00  0.00    +0.000 C 
ENDBRANCH  16  19
ENDBRANCH   2   5
BRANCH   1  25
ATOM     25  N2  UNL     1      28.936 -11.225 -41.044  0.00  0.00    +0.000 N 
ATOM     26  H6  UNL     1      28.478 -12.147 -41.221  0.00  0.00    +0.000 HD
BRANCH  25  27
ATOM     27  C5  UNL     1      29.529 -10.551 -42.164  0.00  0.00    +0.000 C 
ATOM     28  S1  UNL     1      31.085 -10.858 -42.610  0.00  0.00    +0.000 S 
BRANCH  27  29
ATOM     29  N1  UNL     1      28.709  -9.681 -42.961  0.00  0.00    +0.000 N 
ATOM     30  H5  UNL     1      28.975  -9.552 -43.964  0.00  0.00    +0.000 HD
BRANCH  29  33
ATOM     31  C2  UNL     1      26.667  -7.115 -41.163  0.00  0.00    +0.000 C 
ATOM     32  C3  UNL     1      27.757  -7.856 -41.632  0.00  0.00    +0.000 C 
ATOM     33  C4  UNL     1      27.566  -8.964 -42.467  0.00  0.00    +0.000 C 
ATOM     34  C24 UNL     1      26.264  -9.310 -42.863  0.00  0.00    +0.000 C 
ATOM     35  C25 UNL     1      25.159  -8.575 -42.416  0.00  0.00    +0.000 C 
ATOM     36  C27 UNL     1      25.364  -7.479 -41.556  0.00  0.00    +0.000 C 
BRANCH  31  38
ATOM     37  C1  UNL     1      27.775  -6.080 -39.176  0.00  0.00    +0.000 C 
ATOM     38  O1  UNL     1      26.920  -6.028 -40.313  0.00  0.00    +0.000 OA
ENDBRANCH  31  38
BRANCH  35  39
ATOM     39  O3  UNL     1      23.883  -8.959 -42.855  0.00  0.00    +0.000 OA
ATOM     40  C26 UNL     1      22.723  -8.135 -42.784  0.00  0.00    +0.000 C 
ENDBRANCH  35  39
ENDBRANCH  29  33
ENDBRANCH  27  29
ENDBRANCH  25  27
ENDBRANCH   1  25
TORSDOF 8
