REMARK  Name = resultss/4CJN/ligands/lig_388_t1.pdb
REMARK  5 active torsions:
REMARK  status: ('A' for Active; 'I' for Inactive)
REMARK    1  A    between atoms: N2_1  and  C4_21
REMARK    2  A    between atoms: C6_4  and  O3_30
REMARK    3  A    between atoms: C7_5  and  C8_8
REMARK    4  A    between atoms: C1_18  and  S1_24
REMARK    5  A    between atoms: S1_24  and  N1_27
REMARK                            x       y       z     vdW  Elec       q    Type
REMARK                         _______ _______ _______ _____ _____    ______ ____
ROOT
ATOM      1  N2  UNL     1      25.395  -6.565 -39.554  0.00  0.00    +0.000 NA
ATOM      2  C5  UNL     1      24.974  -7.032 -40.695  0.00  0.00    +0.000 A 
ATOM      3  N3  UNL     1      24.520  -8.292 -40.900  0.00  0.00    +0.000 N 
ATOM      4  C6  UNL     1      24.178  -8.501 -42.200  0.00  0.00    +0.000 A 
ATOM      5  C7  UNL     1      24.393  -7.411 -43.046  0.00  0.00    +0.000 A 
ATOM      6  S2  UNL     1      24.994  -6.139 -42.118  0.00  0.00    +0.000 S 
ATOM      7  H5  UNL     1      24.454  -9.036 -40.173  0.00  0.00    +0.000 HD
ENDROOT
BRANCH   5   8
ATOM      8  C8  UNL     1      24.091  -7.327 -44.485  0.00  0.00    +0.000 C 
ATOM      9  C9  UNL     1      22.778  -7.310 -45.110  0.00  0.00    +0.000 C 
ATOM     10  O4  UNL     1      21.672  -7.388 -44.513  0.00  0.00    +0.000 OA
ATOM     11  N4  UNL     1      22.911  -7.208 -46.523  0.00  0.00    +0.000 NA
ATOM     12  C10 UNL     1      24.194  -7.154 -46.695  0.00  0.00    +0.000 C 
ATOM     13  C11 UNL     1      24.828  -7.025 -47.931  0.00  0.00    +0.000 C 
ATOM     14  C12 UNL     1      26.229  -6.938 -47.958  0.00  0.00    +0.000 C 
ATOM     15  C13 UNL     1      26.970  -6.968 -46.761  0.00  0.00    +0.000 C 
ATOM     16  C14 UNL     1      26.320  -7.099 -45.523  0.00  0.00    +0.000 C 
ATOM     17  C15 UNL     1      24.925  -7.213 -45.513  0.00  0.00    +0.000 C 
ENDBRANCH   5   8
BRANCH   1  21
ATOM     18  C1  UNL     1      25.326  -8.471 -35.763  0.00  0.00    +0.000 C 
ATOM     19  C2  UNL     1      26.424  -8.624 -36.619  0.00  0.00    +0.000 C 
ATOM     20  C3  UNL     1      26.433  -7.998 -37.869  0.00  0.00    +0.000 C 
ATOM     21  C4  UNL     1      25.335  -7.237 -38.288  0.00  0.00    +0.000 C 
ATOM     22  C16 UNL     1      24.247  -7.061 -37.417  0.00  0.00    +0.000 C 
ATOM     23  C17 UNL     1      24.237  -7.687 -36.167  0.00  0.00    +0.000 C 
BRANCH  18  24
ATOM     24  S1  UNL     1      25.310  -9.272 -34.194  0.00  0.00    +0.000 S 
ATOM     25  O1  UNL     1      25.847 -10.669 -34.333  0.00  0.00    +0.000 OA
ATOM     26  O2  UNL     1      26.176  -8.516 -33.227  0.00  0.00    +0.000 OA
BRANCH  24  27
ATOM     27  N1  UNL     1      23.690  -9.329 -33.595  0.00  0.00    +0.000 NA
ATOM     28  H1  UNL     1      23.747  -9.263 -32.554  0.00  0.00    +0.000 HD
ATOM     29  H2  UNL     1      23.211  -8.462 -33.927  0.00  0.00    +0.000 HD
ENDBRANCH  24  27
ENDBRANCH  18  24
ENDBRANCH   1  21
BRANCH   4  30
ATOM     30  O3  UNL     1      23.625  -9.702 -42.633  0.00  0.00    +0.000 OA
ATOM     31  H6  UNL     1      23.846 -10.077 -43.548  0.00  0.00    +0.000 HD
ENDBRANCH   4  30
TORSDOF 5
