REMARK  Name = resultss/4CJN/ligands/lig_251_t0.pdb
REMARK  13 active torsions:
REMARK  status: ('A' for Active; 'I' for Inactive)
REMARK    1  A    between atoms: C4_1  and  C3_36
REMARK    2  A    between atoms: C6_3  and  C7_10
REMARK    3  A    between atoms: C28_6  and  S2_39
REMARK    4  A    between atoms: C9_12  and  C10_19
REMARK    5  A    between atoms: C14_15  and  S1_22
REMARK    6  A    between atoms: C10_19  and  C11_20
REMARK    7  A    between atoms: S1_22  and  C15_23
REMARK    8  A    between atoms: C15_23  and  C16_24
REMARK    9  A    between atoms: C17_27  and  C18_29
REMARK   10  A    between atoms: C3_36  and  C2_38
REMARK   11  A    between atoms: S2_39  and  C29_40
REMARK   12  A    between atoms: C29_40  and  C30_41
REMARK   13  A    between atoms: C31_44  and  C32_46
REMARK                            x       y       z     vdW  Elec       q    Type
REMARK                         _______ _______ _______ _____ _____    ______ ____
ROOT
ATOM      1  C4  UNL     1      26.958 -12.608 -40.176  0.00  0.00    +0.000 C 
ATOM      2  C5  UNL     1      27.742 -12.000 -39.162  0.00  0.00    +0.000 C 
ATOM      3  C6  UNL     1      27.721 -10.601 -38.971  0.00  0.00    +0.000 C 
ATOM      4  C27 UNL     1      26.916  -9.853 -39.827  0.00  0.00    +0.000 A 
ATOM      5  O3  UNL     1      26.724  -8.562 -39.864  0.00  0.00    +0.000 OA
ATOM      6  C28 UNL     1      25.916  -8.351 -40.888  0.00  0.00    +0.000 A 
ATOM      7  N6  UNL     1      25.566  -9.484 -41.547  0.00  0.00    +0.000 NA
ATOM      8  C39 UNL     1      26.207 -10.426 -40.835  0.00  0.00    +0.000 A 
ATOM      9  C40 UNL     1      26.199 -11.800 -41.051  0.00  0.00    +0.000 C 
ENDROOT
BRANCH   3  10
ATOM     10  C7  UNL     1      28.612  -9.958 -37.992  0.00  0.00    +0.000 C 
ATOM     11  C8  UNL     1      29.658  -9.093 -38.414  0.00  0.00    +0.000 C 
ATOM     12  C9  UNL     1      30.477  -8.437 -37.464  0.00  0.00    +0.000 C 
ATOM     13  C13 UNL     1      30.216  -8.692 -36.114  0.00  0.00    +0.000 A 
ATOM     14  O1  UNL     1      30.792  -8.187 -35.054  0.00  0.00    +0.000 OA
ATOM     15  C14 UNL     1      30.187  -8.749 -34.020  0.00  0.00    +0.000 A 
ATOM     16  N3  UNL     1      29.204  -9.619 -34.372  0.00  0.00    +0.000 NA
ATOM     17  C25 UNL     1      29.241  -9.553 -35.713  0.00  0.00    +0.000 A 
ATOM     18  C26 UNL     1      28.405 -10.199 -36.618  0.00  0.00    +0.000 C 
BRANCH  12  19
ATOM     19  C10 UNL     1      31.615  -7.544 -37.883  0.00  0.00    +0.000 C 
BRANCH  19  20
ATOM     20  C11 UNL     1      32.637  -8.290 -38.698  0.00  0.00    +0.000 C 
ATOM     21  C12 UNL     1      32.787  -8.040 -40.000  0.00  0.00    +0.000 C 
ENDBRANCH  19  20
ENDBRANCH  12  19
BRANCH  15  22
ATOM     22  S1  UNL     1      30.579  -8.384 -32.312  0.00  0.00    +0.000 S 
BRANCH  22  23
ATOM     23  C15 UNL     1      29.919  -6.680 -32.310  0.00  0.00    +0.000 C 
BRANCH  23  24
ATOM     24  C16 UNL     1      28.649  -6.672 -33.099  0.00  0.00    +0.000 A 
ATOM     25  N1  UNL     1      28.473  -6.027 -34.273  0.00  0.00    +0.000 NA
ATOM     26  N2  UNL     1      27.245  -6.324 -34.677  0.00  0.00    +0.000 NA
ATOM     27  C17 UNL     1      26.721  -7.139 -33.736  0.00  0.00    +0.000 A 
ATOM     28  O2  UNL     1      27.580  -7.352 -32.763  0.00  0.00    +0.000 OA
BRANCH  27  29
ATOM     29  C18 UNL     1      25.375  -7.748 -33.799  0.00  0.00    +0.000 C 
ATOM     30  C19 UNL     1      25.013  -8.793 -32.934  0.00  0.00    +0.000 C 
ATOM     31  C20 UNL     1      23.729  -9.346 -32.991  0.00  0.00    +0.000 C 
ATOM     32  C21 UNL     1      22.795  -8.855 -33.903  0.00  0.00    +0.000 C 
ATOM     33  C22 UNL     1      23.133  -7.798 -34.763  0.00  0.00    +0.000 C 
ATOM     34  C23 UNL     1      22.136  -7.299 -35.761  0.00  0.00    +0.000 C 
ATOM     35  C24 UNL     1      24.428  -7.262 -34.720  0.00  0.00    +0.000 C 
ENDBRANCH  27  29
ENDBRANCH  23  24
ENDBRANCH  22  23
ENDBRANCH  15  22
ENDBRANCH   3  10
BRANCH   1  36
ATOM     36  C3  UNL     1      26.961 -14.105 -40.333  0.00  0.00    +0.000 C 
BRANCH  36  38
ATOM     37  C1  UNL     1      24.918 -15.382 -39.745  0.00  0.00    +0.000 C 
ATOM     38  C2  UNL     1      25.573 -14.609 -40.615  0.00  0.00    +0.000 C 
ENDBRANCH  36  38
ENDBRANCH   1  36
BRANCH   6  39
ATOM     39  S2  UNL     1      25.319  -6.726 -41.356  0.00  0.00    +0.000 S 
BRANCH  39  40
ATOM     40  C29 UNL     1      23.622  -7.002 -40.727  0.00  0.00    +0.000 C 
BRANCH  40  41
ATOM     41  C30 UNL     1      22.674  -7.013 -41.884  0.00  0.00    +0.000 A 
ATOM     42  N4  UNL     1      22.974  -7.481 -43.108  0.00  0.00    +0.000 NA
ATOM     43  N5  UNL     1      21.854  -7.407 -43.819  0.00  0.00    +0.000 NA
ATOM     44  C31 UNL     1      20.915  -6.902 -42.995  0.00  0.00    +0.000 A 
ATOM     45  O4  UNL     1      21.415  -6.651 -41.809  0.00  0.00    +0.000 OA
BRANCH  44  46
ATOM     46  C32 UNL     1      19.498  -6.707 -43.360  0.00  0.00    +0.000 C 
ATOM     47  C33 UNL     1      18.585  -6.183 -42.429  0.00  0.00    +0.000 C 
ATOM     48  C34 UNL     1      17.258  -5.942 -42.802  0.00  0.00    +0.000 C 
ATOM     49  C35 UNL     1      16.833  -6.223 -44.102  0.00  0.00    +0.000 C 
ATOM     50  C36 UNL     1      17.725  -6.769 -45.035  0.00  0.00    +0.000 C 
ATOM     51  C37 UNL     1      17.283  -7.010 -46.448  0.00  0.00    +0.000 C 
ATOM     52  C38 UNL     1      19.061  -6.996 -44.665  0.00  0.00    +0.000 C 
ENDBRANCH  44  46
ENDBRANCH  40  41
ENDBRANCH  39  40
ENDBRANCH   6  39
TORSDOF 13
