REMARK  Name = resultss/4CJN/ligands/lig_431_t0.pdb
REMARK  7 active torsions:
REMARK  status: ('A' for Active; 'I' for Inactive)
REMARK    1  A    between atoms: C9_1  and  C1_22
REMARK    2  A    between atoms: C19_12  and  C20_15
REMARK    3  A    between atoms: N1_23  and  N2_25
REMARK    4  A    between atoms: N2_25  and  C2_27
REMARK    5  A    between atoms: C2_27  and  N3_29
REMARK    6  A    between atoms: N3_29  and  C3_31
REMARK    7  A    between atoms: C7_35  and  N4_37
REMARK                            x       y       z     vdW  Elec       q    Type
REMARK                         _______ _______ _______ _____ _____    ______ ____
ROOT
ATOM      1  C9  UNL     1      25.398  -8.511 -38.484  0.00  0.00    +0.000 C 
ATOM      2  C10 UNL     1      26.786  -8.766 -38.476  0.00  0.00    +0.000 C 
ATOM      3  C11 UNL     1      27.416  -8.823 -37.238  0.00  0.00    +0.000 A 
ATOM      4  C12 UNL     1      26.731  -8.636 -36.058  0.00  0.00    +0.000 A 
ATOM      5  N5  UNL     1      27.541  -8.806 -34.986  0.00  0.00    +0.000 N 
ATOM      6  C13 UNL     1      28.754  -9.086 -35.510  0.00  0.00    +0.000 A 
ATOM      7  C14 UNL     1      29.929  -9.361 -34.813  0.00  0.00    +0.000 C 
ATOM      8  C15 UNL     1      31.085  -9.655 -35.559  0.00  0.00    +0.000 C 
ATOM      9  C16 UNL     1      31.043  -9.673 -36.971  0.00  0.00    +0.000 C 
ATOM     10  C17 UNL     1      29.843  -9.399 -37.654  0.00  0.00    +0.000 C 
ATOM     11  C18 UNL     1      28.716  -9.105 -36.889  0.00  0.00    +0.000 A 
ATOM     12  C19 UNL     1      25.355  -8.367 -36.079  0.00  0.00    +0.000 C 
ATOM     13  N6  UNL     1      24.737  -8.323 -37.297  0.00  0.00    +0.000 NA
ATOM     14  H9  UNL     1      27.290  -8.771 -33.973  0.00  0.00    +0.000 HD
ENDROOT
BRANCH  12  15
ATOM     15  C20 UNL     1      24.562  -8.135 -34.854  0.00  0.00    +0.000 C 
ATOM     16  C21 UNL     1      24.335  -9.172 -33.932  0.00  0.00    +0.000 C 
ATOM     17  C22 UNL     1      23.603  -8.929 -32.764  0.00  0.00    +0.000 C 
ATOM     18  C23 UNL     1      23.107  -7.651 -32.502  0.00  0.00    +0.000 C 
ATOM     19  C24 UNL     1      23.349  -6.609 -33.402  0.00  0.00    +0.000 C 
ATOM     20  C25 UNL     1      24.079  -6.847 -34.570  0.00  0.00    +0.000 C 
ENDBRANCH  12  15
BRANCH   1  22
ATOM     21  O1  UNL     1      24.115  -7.365 -40.118  0.00  0.00    +0.000 OA
ATOM     22  C1  UNL     1      24.646  -8.450 -39.755  0.00  0.00    +0.000 C 
ATOM     23  N1  UNL     1      24.513  -9.618 -40.581  0.00  0.00    +0.000 N 
ATOM     24  H1  UNL     1      24.943 -10.515 -40.265  0.00  0.00    +0.000 HD
BRANCH  23  25
ATOM     25  N2  UNL     1      23.855  -9.561 -41.825  0.00  0.00    +0.000 N 
ATOM     26  H2  UNL     1      22.886  -9.938 -41.912  0.00  0.00    +0.000 HD
BRANCH  25  27
ATOM     27  C2  UNL     1      24.452  -8.947 -42.978  0.00  0.00    +0.000 C 
ATOM     28  S1  UNL     1      23.713  -7.684 -43.719  0.00  0.00    +0.000 S 
BRANCH  27  29
ATOM     29  N3  UNL     1      25.792  -9.286 -43.364  0.00  0.00    +0.000 N 
ATOM     30  H3  UNL     1      25.924  -9.865 -44.225  0.00  0.00    +0.000 HD
BRANCH  29  31
ATOM     31  C3  UNL     1      26.963  -8.875 -42.638  0.00  0.00    +0.000 C 
ATOM     32  C4  UNL     1      27.072  -7.546 -42.206  0.00  0.00    +0.000 C 
ATOM     33  C5  UNL     1      28.213  -7.117 -41.525  0.00  0.00    +0.000 C 
ATOM     34  C6  UNL     1      29.260  -8.007 -41.277  0.00  0.00    +0.000 C 
ATOM     35  C7  UNL     1      29.181  -9.339 -41.719  0.00  0.00    +0.000 C 
ATOM     36  C8  UNL     1      28.030  -9.763 -42.407  0.00  0.00    +0.000 C 
BRANCH  35  37
ATOM     37  N4  UNL     1      30.266 -10.256 -41.481  0.00  0.00    +0.000 N 
ATOM     38  O2  UNL     1      31.285  -9.891 -40.859  0.00  0.00    +0.000 OA
ATOM     39  O3  UNL     1      30.198 -11.554 -41.936  0.00  0.00    +0.000 OA
ENDBRANCH  35  37
ENDBRANCH  29  31
ENDBRANCH  27  29
ENDBRANCH  25  27
ENDBRANCH  23  25
ENDBRANCH   1  22
TORSDOF 7
