REMARK  Name = resultss/4CJN/ligands/lig_345_t2.pdb
REMARK  11 active torsions:
REMARK  status: ('A' for Active; 'I' for Inactive)
REMARK    1  A    between atoms: C12_1  and  O2_27
REMARK    2  A    between atoms: C15_4  and  C16_7
REMARK    3  A    between atoms: C23_15  and  O3_17
REMARK    4  A    between atoms: N4_16  and  N5_19
REMARK    5  A    between atoms: N5_19  and  C24_21
REMARK    6  A    between atoms: O2_27  and  C11_28
REMARK    7  A    between atoms: C11_28  and  C10_31
REMARK    8  A    between atoms: N2_29  and  C8_34
REMARK    9  A    between atoms: C8_34  and  C7_36
REMARK   10  A    between atoms: N1_35  and  C6_39
REMARK   11  A    between atoms: C6_39  and  C5_44
REMARK                            x       y       z     vdW  Elec       q    Type
REMARK                         _______ _______ _______ _____ _____    ______ ____
ROOT
ATOM      1  C12 UNL     1      26.584  -8.208 -39.899  0.00  0.00    +0.000 C 
ATOM      2  C13 UNL     1      26.929  -6.953 -39.360  0.00  0.00    +0.000 C 
ATOM      3  C14 UNL     1      27.203  -6.820 -37.996  0.00  0.00    +0.000 C 
ATOM      4  C15 UNL     1      27.129  -7.933 -37.143  0.00  0.00    +0.000 C 
ATOM      5  C30 UNL     1      26.792  -9.186 -37.686  0.00  0.00    +0.000 C 
ATOM      6  C31 UNL     1      26.521  -9.317 -39.051  0.00  0.00    +0.000 C 
ENDROOT
BRANCH   4   7
ATOM      7  C16 UNL     1      27.392  -7.775 -35.661  0.00  0.00    +0.000 C 
ATOM      8  N3  UNL     1      26.470  -6.791 -35.095  0.00  0.00    +0.000 NA
ATOM      9  C17 UNL     1      25.421  -7.094 -34.385  0.00  0.00    +0.000 C 
ATOM     10  C18 UNL     1      24.573  -6.057 -33.975  0.00  0.00    +0.000 C 
ATOM     11  C19 UNL     1      23.416  -6.336 -33.251  0.00  0.00    +0.000 C 
ATOM     12  C20 UNL     1      23.097  -7.652 -32.926  0.00  0.00    +0.000 C 
ATOM     13  C21 UNL     1      23.937  -8.700 -33.312  0.00  0.00    +0.000 C 
ATOM     14  C22 UNL     1      25.121  -8.441 -34.040  0.00  0.00    +0.000 C 
ATOM     15  C23 UNL     1      25.998  -9.421 -34.372  0.00  0.00    +0.000 C 
ATOM     16  N4  UNL     1      27.254  -9.062 -34.977  0.00  0.00    +0.000 NA
BRANCH  15  17
ATOM     17  O3  UNL     1      25.743 -10.780 -34.149  0.00  0.00    +0.000 OA
ATOM     18  H21 UNL     1      26.452 -11.493 -34.085  0.00  0.00    +0.000 HD
ENDBRANCH  15  17
BRANCH  16  19
ATOM     19  N5  UNL     1      28.306  -9.993 -35.052  0.00  0.00    +0.000 N 
ATOM     20  H22 UNL     1      28.167 -10.861 -35.621  0.00  0.00    +0.000 HD
BRANCH  19  21
ATOM     21  C24 UNL     1      29.609  -9.735 -34.501  0.00  0.00    +0.000 C 
ATOM     22  C25 UNL     1      29.807  -9.631 -33.112  0.00  0.00    +0.000 C 
ATOM     23  C26 UNL     1      31.082  -9.367 -32.598  0.00  0.00    +0.000 C 
ATOM     24  C27 UNL     1      32.162  -9.190 -33.465  0.00  0.00    +0.000 C 
ATOM     25  C28 UNL     1      31.972  -9.270 -34.846  0.00  0.00    +0.000 C 
ATOM     26  C29 UNL     1      30.700  -9.536 -35.364  0.00  0.00    +0.000 C 
ENDBRANCH  19  21
ENDBRANCH  16  19
ENDBRANCH   4   7
BRANCH   1  27
ATOM     27  O2  UNL     1      26.282  -8.395 -41.258  0.00  0.00    +0.000 OA
BRANCH  27  28
ATOM     28  C11 UNL     1      27.132  -9.022 -42.216  0.00  0.00    +0.000 C 
BRANCH  28  31
ATOM     29  N2  UNL     1      30.484  -9.074 -40.819  0.00  0.00    +0.000 N 
ATOM     30  C9  UNL     1      29.463  -8.372 -41.342  0.00  0.00    +0.000 C 
ATOM     31  C10 UNL     1      28.478  -9.294 -41.625  0.00  0.00    +0.000 C 
ATOM     32  N6  UNL     1      28.924 -10.517 -41.274  0.00  0.00    +0.000 NA
ATOM     33  N7  UNL     1      30.149 -10.353 -40.792  0.00  0.00    +0.000 NA
BRANCH  29  34
ATOM     34  C8  UNL     1      31.785  -8.551 -40.411  0.00  0.00    +0.000 C 
BRANCH  34  36
ATOM     35  N1  UNL     1      32.972 -10.217 -41.921  0.00  0.00    +0.000 N 
ATOM     36  C7  UNL     1      32.848  -9.583 -40.639  0.00  0.00    +0.000 C 
ATOM     37  O1  UNL     1      33.627  -9.891 -39.699  0.00  0.00    +0.000 OA
ATOM     38  H8  UNL     1      32.344  -9.917 -42.696  0.00  0.00    +0.000 HD
BRANCH  35  39
ATOM     39  C6  UNL     1      33.997 -11.217 -42.212  0.00  0.00    +0.000 C 
BRANCH  39  44
ATOM     40  C1  UNL     1      32.539 -14.319 -46.917  0.00  0.00    +0.000 C 
ATOM     41  C2  UNL     1      32.900 -13.508 -45.709  0.00  0.00    +0.000 C 
ATOM     42  C3  UNL     1      32.162 -13.630 -44.520  0.00  0.00    +0.000 C 
ATOM     43  C4  UNL     1      32.520 -12.891 -43.388  0.00  0.00    +0.000 C 
ATOM     44  C5  UNL     1      33.627 -12.028 -43.426  0.00  0.00    +0.000 C 
ATOM     45  C32 UNL     1      34.375 -11.922 -44.610  0.00  0.00    +0.000 C 
ATOM     46  C33 UNL     1      34.018 -12.662 -45.741  0.00  0.00    +0.000 C 
ENDBRANCH  39  44
ENDBRANCH  35  39
ENDBRANCH  34  36
ENDBRANCH  29  34
ENDBRANCH  28  31
ENDBRANCH  27  28
ENDBRANCH   1  27
TORSDOF 11
