REMARK  Name = resultss/4CJN/ligands/lig_341_t1.pdb
REMARK  12 active torsions:
REMARK  status: ('A' for Active; 'I' for Inactive)
REMARK    1  A    between atoms: C12_1  and  O2_29
REMARK    2  A    between atoms: C15_4  and  C16_7
REMARK    3  A    between atoms: C31_6  and  O4_27
REMARK    4  A    between atoms: N4_17  and  N5_19
REMARK    5  A    between atoms: N5_19  and  C24_21
REMARK    6  A    between atoms: O2_29  and  C11_30
REMARK    7  A    between atoms: C11_30  and  C10_33
REMARK    8  A    between atoms: N2_31  and  C8_36
REMARK    9  A    between atoms: C8_36  and  C7_38
REMARK   10  A    between atoms: N1_37  and  C6_42
REMARK   11  A    between atoms: C7_38  and  O1_47
REMARK   12  A    between atoms: C3_39  and  C2_46
REMARK                            x       y       z     vdW  Elec       q    Type
REMARK                         _______ _______ _______ _____ _____    ______ ____
ROOT
ATOM      1  C12 UNL     1      27.219  -9.419 -41.357  0.00  0.00    +0.000 C 
ATOM      2  C13 UNL     1      27.921  -8.253 -41.719  0.00  0.00    +0.000 C 
ATOM      3  C14 UNL     1      29.137  -7.944 -41.108  0.00  0.00    +0.000 C 
ATOM      4  C15 UNL     1      29.677  -8.792 -40.128  0.00  0.00    +0.000 C 
ATOM      5  C30 UNL     1      28.962  -9.936 -39.745  0.00  0.00    +0.000 C 
ATOM      6  C31 UNL     1      27.748 -10.270 -40.372  0.00  0.00    +0.000 C 
ENDROOT
BRANCH   4   7
ATOM      7  C16 UNL     1      30.979  -8.436 -39.443  0.00  0.00    +0.000 C 
ATOM      8  N3  UNL     1      30.860  -8.738 -38.011  0.00  0.00    +0.000 N 
ATOM      9  C17 UNL     1      31.984  -9.104 -37.200  0.00  0.00    +0.000 C 
ATOM     10  C18 UNL     1      31.865  -9.138 -35.802  0.00  0.00    +0.000 C 
ATOM     11  C19 UNL     1      32.965  -9.484 -35.012  0.00  0.00    +0.000 C 
ATOM     12  C20 UNL     1      34.186  -9.801 -35.612  0.00  0.00    +0.000 C 
ATOM     13  C21 UNL     1      34.307  -9.781 -37.003  0.00  0.00    +0.000 C 
ATOM     14  C22 UNL     1      33.204  -9.437 -37.804  0.00  0.00    +0.000 C 
ATOM     15  C23 UNL     1      33.284  -9.450 -39.273  0.00  0.00    +0.000 C 
ATOM     16  O3  UNL     1      34.372  -9.729 -39.848  0.00  0.00    +0.000 OA
ATOM     17  N4  UNL     1      32.110  -9.162 -40.054  0.00  0.00    +0.000 N 
ATOM     18  H17 UNL     1      29.965  -8.485 -37.531  0.00  0.00    +0.000 HD
BRANCH  17  19
ATOM     19  N5  UNL     1      32.166  -9.284 -41.459  0.00  0.00    +0.000 N 
ATOM     20  H22 UNL     1      32.079  -8.419 -42.041  0.00  0.00    +0.000 HD
BRANCH  19  21
ATOM     21  C24 UNL     1      32.158 -10.562 -42.123  0.00  0.00    +0.000 C 
ATOM     22  C25 UNL     1      33.370 -11.127 -42.553  0.00  0.00    +0.000 C 
ATOM     23  C26 UNL     1      33.382 -12.354 -43.225  0.00  0.00    +0.000 C 
ATOM     24  C27 UNL     1      32.181 -13.021 -43.486  0.00  0.00    +0.000 C 
ATOM     25  C28 UNL     1      30.970 -12.466 -43.065  0.00  0.00    +0.000 C 
ATOM     26  C29 UNL     1      30.954 -11.242 -42.389  0.00  0.00    +0.000 C 
ENDBRANCH  19  21
ENDBRANCH  17  19
ENDBRANCH   4   7
BRANCH   6  27
ATOM     27  O4  UNL     1      27.037 -11.435 -40.046  0.00  0.00    +0.000 OA
ATOM     28  C32 UNL     1      27.588 -12.749 -40.067  0.00  0.00    +0.000 C 
ENDBRANCH   6  27
BRANCH   1  29
ATOM     29  O2  UNL     1      25.996  -9.768 -41.948  0.00  0.00    +0.000 OA
BRANCH  29  30
ATOM     30  C11 UNL     1      24.740  -9.759 -41.273  0.00  0.00    +0.000 C 
BRANCH  30  33
ATOM     31  N2  UNL     1      24.804  -7.295 -38.609  0.00  0.00    +0.000 N 
ATOM     32  C9  UNL     1      24.855  -8.582 -38.990  0.00  0.00    +0.000 C 
ATOM     33  C10 UNL     1      24.666  -8.581 -40.356  0.00  0.00    +0.000 C 
ATOM     34  N6  UNL     1      24.522  -7.303 -40.765  0.00  0.00    +0.000 NA
ATOM     35  N7  UNL     1      24.600  -6.544 -39.681  0.00  0.00    +0.000 NA
BRANCH  31  36
ATOM     36  C8  UNL     1      24.923  -6.785 -37.247  0.00  0.00    +0.000 C 
BRANCH  36  38
ATOM     37  N1  UNL     1      24.229  -8.141 -35.302  0.00  0.00    +0.000 NA
ATOM     38  C7  UNL     1      23.906  -7.449 -36.358  0.00  0.00    +0.000 C 
BRANCH  37  42
ATOM     39  C3  UNL     1      28.103  -9.195 -33.923  0.00  0.00    +0.000 C 
ATOM     40  C4  UNL     1      27.436  -8.078 -33.395  0.00  0.00    +0.000 C 
ATOM     41  C5  UNL     1      26.167  -7.727 -33.867  0.00  0.00    +0.000 C 
ATOM     42  C6  UNL     1      25.555  -8.480 -34.876  0.00  0.00    +0.000 C 
ATOM     43  C33 UNL     1      26.199  -9.623 -35.369  0.00  0.00    +0.000 C 
ATOM     44  C34 UNL     1      27.469  -9.974 -34.902  0.00  0.00    +0.000 C 
BRANCH  39  46
ATOM     45  C1  UNL     1      30.019  -8.510 -32.482  0.00  0.00    +0.000 C 
ATOM     46  C2  UNL     1      29.452  -9.597 -33.390  0.00  0.00    +0.000 C 
ENDBRANCH  39  46
ENDBRANCH  37  42
BRANCH  38  47
ATOM     47  O1  UNL     1      22.558  -7.248 -36.642  0.00  0.00    +0.000 OA
ATOM     48  H8  UNL     1      21.995  -7.982 -37.055  0.00  0.00    +0.000 HD
ENDBRANCH  38  47
ENDBRANCH  36  38
ENDBRANCH  31  36
ENDBRANCH  30  33
ENDBRANCH  29  30
ENDBRANCH   1  29
TORSDOF 12
