REMARK  Name = resultss/4CJN/ligands/lig_432_t0.pdb
REMARK  7 active torsions:
REMARK  status: ('A' for Active; 'I' for Inactive)
REMARK    1  A    between atoms: C9_1  and  C1_22
REMARK    2  A    between atoms: C19_12  and  C20_15
REMARK    3  A    between atoms: N1_23  and  N2_25
REMARK    4  A    between atoms: N2_25  and  C2_27
REMARK    5  A    between atoms: C2_27  and  N3_29
REMARK    6  A    between atoms: N3_29  and  C3_31
REMARK    7  A    between atoms: C6_34  and  N4_37
REMARK                            x       y       z     vdW  Elec       q    Type
REMARK                         _______ _______ _______ _____ _____    ______ ____
ROOT
ATOM      1  C9  UNL     1      26.682  -7.771 -37.524  0.00  0.00    +0.000 C 
ATOM      2  C10 UNL     1      28.003  -8.141 -37.193  0.00  0.00    +0.000 C 
ATOM      3  C11 UNL     1      28.269  -8.431 -35.860  0.00  0.00    +0.000 A 
ATOM      4  C12 UNL     1      27.296  -8.358 -34.887  0.00  0.00    +0.000 A 
ATOM      5  N5  UNL     1      27.776  -8.748 -33.682  0.00  0.00    +0.000 N 
ATOM      6  C13 UNL     1      29.072  -9.048 -33.907  0.00  0.00    +0.000 A 
ATOM      7  C14 UNL     1      30.003  -9.513 -32.978  0.00  0.00    +0.000 C 
ATOM      8  C15 UNL     1      31.307  -9.787 -33.431  0.00  0.00    +0.000 C 
ATOM      9  C16 UNL     1      31.650  -9.599 -34.789  0.00  0.00    +0.000 C 
ATOM     10  C17 UNL     1      30.693  -9.135 -35.710  0.00  0.00    +0.000 C 
ATOM     11  C18 UNL     1      29.412  -8.866 -35.231  0.00  0.00    +0.000 A 
ATOM     12  C19 UNL     1      25.991  -7.974 -35.223  0.00  0.00    +0.000 C 
ATOM     13  N6  UNL     1      25.729  -7.704 -36.539  0.00  0.00    +0.000 NA
ATOM     14  H9  UNL     1      27.261  -8.837 -32.777  0.00  0.00    +0.000 HD
ENDROOT
BRANCH  12  15
ATOM     15  C20 UNL     1      24.904  -7.858 -34.230  0.00  0.00    +0.000 C 
ATOM     16  C21 UNL     1      24.358  -9.017 -33.654  0.00  0.00    +0.000 C 
ATOM     17  C22 UNL     1      23.312  -8.922 -32.731  0.00  0.00    +0.000 C 
ATOM     18  C23 UNL     1      22.794  -7.672 -32.386  0.00  0.00    +0.000 C 
ATOM     19  C24 UNL     1      23.315  -6.514 -32.971  0.00  0.00    +0.000 C 
ATOM     20  C25 UNL     1      24.360  -6.605 -33.894  0.00  0.00    +0.000 C 
ENDBRANCH  12  15
BRANCH   1  22
ATOM     21  O1  UNL     1      27.198  -7.147 -39.753  0.00  0.00    +0.000 OA
ATOM     22  C1  UNL     1      26.307  -7.466 -38.920  0.00  0.00    +0.000 C 
ATOM     23  N1  UNL     1      24.931  -7.510 -39.330  0.00  0.00    +0.000 N 
ATOM     24  H1  UNL     1      24.185  -7.456 -38.600  0.00  0.00    +0.000 HD
BRANCH  23  25
ATOM     25  N2  UNL     1      24.546  -7.378 -40.677  0.00  0.00    +0.000 N 
ATOM     26  H2  UNL     1      24.551  -6.424 -41.103  0.00  0.00    +0.000 HD
BRANCH  25  27
ATOM     27  C2  UNL     1      23.992  -8.462 -41.439  0.00  0.00    +0.000 C 
ATOM     28  S1  UNL     1      22.875  -8.157 -42.601  0.00  0.00    +0.000 S 
BRANCH  27  29
ATOM     29  N3  UNL     1      24.598  -9.762 -41.388  0.00  0.00    +0.000 N 
ATOM     30  H3  UNL     1      23.972 -10.595 -41.306  0.00  0.00    +0.000 HD
BRANCH  29  31
ATOM     31  C3  UNL     1      26.016  -9.988 -41.469  0.00  0.00    +0.000 C 
ATOM     32  C4  UNL     1      26.659 -10.699 -40.447  0.00  0.00    +0.000 C 
ATOM     33  C5  UNL     1      28.040 -10.915 -40.492  0.00  0.00    +0.000 C 
ATOM     34  C6  UNL     1      28.807 -10.407 -41.555  0.00  0.00    +0.000 C 
ATOM     35  C7  UNL     1      28.164  -9.673 -42.567  0.00  0.00    +0.000 C 
ATOM     36  C8  UNL     1      26.784  -9.460 -42.522  0.00  0.00    +0.000 C 
BRANCH  34  37
ATOM     37  N4  UNL     1      30.229 -10.630 -41.598  0.00  0.00    +0.000 N 
ATOM     38  O2  UNL     1      30.719 -11.469 -42.381  0.00  0.00    +0.000 OA
ATOM     39  O3  UNL     1      31.073  -9.922 -40.773  0.00  0.00    +0.000 OA
ENDBRANCH  34  37
ENDBRANCH  29  31
ENDBRANCH  27  29
ENDBRANCH  25  27
ENDBRANCH  23  25
ENDBRANCH   1  22
TORSDOF 7
