REMARK  Name = resultss/4CJN/ligands/lig_424_t0.pdb
REMARK  7 active torsions:
REMARK  status: ('A' for Active; 'I' for Inactive)
REMARK    1  A    between atoms: C10_1  and  C9_22
REMARK    2  A    between atoms: C20_12  and  C21_15
REMARK    3  A    between atoms: N3_21  and  N2_25
REMARK    4  A    between atoms: N2_25  and  C8_27
REMARK    5  A    between atoms: C8_27  and  N1_29
REMARK    6  A    between atoms: N1_29  and  C7_36
REMARK    7  A    between atoms: C2_31  and  O1_38
REMARK                            x       y       z     vdW  Elec       q    Type
REMARK                         _______ _______ _______ _____ _____    ______ ____
ROOT
ATOM      1  C10 UNL     1      28.195  -8.845 -37.335  0.00  0.00    +0.000 C 
ATOM      2  C11 UNL     1      27.439  -8.635 -36.162  0.00  0.00    +0.000 C 
ATOM      3  C12 UNL     1      26.079  -8.391 -36.317  0.00  0.00    +0.000 A 
ATOM      4  C13 UNL     1      25.480  -8.345 -37.557  0.00  0.00    +0.000 A 
ATOM      5  N4  UNL     1      24.143  -8.156 -37.451  0.00  0.00    +0.000 N 
ATOM      6  C14 UNL     1      23.911  -8.065 -36.123  0.00  0.00    +0.000 A 
ATOM      7  C15 UNL     1      22.682  -7.878 -35.494  0.00  0.00    +0.000 C 
ATOM      8  C16 UNL     1      22.661  -7.829 -34.087  0.00  0.00    +0.000 C 
ATOM      9  C17 UNL     1      23.856  -7.972 -33.346  0.00  0.00    +0.000 C 
ATOM     10  C18 UNL     1      25.085  -8.165 -34.003  0.00  0.00    +0.000 C 
ATOM     11  C19 UNL     1      25.075  -8.204 -35.395  0.00  0.00    +0.000 A 
ATOM     12  C20 UNL     1      26.245  -8.534 -38.716  0.00  0.00    +0.000 C 
ATOM     13  N5  UNL     1      27.580  -8.788 -38.559  0.00  0.00    +0.000 NA
ATOM     14  H12 UNL     1      23.431  -8.122 -38.213  0.00  0.00    +0.000 HD
ENDROOT
BRANCH  12  15
ATOM     15  C21 UNL     1      25.673  -8.473 -40.077  0.00  0.00    +0.000 C 
ATOM     16  C22 UNL     1      25.473  -7.240 -40.723  0.00  0.00    +0.000 C 
ATOM     17  C23 UNL     1      24.957  -7.200 -42.022  0.00  0.00    +0.000 C 
ATOM     18  C24 UNL     1      24.650  -8.388 -42.691  0.00  0.00    +0.000 C 
ATOM     19  C25 UNL     1      24.865  -9.618 -42.064  0.00  0.00    +0.000 C 
ATOM     20  C26 UNL     1      25.381  -9.663 -40.765  0.00  0.00    +0.000 C 
ENDBRANCH  12  15
BRANCH   1  22
ATOM     21  N3  UNL     1      30.214 -10.233 -37.958  0.00  0.00    +0.000 N 
ATOM     22  C9  UNL     1      29.647  -9.111 -37.263  0.00  0.00    +0.000 C 
ATOM     23  O2  UNL     1      30.389  -8.359 -36.575  0.00  0.00    +0.000 OA
ATOM     24  H10 UNL     1      29.593 -11.030 -38.220  0.00  0.00    +0.000 HD
BRANCH  21  25
ATOM     25  N2  UNL     1      31.602 -10.396 -38.113  0.00  0.00    +0.000 N 
ATOM     26  H9  UNL     1      32.086 -11.113 -37.525  0.00  0.00    +0.000 HD
BRANCH  25  27
ATOM     27  C8  UNL     1      32.347  -9.738 -39.147  0.00  0.00    +0.000 C 
ATOM     28  S1  UNL     1      33.704  -8.908 -38.738  0.00  0.00    +0.000 S 
BRANCH  27  29
ATOM     29  N1  UNL     1      32.055 -10.012 -40.529  0.00  0.00    +0.000 N 
ATOM     30  H8  UNL     1      32.805 -10.454 -41.106  0.00  0.00    +0.000 HD
BRANCH  29  36
ATOM     31  C2  UNL     1      30.162 -10.456 -42.075  0.00  0.00    +0.000 C 
ATOM     32  C3  UNL     1      28.990  -9.996 -42.710  0.00  0.00    +0.000 C 
ATOM     33  C4  UNL     1      28.534  -8.693 -42.495  0.00  0.00    +0.000 C 
ATOM     34  C5  UNL     1      29.240  -7.834 -41.654  0.00  0.00    +0.000 C 
ATOM     35  C6  UNL     1      30.398  -8.279 -41.013  0.00  0.00    +0.000 C 
ATOM     36  C7  UNL     1      30.853  -9.593 -41.196  0.00  0.00    +0.000 C 
BRANCH  31  38
ATOM     37  C1  UNL     1      31.457 -12.107 -43.440  0.00  0.00    +0.000 C 
ATOM     38  O1  UNL     1      30.673 -11.742 -42.310  0.00  0.00    +0.000 OA
ENDBRANCH  31  38
ENDBRANCH  29  36
ENDBRANCH  27  29
ENDBRANCH  25  27
ENDBRANCH  21  25
ENDBRANCH   1  22
TORSDOF 7
