REMARK  Name = resultss/4CJN/ligands/lig_336_t1.pdb
REMARK  12 active torsions:
REMARK  status: ('A' for Active; 'I' for Inactive)
REMARK    1  A    between atoms: C2_1  and  O1_28
REMARK    2  A    between atoms: C4_3  and  C5_7
REMARK    3  A    between atoms: C21_6  and  O3_29
REMARK    4  A    between atoms: N2_17  and  N3_19
REMARK    5  A    between atoms: N3_19  and  C13_21
REMARK    6  A    between atoms: O3_29  and  C22_30
REMARK    7  A    between atoms: C22_30  and  C23_31
REMARK    8  A    between atoms: N4_33  and  C25_36
REMARK    9  A    between atoms: C25_36  and  C26_37
REMARK   10  A    between atoms: C26_37  and  O4_39
REMARK   11  A    between atoms: N5_38  and  C27_41
REMARK   12  A    between atoms: C27_41  and  C28_42
REMARK                            x       y       z     vdW  Elec       q    Type
REMARK                         _______ _______ _______ _____ _____    ______ ____
ROOT
ATOM      1  C2  UNL     1      24.388  -7.904 -36.464  0.00  0.00    +0.000 C 
ATOM      2  C3  UNL     1      24.626  -8.427 -37.751  0.00  0.00    +0.000 C 
ATOM      3  C4  UNL     1      25.876  -8.253 -38.371  0.00  0.00    +0.000 C 
ATOM      4  C19 UNL     1      26.877  -7.521 -37.711  0.00  0.00    +0.000 C 
ATOM      5  C20 UNL     1      26.652  -7.008 -36.434  0.00  0.00    +0.000 C 
ATOM      6  C21 UNL     1      25.411  -7.210 -35.797  0.00  0.00    +0.000 C 
ENDROOT
BRANCH   3   7
ATOM      7  C5  UNL     1      26.141  -8.824 -39.747  0.00  0.00    +0.000 C 
ATOM      8  N1  UNL     1      27.338  -9.672 -39.693  0.00  0.00    +0.000 N 
ATOM      9  C6  UNL     1      28.193  -9.861 -40.828  0.00  0.00    +0.000 C 
ATOM     10  C7  UNL     1      29.082 -10.947 -40.868  0.00  0.00    +0.000 C 
ATOM     11  C8  UNL     1      29.902 -11.144 -41.984  0.00  0.00    +0.000 C 
ATOM     12  C9  UNL     1      29.851 -10.254 -43.059  0.00  0.00    +0.000 C 
ATOM     13  C10 UNL     1      28.984  -9.157 -43.016  0.00  0.00    +0.000 C 
ATOM     14  C11 UNL     1      28.148  -8.958 -41.899  0.00  0.00    +0.000 C 
ATOM     15  C12 UNL     1      27.223  -7.816 -41.815  0.00  0.00    +0.000 C 
ATOM     16  O2  UNL     1      27.248  -6.914 -42.695  0.00  0.00    +0.000 OA
ATOM     17  N2  UNL     1      26.283  -7.731 -40.732  0.00  0.00    +0.000 N 
ATOM     18  H6  UNL     1      27.427 -10.339 -38.892  0.00  0.00    +0.000 HD
BRANCH  17  19
ATOM     19  N3  UNL     1      25.398  -6.639 -40.697  0.00  0.00    +0.000 N 
ATOM     20  H11 UNL     1      25.756  -5.721 -40.343  0.00  0.00    +0.000 HD
BRANCH  19  21
ATOM     21  C13 UNL     1      24.046  -6.729 -41.183  0.00  0.00    +0.000 C 
ATOM     22  C14 UNL     1      23.714  -7.576 -42.255  0.00  0.00    +0.000 C 
ATOM     23  C15 UNL     1      22.403  -7.619 -42.741  0.00  0.00    +0.000 C 
ATOM     24  C16 UNL     1      21.415  -6.815 -42.163  0.00  0.00    +0.000 C 
ATOM     25  C17 UNL     1      21.737  -5.965 -41.101  0.00  0.00    +0.000 C 
ATOM     26  C18 UNL     1      23.048  -5.920 -40.614  0.00  0.00    +0.000 C 
ENDBRANCH  19  21
ENDBRANCH  17  19
ENDBRANCH   3   7
BRANCH   1  28
ATOM     27  C1  UNL     1      22.103  -7.077 -35.876  0.00  0.00    +0.000 C 
ATOM     28  O1  UNL     1      23.147  -8.044 -35.827  0.00  0.00    +0.000 OA
ENDBRANCH   1  28
BRANCH   6  29
ATOM     29  O3  UNL     1      25.154  -6.737 -34.500  0.00  0.00    +0.000 OA
BRANCH  29  30
ATOM     30  C22 UNL     1      25.411  -7.477 -33.306  0.00  0.00    +0.000 C 
BRANCH  30  31
ATOM     31  C23 UNL     1      26.808  -7.223 -32.841  0.00  0.00    +0.000 C 
ATOM     32  C24 UNL     1      27.922  -7.991 -33.113  0.00  0.00    +0.000 C 
ATOM     33  N4  UNL     1      28.920  -7.462 -32.386  0.00  0.00    +0.000 N 
ATOM     34  N6  UNL     1      28.446  -6.429 -31.705  0.00  0.00    +0.000 NA
ATOM     35  N7  UNL     1      27.154  -6.267 -31.953  0.00  0.00    +0.000 NA
BRANCH  33  36
ATOM     36  C25 UNL     1      30.305  -7.928 -32.340  0.00  0.00    +0.000 C 
BRANCH  36  37
ATOM     37  C26 UNL     1      30.540  -8.998 -33.360  0.00  0.00    +0.000 C 
ATOM     38  N5  UNL     1      30.873  -8.659 -34.574  0.00  0.00    +0.000 NA
BRANCH  37  39
ATOM     39  O4  UNL     1      30.431 -10.336 -32.963  0.00  0.00    +0.000 OA
ATOM     40  H24 UNL     1      31.051 -11.066 -33.287  0.00  0.00    +0.000 HD
ENDBRANCH  37  39
BRANCH  38  41
ATOM     41  C27 UNL     1      31.133  -9.576 -35.681  0.00  0.00    +0.000 C 
BRANCH  41  42
ATOM     42  C28 UNL     1      31.011  -8.872 -37.010  0.00  0.00    +0.000 C 
ATOM     43  C29 UNL     1      30.485  -7.568 -37.079  0.00  0.00    +0.000 C 
ATOM     44  C30 UNL     1      30.410  -6.902 -38.307  0.00  0.00    +0.000 C 
ATOM     45  C31 UNL     1      30.868  -7.526 -39.469  0.00  0.00    +0.000 C 
ATOM     46  C32 UNL     1      31.398  -8.819 -39.409  0.00  0.00    +0.000 C 
ATOM     47  C33 UNL     1      31.477  -9.488 -38.183  0.00  0.00    +0.000 C 
ENDBRANCH  41  42
ENDBRANCH  38  41
ENDBRANCH  36  37
ENDBRANCH  33  36
ENDBRANCH  30  31
ENDBRANCH  29  30
ENDBRANCH   6  29
TORSDOF 12
