REMARK  Name = resultss/4CJN/ligands/lig_338_t1.pdb
REMARK  11 active torsions:
REMARK  status: ('A' for Active; 'I' for Inactive)
REMARK    1  A    between atoms: C2_1  and  O1_28
REMARK    2  A    between atoms: C4_3  and  C5_7
REMARK    3  A    between atoms: C21_6  and  O3_29
REMARK    4  A    between atoms: N2_17  and  N3_19
REMARK    5  A    between atoms: N3_19  and  C13_21
REMARK    6  A    between atoms: O3_29  and  C22_30
REMARK    7  A    between atoms: C22_30  and  C23_31
REMARK    8  A    between atoms: N4_33  and  C25_36
REMARK    9  A    between atoms: C25_36  and  C26_37
REMARK   10  A    between atoms: C26_37  and  O4_46
REMARK   11  A    between atoms: N5_38  and  C27_39
REMARK                            x       y       z     vdW  Elec       q    Type
REMARK                         _______ _______ _______ _____ _____    ______ ____
ROOT
ATOM      1  C2  UNL     1      28.192  -6.975 -39.725  0.00  0.00    +0.000 C 
ATOM      2  C3  UNL     1      27.995  -7.125 -38.340  0.00  0.00    +0.000 C 
ATOM      3  C4  UNL     1      26.840  -7.752 -37.843  0.00  0.00    +0.000 C 
ATOM      4  C19 UNL     1      25.886  -8.244 -38.744  0.00  0.00    +0.000 C 
ATOM      5  C20 UNL     1      26.082  -8.114 -40.118  0.00  0.00    +0.000 C 
ATOM      6  C21 UNL     1      27.231  -7.473 -40.619  0.00  0.00    +0.000 C 
ENDROOT
BRANCH   3   7
ATOM      7  C5  UNL     1      26.571  -7.784 -36.356  0.00  0.00    +0.000 C 
ATOM      8  N1  UNL     1      25.284  -7.140 -36.068  0.00  0.00    +0.000 N 
ATOM      9  C6  UNL     1      24.525  -7.467 -34.895  0.00  0.00    +0.000 C 
ATOM     10  C7  UNL     1      23.509  -6.609 -34.446  0.00  0.00    +0.000 C 
ATOM     11  C8  UNL     1      22.789  -6.918 -33.287  0.00  0.00    +0.000 C 
ATOM     12  C9  UNL     1      23.072  -8.089 -32.577  0.00  0.00    +0.000 C 
ATOM     13  C10 UNL     1      24.067  -8.960 -33.032  0.00  0.00    +0.000 C 
ATOM     14  C11 UNL     1      24.795  -8.653 -34.196  0.00  0.00    +0.000 C 
ATOM     15  C12 UNL     1      25.829  -9.559 -34.721  0.00  0.00    +0.000 C 
ATOM     16  O2  UNL     1      26.027 -10.679 -34.179  0.00  0.00    +0.000 OA
ATOM     17  N2  UNL     1      26.592  -9.177 -35.878  0.00  0.00    +0.000 N 
ATOM     18  H6  UNL     1      25.044  -6.265 -36.590  0.00  0.00    +0.000 HD
BRANCH  17  19
ATOM     19  N3  UNL     1      27.602 -10.040 -36.344  0.00  0.00    +0.000 N 
ATOM     20  H11 UNL     1      27.315 -10.970 -36.728  0.00  0.00    +0.000 HD
BRANCH  19  21
ATOM     21  C13 UNL     1      28.985  -9.828 -36.016  0.00  0.00    +0.000 C 
ATOM     22  C14 UNL     1      29.406  -9.663 -34.683  0.00  0.00    +0.000 C 
ATOM     23  C15 UNL     1      30.762  -9.490 -34.386  0.00  0.00    +0.000 C 
ATOM     24  C16 UNL     1      31.708  -9.485 -35.413  0.00  0.00    +0.000 C 
ATOM     25  C17 UNL     1      31.302  -9.666 -36.738  0.00  0.00    +0.000 C 
ATOM     26  C18 UNL     1      29.947  -9.831 -37.040  0.00  0.00    +0.000 C 
ENDBRANCH  19  21
ENDBRANCH  17  19
ENDBRANCH   3   7
BRANCH   1  28
ATOM     27  C1  UNL     1      30.551  -6.971 -40.559  0.00  0.00    +0.000 C 
ATOM     28  O1  UNL     1      29.320  -6.326 -40.251  0.00  0.00    +0.000 OA
ENDBRANCH   1  28
BRANCH   6  29
ATOM     29  O3  UNL     1      27.453  -7.308 -41.996  0.00  0.00    +0.000 OA
BRANCH  29  30
ATOM     30  C22 UNL     1      27.426  -8.364 -42.951  0.00  0.00    +0.000 C 
BRANCH  30  31
ATOM     31  C23 UNL     1      28.343  -9.453 -42.504  0.00  0.00    +0.000 C 
ATOM     32  C24 UNL     1      29.471  -9.892 -43.158  0.00  0.00    +0.000 C 
ATOM     33  N4  UNL     1      29.952 -10.907 -42.420  0.00  0.00    +0.000 N 
ATOM     34  N6  UNL     1      29.169 -11.073 -41.368  0.00  0.00    +0.000 NA
ATOM     35  N7  UNL     1      28.168 -10.204 -41.398  0.00  0.00    +0.000 NA
BRANCH  33  36
ATOM     36  C25 UNL     1      31.186 -11.645 -42.654  0.00  0.00    +0.000 C 
BRANCH  36  37
ATOM     37  C26 UNL     1      32.366 -10.731 -42.447  0.00  0.00    +0.000 C 
ATOM     38  N5  UNL     1      33.486 -10.852 -43.101  0.00  0.00    +0.000 NA
BRANCH  38  39
ATOM     39  C27 UNL     1      33.746 -11.748 -44.191  0.00  0.00    +0.000 C 
ATOM     40  C28 UNL     1      33.424 -11.357 -45.497  0.00  0.00    +0.000 C 
ATOM     41  C29 UNL     1      33.602 -12.247 -46.564  0.00  0.00    +0.000 C 
ATOM     42  C30 UNL     1      34.080 -13.540 -46.326  0.00  0.00    +0.000 C 
ATOM     43 BR1  UNL     1      34.310 -14.757 -47.781  0.00  0.00    +0.000 Br
ATOM     44  C31 UNL     1      34.378 -13.944 -45.019  0.00  0.00    +0.000 C 
ATOM     45  C32 UNL     1      34.202 -13.055 -43.953  0.00  0.00    +0.000 C 
ENDBRANCH  38  39
BRANCH  37  46
ATOM     46  O4  UNL     1      32.272  -9.768 -41.445  0.00  0.00    +0.000 OA
ATOM     47  H24 UNL     1      31.409  -9.628 -40.930  0.00  0.00    +0.000 HD
ENDBRANCH  37  46
ENDBRANCH  36  37
ENDBRANCH  33  36
ENDBRANCH  30  31
ENDBRANCH  29  30
ENDBRANCH   6  29
TORSDOF 11
