REMARK  Name = resultss/4CJN/ligands/lig_425_t0.pdb
REMARK  7 active torsions:
REMARK  status: ('A' for Active; 'I' for Inactive)
REMARK    1  A    between atoms: C9_1  and  C8_22
REMARK    2  A    between atoms: C19_12  and  C20_15
REMARK    3  A    between atoms: N3_21  and  N2_25
REMARK    4  A    between atoms: N2_25  and  C7_27
REMARK    5  A    between atoms: C7_27  and  N1_29
REMARK    6  A    between atoms: N1_29  and  C6_35
REMARK    7  A    between atoms: C2_31  and  O1_38
REMARK                            x       y       z     vdW  Elec       q    Type
REMARK                         _______ _______ _______ _____ _____    ______ ____
ROOT
ATOM      1  C9  UNL     1      26.232  -9.562 -41.181  0.00  0.00    +0.000 C 
ATOM      2  C10 UNL     1      25.988  -9.406 -39.800  0.00  0.00    +0.000 C 
ATOM      3  C11 UNL     1      27.059  -9.610 -38.938  0.00  0.00    +0.000 A 
ATOM      4  C12 UNL     1      28.315  -9.942 -39.396  0.00  0.00    +0.000 A 
ATOM      5  N4  UNL     1      29.174 -10.152 -38.369  0.00  0.00    +0.000 N 
ATOM      6  C13 UNL     1      28.442  -9.927 -37.256  0.00  0.00    +0.000 A 
ATOM      7  C14 UNL     1      28.872 -10.024 -35.933  0.00  0.00    +0.000 C 
ATOM      8  C15 UNL     1      27.935  -9.763 -34.915  0.00  0.00    +0.000 C 
ATOM      9  C16 UNL     1      26.602  -9.420 -35.237  0.00  0.00    +0.000 C 
ATOM     10  C17 UNL     1      26.190  -9.333 -36.579  0.00  0.00    +0.000 C 
ATOM     11  C18 UNL     1      27.141  -9.591 -37.564  0.00  0.00    +0.000 A 
ATOM     12  C19 UNL     1      28.550 -10.077 -40.771  0.00  0.00    +0.000 C 
ATOM     13  N5  UNL     1      27.492  -9.889 -41.616  0.00  0.00    +0.000 NA
ATOM     14  H11 UNL     1      30.171 -10.457 -38.411  0.00  0.00    +0.000 HD
ENDROOT
BRANCH  12  15
ATOM     15  C20 UNL     1      29.875 -10.412 -41.332  0.00  0.00    +0.000 C 
ATOM     16  C21 UNL     1      29.998 -11.467 -42.252  0.00  0.00    +0.000 C 
ATOM     17  C22 UNL     1      31.241 -11.777 -42.810  0.00  0.00    +0.000 C 
ATOM     18  C23 UNL     1      32.370 -11.028 -42.466  0.00  0.00    +0.000 C 
ATOM     19  C24 UNL     1      32.254  -9.963 -41.570  0.00  0.00    +0.000 C 
ATOM     20  C25 UNL     1      31.012  -9.649 -41.009  0.00  0.00    +0.000 C 
ENDBRANCH  12  15
BRANCH   1  22
ATOM     21  N3  UNL     1      23.879  -8.838 -41.761  0.00  0.00    +0.000 N 
ATOM     22  C8  UNL     1      25.149  -9.371 -42.168  0.00  0.00    +0.000 C 
ATOM     23  O2  UNL     1      25.344  -9.662 -43.380  0.00  0.00    +0.000 OA
ATOM     24  H9  UNL     1      23.822  -8.302 -40.867  0.00  0.00    +0.000 HD
BRANCH  21  25
ATOM     25  N2  UNL     1      22.789  -8.765 -42.646  0.00  0.00    +0.000 N 
ATOM     26  H8  UNL     1      22.389  -9.656 -43.015  0.00  0.00    +0.000 HD
BRANCH  25  27
ATOM     27  C7  UNL     1      22.324  -7.531 -43.215  0.00  0.00    +0.000 C 
ATOM     28  S1  UNL     1      20.748  -7.082 -43.063  0.00  0.00    +0.000 S 
BRANCH  27  29
ATOM     29  N1  UNL     1      23.250  -6.722 -43.960  0.00  0.00    +0.000 N 
ATOM     30  H7  UNL     1      23.686  -5.913 -43.464  0.00  0.00    +0.000 HD
BRANCH  29  35
ATOM     31  C2  UNL     1      25.445  -7.146 -46.964  0.00  0.00    +0.000 C 
ATOM     32  C3  UNL     1      24.486  -7.394 -47.965  0.00  0.00    +0.000 C 
ATOM     33  C4  UNL     1      23.127  -7.415 -47.646  0.00  0.00    +0.000 C 
ATOM     34  C5  UNL     1      22.710  -7.200 -46.330  0.00  0.00    +0.000 C 
ATOM     35  C6  UNL     1      23.656  -6.978 -45.316  0.00  0.00    +0.000 C 
ATOM     36  C26 UNL     1      25.018  -6.932 -45.647  0.00  0.00    +0.000 C 
BRANCH  31  38
ATOM     37  C1  UNL     1      27.838  -7.213 -46.242  0.00  0.00    +0.000 C 
ATOM     38  O1  UNL     1      26.821  -7.105 -47.233  0.00  0.00    +0.000 OA
ENDBRANCH  31  38
ENDBRANCH  29  35
ENDBRANCH  27  29
ENDBRANCH  25  27
ENDBRANCH  21  25
ENDBRANCH   1  22
TORSDOF 7
