REMARK  Name = resultss/4CJN/ligands/lig_173_t0.pdb
REMARK  4 active torsions:
REMARK  status: ('A' for Active; 'I' for Inactive)
REMARK    1  A    between atoms: C9_1  and  C1_17
REMARK    2  A    between atoms: C12_4  and  C13_7
REMARK    3  A    between atoms: N1_18  and  N2_20
REMARK    4  A    between atoms: C2_21  and  C3_22
REMARK                            x       y       z     vdW  Elec       q    Type
REMARK                         _______ _______ _______ _____ _____    ______ ____
ROOT
ATOM      1  C9  UNL     1      25.307  -9.242 -40.824  0.00  0.00    +0.000 C 
ATOM      2  C10 UNL     1      26.502  -9.976 -40.914  0.00  0.00    +0.000 C 
ATOM      3  C11 UNL     1      27.381 -10.037 -39.828  0.00  0.00    +0.000 C 
ATOM      4  C12 UNL     1      27.082  -9.374 -38.626  0.00  0.00    +0.000 C 
ATOM      5  C20 UNL     1      25.881  -8.650 -38.532  0.00  0.00    +0.000 C 
ATOM      6  C21 UNL     1      25.002  -8.590 -39.617  0.00  0.00    +0.000 C 
ENDROOT
BRANCH   4   7
ATOM      7  C13 UNL     1      28.021  -9.444 -37.483  0.00  0.00    +0.000 A 
ATOM      8  N3  UNL     1      27.612  -9.529 -36.190  0.00  0.00    +0.000 NA
ATOM      9  C14 UNL     1      28.668  -9.581 -35.338  0.00  0.00    +0.000 A 
ATOM     10  C15 UNL     1      28.557  -9.671 -33.949  0.00  0.00    +0.000 C 
ATOM     11  C16 UNL     1      29.732  -9.716 -33.180  0.00  0.00    +0.000 C 
ATOM     12  C17 UNL     1      30.996  -9.672 -33.802  0.00  0.00    +0.000 C 
ATOM     13  C18 UNL     1      31.095  -9.581 -35.200  0.00  0.00    +0.000 C 
ATOM     14  C19 UNL     1      29.915  -9.537 -35.939  0.00  0.00    +0.000 A 
ATOM     15  S1  UNL     1      29.717  -9.430 -37.599  0.00  0.00    +0.000 S 
ENDBRANCH   4   7
BRANCH   1  17
ATOM     16  O1  UNL     1      24.496  -9.972 -42.931  0.00  0.00    +0.000 OA
ATOM     17  C1  UNL     1      24.360  -9.173 -41.965  0.00  0.00    +0.000 C 
ATOM     18  N1  UNL     1      23.284  -8.229 -41.984  0.00  0.00    +0.000 N 
ATOM     19  H1  UNL     1      23.055  -7.675 -41.128  0.00  0.00    +0.000 HD
BRANCH  18  20
ATOM     20  N2  UNL     1      22.488  -8.097 -43.133  0.00  0.00    +0.000 NA
ATOM     21  C2  UNL     1      22.658  -7.126 -43.975  0.00  0.00    +0.000 C 
BRANCH  21  22
ATOM     22  C3  UNL     1      21.809  -7.004 -45.178  0.00  0.00    +0.000 C 
ATOM     23  C4  UNL     1      20.464  -6.597 -45.091  0.00  0.00    +0.000 C 
ATOM     24  C5  UNL     1      19.683  -6.492 -46.246  0.00  0.00    +0.000 C 
ATOM     25  C6  UNL     1      20.234  -6.789 -47.496  0.00  0.00    +0.000 C 
ATOM     26  F1  UNL     1      19.475  -6.685 -48.613  0.00  0.00    +0.000 F 
ATOM     27  C7  UNL     1      21.569  -7.193 -47.591  0.00  0.00    +0.000 C 
ATOM     28  C8  UNL     1      22.354  -7.301 -46.439  0.00  0.00    +0.000 C 
ENDBRANCH  21  22
ENDBRANCH  18  20
ENDBRANCH   1  17
TORSDOF 4
