REMARK  Name = resultss/4CJN/ligands/lig_100_t0.pdb
REMARK  10 active torsions:
REMARK  status: ('A' for Active; 'I' for Inactive)
REMARK    1  A    between atoms: C6_6  and  C8_29
REMARK    2  A    between atoms: C15_8  and  O3_39
REMARK    3  A    between atoms: C26_13  and  C27_14
REMARK    4  A    between atoms: C28_15  and  C29_16
REMARK    5  A    between atoms: C32_19  and  C33_23
REMARK    6  A    between atoms: C8_29  and  O1_30
REMARK    7  A    between atoms: O1_30  and  C9_31
REMARK    8  A    between atoms: C9_31  and  C10_33
REMARK    9  A    between atoms: O3_39  and  C16_40
REMARK   10  A    between atoms: C16_40  and  C17_42
REMARK                            x       y       z     vdW  Elec       q    Type
REMARK                         _______ _______ _______ _____ _____    ______ ____
ROOT
ATOM      1  C1  UNL     1      24.166  -5.889 -38.916  0.00  0.00    +0.000 C 
ATOM      2  C2  UNL     1      25.299  -6.568 -39.168  0.00  0.00    +0.000 C 
ATOM      3  C3  UNL     1      26.523  -6.253 -38.312  0.00  0.00    +0.000 C 
ATOM      4  C4  UNL     1      27.654  -7.316 -38.292  0.00  0.00    +0.000 C 
ATOM      5  C5  UNL     1      27.238  -8.661 -38.941  0.00  0.00    +0.000 C 
ATOM      6  C6  UNL     1      28.225  -9.927 -38.792  0.00  0.00    +0.000 C 
ATOM      7  C7  UNL     1      27.401 -11.181 -38.348  0.00  0.00    +0.000 C 
ATOM      8  C15 UNL     1      28.883 -10.305 -40.164  0.00  0.00    +0.000 C 
ATOM      9  C22 UNL     1      27.894 -10.413 -41.358  0.00  0.00    +0.000 C 
ATOM     10  C23 UNL     1      26.559  -9.669 -41.184  0.00  0.00    +0.000 C 
ATOM     11  C24 UNL     1      26.698  -8.349 -40.394  0.00  0.00    +0.000 C 
ATOM     12  C25 UNL     1      27.605  -7.372 -41.214  0.00  0.00    +0.000 C 
ATOM     13  C26 UNL     1      25.287  -7.692 -40.211  0.00  0.00    +0.000 C 
ENDROOT
BRANCH  13  14
ATOM     14  C27 UNL     1      24.641  -7.287 -41.529  0.00  0.00    +0.000 C 
ATOM     15  C28 UNL     1      23.591  -7.922 -42.065  0.00  0.00    +0.000 C 
BRANCH  15  16
ATOM     16  C29 UNL     1      23.034  -7.561 -43.381  0.00  0.00    +0.000 C 
ATOM     17  C30 UNL     1      23.768  -7.372 -44.472  0.00  0.00    +0.000 C 
ATOM     18  C31 UNL     1      22.861  -6.992 -45.565  0.00  0.00    +0.000 C 
ATOM     19  C32 UNL     1      23.178  -6.678 -46.828  0.00  0.00    +0.000 C 
ATOM     20  O5  UNL     1      21.553  -7.009 -45.098  0.00  0.00    +0.000 OA
ATOM     21  C39 UNL     1      21.635  -7.351 -43.759  0.00  0.00    +0.000 C 
ATOM     22  O6  UNL     1      20.630  -7.500 -43.015  0.00  0.00    +0.000 OA
BRANCH  19  23
ATOM     23  C33 UNL     1      24.560  -6.571 -47.341  0.00  0.00    +0.000 C 
ATOM     24  C34 UNL     1      25.599  -7.197 -46.633  0.00  0.00    +0.000 C 
ATOM     25  C35 UNL     1      26.913  -7.143 -47.110  0.00  0.00    +0.000 C 
ATOM     26  C36 UNL     1      27.197  -6.483 -48.308  0.00  0.00    +0.000 C 
ATOM     27  C37 UNL     1      26.165  -5.885 -49.037  0.00  0.00    +0.000 C 
ATOM     28  C38 UNL     1      24.849  -5.940 -48.565  0.00  0.00    +0.000 C 
ENDBRANCH  19  23
ENDBRANCH  15  16
ENDBRANCH  13  14
BRANCH   6  29
ATOM     29  C8  UNL     1      29.389  -9.725 -37.730  0.00  0.00    +0.000 C 
BRANCH  29  30
ATOM     30  O1  UNL     1      29.149 -10.317 -36.447  0.00  0.00    +0.000 OA
BRANCH  30  31
ATOM     31  C9  UNL     1      29.212  -9.664 -35.207  0.00  0.00    +0.000 C 
ATOM     32  O2  UNL     1      30.322  -9.420 -34.665  0.00  0.00    +0.000 OA
BRANCH  31  33
ATOM     33  C10 UNL     1      27.960  -9.235 -34.547  0.00  0.00    +0.000 C 
ATOM     34  C11 UNL     1      26.707  -9.666 -35.017  0.00  0.00    +0.000 C 
ATOM     35  C12 UNL     1      25.537  -9.240 -34.383  0.00  0.00    +0.000 C 
ATOM     36  C13 UNL     1      25.624  -8.389 -33.281  0.00  0.00    +0.000 C 
ATOM     37  N1  UNL     1      26.840  -7.980 -32.834  0.00  0.00    +0.000 NA
ATOM     38  C14 UNL     1      27.995  -8.377 -33.434  0.00  0.00    +0.000 C 
ENDBRANCH  31  33
ENDBRANCH  30  31
ENDBRANCH  29  30
ENDBRANCH   6  29
BRANCH   8  39
ATOM     39  O3  UNL     1      29.949  -9.400 -40.466  0.00  0.00    +0.000 OA
BRANCH  39  40
ATOM     40  C16 UNL     1      30.596  -9.346 -41.708  0.00  0.00    +0.000 C 
ATOM     41  O4  UNL     1      30.409  -8.364 -42.477  0.00  0.00    +0.000 OA
BRANCH  40  42
ATOM     42  C17 UNL     1      31.490 -10.449 -42.117  0.00  0.00    +0.000 C 
ATOM     43  C18 UNL     1      30.989 -11.573 -42.795  0.00  0.00    +0.000 C 
ATOM     44  C19 UNL     1      31.848 -12.610 -43.161  0.00  0.00    +0.000 C 
ATOM     45  C20 UNL     1      33.205 -12.515 -42.853  0.00  0.00    +0.000 C 
ATOM     46  N2  UNL     1      33.681 -11.422 -42.200  0.00  0.00    +0.000 NA
ATOM     47  C21 UNL     1      32.864 -10.399 -41.829  0.00  0.00    +0.000 C 
ENDBRANCH  40  42
ENDBRANCH  39  40
ENDBRANCH   8  39
TORSDOF 10
