REMARK  Name = resultss/4CJN/ligands/lig_354_t1.pdb
REMARK  10 active torsions:
REMARK  status: ('A' for Active; 'I' for Inactive)
REMARK    1  A    between atoms: C6_1  and  O2_27
REMARK    2  A    between atoms: C9_4  and  C10_7
REMARK    3  A    between atoms: N3_17  and  N4_19
REMARK    4  A    between atoms: N4_19  and  C18_21
REMARK    5  A    between atoms: O2_27  and  C5_28
REMARK    6  A    between atoms: C5_28  and  C4_31
REMARK    7  A    between atoms: N1_29  and  C2_34
REMARK    8  A    between atoms: C2_34  and  C1_35
REMARK    9  A    between atoms: C1_35  and  O1_43
REMARK   10  A    between atoms: N7_36  and  C26_37
REMARK                            x       y       z     vdW  Elec       q    Type
REMARK                         _______ _______ _______ _____ _____    ______ ____
ROOT
ATOM      1  C6  UNL     1      24.185  -7.741 -36.404  0.00  0.00    +0.000 C 
ATOM      2  C7  UNL     1      23.628  -6.597 -37.003  0.00  0.00    +0.000 C 
ATOM      3  C8  UNL     1      23.887  -6.307 -38.346  0.00  0.00    +0.000 C 
ATOM      4  C9  UNL     1      24.710  -7.149 -39.113  0.00  0.00    +0.000 C 
ATOM      5  C24 UNL     1      25.256  -8.296 -38.512  0.00  0.00    +0.000 C 
ATOM      6  C25 UNL     1      24.995  -8.586 -37.170  0.00  0.00    +0.000 C 
ENDROOT
BRANCH   4   7
ATOM      7  C10 UNL     1      24.991  -6.822 -40.563  0.00  0.00    +0.000 C 
ATOM      8  N2  UNL     1      26.417  -6.527 -40.748  0.00  0.00    +0.000 N 
ATOM      9  C11 UNL     1      27.359  -7.498 -41.224  0.00  0.00    +0.000 C 
ATOM     10  C12 UNL     1      28.736  -7.239 -41.149  0.00  0.00    +0.000 C 
ATOM     11  C13 UNL     1      29.657  -8.191 -41.597  0.00  0.00    +0.000 C 
ATOM     12  C14 UNL     1      29.208  -9.403 -42.125  0.00  0.00    +0.000 C 
ATOM     13  C15 UNL     1      27.838  -9.667 -42.207  0.00  0.00    +0.000 C 
ATOM     14  C16 UNL     1      26.908  -8.714 -41.759  0.00  0.00    +0.000 C 
ATOM     15  C17 UNL     1      25.457  -8.950 -41.846  0.00  0.00    +0.000 C 
ATOM     16  O3  UNL     1      25.016 -10.050 -42.279  0.00  0.00    +0.000 OA
ATOM     17  N3  UNL     1      24.542  -7.917 -41.435  0.00  0.00    +0.000 N 
ATOM     18  H10 UNL     1      26.775  -5.616 -40.378  0.00  0.00    +0.000 HD
BRANCH  17  19
ATOM     19  N4  UNL     1      23.162  -8.055 -41.679  0.00  0.00    +0.000 N 
ATOM     20  H15 UNL     1      22.563  -8.488 -40.939  0.00  0.00    +0.000 HD
BRANCH  19  21
ATOM     21  C18 UNL     1      22.520  -7.508 -42.844  0.00  0.00    +0.000 C 
ATOM     22  C19 UNL     1      21.164  -7.130 -42.823  0.00  0.00    +0.000 C 
ATOM     23  C20 UNL     1      20.557  -6.616 -43.973  0.00  0.00    +0.000 C 
ATOM     24  C21 UNL     1      21.291  -6.488 -45.154  0.00  0.00    +0.000 C 
ATOM     25  C22 UNL     1      22.633  -6.878 -45.189  0.00  0.00    +0.000 C 
ATOM     26  C23 UNL     1      23.243  -7.390 -44.041  0.00  0.00    +0.000 C 
ENDBRANCH  19  21
ENDBRANCH  17  19
ENDBRANCH   4   7
BRANCH   1  27
ATOM     27  O2  UNL     1      23.967  -8.075 -35.056  0.00  0.00    +0.000 OA
BRANCH  27  28
ATOM     28  C5  UNL     1      23.972  -7.151 -33.968  0.00  0.00    +0.000 C 
BRANCH  28  31
ATOM     29  N1  UNL     1      27.347  -7.549 -32.695  0.00  0.00    +0.000 N 
ATOM     30  C3  UNL     1      26.265  -8.085 -33.286  0.00  0.00    +0.000 C 
ATOM     31  C4  UNL     1      25.333  -7.073 -33.352  0.00  0.00    +0.000 C 
ATOM     32  N5  UNL     1      25.874  -5.956 -32.825  0.00  0.00    +0.000 NA
ATOM     33  N6  UNL     1      27.101  -6.276 -32.435  0.00  0.00    +0.000 NA
BRANCH  29  34
ATOM     34  C2  UNL     1      28.631  -8.205 -32.473  0.00  0.00    +0.000 C 
BRANCH  34  35
ATOM     35  C1  UNL     1      29.010  -8.998 -33.683  0.00  0.00    +0.000 C 
ATOM     36  N7  UNL     1      29.200  -8.376 -34.812  0.00  0.00    +0.000 NA
BRANCH  36  37
ATOM     37  C26 UNL     1      29.643  -8.959 -36.045  0.00  0.00    +0.000 C 
ATOM     38  C27 UNL     1      28.699  -9.246 -37.040  0.00  0.00    +0.000 C 
ATOM     39  C28 UNL     1      29.108  -9.764 -38.273  0.00  0.00    +0.000 C 
ATOM     40  C29 UNL     1      30.466  -9.976 -38.528  0.00  0.00    +0.000 C 
ATOM     41  C30 UNL     1      31.417  -9.661 -37.554  0.00  0.00    +0.000 C 
ATOM     42  C31 UNL     1      31.012  -9.141 -36.321  0.00  0.00    +0.000 C 
ENDBRANCH  36  37
BRANCH  35  43
ATOM     43  O1  UNL     1      29.073 -10.389 -33.576  0.00  0.00    +0.000 OA
ATOM     44  H1  UNL     1      28.252 -10.976 -33.504  0.00  0.00    +0.000 HD
ENDBRANCH  35  43
ENDBRANCH  34  35
ENDBRANCH  29  34
ENDBRANCH  28  31
ENDBRANCH  27  28
ENDBRANCH   1  27
TORSDOF 10
