REMARK  Name = resultss/4CJN/ligands/lig_422_t0.pdb
REMARK  8 active torsions:
REMARK  status: ('A' for Active; 'I' for Inactive)
REMARK    1  A    between atoms: C1_2  and  C10_5
REMARK    2  A    between atoms: N1_3  and  N2_25
REMARK    3  A    between atoms: C20_16  and  C21_19
REMARK    4  A    between atoms: N2_25  and  C2_27
REMARK    5  A    between atoms: C2_27  and  N3_29
REMARK    6  A    between atoms: N3_29  and  C3_31
REMARK    7  A    between atoms: C8_36  and  O2_37
REMARK    8  A    between atoms: O2_37  and  C9_38
REMARK                            x       y       z     vdW  Elec       q    Type
REMARK                         _______ _______ _______ _____ _____    ______ ____
ROOT
ATOM      1  O1  UNL     1      24.922 -10.382 -41.890  0.00  0.00    +0.000 OA
ATOM      2  C1  UNL     1      25.883  -9.653 -42.258  0.00  0.00    +0.000 C 
ATOM      3  N1  UNL     1      25.683  -8.683 -43.298  0.00  0.00    +0.000 N 
ATOM      4  H1  UNL     1      26.490  -8.092 -43.594  0.00  0.00    +0.000 HD
ENDROOT
BRANCH   2   5
ATOM      5  C10 UNL     1      27.208  -9.809 -41.619  0.00  0.00    +0.000 C 
ATOM      6  C11 UNL     1      27.408  -9.443 -40.269  0.00  0.00    +0.000 C 
ATOM      7  C12 UNL     1      28.678  -9.635 -39.740  0.00  0.00    +0.000 A 
ATOM      8  C13 UNL     1      29.714 -10.151 -40.488  0.00  0.00    +0.000 A 
ATOM      9  N4  UNL     1      30.832 -10.306 -39.739  0.00  0.00    +0.000 N 
ATOM     10  C14 UNL     1      30.490  -9.860 -38.510  0.00  0.00    +0.000 A 
ATOM     11  C15 UNL     1      31.296  -9.822 -37.373  0.00  0.00    +0.000 C 
ATOM     12  C16 UNL     1      30.730  -9.335 -36.180  0.00  0.00    +0.000 C 
ATOM     13  C17 UNL     1      29.385  -8.906 -36.146  0.00  0.00    +0.000 C 
ATOM     14  C18 UNL     1      28.587  -8.958 -37.304  0.00  0.00    +0.000 C 
ATOM     15  C19 UNL     1      29.177  -9.439 -38.473  0.00  0.00    +0.000 A 
ATOM     16  C20 UNL     1      29.509 -10.494 -41.831  0.00  0.00    +0.000 C 
ATOM     17  N5  UNL     1      28.255 -10.319 -42.345  0.00  0.00    +0.000 NA
ATOM     18  H9  UNL     1      31.751 -10.713 -40.022  0.00  0.00    +0.000 HD
BRANCH  16  19
ATOM     19  C21 UNL     1      30.578 -11.035 -42.697  0.00  0.00    +0.000 C 
ATOM     20  C22 UNL     1      31.322 -10.191 -43.541  0.00  0.00    +0.000 C 
ATOM     21  C23 UNL     1      32.311 -10.722 -44.375  0.00  0.00    +0.000 C 
ATOM     22  C24 UNL     1      32.556 -12.098 -44.384  0.00  0.00    +0.000 C 
ATOM     23  C25 UNL     1      31.805 -12.946 -43.565  0.00  0.00    +0.000 C 
ATOM     24  C26 UNL     1      30.816 -12.419 -42.730  0.00  0.00    +0.000 C 
ENDBRANCH  16  19
ENDBRANCH   2   5
BRANCH   3  25
ATOM     25  N2  UNL     1      24.423  -8.510 -43.902  0.00  0.00    +0.000 N 
ATOM     26  H2  UNL     1      23.874  -9.350 -44.194  0.00  0.00    +0.000 HD
BRANCH  25  27
ATOM     27  C2  UNL     1      23.828  -7.218 -44.111  0.00  0.00    +0.000 C 
ATOM     28  S1  UNL     1      22.403  -6.824 -43.383  0.00  0.00    +0.000 S 
BRANCH  27  29
ATOM     29  N3  UNL     1      24.567  -6.224 -44.840  0.00  0.00    +0.000 N 
ATOM     30  H3  UNL     1      24.721  -5.291 -44.395  0.00  0.00    +0.000 HD
BRANCH  29  31
ATOM     31  C3  UNL     1      25.222  -6.470 -46.092  0.00  0.00    +0.000 C 
ATOM     32  C4  UNL     1      26.606  -6.711 -46.103  0.00  0.00    +0.000 C 
ATOM     33  C5  UNL     1      27.300  -6.812 -47.310  0.00  0.00    +0.000 C 
ATOM     34  C6  UNL     1      26.623  -6.651 -48.518  0.00  0.00    +0.000 C 
ATOM     35  C7  UNL     1      25.248  -6.405 -48.522  0.00  0.00    +0.000 C 
ATOM     36  C8  UNL     1      24.528  -6.335 -47.322  0.00  0.00    +0.000 C 
BRANCH  36  37
ATOM     37  O2  UNL     1      23.140  -6.141 -47.418  0.00  0.00    +0.000 OA
BRANCH  37  38
ATOM     38  C9  UNL     1      22.159  -7.169 -47.568  0.00  0.00    +0.000 C 
ATOM     39  F1  UNL     1      21.251  -7.137 -46.523  0.00  0.00    +0.000 F 
ATOM     40  F2  UNL     1      22.798  -8.393 -47.559  0.00  0.00    +0.000 F 
ATOM     41  F3  UNL     1      21.499  -7.033 -48.773  0.00  0.00    +0.000 F 
ENDBRANCH  37  38
ENDBRANCH  36  37
ENDBRANCH  29  31
ENDBRANCH  27  29
ENDBRANCH  25  27
ENDBRANCH   3  25
TORSDOF 8
