REMARK  Name = resultss/4CJN/ligands/lig_441_t0.pdb
REMARK  9 active torsions:
REMARK  status: ('A' for Active; 'I' for Inactive)
REMARK    1  A    between atoms: N3_1  and  N2_25
REMARK    2  A    between atoms: C6_2  and  C7_5
REMARK    3  A    between atoms: C17_16  and  C18_19
REMARK    4  A    between atoms: N2_25  and  C5_27
REMARK    5  A    between atoms: C5_27  and  N1_29
REMARK    6  A    between atoms: N1_29  and  C4_33
REMARK    7  A    between atoms: C2_31  and  O1_38
REMARK    8  A    between atoms: C25_35  and  O3_39
REMARK    9  A    between atoms: C27_36  and  O4_41
REMARK                            x       y       z     vdW  Elec       q    Type
REMARK                         _______ _______ _______ _____ _____    ______ ____
ROOT
ATOM      1  N3  UNL     1      29.175 -10.491 -39.727  0.00  0.00    +0.000 N 
ATOM      2  C6  UNL     1      27.945 -10.405 -38.997  0.00  0.00    +0.000 C 
ATOM      3  O2  UNL     1      26.851 -10.633 -39.582  0.00  0.00    +0.000 OA
ATOM      4  H7  UNL     1      30.050 -10.094 -39.315  0.00  0.00    +0.000 HD
ENDROOT
BRANCH   2   5
ATOM      5  C7  UNL     1      27.941 -10.051 -37.567  0.00  0.00    +0.000 C 
ATOM      6  C8  UNL     1      29.151  -9.975 -36.845  0.00  0.00    +0.000 C 
ATOM      7  C9  UNL     1      29.070  -9.594 -35.512  0.00  0.00    +0.000 A 
ATOM      8  C10 UNL     1      27.869  -9.269 -34.914  0.00  0.00    +0.000 A 
ATOM      9  N4  UNL     1      28.039  -8.959 -33.608  0.00  0.00    +0.000 N 
ATOM     10  C11 UNL     1      29.369  -9.081 -33.393  0.00  0.00    +0.000 A 
ATOM     11  C12 UNL     1      30.051  -8.857 -32.200  0.00  0.00    +0.000 C 
ATOM     12  C13 UNL     1      31.448  -9.031 -32.196  0.00  0.00    +0.000 C 
ATOM     13  C14 UNL     1      32.125  -9.430 -33.370  0.00  0.00    +0.000 C 
ATOM     14  C15 UNL     1      31.415  -9.660 -34.562  0.00  0.00    +0.000 C 
ATOM     15  C16 UNL     1      30.035  -9.468 -34.538  0.00  0.00    +0.000 A 
ATOM     16  C17 UNL     1      26.677  -9.338 -35.645  0.00  0.00    +0.000 C 
ATOM     17  N5  UNL     1      26.756  -9.743 -36.950  0.00  0.00    +0.000 NA
ATOM     18  H9  UNL     1      27.310  -8.716 -32.901  0.00  0.00    +0.000 HD
BRANCH  16  19
ATOM     19  C18 UNL     1      25.367  -8.942 -35.084  0.00  0.00    +0.000 C 
ATOM     20  C19 UNL     1      24.454  -8.196 -35.850  0.00  0.00    +0.000 C 
ATOM     21  C20 UNL     1      23.197  -7.870 -35.328  0.00  0.00    +0.000 C 
ATOM     22  C21 UNL     1      22.840  -8.290 -34.046  0.00  0.00    +0.000 C 
ATOM     23  C22 UNL     1      23.735  -9.045 -33.284  0.00  0.00    +0.000 C 
ATOM     24  C23 UNL     1      24.990  -9.380 -33.804  0.00  0.00    +0.000 C 
ENDBRANCH  16  19
ENDBRANCH   2   5
BRANCH   1  25
ATOM     25  N2  UNL     1      29.223 -11.130 -40.976  0.00  0.00    +0.000 N 
ATOM     26  H6  UNL     1      28.831 -12.095 -41.077  0.00  0.00    +0.000 HD
BRANCH  25  27
ATOM     27  C5  UNL     1      29.776 -10.494 -42.137  0.00  0.00    +0.000 C 
ATOM     28  S1  UNL     1      30.941 -11.235 -43.026  0.00  0.00    +0.000 S 
BRANCH  27  29
ATOM     29  N1  UNL     1      29.465  -9.122 -42.399  0.00  0.00    +0.000 N 
ATOM     30  H5  UNL     1      30.124  -8.396 -42.030  0.00  0.00    +0.000 HD
BRANCH  29  33
ATOM     31  C2  UNL     1      25.852  -8.823 -43.352  0.00  0.00    +0.000 C 
ATOM     32  C3  UNL     1      27.038  -9.228 -42.712  0.00  0.00    +0.000 C 
ATOM     33  C4  UNL     1      28.278  -8.702 -43.096  0.00  0.00    +0.000 C 
ATOM     34  C24 UNL     1      28.332  -7.757 -44.133  0.00  0.00    +0.000 C 
ATOM     35  C25 UNL     1      27.153  -7.324 -44.771  0.00  0.00    +0.000 C 
ATOM     36  C27 UNL     1      25.914  -7.843 -44.364  0.00  0.00    +0.000 C 
BRANCH  31  38
ATOM     37  C1  UNL     1      23.754  -8.948 -41.982  0.00  0.00    +0.000 C 
ATOM     38  O1  UNL     1      24.609  -9.393 -43.031  0.00  0.00    +0.000 OA
ENDBRANCH  31  38
BRANCH  35  39
ATOM     39  O3  UNL     1      27.168  -6.366 -45.799  0.00  0.00    +0.000 OA
ATOM     40  C26 UNL     1      27.523  -6.633 -47.152  0.00  0.00    +0.000 C 
ENDBRANCH  35  39
BRANCH  36  41
ATOM     41  O4  UNL     1      24.757  -7.378 -45.001  0.00  0.00    +0.000 OA
ATOM     42  C28 UNL     1      24.013  -6.254 -44.537  0.00  0.00    +0.000 C 
ENDBRANCH  36  41
ENDBRANCH  29  33
ENDBRANCH  27  29
ENDBRANCH  25  27
ENDBRANCH   1  25
TORSDOF 9
