REMARK  Name = resultss/4CJN/ligands/lig_421_t0.pdb
REMARK  7 active torsions:
REMARK  status: ('A' for Active; 'I' for Inactive)
REMARK    1  A    between atoms: C1_2  and  C10_5
REMARK    2  A    between atoms: N1_3  and  N2_25
REMARK    3  A    between atoms: C20_16  and  C21_19
REMARK    4  A    between atoms: N2_25  and  C2_27
REMARK    5  A    between atoms: C2_27  and  N3_29
REMARK    6  A    between atoms: N3_29  and  C3_31
REMARK    7  A    between atoms: C6_34  and  C7_37
REMARK                            x       y       z     vdW  Elec       q    Type
REMARK                         _______ _______ _______ _____ _____    ______ ____
ROOT
ATOM      1  O1  UNL     1      31.132  -7.740 -37.350  0.00  0.00    +0.000 OA
ATOM      2  C1  UNL     1      30.809  -8.929 -37.619  0.00  0.00    +0.000 C 
ATOM      3  N1  UNL     1      30.603  -9.870 -36.554  0.00  0.00    +0.000 N 
ATOM      4  H1  UNL     1      30.292 -10.839 -36.788  0.00  0.00    +0.000 HD
ENDROOT
BRANCH   2   5
ATOM      5  C10 UNL     1      30.634  -9.341 -39.029  0.00  0.00    +0.000 C 
ATOM      6  C11 UNL     1      31.746  -9.715 -39.814  0.00  0.00    +0.000 C 
ATOM      7  C12 UNL     1      31.502 -10.056 -41.139  0.00  0.00    +0.000 A 
ATOM      8  C13 UNL     1      30.233 -10.052 -41.675  0.00  0.00    +0.000 A 
ATOM      9  N4  UNL     1      30.256 -10.344 -42.998  0.00  0.00    +0.000 N 
ATOM     10  C14 UNL     1      31.561 -10.547 -43.283  0.00  0.00    +0.000 A 
ATOM     11  C15 UNL     1      32.112 -10.869 -44.524  0.00  0.00    +0.000 C 
ATOM     12  C16 UNL     1      33.509 -11.026 -44.604  0.00  0.00    +0.000 C 
ATOM     13  C17 UNL     1      34.320 -10.855 -43.458  0.00  0.00    +0.000 C 
ATOM     14  C18 UNL     1      33.743 -10.523 -42.218  0.00  0.00    +0.000 C 
ATOM     15  C19 UNL     1      32.355 -10.382 -42.167  0.00  0.00    +0.000 A 
ATOM     16  C20 UNL     1      29.132  -9.705 -40.879  0.00  0.00    +0.000 C 
ATOM     17  N5  UNL     1      29.378  -9.347 -39.582  0.00  0.00    +0.000 NA
ATOM     18  H9  UNL     1      29.459 -10.369 -43.671  0.00  0.00    +0.000 HD
BRANCH  16  19
ATOM     19  C21 UNL     1      27.744  -9.696 -41.381  0.00  0.00    +0.000 C 
ATOM     20  C22 UNL     1      26.725 -10.398 -40.711  0.00  0.00    +0.000 C 
ATOM     21  C23 UNL     1      25.410 -10.356 -41.184  0.00  0.00    +0.000 C 
ATOM     22  C24 UNL     1      25.097  -9.602 -42.318  0.00  0.00    +0.000 C 
ATOM     23  C25 UNL     1      26.097  -8.885 -42.976  0.00  0.00    +0.000 C 
ATOM     24  C26 UNL     1      27.414  -8.924 -42.507  0.00  0.00    +0.000 C 
ENDBRANCH  16  19
ENDBRANCH   2   5
BRANCH   3  25
ATOM     25  N2  UNL     1      30.744  -9.491 -35.206  0.00  0.00    +0.000 N 
ATOM     26  H2  UNL     1      31.646  -9.669 -34.710  0.00  0.00    +0.000 HD
BRANCH  25  27
ATOM     27  C2  UNL     1      29.718  -8.758 -34.520  0.00  0.00    +0.000 C 
ATOM     28  S1  UNL     1      29.777  -8.655 -32.882  0.00  0.00    +0.000 S 
BRANCH  27  29
ATOM     29  N3  UNL     1      28.546  -8.322 -35.223  0.00  0.00    +0.000 N 
ATOM     30  H3  UNL     1      28.672  -7.950 -36.190  0.00  0.00    +0.000 HD
BRANCH  29  31
ATOM     31  C3  UNL     1      27.212  -8.406 -34.689  0.00  0.00    +0.000 C 
ATOM     32  C4  UNL     1      26.558  -7.235 -34.278  0.00  0.00    +0.000 C 
ATOM     33  C5  UNL     1      25.269  -7.293 -33.736  0.00  0.00    +0.000 C 
ATOM     34  C6  UNL     1      24.610  -8.529 -33.593  0.00  0.00    +0.000 C 
ATOM     35  C8  UNL     1      25.282  -9.704 -33.969  0.00  0.00    +0.000 C 
ATOM     36  C9  UNL     1      26.571  -9.644 -34.509  0.00  0.00    +0.000 C 
BRANCH  34  37
ATOM     37  C7  UNL     1      23.244  -8.620 -32.961  0.00  0.00    +0.000 C 
ATOM     38  F1  UNL     1      23.310  -9.451 -31.859  0.00  0.00    +0.000 F 
ATOM     39  F2  UNL     1      22.788  -7.375 -32.561  0.00  0.00    +0.000 F 
ATOM     40  F3  UNL     1      22.341  -9.149 -33.868  0.00  0.00    +0.000 F 
ENDBRANCH  34  37
ENDBRANCH  29  31
ENDBRANCH  27  29
ENDBRANCH  25  27
ENDBRANCH   3  25
TORSDOF 7
