REMARK  Name = resultss/4CJN/ligands/lig_345_t2.pdb
REMARK  11 active torsions:
REMARK  status: ('A' for Active; 'I' for Inactive)
REMARK    1  A    between atoms: C12_1  and  O2_27
REMARK    2  A    between atoms: C15_4  and  C16_7
REMARK    3  A    between atoms: C23_15  and  O3_17
REMARK    4  A    between atoms: N4_16  and  N5_19
REMARK    5  A    between atoms: N5_19  and  C24_21
REMARK    6  A    between atoms: O2_27  and  C11_28
REMARK    7  A    between atoms: C11_28  and  C10_31
REMARK    8  A    between atoms: N2_29  and  C8_34
REMARK    9  A    between atoms: C8_34  and  C7_36
REMARK   10  A    between atoms: N1_35  and  C6_39
REMARK   11  A    between atoms: C6_39  and  C5_44
REMARK                            x       y       z     vdW  Elec       q    Type
REMARK                         _______ _______ _______ _____ _____    ______ ____
ROOT
ATOM      1  C12 UNL     1      24.777  -7.094 -41.170  0.00  0.00    +0.000 C 
ATOM      2  C13 UNL     1      24.644  -8.093 -40.185  0.00  0.00    +0.000 C 
ATOM      3  C14 UNL     1      25.468  -8.086 -39.056  0.00  0.00    +0.000 C 
ATOM      4  C15 UNL     1      26.443  -7.089 -38.892  0.00  0.00    +0.000 C 
ATOM      5  C30 UNL     1      26.566  -6.089 -39.873  0.00  0.00    +0.000 C 
ATOM      6  C31 UNL     1      25.740  -6.096 -41.000  0.00  0.00    +0.000 C 
ENDROOT
BRANCH   4   7
ATOM      7  C16 UNL     1      27.354  -7.109 -37.684  0.00  0.00    +0.000 C 
ATOM      8  N3  UNL     1      26.586  -6.808 -36.476  0.00  0.00    +0.000 NA
ATOM      9  C17 UNL     1      26.211  -7.701 -35.605  0.00  0.00    +0.000 C 
ATOM     10  C18 UNL     1      25.406  -7.290 -34.536  0.00  0.00    +0.000 C 
ATOM     11  C19 UNL     1      24.945  -8.215 -33.603  0.00  0.00    +0.000 C 
ATOM     12  C20 UNL     1      25.287  -9.560 -33.726  0.00  0.00    +0.000 C 
ATOM     13  C21 UNL     1      26.102  -9.989 -34.776  0.00  0.00    +0.000 C 
ATOM     14  C22 UNL     1      26.590  -9.066 -35.731  0.00  0.00    +0.000 C 
ATOM     15  C23 UNL     1      27.440  -9.430 -36.723  0.00  0.00    +0.000 C 
ATOM     16  N4  UNL     1      28.015  -8.410 -37.562  0.00  0.00    +0.000 NA
BRANCH  15  17
ATOM     17  O3  UNL     1      27.796 -10.761 -36.974  0.00  0.00    +0.000 OA
ATOM     18  H21 UNL     1      27.325 -11.367 -37.627  0.00  0.00    +0.000 HD
ENDBRANCH  15  17
BRANCH  16  19
ATOM     19  N5  UNL     1      29.119  -8.697 -38.386  0.00  0.00    +0.000 N 
ATOM     20  H22 UNL     1      30.042  -8.895 -37.935  0.00  0.00    +0.000 HD
BRANCH  19  21
ATOM     21  C24 UNL     1      28.998  -8.869 -39.809  0.00  0.00    +0.000 C 
ATOM     22  C25 UNL     1      29.573  -7.950 -40.707  0.00  0.00    +0.000 C 
ATOM     23  C26 UNL     1      29.432  -8.131 -42.087  0.00  0.00    +0.000 C 
ATOM     24  C27 UNL     1      28.706  -9.218 -42.580  0.00  0.00    +0.000 C 
ATOM     25  C28 UNL     1      28.114 -10.122 -41.697  0.00  0.00    +0.000 C 
ATOM     26  C29 UNL     1      28.255  -9.947 -40.316  0.00  0.00    +0.000 C 
ENDBRANCH  19  21
ENDBRANCH  16  19
ENDBRANCH   4   7
BRANCH   1  27
ATOM     27  O2  UNL     1      23.988  -7.062 -42.332  0.00  0.00    +0.000 OA
BRANCH  27  28
ATOM     28  C11 UNL     1      22.569  -7.198 -42.374  0.00  0.00    +0.000 C 
BRANCH  28  31
ATOM     29  N2  UNL     1      20.812  -6.587 -45.494  0.00  0.00    +0.000 N 
ATOM     30  C9  UNL     1      20.794  -6.637 -44.150  0.00  0.00    +0.000 C 
ATOM     31  C10 UNL     1      22.064  -7.008 -43.769  0.00  0.00    +0.000 C 
ATOM     32  N6  UNL     1      22.812  -7.174 -44.879  0.00  0.00    +0.000 NA
ATOM     33  N7  UNL     1      22.022  -6.918 -45.913  0.00  0.00    +0.000 NA
BRANCH  29  34
ATOM     34  C8  UNL     1      19.683  -6.295 -46.373  0.00  0.00    +0.000 C 
BRANCH  34  36
ATOM     35  N1  UNL     1      17.457  -6.052 -45.169  0.00  0.00    +0.000 N 
ATOM     36  C7  UNL     1      18.428  -6.892 -45.812  0.00  0.00    +0.000 C 
ATOM     37  O1  UNL     1      18.233  -8.133 -45.906  0.00  0.00    +0.000 OA
ATOM     38  H8  UNL     1      17.619  -5.024 -45.140  0.00  0.00    +0.000 HD
BRANCH  35  39
ATOM     39  C6  UNL     1      16.206  -6.570 -44.618  0.00  0.00    +0.000 C 
BRANCH  39  44
ATOM     40  C1  UNL     1      16.409  -6.703 -38.802  0.00  0.00    +0.000 C 
ATOM     41  C2  UNL     1      16.364  -6.687 -40.301  0.00  0.00    +0.000 C 
ATOM     42  C3  UNL     1      15.361  -7.384 -40.993  0.00  0.00    +0.000 C 
ATOM     43  C4  UNL     1      15.308  -7.342 -42.390  0.00  0.00    +0.000 C 
ATOM     44  C5  UNL     1      16.252  -6.595 -43.113  0.00  0.00    +0.000 C 
ATOM     45  C32 UNL     1      17.243  -5.883 -42.417  0.00  0.00    +0.000 C 
ATOM     46  C33 UNL     1      17.294  -5.923 -41.021  0.00  0.00    +0.000 C 
ENDBRANCH  39  44
ENDBRANCH  35  39
ENDBRANCH  34  36
ENDBRANCH  29  34
ENDBRANCH  28  31
ENDBRANCH  27  28
ENDBRANCH   1  27
TORSDOF 11
