REMARK  Name = resultss/4CJN/ligands/lig_428_t0.pdb
REMARK  8 active torsions:
REMARK  status: ('A' for Active; 'I' for Inactive)
REMARK    1  A    between atoms: C9_1  and  C8_22
REMARK    2  A    between atoms: C19_12  and  C20_15
REMARK    3  A    between atoms: N3_21  and  N2_25
REMARK    4  A    between atoms: N2_25  and  C7_27
REMARK    5  A    between atoms: C7_27  and  N1_29
REMARK    6  A    between atoms: N1_29  and  C6_34
REMARK    7  A    between atoms: C3_31  and  O1_37
REMARK    8  A    between atoms: O1_37  and  C2_39
REMARK                            x       y       z     vdW  Elec       q    Type
REMARK                         _______ _______ _______ _____ _____    ______ ____
ROOT
ATOM      1  C9  UNL     1      28.216  -8.921 -37.295  0.00  0.00    +0.000 C 
ATOM      2  C10 UNL     1      27.458  -8.865 -36.106  0.00  0.00    +0.000 C 
ATOM      3  C11 UNL     1      26.095  -8.617 -36.231  0.00  0.00    +0.000 A 
ATOM      4  C12 UNL     1      25.493  -8.440 -37.459  0.00  0.00    +0.000 A 
ATOM      5  N4  UNL     1      24.177  -8.148 -37.323  0.00  0.00    +0.000 N 
ATOM      6  C13 UNL     1      23.956  -8.160 -35.991  0.00  0.00    +0.000 A 
ATOM      7  C14 UNL     1      22.754  -7.899 -35.335  0.00  0.00    +0.000 C 
ATOM      8  C15 UNL     1      22.747  -7.940 -33.928  0.00  0.00    +0.000 C 
ATOM      9  C16 UNL     1      23.930  -8.232 -33.213  0.00  0.00    +0.000 C 
ATOM     10  C17 UNL     1      25.134  -8.487 -33.896  0.00  0.00    +0.000 C 
ATOM     11  C18 UNL     1      25.108  -8.445 -35.289  0.00  0.00    +0.000 A 
ATOM     12  C19 UNL     1      26.254  -8.514 -38.634  0.00  0.00    +0.000 C 
ATOM     13  N5  UNL     1      27.596  -8.742 -38.506  0.00  0.00    +0.000 NA
ATOM     14  H12 UNL     1      23.484  -7.921 -38.071  0.00  0.00    +0.000 HD
ENDROOT
BRANCH  12  15
ATOM     15  C20 UNL     1      25.669  -8.349 -39.981  0.00  0.00    +0.000 C 
ATOM     16  C21 UNL     1      25.167  -9.453 -40.693  0.00  0.00    +0.000 C 
ATOM     17  C22 UNL     1      24.633  -9.282 -41.974  0.00  0.00    +0.000 C 
ATOM     18  C23 UNL     1      24.609  -8.014 -42.560  0.00  0.00    +0.000 C 
ATOM     19  C24 UNL     1      25.126  -6.915 -41.869  0.00  0.00    +0.000 C 
ATOM     20  C25 UNL     1      25.661  -7.082 -40.587  0.00  0.00    +0.000 C 
ENDBRANCH  12  15
BRANCH   1  22
ATOM     21  N3  UNL     1      30.261 -10.223 -38.022  0.00  0.00    +0.000 N 
ATOM     22  C8  UNL     1      29.674  -9.162 -37.251  0.00  0.00    +0.000 C 
ATOM     23  O2  UNL     1      30.406  -8.445 -36.516  0.00  0.00    +0.000 OA
ATOM     24  H10 UNL     1      29.647 -10.991 -38.369  0.00  0.00    +0.000 HD
BRANCH  21  25
ATOM     25  N2  UNL     1      31.654 -10.398 -38.115  0.00  0.00    +0.000 N 
ATOM     26  H9  UNL     1      32.105 -11.119 -37.507  0.00  0.00    +0.000 HD
BRANCH  25  27
ATOM     27  C7  UNL     1      32.462  -9.720 -39.088  0.00  0.00    +0.000 C 
ATOM     28  S1  UNL     1      33.303  -8.374 -38.656  0.00  0.00    +0.000 S 
BRANCH  27  29
ATOM     29  N1  UNL     1      32.286 -10.037 -40.479  0.00  0.00    +0.000 N 
ATOM     30  H8  UNL     1      33.025 -10.608 -40.946  0.00  0.00    +0.000 HD
BRANCH  29  34
ATOM     31  C3  UNL     1      29.011  -8.754 -42.879  0.00  0.00    +0.000 C 
ATOM     32  C4  UNL     1      29.386  -8.019 -41.748  0.00  0.00    +0.000 C 
ATOM     33  C5  UNL     1      30.454  -8.435 -40.949  0.00  0.00    +0.000 C 
ATOM     34  C6  UNL     1      31.165  -9.604 -41.270  0.00  0.00    +0.000 C 
ATOM     35  C26 UNL     1      30.814 -10.324 -42.419  0.00  0.00    +0.000 C 
ATOM     36  C27 UNL     1      29.740  -9.911 -43.216  0.00  0.00    +0.000 C 
BRANCH  31  37
ATOM     37  O1  UNL     1      27.923  -8.292 -43.637  0.00  0.00    +0.000 OA
BRANCH  37  39
ATOM     38  C1  UNL     1      28.014  -7.346 -45.875  0.00  0.00    +0.000 C 
ATOM     39  C2  UNL     1      27.884  -7.073 -44.380  0.00  0.00    +0.000 C 
ENDBRANCH  37  39
ENDBRANCH  31  37
ENDBRANCH  29  34
ENDBRANCH  27  29
ENDBRANCH  25  27
ENDBRANCH  21  25
ENDBRANCH   1  22
TORSDOF 8
