REMARK  Name = resultss/4CJN/ligands/lig_98_t0.pdb
REMARK  10 active torsions:
REMARK  status: ('A' for Active; 'I' for Inactive)
REMARK    1  A    between atoms: C6_6  and  C8_30
REMARK    2  A    between atoms: C15_8  and  O3_40
REMARK    3  A    between atoms: C26_13  and  C27_14
REMARK    4  A    between atoms: C28_15  and  C29_16
REMARK    5  A    between atoms: C32_19  and  C33_23
REMARK    6  A    between atoms: C8_30  and  O1_31
REMARK    7  A    between atoms: O1_31  and  C9_32
REMARK    8  A    between atoms: C9_32  and  C10_34
REMARK    9  A    between atoms: O3_40  and  C16_41
REMARK   10  A    between atoms: C16_41  and  C17_43
REMARK                            x       y       z     vdW  Elec       q    Type
REMARK                         _______ _______ _______ _____ _____    ______ ____
ROOT
ATOM      1  C1  UNL     1      25.293  -9.840 -42.418  0.00  0.00    +0.000 C 
ATOM      2  C2  UNL     1      25.740  -9.389 -41.231  0.00  0.00    +0.000 C 
ATOM      3  C3  UNL     1      26.768 -10.250 -40.501  0.00  0.00    +0.000 C 
ATOM      4  C4  UNL     1      27.452  -9.630 -39.256  0.00  0.00    +0.000 C 
ATOM      5  C5  UNL     1      27.330  -8.087 -39.210  0.00  0.00    +0.000 C 
ATOM      6  C6  UNL     1      28.218  -7.272 -38.139  0.00  0.00    +0.000 C 
ATOM      7  C7  UNL     1      28.906  -6.057 -38.844  0.00  0.00    +0.000 C 
ATOM      8  C15 UNL     1      27.323  -6.667 -37.006  0.00  0.00    +0.000 C 
ATOM      9  C22 UNL     1      26.079  -5.883 -37.508  0.00  0.00    +0.000 C 
ATOM     10  C23 UNL     1      25.596  -6.238 -38.925  0.00  0.00    +0.000 C 
ATOM     11  C24 UNL     1      25.792  -7.728 -39.276  0.00  0.00    +0.000 C 
ATOM     12  C25 UNL     1      24.887  -8.585 -38.320  0.00  0.00    +0.000 C 
ATOM     13  C26 UNL     1      25.334  -7.992 -40.751  0.00  0.00    +0.000 C 
ENDROOT
BRANCH  13  14
ATOM     14  C27 UNL     1      23.842  -7.766 -40.935  0.00  0.00    +0.000 C 
ATOM     15  C28 UNL     1      23.375  -6.812 -41.748  0.00  0.00    +0.000 C 
BRANCH  15  16
ATOM     16  C29 UNL     1      21.937  -6.548 -41.955  0.00  0.00    +0.000 C 
ATOM     17  C30 UNL     1      21.335  -6.630 -43.138  0.00  0.00    +0.000 C 
ATOM     18  C31 UNL     1      19.921  -6.275 -42.951  0.00  0.00    +0.000 C 
ATOM     19  C32 UNL     1      18.958  -6.223 -43.880  0.00  0.00    +0.000 C 
ATOM     20  O5  UNL     1      19.703  -5.954 -41.619  0.00  0.00    +0.000 OA
ATOM     21  C39 UNL     1      20.924  -6.116 -40.987  0.00  0.00    +0.000 C 
ATOM     22  O6  UNL     1      21.108  -5.883 -39.764  0.00  0.00    +0.000 OA
BRANCH  19  23
ATOM     23  C33 UNL     1      19.150  -6.598 -45.296  0.00  0.00    +0.000 C 
ATOM     24  C34 UNL     1      18.172  -7.373 -45.938  0.00  0.00    +0.000 C 
ATOM     25  C35 UNL     1      18.341  -7.766 -47.269  0.00  0.00    +0.000 C 
ATOM     26  C36 UNL     1      19.497  -7.404 -47.965  0.00  0.00    +0.000 C 
ATOM     27  C37 UNL     1      20.493  -6.659 -47.325  0.00  0.00    +0.000 C 
ATOM     28 BR1  UNL     1      22.088  -6.190 -48.266  0.00  0.00    +0.000 Br
ATOM     29  C38 UNL     1      20.327  -6.267 -45.993  0.00  0.00    +0.000 C 
ENDBRANCH  19  23
ENDBRANCH  15  16
ENDBRANCH  13  14
BRANCH   6  30
ATOM     30  C8  UNL     1      29.362  -8.131 -37.450  0.00  0.00    +0.000 C 
BRANCH  30  31
ATOM     31  O1  UNL     1      30.084  -9.000 -38.334  0.00  0.00    +0.000 OA
BRANCH  31  32
ATOM     32  C9  UNL     1      30.862  -8.608 -39.433  0.00  0.00    +0.000 C 
ATOM     33  O2  UNL     1      31.864  -7.864 -39.277  0.00  0.00    +0.000 OA
BRANCH  32  34
ATOM     34  C10 UNL     1      30.514  -9.103 -40.782  0.00  0.00    +0.000 C 
ATOM     35  C11 UNL     1      29.790  -8.296 -41.674  0.00  0.00    +0.000 C 
ATOM     36  C12 UNL     1      29.468  -8.773 -42.947  0.00  0.00    +0.000 C 
ATOM     37  C13 UNL     1      29.873 -10.054 -43.321  0.00  0.00    +0.000 C 
ATOM     38  N1  UNL     1      30.574 -10.827 -42.450  0.00  0.00    +0.000 NA
ATOM     39  C14 UNL     1      30.898 -10.388 -41.205  0.00  0.00    +0.000 C 
ENDBRANCH  32  34
ENDBRANCH  31  32
ENDBRANCH  30  31
ENDBRANCH   6  30
BRANCH   8  40
ATOM     40  O3  UNL     1      26.946  -7.693 -36.086  0.00  0.00    +0.000 OA
BRANCH  40  41
ATOM     41  C16 UNL     1      26.503  -7.458 -34.780  0.00  0.00    +0.000 C 
ATOM     42  O4  UNL     1      27.237  -6.836 -33.963  0.00  0.00    +0.000 OA
BRANCH  41  43
ATOM     43  C17 UNL     1      25.171  -7.942 -34.365  0.00  0.00    +0.000 C 
ATOM     44  C18 UNL     1      24.017  -7.547 -35.063  0.00  0.00    +0.000 C 
ATOM     45  C19 UNL     1      22.764  -8.013 -34.666  0.00  0.00    +0.000 C 
ATOM     46  C20 UNL     1      22.669  -8.877 -33.575  0.00  0.00    +0.000 C 
ATOM     47  N2  UNL     1      23.791  -9.255 -32.907  0.00  0.00    +0.000 NA
ATOM     48  C21 UNL     1      25.024  -8.813 -33.272  0.00  0.00    +0.000 C 
ENDBRANCH  41  43
ENDBRANCH  40  41
ENDBRANCH   8  40
TORSDOF 10
