REMARK  Name = resultss/4CJN/ligands/lig_258_t2.pdb
REMARK  3 active torsions:
REMARK  status: ('A' for Active; 'I' for Inactive)
REMARK    1  A    between atoms: C9_10  and  C10_25
REMARK    2  A    between atoms: C16_11  and  O3_33
REMARK    3  A    between atoms: C13_28  and  O2_31
REMARK                            x       y       z     vdW  Elec       q    Type
REMARK                         _______ _______ _______ _____ _____    ______ ____
ROOT
ATOM      1  C1  UNL     1      28.928  -9.441 -34.016  0.00  0.00    +0.000 C 
ATOM      2  C2  UNL     1      28.672  -9.752 -35.493  0.00  0.00    +0.000 C 
ATOM      3  C3  UNL     1      29.985  -9.624 -36.312  0.00  0.00    +0.000 C 
ATOM      4  C4  UNL     1      29.711  -9.641 -37.792  0.00  0.00    +0.000 C 
ATOM      5  O1  UNL     1      30.552 -10.127 -38.592  0.00  0.00    +0.000 OA
ATOM      6  C5  UNL     1      28.467  -9.009 -38.257  0.00  0.00    +0.000 A 
ATOM      7  C6  UNL     1      27.477  -8.616 -37.350  0.00  0.00    +0.000 A 
ATOM      8  C7  UNL     1      27.557  -8.873 -36.036  0.00  0.00    +0.000 C 
ATOM      9  C8  UNL     1      26.466  -7.970 -38.069  0.00  0.00    +0.000 A 
ATOM     10  C9  UNL     1      25.245  -7.360 -37.737  0.00  0.00    +0.000 A 
ATOM     11  C16 UNL     1      24.483  -6.820 -38.817  0.00  0.00    +0.000 A 
ATOM     12  O4  UNL     1      24.937  -6.900 -40.079  0.00  0.00    +0.000 OA
ATOM     13  C17 UNL     1      26.100  -7.475 -40.395  0.00  0.00    +0.000 A 
ATOM     14  C18 UNL     1      26.854  -8.012 -39.372  0.00  0.00    +0.000 A 
ATOM     15  C19 UNL     1      28.056  -8.627 -39.534  0.00  0.00    +0.000 A 
ATOM     16  C20 UNL     1      28.618  -8.737 -40.813  0.00  0.00    +0.000 A 
ATOM     17  O5  UNL     1      29.736  -9.292 -40.980  0.00  0.00    +0.000 OA
ATOM     18  C21 UNL     1      27.889  -8.206 -41.919  0.00  0.00    +0.000 A 
ATOM     19  C22 UNL     1      28.405  -8.297 -43.225  0.00  0.00    +0.000 C 
ATOM     20  C23 UNL     1      27.694  -7.779 -44.307  0.00  0.00    +0.000 C 
ATOM     21  C24 UNL     1      26.460  -7.160 -44.110  0.00  0.00    +0.000 C 
ATOM     22  C25 UNL     1      25.914  -7.051 -42.827  0.00  0.00    +0.000 C 
ATOM     23  O6  UNL     1      24.796  -6.486 -42.689  0.00  0.00    +0.000 OA
ATOM     24  C26 UNL     1      26.614  -7.568 -41.713  0.00  0.00    +0.000 A 
ENDROOT
BRANCH  10  25
ATOM     25  C10 UNL     1      24.776  -7.257 -36.346  0.00  0.00    +0.000 C 
ATOM     26  C11 UNL     1      23.892  -8.216 -35.831  0.00  0.00    +0.000 C 
ATOM     27  C12 UNL     1      23.437  -8.113 -34.512  0.00  0.00    +0.000 C 
ATOM     28  C13 UNL     1      23.867  -7.058 -33.700  0.00  0.00    +0.000 C 
ATOM     29  C14 UNL     1      24.756  -6.102 -34.213  0.00  0.00    +0.000 C 
ATOM     30  C15 UNL     1      25.211  -6.203 -35.531  0.00  0.00    +0.000 C 
BRANCH  28  31
ATOM     31  O2  UNL     1      23.405  -6.966 -32.390  0.00  0.00    +0.000 OA
ATOM     32  H10 UNL     1      23.523  -6.120 -31.845  0.00  0.00    +0.000 HD
ENDBRANCH  28  31
ENDBRANCH  10  25
BRANCH  11  33
ATOM     33  O3  UNL     1      23.258  -6.191 -38.596  0.00  0.00    +0.000 OA
ATOM     34  H13 UNL     1      22.684  -6.379 -37.783  0.00  0.00    +0.000 HD
ENDBRANCH  11  33
TORSDOF 3
