REMARK  Name = resultss/4CJN/ligands/lig_355_t1.pdb
REMARK  10 active torsions:
REMARK  status: ('A' for Active; 'I' for Inactive)
REMARK    1  A    between atoms: N3_1  and  C10_6
REMARK    2  A    between atoms: C12_3  and  C13_24
REMARK    3  A    between atoms: C10_6  and  C9_8
REMARK    4  A    between atoms: N2_7  and  C8_12
REMARK    5  A    between atoms: C9_8  and  O2_22
REMARK    6  A    between atoms: C6_9  and  C5_17
REMARK    7  A    between atoms: C2_14  and  O1_21
REMARK    8  A    between atoms: C13_24  and  O3_25
REMARK    9  A    between atoms: O3_25  and  C14_26
REMARK   10  A    between atoms: C17_29  and  C18_32
REMARK                            x       y       z     vdW  Elec       q    Type
REMARK                         _______ _______ _______ _____ _____    ______ ____
ROOT
ATOM      1  N3  UNL     1      30.207  -8.912 -33.529  0.00  0.00    +0.000 N 
ATOM      2  C11 UNL     1      28.880  -9.095 -33.638  0.00  0.00    +0.000 C 
ATOM      3  C12 UNL     1      28.301  -8.166 -32.803  0.00  0.00    +0.000 C 
ATOM      4  N6  UNL     1      29.280  -7.440 -32.225  0.00  0.00    +0.000 NA
ATOM      5  N7  UNL     1      30.428  -7.914 -32.689  0.00  0.00    +0.000 NA
ENDROOT
BRANCH   1   6
ATOM      6  C10 UNL     1      31.249  -9.630 -34.254  0.00  0.00    +0.000 C 
BRANCH   6   8
ATOM      7  N2  UNL     1      30.655  -9.668 -36.593  0.00  0.00    +0.000 NA
ATOM      8  C9  UNL     1      31.359  -9.106 -35.651  0.00  0.00    +0.000 C 
BRANCH   7  12
ATOM      9  C6  UNL     1      29.815  -8.597 -40.213  0.00  0.00    +0.000 C 
ATOM     10  N1  UNL     1      30.974  -9.298 -40.224  0.00  0.00    +0.000 NA
ATOM     11  C7  UNL     1      31.367  -9.673 -38.977  0.00  0.00    +0.000 C 
ATOM     12  C8  UNL     1      30.534  -9.243 -37.955  0.00  0.00    +0.000 C 
ATOM     13  S1  UNL     1      29.225  -8.431 -38.639  0.00  0.00    +0.000 S 
BRANCH   9  17
ATOM     14  C2  UNL     1      27.921  -7.084 -43.770  0.00  0.00    +0.000 C 
ATOM     15  C3  UNL     1      28.583  -8.316 -43.791  0.00  0.00    +0.000 C 
ATOM     16  C4  UNL     1      29.201  -8.812 -42.640  0.00  0.00    +0.000 C 
ATOM     17  C5  UNL     1      29.163  -8.082 -41.439  0.00  0.00    +0.000 C 
ATOM     18  C27 UNL     1      28.492  -6.846 -41.417  0.00  0.00    +0.000 C 
ATOM     19  C28 UNL     1      27.878  -6.349 -42.570  0.00  0.00    +0.000 C 
BRANCH  14  21
ATOM     20  C1  UNL     1      27.593  -7.158 -46.248  0.00  0.00    +0.000 C 
ATOM     21  O1  UNL     1      27.325  -6.625 -44.954  0.00  0.00    +0.000 OA
ENDBRANCH  14  21
ENDBRANCH   9  17
ENDBRANCH   7  12
BRANCH   8  22
ATOM     22  O2  UNL     1      32.247  -8.057 -35.904  0.00  0.00    +0.000 OA
ATOM     23  H7  UNL     1      33.092  -8.165 -36.448  0.00  0.00    +0.000 HD
ENDBRANCH   8  22
ENDBRANCH   6   8
ENDBRANCH   1   6
BRANCH   3  24
ATOM     24  C13 UNL     1      26.839  -7.971 -32.549  0.00  0.00    +0.000 C 
BRANCH  24  25
ATOM     25  O3  UNL     1      26.310  -6.977 -33.426  0.00  0.00    +0.000 OA
BRANCH  25  26
ATOM     26  C14 UNL     1      26.080  -7.147 -34.802  0.00  0.00    +0.000 C 
ATOM     27  C15 UNL     1      26.435  -6.178 -35.758  0.00  0.00    +0.000 C 
ATOM     28  C16 UNL     1      26.202  -6.405 -37.117  0.00  0.00    +0.000 C 
ATOM     29  C17 UNL     1      25.611  -7.606 -37.550  0.00  0.00    +0.000 C 
ATOM     30  C25 UNL     1      25.243  -8.563 -36.589  0.00  0.00    +0.000 C 
ATOM     31  C26 UNL     1      25.475  -8.332 -35.230  0.00  0.00    +0.000 C 
BRANCH  29  32
ATOM     32  C18 UNL     1      25.370  -7.874 -38.991  0.00  0.00    +0.000 A 
ATOM     33  N4  UNL     1      25.766  -9.028 -39.598  0.00  0.00    +0.000 NA
ATOM     34  C19 UNL     1      25.375  -8.851 -40.873  0.00  0.00    +0.000 A 
ATOM     35  C20 UNL     1      25.532  -9.728 -41.943  0.00  0.00    +0.000 C 
ATOM     36  C21 UNL     1      25.049  -9.318 -43.201  0.00  0.00    +0.000 C 
ATOM     37  C22 UNL     1      24.426  -8.058 -43.351  0.00  0.00    +0.000 C 
ATOM     38  C23 UNL     1      24.281  -7.199 -42.246  0.00  0.00    +0.000 C 
ATOM     39  C24 UNL     1      24.773  -7.640 -41.019  0.00  0.00    +0.000 A 
ATOM     40  N5  UNL     1      24.758  -7.005 -39.841  0.00  0.00    +0.000 N 
ATOM     41  H19 UNL     1      24.376  -6.054 -39.651  0.00  0.00    +0.000 HD
ENDBRANCH  29  32
ENDBRANCH  25  26
ENDBRANCH  24  25
ENDBRANCH   3  24
TORSDOF 10
