REMARK  Name = resultss/4CJN/ligands/lig_440_t0.pdb
REMARK  8 active torsions:
REMARK  status: ('A' for Active; 'I' for Inactive)
REMARK    1  A    between atoms: N3_1  and  N2_25
REMARK    2  A    between atoms: C6_2  and  C7_5
REMARK    3  A    between atoms: C17_16  and  C18_19
REMARK    4  A    between atoms: N2_25  and  C5_27
REMARK    5  A    between atoms: C5_27  and  N1_29
REMARK    6  A    between atoms: N1_29  and  C4_33
REMARK    7  A    between atoms: C2_31  and  O1_38
REMARK    8  A    between atoms: C25_35  and  O3_39
REMARK                            x       y       z     vdW  Elec       q    Type
REMARK                         _______ _______ _______ _____ _____    ______ ____
ROOT
ATOM      1  N3  UNL     1      30.314 -10.199 -38.252  0.00  0.00    +0.000 N 
ATOM      2  C6  UNL     1      29.604  -9.716 -37.100  0.00  0.00    +0.000 C 
ATOM      3  O2  UNL     1      30.207  -9.598 -35.998  0.00  0.00    +0.000 OA
ATOM      4  H7  UNL     1      29.783 -10.383 -39.131  0.00  0.00    +0.000 HD
ENDROOT
BRANCH   2   5
ATOM      5  C7  UNL     1      28.171  -9.359 -37.192  0.00  0.00    +0.000 C 
ATOM      6  C8  UNL     1      27.397  -9.176 -36.027  0.00  0.00    +0.000 C 
ATOM      7  C9  UNL     1      26.065  -8.817 -36.196  0.00  0.00    +0.000 A 
ATOM      8  C10 UNL     1      25.505  -8.649 -37.445  0.00  0.00    +0.000 A 
ATOM      9  N4  UNL     1      24.219  -8.233 -37.354  0.00  0.00    +0.000 N 
ATOM     10  C11 UNL     1      23.970  -8.163 -36.028  0.00  0.00    +0.000 A 
ATOM     11  C12 UNL     1      22.781  -7.775 -35.412  0.00  0.00    +0.000 C 
ATOM     12  C13 UNL     1      22.740  -7.761 -34.006  0.00  0.00    +0.000 C 
ATOM     13  C14 UNL     1      23.878  -8.123 -33.251  0.00  0.00    +0.000 C 
ATOM     14  C15 UNL     1      25.070  -8.504 -33.894  0.00  0.00    +0.000 C 
ATOM     15  C16 UNL     1      25.079  -8.516 -35.286  0.00  0.00    +0.000 A 
ATOM     16  C17 UNL     1      26.278  -8.853 -38.596  0.00  0.00    +0.000 C 
ATOM     17  N5  UNL     1      27.592  -9.192 -38.425  0.00  0.00    +0.000 NA
ATOM     18  H9  UNL     1      23.562  -7.982 -38.126  0.00  0.00    +0.000 HD
BRANCH  16  19
ATOM     19  C18 UNL     1      25.739  -8.714 -39.965  0.00  0.00    +0.000 C 
ATOM     20  C19 UNL     1      25.493  -9.844 -40.766  0.00  0.00    +0.000 C 
ATOM     21  C20 UNL     1      25.012  -9.693 -42.071  0.00  0.00    +0.000 C 
ATOM     22  C21 UNL     1      24.784  -8.419 -42.591  0.00  0.00    +0.000 C 
ATOM     23  C22 UNL     1      25.047  -7.289 -41.812  0.00  0.00    +0.000 C 
ATOM     24  C23 UNL     1      25.530  -7.434 -40.507  0.00  0.00    +0.000 C 
ENDBRANCH  16  19
ENDBRANCH   2   5
BRANCH   1  25
ATOM     25  N2  UNL     1      31.708 -10.395 -38.215  0.00  0.00    +0.000 N 
ATOM     26  H6  UNL     1      32.102 -11.184 -37.654  0.00  0.00    +0.000 HD
BRANCH  25  27
ATOM     27  C5  UNL     1      32.635  -9.542 -38.903  0.00  0.00    +0.000 C 
ATOM     28  S1  UNL     1      33.053  -8.073 -38.285  0.00  0.00    +0.000 S 
BRANCH  27  29
ATOM     29  N1  UNL     1      33.281 -10.034 -40.088  0.00  0.00    +0.000 N 
ATOM     30  H5  UNL     1      34.303 -10.245 -40.029  0.00  0.00    +0.000 HD
BRANCH  29  33
ATOM     31  C2  UNL     1      32.717 -11.011 -43.655  0.00  0.00    +0.000 C 
ATOM     32  C3  UNL     1      33.340 -10.770 -42.426  0.00  0.00    +0.000 C 
ATOM     33  C4  UNL     1      32.621 -10.235 -41.349  0.00  0.00    +0.000 C 
ATOM     34  C24 UNL     1      31.250  -9.972 -41.502  0.00  0.00    +0.000 C 
ATOM     35  C25 UNL     1      30.603 -10.217 -42.719  0.00  0.00    +0.000 C 
ATOM     36  C27 UNL     1      31.344 -10.730 -43.800  0.00  0.00    +0.000 C 
BRANCH  31  38
ATOM     37  C1  UNL     1      33.623 -10.920 -45.983  0.00  0.00    +0.000 C 
ATOM     38  O1  UNL     1      33.494 -11.528 -44.702  0.00  0.00    +0.000 OA
ENDBRANCH  31  38
BRANCH  35  39
ATOM     39  O3  UNL     1      29.229  -9.947 -42.809  0.00  0.00    +0.000 OA
ATOM     40  C26 UNL     1      28.630  -8.692 -42.497  0.00  0.00    +0.000 C 
ENDBRANCH  35  39
ENDBRANCH  29  33
ENDBRANCH  27  29
ENDBRANCH  25  27
ENDBRANCH   1  25
TORSDOF 8
