REMARK  Name = resultss/4CJN/ligands/lig_331_t1.pdb
REMARK  10 active torsions:
REMARK  status: ('A' for Active; 'I' for Inactive)
REMARK    1  A    between atoms: C5_1  and  C4_13
REMARK    2  A    between atoms: C8_5  and  C9_24
REMARK    3  A    between atoms: C18_7  and  O4_22
REMARK    4  A    between atoms: C21_10  and  C22_34
REMARK    5  A    between atoms: C2_11  and  O1_19
REMARK    6  A    between atoms: C24_15  and  O7_20
REMARK    7  A    between atoms: C9_24  and  C10_25
REMARK    8  A    between atoms: C10_25  and  C11_26
REMARK    9  A    between atoms: C14_29  and  O3_32
REMARK   10  A    between atoms: C22_34  and  O6_35
REMARK                            x       y       z     vdW  Elec       q    Type
REMARK                         _______ _______ _______ _____ _____    ______ ____
ROOT
ATOM      1  C5  UNL     1      26.330  -8.445 -38.974  0.00  0.00    +0.000 C 
ATOM      2  O2  UNL     1      27.658  -8.947 -39.163  0.00  0.00    +0.000 OA
ATOM      3  C6  UNL     1      28.284  -8.897 -40.412  0.00  0.00    +0.000 C 
ATOM      4  C7  UNL     1      29.456  -9.618 -40.647  0.00  0.00    +0.000 C 
ATOM      5  C8  UNL     1      30.053  -9.594 -41.916  0.00  0.00    +0.000 C 
ATOM      6  C17 UNL     1      29.478  -8.820 -42.939  0.00  0.00    +0.000 C 
ATOM      7  C18 UNL     1      28.306  -8.076 -42.701  0.00  0.00    +0.000 C 
ATOM      8  C20 UNL     1      27.723  -8.112 -41.427  0.00  0.00    +0.000 C 
ATOM      9  O5  UNL     1      26.575  -7.362 -41.149  0.00  0.00    +0.000 OA
ATOM     10  C21 UNL     1      26.129  -7.151 -39.807  0.00  0.00    +0.000 C 
ENDROOT
BRANCH   1  13
ATOM     11  C2  UNL     1      26.904  -7.602 -35.209  0.00  0.00    +0.000 C 
ATOM     12  C3  UNL     1      27.075  -7.807 -36.697  0.00  0.00    +0.000 C 
ATOM     13  C4  UNL     1      26.078  -8.216 -37.500  0.00  0.00    +0.000 C 
ATOM     14  C23 UNL     1      24.704  -8.374 -36.973  0.00  0.00    +0.000 C 
ATOM     15  C24 UNL     1      24.396  -8.060 -35.704  0.00  0.00    +0.000 C 
ATOM     16  C26 UNL     1      25.456  -7.580 -34.800  0.00  0.00    +0.000 C 
ATOM     17  O8  UNL     1      25.150  -7.183 -33.643  0.00  0.00    +0.000 OA
BRANCH  11  19
ATOM     18  C1  UNL     1      28.545  -8.162 -33.659  0.00  0.00    +0.000 C 
ATOM     19  O1  UNL     1      27.541  -8.660 -34.516  0.00  0.00    +0.000 OA
ENDBRANCH  11  19
BRANCH  15  20
ATOM     20  O7  UNL     1      23.089  -8.162 -35.197  0.00  0.00    +0.000 OA
ATOM     21  C25 UNL     1      22.117  -7.120 -35.235  0.00  0.00    +0.000 C 
ENDBRANCH  15  20
ENDBRANCH   1  13
BRANCH   7  22
ATOM     22  O4  UNL     1      27.700  -7.288 -43.692  0.00  0.00    +0.000 OA
ATOM     23  C19 UNL     1      27.936  -7.432 -45.089  0.00  0.00    +0.000 C 
ENDBRANCH   7  22
BRANCH   5  24
ATOM     24  C9  UNL     1      31.332 -10.348 -42.164  0.00  0.00    +0.000 C 
BRANCH  24  25
ATOM     25  C10 UNL     1      31.035 -11.737 -42.736  0.00  0.00    +0.000 C 
BRANCH  25  26
ATOM     26  C11 UNL     1      31.896 -12.008 -43.940  0.00  0.00    +0.000 C 
ATOM     27  C12 UNL     1      32.601 -10.962 -44.557  0.00  0.00    +0.000 C 
ATOM     28  C13 UNL     1      33.426 -11.219 -45.658  0.00  0.00    +0.000 C 
ATOM     29  C14 UNL     1      33.560 -12.526 -46.144  0.00  0.00    +0.000 C 
ATOM     30  C15 UNL     1      32.869 -13.573 -45.525  0.00  0.00    +0.000 C 
ATOM     31  C16 UNL     1      32.045 -13.317 -44.425  0.00  0.00    +0.000 C 
BRANCH  29  32
ATOM     32  O3  UNL     1      34.378 -12.795 -47.240  0.00  0.00    +0.000 OA
ATOM     33  H14 UNL     1      34.055 -13.362 -48.015  0.00  0.00    +0.000 HD
ENDBRANCH  29  32
ENDBRANCH  25  26
ENDBRANCH  24  25
ENDBRANCH   5  24
BRANCH  10  34
ATOM     34  C22 UNL     1      24.670  -6.671 -39.821  0.00  0.00    +0.000 C 
BRANCH  34  35
ATOM     35  O6  UNL     1      23.827  -7.626 -40.409  0.00  0.00    +0.000 OA
ATOM     36  H24 UNL     1      23.070  -7.129 -40.814  0.00  0.00    +0.000 HD
ENDBRANCH  34  35
ENDBRANCH  10  34
TORSDOF 10
