REMARK  Name = resultss/4CJN/ligands/lig_98_t0.pdb
REMARK  10 active torsions:
REMARK  status: ('A' for Active; 'I' for Inactive)
REMARK    1  A    between atoms: C6_6  and  C8_30
REMARK    2  A    between atoms: C15_8  and  O3_40
REMARK    3  A    between atoms: C26_13  and  C27_14
REMARK    4  A    between atoms: C28_15  and  C29_16
REMARK    5  A    between atoms: C32_19  and  C33_23
REMARK    6  A    between atoms: C8_30  and  O1_31
REMARK    7  A    between atoms: O1_31  and  C9_32
REMARK    8  A    between atoms: C9_32  and  C10_34
REMARK    9  A    between atoms: O3_40  and  C16_41
REMARK   10  A    between atoms: C16_41  and  C17_43
REMARK                            x       y       z     vdW  Elec       q    Type
REMARK                         _______ _______ _______ _____ _____    ______ ____
ROOT
ATOM      1  C1  UNL     1      26.876 -10.533 -40.929  0.00  0.00    +0.000 C 
ATOM      2  C2  UNL     1      27.218 -10.099 -39.702  0.00  0.00    +0.000 C 
ATOM      3  C3  UNL     1      27.971 -11.075 -38.802  0.00  0.00    +0.000 C 
ATOM      4  C4  UNL     1      28.564 -10.509 -37.486  0.00  0.00    +0.000 C 
ATOM      5  C5  UNL     1      28.697  -8.967 -37.502  0.00  0.00    +0.000 C 
ATOM      6  C6  UNL     1      29.546  -8.251 -36.333  0.00  0.00    +0.000 C 
ATOM      7  C7  UNL     1      30.522  -7.202 -36.960  0.00  0.00    +0.000 C 
ATOM      8  C15 UNL     1      28.613  -7.451 -35.364  0.00  0.00    +0.000 C 
ATOM      9  C22 UNL     1      27.602  -6.504 -36.068  0.00  0.00    +0.000 C 
ATOM     10  C23 UNL     1      27.275  -6.849 -37.532  0.00  0.00    +0.000 C 
ATOM     11  C24 UNL     1      27.266  -8.368 -37.807  0.00  0.00    +0.000 C 
ATOM     12  C25 UNL     1      26.103  -9.016 -36.975  0.00  0.00    +0.000 C 
ATOM     13  C26 UNL     1      26.987  -8.631 -39.327  0.00  0.00    +0.000 C 
ENDROOT
BRANCH  13  14
ATOM     14  C27 UNL     1      25.596  -8.177 -39.738  0.00  0.00    +0.000 C 
ATOM     15  C28 UNL     1      25.412  -7.309 -40.741  0.00  0.00    +0.000 C 
BRANCH  15  16
ATOM     16  C29 UNL     1      24.083  -6.832 -41.174  0.00  0.00    +0.000 C 
ATOM     17  C30 UNL     1      23.664  -6.864 -42.436  0.00  0.00    +0.000 C 
ATOM     18  C31 UNL     1      22.313  -6.285 -42.477  0.00  0.00    +0.000 C 
ATOM     19  C32 UNL     1      21.524  -6.118 -43.545  0.00  0.00    +0.000 C 
ATOM     20  O5  UNL     1      21.950  -5.883 -41.199  0.00  0.00    +0.000 OA
ATOM     21  C39 UNL     1      23.017  -6.211 -40.382  0.00  0.00    +0.000 C 
ATOM     22  O6  UNL     1      23.049  -5.963 -39.148  0.00  0.00    +0.000 OA
BRANCH  19  23
ATOM     23  C33 UNL     1      21.867  -6.573 -44.909  0.00  0.00    +0.000 C 
ATOM     24  C34 UNL     1      23.160  -7.055 -45.165  0.00  0.00    +0.000 C 
ATOM     25  C35 UNL     1      23.519  -7.466 -46.452  0.00  0.00    +0.000 C 
ATOM     26  C36 UNL     1      22.597  -7.382 -47.498  0.00  0.00    +0.000 C 
ATOM     27  C37 UNL     1      21.316  -6.872 -47.260  0.00  0.00    +0.000 C 
ATOM     28 BR1  UNL     1      20.064  -6.728 -48.696  0.00  0.00    +0.000 Br
ATOM     29  C38 UNL     1      20.954  -6.459 -45.974  0.00  0.00    +0.000 C 
ENDBRANCH  19  23
ENDBRANCH  15  16
ENDBRANCH  13  14
BRANCH   6  30
ATOM     30  C8  UNL     1      30.419  -9.247 -35.457  0.00  0.00    +0.000 C 
BRANCH  30  31
ATOM     31  O1  UNL     1      30.958  -8.683 -34.253  0.00  0.00    +0.000 OA
BRANCH  31  32
ATOM     32  C9  UNL     1      31.099  -9.336 -33.020  0.00  0.00    +0.000 C 
ATOM     33  O2  UNL     1      30.481 -10.407 -32.786  0.00  0.00    +0.000 OA
BRANCH  32  34
ATOM     34  C10 UNL     1      32.007  -8.771 -31.999  0.00  0.00    +0.000 C 
ATOM     35  C11 UNL     1      32.030  -7.390 -31.748  0.00  0.00    +0.000 C 
ATOM     36  C12 UNL     1      32.891  -6.868 -30.780  0.00  0.00    +0.000 C 
ATOM     37  C13 UNL     1      33.724  -7.730 -30.068  0.00  0.00    +0.000 C 
ATOM     38  N1  UNL     1      33.694  -9.065 -30.319  0.00  0.00    +0.000 NA
ATOM     39  C14 UNL     1      32.868  -9.600 -31.257  0.00  0.00    +0.000 C 
ENDBRANCH  32  34
ENDBRANCH  31  32
ENDBRANCH  30  31
ENDBRANCH   6  30
BRANCH   8  40
ATOM     40  O3  UNL     1      27.941  -8.354 -34.483  0.00  0.00    +0.000 OA
BRANCH  40  41
ATOM     41  C16 UNL     1      27.335  -7.976 -33.279  0.00  0.00    +0.000 C 
ATOM     42  O4  UNL     1      28.036  -7.791 -32.246  0.00  0.00    +0.000 OA
BRANCH  41  43
ATOM     43  C17 UNL     1      25.870  -7.797 -33.227  0.00  0.00    +0.000 C 
ATOM     44  C18 UNL     1      25.009  -8.901 -33.349  0.00  0.00    +0.000 C 
ATOM     45  C19 UNL     1      23.627  -8.721 -33.294  0.00  0.00    +0.000 C 
ATOM     46  C20 UNL     1      23.110  -7.439 -33.113  0.00  0.00    +0.000 C 
ATOM     47  N2  UNL     1      23.951  -6.377 -32.995  0.00  0.00    +0.000 NA
ATOM     48  C21 UNL     1      25.301  -6.524 -33.047  0.00  0.00    +0.000 C 
ENDBRANCH  41  43
ENDBRANCH  40  41
ENDBRANCH   8  40
TORSDOF 10
