REMARK  Name = resultss/4CJN/ligands/lig_175_t0.pdb
REMARK  4 active torsions:
REMARK  status: ('A' for Active; 'I' for Inactive)
REMARK    1  A    between atoms: C9_1  and  C1_17
REMARK    2  A    between atoms: C12_4  and  C13_7
REMARK    3  A    between atoms: N1_18  and  N2_20
REMARK    4  A    between atoms: C2_21  and  C3_22
REMARK                            x       y       z     vdW  Elec       q    Type
REMARK                         _______ _______ _______ _____ _____    ______ ____
ROOT
ATOM      1  C9  UNL     1      30.016  -9.460 -40.653  0.00  0.00    +0.000 C 
ATOM      2  C10 UNL     1      29.291 -10.017 -41.722  0.00  0.00    +0.000 C 
ATOM      3  C11 UNL     1      29.952 -10.668 -42.767  0.00  0.00    +0.000 C 
ATOM      4  C12 UNL     1      31.355 -10.772 -42.773  0.00  0.00    +0.000 C 
ATOM      5  C20 UNL     1      32.080 -10.205 -41.710  0.00  0.00    +0.000 C 
ATOM      6  C21 UNL     1      31.418  -9.555 -40.665  0.00  0.00    +0.000 C 
ENDROOT
BRANCH   4   7
ATOM      7  C13 UNL     1      32.065 -11.458 -43.876  0.00  0.00    +0.000 A 
ATOM      8  N3  UNL     1      31.779 -12.728 -44.266  0.00  0.00    +0.000 NA
ATOM      9  C14 UNL     1      32.571 -13.121 -45.297  0.00  0.00    +0.000 A 
ATOM     10  C15 UNL     1      32.508 -14.374 -45.907  0.00  0.00    +0.000 C 
ATOM     11  C16 UNL     1      33.388 -14.654 -46.968  0.00  0.00    +0.000 C 
ATOM     12  C17 UNL     1      34.313 -13.684 -47.402  0.00  0.00    +0.000 C 
ATOM     13  C18 UNL     1      34.367 -12.426 -46.781  0.00  0.00    +0.000 C 
ATOM     14  C19 UNL     1      33.486 -12.175 -45.733  0.00  0.00    +0.000 A 
ATOM     15  S1  UNL     1      33.316 -10.787 -44.809  0.00  0.00    +0.000 S 
ENDBRANCH   4   7
BRANCH   1  17
ATOM     16  O1  UNL     1      28.665  -7.714 -39.784  0.00  0.00    +0.000 OA
ATOM     17  C1  UNL     1      29.323  -8.762 -39.543  0.00  0.00    +0.000 C 
ATOM     18  N1  UNL     1      29.434  -9.236 -38.190  0.00  0.00    +0.000 N 
ATOM     19  H1  UNL     1      30.302  -9.747 -37.912  0.00  0.00    +0.000 HD
BRANCH  18  20
ATOM     20  N2  UNL     1      28.545  -8.862 -37.164  0.00  0.00    +0.000 NA
ATOM     21  C2  UNL     1      28.270  -9.613 -36.141  0.00  0.00    +0.000 C 
BRANCH  21  22
ATOM     22  C3  UNL     1      27.316  -9.170 -35.107  0.00  0.00    +0.000 C 
ATOM     23  C4  UNL     1      27.756  -8.601 -33.895  0.00  0.00    +0.000 C 
ATOM     24  C5  UNL     1      26.831  -8.188 -32.932  0.00  0.00    +0.000 C 
ATOM     25  C6  UNL     1      25.461  -8.336 -33.168  0.00  0.00    +0.000 C 
ATOM     26  C7  UNL     1      25.015  -8.898 -34.366  0.00  0.00    +0.000 C 
ATOM     27  C8  UNL     1      25.936  -9.313 -35.332  0.00  0.00    +0.000 C 
ENDBRANCH  21  22
ENDBRANCH  18  20
ENDBRANCH   1  17
TORSDOF 4
