REMARK  Name = resultss/4CJN/ligands/lig_185_t2.pdb
REMARK  4 active torsions:
REMARK  status: ('A' for Active; 'I' for Inactive)
REMARK    1  A    between atoms: C9_1  and  C1_17
REMARK    2  A    between atoms: C12_4  and  C13_7
REMARK    3  A    between atoms: N1_18  and  N2_20
REMARK    4  A    between atoms: C2_21  and  C3_22
REMARK                            x       y       z     vdW  Elec       q    Type
REMARK                         _______ _______ _______ _____ _____    ______ ____
ROOT
ATOM      1  C9  UNL     1      25.323  -9.014 -40.677  0.00  0.00    +0.000 C 
ATOM      2  C10 UNL     1      26.573  -9.633 -40.509  0.00  0.00    +0.000 C 
ATOM      3  C11 UNL     1      27.201  -9.641 -39.260  0.00  0.00    +0.000 C 
ATOM      4  C12 UNL     1      26.590  -9.035 -38.149  0.00  0.00    +0.000 C 
ATOM      5  C20 UNL     1      25.334  -8.425 -38.315  0.00  0.00    +0.000 C 
ATOM      6  C21 UNL     1      24.708  -8.416 -39.564  0.00  0.00    +0.000 C 
ENDROOT
BRANCH   4   7
ATOM      7  C13 UNL     1      27.263  -9.050 -36.829  0.00  0.00    +0.000 A 
ATOM      8  N3  UNL     1      26.791  -8.376 -35.748  0.00  0.00    +0.000 NA
ATOM      9  C14 UNL     1      27.590  -8.554 -34.665  0.00  0.00    +0.000 A 
ATOM     10  C15 UNL     1      27.358  -7.985 -33.411  0.00  0.00    +0.000 C 
ATOM     11  C16 UNL     1      28.267  -8.250 -32.371  0.00  0.00    +0.000 C 
ATOM     12  C17 UNL     1      29.387  -9.076 -32.595  0.00  0.00    +0.000 C 
ATOM     13  C18 UNL     1      29.609  -9.642 -33.860  0.00  0.00    +0.000 C 
ATOM     14  C19 UNL     1      28.694  -9.364 -34.872  0.00  0.00    +0.000 A 
ATOM     15  S1  UNL     1      28.695  -9.890 -36.463  0.00  0.00    +0.000 S 
ENDBRANCH   4   7
BRANCH   1  17
ATOM     16  O1  UNL     1      24.620 -10.082 -42.678  0.00  0.00    +0.000 OA
ATOM     17  C1  UNL     1      24.661  -9.015 -42.005  0.00  0.00    +0.000 C 
ATOM     18  N1  UNL     1      24.111  -7.806 -42.557  0.00  0.00    +0.000 N 
ATOM     19  H1  UNL     1      24.541  -6.895 -42.283  0.00  0.00    +0.000 HD
BRANCH  18  20
ATOM     20  N2  UNL     1      23.176  -7.793 -43.610  0.00  0.00    +0.000 NA
ATOM     21  C2  UNL     1      22.731  -6.703 -44.162  0.00  0.00    +0.000 C 
BRANCH  21  22
ATOM     22  C3  UNL     1      21.733  -6.748 -45.255  0.00  0.00    +0.000 C 
ATOM     23  C4  UNL     1      22.108  -6.935 -46.534  0.00  0.00    +0.000 C 
ATOM     24  C5  UNL     1      21.111  -7.040 -47.616  0.00  0.00    +0.000 C 
ATOM     25  O2  UNL     1      21.493  -7.114 -48.813  0.00  0.00    +0.000 OA
ATOM     26  C6  UNL     1      19.650  -7.150 -47.287  0.00  0.00    +0.000 C 
ATOM     27  C7  UNL     1      19.302  -6.326 -46.043  0.00  0.00    +0.000 C 
ATOM     28  C8  UNL     1      20.293  -6.568 -44.938  0.00  0.00    +0.000 C 
ATOM     29  O3  UNL     1      19.900  -6.551 -43.741  0.00  0.00    +0.000 OA
ENDBRANCH  21  22
ENDBRANCH  18  20
ENDBRANCH   1  17
TORSDOF 4
