REMARK  Name = resultss/4CJN/ligands/lig_430_t1.pdb
REMARK  8 active torsions:
REMARK  status: ('A' for Active; 'I' for Inactive)
REMARK    1  A    between atoms: C1_2  and  C16_5
REMARK    2  A    between atoms: N1_3  and  N2_25
REMARK    3  A    between atoms: C26_16  and  C27_19
REMARK    4  A    between atoms: C2_26  and  S1_43
REMARK    5  A    between atoms: N3_27  and  C3_29
REMARK    6  A    between atoms: C7_33  and  O2_35
REMARK    7  A    between atoms: O2_35  and  C8_36
REMARK    8  A    between atoms: C8_36  and  C9_37
REMARK                            x       y       z     vdW  Elec       q    Type
REMARK                         _______ _______ _______ _____ _____    ______ ____
ROOT
ATOM      1  O1  UNL     1      24.224  -9.850 -43.042  0.00  0.00    +0.000 OA
ATOM      2  C1  UNL     1      24.649  -9.036 -42.178  0.00  0.00    +0.000 C 
ATOM      3  N1  UNL     1      23.965  -7.793 -41.984  0.00  0.00    +0.000 N 
ATOM      4  H1  UNL     1      24.316  -7.125 -41.263  0.00  0.00    +0.000 HD
ENDROOT
BRANCH   2   5
ATOM      5  C16 UNL     1      25.839  -9.372 -41.368  0.00  0.00    +0.000 C 
ATOM      6  C17 UNL     1      25.796  -9.311 -39.958  0.00  0.00    +0.000 C 
ATOM      7  C18 UNL     1      26.965  -9.619 -39.272  0.00  0.00    +0.000 A 
ATOM      8  C19 UNL     1      28.124  -9.982 -39.925  0.00  0.00    +0.000 A 
ATOM      9  N4  UNL     1      29.144 -10.165 -39.053  0.00  0.00    +0.000 N 
ATOM     10  C20 UNL     1      28.606  -9.929 -37.836  0.00  0.00    +0.000 A 
ATOM     11  C21 UNL     1      29.258  -9.976 -36.605  0.00  0.00    +0.000 C 
ATOM     12  C22 UNL     1      28.510  -9.676 -35.452  0.00  0.00    +0.000 C 
ATOM     13  C23 UNL     1      27.143  -9.331 -35.552  0.00  0.00    +0.000 C 
ATOM     14  C24 UNL     1      26.507  -9.285 -36.807  0.00  0.00    +0.000 C 
ATOM     15  C25 UNL     1      27.272  -9.593 -37.930  0.00  0.00    +0.000 A 
ATOM     16  C26 UNL     1      28.148 -10.061 -41.324  0.00  0.00    +0.000 C 
ATOM     17  N5  UNL     1      27.002  -9.739 -41.997  0.00  0.00    +0.000 NA
ATOM     18  H16 UNL     1      30.140 -10.397 -39.262  0.00  0.00    +0.000 HD
BRANCH  16  19
ATOM     19  C27 UNL     1      29.346 -10.466 -42.087  0.00  0.00    +0.000 C 
ATOM     20  C28 UNL     1      29.908 -11.744 -41.928  0.00  0.00    +0.000 C 
ATOM     21  C29 UNL     1      31.024 -12.123 -42.679  0.00  0.00    +0.000 C 
ATOM     22  C30 UNL     1      31.581 -11.235 -43.604  0.00  0.00    +0.000 C 
ATOM     23  C31 UNL     1      31.015  -9.971 -43.786  0.00  0.00    +0.000 C 
ATOM     24  C32 UNL     1      29.899  -9.588 -43.036  0.00  0.00    +0.000 C 
ENDBRANCH  16  19
ENDBRANCH   2   5
BRANCH   3  25
ATOM     25  N2  UNL     1      22.837  -7.483 -42.765  0.00  0.00    +0.000 NA
ATOM     26  C2  UNL     1      21.898  -6.660 -42.396  0.00  0.00    +0.000 C 
ATOM     27  N3  UNL     1      20.773  -6.422 -43.254  0.00  0.00    +0.000 N 
ATOM     28  H3  UNL     1      19.886  -6.098 -42.806  0.00  0.00    +0.000 HD
BRANCH  27  29
ATOM     29  C3  UNL     1      20.772  -6.638 -44.676  0.00  0.00    +0.000 C 
ATOM     30  C4  UNL     1      19.590  -6.541 -45.432  0.00  0.00    +0.000 C 
ATOM     31  C5  UNL     1      19.607  -6.817 -46.801  0.00  0.00    +0.000 C 
ATOM     32  C6  UNL     1      20.796  -7.195 -47.429  0.00  0.00    +0.000 C 
ATOM     33  C7  UNL     1      21.987  -7.297 -46.686  0.00  0.00    +0.000 C 
ATOM     34  C15 UNL     1      21.960  -7.025 -45.313  0.00  0.00    +0.000 C 
BRANCH  33  35
ATOM     35  O2  UNL     1      23.215  -7.652 -47.267  0.00  0.00    +0.000 OA
BRANCH  35  36
ATOM     36  C8  UNL     1      24.222  -6.734 -47.696  0.00  0.00    +0.000 C 
BRANCH  36  37
ATOM     37  C9  UNL     1      25.480  -6.926 -46.893  0.00  0.00    +0.000 C 
ATOM     38  C10 UNL     1      26.738  -6.947 -47.518  0.00  0.00    +0.000 C 
ATOM     39  C11 UNL     1      27.900  -7.120 -46.756  0.00  0.00    +0.000 C 
ATOM     40  C12 UNL     1      27.811  -7.269 -45.369  0.00  0.00    +0.000 C 
ATOM     41  C13 UNL     1      26.562  -7.247 -44.740  0.00  0.00    +0.000 C 
ATOM     42  C14 UNL     1      25.399  -7.077 -45.498  0.00  0.00    +0.000 C 
ENDBRANCH  36  37
ENDBRANCH  35  36
ENDBRANCH  33  35
ENDBRANCH  27  29
BRANCH  26  43
ATOM     43  S1  UNL     1      21.906  -5.883 -40.776  0.00  0.00    +0.000 S 
ATOM     44  H2  UNL     1      20.937  -6.776 -40.286  0.00  0.00    +0.000 HD
ENDBRANCH  26  43
ENDBRANCH   3  25
TORSDOF 8
