REMARK  Name = resultss/4CJN/ligands/lig_407_t0.pdb
REMARK  6 active torsions:
REMARK  status: ('A' for Active; 'I' for Inactive)
REMARK    1  A    between atoms: C9_1  and  C1_22
REMARK    2  A    between atoms: C19_12  and  C20_15
REMARK    3  A    between atoms: N1_23  and  N2_25
REMARK    4  A    between atoms: N2_25  and  C2_27
REMARK    5  A    between atoms: C2_27  and  N3_29
REMARK    6  A    between atoms: N3_29  and  C3_31
REMARK                            x       y       z     vdW  Elec       q    Type
REMARK                         _______ _______ _______ _____ _____    ______ ____
ROOT
ATOM      1  C9  UNL     1      27.897  -9.735 -38.155  0.00  0.00    +0.000 C 
ATOM      2  C10 UNL     1      26.682  -9.287 -38.718  0.00  0.00    +0.000 C 
ATOM      3  C11 UNL     1      26.608  -9.227 -40.104  0.00  0.00    +0.000 A 
ATOM      4  C12 UNL     1      27.668  -9.579 -40.911  0.00  0.00    +0.000 A 
ATOM      5  N4  UNL     1      27.336  -9.502 -42.222  0.00  0.00    +0.000 N 
ATOM      6  C13 UNL     1      26.055  -9.076 -42.229  0.00  0.00    +0.000 A 
ATOM      7  C14 UNL     1      25.250  -8.849 -43.344  0.00  0.00    +0.000 C 
ATOM      8  C15 UNL     1      23.926  -8.423 -43.126  0.00  0.00    +0.000 C 
ATOM      9  C16 UNL     1      23.437  -8.240 -41.812  0.00  0.00    +0.000 C 
ATOM     10  C17 UNL     1      24.267  -8.481 -40.702  0.00  0.00    +0.000 C 
ATOM     11  C18 UNL     1      25.574  -8.895 -40.950  0.00  0.00    +0.000 A 
ATOM     12  C19 UNL     1      28.874 -10.007 -40.341  0.00  0.00    +0.000 C 
ATOM     13  N5  UNL     1      28.940 -10.079 -38.976  0.00  0.00    +0.000 NA
ATOM     14  H9  UNL     1      27.917  -9.749 -43.052  0.00  0.00    +0.000 HD
ENDROOT
BRANCH  12  15
ATOM     15  C20 UNL     1      30.057 -10.383 -41.143  0.00  0.00    +0.000 C 
ATOM     16  C21 UNL     1      29.953 -11.309 -42.197  0.00  0.00    +0.000 C 
ATOM     17  C22 UNL     1      31.076 -11.633 -42.964  0.00  0.00    +0.000 C 
ATOM     18  C23 UNL     1      32.307 -11.028 -42.695  0.00  0.00    +0.000 C 
ATOM     19  C24 UNL     1      32.414 -10.092 -41.663  0.00  0.00    +0.000 C 
ATOM     20  C25 UNL     1      31.293  -9.764 -40.894  0.00  0.00    +0.000 C 
ENDBRANCH  12  15
BRANCH   1  22
ATOM     21  O1  UNL     1      29.202 -10.032 -36.194  0.00  0.00    +0.000 OA
ATOM     22  C1  UNL     1      28.056  -9.850 -36.690  0.00  0.00    +0.000 C 
ATOM     23  N1  UNL     1      26.912  -9.772 -35.826  0.00  0.00    +0.000 N 
ATOM     24  H1  UNL     1      25.964  -9.950 -36.228  0.00  0.00    +0.000 HD
BRANCH  23  25
ATOM     25  N2  UNL     1      27.045  -9.772 -34.427  0.00  0.00    +0.000 N 
ATOM     26  H2  UNL     1      26.986 -10.690 -33.935  0.00  0.00    +0.000 HD
BRANCH  25  27
ATOM     27  C2  UNL     1      27.135  -8.561 -33.655  0.00  0.00    +0.000 C 
ATOM     28  S1  UNL     1      28.594  -7.924 -33.253  0.00  0.00    +0.000 S 
BRANCH  27  29
ATOM     29  N3  UNL     1      25.948  -7.896 -33.197  0.00  0.00    +0.000 N 
ATOM     30  H3  UNL     1      25.976  -7.433 -32.260  0.00  0.00    +0.000 HD
BRANCH  29  31
ATOM     31  C3  UNL     1      24.731  -7.815 -33.957  0.00  0.00    +0.000 C 
ATOM     32  C4  UNL     1      24.633  -6.974 -35.080  0.00  0.00    +0.000 C 
ATOM     33  C5  UNL     1      23.432  -6.879 -35.790  0.00  0.00    +0.000 C 
ATOM     34  C6  UNL     1      22.316  -7.609 -35.376  0.00  0.00    +0.000 C 
ATOM     35  C7  UNL     1      22.396  -8.431 -34.248  0.00  0.00    +0.000 C 
ATOM     36  C8  UNL     1      23.595  -8.529 -33.535  0.00  0.00    +0.000 C 
ATOM     37  F1  UNL     1      23.657  -9.330 -32.442  0.00  0.00    +0.000 F 
ENDBRANCH  29  31
ENDBRANCH  27  29
ENDBRANCH  25  27
ENDBRANCH  23  25
ENDBRANCH   1  22
TORSDOF 6
