REMARK  Name = resultss/4CJN/ligands/lig_339_t0.pdb
REMARK  10 active torsions:
REMARK  status: ('A' for Active; 'I' for Inactive)
REMARK    1  A    between atoms: C2_1  and  O1_28
REMARK    2  A    between atoms: C4_3  and  C5_7
REMARK    3  A    between atoms: C21_6  and  O3_29
REMARK    4  A    between atoms: N2_17  and  N3_19
REMARK    5  A    between atoms: N3_19  and  C13_21
REMARK    6  A    between atoms: O3_29  and  C22_30
REMARK    7  A    between atoms: C22_30  and  C23_31
REMARK    8  A    between atoms: N4_33  and  C25_36
REMARK    9  A    between atoms: C25_36  and  C26_37
REMARK   10  A    between atoms: N5_39  and  C27_41
REMARK                            x       y       z     vdW  Elec       q    Type
REMARK                         _______ _______ _______ _____ _____    ______ ____
ROOT
ATOM      1  C2  UNL     1      25.663  -8.556 -40.411  0.00  0.00    +0.000 C 
ATOM      2  C3  UNL     1      25.526  -8.429 -39.015  0.00  0.00    +0.000 C 
ATOM      3  C4  UNL     1      26.546  -7.843 -38.247  0.00  0.00    +0.000 C 
ATOM      4  C19 UNL     1      27.693  -7.356 -38.887  0.00  0.00    +0.000 C 
ATOM      5  C20 UNL     1      27.829  -7.466 -40.271  0.00  0.00    +0.000 C 
ATOM      6  C21 UNL     1      26.823  -8.081 -41.041  0.00  0.00    +0.000 C 
ENDROOT
BRANCH   3   7
ATOM      7  C5  UNL     1      26.450  -7.834 -36.736  0.00  0.00    +0.000 C 
ATOM      8  N1  UNL     1      25.204  -7.177 -36.325  0.00  0.00    +0.000 N 
ATOM      9  C6  UNL     1      24.539  -7.504 -35.096  0.00  0.00    +0.000 C 
ATOM     10  C7  UNL     1      23.544  -6.657 -34.586  0.00  0.00    +0.000 C 
ATOM     11  C8  UNL     1      22.895  -6.974 -33.389  0.00  0.00    +0.000 C 
ATOM     12  C9  UNL     1      23.230  -8.142 -32.701  0.00  0.00    +0.000 C 
ATOM     13  C10 UNL     1      24.213  -8.996 -33.207  0.00  0.00    +0.000 C 
ATOM     14  C11 UNL     1      24.869  -8.682 -34.410  0.00  0.00    +0.000 C 
ATOM     15  C12 UNL     1      25.887  -9.572 -34.990  0.00  0.00    +0.000 C 
ATOM     16  O2  UNL     1      26.189 -10.654 -34.415  0.00  0.00    +0.000 OA
ATOM     17  N2  UNL     1      26.529  -9.214 -36.223  0.00  0.00    +0.000 N 
ATOM     18  H6  UNL     1      24.934  -6.293 -36.813  0.00  0.00    +0.000 HD
BRANCH  17  19
ATOM     19  N3  UNL     1      27.471 -10.096 -36.788  0.00  0.00    +0.000 N 
ATOM     20  H11 UNL     1      27.130 -11.020 -37.138  0.00  0.00    +0.000 HD
BRANCH  19  21
ATOM     21  C13 UNL     1      28.886  -9.914 -36.604  0.00  0.00    +0.000 C 
ATOM     22  C14 UNL     1      29.786 -10.034 -37.680  0.00  0.00    +0.000 C 
ATOM     23  C15 UNL     1      31.154  -9.826 -37.483  0.00  0.00    +0.000 C 
ATOM     24  C16 UNL     1      31.635  -9.487 -36.216  0.00  0.00    +0.000 C 
ATOM     25  C17 UNL     1      30.749  -9.352 -35.145  0.00  0.00    +0.000 C 
ATOM     26  C18 UNL     1      29.380  -9.565 -35.336  0.00  0.00    +0.000 C 
ENDBRANCH  19  21
ENDBRANCH  17  19
ENDBRANCH   3   7
BRANCH   1  28
ATOM     27  C1  UNL     1      23.525  -8.495 -41.709  0.00  0.00    +0.000 C 
ATOM     28  O1  UNL     1      24.676  -9.164 -41.202  0.00  0.00    +0.000 OA
ENDBRANCH   1  28
BRANCH   6  29
ATOM     29  O3  UNL     1      26.948  -8.250 -42.429  0.00  0.00    +0.000 OA
BRANCH  29  30
ATOM     30  C22 UNL     1      27.412  -7.240 -43.322  0.00  0.00    +0.000 C 
BRANCH  30  31
ATOM     31  C23 UNL     1      26.382  -6.995 -44.372  0.00  0.00    +0.000 C 
ATOM     32  C24 UNL     1      26.534  -7.160 -45.730  0.00  0.00    +0.000 C 
ATOM     33  N4  UNL     1      25.358  -6.807 -46.278  0.00  0.00    +0.000 N 
ATOM     34  N6  UNL     1      24.531  -6.448 -45.310  0.00  0.00    +0.000 NA
ATOM     35  N7  UNL     1      25.134  -6.541 -44.133  0.00  0.00    +0.000 NA
BRANCH  33  36
ATOM     36  C25 UNL     1      24.989  -6.908 -47.684  0.00  0.00    +0.000 C 
BRANCH  36  37
ATOM     37  C26 UNL     1      23.534  -7.245 -47.801  0.00  0.00    +0.000 C 
ATOM     38  O4  UNL     1      23.179  -8.454 -47.855  0.00  0.00    +0.000 OA
ATOM     39  N5  UNL     1      22.558  -6.194 -47.868  0.00  0.00    +0.000 N 
ATOM     40  H24 UNL     1      22.884  -5.248 -48.170  0.00  0.00    +0.000 HD
BRANCH  39  41
ATOM     41  C27 UNL     1      21.163  -6.369 -47.565  0.00  0.00    +0.000 C 
ATOM     42  C28 UNL     1      20.750  -6.403 -46.224  0.00  0.00    +0.000 C 
ATOM     43  C29 UNL     1      19.406  -6.608 -45.901  0.00  0.00    +0.000 C 
ATOM     44  C30 UNL     1      18.462  -6.794 -46.917  0.00  0.00    +0.000 C 
ATOM     45 CL1  UNL     1      16.777  -7.062 -46.512  0.00  0.00    +0.000 Cl
ATOM     46  C31 UNL     1      18.866  -6.779 -48.255  0.00  0.00    +0.000 C 
ATOM     47  C32 UNL     1      20.211  -6.574 -48.581  0.00  0.00    +0.000 C 
ENDBRANCH  39  41
ENDBRANCH  36  37
ENDBRANCH  33  36
ENDBRANCH  30  31
ENDBRANCH  29  30
ENDBRANCH   6  29
TORSDOF 10
