REMARK  Name = resultss/4CJN/ligands/lig_352_t1.pdb
REMARK  10 active torsions:
REMARK  status: ('A' for Active; 'I' for Inactive)
REMARK    1  A    between atoms: C11_1  and  O2_27
REMARK    2  A    between atoms: C14_4  and  C15_7
REMARK    3  A    between atoms: N4_17  and  N5_19
REMARK    4  A    between atoms: N5_19  and  C23_21
REMARK    5  A    between atoms: O2_27  and  C10_28
REMARK    6  A    between atoms: C10_28  and  C9_31
REMARK    7  A    between atoms: N2_29  and  C7_34
REMARK    8  A    between atoms: C7_34  and  C6_36
REMARK    9  A    between atoms: N1_35  and  C5_41
REMARK   10  A    between atoms: C6_36  and  O1_45
REMARK                            x       y       z     vdW  Elec       q    Type
REMARK                         _______ _______ _______ _____ _____    ______ ____
ROOT
ATOM      1  C11 UNL     1      25.320  -7.839 -40.519  0.00  0.00    +0.000 C 
ATOM      2  C12 UNL     1      24.969  -8.560 -39.375  0.00  0.00    +0.000 C 
ATOM      3  C13 UNL     1      25.295  -8.080 -38.104  0.00  0.00    +0.000 C 
ATOM      4  C14 UNL     1      25.990  -6.867 -37.956  0.00  0.00    +0.000 C 
ATOM      5  C29 UNL     1      26.309  -6.123 -39.105  0.00  0.00    +0.000 C 
ATOM      6  C30 UNL     1      25.984  -6.607 -40.377  0.00  0.00    +0.000 C 
ENDROOT
BRANCH   4   7
ATOM      7  C15 UNL     1      26.357  -6.351 -36.582  0.00  0.00    +0.000 C 
ATOM      8  N3  UNL     1      25.144  -6.202 -35.775  0.00  0.00    +0.000 N 
ATOM      9  C16 UNL     1      24.696  -7.197 -34.846  0.00  0.00    +0.000 C 
ATOM     10  C17 UNL     1      23.396  -7.136 -34.319  0.00  0.00    +0.000 C 
ATOM     11  C18 UNL     1      22.957  -8.110 -33.419  0.00  0.00    +0.000 C 
ATOM     12  C19 UNL     1      23.813  -9.145 -33.038  0.00  0.00    +0.000 C 
ATOM     13  C20 UNL     1      25.112  -9.208 -33.553  0.00  0.00    +0.000 C 
ATOM     14  C21 UNL     1      25.559  -8.230 -34.457  0.00  0.00    +0.000 C 
ATOM     15  C22 UNL     1      26.929  -8.248 -34.998  0.00  0.00    +0.000 C 
ATOM     16  O3  UNL     1      27.748  -9.131 -34.617  0.00  0.00    +0.000 OA
ATOM     17  N4  UNL     1      27.344  -7.247 -35.945  0.00  0.00    +0.000 N 
ATOM     18  H15 UNL     1      24.510  -5.402 -36.008  0.00  0.00    +0.000 HD
BRANCH  17  19
ATOM     19  N5  UNL     1      28.680  -7.248 -36.401  0.00  0.00    +0.000 N 
ATOM     20  H20 UNL     1      29.304  -6.450 -36.139  0.00  0.00    +0.000 HD
BRANCH  19  21
ATOM     21  C23 UNL     1      29.046  -7.958 -37.585  0.00  0.00    +0.000 C 
ATOM     22  C24 UNL     1      29.019  -9.362 -37.618  0.00  0.00    +0.000 C 
ATOM     23  C25 UNL     1      29.372 -10.042 -38.789  0.00  0.00    +0.000 C 
ATOM     24  C26 UNL     1      29.770  -9.326 -39.923  0.00  0.00    +0.000 C 
ATOM     25  C27 UNL     1      29.817  -7.927 -39.885  0.00  0.00    +0.000 C 
ATOM     26  C28 UNL     1      29.458  -7.243 -38.719  0.00  0.00    +0.000 C 
ENDBRANCH  19  21
ENDBRANCH  17  19
ENDBRANCH   4   7
BRANCH   1  27
ATOM     27  O2  UNL     1      25.004  -8.386 -41.772  0.00  0.00    +0.000 OA
BRANCH  27  28
ATOM     28  C10 UNL     1      23.696  -8.775 -42.180  0.00  0.00    +0.000 C 
BRANCH  28  31
ATOM     29  N2  UNL     1      22.042  -6.751 -44.692  0.00  0.00    +0.000 N 
ATOM     30  C8  UNL     1      21.983  -7.415 -43.526  0.00  0.00    +0.000 C 
ATOM     31  C9  UNL     1      23.259  -7.886 -43.297  0.00  0.00    +0.000 C 
ATOM     32  N6  UNL     1      24.044  -7.520 -44.329  0.00  0.00    +0.000 NA
ATOM     33  N7  UNL     1      23.276  -6.833 -45.165  0.00  0.00    +0.000 NA
BRANCH  29  34
ATOM     34  C7  UNL     1      20.921  -6.171 -45.423  0.00  0.00    +0.000 C 
BRANCH  34  36
ATOM     35  N1  UNL     1      19.240  -7.569 -46.576  0.00  0.00    +0.000 NA
ATOM     36  C6  UNL     1      20.466  -7.131 -46.491  0.00  0.00    +0.000 C 
BRANCH  35  41
ATOM     37  C1  UNL     1      14.996  -5.885 -43.091  0.00  0.00    +0.000 C 
ATOM     38  C2  UNL     1      16.080  -6.368 -44.010  0.00  0.00    +0.000 C 
ATOM     39  C3  UNL     1      17.224  -6.995 -43.490  0.00  0.00    +0.000 C 
ATOM     40  C4  UNL     1      18.253  -7.400 -44.345  0.00  0.00    +0.000 C 
ATOM     41  C5  UNL     1      18.158  -7.172 -45.724  0.00  0.00    +0.000 C 
ATOM     42  C31 UNL     1      17.006  -6.556 -46.259  0.00  0.00    +0.000 C 
ATOM     43  C32 UNL     1      16.885  -6.283 -47.734  0.00  0.00    +0.000 C 
ATOM     44  C33 UNL     1      15.984  -6.135 -45.392  0.00  0.00    +0.000 C 
ENDBRANCH  35  41
BRANCH  36  45
ATOM     45  O1  UNL     1      21.411  -7.594 -47.402  0.00  0.00    +0.000 OA
ATOM     46  H6  UNL     1      22.142  -6.988 -47.753  0.00  0.00    +0.000 HD
ENDBRANCH  36  45
ENDBRANCH  34  36
ENDBRANCH  29  34
ENDBRANCH  28  31
ENDBRANCH  27  28
ENDBRANCH   1  27
TORSDOF 10
