REMARK  Name = resultss/4CJN/ligands/lig_348_t0.pdb
REMARK  9 active torsions:
REMARK  status: ('A' for Active; 'I' for Inactive)
REMARK    1  A    between atoms: C6_1  and  O2_27
REMARK    2  A    between atoms: C9_4  and  C10_7
REMARK    3  A    between atoms: N3_17  and  N4_19
REMARK    4  A    between atoms: N4_19  and  C18_21
REMARK    5  A    between atoms: O2_27  and  C5_28
REMARK    6  A    between atoms: C5_28  and  C4_31
REMARK    7  A    between atoms: N1_29  and  C2_34
REMARK    8  A    between atoms: C2_34  and  C1_36
REMARK    9  A    between atoms: N7_37  and  C26_39
REMARK                            x       y       z     vdW  Elec       q    Type
REMARK                         _______ _______ _______ _____ _____    ______ ____
ROOT
ATOM      1  C6  UNL     1      27.543  -8.563 -35.706  0.00  0.00    +0.000 C 
ATOM      2  C7  UNL     1      28.499  -9.577 -35.816  0.00  0.00    +0.000 C 
ATOM      3  C8  UNL     1      29.488  -9.731 -34.842  0.00  0.00    +0.000 C 
ATOM      4  C9  UNL     1      29.535  -8.869 -33.734  0.00  0.00    +0.000 C 
ATOM      5  C24 UNL     1      28.583  -7.843 -33.625  0.00  0.00    +0.000 C 
ATOM      6  C25 UNL     1      27.595  -7.690 -34.601  0.00  0.00    +0.000 C 
ENDROOT
BRANCH   4   7
ATOM      7  C10 UNL     1      30.640  -9.004 -32.710  0.00  0.00    +0.000 C 
ATOM      8  N2  UNL     1      30.721 -10.402 -32.264  0.00  0.00    +0.000 N 
ATOM      9  C11 UNL     1      31.951 -11.014 -31.856  0.00  0.00    +0.000 C 
ATOM     10  C12 UNL     1      31.937 -12.244 -31.181  0.00  0.00    +0.000 C 
ATOM     11  C13 UNL     1      33.136 -12.844 -30.785  0.00  0.00    +0.000 C 
ATOM     12  C14 UNL     1      34.355 -12.221 -31.064  0.00  0.00    +0.000 C 
ATOM     13  C15 UNL     1      34.377 -11.000 -31.744  0.00  0.00    +0.000 C 
ATOM     14  C16 UNL     1      33.174 -10.392 -32.145  0.00  0.00    +0.000 C 
ATOM     15  C17 UNL     1      33.163  -9.124 -32.890  0.00  0.00    +0.000 C 
ATOM     16  O3  UNL     1      34.248  -8.556 -33.187  0.00  0.00    +0.000 OA
ATOM     17  N3  UNL     1      31.911  -8.538 -33.288  0.00  0.00    +0.000 N 
ATOM     18  H9  UNL     1      29.824 -10.895 -32.045  0.00  0.00    +0.000 HD
BRANCH  17  19
ATOM     19  N4  UNL     1      31.921  -7.320 -33.997  0.00  0.00    +0.000 N 
ATOM     20  H14 UNL     1      31.900  -6.427 -33.455  0.00  0.00    +0.000 HD
BRANCH  19  21
ATOM     21  C18 UNL     1      31.765  -7.263 -35.424  0.00  0.00    +0.000 C 
ATOM     22  C19 UNL     1      30.906  -6.307 -35.988  0.00  0.00    +0.000 C 
ATOM     23  C20 UNL     1      30.717  -6.254 -37.372  0.00  0.00    +0.000 C 
ATOM     24  C21 UNL     1      31.379  -7.160 -38.203  0.00  0.00    +0.000 C 
ATOM     25  C22 UNL     1      32.229  -8.122 -37.651  0.00  0.00    +0.000 C 
ATOM     26  C23 UNL     1      32.421  -8.177 -36.268  0.00  0.00    +0.000 C 
ENDBRANCH  19  21
ENDBRANCH  17  19
ENDBRANCH   4   7
BRANCH   1  27
ATOM     27  O2  UNL     1      26.572  -8.453 -36.716  0.00  0.00    +0.000 OA
BRANCH  27  28
ATOM     28  C5  UNL     1      26.375  -9.385 -37.778  0.00  0.00    +0.000 C 
BRANCH  28  31
ATOM     29  N1  UNL     1      28.555  -8.535 -40.551  0.00  0.00    +0.000 N 
ATOM     30  C3  UNL     1      28.395  -9.075 -39.331  0.00  0.00    +0.000 C 
ATOM     31  C4  UNL     1      27.064  -8.913 -39.020  0.00  0.00    +0.000 C 
ATOM     32  N5  UNL     1      26.457  -8.283 -40.044  0.00  0.00    +0.000 NA
ATOM     33  N6  UNL     1      27.390  -8.058 -40.958  0.00  0.00    +0.000 NA
BRANCH  29  34
ATOM     34  C2  UNL     1      29.805  -8.397 -41.289  0.00  0.00    +0.000 C 
BRANCH  34  36
ATOM     35  O1  UNL     1      29.148 -10.354 -42.483  0.00  0.00    +0.000 OA
ATOM     36  C1  UNL     1      30.100  -9.670 -42.019  0.00  0.00    +0.000 C 
ATOM     37  N7  UNL     1      31.460 -10.102 -42.180  0.00  0.00    +0.000 N 
ATOM     38  H22 UNL     1      32.177  -9.710 -41.528  0.00  0.00    +0.000 HD
BRANCH  37  39
ATOM     39  C26 UNL     1      31.882 -11.082 -43.144  0.00  0.00    +0.000 C 
ATOM     40  C27 UNL     1      32.754 -10.701 -44.175  0.00  0.00    +0.000 C 
ATOM     41  C28 UNL     1      33.156 -11.628 -45.142  0.00  0.00    +0.000 C 
ATOM     42  C29 UNL     1      32.679 -12.941 -45.096  0.00  0.00    +0.000 C 
ATOM     43 BR1  UNL     1      33.224 -14.205 -46.420  0.00  0.00    +0.000 Br
ATOM     44  C30 UNL     1      31.792 -13.325 -44.085  0.00  0.00    +0.000 C 
ATOM     45  C31 UNL     1      31.390 -12.401 -43.117  0.00  0.00    +0.000 C 
ENDBRANCH  37  39
ENDBRANCH  34  36
ENDBRANCH  29  34
ENDBRANCH  28  31
ENDBRANCH  27  28
ENDBRANCH   1  27
TORSDOF 9
