REMARK  Name = resultss/4CJN/ligands/lig_177_t1.pdb
REMARK  6 active torsions:
REMARK  status: ('A' for Active; 'I' for Inactive)
REMARK    1  A    between atoms: C8_1  and  C7_17
REMARK    2  A    between atoms: C11_4  and  C12_7
REMARK    3  A    between atoms: N2_16  and  N1_19
REMARK    4  A    between atoms: C7_17  and  O2_28
REMARK    5  A    between atoms: C6_18  and  C5_23
REMARK    6  A    between atoms: C2_20  and  O1_27
REMARK                            x       y       z     vdW  Elec       q    Type
REMARK                         _______ _______ _______ _____ _____    ______ ____
ROOT
ATOM      1  C8  UNL     1      26.378  -9.481 -40.418  0.00  0.00    +0.000 C 
ATOM      2  C9  UNL     1      27.488 -10.342 -40.370  0.00  0.00    +0.000 C 
ATOM      3  C10 UNL     1      28.326 -10.363 -39.251  0.00  0.00    +0.000 C 
ATOM      4  C11 UNL     1      28.072  -9.524 -38.152  0.00  0.00    +0.000 C 
ATOM      5  C19 UNL     1      26.963  -8.664 -38.199  0.00  0.00    +0.000 C 
ATOM      6  C20 UNL     1      26.125  -8.642 -39.317  0.00  0.00    +0.000 C 
ENDROOT
BRANCH   4   7
ATOM      7  C12 UNL     1      28.953  -9.539 -36.960  0.00  0.00    +0.000 A 
ATOM      8  N3  UNL     1      28.481  -9.553 -35.687  0.00  0.00    +0.000 NA
ATOM      9  C13 UNL     1      29.491  -9.565 -34.782  0.00  0.00    +0.000 A 
ATOM     10  C14 UNL     1      29.311  -9.580 -33.398  0.00  0.00    +0.000 C 
ATOM     11  C15 UNL     1      30.447  -9.591 -32.569  0.00  0.00    +0.000 C 
ATOM     12  C16 UNL     1      31.740  -9.586 -33.130  0.00  0.00    +0.000 C 
ATOM     13  C17 UNL     1      31.909  -9.569 -34.524  0.00  0.00    +0.000 C 
ATOM     14  C18 UNL     1      30.767  -9.560 -35.321  0.00  0.00    +0.000 A 
ATOM     15  S1  UNL     1      30.653  -9.540 -36.994  0.00  0.00    +0.000 S 
ENDBRANCH   4   7
BRANCH   1  17
ATOM     16  N2  UNL     1      25.497  -8.428 -42.400  0.00  0.00    +0.000 NA
ATOM     17  C7  UNL     1      25.498  -9.466 -41.611  0.00  0.00    +0.000 C 
BRANCH  16  19
ATOM     18  C6  UNL     1      24.500  -7.206 -44.173  0.00  0.00    +0.000 C 
ATOM     19  N1  UNL     1      24.772  -8.341 -43.603  0.00  0.00    +0.000 NA
BRANCH  18  23
ATOM     20  C2  UNL     1      22.259  -7.032 -47.835  0.00  0.00    +0.000 C 
ATOM     21  C3  UNL     1      23.658  -7.190 -47.873  0.00  0.00    +0.000 C 
ATOM     22  C4  UNL     1      24.394  -7.248 -46.685  0.00  0.00    +0.000 C 
ATOM     23  C5  UNL     1      23.747  -7.150 -45.441  0.00  0.00    +0.000 C 
ATOM     24  C21 UNL     1      22.353  -6.991 -45.408  0.00  0.00    +0.000 C 
ATOM     25  C22 UNL     1      21.618  -6.933 -46.595  0.00  0.00    +0.000 C 
BRANCH  20  27
ATOM     26  C1  UNL     1      20.121  -6.537 -49.032  0.00  0.00    +0.000 C 
ATOM     27  O1  UNL     1      21.477  -6.968 -48.998  0.00  0.00    +0.000 OA
ENDBRANCH  20  27
ENDBRANCH  18  23
ENDBRANCH  16  19
BRANCH  17  28
ATOM     28  O2  UNL     1      24.660 -10.561 -41.849  0.00  0.00    +0.000 OA
ATOM     29  H7  UNL     1      23.790 -10.492 -42.361  0.00  0.00    +0.000 HD
ENDBRANCH  17  28
ENDBRANCH   1  17
TORSDOF 6
