REMARK  Name = resultss/4CJN/ligands/lig_178_t2.pdb
REMARK  4 active torsions:
REMARK  status: ('A' for Active; 'I' for Inactive)
REMARK    1  A    between atoms: C1_2  and  C9_5
REMARK    2  A    between atoms: N1_3  and  N2_20
REMARK    3  A    between atoms: C12_8  and  C13_11
REMARK    4  A    between atoms: C2_21  and  C3_22
REMARK                            x       y       z     vdW  Elec       q    Type
REMARK                         _______ _______ _______ _____ _____    ______ ____
ROOT
ATOM      1  O1  UNL     1      27.666  -7.692 -44.256  0.00  0.00    +0.000 OA
ATOM      2  C1  UNL     1      26.592  -7.404 -43.661  0.00  0.00    +0.000 C 
ATOM      3  N1  UNL     1      26.618  -7.159 -42.249  0.00  0.00    +0.000 N 
ATOM      4  H1  UNL     1      25.784  -6.735 -41.792  0.00  0.00    +0.000 HD
ENDROOT
BRANCH   2   5
ATOM      5  C9  UNL     1      25.331  -7.311 -44.435  0.00  0.00    +0.000 C 
ATOM      6  C10 UNL     1      25.344  -7.091 -45.823  0.00  0.00    +0.000 C 
ATOM      7  C11 UNL     1      24.147  -7.001 -46.539  0.00  0.00    +0.000 C 
ATOM      8  C12 UNL     1      22.910  -7.121 -45.884  0.00  0.00    +0.000 C 
ATOM      9  C20 UNL     1      22.897  -7.328 -44.494  0.00  0.00    +0.000 C 
ATOM     10  C21 UNL     1      24.094  -7.418 -43.777  0.00  0.00    +0.000 C 
BRANCH   8  11
ATOM     11  C13 UNL     1      21.635  -7.027 -46.633  0.00  0.00    +0.000 A 
ATOM     12  N3  UNL     1      20.421  -7.248 -46.065  0.00  0.00    +0.000 NA
ATOM     13  C14 UNL     1      19.417  -7.099 -46.967  0.00  0.00    +0.000 A 
ATOM     14  C15 UNL     1      18.063  -7.263 -46.672  0.00  0.00    +0.000 C 
ATOM     15  C16 UNL     1      17.121  -7.080 -47.700  0.00  0.00    +0.000 C 
ATOM     16  C17 UNL     1      17.543  -6.738 -49.001  0.00  0.00    +0.000 C 
ATOM     17  C18 UNL     1      18.908  -6.575 -49.285  0.00  0.00    +0.000 C 
ATOM     18  C19 UNL     1      19.818  -6.762 -48.249  0.00  0.00    +0.000 A 
ATOM     19  S1  UNL     1      21.490  -6.640 -48.282  0.00  0.00    +0.000 S 
ENDBRANCH   8  11
ENDBRANCH   2   5
BRANCH   3  20
ATOM     20  N2  UNL     1      27.794  -7.415 -41.519  0.00  0.00    +0.000 NA
ATOM     21  C2  UNL     1      27.938  -8.383 -40.660  0.00  0.00    +0.000 C 
BRANCH  21  22
ATOM     22  C3  UNL     1      26.867  -9.404 -40.357  0.00  0.00    +0.000 C 
ATOM     23  C4  UNL     1      27.463 -10.606 -39.677  0.00  0.00    +0.000 C 
ATOM     24  O2  UNL     1      27.586 -11.655 -40.290  0.00  0.00    +0.000 OA
ATOM     25  C5  UNL     1      27.967 -10.506 -38.267  0.00  0.00    +0.000 C 
ATOM     26  C6  UNL     1      27.187  -9.517 -37.437  0.00  0.00    +0.000 C 
ATOM     27  O3  UNL     1      27.525  -9.344 -36.276  0.00  0.00    +0.000 OA
ATOM     28  C7  UNL     1      25.993  -8.750 -37.957  0.00  0.00    +0.000 C 
ATOM     29  C8  UNL     1      25.823  -8.802 -39.455  0.00  0.00    +0.000 C 
ATOM     30  O4  UNL     1      24.831  -8.290 -39.953  0.00  0.00    +0.000 OA
ENDBRANCH  21  22
ENDBRANCH   3  20
TORSDOF 4
