REMARK  Name = resultss/4CJN/ligands/lig_423_t0.pdb
REMARK  8 active torsions:
REMARK  status: ('A' for Active; 'I' for Inactive)
REMARK    1  A    between atoms: C1_2  and  C10_5
REMARK    2  A    between atoms: N1_3  and  N2_25
REMARK    3  A    between atoms: C20_16  and  C21_19
REMARK    4  A    between atoms: N2_25  and  C2_27
REMARK    5  A    between atoms: C2_27  and  N3_29
REMARK    6  A    between atoms: N3_29  and  C3_31
REMARK    7  A    between atoms: C6_34  and  O2_37
REMARK    8  A    between atoms: O2_37  and  C7_38
REMARK                            x       y       z     vdW  Elec       q    Type
REMARK                         _______ _______ _______ _____ _____    ______ ____
ROOT
ATOM      1  O1  UNL     1      29.064 -11.556 -41.294  0.00  0.00    +0.000 OA
ATOM      2  C1  UNL     1      29.211 -10.475 -40.660  0.00  0.00    +0.000 C 
ATOM      3  N1  UNL     1      30.460  -9.770 -40.734  0.00  0.00    +0.000 N 
ATOM      4  H1  UNL     1      30.479  -8.754 -40.499  0.00  0.00    +0.000 HD
ENDROOT
BRANCH   2   5
ATOM      5  C10 UNL     1      28.091  -9.930 -39.865  0.00  0.00    +0.000 C 
ATOM      6  C11 UNL     1      28.130  -9.948 -38.454  0.00  0.00    +0.000 C 
ATOM      7  C12 UNL     1      27.035  -9.421 -37.780  0.00  0.00    +0.000 A 
ATOM      8  C13 UNL     1      25.950  -8.893 -38.446  0.00  0.00    +0.000 A 
ATOM      9  N4  UNL     1      24.984  -8.502 -37.581  0.00  0.00    +0.000 N 
ATOM     10  C14 UNL     1      25.486  -8.775 -36.356  0.00  0.00    +0.000 A 
ATOM     11  C15 UNL     1      24.865  -8.564 -35.126  0.00  0.00    +0.000 C 
ATOM     12  C16 UNL     1      25.562  -8.940 -33.963  0.00  0.00    +0.000 C 
ATOM     13  C17 UNL     1      26.849  -9.518 -34.052  0.00  0.00    +0.000 C 
ATOM     14  C18 UNL     1      27.454  -9.726 -35.305  0.00  0.00    +0.000 C 
ATOM     15  C19 UNL     1      26.742  -9.338 -36.438  0.00  0.00    +0.000 A 
ATOM     16  C20 UNL     1      25.930  -8.865 -39.846  0.00  0.00    +0.000 C 
ATOM     17  N5  UNL     1      27.003  -9.396 -40.507  0.00  0.00    +0.000 NA
ATOM     18  H9  UNL     1      24.041  -8.111 -37.796  0.00  0.00    +0.000 HD
BRANCH  16  19
ATOM     19  C21 UNL     1      24.808  -8.297 -40.624  0.00  0.00    +0.000 C 
ATOM     20  C22 UNL     1      24.385  -6.972 -40.423  0.00  0.00    +0.000 C 
ATOM     21  C23 UNL     1      23.338  -6.442 -41.185  0.00  0.00    +0.000 C 
ATOM     22  C24 UNL     1      22.718  -7.224 -42.161  0.00  0.00    +0.000 C 
ATOM     23  C25 UNL     1      23.146  -8.535 -42.383  0.00  0.00    +0.000 C 
ATOM     24  C26 UNL     1      24.192  -9.068 -41.624  0.00  0.00    +0.000 C 
ENDBRANCH  16  19
ENDBRANCH   2   5
BRANCH   3  25
ATOM     25  N2  UNL     1      31.598 -10.327 -41.348  0.00  0.00    +0.000 N 
ATOM     26  H2  UNL     1      31.458 -11.051 -42.087  0.00  0.00    +0.000 HD
BRANCH  25  27
ATOM     27  C2  UNL     1      32.931  -9.858 -41.092  0.00  0.00    +0.000 C 
ATOM     28  S1  UNL     1      33.158  -8.436 -40.296  0.00  0.00    +0.000 S 
BRANCH  27  29
ATOM     29  N3  UNL     1      34.025 -10.463 -41.800  0.00  0.00    +0.000 N 
ATOM     30  H3  UNL     1      34.979 -10.377 -41.384  0.00  0.00    +0.000 HD
BRANCH  29  31
ATOM     31  C3  UNL     1      33.894 -11.166 -43.047  0.00  0.00    +0.000 C 
ATOM     32  C4  UNL     1      33.349 -10.545 -44.184  0.00  0.00    +0.000 C 
ATOM     33  C5  UNL     1      33.261 -11.238 -45.394  0.00  0.00    +0.000 C 
ATOM     34  C6  UNL     1      33.728 -12.553 -45.498  0.00  0.00    +0.000 C 
ATOM     35  C8  UNL     1      34.293 -13.170 -44.364  0.00  0.00    +0.000 C 
ATOM     36  C9  UNL     1      34.380 -12.476 -43.154  0.00  0.00    +0.000 C 
BRANCH  34  37
ATOM     37  O2  UNL     1      33.616 -13.201 -46.739  0.00  0.00    +0.000 OA
BRANCH  37  38
ATOM     38  C7  UNL     1      33.237 -14.562 -46.927  0.00  0.00    +0.000 C 
ATOM     39  F1  UNL     1      34.194 -15.402 -46.387  0.00  0.00    +0.000 F 
ATOM     40  F2  UNL     1      32.010 -14.802 -46.336  0.00  0.00    +0.000 F 
ATOM     41  F3  UNL     1      33.137 -14.816 -48.281  0.00  0.00    +0.000 F 
ENDBRANCH  37  38
ENDBRANCH  34  37
ENDBRANCH  29  31
ENDBRANCH  27  29
ENDBRANCH  25  27
ENDBRANCH   3  25
TORSDOF 8
