REMARK  Name = resultss/4CJN/ligands/lig_169_t2.pdb
REMARK  4 active torsions:
REMARK  status: ('A' for Active; 'I' for Inactive)
REMARK    1  A    between atoms: C9_1  and  C1_17
REMARK    2  A    between atoms: C12_4  and  C13_7
REMARK    3  A    between atoms: N1_18  and  N2_20
REMARK    4  A    between atoms: C2_21  and  C3_22
REMARK                            x       y       z     vdW  Elec       q    Type
REMARK                         _______ _______ _______ _____ _____    ______ ____
ROOT
ATOM      1  C9  UNL     1      27.056  -8.918 -37.275  0.00  0.00    +0.000 C 
ATOM      2  C10 UNL     1      28.077  -7.953 -37.223  0.00  0.00    +0.000 C 
ATOM      3  C11 UNL     1      29.041  -7.992 -36.210  0.00  0.00    +0.000 C 
ATOM      4  C12 UNL     1      29.001  -8.992 -35.223  0.00  0.00    +0.000 C 
ATOM      5  C20 UNL     1      27.973  -9.949 -35.268  0.00  0.00    +0.000 C 
ATOM      6  C21 UNL     1      27.010  -9.909 -36.280  0.00  0.00    +0.000 C 
ENDROOT
BRANCH   4   7
ATOM      7  C13 UNL     1      30.018  -9.043 -34.146  0.00  0.00    +0.000 A 
ATOM      8  N3  UNL     1      30.385 -10.194 -33.526  0.00  0.00    +0.000 NA
ATOM      9  C14 UNL     1      31.332  -9.968 -32.580  0.00  0.00    +0.000 A 
ATOM     10  C15 UNL     1      31.901 -10.961 -31.781  0.00  0.00    +0.000 C 
ATOM     11  C16 UNL     1      32.875 -10.591 -30.836  0.00  0.00    +0.000 C 
ATOM     12  C17 UNL     1      33.265  -9.243 -30.703  0.00  0.00    +0.000 C 
ATOM     13  C18 UNL     1      32.686  -8.254 -31.513  0.00  0.00    +0.000 C 
ATOM     14  C19 UNL     1      31.724  -8.647 -32.440  0.00  0.00    +0.000 A 
ATOM     15  S1  UNL     1      30.867  -7.705 -33.530  0.00  0.00    +0.000 S 
ENDBRANCH   4   7
BRANCH   1  17
ATOM     16  O1  UNL     1      24.811  -8.739 -38.022  0.00  0.00    +0.000 OA
ATOM     17  C1  UNL     1      26.023  -8.887 -38.339  0.00  0.00    +0.000 C 
ATOM     18  N1  UNL     1      26.370  -9.039 -39.720  0.00  0.00    +0.000 N 
ATOM     19  H1  UNL     1      27.339  -9.325 -39.990  0.00  0.00    +0.000 HD
BRANCH  18  20
ATOM     20  N2  UNL     1      25.390  -8.871 -40.712  0.00  0.00    +0.000 NA
ATOM     21  C2  UNL     1      25.492  -7.956 -41.626  0.00  0.00    +0.000 C 
BRANCH  21  22
ATOM     22  C3  UNL     1      24.451  -7.786 -42.664  0.00  0.00    +0.000 C 
ATOM     23  C4  UNL     1      24.877  -7.827 -44.120  0.00  0.00    +0.000 C 
ATOM     24  C5  UNL     1      23.974  -6.975 -45.027  0.00  0.00    +0.000 C 
ATOM     25  C6  UNL     1      22.527  -7.256 -44.753  0.00  0.00    +0.000 C 
ATOM     26  O2  UNL     1      21.674  -7.166 -45.675  0.00  0.00    +0.000 OA
ATOM     27  C7  UNL     1      22.114  -7.559 -43.376  0.00  0.00    +0.000 C 
ATOM     28  O3  UNL     1      20.895  -7.662 -43.080  0.00  0.00    +0.000 OA
ATOM     29  C8  UNL     1      23.145  -7.723 -42.340  0.00  0.00    +0.000 C 
ENDBRANCH  21  22
ENDBRANCH  18  20
ENDBRANCH   1  17
TORSDOF 4
