REMARK  Name = resultss/4CJN/ligands/lig_167_t2.pdb
REMARK  4 active torsions:
REMARK  status: ('A' for Active; 'I' for Inactive)
REMARK    1  A    between atoms: C9_1  and  C1_17
REMARK    2  A    between atoms: C12_4  and  C13_7
REMARK    3  A    between atoms: N1_18  and  N2_20
REMARK    4  A    between atoms: C2_21  and  C3_22
REMARK                            x       y       z     vdW  Elec       q    Type
REMARK                         _______ _______ _______ _____ _____    ______ ____
ROOT
ATOM      1  C9  UNL     1      26.497  -9.531 -40.382  0.00  0.00    +0.000 C 
ATOM      2  C10 UNL     1      27.248 -10.654 -39.992  0.00  0.00    +0.000 C 
ATOM      3  C11 UNL     1      27.918 -10.669 -38.765  0.00  0.00    +0.000 C 
ATOM      4  C12 UNL     1      27.858  -9.560 -37.903  0.00  0.00    +0.000 C 
ATOM      5  C20 UNL     1      27.118  -8.435 -38.299  0.00  0.00    +0.000 C 
ATOM      6  C21 UNL     1      26.449  -8.418 -39.526  0.00  0.00    +0.000 C 
ENDROOT
BRANCH   4   7
ATOM      7  C13 UNL     1      28.564  -9.567 -36.601  0.00  0.00    +0.000 A 
ATOM      8  N3  UNL     1      29.918  -9.568 -36.490  0.00  0.00    +0.000 NA
ATOM      9  C14 UNL     1      30.311  -9.574 -35.191  0.00  0.00    +0.000 A 
ATOM     10  C15 UNL     1      31.641  -9.576 -34.769  0.00  0.00    +0.000 C 
ATOM     11  C16 UNL     1      31.911  -9.582 -33.389  0.00  0.00    +0.000 C 
ATOM     12  C17 UNL     1      30.856  -9.586 -32.455  0.00  0.00    +0.000 C 
ATOM     13  C18 UNL     1      29.522  -9.582 -32.892  0.00  0.00    +0.000 C 
ATOM     14  C19 UNL     1      29.283  -9.577 -34.263  0.00  0.00    +0.000 A 
ATOM     15  S1  UNL     1      27.816  -9.572 -35.075  0.00  0.00    +0.000 S 
ENDBRANCH   4   7
BRANCH   1  17
ATOM     16  O1  UNL     1      24.997 -10.434 -41.985  0.00  0.00    +0.000 OA
ATOM     17  C1  UNL     1      25.785  -9.496 -41.684  0.00  0.00    +0.000 C 
ATOM     18  N1  UNL     1      25.987  -8.427 -42.616  0.00  0.00    +0.000 N 
ATOM     19  H1  UNL     1      26.753  -7.732 -42.459  0.00  0.00    +0.000 HD
BRANCH  18  20
ATOM     20  N2  UNL     1      25.201  -8.351 -43.776  0.00  0.00    +0.000 NA
ATOM     21  C2  UNL     1      24.939  -7.220 -44.354  0.00  0.00    +0.000 C 
BRANCH  21  22
ATOM     22  C3  UNL     1      24.108  -7.154 -45.579  0.00  0.00    +0.000 C 
ATOM     23  C4  UNL     1      24.719  -7.043 -46.770  0.00  0.00    +0.000 C 
ATOM     24  C5  UNL     1      23.974  -6.967 -48.082  0.00  0.00    +0.000 C 
ATOM     25  C6  UNL     1      22.473  -7.026 -47.954  0.00  0.00    +0.000 C 
ATOM     26  C7  UNL     1      21.855  -7.137 -46.778  0.00  0.00    +0.000 C 
ATOM     27  C8  UNL     1      22.626  -7.207 -45.531  0.00  0.00    +0.000 C 
ATOM     28  O2  UNL     1      22.011  -7.312 -44.437  0.00  0.00    +0.000 OA
ENDBRANCH  21  22
ENDBRANCH  18  20
ENDBRANCH   1  17
TORSDOF 4
