REMARK  Name = resultss/4CJN/ligands/lig_421_t0.pdb
REMARK  7 active torsions:
REMARK  status: ('A' for Active; 'I' for Inactive)
REMARK    1  A    between atoms: C1_2  and  C10_5
REMARK    2  A    between atoms: N1_3  and  N2_25
REMARK    3  A    between atoms: C20_16  and  C21_19
REMARK    4  A    between atoms: N2_25  and  C2_27
REMARK    5  A    between atoms: C2_27  and  N3_29
REMARK    6  A    between atoms: N3_29  and  C3_31
REMARK    7  A    between atoms: C6_34  and  C7_37
REMARK                            x       y       z     vdW  Elec       q    Type
REMARK                         _______ _______ _______ _____ _____    ______ ____
ROOT
ATOM      1  O1  UNL     1      27.594 -11.071 -38.931  0.00  0.00    +0.000 OA
ATOM      2  C1  UNL     1      27.053 -10.038 -38.451  0.00  0.00    +0.000 C 
ATOM      3  N1  UNL     1      26.136  -9.277 -39.251  0.00  0.00    +0.000 N 
ATOM      4  H1  UNL     1      25.660  -8.449 -38.826  0.00  0.00    +0.000 HD
ENDROOT
BRANCH   2   5
ATOM      5  C10 UNL     1      27.360  -9.626 -37.064  0.00  0.00    +0.000 C 
ATOM      6  C11 UNL     1      28.685  -9.670 -36.576  0.00  0.00    +0.000 C 
ATOM      7  C12 UNL     1      28.885  -9.300 -35.251  0.00  0.00    +0.000 A 
ATOM      8  C13 UNL     1      27.851  -8.886 -34.440  0.00  0.00    +0.000 A 
ATOM      9  N4  UNL     1      28.279  -8.652 -33.176  0.00  0.00    +0.000 N 
ATOM     10  C14 UNL     1      29.605  -8.910 -33.208  0.00  0.00    +0.000 A 
ATOM     11  C15 UNL     1      30.505  -8.825 -32.146  0.00  0.00    +0.000 C 
ATOM     12  C16 UNL     1      31.852  -9.153 -32.395  0.00  0.00    +0.000 C 
ATOM     13  C17 UNL     1      32.267  -9.560 -33.684  0.00  0.00    +0.000 C 
ATOM     14  C18 UNL     1      31.339  -9.646 -34.739  0.00  0.00    +0.000 C 
ATOM     15  C19 UNL     1      30.014  -9.307 -34.464  0.00  0.00    +0.000 A 
ATOM     16  C20 UNL     1      26.544  -8.821 -34.944  0.00  0.00    +0.000 C 
ATOM     17  N5  UNL     1      26.345  -9.209 -36.241  0.00  0.00    +0.000 NA
ATOM     18  H9  UNL     1      27.716  -8.376 -32.342  0.00  0.00    +0.000 HD
BRANCH  16  19
ATOM     19  C21 UNL     1      25.391  -8.371 -34.138  0.00  0.00    +0.000 C 
ATOM     20  C22 UNL     1      25.034  -7.011 -34.079  0.00  0.00    +0.000 C 
ATOM     21  C23 UNL     1      23.922  -6.606 -33.334  0.00  0.00    +0.000 C 
ATOM     22  C24 UNL     1      23.148  -7.552 -32.658  0.00  0.00    +0.000 C 
ATOM     23  C25 UNL     1      23.482  -8.906 -32.730  0.00  0.00    +0.000 C 
ATOM     24  C26 UNL     1      24.594  -9.317 -33.473  0.00  0.00    +0.000 C 
ENDBRANCH  16  19
ENDBRANCH   2   5
BRANCH   3  25
ATOM     25  N2  UNL     1      25.814  -9.664 -40.565  0.00  0.00    +0.000 N 
ATOM     26  H2  UNL     1      25.101 -10.411 -40.724  0.00  0.00    +0.000 HD
BRANCH  25  27
ATOM     27  C2  UNL     1      26.357  -8.981 -41.704  0.00  0.00    +0.000 C 
ATOM     28  S1  UNL     1      25.453  -8.877 -43.072  0.00  0.00    +0.000 S 
BRANCH  27  29
ATOM     29  N3  UNL     1      27.739  -8.598 -41.729  0.00  0.00    +0.000 N 
ATOM     30  H3  UNL     1      27.982  -7.640 -41.394  0.00  0.00    +0.000 HD
BRANCH  29  31
ATOM     31  C3  UNL     1      28.806  -9.470 -42.149  0.00  0.00    +0.000 C 
ATOM     32  C4  UNL     1      29.605  -9.105 -43.242  0.00  0.00    +0.000 C 
ATOM     33  C5  UNL     1      30.635  -9.946 -43.682  0.00  0.00    +0.000 C 
ATOM     34  C6  UNL     1      30.881 -11.170 -43.034  0.00  0.00    +0.000 C 
ATOM     35  C8  UNL     1      30.055 -11.551 -41.964  0.00  0.00    +0.000 C 
ATOM     36  C9  UNL     1      29.026 -10.711 -41.526  0.00  0.00    +0.000 C 
BRANCH  34  37
ATOM     37  C7  UNL     1      31.949 -12.115 -43.525  0.00  0.00    +0.000 C 
ATOM     38  F1  UNL     1      31.469 -13.410 -43.465  0.00  0.00    +0.000 F 
ATOM     39  F2  UNL     1      32.315 -11.830 -44.831  0.00  0.00    +0.000 F 
ATOM     40  F3  UNL     1      33.072 -12.016 -42.721  0.00  0.00    +0.000 F 
ENDBRANCH  34  37
ENDBRANCH  29  31
ENDBRANCH  27  29
ENDBRANCH  25  27
ENDBRANCH   3  25
TORSDOF 7
