REMARK  Name = resultss/4CJN/ligands/lig_331_t1.pdb
REMARK  10 active torsions:
REMARK  status: ('A' for Active; 'I' for Inactive)
REMARK    1  A    between atoms: C5_1  and  C4_13
REMARK    2  A    between atoms: C8_5  and  C9_24
REMARK    3  A    between atoms: C18_7  and  O4_22
REMARK    4  A    between atoms: C21_10  and  C22_34
REMARK    5  A    between atoms: C2_11  and  O1_19
REMARK    6  A    between atoms: C24_15  and  O7_20
REMARK    7  A    between atoms: C9_24  and  C10_25
REMARK    8  A    between atoms: C10_25  and  C11_26
REMARK    9  A    between atoms: C14_29  and  O3_32
REMARK   10  A    between atoms: C22_34  and  O6_35
REMARK                            x       y       z     vdW  Elec       q    Type
REMARK                         _______ _______ _______ _____ _____    ______ ____
ROOT
ATOM      1  C5  UNL     1      29.705  -9.973 -38.746  0.00  0.00    +0.000 C 
ATOM      2  O2  UNL     1      28.439  -9.813 -38.095  0.00  0.00    +0.000 OA
ATOM      3  C6  UNL     1      28.339  -9.754 -36.702  0.00  0.00    +0.000 C 
ATOM      4  C7  UNL     1      27.097  -9.866 -36.076  0.00  0.00    +0.000 C 
ATOM      5  C8  UNL     1      27.011  -9.846 -34.676  0.00  0.00    +0.000 C 
ATOM      6  C17 UNL     1      28.181  -9.688 -33.912  0.00  0.00    +0.000 C 
ATOM      7  C18 UNL     1      29.435  -9.556 -34.541  0.00  0.00    +0.000 C 
ATOM      8  C20 UNL     1      29.501  -9.578 -35.940  0.00  0.00    +0.000 C 
ATOM      9  O5  UNL     1      30.726  -9.421 -36.597  0.00  0.00    +0.000 OA
ATOM     10  C21 UNL     1      30.791  -9.151 -38.000  0.00  0.00    +0.000 C 
ENDROOT
BRANCH   1  13
ATOM     11  C2  UNL     1      29.733 -10.124 -42.643  0.00  0.00    +0.000 C 
ATOM     12  C3  UNL     1      29.791 -10.470 -41.173  0.00  0.00    +0.000 C 
ATOM     13  C4  UNL     1      29.586  -9.567 -40.198  0.00  0.00    +0.000 C 
ATOM     14  C23 UNL     1      29.170  -8.186 -40.528  0.00  0.00    +0.000 C 
ATOM     15  C24 UNL     1      28.924  -7.807 -41.792  0.00  0.00    +0.000 C 
ATOM     16  C26 UNL     1      29.108  -8.776 -42.887  0.00  0.00    +0.000 C 
ATOM     17  O8  UNL     1      28.775  -8.456 -44.060  0.00  0.00    +0.000 OA
BRANCH  11  19
ATOM     18  C1  UNL     1      31.408 -11.370 -43.668  0.00  0.00    +0.000 C 
ATOM     19  O1  UNL     1      31.048 -10.100 -43.168  0.00  0.00    +0.000 OA
ENDBRANCH  11  19
BRANCH  15  20
ATOM     20  O7  UNL     1      28.485  -6.512 -42.121  0.00  0.00    +0.000 OA
ATOM     21  C25 UNL     1      27.328  -5.883 -41.580  0.00  0.00    +0.000 C 
ENDBRANCH  15  20
ENDBRANCH   1  13
BRANCH   7  22
ATOM     22  O4  UNL     1      30.626  -9.393 -33.817  0.00  0.00    +0.000 OA
ATOM     23  C19 UNL     1      30.796  -8.473 -32.743  0.00  0.00    +0.000 C 
ENDBRANCH   7  22
BRANCH   5  24
ATOM     24  C9  UNL     1      25.670  -9.938 -33.998  0.00  0.00    +0.000 C 
BRANCH  24  25
ATOM     25  C10 UNL     1      25.232  -8.563 -33.487  0.00  0.00    +0.000 C 
BRANCH  25  26
ATOM     26  C11 UNL     1      24.241  -7.940 -34.431  0.00  0.00    +0.000 C 
ATOM     27  C12 UNL     1      24.682  -7.131 -35.491  0.00  0.00    +0.000 C 
ATOM     28  C13 UNL     1      23.763  -6.576 -36.387  0.00  0.00    +0.000 C 
ATOM     29  C14 UNL     1      22.394  -6.835 -36.238  0.00  0.00    +0.000 C 
ATOM     30  C15 UNL     1      21.950  -7.650 -35.192  0.00  0.00    +0.000 C 
ATOM     31  C16 UNL     1      22.868  -8.205 -34.296  0.00  0.00    +0.000 C 
BRANCH  29  32
ATOM     32  O3  UNL     1      21.468  -6.288 -37.125  0.00  0.00    +0.000 OA
ATOM     33  H14 UNL     1      21.328  -5.287 -37.194  0.00  0.00    +0.000 HD
ENDBRANCH  29  32
ENDBRANCH  25  26
ENDBRANCH  24  25
ENDBRANCH   5  24
BRANCH  10  34
ATOM     34  C22 UNL     1      32.211  -9.437 -38.511  0.00  0.00    +0.000 C 
BRANCH  34  35
ATOM     35  O6  UNL     1      32.654 -10.702 -38.099  0.00  0.00    +0.000 OA
ATOM     36  H24 UNL     1      32.178 -10.911 -37.253  0.00  0.00    +0.000 HD
ENDBRANCH  34  35
ENDBRANCH  10  34
TORSDOF 10
