REMARK  Name = resultss/4CJN/ligands/lig_345_t2.pdb
REMARK  11 active torsions:
REMARK  status: ('A' for Active; 'I' for Inactive)
REMARK    1  A    between atoms: C12_1  and  O2_27
REMARK    2  A    between atoms: C15_4  and  C16_7
REMARK    3  A    between atoms: C23_15  and  O3_17
REMARK    4  A    between atoms: N4_16  and  N5_19
REMARK    5  A    between atoms: N5_19  and  C24_21
REMARK    6  A    between atoms: O2_27  and  C11_28
REMARK    7  A    between atoms: C11_28  and  C10_31
REMARK    8  A    between atoms: N2_29  and  C8_34
REMARK    9  A    between atoms: C8_34  and  C7_36
REMARK   10  A    between atoms: N1_35  and  C6_39
REMARK   11  A    between atoms: C6_39  and  C5_44
REMARK                            x       y       z     vdW  Elec       q    Type
REMARK                         _______ _______ _______ _____ _____    ______ ____
ROOT
ATOM      1  C12 UNL     1      26.992  -9.678 -36.866  0.00  0.00    +0.000 C 
ATOM      2  C13 UNL     1      28.089 -10.364 -37.424  0.00  0.00    +0.000 C 
ATOM      3  C14 UNL     1      28.708  -9.885 -38.582  0.00  0.00    +0.000 C 
ATOM      4  C15 UNL     1      28.240  -8.719 -39.209  0.00  0.00    +0.000 C 
ATOM      5  C30 UNL     1      27.150  -8.033 -38.644  0.00  0.00    +0.000 C 
ATOM      6  C31 UNL     1      26.533  -8.513 -37.486  0.00  0.00    +0.000 C 
ENDROOT
BRANCH   4   7
ATOM      7  C16 UNL     1      28.893  -8.225 -40.481  0.00  0.00    +0.000 C 
ATOM      8  N3  UNL     1      30.101  -7.467 -40.159  0.00  0.00    +0.000 NA
ATOM      9  C17 UNL     1      31.312  -7.928 -40.288  0.00  0.00    +0.000 C 
ATOM     10  C18 UNL     1      32.379  -7.126 -39.862  0.00  0.00    +0.000 C 
ATOM     11  C19 UNL     1      33.688  -7.593 -39.940  0.00  0.00    +0.000 C 
ATOM     12  C20 UNL     1      33.946  -8.865 -40.449  0.00  0.00    +0.000 C 
ATOM     13  C21 UNL     1      32.899  -9.674 -40.894  0.00  0.00    +0.000 C 
ATOM     14  C22 UNL     1      31.561  -9.218 -40.834  0.00  0.00    +0.000 C 
ATOM     15  C23 UNL     1      30.524  -9.944 -41.320  0.00  0.00    +0.000 C 
ATOM     16  N4  UNL     1      29.213  -9.351 -41.362  0.00  0.00    +0.000 NA
BRANCH  15  17
ATOM     17  O3  UNL     1      30.665 -11.254 -41.793  0.00  0.00    +0.000 OA
ATOM     18  H21 UNL     1      30.041 -12.015 -41.572  0.00  0.00    +0.000 HD
ENDBRANCH  15  17
BRANCH  16  19
ATOM     19  N5  UNL     1      28.186  -9.933 -42.128  0.00  0.00    +0.000 N 
ATOM     20  H22 UNL     1      28.072 -10.974 -42.104  0.00  0.00    +0.000 HD
BRANCH  19  21
ATOM     21  C24 UNL     1      27.203  -9.150 -42.826  0.00  0.00    +0.000 C 
ATOM     22  C25 UNL     1      25.826  -9.361 -42.629  0.00  0.00    +0.000 C 
ATOM     23  C26 UNL     1      24.887  -8.595 -43.329  0.00  0.00    +0.000 C 
ATOM     24  C27 UNL     1      25.314  -7.625 -44.239  0.00  0.00    +0.000 C 
ATOM     25  C28 UNL     1      26.678  -7.423 -44.458  0.00  0.00    +0.000 C 
ATOM     26  C29 UNL     1      27.620  -8.185 -43.758  0.00  0.00    +0.000 C 
ENDBRANCH  19  21
ENDBRANCH  16  19
ENDBRANCH   4   7
BRANCH   1  27
ATOM     27  O2  UNL     1      26.322 -10.125 -35.715  0.00  0.00    +0.000 OA
BRANCH  27  28
ATOM     28  C11 UNL     1      26.330  -9.473 -34.447  0.00  0.00    +0.000 C 
BRANCH  28  31
ATOM     29  N2  UNL     1      29.532  -8.003 -33.561  0.00  0.00    +0.000 N 
ATOM     30  C9  UNL     1      28.253  -7.839 -33.947  0.00  0.00    +0.000 C 
ATOM     31  C10 UNL     1      27.726  -9.107 -34.055  0.00  0.00    +0.000 C 
ATOM     32  N6  UNL     1      28.688  -9.998 -33.738  0.00  0.00    +0.000 NA
ATOM     33  N7  UNL     1      29.776  -9.298 -33.449  0.00  0.00    +0.000 NA
BRANCH  29  34
ATOM     34  C8  UNL     1      30.527  -6.953 -33.366  0.00  0.00    +0.000 C 
BRANCH  34  36
ATOM     35  N1  UNL     1      32.133  -8.136 -31.790  0.00  0.00    +0.000 N 
ATOM     36  C7  UNL     1      31.867  -7.562 -33.078  0.00  0.00    +0.000 C 
ATOM     37  O1  UNL     1      32.755  -7.561 -33.970  0.00  0.00    +0.000 OA
ATOM     38  H8  UNL     1      31.371  -8.164 -31.080  0.00  0.00    +0.000 HD
BRANCH  35  39
ATOM     39  C6  UNL     1      33.412  -8.760 -31.452  0.00  0.00    +0.000 C 
BRANCH  39  44
ATOM     40  C1  UNL     1      32.893 -14.556 -31.310  0.00  0.00    +0.000 C 
ATOM     41  C2  UNL     1      33.016 -13.062 -31.363  0.00  0.00    +0.000 C 
ATOM     42  C3  UNL     1      31.936 -12.243 -30.997  0.00  0.00    +0.000 C 
ATOM     43  C4  UNL     1      32.067 -10.851 -31.023  0.00  0.00    +0.000 C 
ATOM     44  C5  UNL     1      33.282 -10.260 -31.404  0.00  0.00    +0.000 C 
ATOM     45  C32 UNL     1      34.366 -11.081 -31.751  0.00  0.00    +0.000 C 
ATOM     46  C33 UNL     1      34.237 -12.473 -31.723  0.00  0.00    +0.000 C 
ENDBRANCH  39  44
ENDBRANCH  35  39
ENDBRANCH  34  36
ENDBRANCH  29  34
ENDBRANCH  28  31
ENDBRANCH  27  28
ENDBRANCH   1  27
TORSDOF 11
