REMARK  Name = resultss/4CJN/ligands/lig_180_t0.pdb
REMARK  4 active torsions:
REMARK  status: ('A' for Active; 'I' for Inactive)
REMARK    1  A    between atoms: C9_1  and  C1_17
REMARK    2  A    between atoms: C12_4  and  C13_7
REMARK    3  A    between atoms: N1_18  and  N2_20
REMARK    4  A    between atoms: C2_21  and  C3_22
REMARK                            x       y       z     vdW  Elec       q    Type
REMARK                         _______ _______ _______ _____ _____    ______ ____
ROOT
ATOM      1  C9  UNL     1      26.943  -9.361 -39.440  0.00  0.00    +0.000 C 
ATOM      2  C10 UNL     1      27.316  -9.342 -40.795  0.00  0.00    +0.000 C 
ATOM      3  C11 UNL     1      26.418  -8.905 -41.773  0.00  0.00    +0.000 C 
ATOM      4  C12 UNL     1      25.129  -8.470 -41.419  0.00  0.00    +0.000 C 
ATOM      5  C20 UNL     1      24.761  -8.477 -40.063  0.00  0.00    +0.000 C 
ATOM      6  C21 UNL     1      25.659  -8.913 -39.086  0.00  0.00    +0.000 C 
ENDROOT
BRANCH   4   7
ATOM      7  C13 UNL     1      24.186  -8.010 -42.465  0.00  0.00    +0.000 A 
ATOM      8  N3  UNL     1      22.877  -7.745 -42.218  0.00  0.00    +0.000 NA
ATOM      9  C14 UNL     1      22.232  -7.340 -43.343  0.00  0.00    +0.000 A 
ATOM     10  C15 UNL     1      20.879  -7.000 -43.397  0.00  0.00    +0.000 C 
ATOM     11  C16 UNL     1      20.334  -6.594 -44.628  0.00  0.00    +0.000 C 
ATOM     12  C17 UNL     1      21.142  -6.535 -45.782  0.00  0.00    +0.000 C 
ATOM     13  C18 UNL     1      22.501  -6.881 -45.715  0.00  0.00    +0.000 C 
ATOM     14  C19 UNL     1      23.015  -7.279 -44.483  0.00  0.00    +0.000 A 
ATOM     15  S1  UNL     1      24.579  -7.744 -44.097  0.00  0.00    +0.000 S 
ENDBRANCH   4   7
BRANCH   1  17
ATOM     16  O1  UNL     1      27.648 -10.886 -37.765  0.00  0.00    +0.000 OA
ATOM     17  C1  UNL     1      27.886  -9.816 -38.390  0.00  0.00    +0.000 C 
ATOM     18  N1  UNL     1      29.074  -9.076 -38.081  0.00  0.00    +0.000 N 
ATOM     19  H1  UNL     1      29.372  -8.284 -38.694  0.00  0.00    +0.000 HD
BRANCH  18  20
ATOM     20  N2  UNL     1      29.874  -9.459 -36.993  0.00  0.00    +0.000 NA
ATOM     21  C2  UNL     1      29.827  -8.837 -35.857  0.00  0.00    +0.000 C 
BRANCH  21  22
ATOM     22  C3  UNL     1      30.677  -9.254 -34.723  0.00  0.00    +0.000 C 
ATOM     23  C4  UNL     1      32.075  -9.211 -34.858  0.00  0.00    +0.000 C 
ATOM     24  C5  UNL     1      32.899  -9.601 -33.797  0.00  0.00    +0.000 C 
ATOM     25  C6  UNL     1      32.336 -10.036 -32.594  0.00  0.00    +0.000 C 
ATOM     26 CL1  UNL     1      33.373 -10.524 -31.265  0.00  0.00    +0.000 Cl
ATOM     27  C7  UNL     1      30.947 -10.081 -32.451  0.00  0.00    +0.000 C 
ATOM     28  C8  UNL     1      30.118  -9.692 -33.509  0.00  0.00    +0.000 C 
ENDBRANCH  21  22
ENDBRANCH  18  20
ENDBRANCH   1  17
TORSDOF 4
