REMARK  Name = resultss/4CJN/ligands/lig_165_t0.pdb
REMARK  6 active torsions:
REMARK  status: ('A' for Active; 'I' for Inactive)
REMARK    1  A    between atoms: C1_2  and  C9_5
REMARK    2  A    between atoms: N1_3  and  N2_20
REMARK    3  A    between atoms: C12_8  and  C13_11
REMARK    4  A    between atoms: C2_21  and  C3_22
REMARK    5  A    between atoms: C7_26  and  O2_28
REMARK    6  A    between atoms: C8_27  and  O3_30
REMARK                            x       y       z     vdW  Elec       q    Type
REMARK                         _______ _______ _______ _____ _____    ______ ____
ROOT
ATOM      1  O1  UNL     1      27.515 -10.170 -38.833  0.00  0.00    +0.000 OA
ATOM      2  C1  UNL     1      27.306  -8.955 -39.099  0.00  0.00    +0.000 C 
ATOM      3  N1  UNL     1      27.208  -8.011 -38.024  0.00  0.00    +0.000 N 
ATOM      4  H1  UNL     1      26.877  -7.038 -38.209  0.00  0.00    +0.000 HD
ENDROOT
BRANCH   2   5
ATOM      5  C9  UNL     1      27.149  -8.534 -40.512  0.00  0.00    +0.000 C 
ATOM      6  C10 UNL     1      26.938  -7.186 -40.852  0.00  0.00    +0.000 C 
ATOM      7  C11 UNL     1      26.798  -6.804 -42.190  0.00  0.00    +0.000 C 
ATOM      8  C12 UNL     1      26.871  -7.760 -43.219  0.00  0.00    +0.000 C 
ATOM      9  C20 UNL     1      27.094  -9.106 -42.879  0.00  0.00    +0.000 C 
ATOM     10  C21 UNL     1      27.235  -9.487 -41.542  0.00  0.00    +0.000 C 
BRANCH   8  11
ATOM     11  C13 UNL     1      26.720  -7.343 -44.633  0.00  0.00    +0.000 A 
ATOM     12  N3  UNL     1      25.516  -7.089 -45.207  0.00  0.00    +0.000 NA
ATOM     13  C14 UNL     1      25.655  -6.727 -46.509  0.00  0.00    +0.000 A 
ATOM     14  C15 UNL     1      24.592  -6.405 -47.355  0.00  0.00    +0.000 C 
ATOM     15  C16 UNL     1      24.874  -6.046 -48.685  0.00  0.00    +0.000 C 
ATOM     16  C17 UNL     1      26.204  -6.013 -49.150  0.00  0.00    +0.000 C 
ATOM     17  C18 UNL     1      27.265  -6.339 -48.289  0.00  0.00    +0.000 C 
ATOM     18  C19 UNL     1      26.958  -6.691 -46.977  0.00  0.00    +0.000 A 
ATOM     19  S1  UNL     1      27.996  -7.124 -45.734  0.00  0.00    +0.000 S 
ENDBRANCH   8  11
ENDBRANCH   2   5
BRANCH   3  20
ATOM     20  N2  UNL     1      27.496  -8.414 -36.711  0.00  0.00    +0.000 NA
ATOM     21  C2  UNL     1      28.594  -8.072 -36.115  0.00  0.00    +0.000 C 
BRANCH  21  22
ATOM     22  C3  UNL     1      28.852  -8.446 -34.708  0.00  0.00    +0.000 C 
ATOM     23  C4  UNL     1      29.888  -9.362 -34.458  0.00  0.00    +0.000 C 
ATOM     24  C5  UNL     1      30.240  -9.700 -33.151  0.00  0.00    +0.000 C 
ATOM     25  C6  UNL     1      29.559  -9.133 -32.075  0.00  0.00    +0.000 C 
ATOM     26  C7  UNL     1      28.503  -8.242 -32.300  0.00  0.00    +0.000 C 
ATOM     27  C8  UNL     1      28.126  -7.909 -33.611  0.00  0.00    +0.000 C 
BRANCH  26  28
ATOM     28  O2  UNL     1      27.808  -7.692 -31.224  0.00  0.00    +0.000 OA
ATOM     29  H6  UNL     1      26.829  -7.438 -31.299  0.00  0.00    +0.000 HD
ENDBRANCH  26  28
BRANCH  27  30
ATOM     30  O3  UNL     1      27.014  -7.080 -33.780  0.00  0.00    +0.000 OA
ATOM     31  H7  UNL     1      26.551  -6.604 -33.019  0.00  0.00    +0.000 HD
ENDBRANCH  27  30
ENDBRANCH  21  22
ENDBRANCH   3  20
TORSDOF 6
