REMARK  Name = resultss/4CJN/ligands/lig_169_t2.pdb
REMARK  4 active torsions:
REMARK  status: ('A' for Active; 'I' for Inactive)
REMARK    1  A    between atoms: C9_1  and  C1_17
REMARK    2  A    between atoms: C12_4  and  C13_7
REMARK    3  A    between atoms: N1_18  and  N2_20
REMARK    4  A    between atoms: C2_21  and  C3_22
REMARK                            x       y       z     vdW  Elec       q    Type
REMARK                         _______ _______ _______ _____ _____    ______ ____
ROOT
ATOM      1  C9  UNL     1      29.825 -10.045 -40.205  0.00  0.00    +0.000 C 
ATOM      2  C10 UNL     1      29.168 -10.813 -41.182  0.00  0.00    +0.000 C 
ATOM      3  C11 UNL     1      29.869 -11.312 -42.284  0.00  0.00    +0.000 C 
ATOM      4  C12 UNL     1      31.242 -11.049 -42.438  0.00  0.00    +0.000 C 
ATOM      5  C20 UNL     1      31.895 -10.272 -41.467  0.00  0.00    +0.000 C 
ATOM      6  C21 UNL     1      31.194  -9.772 -40.366  0.00  0.00    +0.000 C 
ENDROOT
BRANCH   4   7
ATOM      7  C13 UNL     1      31.994 -11.575 -43.601  0.00  0.00    +0.000 A 
ATOM      8  N3  UNL     1      31.759 -12.795 -44.146  0.00  0.00    +0.000 NA
ATOM      9  C14 UNL     1      32.582 -13.036 -45.199  0.00  0.00    +0.000 A 
ATOM     10  C15 UNL     1      32.572 -14.208 -45.957  0.00  0.00    +0.000 C 
ATOM     11  C16 UNL     1      33.479 -14.330 -47.024  0.00  0.00    +0.000 C 
ATOM     12  C17 UNL     1      34.380 -13.285 -47.319  0.00  0.00    +0.000 C 
ATOM     13  C18 UNL     1      34.380 -12.112 -46.550  0.00  0.00    +0.000 C 
ATOM     14  C19 UNL     1      33.471 -12.017 -45.498  0.00  0.00    +0.000 A 
ATOM     15  S1  UNL     1      33.240 -10.756 -44.419  0.00  0.00    +0.000 S 
ENDBRANCH   4   7
BRANCH   1  17
ATOM     16  O1  UNL     1      28.891  -8.261 -38.950  0.00  0.00    +0.000 OA
ATOM     17  C1  UNL     1      29.094  -9.503 -39.033  0.00  0.00    +0.000 C 
ATOM     18  N1  UNL     1      28.627 -10.360 -37.984  0.00  0.00    +0.000 N 
ATOM     19  H1  UNL     1      28.925 -11.361 -37.952  0.00  0.00    +0.000 HD
BRANCH  18  20
ATOM     20  N2  UNL     1      27.824  -9.837 -36.958  0.00  0.00    +0.000 NA
ATOM     21  C2  UNL     1      26.583  -9.514 -37.158  0.00  0.00    +0.000 C 
BRANCH  21  22
ATOM     22  C3  UNL     1      25.747  -8.960 -36.070  0.00  0.00    +0.000 C 
ATOM     23  C4  UNL     1      26.170  -9.223 -34.636  0.00  0.00    +0.000 C 
ATOM     24  C5  UNL     1      24.979  -9.271 -33.665  0.00  0.00    +0.000 C 
ATOM     25  C6  UNL     1      24.067  -8.101 -33.882  0.00  0.00    +0.000 C 
ATOM     26  O2  UNL     1      23.418  -7.611 -32.920  0.00  0.00    +0.000 OA
ATOM     27  C7  UNL     1      23.885  -7.590 -35.247  0.00  0.00    +0.000 C 
ATOM     28  O3  UNL     1      23.025  -6.703 -35.491  0.00  0.00    +0.000 OA
ATOM     29  C8  UNL     1      24.711  -8.141 -36.333  0.00  0.00    +0.000 C 
ENDBRANCH  21  22
ENDBRANCH  18  20
ENDBRANCH   1  17
TORSDOF 4
