REMARK  Name = resultss/4CJN/ligands/lig_371_t0.pdb
REMARK  6 active torsions:
REMARK  status: ('A' for Active; 'I' for Inactive)
REMARK    1  A    between atoms: C10_1  and  C9_13
REMARK    2  A    between atoms: C10_1  and  C17_16
REMARK    3  A    between atoms: C10_1  and  C11_30
REMARK    4  A    between atoms: C1_2  and  O1_14
REMARK    5  A    between atoms: C25_27  and  O7_28
REMARK    6  A    between atoms: C15_34  and  O4_36
REMARK                            x       y       z     vdW  Elec       q    Type
REMARK                         _______ _______ _______ _____ _____    ______ ____
ROOT
ATOM      1  C10 UNL     1      28.370  -8.353 -40.285  0.00  0.00    +0.000 C 
ENDROOT
BRANCH   1  13
ATOM      2  C1  UNL     1      27.851 -10.156 -38.487  0.00  0.00    +0.000 A 
ATOM      3  O2  UNL     1      27.410 -10.487 -37.277  0.00  0.00    +0.000 OA
ATOM      4  C2  UNL     1      27.014  -9.595 -36.379  0.00  0.00    +0.000 A 
ATOM      5  C3  UNL     1      26.550 -10.030 -35.133  0.00  0.00    +0.000 C 
ATOM      6  C4  UNL     1      26.138  -9.103 -34.175  0.00  0.00    +0.000 C 
ATOM      7  C5  UNL     1      26.197  -7.732 -34.451  0.00  0.00    +0.000 C 
ATOM      8 CL1  UNL     1      25.685  -6.568 -33.237  0.00  0.00    +0.000 Cl
ATOM      9  C6  UNL     1      26.660  -7.288 -35.693  0.00  0.00    +0.000 C 
ATOM     10  C7  UNL     1      27.067  -8.218 -36.671  0.00  0.00    +0.000 A 
ATOM     11  C8  UNL     1      27.524  -7.823 -37.939  0.00  0.00    +0.000 A 
ATOM     12  O3  UNL     1      27.611  -6.596 -38.222  0.00  0.00    +0.000 OA
ATOM     13  C9  UNL     1      27.895  -8.798 -38.893  0.00  0.00    +0.000 A 
BRANCH   2  14
ATOM     14  O1  UNL     1      28.288 -11.175 -39.331  0.00  0.00    +0.000 OA
ATOM     15  H1  UNL     1      28.221 -12.140 -39.050  0.00  0.00    +0.000 HD
ENDBRANCH   2  14
ENDBRANCH   1  13
BRANCH   1  16
ATOM     16  C17 UNL     1      29.695  -8.976 -40.753  0.00  0.00    +0.000 A 
ATOM     17  C18 UNL     1      29.766  -9.972 -41.762  0.00  0.00    +0.000 A 
ATOM     18  O5  UNL     1      28.723 -10.363 -42.362  0.00  0.00    +0.000 OA
ATOM     19  C19 UNL     1      31.009 -10.521 -42.118  0.00  0.00    +0.000 A 
ATOM     20  C20 UNL     1      31.128 -11.559 -43.064  0.00  0.00    +0.000 C 
ATOM     21  C21 UNL     1      32.387 -12.070 -43.395  0.00  0.00    +0.000 C 
ATOM     22 CL2  UNL     1      32.524 -13.390 -44.545  0.00  0.00    +0.000 Cl
ATOM     23  C22 UNL     1      33.536 -11.543 -42.794  0.00  0.00    +0.000 C 
ATOM     24  C23 UNL     1      33.428 -10.516 -41.852  0.00  0.00    +0.000 C 
ATOM     25  C24 UNL     1      32.170 -10.009 -41.506  0.00  0.00    +0.000 A 
ATOM     26  O6  UNL     1      32.082  -9.042 -40.605  0.00  0.00    +0.000 OA
ATOM     27  C25 UNL     1      30.929  -8.511 -40.212  0.00  0.00    +0.000 A 
BRANCH  27  28
ATOM     28  O7  UNL     1      30.996  -7.477 -39.275  0.00  0.00    +0.000 OA
ATOM     29  H14 UNL     1      30.555  -6.569 -39.387  0.00  0.00    +0.000 HD
ENDBRANCH  27  28
ENDBRANCH   1  16
BRANCH   1  30
ATOM     30  C11 UNL     1      27.280  -8.402 -41.348  0.00  0.00    +0.000 C 
ATOM     31  C12 UNL     1      27.328  -7.488 -42.417  0.00  0.00    +0.000 C 
ATOM     32  C13 UNL     1      26.346  -7.507 -43.411  0.00  0.00    +0.000 C 
ATOM     33  C14 UNL     1      25.298  -8.429 -43.346  0.00  0.00    +0.000 C 
ATOM     34  C15 UNL     1      25.225  -9.334 -42.284  0.00  0.00    +0.000 C 
ATOM     35  C16 UNL     1      26.210  -9.322 -41.286  0.00  0.00    +0.000 C 
BRANCH  34  36
ATOM     36  O4  UNL     1      24.165 -10.239 -42.229  0.00  0.00    +0.000 OA
ATOM     37  H9  UNL     1      23.988 -10.898 -42.978  0.00  0.00    +0.000 HD
ENDBRANCH  34  36
ENDBRANCH   1  30
TORSDOF 6
