REMARK  Name = resultss/4CJN/ligands/lig_340_t1.pdb
REMARK  12 active torsions:
REMARK  status: ('A' for Active; 'I' for Inactive)
REMARK    1  A    between atoms: C11_1  and  O3_29
REMARK    2  A    between atoms: C14_4  and  C15_7
REMARK    3  A    between atoms: C30_6  and  O5_27
REMARK    4  A    between atoms: N4_17  and  N5_19
REMARK    5  A    between atoms: N5_19  and  C23_21
REMARK    6  A    between atoms: O3_29  and  C10_30
REMARK    7  A    between atoms: C10_30  and  C9_33
REMARK    8  A    between atoms: N2_31  and  C7_36
REMARK    9  A    between atoms: C7_36  and  C6_38
REMARK   10  A    between atoms: N1_37  and  C5_42
REMARK   11  A    between atoms: C6_38  and  O2_47
REMARK   12  A    between atoms: C2_39  and  O1_46
REMARK                            x       y       z     vdW  Elec       q    Type
REMARK                         _______ _______ _______ _____ _____    ______ ____
ROOT
ATOM      1  C11 UNL     1      28.443  -9.455 -38.850  0.00  0.00    +0.000 C 
ATOM      2  C12 UNL     1      27.746  -9.928 -37.723  0.00  0.00    +0.000 C 
ATOM      3  C13 UNL     1      27.261  -9.037 -36.767  0.00  0.00    +0.000 C 
ATOM      4  C14 UNL     1      27.435  -7.651 -36.927  0.00  0.00    +0.000 C 
ATOM      5  C29 UNL     1      28.149  -7.180 -38.042  0.00  0.00    +0.000 C 
ATOM      6  C30 UNL     1      28.654  -8.076 -39.006  0.00  0.00    +0.000 C 
ENDROOT
BRANCH   4   7
ATOM      7  C15 UNL     1      26.924  -6.672 -35.891  0.00  0.00    +0.000 C 
ATOM      8  N3  UNL     1      25.462  -6.554 -35.959  0.00  0.00    +0.000 N 
ATOM      9  C16 UNL     1      24.586  -7.318 -35.115  0.00  0.00    +0.000 C 
ATOM     10  C17 UNL     1      23.215  -7.391 -35.404  0.00  0.00    +0.000 C 
ATOM     11  C18 UNL     1      22.370  -8.170 -34.609  0.00  0.00    +0.000 C 
ATOM     12  C19 UNL     1      22.885  -8.873 -33.517  0.00  0.00    +0.000 C 
ATOM     13  C20 UNL     1      24.248  -8.799 -33.215  0.00  0.00    +0.000 C 
ATOM     14  C21 UNL     1      25.104  -8.019 -34.013  0.00  0.00    +0.000 C 
ATOM     15  C22 UNL     1      26.539  -7.897 -33.714  0.00  0.00    +0.000 C 
ATOM     16  O4  UNL     1      27.038  -8.495 -32.722  0.00  0.00    +0.000 OA
ATOM     17  N4  UNL     1      27.370  -7.072 -34.550  0.00  0.00    +0.000 N 
ATOM     18  H15 UNL     1      25.055  -6.010 -36.755  0.00  0.00    +0.000 HD
BRANCH  17  19
ATOM     19  N5  UNL     1      28.688  -6.774 -34.157  0.00  0.00    +0.000 N 
ATOM     20  H20 UNL     1      28.835  -6.132 -33.344  0.00  0.00    +0.000 HD
BRANCH  19  21
ATOM     21  C23 UNL     1      29.823  -7.479 -34.686  0.00  0.00    +0.000 C 
ATOM     22  C24 UNL     1      30.735  -6.852 -35.555  0.00  0.00    +0.000 C 
ATOM     23  C25 UNL     1      31.801  -7.574 -36.102  0.00  0.00    +0.000 C 
ATOM     24  C26 UNL     1      31.954  -8.931 -35.802  0.00  0.00    +0.000 C 
ATOM     25  C27 UNL     1      31.053  -9.563 -34.945  0.00  0.00    +0.000 C 
ATOM     26  C28 UNL     1      29.987  -8.844 -34.393  0.00  0.00    +0.000 C 
ENDBRANCH  19  21
ENDBRANCH  17  19
ENDBRANCH   4   7
BRANCH   6  27
ATOM     27  O5  UNL     1      29.372  -7.636 -40.129  0.00  0.00    +0.000 OA
ATOM     28  C31 UNL     1      30.678  -7.069 -40.081  0.00  0.00    +0.000 C 
ENDBRANCH   6  27
BRANCH   1  29
ATOM     29  O3  UNL     1      28.946 -10.324 -39.832  0.00  0.00    +0.000 OA
BRANCH  29  30
ATOM     30  C10 UNL     1      28.137 -11.176 -40.640  0.00  0.00    +0.000 C 
BRANCH  30  33
ATOM     31  N2  UNL     1      25.279  -9.499 -42.105  0.00  0.00    +0.000 N 
ATOM     32  C8  UNL     1      25.774 -10.364 -41.205  0.00  0.00    +0.000 C 
ATOM     33  C9  UNL     1      27.138 -10.355 -41.383  0.00  0.00    +0.000 C 
ATOM     34  N6  UNL     1      27.435  -9.513 -42.392  0.00  0.00    +0.000 NA
ATOM     35  N7  UNL     1      26.284  -9.005 -42.812  0.00  0.00    +0.000 NA
BRANCH  31  36
ATOM     36  C7  UNL     1      23.871  -9.193 -42.336  0.00  0.00    +0.000 C 
BRANCH  36  38
ATOM     37  N1  UNL     1      23.275  -6.816 -42.713  0.00  0.00    +0.000 NA
ATOM     38  C6  UNL     1      23.569  -7.784 -41.890  0.00  0.00    +0.000 C 
BRANCH  37  42
ATOM     39  C2  UNL     1      22.641  -7.190 -46.895  0.00  0.00    +0.000 C 
ATOM     40  C3  UNL     1      23.940  -7.326 -46.364  0.00  0.00    +0.000 C 
ATOM     41  C4  UNL     1      24.154  -7.199 -44.990  0.00  0.00    +0.000 C 
ATOM     42  C5  UNL     1      23.082  -6.914 -44.129  0.00  0.00    +0.000 C 
ATOM     43  C32 UNL     1      21.789  -6.822 -44.650  0.00  0.00    +0.000 C 
ATOM     44  C33 UNL     1      21.572  -6.947 -46.026  0.00  0.00    +0.000 C 
BRANCH  39  46
ATOM     45  C1  UNL     1      21.555  -6.373 -48.993  0.00  0.00    +0.000 C 
ATOM     46  O1  UNL     1      22.373  -7.287 -48.268  0.00  0.00    +0.000 OA
ENDBRANCH  39  46
ENDBRANCH  37  42
BRANCH  38  47
ATOM     47  O2  UNL     1      23.662  -7.501 -40.530  0.00  0.00    +0.000 OA
ATOM     48  H6  UNL     1      23.174  -6.711 -40.124  0.00  0.00    +0.000 HD
ENDBRANCH  38  47
ENDBRANCH  36  38
ENDBRANCH  31  36
ENDBRANCH  30  33
ENDBRANCH  29  30
ENDBRANCH   1  29
TORSDOF 12
