REMARK  Name = resultss/4CJN/ligands/lig_424_t0.pdb
REMARK  7 active torsions:
REMARK  status: ('A' for Active; 'I' for Inactive)
REMARK    1  A    between atoms: C10_1  and  C9_22
REMARK    2  A    between atoms: C20_12  and  C21_15
REMARK    3  A    between atoms: N3_21  and  N2_25
REMARK    4  A    between atoms: N2_25  and  C8_27
REMARK    5  A    between atoms: C8_27  and  N1_29
REMARK    6  A    between atoms: N1_29  and  C7_36
REMARK    7  A    between atoms: C2_31  and  O1_38
REMARK                            x       y       z     vdW  Elec       q    Type
REMARK                         _______ _______ _______ _____ _____    ______ ____
ROOT
ATOM      1  C10 UNL     1      25.692  -8.279 -38.148  0.00  0.00    +0.000 C 
ATOM      2  C11 UNL     1      27.074  -8.553 -38.053  0.00  0.00    +0.000 C 
ATOM      3  C12 UNL     1      27.612  -8.674 -36.777  0.00  0.00    +0.000 A 
ATOM      4  C13 UNL     1      26.845  -8.527 -35.642  0.00  0.00    +0.000 A 
ATOM      5  N4  UNL     1      27.575  -8.750 -34.522  0.00  0.00    +0.000 N 
ATOM      6  C14 UNL     1      28.820  -9.020 -34.971  0.00  0.00    +0.000 A 
ATOM      7  C15 UNL     1      29.942  -9.330 -34.203  0.00  0.00    +0.000 C 
ATOM      8  C16 UNL     1      31.148  -9.597 -34.877  0.00  0.00    +0.000 C 
ATOM      9  C17 UNL     1      31.206  -9.558 -36.289  0.00  0.00    +0.000 C 
ATOM     10  C18 UNL     1      30.060  -9.249 -37.043  0.00  0.00    +0.000 C 
ATOM     11  C19 UNL     1      28.882  -8.983 -36.348  0.00  0.00    +0.000 A 
ATOM     12  C20 UNL     1      25.479  -8.235 -35.748  0.00  0.00    +0.000 C 
ATOM     13  N5  UNL     1      24.949  -8.131 -37.005  0.00  0.00    +0.000 NA
ATOM     14  H12 UNL     1      27.254  -8.751 -33.530  0.00  0.00    +0.000 HD
ENDROOT
BRANCH  12  15
ATOM     15  C21 UNL     1      24.603  -8.040 -34.574  0.00  0.00    +0.000 C 
ATOM     16  C22 UNL     1      24.054  -6.778 -34.282  0.00  0.00    +0.000 C 
ATOM     17  C23 UNL     1      23.204  -6.616 -33.183  0.00  0.00    +0.000 C 
ATOM     18  C24 UNL     1      22.885  -7.711 -32.377  0.00  0.00    +0.000 C 
ATOM     19  C25 UNL     1      23.409  -8.972 -32.672  0.00  0.00    +0.000 C 
ATOM     20  C26 UNL     1      24.259  -9.139 -33.770  0.00  0.00    +0.000 C 
ENDBRANCH  12  15
BRANCH   1  22
ATOM     21  N3  UNL     1      24.373  -9.256 -40.071  0.00  0.00    +0.000 N 
ATOM     22  C9  UNL     1      25.037  -8.136 -39.464  0.00  0.00    +0.000 C 
ATOM     23  O2  UNL     1      25.075  -7.028 -40.066  0.00  0.00    +0.000 OA
ATOM     24  H10 UNL     1      24.634 -10.221 -39.768  0.00  0.00    +0.000 HD
BRANCH  21  25
ATOM     25  N2  UNL     1      23.544  -9.118 -41.198  0.00  0.00    +0.000 N 
ATOM     26  H9  UNL     1      22.512  -9.040 -41.049  0.00  0.00    +0.000 HD
BRANCH  25  27
ATOM     27  C8  UNL     1      24.065  -8.920 -42.520  0.00  0.00    +0.000 C 
ATOM     28  S1  UNL     1      23.562  -7.615 -43.381  0.00  0.00    +0.000 S 
BRANCH  27  29
ATOM     29  N1  UNL     1      25.185  -9.700 -42.976  0.00  0.00    +0.000 N 
ATOM     30  H8  UNL     1      24.996 -10.668 -43.319  0.00  0.00    +0.000 HD
BRANCH  29  36
ATOM     31  C2  UNL     1      27.388  -9.772 -41.829  0.00  0.00    +0.000 C 
ATOM     32  C3  UNL     1      28.724  -9.329 -41.756  0.00  0.00    +0.000 C 
ATOM     33  C4  UNL     1      29.212  -8.398 -42.676  0.00  0.00    +0.000 C 
ATOM     34  C5  UNL     1      28.375  -7.893 -43.672  0.00  0.00    +0.000 C 
ATOM     35  C6  UNL     1      27.052  -8.329 -43.760  0.00  0.00    +0.000 C 
ATOM     36  C7  UNL     1      26.556  -9.284 -42.861  0.00  0.00    +0.000 C 
BRANCH  31  38
ATOM     37  C1  UNL     1      27.628 -11.510 -40.043  0.00  0.00    +0.000 C 
ATOM     38  O1  UNL     1      26.853 -10.668 -40.889  0.00  0.00    +0.000 OA
ENDBRANCH  31  38
ENDBRANCH  29  36
ENDBRANCH  27  29
ENDBRANCH  25  27
ENDBRANCH  21  25
ENDBRANCH   1  22
TORSDOF 7
