REMARK  Name = resultss/4CJN/ligands/lig_423_t0.pdb
REMARK  8 active torsions:
REMARK  status: ('A' for Active; 'I' for Inactive)
REMARK    1  A    between atoms: C1_2  and  C10_5
REMARK    2  A    between atoms: N1_3  and  N2_25
REMARK    3  A    between atoms: C20_16  and  C21_19
REMARK    4  A    between atoms: N2_25  and  C2_27
REMARK    5  A    between atoms: C2_27  and  N3_29
REMARK    6  A    between atoms: N3_29  and  C3_31
REMARK    7  A    between atoms: C6_34  and  O2_37
REMARK    8  A    between atoms: O2_37  and  C7_38
REMARK                            x       y       z     vdW  Elec       q    Type
REMARK                         _______ _______ _______ _____ _____    ______ ____
ROOT
ATOM      1  O1  UNL     1      27.345 -10.403 -36.080  0.00  0.00    +0.000 OA
ATOM      2  C1  UNL     1      28.288  -9.978 -36.802  0.00  0.00    +0.000 C 
ATOM      3  N1  UNL     1      29.545  -9.630 -36.201  0.00  0.00    +0.000 N 
ATOM      4  H1  UNL     1      30.399  -9.600 -36.801  0.00  0.00    +0.000 HD
ENDROOT
BRANCH   2   5
ATOM      5  C10 UNL     1      28.100  -9.860 -38.263  0.00  0.00    +0.000 C 
ATOM      6  C11 UNL     1      26.873  -9.417 -38.801  0.00  0.00    +0.000 C 
ATOM      7  C12 UNL     1      26.775  -9.339 -40.185  0.00  0.00    +0.000 A 
ATOM      8  C13 UNL     1      27.826  -9.671 -41.012  0.00  0.00    +0.000 A 
ATOM      9  N4  UNL     1      27.473  -9.577 -42.317  0.00  0.00    +0.000 N 
ATOM     10  C14 UNL     1      26.187  -9.162 -42.298  0.00  0.00    +0.000 A 
ATOM     11  C15 UNL     1      25.363  -8.925 -43.397  0.00  0.00    +0.000 C 
ATOM     12  C16 UNL     1      24.040  -8.514 -43.153  0.00  0.00    +0.000 C 
ATOM     13  C17 UNL     1      23.571  -8.353 -41.829  0.00  0.00    +0.000 C 
ATOM     14  C18 UNL     1      24.419  -8.603 -40.735  0.00  0.00    +0.000 C 
ATOM     15  C19 UNL     1      25.725  -9.004 -41.009  0.00  0.00    +0.000 A 
ATOM     16  C20 UNL     1      29.045 -10.093 -40.467  0.00  0.00    +0.000 C 
ATOM     17  N5  UNL     1      29.133 -10.181 -39.105  0.00  0.00    +0.000 NA
ATOM     18  H9  UNL     1      28.042  -9.808 -43.161  0.00  0.00    +0.000 HD
BRANCH  16  19
ATOM     19  C21 UNL     1      30.218 -10.446 -41.294  0.00  0.00    +0.000 C 
ATOM     20  C22 UNL     1      31.454  -9.804 -41.110  0.00  0.00    +0.000 C 
ATOM     21  C23 UNL     1      32.561 -10.167 -41.883  0.00  0.00    +0.000 C 
ATOM     22  C24 UNL     1      32.446 -11.183 -42.836  0.00  0.00    +0.000 C 
ATOM     23  C25 UNL     1      31.227 -11.842 -43.011  0.00  0.00    +0.000 C 
ATOM     24  C26 UNL     1      30.118 -11.481 -42.239  0.00  0.00    +0.000 C 
ENDBRANCH  16  19
ENDBRANCH   2   5
BRANCH   3  25
ATOM     25  N2  UNL     1      29.718  -9.577 -34.805  0.00  0.00    +0.000 N 
ATOM     26  H2  UNL     1      29.768 -10.477 -34.277  0.00  0.00    +0.000 HD
BRANCH  25  27
ATOM     27  C2  UNL     1      29.951  -8.352 -34.093  0.00  0.00    +0.000 C 
ATOM     28  S1  UNL     1      31.485  -7.932 -33.672  0.00  0.00    +0.000 S 
BRANCH  27  29
ATOM     29  N3  UNL     1      28.835  -7.680 -33.487  0.00  0.00    +0.000 N 
ATOM     30  H3  UNL     1      29.011  -7.139 -32.611  0.00  0.00    +0.000 HD
BRANCH  29  31
ATOM     31  C3  UNL     1      27.493  -7.713 -34.001  0.00  0.00    +0.000 C 
ATOM     32  C4  UNL     1      27.133  -6.992 -35.153  0.00  0.00    +0.000 C 
ATOM     33  C5  UNL     1      25.830  -7.065 -35.653  0.00  0.00    +0.000 C 
ATOM     34  C6  UNL     1      24.869  -7.868 -35.027  0.00  0.00    +0.000 C 
ATOM     35  C8  UNL     1      25.235  -8.606 -33.884  0.00  0.00    +0.000 C 
ATOM     36  C9  UNL     1      26.538  -8.533 -33.384  0.00  0.00    +0.000 C 
BRANCH  34  37
ATOM     37  O2  UNL     1      23.577  -7.904 -35.574  0.00  0.00    +0.000 OA
BRANCH  37  38
ATOM     38  C7  UNL     1      22.366  -7.740 -34.839  0.00  0.00    +0.000 C 
ATOM     39  F1  UNL     1      22.543  -6.809 -33.831  0.00  0.00    +0.000 F 
ATOM     40  F2  UNL     1      21.347  -7.336 -35.682  0.00  0.00    +0.000 F 
ATOM     41  F3  UNL     1      22.020  -8.950 -34.270  0.00  0.00    +0.000 F 
ENDBRANCH  37  38
ENDBRANCH  34  37
ENDBRANCH  29  31
ENDBRANCH  27  29
ENDBRANCH  25  27
ENDBRANCH   3  25
TORSDOF 8
