REMARK  Name = resultss/4CJN/ligands/lig_337_t2.pdb
REMARK  12 active torsions:
REMARK  status: ('A' for Active; 'I' for Inactive)
REMARK    1  A    between atoms: C2_1  and  O1_28
REMARK    2  A    between atoms: C4_3  and  C5_7
REMARK    3  A    between atoms: C21_6  and  O3_29
REMARK    4  A    between atoms: C12_15  and  O2_17
REMARK    5  A    between atoms: N2_16  and  N3_19
REMARK    6  A    between atoms: N3_19  and  C13_21
REMARK    7  A    between atoms: O3_29  and  C22_30
REMARK    8  A    between atoms: C22_30  and  C23_31
REMARK    9  A    between atoms: N4_33  and  C25_36
REMARK   10  A    between atoms: C25_36  and  C26_37
REMARK   11  A    between atoms: N5_39  and  C27_41
REMARK   12  A    between atoms: C30_44  and  N6_47
REMARK                            x       y       z     vdW  Elec       q    Type
REMARK                         _______ _______ _______ _____ _____    ______ ____
ROOT
ATOM      1  C2  UNL     1      26.030  -7.794 -40.164  0.00  0.00    +0.000 C 
ATOM      2  C3  UNL     1      25.669  -6.834 -41.128  0.00  0.00    +0.000 C 
ATOM      3  C4  UNL     1      25.357  -7.225 -42.443  0.00  0.00    +0.000 C 
ATOM      4  C19 UNL     1      25.369  -8.591 -42.778  0.00  0.00    +0.000 C 
ATOM      5  C20 UNL     1      25.716  -9.548 -41.820  0.00  0.00    +0.000 C 
ATOM      6  C21 UNL     1      26.056  -9.154 -40.518  0.00  0.00    +0.000 C 
ENDROOT
BRANCH   3   7
ATOM      7  C5  UNL     1      24.997  -6.187 -43.481  0.00  0.00    +0.000 C 
ATOM      8  N1  UNL     1      23.667  -6.470 -44.011  0.00  0.00    +0.000 NA
ATOM      9  C6  UNL     1      23.393  -6.762 -45.250  0.00  0.00    +0.000 C 
ATOM     10  C7  UNL     1      22.056  -7.009 -45.591  0.00  0.00    +0.000 C 
ATOM     11  C8  UNL     1      21.705  -7.319 -46.905  0.00  0.00    +0.000 C 
ATOM     12  C9  UNL     1      22.689  -7.397 -47.890  0.00  0.00    +0.000 C 
ATOM     13  C10 UNL     1      24.030  -7.156 -47.569  0.00  0.00    +0.000 C 
ATOM     14  C11 UNL     1      24.409  -6.827 -46.241  0.00  0.00    +0.000 C 
ATOM     15  C12 UNL     1      25.694  -6.558 -45.897  0.00  0.00    +0.000 C 
ATOM     16  N2  UNL     1      26.006  -6.170 -44.547  0.00  0.00    +0.000 N 
BRANCH  15  17
ATOM     17  O2  UNL     1      26.753  -6.606 -46.815  0.00  0.00    +0.000 OA
ATOM     18  H10 UNL     1      26.679  -6.786 -47.804  0.00  0.00    +0.000 HD
ENDBRANCH  15  17
BRANCH  16  19
ATOM     19  N3  UNL     1      27.343  -5.883 -44.212  0.00  0.00    +0.000 N 
ATOM     20  H11 UNL     1      27.699  -4.908 -44.378  0.00  0.00    +0.000 HD
BRANCH  19  21
ATOM     21  C13 UNL     1      28.183  -6.839 -43.548  0.00  0.00    +0.000 C 
ATOM     22  C14 UNL     1      28.756  -6.516 -42.310  0.00  0.00    +0.000 C 
ATOM     23  C15 UNL     1      29.540  -7.455 -41.628  0.00  0.00    +0.000 C 
ATOM     24  C16 UNL     1      29.745  -8.723 -42.173  0.00  0.00    +0.000 C 
ATOM     25  C17 UNL     1      29.165  -9.058 -43.401  0.00  0.00    +0.000 C 
ATOM     26  C18 UNL     1      28.385  -8.122 -44.086  0.00  0.00    +0.000 C 
ENDBRANCH  19  21
ENDBRANCH  16  19
ENDBRANCH   3   7
BRANCH   1  28
ATOM     27  C1  UNL     1      27.332  -6.474 -38.478  0.00  0.00    +0.000 C 
ATOM     28  O1  UNL     1      26.352  -7.442 -38.844  0.00  0.00    +0.000 OA
ENDBRANCH   1  28
BRANCH   6  29
ATOM     29  O3  UNL     1      26.430 -10.112 -39.571  0.00  0.00    +0.000 OA
BRANCH  29  30
ATOM     30  C22 UNL     1      27.633 -10.873 -39.696  0.00  0.00    +0.000 C 
BRANCH  30  31
ATOM     31  C23 UNL     1      28.655 -10.368 -38.727  0.00  0.00    +0.000 C 
ATOM     32  C24 UNL     1      28.525 -10.299 -37.357  0.00  0.00    +0.000 C 
ATOM     33  N4  UNL     1      29.702  -9.844 -36.900  0.00  0.00    +0.000 N 
ATOM     34  N7  UNL     1      30.525  -9.687 -37.924  0.00  0.00    +0.000 NA
ATOM     35  N8  UNL     1      29.915 -10.007 -39.056  0.00  0.00    +0.000 NA
BRANCH  33  36
ATOM     36  C25 UNL     1      30.074  -9.633 -35.509  0.00  0.00    +0.000 C 
BRANCH  36  37
ATOM     37  C26 UNL     1      28.873  -9.206 -34.723  0.00  0.00    +0.000 C 
ATOM     38  O4  UNL     1      28.367 -10.004 -33.890  0.00  0.00    +0.000 OA
ATOM     39  N5  UNL     1      28.318  -7.900 -34.919  0.00  0.00    +0.000 N 
ATOM     40  H24 UNL     1      28.954  -7.158 -35.278  0.00  0.00    +0.000 HD
BRANCH  39  41
ATOM     41  C27 UNL     1      26.993  -7.505 -34.516  0.00  0.00    +0.000 C 
ATOM     42  C28 UNL     1      25.893  -7.953 -35.259  0.00  0.00    +0.000 C 
ATOM     43  C29 UNL     1      24.589  -7.618 -34.885  0.00  0.00    +0.000 C 
ATOM     44  C30 UNL     1      24.360  -6.829 -33.745  0.00  0.00    +0.000 C 
ATOM     45  C31 UNL     1      25.460  -6.401 -32.982  0.00  0.00    +0.000 C 
ATOM     46  C32 UNL     1      26.764  -6.739 -33.361  0.00  0.00    +0.000 C 
BRANCH  44  47
ATOM     47  N6  UNL     1      23.023  -6.482 -33.347  0.00  0.00    +0.000 N 
ATOM     48  O5  UNL     1      22.753  -6.284 -32.144  0.00  0.00    +0.000 OA
ATOM     49  O6  UNL     1      22.017  -6.375 -34.284  0.00  0.00    +0.000 OA
ENDBRANCH  44  47
ENDBRANCH  39  41
ENDBRANCH  36  37
ENDBRANCH  33  36
ENDBRANCH  30  31
ENDBRANCH  29  30
ENDBRANCH   6  29
TORSDOF 12
