REMARK  Name = resultss/4CJN/ligands/lig_433_t0.pdb
REMARK  6 active torsions:
REMARK  status: ('A' for Active; 'I' for Inactive)
REMARK    1  A    between atoms: C9_1  and  C1_22
REMARK    2  A    between atoms: C19_12  and  C20_15
REMARK    3  A    between atoms: N1_23  and  N2_25
REMARK    4  A    between atoms: N2_25  and  C2_27
REMARK    5  A    between atoms: C2_27  and  N3_29
REMARK    6  A    between atoms: N3_29  and  C3_31
REMARK                            x       y       z     vdW  Elec       q    Type
REMARK                         _______ _______ _______ _____ _____    ______ ____
ROOT
ATOM      1  C9  UNL     1      26.494  -9.780 -41.222  0.00  0.00    +0.000 C 
ATOM      2  C10 UNL     1      26.265  -9.684 -39.832  0.00  0.00    +0.000 C 
ATOM      3  C11 UNL     1      27.364  -9.833 -38.994  0.00  0.00    +0.000 A 
ATOM      4  C12 UNL     1      28.630 -10.072 -39.482  0.00  0.00    +0.000 A 
ATOM      5  N4  UNL     1      29.543 -10.117 -38.481  0.00  0.00    +0.000 N 
ATOM      6  C13 UNL     1      28.827  -9.923 -37.353  0.00  0.00    +0.000 A 
ATOM      7  C14 UNL     1      29.313  -9.871 -36.047  0.00  0.00    +0.000 C 
ATOM      8  C15 UNL     1      28.391  -9.635 -35.010  0.00  0.00    +0.000 C 
ATOM      9  C16 UNL     1      27.019  -9.453 -35.296  0.00  0.00    +0.000 C 
ATOM     10  C17 UNL     1      26.552  -9.506 -36.621  0.00  0.00    +0.000 C 
ATOM     11  C18 UNL     1      27.487  -9.747 -37.626  0.00  0.00    +0.000 A 
ATOM     12  C19 UNL     1      28.843 -10.180 -40.862  0.00  0.00    +0.000 C 
ATOM     13  N5  UNL     1      27.763 -10.021 -41.685  0.00  0.00    +0.000 NA
ATOM     14  H8  UNL     1      30.577 -10.239 -38.554  0.00  0.00    +0.000 HD
ENDROOT
BRANCH  12  15
ATOM     15  C20 UNL     1      30.168 -10.461 -41.453  0.00  0.00    +0.000 C 
ATOM     16  C21 UNL     1      31.311  -9.758 -41.034  0.00  0.00    +0.000 C 
ATOM     17  C22 UNL     1      32.564 -10.060 -41.577  0.00  0.00    +0.000 C 
ATOM     18  C23 UNL     1      32.688 -11.072 -42.534  0.00  0.00    +0.000 C 
ATOM     19  C24 UNL     1      31.560 -11.788 -42.941  0.00  0.00    +0.000 C 
ATOM     20  C25 UNL     1      30.305 -11.491 -42.399  0.00  0.00    +0.000 C 
ENDBRANCH  12  15
BRANCH   1  22
ATOM     21  O1  UNL     1      25.591  -9.796 -43.416  0.00  0.00    +0.000 OA
ATOM     22  C1  UNL     1      25.382  -9.625 -42.185  0.00  0.00    +0.000 C 
ATOM     23  N1  UNL     1      24.063  -9.286 -41.727  0.00  0.00    +0.000 N 
ATOM     24  H1  UNL     1      23.893  -9.195 -40.702  0.00  0.00    +0.000 HD
BRANCH  23  25
ATOM     25  N2  UNL     1      23.015  -9.047 -42.637  0.00  0.00    +0.000 N 
ATOM     26  H2  UNL     1      22.535  -9.855 -43.093  0.00  0.00    +0.000 HD
BRANCH  25  27
ATOM     27  C2  UNL     1      22.624  -7.724 -43.036  0.00  0.00    +0.000 C 
ATOM     28  S1  UNL     1      22.167  -6.618 -41.905  0.00  0.00    +0.000 S 
BRANCH  27  29
ATOM     29  N3  UNL     1      22.396  -7.459 -44.430  0.00  0.00    +0.000 N 
ATOM     30  H3  UNL     1      21.404  -7.388 -44.752  0.00  0.00    +0.000 HD
BRANCH  29  31
ATOM     31  C3  UNL     1      23.434  -7.270 -45.407  0.00  0.00    +0.000 C 
ATOM     32  C4  UNL     1      23.124  -7.382 -46.771  0.00  0.00    +0.000 C 
ATOM     33  C5  UNL     1      24.123  -7.227 -47.738  0.00  0.00    +0.000 C 
ATOM     34  C6  UNL     1      25.442  -6.975 -47.349  0.00  0.00    +0.000 C 
ATOM     35  F1  UNL     1      26.407  -6.829 -48.290  0.00  0.00    +0.000 F 
ATOM     36  C7  UNL     1      25.765  -6.888 -45.991  0.00  0.00    +0.000 C 
ATOM     37  F2  UNL     1      27.048  -6.661 -45.613  0.00  0.00    +0.000 F 
ATOM     38  C8  UNL     1      24.768  -7.042 -45.023  0.00  0.00    +0.000 C 
ENDBRANCH  29  31
ENDBRANCH  27  29
ENDBRANCH  25  27
ENDBRANCH  23  25
ENDBRANCH   1  22
TORSDOF 6
