REMARK  Name = resultss/4CJN/ligands/lig_312_t0.pdb
REMARK  12 active torsions:
REMARK  status: ('A' for Active; 'I' for Inactive)
REMARK    1  A    between atoms: C10_1  and  O5_11
REMARK    2  A    between atoms: C12_4  and  O7_7
REMARK    3  A    between atoms: C13_5  and  O8_9
REMARK    4  A    between atoms: C14_6  and  O9_33
REMARK    5  A    between atoms: O5_11  and  C9_20
REMARK    6  A    between atoms: C2_12  and  O1_28
REMARK    7  A    between atoms: C4_14  and  O2_29
REMARK    8  A    between atoms: C8_19  and  O4_31
REMARK    9  A    between atoms: O9_33  and  C15_34
REMARK   10  A    between atoms: C18_38  and  O11_41
REMARK   11  A    between atoms: C19_39  and  O12_43
REMARK   12  A    between atoms: C20_40  and  O13_45
REMARK                            x       y       z     vdW  Elec       q    Type
REMARK                         _______ _______ _______ _____ _____    ______ ____
ROOT
ATOM      1  C10 UNL     1      28.065  -7.799 -40.341  0.00  0.00    +0.000 C 
ATOM      2  O6  UNL     1      29.410  -7.615 -39.921  0.00  0.00    +0.000 OA
ATOM      3  C11 UNL     1      30.324  -8.120 -40.878  0.00  0.00    +0.000 C 
ATOM      4  C12 UNL     1      30.108  -9.624 -41.172  0.00  0.00    +0.000 C 
ATOM      5  C13 UNL     1      28.957 -10.189 -40.328  0.00  0.00    +0.000 C 
ATOM      6  C14 UNL     1      27.712  -9.304 -40.512  0.00  0.00    +0.000 C 
ENDROOT
BRANCH   4   7
ATOM      7  O7  UNL     1      31.286 -10.341 -40.889  0.00  0.00    +0.000 OA
ATOM      8  H11 UNL     1      32.049  -9.804 -41.226  0.00  0.00    +0.000 HD
ENDBRANCH   4   7
BRANCH   5   9
ATOM      9  O8  UNL     1      28.677 -11.503 -40.739  0.00  0.00    +0.000 OA
ATOM     10  H13 UNL     1      29.539 -11.903 -41.032  0.00  0.00    +0.000 HD
ENDBRANCH   5   9
BRANCH   1  11
ATOM     11  O5  UNL     1      27.799  -7.108 -41.565  0.00  0.00    +0.000 OA
BRANCH  11  20
ATOM     12  C2  UNL     1      20.613  -6.824 -46.628  0.00  0.00    +0.000 C 
ATOM     13  C3  UNL     1      21.545  -7.298 -47.565  0.00  0.00    +0.000 C 
ATOM     14  C4  UNL     1      22.894  -7.463 -47.216  0.00  0.00    +0.000 C 
ATOM     15  C5  UNL     1      23.327  -7.151 -45.906  0.00  0.00    +0.000 A 
ATOM     16  C6  UNL     1      24.668  -7.297 -45.483  0.00  0.00    +0.000 A 
ATOM     17  O3  UNL     1      25.551  -7.617 -46.320  0.00  0.00    +0.000 OA
ATOM     18  C7  UNL     1      25.009  -7.060 -44.126  0.00  0.00    +0.000 A 
ATOM     19  C8  UNL     1      26.311  -7.281 -43.573  0.00  0.00    +0.000 C 
ATOM     20  C9  UNL     1      26.564  -6.939 -42.219  0.00  0.00    +0.000 C 
ATOM     21  C21 UNL     1      25.531  -6.423 -41.435  0.00  0.00    +0.000 C 
ATOM     22  C22 UNL     1      24.254  -6.252 -41.952  0.00  0.00    +0.000 C 
ATOM     23  C23 UNL     1      23.983  -6.571 -43.279  0.00  0.00    +0.000 A 
ATOM     24  O14 UNL     1      22.745  -6.407 -43.727  0.00  0.00    +0.000 OA
ATOM     25  C24 UNL     1      22.382  -6.685 -44.969  0.00  0.00    +0.000 A 
ATOM     26  C25 UNL     1      21.044  -6.514 -45.338  0.00  0.00    +0.000 C 
BRANCH  12  28
ATOM     27  C1  UNL     1      18.242  -7.614 -46.668  0.00  0.00    +0.000 C 
ATOM     28  O1  UNL     1      19.255  -6.651 -46.935  0.00  0.00    +0.000 OA
ENDBRANCH  12  28
BRANCH  14  29
ATOM     29  O2  UNL     1      23.789  -7.951 -48.171  0.00  0.00    +0.000 OA
ATOM     30  H5  UNL     1      24.786  -7.969 -48.009  0.00  0.00    +0.000 HD
ENDBRANCH  14  29
BRANCH  19  31
ATOM     31  O4  UNL     1      27.334  -7.868 -44.318  0.00  0.00    +0.000 OA
ATOM     32  H6  UNL     1      27.208  -8.702 -44.872  0.00  0.00    +0.000 HD
ENDBRANCH  19  31
ENDBRANCH  11  20
ENDBRANCH   1  11
BRANCH   6  33
ATOM     33  O9  UNL     1      26.733  -9.678 -39.552  0.00  0.00    +0.000 OA
BRANCH  33  34
ATOM     34  C15 UNL     1      26.553  -8.667 -38.577  0.00  0.00    +0.000 C 
ATOM     35  O10 UNL     1      27.563  -8.756 -37.576  0.00  0.00    +0.000 OA
ATOM     36  C16 UNL     1      27.208  -9.662 -36.552  0.00  0.00    +0.000 C 
ATOM     37  C17 UNL     1      28.446  -9.977 -35.715  0.00  0.00    +0.000 C 
ATOM     38  C18 UNL     1      26.093  -9.047 -35.678  0.00  0.00    +0.000 C 
ATOM     39  C19 UNL     1      25.058  -8.276 -36.547  0.00  0.00    +0.000 C 
ATOM     40  C20 UNL     1      25.103  -8.741 -38.015  0.00  0.00    +0.000 C 
BRANCH  38  41
ATOM     41  O11 UNL     1      25.449 -10.067 -34.958  0.00  0.00    +0.000 OA
ATOM     42  H21 UNL     1      25.353 -10.832 -35.591  0.00  0.00    +0.000 HD
ENDBRANCH  38  41
BRANCH  39  43
ATOM     43  O12 UNL     1      25.253  -6.884 -36.457  0.00  0.00    +0.000 OA
ATOM     44  H23 UNL     1      26.124  -6.665 -36.878  0.00  0.00    +0.000 HD
ENDBRANCH  39  43
BRANCH  40  45
ATOM     45  O13 UNL     1      24.232  -7.958 -38.789  0.00  0.00    +0.000 OA
ATOM     46  H25 UNL     1      24.623  -7.047 -38.834  0.00  0.00    +0.000 HD
ENDBRANCH  40  45
ENDBRANCH  33  34
ENDBRANCH   6  33
TORSDOF 12
