REMARK  Name = resultss/4CJN/ligands/lig_262_t1.pdb
REMARK  5 active torsions:
REMARK  status: ('A' for Active; 'I' for Inactive)
REMARK    1  A    between atoms: C4_1  and  C2_26
REMARK    2  A    between atoms: C14_12  and  C15_15
REMARK    3  A    between atoms: C18_18  and  O3_21
REMARK    4  A    between atoms: C19_19  and  O4_23
REMARK    5  A    between atoms: C2_26  and  O1_28
REMARK                            x       y       z     vdW  Elec       q    Type
REMARK                         _______ _______ _______ _____ _____    ______ ____
ROOT
ATOM      1  C4  UNL     1      30.611  -9.620 -34.394  0.00  0.00    +0.000 C 
ATOM      2  C5  UNL     1      29.313  -9.996 -33.619  0.00  0.00    +0.000 C 
ATOM      3  C6  UNL     1      28.224  -9.727 -34.586  0.00  0.00    +0.000 C 
ATOM      4  C7  UNL     1      26.838  -9.800 -34.339  0.00  0.00    +0.000 C 
ATOM      5  C8  UNL     1      25.937  -9.523 -35.389  0.00  0.00    +0.000 C 
ATOM      6  C9  UNL     1      26.469  -9.195 -36.644  0.00  0.00    +0.000 C 
ATOM      7  C10 UNL     1      27.829  -9.130 -36.867  0.00  0.00    +0.000 C 
ATOM      8  C11 UNL     1      28.717  -9.397 -35.830  0.00  0.00    +0.000 C 
ATOM      9  C12 UNL     1      30.194  -9.397 -35.875  0.00  0.00    +0.000 C 
ATOM     10  O2  UNL     1      28.131  -8.781 -38.180  0.00  0.00    +0.000 OA
ATOM     11  C13 UNL     1      26.916  -8.616 -38.852  0.00  0.00    +0.000 C 
ATOM     12  C14 UNL     1      26.844  -8.268 -40.143  0.00  0.00    +0.000 C 
ATOM     13  C21 UNL     1      25.822  -8.859 -37.897  0.00  0.00    +0.000 C 
ATOM     14  O5  UNL     1      24.585  -8.717 -38.083  0.00  0.00    +0.000 OA
ENDROOT
BRANCH  12  15
ATOM     15  C15 UNL     1      25.589  -8.152 -40.908  0.00  0.00    +0.000 C 
ATOM     16  C16 UNL     1      24.862  -6.951 -40.933  0.00  0.00    +0.000 C 
ATOM     17  C17 UNL     1      23.650  -6.875 -41.625  0.00  0.00    +0.000 C 
ATOM     18  C18 UNL     1      23.140  -8.003 -42.281  0.00  0.00    +0.000 C 
ATOM     19  C19 UNL     1      23.847  -9.217 -42.233  0.00  0.00    +0.000 C 
ATOM     20  C20 UNL     1      25.061  -9.288 -41.539  0.00  0.00    +0.000 C 
BRANCH  18  21
ATOM     21  O3  UNL     1      21.933  -7.924 -42.973  0.00  0.00    +0.000 OA
ATOM     22  H18 UNL     1      21.690  -7.112 -43.529  0.00  0.00    +0.000 HD
ENDBRANCH  18  21
BRANCH  19  23
ATOM     23  O4  UNL     1      23.361 -10.360 -42.865  0.00  0.00    +0.000 OA
ATOM     24  H19 UNL     1      23.934 -10.916 -43.488  0.00  0.00    +0.000 HD
ENDBRANCH  19  23
ENDBRANCH  12  15
BRANCH   1  26
ATOM     25  C1  UNL     1      31.584  -7.261 -34.816  0.00  0.00    +0.000 C 
ATOM     26  C2  UNL     1      31.401  -8.403 -33.793  0.00  0.00    +0.000 C 
ATOM     27  C3  UNL     1      30.676  -7.846 -32.547  0.00  0.00    +0.000 C 
BRANCH  26  28
ATOM     28  O1  UNL     1      32.687  -8.827 -33.405  0.00  0.00    +0.000 OA
ATOM     29  H7  UNL     1      33.274  -8.806 -34.207  0.00  0.00    +0.000 HD
ENDBRANCH  26  28
ENDBRANCH   1  26
TORSDOF 5
