REMARK  Name = resultss/4CJN/ligands/lig_241_t0.pdb
REMARK  6 active torsions:
REMARK  status: ('A' for Active; 'I' for Inactive)
REMARK    1  A    between atoms: C9_1  and  N1_18
REMARK    2  A    between atoms: C13_6  and  C14_27
REMARK    3  A    between atoms: C6_13  and  C5_22
REMARK    4  A    between atoms: C2_19  and  O1_26
REMARK    5  A    between atoms: C14_27  and  C15_28
REMARK    6  A    between atoms: C18_31  and  O3_34
REMARK                            x       y       z     vdW  Elec       q    Type
REMARK                         _______ _______ _______ _____ _____    ______ ____
ROOT
ATOM      1  C9  UNL     1      28.635  -9.249 -36.771  0.00  0.00    +0.000 C 
ATOM      2  C10 UNL     1      28.671 -10.463 -37.479  0.00  0.00    +0.000 C 
ATOM      3  C11 UNL     1      27.968 -10.607 -38.678  0.00  0.00    +0.000 C 
ATOM      4  C12 UNL     1      27.210  -9.544 -39.176  0.00  0.00    +0.000 A 
ATOM      5  N2  UNL     1      26.518  -9.676 -40.337  0.00  0.00    +0.000 NA
ATOM      6  C13 UNL     1      25.762  -8.660 -40.834  0.00  0.00    +0.000 A 
ATOM      7  C21 UNL     1      25.712  -7.439 -40.135  0.00  0.00    +0.000 A 
ATOM      8  O4  UNL     1      25.031  -6.473 -40.576  0.00  0.00    +0.000 OA
ATOM      9  N3  UNL     1      26.405  -7.302 -38.970  0.00  0.00    +0.000 N 
ATOM     10  C22 UNL     1      27.156  -8.325 -38.472  0.00  0.00    +0.000 A 
ATOM     11  C23 UNL     1      27.867  -8.184 -37.272  0.00  0.00    +0.000 C 
ATOM     12  H18 UNL     1      26.358  -6.391 -38.456  0.00  0.00    +0.000 HD
ENDROOT
BRANCH   1  18
ATOM     13  C6  UNL     1      28.817  -9.685 -34.268  0.00  0.00    +0.000 C 
ATOM     14  S1  UNL     1      29.908  -9.159 -32.892  0.00  0.00    +0.000 S 
ATOM     15  C7  UNL     1      31.075  -8.288 -33.988  0.00  0.00    +0.000 C 
ATOM     16  C8  UNL     1      30.552  -8.411 -35.364  0.00  0.00    +0.000 C 
ATOM     17  O2  UNL     1      31.178  -7.940 -36.350  0.00  0.00    +0.000 OA
ATOM     18  N1  UNL     1      29.326  -9.117 -35.514  0.00  0.00    +0.000 N 
BRANCH  13  22
ATOM     19  C2  UNL     1      24.769  -8.372 -33.469  0.00  0.00    +0.000 C 
ATOM     20  C3  UNL     1      25.015  -9.670 -33.934  0.00  0.00    +0.000 C 
ATOM     21  C4  UNL     1      26.319 -10.092 -34.205  0.00  0.00    +0.000 C 
ATOM     22  C5  UNL     1      27.404  -9.221 -34.004  0.00  0.00    +0.000 C 
ATOM     23  C24 UNL     1      27.159  -7.919 -33.542  0.00  0.00    +0.000 C 
ATOM     24  C25 UNL     1      25.854  -7.495 -33.277  0.00  0.00    +0.000 C 
BRANCH  19  26
ATOM     25  C1  UNL     1      23.033  -6.678 -32.868  0.00  0.00    +0.000 C 
ATOM     26  O1  UNL     1      23.443  -7.998 -33.214  0.00  0.00    +0.000 OA
ENDBRANCH  19  26
ENDBRANCH  13  22
ENDBRANCH   1  18
BRANCH   6  27
ATOM     27  C14 UNL     1      25.049  -8.854 -42.144  0.00  0.00    +0.000 C 
BRANCH  27  28
ATOM     28  C15 UNL     1      25.848  -8.254 -43.267  0.00  0.00    +0.000 C 
ATOM     29  C16 UNL     1      27.234  -8.468 -43.348  0.00  0.00    +0.000 C 
ATOM     30  C17 UNL     1      27.968  -7.939 -44.415  0.00  0.00    +0.000 C 
ATOM     31  C18 UNL     1      27.326  -7.198 -45.413  0.00  0.00    +0.000 C 
ATOM     32  C19 UNL     1      25.942  -6.988 -45.341  0.00  0.00    +0.000 C 
ATOM     33  C20 UNL     1      25.206  -7.517 -44.276  0.00  0.00    +0.000 C 
BRANCH  31  34
ATOM     34  O3  UNL     1      28.070  -6.678 -46.469  0.00  0.00    +0.000 OA
ATOM     35  H15 UNL     1      27.962  -5.716 -46.769  0.00  0.00    +0.000 HD
ENDBRANCH  31  34
ENDBRANCH  27  28
ENDBRANCH   6  27
TORSDOF 6
