REMARK  Name = resultss/4CJN/ligands/lig_364_t0.pdb
REMARK  6 active torsions:
REMARK  status: ('A' for Active; 'I' for Inactive)
REMARK    1  A    between atoms: C10_1  and  C9_13
REMARK    2  A    between atoms: C10_1  and  C17_16
REMARK    3  A    between atoms: C10_1  and  C11_30
REMARK    4  A    between atoms: C1_2  and  O1_14
REMARK    5  A    between atoms: C25_27  and  O8_28
REMARK    6  A    between atoms: C15_34  and  N1_36
REMARK                            x       y       z     vdW  Elec       q    Type
REMARK                         _______ _______ _______ _____ _____    ______ ____
ROOT
ATOM      1  C10 UNL     1      27.963  -9.068 -41.403  0.00  0.00    +0.000 C 
ENDROOT
BRANCH   1  13
ATOM      2  C1  UNL     1      28.191  -7.238 -43.241  0.00  0.00    +0.000 A 
ATOM      3  O2  UNL     1      27.666  -6.543 -44.245  0.00  0.00    +0.000 OA
ATOM      4  C2  UNL     1      26.422  -6.710 -44.672  0.00  0.00    +0.000 A 
ATOM      5  C3  UNL     1      25.948  -5.937 -45.739  0.00  0.00    +0.000 C 
ATOM      6  C4  UNL     1      24.636  -6.097 -46.194  0.00  0.00    +0.000 C 
ATOM      7  C5  UNL     1      23.791  -7.030 -45.584  0.00  0.00    +0.000 C 
ATOM      8 CL1  UNL     1      22.145  -7.225 -46.158  0.00  0.00    +0.000 Cl
ATOM      9  C6  UNL     1      24.256  -7.807 -44.517  0.00  0.00    +0.000 C 
ATOM     10  C7  UNL     1      25.578  -7.653 -44.054  0.00  0.00    +0.000 A 
ATOM     11  C8  UNL     1      26.090  -8.411 -42.989  0.00  0.00    +0.000 A 
ATOM     12  O3  UNL     1      25.354  -9.255 -42.405  0.00  0.00    +0.000 OA
ATOM     13  C9  UNL     1      27.427  -8.228 -42.571  0.00  0.00    +0.000 A 
BRANCH   2  14
ATOM     14  O1  UNL     1      29.497  -6.952 -42.858  0.00  0.00    +0.000 OA
ATOM     15  H1  UNL     1      30.195  -6.692 -43.544  0.00  0.00    +0.000 HD
ENDBRANCH   2  14
ENDBRANCH   1  13
BRANCH   1  16
ATOM     16  C17 UNL     1      27.584  -8.493 -40.032  0.00  0.00    +0.000 A 
ATOM     17  C18 UNL     1      27.231  -9.360 -38.974  0.00  0.00    +0.000 A 
ATOM     18  O6  UNL     1      27.225 -10.610 -39.150  0.00  0.00    +0.000 OA
ATOM     19  C19 UNL     1      26.891  -8.829 -37.719  0.00  0.00    +0.000 A 
ATOM     20  C20 UNL     1      26.514  -9.645 -36.636  0.00  0.00    +0.000 C 
ATOM     21  C21 UNL     1      26.180  -9.069 -35.404  0.00  0.00    +0.000 C 
ATOM     22 CL2  UNL     1      25.709 -10.091 -34.058  0.00  0.00    +0.000 Cl
ATOM     23  C22 UNL     1      26.222  -7.681 -35.246  0.00  0.00    +0.000 C 
ATOM     24  C23 UNL     1      26.598  -6.863 -36.315  0.00  0.00    +0.000 C 
ATOM     25  C24 UNL     1      26.933  -7.429 -37.549  0.00  0.00    +0.000 A 
ATOM     26  O7  UNL     1      27.299  -6.643 -38.553  0.00  0.00    +0.000 OA
ATOM     27  C25 UNL     1      27.627  -7.106 -39.755  0.00  0.00    +0.000 A 
BRANCH  27  28
ATOM     28  O8  UNL     1      28.032  -6.196 -40.725  0.00  0.00    +0.000 OA
ATOM     29  H13 UNL     1      27.378  -5.846 -41.414  0.00  0.00    +0.000 HD
ENDBRANCH  27  28
ENDBRANCH   1  16
BRANCH   1  30
ATOM     30  C11 UNL     1      29.433  -9.459 -41.516  0.00  0.00    +0.000 C 
ATOM     31  C12 UNL     1      30.346  -8.925 -40.589  0.00  0.00    +0.000 C 
ATOM     32  C13 UNL     1      31.696  -9.274 -40.641  0.00  0.00    +0.000 C 
ATOM     33  C14 UNL     1      32.156 -10.164 -41.611  0.00  0.00    +0.000 C 
ATOM     34  C15 UNL     1      31.266 -10.722 -42.544  0.00  0.00    +0.000 C 
ATOM     35  C16 UNL     1      29.905 -10.366 -42.488  0.00  0.00    +0.000 C 
BRANCH  34  36
ATOM     36  N1  UNL     1      31.743 -11.645 -43.539  0.00  0.00    +0.000 N 
ATOM     37  O4  UNL     1      31.448 -12.858 -43.479  0.00  0.00    +0.000 OA
ATOM     38  O5  UNL     1      32.536 -11.209 -44.577  0.00  0.00    +0.000 OA
ENDBRANCH  34  36
ENDBRANCH   1  30
TORSDOF 6
