REMARK  Name = resultss/4CJN/ligands/lig_423_t0.pdb
REMARK  8 active torsions:
REMARK  status: ('A' for Active; 'I' for Inactive)
REMARK    1  A    between atoms: C1_2  and  C10_5
REMARK    2  A    between atoms: N1_3  and  N2_25
REMARK    3  A    between atoms: C20_16  and  C21_19
REMARK    4  A    between atoms: N2_25  and  C2_27
REMARK    5  A    between atoms: C2_27  and  N3_29
REMARK    6  A    between atoms: N3_29  and  C3_31
REMARK    7  A    between atoms: C6_34  and  O2_37
REMARK    8  A    between atoms: O2_37  and  C7_38
REMARK                            x       y       z     vdW  Elec       q    Type
REMARK                         _______ _______ _______ _____ _____    ______ ____
ROOT
ATOM      1  O1  UNL     1      26.902  -9.937 -39.716  0.00  0.00    +0.000 OA
ATOM      2  C1  UNL     1      27.776  -9.776 -38.822  0.00  0.00    +0.000 C 
ATOM      3  N1  UNL     1      29.155 -10.055 -39.114  0.00  0.00    +0.000 N 
ATOM      4  H1  UNL     1      29.893  -9.624 -38.515  0.00  0.00    +0.000 HD
ENDROOT
BRANCH   2   5
ATOM      5  C10 UNL     1      27.380  -9.282 -37.486  0.00  0.00    +0.000 C 
ATOM      6  C11 UNL     1      26.043  -8.919 -37.216  0.00  0.00    +0.000 C 
ATOM      7  C12 UNL     1      25.753  -8.459 -35.937  0.00  0.00    +0.000 A 
ATOM      8  C13 UNL     1      26.719  -8.362 -34.959  0.00  0.00    +0.000 A 
ATOM      9  N4  UNL     1      26.214  -7.830 -33.820  0.00  0.00    +0.000 N 
ATOM     10  C14 UNL     1      24.908  -7.611 -34.091  0.00  0.00    +0.000 A 
ATOM     11  C15 UNL     1      23.952  -7.061 -33.239  0.00  0.00    +0.000 C 
ATOM     12  C16 UNL     1      22.643  -6.901 -33.731  0.00  0.00    +0.000 C 
ATOM     13  C17 UNL     1      22.321  -7.287 -35.052  0.00  0.00    +0.000 C 
ATOM     14  C18 UNL     1      23.304  -7.835 -35.897  0.00  0.00    +0.000 C 
ATOM     15  C19 UNL     1      24.589  -7.986 -35.379  0.00  0.00    +0.000 A 
ATOM     16  C20 UNL     1      28.039  -8.742 -35.233  0.00  0.00    +0.000 C 
ATOM     17  N5  UNL     1      28.323  -9.181 -36.496  0.00  0.00    +0.000 NA
ATOM     18  H9  UNL     1      26.715  -7.598 -32.935  0.00  0.00    +0.000 HD
BRANCH  16  19
ATOM     19  C21 UNL     1      29.120  -8.680 -34.226  0.00  0.00    +0.000 C 
ATOM     20  C22 UNL     1      29.619  -9.850 -33.627  0.00  0.00    +0.000 C 
ATOM     21  C23 UNL     1      30.659  -9.777 -32.694  0.00  0.00    +0.000 C 
ATOM     22  C24 UNL     1      31.218  -8.540 -32.364  0.00  0.00    +0.000 C 
ATOM     23  C25 UNL     1      30.743  -7.374 -32.971  0.00  0.00    +0.000 C 
ATOM     24  C26 UNL     1      29.703  -7.444 -33.904  0.00  0.00    +0.000 C 
ENDBRANCH  16  19
ENDBRANCH   2   5
BRANCH   3  25
ATOM     25  N2  UNL     1      29.555 -10.672 -40.314  0.00  0.00    +0.000 N 
ATOM     26  H2  UNL     1      28.994 -11.479 -40.667  0.00  0.00    +0.000 HD
BRANCH  25  27
ATOM     27  C2  UNL     1      30.620 -10.167 -41.134  0.00  0.00    +0.000 C 
ATOM     28  S1  UNL     1      31.727  -9.134 -40.490  0.00  0.00    +0.000 S 
BRANCH  27  29
ATOM     29  N3  UNL     1      30.524 -10.313 -42.560  0.00  0.00    +0.000 N 
ATOM     30  H3  UNL     1      29.779  -9.773 -43.054  0.00  0.00    +0.000 HD
BRANCH  29  31
ATOM     31  C3  UNL     1      31.379 -11.159 -43.347  0.00  0.00    +0.000 C 
ATOM     32  C4  UNL     1      32.174 -10.637 -44.382  0.00  0.00    +0.000 C 
ATOM     33  C5  UNL     1      33.022 -11.473 -45.113  0.00  0.00    +0.000 C 
ATOM     34  C6  UNL     1      33.105 -12.838 -44.817  0.00  0.00    +0.000 C 
ATOM     35  C8  UNL     1      32.324 -13.360 -43.767  0.00  0.00    +0.000 C 
ATOM     36  C9  UNL     1      31.475 -12.522 -43.036  0.00  0.00    +0.000 C 
BRANCH  34  37
ATOM     37  O2  UNL     1      33.975 -13.631 -45.583  0.00  0.00    +0.000 OA
BRANCH  37  38
ATOM     38  C7  UNL     1      33.576 -14.539 -46.607  0.00  0.00    +0.000 C 
ATOM     39  F1  UNL     1      34.204 -15.760 -46.432  0.00  0.00    +0.000 F 
ATOM     40  F2  UNL     1      32.204 -14.707 -46.588  0.00  0.00    +0.000 F 
ATOM     41  F3  UNL     1      33.945 -14.022 -47.833  0.00  0.00    +0.000 F 
ENDBRANCH  37  38
ENDBRANCH  34  37
ENDBRANCH  29  31
ENDBRANCH  27  29
ENDBRANCH  25  27
ENDBRANCH   3  25
TORSDOF 8
