REMARK  Name = resultss/4CJN/ligands/lig_412_t0.pdb
REMARK  6 active torsions:
REMARK  status: ('A' for Active; 'I' for Inactive)
REMARK    1  A    between atoms: C9_1  and  C1_22
REMARK    2  A    between atoms: C19_12  and  C20_15
REMARK    3  A    between atoms: N1_23  and  N2_25
REMARK    4  A    between atoms: N2_25  and  C2_27
REMARK    5  A    between atoms: C2_27  and  N3_29
REMARK    6  A    between atoms: N3_29  and  C3_31
REMARK                            x       y       z     vdW  Elec       q    Type
REMARK                         _______ _______ _______ _____ _____    ______ ____
ROOT
ATOM      1  C9  UNL     1      26.688  -9.684 -40.134  0.00  0.00    +0.000 C 
ATOM      2  C10 UNL     1      26.802  -9.482 -38.742  0.00  0.00    +0.000 C 
ATOM      3  C11 UNL     1      28.067  -9.621 -38.182  0.00  0.00    +0.000 A 
ATOM      4  C12 UNL     1      29.173  -9.935 -38.939  0.00  0.00    +0.000 A 
ATOM      5  N4  UNL     1      30.275 -10.080 -38.165  0.00  0.00    +0.000 N 
ATOM      6  C13 UNL     1      29.848  -9.832 -36.907  0.00  0.00    +0.000 A 
ATOM      7  C14 UNL     1      30.607  -9.867 -35.739  0.00  0.00    +0.000 C 
ATOM      8  C15 UNL     1      29.956  -9.594 -34.521  0.00  0.00    +0.000 C 
ATOM      9  C16 UNL     1      28.574  -9.302 -34.495  0.00  0.00    +0.000 C 
ATOM     10  C17 UNL     1      27.826  -9.279 -35.687  0.00  0.00    +0.000 C 
ATOM     11  C18 UNL     1      28.499  -9.547 -36.877  0.00  0.00    +0.000 A 
ATOM     12  C19 UNL     1      29.051 -10.115 -40.323  0.00  0.00    +0.000 C 
ATOM     13  N5  UNL     1      27.804  -9.991 -40.871  0.00  0.00    +0.000 NA
ATOM     14  H9  UNL     1      31.239 -10.356 -38.454  0.00  0.00    +0.000 HD
ENDROOT
BRANCH  12  15
ATOM     15  C20 UNL     1      30.198 -10.432 -41.199  0.00  0.00    +0.000 C 
ATOM     16  C21 UNL     1      30.102 -11.428 -42.187  0.00  0.00    +0.000 C 
ATOM     17  C22 UNL     1      31.205 -11.733 -42.991  0.00  0.00    +0.000 C 
ATOM     18  C23 UNL     1      32.414 -11.058 -42.806  0.00  0.00    +0.000 C 
ATOM     19  C24 UNL     1      32.525 -10.083 -41.812  0.00  0.00    +0.000 C 
ATOM     20  C25 UNL     1      31.424  -9.774 -41.006  0.00  0.00    +0.000 C 
ENDBRANCH  12  15
BRANCH   1  22
ATOM     21  O1  UNL     1      24.343  -9.315 -40.138  0.00  0.00    +0.000 OA
ATOM     22  C1  UNL     1      25.379  -9.564 -40.812  0.00  0.00    +0.000 C 
ATOM     23  N1  UNL     1      25.277  -9.748 -42.232  0.00  0.00    +0.000 N 
ATOM     24  H1  UNL     1      26.038 -10.262 -42.730  0.00  0.00    +0.000 HD
BRANCH  23  25
ATOM     25  N2  UNL     1      24.072  -9.524 -42.922  0.00  0.00    +0.000 N 
ATOM     26  H2  UNL     1      23.605 -10.337 -43.383  0.00  0.00    +0.000 HD
BRANCH  25  27
ATOM     27  C2  UNL     1      23.552  -8.211 -43.185  0.00  0.00    +0.000 C 
ATOM     28  S1  UNL     1      21.946  -7.898 -43.001  0.00  0.00    +0.000 S 
BRANCH  27  29
ATOM     29  N3  UNL     1      24.450  -7.194 -43.655  0.00  0.00    +0.000 N 
ATOM     30  H3  UNL     1      24.742  -6.459 -42.972  0.00  0.00    +0.000 HD
BRANCH  29  31
ATOM     31  C3  UNL     1      25.016  -7.144 -44.977  0.00  0.00    +0.000 C 
ATOM     32  C4  UNL     1      26.407  -7.045 -45.128  0.00  0.00    +0.000 C 
ATOM     33  C5  UNL     1      26.977  -6.964 -46.402  0.00  0.00    +0.000 C 
ATOM     34  C6  UNL     1      26.159  -6.966 -47.537  0.00  0.00    +0.000 C 
ATOM     35 CL1  UNL     1      26.873  -6.863 -49.135  0.00  0.00    +0.000 Cl
ATOM     36  C7  UNL     1      24.769  -7.038 -47.394  0.00  0.00    +0.000 C 
ATOM     37  C8  UNL     1      24.198  -7.119 -46.121  0.00  0.00    +0.000 C 
ENDBRANCH  29  31
ENDBRANCH  27  29
ENDBRANCH  25  27
ENDBRANCH  23  25
ENDBRANCH   1  22
TORSDOF 6
