REMARK  Name = resultss/4CJN/ligands/lig_342_t1.pdb
REMARK  11 active torsions:
REMARK  status: ('A' for Active; 'I' for Inactive)
REMARK    1  A    between atoms: C2_1  and  O1_28
REMARK    2  A    between atoms: C4_3  and  C5_7
REMARK    3  A    between atoms: C21_6  and  O3_29
REMARK    4  A    between atoms: N2_17  and  N3_19
REMARK    5  A    between atoms: N3_19  and  C13_21
REMARK    6  A    between atoms: O3_29  and  C22_30
REMARK    7  A    between atoms: C22_30  and  C23_31
REMARK    8  A    between atoms: N4_33  and  C25_36
REMARK    9  A    between atoms: C25_36  and  C26_37
REMARK   10  A    between atoms: C26_37  and  O4_47
REMARK   11  A    between atoms: N5_38  and  C27_39
REMARK                            x       y       z     vdW  Elec       q    Type
REMARK                         _______ _______ _______ _____ _____    ______ ____
ROOT
ATOM      1  C2  UNL     1      29.460  -7.548 -39.496  0.00  0.00    +0.000 C 
ATOM      2  C3  UNL     1      29.290  -7.148 -38.156  0.00  0.00    +0.000 C 
ATOM      3  C4  UNL     1      29.683  -7.989 -37.101  0.00  0.00    +0.000 C 
ATOM      4  C19 UNL     1      30.304  -9.213 -37.402  0.00  0.00    +0.000 C 
ATOM      5  C20 UNL     1      30.488  -9.611 -38.729  0.00  0.00    +0.000 C 
ATOM      6  C21 UNL     1      30.055  -8.785 -39.783  0.00  0.00    +0.000 C 
ENDROOT
BRANCH   3   7
ATOM      7  C5  UNL     1      29.533  -7.573 -35.653  0.00  0.00    +0.000 C 
ATOM      8  N1  UNL     1      28.298  -6.800 -35.492  0.00  0.00    +0.000 N 
ATOM      9  C6  UNL     1      27.063  -7.395 -35.073  0.00  0.00    +0.000 C 
ATOM     10  C7  UNL     1      25.854  -6.701 -35.238  0.00  0.00    +0.000 C 
ATOM     11  C8  UNL     1      24.650  -7.278 -34.818  0.00  0.00    +0.000 C 
ATOM     12  C9  UNL     1      24.649  -8.547 -34.235  0.00  0.00    +0.000 C 
ATOM     13  C10 UNL     1      25.851  -9.240 -34.062  0.00  0.00    +0.000 C 
ATOM     14  C11 UNL     1      27.065  -8.663 -34.475  0.00  0.00    +0.000 C 
ATOM     15  C12 UNL     1      28.354  -9.346 -34.273  0.00  0.00    +0.000 C 
ATOM     16  O2  UNL     1      28.397 -10.455 -33.673  0.00  0.00    +0.000 OA
ATOM     17  N2  UNL     1      29.569  -8.738 -34.746  0.00  0.00    +0.000 N 
ATOM     18  H6  UNL     1      28.289  -5.820 -35.859  0.00  0.00    +0.000 HD
BRANCH  17  19
ATOM     19  N3  UNL     1      30.786  -9.423 -34.559  0.00  0.00    +0.000 N 
ATOM     20  H11 UNL     1      31.135 -10.042 -35.324  0.00  0.00    +0.000 HD
BRANCH  19  21
ATOM     21  C13 UNL     1      31.515  -9.376 -33.320  0.00  0.00    +0.000 C 
ATOM     22  C14 UNL     1      32.060  -8.156 -32.882  0.00  0.00    +0.000 C 
ATOM     23  C15 UNL     1      32.797  -8.096 -31.695  0.00  0.00    +0.000 C 
ATOM     24  C16 UNL     1      33.003  -9.253 -30.941  0.00  0.00    +0.000 C 
ATOM     25  C17 UNL     1      32.474 -10.474 -31.374  0.00  0.00    +0.000 C 
ATOM     26  C18 UNL     1      31.741 -10.541 -32.564  0.00  0.00    +0.000 C 
ENDBRANCH  19  21
ENDBRANCH  17  19
ENDBRANCH   3   7
BRANCH   1  28
ATOM     27  C1  UNL     1      27.694  -6.449 -40.890  0.00  0.00    +0.000 C 
ATOM     28  O1  UNL     1      29.050  -6.741 -40.570  0.00  0.00    +0.000 OA
ENDBRANCH   1  28
BRANCH   6  29
ATOM     29  O3  UNL     1      30.194  -9.157 -41.129  0.00  0.00    +0.000 OA
BRANCH  29  30
ATOM     30  C22 UNL     1      29.603 -10.310 -41.721  0.00  0.00    +0.000 C 
BRANCH  30  31
ATOM     31  C23 UNL     1      28.119 -10.224 -41.579  0.00  0.00    +0.000 C 
ATOM     32  C24 UNL     1      27.234  -9.665 -42.474  0.00  0.00    +0.000 C 
ATOM     33  N4  UNL     1      26.012  -9.862 -41.958  0.00  0.00    +0.000 N 
ATOM     34  N6  UNL     1      26.139 -10.495 -40.803  0.00  0.00    +0.000 NA
ATOM     35  N7  UNL     1      27.418 -10.730 -40.546  0.00  0.00    +0.000 NA
BRANCH  33  36
ATOM     36  C25 UNL     1      24.738  -9.463 -42.551  0.00  0.00    +0.000 C 
BRANCH  36  37
ATOM     37  C26 UNL     1      24.343  -8.087 -42.087  0.00  0.00    +0.000 C 
ATOM     38  N5  UNL     1      24.423  -7.031 -42.848  0.00  0.00    +0.000 NA
BRANCH  38  39
ATOM     39  C27 UNL     1      24.937  -6.994 -44.187  0.00  0.00    +0.000 C 
ATOM     40  C28 UNL     1      26.319  -6.890 -44.412  0.00  0.00    +0.000 C 
ATOM     41  C29 UNL     1      26.823  -6.849 -45.712  0.00  0.00    +0.000 C 
ATOM     42  C30 UNL     1      25.954  -6.906 -46.811  0.00  0.00    +0.000 C 
ATOM     43  C31 UNL     1      26.503  -6.842 -48.206  0.00  0.00    +0.000 C 
ATOM     44  C32 UNL     1      24.568  -6.956 -46.590  0.00  0.00    +0.000 C 
ATOM     45  C33 UNL     1      24.052  -6.998 -45.283  0.00  0.00    +0.000 C 
ATOM     46  C34 UNL     1      22.568  -7.073 -45.059  0.00  0.00    +0.000 C 
ENDBRANCH  38  39
BRANCH  37  47
ATOM     47  O4  UNL     1      23.829  -7.954 -40.799  0.00  0.00    +0.000 OA
ATOM     48  H24 UNL     1      24.410  -8.119 -39.986  0.00  0.00    +0.000 HD
ENDBRANCH  37  47
ENDBRANCH  36  37
ENDBRANCH  33  36
ENDBRANCH  30  31
ENDBRANCH  29  30
ENDBRANCH   6  29
TORSDOF 11
