REMARK  Name = resultss/4CJN/ligands/lig_368_t2.pdb
REMARK  8 active torsions:
REMARK  status: ('A' for Active; 'I' for Inactive)
REMARK    1  A    between atoms: C6_1  and  C7_2
REMARK    2  A    between atoms: C6_1  and  C17_16
REMARK    3  A    between atoms: C6_1  and  C5_32
REMARK    4  A    between atoms: C16_13  and  O4_14
REMARK    5  A    between atoms: C26_27  and  O7_28
REMARK    6  A    between atoms: C3_30  and  O1_38
REMARK    7  A    between atoms: C29_35  and  O8_36
REMARK    8  A    between atoms: O1_38  and  C2_40
REMARK                            x       y       z     vdW  Elec       q    Type
REMARK                         _______ _______ _______ _____ _____    ______ ____
ROOT
ATOM      1  C6  UNL     1      27.375  -9.824 -38.902  0.00  0.00    +0.000 C 
ENDROOT
BRANCH   1   2
ATOM      2  C7  UNL     1      26.351  -8.772 -39.346  0.00  0.00    +0.000 A 
ATOM      3  C8  UNL     1      25.397  -9.090 -40.337  0.00  0.00    +0.000 A 
ATOM      4  O2  UNL     1      25.387 -10.236 -40.865  0.00  0.00    +0.000 OA
ATOM      5  C9  UNL     1      24.455  -8.127 -40.735  0.00  0.00    +0.000 A 
ATOM      6  C10 UNL     1      23.497  -8.384 -41.734  0.00  0.00    +0.000 C 
ATOM      7  C11 UNL     1      22.583  -7.388 -42.114  0.00  0.00    +0.000 C 
ATOM      8  C12 UNL     1      21.538  -7.676 -43.151  0.00  0.00    +0.000 C 
ATOM      9  C13 UNL     1      22.609  -6.143 -41.468  0.00  0.00    +0.000 C 
ATOM     10  C14 UNL     1      23.555  -5.883 -40.474  0.00  0.00    +0.000 C 
ATOM     11  C15 UNL     1      24.477  -6.867 -40.105  0.00  0.00    +0.000 A 
ATOM     12  O3  UNL     1      25.363  -6.610 -39.153  0.00  0.00    +0.000 OA
ATOM     13  C16 UNL     1      26.272  -7.491 -38.748  0.00  0.00    +0.000 A 
BRANCH  13  14
ATOM     14  O4  UNL     1      27.127  -7.131 -37.712  0.00  0.00    +0.000 OA
ATOM     15  H14 UNL     1      27.721  -6.314 -37.789  0.00  0.00    +0.000 HD
ENDBRANCH  13  14
ENDBRANCH   1   2
BRANCH   1  16
ATOM     16  C17 UNL     1      28.630  -9.861 -39.791  0.00  0.00    +0.000 A 
ATOM     17  C18 UNL     1      28.913 -10.929 -40.684  0.00  0.00    +0.000 A 
ATOM     18  O5  UNL     1      28.154 -11.933 -40.753  0.00  0.00    +0.000 OA
ATOM     19  C19 UNL     1      30.062 -10.882 -41.490  0.00  0.00    +0.000 A 
ATOM     20  C20 UNL     1      30.378 -11.904 -42.406  0.00  0.00    +0.000 C 
ATOM     21  C21 UNL     1      31.530 -11.813 -43.203  0.00  0.00    +0.000 C 
ATOM     22  C22 UNL     1      31.884 -12.922 -44.147  0.00  0.00    +0.000 C 
ATOM     23  C23 UNL     1      32.384 -10.709 -43.060  0.00  0.00    +0.000 C 
ATOM     24  C24 UNL     1      32.077  -9.694 -42.152  0.00  0.00    +0.000 C 
ATOM     25  C25 UNL     1      30.923  -9.774 -41.368  0.00  0.00    +0.000 A 
ATOM     26  O6  UNL     1      30.652  -8.809 -40.503  0.00  0.00    +0.000 OA
ATOM     27  C26 UNL     1      29.580  -8.805 -39.719  0.00  0.00    +0.000 A 
BRANCH  27  28
ATOM     28  O7  UNL     1      29.446  -7.733 -38.833  0.00  0.00    +0.000 OA
ATOM     29  H21 UNL     1      28.582  -7.476 -38.375  0.00  0.00    +0.000 HD
ENDBRANCH  27  28
ENDBRANCH   1  16
BRANCH   1  32
ATOM     30  C3  UNL     1      26.923  -9.499 -35.076  0.00  0.00    +0.000 C 
ATOM     31  C4  UNL     1      26.630  -9.557 -36.452  0.00  0.00    +0.000 C 
ATOM     32  C5  UNL     1      27.647  -9.795 -37.400  0.00  0.00    +0.000 C 
ATOM     33  C27 UNL     1      28.966  -9.964 -36.944  0.00  0.00    +0.000 C 
ATOM     34  C28 UNL     1      29.259  -9.917 -35.581  0.00  0.00    +0.000 C 
ATOM     35  C29 UNL     1      28.244  -9.689 -34.647  0.00  0.00    +0.000 C 
BRANCH  35  36
ATOM     36  O8  UNL     1      28.540  -9.642 -33.286  0.00  0.00    +0.000 OA
ATOM     37  H24 UNL     1      28.856 -10.462 -32.783  0.00  0.00    +0.000 HD
ENDBRANCH  35  36
BRANCH  30  38
ATOM     38  O1  UNL     1      25.938  -9.260 -34.102  0.00  0.00    +0.000 OA
BRANCH  38  40
ATOM     39  C1  UNL     1      23.705  -9.009 -33.170  0.00  0.00    +0.000 C 
ATOM     40  C2  UNL     1      24.634  -8.732 -34.348  0.00  0.00    +0.000 C 
ENDBRANCH  38  40
ENDBRANCH  30  38
ENDBRANCH   1  32
TORSDOF 8
