REMARK  Name = resultss/4CJN/ligands/lig_331_t1.pdb
REMARK  10 active torsions:
REMARK  status: ('A' for Active; 'I' for Inactive)
REMARK    1  A    between atoms: C5_1  and  C4_13
REMARK    2  A    between atoms: C8_5  and  C9_24
REMARK    3  A    between atoms: C18_7  and  O4_22
REMARK    4  A    between atoms: C21_10  and  C22_34
REMARK    5  A    between atoms: C2_11  and  O1_19
REMARK    6  A    between atoms: C24_15  and  O7_20
REMARK    7  A    between atoms: C9_24  and  C10_25
REMARK    8  A    between atoms: C10_25  and  C11_26
REMARK    9  A    between atoms: C14_29  and  O3_32
REMARK   10  A    between atoms: C22_34  and  O6_35
REMARK                            x       y       z     vdW  Elec       q    Type
REMARK                         _______ _______ _______ _____ _____    ______ ____
ROOT
ATOM      1  C5  UNL     1      26.912  -9.467 -37.560  0.00  0.00    +0.000 C 
ATOM      2  O2  UNL     1      28.197  -9.620 -38.172  0.00  0.00    +0.000 OA
ATOM      3  C6  UNL     1      28.362  -9.520 -39.556  0.00  0.00    +0.000 C 
ATOM      4  C7  UNL     1      29.552  -9.929 -40.160  0.00  0.00    +0.000 C 
ATOM      5  C8  UNL     1      29.691  -9.863 -41.554  0.00  0.00    +0.000 C 
ATOM      6  C17 UNL     1      28.636  -9.358 -42.334  0.00  0.00    +0.000 C 
ATOM      7  C18 UNL     1      27.440  -8.927 -41.726  0.00  0.00    +0.000 C 
ATOM      8  C20 UNL     1      27.318  -9.001 -40.333  0.00  0.00    +0.000 C 
ATOM      9  O5  UNL     1      26.156  -8.553 -39.696  0.00  0.00    +0.000 OA
ATOM     10  C21 UNL     1      26.113  -8.347 -38.281  0.00  0.00    +0.000 C 
ENDROOT
BRANCH   1  13
ATOM     11  C2  UNL     1      28.550  -8.744 -34.095  0.00  0.00    +0.000 C 
ATOM     12  C3  UNL     1      28.306  -8.988 -35.566  0.00  0.00    +0.000 C 
ATOM     13  C4  UNL     1      27.080  -9.182 -36.084  0.00  0.00    +0.000 C 
ATOM     14  C23 UNL     1      25.875  -9.045 -35.236  0.00  0.00    +0.000 C 
ATOM     15  C24 UNL     1      25.958  -8.667 -33.950  0.00  0.00    +0.000 C 
ATOM     16  C26 UNL     1      27.282  -8.416 -33.354  0.00  0.00    +0.000 C 
ATOM     17  O8  UNL     1      27.356  -7.957 -32.182  0.00  0.00    +0.000 OA
BRANCH  11  19
ATOM     18  C1  UNL     1      30.517  -9.890 -33.618  0.00  0.00    +0.000 C 
ATOM     19  O1  UNL     1      29.109  -9.909 -33.516  0.00  0.00    +0.000 OA
ENDBRANCH  11  19
BRANCH  15  20
ATOM     20  O7  UNL     1      24.822  -8.489 -33.141  0.00  0.00    +0.000 OA
ATOM     21  C25 UNL     1      23.483  -8.414 -33.621  0.00  0.00    +0.000 C 
ENDBRANCH  15  20
ENDBRANCH   1  13
BRANCH   7  22
ATOM     22  O4  UNL     1      26.363  -8.414 -42.466  0.00  0.00    +0.000 OA
ATOM     23  C19 UNL     1      25.307  -9.205 -43.004  0.00  0.00    +0.000 C 
ENDBRANCH   7  22
BRANCH   5  24
ATOM     24  C9  UNL     1      30.983 -10.277 -42.206  0.00  0.00    +0.000 C 
BRANCH  24  25
ATOM     25  C10 UNL     1      30.887 -11.714 -42.726  0.00  0.00    +0.000 C 
BRANCH  25  26
ATOM     26  C11 UNL     1      31.827 -11.923 -43.882  0.00  0.00    +0.000 C 
ATOM     27  C12 UNL     1      31.952 -13.189 -44.474  0.00  0.00    +0.000 C 
ATOM     28  C13 UNL     1      32.803 -13.376 -45.569  0.00  0.00    +0.000 C 
ATOM     29  C14 UNL     1      33.528 -12.295 -46.087  0.00  0.00    +0.000 C 
ATOM     30  C15 UNL     1      33.396 -11.028 -45.509  0.00  0.00    +0.000 C 
ATOM     31  C16 UNL     1      32.546 -10.841 -44.414  0.00  0.00    +0.000 C 
BRANCH  29  32
ATOM     32  O3  UNL     1      34.379 -12.468 -47.177  0.00  0.00    +0.000 OA
ATOM     33  H14 UNL     1      35.384 -12.389 -47.081  0.00  0.00    +0.000 HD
ENDBRANCH  29  32
ENDBRANCH  25  26
ENDBRANCH  24  25
ENDBRANCH   5  24
BRANCH  10  34
ATOM     34  C22 UNL     1      24.650  -8.267 -37.819  0.00  0.00    +0.000 C 
BRANCH  34  35
ATOM     35  O6  UNL     1      23.942  -7.297 -38.545  0.00  0.00    +0.000 OA
ATOM     36  H24 UNL     1      24.105  -6.427 -38.095  0.00  0.00    +0.000 HD
ENDBRANCH  34  35
ENDBRANCH  10  34
TORSDOF 10
