REMARK  Name = resultss/4CJN/ligands/lig_284_t2.pdb
REMARK  10 active torsions:
REMARK  status: ('A' for Active; 'I' for Inactive)
REMARK    1  A    between atoms: C11_1  and  C10_23
REMARK    2  A    between atoms: C15_7  and  C16_9
REMARK    3  A    between atoms: C25_8  and  O5_21
REMARK    4  A    between atoms: C16_9  and  C17_11
REMARK    5  A    between atoms: C18_12  and  C19_13
REMARK    6  A    between atoms: C22_16  and  O4_19
REMARK    7  A    between atoms: C10_23  and  C9_26
REMARK    8  A    between atoms: C7_24  and  C6_27
REMARK    9  A    between atoms: C6_27  and  C5_28
REMARK   10  A    between atoms: C5_28  and  C4_32
REMARK                            x       y       z     vdW  Elec       q    Type
REMARK                         _______ _______ _______ _____ _____    ______ ____
ROOT
ATOM      1  C11 UNL     1      25.031  -8.476 -37.245  0.00  0.00    +0.000 C 
ATOM      2  C12 UNL     1      26.167  -9.358 -36.875  0.00  0.00    +0.000 C 
ATOM      3  O1  UNL     1      26.146  -9.996 -35.794  0.00  0.00    +0.000 OA
ATOM      4  C13 UNL     1      27.376  -9.454 -37.743  0.00  0.00    +0.000 C 
ATOM      5  C14 UNL     1      26.984  -9.316 -39.179  0.00  0.00    +0.000 C 
ATOM      6  O2  UNL     1      27.598  -9.942 -40.035  0.00  0.00    +0.000 OA
ATOM      7  C15 UNL     1      25.944  -8.305 -39.593  0.00  0.00    +0.000 C 
ATOM      8  C25 UNL     1      24.951  -7.960 -38.500  0.00  0.00    +0.000 C 
ENDROOT
BRANCH   7   9
ATOM      9  C16 UNL     1      26.627  -7.046 -40.066  0.00  0.00    +0.000 C 
ATOM     10  O3  UNL     1      26.923  -6.148 -39.227  0.00  0.00    +0.000 OA
BRANCH   9  11
ATOM     11  C17 UNL     1      26.933  -6.863 -41.500  0.00  0.00    +0.000 C 
ATOM     12  C18 UNL     1      26.318  -7.571 -42.457  0.00  0.00    +0.000 C 
BRANCH  12  13
ATOM     13  C19 UNL     1      26.594  -7.413 -43.907  0.00  0.00    +0.000 C 
ATOM     14  C20 UNL     1      25.586  -7.089 -44.839  0.00  0.00    +0.000 C 
ATOM     15  C21 UNL     1      25.896  -6.953 -46.197  0.00  0.00    +0.000 C 
ATOM     16  C22 UNL     1      27.212  -7.121 -46.641  0.00  0.00    +0.000 C 
ATOM     17  C23 UNL     1      28.222  -7.424 -45.720  0.00  0.00    +0.000 C 
ATOM     18  C24 UNL     1      27.917  -7.564 -44.363  0.00  0.00    +0.000 C 
BRANCH  16  19
ATOM     19  O4  UNL     1      27.504  -6.983 -47.997  0.00  0.00    +0.000 OA
ATOM     20  H25 UNL     1      28.018  -6.185 -48.349  0.00  0.00    +0.000 HD
ENDBRANCH  16  19
ENDBRANCH  12  13
ENDBRANCH   9  11
ENDBRANCH   7   9
BRANCH   8  21
ATOM     21  O5  UNL     1      23.938  -7.066 -38.864  0.00  0.00    +0.000 OA
ATOM     22  H28 UNL     1      24.037  -6.060 -38.869  0.00  0.00    +0.000 HD
ENDBRANCH   8  21
BRANCH   1  23
ATOM     23  C10 UNL     1      24.030  -8.097 -36.170  0.00  0.00    +0.000 C 
BRANCH  23  26
ATOM     24  C7  UNL     1      24.691  -7.402 -33.843  0.00  0.00    +0.000 C 
ATOM     25  C8  UNL     1      24.034  -8.629 -33.250  0.00  0.00    +0.000 C 
ATOM     26  C9  UNL     1      24.664  -7.162 -35.172  0.00  0.00    +0.000 C 
BRANCH  24  27
ATOM     27  C6  UNL     1      25.396  -6.415 -32.929  0.00  0.00    +0.000 C 
BRANCH  27  28
ATOM     28  C5  UNL     1      26.913  -6.391 -33.187  0.00  0.00    +0.000 C 
BRANCH  28  32
ATOM     29  C1  UNL     1      28.947  -7.465 -35.102  0.00  0.00    +0.000 C 
ATOM     30  C2  UNL     1      28.446  -8.257 -33.922  0.00  0.00    +0.000 C 
ATOM     31  C3  UNL     1      29.008  -9.637 -33.701  0.00  0.00    +0.000 C 
ATOM     32  C4  UNL     1      27.517  -7.770 -33.077  0.00  0.00    +0.000 C 
ENDBRANCH  28  32
ENDBRANCH  27  28
ENDBRANCH  24  27
ENDBRANCH  23  26
ENDBRANCH   1  23
TORSDOF 10
