REMARK  Name = resultss/4CJN/ligands/lig_441_t0.pdb
REMARK  9 active torsions:
REMARK  status: ('A' for Active; 'I' for Inactive)
REMARK    1  A    between atoms: N3_1  and  N2_25
REMARK    2  A    between atoms: C6_2  and  C7_5
REMARK    3  A    between atoms: C17_16  and  C18_19
REMARK    4  A    between atoms: N2_25  and  C5_27
REMARK    5  A    between atoms: C5_27  and  N1_29
REMARK    6  A    between atoms: N1_29  and  C4_33
REMARK    7  A    between atoms: C2_31  and  O1_38
REMARK    8  A    between atoms: C25_35  and  O3_39
REMARK    9  A    between atoms: C27_36  and  O4_41
REMARK                            x       y       z     vdW  Elec       q    Type
REMARK                         _______ _______ _______ _____ _____    ______ ____
ROOT
ATOM      1  N3  UNL     1      26.235  -9.687 -40.065  0.00  0.00    +0.000 N 
ATOM      2  C6  UNL     1      27.288 -10.282 -39.297  0.00  0.00    +0.000 C 
ATOM      3  O2  UNL     1      28.073 -11.105 -39.841  0.00  0.00    +0.000 OA
ATOM      4  H7  UNL     1      25.458  -9.185 -39.579  0.00  0.00    +0.000 HD
ENDROOT
BRANCH   2   5
ATOM      5  C7  UNL     1      27.463  -9.945 -37.874  0.00  0.00    +0.000 C 
ATOM      6  C8  UNL     1      28.754  -9.874 -37.309  0.00  0.00    +0.000 C 
ATOM      7  C9  UNL     1      28.842  -9.509 -35.972  0.00  0.00    +0.000 A 
ATOM      8  C10 UNL     1      27.725  -9.195 -35.224  0.00  0.00    +0.000 A 
ATOM      9  N4  UNL     1      28.057  -8.899 -33.945  0.00  0.00    +0.000 N 
ATOM     10  C11 UNL     1      29.405  -9.021 -33.901  0.00  0.00    +0.000 A 
ATOM     11  C12 UNL     1      30.231  -8.809 -32.800  0.00  0.00    +0.000 C 
ATOM     12  C13 UNL     1      31.618  -8.979 -32.974  0.00  0.00    +0.000 C 
ATOM     13  C14 UNL     1      32.142  -9.362 -34.229  0.00  0.00    +0.000 C 
ATOM     14  C15 UNL     1      31.288  -9.580 -35.325  0.00  0.00    +0.000 C 
ATOM     15  C16 UNL     1      29.922  -9.392 -35.125  0.00  0.00    +0.000 A 
ATOM     16  C17 UNL     1      26.451  -9.258 -35.800  0.00  0.00    +0.000 C 
ATOM     17  N5  UNL     1      26.365  -9.647 -37.108  0.00  0.00    +0.000 NA
ATOM     18  H9  UNL     1      27.424  -8.666 -33.150  0.00  0.00    +0.000 HD
BRANCH  16  19
ATOM     19  C18 UNL     1      25.222  -8.872 -35.073  0.00  0.00    +0.000 C 
ATOM     20  C19 UNL     1      24.213  -8.130 -35.713  0.00  0.00    +0.000 C 
ATOM     21  C20 UNL     1      23.032  -7.813 -35.033  0.00  0.00    +0.000 C 
ATOM     22  C21 UNL     1      22.844  -8.239 -33.716  0.00  0.00    +0.000 C 
ATOM     23  C22 UNL     1      23.835  -8.991 -33.079  0.00  0.00    +0.000 C 
ATOM     24  C23 UNL     1      25.014  -9.315 -33.757  0.00  0.00    +0.000 C 
ENDBRANCH  16  19
ENDBRANCH   2   5
BRANCH   1  25
ATOM     25  N2  UNL     1      26.252  -9.744 -41.468  0.00  0.00    +0.000 N 
ATOM     26  H6  UNL     1      25.897 -10.601 -41.953  0.00  0.00    +0.000 HD
BRANCH  25  27
ATOM     27  C5  UNL     1      26.726  -8.654 -42.271  0.00  0.00    +0.000 C 
ATOM     28  S1  UNL     1      25.793  -7.327 -42.522  0.00  0.00    +0.000 S 
BRANCH  27  29
ATOM     29  N1  UNL     1      27.930  -8.813 -43.028  0.00  0.00    +0.000 N 
ATOM     30  H5  UNL     1      27.857  -8.757 -44.072  0.00  0.00    +0.000 HD
BRANCH  29  33
ATOM     31  C2  UNL     1      30.888  -8.549 -40.740  0.00  0.00    +0.000 C 
ATOM     32  C3  UNL     1      29.656  -8.292 -41.370  0.00  0.00    +0.000 C 
ATOM     33  C4  UNL     1      29.208  -9.093 -42.428  0.00  0.00    +0.000 C 
ATOM     34  C24 UNL     1      30.003 -10.166 -42.861  0.00  0.00    +0.000 C 
ATOM     35  C25 UNL     1      31.229 -10.451 -42.230  0.00  0.00    +0.000 C 
ATOM     36  C27 UNL     1      31.658  -9.655 -41.157  0.00  0.00    +0.000 C 
BRANCH  31  38
ATOM     37  C1  UNL     1      32.218  -6.577 -39.942  0.00  0.00    +0.000 C 
ATOM     38  O1  UNL     1      31.387  -7.714 -39.727  0.00  0.00    +0.000 OA
ENDBRANCH  31  38
BRANCH  35  39
ATOM     39  O3  UNL     1      32.040 -11.529 -42.625  0.00  0.00    +0.000 OA
ATOM     40  C26 UNL     1      31.588 -12.656 -43.367  0.00  0.00    +0.000 C 
ENDBRANCH  35  39
BRANCH  36  41
ATOM     41  O4  UNL     1      32.870  -9.976 -40.534  0.00  0.00    +0.000 OA
ATOM     42  C28 UNL     1      34.137  -9.556 -41.034  0.00  0.00    +0.000 C 
ENDBRANCH  36  41
ENDBRANCH  29  33
ENDBRANCH  27  29
ENDBRANCH  25  27
ENDBRANCH   1  25
TORSDOF 9
