REMARK  Name = resultss/4CJN/ligands/lig_388_t1.pdb
REMARK  5 active torsions:
REMARK  status: ('A' for Active; 'I' for Inactive)
REMARK    1  A    between atoms: N2_1  and  C4_21
REMARK    2  A    between atoms: C6_4  and  O3_30
REMARK    3  A    between atoms: C7_5  and  C8_8
REMARK    4  A    between atoms: C1_18  and  S1_24
REMARK    5  A    between atoms: S1_24  and  N1_27
REMARK                            x       y       z     vdW  Elec       q    Type
REMARK                         _______ _______ _______ _____ _____    ______ ____
ROOT
ATOM      1  N2  UNL     1      30.357  -8.694 -40.927  0.00  0.00    +0.000 NA
ATOM      2  C5  UNL     1      29.556  -9.044 -39.963  0.00  0.00    +0.000 A 
ATOM      3  N3  UNL     1      29.191 -10.317 -39.677  0.00  0.00    +0.000 N 
ATOM      4  C6  UNL     1      28.321 -10.372 -38.633  0.00  0.00    +0.000 A 
ATOM      5  C7  UNL     1      27.961  -9.132 -38.103  0.00  0.00    +0.000 A 
ATOM      6  S2  UNL     1      28.796  -7.939 -38.951  0.00  0.00    +0.000 S 
ATOM      7  H5  UNL     1      29.505 -11.166 -40.195  0.00  0.00    +0.000 HD
ENDROOT
BRANCH   5   8
ATOM      8  C8  UNL     1      27.070  -8.877 -36.958  0.00  0.00    +0.000 C 
ATOM      9  C9  UNL     1      25.620  -8.775 -36.976  0.00  0.00    +0.000 C 
ATOM     10  O4  UNL     1      24.883  -8.869 -37.993  0.00  0.00    +0.000 OA
ATOM     11  N4  UNL     1      25.131  -8.533 -35.661  0.00  0.00    +0.000 NA
ATOM     12  C10 UNL     1      26.210  -8.514 -34.945  0.00  0.00    +0.000 C 
ATOM     13  C11 UNL     1      26.246  -8.328 -33.563  0.00  0.00    +0.000 C 
ATOM     14  C12 UNL     1      27.490  -8.373 -32.913  0.00  0.00    +0.000 C 
ATOM     15  C13 UNL     1      28.670  -8.612 -33.646  0.00  0.00    +0.000 C 
ATOM     16  C14 UNL     1      28.621  -8.797 -35.037  0.00  0.00    +0.000 C 
ATOM     17  C15 UNL     1      27.376  -8.721 -35.674  0.00  0.00    +0.000 C 
ENDBRANCH   5   8
BRANCH   1  21
ATOM     18  C1  UNL     1      32.563 -11.407 -43.332  0.00  0.00    +0.000 C 
ATOM     19  C2  UNL     1      33.147 -10.815 -42.205  0.00  0.00    +0.000 C 
ATOM     20  C3  UNL     1      32.415  -9.917 -41.424  0.00  0.00    +0.000 C 
ATOM     21  C4  UNL     1      31.102  -9.579 -41.776  0.00  0.00    +0.000 C 
ATOM     22  C16 UNL     1      30.508 -10.195 -42.891  0.00  0.00    +0.000 C 
ATOM     23  C17 UNL     1      31.241 -11.093 -43.672  0.00  0.00    +0.000 C 
BRANCH  18  24
ATOM     24  S1  UNL     1      33.493 -12.527 -44.324  0.00  0.00    +0.000 S 
ATOM     25  O1  UNL     1      34.379 -11.758 -45.263  0.00  0.00    +0.000 OA
ATOM     26  O2  UNL     1      34.356 -13.390 -43.445  0.00  0.00    +0.000 OA
BRANCH  24  27
ATOM     27  N1  UNL     1      32.412 -13.526 -45.229  0.00  0.00    +0.000 NA
ATOM     28  H1  UNL     1      31.640 -13.803 -44.583  0.00  0.00    +0.000 HD
ATOM     29  H2  UNL     1      31.987 -12.924 -45.969  0.00  0.00    +0.000 HD
ENDBRANCH  24  27
ENDBRANCH  18  24
ENDBRANCH   1  21
BRANCH   4  30
ATOM     30  O3  UNL     1      27.859 -11.581 -38.121  0.00  0.00    +0.000 OA
ATOM     31  H6  UNL     1      28.110 -12.461 -38.556  0.00  0.00    +0.000 HD
ENDBRANCH   4  30
TORSDOF 5
