REMARK  Name = resultss/4CJN/ligands/lig_164_t0.pdb
REMARK  4 active torsions:
REMARK  status: ('A' for Active; 'I' for Inactive)
REMARK    1  A    between atoms: C7_1  and  C1_17
REMARK    2  A    between atoms: C10_4  and  C11_7
REMARK    3  A    between atoms: N1_18  and  N2_20
REMARK    4  A    between atoms: C2_21  and  C3_22
REMARK                            x       y       z     vdW  Elec       q    Type
REMARK                         _______ _______ _______ _____ _____    ______ ____
ROOT
ATOM      1  C7  UNL     1      29.442  -9.355 -40.298  0.00  0.00    +0.000 C 
ATOM      2  C8  UNL     1      28.798 -10.074 -41.321  0.00  0.00    +0.000 C 
ATOM      3  C9  UNL     1      29.542 -10.693 -42.331  0.00  0.00    +0.000 C 
ATOM      4  C10 UNL     1      30.943 -10.601 -42.346  0.00  0.00    +0.000 C 
ATOM      5  C18 UNL     1      31.586  -9.872 -41.331  0.00  0.00    +0.000 C 
ATOM      6  C19 UNL     1      30.844  -9.253 -40.321  0.00  0.00    +0.000 C 
ENDROOT
BRANCH   4   7
ATOM      7  C11 UNL     1      31.719 -11.261 -43.421  0.00  0.00    +0.000 A 
ATOM      8  N3  UNL     1      32.386 -10.576 -44.385  0.00  0.00    +0.000 NA
ATOM      9  C12 UNL     1      33.015 -11.415 -45.247  0.00  0.00    +0.000 A 
ATOM     10  C13 UNL     1      33.779 -10.998 -46.339  0.00  0.00    +0.000 C 
ATOM     11  C14 UNL     1      34.379 -11.973 -47.155  0.00  0.00    +0.000 C 
ATOM     12  C15 UNL     1      34.210 -13.343 -46.871  0.00  0.00    +0.000 C 
ATOM     13  C16 UNL     1      33.441 -13.751 -45.770  0.00  0.00    +0.000 C 
ATOM     14  C17 UNL     1      32.857 -12.765 -44.979  0.00  0.00    +0.000 A 
ATOM     15  S2  UNL     1      31.897 -12.941 -43.616  0.00  0.00    +0.000 S 
ENDBRANCH   4   7
BRANCH   1  17
ATOM     16  O1  UNL     1      28.467  -7.450 -39.272  0.00  0.00    +0.000 OA
ATOM     17  C1  UNL     1      28.640  -8.700 -39.237  0.00  0.00    +0.000 C 
ATOM     18  N1  UNL     1      28.039  -9.458 -38.180  0.00  0.00    +0.000 N 
ATOM     19  H1  UNL     1      28.030 -10.502 -38.223  0.00  0.00    +0.000 HD
BRANCH  18  20
ATOM     20  N2  UNL     1      27.401  -8.798 -37.119  0.00  0.00    +0.000 NA
ATOM     21  C2  UNL     1      26.671  -9.435 -36.258  0.00  0.00    +0.000 C 
BRANCH  21  22
ATOM     22  C3  UNL     1      26.015  -8.718 -35.159  0.00  0.00    +0.000 C 
ATOM     23  C4  UNL     1      25.265  -9.281 -34.133  0.00  0.00    +0.000 C 
ATOM     24  C5  UNL     1      24.767  -8.333 -33.232  0.00  0.00    +0.000 C 
ATOM     25  C6  UNL     1      25.124  -7.026 -33.544  0.00  0.00    +0.000 C 
ATOM     26  S1  UNL     1      26.057  -7.052 -34.943  0.00  0.00    +0.000 S 
ENDBRANCH  21  22
ENDBRANCH  18  20
ENDBRANCH   1  17
TORSDOF 4
