REMARK  Name = resultss/4CJN/ligands/lig_423_t0.pdb
REMARK  8 active torsions:
REMARK  status: ('A' for Active; 'I' for Inactive)
REMARK    1  A    between atoms: C1_2  and  C10_5
REMARK    2  A    between atoms: N1_3  and  N2_25
REMARK    3  A    between atoms: C20_16  and  C21_19
REMARK    4  A    between atoms: N2_25  and  C2_27
REMARK    5  A    between atoms: C2_27  and  N3_29
REMARK    6  A    between atoms: N3_29  and  C3_31
REMARK    7  A    between atoms: C6_34  and  O2_37
REMARK    8  A    between atoms: O2_37  and  C7_38
REMARK                            x       y       z     vdW  Elec       q    Type
REMARK                         _______ _______ _______ _____ _____    ______ ____
ROOT
ATOM      1  O1  UNL     1      27.163 -10.173 -39.209  0.00  0.00    +0.000 OA
ATOM      2  C1  UNL     1      28.302 -10.109 -38.670  0.00  0.00    +0.000 C 
ATOM      3  N1  UNL     1      29.478 -10.347 -39.460  0.00  0.00    +0.000 N 
ATOM      4  H1  UNL     1      30.395  -9.982 -39.120  0.00  0.00    +0.000 HD
ENDROOT
BRANCH   2   5
ATOM      5  C10 UNL     1      28.420  -9.769 -37.237  0.00  0.00    +0.000 C 
ATOM      6  C11 UNL     1      29.672  -9.800 -36.587  0.00  0.00    +0.000 C 
ATOM      7  C12 UNL     1      29.698  -9.472 -35.237  0.00  0.00    +0.000 A 
ATOM      8  C13 UNL     1      28.557  -9.122 -34.548  0.00  0.00    +0.000 A 
ATOM      9  N4  UNL     1      28.821  -8.909 -33.236  0.00  0.00    +0.000 N 
ATOM     10  C14 UNL     1      30.151  -9.112 -33.113  0.00  0.00    +0.000 A 
ATOM     11  C15 UNL     1      30.912  -9.025 -31.949  0.00  0.00    +0.000 C 
ATOM     12  C16 UNL     1      32.290  -9.297 -32.040  0.00  0.00    +0.000 C 
ATOM     13  C17 UNL     1      32.872  -9.652 -33.279  0.00  0.00    +0.000 C 
ATOM     14  C18 UNL     1      32.082  -9.739 -34.440  0.00  0.00    +0.000 C 
ATOM     15  C19 UNL     1      30.723  -9.458 -34.320  0.00  0.00    +0.000 A 
ATOM     16  C20 UNL     1      27.322  -9.076 -35.207  0.00  0.00    +0.000 C 
ATOM     17  N5  UNL     1      27.298  -9.412 -36.532  0.00  0.00    +0.000 NA
ATOM     18  H9  UNL     1      28.152  -8.676 -32.469  0.00  0.00    +0.000 HD
BRANCH  16  19
ATOM     19  C21 UNL     1      26.063  -8.691 -34.534  0.00  0.00    +0.000 C 
ATOM     20  C22 UNL     1      25.269  -9.649 -33.881  0.00  0.00    +0.000 C 
ATOM     21  C23 UNL     1      24.093  -9.265 -33.228  0.00  0.00    +0.000 C 
ATOM     22  C24 UNL     1      23.710  -7.922 -33.209  0.00  0.00    +0.000 C 
ATOM     23  C25 UNL     1      24.505  -6.959 -33.837  0.00  0.00    +0.000 C 
ATOM     24  C26 UNL     1      25.681  -7.340 -34.491  0.00  0.00    +0.000 C 
ENDBRANCH  16  19
ENDBRANCH   2   5
BRANCH   3  25
ATOM     25  N2  UNL     1      29.407 -10.824 -40.782  0.00  0.00    +0.000 N 
ATOM     26  H2  UNL     1      28.675 -11.532 -41.015  0.00  0.00    +0.000 HD
BRANCH  25  27
ATOM     27  C2  UNL     1      30.211 -10.295 -41.847  0.00  0.00    +0.000 C 
ATOM     28  S1  UNL     1      29.500  -9.439 -43.059  0.00  0.00    +0.000 S 
BRANCH  27  29
ATOM     29  N3  UNL     1      31.554 -10.781 -42.009  0.00  0.00    +0.000 N 
ATOM     30  H3  UNL     1      32.211 -10.669 -41.204  0.00  0.00    +0.000 HD
BRANCH  29  31
ATOM     31  C3  UNL     1      32.053 -11.400 -43.206  0.00  0.00    +0.000 C 
ATOM     32  C4  UNL     1      31.825 -12.761 -43.476  0.00  0.00    +0.000 C 
ATOM     33  C5  UNL     1      32.293 -13.333 -44.662  0.00  0.00    +0.000 C 
ATOM     34  C6  UNL     1      32.979 -12.560 -45.605  0.00  0.00    +0.000 C 
ATOM     35  C8  UNL     1      33.191 -11.192 -45.344  0.00  0.00    +0.000 C 
ATOM     36  C9  UNL     1      32.724 -10.620 -44.157  0.00  0.00    +0.000 C 
BRANCH  34  37
ATOM     37  O2  UNL     1      33.425 -13.187 -46.779  0.00  0.00    +0.000 OA
BRANCH  37  38
ATOM     38  C7  UNL     1      33.487 -14.596 -46.989  0.00  0.00    +0.000 C 
ATOM     39  F1  UNL     1      34.378 -15.171 -46.101  0.00  0.00    +0.000 F 
ATOM     40  F2  UNL     1      32.233 -15.157 -46.830  0.00  0.00    +0.000 F 
ATOM     41  F3  UNL     1      33.923 -14.839 -48.277  0.00  0.00    +0.000 F 
ENDBRANCH  37  38
ENDBRANCH  34  37
ENDBRANCH  29  31
ENDBRANCH  27  29
ENDBRANCH  25  27
ENDBRANCH   3  25
TORSDOF 8
