REMARK  Name = resultss/4CJN/ligands/lig_83_t0.pdb
REMARK  4 active torsions:
REMARK  status: ('A' for Active; 'I' for Inactive)
REMARK    1  A    between atoms: C9_10  and  C10_18
REMARK    2  A    between atoms: C21_17  and  C22_24
REMARK    3  A    between atoms: C22_24  and  C23_25
REMARK    4  A    between atoms: C27_31  and  O5_32
REMARK                            x       y       z     vdW  Elec       q    Type
REMARK                         _______ _______ _______ _____ _____    ______ ____
ROOT
ATOM      1  C1  UNL     1      31.040  -9.627 -36.093  0.00  0.00    +0.000 C 
ATOM      2  C2  UNL     1      30.465  -8.955 -37.106  0.00  0.00    +0.000 C 
ATOM      3  C3  UNL     1      31.335  -8.338 -38.183  0.00  0.00    +0.000 C 
ATOM      4  C4  UNL     1      30.559  -8.122 -39.494  0.00  0.00    +0.000 C 
ATOM      5  C5  UNL     1      29.482  -9.222 -39.660  0.00  0.00    +0.000 C 
ATOM      6  C6  UNL     1      29.045  -9.582 -41.145  0.00  0.00    +0.000 C 
ATOM      7  C7  UNL     1      30.214 -10.388 -41.792  0.00  0.00    +0.000 C 
ATOM      8  C8  UNL     1      28.812  -8.327 -42.067  0.00  0.00    +0.000 C 
ATOM      9  O1  UNL     1      27.463  -7.940 -42.200  0.00  0.00    +0.000 OA
ATOM     10  C9  UNL     1      26.682  -9.060 -42.545  0.00  0.00    +0.000 C 
ATOM     11  O2  UNL     1      26.553  -9.891 -41.416  0.00  0.00    +0.000 OA
ATOM     12  C16 UNL     1      27.780 -10.537 -41.143  0.00  0.00    +0.000 C 
ATOM     13  C17 UNL     1      27.638 -11.301 -39.813  0.00  0.00    +0.000 C 
ATOM     14  C18 UNL     1      27.509 -10.394 -38.563  0.00  0.00    +0.000 C 
ATOM     15  C19 UNL     1      28.330  -9.047 -38.600  0.00  0.00    +0.000 C 
ATOM     16  C20 UNL     1      27.351  -7.910 -39.013  0.00  0.00    +0.000 C 
ATOM     17  C21 UNL     1      28.953  -8.737 -37.141  0.00  0.00    +0.000 C 
ENDROOT
BRANCH  10  18
ATOM     18  C10 UNL     1      25.307  -8.596 -42.954  0.00  0.00    +0.000 C 
ATOM     19  C11 UNL     1      24.182  -8.943 -42.184  0.00  0.00    +0.000 C 
ATOM     20  C12 UNL     1      22.910  -8.488 -42.547  0.00  0.00    +0.000 C 
ATOM     21  C13 UNL     1      22.750  -7.678 -43.673  0.00  0.00    +0.000 C 
ATOM     22  C14 UNL     1      23.862  -7.314 -44.436  0.00  0.00    +0.000 C 
ATOM     23  C15 UNL     1      25.136  -7.767 -44.078  0.00  0.00    +0.000 C 
ENDBRANCH  10  18
BRANCH  17  24
ATOM     24  C22 UNL     1      28.662  -7.321 -36.551  0.00  0.00    +0.000 C 
BRANCH  24  25
ATOM     25  C23 UNL     1      28.297  -7.354 -35.088  0.00  0.00    +0.000 C 
ATOM     26  C24 UNL     1      27.126  -7.811 -34.617  0.00  0.00    +0.000 C 
ATOM     27  C25 UNL     1      26.774  -7.892 -33.220  0.00  0.00    +0.000 C 
ATOM     28  O3  UNL     1      27.505  -7.535 -32.258  0.00  0.00    +0.000 OA
ATOM     29  O4  UNL     1      25.517  -8.429 -33.059  0.00  0.00    +0.000 OA
ATOM     30  C26 UNL     1      24.937  -8.767 -34.316  0.00  0.00    +0.000 C 
ATOM     31  C27 UNL     1      25.955  -8.327 -35.402  0.00  0.00    +0.000 C 
BRANCH  31  32
ATOM     32  O5  UNL     1      25.415  -7.300 -36.193  0.00  0.00    +0.000 OA
ATOM     33  H34 UNL     1      24.433  -7.330 -36.056  0.00  0.00    +0.000 HD
ENDBRANCH  31  32
ENDBRANCH  24  25
ENDBRANCH  17  24
TORSDOF 4
