REMARK  Name = resultss/4CJN/ligands/lig_312_t0.pdb
REMARK  12 active torsions:
REMARK  status: ('A' for Active; 'I' for Inactive)
REMARK    1  A    between atoms: C10_1  and  O5_11
REMARK    2  A    between atoms: C12_4  and  O7_7
REMARK    3  A    between atoms: C13_5  and  O8_9
REMARK    4  A    between atoms: C14_6  and  O9_33
REMARK    5  A    between atoms: O5_11  and  C9_20
REMARK    6  A    between atoms: C2_12  and  O1_28
REMARK    7  A    between atoms: C4_14  and  O2_29
REMARK    8  A    between atoms: C8_19  and  O4_31
REMARK    9  A    between atoms: O9_33  and  C15_34
REMARK   10  A    between atoms: C18_38  and  O11_41
REMARK   11  A    between atoms: C19_39  and  O12_43
REMARK   12  A    between atoms: C20_40  and  O13_45
REMARK                            x       y       z     vdW  Elec       q    Type
REMARK                         _______ _______ _______ _____ _____    ______ ____
ROOT
ATOM      1  C10 UNL     1      26.989  -7.999 -39.284  0.00  0.00    +0.000 C 
ATOM      2  O6  UNL     1      28.268  -8.387 -39.767  0.00  0.00    +0.000 OA
ATOM      3  C11 UNL     1      28.503  -9.767 -39.555  0.00  0.00    +0.000 C 
ATOM      4  C12 UNL     1      28.405 -10.167 -38.063  0.00  0.00    +0.000 C 
ATOM      5  C13 UNL     1      28.092  -8.945 -37.188  0.00  0.00    +0.000 C 
ATOM      6  C14 UNL     1      26.856  -8.221 -37.750  0.00  0.00    +0.000 C 
ENDROOT
BRANCH   4   7
ATOM      7  O7  UNL     1      29.619 -10.740 -37.640  0.00  0.00    +0.000 OA
ATOM      8  H11 UNL     1      29.547 -11.721 -37.776  0.00  0.00    +0.000 HD
ENDBRANCH   4   7
BRANCH   5   9
ATOM      9  O8  UNL     1      27.843  -9.366 -35.871  0.00  0.00    +0.000 OA
ATOM     10  H13 UNL     1      27.919  -8.563 -35.290  0.00  0.00    +0.000 HD
ENDBRANCH   5   9
BRANCH   1  11
ATOM     11  O5  UNL     1      25.939  -8.700 -39.958  0.00  0.00    +0.000 OA
BRANCH  11  20
ATOM     12  C2  UNL     1      22.954  -6.752 -47.997  0.00  0.00    +0.000 C 
ATOM     13  C3  UNL     1      24.334  -6.775 -48.255  0.00  0.00    +0.000 C 
ATOM     14  C4  UNL     1      25.254  -7.005 -47.222  0.00  0.00    +0.000 C 
ATOM     15  C5  UNL     1      24.794  -7.219 -45.902  0.00  0.00    +0.000 A 
ATOM     16  C6  UNL     1      25.662  -7.461 -44.813  0.00  0.00    +0.000 A 
ATOM     17  O3  UNL     1      26.906  -7.384 -44.983  0.00  0.00    +0.000 OA
ATOM     18  C7  UNL     1      25.124  -7.766 -43.536  0.00  0.00    +0.000 A 
ATOM     19  C8  UNL     1      25.910  -8.130 -42.397  0.00  0.00    +0.000 C 
ATOM     20  C9  UNL     1      25.275  -8.341 -41.146  0.00  0.00    +0.000 C 
ATOM     21  C21 UNL     1      23.888  -8.224 -41.049  0.00  0.00    +0.000 C 
ATOM     22  C22 UNL     1      23.114  -7.919 -42.161  0.00  0.00    +0.000 C 
ATOM     23  C23 UNL     1      23.714  -7.698 -43.397  0.00  0.00    +0.000 A 
ATOM     24  O14 UNL     1      22.936  -7.425 -44.437  0.00  0.00    +0.000 OA
ATOM     25  C24 UNL     1      23.406  -7.204 -45.654  0.00  0.00    +0.000 A 
ATOM     26  C25 UNL     1      22.503  -6.960 -46.694  0.00  0.00    +0.000 C 
BRANCH  12  28
ATOM     27  C1  UNL     1      20.599  -6.702 -48.834  0.00  0.00    +0.000 C 
ATOM     28  O1  UNL     1      22.002  -6.532 -49.004  0.00  0.00    +0.000 OA
ENDBRANCH  12  28
BRANCH  14  29
ATOM     29  O2  UNL     1      26.619  -7.035 -47.521  0.00  0.00    +0.000 OA
ATOM     30  H5  UNL     1      27.301  -6.553 -46.951  0.00  0.00    +0.000 HD
ENDBRANCH  14  29
BRANCH  19  31
ATOM     31  O4  UNL     1      27.288  -8.328 -42.491  0.00  0.00    +0.000 OA
ATOM     32  H6  UNL     1      27.884  -7.795 -43.106  0.00  0.00    +0.000 HD
ENDBRANCH  19  31
ENDBRANCH  11  20
ENDBRANCH   1  11
BRANCH   6  33
ATOM     33  O9  UNL     1      26.716  -6.968 -37.095  0.00  0.00    +0.000 OA
BRANCH  33  34
ATOM     34  C15 UNL     1      25.411  -6.801 -36.572  0.00  0.00    +0.000 C 
ATOM     35  O10 UNL     1      25.452  -6.043 -35.366  0.00  0.00    +0.000 OA
ATOM     36  C16 UNL     1      25.685  -6.864 -34.240  0.00  0.00    +0.000 C 
ATOM     37  C17 UNL     1      26.064  -5.982 -33.052  0.00  0.00    +0.000 C 
ATOM     38  C18 UNL     1      24.420  -7.694 -33.930  0.00  0.00    +0.000 C 
ATOM     39  C19 UNL     1      23.741  -8.194 -35.238  0.00  0.00    +0.000 C 
ATOM     40  C20 UNL     1      24.732  -8.193 -36.418  0.00  0.00    +0.000 C 
BRANCH  38  41
ATOM     41  O11 UNL     1      24.768  -8.789 -33.122  0.00  0.00    +0.000 OA
ATOM     42  H21 UNL     1      24.729  -9.591 -33.713  0.00  0.00    +0.000 HD
ENDBRANCH  38  41
BRANCH  39  43
ATOM     43  O12 UNL     1      22.599  -7.430 -35.544  0.00  0.00    +0.000 OA
ATOM     44  H23 UNL     1      22.852  -6.750 -36.221  0.00  0.00    +0.000 HD
ENDBRANCH  39  43
BRANCH  40  45
ATOM     45  O13 UNL     1      24.065  -8.552 -37.600  0.00  0.00    +0.000 OA
ATOM     46  H25 UNL     1      24.385  -7.938 -38.312  0.00  0.00    +0.000 HD
ENDBRANCH  40  45
ENDBRANCH  33  34
ENDBRANCH   6  33
TORSDOF 12
