REMARK  Name = resultss/4CJN/ligands/lig_443_t0.pdb
REMARK  7 active torsions:
REMARK  status: ('A' for Active; 'I' for Inactive)
REMARK    1  A    between atoms: C9_1  and  C1_22
REMARK    2  A    between atoms: C19_12  and  C20_15
REMARK    3  A    between atoms: N1_23  and  N2_25
REMARK    4  A    between atoms: N2_25  and  C2_27
REMARK    5  A    between atoms: C2_27  and  N3_29
REMARK    6  A    between atoms: N3_29  and  C3_31
REMARK    7  A    between atoms: C7_35  and  N4_37
REMARK                            x       y       z     vdW  Elec       q    Type
REMARK                         _______ _______ _______ _____ _____    ______ ____
ROOT
ATOM      1  C9  UNL     1      25.077  -7.388 -39.075  0.00  0.00    +0.000 C 
ATOM      2  C10 UNL     1      24.228  -7.534 -37.956  0.00  0.00    +0.000 C 
ATOM      3  C11 UNL     1      24.796  -8.024 -36.787  0.00  0.00    +0.000 A 
ATOM      4  C12 UNL     1      26.127  -8.365 -36.705  0.00  0.00    +0.000 A 
ATOM      5  N5  UNL     1      26.462  -8.752 -35.451  0.00  0.00    +0.000 N 
ATOM      6  C13 UNL     1      25.312  -8.668 -34.746  0.00  0.00    +0.000 A 
ATOM      7  C14 UNL     1      25.133  -8.945 -33.392  0.00  0.00    +0.000 C 
ATOM      8  C15 UNL     1      23.849  -8.766 -32.846  0.00  0.00    +0.000 C 
ATOM      9  C16 UNL     1      22.782  -8.313 -33.654  0.00  0.00    +0.000 C 
ATOM     10  C17 UNL     1      22.987  -8.032 -35.018  0.00  0.00    +0.000 C 
ATOM     11  C18 UNL     1      24.269  -8.225 -35.531  0.00  0.00    +0.000 A 
ATOM     12  C19 UNL     1      26.957  -8.231 -37.827  0.00  0.00    +0.000 C 
ATOM     13  N6  UNL     1      26.399  -7.737 -38.973  0.00  0.00    +0.000 NA
ATOM     14  H9  UNL     1      27.401  -9.021 -35.085  0.00  0.00    +0.000 HD
ENDROOT
BRANCH  12  15
ATOM     15  C20 UNL     1      28.389  -8.596 -37.817  0.00  0.00    +0.000 C 
ATOM     16  C21 UNL     1      28.816  -9.842 -37.325  0.00  0.00    +0.000 C 
ATOM     17  C22 UNL     1      30.173 -10.180 -37.346  0.00  0.00    +0.000 C 
ATOM     18  C23 UNL     1      31.109  -9.288 -37.870  0.00  0.00    +0.000 C 
ATOM     19  C24 UNL     1      30.691  -8.057 -38.383  0.00  0.00    +0.000 C 
ATOM     20  C25 UNL     1      29.336  -7.714 -38.364  0.00  0.00    +0.000 C 
ENDBRANCH  12  15
BRANCH   1  22
ATOM     21  O1  UNL     1      25.192  -5.946 -40.956  0.00  0.00    +0.000 OA
ATOM     22  C1  UNL     1      24.559  -6.856 -40.354  0.00  0.00    +0.000 C 
ATOM     23  N1  UNL     1      23.340  -7.366 -40.917  0.00  0.00    +0.000 N 
ATOM     24  H1  UNL     1      22.816  -8.109 -40.404  0.00  0.00    +0.000 HD
BRANCH  23  25
ATOM     25  N2  UNL     1      22.868  -6.916 -42.165  0.00  0.00    +0.000 N 
ATOM     26  H2  UNL     1      22.346  -6.015 -42.223  0.00  0.00    +0.000 HD
BRANCH  25  27
ATOM     27  C2  UNL     1      23.130  -7.629 -43.384  0.00  0.00    +0.000 C 
ATOM     28  S1  UNL     1      22.698  -6.984 -44.829  0.00  0.00    +0.000 S 
BRANCH  27  29
ATOM     29  N3  UNL     1      23.957  -8.802 -43.371  0.00  0.00    +0.000 N 
ATOM     30  H3  UNL     1      23.499  -9.728 -43.540  0.00  0.00    +0.000 HD
BRANCH  29  31
ATOM     31  C3  UNL     1      25.376  -8.780 -43.141  0.00  0.00    +0.000 C 
ATOM     32  C4  UNL     1      26.188  -7.963 -43.938  0.00  0.00    +0.000 C 
ATOM     33  C5  UNL     1      27.572  -7.947 -43.752  0.00  0.00    +0.000 C 
ATOM     34  C6  UNL     1      28.159  -8.753 -42.775  0.00  0.00    +0.000 C 
ATOM     35  C7  UNL     1      27.366  -9.596 -41.977  0.00  0.00    +0.000 C 
ATOM     36  C8  UNL     1      25.973  -9.608 -42.173  0.00  0.00    +0.000 C 
BRANCH  35  37
ATOM     37  N4  UNL     1      27.968 -10.443 -40.980  0.00  0.00    +0.000 N 
ATOM     38  O2  UNL     1      27.264 -11.172 -40.252  0.00  0.00    +0.000 OA
ATOM     39  O3  UNL     1      29.335 -10.463 -40.812  0.00  0.00    +0.000 OA
ENDBRANCH  35  37
ENDBRANCH  29  31
ENDBRANCH  27  29
ENDBRANCH  25  27
ENDBRANCH  23  25
ENDBRANCH   1  22
TORSDOF 7
