REMARK  Name = resultss/4CJN/ligands/lig_406_t0.pdb
REMARK  6 active torsions:
REMARK  status: ('A' for Active; 'I' for Inactive)
REMARK    1  A    between atoms: C9_1  and  C1_22
REMARK    2  A    between atoms: C19_12  and  C20_15
REMARK    3  A    between atoms: N1_23  and  N2_25
REMARK    4  A    between atoms: N2_25  and  C2_27
REMARK    5  A    between atoms: C2_27  and  N3_29
REMARK    6  A    between atoms: N3_29  and  C3_31
REMARK                            x       y       z     vdW  Elec       q    Type
REMARK                         _______ _______ _______ _____ _____    ______ ____
ROOT
ATOM      1  C9  UNL     1      27.900  -9.953 -37.619  0.00  0.00    +0.000 C 
ATOM      2  C10 UNL     1      29.103  -9.906 -36.883  0.00  0.00    +0.000 C 
ATOM      3  C11 UNL     1      29.017  -9.549 -35.542  0.00  0.00    +0.000 A 
ATOM      4  C12 UNL     1      27.815  -9.244 -34.942  0.00  0.00    +0.000 A 
ATOM      5  N4  UNL     1      27.974  -8.991 -33.621  0.00  0.00    +0.000 N 
ATOM      6  C13 UNL     1      29.301  -9.127 -33.401  0.00  0.00    +0.000 A 
ATOM      7  C14 UNL     1      29.972  -8.977 -32.189  0.00  0.00    +0.000 C 
ATOM      8  C15 UNL     1      31.362  -9.181 -32.176  0.00  0.00    +0.000 C 
ATOM      9  C16 UNL     1      32.049  -9.529 -33.363  0.00  0.00    +0.000 C 
ATOM     10  C17 UNL     1      31.350  -9.679 -34.575  0.00  0.00    +0.000 C 
ATOM     11  C18 UNL     1      29.972  -9.467 -34.556  0.00  0.00    +0.000 A 
ATOM     12  C19 UNL     1      26.627  -9.283 -35.686  0.00  0.00    +0.000 C 
ATOM     13  N5  UNL     1      26.715  -9.647 -37.001  0.00  0.00    +0.000 NA
ATOM     14  H10 UNL     1      27.244  -8.765 -32.912  0.00  0.00    +0.000 HD
ENDROOT
BRANCH  12  15
ATOM     15  C20 UNL     1      25.306  -8.966 -35.110  0.00  0.00    +0.000 C 
ATOM     16  C21 UNL     1      24.971  -9.361 -33.804  0.00  0.00    +0.000 C 
ATOM     17  C22 UNL     1      23.735  -9.008 -33.255  0.00  0.00    +0.000 C 
ATOM     18  C23 UNL     1      22.828  -8.250 -34.000  0.00  0.00    +0.000 C 
ATOM     19  C24 UNL     1      23.155  -7.843 -35.295  0.00  0.00    +0.000 C 
ATOM     20  C25 UNL     1      24.394  -8.191 -35.848  0.00  0.00    +0.000 C 
ENDBRANCH  12  15
BRANCH   1  22
ATOM     21  O1  UNL     1      26.812 -10.358 -39.687  0.00  0.00    +0.000 OA
ATOM     22  C1  UNL     1      27.898 -10.326 -39.049  0.00  0.00    +0.000 C 
ATOM     23  N1  UNL     1      29.125 -10.652 -39.718  0.00  0.00    +0.000 N 
ATOM     24  H1  UNL     1      30.024 -10.482 -39.219  0.00  0.00    +0.000 HD
BRANCH  23  25
ATOM     25  N2  UNL     1      29.130 -11.170 -41.028  0.00  0.00    +0.000 N 
ATOM     26  H2  UNL     1      28.503 -11.972 -41.259  0.00  0.00    +0.000 HD
BRANCH  25  27
ATOM     27  C2  UNL     1      29.976 -10.645 -42.067  0.00  0.00    +0.000 C 
ATOM     28  S1  UNL     1      29.449  -9.439 -43.059  0.00  0.00    +0.000 S 
BRANCH  27  29
ATOM     29  N3  UNL     1      31.343 -11.073 -42.179  0.00  0.00    +0.000 N 
ATOM     30  H3  UNL     1      31.942 -11.047 -41.321  0.00  0.00    +0.000 HD
BRANCH  29  31
ATOM     31  C3  UNL     1      31.943 -11.528 -43.402  0.00  0.00    +0.000 C 
ATOM     32  C4  UNL     1      31.764 -12.863 -43.806  0.00  0.00    +0.000 C 
ATOM     33  C5  UNL     1      32.365 -13.333 -44.977  0.00  0.00    +0.000 C 
ATOM     34  C6  UNL     1      33.161 -12.479 -45.746  0.00  0.00    +0.000 C 
ATOM     35  C7  UNL     1      33.364 -11.157 -45.341  0.00  0.00    +0.000 C 
ATOM     36  C8  UNL     1      32.765 -10.683 -44.169  0.00  0.00    +0.000 C 
ENDBRANCH  29  31
ENDBRANCH  27  29
ENDBRANCH  25  27
ENDBRANCH  23  25
ENDBRANCH   1  22
TORSDOF 6
