REMARK  Name = resultss/4CJN/ligands/lig_359_t1.pdb
REMARK  7 active torsions:
REMARK  status: ('A' for Active; 'I' for Inactive)
REMARK    1  A    between atoms: C2_1  and  N1_2
REMARK    2  A    between atoms: C2_1  and  C1_22
REMARK    3  A    between atoms: C3_3  and  C4_13
REMARK    4  A    between atoms: C4_13  and  C5_14
REMARK    5  A    between atoms: N3_23  and  N4_25
REMARK    6  A    between atoms: C18_26  and  C19_27
REMARK    7  A    between atoms: C18_26  and  O3_38
REMARK                            x       y       z     vdW  Elec       q    Type
REMARK                         _______ _______ _______ _____ _____    ______ ____
ROOT
ATOM      1  C2  UNL     1      28.236 -10.262 -36.826  0.00  0.00    +0.000 C 
ENDROOT
BRANCH   1   2
ATOM      2  N1  UNL     1      28.495  -9.424 -35.633  0.00  0.00    +0.000 N 
ATOM      3  C3  UNL     1      27.568  -9.305 -34.614  0.00  0.00    +0.000 A 
ATOM      4  N2  UNL     1      27.858  -8.557 -33.517  0.00  0.00    +0.000 NA
ATOM      5  C11 UNL     1      29.040  -7.913 -33.378  0.00  0.00    +0.000 A 
ATOM      6  C12 UNL     1      29.291  -7.152 -32.229  0.00  0.00    +0.000 C 
ATOM      7  C13 UNL     1      30.513  -6.489 -32.084  0.00  0.00    +0.000 C 
ATOM      8  C14 UNL     1      31.486  -6.585 -33.084  0.00  0.00    +0.000 C 
ATOM      9  C15 UNL     1      31.240  -7.345 -34.233  0.00  0.00    +0.000 C 
ATOM     10  C16 UNL     1      30.010  -8.014 -34.387  0.00  0.00    +0.000 A 
ATOM     11  C17 UNL     1      29.713  -8.792 -35.520  0.00  0.00    +0.000 A 
ATOM     12  O2  UNL     1      30.582  -8.915 -36.431  0.00  0.00    +0.000 OA
BRANCH   3  13
ATOM     13  C4  UNL     1      26.211  -9.978 -34.640  0.00  0.00    +0.000 C 
BRANCH  13  14
ATOM     14  C5  UNL     1      25.084  -8.987 -34.787  0.00  0.00    +0.000 C 
ATOM     15  C6  UNL     1      24.882  -8.318 -36.005  0.00  0.00    +0.000 C 
ATOM     16  C7  UNL     1      23.836  -7.402 -36.144  0.00  0.00    +0.000 C 
ATOM     17  C8  UNL     1      22.990  -7.135 -35.064  0.00  0.00    +0.000 C 
ATOM     18 BR1  UNL     1      21.562  -5.883 -35.258  0.00  0.00    +0.000 Br
ATOM     19  C9  UNL     1      23.197  -7.779 -33.840  0.00  0.00    +0.000 C 
ATOM     20  C10 UNL     1      24.245  -8.694 -33.698  0.00  0.00    +0.000 C 
ENDBRANCH  13  14
ENDBRANCH   3  13
ENDBRANCH   1   2
BRANCH   1  22
ATOM     21  O1  UNL     1      27.683  -8.226 -37.926  0.00  0.00    +0.000 OA
ATOM     22  C1  UNL     1      27.609  -9.485 -37.956  0.00  0.00    +0.000 C 
ATOM     23  N3  UNL     1      26.942 -10.132 -39.053  0.00  0.00    +0.000 N 
ATOM     24  H13 UNL     1      26.679 -11.137 -38.968  0.00  0.00    +0.000 HD
BRANCH  23  25
ATOM     25  N4  UNL     1      26.284  -9.389 -40.049  0.00  0.00    +0.000 NA
ATOM     26  C18 UNL     1      25.596  -9.918 -41.020  0.00  0.00    +0.000 C 
BRANCH  26  27
ATOM     27  C19 UNL     1      25.018  -9.051 -42.084  0.00  0.00    +0.000 C 
ATOM     28  C20 UNL     1      23.671  -8.666 -42.002  0.00  0.00    +0.000 C 
ATOM     29  C21 UNL     1      23.108  -7.869 -43.002  0.00  0.00    +0.000 C 
ATOM     30  C22 UNL     1      21.766  -7.466 -42.951  0.00  0.00    +0.000 C 
ATOM     31  C23 UNL     1      21.237  -6.668 -43.971  0.00  0.00    +0.000 C 
ATOM     32  C24 UNL     1      22.044  -6.274 -45.044  0.00  0.00    +0.000 C 
ATOM     33  C25 UNL     1      23.384  -6.676 -45.102  0.00  0.00    +0.000 C 
ATOM     34  C26 UNL     1      23.921  -7.470 -44.082  0.00  0.00    +0.000 C 
ATOM     35  O4  UNL     1      25.195  -7.841 -44.133  0.00  0.00    +0.000 OA
ATOM     36  C27 UNL     1      25.768  -8.595 -43.197  0.00  0.00    +0.000 C 
ATOM     37  O5  UNL     1      26.988  -8.882 -43.319  0.00  0.00    +0.000 OA
ENDBRANCH  26  27
BRANCH  26  38
ATOM     38  O3  UNL     1      25.371 -11.296 -41.074  0.00  0.00    +0.000 OA
ATOM     39  H14 UNL     1      24.735 -11.776 -40.449  0.00  0.00    +0.000 HD
ENDBRANCH  26  38
ENDBRANCH  23  25
ENDBRANCH   1  22
TORSDOF 7
