REMARK  Name = resultss/4CJN/ligands/lig_436_t1.pdb
REMARK  5 active torsions:
REMARK  status: ('A' for Active; 'I' for Inactive)
REMARK    1  A    between atoms: C11_1  and  C10_22
REMARK    2  A    between atoms: C21_12  and  C22_15
REMARK    3  A    between atoms: N3_21  and  N2_27
REMARK    4  A    between atoms: N1_25  and  C8_36
REMARK    5  A    between atoms: C9_26  and  S1_37
REMARK                            x       y       z     vdW  Elec       q    Type
REMARK                         _______ _______ _______ _____ _____    ______ ____
ROOT
ATOM      1  C11 UNL     1      28.285  -8.994 -37.535  0.00  0.00    +0.000 C 
ATOM      2  C12 UNL     1      27.595  -8.866 -36.310  0.00  0.00    +0.000 C 
ATOM      3  C13 UNL     1      26.230  -8.616 -36.372  0.00  0.00    +0.000 A 
ATOM      4  C14 UNL     1      25.560  -8.502 -37.571  0.00  0.00    +0.000 A 
ATOM      5  N4  UNL     1      24.255  -8.193 -37.378  0.00  0.00    +0.000 N 
ATOM      6  C15 UNL     1      24.109  -8.133 -36.036  0.00  0.00    +0.000 A 
ATOM      7  C16 UNL     1      22.945  -7.833 -35.329  0.00  0.00    +0.000 C 
ATOM      8  C17 UNL     1      23.018  -7.803 -33.923  0.00  0.00    +0.000 C 
ATOM      9  C18 UNL     1      24.240  -8.064 -33.261  0.00  0.00    +0.000 C 
ATOM     10  C19 UNL     1      25.402  -8.358 -33.997  0.00  0.00    +0.000 C 
ATOM     11  C20 UNL     1      25.297  -8.388 -35.386  0.00  0.00    +0.000 A 
ATOM     12  C21 UNL     1      26.252  -8.646 -38.781  0.00  0.00    +0.000 C 
ATOM     13  N5  UNL     1      27.598  -8.878 -38.717  0.00  0.00    +0.000 NA
ATOM     14  H14 UNL     1      23.521  -8.002 -38.095  0.00  0.00    +0.000 HD
ENDROOT
BRANCH  12  15
ATOM     15  C22 UNL     1      25.593  -8.555 -40.102  0.00  0.00    +0.000 C 
ATOM     16  C23 UNL     1      25.011  -7.352 -40.539  0.00  0.00    +0.000 C 
ATOM     17  C24 UNL     1      24.368  -7.290 -41.779  0.00  0.00    +0.000 C 
ATOM     18  C25 UNL     1      24.288  -8.429 -42.585  0.00  0.00    +0.000 C 
ATOM     19  C26 UNL     1      24.845  -9.633 -42.149  0.00  0.00    +0.000 C 
ATOM     20  C27 UNL     1      25.489  -9.700 -40.909  0.00  0.00    +0.000 C 
ENDBRANCH  12  15
BRANCH   1  22
ATOM     21  N3  UNL     1      30.604  -8.578 -36.622  0.00  0.00    +0.000 N 
ATOM     22  C10 UNL     1      29.741  -9.235 -37.562  0.00  0.00    +0.000 C 
ATOM     23  O1  UNL     1      30.235 -10.008 -38.427  0.00  0.00    +0.000 OA
ATOM     24  H12 UNL     1      30.284  -7.685 -36.182  0.00  0.00    +0.000 HD
BRANCH  21  27
ATOM     25  N1  UNL     1      31.955  -8.487 -34.121  0.00  0.00    +0.000 NA
ATOM     26  C9  UNL     1      32.576  -8.972 -35.156  0.00  0.00    +0.000 C 
ATOM     27  N2  UNL     1      31.944  -8.965 -36.443  0.00  0.00    +0.000 N 
ATOM     28  H11 UNL     1      32.547  -9.080 -37.288  0.00  0.00    +0.000 HD
BRANCH  25  36
ATOM     29  C1  UNL     1      31.712 -10.758 -32.344  0.00  0.00    +0.000 C 
ATOM     30  C2  UNL     1      32.419  -9.500 -31.923  0.00  0.00    +0.000 C 
ATOM     31  C3  UNL     1      32.976  -9.407 -30.637  0.00  0.00    +0.000 C 
ATOM     32  C4  UNL     1      33.626  -8.242 -30.231  0.00  0.00    +0.000 C 
ATOM     33  C5  UNL     1      33.716  -7.151 -31.095  0.00  0.00    +0.000 C 
ATOM     34  C6  UNL     1      33.149  -7.211 -32.377  0.00  0.00    +0.000 C 
ATOM     35  C7  UNL     1      33.256  -6.021 -33.291  0.00  0.00    +0.000 C 
ATOM     36  C8  UNL     1      32.521  -8.402 -32.805  0.00  0.00    +0.000 C 
ENDBRANCH  25  36
BRANCH  26  37
ATOM     37  S1  UNL     1      34.251  -9.618 -35.025  0.00  0.00    +0.000 S 
ATOM     38  H10 UNL     1      34.527  -8.817 -33.902  0.00  0.00    +0.000 HD
ENDBRANCH  26  37
ENDBRANCH  21  27
ENDBRANCH   1  22
TORSDOF 5
