REMARK  Name = resultss/4CJN/ligands/lig_424_t0.pdb
REMARK  7 active torsions:
REMARK  status: ('A' for Active; 'I' for Inactive)
REMARK    1  A    between atoms: C10_1  and  C9_22
REMARK    2  A    between atoms: C20_12  and  C21_15
REMARK    3  A    between atoms: N3_21  and  N2_25
REMARK    4  A    between atoms: N2_25  and  C8_27
REMARK    5  A    between atoms: C8_27  and  N1_29
REMARK    6  A    between atoms: N1_29  and  C7_36
REMARK    7  A    between atoms: C2_31  and  O1_38
REMARK                            x       y       z     vdW  Elec       q    Type
REMARK                         _______ _______ _______ _____ _____    ______ ____
ROOT
ATOM      1  C10 UNL     1      28.103  -8.484 -43.138  0.00  0.00    +0.000 C 
ATOM      2  C11 UNL     1      27.444  -8.396 -41.893  0.00  0.00    +0.000 C 
ATOM      3  C12 UNL     1      27.982  -9.123 -40.837  0.00  0.00    +0.000 A 
ATOM      4  C13 UNL     1      29.104  -9.908 -40.984  0.00  0.00    +0.000 A 
ATOM      5  N4  UNL     1      29.472 -10.467 -39.806  0.00  0.00    +0.000 N 
ATOM      6  C14 UNL     1      28.550 -10.037 -38.917  0.00  0.00    +0.000 A 
ATOM      7  C15 UNL     1      28.494 -10.328 -37.555  0.00  0.00    +0.000 C 
ATOM      8  C16 UNL     1      27.452  -9.758 -36.801  0.00  0.00    +0.000 C 
ATOM      9  C17 UNL     1      26.501  -8.912 -37.415  0.00  0.00    +0.000 C 
ATOM     10  C18 UNL     1      26.580  -8.627 -38.791  0.00  0.00    +0.000 C 
ATOM     11  C19 UNL     1      27.620  -9.211 -39.512  0.00  0.00    +0.000 A 
ATOM     12  C20 UNL     1      29.738 -10.004 -42.230  0.00  0.00    +0.000 C 
ATOM     13  N5  UNL     1      29.215  -9.276 -43.264  0.00  0.00    +0.000 NA
ATOM     14  H12 UNL     1      30.300 -11.069 -39.606  0.00  0.00    +0.000 HD
ENDROOT
BRANCH  12  15
ATOM     15  C21 UNL     1      30.929 -10.845 -42.465  0.00  0.00    +0.000 C 
ATOM     16  C22 UNL     1      30.818 -12.098 -43.095  0.00  0.00    +0.000 C 
ATOM     17  C23 UNL     1      31.958 -12.870 -43.336  0.00  0.00    +0.000 C 
ATOM     18  C24 UNL     1      33.218 -12.395 -42.963  0.00  0.00    +0.000 C 
ATOM     19  C25 UNL     1      33.341 -11.142 -42.356  0.00  0.00    +0.000 C 
ATOM     20  C26 UNL     1      32.202 -10.366 -42.114  0.00  0.00    +0.000 C 
ENDBRANCH  12  15
BRANCH   1  22
ATOM     21  N3  UNL     1      26.218  -7.368 -44.400  0.00  0.00    +0.000 N 
ATOM     22  C9  UNL     1      27.602  -7.743 -44.314  0.00  0.00    +0.000 C 
ATOM     23  O2  UNL     1      28.389  -7.454 -45.256  0.00  0.00    +0.000 OA
ATOM     24  H10 UNL     1      25.518  -7.891 -43.828  0.00  0.00    +0.000 HD
BRANCH  21  25
ATOM     25  N2  UNL     1      25.741  -6.472 -45.373  0.00  0.00    +0.000 N 
ATOM     26  H9  UNL     1      26.181  -5.525 -45.434  0.00  0.00    +0.000 HD
BRANCH  25  27
ATOM     27  C8  UNL     1      24.795  -6.857 -46.380  0.00  0.00    +0.000 C 
ATOM     28  S1  UNL     1      25.185  -6.629 -47.959  0.00  0.00    +0.000 S 
BRANCH  27  29
ATOM     29  N1  UNL     1      23.650  -7.652 -46.025  0.00  0.00    +0.000 N 
ATOM     30  H8  UNL     1      23.532  -8.574 -46.501  0.00  0.00    +0.000 HD
BRANCH  29  36
ATOM     31  C2  UNL     1      22.657  -7.384 -43.763  0.00  0.00    +0.000 C 
ATOM     32  C3  UNL     1      21.592  -6.929 -42.961  0.00  0.00    +0.000 C 
ATOM     33  C4  UNL     1      20.472  -6.330 -43.544  0.00  0.00    +0.000 C 
ATOM     34  C5  UNL     1      20.399  -6.184 -44.929  0.00  0.00    +0.000 C 
ATOM     35  C6  UNL     1      21.451  -6.623 -45.735  0.00  0.00    +0.000 C 
ATOM     36  C7  UNL     1      22.593  -7.201 -45.162  0.00  0.00    +0.000 C 
BRANCH  31  38
ATOM     37  C1  UNL     1      23.712  -8.995 -42.162  0.00  0.00    +0.000 C 
ATOM     38  O1  UNL     1      23.772  -8.036 -43.212  0.00  0.00    +0.000 OA
ENDBRANCH  31  38
ENDBRANCH  29  36
ENDBRANCH  27  29
ENDBRANCH  25  27
ENDBRANCH  21  25
ENDBRANCH   1  22
TORSDOF 7
