REMARK  Name = resultss/4CJN/ligands/lig_430_t1.pdb
REMARK  8 active torsions:
REMARK  status: ('A' for Active; 'I' for Inactive)
REMARK    1  A    between atoms: C1_2  and  C16_5
REMARK    2  A    between atoms: N1_3  and  N2_25
REMARK    3  A    between atoms: C26_16  and  C27_19
REMARK    4  A    between atoms: C2_26  and  S1_43
REMARK    5  A    between atoms: N3_27  and  C3_29
REMARK    6  A    between atoms: C7_33  and  O2_35
REMARK    7  A    between atoms: O2_35  and  C8_36
REMARK    8  A    between atoms: C8_36  and  C9_37
REMARK                            x       y       z     vdW  Elec       q    Type
REMARK                         _______ _______ _______ _____ _____    ______ ____
ROOT
ATOM      1  O1  UNL     1      23.751  -9.656 -42.809  0.00  0.00    +0.000 OA
ATOM      2  C1  UNL     1      24.276  -8.796 -42.050  0.00  0.00    +0.000 C 
ATOM      3  N1  UNL     1      23.586  -7.568 -41.794  0.00  0.00    +0.000 N 
ATOM      4  H1  UNL     1      24.021  -6.862 -41.159  0.00  0.00    +0.000 HD
ENDROOT
BRANCH   2   5
ATOM      5  C16 UNL     1      25.587  -9.065 -41.423  0.00  0.00    +0.000 C 
ATOM      6  C17 UNL     1      26.743  -9.251 -42.213  0.00  0.00    +0.000 C 
ATOM      7  C18 UNL     1      27.932  -9.524 -41.547  0.00  0.00    +0.000 A 
ATOM      8  C19 UNL     1      28.001  -9.602 -40.172  0.00  0.00    +0.000 A 
ATOM      9  N4  UNL     1      29.243  -9.946 -39.759  0.00  0.00    +0.000 N 
ATOM     10  C20 UNL     1      29.965 -10.067 -40.896  0.00  0.00    +0.000 A 
ATOM     11  C21 UNL     1      31.308 -10.422 -41.005  0.00  0.00    +0.000 C 
ATOM     12  C22 UNL     1      31.863 -10.509 -42.295  0.00  0.00    +0.000 C 
ATOM     13  C23 UNL     1      31.071 -10.249 -43.437  0.00  0.00    +0.000 C 
ATOM     14  C24 UNL     1      29.715  -9.899 -43.301  0.00  0.00    +0.000 C 
ATOM     15  C25 UNL     1      29.195  -9.815 -42.012  0.00  0.00    +0.000 A 
ATOM     16  C26 UNL     1      26.851  -9.393 -39.397  0.00  0.00    +0.000 C 
ATOM     17  N5  UNL     1      25.680  -9.144 -40.056  0.00  0.00    +0.000 NA
ATOM     18  H16 UNL     1      29.576 -10.122 -38.785  0.00  0.00    +0.000 HD
BRANCH  16  19
ATOM     19  C27 UNL     1      26.856  -9.437 -37.921  0.00  0.00    +0.000 C 
ATOM     20  C28 UNL     1      27.945  -9.981 -37.216  0.00  0.00    +0.000 C 
ATOM     21  C29 UNL     1      27.948  -9.988 -35.819  0.00  0.00    +0.000 C 
ATOM     22  C30 UNL     1      26.872  -9.443 -35.113  0.00  0.00    +0.000 C 
ATOM     23  C31 UNL     1      25.796  -8.880 -35.804  0.00  0.00    +0.000 C 
ATOM     24  C32 UNL     1      25.790  -8.871 -37.202  0.00  0.00    +0.000 C 
ENDBRANCH  16  19
ENDBRANCH   2   5
BRANCH   3  25
ATOM     25  N2  UNL     1      22.342  -7.321 -42.400  0.00  0.00    +0.000 NA
ATOM     26  C2  UNL     1      21.402  -6.593 -41.869  0.00  0.00    +0.000 C 
ATOM     27  N3  UNL     1      20.155  -6.416 -42.555  0.00  0.00    +0.000 N 
ATOM     28  H3  UNL     1      19.315  -6.184 -41.978  0.00  0.00    +0.000 HD
BRANCH  27  29
ATOM     29  C3  UNL     1      19.975  -6.575 -43.974  0.00  0.00    +0.000 C 
ATOM     30  C4  UNL     1      18.735  -6.949 -44.519  0.00  0.00    +0.000 C 
ATOM     31  C5  UNL     1      18.604  -7.156 -45.894  0.00  0.00    +0.000 C 
ATOM     32  C6  UNL     1      19.707  -7.000 -46.737  0.00  0.00    +0.000 C 
ATOM     33  C7  UNL     1      20.956  -6.627 -46.207  0.00  0.00    +0.000 C 
ATOM     34  C15 UNL     1      21.079  -6.426 -44.826  0.00  0.00    +0.000 C 
BRANCH  33  35
ATOM     35  O2  UNL     1      22.093  -6.434 -47.008  0.00  0.00    +0.000 OA
BRANCH  35  36
ATOM     36  C8  UNL     1      22.967  -7.466 -47.465  0.00  0.00    +0.000 C 
BRANCH  36  37
ATOM     37  C9  UNL     1      24.349  -7.268 -46.904  0.00  0.00    +0.000 C 
ATOM     38  C10 UNL     1      24.581  -7.330 -45.519  0.00  0.00    +0.000 C 
ATOM     39  C11 UNL     1      25.874  -7.149 -45.014  0.00  0.00    +0.000 C 
ATOM     40  C12 UNL     1      26.940  -6.911 -45.887  0.00  0.00    +0.000 C 
ATOM     41  C13 UNL     1      26.716  -6.852 -47.266  0.00  0.00    +0.000 C 
ATOM     42  C14 UNL     1      25.426  -7.028 -47.775  0.00  0.00    +0.000 C 
ENDBRANCH  36  37
ENDBRANCH  35  36
ENDBRANCH  33  35
ENDBRANCH  27  29
BRANCH  26  43
ATOM     43  S1  UNL     1      21.572  -5.883 -40.227  0.00  0.00    +0.000 S 
ATOM     44  H2  UNL     1      20.775  -6.888 -39.653  0.00  0.00    +0.000 HD
ENDBRANCH  26  43
ENDBRANCH   3  25
TORSDOF 8
