REMARK  Name = resultss/4CJN/ligands/lig_359_t1.pdb
REMARK  7 active torsions:
REMARK  status: ('A' for Active; 'I' for Inactive)
REMARK    1  A    between atoms: C2_1  and  N1_2
REMARK    2  A    between atoms: C2_1  and  C1_22
REMARK    3  A    between atoms: C3_3  and  C4_13
REMARK    4  A    between atoms: C4_13  and  C5_14
REMARK    5  A    between atoms: N3_23  and  N4_25
REMARK    6  A    between atoms: C18_26  and  C19_27
REMARK    7  A    between atoms: C18_26  and  O3_38
REMARK                            x       y       z     vdW  Elec       q    Type
REMARK                         _______ _______ _______ _____ _____    ______ ____
ROOT
ATOM      1  C2  UNL     1      26.963  -9.567 -38.569  0.00  0.00    +0.000 C 
ENDROOT
BRANCH   1   2
ATOM      2  N1  UNL     1      28.273  -9.595 -39.259  0.00  0.00    +0.000 N 
ATOM      3  C3  UNL     1      29.339  -8.828 -38.826  0.00  0.00    +0.000 A 
ATOM      4  N2  UNL     1      30.537  -8.910 -39.463  0.00  0.00    +0.000 NA
ATOM      5  C11 UNL     1      30.733  -9.728 -40.522  0.00  0.00    +0.000 A 
ATOM      6  C12 UNL     1      31.986  -9.776 -41.147  0.00  0.00    +0.000 C 
ATOM      7  C13 UNL     1      32.189 -10.624 -42.240  0.00  0.00    +0.000 C 
ATOM      8  C14 UNL     1      31.145 -11.425 -42.711  0.00  0.00    +0.000 C 
ATOM      9  C15 UNL     1      29.891 -11.381 -42.090  0.00  0.00    +0.000 C 
ATOM     10  C16 UNL     1      29.677 -10.528 -40.989  0.00  0.00    +0.000 A 
ATOM     11  C17 UNL     1      28.440 -10.448 -40.328  0.00  0.00    +0.000 A 
ATOM     12  O2  UNL     1      27.482 -11.176 -40.717  0.00  0.00    +0.000 OA
BRANCH   3  13
ATOM     13  C4  UNL     1      29.257  -7.877 -37.650  0.00  0.00    +0.000 C 
BRANCH  13  14
ATOM     14  C5  UNL     1      29.825  -8.478 -36.389  0.00  0.00    +0.000 C 
ATOM     15  C6  UNL     1      28.984  -9.128 -35.471  0.00  0.00    +0.000 C 
ATOM     16  C7  UNL     1      29.510  -9.689 -34.304  0.00  0.00    +0.000 C 
ATOM     17  C8  UNL     1      30.878  -9.593 -34.035  0.00  0.00    +0.000 C 
ATOM     18 BR1  UNL     1      31.592 -10.360 -32.440  0.00  0.00    +0.000 Br
ATOM     19  C9  UNL     1      31.720  -8.927 -34.931  0.00  0.00    +0.000 C 
ATOM     20  C10 UNL     1      31.196  -8.363 -36.099  0.00  0.00    +0.000 C 
ENDBRANCH  13  14
ENDBRANCH   3  13
ENDBRANCH   1   2
BRANCH   1  22
ATOM     21  O1  UNL     1      24.693  -8.978 -38.973  0.00  0.00    +0.000 OA
ATOM     22  C1  UNL     1      25.875  -8.955 -39.415  0.00  0.00    +0.000 C 
ATOM     23  N3  UNL     1      26.145  -8.353 -40.692  0.00  0.00    +0.000 N 
ATOM     24  H13 UNL     1      27.060  -8.535 -41.158  0.00  0.00    +0.000 HD
BRANCH  23  25
ATOM     25  N4  UNL     1      25.106  -7.871 -41.507  0.00  0.00    +0.000 NA
ATOM     26  C18 UNL     1      24.690  -8.466 -42.588  0.00  0.00    +0.000 C 
BRANCH  26  27
ATOM     27  C19 UNL     1      23.650  -7.826 -43.440  0.00  0.00    +0.000 C 
ATOM     28  C20 UNL     1      22.347  -7.676 -42.939  0.00  0.00    +0.000 C 
ATOM     29  C21 UNL     1      21.355  -7.094 -43.732  0.00  0.00    +0.000 C 
ATOM     30  C22 UNL     1      20.044  -6.929 -43.263  0.00  0.00    +0.000 C 
ATOM     31  C23 UNL     1      19.076  -6.342 -44.087  0.00  0.00    +0.000 C 
ATOM     32  C24 UNL     1      19.414  -5.924 -45.378  0.00  0.00    +0.000 C 
ATOM     33  C25 UNL     1      20.721  -6.088 -45.853  0.00  0.00    +0.000 C 
ATOM     34  C26 UNL     1      21.695  -6.669 -45.033  0.00  0.00    +0.000 C 
ATOM     35  O4  UNL     1      22.937  -6.816 -45.481  0.00  0.00    +0.000 OA
ATOM     36  C27 UNL     1      23.909  -7.359 -44.753  0.00  0.00    +0.000 C 
ATOM     37  O5  UNL     1      25.062  -7.440 -45.255  0.00  0.00    +0.000 OA
ENDBRANCH  26  27
BRANCH  26  38
ATOM     38  O3  UNL     1      25.194  -9.715 -42.961  0.00  0.00    +0.000 OA
ATOM     39  H14 UNL     1      24.601 -10.508 -43.171  0.00  0.00    +0.000 HD
ENDBRANCH  26  38
ENDBRANCH  23  25
ENDBRANCH   1  22
TORSDOF 7
