REMARK  Name = resultss/4CJN/ligands/lig_284_t2.pdb
REMARK  10 active torsions:
REMARK  status: ('A' for Active; 'I' for Inactive)
REMARK    1  A    between atoms: C11_1  and  C10_23
REMARK    2  A    between atoms: C15_7  and  C16_9
REMARK    3  A    between atoms: C25_8  and  O5_21
REMARK    4  A    between atoms: C16_9  and  C17_11
REMARK    5  A    between atoms: C18_12  and  C19_13
REMARK    6  A    between atoms: C22_16  and  O4_19
REMARK    7  A    between atoms: C10_23  and  C9_26
REMARK    8  A    between atoms: C7_24  and  C6_27
REMARK    9  A    between atoms: C6_27  and  C5_28
REMARK   10  A    between atoms: C5_28  and  C4_32
REMARK                            x       y       z     vdW  Elec       q    Type
REMARK                         _______ _______ _______ _____ _____    ______ ____
ROOT
ATOM      1  C11 UNL     1      28.207  -8.956 -41.845  0.00  0.00    +0.000 C 
ATOM      2  C12 UNL     1      26.978  -8.591 -42.594  0.00  0.00    +0.000 C 
ATOM      3  O1  UNL     1      26.985  -8.566 -43.850  0.00  0.00    +0.000 OA
ATOM      4  C13 UNL     1      25.734  -8.188 -41.875  0.00  0.00    +0.000 C 
ATOM      5  C14 UNL     1      25.620  -8.944 -40.591  0.00  0.00    +0.000 C 
ATOM      6  O2  UNL     1      24.513  -9.266 -40.176  0.00  0.00    +0.000 OA
ATOM      7  C15 UNL     1      26.839  -9.182 -39.734  0.00  0.00    +0.000 C 
ATOM      8  C25 UNL     1      28.143  -9.195 -40.509  0.00  0.00    +0.000 C 
ENDROOT
BRANCH   7   9
ATOM      9  C16 UNL     1      26.907  -8.131 -38.655  0.00  0.00    +0.000 C 
ATOM     10  O3  UNL     1      27.394  -6.996 -38.923  0.00  0.00    +0.000 OA
BRANCH   9  11
ATOM     11  C17 UNL     1      26.420  -8.436 -37.293  0.00  0.00    +0.000 C 
ATOM     12  C18 UNL     1      25.207  -8.059 -36.868  0.00  0.00    +0.000 C 
BRANCH  12  13
ATOM     13  C19 UNL     1      24.681  -8.349 -35.511  0.00  0.00    +0.000 C 
ATOM     14  C20 UNL     1      25.451  -8.994 -34.522  0.00  0.00    +0.000 C 
ATOM     15  C21 UNL     1      24.910  -9.249 -33.257  0.00  0.00    +0.000 C 
ATOM     16  C22 UNL     1      23.602  -8.850 -32.956  0.00  0.00    +0.000 C 
ATOM     17  C23 UNL     1      22.836  -8.193 -33.926  0.00  0.00    +0.000 C 
ATOM     18  C24 UNL     1      23.372  -7.940 -35.192  0.00  0.00    +0.000 C 
BRANCH  16  19
ATOM     19  O4  UNL     1      23.076  -9.112 -31.692  0.00  0.00    +0.000 OA
ATOM     20  H25 UNL     1      23.661  -9.444 -30.935  0.00  0.00    +0.000 HD
ENDBRANCH  16  19
ENDBRANCH  12  13
ENDBRANCH   9  11
ENDBRANCH   7   9
BRANCH   8  21
ATOM     21  O5  UNL     1      29.291  -9.467 -39.755  0.00  0.00    +0.000 OA
ATOM     22  H28 UNL     1      30.206  -9.082 -39.946  0.00  0.00    +0.000 HD
ENDBRANCH   8  21
BRANCH   1  23
ATOM     23  C10 UNL     1      29.530  -8.960 -42.587  0.00  0.00    +0.000 C 
BRANCH  23  26
ATOM     24  C7  UNL     1      31.042 -10.970 -42.698  0.00  0.00    +0.000 C 
ATOM     25  C8  UNL     1      32.108 -10.258 -41.895  0.00  0.00    +0.000 C 
ATOM     26  C9  UNL     1      29.881 -10.360 -43.022  0.00  0.00    +0.000 C 
BRANCH  24  27
ATOM     27  C6  UNL     1      31.276 -12.400 -43.152  0.00  0.00    +0.000 C 
BRANCH  27  28
ATOM     28  C5  UNL     1      32.627 -12.550 -43.873  0.00  0.00    +0.000 C 
BRANCH  28  32
ATOM     29  C1  UNL     1      33.997 -12.247 -46.518  0.00  0.00    +0.000 C 
ATOM     30  C2  UNL     1      33.184 -13.465 -46.160  0.00  0.00    +0.000 C 
ATOM     31  C3  UNL     1      33.075 -14.571 -47.176  0.00  0.00    +0.000 C 
ATOM     32  C4  UNL     1      32.557 -13.582 -44.973  0.00  0.00    +0.000 C 
ENDBRANCH  28  32
ENDBRANCH  27  28
ENDBRANCH  24  27
ENDBRANCH  23  26
ENDBRANCH   1  23
TORSDOF 10
