REMARK  Name = resultss/4CJN/ligands/lig_250_t0.pdb
REMARK  13 active torsions:
REMARK  status: ('A' for Active; 'I' for Inactive)
REMARK    1  A    between atoms: C4_1  and  C3_36
REMARK    2  A    between atoms: C6_3  and  C7_10
REMARK    3  A    between atoms: C28_6  and  S2_39
REMARK    4  A    between atoms: C9_12  and  C10_19
REMARK    5  A    between atoms: C14_15  and  S1_22
REMARK    6  A    between atoms: C10_19  and  C11_20
REMARK    7  A    between atoms: S1_22  and  C15_23
REMARK    8  A    between atoms: C15_23  and  C16_24
REMARK    9  A    between atoms: C17_27  and  C18_29
REMARK   10  A    between atoms: C3_36  and  C2_38
REMARK   11  A    between atoms: S2_39  and  C29_40
REMARK   12  A    between atoms: C29_40  and  C30_41
REMARK   13  A    between atoms: C31_44  and  C32_46
REMARK                            x       y       z     vdW  Elec       q    Type
REMARK                         _______ _______ _______ _____ _____    ______ ____
ROOT
ATOM      1  C4  UNL     1      25.309  -8.747 -34.226  0.00  0.00    +0.000 C 
ATOM      2  C5  UNL     1      25.223  -8.768 -35.644  0.00  0.00    +0.000 C 
ATOM      3  C6  UNL     1      26.306  -8.333 -36.443  0.00  0.00    +0.000 C 
ATOM      4  C27 UNL     1      27.445  -7.880 -35.770  0.00  0.00    +0.000 A 
ATOM      5  O3  UNL     1      28.561  -7.414 -36.265  0.00  0.00    +0.000 OA
ATOM      6  C28 UNL     1      29.324  -7.131 -35.224  0.00  0.00    +0.000 A 
ATOM      7  N6  UNL     1      28.735  -7.392 -34.029  0.00  0.00    +0.000 NA
ATOM      8  C39 UNL     1      27.536  -7.864 -34.412  0.00  0.00    +0.000 A 
ATOM      9  C40 UNL     1      26.491  -8.291 -33.599  0.00  0.00    +0.000 C 
ENDROOT
BRANCH   3  10
ATOM     10  C7  UNL     1      26.245  -8.376 -37.922  0.00  0.00    +0.000 C 
ATOM     11  C8  UNL     1      26.724  -9.518 -38.622  0.00  0.00    +0.000 C 
ATOM     12  C9  UNL     1      26.692  -9.572 -40.032  0.00  0.00    +0.000 C 
ATOM     13  C13 UNL     1      26.183  -8.457 -40.699  0.00  0.00    +0.000 A 
ATOM     14  O1  UNL     1      26.068  -8.251 -41.983  0.00  0.00    +0.000 OA
ATOM     15  C14 UNL     1      25.549  -7.042 -42.105  0.00  0.00    +0.000 A 
ATOM     16  N3  UNL     1      25.305  -6.430 -40.917  0.00  0.00    +0.000 NA
ATOM     17  C25 UNL     1      25.719  -7.360 -40.039  0.00  0.00    +0.000 A 
ATOM     18  C26 UNL     1      25.724  -7.279 -38.649  0.00  0.00    +0.000 C 
BRANCH  12  19
ATOM     19  C10 UNL     1      27.257 -10.747 -40.778  0.00  0.00    +0.000 C 
BRANCH  19  20
ATOM     20  C11 UNL     1      27.579 -11.860 -39.821  0.00  0.00    +0.000 C 
ATOM     21  C12 UNL     1      27.238 -13.127 -40.077  0.00  0.00    +0.000 C 
ENDBRANCH  19  20
ENDBRANCH  12  19
BRANCH  15  22
ATOM     22  S1  UNL     1      25.207  -6.283 -43.688  0.00  0.00    +0.000 S 
BRANCH  22  23
ATOM     23  C15 UNL     1      24.116  -7.638 -44.227  0.00  0.00    +0.000 C 
BRANCH  23  24
ATOM     24  C16 UNL     1      22.725  -7.122 -44.367  0.00  0.00    +0.000 A 
ATOM     25  N1  UNL     1      22.114  -6.345 -43.455  0.00  0.00    +0.000 NA
ATOM     26  N2  UNL     1      20.917  -6.072 -43.949  0.00  0.00    +0.000 NA
ATOM     27  C17 UNL     1      20.842  -6.688 -45.147  0.00  0.00    +0.000 A 
ATOM     28  O2  UNL     1      21.956  -7.334 -45.406  0.00  0.00    +0.000 OA
BRANCH  27  29
ATOM     29  C18 UNL     1      19.670  -6.656 -46.063  0.00  0.00    +0.000 C 
ATOM     30  C19 UNL     1      19.913  -6.376 -47.422  0.00  0.00    +0.000 C 
ATOM     31  C20 UNL     1      18.867  -6.332 -48.345  0.00  0.00    +0.000 C 
ATOM     32  C21 UNL     1      17.559  -6.568 -47.930  0.00  0.00    +0.000 C 
ATOM     33  C22 UNL     1      17.291  -6.845 -46.590  0.00  0.00    +0.000 C 
ATOM     34  C23 UNL     1      18.330  -6.888 -45.640  0.00  0.00    +0.000 C 
ATOM     35  C24 UNL     1      17.969  -7.180 -44.206  0.00  0.00    +0.000 C 
ENDBRANCH  27  29
ENDBRANCH  23  24
ENDBRANCH  22  23
ENDBRANCH  15  22
ENDBRANCH   3  10
BRANCH   1  36
ATOM     36  C3  UNL     1      24.165  -9.254 -33.390  0.00  0.00    +0.000 C 
BRANCH  36  38
ATOM     37  C1  UNL     1      23.064  -7.032 -33.314  0.00  0.00    +0.000 C 
ATOM     38  C2  UNL     1      23.493  -8.119 -32.668  0.00  0.00    +0.000 C 
ENDBRANCH  36  38
ENDBRANCH   1  36
BRANCH   6  39
ATOM     39  S2  UNL     1      30.982  -6.477 -35.378  0.00  0.00    +0.000 S 
BRANCH  39  40
ATOM     40  C29 UNL     1      31.686  -8.034 -36.020  0.00  0.00    +0.000 C 
BRANCH  40  41
ATOM     41  C30 UNL     1      31.804  -7.974 -37.505  0.00  0.00    +0.000 A 
ATOM     42  N4  UNL     1      32.723  -7.250 -38.167  0.00  0.00    +0.000 NA
ATOM     43  N5  UNL     1      32.487  -7.448 -39.455  0.00  0.00    +0.000 NA
ATOM     44  C31 UNL     1      31.432  -8.282 -39.534  0.00  0.00    +0.000 A 
ATOM     45  O4  UNL     1      31.008  -8.605 -38.333  0.00  0.00    +0.000 OA
BRANCH  44  46
ATOM     46  C32 UNL     1      30.813  -8.785 -40.791  0.00  0.00    +0.000 C 
ATOM     47  C33 UNL     1      31.218 -10.053 -41.253  0.00  0.00    +0.000 C 
ATOM     48  C34 UNL     1      30.688 -10.593 -42.427  0.00  0.00    +0.000 C 
ATOM     49  C35 UNL     1      29.751  -9.875 -43.163  0.00  0.00    +0.000 C 
ATOM     50  C36 UNL     1      29.333  -8.618 -42.727  0.00  0.00    +0.000 C 
ATOM     51  C37 UNL     1      29.847  -8.056 -41.543  0.00  0.00    +0.000 C 
ATOM     52  C38 UNL     1      29.356  -6.693 -41.129  0.00  0.00    +0.000 C 
ENDBRANCH  44  46
ENDBRANCH  40  41
ENDBRANCH  39  40
ENDBRANCH   6  39
TORSDOF 13
