REMARK  Name = resultss/4CJN/ligands/lig_435_t0.pdb
REMARK  6 active torsions:
REMARK  status: ('A' for Active; 'I' for Inactive)
REMARK    1  A    between atoms: C10_1  and  C9_22
REMARK    2  A    between atoms: C20_12  and  C21_15
REMARK    3  A    between atoms: N3_21  and  N2_25
REMARK    4  A    between atoms: N2_25  and  C8_27
REMARK    5  A    between atoms: C8_27  and  N1_29
REMARK    6  A    between atoms: N1_29  and  C7_37
REMARK                            x       y       z     vdW  Elec       q    Type
REMARK                         _______ _______ _______ _____ _____    ______ ____
ROOT
ATOM      1  C10 UNL     1      27.432  -9.858 -37.777  0.00  0.00    +0.000 C 
ATOM      2  C11 UNL     1      28.711  -9.809 -37.182  0.00  0.00    +0.000 C 
ATOM      3  C12 UNL     1      28.773  -9.482 -35.833  0.00  0.00    +0.000 A 
ATOM      4  C13 UNL     1      27.644  -9.202 -35.095  0.00  0.00    +0.000 A 
ATOM      5  N4  UNL     1      27.949  -8.973 -33.795  0.00  0.00    +0.000 N 
ATOM      6  C14 UNL     1      29.292  -9.097 -33.729  0.00  0.00    +0.000 A 
ATOM      7  C15 UNL     1      30.095  -8.970 -32.596  0.00  0.00    +0.000 C 
ATOM      8  C16 UNL     1      31.482  -9.166 -32.744  0.00  0.00    +0.000 C 
ATOM      9  C17 UNL     1      32.031  -9.485 -34.007  0.00  0.00    +0.000 C 
ATOM     10  C18 UNL     1      31.201  -9.614 -35.135  0.00  0.00    +0.000 C 
ATOM     11  C19 UNL     1      29.833  -9.407 -34.959  0.00  0.00    +0.000 A 
ATOM     12  C20 UNL     1      26.380  -9.236 -35.700  0.00  0.00    +0.000 C 
ATOM     13  N5  UNL     1      26.321  -9.573 -37.023  0.00  0.00    +0.000 NA
ATOM     14  H13 UNL     1      27.298  -8.783 -33.001  0.00  0.00    +0.000 HD
ENDROOT
BRANCH  12  15
ATOM     15  C21 UNL     1      25.130  -8.923 -34.976  0.00  0.00    +0.000 C 
ATOM     16  C22 UNL     1      24.941  -9.336 -33.645  0.00  0.00    +0.000 C 
ATOM     17  C23 UNL     1      23.767  -9.002 -32.962  0.00  0.00    +0.000 C 
ATOM     18  C24 UNL     1      22.780  -8.242 -33.595  0.00  0.00    +0.000 C 
ATOM     19  C25 UNL     1      22.968  -7.810 -34.911  0.00  0.00    +0.000 C 
ATOM     20  C26 UNL     1      24.141  -8.141 -35.597  0.00  0.00    +0.000 C 
ENDBRANCH  12  15
BRANCH   1  22
ATOM     21  N3  UNL     1      26.276  -9.531 -39.999  0.00  0.00    +0.000 N 
ATOM     22  C9  UNL     1      27.273 -10.194 -39.205  0.00  0.00    +0.000 C 
ATOM     23  O1  UNL     1      28.005 -11.077 -39.729  0.00  0.00    +0.000 OA
ATOM     24  H11 UNL     1      25.453  -9.103 -39.519  0.00  0.00    +0.000 HD
BRANCH  21  25
ATOM     25  N2  UNL     1      26.254  -9.619 -41.403  0.00  0.00    +0.000 N 
ATOM     26  H10 UNL     1      25.984 -10.529 -41.838  0.00  0.00    +0.000 HD
BRANCH  25  27
ATOM     27  C8  UNL     1      26.435  -8.475 -42.248  0.00  0.00    +0.000 C 
ATOM     28  S1  UNL     1      25.180  -7.436 -42.449  0.00  0.00    +0.000 S 
BRANCH  27  29
ATOM     29  N1  UNL     1      27.754  -8.112 -42.692  0.00  0.00    +0.000 N 
ATOM     30  H9  UNL     1      27.830  -7.364 -43.417  0.00  0.00    +0.000 HD
BRANCH  29  37
ATOM     31  C1  UNL     1      31.110 -11.765 -43.090  0.00  0.00    +0.000 C 
ATOM     32  C2  UNL     1      30.593 -10.548 -42.381  0.00  0.00    +0.000 C 
ATOM     33  C3  UNL     1      31.279 -10.021 -41.278  0.00  0.00    +0.000 C 
ATOM     34  C4  UNL     1      30.805  -8.876 -40.636  0.00  0.00    +0.000 C 
ATOM     35  C5  UNL     1      29.649  -8.226 -41.096  0.00  0.00    +0.000 C 
ATOM     36  C6  UNL     1      29.160  -6.993 -40.384  0.00  0.00    +0.000 C 
ATOM     37  C7  UNL     1      28.961  -8.739 -42.222  0.00  0.00    +0.000 C 
ATOM     38  C27 UNL     1      29.441  -9.902 -42.851  0.00  0.00    +0.000 C 
ENDBRANCH  29  37
ENDBRANCH  27  29
ENDBRANCH  25  27
ENDBRANCH  21  25
ENDBRANCH   1  22
TORSDOF 6
