REMARK  Name = resultss/4CJN/ligands/lig_312_t0.pdb
REMARK  12 active torsions:
REMARK  status: ('A' for Active; 'I' for Inactive)
REMARK    1  A    between atoms: C10_1  and  O5_11
REMARK    2  A    between atoms: C12_4  and  O7_7
REMARK    3  A    between atoms: C13_5  and  O8_9
REMARK    4  A    between atoms: C14_6  and  O9_33
REMARK    5  A    between atoms: O5_11  and  C9_20
REMARK    6  A    between atoms: C2_12  and  O1_28
REMARK    7  A    between atoms: C4_14  and  O2_29
REMARK    8  A    between atoms: C8_19  and  O4_31
REMARK    9  A    between atoms: O9_33  and  C15_34
REMARK   10  A    between atoms: C18_38  and  O11_41
REMARK   11  A    between atoms: C19_39  and  O12_43
REMARK   12  A    between atoms: C20_40  and  O13_45
REMARK                            x       y       z     vdW  Elec       q    Type
REMARK                         _______ _______ _______ _____ _____    ______ ____
ROOT
ATOM      1  C10 UNL     1      25.703  -7.985 -40.386  0.00  0.00    +0.000 C 
ATOM      2  O6  UNL     1      25.296  -6.769 -40.997  0.00  0.00    +0.000 OA
ATOM      3  C11 UNL     1      23.892  -6.601 -40.930  0.00  0.00    +0.000 C 
ATOM      4  C12 UNL     1      23.120  -7.763 -41.600  0.00  0.00    +0.000 C 
ATOM      5  C13 UNL     1      24.089  -8.800 -42.185  0.00  0.00    +0.000 C 
ATOM      6  C14 UNL     1      25.093  -9.225 -41.099  0.00  0.00    +0.000 C 
ENDROOT
BRANCH   4   7
ATOM      7  O7  UNL     1      22.300  -7.262 -42.628  0.00  0.00    +0.000 OA
ATOM      8  H11 UNL     1      22.710  -7.528 -43.492  0.00  0.00    +0.000 HD
ENDBRANCH   4   7
BRANCH   5   9
ATOM      9  O8  UNL     1      23.363  -9.917 -42.631  0.00  0.00    +0.000 OA
ATOM     10  H13 UNL     1      23.040  -9.704 -43.547  0.00  0.00    +0.000 HD
ENDBRANCH   5   9
BRANCH   1  11
ATOM     11  O5  UNL     1      25.353  -8.017 -38.998  0.00  0.00    +0.000 OA
BRANCH  11  20
ATOM     12  C2  UNL     1      31.294 -10.052 -32.842  0.00  0.00    +0.000 C 
ATOM     13  C3  UNL     1      32.154  -9.670 -33.884  0.00  0.00    +0.000 C 
ATOM     14  C4  UNL     1      31.643  -9.295 -35.136  0.00  0.00    +0.000 C 
ATOM     15  C5  UNL     1      30.246  -9.299 -35.357  0.00  0.00    +0.000 A 
ATOM     16  C6  UNL     1      29.661  -8.929 -36.589  0.00  0.00    +0.000 A 
ATOM     17  O3  UNL     1      30.399  -8.684 -37.578  0.00  0.00    +0.000 OA
ATOM     18  C7  UNL     1      28.248  -8.861 -36.707  0.00  0.00    +0.000 A 
ATOM     19  C8  UNL     1      27.559  -8.397 -37.872  0.00  0.00    +0.000 C 
ATOM     20  C9  UNL     1      26.141  -8.442 -37.911  0.00  0.00    +0.000 C 
ATOM     21  C21 UNL     1      25.436  -8.905 -36.800  0.00  0.00    +0.000 C 
ATOM     22  C22 UNL     1      26.097  -9.310 -35.649  0.00  0.00    +0.000 C 
ATOM     23  C23 UNL     1      27.486  -9.286 -35.589  0.00  0.00    +0.000 A 
ATOM     24  O14 UNL     1      28.077  -9.666 -34.463  0.00  0.00    +0.000 OA
ATOM     25  C24 UNL     1      29.390  -9.675 -34.301  0.00  0.00    +0.000 A 
ATOM     26  C25 UNL     1      29.918 -10.057 -33.064  0.00  0.00    +0.000 C 
BRANCH  12  28
ATOM     27  C1  UNL     1      32.203 -11.737 -31.235  0.00  0.00    +0.000 C 
ATOM     28  O1  UNL     1      31.765 -10.427 -31.575  0.00  0.00    +0.000 OA
ENDBRANCH  12  28
BRANCH  14  29
ATOM     29  O2  UNL     1      32.529  -8.906 -36.143  0.00  0.00    +0.000 OA
ATOM     30  H5  UNL     1      32.914  -7.972 -36.185  0.00  0.00    +0.000 HD
ENDBRANCH  14  29
BRANCH  19  31
ATOM     31  O4  UNL     1      28.242  -7.858 -38.962  0.00  0.00    +0.000 OA
ATOM     32  H6  UNL     1      29.243  -7.729 -38.981  0.00  0.00    +0.000 HD
ENDBRANCH  19  31
ENDBRANCH  11  20
ENDBRANCH   1  11
BRANCH   6  33
ATOM     33  O9  UNL     1      26.129  -9.989 -41.701  0.00  0.00    +0.000 OA
BRANCH  33  34
ATOM     34  C15 UNL     1      27.398  -9.645 -41.175  0.00  0.00    +0.000 C 
ATOM     35  O10 UNL     1      28.038  -8.684 -42.009  0.00  0.00    +0.000 OA
ATOM     36  C16 UNL     1      28.756  -9.299 -43.059  0.00  0.00    +0.000 C 
ATOM     37  C17 UNL     1      29.118  -8.241 -44.100  0.00  0.00    +0.000 C 
ATOM     38  C18 UNL     1      30.026  -9.974 -42.495  0.00  0.00    +0.000 C 
ATOM     39  C19 UNL     1      29.738 -10.660 -41.128  0.00  0.00    +0.000 C 
ATOM     40  C20 UNL     1      28.233 -10.939 -40.949  0.00  0.00    +0.000 C 
BRANCH  38  41
ATOM     41  O11 UNL     1      30.497 -10.923 -43.417  0.00  0.00    +0.000 OA
ATOM     42  H21 UNL     1      31.142 -10.441 -44.004  0.00  0.00    +0.000 HD
ENDBRANCH  38  41
BRANCH  39  43
ATOM     43  O12 UNL     1      30.235  -9.892 -40.058  0.00  0.00    +0.000 OA
ATOM     44  H23 UNL     1      29.465  -9.589 -39.510  0.00  0.00    +0.000 HD
ENDBRANCH  39  43
BRANCH  40  45
ATOM     45  O13 UNL     1      27.996 -11.463 -39.668  0.00  0.00    +0.000 OA
ATOM     46  H25 UNL     1      27.011 -11.485 -39.542  0.00  0.00    +0.000 HD
ENDBRANCH  40  45
ENDBRANCH  33  34
ENDBRANCH   6  33
TORSDOF 12
