REMARK  Name = resultss/4CJN/ligands/lig_372_t2.pdb
REMARK  7 active torsions:
REMARK  status: ('A' for Active; 'I' for Inactive)
REMARK    1  A    between atoms: C5_1  and  C6_2
REMARK    2  A    between atoms: C5_1  and  C15_16
REMARK    3  A    between atoms: C5_1  and  C4_32
REMARK    4  A    between atoms: C14_13  and  O4_14
REMARK    5  A    between atoms: C23_27  and  O7_28
REMARK    6  A    between atoms: C2_30  and  O1_37
REMARK    7  A    between atoms: C26_35  and  O8_38
REMARK                            x       y       z     vdW  Elec       q    Type
REMARK                         _______ _______ _______ _____ _____    ______ ____
ROOT
ATOM      1  C5  UNL     1      29.474  -8.316 -39.473  0.00  0.00    +0.000 C 
ENDROOT
BRANCH   1   2
ATOM      2  C6  UNL     1      28.185  -8.678 -40.222  0.00  0.00    +0.000 A 
ATOM      3  C7  UNL     1      27.574  -7.729 -41.072  0.00  0.00    +0.000 A 
ATOM      4  O2  UNL     1      28.079  -6.581 -41.210  0.00  0.00    +0.000 OA
ATOM      5  C8  UNL     1      26.402  -8.067 -41.768  0.00  0.00    +0.000 A 
ATOM      6  C9  UNL     1      25.740  -7.154 -42.611  0.00  0.00    +0.000 C 
ATOM      7  C10 UNL     1      24.573  -7.536 -43.282  0.00  0.00    +0.000 C 
ATOM      8 CL1  UNL     1      23.751  -6.395 -44.331  0.00  0.00    +0.000 Cl
ATOM      9  C11 UNL     1      24.060  -8.827 -43.118  0.00  0.00    +0.000 C 
ATOM     10  C12 UNL     1      24.711  -9.740 -42.286  0.00  0.00    +0.000 C 
ATOM     11  C13 UNL     1      25.879  -9.367 -41.611  0.00  0.00    +0.000 A 
ATOM     12  O3  UNL     1      26.494 -10.247 -40.831  0.00  0.00    +0.000 OA
ATOM     13  C14 UNL     1      27.604  -9.967 -40.155  0.00  0.00    +0.000 A 
BRANCH  13  14
ATOM     14  O4  UNL     1      28.189 -10.977 -39.399  0.00  0.00    +0.000 OA
ATOM     15  H9  UNL     1      28.331 -11.900 -39.787  0.00  0.00    +0.000 HD
ENDBRANCH  13  14
ENDBRANCH   1   2
BRANCH   1  16
ATOM     16  C15 UNL     1      29.387  -8.572 -37.959  0.00  0.00    +0.000 A 
ATOM     17  C16 UNL     1      28.751  -7.674 -37.059  0.00  0.00    +0.000 A 
ATOM     18  O5  UNL     1      28.263  -6.586 -37.469  0.00  0.00    +0.000 OA
ATOM     19  C17 UNL     1      28.678  -7.987 -35.693  0.00  0.00    +0.000 A 
ATOM     20  C18 UNL     1      28.040  -7.142 -34.763  0.00  0.00    +0.000 C 
ATOM     21  C19 UNL     1      27.990  -7.497 -33.410  0.00  0.00    +0.000 C 
ATOM     22 CL2  UNL     1      27.193  -6.441 -32.257  0.00  0.00    +0.000 Cl
ATOM     23  C20 UNL     1      28.573  -8.691 -32.976  0.00  0.00    +0.000 C 
ATOM     24  C21 UNL     1      29.210  -9.533 -33.891  0.00  0.00    +0.000 C 
ATOM     25  C22 UNL     1      29.267  -9.186 -35.245  0.00  0.00    +0.000 A 
ATOM     26  O6  UNL     1      29.884  -9.988 -36.100  0.00  0.00    +0.000 OA
ATOM     27  C23 UNL     1      29.981  -9.738 -37.401  0.00  0.00    +0.000 A 
BRANCH  27  28
ATOM     28  O7  UNL     1      30.690 -10.661 -38.173  0.00  0.00    +0.000 OA
ATOM     29  H13 UNL     1      30.434 -10.938 -39.110  0.00  0.00    +0.000 HD
ENDBRANCH  27  28
ENDBRANCH   1  16
BRANCH   1  32
ATOM     30  C2  UNL     1      31.854 -10.209 -41.861  0.00  0.00    +0.000 C 
ATOM     31  C3  UNL     1      30.675  -9.706 -41.277  0.00  0.00    +0.000 C 
ATOM     32  C4  UNL     1      30.729  -8.859 -40.150  0.00  0.00    +0.000 C 
ATOM     33  C24 UNL     1      31.985  -8.542 -39.605  0.00  0.00    +0.000 C 
ATOM     34  C25 UNL     1      33.156  -9.038 -40.179  0.00  0.00    +0.000 C 
ATOM     35  C26 UNL     1      33.097  -9.865 -41.303  0.00  0.00    +0.000 C 
BRANCH  30  37
ATOM     36  C1  UNL     1      31.527 -12.440 -42.949  0.00  0.00    +0.000 C 
ATOM     37  O1  UNL     1      31.826 -11.049 -42.986  0.00  0.00    +0.000 OA
ENDBRANCH  30  37
BRANCH  35  38
ATOM     38  O8  UNL     1      34.289 -10.341 -41.850  0.00  0.00    +0.000 OA
ATOM     39  H16 UNL     1      35.135 -10.439 -41.300  0.00  0.00    +0.000 HD
ENDBRANCH  35  38
ENDBRANCH   1  32
TORSDOF 7
