REMARK  Name = resultss/4CJN/ligands/lig_407_t0.pdb
REMARK  6 active torsions:
REMARK  status: ('A' for Active; 'I' for Inactive)
REMARK    1  A    between atoms: C9_1  and  C1_22
REMARK    2  A    between atoms: C19_12  and  C20_15
REMARK    3  A    between atoms: N1_23  and  N2_25
REMARK    4  A    between atoms: N2_25  and  C2_27
REMARK    5  A    between atoms: C2_27  and  N3_29
REMARK    6  A    between atoms: N3_29  and  C3_31
REMARK                            x       y       z     vdW  Elec       q    Type
REMARK                         _______ _______ _______ _____ _____    ______ ____
ROOT
ATOM      1  C9  UNL     1      27.884  -9.984 -37.644  0.00  0.00    +0.000 C 
ATOM      2  C10 UNL     1      29.104  -9.921 -36.934  0.00  0.00    +0.000 C 
ATOM      3  C11 UNL     1      29.042  -9.549 -35.596  0.00  0.00    +0.000 A 
ATOM      4  C12 UNL     1      27.851  -9.245 -34.974  0.00  0.00    +0.000 A 
ATOM      5  N4  UNL     1      28.037  -8.977 -33.659  0.00  0.00    +0.000 N 
ATOM      6  C13 UNL     1      29.367  -9.098 -33.467  0.00  0.00    +0.000 A 
ATOM      7  C14 UNL     1      30.063  -8.932 -32.270  0.00  0.00    +0.000 C 
ATOM      8  C15 UNL     1      31.457  -9.126 -32.286  0.00  0.00    +0.000 C 
ATOM      9  C16 UNL     1      32.120  -9.485 -33.482  0.00  0.00    +0.000 C 
ATOM     10  C17 UNL     1      31.396  -9.652 -34.676  0.00  0.00    +0.000 C 
ATOM     11  C18 UNL     1      30.018  -9.447 -34.631  0.00  0.00    +0.000 A 
ATOM     12  C19 UNL     1      26.649  -9.297 -35.692  0.00  0.00    +0.000 C 
ATOM     13  N5  UNL     1      26.711  -9.677 -37.005  0.00  0.00    +0.000 NA
ATOM     14  H9  UNL     1      27.317  -8.761 -32.935  0.00  0.00    +0.000 HD
ENDROOT
BRANCH  12  15
ATOM     15  C20 UNL     1      25.338  -8.966 -35.095  0.00  0.00    +0.000 C 
ATOM     16  C21 UNL     1      25.018  -9.367 -33.785  0.00  0.00    +0.000 C 
ATOM     17  C22 UNL     1      23.784  -9.024 -33.225  0.00  0.00    +0.000 C 
ATOM     18  C23 UNL     1      22.866  -8.268 -33.960  0.00  0.00    +0.000 C 
ATOM     19  C24 UNL     1      23.185  -7.848 -35.254  0.00  0.00    +0.000 C 
ATOM     20  C25 UNL     1      24.418  -8.189 -35.818  0.00  0.00    +0.000 C 
ENDBRANCH  12  15
BRANCH   1  22
ATOM     21  O1  UNL     1      26.762 -10.401 -39.693  0.00  0.00    +0.000 OA
ATOM     22  C1  UNL     1      27.855 -10.391 -39.064  0.00  0.00    +0.000 C 
ATOM     23  N1  UNL     1      29.061 -10.793 -39.730  0.00  0.00    +0.000 N 
ATOM     24  H1  UNL     1      29.878 -11.097 -39.154  0.00  0.00    +0.000 HD
BRANCH  23  25
ATOM     25  N2  UNL     1      29.081 -11.083 -41.105  0.00  0.00    +0.000 N 
ATOM     26  H2  UNL     1      28.475 -11.860 -41.446  0.00  0.00    +0.000 HD
BRANCH  25  27
ATOM     27  C2  UNL     1      29.984 -10.437 -42.022  0.00  0.00    +0.000 C 
ATOM     28  S1  UNL     1      29.455  -9.262 -43.038  0.00  0.00    +0.000 S 
BRANCH  27  29
ATOM     29  N3  UNL     1      31.364 -10.828 -42.086  0.00  0.00    +0.000 N 
ATOM     30  H3  UNL     1      31.945 -10.714 -41.225  0.00  0.00    +0.000 HD
BRANCH  29  31
ATOM     31  C3  UNL     1      31.987 -11.382 -43.256  0.00  0.00    +0.000 C 
ATOM     32  C4  UNL     1      32.772 -10.580 -44.106  0.00  0.00    +0.000 C 
ATOM     33  C5  UNL     1      33.344 -11.124 -45.260  0.00  0.00    +0.000 C 
ATOM     34  C6  UNL     1      33.127 -12.466 -45.583  0.00  0.00    +0.000 C 
ATOM     35  C7  UNL     1      32.332 -13.265 -44.757  0.00  0.00    +0.000 C 
ATOM     36  C8  UNL     1      31.757 -12.725 -43.601  0.00  0.00    +0.000 C 
ATOM     37  F1  UNL     1      30.987 -13.513 -42.810  0.00  0.00    +0.000 F 
ENDBRANCH  29  31
ENDBRANCH  27  29
ENDBRANCH  25  27
ENDBRANCH  23  25
ENDBRANCH   1  22
TORSDOF 6
