REMARK  Name = resultss/4CJN/ligands/lig_422_t0.pdb
REMARK  8 active torsions:
REMARK  status: ('A' for Active; 'I' for Inactive)
REMARK    1  A    between atoms: C1_2  and  C10_5
REMARK    2  A    between atoms: N1_3  and  N2_25
REMARK    3  A    between atoms: C20_16  and  C21_19
REMARK    4  A    between atoms: N2_25  and  C2_27
REMARK    5  A    between atoms: C2_27  and  N3_29
REMARK    6  A    between atoms: N3_29  and  C3_31
REMARK    7  A    between atoms: C8_36  and  O2_37
REMARK    8  A    between atoms: O2_37  and  C9_38
REMARK                            x       y       z     vdW  Elec       q    Type
REMARK                         _______ _______ _______ _____ _____    ______ ____
ROOT
ATOM      1  O1  UNL     1      26.680 -10.104 -39.771  0.00  0.00    +0.000 OA
ATOM      2  C1  UNL     1      27.729 -10.305 -39.101  0.00  0.00    +0.000 C 
ATOM      3  N1  UNL     1      28.881 -10.882 -39.737  0.00  0.00    +0.000 N 
ATOM      4  H1  UNL     1      29.739 -11.047 -39.168  0.00  0.00    +0.000 HD
ENDROOT
BRANCH   2   5
ATOM      5  C10 UNL     1      27.762  -9.950 -37.665  0.00  0.00    +0.000 C 
ATOM      6  C11 UNL     1      28.977  -9.959 -36.946  0.00  0.00    +0.000 C 
ATOM      7  C12 UNL     1      28.925  -9.598 -35.605  0.00  0.00    +0.000 A 
ATOM      8  C13 UNL     1      27.744  -9.250 -34.984  0.00  0.00    +0.000 A 
ATOM      9  N4  UNL     1      27.955  -8.875 -33.700  0.00  0.00    +0.000 N 
ATOM     10  C14 UNL     1      29.287  -9.011 -33.514  0.00  0.00    +0.000 A 
ATOM     11  C15 UNL     1      30.007  -8.737 -32.353  0.00  0.00    +0.000 C 
ATOM     12  C16 UNL     1      31.401  -8.929 -32.381  0.00  0.00    +0.000 C 
ATOM     13  C17 UNL     1      32.040  -9.381 -33.557  0.00  0.00    +0.000 C 
ATOM     14  C18 UNL     1      31.294  -9.646 -34.720  0.00  0.00    +0.000 C 
ATOM     15  C19 UNL     1      29.914  -9.454 -34.660  0.00  0.00    +0.000 A 
ATOM     16  C20 UNL     1      26.542  -9.261 -35.704  0.00  0.00    +0.000 C 
ATOM     17  N5  UNL     1      26.598  -9.602 -37.027  0.00  0.00    +0.000 NA
ATOM     18  H9  UNL     1      27.260  -8.521 -33.006  0.00  0.00    +0.000 HD
BRANCH  16  19
ATOM     19  C21 UNL     1      25.237  -8.919 -35.099  0.00  0.00    +0.000 C 
ATOM     20  C22 UNL     1      24.304  -8.127 -35.792  0.00  0.00    +0.000 C 
ATOM     21  C23 UNL     1      23.085  -7.789 -35.194  0.00  0.00    +0.000 C 
ATOM     22  C24 UNL     1      22.795  -8.225 -33.899  0.00  0.00    +0.000 C 
ATOM     23  C25 UNL     1      23.727  -8.993 -33.196  0.00  0.00    +0.000 C 
ATOM     24  C26 UNL     1      24.945  -9.333 -33.789  0.00  0.00    +0.000 C 
ENDBRANCH  16  19
ENDBRANCH   2   5
BRANCH   3  25
ATOM     25  N2  UNL     1      28.871 -11.207 -41.107  0.00  0.00    +0.000 N 
ATOM     26  H2  UNL     1      28.247 -11.974 -41.448  0.00  0.00    +0.000 HD
BRANCH  25  27
ATOM     27  C2  UNL     1      29.662 -10.506 -42.082  0.00  0.00    +0.000 C 
ATOM     28  S1  UNL     1      31.035 -11.184 -42.690  0.00  0.00    +0.000 S 
BRANCH  27  29
ATOM     29  N3  UNL     1      29.158  -9.277 -42.630  0.00  0.00    +0.000 N 
ATOM     30  H3  UNL     1      28.922  -9.243 -43.647  0.00  0.00    +0.000 HD
BRANCH  29  31
ATOM     31  C3  UNL     1      28.835  -8.122 -41.842  0.00  0.00    +0.000 C 
ATOM     32  C4  UNL     1      29.721  -7.716 -40.830  0.00  0.00    +0.000 C 
ATOM     33  C5  UNL     1      29.373  -6.687 -39.952  0.00  0.00    +0.000 C 
ATOM     34  C6  UNL     1      28.128  -6.070 -40.062  0.00  0.00    +0.000 C 
ATOM     35  C7  UNL     1      27.236  -6.467 -41.060  0.00  0.00    +0.000 C 
ATOM     36  C8  UNL     1      27.581  -7.473 -41.972  0.00  0.00    +0.000 C 
BRANCH  36  37
ATOM     37  O2  UNL     1      26.647  -7.773 -42.979  0.00  0.00    +0.000 OA
BRANCH  37  38
ATOM     38  C9  UNL     1      25.570  -8.706 -42.871  0.00  0.00    +0.000 C 
ATOM     39  F1  UNL     1      26.048 -10.006 -42.849  0.00  0.00    +0.000 F 
ATOM     40  F2  UNL     1      24.747  -8.558 -43.970  0.00  0.00    +0.000 F 
ATOM     41  F3  UNL     1      24.826  -8.455 -41.736  0.00  0.00    +0.000 F 
ENDBRANCH  37  38
ENDBRANCH  36  37
ENDBRANCH  29  31
ENDBRANCH  27  29
ENDBRANCH  25  27
ENDBRANCH   3  25
TORSDOF 8
