REMARK  Name = resultss/4CJN/ligands/lig_284_t2.pdb
REMARK  10 active torsions:
REMARK  status: ('A' for Active; 'I' for Inactive)
REMARK    1  A    between atoms: C11_1  and  C10_23
REMARK    2  A    between atoms: C15_7  and  C16_9
REMARK    3  A    between atoms: C25_8  and  O5_21
REMARK    4  A    between atoms: C16_9  and  C17_11
REMARK    5  A    between atoms: C18_12  and  C19_13
REMARK    6  A    between atoms: C22_16  and  O4_19
REMARK    7  A    between atoms: C10_23  and  C9_26
REMARK    8  A    between atoms: C7_24  and  C6_27
REMARK    9  A    between atoms: C6_27  and  C5_28
REMARK   10  A    between atoms: C5_28  and  C4_32
REMARK                            x       y       z     vdW  Elec       q    Type
REMARK                         _______ _______ _______ _____ _____    ______ ____
ROOT
ATOM      1  C11 UNL     1      26.849  -8.117 -39.521  0.00  0.00    +0.000 C 
ATOM      2  C12 UNL     1      25.685  -8.863 -40.063  0.00  0.00    +0.000 C 
ATOM      3  O1  UNL     1      24.544  -8.707 -39.561  0.00  0.00    +0.000 OA
ATOM      4  C13 UNL     1      25.856  -9.854 -41.165  0.00  0.00    +0.000 C 
ATOM      5  C14 UNL     1      26.942  -9.406 -42.088  0.00  0.00    +0.000 C 
ATOM      6  O2  UNL     1      26.855  -9.648 -43.286  0.00  0.00    +0.000 OA
ATOM      7  C15 UNL     1      28.207  -8.793 -41.540  0.00  0.00    +0.000 C 
ATOM      8  C25 UNL     1      28.030  -8.117 -40.194  0.00  0.00    +0.000 C 
ENDROOT
BRANCH   7   9
ATOM      9  C16 UNL     1      29.274  -9.852 -41.433  0.00  0.00    +0.000 C 
ATOM     10  O3  UNL     1      29.502 -10.393 -40.313  0.00  0.00    +0.000 OA
BRANCH   9  11
ATOM     11  C17 UNL     1      30.054 -10.242 -42.626  0.00  0.00    +0.000 C 
ATOM     12  C18 UNL     1      30.988 -11.201 -42.586  0.00  0.00    +0.000 C 
BRANCH  12  13
ATOM     13  C19 UNL     1      31.788 -11.624 -43.762  0.00  0.00    +0.000 C 
ATOM     14  C20 UNL     1      32.533 -10.713 -44.539  0.00  0.00    +0.000 C 
ATOM     15  C21 UNL     1      33.270 -11.160 -45.641  0.00  0.00    +0.000 C 
ATOM     16  C22 UNL     1      33.288 -12.519 -45.974  0.00  0.00    +0.000 C 
ATOM     17  C23 UNL     1      32.566 -13.433 -45.198  0.00  0.00    +0.000 C 
ATOM     18  C24 UNL     1      31.825 -12.991 -44.098  0.00  0.00    +0.000 C 
BRANCH  16  19
ATOM     19  O4  UNL     1      34.026 -12.948 -47.076  0.00  0.00    +0.000 OA
ATOM     20  H25 UNL     1      33.578 -13.190 -47.951  0.00  0.00    +0.000 HD
ENDBRANCH  16  19
ENDBRANCH  12  13
ENDBRANCH   9  11
ENDBRANCH   7   9
BRANCH   8  21
ATOM     21  O5  UNL     1      29.170  -7.489 -39.678  0.00  0.00    +0.000 OA
ATOM     22  H28 UNL     1      29.239  -6.500 -39.481  0.00  0.00    +0.000 HD
ENDBRANCH   8  21
BRANCH   1  23
ATOM     23  C10 UNL     1      26.710  -7.445 -38.168  0.00  0.00    +0.000 C 
BRANCH  23  26
ATOM     24  C7  UNL     1      25.958  -8.768 -36.163  0.00  0.00    +0.000 C 
ATOM     25  C8  UNL     1      24.604  -8.093 -36.179  0.00  0.00    +0.000 C 
ATOM     26  C9  UNL     1      26.914  -8.449 -37.062  0.00  0.00    +0.000 C 
BRANCH  24  27
ATOM     27  C6  UNL     1      26.253  -9.828 -35.116  0.00  0.00    +0.000 C 
BRANCH  27  28
ATOM     28  C5  UNL     1      27.100  -9.262 -33.962  0.00  0.00    +0.000 C 
BRANCH  28  32
ATOM     29  C1  UNL     1      29.377  -8.015 -32.473  0.00  0.00    +0.000 C 
ATOM     30  C2  UNL     1      29.541  -9.253 -33.317  0.00  0.00    +0.000 C 
ATOM     31  C3  UNL     1      30.906  -9.884 -33.397  0.00  0.00    +0.000 C 
ATOM     32  C4  UNL     1      28.513  -9.795 -33.998  0.00  0.00    +0.000 C 
ENDBRANCH  28  32
ENDBRANCH  27  28
ENDBRANCH  24  27
ENDBRANCH  23  26
ENDBRANCH   1  23
TORSDOF 10
