REMARK  Name = resultss/4CJN/ligands/lig_346_t2.pdb
REMARK  11 active torsions:
REMARK  status: ('A' for Active; 'I' for Inactive)
REMARK    1  A    between atoms: C6_1  and  O2_27
REMARK    2  A    between atoms: C9_4  and  C10_7
REMARK    3  A    between atoms: C17_15  and  O3_17
REMARK    4  A    between atoms: N3_16  and  N4_19
REMARK    5  A    between atoms: N4_19  and  C18_21
REMARK    6  A    between atoms: O2_27  and  C5_28
REMARK    7  A    between atoms: C5_28  and  C4_31
REMARK    8  A    between atoms: N1_29  and  C2_34
REMARK    9  A    between atoms: C2_34  and  C1_36
REMARK   10  A    between atoms: N7_37  and  C26_39
REMARK   11  A    between atoms: C26_39  and  C27_40
REMARK                            x       y       z     vdW  Elec       q    Type
REMARK                         _______ _______ _______ _____ _____    ______ ____
ROOT
ATOM      1  C6  UNL     1      26.126  -9.326 -40.552  0.00  0.00    +0.000 C 
ATOM      2  C7  UNL     1      26.055  -7.988 -40.147  0.00  0.00    +0.000 C 
ATOM      3  C8  UNL     1      25.778  -6.979 -41.073  0.00  0.00    +0.000 C 
ATOM      4  C9  UNL     1      25.571  -7.294 -42.426  0.00  0.00    +0.000 C 
ATOM      5  C24 UNL     1      25.632  -8.637 -42.834  0.00  0.00    +0.000 C 
ATOM      6  C25 UNL     1      25.910  -9.646 -41.906  0.00  0.00    +0.000 C 
ENDROOT
BRANCH   4   7
ATOM      7  C10 UNL     1      25.240  -6.207 -43.422  0.00  0.00    +0.000 C 
ATOM      8  N2  UNL     1      23.939  -6.490 -44.032  0.00  0.00    +0.000 NA
ATOM      9  C11 UNL     1      23.747  -6.760 -45.288  0.00  0.00    +0.000 C 
ATOM     10  C12 UNL     1      22.447  -7.058 -45.719  0.00  0.00    +0.000 C 
ATOM     11  C13 UNL     1      22.199  -7.371 -47.057  0.00  0.00    +0.000 C 
ATOM     12  C14 UNL     1      23.248  -7.382 -47.976  0.00  0.00    +0.000 C 
ATOM     13  C15 UNL     1      24.547  -7.078 -47.562  0.00  0.00    +0.000 C 
ATOM     14  C16 UNL     1      24.815  -6.762 -46.214  0.00  0.00    +0.000 C 
ATOM     15  C17 UNL     1      26.060  -6.448 -45.808  0.00  0.00    +0.000 C 
ATOM     16  N3  UNL     1      26.309  -6.110 -44.429  0.00  0.00    +0.000 N 
BRANCH  15  17
ATOM     17  O3  UNL     1      27.108  -6.426 -46.731  0.00  0.00    +0.000 OA
ATOM     18  H13 UNL     1      27.234  -7.147 -47.429  0.00  0.00    +0.000 HD
ENDBRANCH  15  17
BRANCH  16  19
ATOM     19  N4  UNL     1      27.631  -5.884 -43.999  0.00  0.00    +0.000 N 
ATOM     20  H14 UNL     1      28.087  -4.975 -44.234  0.00  0.00    +0.000 HD
BRANCH  19  21
ATOM     21  C18 UNL     1      28.409  -6.907 -43.363  0.00  0.00    +0.000 C 
ATOM     22  C19 UNL     1      28.624  -8.146 -43.993  0.00  0.00    +0.000 C 
ATOM     23  C20 UNL     1      29.368  -9.142 -43.352  0.00  0.00    +0.000 C 
ATOM     24  C21 UNL     1      29.897  -8.910 -42.080  0.00  0.00    +0.000 C 
ATOM     25  C22 UNL     1      29.677  -7.684 -41.444  0.00  0.00    +0.000 C 
ATOM     26  C23 UNL     1      28.931  -6.687 -42.080  0.00  0.00    +0.000 C 
ENDBRANCH  19  21
ENDBRANCH  16  19
ENDBRANCH   4   7
BRANCH   1  27
ATOM     27  O2  UNL     1      26.405 -10.299 -39.577  0.00  0.00    +0.000 OA
BRANCH  27  28
ATOM     28  C5  UNL     1      27.709 -10.704 -39.165  0.00  0.00    +0.000 C 
BRANCH  28  31
ATOM     29  N1  UNL     1      28.976  -8.685 -36.429  0.00  0.00    +0.000 N 
ATOM     30  C3  UNL     1      28.942  -8.957 -37.747  0.00  0.00    +0.000 C 
ATOM     31  C4  UNL     1      28.089 -10.028 -37.887  0.00  0.00    +0.000 C 
ATOM     32  N5  UNL     1      27.639 -10.384 -36.663  0.00  0.00    +0.000 NA
ATOM     33  N6  UNL     1      28.200  -9.552 -35.796  0.00  0.00    +0.000 NA
BRANCH  29  34
ATOM     34  C2  UNL     1      29.767  -7.649 -35.774  0.00  0.00    +0.000 C 
BRANCH  34  36
ATOM     35  O1  UNL     1      29.674  -6.681 -33.592  0.00  0.00    +0.000 OA
ATOM     36  C1  UNL     1      29.027  -7.087 -34.596  0.00  0.00    +0.000 C 
ATOM     37  N7  UNL     1      27.598  -6.964 -34.632  0.00  0.00    +0.000 N 
ATOM     38  H22 UNL     1      27.077  -7.329 -35.461  0.00  0.00    +0.000 HD
BRANCH  37  39
ATOM     39  C26 UNL     1      26.838  -6.324 -33.561  0.00  0.00    +0.000 C 
BRANCH  39  40
ATOM     40  C27 UNL     1      25.546  -7.060 -33.325  0.00  0.00    +0.000 C 
ATOM     41  C28 UNL     1      25.509  -8.462 -33.409  0.00  0.00    +0.000 C 
ATOM     42  C29 UNL     1      24.308  -9.150 -33.206  0.00  0.00    +0.000 C 
ATOM     43  C30 UNL     1      23.137  -8.442 -32.921  0.00  0.00    +0.000 C 
ATOM     44  C31 UNL     1      23.165  -7.047 -32.840  0.00  0.00    +0.000 C 
ATOM     45  C32 UNL     1      24.364  -6.356 -33.044  0.00  0.00    +0.000 C 
ENDBRANCH  39  40
ENDBRANCH  37  39
ENDBRANCH  34  36
ENDBRANCH  29  34
ENDBRANCH  28  31
ENDBRANCH  27  28
ENDBRANCH   1  27
TORSDOF 11
