REMARK  Name = resultss/4CJN/ligands/lig_346_t2.pdb
REMARK  11 active torsions:
REMARK  status: ('A' for Active; 'I' for Inactive)
REMARK    1  A    between atoms: C6_1  and  O2_27
REMARK    2  A    between atoms: C9_4  and  C10_7
REMARK    3  A    between atoms: C17_15  and  O3_17
REMARK    4  A    between atoms: N3_16  and  N4_19
REMARK    5  A    between atoms: N4_19  and  C18_21
REMARK    6  A    between atoms: O2_27  and  C5_28
REMARK    7  A    between atoms: C5_28  and  C4_31
REMARK    8  A    between atoms: N1_29  and  C2_34
REMARK    9  A    between atoms: C2_34  and  C1_36
REMARK   10  A    between atoms: N7_37  and  C26_39
REMARK   11  A    between atoms: C26_39  and  C27_40
REMARK                            x       y       z     vdW  Elec       q    Type
REMARK                         _______ _______ _______ _____ _____    ______ ____
ROOT
ATOM      1  C6  UNL     1      27.852  -9.649 -38.830  0.00  0.00    +0.000 C 
ATOM      2  C7  UNL     1      27.941  -8.252 -38.837  0.00  0.00    +0.000 C 
ATOM      3  C8  UNL     1      28.573  -7.574 -37.791  0.00  0.00    +0.000 C 
ATOM      4  C9  UNL     1      29.127  -8.287 -36.715  0.00  0.00    +0.000 C 
ATOM      5  C24 UNL     1      29.050  -9.690 -36.711  0.00  0.00    +0.000 C 
ATOM      6  C25 UNL     1      28.415 -10.367 -37.758  0.00  0.00    +0.000 C 
ENDROOT
BRANCH   4   7
ATOM      7  C10 UNL     1      29.840  -7.558 -35.601  0.00  0.00    +0.000 C 
ATOM      8  N2  UNL     1      31.144  -8.183 -35.370  0.00  0.00    +0.000 NA
ATOM      9  C11 UNL     1      31.496  -8.793 -34.279  0.00  0.00    +0.000 C 
ATOM     10  C12 UNL     1      32.765  -9.387 -34.222  0.00  0.00    +0.000 C 
ATOM     11  C13 UNL     1      33.176 -10.068 -33.075  0.00  0.00    +0.000 C 
ATOM     12  C14 UNL     1      32.324 -10.157 -31.973  0.00  0.00    +0.000 C 
ATOM     13  C15 UNL     1      31.061  -9.563 -32.014  0.00  0.00    +0.000 C 
ATOM     14  C16 UNL     1      30.629  -8.872 -33.165  0.00  0.00    +0.000 C 
ATOM     15  C17 UNL     1      29.421  -8.280 -33.207  0.00  0.00    +0.000 C 
ATOM     16  N3  UNL     1      29.006  -7.564 -34.388  0.00  0.00    +0.000 N 
BRANCH  15  17
ATOM     17  O3  UNL     1      28.578  -8.338 -32.095  0.00  0.00    +0.000 OA
ATOM     18  H13 UNL     1      28.758  -8.944 -31.307  0.00  0.00    +0.000 HD
ENDBRANCH  15  17
BRANCH  16  19
ATOM     19  N4  UNL     1      27.702  -7.036 -34.456  0.00  0.00    +0.000 N 
ATOM     20  H14 UNL     1      27.580  -6.024 -34.681  0.00  0.00    +0.000 HD
BRANCH  19  21
ATOM     21  C18 UNL     1      26.549  -7.812 -34.102  0.00  0.00    +0.000 C 
ATOM     22  C19 UNL     1      26.476  -9.181 -34.418  0.00  0.00    +0.000 C 
ATOM     23  C20 UNL     1      25.338  -9.920 -34.085  0.00  0.00    +0.000 C 
ATOM     24  C21 UNL     1      24.264  -9.299 -33.440  0.00  0.00    +0.000 C 
ATOM     25  C22 UNL     1      24.326  -7.936 -33.134  0.00  0.00    +0.000 C 
ATOM     26  C23 UNL     1      25.462  -7.193 -33.469  0.00  0.00    +0.000 C 
ENDBRANCH  19  21
ENDBRANCH  16  19
ENDBRANCH   4   7
BRANCH   1  27
ATOM     27  O2  UNL     1      27.207 -10.277 -39.910  0.00  0.00    +0.000 OA
BRANCH  27  28
ATOM     28  C5  UNL     1      27.304  -9.876 -41.274  0.00  0.00    +0.000 C 
BRANCH  28  31
ATOM     29  N1  UNL     1      24.239  -8.298 -42.408  0.00  0.00    +0.000 N 
ATOM     30  C3  UNL     1      25.466  -8.186 -41.865  0.00  0.00    +0.000 C 
ATOM     31  C4  UNL     1      25.964  -9.467 -41.798  0.00  0.00    +0.000 C 
ATOM     32  N5  UNL     1      25.035 -10.318 -42.286  0.00  0.00    +0.000 NA
ATOM     33  N6  UNL     1      23.994  -9.578 -42.645  0.00  0.00    +0.000 NA
BRANCH  29  34
ATOM     34  C2  UNL     1      23.295  -7.215 -42.658  0.00  0.00    +0.000 C 
BRANCH  34  36
ATOM     35  O1  UNL     1      22.298  -6.135 -44.541  0.00  0.00    +0.000 OA
ATOM     36  C1  UNL     1      23.145  -6.974 -44.132  0.00  0.00    +0.000 C 
ATOM     37  N7  UNL     1      23.995  -7.657 -45.064  0.00  0.00    +0.000 N 
ATOM     38  H22 UNL     1      24.673  -8.368 -44.709  0.00  0.00    +0.000 HD
BRANCH  37  39
ATOM     39  C26 UNL     1      23.967  -7.380 -46.498  0.00  0.00    +0.000 C 
BRANCH  39  40
ATOM     40  C27 UNL     1      25.334  -6.970 -46.978  0.00  0.00    +0.000 C 
ATOM     41  C28 UNL     1      26.416  -6.945 -46.082  0.00  0.00    +0.000 C 
ATOM     42  C29 UNL     1      27.685  -6.550 -46.519  0.00  0.00    +0.000 C 
ATOM     43  C30 UNL     1      27.881  -6.176 -47.852  0.00  0.00    +0.000 C 
ATOM     44  C31 UNL     1      26.807  -6.195 -48.747  0.00  0.00    +0.000 C 
ATOM     45  C32 UNL     1      25.537  -6.587 -48.314  0.00  0.00    +0.000 C 
ENDBRANCH  39  40
ENDBRANCH  37  39
ENDBRANCH  34  36
ENDBRANCH  29  34
ENDBRANCH  28  31
ENDBRANCH  27  28
ENDBRANCH   1  27
TORSDOF 11
