REMARK  Name = resultss/4CJN/ligands/lig_161_t1.pdb
REMARK  7 active torsions:
REMARK  status: ('A' for Active; 'I' for Inactive)
REMARK    1  A    between atoms: N2_1  and  N1_19
REMARK    2  A    between atoms: C8_2  and  C9_3
REMARK    3  A    between atoms: C8_2  and  O3_30
REMARK    4  A    between atoms: C12_6  and  C13_9
REMARK    5  A    between atoms: C7_18  and  C6_24
REMARK    6  A    between atoms: C2_20  and  O1_27
REMARK    7  A    between atoms: C5_23  and  O2_28
REMARK                            x       y       z     vdW  Elec       q    Type
REMARK                         _______ _______ _______ _____ _____    ______ ____
ROOT
ATOM      1  N2  UNL     1      29.010  -9.750 -38.447  0.00  0.00    +0.000 NA
ATOM      2  C8  UNL     1      29.495  -9.035 -39.418  0.00  0.00    +0.000 C 
ENDROOT
BRANCH   2   3
ATOM      3  C9  UNL     1      30.176  -9.699 -40.556  0.00  0.00    +0.000 C 
ATOM      4  C10 UNL     1      29.437 -10.473 -41.467  0.00  0.00    +0.000 C 
ATOM      5  C11 UNL     1      30.069 -11.103 -42.543  0.00  0.00    +0.000 C 
ATOM      6  C12 UNL     1      31.455 -10.974 -42.734  0.00  0.00    +0.000 C 
ATOM      7  C20 UNL     1      32.195 -10.200 -41.823  0.00  0.00    +0.000 C 
ATOM      8  C21 UNL     1      31.564  -9.569 -40.748  0.00  0.00    +0.000 C 
BRANCH   6   9
ATOM      9  C13 UNL     1      32.135 -11.636 -43.871  0.00  0.00    +0.000 A 
ATOM     10  N3  UNL     1      31.821 -12.886 -44.298  0.00  0.00    +0.000 NA
ATOM     11  C14 UNL     1      32.589 -13.259 -45.354  0.00  0.00    +0.000 A 
ATOM     12  C15 UNL     1      32.493 -14.490 -46.005  0.00  0.00    +0.000 C 
ATOM     13  C16 UNL     1      33.351 -14.750 -47.088  0.00  0.00    +0.000 C 
ATOM     14  C17 UNL     1      34.287 -13.782 -47.505  0.00  0.00    +0.000 C 
ATOM     15  C18 UNL     1      34.375 -12.548 -46.843  0.00  0.00    +0.000 C 
ATOM     16  C19 UNL     1      33.513 -12.317 -45.774  0.00  0.00    +0.000 A 
ATOM     17  S1  UNL     1      33.385 -10.957 -44.802  0.00  0.00    +0.000 S 
ENDBRANCH   6   9
ENDBRANCH   2   3
BRANCH   1  19
ATOM     18  C7  UNL     1      28.331  -9.778 -36.203  0.00  0.00    +0.000 C 
ATOM     19  N1  UNL     1      28.357  -9.175 -37.348  0.00  0.00    +0.000 NA
BRANCH  18  24
ATOM     20  C2  UNL     1      25.541  -8.496 -33.989  0.00  0.00    +0.000 C 
ATOM     21  C3  UNL     1      26.243  -8.090 -32.853  0.00  0.00    +0.000 C 
ATOM     22  C4  UNL     1      27.630  -8.225 -32.789  0.00  0.00    +0.000 C 
ATOM     23  C5  UNL     1      28.341  -8.772 -33.866  0.00  0.00    +0.000 C 
ATOM     24  C6  UNL     1      27.647  -9.190 -35.026  0.00  0.00    +0.000 C 
ATOM     25  C22 UNL     1      26.249  -9.047 -35.074  0.00  0.00    +0.000 C 
BRANCH  20  27
ATOM     26  C1  UNL     1      23.261  -8.925 -33.053  0.00  0.00    +0.000 C 
ATOM     27  O1  UNL     1      24.147  -8.339 -34.001  0.00  0.00    +0.000 OA
ENDBRANCH  20  27
BRANCH  23  28
ATOM     28  O2  UNL     1      29.728  -8.897 -33.778  0.00  0.00    +0.000 OA
ATOM     29  H6  UNL     1      30.289  -8.241 -33.247  0.00  0.00    +0.000 HD
ENDBRANCH  23  28
ENDBRANCH  18  24
ENDBRANCH   1  19
BRANCH   2  30
ATOM     30  O3  UNL     1      29.381  -7.642 -39.406  0.00  0.00    +0.000 OA
ATOM     31  H8  UNL     1      28.998  -7.116 -40.181  0.00  0.00    +0.000 HD
ENDBRANCH   2  30
TORSDOF 7
