REMARK  Name = resultss/4CJN/ligands/lig_431_t0.pdb
REMARK  7 active torsions:
REMARK  status: ('A' for Active; 'I' for Inactive)
REMARK    1  A    between atoms: C9_1  and  C1_22
REMARK    2  A    between atoms: C19_12  and  C20_15
REMARK    3  A    between atoms: N1_23  and  N2_25
REMARK    4  A    between atoms: N2_25  and  C2_27
REMARK    5  A    between atoms: C2_27  and  N3_29
REMARK    6  A    between atoms: N3_29  and  C3_31
REMARK    7  A    between atoms: C7_35  and  N4_37
REMARK                            x       y       z     vdW  Elec       q    Type
REMARK                         _______ _______ _______ _____ _____    ______ ____
ROOT
ATOM      1  C9  UNL     1      27.728  -9.636 -37.367  0.00  0.00    +0.000 C 
ATOM      2  C10 UNL     1      28.997  -9.687 -36.751  0.00  0.00    +0.000 C 
ATOM      3  C11 UNL     1      29.063  -9.365 -35.401  0.00  0.00    +0.000 A 
ATOM      4  C12 UNL     1      27.948  -9.001 -34.680  0.00  0.00    +0.000 A 
ATOM      5  N5  UNL     1      28.249  -8.801 -33.374  0.00  0.00    +0.000 N 
ATOM      6  C13 UNL     1      29.579  -9.026 -33.288  0.00  0.00    +0.000 A 
ATOM      7  C14 UNL     1      30.370  -8.964 -32.143  0.00  0.00    +0.000 C 
ATOM      8  C15 UNL     1      31.739  -9.263 -32.271  0.00  0.00    +0.000 C 
ATOM      9  C16 UNL     1      32.282  -9.618 -33.525  0.00  0.00    +0.000 C 
ATOM     10  C17 UNL     1      31.463  -9.681 -34.668  0.00  0.00    +0.000 C 
ATOM     11  C18 UNL     1      30.112  -9.374 -34.511  0.00  0.00    +0.000 A 
ATOM     12  C19 UNL     1      26.695  -8.937 -35.306  0.00  0.00    +0.000 C 
ATOM     13  N6  UNL     1      26.632  -9.267 -36.631  0.00  0.00    +0.000 NA
ATOM     14  H9  UNL     1      27.603  -8.563 -32.590  0.00  0.00    +0.000 HD
ENDROOT
BRANCH  12  15
ATOM     15  C20 UNL     1      25.461  -8.536 -34.598  0.00  0.00    +0.000 C 
ATOM     16  C21 UNL     1      24.845  -9.397 -33.673  0.00  0.00    +0.000 C 
ATOM     17  C22 UNL     1      23.691  -8.991 -32.994  0.00  0.00    +0.000 C 
ATOM     18  C23 UNL     1      23.155  -7.722 -33.220  0.00  0.00    +0.000 C 
ATOM     19  C24 UNL     1      23.776  -6.851 -34.119  0.00  0.00    +0.000 C 
ATOM     20  C25 UNL     1      24.928  -7.252 -34.802  0.00  0.00    +0.000 C 
ENDBRANCH  12  15
BRANCH   1  22
ATOM     21  O1  UNL     1      26.543  -9.587 -39.422  0.00  0.00    +0.000 OA
ATOM     22  C1  UNL     1      27.565  -9.981 -38.796  0.00  0.00    +0.000 C 
ATOM     23  N1  UNL     1      28.559 -10.763 -39.476  0.00  0.00    +0.000 N 
ATOM     24  H1  UNL     1      29.394 -11.096 -38.945  0.00  0.00    +0.000 HD
BRANCH  23  25
ATOM     25  N2  UNL     1      28.450 -11.045 -40.851  0.00  0.00    +0.000 N 
ATOM     26  H2  UNL     1      27.841 -11.831 -41.168  0.00  0.00    +0.000 HD
BRANCH  25  27
ATOM     27  C2  UNL     1      29.107 -10.250 -41.850  0.00  0.00    +0.000 C 
ATOM     28  S1  UNL     1      28.271  -9.113 -42.686  0.00  0.00    +0.000 S 
BRANCH  27  29
ATOM     29  N3  UNL     1      30.536 -10.288 -41.979  0.00  0.00    +0.000 N 
ATOM     30  H3  UNL     1      31.104  -9.697 -41.328  0.00  0.00    +0.000 HD
BRANCH  29  31
ATOM     31  C3  UNL     1      31.233 -11.092 -42.946  0.00  0.00    +0.000 C 
ATOM     32  C4  UNL     1      31.142 -12.488 -42.872  0.00  0.00    +0.000 C 
ATOM     33  C5  UNL     1      31.832 -13.290 -43.783  0.00  0.00    +0.000 C 
ATOM     34  C6  UNL     1      32.628 -12.706 -44.771  0.00  0.00    +0.000 C 
ATOM     35  C7  UNL     1      32.751 -11.308 -44.851  0.00  0.00    +0.000 C 
ATOM     36  C8  UNL     1      32.054 -10.508 -43.928  0.00  0.00    +0.000 C 
BRANCH  35  37
ATOM     37  N4  UNL     1      33.584 -10.701 -45.857  0.00  0.00    +0.000 N 
ATOM     38  O2  UNL     1      34.378  -9.785 -45.560  0.00  0.00    +0.000 OA
ATOM     39  O3  UNL     1      33.520 -11.122 -47.166  0.00  0.00    +0.000 OA
ENDBRANCH  35  37
ENDBRANCH  29  31
ENDBRANCH  27  29
ENDBRANCH  25  27
ENDBRANCH  23  25
ENDBRANCH   1  22
TORSDOF 7
