REMARK  Name = resultss/4CJN/ligands/lig_411_t0.pdb
REMARK  6 active torsions:
REMARK  status: ('A' for Active; 'I' for Inactive)
REMARK    1  A    between atoms: C9_1  and  C1_22
REMARK    2  A    between atoms: C19_12  and  C20_15
REMARK    3  A    between atoms: N1_23  and  N2_25
REMARK    4  A    between atoms: N2_25  and  C2_27
REMARK    5  A    between atoms: C2_27  and  N3_29
REMARK    6  A    between atoms: N3_29  and  C3_31
REMARK                            x       y       z     vdW  Elec       q    Type
REMARK                         _______ _______ _______ _____ _____    ______ ____
ROOT
ATOM      1  C9  UNL     1      26.987  -9.825 -40.435  0.00  0.00    +0.000 C 
ATOM      2  C10 UNL     1      27.111  -9.677 -39.036  0.00  0.00    +0.000 C 
ATOM      3  C11 UNL     1      28.380  -9.836 -38.490  0.00  0.00    +0.000 A 
ATOM      4  C12 UNL     1      29.480 -10.129 -39.266  0.00  0.00    +0.000 A 
ATOM      5  N4  UNL     1      30.611 -10.168 -38.522  0.00  0.00    +0.000 N 
ATOM      6  C13 UNL     1      30.203  -9.913 -37.260  0.00  0.00    +0.000 A 
ATOM      7  C14 UNL     1      30.999  -9.831 -36.118  0.00  0.00    +0.000 C 
ATOM      8  C15 UNL     1      30.369  -9.533 -34.896  0.00  0.00    +0.000 C 
ATOM      9  C16 UNL     1      28.973  -9.319 -34.840  0.00  0.00    +0.000 C 
ATOM     10  C17 UNL     1      28.191  -9.401 -36.006  0.00  0.00    +0.000 C 
ATOM     11  C18 UNL     1      28.840  -9.705 -37.200  0.00  0.00    +0.000 A 
ATOM     12  C19 UNL     1      29.341 -10.288 -40.651  0.00  0.00    +0.000 C 
ATOM     13  N5  UNL     1      28.095 -10.118 -41.188  0.00  0.00    +0.000 NA
ATOM     14  H9  UNL     1      31.592 -10.322 -38.843  0.00  0.00    +0.000 HD
ENDROOT
BRANCH  12  15
ATOM     15  C20 UNL     1      30.474 -10.620 -41.541  0.00  0.00    +0.000 C 
ATOM     16  C21 UNL     1      31.716  -9.975 -41.403  0.00  0.00    +0.000 C 
ATOM     17  C22 UNL     1      32.785 -10.319 -42.236  0.00  0.00    +0.000 C 
ATOM     18  C23 UNL     1      32.629 -11.316 -43.202  0.00  0.00    +0.000 C 
ATOM     19  C24 UNL     1      31.405 -11.978 -43.331  0.00  0.00    +0.000 C 
ATOM     20  C25 UNL     1      30.333 -11.637 -42.500  0.00  0.00    +0.000 C 
ENDBRANCH  12  15
BRANCH   1  22
ATOM     21  O1  UNL     1      24.653  -9.391 -40.413  0.00  0.00    +0.000 OA
ATOM     22  C1  UNL     1      25.679  -9.651 -41.101  0.00  0.00    +0.000 C 
ATOM     23  N1  UNL     1      25.565  -9.787 -42.526  0.00  0.00    +0.000 N 
ATOM     24  H1  UNL     1      26.317 -10.291 -43.046  0.00  0.00    +0.000 HD
BRANCH  23  25
ATOM     25  N2  UNL     1      24.364  -9.511 -43.205  0.00  0.00    +0.000 N 
ATOM     26  H2  UNL     1      23.824 -10.311 -43.604  0.00  0.00    +0.000 HD
BRANCH  25  27
ATOM     27  C2  UNL     1      23.913  -8.175 -43.475  0.00  0.00    +0.000 C 
ATOM     28  S1  UNL     1      22.402  -7.751 -42.990  0.00  0.00    +0.000 S 
BRANCH  27  29
ATOM     29  N3  UNL     1      24.787  -7.227 -44.118  0.00  0.00    +0.000 N 
ATOM     30  H3  UNL     1      25.407  -6.633 -43.524  0.00  0.00    +0.000 HD
BRANCH  29  31
ATOM     31  C3  UNL     1      24.847  -7.000 -45.535  0.00  0.00    +0.000 C 
ATOM     32  C4  UNL     1      26.092  -6.991 -46.180  0.00  0.00    +0.000 C 
ATOM     33  C5  UNL     1      26.170  -6.807 -47.563  0.00  0.00    +0.000 C 
ATOM     34  C6  UNL     1      25.004  -6.650 -48.315  0.00  0.00    +0.000 C 
ATOM     35  C7  UNL     1      23.755  -6.687 -47.687  0.00  0.00    +0.000 C 
ATOM     36 CL1  UNL     1      22.289  -6.515 -48.634  0.00  0.00    +0.000 Cl
ATOM     37  C8  UNL     1      23.675  -6.871 -46.301  0.00  0.00    +0.000 C 
ENDBRANCH  29  31
ENDBRANCH  27  29
ENDBRANCH  25  27
ENDBRANCH  23  25
ENDBRANCH   1  22
TORSDOF 6
