REMARK  Name = resultss/4CJN/ligands/lig_435_t0.pdb
REMARK  6 active torsions:
REMARK  status: ('A' for Active; 'I' for Inactive)
REMARK    1  A    between atoms: C10_1  and  C9_22
REMARK    2  A    between atoms: C20_12  and  C21_15
REMARK    3  A    between atoms: N3_21  and  N2_25
REMARK    4  A    between atoms: N2_25  and  C8_27
REMARK    5  A    between atoms: C8_27  and  N1_29
REMARK    6  A    between atoms: N1_29  and  C7_37
REMARK                            x       y       z     vdW  Elec       q    Type
REMARK                         _______ _______ _______ _____ _____    ______ ____
ROOT
ATOM      1  C10 UNL     1      30.805  -9.765 -36.679  0.00  0.00    +0.000 C 
ATOM      2  C11 UNL     1      29.403  -9.616 -36.747  0.00  0.00    +0.000 C 
ATOM      3  C12 UNL     1      28.730  -9.391 -35.552  0.00  0.00    +0.000 A 
ATOM      4  C13 UNL     1      29.386  -9.325 -34.342  0.00  0.00    +0.000 A 
ATOM      5  N4  UNL     1      28.531  -9.036 -33.333  0.00  0.00    +0.000 N 
ATOM      6  C14 UNL     1      27.320  -8.938 -33.924  0.00  0.00    +0.000 A 
ATOM      7  C15 UNL     1      26.105  -8.637 -33.310  0.00  0.00    +0.000 C 
ATOM      8  C16 UNL     1      24.957  -8.557 -34.121  0.00  0.00    +0.000 C 
ATOM      9  C17 UNL     1      25.046  -8.775 -35.515  0.00  0.00    +0.000 C 
ATOM     10  C18 UNL     1      26.284  -9.072 -36.114  0.00  0.00    +0.000 C 
ATOM     11  C19 UNL     1      27.402  -9.151 -35.284  0.00  0.00    +0.000 A 
ATOM     12  C20 UNL     1      30.776  -9.491 -34.285  0.00  0.00    +0.000 C 
ATOM     13  N5  UNL     1      31.438  -9.697 -35.464  0.00  0.00    +0.000 NA
ATOM     14  H13 UNL     1      28.749  -8.880 -32.324  0.00  0.00    +0.000 HD
ENDROOT
BRANCH  12  15
ATOM     15  C21 UNL     1      31.542  -9.457 -33.021  0.00  0.00    +0.000 C 
ATOM     16  C22 UNL     1      31.809 -10.637 -32.304  0.00  0.00    +0.000 C 
ATOM     17  C23 UNL     1      32.565 -10.594 -31.128  0.00  0.00    +0.000 C 
ATOM     18  C24 UNL     1      33.070  -9.376 -30.666  0.00  0.00    +0.000 C 
ATOM     19  C25 UNL     1      32.827  -8.201 -31.382  0.00  0.00    +0.000 C 
ATOM     20  C26 UNL     1      32.073  -8.241 -32.559  0.00  0.00    +0.000 C 
ENDBRANCH  12  15
BRANCH   1  22
ATOM     21  N3  UNL     1      30.970  -9.992 -39.190  0.00  0.00    +0.000 N 
ATOM     22  C9  UNL     1      31.601 -10.009 -37.899  0.00  0.00    +0.000 C 
ATOM     23  O1  UNL     1      32.835 -10.247 -37.808  0.00  0.00    +0.000 OA
ATOM     24  H11 UNL     1      29.943 -10.170 -39.250  0.00  0.00    +0.000 HD
BRANCH  21  25
ATOM     25  N2  UNL     1      31.710  -9.957 -40.385  0.00  0.00    +0.000 N 
ATOM     26  H10 UNL     1      32.692  -9.602 -40.350  0.00  0.00    +0.000 HD
BRANCH  25  27
ATOM     27  C8  UNL     1      31.227 -10.532 -41.606  0.00  0.00    +0.000 C 
ATOM     28  S1  UNL     1      32.307 -10.909 -42.783  0.00  0.00    +0.000 S 
BRANCH  27  29
ATOM     29  N1  UNL     1      29.871 -11.003 -41.690  0.00  0.00    +0.000 N 
ATOM     30  H9  UNL     1      29.705 -12.023 -41.536  0.00  0.00    +0.000 HD
BRANCH  29  37
ATOM     31  C1  UNL     1      27.790  -7.562 -44.621  0.00  0.00    +0.000 C 
ATOM     32  C2  UNL     1      27.729  -8.446 -43.410  0.00  0.00    +0.000 C 
ATOM     33  C3  UNL     1      26.587  -8.461 -42.597  0.00  0.00    +0.000 C 
ATOM     34  C4  UNL     1      26.527  -9.302 -41.485  0.00  0.00    +0.000 C 
ATOM     35  C5  UNL     1      27.598 -10.156 -41.176  0.00  0.00    +0.000 C 
ATOM     36  C6  UNL     1      27.506 -11.052 -39.970  0.00  0.00    +0.000 C 
ATOM     37  C7  UNL     1      28.745 -10.162 -42.004  0.00  0.00    +0.000 C 
ATOM     38  C27 UNL     1      28.800  -9.300 -43.114  0.00  0.00    +0.000 C 
ENDBRANCH  29  37
ENDBRANCH  27  29
ENDBRANCH  25  27
ENDBRANCH  21  25
ENDBRANCH   1  22
TORSDOF 6
