REMARK  Name = resultss/4CJN/ligands/lig_436_t1.pdb
REMARK  5 active torsions:
REMARK  status: ('A' for Active; 'I' for Inactive)
REMARK    1  A    between atoms: C11_1  and  C10_22
REMARK    2  A    between atoms: C21_12  and  C22_15
REMARK    3  A    between atoms: N3_21  and  N2_27
REMARK    4  A    between atoms: N1_25  and  C8_36
REMARK    5  A    between atoms: C9_26  and  S1_37
REMARK                            x       y       z     vdW  Elec       q    Type
REMARK                         _______ _______ _______ _____ _____    ______ ____
ROOT
ATOM      1  C11 UNL     1      30.173  -8.647 -39.249  0.00  0.00    +0.000 C 
ATOM      2  C12 UNL     1      31.314  -9.186 -39.881  0.00  0.00    +0.000 C 
ATOM      3  C13 UNL     1      31.136  -9.757 -41.135  0.00  0.00    +0.000 A 
ATOM      4  C14 UNL     1      29.905  -9.799 -41.753  0.00  0.00    +0.000 A 
ATOM      5  N4  UNL     1      29.968 -10.461 -42.933  0.00  0.00    +0.000 N 
ATOM      6  C15 UNL     1      31.265 -10.820 -43.058  0.00  0.00    +0.000 A 
ATOM      7  C16 UNL     1      31.842 -11.539 -44.104  0.00  0.00    +0.000 C 
ATOM      8  C17 UNL     1      33.218 -11.827 -44.026  0.00  0.00    +0.000 C 
ATOM      9  C18 UNL     1      33.979 -11.400 -42.914  0.00  0.00    +0.000 C 
ATOM     10  C19 UNL     1      33.373 -10.681 -41.867  0.00  0.00    +0.000 C 
ATOM     11  C20 UNL     1      32.012 -10.405 -41.976  0.00  0.00    +0.000 A 
ATOM     12  C21 UNL     1      28.781  -9.247 -41.122  0.00  0.00    +0.000 C 
ATOM     13  N5  UNL     1      28.957  -8.698 -39.882  0.00  0.00    +0.000 NA
ATOM     14  H14 UNL     1      29.191 -10.687 -43.592  0.00  0.00    +0.000 HD
ENDROOT
BRANCH  12  15
ATOM     15  C22 UNL     1      27.436  -9.240 -41.734  0.00  0.00    +0.000 C 
ATOM     16  C23 UNL     1      26.383  -9.988 -41.179  0.00  0.00    +0.000 C 
ATOM     17  C24 UNL     1      25.124  -9.993 -41.785  0.00  0.00    +0.000 C 
ATOM     18  C25 UNL     1      24.908  -9.264 -42.958  0.00  0.00    +0.000 C 
ATOM     19  C26 UNL     1      25.955  -8.536 -43.529  0.00  0.00    +0.000 C 
ATOM     20  C27 UNL     1      27.216  -8.528 -42.925  0.00  0.00    +0.000 C 
ENDBRANCH  12  15
BRANCH   1  22
ATOM     21  N3  UNL     1      29.250  -7.144 -37.438  0.00  0.00    +0.000 N 
ATOM     22  C10 UNL     1      30.267  -8.044 -37.904  0.00  0.00    +0.000 C 
ATOM     23  O1  UNL     1      31.255  -8.304 -37.166  0.00  0.00    +0.000 OA
ATOM     24  H12 UNL     1      28.665  -6.636 -38.141  0.00  0.00    +0.000 HD
BRANCH  21  27
ATOM     25  N1  UNL     1      27.016  -7.705 -35.770  0.00  0.00    +0.000 NA
ATOM     26  C9  UNL     1      28.052  -7.109 -35.257  0.00  0.00    +0.000 C 
ATOM     27  N2  UNL     1      29.162  -6.751 -36.091  0.00  0.00    +0.000 N 
ATOM     28  H11 UNL     1      29.833  -6.033 -35.737  0.00  0.00    +0.000 HD
BRANCH  25  36
ATOM     29  C1  UNL     1      26.942 -10.239 -34.374  0.00  0.00    +0.000 C 
ATOM     30  C2  UNL     1      25.781  -9.285 -34.338  0.00  0.00    +0.000 C 
ATOM     31  C3  UNL     1      24.623  -9.620 -33.618  0.00  0.00    +0.000 C 
ATOM     32  C4  UNL     1      23.535  -8.748 -33.583  0.00  0.00    +0.000 C 
ATOM     33  C5  UNL     1      23.582  -7.539 -34.278  0.00  0.00    +0.000 C 
ATOM     34  C6  UNL     1      24.719  -7.192 -35.023  0.00  0.00    +0.000 C 
ATOM     35  C7  UNL     1      24.747  -5.884 -35.767  0.00  0.00    +0.000 C 
ATOM     36  C8  UNL     1      25.837  -8.056 -35.031  0.00  0.00    +0.000 C 
ENDBRANCH  25  36
BRANCH  26  37
ATOM     37  S1  UNL     1      28.112  -6.670 -33.513  0.00  0.00    +0.000 S 
ATOM     38  H10 UNL     1      26.788  -7.102 -33.306  0.00  0.00    +0.000 HD
ENDBRANCH  26  37
ENDBRANCH  21  27
ENDBRANCH   1  22
TORSDOF 5
