REMARK  Name = resultss/4CJN/ligands/lig_434_t0.pdb
REMARK  6 active torsions:
REMARK  status: ('A' for Active; 'I' for Inactive)
REMARK    1  A    between atoms: C8_1  and  C7_22
REMARK    2  A    between atoms: C18_12  and  C19_15
REMARK    3  A    between atoms: N3_21  and  N2_25
REMARK    4  A    between atoms: N2_25  and  C6_27
REMARK    5  A    between atoms: C6_27  and  N1_29
REMARK    6  A    between atoms: N1_29  and  C5_35
REMARK                            x       y       z     vdW  Elec       q    Type
REMARK                         _______ _______ _______ _____ _____    ______ ____
ROOT
ATOM      1  C8  UNL     1      26.484  -9.809 -41.063  0.00  0.00    +0.000 C 
ATOM      2  C9  UNL     1      26.299  -9.715 -39.667  0.00  0.00    +0.000 C 
ATOM      3  C10 UNL     1      27.424  -9.860 -38.863  0.00  0.00    +0.000 A 
ATOM      4  C11 UNL     1      28.677 -10.092 -39.392  0.00  0.00    +0.000 A 
ATOM      5  N4  UNL     1      29.620 -10.131 -38.420  0.00  0.00    +0.000 N 
ATOM      6  C12 UNL     1      28.939  -9.944 -37.269  0.00  0.00    +0.000 A 
ATOM      7  C13 UNL     1      29.464  -9.895 -35.978  0.00  0.00    +0.000 C 
ATOM      8  C14 UNL     1      28.572  -9.674 -34.911  0.00  0.00    +0.000 C 
ATOM      9  C15 UNL     1      27.189  -9.502 -35.152  0.00  0.00    +0.000 C 
ATOM     10  C16 UNL     1      26.683  -9.549 -36.464  0.00  0.00    +0.000 C 
ATOM     11  C17 UNL     1      27.590  -9.776 -37.500  0.00  0.00    +0.000 A 
ATOM     12  C18 UNL     1      28.846 -10.204 -40.779  0.00  0.00    +0.000 C 
ATOM     13  N5  UNL     1      27.737 -10.047 -41.566  0.00  0.00    +0.000 NA
ATOM     14  H10 UNL     1      30.652 -10.245 -38.523  0.00  0.00    +0.000 HD
ENDROOT
BRANCH  12  15
ATOM     15  C19 UNL     1      30.151 -10.480 -41.414  0.00  0.00    +0.000 C 
ATOM     16  C20 UNL     1      30.262 -11.521 -42.354  0.00  0.00    +0.000 C 
ATOM     17  C21 UNL     1      31.497 -11.811 -42.945  0.00  0.00    +0.000 C 
ATOM     18  C22 UNL     1      32.631 -11.073 -42.594  0.00  0.00    +0.000 C 
ATOM     19  C23 UNL     1      32.535 -10.052 -41.642  0.00  0.00    +0.000 C 
ATOM     20  C24 UNL     1      31.303  -9.760 -41.048  0.00  0.00    +0.000 C 
ENDBRANCH  12  15
BRANCH   1  22
ATOM     21  N3  UNL     1      24.075  -9.177 -41.513  0.00  0.00    +0.000 N 
ATOM     22  C7  UNL     1      25.343  -9.651 -41.991  0.00  0.00    +0.000 C 
ATOM     23  O1  UNL     1      25.482  -9.942 -43.210  0.00  0.00    +0.000 OA
ATOM     24  H8  UNL     1      23.956  -8.992 -40.492  0.00  0.00    +0.000 HD
BRANCH  21  25
ATOM     25  N2  UNL     1      23.003  -8.946 -42.398  0.00  0.00    +0.000 N 
ATOM     26  H7  UNL     1      22.310  -9.708 -42.576  0.00  0.00    +0.000 HD
BRANCH  25  27
ATOM     27  C6  UNL     1      22.843  -7.710 -43.113  0.00  0.00    +0.000 C 
ATOM     28  S1  UNL     1      22.308  -6.363 -42.331  0.00  0.00    +0.000 S 
BRANCH  27  29
ATOM     29  N1  UNL     1      22.923  -7.725 -44.547  0.00  0.00    +0.000 N 
ATOM     30  H6  UNL     1      22.076  -8.033 -45.077  0.00  0.00    +0.000 HD
BRANCH  29  35
ATOM     31  C1  UNL     1      27.670  -6.395 -47.525  0.00  0.00    +0.000 C 
ATOM     32  C2  UNL     1      26.433  -6.752 -46.753  0.00  0.00    +0.000 C 
ATOM     33  C3  UNL     1      26.452  -6.753 -45.353  0.00  0.00    +0.000 C 
ATOM     34  C4  UNL     1      25.299  -7.066 -44.633  0.00  0.00    +0.000 C 
ATOM     35  C5  UNL     1      24.096  -7.357 -45.299  0.00  0.00    +0.000 C 
ATOM     36  C25 UNL     1      24.065  -7.341 -46.713  0.00  0.00    +0.000 C 
ATOM     37  C26 UNL     1      22.800  -7.659 -47.462  0.00  0.00    +0.000 C 
ATOM     38  C27 UNL     1      25.236  -7.036 -47.427  0.00  0.00    +0.000 C 
ENDBRANCH  29  35
ENDBRANCH  27  29
ENDBRANCH  25  27
ENDBRANCH  21  25
ENDBRANCH   1  22
TORSDOF 6
