REMARK  Name = resultss/4CJN/ligands/lig_372_t2.pdb
REMARK  7 active torsions:
REMARK  status: ('A' for Active; 'I' for Inactive)
REMARK    1  A    between atoms: C5_1  and  C6_2
REMARK    2  A    between atoms: C5_1  and  C15_16
REMARK    3  A    between atoms: C5_1  and  C4_32
REMARK    4  A    between atoms: C14_13  and  O4_14
REMARK    5  A    between atoms: C23_27  and  O7_28
REMARK    6  A    between atoms: C2_30  and  O1_37
REMARK    7  A    between atoms: C26_35  and  O8_38
REMARK                            x       y       z     vdW  Elec       q    Type
REMARK                         _______ _______ _______ _____ _____    ______ ____
ROOT
ATOM      1  C5  UNL     1      27.706  -9.239 -41.031  0.00  0.00    +0.000 C 
ENDROOT
BRANCH   1   2
ATOM      2  C6  UNL     1      27.222  -8.509 -39.773  0.00  0.00    +0.000 A 
ATOM      3  C7  UNL     1      26.919  -9.243 -38.604  0.00  0.00    +0.000 A 
ATOM      4  O2  UNL     1      27.036 -10.499 -38.595  0.00  0.00    +0.000 OA
ATOM      5  C8  UNL     1      26.489  -8.571 -37.448  0.00  0.00    +0.000 A 
ATOM      6  C9  UNL     1      26.155  -9.254 -36.264  0.00  0.00    +0.000 C 
ATOM      7  C10 UNL     1      25.728  -8.541 -35.137  0.00  0.00    +0.000 C 
ATOM      8 CL1  UNL     1      25.311  -9.397 -33.664  0.00  0.00    +0.000 Cl
ATOM      9  C11 UNL     1      25.635  -7.146 -35.184  0.00  0.00    +0.000 C 
ATOM     10  C12 UNL     1      25.968  -6.460 -36.354  0.00  0.00    +0.000 C 
ATOM     11  C13 UNL     1      26.395  -7.165 -37.485  0.00  0.00    +0.000 A 
ATOM     12  O3  UNL     1      26.718  -6.501 -38.588  0.00  0.00    +0.000 OA
ATOM     13  C14 UNL     1      27.128  -7.098 -39.702  0.00  0.00    +0.000 A 
BRANCH  13  14
ATOM     14  O4  UNL     1      27.480  -6.303 -40.787  0.00  0.00    +0.000 OA
ATOM     15  H9  UNL     1      28.399  -6.371 -41.204  0.00  0.00    +0.000 HD
ENDBRANCH  13  14
ENDBRANCH   1   2
BRANCH   1  16
ATOM     16  C15 UNL     1      27.059  -8.714 -42.324  0.00  0.00    +0.000 A 
ATOM     17  C16 UNL     1      27.802  -8.083 -43.358  0.00  0.00    +0.000 A 
ATOM     18  O5  UNL     1      29.042  -7.883 -43.234  0.00  0.00    +0.000 OA
ATOM     19  C17 UNL     1      27.153  -7.658 -44.527  0.00  0.00    +0.000 A 
ATOM     20  C18 UNL     1      27.847  -7.047 -45.591  0.00  0.00    +0.000 C 
ATOM     21  C19 UNL     1      27.157  -6.642 -46.740  0.00  0.00    +0.000 C 
ATOM     22 CL2  UNL     1      28.027  -5.883 -48.061  0.00  0.00    +0.000 Cl
ATOM     23  C20 UNL     1      25.777  -6.840 -46.835  0.00  0.00    +0.000 C 
ATOM     24  C21 UNL     1      25.081  -7.442 -45.784  0.00  0.00    +0.000 C 
ATOM     25  C22 UNL     1      25.762  -7.850 -44.631  0.00  0.00    +0.000 A 
ATOM     26  O6  UNL     1      25.087  -8.409 -43.637  0.00  0.00    +0.000 OA
ATOM     27  C23 UNL     1      25.654  -8.828 -42.512  0.00  0.00    +0.000 A 
BRANCH  27  28
ATOM     28  O7  UNL     1      24.809  -9.368 -41.539  0.00  0.00    +0.000 OA
ATOM     29  H13 UNL     1      25.100 -10.029 -40.833  0.00  0.00    +0.000 HD
ENDBRANCH  27  28
ENDBRANCH   1  16
BRANCH   1  32
ATOM     30  C2  UNL     1      31.254 -10.571 -41.795  0.00  0.00    +0.000 C 
ATOM     31  C3  UNL     1      29.852 -10.443 -41.790  0.00  0.00    +0.000 C 
ATOM     32  C4  UNL     1      29.223  -9.395 -41.083  0.00  0.00    +0.000 C 
ATOM     33  C24 UNL     1      30.024  -8.490 -40.366  0.00  0.00    +0.000 C 
ATOM     34  C25 UNL     1      31.413  -8.613 -40.368  0.00  0.00    +0.000 C 
ATOM     35  C26 UNL     1      32.032  -9.644 -41.079  0.00  0.00    +0.000 C 
BRANCH  30  37
ATOM     36  C1  UNL     1      31.260 -12.499 -43.393  0.00  0.00    +0.000 C 
ATOM     37  O1  UNL     1      31.904 -11.601 -42.495  0.00  0.00    +0.000 OA
ENDBRANCH  30  37
BRANCH  35  38
ATOM     38  O8  UNL     1      33.424  -9.733 -41.059  0.00  0.00    +0.000 OA
ATOM     39  H16 UNL     1      33.907 -10.555 -40.717  0.00  0.00    +0.000 HD
ENDBRANCH  35  38
ENDBRANCH   1  32
TORSDOF 7
