REMARK  Name = resultss/4CJN/ligands/lig_239_t0.pdb
REMARK  6 active torsions:
REMARK  status: ('A' for Active; 'I' for Inactive)
REMARK    1  A    between atoms: C7_1  and  N1_9
REMARK    2  A    between atoms: C11_5  and  C12_19
REMARK    3  A    between atoms: C6_7  and  C5_14
REMARK    4  A    between atoms: C2_11  and  O1_18
REMARK    5  A    between atoms: C12_19  and  C13_21
REMARK    6  A    between atoms: C13_21  and  C14_22
REMARK                            x       y       z     vdW  Elec       q    Type
REMARK                         _______ _______ _______ _____ _____    ______ ____
ROOT
ATOM      1  C7  UNL     1      26.500  -9.317 -42.228  0.00  0.00    +0.000 C 
ATOM      2  C8  UNL     1      27.671  -9.435 -42.989  0.00  0.00    +0.000 C 
ATOM      3  C9  UNL     1      28.882  -9.757 -42.375  0.00  0.00    +0.000 C 
ATOM      4  C10 UNL     1      28.941  -9.956 -40.994  0.00  0.00    +0.000 C 
ATOM      5  C11 UNL     1      27.782  -9.826 -40.205  0.00  0.00    +0.000 C 
ATOM      6  C22 UNL     1      26.566  -9.494 -40.833  0.00  0.00    +0.000 C 
ENDROOT
BRANCH   1   9
ATOM      7  C6  UNL     1      24.966  -7.635 -43.346  0.00  0.00    +0.000 C 
ATOM      8  O2  UNL     1      25.567  -6.646 -42.845  0.00  0.00    +0.000 OA
ATOM      9  N1  UNL     1      25.268  -8.961 -42.879  0.00  0.00    +0.000 N 
ATOM     10  H6  UNL     1      24.507  -9.676 -42.908  0.00  0.00    +0.000 HD
BRANCH   7  14
ATOM     11  C2  UNL     1      21.922  -6.957 -46.316  0.00  0.00    +0.000 C 
ATOM     12  C3  UNL     1      23.242  -7.239 -46.708  0.00  0.00    +0.000 C 
ATOM     13  C4  UNL     1      24.233  -7.460 -45.745  0.00  0.00    +0.000 C 
ATOM     14  C5  UNL     1      23.921  -7.410 -44.374  0.00  0.00    +0.000 C 
ATOM     15  C23 UNL     1      22.601  -7.117 -43.989  0.00  0.00    +0.000 C 
ATOM     16  C24 UNL     1      21.613  -6.897 -44.954  0.00  0.00    +0.000 C 
BRANCH  11  18
ATOM     17  C1  UNL     1      19.517  -6.998 -46.999  0.00  0.00    +0.000 C 
ATOM     18  O1  UNL     1      20.893  -6.731 -47.244  0.00  0.00    +0.000 OA
ENDBRANCH  11  18
ENDBRANCH   7  14
ENDBRANCH   1   9
BRANCH   5  19
ATOM     19  C12 UNL     1      27.828 -10.013 -38.731  0.00  0.00    +0.000 C 
ATOM     20  O3  UNL     1      27.651 -11.167 -38.251  0.00  0.00    +0.000 OA
BRANCH  19  21
ATOM     21  C13 UNL     1      28.028  -8.847 -37.794  0.00  0.00    +0.000 C 
BRANCH  21  22
ATOM     22  C14 UNL     1      27.104  -8.915 -36.606  0.00  0.00    +0.000 A 
ATOM     23  N2  UNL     1      25.840  -8.422 -36.719  0.00  0.00    +0.000 NA
ATOM     24  C15 UNL     1      24.961  -8.484 -35.687  0.00  0.00    +0.000 A 
ATOM     25  C16 UNL     1      23.668  -7.966 -35.825  0.00  0.00    +0.000 C 
ATOM     26  C17 UNL     1      22.771  -8.036 -34.754  0.00  0.00    +0.000 C 
ATOM     27  C18 UNL     1      23.161  -8.624 -33.547  0.00  0.00    +0.000 C 
ATOM     28  C19 UNL     1      24.452  -9.145 -33.402  0.00  0.00    +0.000 C 
ATOM     29  C20 UNL     1      25.359  -9.078 -34.471  0.00  0.00    +0.000 A 
ATOM     30  N3  UNL     1      26.621  -9.581 -34.356  0.00  0.00    +0.000 N 
ATOM     31  C21 UNL     1      27.499  -9.517 -35.396  0.00  0.00    +0.000 A 
ATOM     32  O4  UNL     1      28.657 -10.000 -35.267  0.00  0.00    +0.000 OA
ATOM     33  H16 UNL     1      26.925 -10.028 -33.461  0.00  0.00    +0.000 HD
ENDBRANCH  21  22
ENDBRANCH  19  21
ENDBRANCH   5  19
TORSDOF 6
