REMARK  Name = resultss/4CJN/ligands/lig_443_t0.pdb
REMARK  7 active torsions:
REMARK  status: ('A' for Active; 'I' for Inactive)
REMARK    1  A    between atoms: C9_1  and  C1_22
REMARK    2  A    between atoms: C19_12  and  C20_15
REMARK    3  A    between atoms: N1_23  and  N2_25
REMARK    4  A    between atoms: N2_25  and  C2_27
REMARK    5  A    between atoms: C2_27  and  N3_29
REMARK    6  A    between atoms: N3_29  and  C3_31
REMARK    7  A    between atoms: C7_35  and  N4_37
REMARK                            x       y       z     vdW  Elec       q    Type
REMARK                         _______ _______ _______ _____ _____    ______ ____
ROOT
ATOM      1  C9  UNL     1      26.761  -9.252 -38.097  0.00  0.00    +0.000 C 
ATOM      2  C10 UNL     1      25.752  -8.495 -38.730  0.00  0.00    +0.000 C 
ATOM      3  C11 UNL     1      25.948  -8.164 -40.065  0.00  0.00    +0.000 A 
ATOM      4  C12 UNL     1      27.078  -8.543 -40.756  0.00  0.00    +0.000 A 
ATOM      5  N5  UNL     1      27.011  -8.164 -42.055  0.00  0.00    +0.000 N 
ATOM      6  C13 UNL     1      25.828  -7.521 -42.168  0.00  0.00    +0.000 A 
ATOM      7  C14 UNL     1      25.285  -6.955 -43.319  0.00  0.00    +0.000 C 
ATOM      8  C15 UNL     1      24.017  -6.352 -43.222  0.00  0.00    +0.000 C 
ATOM      9  C16 UNL     1      23.324  -6.332 -41.991  0.00  0.00    +0.000 C 
ATOM     10  C17 UNL     1      23.889  -6.917 -40.842  0.00  0.00    +0.000 C 
ATOM     11  C18 UNL     1      25.148  -7.501 -40.968  0.00  0.00    +0.000 A 
ATOM     12  C19 UNL     1      28.081  -9.280 -40.113  0.00  0.00    +0.000 C 
ATOM     13  N6  UNL     1      27.879  -9.616 -38.803  0.00  0.00    +0.000 NA
ATOM     14  H9  UNL     1      27.696  -8.353 -42.820  0.00  0.00    +0.000 HD
ENDROOT
BRANCH  12  15
ATOM     15  C20 UNL     1      29.326  -9.704 -40.786  0.00  0.00    +0.000 C 
ATOM     16  C21 UNL     1      30.555  -9.088 -40.491  0.00  0.00    +0.000 C 
ATOM     17  C22 UNL     1      31.728  -9.518 -41.120  0.00  0.00    +0.000 C 
ATOM     18  C23 UNL     1      31.686 -10.572 -42.035  0.00  0.00    +0.000 C 
ATOM     19  C24 UNL     1      30.473 -11.206 -42.316  0.00  0.00    +0.000 C 
ATOM     20  C25 UNL     1      29.298 -10.779 -41.690  0.00  0.00    +0.000 C 
ENDBRANCH  12  15
BRANCH   1  22
ATOM     21  O1  UNL     1      27.564 -10.290 -36.120  0.00  0.00    +0.000 OA
ATOM     22  C1  UNL     1      26.625  -9.663 -36.684  0.00  0.00    +0.000 C 
ATOM     23  N1  UNL     1      25.431  -9.358 -35.946  0.00  0.00    +0.000 N 
ATOM     24  H1  UNL     1      24.654  -8.852 -36.425  0.00  0.00    +0.000 HD
BRANCH  23  25
ATOM     25  N2  UNL     1      25.312  -9.686 -34.582  0.00  0.00    +0.000 N 
ATOM     26  H2  UNL     1      25.426 -10.678 -34.279  0.00  0.00    +0.000 HD
BRANCH  25  27
ATOM     27  C2  UNL     1      25.094  -8.689 -33.571  0.00  0.00    +0.000 C 
ATOM     28  S1  UNL     1      23.576  -8.363 -33.044  0.00  0.00    +0.000 S 
BRANCH  27  29
ATOM     29  N3  UNL     1      26.206  -8.123 -32.863  0.00  0.00    +0.000 N 
ATOM     30  H3  UNL     1      26.038  -7.751 -31.899  0.00  0.00    +0.000 HD
BRANCH  29  31
ATOM     31  C3  UNL     1      27.538  -8.039 -33.398  0.00  0.00    +0.000 C 
ATOM     32  C4  UNL     1      27.841  -7.039 -34.332  0.00  0.00    +0.000 C 
ATOM     33  C5  UNL     1      29.119  -6.955 -34.886  0.00  0.00    +0.000 C 
ATOM     34  C6  UNL     1      30.106  -7.874 -34.522  0.00  0.00    +0.000 C 
ATOM     35  C7  UNL     1      29.819  -8.899 -33.602  0.00  0.00    +0.000 C 
ATOM     36  C8  UNL     1      28.528  -8.977 -33.050  0.00  0.00    +0.000 C 
BRANCH  35  37
ATOM     37  N4  UNL     1      30.827  -9.859 -33.236  0.00  0.00    +0.000 N 
ATOM     38  O2  UNL     1      30.756 -10.477 -32.154  0.00  0.00    +0.000 OA
ATOM     39  O3  UNL     1      31.888 -10.114 -34.075  0.00  0.00    +0.000 OA
ENDBRANCH  35  37
ENDBRANCH  29  31
ENDBRANCH  27  29
ENDBRANCH  25  27
ENDBRANCH  23  25
ENDBRANCH   1  22
TORSDOF 7
