REMARK  Name = resultss/4CJN/ligands/lig_165_t0.pdb
REMARK  6 active torsions:
REMARK  status: ('A' for Active; 'I' for Inactive)
REMARK    1  A    between atoms: C1_2  and  C9_5
REMARK    2  A    between atoms: N1_3  and  N2_20
REMARK    3  A    between atoms: C12_8  and  C13_11
REMARK    4  A    between atoms: C2_21  and  C3_22
REMARK    5  A    between atoms: C7_26  and  O2_28
REMARK    6  A    between atoms: C8_27  and  O3_30
REMARK                            x       y       z     vdW  Elec       q    Type
REMARK                         _______ _______ _______ _____ _____    ______ ____
ROOT
ATOM      1  O1  UNL     1      27.291  -9.857 -39.132  0.00  0.00    +0.000 OA
ATOM      2  C1  UNL     1      26.258  -9.136 -39.084  0.00  0.00    +0.000 C 
ATOM      3  N1  UNL     1      25.742  -8.738 -37.807  0.00  0.00    +0.000 N 
ATOM      4  H1  UNL     1      24.804  -8.283 -37.738  0.00  0.00    +0.000 HD
ENDROOT
BRANCH   2   5
ATOM      5  C9  UNL     1      25.590  -8.732 -40.345  0.00  0.00    +0.000 C 
ATOM      6  C10 UNL     1      25.989  -9.266 -41.583  0.00  0.00    +0.000 C 
ATOM      7  C11 UNL     1      25.346  -8.880 -42.764  0.00  0.00    +0.000 C 
ATOM      8  C12 UNL     1      24.287  -7.957 -42.733  0.00  0.00    +0.000 C 
ATOM      9  C20 UNL     1      23.880  -7.433 -41.493  0.00  0.00    +0.000 C 
ATOM     10  C21 UNL     1      24.522  -7.820 -40.314  0.00  0.00    +0.000 C 
BRANCH   8  11
ATOM     11  C13 UNL     1      23.613  -7.556 -43.990  0.00  0.00    +0.000 A 
ATOM     12  N3  UNL     1      24.223  -7.593 -45.203  0.00  0.00    +0.000 NA
ATOM     13  C14 UNL     1      23.390  -7.174 -46.190  0.00  0.00    +0.000 A 
ATOM     14  C15 UNL     1      23.738  -7.105 -47.540  0.00  0.00    +0.000 C 
ATOM     15  C16 UNL     1      22.778  -6.652 -48.463  0.00  0.00    +0.000 C 
ATOM     16  C17 UNL     1      21.491  -6.276 -48.028  0.00  0.00    +0.000 C 
ATOM     17  C18 UNL     1      21.153  -6.350 -46.667  0.00  0.00    +0.000 C 
ATOM     18  C19 UNL     1      22.121  -6.802 -45.775  0.00  0.00    +0.000 A 
ATOM     19  S1  UNL     1      22.013  -6.996 -44.113  0.00  0.00    +0.000 S 
ENDBRANCH   8  11
ENDBRANCH   2   5
BRANCH   3  20
ATOM     20  N2  UNL     1      26.469  -9.021 -36.640  0.00  0.00    +0.000 NA
ATOM     21  C2  UNL     1      26.989  -8.082 -35.914  0.00  0.00    +0.000 C 
BRANCH  21  22
ATOM     22  C3  UNL     1      27.693  -8.389 -34.651  0.00  0.00    +0.000 C 
ATOM     23  C4  UNL     1      28.783  -9.273 -34.713  0.00  0.00    +0.000 C 
ATOM     24  C5  UNL     1      29.544  -9.547 -33.575  0.00  0.00    +0.000 C 
ATOM     25  C6  UNL     1      29.222  -8.948 -32.358  0.00  0.00    +0.000 C 
ATOM     26  C7  UNL     1      28.120  -8.089 -32.266  0.00  0.00    +0.000 C 
ATOM     27  C8  UNL     1      27.336  -7.821 -33.399  0.00  0.00    +0.000 C 
BRANCH  26  28
ATOM     28  O2  UNL     1      27.785  -7.508 -31.044  0.00  0.00    +0.000 OA
ATOM     29  H6  UNL     1      27.567  -8.071 -30.230  0.00  0.00    +0.000 HD
ENDBRANCH  26  28
BRANCH  27  30
ATOM     30  O3  UNL     1      26.201  -7.022 -33.233  0.00  0.00    +0.000 OA
ATOM     31  H7  UNL     1      25.431  -7.264 -32.626  0.00  0.00    +0.000 HD
ENDBRANCH  27  30
ENDBRANCH  21  22
ENDBRANCH   3  20
TORSDOF 6
