REMARK  Name = resultss/4CJN/ligands/lig_352_t1.pdb
REMARK  10 active torsions:
REMARK  status: ('A' for Active; 'I' for Inactive)
REMARK    1  A    between atoms: C11_1  and  O2_27
REMARK    2  A    between atoms: C14_4  and  C15_7
REMARK    3  A    between atoms: N4_17  and  N5_19
REMARK    4  A    between atoms: N5_19  and  C23_21
REMARK    5  A    between atoms: O2_27  and  C10_28
REMARK    6  A    between atoms: C10_28  and  C9_31
REMARK    7  A    between atoms: N2_29  and  C7_34
REMARK    8  A    between atoms: C7_34  and  C6_36
REMARK    9  A    between atoms: N1_35  and  C5_41
REMARK   10  A    between atoms: C6_36  and  O1_45
REMARK                            x       y       z     vdW  Elec       q    Type
REMARK                         _______ _______ _______ _____ _____    ______ ____
ROOT
ATOM      1  C11 UNL     1      25.730  -7.536 -39.838  0.00  0.00    +0.000 C 
ATOM      2  C12 UNL     1      26.702  -6.631 -39.402  0.00  0.00    +0.000 C 
ATOM      3  C13 UNL     1      27.151  -6.654 -38.079  0.00  0.00    +0.000 C 
ATOM      4  C14 UNL     1      26.627  -7.582 -37.163  0.00  0.00    +0.000 C 
ATOM      5  C29 UNL     1      25.678  -8.516 -37.611  0.00  0.00    +0.000 C 
ATOM      6  C30 UNL     1      25.227  -8.491 -38.935  0.00  0.00    +0.000 C 
ENDROOT
BRANCH   4   7
ATOM      7  C15 UNL     1      27.103  -7.600 -35.727  0.00  0.00    +0.000 C 
ATOM      8  N3  UNL     1      26.245  -6.733 -34.916  0.00  0.00    +0.000 N 
ATOM      9  C16 UNL     1      25.144  -7.225 -34.143  0.00  0.00    +0.000 C 
ATOM     10  C17 UNL     1      24.193  -6.333 -33.622  0.00  0.00    +0.000 C 
ATOM     11  C18 UNL     1      23.115  -6.814 -32.873  0.00  0.00    +0.000 C 
ATOM     12  C19 UNL     1      22.986  -8.184 -32.637  0.00  0.00    +0.000 C 
ATOM     13  C20 UNL     1      23.934  -9.078 -33.145  0.00  0.00    +0.000 C 
ATOM     14  C21 UNL     1      25.020  -8.599 -33.897  0.00  0.00    +0.000 C 
ATOM     15  C22 UNL     1      26.053  -9.508 -34.425  0.00  0.00    +0.000 C 
ATOM     16  O3  UNL     1      26.000 -10.742 -34.166  0.00  0.00    +0.000 OA
ATOM     17  N4  UNL     1      27.136  -8.986 -35.216  0.00  0.00    +0.000 N 
ATOM     18  H15 UNL     1      26.358  -5.699 -35.039  0.00  0.00    +0.000 HD
BRANCH  17  19
ATOM     19  N5  UNL     1      28.147  -9.867 -35.657  0.00  0.00    +0.000 N 
ATOM     20  H20 UNL     1      27.880 -10.832 -35.958  0.00  0.00    +0.000 HD
BRANCH  19  21
ATOM     21  C23 UNL     1      29.498  -9.704 -35.220  0.00  0.00    +0.000 C 
ATOM     22  C24 UNL     1      30.541  -9.558 -36.148  0.00  0.00    +0.000 C 
ATOM     23  C25 UNL     1      31.857  -9.390 -35.702  0.00  0.00    +0.000 C 
ATOM     24  C26 UNL     1      32.138  -9.388 -34.332  0.00  0.00    +0.000 C 
ATOM     25  C27 UNL     1      31.102  -9.556 -33.405  0.00  0.00    +0.000 C 
ATOM     26  C28 UNL     1      29.784  -9.715 -33.847  0.00  0.00    +0.000 C 
ENDBRANCH  19  21
ENDBRANCH  17  19
ENDBRANCH   4   7
BRANCH   1  27
ATOM     27  O2  UNL     1      25.284  -7.444 -41.165  0.00  0.00    +0.000 OA
BRANCH  27  28
ATOM     28  C10 UNL     1      26.129  -7.233 -42.291  0.00  0.00    +0.000 C 
BRANCH  28  31
ATOM     29  N2  UNL     1      28.996  -9.408 -42.735  0.00  0.00    +0.000 N 
ATOM     30  C8  UNL     1      28.435  -8.197 -42.885  0.00  0.00    +0.000 C 
ATOM     31  C9  UNL     1      27.189  -8.284 -42.299  0.00  0.00    +0.000 C 
ATOM     32  N6  UNL     1      27.020  -9.537 -41.835  0.00  0.00    +0.000 NA
ATOM     33  N7  UNL     1      28.134 -10.200 -42.116  0.00  0.00    +0.000 NA
BRANCH  29  34
ATOM     34  C7  UNL     1      30.267  -9.855 -43.292  0.00  0.00    +0.000 C 
BRANCH  34  36
ATOM     35  N1  UNL     1      32.357 -10.746 -42.318  0.00  0.00    +0.000 NA
ATOM     36  C6  UNL     1      31.263 -10.049 -42.178  0.00  0.00    +0.000 C 
BRANCH  35  41
ATOM     37  C1  UNL     1      34.240 -13.244 -47.135  0.00  0.00    +0.000 C 
ATOM     38  C2  UNL     1      33.707 -12.573 -45.902  0.00  0.00    +0.000 C 
ATOM     39  C3  UNL     1      34.164 -11.298 -45.534  0.00  0.00    +0.000 C 
ATOM     40  C4  UNL     1      33.703 -10.698 -44.359  0.00  0.00    +0.000 C 
ATOM     41  C5  UNL     1      32.792 -11.369 -43.533  0.00  0.00    +0.000 C 
ATOM     42  C31 UNL     1      32.314 -12.646 -43.901  0.00  0.00    +0.000 C 
ATOM     43  C32 UNL     1      31.349 -13.397 -43.024  0.00  0.00    +0.000 C 
ATOM     44  C33 UNL     1      32.797 -13.250 -45.073  0.00  0.00    +0.000 C 
ENDBRANCH  35  41
BRANCH  36  45
ATOM     45  O1  UNL     1      30.977  -9.486 -40.938  0.00  0.00    +0.000 OA
ATOM     46  H6  UNL     1      31.114  -8.498 -40.766  0.00  0.00    +0.000 HD
ENDBRANCH  36  45
ENDBRANCH  34  36
ENDBRANCH  29  34
ENDBRANCH  28  31
ENDBRANCH  27  28
ENDBRANCH   1  27
TORSDOF 10
