REMARK  Name = resultss/4CJN/ligands/lig_163_t0.pdb
REMARK  5 active torsions:
REMARK  status: ('A' for Active; 'I' for Inactive)
REMARK    1  A    between atoms: C9_1  and  C1_17
REMARK    2  A    between atoms: C12_4  and  C13_7
REMARK    3  A    between atoms: N1_18  and  N2_20
REMARK    4  A    between atoms: C2_21  and  C3_22
REMARK    5  A    between atoms: C6_25  and  O2_28
REMARK                            x       y       z     vdW  Elec       q    Type
REMARK                         _______ _______ _______ _____ _____    ______ ____
ROOT
ATOM      1  C9  UNL     1      26.706  -9.495 -40.711  0.00  0.00    +0.000 C 
ATOM      2  C10 UNL     1      27.223  -9.372 -42.012  0.00  0.00    +0.000 C 
ATOM      3  C11 UNL     1      26.431  -8.875 -43.050  0.00  0.00    +0.000 C 
ATOM      4  C12 UNL     1      25.102  -8.484 -42.809  0.00  0.00    +0.000 C 
ATOM      5  C20 UNL     1      24.587  -8.597 -41.506  0.00  0.00    +0.000 C 
ATOM      6  C21 UNL     1      25.381  -9.095 -40.469  0.00  0.00    +0.000 C 
ENDROOT
BRANCH   4   7
ATOM      7  C13 UNL     1      24.269  -7.958 -43.916  0.00  0.00    +0.000 A 
ATOM      8  N3  UNL     1      24.688  -7.925 -45.208  0.00  0.00    +0.000 NA
ATOM      9  C14 UNL     1      23.738  -7.397 -46.024  0.00  0.00    +0.000 A 
ATOM     10  C15 UNL     1      23.884  -7.236 -47.402  0.00  0.00    +0.000 C 
ATOM     11  C16 UNL     1      22.820  -6.675 -48.132  0.00  0.00    +0.000 C 
ATOM     12  C17 UNL     1      21.634  -6.286 -47.480  0.00  0.00    +0.000 C 
ATOM     13  C18 UNL     1      21.499  -6.453 -46.092  0.00  0.00    +0.000 C 
ATOM     14  C19 UNL     1      22.567  -7.010 -45.394  0.00  0.00    +0.000 A 
ATOM     15  S1  UNL     1      22.699  -7.330 -43.753  0.00  0.00    +0.000 S 
ENDBRANCH   4   7
BRANCH   1  17
ATOM     16  O1  UNL     1      28.711 -10.456 -39.879  0.00  0.00    +0.000 OA
ATOM     17  C1  UNL     1      27.558 -10.019 -39.614  0.00  0.00    +0.000 C 
ATOM     18  N1  UNL     1      27.068 -10.078 -38.264  0.00  0.00    +0.000 N 
ATOM     19  H1  UNL     1      26.041 -10.194 -38.113  0.00  0.00    +0.000 HD
BRANCH  18  20
ATOM     20  N2  UNL     1      27.908 -10.214 -37.142  0.00  0.00    +0.000 NA
ATOM     21  C2  UNL     1      28.437  -9.208 -36.515  0.00  0.00    +0.000 C 
BRANCH  21  22
ATOM     22  C3  UNL     1      29.325  -9.418 -35.353  0.00  0.00    +0.000 C 
ATOM     23  C4  UNL     1      28.808  -9.583 -34.054  0.00  0.00    +0.000 C 
ATOM     24  C5  UNL     1      29.670  -9.781 -32.971  0.00  0.00    +0.000 C 
ATOM     25  C6  UNL     1      31.054  -9.817 -33.170  0.00  0.00    +0.000 C 
ATOM     26  C7  UNL     1      31.574  -9.653 -34.460  0.00  0.00    +0.000 C 
ATOM     27  C8  UNL     1      30.715  -9.455 -35.544  0.00  0.00    +0.000 C 
BRANCH  25  28
ATOM     28  O2  UNL     1      31.900 -10.015 -32.082  0.00  0.00    +0.000 OA
ATOM     29  H5  UNL     1      31.958 -10.912 -31.612  0.00  0.00    +0.000 HD
ENDBRANCH  25  28
ENDBRANCH  21  22
ENDBRANCH  18  20
ENDBRANCH   1  17
TORSDOF 5
