REMARK  Name = resultss/4CJN/ligands/lig_411_t0.pdb
REMARK  6 active torsions:
REMARK  status: ('A' for Active; 'I' for Inactive)
REMARK    1  A    between atoms: C9_1  and  C1_22
REMARK    2  A    between atoms: C19_12  and  C20_15
REMARK    3  A    between atoms: N1_23  and  N2_25
REMARK    4  A    between atoms: N2_25  and  C2_27
REMARK    5  A    between atoms: C2_27  and  N3_29
REMARK    6  A    between atoms: N3_29  and  C3_31
REMARK                            x       y       z     vdW  Elec       q    Type
REMARK                         _______ _______ _______ _____ _____    ______ ____
ROOT
ATOM      1  C9  UNL     1      30.577  -9.686 -36.901  0.00  0.00    +0.000 C 
ATOM      2  C10 UNL     1      29.178  -9.496 -36.907  0.00  0.00    +0.000 C 
ATOM      3  C11 UNL     1      28.557  -9.309 -35.677  0.00  0.00    +0.000 A 
ATOM      4  C12 UNL     1      29.261  -9.310 -34.492  0.00  0.00    +0.000 A 
ATOM      5  N4  UNL     1      28.453  -9.042 -33.439  0.00  0.00    +0.000 N 
ATOM      6  C13 UNL     1      27.223  -8.890 -33.977  0.00  0.00    +0.000 A 
ATOM      7  C14 UNL     1      26.041  -8.589 -33.302  0.00  0.00    +0.000 C 
ATOM      8  C15 UNL     1      24.865  -8.454 -34.063  0.00  0.00    +0.000 C 
ATOM      9  C16 UNL     1      24.894  -8.615 -35.467  0.00  0.00    +0.000 C 
ATOM     10  C17 UNL     1      26.100  -8.913 -36.126  0.00  0.00    +0.000 C 
ATOM     11  C18 UNL     1      27.247  -9.047 -35.347  0.00  0.00    +0.000 A 
ATOM     12  C19 UNL     1      30.647  -9.515 -34.499  0.00  0.00    +0.000 C 
ATOM     13  N5  UNL     1      31.258  -9.685 -35.711  0.00  0.00    +0.000 NA
ATOM     14  H9  UNL     1      28.713  -8.935 -32.434  0.00  0.00    +0.000 HD
ENDROOT
BRANCH  12  15
ATOM     15  C20 UNL     1      31.462  -9.546 -33.266  0.00  0.00    +0.000 C 
ATOM     16  C21 UNL     1      31.576 -10.721 -32.503  0.00  0.00    +0.000 C 
ATOM     17  C22 UNL     1      32.371 -10.742 -31.353  0.00  0.00    +0.000 C 
ATOM     18  C23 UNL     1      33.069  -9.595 -30.963  0.00  0.00    +0.000 C 
ATOM     19  C24 UNL     1      32.978  -8.429 -31.728  0.00  0.00    +0.000 C 
ATOM     20  C25 UNL     1      32.184  -8.405 -32.878  0.00  0.00    +0.000 C 
ENDBRANCH  12  15
BRANCH   1  22
ATOM     21  O1  UNL     1      32.582  -9.883 -38.155  0.00  0.00    +0.000 OA
ATOM     22  C1  UNL     1      31.320  -9.870 -38.165  0.00  0.00    +0.000 C 
ATOM     23  N1  UNL     1      30.617 -10.022 -39.407  0.00  0.00    +0.000 N 
ATOM     24  H1  UNL     1      29.622  -9.711 -39.464  0.00  0.00    +0.000 HD
BRANCH  23  25
ATOM     25  N2  UNL     1      31.286 -10.318 -40.609  0.00  0.00    +0.000 N 
ATOM     26  H2  UNL     1      32.313 -10.135 -40.663  0.00  0.00    +0.000 HD
BRANCH  25  27
ATOM     27  C2  UNL     1      30.601 -10.744 -41.796  0.00  0.00    +0.000 C 
ATOM     28  S1  UNL     1      29.377  -9.810 -42.366  0.00  0.00    +0.000 S 
BRANCH  27  29
ATOM     29  N3  UNL     1      31.014 -11.940 -42.486  0.00  0.00    +0.000 N 
ATOM     30  H3  UNL     1      30.740 -12.867 -42.092  0.00  0.00    +0.000 HD
BRANCH  29  31
ATOM     31  C3  UNL     1      31.822 -11.962 -43.673  0.00  0.00    +0.000 C 
ATOM     32  C4  UNL     1      32.532 -10.811 -44.045  0.00  0.00    +0.000 C 
ATOM     33  C5  UNL     1      33.352 -10.822 -45.177  0.00  0.00    +0.000 C 
ATOM     34  C6  UNL     1      33.483 -11.988 -45.936  0.00  0.00    +0.000 C 
ATOM     35  C7  UNL     1      32.802 -13.150 -45.557  0.00  0.00    +0.000 C 
ATOM     36 CL1  UNL     1      32.986 -14.621 -46.495  0.00  0.00    +0.000 Cl
ATOM     37  C8  UNL     1      31.981 -13.140 -44.424  0.00  0.00    +0.000 C 
ENDBRANCH  29  31
ENDBRANCH  27  29
ENDBRANCH  25  27
ENDBRANCH  23  25
ENDBRANCH   1  22
TORSDOF 6
