REMARK  Name = resultss/4CJN/ligands/lig_435_t0.pdb
REMARK  6 active torsions:
REMARK  status: ('A' for Active; 'I' for Inactive)
REMARK    1  A    between atoms: C10_1  and  C9_22
REMARK    2  A    between atoms: C20_12  and  C21_15
REMARK    3  A    between atoms: N3_21  and  N2_25
REMARK    4  A    between atoms: N2_25  and  C8_27
REMARK    5  A    between atoms: C8_27  and  N1_29
REMARK    6  A    between atoms: N1_29  and  C7_37
REMARK                            x       y       z     vdW  Elec       q    Type
REMARK                         _______ _______ _______ _____ _____    ______ ____
ROOT
ATOM      1  C10 UNL     1      26.875  -9.483 -38.233  0.00  0.00    +0.000 C 
ATOM      2  C11 UNL     1      25.784  -8.942 -38.946  0.00  0.00    +0.000 C 
ATOM      3  C12 UNL     1      25.938  -8.782 -40.318  0.00  0.00    +0.000 A 
ATOM      4  C13 UNL     1      27.104  -9.121 -40.969  0.00  0.00    +0.000 A 
ATOM      5  N4  UNL     1      26.994  -8.935 -42.306  0.00  0.00    +0.000 N 
ATOM      6  C14 UNL     1      25.744  -8.456 -42.486  0.00  0.00    +0.000 A 
ATOM      7  C15 UNL     1      25.137  -8.119 -43.695  0.00  0.00    +0.000 C 
ATOM      8  C16 UNL     1      23.806  -7.660 -43.661  0.00  0.00    +0.000 C 
ATOM      9  C17 UNL     1      23.116  -7.551 -42.432  0.00  0.00    +0.000 C 
ATOM     10  C18 UNL     1      23.746  -7.902 -41.225  0.00  0.00    +0.000 C 
ATOM     11  C19 UNL     1      25.066  -8.347 -41.289  0.00  0.00    +0.000 A 
ATOM     12  C20 UNL     1      28.187  -9.642 -40.248  0.00  0.00    +0.000 C 
ATOM     13  N5  UNL     1      28.027  -9.812 -38.901  0.00  0.00    +0.000 NA
ATOM     14  H13 UNL     1      27.695  -9.149 -43.049  0.00  0.00    +0.000 HD
ENDROOT
BRANCH  12  15
ATOM     15  C21 UNL     1      29.475 -10.004 -40.877  0.00  0.00    +0.000 C 
ATOM     16  C22 UNL     1      29.542 -10.997 -41.871  0.00  0.00    +0.000 C 
ATOM     17  C23 UNL     1      30.763 -11.303 -42.481  0.00  0.00    +0.000 C 
ATOM     18  C24 UNL     1      31.921 -10.614 -42.115  0.00  0.00    +0.000 C 
ATOM     19  C25 UNL     1      31.861  -9.613 -41.142  0.00  0.00    +0.000 C 
ATOM     20  C26 UNL     1      30.642  -9.302 -40.531  0.00  0.00    +0.000 C 
ENDBRANCH  12  15
BRANCH   1  22
ATOM     21  N3  UNL     1      25.606  -9.338 -36.054  0.00  0.00    +0.000 N 
ATOM     22  C9  UNL     1      26.800  -9.686 -36.773  0.00  0.00    +0.000 C 
ATOM     23  O1  UNL     1      27.792 -10.152 -36.150  0.00  0.00    +0.000 OA
ATOM     24  H11 UNL     1      24.956  -8.633 -36.469  0.00  0.00    +0.000 HD
BRANCH  21  25
ATOM     25  N2  UNL     1      25.384  -9.746 -34.726  0.00  0.00    +0.000 N 
ATOM     26  H10 UNL     1      25.599 -10.735 -34.469  0.00  0.00    +0.000 HD
BRANCH  25  27
ATOM     27  C8  UNL     1      25.028  -8.825 -33.687  0.00  0.00    +0.000 C 
ATOM     28  S1  UNL     1      23.483  -8.819 -33.133  0.00  0.00    +0.000 S 
BRANCH  27  29
ATOM     29  N1  UNL     1      26.055  -8.114 -32.975  0.00  0.00    +0.000 N 
ATOM     30  H9  UNL     1      25.780  -7.618 -32.099  0.00  0.00    +0.000 HD
BRANCH  29  37
ATOM     31  C1  UNL     1      30.733  -9.799 -32.779  0.00  0.00    +0.000 C 
ATOM     32  C2  UNL     1      29.729  -8.813 -33.299  0.00  0.00    +0.000 C 
ATOM     33  C3  UNL     1      30.112  -7.819 -34.209  0.00  0.00    +0.000 C 
ATOM     34  C4  UNL     1      29.169  -6.919 -34.707  0.00  0.00    +0.000 C 
ATOM     35  C5  UNL     1      27.822  -7.008 -34.319  0.00  0.00    +0.000 C 
ATOM     36  C6  UNL     1      26.826  -6.023 -34.870  0.00  0.00    +0.000 C 
ATOM     37  C7  UNL     1      27.423  -8.022 -33.416  0.00  0.00    +0.000 C 
ATOM     38  C27 UNL     1      28.386  -8.914 -32.911  0.00  0.00    +0.000 C 
ENDBRANCH  29  37
ENDBRANCH  27  29
ENDBRANCH  25  27
ENDBRANCH  21  25
ENDBRANCH   1  22
TORSDOF 6
