REMARK  Name = resultss/4CJN/ligands/lig_414_t0.pdb
REMARK  6 active torsions:
REMARK  status: ('A' for Active; 'I' for Inactive)
REMARK    1  A    between atoms: C9_1  and  C1_22
REMARK    2  A    between atoms: C19_12  and  C20_15
REMARK    3  A    between atoms: N1_23  and  N2_25
REMARK    4  A    between atoms: N2_25  and  C2_27
REMARK    5  A    between atoms: C2_27  and  N3_29
REMARK    6  A    between atoms: N3_29  and  C3_31
REMARK                            x       y       z     vdW  Elec       q    Type
REMARK                         _______ _______ _______ _____ _____    ______ ____
ROOT
ATOM      1  C9  UNL     1      25.317  -8.321 -38.549  0.00  0.00    +0.000 C 
ATOM      2  C10 UNL     1      26.699  -8.607 -38.591  0.00  0.00    +0.000 C 
ATOM      3  C11 UNL     1      27.364  -8.718 -37.376  0.00  0.00    +0.000 A 
ATOM      4  C12 UNL     1      26.718  -8.552 -36.170  0.00  0.00    +0.000 A 
ATOM      5  N4  UNL     1      27.555  -8.773 -35.129  0.00  0.00    +0.000 N 
ATOM      6  C13 UNL     1      28.746  -9.062 -35.698  0.00  0.00    +0.000 A 
ATOM      7  C14 UNL     1      29.936  -9.378 -35.046  0.00  0.00    +0.000 C 
ATOM      8  C15 UNL     1      31.064  -9.669 -35.836  0.00  0.00    +0.000 C 
ATOM      9  C16 UNL     1      30.979  -9.642 -37.247  0.00  0.00    +0.000 C 
ATOM     10  C17 UNL     1      29.766  -9.326 -37.883  0.00  0.00    +0.000 C 
ATOM     11  C18 UNL     1      28.668  -9.037 -37.075  0.00  0.00    +0.000 A 
ATOM     12  C19 UNL     1      25.349  -8.254 -36.140  0.00  0.00    +0.000 C 
ATOM     13  N5  UNL     1      24.695  -8.159 -37.337  0.00  0.00    +0.000 NA
ATOM     14  H9  UNL     1      27.337  -8.763 -34.108  0.00  0.00    +0.000 HD
ENDROOT
BRANCH  12  15
ATOM     15  C20 UNL     1      24.598  -8.048 -34.884  0.00  0.00    +0.000 C 
ATOM     16  C21 UNL     1      24.037  -6.796 -34.573  0.00  0.00    +0.000 C 
ATOM     17  C22 UNL     1      23.307  -6.625 -33.393  0.00  0.00    +0.000 C 
ATOM     18  C23 UNL     1      23.118  -7.701 -32.522  0.00  0.00    +0.000 C 
ATOM     19  C24 UNL     1      23.653  -8.954 -32.835  0.00  0.00    +0.000 C 
ATOM     20  C25 UNL     1      24.384  -9.130 -34.014  0.00  0.00    +0.000 C 
ENDBRANCH  12  15
BRANCH   1  22
ATOM     21  O1  UNL     1      24.084  -7.083 -40.154  0.00  0.00    +0.000 OA
ATOM     22  C1  UNL     1      24.528  -8.207 -39.793  0.00  0.00    +0.000 C 
ATOM     23  N1  UNL     1      24.253  -9.371 -40.589  0.00  0.00    +0.000 N 
ATOM     24  H1  UNL     1      24.345 -10.314 -40.152  0.00  0.00    +0.000 HD
BRANCH  23  25
ATOM     25  N2  UNL     1      23.610  -9.282 -41.837  0.00  0.00    +0.000 N 
ATOM     26  H2  UNL     1      22.687  -9.758 -41.954  0.00  0.00    +0.000 HD
BRANCH  25  27
ATOM     27  C2  UNL     1      24.219  -8.672 -42.984  0.00  0.00    +0.000 C 
ATOM     28  S1  UNL     1      23.398  -7.480 -43.760  0.00  0.00    +0.000 S 
BRANCH  27  29
ATOM     29  N3  UNL     1      25.538  -9.071 -43.409  0.00  0.00    +0.000 N 
ATOM     30  H3  UNL     1      25.626  -9.730 -44.215  0.00  0.00    +0.000 HD
BRANCH  29  31
ATOM     31  C3  UNL     1      26.760  -8.656 -42.781  0.00  0.00    +0.000 C 
ATOM     32  C4  UNL     1      26.888  -7.335 -42.328  0.00  0.00    +0.000 C 
ATOM     33  C5  UNL     1      28.057  -6.919 -41.682  0.00  0.00    +0.000 C 
ATOM     34  C6  UNL     1      29.099  -7.826 -41.470  0.00  0.00    +0.000 C 
ATOM     35  C7  UNL     1      28.969  -9.153 -41.893  0.00  0.00    +0.000 C 
ATOM     36 BR1  UNL     1      30.383 -10.397 -41.578  0.00  0.00    +0.000 Br
ATOM     37  C8  UNL     1      27.801  -9.571 -42.539  0.00  0.00    +0.000 C 
ENDBRANCH  29  31
ENDBRANCH  27  29
ENDBRANCH  25  27
ENDBRANCH  23  25
ENDBRANCH   1  22
TORSDOF 6
