REMARK  Name = resultss/4CJN/ligands/lig_347_t2.pdb
REMARK  11 active torsions:
REMARK  status: ('A' for Active; 'I' for Inactive)
REMARK    1  A    between atoms: C6_1  and  O2_27
REMARK    2  A    between atoms: C9_4  and  C10_7
REMARK    3  A    between atoms: C17_15  and  O3_17
REMARK    4  A    between atoms: N3_16  and  N4_19
REMARK    5  A    between atoms: N4_19  and  C18_21
REMARK    6  A    between atoms: O2_27  and  C5_28
REMARK    7  A    between atoms: C5_28  and  C4_31
REMARK    8  A    between atoms: N1_29  and  C2_34
REMARK    9  A    between atoms: C2_34  and  C1_36
REMARK   10  A    between atoms: N7_37  and  C26_39
REMARK   11  A    between atoms: C29_42  and  N8_45
REMARK                            x       y       z     vdW  Elec       q    Type
REMARK                         _______ _______ _______ _____ _____    ______ ____
ROOT
ATOM      1  C6  UNL     1      31.807  -9.429 -38.531  0.00  0.00    +0.000 C 
ATOM      2  C7  UNL     1      32.901  -8.563 -38.340  0.00  0.00    +0.000 C 
ATOM      3  C8  UNL     1      33.289  -8.188 -37.050  0.00  0.00    +0.000 C 
ATOM      4  C9  UNL     1      32.589  -8.662 -35.927  0.00  0.00    +0.000 C 
ATOM      5  C24 UNL     1      31.514  -9.554 -36.123  0.00  0.00    +0.000 C 
ATOM      6  C25 UNL     1      31.121  -9.919 -37.413  0.00  0.00    +0.000 C 
ENDROOT
BRANCH   4   7
ATOM      7  C10 UNL     1      33.057  -8.267 -34.545  0.00  0.00    +0.000 C 
ATOM      8  N2  UNL     1      33.805  -9.372 -33.956  0.00  0.00    +0.000 NA
ATOM      9  C11 UNL     1      33.389 -10.108 -32.969  0.00  0.00    +0.000 C 
ATOM     10  C12 UNL     1      34.194 -11.180 -32.559  0.00  0.00    +0.000 C 
ATOM     11  C13 UNL     1      33.783 -12.023 -31.528  0.00  0.00    +0.000 C 
ATOM     12  C14 UNL     1      32.568 -11.794 -30.888  0.00  0.00    +0.000 C 
ATOM     13  C15 UNL     1      31.759 -10.723 -31.274  0.00  0.00    +0.000 C 
ATOM     14  C16 UNL     1      32.150  -9.857 -32.326  0.00  0.00    +0.000 C 
ATOM     15  C17 UNL     1      31.403  -8.788 -32.707  0.00  0.00    +0.000 C 
ATOM     16  N3  UNL     1      31.930  -7.860 -33.692  0.00  0.00    +0.000 N 
BRANCH  15  17
ATOM     17  O3  UNL     1      30.120  -8.563 -32.190  0.00  0.00    +0.000 OA
ATOM     18  H13 UNL     1      29.838  -7.753 -31.657  0.00  0.00    +0.000 HD
ENDBRANCH  15  17
BRANCH  16  19
ATOM     19  N4  UNL     1      31.328  -6.611 -33.974  0.00  0.00    +0.000 N 
ATOM     20  H14 UNL     1      31.742  -5.742 -33.557  0.00  0.00    +0.000 HD
BRANCH  19  21
ATOM     21  C18 UNL     1      30.259  -6.422 -34.907  0.00  0.00    +0.000 C 
ATOM     22  C19 UNL     1      30.535  -6.027 -36.222  0.00  0.00    +0.000 C 
ATOM     23  C20 UNL     1      29.489  -5.883 -37.141  0.00  0.00    +0.000 C 
ATOM     24  C21 UNL     1      28.170  -6.131 -36.745  0.00  0.00    +0.000 C 
ATOM     25  C22 UNL     1      27.894  -6.533 -35.433  0.00  0.00    +0.000 C 
ATOM     26  C23 UNL     1      28.938  -6.689 -34.516  0.00  0.00    +0.000 C 
ENDBRANCH  19  21
ENDBRANCH  16  19
ENDBRANCH   4   7
BRANCH   1  27
ATOM     27  O2  UNL     1      31.371  -9.820 -39.807  0.00  0.00    +0.000 OA
BRANCH  27  28
ATOM     28  C5  UNL     1      30.826  -8.931 -40.778  0.00  0.00    +0.000 C 
BRANCH  28  31
ATOM     29  N1  UNL     1      27.205  -8.736 -40.804  0.00  0.00    +0.000 N 
ATOM     30  C3  UNL     1      28.390  -8.143 -40.584  0.00  0.00    +0.000 C 
ATOM     31  C4  UNL     1      29.344  -9.105 -40.838  0.00  0.00    +0.000 C 
ATOM     32  N5  UNL     1      28.722 -10.238 -41.224  0.00  0.00    +0.000 NA
ATOM     33  N6  UNL     1      27.421  -9.983 -41.195  0.00  0.00    +0.000 NA
BRANCH  29  34
ATOM     34  C2  UNL     1      25.888  -8.115 -40.712  0.00  0.00    +0.000 C 
BRANCH  34  36
ATOM     35  O1  UNL     1      25.591  -6.524 -38.965  0.00  0.00    +0.000 OA
ATOM     36  C1  UNL     1      25.590  -7.742 -39.291  0.00  0.00    +0.000 C 
ATOM     37  N7  UNL     1      25.375  -8.765 -38.304  0.00  0.00    +0.000 N 
ATOM     38  H22 UNL     1      25.648  -9.744 -38.547  0.00  0.00    +0.000 HD
BRANCH  37  39
ATOM     39  C26 UNL     1      24.912  -8.515 -36.965  0.00  0.00    +0.000 C 
ATOM     40  C27 UNL     1      25.628  -9.040 -35.880  0.00  0.00    +0.000 C 
ATOM     41  C28 UNL     1      25.182  -8.837 -34.570  0.00  0.00    +0.000 C 
ATOM     42  C29 UNL     1      24.001  -8.116 -34.322  0.00  0.00    +0.000 C 
ATOM     43  C30 UNL     1      23.274  -7.608 -35.410  0.00  0.00    +0.000 C 
ATOM     44  C31 UNL     1      23.721  -7.811 -36.720  0.00  0.00    +0.000 C 
BRANCH  42  45
ATOM     45  N8  UNL     1      23.530  -7.919 -32.977  0.00  0.00    +0.000 N 
ATOM     46  O4  UNL     1      23.398  -6.769 -32.511  0.00  0.00    +0.000 OA
ATOM     47  O5  UNL     1      23.217  -8.997 -32.180  0.00  0.00    +0.000 OA
ENDBRANCH  42  45
ENDBRANCH  37  39
ENDBRANCH  34  36
ENDBRANCH  29  34
ENDBRANCH  28  31
ENDBRANCH  27  28
ENDBRANCH   1  27
TORSDOF 11
