REMARK  Name = resultss/4CJN/ligands/lig_353_t2.pdb
REMARK  10 active torsions:
REMARK  status: ('A' for Active; 'I' for Inactive)
REMARK    1  A    between atoms: C11_1  and  O2_27
REMARK    2  A    between atoms: C14_4  and  C15_7
REMARK    3  A    between atoms: C22_15  and  O3_17
REMARK    4  A    between atoms: N4_16  and  N5_19
REMARK    5  A    between atoms: N5_19  and  C23_21
REMARK    6  A    between atoms: O2_27  and  C10_28
REMARK    7  A    between atoms: C10_28  and  C9_31
REMARK    8  A    between atoms: N2_29  and  C7_34
REMARK    9  A    between atoms: C7_34  and  C6_36
REMARK   10  A    between atoms: N1_35  and  C5_43
REMARK                            x       y       z     vdW  Elec       q    Type
REMARK                         _______ _______ _______ _____ _____    ______ ____
ROOT
ATOM      1  C11 UNL     1      24.794  -8.094 -43.265  0.00  0.00    +0.000 C 
ATOM      2  C12 UNL     1      24.289  -9.047 -42.362  0.00  0.00    +0.000 C 
ATOM      3  C13 UNL     1      25.142  -9.673 -41.448  0.00  0.00    +0.000 C 
ATOM      4  C14 UNL     1      26.508  -9.342 -41.403  0.00  0.00    +0.000 C 
ATOM      5  C29 UNL     1      27.006  -8.386 -42.305  0.00  0.00    +0.000 C 
ATOM      6  C30 UNL     1      26.153  -7.767 -43.223  0.00  0.00    +0.000 C 
ENDROOT
BRANCH   4   7
ATOM      7  C15 UNL     1      27.454 -10.059 -40.468  0.00  0.00    +0.000 C 
ATOM      8  N3  UNL     1      28.295 -11.002 -41.212  0.00  0.00    +0.000 NA
ATOM      9  C16 UNL     1      29.555 -10.810 -41.476  0.00  0.00    +0.000 C 
ATOM     10  C17 UNL     1      30.231 -11.753 -42.262  0.00  0.00    +0.000 C 
ATOM     11  C18 UNL     1      31.568 -11.554 -42.611  0.00  0.00    +0.000 C 
ATOM     12  C19 UNL     1      32.242 -10.412 -42.178  0.00  0.00    +0.000 C 
ATOM     13  C20 UNL     1      31.587  -9.470 -41.381  0.00  0.00    +0.000 C 
ATOM     14  C21 UNL     1      30.242  -9.665 -41.003  0.00  0.00    +0.000 C 
ATOM     15  C22 UNL     1      29.617  -8.802 -40.180  0.00  0.00    +0.000 C 
ATOM     16  N4  UNL     1      28.275  -9.084 -39.743  0.00  0.00    +0.000 N 
BRANCH  15  17
ATOM     17  O3  UNL     1      30.271  -7.650 -39.738  0.00  0.00    +0.000 OA
ATOM     18  H19 UNL     1      30.718  -7.006 -40.378  0.00  0.00    +0.000 HD
ENDBRANCH  15  17
BRANCH  16  19
ATOM     19  N5  UNL     1      27.700  -8.371 -38.675  0.00  0.00    +0.000 N 
ATOM     20  H20 UNL     1      27.151  -7.508 -38.888  0.00  0.00    +0.000 HD
BRANCH  19  21
ATOM     21  C23 UNL     1      27.681  -8.885 -37.334  0.00  0.00    +0.000 C 
ATOM     22  C24 UNL     1      26.452  -9.107 -36.694  0.00  0.00    +0.000 C 
ATOM     23  C25 UNL     1      26.414  -9.640 -35.401  0.00  0.00    +0.000 C 
ATOM     24  C26 UNL     1      27.602  -9.964 -34.743  0.00  0.00    +0.000 C 
ATOM     25  C27 UNL     1      28.830  -9.746 -35.371  0.00  0.00    +0.000 C 
ATOM     26  C28 UNL     1      28.874  -9.211 -36.663  0.00  0.00    +0.000 C 
ENDBRANCH  19  21
ENDBRANCH  16  19
ENDBRANCH   4   7
BRANCH   1  27
ATOM     27  O2  UNL     1      23.987  -7.463 -44.224  0.00  0.00    +0.000 OA
BRANCH  27  28
ATOM     28  C10 UNL     1      24.299  -7.380 -45.612  0.00  0.00    +0.000 C 
BRANCH  28  31
ATOM     29  N2  UNL     1      21.031  -6.878 -47.099  0.00  0.00    +0.000 N 
ATOM     30  C8  UNL     1      21.870  -6.689 -46.066  0.00  0.00    +0.000 C 
ATOM     31  C9  UNL     1      23.033  -7.344 -46.400  0.00  0.00    +0.000 C 
ATOM     32  N6  UNL     1      22.878  -7.901 -47.619  0.00  0.00    +0.000 NA
ATOM     33  N7  UNL     1      21.647  -7.610 -48.014  0.00  0.00    +0.000 NA
BRANCH  29  34
ATOM     34  C7  UNL     1      19.651  -6.422 -47.202  0.00  0.00    +0.000 C 
BRANCH  34  36
ATOM     35  N1  UNL     1      18.474  -6.019 -44.982  0.00  0.00    +0.000 N 
ATOM     36  C6  UNL     1      18.856  -6.922 -46.033  0.00  0.00    +0.000 C 
ATOM     37  O1  UNL     1      18.568  -8.147 -45.963  0.00  0.00    +0.000 OA
ATOM     38  H6  UNL     1      19.000  -5.120 -44.898  0.00  0.00    +0.000 HD
BRANCH  35  43
ATOM     39  C1  UNL     1      14.536  -7.081 -40.921  0.00  0.00    +0.000 C 
ATOM     40  C2  UNL     1      15.549  -6.808 -41.993  0.00  0.00    +0.000 C 
ATOM     41  C3  UNL     1      15.196  -6.868 -43.350  0.00  0.00    +0.000 C 
ATOM     42  C4  UNL     1      16.151  -6.615 -44.340  0.00  0.00    +0.000 C 
ATOM     43  C5  UNL     1      17.478  -6.311 -43.987  0.00  0.00    +0.000 C 
ATOM     44  C31 UNL     1      17.821  -6.231 -42.628  0.00  0.00    +0.000 C 
ATOM     45  C32 UNL     1      16.867  -6.484 -41.639  0.00  0.00    +0.000 C 
ENDBRANCH  35  43
ENDBRANCH  34  36
ENDBRANCH  29  34
ENDBRANCH  28  31
ENDBRANCH  27  28
ENDBRANCH   1  27
TORSDOF 10
