REMARK  Name = resultss/4CJN/ligands/lig_239_t0.pdb
REMARK  6 active torsions:
REMARK  status: ('A' for Active; 'I' for Inactive)
REMARK    1  A    between atoms: C7_1  and  N1_9
REMARK    2  A    between atoms: C11_5  and  C12_19
REMARK    3  A    between atoms: C6_7  and  C5_14
REMARK    4  A    between atoms: C2_11  and  O1_18
REMARK    5  A    between atoms: C12_19  and  C13_21
REMARK    6  A    between atoms: C13_21  and  C14_22
REMARK                            x       y       z     vdW  Elec       q    Type
REMARK                         _______ _______ _______ _____ _____    ______ ____
ROOT
ATOM      1  C7  UNL     1      28.219  -8.856 -41.212  0.00  0.00    +0.000 C 
ATOM      2  C8  UNL     1      28.020  -8.875 -39.826  0.00  0.00    +0.000 C 
ATOM      3  C9  UNL     1      26.845  -8.364 -39.274  0.00  0.00    +0.000 C 
ATOM      4  C10 UNL     1      25.859  -7.820 -40.099  0.00  0.00    +0.000 C 
ATOM      5  C11 UNL     1      26.041  -7.774 -41.494  0.00  0.00    +0.000 C 
ATOM      6  C22 UNL     1      27.234  -8.286 -42.040  0.00  0.00    +0.000 C 
ENDROOT
BRANCH   1   9
ATOM      7  C6  UNL     1      29.740 -10.769 -41.891  0.00  0.00    +0.000 C 
ATOM      8  O2  UNL     1      29.132 -11.604 -41.168  0.00  0.00    +0.000 OA
ATOM      9  N1  UNL     1      29.448  -9.368 -41.757  0.00  0.00    +0.000 N 
ATOM     10  H6  UNL     1      30.215  -8.686 -41.957  0.00  0.00    +0.000 HD
BRANCH   7  14
ATOM     11  C2  UNL     1      32.749 -12.165 -44.638  0.00  0.00    +0.000 C 
ATOM     12  C3  UNL     1      32.492 -10.789 -44.509  0.00  0.00    +0.000 C 
ATOM     13  C4  UNL     1      31.516 -10.333 -43.618  0.00  0.00    +0.000 C 
ATOM     14  C5  UNL     1      30.783 -11.242 -42.834  0.00  0.00    +0.000 C 
ATOM     15  C23 UNL     1      31.037 -12.618 -42.975  0.00  0.00    +0.000 C 
ATOM     16  C24 UNL     1      32.014 -13.070 -43.866  0.00  0.00    +0.000 C 
BRANCH  11  18
ATOM     17  C1  UNL     1      33.573 -13.868 -46.273  0.00  0.00    +0.000 C 
ATOM     18  O1  UNL     1      33.720 -12.671 -45.516  0.00  0.00    +0.000 OA
ENDBRANCH  11  18
ENDBRANCH   7  14
ENDBRANCH   1   9
BRANCH   5  19
ATOM     19  C12 UNL     1      25.012  -7.180 -42.387  0.00  0.00    +0.000 C 
ATOM     20  O3  UNL     1      24.679  -5.972 -42.225  0.00  0.00    +0.000 OA
BRANCH  19  21
ATOM     21  C13 UNL     1      24.318  -8.000 -43.446  0.00  0.00    +0.000 C 
BRANCH  21  22
ATOM     22  C14 UNL     1      24.567  -7.460 -44.831  0.00  0.00    +0.000 A 
ATOM     23  N2  UNL     1      25.849  -7.287 -45.255  0.00  0.00    +0.000 NA
ATOM     24  C15 UNL     1      26.128  -6.830 -46.502  0.00  0.00    +0.000 A 
ATOM     25  C16 UNL     1      27.454  -6.655 -46.914  0.00  0.00    +0.000 C 
ATOM     26  C17 UNL     1      27.727  -6.184 -48.202  0.00  0.00    +0.000 C 
ATOM     27  C18 UNL     1      26.679  -5.887 -49.080  0.00  0.00    +0.000 C 
ATOM     28  C19 UNL     1      25.351  -6.061 -48.675  0.00  0.00    +0.000 C 
ATOM     29  C20 UNL     1      25.067  -6.533 -47.384  0.00  0.00    +0.000 A 
ATOM     30  N3  UNL     1      23.782  -6.713 -46.967  0.00  0.00    +0.000 N 
ATOM     31  C21 UNL     1      23.509  -7.173 -45.714  0.00  0.00    +0.000 A 
ATOM     32  O4  UNL     1      22.311  -7.341 -45.357  0.00  0.00    +0.000 OA
ATOM     33  H16 UNL     1      22.989  -6.501 -47.614  0.00  0.00    +0.000 HD
ENDBRANCH  21  22
ENDBRANCH  19  21
ENDBRANCH   5  19
TORSDOF 6
