REMARK  Name = resultss/4CJN/ligands/lig_355_t1.pdb
REMARK  10 active torsions:
REMARK  status: ('A' for Active; 'I' for Inactive)
REMARK    1  A    between atoms: N3_1  and  C10_6
REMARK    2  A    between atoms: C12_3  and  C13_24
REMARK    3  A    between atoms: C10_6  and  C9_8
REMARK    4  A    between atoms: N2_7  and  C8_12
REMARK    5  A    between atoms: C9_8  and  O2_22
REMARK    6  A    between atoms: C6_9  and  C5_17
REMARK    7  A    between atoms: C2_14  and  O1_21
REMARK    8  A    between atoms: C13_24  and  O3_25
REMARK    9  A    between atoms: O3_25  and  C14_26
REMARK   10  A    between atoms: C17_29  and  C18_32
REMARK                            x       y       z     vdW  Elec       q    Type
REMARK                         _______ _______ _______ _____ _____    ______ ____
ROOT
ATOM      1  N3  UNL     1      33.209  -9.874 -40.795  0.00  0.00    +0.000 N 
ATOM      2  C11 UNL     1      31.884  -9.810 -41.012  0.00  0.00    +0.000 C 
ATOM      3  C12 UNL     1      31.676 -10.382 -42.247  0.00  0.00    +0.000 C 
ATOM      4  N6  UNL     1      32.865 -10.787 -42.737  0.00  0.00    +0.000 NA
ATOM      5  N7  UNL     1      33.778 -10.469 -41.830  0.00  0.00    +0.000 NA
ENDROOT
BRANCH   1   6
ATOM      6  C10 UNL     1      33.920  -9.434 -39.599  0.00  0.00    +0.000 C 
BRANCH   6   8
ATOM      7  N2  UNL     1      32.345  -8.636 -37.955  0.00  0.00    +0.000 NA
ATOM      8  C9  UNL     1      33.064  -9.632 -38.388  0.00  0.00    +0.000 C 
BRANCH   7  12
ATOM      9  C6  UNL     1      29.390  -8.610 -35.459  0.00  0.00    +0.000 C 
ATOM     10  N1  UNL     1      30.455  -8.005 -34.879  0.00  0.00    +0.000 NA
ATOM     11  C7  UNL     1      31.556  -8.015 -35.677  0.00  0.00    +0.000 C 
ATOM     12  C8  UNL     1      31.383  -8.659 -36.893  0.00  0.00    +0.000 C 
ATOM     13  S1  UNL     1      29.781  -9.169 -37.004  0.00  0.00    +0.000 S 
BRANCH   9  17
ATOM     14  C2  UNL     1      25.537  -8.925 -33.565  0.00  0.00    +0.000 C 
ATOM     15  C3  UNL     1      26.024  -9.972 -34.356  0.00  0.00    +0.000 C 
ATOM     16  C4  UNL     1      27.274  -9.875 -34.975  0.00  0.00    +0.000 C 
ATOM     17  C5  UNL     1      28.065  -8.724 -34.807  0.00  0.00    +0.000 C 
ATOM     18  C27 UNL     1      27.577  -7.676 -34.007  0.00  0.00    +0.000 C 
ATOM     19  C28 UNL     1      26.325  -7.772 -33.393  0.00  0.00    +0.000 C 
BRANCH  14  21
ATOM     20  C1  UNL     1      23.076  -8.488 -33.485  0.00  0.00    +0.000 C 
ATOM     21  O1  UNL     1      24.273  -9.068 -32.974  0.00  0.00    +0.000 OA
ENDBRANCH  14  21
ENDBRANCH   9  17
ENDBRANCH   7  12
BRANCH   8  22
ATOM     22  O2  UNL     1      33.099 -10.870 -37.740  0.00  0.00    +0.000 OA
ATOM     23  H7  UNL     1      32.341 -11.539 -37.781  0.00  0.00    +0.000 HD
ENDBRANCH   8  22
ENDBRANCH   6   8
ENDBRANCH   1   6
BRANCH   3  24
ATOM     24  C13 UNL     1      30.368 -10.536 -42.958  0.00  0.00    +0.000 C 
BRANCH  24  25
ATOM     25  O3  UNL     1      29.285 -10.243 -42.075  0.00  0.00    +0.000 OA
BRANCH  25  26
ATOM     26  C14 UNL     1      28.065  -9.656 -42.454  0.00  0.00    +0.000 C 
ATOM     27  C15 UNL     1      27.972  -8.681 -43.463  0.00  0.00    +0.000 C 
ATOM     28  C16 UNL     1      26.731  -8.143 -43.814  0.00  0.00    +0.000 C 
ATOM     29  C17 UNL     1      25.557  -8.568 -43.167  0.00  0.00    +0.000 C 
ATOM     30  C25 UNL     1      25.659  -9.531 -42.148  0.00  0.00    +0.000 C 
ATOM     31  C26 UNL     1      26.901 -10.066 -41.796  0.00  0.00    +0.000 C 
BRANCH  29  32
ATOM     32  C18 UNL     1      24.227  -8.021 -43.538  0.00  0.00    +0.000 A 
ATOM     33  N4  UNL     1      23.213  -7.888 -42.638  0.00  0.00    +0.000 NA
ATOM     34  C19 UNL     1      22.211  -7.384 -43.380  0.00  0.00    +0.000 A 
ATOM     35  C20 UNL     1      20.924  -7.052 -42.964  0.00  0.00    +0.000 C 
ATOM     36  C21 UNL     1      20.034  -6.546 -43.932  0.00  0.00    +0.000 C 
ATOM     37  C22 UNL     1      20.453  -6.385 -45.273  0.00  0.00    +0.000 C 
ATOM     38  C23 UNL     1      21.763  -6.727 -45.657  0.00  0.00    +0.000 C 
ATOM     39  C24 UNL     1      22.612  -7.225 -44.671  0.00  0.00    +0.000 A 
ATOM     40  N5  UNL     1      23.885  -7.622 -44.793  0.00  0.00    +0.000 N 
ATOM     41  H19 UNL     1      24.454  -7.630 -45.667  0.00  0.00    +0.000 HD
ENDBRANCH  29  32
ENDBRANCH  25  26
ENDBRANCH  24  25
ENDBRANCH   3  24
TORSDOF 10
