REMARK  Name = resultss/4CJN/ligands/lig_344_t0.pdb
REMARK  10 active torsions:
REMARK  status: ('A' for Active; 'I' for Inactive)
REMARK    1  A    between atoms: C2_1  and  O1_28
REMARK    2  A    between atoms: C4_3  and  C5_7
REMARK    3  A    between atoms: C21_6  and  O3_29
REMARK    4  A    between atoms: N2_17  and  N3_19
REMARK    5  A    between atoms: N3_19  and  C13_21
REMARK    6  A    between atoms: O3_29  and  C22_30
REMARK    7  A    between atoms: C22_30  and  C23_31
REMARK    8  A    between atoms: N4_33  and  C25_36
REMARK    9  A    between atoms: C25_36  and  C26_37
REMARK   10  A    between atoms: N5_39  and  C27_41
REMARK                            x       y       z     vdW  Elec       q    Type
REMARK                         _______ _______ _______ _____ _____    ______ ____
ROOT
ATOM      1  C2  UNL     1      32.656  -7.458 -37.277  0.00  0.00    +0.000 C 
ATOM      2  C3  UNL     1      32.566  -7.642 -38.670  0.00  0.00    +0.000 C 
ATOM      3  C4  UNL     1      32.295  -8.908 -39.209  0.00  0.00    +0.000 C 
ATOM      4  C19 UNL     1      32.128  -9.999 -38.346  0.00  0.00    +0.000 C 
ATOM      5  C20 UNL     1      32.220  -9.825 -36.964  0.00  0.00    +0.000 C 
ATOM      6  C21 UNL     1      32.473  -8.552 -36.420  0.00  0.00    +0.000 C 
ENDROOT
BRANCH   3   7
ATOM      7  C5  UNL     1      32.222  -9.097 -40.708  0.00  0.00    +0.000 C 
ATOM      8  N1  UNL     1      33.107 -10.202 -41.092  0.00  0.00    +0.000 N 
ATOM      9  C6  UNL     1      32.801 -11.135 -42.135  0.00  0.00    +0.000 C 
ATOM     10  C7  UNL     1      33.790 -12.010 -42.611  0.00  0.00    +0.000 C 
ATOM     11  C8  UNL     1      33.492 -12.925 -43.624  0.00  0.00    +0.000 C 
ATOM     12  C9  UNL     1      32.204 -12.979 -44.161  0.00  0.00    +0.000 C 
ATOM     13  C10 UNL     1      31.211 -12.119 -43.684  0.00  0.00    +0.000 C 
ATOM     14  C11 UNL     1      31.506 -11.195 -42.666  0.00  0.00    +0.000 C 
ATOM     15  C12 UNL     1      30.479 -10.295 -42.125  0.00  0.00    +0.000 C 
ATOM     16  O2  UNL     1      29.291 -10.367 -42.545  0.00  0.00    +0.000 OA
ATOM     17  N2  UNL     1      30.821  -9.326 -41.121  0.00  0.00    +0.000 N 
ATOM     18  H6  UNL     1      34.078 -10.200 -40.701  0.00  0.00    +0.000 HD
BRANCH  17  19
ATOM     19  N3  UNL     1      29.783  -8.556 -40.557  0.00  0.00    +0.000 N 
ATOM     20  H11 UNL     1      29.467  -7.694 -41.062  0.00  0.00    +0.000 HD
BRANCH  19  21
ATOM     21  C13 UNL     1      29.114  -8.930 -39.345  0.00  0.00    +0.000 C 
ATOM     22  C14 UNL     1      28.978  -7.994 -38.309  0.00  0.00    +0.000 C 
ATOM     23  C15 UNL     1      28.345  -8.353 -37.113  0.00  0.00    +0.000 C 
ATOM     24  C16 UNL     1      27.856  -9.652 -36.941  0.00  0.00    +0.000 C 
ATOM     25  C17 UNL     1      28.003 -10.595 -37.964  0.00  0.00    +0.000 C 
ATOM     26  C18 UNL     1      28.634 -10.238 -39.160  0.00  0.00    +0.000 C 
ENDBRANCH  19  21
ENDBRANCH  17  19
ENDBRANCH   3   7
BRANCH   1  28
ATOM     27  C1  UNL     1      34.081  -5.889 -35.945  0.00  0.00    +0.000 C 
ATOM     28  O1  UNL     1      32.919  -6.202 -36.709  0.00  0.00    +0.000 OA
ENDBRANCH   1  28
BRANCH   6  29
ATOM     29  O3  UNL     1      32.549  -8.330 -35.033  0.00  0.00    +0.000 OA
BRANCH  29  30
ATOM     30  C22 UNL     1      32.264  -9.301 -34.026  0.00  0.00    +0.000 C 
BRANCH  30  31
ATOM     31  C23 UNL     1      30.846  -9.177 -33.566  0.00  0.00    +0.000 C 
ATOM     32  C24 UNL     1      30.329  -8.196 -32.750  0.00  0.00    +0.000 C 
ATOM     33  N4  UNL     1      29.027  -8.491 -32.600  0.00  0.00    +0.000 N 
ATOM     34  N6  UNL     1      28.767  -9.605 -33.265  0.00  0.00    +0.000 NA
ATOM     35  N7  UNL     1      29.861 -10.046 -33.870  0.00  0.00    +0.000 NA
BRANCH  33  36
ATOM     36  C25 UNL     1      28.065  -7.787 -31.759  0.00  0.00    +0.000 C 
BRANCH  36  37
ATOM     37  C26 UNL     1      26.887  -7.366 -32.582  0.00  0.00    +0.000 C 
ATOM     38  O4  UNL     1      26.827  -6.187 -33.023  0.00  0.00    +0.000 OA
ATOM     39  N5  UNL     1      25.830  -8.300 -32.847  0.00  0.00    +0.000 N 
ATOM     40  H24 UNL     1      25.747  -9.130 -32.214  0.00  0.00    +0.000 HD
BRANCH  39  41
ATOM     41  C27 UNL     1      24.817  -8.108 -33.849  0.00  0.00    +0.000 C 
ATOM     42  C28 UNL     1      25.150  -7.830 -35.188  0.00  0.00    +0.000 C 
ATOM     43  C29 UNL     1      24.143  -7.669 -36.146  0.00  0.00    +0.000 C 
ATOM     44  C30 UNL     1      22.801  -7.796 -35.780  0.00  0.00    +0.000 C 
ATOM     45  C31 UNL     1      22.462  -8.095 -34.458  0.00  0.00    +0.000 C 
ATOM     46  C32 UNL     1      23.466  -8.258 -33.497  0.00  0.00    +0.000 C 
ENDBRANCH  39  41
ENDBRANCH  36  37
ENDBRANCH  33  36
ENDBRANCH  30  31
ENDBRANCH  29  30
ENDBRANCH   6  29
TORSDOF 10
