REMARK  Name = resultss/4CJN/ligands/lig_163_t0.pdb
REMARK  5 active torsions:
REMARK  status: ('A' for Active; 'I' for Inactive)
REMARK    1  A    between atoms: C9_1  and  C1_17
REMARK    2  A    between atoms: C12_4  and  C13_7
REMARK    3  A    between atoms: N1_18  and  N2_20
REMARK    4  A    between atoms: C2_21  and  C3_22
REMARK    5  A    between atoms: C6_25  and  O2_28
REMARK                            x       y       z     vdW  Elec       q    Type
REMARK                         _______ _______ _______ _____ _____    ______ ____
ROOT
ATOM      1  C9  UNL     1      30.255  -9.842 -40.434  0.00  0.00    +0.000 C 
ATOM      2  C10 UNL     1      29.559 -10.765 -41.235  0.00  0.00    +0.000 C 
ATOM      3  C11 UNL     1      30.182 -11.373 -42.328  0.00  0.00    +0.000 C 
ATOM      4  C12 UNL     1      31.519 -11.077 -42.643  0.00  0.00    +0.000 C 
ATOM      5  C20 UNL     1      32.219 -10.162 -41.838  0.00  0.00    +0.000 C 
ATOM      6  C21 UNL     1      31.595  -9.553 -40.744  0.00  0.00    +0.000 C 
ENDROOT
BRANCH   4   7
ATOM      7  C13 UNL     1      32.172 -11.726 -43.804  0.00  0.00    +0.000 A 
ATOM      8  N3  UNL     1      31.793 -12.939 -44.284  0.00  0.00    +0.000 NA
ATOM      9  C14 UNL     1      32.548 -13.308 -45.351  0.00  0.00    +0.000 A 
ATOM     10  C15 UNL     1      32.392 -14.504 -46.053  0.00  0.00    +0.000 C 
ATOM     11  C16 UNL     1      33.242 -14.764 -47.142  0.00  0.00    +0.000 C 
ATOM     12  C17 UNL     1      34.231 -13.833 -47.514  0.00  0.00    +0.000 C 
ATOM     13  C18 UNL     1      34.380 -12.632 -46.800  0.00  0.00    +0.000 C 
ATOM     14  C19 UNL     1      33.525 -12.400 -45.726  0.00  0.00    +0.000 A 
ATOM     15  S1  UNL     1      33.461 -11.077 -44.699  0.00  0.00    +0.000 S 
ENDBRANCH   4   7
BRANCH   1  17
ATOM     16  O1  UNL     1      28.327  -9.205 -39.206  0.00  0.00    +0.000 OA
ATOM     17  C1  UNL     1      29.586  -9.207 -39.272  0.00  0.00    +0.000 C 
ATOM     18  N1  UNL     1      30.354  -8.553 -38.247  0.00  0.00    +0.000 N 
ATOM     19  H1  UNL     1      31.272  -8.131 -38.507  0.00  0.00    +0.000 HD
BRANCH  18  20
ATOM     20  N2  UNL     1      29.841  -8.255 -36.970  0.00  0.00    +0.000 NA
ATOM     21  C2  UNL     1      29.745  -9.127 -36.012  0.00  0.00    +0.000 C 
BRANCH  21  22
ATOM     22  C3  UNL     1      29.181  -8.754 -34.698  0.00  0.00    +0.000 C 
ATOM     23  C4  UNL     1      27.994  -8.006 -34.594  0.00  0.00    +0.000 C 
ATOM     24  C5  UNL     1      27.481  -7.667 -33.337  0.00  0.00    +0.000 C 
ATOM     25  C6  UNL     1      28.145  -8.070 -32.175  0.00  0.00    +0.000 C 
ATOM     26  C7  UNL     1      29.327  -8.815 -32.272  0.00  0.00    +0.000 C 
ATOM     27  C8  UNL     1      29.842  -9.155 -33.527  0.00  0.00    +0.000 C 
BRANCH  25  28
ATOM     28  O2  UNL     1      27.623  -7.725 -30.930  0.00  0.00    +0.000 OA
ATOM     29  H5  UNL     1      27.538  -6.758 -30.641  0.00  0.00    +0.000 HD
ENDBRANCH  25  28
ENDBRANCH  21  22
ENDBRANCH  18  20
ENDBRANCH   1  17
TORSDOF 5
