REMARK  Name = resultss/4CJN/ligands/lig_163_t0.pdb
REMARK  5 active torsions:
REMARK  status: ('A' for Active; 'I' for Inactive)
REMARK    1  A    between atoms: C9_1  and  C1_17
REMARK    2  A    between atoms: C12_4  and  C13_7
REMARK    3  A    between atoms: N1_18  and  N2_20
REMARK    4  A    between atoms: C2_21  and  C3_22
REMARK    5  A    between atoms: C6_25  and  O2_28
REMARK                            x       y       z     vdW  Elec       q    Type
REMARK                         _______ _______ _______ _____ _____    ______ ____
ROOT
ATOM      1  C9  UNL     1      29.639  -9.909 -40.283  0.00  0.00    +0.000 C 
ATOM      2  C10 UNL     1      29.038 -10.785 -41.203  0.00  0.00    +0.000 C 
ATOM      3  C11 UNL     1      29.774 -11.316 -42.266  0.00  0.00    +0.000 C 
ATOM      4  C12 UNL     1      31.130 -10.988 -42.430  0.00  0.00    +0.000 C 
ATOM      5  C20 UNL     1      31.735 -10.119 -41.504  0.00  0.00    +0.000 C 
ATOM      6  C21 UNL     1      30.998  -9.588 -40.442  0.00  0.00    +0.000 C 
ENDROOT
BRANCH   4   7
ATOM      7  C13 UNL     1      31.902 -11.557 -43.560  0.00  0.00    +0.000 A 
ATOM      8  N3  UNL     1      31.624 -12.764 -44.115  0.00  0.00    +0.000 NA
ATOM      9  C14 UNL     1      32.477 -13.052 -45.132  0.00  0.00    +0.000 A 
ATOM     10  C15 UNL     1      32.435 -14.223 -45.890  0.00  0.00    +0.000 C 
ATOM     11  C16 UNL     1      33.379 -14.396 -46.917  0.00  0.00    +0.000 C 
ATOM     12  C17 UNL     1      34.346 -13.404 -47.173  0.00  0.00    +0.000 C 
ATOM     13  C18 UNL     1      34.378 -12.230 -46.403  0.00  0.00    +0.000 C 
ATOM     14  C19 UNL     1      33.433 -12.083 -45.393  0.00  0.00    +0.000 A 
ATOM     15  S1  UNL     1      33.223 -10.810 -44.323  0.00  0.00    +0.000 S 
ENDBRANCH   4   7
BRANCH   1  17
ATOM     16  O1  UNL     1      28.493  -8.146 -39.181  0.00  0.00    +0.000 OA
ATOM     17  C1  UNL     1      28.850  -9.355 -39.154  0.00  0.00    +0.000 C 
ATOM     18  N1  UNL     1      28.531 -10.166 -38.011  0.00  0.00    +0.000 N 
ATOM     19  H1  UNL     1      29.184 -10.938 -37.751  0.00  0.00    +0.000 HD
BRANCH  18  20
ATOM     20  N2  UNL     1      27.512  -9.843 -37.094  0.00  0.00    +0.000 NA
ATOM     21  C2  UNL     1      27.694  -9.083 -36.056  0.00  0.00    +0.000 C 
BRANCH  21  22
ATOM     22  C3  UNL     1      26.587  -8.794 -35.122  0.00  0.00    +0.000 C 
ATOM     23  C4  UNL     1      26.122  -7.481 -34.919  0.00  0.00    +0.000 C 
ATOM     24  C5  UNL     1      25.071  -7.234 -34.029  0.00  0.00    +0.000 C 
ATOM     25  C6  UNL     1      24.474  -8.291 -33.335  0.00  0.00    +0.000 C 
ATOM     26  C7  UNL     1      24.933  -9.599 -33.533  0.00  0.00    +0.000 C 
ATOM     27  C8  UNL     1      25.982  -9.849 -34.421  0.00  0.00    +0.000 C 
BRANCH  25  28
ATOM     28  O2  UNL     1      23.429  -8.029 -32.452  0.00  0.00    +0.000 OA
ATOM     29  H5  UNL     1      23.430  -8.395 -31.507  0.00  0.00    +0.000 HD
ENDBRANCH  25  28
ENDBRANCH  21  22
ENDBRANCH  18  20
ENDBRANCH   1  17
TORSDOF 5
