REMARK  Name = resultss/4CJN/ligands/lig_427_t0.pdb
REMARK  8 active torsions:
REMARK  status: ('A' for Active; 'I' for Inactive)
REMARK    1  A    between atoms: C11_1  and  C10_22
REMARK    2  A    between atoms: C21_12  and  C22_15
REMARK    3  A    between atoms: N3_21  and  N2_25
REMARK    4  A    between atoms: N2_25  and  C9_27
REMARK    5  A    between atoms: C9_27  and  N1_29
REMARK    6  A    between atoms: N1_29  and  C8_36
REMARK    7  A    between atoms: C3_31  and  O1_37
REMARK    8  A    between atoms: O1_37  and  C2_39
REMARK                            x       y       z     vdW  Elec       q    Type
REMARK                         _______ _______ _______ _____ _____    ______ ____
ROOT
ATOM      1  C11 UNL     1      27.274  -9.824 -41.229  0.00  0.00    +0.000 C 
ATOM      2  C12 UNL     1      28.277 -10.085 -42.188  0.00  0.00    +0.000 C 
ATOM      3  C13 UNL     1      29.583 -10.204 -41.724  0.00  0.00    +0.000 A 
ATOM      4  C14 UNL     1      29.900 -10.085 -40.389  0.00  0.00    +0.000 A 
ATOM      5  N4  UNL     1      31.237 -10.178 -40.191  0.00  0.00    +0.000 N 
ATOM      6  C15 UNL     1      31.756 -10.376 -41.422  0.00  0.00    +0.000 A 
ATOM      7  C16 UNL     1      33.101 -10.523 -41.753  0.00  0.00    +0.000 C 
ATOM      8  C17 UNL     1      33.430 -10.700 -43.111  0.00  0.00    +0.000 C 
ATOM      9  C18 UNL     1      32.419 -10.721 -44.099  0.00  0.00    +0.000 C 
ATOM     10  C19 UNL     1      31.067 -10.566 -43.740  0.00  0.00    +0.000 C 
ATOM     11  C20 UNL     1      30.772 -10.399 -42.388  0.00  0.00    +0.000 A 
ATOM     12  C21 UNL     1      28.892  -9.843 -39.446  0.00  0.00    +0.000 C 
ATOM     13  N5  UNL     1      27.612  -9.712 -39.905  0.00  0.00    +0.000 NA
ATOM     14  H14 UNL     1      31.766 -10.084 -39.296  0.00  0.00    +0.000 HD
ENDROOT
BRANCH  12  15
ATOM     15  C22 UNL     1      29.160  -9.721 -37.998  0.00  0.00    +0.000 C 
ATOM     16  C23 UNL     1      30.434  -9.367 -37.524  0.00  0.00    +0.000 C 
ATOM     17  C24 UNL     1      30.677  -9.279 -36.149  0.00  0.00    +0.000 C 
ATOM     18  C25 UNL     1      29.655  -9.558 -35.238  0.00  0.00    +0.000 C 
ATOM     19  C26 UNL     1      28.391  -9.932 -35.700  0.00  0.00    +0.000 C 
ATOM     20  C27 UNL     1      28.144 -10.021 -37.073  0.00  0.00    +0.000 C 
ENDBRANCH  12  15
BRANCH   1  22
ATOM     21  N3  UNL     1      25.505  -9.629 -43.026  0.00  0.00    +0.000 N 
ATOM     22  C10 UNL     1      25.861  -9.681 -41.634  0.00  0.00    +0.000 C 
ATOM     23  O2  UNL     1      24.959  -9.619 -40.756  0.00  0.00    +0.000 OA
ATOM     24  H12 UNL     1      26.173 -10.017 -43.730  0.00  0.00    +0.000 HD
BRANCH  21  25
ATOM     25  N2  UNL     1      24.216  -9.275 -43.460  0.00  0.00    +0.000 N 
ATOM     26  H11 UNL     1      23.635 -10.003 -43.934  0.00  0.00    +0.000 HD
BRANCH  25  27
ATOM     27  C9  UNL     1      23.730  -7.925 -43.414  0.00  0.00    +0.000 C 
ATOM     28  S1  UNL     1      22.149  -7.668 -43.055  0.00  0.00    +0.000 S 
BRANCH  27  29
ATOM     29  N1  UNL     1      24.545  -6.852 -43.916  0.00  0.00    +0.000 N 
ATOM     30  H10 UNL     1      24.646  -5.998 -43.323  0.00  0.00    +0.000 HD
BRANCH  29  36
ATOM     31  C3  UNL     1      26.740  -7.006 -45.066  0.00  0.00    +0.000 C 
ATOM     32  C4  UNL     1      27.469  -7.091 -46.269  0.00  0.00    +0.000 C 
ATOM     33  C5  UNL     1      26.803  -7.131 -47.498  0.00  0.00    +0.000 C 
ATOM     34  C6  UNL     1      25.409  -7.095 -47.539  0.00  0.00    +0.000 C 
ATOM     35  C7  UNL     1      24.677  -7.004 -46.355  0.00  0.00    +0.000 C 
ATOM     36  C8  UNL     1      25.332  -6.933 -45.116  0.00  0.00    +0.000 C 
BRANCH  31  37
ATOM     37  O1  UNL     1      27.376  -7.014 -43.815  0.00  0.00    +0.000 OA
BRANCH  37  39
ATOM     38  C1  UNL     1      29.023  -6.579 -42.121  0.00  0.00    +0.000 C 
ATOM     39  C2  UNL     1      28.371  -6.083 -43.401  0.00  0.00    +0.000 C 
ENDBRANCH  37  39
ENDBRANCH  31  37
ENDBRANCH  29  36
ENDBRANCH  27  29
ENDBRANCH  25  27
ENDBRANCH  21  25
ENDBRANCH   1  22
TORSDOF 8
