REMARK  Name = resultss/4CJN/ligands/lig_165_t0.pdb
REMARK  6 active torsions:
REMARK  status: ('A' for Active; 'I' for Inactive)
REMARK    1  A    between atoms: C1_2  and  C9_5
REMARK    2  A    between atoms: N1_3  and  N2_20
REMARK    3  A    between atoms: C12_8  and  C13_11
REMARK    4  A    between atoms: C2_21  and  C3_22
REMARK    5  A    between atoms: C7_26  and  O2_28
REMARK    6  A    between atoms: C8_27  and  O3_30
REMARK                            x       y       z     vdW  Elec       q    Type
REMARK                         _______ _______ _______ _____ _____    ______ ____
ROOT
ATOM      1  O1  UNL     1      29.511 -12.047 -41.632  0.00  0.00    +0.000 OA
ATOM      2  C1  UNL     1      29.397 -10.808 -41.429  0.00  0.00    +0.000 C 
ATOM      3  N1  UNL     1      30.117  -9.893 -42.264  0.00  0.00    +0.000 N 
ATOM      4  H1  UNL     1      30.166  -8.880 -42.014  0.00  0.00    +0.000 HD
ENDROOT
BRANCH   2   5
ATOM      5  C9  UNL     1      28.537 -10.327 -40.320  0.00  0.00    +0.000 C 
ATOM      6  C10 UNL     1      27.250  -9.819 -40.564  0.00  0.00    +0.000 C 
ATOM      7  C11 UNL     1      26.449  -9.375 -39.507  0.00  0.00    +0.000 C 
ATOM      8  C12 UNL     1      26.914  -9.434 -38.182  0.00  0.00    +0.000 C 
ATOM      9  C20 UNL     1      28.197  -9.955 -37.937  0.00  0.00    +0.000 C 
ATOM     10  C21 UNL     1      28.997 -10.399 -38.993  0.00  0.00    +0.000 C 
BRANCH   8  11
ATOM     11  C13 UNL     1      26.056  -8.961 -37.071  0.00  0.00    +0.000 A 
ATOM     12  N3  UNL     1      26.046  -9.540 -35.842  0.00  0.00    +0.000 NA
ATOM     13  C14 UNL     1      25.173  -8.918 -35.008  0.00  0.00    +0.000 A 
ATOM     14  C15 UNL     1      24.948  -9.291 -33.682  0.00  0.00    +0.000 C 
ATOM     15  C16 UNL     1      24.015  -8.560 -32.925  0.00  0.00    +0.000 C 
ATOM     16  C17 UNL     1      23.324  -7.474 -33.498  0.00  0.00    +0.000 C 
ATOM     17  C18 UNL     1      23.558  -7.109 -34.834  0.00  0.00    +0.000 C 
ATOM     18  C19 UNL     1      24.488  -7.848 -35.561  0.00  0.00    +0.000 A 
ATOM     19  S1  UNL     1      24.974  -7.653 -37.153  0.00  0.00    +0.000 S 
ENDBRANCH   8  11
ENDBRANCH   2   5
BRANCH   3  20
ATOM     20  N2  UNL     1      30.813 -10.370 -43.387  0.00  0.00    +0.000 NA
ATOM     21  C2  UNL     1      32.081 -10.631 -43.345  0.00  0.00    +0.000 C 
BRANCH  21  22
ATOM     22  C3  UNL     1      32.786 -11.198 -44.514  0.00  0.00    +0.000 C 
ATOM     23  C4  UNL     1      33.621 -10.340 -45.249  0.00  0.00    +0.000 C 
ATOM     24  C5  UNL     1      34.379 -10.824 -46.316  0.00  0.00    +0.000 C 
ATOM     25  C6  UNL     1      34.309 -12.171 -46.668  0.00  0.00    +0.000 C 
ATOM     26  C7  UNL     1      33.460 -13.038 -45.970  0.00  0.00    +0.000 C 
ATOM     27  C8  UNL     1      32.678 -12.558 -44.908  0.00  0.00    +0.000 C 
BRANCH  26  28
ATOM     28  O2  UNL     1      33.373 -14.380 -46.337  0.00  0.00    +0.000 OA
ATOM     29  H6  UNL     1      33.936 -15.092 -45.884  0.00  0.00    +0.000 HD
ENDBRANCH  26  28
BRANCH  27  30
ATOM     30  O3  UNL     1      31.787 -13.448 -44.299  0.00  0.00    +0.000 OA
ATOM     31  H7  UNL     1      32.075 -14.298 -43.837  0.00  0.00    +0.000 HD
ENDBRANCH  27  30
ENDBRANCH  21  22
ENDBRANCH   3  20
TORSDOF 6
