REMARK  Name = resultss/4CJN/ligands/lig_352_t1.pdb
REMARK  10 active torsions:
REMARK  status: ('A' for Active; 'I' for Inactive)
REMARK    1  A    between atoms: C11_1  and  O2_27
REMARK    2  A    between atoms: C14_4  and  C15_7
REMARK    3  A    between atoms: N4_17  and  N5_19
REMARK    4  A    between atoms: N5_19  and  C23_21
REMARK    5  A    between atoms: O2_27  and  C10_28
REMARK    6  A    between atoms: C10_28  and  C9_31
REMARK    7  A    between atoms: N2_29  and  C7_34
REMARK    8  A    between atoms: C7_34  and  C6_36
REMARK    9  A    between atoms: N1_35  and  C5_41
REMARK   10  A    between atoms: C6_36  and  O1_45
REMARK                            x       y       z     vdW  Elec       q    Type
REMARK                         _______ _______ _______ _____ _____    ______ ____
ROOT
ATOM      1  C11 UNL     1      25.480  -8.109 -40.307  0.00  0.00    +0.000 C 
ATOM      2  C12 UNL     1      24.940  -8.840 -39.246  0.00  0.00    +0.000 C 
ATOM      3  C13 UNL     1      25.429  -8.675 -37.948  0.00  0.00    +0.000 C 
ATOM      4  C14 UNL     1      26.479  -7.777 -37.689  0.00  0.00    +0.000 C 
ATOM      5  C29 UNL     1      26.997  -7.014 -38.750  0.00  0.00    +0.000 C 
ATOM      6  C30 UNL     1      26.507  -7.182 -40.050  0.00  0.00    +0.000 C 
ENDROOT
BRANCH   4   7
ATOM      7  C15 UNL     1      27.020  -7.607 -36.287  0.00  0.00    +0.000 C 
ATOM      8  N3  UNL     1      26.183  -6.657 -35.550  0.00  0.00    +0.000 N 
ATOM      9  C16 UNL     1      25.130  -7.065 -34.668  0.00  0.00    +0.000 C 
ATOM     10  C17 UNL     1      24.184  -6.129 -34.218  0.00  0.00    +0.000 C 
ATOM     11  C18 UNL     1      23.154  -6.529 -33.363  0.00  0.00    +0.000 C 
ATOM     12  C19 UNL     1      23.065  -7.860 -32.951  0.00  0.00    +0.000 C 
ATOM     13  C20 UNL     1      24.008  -8.796 -33.389  0.00  0.00    +0.000 C 
ATOM     14  C21 UNL     1      25.048  -8.398 -34.247  0.00  0.00    +0.000 C 
ATOM     15  C22 UNL     1      26.074  -9.350 -34.706  0.00  0.00    +0.000 C 
ATOM     16  O3  UNL     1      26.061 -10.543 -34.292  0.00  0.00    +0.000 OA
ATOM     17  N4  UNL     1      27.108  -8.916 -35.609  0.00  0.00    +0.000 N 
ATOM     18  H15 UNL     1      26.268  -5.646 -35.807  0.00  0.00    +0.000 HD
BRANCH  17  19
ATOM     19  N5  UNL     1      28.116  -9.829 -35.984  0.00  0.00    +0.000 N 
ATOM     20  H20 UNL     1      27.838 -10.784 -36.307  0.00  0.00    +0.000 HD
BRANCH  19  21
ATOM     21  C23 UNL     1      29.439  -9.714 -35.456  0.00  0.00    +0.000 C 
ATOM     22  C24 UNL     1      30.536  -9.504 -36.306  0.00  0.00    +0.000 C 
ATOM     23  C25 UNL     1      31.824  -9.384 -35.770  0.00  0.00    +0.000 C 
ATOM     24  C26 UNL     1      32.022  -9.492 -34.390  0.00  0.00    +0.000 C 
ATOM     25  C27 UNL     1      30.931  -9.723 -33.543  0.00  0.00    +0.000 C 
ATOM     26  C28 UNL     1      29.642  -9.835 -34.074  0.00  0.00    +0.000 C 
ENDBRANCH  19  21
ENDBRANCH  17  19
ENDBRANCH   4   7
BRANCH   1  27
ATOM     27  O2  UNL     1      24.979  -8.342 -41.597  0.00  0.00    +0.000 OA
BRANCH  27  28
ATOM     28  C10 UNL     1      23.598  -8.463 -41.921  0.00  0.00    +0.000 C 
BRANCH  28  31
ATOM     29  N2  UNL     1      22.384  -6.834 -44.924  0.00  0.00    +0.000 N 
ATOM     30  C8  UNL     1      22.169  -7.219 -43.655  0.00  0.00    +0.000 C 
ATOM     31  C9  UNL     1      23.351  -7.787 -43.229  0.00  0.00    +0.000 C 
ATOM     32  N6  UNL     1      24.235  -7.753 -44.245  0.00  0.00    +0.000 NA
ATOM     33  N7  UNL     1      23.619  -7.170 -45.265  0.00  0.00    +0.000 NA
BRANCH  29  34
ATOM     34  C7  UNL     1      21.398  -6.288 -45.849  0.00  0.00    +0.000 C 
BRANCH  34  36
ATOM     35  N1  UNL     1      19.835  -7.784 -47.044  0.00  0.00    +0.000 NA
ATOM     36  C6  UNL     1      21.046  -7.328 -46.881  0.00  0.00    +0.000 C 
BRANCH  35  41
ATOM     37  C1  UNL     1      15.283  -5.896 -44.092  0.00  0.00    +0.000 C 
ATOM     38  C2  UNL     1      16.449  -6.434 -44.870  0.00  0.00    +0.000 C 
ATOM     39  C3  UNL     1      17.555  -6.983 -44.202  0.00  0.00    +0.000 C 
ATOM     40  C4  UNL     1      18.659  -7.439 -44.927  0.00  0.00    +0.000 C 
ATOM     41  C5  UNL     1      18.678  -7.338 -46.324  0.00  0.00    +0.000 C 
ATOM     42  C31 UNL     1      17.565  -6.801 -47.008  0.00  0.00    +0.000 C 
ATOM     43  C32 UNL     1      17.565  -6.665 -48.506  0.00  0.00    +0.000 C 
ATOM     44  C33 UNL     1      16.467  -6.329 -46.271  0.00  0.00    +0.000 C 
ENDBRANCH  35  41
BRANCH  36  45
ATOM     45  O1  UNL     1      22.072  -7.845 -47.666  0.00  0.00    +0.000 OA
ATOM     46  H6  UNL     1      22.658  -7.241 -48.228  0.00  0.00    +0.000 HD
ENDBRANCH  36  45
ENDBRANCH  34  36
ENDBRANCH  29  34
ENDBRANCH  28  31
ENDBRANCH  27  28
ENDBRANCH   1  27
TORSDOF 10
