REMARK  Name = resultss/4CJN/ligands/lig_341_t1.pdb
REMARK  12 active torsions:
REMARK  status: ('A' for Active; 'I' for Inactive)
REMARK    1  A    between atoms: C12_1  and  O2_29
REMARK    2  A    between atoms: C15_4  and  C16_7
REMARK    3  A    between atoms: C31_6  and  O4_27
REMARK    4  A    between atoms: N4_17  and  N5_19
REMARK    5  A    between atoms: N5_19  and  C24_21
REMARK    6  A    between atoms: O2_29  and  C11_30
REMARK    7  A    between atoms: C11_30  and  C10_33
REMARK    8  A    between atoms: N2_31  and  C8_36
REMARK    9  A    between atoms: C8_36  and  C7_38
REMARK   10  A    between atoms: N1_37  and  C6_42
REMARK   11  A    between atoms: C7_38  and  O1_47
REMARK   12  A    between atoms: C3_39  and  C2_46
REMARK                            x       y       z     vdW  Elec       q    Type
REMARK                         _______ _______ _______ _____ _____    ______ ____
ROOT
ATOM      1  C12 UNL     1      26.622  -9.382 -42.615  0.00  0.00    +0.000 C 
ATOM      2  C13 UNL     1      27.241 -10.057 -41.546  0.00  0.00    +0.000 C 
ATOM      3  C14 UNL     1      28.577  -9.801 -41.231  0.00  0.00    +0.000 C 
ATOM      4  C15 UNL     1      29.317  -8.867 -41.972  0.00  0.00    +0.000 C 
ATOM      5  C30 UNL     1      28.709  -8.219 -43.057  0.00  0.00    +0.000 C 
ATOM      6  C31 UNL     1      27.356  -8.451 -43.368  0.00  0.00    +0.000 C 
ENDROOT
BRANCH   4   7
ATOM      7  C16 UNL     1      30.775  -8.616 -41.649  0.00  0.00    +0.000 C 
ATOM      8  N3  UNL     1      30.861  -7.582 -40.611  0.00  0.00    +0.000 N 
ATOM      9  C17 UNL     1      31.937  -7.522 -39.666  0.00  0.00    +0.000 C 
ATOM     10  C18 UNL     1      32.107  -6.385 -38.861  0.00  0.00    +0.000 C 
ATOM     11  C19 UNL     1      33.163  -6.322 -37.949  0.00  0.00    +0.000 C 
ATOM     12  C20 UNL     1      34.053  -7.393 -37.832  0.00  0.00    +0.000 C 
ATOM     13  C21 UNL     1      33.882  -8.532 -38.620  0.00  0.00    +0.000 C 
ATOM     14  C22 UNL     1      32.819  -8.604 -39.538  0.00  0.00    +0.000 C 
ATOM     15  C23 UNL     1      32.583  -9.806 -40.353  0.00  0.00    +0.000 C 
ATOM     16  O3  UNL     1      33.368 -10.791 -40.274  0.00  0.00    +0.000 OA
ATOM     17  N4  UNL     1      31.440  -9.863 -41.226  0.00  0.00    +0.000 N 
ATOM     18  H17 UNL     1      30.224  -6.756 -40.690  0.00  0.00    +0.000 HD
BRANCH  17  19
ATOM     19  N5  UNL     1      31.159 -11.060 -41.919  0.00  0.00    +0.000 N 
ATOM     20  H22 UNL     1      30.505 -11.750 -41.482  0.00  0.00    +0.000 HD
BRANCH  19  21
ATOM     21  C24 UNL     1      31.870 -11.448 -43.110  0.00  0.00    +0.000 C 
ATOM     22  C25 UNL     1      32.621 -10.490 -43.810  0.00  0.00    +0.000 C 
ATOM     23  C26 UNL     1      33.298 -10.839 -44.984  0.00  0.00    +0.000 C 
ATOM     24  C27 UNL     1      33.216 -12.145 -45.478  0.00  0.00    +0.000 C 
ATOM     25  C28 UNL     1      32.469 -13.104 -44.790  0.00  0.00    +0.000 C 
ATOM     26  C29 UNL     1      31.796 -12.760 -43.613  0.00  0.00    +0.000 C 
ENDBRANCH  19  21
ENDBRANCH  17  19
ENDBRANCH   4   7
BRANCH   6  27
ATOM     27  O4  UNL     1      26.707  -7.779 -44.415  0.00  0.00    +0.000 OA
ATOM     28  C32 UNL     1      26.349  -6.399 -44.389  0.00  0.00    +0.000 C 
ENDBRANCH   6  27
BRANCH   1  29
ATOM     29  O2  UNL     1      25.282  -9.608 -42.964  0.00  0.00    +0.000 OA
BRANCH  29  30
ATOM     30  C11 UNL     1      24.201  -9.655 -42.035  0.00  0.00    +0.000 C 
BRANCH  30  33
ATOM     31  N2  UNL     1      24.763  -7.341 -39.297  0.00  0.00    +0.000 N 
ATOM     32  C9  UNL     1      24.689  -8.607 -39.739  0.00  0.00    +0.000 C 
ATOM     33  C10 UNL     1      24.318  -8.525 -41.065  0.00  0.00    +0.000 C 
ATOM     34  N6  UNL     1      24.193  -7.221 -41.392  0.00  0.00    +0.000 NA
ATOM     35  N7  UNL     1      24.459  -6.526 -40.296  0.00  0.00    +0.000 NA
BRANCH  31  36
ATOM     36  C8  UNL     1      25.093  -6.910 -37.943  0.00  0.00    +0.000 C 
BRANCH  36  38
ATOM     37  N1  UNL     1      25.288  -8.706 -36.258  0.00  0.00    +0.000 NA
ATOM     38  C7  UNL     1      24.540  -7.888 -36.941  0.00  0.00    +0.000 C 
BRANCH  37  42
ATOM     39  C3  UNL     1      29.470  -9.356 -36.591  0.00  0.00    +0.000 C 
ATOM     40  C4  UNL     1      28.959  -8.467 -35.632  0.00  0.00    +0.000 C 
ATOM     41  C5  UNL     1      27.581  -8.245 -35.540  0.00  0.00    +0.000 C 
ATOM     42  C6  UNL     1      26.701  -8.899 -36.409  0.00  0.00    +0.000 C 
ATOM     43  C33 UNL     1      27.205  -9.823 -37.334  0.00  0.00    +0.000 C 
ATOM     44  C34 UNL     1      28.582 -10.045 -37.431  0.00  0.00    +0.000 C 
BRANCH  39  46
ATOM     45  C1  UNL     1      31.616  -9.357 -35.322  0.00  0.00    +0.000 C 
ATOM     46  C2  UNL     1      30.949  -9.625 -36.667  0.00  0.00    +0.000 C 
ENDBRANCH  39  46
ENDBRANCH  37  42
BRANCH  38  47
ATOM     47  O1  UNL     1      23.171  -7.859 -36.687  0.00  0.00    +0.000 OA
ATOM     48  H8  UNL     1      22.607  -7.058 -36.945  0.00  0.00    +0.000 HD
ENDBRANCH  38  47
ENDBRANCH  36  38
ENDBRANCH  31  36
ENDBRANCH  30  33
ENDBRANCH  29  30
ENDBRANCH   1  29
TORSDOF 12
