REMARK  Name = resultss/4CJN/ligands/lig_83_t0.pdb
REMARK  4 active torsions:
REMARK  status: ('A' for Active; 'I' for Inactive)
REMARK    1  A    between atoms: C9_10  and  C10_18
REMARK    2  A    between atoms: C21_17  and  C22_24
REMARK    3  A    between atoms: C22_24  and  C23_25
REMARK    4  A    between atoms: C27_31  and  O5_32
REMARK                            x       y       z     vdW  Elec       q    Type
REMARK                         _______ _______ _______ _____ _____    ______ ____
ROOT
ATOM      1  C1  UNL     1      23.887  -7.898 -41.170  0.00  0.00    +0.000 C 
ATOM      2  C2  UNL     1      24.954  -8.567 -40.701  0.00  0.00    +0.000 C 
ATOM      3  C3  UNL     1      25.341  -9.892 -41.328  0.00  0.00    +0.000 C 
ATOM      4  C4  UNL     1      26.824 -10.227 -41.091  0.00  0.00    +0.000 C 
ATOM      5  C5  UNL     1      27.660  -8.925 -41.034  0.00  0.00    +0.000 C 
ATOM      6  C6  UNL     1      29.191  -9.034 -41.448  0.00  0.00    +0.000 C 
ATOM      7  C7  UNL     1      29.243  -9.204 -42.998  0.00  0.00    +0.000 C 
ATOM      8  C8  UNL     1      29.931 -10.286 -40.843  0.00  0.00    +0.000 C 
ATOM      9  O1  UNL     1      30.686 -10.016 -39.684  0.00  0.00    +0.000 OA
ATOM     10  C9  UNL     1      31.525  -8.908 -39.914  0.00  0.00    +0.000 C 
ATOM     11  O2  UNL     1      30.740  -7.738 -39.931  0.00  0.00    +0.000 OA
ATOM     12  C16 UNL     1      29.962  -7.691 -41.110  0.00  0.00    +0.000 C 
ATOM     13  C17 UNL     1      29.005  -6.489 -41.009  0.00  0.00    +0.000 C 
ATOM     14  C18 UNL     1      27.894  -6.641 -39.939  0.00  0.00    +0.000 C 
ATOM     15  C19 UNL     1      27.330  -8.100 -39.733  0.00  0.00    +0.000 C 
ATOM     16  C20 UNL     1      28.037  -8.706 -38.486  0.00  0.00    +0.000 C 
ATOM     17  C21 UNL     1      25.733  -8.048 -39.492  0.00  0.00    +0.000 C 
ENDROOT
BRANCH  10  18
ATOM     18  C10 UNL     1      32.518  -8.798 -38.785  0.00  0.00    +0.000 C 
ATOM     19  C11 UNL     1      33.344  -7.664 -38.673  0.00  0.00    +0.000 C 
ATOM     20  C12 UNL     1      34.245  -7.548 -37.610  0.00  0.00    +0.000 C 
ATOM     21  C13 UNL     1      34.323  -8.555 -36.645  0.00  0.00    +0.000 C 
ATOM     22  C14 UNL     1      33.497  -9.677 -36.737  0.00  0.00    +0.000 C 
ATOM     23  C15 UNL     1      32.595  -9.798 -37.799  0.00  0.00    +0.000 C 
ENDBRANCH  10  18
BRANCH  17  24
ATOM     24  C22 UNL     1      25.199  -8.793 -38.227  0.00  0.00    +0.000 C 
BRANCH  24  25
ATOM     25  C23 UNL     1      24.752  -7.854 -37.135  0.00  0.00    +0.000 C 
ATOM     26  C24 UNL     1      25.211  -7.898 -35.873  0.00  0.00    +0.000 C 
ATOM     27  C25 UNL     1      24.830  -6.983 -34.825  0.00  0.00    +0.000 C 
ATOM     28  O3  UNL     1      24.010  -6.033 -34.943  0.00  0.00    +0.000 OA
ATOM     29  O4  UNL     1      25.494  -7.271 -33.655  0.00  0.00    +0.000 OA
ATOM     30  C26 UNL     1      26.377  -8.375 -33.823  0.00  0.00    +0.000 C 
ATOM     31  C27 UNL     1      26.192  -8.868 -35.283  0.00  0.00    +0.000 C 
BRANCH  31  32
ATOM     32  O5  UNL     1      25.655 -10.165 -35.298  0.00  0.00    +0.000 OA
ATOM     33  H34 UNL     1      24.820 -10.128 -34.763  0.00  0.00    +0.000 HD
ENDBRANCH  31  32
ENDBRANCH  24  25
ENDBRANCH  17  24
TORSDOF 4
