REMARK  Name = resultss/4CJN/ligands/lig_337_t2.pdb
REMARK  12 active torsions:
REMARK  status: ('A' for Active; 'I' for Inactive)
REMARK    1  A    between atoms: C2_1  and  O1_28
REMARK    2  A    between atoms: C4_3  and  C5_7
REMARK    3  A    between atoms: C21_6  and  O3_29
REMARK    4  A    between atoms: C12_15  and  O2_17
REMARK    5  A    between atoms: N2_16  and  N3_19
REMARK    6  A    between atoms: N3_19  and  C13_21
REMARK    7  A    between atoms: O3_29  and  C22_30
REMARK    8  A    between atoms: C22_30  and  C23_31
REMARK    9  A    between atoms: N4_33  and  C25_36
REMARK   10  A    between atoms: C25_36  and  C26_37
REMARK   11  A    between atoms: N5_39  and  C27_41
REMARK   12  A    between atoms: C30_44  and  N6_47
REMARK                            x       y       z     vdW  Elec       q    Type
REMARK                         _______ _______ _______ _____ _____    ______ ____
ROOT
ATOM      1  C2  UNL     1      29.650  -8.494 -33.630  0.00  0.00    +0.000 C 
ATOM      2  C3  UNL     1      28.486  -8.830 -34.348  0.00  0.00    +0.000 C 
ATOM      3  C4  UNL     1      28.579  -9.391 -35.635  0.00  0.00    +0.000 C 
ATOM      4  C19 UNL     1      29.848  -9.652 -36.185  0.00  0.00    +0.000 C 
ATOM      5  C20 UNL     1      31.004  -9.331 -35.470  0.00  0.00    +0.000 C 
ATOM      6  C21 UNL     1      30.910  -8.744 -34.199  0.00  0.00    +0.000 C 
ENDROOT
BRANCH   3   7
ATOM      7  C5  UNL     1      27.327  -9.724 -36.412  0.00  0.00    +0.000 C 
ATOM      8  N1  UNL     1      27.688 -10.434 -37.636  0.00  0.00    +0.000 NA
ATOM      9  C6  UNL     1      27.464 -10.012 -38.848  0.00  0.00    +0.000 C 
ATOM     10  C7  UNL     1      27.879 -10.820 -39.916  0.00  0.00    +0.000 C 
ATOM     11  C8  UNL     1      27.658 -10.421 -41.235  0.00  0.00    +0.000 C 
ATOM     12  C9  UNL     1      27.030  -9.205 -41.500  0.00  0.00    +0.000 C 
ATOM     13  C10 UNL     1      26.611  -8.383 -40.446  0.00  0.00    +0.000 C 
ATOM     14  C11 UNL     1      26.814  -8.773 -39.098  0.00  0.00    +0.000 C 
ATOM     15  C12 UNL     1      26.396  -8.018 -38.051  0.00  0.00    +0.000 C 
ATOM     16  N2  UNL     1      26.576  -8.498 -36.706  0.00  0.00    +0.000 N 
BRANCH  15  17
ATOM     17  O2  UNL     1      25.752  -6.783 -38.213  0.00  0.00    +0.000 OA
ATOM     18  H10 UNL     1      25.599  -6.299 -39.085  0.00  0.00    +0.000 HD
ENDBRANCH  15  17
BRANCH  16  19
ATOM     19  N3  UNL     1      26.123  -7.706 -35.633  0.00  0.00    +0.000 N 
ATOM     20  H11 UNL     1      26.626  -6.804 -35.434  0.00  0.00    +0.000 HD
BRANCH  19  21
ATOM     21  C13 UNL     1      24.938  -8.032 -34.893  0.00  0.00    +0.000 C 
ATOM     22  C14 UNL     1      23.679  -7.830 -35.475  0.00  0.00    +0.000 C 
ATOM     23  C15 UNL     1      22.515  -8.187 -34.784  0.00  0.00    +0.000 C 
ATOM     24  C16 UNL     1      22.603  -8.758 -33.513  0.00  0.00    +0.000 C 
ATOM     25  C17 UNL     1      23.856  -8.977 -32.931  0.00  0.00    +0.000 C 
ATOM     26  C18 UNL     1      25.020  -8.618 -33.617  0.00  0.00    +0.000 C 
ENDBRANCH  19  21
ENDBRANCH  16  19
ENDBRANCH   3   7
BRANCH   1  28
ATOM     27  C1  UNL     1      28.767  -6.833 -31.975  0.00  0.00    +0.000 C 
ATOM     28  O1  UNL     1      29.598  -7.929 -32.346  0.00  0.00    +0.000 OA
ENDBRANCH   1  28
BRANCH   6  29
ATOM     29  O3  UNL     1      32.071  -8.397 -33.500  0.00  0.00    +0.000 OA
BRANCH  29  30
ATOM     30  C22 UNL     1      32.762  -7.169 -33.737  0.00  0.00    +0.000 C 
BRANCH  30  31
ATOM     31  C23 UNL     1      33.193  -7.097 -35.167  0.00  0.00    +0.000 C 
ATOM     32  C24 UNL     1      32.635  -6.317 -36.155  0.00  0.00    +0.000 C 
ATOM     33  N4  UNL     1      33.378  -6.529 -37.253  0.00  0.00    +0.000 N 
ATOM     34  N7  UNL     1      34.365  -7.356 -36.946  0.00  0.00    +0.000 NA
ATOM     35  N8  UNL     1      34.282  -7.716 -35.673  0.00  0.00    +0.000 NA
BRANCH  33  36
ATOM     36  C25 UNL     1      33.208  -5.901 -38.555  0.00  0.00    +0.000 C 
BRANCH  36  37
ATOM     37  C26 UNL     1      33.420  -6.913 -39.636  0.00  0.00    +0.000 C 
ATOM     38  O4  UNL     1      33.960  -6.557 -40.717  0.00  0.00    +0.000 OA
ATOM     39  N5  UNL     1      33.016  -8.273 -39.432  0.00  0.00    +0.000 N 
ATOM     40  H24 UNL     1      32.961  -8.614 -38.450  0.00  0.00    +0.000 HD
BRANCH  39  41
ATOM     41  C27 UNL     1      32.828  -9.238 -40.484  0.00  0.00    +0.000 C 
ATOM     42  C28 UNL     1      31.531  -9.500 -40.943  0.00  0.00    +0.000 C 
ATOM     43  C29 UNL     1      31.307 -10.407 -41.983  0.00  0.00    +0.000 C 
ATOM     44  C30 UNL     1      32.388 -11.066 -42.593  0.00  0.00    +0.000 C 
ATOM     45  C31 UNL     1      33.693 -10.784 -42.153  0.00  0.00    +0.000 C 
ATOM     46  C32 UNL     1      33.911  -9.876 -41.111  0.00  0.00    +0.000 C 
BRANCH  44  47
ATOM     47  N6  UNL     1      32.171 -11.997 -43.667  0.00  0.00    +0.000 N 
ATOM     48  O5  UNL     1      31.467 -13.013 -43.490  0.00  0.00    +0.000 OA
ATOM     49  O6  UNL     1      32.747 -11.790 -44.903  0.00  0.00    +0.000 OA
ENDBRANCH  44  47
ENDBRANCH  39  41
ENDBRANCH  36  37
ENDBRANCH  33  36
ENDBRANCH  30  31
ENDBRANCH  29  30
ENDBRANCH   6  29
TORSDOF 12
