REMARK  Name = resultss/4CJN/ligands/lig_428_t0.pdb
REMARK  8 active torsions:
REMARK  status: ('A' for Active; 'I' for Inactive)
REMARK    1  A    between atoms: C9_1  and  C8_22
REMARK    2  A    between atoms: C19_12  and  C20_15
REMARK    3  A    between atoms: N3_21  and  N2_25
REMARK    4  A    between atoms: N2_25  and  C7_27
REMARK    5  A    between atoms: C7_27  and  N1_29
REMARK    6  A    between atoms: N1_29  and  C6_34
REMARK    7  A    between atoms: C3_31  and  O1_37
REMARK    8  A    between atoms: O1_37  and  C2_39
REMARK                            x       y       z     vdW  Elec       q    Type
REMARK                         _______ _______ _______ _____ _____    ______ ____
ROOT
ATOM      1  C9  UNL     1      27.635  -9.652 -39.569  0.00  0.00    +0.000 C 
ATOM      2  C10 UNL     1      26.772  -8.901 -40.395  0.00  0.00    +0.000 C 
ATOM      3  C11 UNL     1      27.188  -8.661 -41.701  0.00  0.00    +0.000 A 
ATOM      4  C12 UNL     1      28.387  -9.138 -42.185  0.00  0.00    +0.000 A 
ATOM      5  N4  UNL     1      28.603  -8.722 -43.456  0.00  0.00    +0.000 N 
ATOM      6  C13 UNL     1      27.513  -7.989 -43.770  0.00  0.00    +0.000 A 
ATOM      7  C14 UNL     1      27.263  -7.324 -44.970  0.00  0.00    +0.000 C 
ATOM      8  C15 UNL     1      26.066  -6.592 -45.081  0.00  0.00    +0.000 C 
ATOM      9  C16 UNL     1      25.157  -6.534 -44.001  0.00  0.00    +0.000 C 
ATOM     10  C17 UNL     1      25.433  -7.208 -42.797  0.00  0.00    +0.000 C 
ATOM     11  C18 UNL     1      26.622  -7.931 -42.719  0.00  0.00    +0.000 A 
ATOM     12  C19 UNL     1      29.229  -9.896 -41.360  0.00  0.00    +0.000 C 
ATOM     13  N5  UNL     1      28.824 -10.116 -40.073  0.00  0.00    +0.000 NA
ATOM     14  H12 UNL     1      29.440  -8.889 -44.058  0.00  0.00    +0.000 HD
ENDROOT
BRANCH  12  15
ATOM     15  C20 UNL     1      30.520 -10.449 -41.821  0.00  0.00    +0.000 C 
ATOM     16  C21 UNL     1      30.568 -11.595 -42.635  0.00  0.00    +0.000 C 
ATOM     17  C22 UNL     1      31.799 -12.115 -43.048  0.00  0.00    +0.000 C 
ATOM     18  C23 UNL     1      32.989 -11.507 -42.642  0.00  0.00    +0.000 C 
ATOM     19  C24 UNL     1      32.951 -10.381 -41.815  0.00  0.00    +0.000 C 
ATOM     20  C25 UNL     1      31.722  -9.857 -41.399  0.00  0.00    +0.000 C 
ENDBRANCH  12  15
BRANCH   1  22
ATOM     21  N3  UNL     1      26.317  -9.122 -37.475  0.00  0.00    +0.000 N 
ATOM     22  C8  UNL     1      27.278  -9.938 -38.164  0.00  0.00    +0.000 C 
ATOM     23  O2  UNL     1      27.837 -10.893 -37.557  0.00  0.00    +0.000 OA
ATOM     24  H10 UNL     1      26.097  -8.176 -37.853  0.00  0.00    +0.000 HD
BRANCH  21  25
ATOM     25  N2  UNL     1      25.849  -9.444 -36.187  0.00  0.00    +0.000 N 
ATOM     26  H9  UNL     1      25.245 -10.289 -36.075  0.00  0.00    +0.000 HD
BRANCH  25  27
ATOM     27  C7  UNL     1      26.263  -8.738 -35.007  0.00  0.00    +0.000 C 
ATOM     28  S1  UNL     1      25.160  -8.383 -33.839  0.00  0.00    +0.000 S 
BRANCH  27  29
ATOM     29  N1  UNL     1      27.545  -8.088 -35.002  0.00  0.00    +0.000 N 
ATOM     30  H8  UNL     1      27.607  -7.128 -35.409  0.00  0.00    +0.000 HD
BRANCH  29  34
ATOM     31  C3  UNL     1      31.103  -9.904 -33.527  0.00  0.00    +0.000 C 
ATOM     32  C4  UNL     1      30.074  -9.554 -32.646  0.00  0.00    +0.000 C 
ATOM     33  C5  UNL     1      28.904  -8.952 -33.118  0.00  0.00    +0.000 C 
ATOM     34  C6  UNL     1      28.750  -8.683 -34.489  0.00  0.00    +0.000 C 
ATOM     35  C26 UNL     1      29.765  -9.060 -35.377  0.00  0.00    +0.000 C 
ATOM     36  C27 UNL     1      30.938  -9.658 -34.905  0.00  0.00    +0.000 C 
BRANCH  31  37
ATOM     37  O1  UNL     1      32.258 -10.497 -32.993  0.00  0.00    +0.000 OA
BRANCH  37  39
ATOM     38  C1  UNL     1      32.348 -12.277 -31.339  0.00  0.00    +0.000 C 
ATOM     39  C2  UNL     1      32.484 -10.782 -31.611  0.00  0.00    +0.000 C 
ENDBRANCH  37  39
ENDBRANCH  31  37
ENDBRANCH  29  34
ENDBRANCH  27  29
ENDBRANCH  25  27
ENDBRANCH  21  25
ENDBRANCH   1  22
TORSDOF 8
