REMARK  Name = resultss/4CJN/ligands/lig_420_t0.pdb
REMARK  7 active torsions:
REMARK  status: ('A' for Active; 'I' for Inactive)
REMARK    1  A    between atoms: C1_2  and  C10_5
REMARK    2  A    between atoms: N1_3  and  N2_25
REMARK    3  A    between atoms: C20_16  and  C21_19
REMARK    4  A    between atoms: N2_25  and  C2_27
REMARK    5  A    between atoms: C2_27  and  N3_29
REMARK    6  A    between atoms: N3_29  and  C3_31
REMARK    7  A    between atoms: C7_35  and  C8_37
REMARK                            x       y       z     vdW  Elec       q    Type
REMARK                         _______ _______ _______ _____ _____    ______ ____
ROOT
ATOM      1  O1  UNL     1      28.119 -11.172 -39.642  0.00  0.00    +0.000 OA
ATOM      2  C1  UNL     1      27.389 -10.259 -39.168  0.00  0.00    +0.000 C 
ATOM      3  N1  UNL     1      26.452  -9.581 -40.021  0.00  0.00    +0.000 N 
ATOM      4  H1  UNL     1      26.082  -8.652 -39.724  0.00  0.00    +0.000 HD
ENDROOT
BRANCH   2   5
ATOM      5  C10 UNL     1      27.511  -9.884 -37.743  0.00  0.00    +0.000 C 
ATOM      6  C11 UNL     1      28.773  -9.842 -37.113  0.00  0.00    +0.000 C 
ATOM      7  C12 UNL     1      28.801  -9.497 -35.767  0.00  0.00    +0.000 A 
ATOM      8  C13 UNL     1      27.653  -9.200 -35.063  0.00  0.00    +0.000 A 
ATOM      9  N4  UNL     1      27.926  -8.957 -33.759  0.00  0.00    +0.000 N 
ATOM     10  C14 UNL     1      29.267  -9.086 -33.656  0.00  0.00    +0.000 A 
ATOM     11  C15 UNL     1      30.040  -8.943 -32.504  0.00  0.00    +0.000 C 
ATOM     12  C16 UNL     1      31.429  -9.141 -32.615  0.00  0.00    +0.000 C 
ATOM     13  C17 UNL     1      32.010  -9.480 -33.857  0.00  0.00    +0.000 C 
ATOM     14  C18 UNL     1      31.209  -9.626 -35.004  0.00  0.00    +0.000 C 
ATOM     15  C19 UNL     1      29.838  -9.416 -34.867  0.00  0.00    +0.000 A 
ATOM     16  C20 UNL     1      26.408  -9.231 -35.703  0.00  0.00    +0.000 C 
ATOM     17  N5  UNL     1      26.382  -9.584 -37.024  0.00  0.00    +0.000 NA
ATOM     18  H9  UNL     1      27.256  -8.750 -32.985  0.00  0.00    +0.000 HD
BRANCH  16  19
ATOM     19  C21 UNL     1      25.141  -8.911 -35.014  0.00  0.00    +0.000 C 
ATOM     20  C22 UNL     1      24.900  -9.349 -33.700  0.00  0.00    +0.000 C 
ATOM     21  C23 UNL     1      23.707  -9.016 -33.053  0.00  0.00    +0.000 C 
ATOM     22  C24 UNL     1      22.752  -8.232 -33.704  0.00  0.00    +0.000 C 
ATOM     23  C25 UNL     1      22.991  -7.774 -35.002  0.00  0.00    +0.000 C 
ATOM     24  C26 UNL     1      24.184  -8.104 -35.654  0.00  0.00    +0.000 C 
ENDBRANCH  16  19
ENDBRANCH   2   5
BRANCH   3  25
ATOM     25  N2  UNL     1      26.231  -9.985 -41.349  0.00  0.00    +0.000 N 
ATOM     26  H2  UNL     1      26.062 -10.998 -41.541  0.00  0.00    +0.000 HD
BRANCH  25  27
ATOM     27  C2  UNL     1      26.343  -9.087 -42.463  0.00  0.00    +0.000 C 
ATOM     28  S1  UNL     1      25.029  -8.195 -42.880  0.00  0.00    +0.000 S 
BRANCH  27  29
ATOM     29  N3  UNL     1      27.596  -8.946 -43.163  0.00  0.00    +0.000 N 
ATOM     30  H3  UNL     1      27.580  -8.625 -44.156  0.00  0.00    +0.000 HD
BRANCH  29  31
ATOM     31  C3  UNL     1      28.883  -9.255 -42.606  0.00  0.00    +0.000 C 
ATOM     32  C4  UNL     1      29.379  -8.477 -41.552  0.00  0.00    +0.000 C 
ATOM     33  C5  UNL     1      30.620  -8.771 -40.983  0.00  0.00    +0.000 C 
ATOM     34  C6  UNL     1      31.364  -9.860 -41.444  0.00  0.00    +0.000 C 
ATOM     35  C7  UNL     1      30.856 -10.687 -42.462  0.00  0.00    +0.000 C 
ATOM     36  C9  UNL     1      29.618 -10.369 -43.047  0.00  0.00    +0.000 C 
BRANCH  35  37
ATOM     37  C8  UNL     1      31.673 -11.844 -42.981  0.00  0.00    +0.000 C 
ATOM     38  F1  UNL     1      32.925 -11.866 -42.391  0.00  0.00    +0.000 F 
ATOM     39  F2  UNL     1      31.843 -11.745 -44.351  0.00  0.00    +0.000 F 
ATOM     40  F3  UNL     1      31.018 -13.027 -42.693  0.00  0.00    +0.000 F 
ENDBRANCH  35  37
ENDBRANCH  29  31
ENDBRANCH  27  29
ENDBRANCH  25  27
ENDBRANCH   3  25
TORSDOF 7
