REMARK  Name = resultss/4CJN/ligands/lig_186_t2.pdb
REMARK  4 active torsions:
REMARK  status: ('A' for Active; 'I' for Inactive)
REMARK    1  A    between atoms: C9_1  and  C1_17
REMARK    2  A    between atoms: C12_4  and  C13_7
REMARK    3  A    between atoms: N1_18  and  N2_20
REMARK    4  A    between atoms: C2_21  and  C3_22
REMARK                            x       y       z     vdW  Elec       q    Type
REMARK                         _______ _______ _______ _____ _____    ______ ____
ROOT
ATOM      1  C9  UNL     1      28.777  -9.630 -40.297  0.00  0.00    +0.000 C 
ATOM      2  C10 UNL     1      27.479  -9.107 -40.422  0.00  0.00    +0.000 C 
ATOM      3  C11 UNL     1      26.674  -8.920 -39.295  0.00  0.00    +0.000 C 
ATOM      4  C12 UNL     1      27.146  -9.258 -38.015  0.00  0.00    +0.000 C 
ATOM      5  C20 UNL     1      28.441  -9.794 -37.891  0.00  0.00    +0.000 C 
ATOM      6  C21 UNL     1      29.246  -9.979 -39.018  0.00  0.00    +0.000 C 
ENDROOT
BRANCH   4   7
ATOM      7  C13 UNL     1      26.286  -9.055 -36.827  0.00  0.00    +0.000 A 
ATOM      8  N3  UNL     1      25.063  -8.467 -36.887  0.00  0.00    +0.000 NA
ATOM      9  C14 UNL     1      24.482  -8.403 -35.662  0.00  0.00    +0.000 A 
ATOM     10  C15 UNL     1      23.225  -7.851 -35.413  0.00  0.00    +0.000 C 
ATOM     11  C16 UNL     1      22.738  -7.846 -34.094  0.00  0.00    +0.000 C 
ATOM     12  C17 UNL     1      23.510  -8.389 -33.047  0.00  0.00    +0.000 C 
ATOM     13  C18 UNL     1      24.773  -8.942 -33.309  0.00  0.00    +0.000 C 
ATOM     14  C19 UNL     1      25.231  -8.933 -34.624  0.00  0.00    +0.000 A 
ATOM     15  S1  UNL     1      26.679  -9.512 -35.237  0.00  0.00    +0.000 S 
ENDBRANCH   4   7
BRANCH   1  17
ATOM     16  O1  UNL     1      29.455  -9.072 -42.501  0.00  0.00    +0.000 OA
ATOM     17  C1  UNL     1      29.616  -9.827 -41.504  0.00  0.00    +0.000 C 
ATOM     18  N1  UNL     1      30.620 -10.848 -41.555  0.00  0.00    +0.000 N 
ATOM     19  H1  UNL     1      30.882 -11.371 -40.690  0.00  0.00    +0.000 HD
BRANCH  18  20
ATOM     20  N2  UNL     1      31.304 -11.098 -42.755  0.00  0.00    +0.000 NA
ATOM     21  C2  UNL     1      31.652 -12.295 -43.110  0.00  0.00    +0.000 C 
BRANCH  21  22
ATOM     22  C3  UNL     1      32.375 -12.527 -44.377  0.00  0.00    +0.000 C 
ATOM     23  C4  UNL     1      32.305 -13.741 -44.951  0.00  0.00    +0.000 C 
ATOM     24  C5  UNL     1      33.017 -14.062 -46.201  0.00  0.00    +0.000 C 
ATOM     25  O2  UNL     1      32.911 -15.217 -46.690  0.00  0.00    +0.000 OA
ATOM     26  C6  UNL     1      33.900 -13.057 -46.879  0.00  0.00    +0.000 C 
ATOM     27  C7  UNL     1      33.603 -11.668 -46.396  0.00  0.00    +0.000 C 
ATOM     28  O3  UNL     1      33.755 -10.719 -47.152  0.00  0.00    +0.000 OA
ATOM     29  C8  UNL     1      33.239 -11.425 -44.956  0.00  0.00    +0.000 C 
ENDBRANCH  21  22
ENDBRANCH  18  20
ENDBRANCH   1  17
TORSDOF 4
