REMARK  Name = resultss/4CJN/ligands/lig_432_t0.pdb
REMARK  7 active torsions:
REMARK  status: ('A' for Active; 'I' for Inactive)
REMARK    1  A    between atoms: C9_1  and  C1_22
REMARK    2  A    between atoms: C19_12  and  C20_15
REMARK    3  A    between atoms: N1_23  and  N2_25
REMARK    4  A    between atoms: N2_25  and  C2_27
REMARK    5  A    between atoms: C2_27  and  N3_29
REMARK    6  A    between atoms: N3_29  and  C3_31
REMARK    7  A    between atoms: C6_34  and  N4_37
REMARK                            x       y       z     vdW  Elec       q    Type
REMARK                         _______ _______ _______ _____ _____    ______ ____
ROOT
ATOM      1  C9  UNL     1      27.854 -10.031 -37.663  0.00  0.00    +0.000 C 
ATOM      2  C10 UNL     1      29.062  -9.955 -36.937  0.00  0.00    +0.000 C 
ATOM      3  C11 UNL     1      28.988  -9.521 -35.619  0.00  0.00    +0.000 A 
ATOM      4  C12 UNL     1      27.792  -9.169 -35.031  0.00  0.00    +0.000 A 
ATOM      5  N5  UNL     1      27.962  -8.844 -33.727  0.00  0.00    +0.000 N 
ATOM      6  C13 UNL     1      29.288  -8.977 -33.508  0.00  0.00    +0.000 A 
ATOM      7  C14 UNL     1      29.969  -8.767 -32.309  0.00  0.00    +0.000 C 
ATOM      8  C15 UNL     1      31.359  -8.984 -32.294  0.00  0.00    +0.000 C 
ATOM      9  C16 UNL     1      32.034  -9.408 -33.462  0.00  0.00    +0.000 C 
ATOM     10  C17 UNL     1      31.325  -9.619 -34.659  0.00  0.00    +0.000 C 
ATOM     11  C18 UNL     1      29.950  -9.390 -34.645  0.00  0.00    +0.000 A 
ATOM     12  C19 UNL     1      26.600  -9.234 -35.765  0.00  0.00    +0.000 C 
ATOM     13  N6  UNL     1      26.675  -9.675 -37.058  0.00  0.00    +0.000 NA
ATOM     14  H9  UNL     1      27.235  -8.582 -33.024  0.00  0.00    +0.000 HD
ENDROOT
BRANCH  12  15
ATOM     15  C20 UNL     1      25.287  -8.856 -35.204  0.00  0.00    +0.000 C 
ATOM     16  C21 UNL     1      24.938  -9.268 -33.906  0.00  0.00    +0.000 C 
ATOM     17  C22 UNL     1      23.688  -8.938 -33.373  0.00  0.00    +0.000 C 
ATOM     18  C23 UNL     1      22.772  -8.207 -34.134  0.00  0.00    +0.000 C 
ATOM     19  C24 UNL     1      23.102  -7.813 -35.434  0.00  0.00    +0.000 C 
ATOM     20  C25 UNL     1      24.350  -8.140 -35.971  0.00  0.00    +0.000 C 
ENDBRANCH  12  15
BRANCH   1  22
ATOM     21  O1  UNL     1      26.741 -10.682 -39.654  0.00  0.00    +0.000 OA
ATOM     22  C1  UNL     1      27.840 -10.501 -39.063  0.00  0.00    +0.000 C 
ATOM     23  N1  UNL     1      29.072 -10.774 -39.752  0.00  0.00    +0.000 N 
ATOM     24  H1  UNL     1      29.938 -10.933 -39.190  0.00  0.00    +0.000 HD
BRANCH  23  25
ATOM     25  N2  UNL     1      29.112 -11.073 -41.125  0.00  0.00    +0.000 N 
ATOM     26  H2  UNL     1      28.807 -12.023 -41.435  0.00  0.00    +0.000 HD
BRANCH  25  27
ATOM     27  C2  UNL     1      29.706 -10.198 -42.097  0.00  0.00    +0.000 C 
ATOM     28  S1  UNL     1      30.885 -10.758 -43.090  0.00  0.00    +0.000 S 
BRANCH  27  29
ATOM     29  N3  UNL     1      29.095  -8.933 -42.396  0.00  0.00    +0.000 N 
ATOM     30  H3  UNL     1      29.706  -8.162 -42.747  0.00  0.00    +0.000 HD
BRANCH  29  31
ATOM     31  C3  UNL     1      27.687  -8.673 -42.263  0.00  0.00    +0.000 C 
ATOM     32  C4  UNL     1      26.777  -9.389 -43.053  0.00  0.00    +0.000 C 
ATOM     33  C5  UNL     1      25.405  -9.141 -42.958  0.00  0.00    +0.000 C 
ATOM     34  C6  UNL     1      24.917  -8.158 -42.079  0.00  0.00    +0.000 C 
ATOM     35  C7  UNL     1      25.833  -7.424 -41.304  0.00  0.00    +0.000 C 
ATOM     36  C8  UNL     1      27.204  -7.675 -41.399  0.00  0.00    +0.000 C 
BRANCH  34  37
ATOM     37  N4  UNL     1      23.503  -7.904 -41.984  0.00  0.00    +0.000 N 
ATOM     38  O2  UNL     1      22.687  -8.593 -42.629  0.00  0.00    +0.000 OA
ATOM     39  O3  UNL     1      23.027  -6.893 -41.180  0.00  0.00    +0.000 OA
ENDBRANCH  34  37
ENDBRANCH  29  31
ENDBRANCH  27  29
ENDBRANCH  25  27
ENDBRANCH  23  25
ENDBRANCH   1  22
TORSDOF 7
