REMARK  Name = resultss/4CJN/ligands/lig_346_t2.pdb
REMARK  11 active torsions:
REMARK  status: ('A' for Active; 'I' for Inactive)
REMARK    1  A    between atoms: C6_1  and  O2_27
REMARK    2  A    between atoms: C9_4  and  C10_7
REMARK    3  A    between atoms: C17_15  and  O3_17
REMARK    4  A    between atoms: N3_16  and  N4_19
REMARK    5  A    between atoms: N4_19  and  C18_21
REMARK    6  A    between atoms: O2_27  and  C5_28
REMARK    7  A    between atoms: C5_28  and  C4_31
REMARK    8  A    between atoms: N1_29  and  C2_34
REMARK    9  A    between atoms: C2_34  and  C1_36
REMARK   10  A    between atoms: N7_37  and  C26_39
REMARK   11  A    between atoms: C26_39  and  C27_40
REMARK                            x       y       z     vdW  Elec       q    Type
REMARK                         _______ _______ _______ _____ _____    ______ ____
ROOT
ATOM      1  C6  UNL     1      25.999  -8.757 -40.172  0.00  0.00    +0.000 C 
ATOM      2  C7  UNL     1      25.665  -9.235 -41.445  0.00  0.00    +0.000 C 
ATOM      3  C8  UNL     1      25.405  -8.348 -42.492  0.00  0.00    +0.000 C 
ATOM      4  C9  UNL     1      25.472  -6.960 -42.281  0.00  0.00    +0.000 C 
ATOM      5  C24 UNL     1      25.817  -6.478 -41.007  0.00  0.00    +0.000 C 
ATOM      6  C25 UNL     1      26.075  -7.367 -39.959  0.00  0.00    +0.000 C 
ENDROOT
BRANCH   4   7
ATOM      7  C10 UNL     1      25.223  -6.001 -43.420  0.00  0.00    +0.000 C 
ATOM      8  N2  UNL     1      23.902  -6.264 -43.995  0.00  0.00    +0.000 NA
ATOM      9  C11 UNL     1      23.685  -6.691 -45.202  0.00  0.00    +0.000 C 
ATOM     10  C12 UNL     1      22.363  -6.945 -45.597  0.00  0.00    +0.000 C 
ATOM     11  C13 UNL     1      22.087  -7.422 -46.880  0.00  0.00    +0.000 C 
ATOM     12  C14 UNL     1      23.129  -7.643 -47.780  0.00  0.00    +0.000 C 
ATOM     13  C15 UNL     1      24.450  -7.387 -47.403  0.00  0.00    +0.000 C 
ATOM     14  C16 UNL     1      24.746  -6.906 -46.111  0.00  0.00    +0.000 C 
ATOM     15  C17 UNL     1      26.013  -6.638 -45.743  0.00  0.00    +0.000 C 
ATOM     16  N3  UNL     1      26.293  -6.131 -44.423  0.00  0.00    +0.000 N 
BRANCH  15  17
ATOM     17  O3  UNL     1      27.057  -6.827 -46.653  0.00  0.00    +0.000 OA
ATOM     18  H13 UNL     1      28.022  -6.913 -46.363  0.00  0.00    +0.000 HD
ENDBRANCH  15  17
BRANCH  16  19
ATOM     19  N4  UNL     1      27.630  -5.950 -44.019  0.00  0.00    +0.000 N 
ATOM     20  H14 UNL     1      28.127  -5.076 -44.301  0.00  0.00    +0.000 HD
BRANCH  19  21
ATOM     21  C18 UNL     1      28.366  -6.980 -43.345  0.00  0.00    +0.000 C 
ATOM     22  C19 UNL     1      28.468  -8.271 -43.894  0.00  0.00    +0.000 C 
ATOM     23  C20 UNL     1      29.171  -9.271 -43.216  0.00  0.00    +0.000 C 
ATOM     24  C21 UNL     1      29.772  -8.991 -41.985  0.00  0.00    +0.000 C 
ATOM     25  C22 UNL     1      29.665  -7.713 -41.429  0.00  0.00    +0.000 C 
ATOM     26  C23 UNL     1      28.959  -6.711 -42.103  0.00  0.00    +0.000 C 
ENDBRANCH  19  21
ENDBRANCH  16  19
ENDBRANCH   4   7
BRANCH   1  27
ATOM     27  O2  UNL     1      26.252  -9.696 -39.157  0.00  0.00    +0.000 OA
BRANCH  27  28
ATOM     28  C5  UNL     1      27.476  -9.820 -38.436  0.00  0.00    +0.000 C 
BRANCH  28  31
ATOM     29  N1  UNL     1      26.639  -8.624 -35.113  0.00  0.00    +0.000 N 
ATOM     30  C3  UNL     1      26.594  -8.458 -36.448  0.00  0.00    +0.000 C 
ATOM     31  C4  UNL     1      27.259  -9.538 -36.983  0.00  0.00    +0.000 C 
ATOM     32  N5  UNL     1      27.696 -10.319 -35.972  0.00  0.00    +0.000 NA
ATOM     33  N6  UNL     1      27.308  -9.735 -34.846  0.00  0.00    +0.000 NA
BRANCH  29  34
ATOM     34  C2  UNL     1      26.096  -7.721 -34.104  0.00  0.00    +0.000 C 
BRANCH  34  36
ATOM     35  O1  UNL     1      26.926  -6.516 -32.216  0.00  0.00    +0.000 OA
ATOM     36  C1  UNL     1      27.201  -7.106 -33.297  0.00  0.00    +0.000 C 
ATOM     37  N7  UNL     1      28.564  -7.233 -33.725  0.00  0.00    +0.000 N 
ATOM     38  H22 UNL     1      28.770  -7.702 -34.635  0.00  0.00    +0.000 HD
BRANCH  37  39
ATOM     39  C26 UNL     1      29.686  -6.750 -32.924  0.00  0.00    +0.000 C 
BRANCH  39  40
ATOM     40  C27 UNL     1      30.609  -7.888 -32.576  0.00  0.00    +0.000 C 
ATOM     41  C28 UNL     1      30.289  -9.198 -32.970  0.00  0.00    +0.000 C 
ATOM     42  C29 UNL     1      31.135 -10.262 -32.638  0.00  0.00    +0.000 C 
ATOM     43  C30 UNL     1      32.303 -10.023 -31.908  0.00  0.00    +0.000 C 
ATOM     44  C31 UNL     1      32.625  -8.723 -31.509  0.00  0.00    +0.000 C 
ATOM     45  C32 UNL     1      31.781  -7.658 -31.838  0.00  0.00    +0.000 C 
ENDBRANCH  39  40
ENDBRANCH  37  39
ENDBRANCH  34  36
ENDBRANCH  29  34
ENDBRANCH  28  31
ENDBRANCH  27  28
ENDBRANCH   1  27
TORSDOF 11
