REMARK  Name = resultss/4CJN/ligands/lig_398_t2.pdb
REMARK  8 active torsions:
REMARK  status: ('A' for Active; 'I' for Inactive)
REMARK    1  A    between atoms: C10_1  and  C9_8
REMARK    2  A    between atoms: C13_4  and  O2_21
REMARK    3  A    between atoms: N3_7  and  N2_18
REMARK    4  A    between atoms: C1_9  and  O1_19
REMARK    5  A    between atoms: O2_21  and  C14_22
REMARK    6  A    between atoms: C14_22  and  C15_23
REMARK    7  A    between atoms: N4_25  and  C17_28
REMARK    8  A    between atoms: C17_28  and  C18_29
REMARK                            x       y       z     vdW  Elec       q    Type
REMARK                         _______ _______ _______ _____ _____    ______ ____
ROOT
ATOM      1  C10 UNL     1      29.082  -8.675 -33.100  0.00  0.00    +0.000 C 
ATOM      2  C11 UNL     1      28.126  -7.734 -32.689  0.00  0.00    +0.000 C 
ATOM      3  C12 UNL     1      26.806  -7.820 -33.142  0.00  0.00    +0.000 C 
ATOM      4  C13 UNL     1      26.425  -8.843 -34.032  0.00  0.00    +0.000 C 
ATOM      5  C24 UNL     1      27.387  -9.763 -34.462  0.00  0.00    +0.000 C 
ATOM      6  C25 UNL     1      28.707  -9.678 -34.011  0.00  0.00    +0.000 C 
ENDROOT
BRANCH   1   8
ATOM      7  N3  UNL     1      31.424  -7.969 -33.303  0.00  0.00    +0.000 NA
ATOM      8  C9  UNL     1      30.476  -8.536 -32.617  0.00  0.00    +0.000 C 
BRANCH   7  18
ATOM      9  C1  UNL     1      32.464  -9.279 -35.738  0.00  0.00    +0.000 C 
ATOM     10  N1  UNL     1      32.778  -9.566 -36.968  0.00  0.00    +0.000 NA
ATOM     11  C2  UNL     1      32.226  -8.518 -37.768  0.00  0.00    +0.000 C 
ATOM     12  C3  UNL     1      32.307  -8.393 -39.154  0.00  0.00    +0.000 C 
ATOM     13  C4  UNL     1      31.694  -7.280 -39.757  0.00  0.00    +0.000 C 
ATOM     14  C5  UNL     1      31.018  -6.320 -38.970  0.00  0.00    +0.000 C 
ATOM     15  C6  UNL     1      30.950  -6.467 -37.573  0.00  0.00    +0.000 C 
ATOM     16  C7  UNL     1      31.567  -7.581 -37.009  0.00  0.00    +0.000 C 
ATOM     17  C8  UNL     1      31.691  -8.034 -35.644  0.00  0.00    +0.000 C 
ATOM     18  N2  UNL     1      31.229  -7.444 -34.589  0.00  0.00    +0.000 NA
BRANCH   9  19
ATOM     19  O1  UNL     1      32.829 -10.077 -34.659  0.00  0.00    +0.000 OA
ATOM     20  H1  UNL     1      32.916 -11.081 -34.763  0.00  0.00    +0.000 HD
ENDBRANCH   9  19
ENDBRANCH   7  18
ENDBRANCH   1   8
BRANCH   4  21
ATOM     21  O2  UNL     1      25.112  -8.979 -34.515  0.00  0.00    +0.000 OA
BRANCH  21  22
ATOM     22  C14 UNL     1      24.432  -8.026 -35.330  0.00  0.00    +0.000 C 
BRANCH  22  23
ATOM     23  C15 UNL     1      25.024  -7.989 -36.705  0.00  0.00    +0.000 C 
ATOM     24  C16 UNL     1      26.103  -7.240 -37.116  0.00  0.00    +0.000 C 
ATOM     25  N4  UNL     1      26.300  -7.556 -38.407  0.00  0.00    +0.000 N 
ATOM     26  N5  UNL     1      25.407  -8.467 -38.760  0.00  0.00    +0.000 NA
ATOM     27  N6  UNL     1      24.611  -8.750 -37.738  0.00  0.00    +0.000 NA
BRANCH  25  28
ATOM     28  C17 UNL     1      27.376  -7.078 -39.268  0.00  0.00    +0.000 C 
BRANCH  28  29
ATOM     29  C18 UNL     1      27.994  -8.235 -40.005  0.00  0.00    +0.000 C 
ATOM     30  C19 UNL     1      27.811  -8.360 -41.392  0.00  0.00    +0.000 C 
ATOM     31  C20 UNL     1      28.349  -9.453 -42.080  0.00  0.00    +0.000 C 
ATOM     32  C21 UNL     1      29.062 -10.434 -41.385  0.00  0.00    +0.000 C 
ATOM     33  C22 UNL     1      29.237 -10.326 -40.003  0.00  0.00    +0.000 C 
ATOM     34  C23 UNL     1      28.702  -9.234 -39.310  0.00  0.00    +0.000 C 
ATOM     35  F1  UNL     1      28.872  -9.154 -37.966  0.00  0.00    +0.000 F 
ENDBRANCH  28  29
ENDBRANCH  25  28
ENDBRANCH  22  23
ENDBRANCH  21  22
ENDBRANCH   4  21
TORSDOF 8
