REMARK  Name = resultss/4CJN/ligands/lig_420_t0.pdb
REMARK  7 active torsions:
REMARK  status: ('A' for Active; 'I' for Inactive)
REMARK    1  A    between atoms: C1_2  and  C10_5
REMARK    2  A    between atoms: N1_3  and  N2_25
REMARK    3  A    between atoms: C20_16  and  C21_19
REMARK    4  A    between atoms: N2_25  and  C2_27
REMARK    5  A    between atoms: C2_27  and  N3_29
REMARK    6  A    between atoms: N3_29  and  C3_31
REMARK    7  A    between atoms: C7_35  and  C8_37
REMARK                            x       y       z     vdW  Elec       q    Type
REMARK                         _______ _______ _______ _____ _____    ______ ____
ROOT
ATOM      1  O1  UNL     1      23.975  -7.452 -40.431  0.00  0.00    +0.000 OA
ATOM      2  C1  UNL     1      24.608  -8.517 -40.193  0.00  0.00    +0.000 C 
ATOM      3  N1  UNL     1      24.537  -9.610 -41.122  0.00  0.00    +0.000 N 
ATOM      4  H1  UNL     1      24.795 -10.567 -40.793  0.00  0.00    +0.000 HD
ENDROOT
BRANCH   2   5
ATOM      5  C10 UNL     1      25.407  -8.635 -38.954  0.00  0.00    +0.000 C 
ATOM      6  C11 UNL     1      26.800  -8.853 -39.011  0.00  0.00    +0.000 C 
ATOM      7  C12 UNL     1      27.476  -8.969 -37.802  0.00  0.00    +0.000 A 
ATOM      8  C13 UNL     1      26.828  -8.875 -36.589  0.00  0.00    +0.000 A 
ATOM      9  N4  UNL     1      27.682  -9.084 -35.559  0.00  0.00    +0.000 N 
ATOM     10  C14 UNL     1      28.883  -9.293 -36.141  0.00  0.00    +0.000 A 
ATOM     11  C15 UNL     1      30.092  -9.565 -35.502  0.00  0.00    +0.000 C 
ATOM     12  C16 UNL     1      31.229  -9.771 -36.306  0.00  0.00    +0.000 C 
ATOM     13  C17 UNL     1      31.135  -9.707 -37.714  0.00  0.00    +0.000 C 
ATOM     14  C18 UNL     1      29.903  -9.436 -38.337  0.00  0.00    +0.000 C 
ATOM     15  C19 UNL     1      28.796  -9.229 -37.516  0.00  0.00    +0.000 A 
ATOM     16  C20 UNL     1      25.447  -8.645 -36.545  0.00  0.00    +0.000 C 
ATOM     17  N5  UNL     1      24.782  -8.544 -37.736  0.00  0.00    +0.000 NA
ATOM     18  H9  UNL     1      27.468  -9.116 -34.537  0.00  0.00    +0.000 HD
BRANCH  16  19
ATOM     19  C21 UNL     1      24.693  -8.519 -35.282  0.00  0.00    +0.000 C 
ATOM     20  C22 UNL     1      23.561  -7.688 -35.193  0.00  0.00    +0.000 C 
ATOM     21  C23 UNL     1      22.844  -7.600 -33.996  0.00  0.00    +0.000 C 
ATOM     22  C24 UNL     1      23.239  -8.347 -32.885  0.00  0.00    +0.000 C 
ATOM     23  C25 UNL     1      24.350  -9.191 -32.970  0.00  0.00    +0.000 C 
ATOM     24  C26 UNL     1      25.070  -9.284 -34.165  0.00  0.00    +0.000 C 
ENDBRANCH  16  19
ENDBRANCH   2   5
BRANCH   3  25
ATOM     25  N2  UNL     1      23.880  -9.493 -42.358  0.00  0.00    +0.000 N 
ATOM     26  H2  UNL     1      23.142 -10.193 -42.598  0.00  0.00    +0.000 HD
BRANCH  25  27
ATOM     27  C2  UNL     1      24.255  -8.526 -43.349  0.00  0.00    +0.000 C 
ATOM     28  S1  UNL     1      23.169  -7.364 -43.756  0.00  0.00    +0.000 S 
BRANCH  27  29
ATOM     29  N3  UNL     1      25.572  -8.557 -43.935  0.00  0.00    +0.000 N 
ATOM     30  H3  UNL     1      25.659  -8.717 -44.963  0.00  0.00    +0.000 HD
BRANCH  29  31
ATOM     31  C3  UNL     1      26.798  -8.420 -43.200  0.00  0.00    +0.000 C 
ATOM     32  C4  UNL     1      27.133  -7.176 -42.649  0.00  0.00    +0.000 C 
ATOM     33  C5  UNL     1      28.310  -7.025 -41.914  0.00  0.00    +0.000 C 
ATOM     34  C6  UNL     1      29.150  -8.121 -41.700  0.00  0.00    +0.000 C 
ATOM     35  C7  UNL     1      28.803  -9.390 -42.196  0.00  0.00    +0.000 C 
ATOM     36  C9  UNL     1      27.628  -9.528 -42.957  0.00  0.00    +0.000 C 
BRANCH  35  37
ATOM     37  C8  UNL     1      29.725 -10.566 -41.993  0.00  0.00    +0.000 C 
ATOM     38  F1  UNL     1      29.104 -11.555 -41.250  0.00  0.00    +0.000 F 
ATOM     39  F2  UNL     1      30.871 -10.176 -41.321  0.00  0.00    +0.000 F 
ATOM     40  F3  UNL     1      30.079 -11.083 -43.225  0.00  0.00    +0.000 F 
ENDBRANCH  35  37
ENDBRANCH  29  31
ENDBRANCH  27  29
ENDBRANCH  25  27
ENDBRANCH   3  25
TORSDOF 7
