REMARK  Name = resultss/4CJN/ligands/lig_344_t0.pdb
REMARK  10 active torsions:
REMARK  status: ('A' for Active; 'I' for Inactive)
REMARK    1  A    between atoms: C2_1  and  O1_28
REMARK    2  A    between atoms: C4_3  and  C5_7
REMARK    3  A    between atoms: C21_6  and  O3_29
REMARK    4  A    between atoms: N2_17  and  N3_19
REMARK    5  A    between atoms: N3_19  and  C13_21
REMARK    6  A    between atoms: O3_29  and  C22_30
REMARK    7  A    between atoms: C22_30  and  C23_31
REMARK    8  A    between atoms: N4_33  and  C25_36
REMARK    9  A    between atoms: C25_36  and  C26_37
REMARK   10  A    between atoms: N5_39  and  C27_41
REMARK                            x       y       z     vdW  Elec       q    Type
REMARK                         _______ _______ _______ _____ _____    ______ ____
ROOT
ATOM      1  C2  UNL     1      27.643  -9.928 -39.278  0.00  0.00    +0.000 C 
ATOM      2  C3  UNL     1      26.877  -9.282 -38.289  0.00  0.00    +0.000 C 
ATOM      3  C4  UNL     1      27.488  -8.440 -37.346  0.00  0.00    +0.000 C 
ATOM      4  C19 UNL     1      28.876  -8.258 -37.389  0.00  0.00    +0.000 C 
ATOM      5  C20 UNL     1      29.642  -8.897 -38.364  0.00  0.00    +0.000 C 
ATOM      6  C21 UNL     1      29.030  -9.728 -39.322  0.00  0.00    +0.000 C 
ENDROOT
BRANCH   3   7
ATOM      7  C5  UNL     1      26.657  -7.770 -36.275  0.00  0.00    +0.000 C 
ATOM      8  N1  UNL     1      25.495  -7.130 -36.904  0.00  0.00    +0.000 N 
ATOM      9  C6  UNL     1      24.198  -7.077 -36.301  0.00  0.00    +0.000 C 
ATOM     10  C7  UNL     1      23.204  -6.246 -36.839  0.00  0.00    +0.000 C 
ATOM     11  C8  UNL     1      21.935  -6.197 -36.256  0.00  0.00    +0.000 C 
ATOM     12  C9  UNL     1      21.649  -6.983 -35.137  0.00  0.00    +0.000 C 
ATOM     13  C10 UNL     1      22.630  -7.822 -34.603  0.00  0.00    +0.000 C 
ATOM     14  C11 UNL     1      23.908  -7.874 -35.185  0.00  0.00    +0.000 C 
ATOM     15  C12 UNL     1      24.954  -8.763 -34.663  0.00  0.00    +0.000 C 
ATOM     16  O2  UNL     1      24.703  -9.533 -33.695  0.00  0.00    +0.000 OA
ATOM     17  N2  UNL     1      26.268  -8.758 -35.246  0.00  0.00    +0.000 N 
ATOM     18  H6  UNL     1      25.671  -6.540 -37.751  0.00  0.00    +0.000 HD
BRANCH  17  19
ATOM     19  N3  UNL     1      27.207  -9.701 -34.780  0.00  0.00    +0.000 N 
ATOM     20  H11 UNL     1      27.091 -10.704 -35.059  0.00  0.00    +0.000 HD
BRANCH  19  21
ATOM     21  C13 UNL     1      28.339  -9.334 -33.979  0.00  0.00    +0.000 C 
ATOM     22  C14 UNL     1      28.209  -8.321 -33.017  0.00  0.00    +0.000 C 
ATOM     23  C15 UNL     1      29.310  -7.939 -32.242  0.00  0.00    +0.000 C 
ATOM     24  C16 UNL     1      30.550  -8.558 -32.433  0.00  0.00    +0.000 C 
ATOM     25  C17 UNL     1      30.690  -9.557 -33.402  0.00  0.00    +0.000 C 
ATOM     26  C18 UNL     1      29.590  -9.941 -34.176  0.00  0.00    +0.000 C 
ENDBRANCH  19  21
ENDBRANCH  17  19
ENDBRANCH   3   7
BRANCH   1  28
ATOM     27  C1  UNL     1      25.985 -10.393 -41.095  0.00  0.00    +0.000 C 
ATOM     28  O1  UNL     1      27.060 -10.769 -40.238  0.00  0.00    +0.000 OA
ENDBRANCH   1  28
BRANCH   6  29
ATOM     29  O3  UNL     1      29.762 -10.371 -40.336  0.00  0.00    +0.000 OA
BRANCH  29  30
ATOM     30  C22 UNL     1      30.538  -9.712 -41.338  0.00  0.00    +0.000 C 
BRANCH  30  31
ATOM     31  C23 UNL     1      29.697  -8.725 -42.085  0.00  0.00    +0.000 C 
ATOM     32  C24 UNL     1      28.950  -8.972 -43.215  0.00  0.00    +0.000 C 
ATOM     33  N4  UNL     1      28.375  -7.801 -43.538  0.00  0.00    +0.000 N 
ATOM     34  N6  UNL     1      28.769  -6.884 -42.669  0.00  0.00    +0.000 NA
ATOM     35  N7  UNL     1      29.576  -7.422 -41.766  0.00  0.00    +0.000 NA
BRANCH  33  36
ATOM     36  C25 UNL     1      27.545  -7.531 -44.706  0.00  0.00    +0.000 C 
BRANCH  36  37
ATOM     37  C26 UNL     1      26.235  -6.949 -44.273  0.00  0.00    +0.000 C 
ATOM     38  O4  UNL     1      25.675  -6.077 -44.990  0.00  0.00    +0.000 OA
ATOM     39  N5  UNL     1      25.637  -7.376 -43.039  0.00  0.00    +0.000 N 
ATOM     40  H24 UNL     1      26.260  -7.829 -42.330  0.00  0.00    +0.000 HD
BRANCH  39  41
ATOM     41  C27 UNL     1      24.270  -7.117 -42.675  0.00  0.00    +0.000 C 
ATOM     42  C28 UNL     1      23.198  -7.692 -43.383  0.00  0.00    +0.000 C 
ATOM     43  C29 UNL     1      21.878  -7.440 -42.992  0.00  0.00    +0.000 C 
ATOM     44  C30 UNL     1      21.619  -6.624 -41.888  0.00  0.00    +0.000 C 
ATOM     45  C31 UNL     1      22.677  -6.069 -41.164  0.00  0.00    +0.000 C 
ATOM     46  C32 UNL     1      23.998  -6.320 -41.551  0.00  0.00    +0.000 C 
ENDBRANCH  39  41
ENDBRANCH  36  37
ENDBRANCH  33  36
ENDBRANCH  30  31
ENDBRANCH  29  30
ENDBRANCH   6  29
TORSDOF 10
