REMARK  Name = resultss/4CJN/ligands/lig_441_t0.pdb
REMARK  9 active torsions:
REMARK  status: ('A' for Active; 'I' for Inactive)
REMARK    1  A    between atoms: N3_1  and  N2_25
REMARK    2  A    between atoms: C6_2  and  C7_5
REMARK    3  A    between atoms: C17_16  and  C18_19
REMARK    4  A    between atoms: N2_25  and  C5_27
REMARK    5  A    between atoms: C5_27  and  N1_29
REMARK    6  A    between atoms: N1_29  and  C4_33
REMARK    7  A    between atoms: C2_31  and  O1_38
REMARK    8  A    between atoms: C25_35  and  O3_39
REMARK    9  A    between atoms: C27_36  and  O4_41
REMARK                            x       y       z     vdW  Elec       q    Type
REMARK                         _______ _______ _______ _____ _____    ______ ____
ROOT
ATOM      1  N3  UNL     1      29.557  -9.681 -36.236  0.00  0.00    +0.000 N 
ATOM      2  C6  UNL     1      28.281  -9.999 -36.807  0.00  0.00    +0.000 C 
ATOM      3  O2  UNL     1      27.327 -10.341 -36.057  0.00  0.00    +0.000 OA
ATOM      4  H7  UNL     1      30.398  -9.614 -36.853  0.00  0.00    +0.000 HD
ENDROOT
BRANCH   2   5
ATOM      5  C7  UNL     1      28.071  -9.934 -38.263  0.00  0.00    +0.000 C 
ATOM      6  C8  UNL     1      26.846  -9.472 -38.789  0.00  0.00    +0.000 C 
ATOM      7  C9  UNL     1      26.737  -9.399 -40.172  0.00  0.00    +0.000 A 
ATOM      8  C10 UNL     1      27.786  -9.730 -41.007  0.00  0.00    +0.000 A 
ATOM      9  N4  UNL     1      27.435  -9.607 -42.308  0.00  0.00    +0.000 N 
ATOM     10  C11 UNL     1      26.150  -9.183 -42.282  0.00  0.00    +0.000 A 
ATOM     11  C12 UNL     1      25.337  -8.897 -43.376  0.00  0.00    +0.000 C 
ATOM     12  C13 UNL     1      24.024  -8.453 -43.124  0.00  0.00    +0.000 C 
ATOM     13  C14 UNL     1      23.555  -8.314 -41.799  0.00  0.00    +0.000 C 
ATOM     14  C15 UNL     1      24.391  -8.616 -40.709  0.00  0.00    +0.000 C 
ATOM     15  C16 UNL     1      25.688  -9.042 -40.989  0.00  0.00    +0.000 A 
ATOM     16  C17 UNL     1      29.000 -10.176 -40.472  0.00  0.00    +0.000 C 
ATOM     17  N5  UNL     1      29.094 -10.275 -39.110  0.00  0.00    +0.000 NA
ATOM     18  H9  UNL     1      28.004  -9.826 -43.155  0.00  0.00    +0.000 HD
BRANCH  16  19
ATOM     19  C18 UNL     1      30.181 -10.482 -41.307  0.00  0.00    +0.000 C 
ATOM     20  C19 UNL     1      31.405  -9.826 -41.089  0.00  0.00    +0.000 C 
ATOM     21  C20 UNL     1      32.531 -10.160 -41.850  0.00  0.00    +0.000 C 
ATOM     22  C21 UNL     1      32.446 -11.154 -42.827  0.00  0.00    +0.000 C 
ATOM     23  C22 UNL     1      31.238 -11.823 -43.039  0.00  0.00    +0.000 C 
ATOM     24  C23 UNL     1      30.112 -11.497 -42.276  0.00  0.00    +0.000 C 
ENDBRANCH  16  19
ENDBRANCH   2   5
BRANCH   1  25
ATOM     25  N2  UNL     1      29.682  -9.427 -34.861  0.00  0.00    +0.000 N 
ATOM     26  H6  UNL     1      29.790 -10.228 -34.197  0.00  0.00    +0.000 HD
BRANCH  25  27
ATOM     27  C5  UNL     1      29.689  -8.095 -34.329  0.00  0.00    +0.000 C 
ATOM     28  S1  UNL     1      31.045  -7.171 -34.391  0.00  0.00    +0.000 S 
BRANCH  27  29
ATOM     29  N1  UNL     1      28.574  -7.645 -33.552  0.00  0.00    +0.000 N 
ATOM     30  H5  UNL     1      28.765  -7.319 -32.575  0.00  0.00    +0.000 HD
BRANCH  29  33
ATOM     31  C2  UNL     1      25.563  -6.916 -35.663  0.00  0.00    +0.000 C 
ATOM     32  C3  UNL     1      26.874  -6.899 -35.149  0.00  0.00    +0.000 C 
ATOM     33  C4  UNL     1      27.217  -7.670 -34.032  0.00  0.00    +0.000 C 
ATOM     34  C24 UNL     1      26.238  -8.471 -33.422  0.00  0.00    +0.000 C 
ATOM     35  C25 UNL     1      24.928  -8.517 -33.936  0.00  0.00    +0.000 C 
ATOM     36  C27 UNL     1      24.599  -7.755 -35.068  0.00  0.00    +0.000 C 
BRANCH  31  38
ATOM     37  C1  UNL     1      25.699  -6.189 -38.060  0.00  0.00    +0.000 C 
ATOM     38  O1  UNL     1      25.182  -6.094 -36.737  0.00  0.00    +0.000 OA
ENDBRANCH  31  38
BRANCH  35  39
ATOM     39  O3  UNL     1      23.928  -9.321 -33.362  0.00  0.00    +0.000 OA
ATOM     40  C26 UNL     1      23.172  -8.977 -32.206  0.00  0.00    +0.000 C 
ENDBRANCH  35  39
BRANCH  36  41
ATOM     41  O4  UNL     1      23.295  -7.838 -35.570  0.00  0.00    +0.000 OA
ATOM     42  C28 UNL     1      22.267  -6.914 -35.220  0.00  0.00    +0.000 C 
ENDBRANCH  36  41
ENDBRANCH  29  33
ENDBRANCH  27  29
ENDBRANCH  25  27
ENDBRANCH   1  25
TORSDOF 9
