REMARK  Name = resultss/4CJN/ligands/lig_368_t2.pdb
REMARK  8 active torsions:
REMARK  status: ('A' for Active; 'I' for Inactive)
REMARK    1  A    between atoms: C6_1  and  C7_2
REMARK    2  A    between atoms: C6_1  and  C17_16
REMARK    3  A    between atoms: C6_1  and  C5_32
REMARK    4  A    between atoms: C16_13  and  O4_14
REMARK    5  A    between atoms: C26_27  and  O7_28
REMARK    6  A    between atoms: C3_30  and  O1_38
REMARK    7  A    between atoms: C29_35  and  O8_36
REMARK    8  A    between atoms: O1_38  and  C2_40
REMARK                            x       y       z     vdW  Elec       q    Type
REMARK                         _______ _______ _______ _____ _____    ______ ____
ROOT
ATOM      1  C6  UNL     1      28.902  -7.734 -35.607  0.00  0.00    +0.000 C 
ENDROOT
BRANCH   1   2
ATOM      2  C7  UNL     1      30.109  -8.150 -34.756  0.00  0.00    +0.000 A 
ATOM      3  C8  UNL     1      30.035  -9.301 -33.941  0.00  0.00    +0.000 A 
ATOM      4  O2  UNL     1      28.976  -9.987 -33.905  0.00  0.00    +0.000 OA
ATOM      5  C9  UNL     1      31.145  -9.685 -33.170  0.00  0.00    +0.000 A 
ATOM      6  C10 UNL     1      31.117 -10.810 -32.324  0.00  0.00    +0.000 C 
ATOM      7  C11 UNL     1      32.243 -11.149 -31.558  0.00  0.00    +0.000 C 
ATOM      8  C12 UNL     1      32.225 -12.371 -30.687  0.00  0.00    +0.000 C 
ATOM      9  C13 UNL     1      33.410 -10.378 -31.664  0.00  0.00    +0.000 C 
ATOM     10  C14 UNL     1      33.445  -9.263 -32.504  0.00  0.00    +0.000 C 
ATOM     11  C15 UNL     1      32.320  -8.912 -33.255  0.00  0.00    +0.000 A 
ATOM     12  O3  UNL     1      32.371  -7.856 -34.057  0.00  0.00    +0.000 OA
ATOM     13  C16 UNL     1      31.344  -7.458 -34.801  0.00  0.00    +0.000 A 
BRANCH  13  14
ATOM     14  O4  UNL     1      31.519  -6.361 -35.637  0.00  0.00    +0.000 OA
ATOM     15  H14 UNL     1      30.835  -5.615 -35.664  0.00  0.00    +0.000 HD
ENDBRANCH  13  14
ENDBRANCH   1   2
BRANCH   1  16
ATOM     16  C17 UNL     1      28.646  -8.674 -36.796  0.00  0.00    +0.000 A 
ATOM     17  C18 UNL     1      29.289  -8.522 -38.053  0.00  0.00    +0.000 A 
ATOM     18  O5  UNL     1      30.079  -7.563 -38.264  0.00  0.00    +0.000 OA
ATOM     19  C19 UNL     1      29.031  -9.438 -39.087  0.00  0.00    +0.000 A 
ATOM     20  C20 UNL     1      29.657  -9.344 -40.346  0.00  0.00    +0.000 C 
ATOM     21  C21 UNL     1      29.381 -10.287 -41.348  0.00  0.00    +0.000 C 
ATOM     22  C22 UNL     1      30.019 -10.160 -42.699  0.00  0.00    +0.000 C 
ATOM     23  C23 UNL     1      28.454 -11.310 -41.099  0.00  0.00    +0.000 C 
ATOM     24  C24 UNL     1      27.829 -11.407 -39.854  0.00  0.00    +0.000 C 
ATOM     25  C25 UNL     1      28.112 -10.477 -38.849  0.00  0.00    +0.000 A 
ATOM     26  O6  UNL     1      27.502 -10.576 -37.678  0.00  0.00    +0.000 OA
ATOM     27  C26 UNL     1      27.710  -9.738 -36.669  0.00  0.00    +0.000 A 
BRANCH  27  28
ATOM     28  O7  UNL     1      26.968  -9.950 -35.504  0.00  0.00    +0.000 OA
ATOM     29  H21 UNL     1      26.019 -10.297 -35.487  0.00  0.00    +0.000 HD
ENDBRANCH  27  28
ENDBRANCH   1  16
BRANCH   1  32
ATOM     30  C3  UNL     1      25.308  -6.779 -34.550  0.00  0.00    +0.000 C 
ATOM     31  C4  UNL     1      26.415  -7.122 -35.351  0.00  0.00    +0.000 C 
ATOM     32  C5  UNL     1      27.670  -7.398 -34.770  0.00  0.00    +0.000 C 
ATOM     33  C27 UNL     1      27.800  -7.314 -33.373  0.00  0.00    +0.000 C 
ATOM     34  C28 UNL     1      26.704  -6.984 -32.575  0.00  0.00    +0.000 C 
ATOM     35  C29 UNL     1      25.460  -6.720 -33.158  0.00  0.00    +0.000 C 
BRANCH  35  36
ATOM     36  O8  UNL     1      24.367  -6.389 -32.359  0.00  0.00    +0.000 OA
ATOM     37  H24 UNL     1      24.452  -6.298 -31.354  0.00  0.00    +0.000 HD
ENDBRANCH  35  36
BRANCH  30  38
ATOM     38  O1  UNL     1      24.042  -6.493 -35.091  0.00  0.00    +0.000 OA
BRANCH  38  40
ATOM     39  C1  UNL     1      22.428  -8.239 -34.584  0.00  0.00    +0.000 C 
ATOM     40  C2  UNL     1      23.148  -7.445 -35.669  0.00  0.00    +0.000 C 
ENDBRANCH  38  40
ENDBRANCH  30  38
ENDBRANCH   1  32
TORSDOF 8
