REMARK  Name = resultss/4CJN/ligands/lig_427_t0.pdb
REMARK  8 active torsions:
REMARK  status: ('A' for Active; 'I' for Inactive)
REMARK    1  A    between atoms: C11_1  and  C10_22
REMARK    2  A    between atoms: C21_12  and  C22_15
REMARK    3  A    between atoms: N3_21  and  N2_25
REMARK    4  A    between atoms: N2_25  and  C9_27
REMARK    5  A    between atoms: C9_27  and  N1_29
REMARK    6  A    between atoms: N1_29  and  C8_36
REMARK    7  A    between atoms: C3_31  and  O1_37
REMARK    8  A    between atoms: O1_37  and  C2_39
REMARK                            x       y       z     vdW  Elec       q    Type
REMARK                         _______ _______ _______ _____ _____    ______ ____
ROOT
ATOM      1  C11 UNL     1      25.317  -8.413 -38.385  0.00  0.00    +0.000 C 
ATOM      2  C12 UNL     1      26.678  -8.789 -38.396  0.00  0.00    +0.000 C 
ATOM      3  C13 UNL     1      27.312  -8.915 -37.165  0.00  0.00    +0.000 A 
ATOM      4  C14 UNL     1      26.653  -8.695 -35.975  0.00  0.00    +0.000 A 
ATOM      5  N4  UNL     1      27.492  -8.818 -34.919  0.00  0.00    +0.000 N 
ATOM      6  C15 UNL     1      28.687  -9.136 -35.462  0.00  0.00    +0.000 A 
ATOM      7  C16 UNL     1      29.886  -9.358 -34.786  0.00  0.00    +0.000 C 
ATOM      8  C17 UNL     1      31.028  -9.660 -35.551  0.00  0.00    +0.000 C 
ATOM      9  C18 UNL     1      30.951  -9.728 -36.961  0.00  0.00    +0.000 C 
ATOM     10  C19 UNL     1      29.731  -9.496 -37.621  0.00  0.00    +0.000 C 
ATOM     11  C20 UNL     1      28.616  -9.206 -36.837  0.00  0.00    +0.000 A 
ATOM     12  C21 UNL     1      25.298  -8.339 -35.978  0.00  0.00    +0.000 C 
ATOM     13  N5  UNL     1      24.680  -8.202 -37.189  0.00  0.00    +0.000 NA
ATOM     14  H14 UNL     1      27.285  -8.668 -33.907  0.00  0.00    +0.000 HD
ENDROOT
BRANCH  12  15
ATOM     15  C22 UNL     1      24.527  -8.105 -34.739  0.00  0.00    +0.000 C 
ATOM     16  C23 UNL     1      24.213  -9.164 -33.870  0.00  0.00    +0.000 C 
ATOM     17  C24 UNL     1      23.462  -8.930 -32.714  0.00  0.00    +0.000 C 
ATOM     18  C25 UNL     1      23.006  -7.642 -32.423  0.00  0.00    +0.000 C 
ATOM     19  C26 UNL     1      23.296  -6.587 -33.293  0.00  0.00    +0.000 C 
ATOM     20  C27 UNL     1      24.046  -6.816 -34.450  0.00  0.00    +0.000 C 
ENDBRANCH  12  15
BRANCH   1  22
ATOM     21  N3  UNL     1      24.163  -9.409 -40.402  0.00  0.00    +0.000 N 
ATOM     22  C10 UNL     1      24.565  -8.255 -39.647  0.00  0.00    +0.000 C 
ATOM     23  O2  UNL     1      24.262  -7.102 -40.057  0.00  0.00    +0.000 OA
ATOM     24  H12 UNL     1      24.102 -10.332 -39.916  0.00  0.00    +0.000 HD
BRANCH  21  25
ATOM     25  N2  UNL     1      23.647  -9.312 -41.706  0.00  0.00    +0.000 N 
ATOM     26  H11 UNL     1      22.693  -9.697 -41.892  0.00  0.00    +0.000 HD
BRANCH  25  27
ATOM     27  C9  UNL     1      24.432  -8.847 -42.814  0.00  0.00    +0.000 C 
ATOM     28  S1  UNL     1      23.856  -7.609 -43.724  0.00  0.00    +0.000 S 
BRANCH  27  29
ATOM     29  N1  UNL     1      25.566  -9.611 -43.261  0.00  0.00    +0.000 N 
ATOM     30  H10 UNL     1      25.413 -10.310 -44.023  0.00  0.00    +0.000 HD
BRANCH  29  36
ATOM     31  C3  UNL     1      27.762  -8.478 -43.496  0.00  0.00    +0.000 C 
ATOM     32  C4  UNL     1      29.075  -8.280 -43.023  0.00  0.00    +0.000 C 
ATOM     33  C5  UNL     1      29.524  -8.951 -41.882  0.00  0.00    +0.000 C 
ATOM     34  C6  UNL     1      28.669  -9.815 -41.197  0.00  0.00    +0.000 C 
ATOM     35  C7  UNL     1      27.369 -10.024 -41.660  0.00  0.00    +0.000 C 
ATOM     36  C8  UNL     1      26.915  -9.381 -42.820  0.00  0.00    +0.000 C 
BRANCH  31  37
ATOM     37  O1  UNL     1      27.266  -7.783 -44.610  0.00  0.00    +0.000 OA
BRANCH  37  39
ATOM     38  C1  UNL     1      27.264  -7.056 -46.899  0.00  0.00    +0.000 C 
ATOM     39  C2  UNL     1      28.071  -7.178 -45.618  0.00  0.00    +0.000 C 
ENDBRANCH  37  39
ENDBRANCH  31  37
ENDBRANCH  29  36
ENDBRANCH  27  29
ENDBRANCH  25  27
ENDBRANCH  21  25
ENDBRANCH   1  22
TORSDOF 8
