REMARK  Name = resultss/4CJN/ligands/lig_441_t0.pdb
REMARK  9 active torsions:
REMARK  status: ('A' for Active; 'I' for Inactive)
REMARK    1  A    between atoms: N3_1  and  N2_25
REMARK    2  A    between atoms: C6_2  and  C7_5
REMARK    3  A    between atoms: C17_16  and  C18_19
REMARK    4  A    between atoms: N2_25  and  C5_27
REMARK    5  A    between atoms: C5_27  and  N1_29
REMARK    6  A    between atoms: N1_29  and  C4_33
REMARK    7  A    between atoms: C2_31  and  O1_38
REMARK    8  A    between atoms: C25_35  and  O3_39
REMARK    9  A    between atoms: C27_36  and  O4_41
REMARK                            x       y       z     vdW  Elec       q    Type
REMARK                         _______ _______ _______ _____ _____    ______ ____
ROOT
ATOM      1  N3  UNL     1      26.309  -9.644 -40.002  0.00  0.00    +0.000 N 
ATOM      2  C6  UNL     1      27.311 -10.294 -39.211  0.00  0.00    +0.000 C 
ATOM      3  O2  UNL     1      28.058 -11.164 -39.737  0.00  0.00    +0.000 OA
ATOM      4  H7  UNL     1      25.553  -9.096 -39.531  0.00  0.00    +0.000 HD
ENDROOT
BRANCH   2   5
ATOM      5  C7  UNL     1      27.480  -9.961 -37.786  0.00  0.00    +0.000 C 
ATOM      6  C8  UNL     1      28.769  -9.881 -37.218  0.00  0.00    +0.000 C 
ATOM      7  C9  UNL     1      28.850  -9.520 -35.879  0.00  0.00    +0.000 A 
ATOM      8  C10 UNL     1      27.728  -9.218 -35.133  0.00  0.00    +0.000 A 
ATOM      9  N4  UNL     1      28.054  -8.924 -33.853  0.00  0.00    +0.000 N 
ATOM     10  C11 UNL     1      29.402  -9.034 -33.805  0.00  0.00    +0.000 A 
ATOM     11  C12 UNL     1      30.223  -8.819 -32.701  0.00  0.00    +0.000 C 
ATOM     12  C13 UNL     1      31.612  -8.977 -32.872  0.00  0.00    +0.000 C 
ATOM     13  C14 UNL     1      32.143  -9.351 -34.126  0.00  0.00    +0.000 C 
ATOM     14  C15 UNL     1      31.294  -9.572 -35.225  0.00  0.00    +0.000 C 
ATOM     15  C16 UNL     1      29.925  -9.396 -35.029  0.00  0.00    +0.000 A 
ATOM     16  C17 UNL     1      26.456  -9.290 -35.713  0.00  0.00    +0.000 C 
ATOM     17  N5  UNL     1      26.377  -9.675 -37.023  0.00  0.00    +0.000 NA
ATOM     18  H9  UNL     1      27.416  -8.699 -33.058  0.00  0.00    +0.000 HD
BRANCH  16  19
ATOM     19  C18 UNL     1      25.221  -8.917 -34.989  0.00  0.00    +0.000 C 
ATOM     20  C19 UNL     1      24.227  -8.143 -35.615  0.00  0.00    +0.000 C 
ATOM     21  C20 UNL     1      23.041  -7.839 -34.939  0.00  0.00    +0.000 C 
ATOM     22  C21 UNL     1      22.833  -8.308 -33.641  0.00  0.00    +0.000 C 
ATOM     23  C22 UNL     1      23.808  -9.091 -33.017  0.00  0.00    +0.000 C 
ATOM     24  C23 UNL     1      24.993  -9.403 -33.691  0.00  0.00    +0.000 C 
ENDBRANCH  16  19
ENDBRANCH   2   5
BRANCH   1  25
ATOM     25  N2  UNL     1      26.349  -9.710 -41.404  0.00  0.00    +0.000 N 
ATOM     26  H6  UNL     1      25.941 -10.540 -41.892  0.00  0.00    +0.000 HD
BRANCH  25  27
ATOM     27  C5  UNL     1      26.915  -8.661 -42.201  0.00  0.00    +0.000 C 
ATOM     28  S1  UNL     1      26.090  -7.265 -42.465  0.00  0.00    +0.000 S 
BRANCH  27  29
ATOM     29  N1  UNL     1      28.113  -8.913 -42.943  0.00  0.00    +0.000 N 
ATOM     30  H5  UNL     1      28.045  -8.912 -43.988  0.00  0.00    +0.000 HD
BRANCH  29  33
ATOM     31  C2  UNL     1      31.418 -10.553 -42.281  0.00  0.00    +0.000 C 
ATOM     32  C3  UNL     1      30.165 -10.246 -42.844  0.00  0.00    +0.000 C 
ATOM     33  C4  UNL     1      29.376  -9.213 -42.322  0.00  0.00    +0.000 C 
ATOM     34  C24 UNL     1      29.848  -8.476 -41.224  0.00  0.00    +0.000 C 
ATOM     35  C25 UNL     1      31.108  -8.755 -40.661  0.00  0.00    +0.000 C 
ATOM     36  C27 UNL     1      31.899  -9.779 -41.204  0.00  0.00    +0.000 C 
BRANCH  31  38
ATOM     37  C1  UNL     1      31.666 -12.812 -43.344  0.00  0.00    +0.000 C 
ATOM     38  O1  UNL     1      32.190 -11.632 -42.743  0.00  0.00    +0.000 OA
ENDBRANCH  31  38
BRANCH  35  39
ATOM     39  O3  UNL     1      31.619  -8.026 -39.574  0.00  0.00    +0.000 OA
ATOM     40  C26 UNL     1      32.250  -6.753 -39.675  0.00  0.00    +0.000 C 
ENDBRANCH  35  39
BRANCH  36  41
ATOM     41  O4  UNL     1      33.157 -10.019 -40.638  0.00  0.00    +0.000 OA
ATOM     42  C28 UNL     1      34.368  -9.508 -41.189  0.00  0.00    +0.000 C 
ENDBRANCH  36  41
ENDBRANCH  29  33
ENDBRANCH  27  29
ENDBRANCH  25  27
ENDBRANCH   1  25
TORSDOF 9
