REMARK  Name = resultss/4CJN/ligands/lig_439_t0.pdb
REMARK  8 active torsions:
REMARK  status: ('A' for Active; 'I' for Inactive)
REMARK    1  A    between atoms: N3_1  and  N2_25
REMARK    2  A    between atoms: C7_2  and  C8_5
REMARK    3  A    between atoms: C18_16  and  C19_19
REMARK    4  A    between atoms: N2_25  and  C6_27
REMARK    5  A    between atoms: C6_27  and  N1_29
REMARK    6  A    between atoms: N1_29  and  C5_34
REMARK    7  A    between atoms: C2_31  and  O1_38
REMARK    8  A    between atoms: C26_36  and  O3_39
REMARK                            x       y       z     vdW  Elec       q    Type
REMARK                         _______ _______ _______ _____ _____    ______ ____
ROOT
ATOM      1  N3  UNL     1      28.715 -10.941 -39.657  0.00  0.00    +0.000 N 
ATOM      2  C7  UNL     1      27.634 -10.240 -39.023  0.00  0.00    +0.000 C 
ATOM      3  O2  UNL     1      26.613  -9.927 -39.695  0.00  0.00    +0.000 OA
ATOM      4  H8  UNL     1      29.383 -11.479 -39.060  0.00  0.00    +0.000 HD
ENDROOT
BRANCH   2   5
ATOM      5  C8  UNL     1      27.707  -9.892 -37.590  0.00  0.00    +0.000 C 
ATOM      6  C9  UNL     1      28.937  -9.922 -36.899  0.00  0.00    +0.000 C 
ATOM      7  C10 UNL     1      28.920  -9.576 -35.554  0.00  0.00    +0.000 A 
ATOM      8  C11 UNL     1      27.758  -9.227 -34.902  0.00  0.00    +0.000 A 
ATOM      9  N4  UNL     1      28.001  -8.868 -33.618  0.00  0.00    +0.000 N 
ATOM     10  C12 UNL     1      29.335  -9.015 -33.466  0.00  0.00    +0.000 A 
ATOM     11  C13 UNL     1      30.086  -8.759 -32.319  0.00  0.00    +0.000 C 
ATOM     12  C14 UNL     1      31.477  -8.960 -32.383  0.00  0.00    +0.000 C 
ATOM     13  C15 UNL     1      32.086  -9.403 -33.579  0.00  0.00    +0.000 C 
ATOM     14  C16 UNL     1      31.309  -9.651 -34.726  0.00  0.00    +0.000 C 
ATOM     15  C17 UNL     1      29.933  -9.449 -34.631  0.00  0.00    +0.000 A 
ATOM     16  C18 UNL     1      26.537  -9.222 -35.591  0.00  0.00    +0.000 C 
ATOM     17  N5  UNL     1      26.561  -9.548 -36.920  0.00  0.00    +0.000 NA
ATOM     18  H10 UNL     1      27.326  -8.517 -32.904  0.00  0.00    +0.000 HD
BRANCH  16  19
ATOM     19  C19 UNL     1      25.249  -8.887 -34.949  0.00  0.00    +0.000 C 
ATOM     20  C20 UNL     1      24.279  -8.168 -35.667  0.00  0.00    +0.000 C 
ATOM     21  C21 UNL     1      23.045  -7.868 -35.080  0.00  0.00    +0.000 C 
ATOM     22  C22 UNL     1      22.766  -8.295 -33.779  0.00  0.00    +0.000 C 
ATOM     23  C23 UNL     1      23.716  -9.030 -33.066  0.00  0.00    +0.000 C 
ATOM     24  C24 UNL     1      24.951  -9.332 -33.649  0.00  0.00    +0.000 C 
ENDBRANCH  16  19
ENDBRANCH   2   5
BRANCH   1  25
ATOM     25  N2  UNL     1      28.746 -11.158 -41.044  0.00  0.00    +0.000 N 
ATOM     26  H7  UNL     1      28.412 -12.077 -41.413  0.00  0.00    +0.000 HD
BRANCH  25  27
ATOM     27  C6  UNL     1      29.334 -10.225 -41.961  0.00  0.00    +0.000 C 
ATOM     28  S1  UNL     1      30.541 -10.748 -42.943  0.00  0.00    +0.000 S 
BRANCH  27  29
ATOM     29  N1  UNL     1      28.836  -8.874 -42.045  0.00  0.00    +0.000 N 
ATOM     30  H6  UNL     1      29.176  -8.172 -41.353  0.00  0.00    +0.000 HD
BRANCH  29  34
ATOM     31  C2  UNL     1      25.986  -7.420 -44.848  0.00  0.00    +0.000 C 
ATOM     32  C3  UNL     1      27.361  -7.213 -45.065  0.00  0.00    +0.000 C 
ATOM     33  C4  UNL     1      28.301  -7.693 -44.152  0.00  0.00    +0.000 C 
ATOM     34  C5  UNL     1      27.888  -8.409 -43.019  0.00  0.00    +0.000 C 
ATOM     35  C25 UNL     1      26.519  -8.593 -42.786  0.00  0.00    +0.000 C 
ATOM     36  C26 UNL     1      25.563  -8.109 -43.700  0.00  0.00    +0.000 C 
BRANCH  31  38
ATOM     37  C1  UNL     1      25.106  -7.049 -47.161  0.00  0.00    +0.000 C 
ATOM     38  O1  UNL     1      25.012  -6.951 -45.743  0.00  0.00    +0.000 OA
ENDBRANCH  31  38
BRANCH  36  39
ATOM     39  O3  UNL     1      24.184  -8.289 -43.502  0.00  0.00    +0.000 OA
ATOM     40  C27 UNL     1      23.596  -8.728 -42.282  0.00  0.00    +0.000 C 
ENDBRANCH  36  39
ENDBRANCH  29  34
ENDBRANCH  27  29
ENDBRANCH  25  27
ENDBRANCH   1  25
TORSDOF 8
