REMARK  Name = resultss/4CJN/ligands/lig_357_t0.pdb
REMARK  9 active torsions:
REMARK  status: ('A' for Active; 'I' for Inactive)
REMARK    1  A    between atoms: C11_1  and  O2_27
REMARK    2  A    between atoms: C14_4  and  C15_7
REMARK    3  A    between atoms: N4_17  and  N5_19
REMARK    4  A    between atoms: N5_19  and  C23_21
REMARK    5  A    between atoms: O2_27  and  C10_28
REMARK    6  A    between atoms: C10_28  and  C9_31
REMARK    7  A    between atoms: N2_29  and  C7_34
REMARK    8  A    between atoms: C7_34  and  C6_36
REMARK    9  A    between atoms: N1_35  and  C5_43
REMARK                            x       y       z     vdW  Elec       q    Type
REMARK                         _______ _______ _______ _____ _____    ______ ____
ROOT
ATOM      1  C11 UNL     1      27.249  -7.824 -40.083  0.00  0.00    +0.000 C 
ATOM      2  C12 UNL     1      28.235  -7.057 -39.453  0.00  0.00    +0.000 C 
ATOM      3  C13 UNL     1      28.332  -7.027 -38.059  0.00  0.00    +0.000 C 
ATOM      4  C14 UNL     1      27.433  -7.760 -37.266  0.00  0.00    +0.000 C 
ATOM      5  C29 UNL     1      26.453  -8.544 -37.899  0.00  0.00    +0.000 C 
ATOM      6  C30 UNL     1      26.355  -8.573 -39.292  0.00  0.00    +0.000 C 
ENDROOT
BRANCH   4   7
ATOM      7  C15 UNL     1      27.550  -7.754 -35.757  0.00  0.00    +0.000 C 
ATOM      8  N3  UNL     1      26.611  -6.777 -35.202  0.00  0.00    +0.000 N 
ATOM      9  C16 UNL     1      25.319  -7.136 -34.696  0.00  0.00    +0.000 C 
ATOM     10  C17 UNL     1      24.355  -6.145 -34.457  0.00  0.00    +0.000 C 
ATOM     11  C18 UNL     1      23.099  -6.495 -33.947  0.00  0.00    +0.000 C 
ATOM     12  C19 UNL     1      22.802  -7.831 -33.672  0.00  0.00    +0.000 C 
ATOM     13  C20 UNL     1      23.758  -8.822 -33.907  0.00  0.00    +0.000 C 
ATOM     14  C21 UNL     1      25.021  -8.478 -34.423  0.00  0.00    +0.000 C 
ATOM     15  C22 UNL     1      26.058  -9.493 -34.662  0.00  0.00    +0.000 C 
ATOM     16  O3  UNL     1      25.839 -10.697 -34.358  0.00  0.00    +0.000 OA
ATOM     17  N4  UNL     1      27.332  -9.111 -35.216  0.00  0.00    +0.000 N 
ATOM     18  H15 UNL     1      26.835  -5.763 -35.331  0.00  0.00    +0.000 HD
BRANCH  17  19
ATOM     19  N5  UNL     1      28.320 -10.102 -35.397  0.00  0.00    +0.000 N 
ATOM     20  H20 UNL     1      28.381 -10.872 -34.694  0.00  0.00    +0.000 HD
BRANCH  19  21
ATOM     21  C23 UNL     1      29.540  -9.802 -36.082  0.00  0.00    +0.000 C 
ATOM     22  C24 UNL     1      29.739 -10.212 -37.410  0.00  0.00    +0.000 C 
ATOM     23  C25 UNL     1      30.942  -9.922 -38.061  0.00  0.00    +0.000 C 
ATOM     24  C26 UNL     1      31.958  -9.238 -37.385  0.00  0.00    +0.000 C 
ATOM     25  C27 UNL     1      31.774  -8.849 -36.054  0.00  0.00    +0.000 C 
ATOM     26  C28 UNL     1      30.570  -9.134 -35.402  0.00  0.00    +0.000 C 
ENDBRANCH  19  21
ENDBRANCH  17  19
ENDBRANCH   4   7
BRANCH   1  27
ATOM     27  O2  UNL     1      27.193  -7.807 -41.487  0.00  0.00    +0.000 OA
BRANCH  27  28
ATOM     28  C10 UNL     1      27.297  -8.953 -42.331  0.00  0.00    +0.000 C 
BRANCH  28  31
ATOM     29  N2  UNL     1      30.725 -10.080 -41.929  0.00  0.00    +0.000 N 
ATOM     30  C8  UNL     1      29.861  -9.136 -42.340  0.00  0.00    +0.000 C 
ATOM     31  C9  UNL     1      28.603  -9.652 -42.117  0.00  0.00    +0.000 C 
ATOM     32  N6  UNL     1      28.732 -10.877 -41.568  0.00  0.00    +0.000 NA
ATOM     33  N7  UNL     1      30.034 -11.111 -41.465  0.00  0.00    +0.000 NA
BRANCH  29  34
ATOM     34  C7  UNL     1      32.180  -9.979 -41.896  0.00  0.00    +0.000 C 
BRANCH  34  36
ATOM     35  N1  UNL     1      32.215 -11.181 -44.133  0.00  0.00    +0.000 N 
ATOM     36  C6  UNL     1      32.784 -10.982 -42.831  0.00  0.00    +0.000 C 
ATOM     37  O1  UNL     1      33.735 -11.708 -42.429  0.00  0.00    +0.000 OA
ATOM     38  H6  UNL     1      31.315 -10.695 -44.354  0.00  0.00    +0.000 HD
BRANCH  35  43
ATOM     39  C1  UNL     1      34.379 -14.977 -47.884  0.00  0.00    +0.000 C 
ATOM     40  C2  UNL     1      33.830 -13.988 -46.897  0.00  0.00    +0.000 C 
ATOM     41  C3  UNL     1      32.770 -14.348 -46.058  0.00  0.00    +0.000 C 
ATOM     42  C4  UNL     1      32.241 -13.424 -45.155  0.00  0.00    +0.000 C 
ATOM     43  C5  UNL     1      32.745 -12.113 -45.093  0.00  0.00    +0.000 C 
ATOM     44  C31 UNL     1      33.798 -11.735 -45.959  0.00  0.00    +0.000 C 
ATOM     45  C32 UNL     1      34.379 -10.348 -45.925  0.00  0.00    +0.000 C 
ATOM     46  C33 UNL     1      34.334 -12.679 -46.851  0.00  0.00    +0.000 C 
ENDBRANCH  35  43
ENDBRANCH  34  36
ENDBRANCH  29  34
ENDBRANCH  28  31
ENDBRANCH  27  28
ENDBRANCH   1  27
TORSDOF 9
