REMARK  Name = resultss/4CJN/ligands/lig_93_t0.pdb
REMARK  7 active torsions:
REMARK  status: ('A' for Active; 'I' for Inactive)
REMARK    1  A    between atoms: C6_6  and  C8_33
REMARK    2  A    between atoms: C9_8  and  O2_14
REMARK    3  A    between atoms: C14_13  and  C15_16
REMARK    4  A    between atoms: C16_17  and  C17_18
REMARK    5  A    between atoms: C20_21  and  C21_25
REMARK    6  A    between atoms: C24_28  and  O3_31
REMARK    7  A    between atoms: C8_33  and  O1_34
REMARK                            x       y       z     vdW  Elec       q    Type
REMARK                         _______ _______ _______ _____ _____    ______ ____
ROOT
ATOM      1  C1  UNL     1      30.320  -8.280 -34.268  0.00  0.00    +0.000 C 
ATOM      2  C2  UNL     1      28.979  -8.151 -34.256  0.00  0.00    +0.000 C 
ATOM      3  C3  UNL     1      28.345  -7.648 -32.975  0.00  0.00    +0.000 C 
ATOM      4  C4  UNL     1      26.868  -8.022 -32.843  0.00  0.00    +0.000 C 
ATOM      5  C5  UNL     1      26.079  -7.690 -34.136  0.00  0.00    +0.000 C 
ATOM      6  C6  UNL     1      24.494  -7.604 -33.975  0.00  0.00    +0.000 C 
ATOM      7  C7  UNL     1      24.145  -6.390 -33.064  0.00  0.00    +0.000 C 
ATOM      8  C9  UNL     1      23.871  -7.297 -35.380  0.00  0.00    +0.000 C 
ATOM      9  C10 UNL     1      24.355  -8.260 -36.478  0.00  0.00    +0.000 C 
ATOM     10  C11 UNL     1      25.869  -8.166 -36.645  0.00  0.00    +0.000 C 
ATOM     11  C12 UNL     1      26.651  -8.528 -35.348  0.00  0.00    +0.000 C 
ATOM     12  C13 UNL     1      26.565 -10.063 -35.104  0.00  0.00    +0.000 C 
ATOM     13  C14 UNL     1      28.163  -8.113 -35.557  0.00  0.00    +0.000 C 
ENDROOT
BRANCH   8  14
ATOM     14  O2  UNL     1      22.463  -7.247 -35.338  0.00  0.00    +0.000 OA
ATOM     15  H15 UNL     1      22.194  -6.460 -34.797  0.00  0.00    +0.000 HD
ENDBRANCH   8  14
BRANCH  13  16
ATOM     16  C15 UNL     1      28.810  -8.828 -36.738  0.00  0.00    +0.000 C 
ATOM     17  C16 UNL     1      29.233  -8.199 -37.842  0.00  0.00    +0.000 C 
BRANCH  17  18
ATOM     18  C17 UNL     1      29.888  -8.893 -38.968  0.00  0.00    +0.000 C 
ATOM     19  C18 UNL     1      29.231  -9.547 -39.921  0.00  0.00    +0.000 C 
ATOM     20  C19 UNL     1      30.215 -10.063 -40.875  0.00  0.00    +0.000 C 
ATOM     21  C20 UNL     1      29.929 -10.800 -41.954  0.00  0.00    +0.000 C 
ATOM     22  O4  UNL     1      31.491  -9.695 -40.469  0.00  0.00    +0.000 OA
ATOM     23  C28 UNL     1      31.315  -8.968 -39.304  0.00  0.00    +0.000 C 
ATOM     24  O5  UNL     1      32.260  -8.428 -38.672  0.00  0.00    +0.000 OA
BRANCH  21  25
ATOM     25  C21 UNL     1      30.948 -11.301 -42.904  0.00  0.00    +0.000 C 
ATOM     26  C22 UNL     1      31.648 -10.441 -43.769  0.00  0.00    +0.000 C 
ATOM     27  C23 UNL     1      32.584 -10.955 -44.674  0.00  0.00    +0.000 C 
ATOM     28  C24 UNL     1      32.824 -12.341 -44.736  0.00  0.00    +0.000 C 
ATOM     29  C26 UNL     1      32.112 -13.194 -43.889  0.00  0.00    +0.000 C 
ATOM     30  C27 UNL     1      31.175 -12.683 -42.986  0.00  0.00    +0.000 C 
BRANCH  28  31
ATOM     31  O3  UNL     1      33.751 -12.903 -45.626  0.00  0.00    +0.000 OA
ATOM     32  C25 UNL     1      33.493 -14.039 -46.445  0.00  0.00    +0.000 C 
ENDBRANCH  28  31
ENDBRANCH  21  25
ENDBRANCH  17  18
ENDBRANCH  13  16
BRANCH   6  33
ATOM     33  C8  UNL     1      23.794  -8.859 -33.349  0.00  0.00    +0.000 C 
BRANCH  33  34
ATOM     34  O1  UNL     1      23.288  -8.621 -32.063  0.00  0.00    +0.000 OA
ATOM     35  H13 UNL     1      23.608  -7.725 -31.783  0.00  0.00    +0.000 HD
ENDBRANCH  33  34
ENDBRANCH   6  33
TORSDOF 7
