REMARK  Name = resultss/4CJN/ligands/lig_372_t2.pdb
REMARK  7 active torsions:
REMARK  status: ('A' for Active; 'I' for Inactive)
REMARK    1  A    between atoms: C5_1  and  C6_2
REMARK    2  A    between atoms: C5_1  and  C15_16
REMARK    3  A    between atoms: C5_1  and  C4_32
REMARK    4  A    between atoms: C14_13  and  O4_14
REMARK    5  A    between atoms: C23_27  and  O7_28
REMARK    6  A    between atoms: C2_30  and  O1_37
REMARK    7  A    between atoms: C26_35  and  O8_38
REMARK                            x       y       z     vdW  Elec       q    Type
REMARK                         _______ _______ _______ _____ _____    ______ ____
ROOT
ATOM      1  C5  UNL     1      28.675  -9.924 -40.831  0.00  0.00    +0.000 C 
ENDROOT
BRANCH   1   2
ATOM      2  C6  UNL     1      28.921  -9.084 -39.572  0.00  0.00    +0.000 A 
ATOM      3  C7  UNL     1      28.766  -9.666 -38.294  0.00  0.00    +0.000 A 
ATOM      4  O2  UNL     1      28.416 -10.873 -38.184  0.00  0.00    +0.000 OA
ATOM      5  C8  UNL     1      29.006  -8.899 -37.142  0.00  0.00    +0.000 A 
ATOM      6  C9  UNL     1      28.846  -9.422 -35.846  0.00  0.00    +0.000 C 
ATOM      7  C10 UNL     1      29.095  -8.617 -34.727  0.00  0.00    +0.000 C 
ATOM      8 CL1  UNL     1      28.894  -9.274 -33.113  0.00  0.00    +0.000 Cl
ATOM      9  C11 UNL     1      29.504  -7.291 -34.895  0.00  0.00    +0.000 C 
ATOM     10  C12 UNL     1      29.667  -6.764 -36.178  0.00  0.00    +0.000 C 
ATOM     11  C13 UNL     1      29.421  -7.561 -37.302  0.00  0.00    +0.000 A 
ATOM     12  O3  UNL     1      29.589  -7.052 -38.516  0.00  0.00    +0.000 OA
ATOM     13  C14 UNL     1      29.373  -7.743 -39.630  0.00  0.00    +0.000 A 
BRANCH  13  14
ATOM     14  O4  UNL     1      29.620  -7.124 -40.850  0.00  0.00    +0.000 OA
ATOM     15  H9  UNL     1      30.344  -6.423 -40.939  0.00  0.00    +0.000 HD
ENDBRANCH  13  14
ENDBRANCH   1   2
BRANCH   1  16
ATOM     16  C15 UNL     1      27.690  -9.269 -41.814  0.00  0.00    +0.000 A 
ATOM     17  C16 UNL     1      26.287  -9.235 -41.594  0.00  0.00    +0.000 A 
ATOM     18  O5  UNL     1      25.776  -9.793 -40.584  0.00  0.00    +0.000 OA
ATOM     19  C17 UNL     1      25.449  -8.589 -42.516  0.00  0.00    +0.000 A 
ATOM     20  C18 UNL     1      24.054  -8.508 -42.334  0.00  0.00    +0.000 C 
ATOM     21  C19 UNL     1      23.258  -7.851 -43.280  0.00  0.00    +0.000 C 
ATOM     22 CL2  UNL     1      21.522  -7.752 -43.047  0.00  0.00    +0.000 Cl
ATOM     23  C20 UNL     1      23.845  -7.275 -44.411  0.00  0.00    +0.000 C 
ATOM     24  C21 UNL     1      25.227  -7.354 -44.600  0.00  0.00    +0.000 C 
ATOM     25  C22 UNL     1      26.030  -8.009 -43.661  0.00  0.00    +0.000 A 
ATOM     26  O6  UNL     1      27.338  -8.086 -43.859  0.00  0.00    +0.000 OA
ATOM     27  C23 UNL     1      28.172  -8.685 -43.018  0.00  0.00    +0.000 A 
BRANCH  27  28
ATOM     28  O7  UNL     1      29.522  -8.715 -43.378  0.00  0.00    +0.000 OA
ATOM     29  H13 UNL     1      30.094  -9.547 -43.377  0.00  0.00    +0.000 HD
ENDBRANCH  27  28
ENDBRANCH   1  16
BRANCH   1  32
ATOM     30  C2  UNL     1      32.391 -10.378 -41.797  0.00  0.00    +0.000 C 
ATOM     31  C3  UNL     1      31.226  -9.884 -41.179  0.00  0.00    +0.000 C 
ATOM     32  C4  UNL     1      29.962 -10.449 -41.458  0.00  0.00    +0.000 C 
ATOM     33  C24 UNL     1      29.886 -11.505 -42.383  0.00  0.00    +0.000 C 
ATOM     34  C25 UNL     1      31.037 -11.997 -42.998  0.00  0.00    +0.000 C 
ATOM     35  C26 UNL     1      32.286 -11.444 -42.709  0.00  0.00    +0.000 C 
BRANCH  30  37
ATOM     36  C1  UNL     1      33.955  -8.967 -40.444  0.00  0.00    +0.000 C 
ATOM     37  O1  UNL     1      33.659  -9.837 -41.532  0.00  0.00    +0.000 OA
ENDBRANCH  30  37
BRANCH  35  38
ATOM     38  O8  UNL     1      33.415 -11.964 -43.342  0.00  0.00    +0.000 OA
ATOM     39  H16 UNL     1      33.940 -11.436 -44.029  0.00  0.00    +0.000 HD
ENDBRANCH  35  38
ENDBRANCH   1  32
TORSDOF 7
