REMARK  Name = resultss/4CJN/ligands/lig_249_t0.pdb
REMARK  13 active torsions:
REMARK  status: ('A' for Active; 'I' for Inactive)
REMARK    1  A    between atoms: C4_1  and  C3_36
REMARK    2  A    between atoms: C6_3  and  C7_10
REMARK    3  A    between atoms: C27_6  and  S2_39
REMARK    4  A    between atoms: C9_12  and  C10_19
REMARK    5  A    between atoms: C14_15  and  S1_22
REMARK    6  A    between atoms: C10_19  and  C11_20
REMARK    7  A    between atoms: S1_22  and  C15_23
REMARK    8  A    between atoms: C15_23  and  C16_24
REMARK    9  A    between atoms: C17_27  and  C18_29
REMARK   10  A    between atoms: C3_36  and  C2_38
REMARK   11  A    between atoms: S2_39  and  C28_40
REMARK   12  A    between atoms: C28_40  and  C29_41
REMARK   13  A    between atoms: C30_44  and  C31_46
REMARK                            x       y       z     vdW  Elec       q    Type
REMARK                         _______ _______ _______ _____ _____    ______ ____
ROOT
ATOM      1  C4  UNL     1      24.558  -7.717 -35.215  0.00  0.00    +0.000 C 
ATOM      2  C5  UNL     1      24.883  -8.066 -36.550  0.00  0.00    +0.000 C 
ATOM      3  C6  UNL     1      26.219  -8.008 -37.019  0.00  0.00    +0.000 C 
ATOM      4  C26 UNL     1      27.190  -7.602 -36.094  0.00  0.00    +0.000 A 
ATOM      5  O3  UNL     1      28.486  -7.502 -36.243  0.00  0.00    +0.000 OA
ATOM      6  C27 UNL     1      28.951  -7.090 -35.075  0.00  0.00    +0.000 A 
ATOM      7  N6  UNL     1      27.987  -6.916 -34.133  0.00  0.00    +0.000 NA
ATOM      8  C37 UNL     1      26.877  -7.254 -34.812  0.00  0.00    +0.000 A 
ATOM      9  C38 UNL     1      25.576  -7.304 -34.328  0.00  0.00    +0.000 C 
ENDROOT
BRANCH   3  10
ATOM     10  C7  UNL     1      26.552  -8.365 -38.421  0.00  0.00    +0.000 C 
ATOM     11  C8  UNL     1      26.298  -9.680 -38.900  0.00  0.00    +0.000 C 
ATOM     12  C9  UNL     1      26.524 -10.020 -40.250  0.00  0.00    +0.000 C 
ATOM     13  C13 UNL     1      27.036  -9.023 -41.079  0.00  0.00    +0.000 A 
ATOM     14  O1  UNL     1      27.318  -9.078 -42.354  0.00  0.00    +0.000 OA
ATOM     15  C14 UNL     1      27.787  -7.882 -42.665  0.00  0.00    +0.000 A 
ATOM     16  N3  UNL     1      27.824  -7.019 -41.616  0.00  0.00    +0.000 NA
ATOM     17  C24 UNL     1      27.326  -7.773 -40.622  0.00  0.00    +0.000 A 
ATOM     18  C25 UNL     1      27.092  -7.397 -39.304  0.00  0.00    +0.000 C 
BRANCH  12  19
ATOM     19  C10 UNL     1      26.332 -11.428 -40.743  0.00  0.00    +0.000 C 
BRANCH  19  20
ATOM     20  C11 UNL     1      27.152 -12.362 -39.898  0.00  0.00    +0.000 C 
ATOM     21  C12 UNL     1      27.179 -13.681 -40.120  0.00  0.00    +0.000 C 
ENDBRANCH  19  20
ENDBRANCH  12  19
BRANCH  15  22
ATOM     22  S1  UNL     1      28.297  -7.425 -44.321  0.00  0.00    +0.000 S 
BRANCH  22  23
ATOM     23  C15 UNL     1      27.207  -5.967 -44.443  0.00  0.00    +0.000 C 
BRANCH  23  24
ATOM     24  C16 UNL     1      25.841  -6.425 -44.835  0.00  0.00    +0.000 A 
ATOM     25  N1  UNL     1      25.565  -7.041 -46.000  0.00  0.00    +0.000 NA
ATOM     26  N2  UNL     1      24.256  -7.228 -46.015  0.00  0.00    +0.000 NA
ATOM     27  C17 UNL     1      23.782  -6.722 -44.857  0.00  0.00    +0.000 A 
ATOM     28  O2  UNL     1      24.753  -6.222 -44.130  0.00  0.00    +0.000 OA
BRANCH  27  29
ATOM     29  C18 UNL     1      22.348  -6.695 -44.493  0.00  0.00    +0.000 C 
ATOM     30  C19 UNL     1      21.992  -6.599 -43.134  0.00  0.00    +0.000 C 
ATOM     31  C20 UNL     1      20.649  -6.632 -42.745  0.00  0.00    +0.000 C 
ATOM     32  C21 UNL     1      19.645  -6.749 -43.703  0.00  0.00    +0.000 C 
ATOM     33  C22 UNL     1      19.981  -6.824 -45.059  0.00  0.00    +0.000 C 
ATOM     34  C23 UNL     1      21.324  -6.790 -45.465  0.00  0.00    +0.000 C 
ATOM     35 BR1  UNL     1      21.684  -6.778 -47.354  0.00  0.00    +0.000 Br
ENDBRANCH  27  29
ENDBRANCH  23  24
ENDBRANCH  22  23
ENDBRANCH  15  22
ENDBRANCH   3  10
BRANCH   1  36
ATOM     36  C3  UNL     1      23.141  -7.846 -34.727  0.00  0.00    +0.000 C 
BRANCH  36  38
ATOM     37  C1  UNL     1      21.517  -6.124 -35.471  0.00  0.00    +0.000 C 
ATOM     38  C2  UNL     1      22.182  -7.255 -35.724  0.00  0.00    +0.000 C 
ENDBRANCH  36  38
ENDBRANCH   1  36
BRANCH   6  39
ATOM     39  S2  UNL     1      30.687  -6.788 -34.760  0.00  0.00    +0.000 S 
BRANCH  39  40
ATOM     40  C28 UNL     1      31.210  -8.475 -35.216  0.00  0.00    +0.000 C 
BRANCH  40  41
ATOM     41  C29 UNL     1      31.171  -9.371 -34.021  0.00  0.00    +0.000 A 
ATOM     42  N4  UNL     1      30.124  -9.469 -33.183  0.00  0.00    +0.000 NA
ATOM     43  N5  UNL     1      30.478 -10.350 -32.258  0.00  0.00    +0.000 NA
ATOM     44  C30 UNL     1      31.726 -10.753 -32.566  0.00  0.00    +0.000 A 
ATOM     45  O4  UNL     1      32.151 -10.160 -33.656  0.00  0.00    +0.000 OA
BRANCH  44  46
ATOM     46  C31 UNL     1      32.516 -11.754 -31.811  0.00  0.00    +0.000 C 
ATOM     47  C32 UNL     1      32.111 -13.099 -31.871  0.00  0.00    +0.000 C 
ATOM     48  C33 UNL     1      32.807 -14.089 -31.174  0.00  0.00    +0.000 C 
ATOM     49  C34 UNL     1      33.920 -13.753 -30.409  0.00  0.00    +0.000 C 
ATOM     50  C35 UNL     1      34.343 -12.424 -30.341  0.00  0.00    +0.000 C 
ATOM     51  C36 UNL     1      33.653 -11.420 -31.035  0.00  0.00    +0.000 C 
ATOM     52 BR2  UNL     1      34.379  -9.647 -30.926  0.00  0.00    +0.000 Br
ENDBRANCH  44  46
ENDBRANCH  40  41
ENDBRANCH  39  40
ENDBRANCH   6  39
TORSDOF 13
