REMARK  Name = resultss/4CJN/ligands/lig_437_t0.pdb
REMARK  8 active torsions:
REMARK  status: ('A' for Active; 'I' for Inactive)
REMARK    1  A    between atoms: N3_1  and  N2_25
REMARK    2  A    between atoms: C7_2  and  C8_5
REMARK    3  A    between atoms: C18_16  and  C19_19
REMARK    4  A    between atoms: N2_25  and  C6_27
REMARK    5  A    between atoms: C6_27  and  N1_29
REMARK    6  A    between atoms: N1_29  and  C5_34
REMARK    7  A    between atoms: C2_31  and  O1_38
REMARK    8  A    between atoms: C25_35  and  O3_39
REMARK                            x       y       z     vdW  Elec       q    Type
REMARK                         _______ _______ _______ _____ _____    ______ ____
ROOT
ATOM      1  N3  UNL     1      25.429  -8.358 -38.821  0.00  0.00    +0.000 N 
ATOM      2  C7  UNL     1      25.181  -8.943 -40.105  0.00  0.00    +0.000 C 
ATOM      3  O2  UNL     1      24.188  -9.703 -40.261  0.00  0.00    +0.000 OA
ATOM      4  H8  UNL     1      26.191  -7.651 -38.708  0.00  0.00    +0.000 HD
ENDROOT
BRANCH   2   5
ATOM      5  C8  UNL     1      26.068  -8.654 -41.244  0.00  0.00    +0.000 C 
ATOM      6  C9  UNL     1      25.583  -7.959 -42.371  0.00  0.00    +0.000 C 
ATOM      7  C10 UNL     1      26.475  -7.737 -43.411  0.00  0.00    +0.000 A 
ATOM      8  C11 UNL     1      27.781  -8.179 -43.364  0.00  0.00    +0.000 A 
ATOM      9  N4  UNL     1      28.438  -7.893 -44.513  0.00  0.00    +0.000 N 
ATOM     10  C12 UNL     1      27.532  -7.251 -45.279  0.00  0.00    +0.000 A 
ATOM     11  C13 UNL     1      27.727  -6.730 -46.558  0.00  0.00    +0.000 C 
ATOM     12  C14 UNL     1      26.648  -6.066 -47.174  0.00  0.00    +0.000 C 
ATOM     13  C15 UNL     1      25.408  -5.940 -46.507  0.00  0.00    +0.000 C 
ATOM     14  C16 UNL     1      25.229  -6.481 -45.218  0.00  0.00    +0.000 C 
ATOM     15  C17 UNL     1      26.319  -7.130 -44.634  0.00  0.00    +0.000 A 
ATOM     16  C18 UNL     1      28.255  -8.855 -42.233  0.00  0.00    +0.000 C 
ATOM     17  N5  UNL     1      27.374  -9.076 -41.210  0.00  0.00    +0.000 NA
ATOM     18  H10 UNL     1      29.421  -8.128 -44.774  0.00  0.00    +0.000 HD
BRANCH  16  19
ATOM     19  C19 UNL     1      29.637  -9.372 -42.129  0.00  0.00    +0.000 C 
ATOM     20  C20 UNL     1      30.501  -8.851 -41.150  0.00  0.00    +0.000 C 
ATOM     21  C21 UNL     1      31.809  -9.334 -41.033  0.00  0.00    +0.000 C 
ATOM     22  C22 UNL     1      32.269 -10.328 -41.901  0.00  0.00    +0.000 C 
ATOM     23  C23 UNL     1      31.425 -10.830 -42.898  0.00  0.00    +0.000 C 
ATOM     24  C24 UNL     1      30.117 -10.350 -43.019  0.00  0.00    +0.000 C 
ENDBRANCH  16  19
ENDBRANCH   2   5
BRANCH   1  25
ATOM     25  N2  UNL     1      24.534  -8.562 -37.760  0.00  0.00    +0.000 N 
ATOM     26  H7  UNL     1      23.660  -9.108 -37.933  0.00  0.00    +0.000 HD
BRANCH  25  27
ATOM     27  C6  UNL     1      24.795  -8.036 -36.453  0.00  0.00    +0.000 C 
ATOM     28  S1  UNL     1      23.579  -7.929 -35.349  0.00  0.00    +0.000 S 
BRANCH  27  29
ATOM     29  N1  UNL     1      26.092  -7.496 -36.157  0.00  0.00    +0.000 N 
ATOM     30  H6  UNL     1      26.363  -6.590 -36.602  0.00  0.00    +0.000 HD
BRANCH  29  34
ATOM     31  C2  UNL     1      28.796  -9.253 -33.389  0.00  0.00    +0.000 C 
ATOM     32  C3  UNL     1      28.219  -8.007 -33.125  0.00  0.00    +0.000 C 
ATOM     33  C4  UNL     1      27.332  -7.431 -34.036  0.00  0.00    +0.000 C 
ATOM     34  C5  UNL     1      27.001  -8.098 -35.224  0.00  0.00    +0.000 C 
ATOM     35  C25 UNL     1      27.548  -9.365 -35.493  0.00  0.00    +0.000 C 
ATOM     36  C27 UNL     1      28.451  -9.937 -34.572  0.00  0.00    +0.000 C 
BRANCH  31  38
ATOM     37  C1  UNL     1      31.013 -10.236 -32.770  0.00  0.00    +0.000 C 
ATOM     38  O1  UNL     1      29.702  -9.775 -32.453  0.00  0.00    +0.000 OA
ENDBRANCH  31  38
BRANCH  35  39
ATOM     39  O3  UNL     1      27.189 -10.014 -36.685  0.00  0.00    +0.000 OA
ATOM     40  C26 UNL     1      28.111 -10.451 -37.678  0.00  0.00    +0.000 C 
ENDBRANCH  35  39
ENDBRANCH  29  34
ENDBRANCH  27  29
ENDBRANCH  25  27
ENDBRANCH   1  25
TORSDOF 8
