REMARK  Name = resultss/4CJN/ligands/lig_312_t0.pdb
REMARK  12 active torsions:
REMARK  status: ('A' for Active; 'I' for Inactive)
REMARK    1  A    between atoms: C10_1  and  O5_11
REMARK    2  A    between atoms: C12_4  and  O7_7
REMARK    3  A    between atoms: C13_5  and  O8_9
REMARK    4  A    between atoms: C14_6  and  O9_33
REMARK    5  A    between atoms: O5_11  and  C9_20
REMARK    6  A    between atoms: C2_12  and  O1_28
REMARK    7  A    between atoms: C4_14  and  O2_29
REMARK    8  A    between atoms: C8_19  and  O4_31
REMARK    9  A    between atoms: O9_33  and  C15_34
REMARK   10  A    between atoms: C18_38  and  O11_41
REMARK   11  A    between atoms: C19_39  and  O12_43
REMARK   12  A    between atoms: C20_40  and  O13_45
REMARK                            x       y       z     vdW  Elec       q    Type
REMARK                         _______ _______ _______ _____ _____    ______ ____
ROOT
ATOM      1  C10 UNL     1      26.274  -6.757 -42.713  0.00  0.00    +0.000 C 
ATOM      2  O6  UNL     1      25.494  -6.076 -43.687  0.00  0.00    +0.000 OA
ATOM      3  C11 UNL     1      24.112  -6.157 -43.390  0.00  0.00    +0.000 C 
ATOM      4  C12 UNL     1      23.607  -7.617 -43.298  0.00  0.00    +0.000 C 
ATOM      5  C13 UNL     1      24.746  -8.610 -43.572  0.00  0.00    +0.000 C 
ATOM      6  C14 UNL     1      25.940  -8.275 -42.661  0.00  0.00    +0.000 C 
ENDROOT
BRANCH   4   7
ATOM      7  O7  UNL     1      22.575  -7.827 -44.232  0.00  0.00    +0.000 OA
ATOM      8  H11 UNL     1      22.907  -7.521 -45.116  0.00  0.00    +0.000 HD
ENDBRANCH   4   7
BRANCH   5   9
ATOM      9  O8  UNL     1      24.298  -9.916 -43.314  0.00  0.00    +0.000 OA
ATOM     10  H13 UNL     1      23.386  -9.991 -43.702  0.00  0.00    +0.000 HD
ENDBRANCH   5   9
BRANCH   1  11
ATOM     11  O5  UNL     1      26.101  -6.188 -41.412  0.00  0.00    +0.000 OA
BRANCH  11  20
ATOM     12  C2  UNL     1      28.925  -9.510 -33.774  0.00  0.00    +0.000 C 
ATOM     13  C3  UNL     1      27.625 -10.037 -33.796  0.00  0.00    +0.000 C 
ATOM     14  C4  UNL     1      26.741  -9.728 -34.841  0.00  0.00    +0.000 C 
ATOM     15  C5  UNL     1      27.159  -8.875 -35.889  0.00  0.00    +0.000 A 
ATOM     16  C6  UNL     1      26.327  -8.524 -36.975  0.00  0.00    +0.000 A 
ATOM     17  O3  UNL     1      25.122  -8.889 -36.977  0.00  0.00    +0.000 OA
ATOM     18  C7  UNL     1      26.847  -7.745 -38.041  0.00  0.00    +0.000 A 
ATOM     19  C8  UNL     1      26.123  -7.425 -39.233  0.00  0.00    +0.000 C 
ATOM     20  C9  UNL     1      26.713  -6.574 -40.204  0.00  0.00    +0.000 C 
ATOM     21  C21 UNL     1      28.004  -6.088 -39.999  0.00  0.00    +0.000 C 
ATOM     22  C22 UNL     1      28.731  -6.434 -38.868  0.00  0.00    +0.000 C 
ATOM     23  C23 UNL     1      28.171  -7.258 -37.897  0.00  0.00    +0.000 A 
ATOM     24  O14 UNL     1      28.907  -7.577 -36.839  0.00  0.00    +0.000 OA
ATOM     25  C24 UNL     1      28.471  -8.358 -35.863  0.00  0.00    +0.000 A 
ATOM     26  C25 UNL     1      29.334  -8.667 -34.808  0.00  0.00    +0.000 C 
BRANCH  12  28
ATOM     27  C1  UNL     1      31.248  -9.901 -32.936  0.00  0.00    +0.000 C 
ATOM     28  O1  UNL     1      29.841  -9.800 -32.751  0.00  0.00    +0.000 OA
ENDBRANCH  12  28
BRANCH  14  29
ATOM     29  O2  UNL     1      25.460 -10.284 -34.835  0.00  0.00    +0.000 OA
ATOM     30  H5  UNL     1      25.145 -10.892 -34.092  0.00  0.00    +0.000 HD
ENDBRANCH  14  29
BRANCH  19  31
ATOM     31  O4  UNL     1      24.862  -7.964 -39.492  0.00  0.00    +0.000 OA
ATOM     32  H6  UNL     1      24.707  -8.732 -40.128  0.00  0.00    +0.000 HD
ENDBRANCH  19  31
ENDBRANCH  11  20
ENDBRANCH   1  11
BRANCH   6  33
ATOM     33  O9  UNL     1      27.069  -9.028 -43.083  0.00  0.00    +0.000 OA
BRANCH  33  34
ATOM     34  C15 UNL     1      28.017  -9.166 -42.040  0.00  0.00    +0.000 C 
ATOM     35  O10 UNL     1      29.340  -9.023 -42.550  0.00  0.00    +0.000 OA
ATOM     36  C16 UNL     1      29.850 -10.249 -43.035  0.00  0.00    +0.000 C 
ATOM     37  C17 UNL     1      31.098  -9.972 -43.870  0.00  0.00    +0.000 C 
ATOM     38  C18 UNL     1      30.176 -11.182 -41.849  0.00  0.00    +0.000 C 
ATOM     39  C19 UNL     1      29.093 -11.077 -40.736  0.00  0.00    +0.000 C 
ATOM     40  C20 UNL     1      27.773 -10.509 -41.293  0.00  0.00    +0.000 C 
BRANCH  38  41
ATOM     41  O11 UNL     1      30.262 -12.507 -42.309  0.00  0.00    +0.000 OA
ATOM     42  H21 UNL     1      31.171 -12.828 -42.055  0.00  0.00    +0.000 HD
ENDBRANCH  38  41
BRANCH  39  43
ATOM     43  O12 UNL     1      29.550 -10.306 -39.651  0.00  0.00    +0.000 OA
ATOM     44  H23 UNL     1      29.835  -9.420 -39.997  0.00  0.00    +0.000 HD
ENDBRANCH  39  43
BRANCH  40  45
ATOM     45  O13 UNL     1      26.853 -10.333 -40.247  0.00  0.00    +0.000 OA
ATOM     46  H25 UNL     1      26.016 -10.796 -40.515  0.00  0.00    +0.000 HD
ENDBRANCH  40  45
ENDBRANCH  33  34
ENDBRANCH   6  33
TORSDOF 12
