REMARK  Name = resultss/4CJN/ligands/lig_413_t0.pdb
REMARK  6 active torsions:
REMARK  status: ('A' for Active; 'I' for Inactive)
REMARK    1  A    between atoms: C9_1  and  C1_22
REMARK    2  A    between atoms: C19_12  and  C20_15
REMARK    3  A    between atoms: N1_23  and  N2_25
REMARK    4  A    between atoms: N2_25  and  C2_27
REMARK    5  A    between atoms: C2_27  and  N3_29
REMARK    6  A    between atoms: N3_29  and  C3_31
REMARK                            x       y       z     vdW  Elec       q    Type
REMARK                         _______ _______ _______ _____ _____    ______ ____
ROOT
ATOM      1  C9  UNL     1      27.424  -9.867 -37.724  0.00  0.00    +0.000 C 
ATOM      2  C10 UNL     1      28.696  -9.832 -37.113  0.00  0.00    +0.000 C 
ATOM      3  C11 UNL     1      28.748  -9.479 -35.769  0.00  0.00    +0.000 A 
ATOM      4  C12 UNL     1      27.615  -9.164 -35.051  0.00  0.00    +0.000 A 
ATOM      5  N4  UNL     1      27.910  -8.919 -33.752  0.00  0.00    +0.000 N 
ATOM      6  C13 UNL     1      29.250  -9.067 -33.667  0.00  0.00    +0.000 A 
ATOM      7  C14 UNL     1      30.041  -8.932 -32.527  0.00  0.00    +0.000 C 
ATOM      8  C15 UNL     1      31.425  -9.153 -32.655  0.00  0.00    +0.000 C 
ATOM      9  C16 UNL     1      31.984  -9.506 -33.905  0.00  0.00    +0.000 C 
ATOM     10  C17 UNL     1      31.164  -9.640 -35.041  0.00  0.00    +0.000 C 
ATOM     11  C18 UNL     1      29.799  -9.409 -34.885  0.00  0.00    +0.000 A 
ATOM     12  C19 UNL     1      26.359  -9.183 -35.673  0.00  0.00    +0.000 C 
ATOM     13  N5  UNL     1      26.310  -9.546 -36.990  0.00  0.00    +0.000 NA
ATOM     14  H9  UNL     1      27.254  -8.701 -32.969  0.00  0.00    +0.000 HD
ENDROOT
BRANCH  12  15
ATOM     15  C20 UNL     1      25.106  -8.838 -34.969  0.00  0.00    +0.000 C 
ATOM     16  C21 UNL     1      24.095  -8.099 -35.609  0.00  0.00    +0.000 C 
ATOM     17  C22 UNL     1      22.903  -7.807 -34.939  0.00  0.00    +0.000 C 
ATOM     18  C23 UNL     1      22.705  -8.261 -33.633  0.00  0.00    +0.000 C 
ATOM     19  C24 UNL     1      23.695  -9.013 -32.996  0.00  0.00    +0.000 C 
ATOM     20  C25 UNL     1      24.888  -9.308 -33.662  0.00  0.00    +0.000 C 
ENDBRANCH  12  15
BRANCH   1  22
ATOM     21  O1  UNL     1      28.026 -11.135 -39.636  0.00  0.00    +0.000 OA
ATOM     22  C1  UNL     1      27.276 -10.248 -39.146  0.00  0.00    +0.000 C 
ATOM     23  N1  UNL     1      26.283  -9.620 -39.970  0.00  0.00    +0.000 N 
ATOM     24  H1  UNL     1      25.652  -8.903 -39.547  0.00  0.00    +0.000 HD
BRANCH  23  25
ATOM     25  N2  UNL     1      26.173  -9.924 -41.340  0.00  0.00    +0.000 N 
ATOM     26  H2  UNL     1      25.976 -10.907 -41.635  0.00  0.00    +0.000 HD
BRANCH  25  27
ATOM     27  C2  UNL     1      26.359  -8.929 -42.363  0.00  0.00    +0.000 C 
ATOM     28  S1  UNL     1      25.072  -8.108 -42.964  0.00  0.00    +0.000 S 
BRANCH  27  29
ATOM     29  N3  UNL     1      27.636  -8.776 -43.001  0.00  0.00    +0.000 N 
ATOM     30  H3  UNL     1      27.662  -8.340 -43.950  0.00  0.00    +0.000 HD
BRANCH  29  31
ATOM     31  C3  UNL     1      28.881  -9.158 -42.389  0.00  0.00    +0.000 C 
ATOM     32  C4  UNL     1      29.497 -10.377 -42.727  0.00  0.00    +0.000 C 
ATOM     33  C5  UNL     1      30.692 -10.759 -42.114  0.00  0.00    +0.000 C 
ATOM     34  C6  UNL     1      31.280  -9.937 -41.151  0.00  0.00    +0.000 C 
ATOM     35  C7  UNL     1      30.672  -8.731 -40.798  0.00  0.00    +0.000 C 
ATOM     36  C8  UNL     1      29.473  -8.338 -41.407  0.00  0.00    +0.000 C 
ATOM     37 BR1  UNL     1      28.701  -6.659 -40.899  0.00  0.00    +0.000 Br
ENDBRANCH  29  31
ENDBRANCH  27  29
ENDBRANCH  25  27
ENDBRANCH  23  25
ENDBRANCH   1  22
TORSDOF 6
