REMARK  Name = resultss/4CJN/ligands/lig_251_t0.pdb
REMARK  13 active torsions:
REMARK  status: ('A' for Active; 'I' for Inactive)
REMARK    1  A    between atoms: C4_1  and  C3_36
REMARK    2  A    between atoms: C6_3  and  C7_10
REMARK    3  A    between atoms: C28_6  and  S2_39
REMARK    4  A    between atoms: C9_12  and  C10_19
REMARK    5  A    between atoms: C14_15  and  S1_22
REMARK    6  A    between atoms: C10_19  and  C11_20
REMARK    7  A    between atoms: S1_22  and  C15_23
REMARK    8  A    between atoms: C15_23  and  C16_24
REMARK    9  A    between atoms: C17_27  and  C18_29
REMARK   10  A    between atoms: C3_36  and  C2_38
REMARK   11  A    between atoms: S2_39  and  C29_40
REMARK   12  A    between atoms: C29_40  and  C30_41
REMARK   13  A    between atoms: C31_44  and  C32_46
REMARK                            x       y       z     vdW  Elec       q    Type
REMARK                         _______ _______ _______ _____ _____    ______ ____
ROOT
ATOM      1  C4  UNL     1      24.679  -7.178 -33.412  0.00  0.00    +0.000 C 
ATOM      2  C5  UNL     1      25.127  -7.282 -34.754  0.00  0.00    +0.000 C 
ATOM      3  C6  UNL     1      26.487  -7.091 -35.082  0.00  0.00    +0.000 C 
ATOM      4  C27 UNL     1      27.356  -6.781 -34.039  0.00  0.00    +0.000 A 
ATOM      5  O3  UNL     1      28.642  -6.554 -34.072  0.00  0.00    +0.000 OA
ATOM      6  C28 UNL     1      28.984  -6.255 -32.831  0.00  0.00    +0.000 A 
ATOM      7  N6  UNL     1      27.942  -6.269 -31.961  0.00  0.00    +0.000 NA
ATOM      8  C39 UNL     1      26.922  -6.624 -32.760  0.00  0.00    +0.000 A 
ATOM      9  C40 UNL     1      25.591  -6.810 -32.398  0.00  0.00    +0.000 C 
ENDROOT
BRANCH   3  10
ATOM     10  C7  UNL     1      26.935  -7.094 -36.483  0.00  0.00    +0.000 C 
ATOM     11  C8  UNL     1      28.200  -6.557 -36.847  0.00  0.00    +0.000 C 
ATOM     12  C9  UNL     1      28.646  -6.611 -38.190  0.00  0.00    +0.000 C 
ATOM     13  C13 UNL     1      27.786  -7.198 -39.123  0.00  0.00    +0.000 A 
ATOM     14  O1  UNL     1      27.975  -7.406 -40.400  0.00  0.00    +0.000 OA
ATOM     15  C14 UNL     1      26.868  -7.986 -40.833  0.00  0.00    +0.000 A 
ATOM     16  N3  UNL     1      25.938  -8.178 -39.861  0.00  0.00    +0.000 NA
ATOM     17  C25 UNL     1      26.558  -7.674 -38.780  0.00  0.00    +0.000 A 
ATOM     18  C26 UNL     1      26.096  -7.654 -37.468  0.00  0.00    +0.000 C 
BRANCH  12  19
ATOM     19  C10 UNL     1      29.965  -6.018 -38.609  0.00  0.00    +0.000 C 
BRANCH  19  20
ATOM     20  C11 UNL     1      31.009  -6.164 -37.535  0.00  0.00    +0.000 C 
ATOM     21  C12 UNL     1      32.308  -6.091 -37.831  0.00  0.00    +0.000 C 
ENDBRANCH  19  20
ENDBRANCH  12  19
BRANCH  15  22
ATOM     22  S1  UNL     1      26.609  -8.512 -42.524  0.00  0.00    +0.000 S 
BRANCH  22  23
ATOM     23  C15 UNL     1      28.316  -8.202 -43.098  0.00  0.00    +0.000 C 
BRANCH  23  24
ATOM     24  C16 UNL     1      29.128  -9.428 -42.830  0.00  0.00    +0.000 A 
ATOM     25  N1  UNL     1      28.745 -10.450 -42.035  0.00  0.00    +0.000 NA
ATOM     26  N2  UNL     1      29.702 -11.363 -42.117  0.00  0.00    +0.000 NA
ATOM     27  C17 UNL     1      30.632 -10.863 -42.961  0.00  0.00    +0.000 A 
ATOM     28  O2  UNL     1      30.283  -9.673 -43.397  0.00  0.00    +0.000 OA
BRANCH  27  29
ATOM     29  C18 UNL     1      31.864 -11.569 -43.375  0.00  0.00    +0.000 C 
ATOM     30  C19 UNL     1      33.078 -11.360 -42.702  0.00  0.00    +0.000 C 
ATOM     31  C20 UNL     1      34.231 -12.050 -43.092  0.00  0.00    +0.000 C 
ATOM     32  C21 UNL     1      34.180 -12.959 -44.149  0.00  0.00    +0.000 C 
ATOM     33  C22 UNL     1      32.971 -13.194 -44.822  0.00  0.00    +0.000 C 
ATOM     34  C23 UNL     1      32.930 -14.146 -45.976  0.00  0.00    +0.000 C 
ATOM     35  C24 UNL     1      31.822 -12.484 -44.444  0.00  0.00    +0.000 C 
ENDBRANCH  27  29
ENDBRANCH  23  24
ENDBRANCH  22  23
ENDBRANCH  15  22
ENDBRANCH   3  10
BRANCH   1  36
ATOM     36  C3  UNL     1      23.234  -7.431 -33.079  0.00  0.00    +0.000 C 
BRANCH  36  38
ATOM     37  C1  UNL     1      21.777  -6.364 -34.779  0.00  0.00    +0.000 C 
ATOM     38  C2  UNL     1      22.401  -7.457 -34.329  0.00  0.00    +0.000 C 
ENDBRANCH  36  38
ENDBRANCH   1  36
BRANCH   6  39
ATOM     39  S2  UNL     1      30.666  -5.883 -32.334  0.00  0.00    +0.000 S 
BRANCH  39  40
ATOM     40  C29 UNL     1      31.000  -7.556 -31.668  0.00  0.00    +0.000 C 
BRANCH  40  41
ATOM     41  C30 UNL     1      30.673  -8.568 -32.720  0.00  0.00    +0.000 A 
ATOM     42  N4  UNL     1      29.986  -9.702 -32.496  0.00  0.00    +0.000 NA
ATOM     43  N5  UNL     1      29.821 -10.277 -33.683  0.00  0.00    +0.000 NA
ATOM     44  C31 UNL     1      30.410  -9.464 -34.583  0.00  0.00    +0.000 A 
ATOM     45  O4  UNL     1      30.941  -8.418 -33.996  0.00  0.00    +0.000 OA
BRANCH  44  46
ATOM     46  C32 UNL     1      30.412  -9.691 -36.042  0.00  0.00    +0.000 C 
ATOM     47  C33 UNL     1      29.215  -9.967 -36.723  0.00  0.00    +0.000 C 
ATOM     48  C34 UNL     1      29.216 -10.119 -38.114  0.00  0.00    +0.000 C 
ATOM     49  C35 UNL     1      30.407  -9.999 -38.833  0.00  0.00    +0.000 C 
ATOM     50  C36 UNL     1      31.612  -9.748 -38.164  0.00  0.00    +0.000 C 
ATOM     51  C37 UNL     1      32.881  -9.557 -38.943  0.00  0.00    +0.000 C 
ATOM     52  C38 UNL     1      31.609  -9.580 -36.770  0.00  0.00    +0.000 C 
ENDBRANCH  44  46
ENDBRANCH  40  41
ENDBRANCH  39  40
ENDBRANCH   6  39
TORSDOF 13
