REMARK  Name = resultss/4CJN/ligands/lig_170_t0.pdb
REMARK  6 active torsions:
REMARK  status: ('A' for Active; 'I' for Inactive)
REMARK    1  A    between atoms: C1_2  and  C9_5
REMARK    2  A    between atoms: N1_3  and  N2_20
REMARK    3  A    between atoms: C12_8  and  C13_11
REMARK    4  A    between atoms: C2_21  and  C3_22
REMARK    5  A    between atoms: C6_25  and  O2_28
REMARK    6  A    between atoms: C8_27  and  O3_30
REMARK                            x       y       z     vdW  Elec       q    Type
REMARK                         _______ _______ _______ _____ _____    ______ ____
ROOT
ATOM      1  O1  UNL     1      28.871 -10.163 -42.493  0.00  0.00    +0.000 OA
ATOM      2  C1  UNL     1      29.426 -10.075 -41.363  0.00  0.00    +0.000 C 
ATOM      3  N1  UNL     1      30.850 -10.217 -41.272  0.00  0.00    +0.000 N 
ATOM      4  H1  UNL     1      31.344  -9.982 -40.382  0.00  0.00    +0.000 HD
ENDROOT
BRANCH   2   5
ATOM      5  C9  UNL     1      28.598  -9.809 -40.163  0.00  0.00    +0.000 C 
ATOM      6  C10 UNL     1      27.210  -9.631 -40.292  0.00  0.00    +0.000 C 
ATOM      7  C11 UNL     1      26.416  -9.384 -39.169  0.00  0.00    +0.000 C 
ATOM      8  C12 UNL     1      26.989  -9.318 -37.888  0.00  0.00    +0.000 C 
ATOM      9  C20 UNL     1      28.376  -9.508 -37.757  0.00  0.00    +0.000 C 
ATOM     10  C21 UNL     1      29.170  -9.754 -38.879  0.00  0.00    +0.000 C 
BRANCH   8  11
ATOM     11  C13 UNL     1      26.138  -9.055 -36.704  0.00  0.00    +0.000 A 
ATOM     12  N3  UNL     1      25.002  -8.312 -36.757  0.00  0.00    +0.000 NA
ATOM     13  C14 UNL     1      24.410  -8.224 -35.539  0.00  0.00    +0.000 A 
ATOM     14  C15 UNL     1      23.229  -7.526 -35.284  0.00  0.00    +0.000 C 
ATOM     15  C16 UNL     1      22.720  -7.513 -33.973  0.00  0.00    +0.000 C 
ATOM     16  C17 UNL     1      23.394  -8.195 -32.940  0.00  0.00    +0.000 C 
ATOM     17  C18 UNL     1      24.581  -8.893 -33.208  0.00  0.00    +0.000 C 
ATOM     18  C19 UNL     1      25.063  -8.890 -34.515  0.00  0.00    +0.000 A 
ATOM     19  S1  UNL     1      26.437  -9.624 -35.132  0.00  0.00    +0.000 S 
ENDBRANCH   8  11
ENDBRANCH   2   5
BRANCH   3  20
ATOM     20  N2  UNL     1      31.589 -10.599 -42.402  0.00  0.00    +0.000 NA
ATOM     21  C2  UNL     1      31.896 -11.837 -42.633  0.00  0.00    +0.000 C 
BRANCH  21  22
ATOM     22  C3  UNL     1      32.616 -12.233 -43.861  0.00  0.00    +0.000 C 
ATOM     23  C4  UNL     1      32.184 -13.395 -44.524  0.00  0.00    +0.000 C 
ATOM     24  C5  UNL     1      32.768 -13.787 -45.729  0.00  0.00    +0.000 C 
ATOM     25  C6  UNL     1      33.798 -13.027 -46.291  0.00  0.00    +0.000 C 
ATOM     26  C7  UNL     1      34.255 -11.883 -45.631  0.00  0.00    +0.000 C 
ATOM     27  C8  UNL     1      33.694 -11.490 -44.409  0.00  0.00    +0.000 C 
BRANCH  25  28
ATOM     28  O2  UNL     1      34.380 -13.402 -47.500  0.00  0.00    +0.000 OA
ATOM     29  H5  UNL     1      35.054 -14.157 -47.551  0.00  0.00    +0.000 HD
ENDBRANCH  25  28
BRANCH  27  30
ATOM     30  O3  UNL     1      34.259 -10.388 -43.763  0.00  0.00    +0.000 OA
ATOM     31  H7  UNL     1      34.049  -9.430 -44.005  0.00  0.00    +0.000 HD
ENDBRANCH  27  30
ENDBRANCH  21  22
ENDBRANCH   3  20
TORSDOF 6
