REMARK  Name = resultss/4CJN/ligands/lig_398_t2.pdb
REMARK  8 active torsions:
REMARK  status: ('A' for Active; 'I' for Inactive)
REMARK    1  A    between atoms: C10_1  and  C9_8
REMARK    2  A    between atoms: C13_4  and  O2_21
REMARK    3  A    between atoms: N3_7  and  N2_18
REMARK    4  A    between atoms: C1_9  and  O1_19
REMARK    5  A    between atoms: O2_21  and  C14_22
REMARK    6  A    between atoms: C14_22  and  C15_23
REMARK    7  A    between atoms: N4_25  and  C17_28
REMARK    8  A    between atoms: C17_28  and  C18_29
REMARK                            x       y       z     vdW  Elec       q    Type
REMARK                         _______ _______ _______ _____ _____    ______ ____
ROOT
ATOM      1  C10 UNL     1      28.915  -8.307 -36.933  0.00  0.00    +0.000 C 
ATOM      2  C11 UNL     1      28.380  -9.595 -36.785  0.00  0.00    +0.000 C 
ATOM      3  C12 UNL     1      27.984 -10.333 -37.905  0.00  0.00    +0.000 C 
ATOM      4  C13 UNL     1      28.101  -9.782 -39.195  0.00  0.00    +0.000 C 
ATOM      5  C24 UNL     1      28.609  -8.486 -39.339  0.00  0.00    +0.000 C 
ATOM      6  C25 UNL     1      29.004  -7.748 -38.220  0.00  0.00    +0.000 C 
ENDROOT
BRANCH   1   8
ATOM      7  N3  UNL     1      28.467  -6.846 -35.013  0.00  0.00    +0.000 NA
ATOM      8  C9  UNL     1      29.301  -7.549 -35.720  0.00  0.00    +0.000 C 
BRANCH   7  18
ATOM      9  C1  UNL     1      26.339  -8.366 -33.637  0.00  0.00    +0.000 C 
ATOM     10  N1  UNL     1      25.194  -8.863 -33.270  0.00  0.00    +0.000 NA
ATOM     11  C2  UNL     1      24.212  -8.238 -34.099  0.00  0.00    +0.000 C 
ATOM     12  C3  UNL     1      22.835  -8.455 -34.072  0.00  0.00    +0.000 C 
ATOM     13  C4  UNL     1      22.032  -7.737 -34.977  0.00  0.00    +0.000 C 
ATOM     14  C5  UNL     1      22.615  -6.822 -35.882  0.00  0.00    +0.000 C 
ATOM     15  C6  UNL     1      24.007  -6.619 -35.891  0.00  0.00    +0.000 C 
ATOM     16  C7  UNL     1      24.772  -7.347 -34.982  0.00  0.00    +0.000 C 
ATOM     17  C8  UNL     1      26.191  -7.388 -34.723  0.00  0.00    +0.000 C 
ATOM     18  N2  UNL     1      27.109  -6.715 -35.339  0.00  0.00    +0.000 NA
BRANCH   9  19
ATOM     19  O1  UNL     1      27.546  -8.734 -33.052  0.00  0.00    +0.000 OA
ATOM     20  H1  UNL     1      27.574  -9.097 -32.107  0.00  0.00    +0.000 HD
ENDBRANCH   9  19
ENDBRANCH   7  18
ENDBRANCH   1   8
BRANCH   4  21
ATOM     21  O2  UNL     1      27.722 -10.479 -40.356  0.00  0.00    +0.000 OA
BRANCH  21  22
ATOM     22  C14 UNL     1      27.915 -10.020 -41.693  0.00  0.00    +0.000 C 
BRANCH  22  23
ATOM     23  C15 UNL     1      26.672  -9.367 -42.211  0.00  0.00    +0.000 C 
ATOM     24  C16 UNL     1      26.538  -8.058 -42.617  0.00  0.00    +0.000 C 
ATOM     25  N4  UNL     1      25.269  -7.933 -43.040  0.00  0.00    +0.000 N 
ATOM     26  N5  UNL     1      24.667  -9.105 -42.924  0.00  0.00    +0.000 NA
ATOM     27  N6  UNL     1      25.501 -10.002 -42.417  0.00  0.00    +0.000 NA
BRANCH  25  28
ATOM     28  C17 UNL     1      24.661  -6.748 -43.636  0.00  0.00    +0.000 C 
BRANCH  28  29
ATOM     29  C18 UNL     1      24.442  -6.971 -45.108  0.00  0.00    +0.000 C 
ATOM     30  C19 UNL     1      25.524  -6.873 -45.999  0.00  0.00    +0.000 C 
ATOM     31  C20 UNL     1      25.323  -7.040 -47.373  0.00  0.00    +0.000 C 
ATOM     32  C21 UNL     1      24.040  -7.293 -47.868  0.00  0.00    +0.000 C 
ATOM     33  C22 UNL     1      22.956  -7.377 -46.990  0.00  0.00    +0.000 C 
ATOM     34  C23 UNL     1      23.151  -7.212 -45.614  0.00  0.00    +0.000 C 
ATOM     35  F1  UNL     1      22.083  -7.286 -44.780  0.00  0.00    +0.000 F 
ENDBRANCH  28  29
ENDBRANCH  25  28
ENDBRANCH  22  23
ENDBRANCH  21  22
ENDBRANCH   4  21
TORSDOF 8
