REMARK  Name = resultss/4CJN/ligands/lig_433_t0.pdb
REMARK  6 active torsions:
REMARK  status: ('A' for Active; 'I' for Inactive)
REMARK    1  A    between atoms: C9_1  and  C1_22
REMARK    2  A    between atoms: C19_12  and  C20_15
REMARK    3  A    between atoms: N1_23  and  N2_25
REMARK    4  A    between atoms: N2_25  and  C2_27
REMARK    5  A    between atoms: C2_27  and  N3_29
REMARK    6  A    between atoms: N3_29  and  C3_31
REMARK                            x       y       z     vdW  Elec       q    Type
REMARK                         _______ _______ _______ _____ _____    ______ ____
ROOT
ATOM      1  C9  UNL     1      27.345  -9.555 -38.933  0.00  0.00    +0.000 C 
ATOM      2  C10 UNL     1      27.111  -9.532 -37.542  0.00  0.00    +0.000 C 
ATOM      3  C11 UNL     1      25.925  -8.954 -37.106  0.00  0.00    +0.000 A 
ATOM      4  C12 UNL     1      25.007  -8.416 -37.981  0.00  0.00    +0.000 A 
ATOM      5  N4  UNL     1      23.906  -7.970 -37.329  0.00  0.00    +0.000 N 
ATOM      6  C13 UNL     1      24.154  -8.219 -36.025  0.00  0.00    +0.000 A 
ATOM      7  C14 UNL     1      23.316  -7.952 -34.943  0.00  0.00    +0.000 C 
ATOM      8  C15 UNL     1      23.763  -8.314 -33.659  0.00  0.00    +0.000 C 
ATOM      9  C16 UNL     1      25.022  -8.931 -33.483  0.00  0.00    +0.000 C 
ATOM     10  C17 UNL     1      25.849  -9.193 -34.589  0.00  0.00    +0.000 C 
ATOM     11  C18 UNL     1      25.383  -8.820 -35.848  0.00  0.00    +0.000 A 
ATOM     12  C19 UNL     1      25.257  -8.431 -39.360  0.00  0.00    +0.000 C 
ATOM     13  N5  UNL     1      26.419  -9.012 -39.787  0.00  0.00    +0.000 NA
ATOM     14  H8  UNL     1      23.037  -7.557 -37.733  0.00  0.00    +0.000 HD
ENDROOT
BRANCH  12  15
ATOM     15  C20 UNL     1      24.331  -7.849 -40.353  0.00  0.00    +0.000 C 
ATOM     16  C21 UNL     1      23.950  -6.497 -40.283  0.00  0.00    +0.000 C 
ATOM     17  C22 UNL     1      23.100  -5.953 -41.250  0.00  0.00    +0.000 C 
ATOM     18  C23 UNL     1      22.633  -6.748 -42.300  0.00  0.00    +0.000 C 
ATOM     19  C24 UNL     1      23.022  -8.087 -42.388  0.00  0.00    +0.000 C 
ATOM     20  C25 UNL     1      23.873  -8.636 -41.424  0.00  0.00    +0.000 C 
ENDBRANCH  12  15
BRANCH   1  22
ATOM     21  O1  UNL     1      29.690  -9.921 -38.937  0.00  0.00    +0.000 OA
ATOM     22  C1  UNL     1      28.579 -10.159 -39.483  0.00  0.00    +0.000 C 
ATOM     23  N1  UNL     1      28.521 -11.019 -40.632  0.00  0.00    +0.000 N 
ATOM     24  H1  UNL     1      27.590 -11.247 -41.045  0.00  0.00    +0.000 HD
BRANCH  23  25
ATOM     25  N2  UNL     1      29.694 -11.529 -41.221  0.00  0.00    +0.000 N 
ATOM     26  H2  UNL     1      30.027 -12.485 -40.960  0.00  0.00    +0.000 HD
BRANCH  25  27
ATOM     27  C2  UNL     1      30.511 -10.755 -42.114  0.00  0.00    +0.000 C 
ATOM     28  S1  UNL     1      29.823  -9.639 -43.109  0.00  0.00    +0.000 S 
BRANCH  27  29
ATOM     29  N3  UNL     1      31.882 -11.140 -42.308  0.00  0.00    +0.000 N 
ATOM     30  H3  UNL     1      32.517 -11.097 -41.479  0.00  0.00    +0.000 HD
BRANCH  29  31
ATOM     31  C3  UNL     1      32.436 -11.594 -43.555  0.00  0.00    +0.000 C 
ATOM     32  C4  UNL     1      33.247 -10.727 -44.304  0.00  0.00    +0.000 C 
ATOM     33  C5  UNL     1      33.775 -11.138 -45.532  0.00  0.00    +0.000 C 
ATOM     34  C6  UNL     1      33.485 -12.412 -46.029  0.00  0.00    +0.000 C 
ATOM     35  F1  UNL     1      33.997 -12.805 -47.221  0.00  0.00    +0.000 F 
ATOM     36  C7  UNL     1      32.657 -13.273 -45.302  0.00  0.00    +0.000 C 
ATOM     37  F2  UNL     1      32.360 -14.503 -45.791  0.00  0.00    +0.000 F 
ATOM     38  C8  UNL     1      32.127 -12.864 -44.074  0.00  0.00    +0.000 C 
ENDBRANCH  29  31
ENDBRANCH  27  29
ENDBRANCH  25  27
ENDBRANCH  23  25
ENDBRANCH   1  22
TORSDOF 6
