REMARK  Name = resultss/4CJN/ligands/lig_416_t0.pdb
REMARK  6 active torsions:
REMARK  status: ('A' for Active; 'I' for Inactive)
REMARK    1  A    between atoms: C10_1  and  C9_22
REMARK    2  A    between atoms: C20_12  and  C21_15
REMARK    3  A    between atoms: N3_21  and  N2_25
REMARK    4  A    between atoms: N2_25  and  C8_27
REMARK    5  A    between atoms: C8_27  and  N1_29
REMARK    6  A    between atoms: N1_29  and  C7_37
REMARK                            x       y       z     vdW  Elec       q    Type
REMARK                         _______ _______ _______ _____ _____    ______ ____
ROOT
ATOM      1  C10 UNL     1      27.709  -9.675 -41.247  0.00  0.00    +0.000 C 
ATOM      2  C11 UNL     1      28.665 -10.103 -42.193  0.00  0.00    +0.000 C 
ATOM      3  C12 UNL     1      29.985 -10.194 -41.766  0.00  0.00    +0.000 A 
ATOM      4  C13 UNL     1      30.361  -9.890 -40.476  0.00  0.00    +0.000 A 
ATOM      5  N4  UNL     1      31.702  -9.990 -40.317  0.00  0.00    +0.000 N 
ATOM      6  C14 UNL     1      32.165 -10.382 -41.524  0.00  0.00    +0.000 A 
ATOM      7  C15 UNL     1      33.492 -10.613 -41.882  0.00  0.00    +0.000 C 
ATOM      8  C16 UNL     1      33.759 -10.997 -43.210  0.00  0.00    +0.000 C 
ATOM      9  C17 UNL     1      32.707 -11.135 -44.143  0.00  0.00    +0.000 C 
ATOM     10  C18 UNL     1      31.376 -10.891 -43.761  0.00  0.00    +0.000 C 
ATOM     11  C19 UNL     1      31.141 -10.518 -42.438  0.00  0.00    +0.000 A 
ATOM     12  C20 UNL     1      29.400  -9.485 -39.540  0.00  0.00    +0.000 C 
ATOM     13  N5  UNL     1      28.104  -9.383 -39.966  0.00  0.00    +0.000 NA
ATOM     14  H12 UNL     1      32.271  -9.780 -39.468  0.00  0.00    +0.000 HD
ENDROOT
BRANCH  12  15
ATOM     15  C21 UNL     1      29.728  -9.163 -38.136  0.00  0.00    +0.000 C 
ATOM     16  C22 UNL     1      30.412  -7.973 -37.834  0.00  0.00    +0.000 C 
ATOM     17  C23 UNL     1      30.706  -7.645 -36.507  0.00  0.00    +0.000 C 
ATOM     18  C24 UNL     1      30.308  -8.493 -35.470  0.00  0.00    +0.000 C 
ATOM     19  C25 UNL     1      29.607  -9.667 -35.759  0.00  0.00    +0.000 C 
ATOM     20  C26 UNL     1      29.311  -9.999 -37.085  0.00  0.00    +0.000 C 
ENDBRANCH  12  15
BRANCH   1  22
ATOM     21  N3  UNL     1      25.886  -9.583 -42.997  0.00  0.00    +0.000 N 
ATOM     22  C9  UNL     1      26.285  -9.543 -41.617  0.00  0.00    +0.000 C 
ATOM     23  O1  UNL     1      25.410  -9.410 -40.718  0.00  0.00    +0.000 OA
ATOM     24  H10 UNL     1      26.535 -10.009 -43.695  0.00  0.00    +0.000 HD
BRANCH  21  25
ATOM     25  N2  UNL     1      24.553  -9.359 -43.385  0.00  0.00    +0.000 N 
ATOM     26  H9  UNL     1      23.995 -10.183 -43.695  0.00  0.00    +0.000 HD
BRANCH  25  27
ATOM     27  C8  UNL     1      23.984  -8.039 -43.484  0.00  0.00    +0.000 C 
ATOM     28  S1  UNL     1      22.435  -7.756 -43.023  0.00  0.00    +0.000 S 
BRANCH  27  29
ATOM     29  N1  UNL     1      24.759  -6.946 -43.997  0.00  0.00    +0.000 N 
ATOM     30  H8  UNL     1      24.919  -6.122 -43.373  0.00  0.00    +0.000 HD
BRANCH  29  37
ATOM     31  C1  UNL     1      27.669  -6.947 -44.249  0.00  0.00    +0.000 C 
ATOM     32  C2  UNL     1      26.764  -6.958 -45.451  0.00  0.00    +0.000 C 
ATOM     33  C3  UNL     1      27.324  -7.007 -46.740  0.00  0.00    +0.000 C 
ATOM     34  C4  UNL     1      26.502  -7.025 -47.868  0.00  0.00    +0.000 C 
ATOM     35  C5  UNL     1      25.114  -7.007 -47.724  0.00  0.00    +0.000 C 
ATOM     36  C6  UNL     1      24.544  -6.972 -46.450  0.00  0.00    +0.000 C 
ATOM     37  C7  UNL     1      25.358  -6.935 -45.304  0.00  0.00    +0.000 C 
ENDBRANCH  29  37
ENDBRANCH  27  29
ENDBRANCH  25  27
ENDBRANCH  21  25
ENDBRANCH   1  22
TORSDOF 6
