REMARK  Name = resultss/4CJN/ligands/lig_427_t0.pdb
REMARK  8 active torsions:
REMARK  status: ('A' for Active; 'I' for Inactive)
REMARK    1  A    between atoms: C11_1  and  C10_22
REMARK    2  A    between atoms: C21_12  and  C22_15
REMARK    3  A    between atoms: N3_21  and  N2_25
REMARK    4  A    between atoms: N2_25  and  C9_27
REMARK    5  A    between atoms: C9_27  and  N1_29
REMARK    6  A    between atoms: N1_29  and  C8_36
REMARK    7  A    between atoms: C3_31  and  O1_37
REMARK    8  A    between atoms: O1_37  and  C2_39
REMARK                            x       y       z     vdW  Elec       q    Type
REMARK                         _______ _______ _______ _____ _____    ______ ____
ROOT
ATOM      1  C11 UNL     1      25.824  -7.735 -41.342  0.00  0.00    +0.000 C 
ATOM      2  C12 UNL     1      25.405  -7.223 -42.590  0.00  0.00    +0.000 C 
ATOM      3  C13 UNL     1      26.297  -7.326 -43.651  0.00  0.00    +0.000 A 
ATOM      4  C14 UNL     1      27.538  -7.908 -43.511  0.00  0.00    +0.000 A 
ATOM      5  N4  UNL     1      28.247  -7.837 -44.663  0.00  0.00    +0.000 N 
ATOM      6  C15 UNL     1      27.426  -7.216 -45.537  0.00  0.00    +0.000 A 
ATOM      7  C16 UNL     1      27.699  -6.894 -46.865  0.00  0.00    +0.000 C 
ATOM      8  C17 UNL     1      26.704  -6.221 -47.599  0.00  0.00    +0.000 C 
ATOM      9  C18 UNL     1      25.470  -5.885 -46.996  0.00  0.00    +0.000 C 
ATOM     10  C19 UNL     1      25.218  -6.218 -45.652  0.00  0.00    +0.000 C 
ATOM     11  C20 UNL     1      26.221  -6.888 -44.953  0.00  0.00    +0.000 A 
ATOM     12  C21 UNL     1      27.935  -8.428 -42.272  0.00  0.00    +0.000 C 
ATOM     13  N5  UNL     1      27.062  -8.313 -41.227  0.00  0.00    +0.000 NA
ATOM     14  H14 UNL     1      29.225  -8.155 -44.841  0.00  0.00    +0.000 HD
ENDROOT
BRANCH  12  15
ATOM     15  C22 UNL     1      29.243  -9.080 -42.056  0.00  0.00    +0.000 C 
ATOM     16  C23 UNL     1      29.570 -10.281 -42.710  0.00  0.00    +0.000 C 
ATOM     17  C24 UNL     1      30.804 -10.898 -42.476  0.00  0.00    +0.000 C 
ATOM     18  C25 UNL     1      31.712 -10.331 -41.579  0.00  0.00    +0.000 C 
ATOM     19  C26 UNL     1      31.386  -9.149 -40.909  0.00  0.00    +0.000 C 
ATOM     20  C27 UNL     1      30.154  -8.529 -41.139  0.00  0.00    +0.000 C 
ENDBRANCH  12  15
BRANCH   1  22
ATOM     21  N3  UNL     1      25.232  -8.443 -38.989  0.00  0.00    +0.000 N 
ATOM     22  C10 UNL     1      24.940  -7.665 -40.161  0.00  0.00    +0.000 C 
ATOM     23  O2  UNL     1      23.932  -6.909 -40.174  0.00  0.00    +0.000 OA
ATOM     24  H12 UNL     1      26.209  -8.784 -38.842  0.00  0.00    +0.000 HD
BRANCH  21  25
ATOM     25  N2  UNL     1      24.316  -8.584 -37.932  0.00  0.00    +0.000 N 
ATOM     26  H11 UNL     1      23.345  -8.899 -38.156  0.00  0.00    +0.000 HD
BRANCH  25  27
ATOM     27  C9  UNL     1      24.616  -8.170 -36.590  0.00  0.00    +0.000 C 
ATOM     28  S1  UNL     1      24.716  -6.565 -36.264  0.00  0.00    +0.000 S 
BRANCH  27  29
ATOM     29  N1  UNL     1      25.064  -9.138 -35.624  0.00  0.00    +0.000 N 
ATOM     30  H10 UNL     1      24.400  -9.897 -35.351  0.00  0.00    +0.000 HD
BRANCH  29  36
ATOM     31  C3  UNL     1      27.470  -9.680 -35.908  0.00  0.00    +0.000 C 
ATOM     32  C4  UNL     1      28.770  -9.719 -35.365  0.00  0.00    +0.000 C 
ATOM     33  C5  UNL     1      29.008  -9.262 -34.065  0.00  0.00    +0.000 C 
ATOM     34  C6  UNL     1      27.958  -8.757 -33.299  0.00  0.00    +0.000 C 
ATOM     35  C7  UNL     1      26.665  -8.720 -33.822  0.00  0.00    +0.000 C 
ATOM     36  C8  UNL     1      26.406  -9.202 -35.114  0.00  0.00    +0.000 C 
BRANCH  31  37
ATOM     37  O1  UNL     1      27.207 -10.085 -37.225  0.00  0.00    +0.000 OA
BRANCH  37  39
ATOM     38  C1  UNL     1      27.553 -11.140 -39.355  0.00  0.00    +0.000 C 
ATOM     39  C2  UNL     1      28.202 -10.409 -38.192  0.00  0.00    +0.000 C 
ENDBRANCH  37  39
ENDBRANCH  31  37
ENDBRANCH  29  36
ENDBRANCH  27  29
ENDBRANCH  25  27
ENDBRANCH  21  25
ENDBRANCH   1  22
TORSDOF 8
