REMARK  Name = resultss/4CJN/ligands/lig_345_t2.pdb
REMARK  11 active torsions:
REMARK  status: ('A' for Active; 'I' for Inactive)
REMARK    1  A    between atoms: C12_1  and  O2_27
REMARK    2  A    between atoms: C15_4  and  C16_7
REMARK    3  A    between atoms: C23_15  and  O3_17
REMARK    4  A    between atoms: N4_16  and  N5_19
REMARK    5  A    between atoms: N5_19  and  C24_21
REMARK    6  A    between atoms: O2_27  and  C11_28
REMARK    7  A    between atoms: C11_28  and  C10_31
REMARK    8  A    between atoms: N2_29  and  C8_34
REMARK    9  A    between atoms: C8_34  and  C7_36
REMARK   10  A    between atoms: N1_35  and  C6_39
REMARK   11  A    between atoms: C6_39  and  C5_44
REMARK                            x       y       z     vdW  Elec       q    Type
REMARK                         _______ _______ _______ _____ _____    ______ ____
ROOT
ATOM      1  C12 UNL     1      24.230  -7.674 -40.199  0.00  0.00    +0.000 C 
ATOM      2  C13 UNL     1      24.511  -6.408 -39.648  0.00  0.00    +0.000 C 
ATOM      3  C14 UNL     1      25.174  -6.302 -38.422  0.00  0.00    +0.000 C 
ATOM      4  C15 UNL     1      25.560  -7.454 -37.719  0.00  0.00    +0.000 C 
ATOM      5  C30 UNL     1      25.285  -8.716 -38.276  0.00  0.00    +0.000 C 
ATOM      6  C31 UNL     1      24.624  -8.820 -39.503  0.00  0.00    +0.000 C 
ENDROOT
BRANCH   4   7
ATOM      7  C16 UNL     1      26.246  -7.331 -36.376  0.00  0.00    +0.000 C 
ATOM      8  N3  UNL     1      25.418  -6.542 -35.465  0.00  0.00    +0.000 NA
ATOM      9  C17 UNL     1      24.694  -7.049 -34.508  0.00  0.00    +0.000 C 
ATOM     10  C18 UNL     1      23.880  -6.188 -33.762  0.00  0.00    +0.000 C 
ATOM     11  C19 UNL     1      23.057  -6.689 -32.757  0.00  0.00    +0.000 C 
ATOM     12  C20 UNL     1      23.041  -8.055 -32.484  0.00  0.00    +0.000 C 
ATOM     13  C21 UNL     1      23.858  -8.929 -33.205  0.00  0.00    +0.000 C 
ATOM     14  C22 UNL     1      24.709  -8.443 -34.224  0.00  0.00    +0.000 C 
ATOM     15  C23 UNL     1      25.567  -9.248 -34.899  0.00  0.00    +0.000 C 
ATOM     16  N4  UNL     1      26.510  -8.657 -35.813  0.00  0.00    +0.000 NA
BRANCH  15  17
ATOM     17  O3  UNL     1      25.587 -10.639 -34.746  0.00  0.00    +0.000 OA
ATOM     18  H21 UNL     1      26.412 -11.213 -34.824  0.00  0.00    +0.000 HD
ENDBRANCH  15  17
BRANCH  16  19
ATOM     19  N5  UNL     1      27.606  -9.398 -36.292  0.00  0.00    +0.000 N 
ATOM     20  H22 UNL     1      27.542  -9.827 -37.245  0.00  0.00    +0.000 HD
BRANCH  19  21
ATOM     21  C24 UNL     1      28.857  -9.471 -35.587  0.00  0.00    +0.000 C 
ATOM     22  C25 UNL     1      28.901  -9.605 -34.187  0.00  0.00    +0.000 C 
ATOM     23  C26 UNL     1      30.131  -9.661 -33.522  0.00  0.00    +0.000 C 
ATOM     24  C27 UNL     1      31.323  -9.569 -34.245  0.00  0.00    +0.000 C 
ATOM     25  C28 UNL     1      31.289  -9.414 -35.632  0.00  0.00    +0.000 C 
ATOM     26  C29 UNL     1      30.062  -9.360 -36.302  0.00  0.00    +0.000 C 
ENDBRANCH  19  21
ENDBRANCH  16  19
ENDBRANCH   4   7
BRANCH   1  27
ATOM     27  O2  UNL     1      23.551  -7.839 -41.418  0.00  0.00    +0.000 OA
BRANCH  27  28
ATOM     28  C11 UNL     1      24.105  -7.607 -42.711  0.00  0.00    +0.000 C 
BRANCH  28  31
ATOM     29  N2  UNL     1      27.689  -8.190 -42.798  0.00  0.00    +0.000 N 
ATOM     30  C9  UNL     1      26.662  -7.325 -42.716  0.00  0.00    +0.000 C 
ATOM     31  C10 UNL     1      25.518  -8.090 -42.772  0.00  0.00    +0.000 C 
ATOM     32  N6  UNL     1      25.877  -9.385 -42.889  0.00  0.00    +0.000 NA
ATOM     33  N7  UNL     1      27.202  -9.415 -42.909  0.00  0.00    +0.000 NA
BRANCH  29  34
ATOM     34  C8  UNL     1      29.110  -7.858 -42.839  0.00  0.00    +0.000 C 
BRANCH  34  36
ATOM     35  N1  UNL     1      30.370 -10.037 -43.196  0.00  0.00    +0.000 N 
ATOM     36  C7  UNL     1      29.921  -9.002 -42.309  0.00  0.00    +0.000 C 
ATOM     37  O1  UNL     1      30.200  -9.050 -41.082  0.00  0.00    +0.000 OA
ATOM     38  H8  UNL     1      30.163  -9.956 -44.214  0.00  0.00    +0.000 HD
BRANCH  35  39
ATOM     39  C6  UNL     1      31.177 -11.169 -42.745  0.00  0.00    +0.000 C 
BRANCH  39  44
ATOM     40  C1  UNL     1      34.322 -13.318 -47.147  0.00  0.00    +0.000 C 
ATOM     41  C2  UNL     1      33.496 -12.765 -46.024  0.00  0.00    +0.000 C 
ATOM     42  C3  UNL     1      32.639 -13.599 -45.290  0.00  0.00    +0.000 C 
ATOM     43  C4  UNL     1      31.892 -13.083 -44.226  0.00  0.00    +0.000 C 
ATOM     44  C5  UNL     1      32.000 -11.727 -43.877  0.00  0.00    +0.000 C 
ATOM     45  C32 UNL     1      32.872 -10.898 -44.601  0.00  0.00    +0.000 C 
ATOM     46  C33 UNL     1      33.621 -11.415 -45.663  0.00  0.00    +0.000 C 
ENDBRANCH  39  44
ENDBRANCH  35  39
ENDBRANCH  34  36
ENDBRANCH  29  34
ENDBRANCH  28  31
ENDBRANCH  27  28
ENDBRANCH   1  27
TORSDOF 11
