REMARK  Name = resultss/4CJN/ligands/lig_422_t0.pdb
REMARK  8 active torsions:
REMARK  status: ('A' for Active; 'I' for Inactive)
REMARK    1  A    between atoms: C1_2  and  C10_5
REMARK    2  A    between atoms: N1_3  and  N2_25
REMARK    3  A    between atoms: C20_16  and  C21_19
REMARK    4  A    between atoms: N2_25  and  C2_27
REMARK    5  A    between atoms: C2_27  and  N3_29
REMARK    6  A    between atoms: N3_29  and  C3_31
REMARK    7  A    between atoms: C8_36  and  O2_37
REMARK    8  A    between atoms: O2_37  and  C9_38
REMARK                            x       y       z     vdW  Elec       q    Type
REMARK                         _______ _______ _______ _____ _____    ______ ____
ROOT
ATOM      1  O1  UNL     1      26.718 -10.414 -39.633  0.00  0.00    +0.000 OA
ATOM      2  C1  UNL     1      27.808 -10.404 -38.997  0.00  0.00    +0.000 C 
ATOM      3  N1  UNL     1      29.025 -10.773 -39.665  0.00  0.00    +0.000 N 
ATOM      4  H1  UNL     1      29.917 -10.764 -39.125  0.00  0.00    +0.000 HD
ENDROOT
BRANCH   2   5
ATOM      5  C10 UNL     1      27.821 -10.017 -37.570  0.00  0.00    +0.000 C 
ATOM      6  C11 UNL     1      29.025 -10.017 -36.832  0.00  0.00    +0.000 C 
ATOM      7  C12 UNL     1      28.954  -9.625 -35.500  0.00  0.00    +0.000 A 
ATOM      8  C13 UNL     1      27.766  -9.258 -34.906  0.00  0.00    +0.000 A 
ATOM      9  N4  UNL     1      27.959  -8.856 -33.627  0.00  0.00    +0.000 N 
ATOM     10  C14 UNL     1      29.287  -8.994 -33.418  0.00  0.00    +0.000 A 
ATOM     11  C15 UNL     1      29.992  -8.698 -32.252  0.00  0.00    +0.000 C 
ATOM     12  C16 UNL     1      31.385  -8.897 -32.255  0.00  0.00    +0.000 C 
ATOM     13  C17 UNL     1      32.039  -9.378 -33.411  0.00  0.00    +0.000 C 
ATOM     14  C18 UNL     1      31.309  -9.666 -34.578  0.00  0.00    +0.000 C 
ATOM     15  C19 UNL     1      29.930  -9.465 -34.544  0.00  0.00    +0.000 A 
ATOM     16  C20 UNL     1      26.575  -9.280 -35.643  0.00  0.00    +0.000 C 
ATOM     17  N5  UNL     1      26.650  -9.650 -36.957  0.00  0.00    +0.000 NA
ATOM     18  H9  UNL     1      27.256  -8.483 -32.951  0.00  0.00    +0.000 HD
BRANCH  16  19
ATOM     19  C21 UNL     1      25.263  -8.917 -35.066  0.00  0.00    +0.000 C 
ATOM     20  C22 UNL     1      24.891  -9.354 -33.782  0.00  0.00    +0.000 C 
ATOM     21  C23 UNL     1      23.635  -9.026 -33.262  0.00  0.00    +0.000 C 
ATOM     22  C24 UNL     1      22.736  -8.273 -34.022  0.00  0.00    +0.000 C 
ATOM     23  C25 UNL     1      23.090  -7.853 -35.308  0.00  0.00    +0.000 C 
ATOM     24  C26 UNL     1      24.344  -8.179 -35.831  0.00  0.00    +0.000 C 
ENDBRANCH  16  19
ENDBRANCH   2   5
BRANCH   3  25
ATOM     25  N2  UNL     1      29.031 -11.125 -41.029  0.00  0.00    +0.000 N 
ATOM     26  H2  UNL     1      28.802 -12.105 -41.307  0.00  0.00    +0.000 HD
BRANCH  25  27
ATOM     27  C2  UNL     1      29.310 -10.181 -42.078  0.00  0.00    +0.000 C 
ATOM     28  S1  UNL     1      28.088  -9.338 -42.792  0.00  0.00    +0.000 S 
BRANCH  27  29
ATOM     29  N3  UNL     1      30.679  -9.873 -42.388  0.00  0.00    +0.000 N 
ATOM     30  H3  UNL     1      31.007  -8.888 -42.271  0.00  0.00    +0.000 HD
BRANCH  29  31
ATOM     31  C3  UNL     1      31.665 -10.858 -42.728  0.00  0.00    +0.000 C 
ATOM     32  C4  UNL     1      31.282 -11.971 -43.496  0.00  0.00    +0.000 C 
ATOM     33  C5  UNL     1      32.176 -13.018 -43.724  0.00  0.00    +0.000 C 
ATOM     34  C6  UNL     1      33.454 -12.976 -43.169  0.00  0.00    +0.000 C 
ATOM     35  C7  UNL     1      33.846 -11.879 -42.399  0.00  0.00    +0.000 C 
ATOM     36  C8  UNL     1      32.975 -10.802 -42.188  0.00  0.00    +0.000 C 
BRANCH  36  37
ATOM     37  O2  UNL     1      33.469  -9.714 -41.448  0.00  0.00    +0.000 OA
BRANCH  37  38
ATOM     38  C9  UNL     1      33.477  -9.605 -40.024  0.00  0.00    +0.000 C 
ATOM     39  F1  UNL     1      34.282 -10.581 -39.461  0.00  0.00    +0.000 F 
ATOM     40  F2  UNL     1      32.188  -9.777 -39.560  0.00  0.00    +0.000 F 
ATOM     41  F3  UNL     1      33.912  -8.352 -39.639  0.00  0.00    +0.000 F 
ENDBRANCH  37  38
ENDBRANCH  36  37
ENDBRANCH  29  31
ENDBRANCH  27  29
ENDBRANCH  25  27
ENDBRANCH   3  25
TORSDOF 8
