REMARK  Name = resultss/4CJN/ligands/lig_348_t0.pdb
REMARK  9 active torsions:
REMARK  status: ('A' for Active; 'I' for Inactive)
REMARK    1  A    between atoms: C6_1  and  O2_27
REMARK    2  A    between atoms: C9_4  and  C10_7
REMARK    3  A    between atoms: N3_17  and  N4_19
REMARK    4  A    between atoms: N4_19  and  C18_21
REMARK    5  A    between atoms: O2_27  and  C5_28
REMARK    6  A    between atoms: C5_28  and  C4_31
REMARK    7  A    between atoms: N1_29  and  C2_34
REMARK    8  A    between atoms: C2_34  and  C1_36
REMARK    9  A    between atoms: N7_37  and  C26_39
REMARK                            x       y       z     vdW  Elec       q    Type
REMARK                         _______ _______ _______ _____ _____    ______ ____
ROOT
ATOM      1  C6  UNL     1      26.888  -8.658 -34.444  0.00  0.00    +0.000 C 
ATOM      2  C7  UNL     1      27.652  -9.812 -34.646  0.00  0.00    +0.000 C 
ATOM      3  C8  UNL     1      28.881  -9.973 -34.002  0.00  0.00    +0.000 C 
ATOM      4  C9  UNL     1      29.367  -8.976 -33.139  0.00  0.00    +0.000 C 
ATOM      5  C24 UNL     1      28.609  -7.812 -32.943  0.00  0.00    +0.000 C 
ATOM      6  C25 UNL     1      27.380  -7.652 -33.588  0.00  0.00    +0.000 C 
ENDROOT
BRANCH   4   7
ATOM      7  C10 UNL     1      30.724  -9.129 -32.488  0.00  0.00    +0.000 C 
ATOM      8  N2  UNL     1      30.786 -10.423 -31.794  0.00  0.00    +0.000 N 
ATOM      9  C11 UNL     1      32.004 -11.165 -31.649  0.00  0.00    +0.000 C 
ATOM     10  C12 UNL     1      32.071 -12.241 -30.750  0.00  0.00    +0.000 C 
ATOM     11  C13 UNL     1      33.257 -12.967 -30.609  0.00  0.00    +0.000 C 
ATOM     12  C14 UNL     1      34.380 -12.627 -31.367  0.00  0.00    +0.000 C 
ATOM     13  C15 UNL     1      34.317 -11.563 -32.271  0.00  0.00    +0.000 C 
ATOM     14  C16 UNL     1      33.128 -10.828 -32.417  0.00  0.00    +0.000 C 
ATOM     15  C17 UNL     1      33.018  -9.724 -33.381  0.00  0.00    +0.000 C 
ATOM     16  O3  UNL     1      34.003  -9.416 -34.105  0.00  0.00    +0.000 OA
ATOM     17  N3  UNL     1      31.780  -9.000 -33.506  0.00  0.00    +0.000 N 
ATOM     18  H9  UNL     1      29.961 -10.705 -31.216  0.00  0.00    +0.000 HD
BRANCH  17  19
ATOM     19  N4  UNL     1      31.697  -7.942 -34.432  0.00  0.00    +0.000 N 
ATOM     20  H14 UNL     1      31.858  -6.968 -34.092  0.00  0.00    +0.000 HD
BRANCH  19  21
ATOM     21  C18 UNL     1      31.210  -8.133 -35.770  0.00  0.00    +0.000 C 
ATOM     22  C19 UNL     1      30.439  -7.128 -36.376  0.00  0.00    +0.000 C 
ATOM     23  C20 UNL     1      29.932  -7.306 -37.667  0.00  0.00    +0.000 C 
ATOM     24  C21 UNL     1      30.185  -8.491 -38.360  0.00  0.00    +0.000 C 
ATOM     25  C22 UNL     1      30.944  -9.501 -37.763  0.00  0.00    +0.000 C 
ATOM     26  C23 UNL     1      31.454  -9.326 -36.474  0.00  0.00    +0.000 C 
ENDBRANCH  19  21
ENDBRANCH  17  19
ENDBRANCH   4   7
BRANCH   1  27
ATOM     27  O2  UNL     1      25.660  -8.548 -35.118  0.00  0.00    +0.000 OA
BRANCH  27  28
ATOM     28  C5  UNL     1      25.059  -7.328 -35.547  0.00  0.00    +0.000 C 
BRANCH  28  31
ATOM     29  N1  UNL     1      24.730  -7.694 -39.142  0.00  0.00    +0.000 N 
ATOM     30  C3  UNL     1      24.579  -8.208 -37.909  0.00  0.00    +0.000 C 
ATOM     31  C4  UNL     1      25.048  -7.249 -37.041  0.00  0.00    +0.000 C 
ATOM     32  N5  UNL     1      25.471  -6.189 -37.759  0.00  0.00    +0.000 NA
ATOM     33  N6  UNL     1      25.273  -6.492 -39.034  0.00  0.00    +0.000 NA
BRANCH  29  34
ATOM     34  C2  UNL     1      24.443  -8.358 -40.408  0.00  0.00    +0.000 C 
BRANCH  34  36
ATOM     35  O1  UNL     1      25.349 -10.427 -41.172  0.00  0.00    +0.000 OA
ATOM     36  C1  UNL     1      25.584  -9.255 -40.773  0.00  0.00    +0.000 C 
ATOM     37  N7  UNL     1      26.933  -8.776 -40.662  0.00  0.00    +0.000 N 
ATOM     38  H22 UNL     1      27.109  -7.953 -40.041  0.00  0.00    +0.000 HD
BRANCH  37  39
ATOM     39  C26 UNL     1      28.060  -9.393 -41.307  0.00  0.00    +0.000 C 
ATOM     40  C27 UNL     1      28.622  -8.786 -42.441  0.00  0.00    +0.000 C 
ATOM     41  C28 UNL     1      29.700  -9.382 -43.103  0.00  0.00    +0.000 C 
ATOM     42  C29 UNL     1      30.217 -10.598 -42.648  0.00  0.00    +0.000 C 
ATOM     43 BR1  UNL     1      31.685 -11.414 -43.557  0.00  0.00    +0.000 Br
ATOM     44  C30 UNL     1      29.650 -11.222 -41.534  0.00  0.00    +0.000 C 
ATOM     45  C31 UNL     1      28.574 -10.629 -40.868  0.00  0.00    +0.000 C 
ENDBRANCH  37  39
ENDBRANCH  34  36
ENDBRANCH  29  34
ENDBRANCH  28  31
ENDBRANCH  27  28
ENDBRANCH   1  27
TORSDOF 9
