REMARK  Name = resultss/4CJN/ligands/lig_421_t0.pdb
REMARK  7 active torsions:
REMARK  status: ('A' for Active; 'I' for Inactive)
REMARK    1  A    between atoms: C1_2  and  C10_5
REMARK    2  A    between atoms: N1_3  and  N2_25
REMARK    3  A    between atoms: C20_16  and  C21_19
REMARK    4  A    between atoms: N2_25  and  C2_27
REMARK    5  A    between atoms: C2_27  and  N3_29
REMARK    6  A    between atoms: N3_29  and  C3_31
REMARK    7  A    between atoms: C6_34  and  C7_37
REMARK                            x       y       z     vdW  Elec       q    Type
REMARK                         _______ _______ _______ _____ _____    ______ ____
ROOT
ATOM      1  O1  UNL     1      25.317  -6.084 -40.931  0.00  0.00    +0.000 OA
ATOM      2  C1  UNL     1      24.597  -6.883 -40.273  0.00  0.00    +0.000 C 
ATOM      3  N1  UNL     1      23.320  -7.286 -40.794  0.00  0.00    +0.000 N 
ATOM      4  H1  UNL     1      22.754  -7.984 -40.261  0.00  0.00    +0.000 HD
ENDROOT
BRANCH   2   5
ATOM      5  C10 UNL     1      25.077  -7.406 -38.976  0.00  0.00    +0.000 C 
ATOM      6  C11 UNL     1      24.190  -7.564 -37.889  0.00  0.00    +0.000 C 
ATOM      7  C12 UNL     1      24.727  -8.029 -36.693  0.00  0.00    +0.000 A 
ATOM      8  C13 UNL     1      26.062  -8.345 -36.563  0.00  0.00    +0.000 A 
ATOM      9  N4  UNL     1      26.361  -8.701 -35.290  0.00  0.00    +0.000 N 
ATOM     10  C14 UNL     1      25.188  -8.619 -34.625  0.00  0.00    +0.000 A 
ATOM     11  C15 UNL     1      24.968  -8.879 -33.272  0.00  0.00    +0.000 C 
ATOM     12  C16 UNL     1      23.660  -8.719 -32.774  0.00  0.00    +0.000 C 
ATOM     13  C17 UNL     1      22.612  -8.302 -33.626  0.00  0.00    +0.000 C 
ATOM     14  C18 UNL     1      22.859  -8.038 -34.986  0.00  0.00    +0.000 C 
ATOM     15  C19 UNL     1      24.162  -8.213 -35.452  0.00  0.00    +0.000 A 
ATOM     16  C20 UNL     1      26.928  -8.210 -37.657  0.00  0.00    +0.000 C 
ATOM     17  N5  UNL     1      26.402  -7.730 -38.825  0.00  0.00    +0.000 NA
ATOM     18  H9  UNL     1      27.292  -8.945 -34.888  0.00  0.00    +0.000 HD
BRANCH  16  19
ATOM     19  C21 UNL     1      28.365  -8.546 -37.594  0.00  0.00    +0.000 C 
ATOM     20  C22 UNL     1      28.797  -9.885 -37.605  0.00  0.00    +0.000 C 
ATOM     21  C23 UNL     1      30.163 -10.185 -37.575  0.00  0.00    +0.000 C 
ATOM     22  C24 UNL     1      31.107  -9.155 -37.549  0.00  0.00    +0.000 C 
ATOM     23  C25 UNL     1      30.686  -7.824 -37.561  0.00  0.00    +0.000 C 
ATOM     24  C26 UNL     1      29.322  -7.518 -37.591  0.00  0.00    +0.000 C 
ENDBRANCH  16  19
ENDBRANCH   2   5
BRANCH   3  25
ATOM     25  N2  UNL     1      22.855  -6.816 -42.036  0.00  0.00    +0.000 N 
ATOM     26  H2  UNL     1      22.383  -5.886 -42.093  0.00  0.00    +0.000 HD
BRANCH  25  27
ATOM     27  C2  UNL     1      23.115  -7.529 -43.254  0.00  0.00    +0.000 C 
ATOM     28  S1  UNL     1      22.549  -6.916 -44.668  0.00  0.00    +0.000 S 
BRANCH  27  29
ATOM     29  N3  UNL     1      23.653  -8.858 -43.215  0.00  0.00    +0.000 N 
ATOM     30  H3  UNL     1      23.036  -9.640 -43.526  0.00  0.00    +0.000 HD
BRANCH  29  31
ATOM     31  C3  UNL     1      25.001  -9.167 -42.814  0.00  0.00    +0.000 C 
ATOM     32  C4  UNL     1      25.218 -10.033 -41.731  0.00  0.00    +0.000 C 
ATOM     33  C5  UNL     1      26.518 -10.332 -41.308  0.00  0.00    +0.000 C 
ATOM     34  C6  UNL     1      27.628  -9.766 -41.963  0.00  0.00    +0.000 C 
ATOM     35  C8  UNL     1      27.408  -8.869 -43.022  0.00  0.00    +0.000 C 
ATOM     36  C9  UNL     1      26.108  -8.571 -43.442  0.00  0.00    +0.000 C 
BRANCH  34  37
ATOM     37  C7  UNL     1      29.035 -10.031 -41.490  0.00  0.00    +0.000 C 
ATOM     38  F1  UNL     1      29.857 -10.201 -42.588  0.00  0.00    +0.000 F 
ATOM     39  F2  UNL     1      29.516  -8.982 -40.724  0.00  0.00    +0.000 F 
ATOM     40  F3  UNL     1      29.065 -11.185 -40.725  0.00  0.00    +0.000 F 
ENDBRANCH  34  37
ENDBRANCH  29  31
ENDBRANCH  27  29
ENDBRANCH  25  27
ENDBRANCH   3  25
TORSDOF 7
