REMARK  Name = resultss/4CJN/ligands/lig_93_t0.pdb
REMARK  7 active torsions:
REMARK  status: ('A' for Active; 'I' for Inactive)
REMARK    1  A    between atoms: C6_6  and  C8_33
REMARK    2  A    between atoms: C9_8  and  O2_14
REMARK    3  A    between atoms: C14_13  and  C15_16
REMARK    4  A    between atoms: C16_17  and  C17_18
REMARK    5  A    between atoms: C20_21  and  C21_25
REMARK    6  A    between atoms: C24_28  and  O3_31
REMARK    7  A    between atoms: C8_33  and  O1_34
REMARK                            x       y       z     vdW  Elec       q    Type
REMARK                         _______ _______ _______ _____ _____    ______ ____
ROOT
ATOM      1  C1  UNL     1      30.535  -9.522 -41.000  0.00  0.00    +0.000 C 
ATOM      2  C2  UNL     1      30.255  -9.293 -39.702  0.00  0.00    +0.000 C 
ATOM      3  C3  UNL     1      31.267  -9.773 -38.683  0.00  0.00    +0.000 C 
ATOM      4  C4  UNL     1      30.675  -9.965 -37.285  0.00  0.00    +0.000 C 
ATOM      5  C5  UNL     1      29.840  -8.736 -36.847  0.00  0.00    +0.000 C 
ATOM      6  C6  UNL     1      29.558  -8.614 -35.281  0.00  0.00    +0.000 C 
ATOM      7  C7  UNL     1      30.908  -8.367 -34.544  0.00  0.00    +0.000 C 
ATOM      8  C9  UNL     1      28.679  -7.340 -35.034  0.00  0.00    +0.000 C 
ATOM      9  C10 UNL     1      27.422  -7.295 -35.919  0.00  0.00    +0.000 C 
ATOM     10  C11 UNL     1      27.805  -7.278 -37.396  0.00  0.00    +0.000 C 
ATOM     11  C12 UNL     1      28.620  -8.531 -37.831  0.00  0.00    +0.000 C 
ATOM     12  C13 UNL     1      27.678  -9.771 -37.877  0.00  0.00    +0.000 C 
ATOM     13  C14 UNL     1      29.201  -8.259 -39.277  0.00  0.00    +0.000 C 
ENDROOT
BRANCH   8  14
ATOM     14  O2  UNL     1      28.345  -7.181 -33.674  0.00  0.00    +0.000 OA
ATOM     15  H15 UNL     1      29.136  -6.817 -33.198  0.00  0.00    +0.000 HD
ENDBRANCH   8  14
BRANCH  13  16
ATOM     16  C15 UNL     1      28.109  -8.000 -40.309  0.00  0.00    +0.000 C 
ATOM     17  C16 UNL     1      27.589  -8.953 -41.092  0.00  0.00    +0.000 C 
BRANCH  17  18
ATOM     18  C17 UNL     1      26.510  -8.702 -42.067  0.00  0.00    +0.000 C 
ATOM     19  C18 UNL     1      26.497  -7.675 -42.912  0.00  0.00    +0.000 C 
ATOM     20  C19 UNL     1      25.292  -7.787 -43.738  0.00  0.00    +0.000 C 
ATOM     21  C20 UNL     1      24.923  -6.917 -44.684  0.00  0.00    +0.000 C 
ATOM     22  O4  UNL     1      24.579  -8.919 -43.366  0.00  0.00    +0.000 OA
ATOM     23  C28 UNL     1      25.312  -9.502 -42.347  0.00  0.00    +0.000 C 
ATOM     24  O5  UNL     1      24.990 -10.584 -41.790  0.00  0.00    +0.000 OA
BRANCH  21  25
ATOM     25  C21 UNL     1      23.702  -7.063 -45.508  0.00  0.00    +0.000 C 
ATOM     26  C22 UNL     1      23.748  -7.520 -46.837  0.00  0.00    +0.000 C 
ATOM     27  C23 UNL     1      22.575  -7.617 -47.593  0.00  0.00    +0.000 C 
ATOM     28  C24 UNL     1      21.337  -7.246 -47.036  0.00  0.00    +0.000 C 
ATOM     29  C26 UNL     1      21.297  -6.773 -45.721  0.00  0.00    +0.000 C 
ATOM     30  C27 UNL     1      22.468  -6.672 -44.964  0.00  0.00    +0.000 C 
BRANCH  28  31
ATOM     31  O3  UNL     1      20.135  -7.325 -47.754  0.00  0.00    +0.000 OA
ATOM     32  C25 UNL     1      18.861  -7.570 -47.167  0.00  0.00    +0.000 C 
ENDBRANCH  28  31
ENDBRANCH  21  25
ENDBRANCH  17  18
ENDBRANCH  13  16
BRANCH   6  33
ATOM     33  C8  UNL     1      28.890  -9.859 -34.601  0.00  0.00    +0.000 C 
BRANCH  33  34
ATOM     34  O1  UNL     1      29.277 -10.028 -33.264  0.00  0.00    +0.000 OA
ATOM     35  H13 UNL     1      29.925 -10.779 -33.239  0.00  0.00    +0.000 HD
ENDBRANCH  33  34
ENDBRANCH   6  33
TORSDOF 7
