REMARK  Name = resultss/4CJN/ligands/lig_407_t0.pdb
REMARK  6 active torsions:
REMARK  status: ('A' for Active; 'I' for Inactive)
REMARK    1  A    between atoms: C9_1  and  C1_22
REMARK    2  A    between atoms: C19_12  and  C20_15
REMARK    3  A    between atoms: N1_23  and  N2_25
REMARK    4  A    between atoms: N2_25  and  C2_27
REMARK    5  A    between atoms: C2_27  and  N3_29
REMARK    6  A    between atoms: N3_29  and  C3_31
REMARK                            x       y       z     vdW  Elec       q    Type
REMARK                         _______ _______ _______ _____ _____    ______ ____
ROOT
ATOM      1  C9  UNL     1      29.382  -9.400 -39.581  0.00  0.00    +0.000 C 
ATOM      2  C10 UNL     1      28.526  -9.421 -40.704  0.00  0.00    +0.000 C 
ATOM      3  C11 UNL     1      27.179  -9.162 -40.480  0.00  0.00    +0.000 A 
ATOM      4  C12 UNL     1      26.682  -8.901 -39.221  0.00  0.00    +0.000 A 
ATOM      5  N4  UNL     1      25.358  -8.615 -39.264  0.00  0.00    +0.000 N 
ATOM      6  C13 UNL     1      25.024  -8.720 -40.568  0.00  0.00    +0.000 A 
ATOM      7  C14 UNL     1      23.769  -8.508 -41.136  0.00  0.00    +0.000 C 
ATOM      8  C15 UNL     1      23.643  -8.651 -42.530  0.00  0.00    +0.000 C 
ATOM      9  C16 UNL     1      24.762  -8.994 -43.322  0.00  0.00    +0.000 C 
ATOM     10  C17 UNL     1      26.021  -9.198 -42.728  0.00  0.00    +0.000 C 
ATOM     11  C18 UNL     1      26.114  -9.055 -41.345  0.00  0.00    +0.000 A 
ATOM     12  C19 UNL     1      27.538  -8.898 -38.113  0.00  0.00    +0.000 C 
ATOM     13  N5  UNL     1      28.866  -9.138 -38.338  0.00  0.00    +0.000 NA
ATOM     14  H9  UNL     1      24.730  -8.337 -38.479  0.00  0.00    +0.000 HD
ENDROOT
BRANCH  12  15
ATOM     15  C20 UNL     1      27.072  -8.644 -36.734  0.00  0.00    +0.000 C 
ATOM     16  C21 UNL     1      26.723  -9.706 -35.880  0.00  0.00    +0.000 C 
ATOM     17  C22 UNL     1      26.308  -9.450 -34.570  0.00  0.00    +0.000 C 
ATOM     18  C23 UNL     1      26.251  -8.136 -34.097  0.00  0.00    +0.000 C 
ATOM     19  C24 UNL     1      26.616  -7.076 -34.932  0.00  0.00    +0.000 C 
ATOM     20  C25 UNL     1      27.032  -7.328 -36.243  0.00  0.00    +0.000 C 
ENDBRANCH  12  15
BRANCH   1  22
ATOM     21  O1  UNL     1      31.566  -9.719 -38.707  0.00  0.00    +0.000 OA
ATOM     22  C1  UNL     1      30.832  -9.643 -39.731  0.00  0.00    +0.000 C 
ATOM     23  N1  UNL     1      31.416  -9.777 -41.035  0.00  0.00    +0.000 N 
ATOM     24  H1  UNL     1      30.899  -9.398 -41.860  0.00  0.00    +0.000 HD
BRANCH  23  25
ATOM     25  N2  UNL     1      32.771 -10.113 -41.205  0.00  0.00    +0.000 N 
ATOM     26  H2  UNL     1      33.468  -9.640 -40.589  0.00  0.00    +0.000 HD
BRANCH  25  27
ATOM     27  C2  UNL     1      33.230 -10.978 -42.259  0.00  0.00    +0.000 C 
ATOM     28  S1  UNL     1      34.380 -12.115 -41.975  0.00  0.00    +0.000 S 
BRANCH  27  29
ATOM     29  N3  UNL     1      32.710 -10.847 -43.590  0.00  0.00    +0.000 N 
ATOM     30  H3  UNL     1      32.092 -10.029 -43.796  0.00  0.00    +0.000 HD
BRANCH  29  31
ATOM     31  C3  UNL     1      33.001 -11.762 -44.659  0.00  0.00    +0.000 C 
ATOM     32  C4  UNL     1      33.876 -11.403 -45.702  0.00  0.00    +0.000 C 
ATOM     33  C5  UNL     1      34.123 -12.290 -46.754  0.00  0.00    +0.000 C 
ATOM     34  C6  UNL     1      33.491 -13.535 -46.782  0.00  0.00    +0.000 C 
ATOM     35  C7  UNL     1      32.604 -13.893 -45.763  0.00  0.00    +0.000 C 
ATOM     36  C8  UNL     1      32.352 -13.008 -44.709  0.00  0.00    +0.000 C 
ATOM     37  F1  UNL     1      31.488 -13.369 -43.727  0.00  0.00    +0.000 F 
ENDBRANCH  29  31
ENDBRANCH  27  29
ENDBRANCH  25  27
ENDBRANCH  23  25
ENDBRANCH   1  22
TORSDOF 6
