REMARK  Name = resultss/4CJN/ligands/lig_342_t1.pdb
REMARK  11 active torsions:
REMARK  status: ('A' for Active; 'I' for Inactive)
REMARK    1  A    between atoms: C2_1  and  O1_28
REMARK    2  A    between atoms: C4_3  and  C5_7
REMARK    3  A    between atoms: C21_6  and  O3_29
REMARK    4  A    between atoms: N2_17  and  N3_19
REMARK    5  A    between atoms: N3_19  and  C13_21
REMARK    6  A    between atoms: O3_29  and  C22_30
REMARK    7  A    between atoms: C22_30  and  C23_31
REMARK    8  A    between atoms: N4_33  and  C25_36
REMARK    9  A    between atoms: C25_36  and  C26_37
REMARK   10  A    between atoms: C26_37  and  O4_47
REMARK   11  A    between atoms: N5_38  and  C27_39
REMARK                            x       y       z     vdW  Elec       q    Type
REMARK                         _______ _______ _______ _____ _____    ______ ____
ROOT
ATOM      1  C2  UNL     1      29.948  -6.624 -37.475  0.00  0.00    +0.000 C 
ATOM      2  C3  UNL     1      29.298  -7.023 -36.291  0.00  0.00    +0.000 C 
ATOM      3  C4  UNL     1      30.028  -7.232 -35.107  0.00  0.00    +0.000 C 
ATOM      4  C19 UNL     1      31.410  -6.981 -35.108  0.00  0.00    +0.000 C 
ATOM      5  C20 UNL     1      32.059  -6.573 -36.276  0.00  0.00    +0.000 C 
ATOM      6  C21 UNL     1      31.332  -6.404 -37.469  0.00  0.00    +0.000 C 
ENDROOT
BRANCH   3   7
ATOM      7  C5  UNL     1      29.350  -7.637 -33.816  0.00  0.00    +0.000 C 
ATOM      8  N1  UNL     1      28.271  -6.692 -33.512  0.00  0.00    +0.000 N 
ATOM      9  C6  UNL     1      26.907  -6.933 -33.881  0.00  0.00    +0.000 C 
ATOM     10  C7  UNL     1      25.975  -5.883 -33.861  0.00  0.00    +0.000 C 
ATOM     11  C8  UNL     1      24.641  -6.121 -34.210  0.00  0.00    +0.000 C 
ATOM     12  C9  UNL     1      24.234  -7.405 -34.581  0.00  0.00    +0.000 C 
ATOM     13  C10 UNL     1      25.157  -8.456 -34.596  0.00  0.00    +0.000 C 
ATOM     14  C11 UNL     1      26.497  -8.225 -34.239  0.00  0.00    +0.000 C 
ATOM     15  C12 UNL     1      27.487  -9.314 -34.206  0.00  0.00    +0.000 C 
ATOM     16  O2  UNL     1      27.134 -10.500 -34.453  0.00  0.00    +0.000 OA
ATOM     17  N2  UNL     1      28.857  -9.028 -33.873  0.00  0.00    +0.000 N 
ATOM     18  H6  UNL     1      28.542  -5.743 -33.166  0.00  0.00    +0.000 HD
BRANCH  17  19
ATOM     19  N3  UNL     1      29.788 -10.086 -33.870  0.00  0.00    +0.000 N 
ATOM     20  H11 UNL     1      29.507 -11.001 -34.286  0.00  0.00    +0.000 HD
BRANCH  19  21
ATOM     21  C13 UNL     1      31.073  -9.980 -33.233  0.00  0.00    +0.000 C 
ATOM     22  C14 UNL     1      32.240 -10.011 -34.017  0.00  0.00    +0.000 C 
ATOM     23  C15 UNL     1      33.500  -9.939 -33.413  0.00  0.00    +0.000 C 
ATOM     24  C16 UNL     1      33.605  -9.843 -32.024  0.00  0.00    +0.000 C 
ATOM     25  C17 UNL     1      32.449  -9.823 -31.235  0.00  0.00    +0.000 C 
ATOM     26  C18 UNL     1      31.187  -9.901 -31.833  0.00  0.00    +0.000 C 
ENDBRANCH  19  21
ENDBRANCH  17  19
ENDBRANCH   3   7
BRANCH   1  28
ATOM     27  C1  UNL     1      27.925  -5.917 -38.773  0.00  0.00    +0.000 C 
ATOM     28  O1  UNL     1      29.249  -6.436 -38.679  0.00  0.00    +0.000 OA
ENDBRANCH   1  28
BRANCH   6  29
ATOM     29  O3  UNL     1      31.948  -6.024 -38.672  0.00  0.00    +0.000 OA
BRANCH  29  30
ATOM     30  C22 UNL     1      32.915  -6.800 -39.373  0.00  0.00    +0.000 C 
BRANCH  30  31
ATOM     31  C23 UNL     1      32.218  -7.887 -40.123  0.00  0.00    +0.000 C 
ATOM     32  C24 UNL     1      30.878  -7.950 -40.430  0.00  0.00    +0.000 C 
ATOM     33  N4  UNL     1      30.715  -9.070 -41.151  0.00  0.00    +0.000 N 
ATOM     34  N6  UNL     1      31.890  -9.669 -41.268  0.00  0.00    +0.000 NA
ATOM     35  N7  UNL     1      32.828  -8.967 -40.649  0.00  0.00    +0.000 NA
BRANCH  33  36
ATOM     36  C25 UNL     1      29.469  -9.566 -41.727  0.00  0.00    +0.000 C 
BRANCH  36  37
ATOM     37  C26 UNL     1      29.185 -10.967 -41.257  0.00  0.00    +0.000 C 
ATOM     38  N5  UNL     1      28.188 -11.263 -40.471  0.00  0.00    +0.000 NA
BRANCH  38  39
ATOM     39  C27 UNL     1      27.262 -10.329 -39.895  0.00  0.00    +0.000 C 
ATOM     40  C28 UNL     1      26.200  -9.821 -40.660  0.00  0.00    +0.000 C 
ATOM     41  C29 UNL     1      25.301  -8.910 -40.106  0.00  0.00    +0.000 C 
ATOM     42  C30 UNL     1      25.450  -8.486 -38.778  0.00  0.00    +0.000 C 
ATOM     43  C31 UNL     1      24.489  -7.492 -38.195  0.00  0.00    +0.000 C 
ATOM     44  C32 UNL     1      26.541  -8.951 -38.026  0.00  0.00    +0.000 C 
ATOM     45  C33 UNL     1      27.451  -9.870 -38.577  0.00  0.00    +0.000 C 
ATOM     46  C34 UNL     1      28.603 -10.377 -37.756  0.00  0.00    +0.000 C 
ENDBRANCH  38  39
BRANCH  37  47
ATOM     47  O4  UNL     1      30.004 -11.992 -41.723  0.00  0.00    +0.000 OA
ATOM     48  H24 UNL     1      30.802 -12.308 -41.185  0.00  0.00    +0.000 HD
ENDBRANCH  37  47
ENDBRANCH  36  37
ENDBRANCH  33  36
ENDBRANCH  30  31
ENDBRANCH  29  30
ENDBRANCH   6  29
TORSDOF 11
