REMARK  Name = resultss/4CJN/ligands/lig_406_t0.pdb
REMARK  6 active torsions:
REMARK  status: ('A' for Active; 'I' for Inactive)
REMARK    1  A    between atoms: C9_1  and  C1_22
REMARK    2  A    between atoms: C19_12  and  C20_15
REMARK    3  A    between atoms: N1_23  and  N2_25
REMARK    4  A    between atoms: N2_25  and  C2_27
REMARK    5  A    between atoms: C2_27  and  N3_29
REMARK    6  A    between atoms: N3_29  and  C3_31
REMARK                            x       y       z     vdW  Elec       q    Type
REMARK                         _______ _______ _______ _____ _____    ______ ____
ROOT
ATOM      1  C9  UNL     1      27.343  -9.544 -38.869  0.00  0.00    +0.000 C 
ATOM      2  C10 UNL     1      27.068  -9.513 -37.485  0.00  0.00    +0.000 C 
ATOM      3  C11 UNL     1      25.883  -8.908 -37.083  0.00  0.00    +0.000 A 
ATOM      4  C12 UNL     1      25.005  -8.349 -37.986  0.00  0.00    +0.000 A 
ATOM      5  N4  UNL     1      23.896  -7.879 -37.366  0.00  0.00    +0.000 N 
ATOM      6  C13 UNL     1      24.097  -8.137 -36.055  0.00  0.00    +0.000 A 
ATOM      7  C14 UNL     1      23.233  -7.853 -34.999  0.00  0.00    +0.000 C 
ATOM      8  C15 UNL     1      23.630  -8.223 -33.704  0.00  0.00    +0.000 C 
ATOM      9  C16 UNL     1      24.871  -8.868 -33.490  0.00  0.00    +0.000 C 
ATOM     10  C17 UNL     1      25.726  -9.150 -34.571  0.00  0.00    +0.000 C 
ATOM     11  C18 UNL     1      25.305  -8.767 -35.843  0.00  0.00    +0.000 A 
ATOM     12  C19 UNL     1      25.294  -8.375 -39.358  0.00  0.00    +0.000 C 
ATOM     13  N5  UNL     1      26.454  -8.983 -39.750  0.00  0.00    +0.000 NA
ATOM     14  H10 UNL     1      23.054  -7.436 -37.794  0.00  0.00    +0.000 HD
ENDROOT
BRANCH  12  15
ATOM     15  C20 UNL     1      24.402  -7.793 -40.379  0.00  0.00    +0.000 C 
ATOM     16  C21 UNL     1      23.869  -8.584 -41.412  0.00  0.00    +0.000 C 
ATOM     17  C22 UNL     1      22.985  -8.030 -42.341  0.00  0.00    +0.000 C 
ATOM     18  C23 UNL     1      22.618  -6.685 -42.242  0.00  0.00    +0.000 C 
ATOM     19  C24 UNL     1      23.132  -5.893 -41.214  0.00  0.00    +0.000 C 
ATOM     20  C25 UNL     1      24.015  -6.446 -40.278  0.00  0.00    +0.000 C 
ENDBRANCH  12  15
BRANCH   1  22
ATOM     21  O1  UNL     1      29.680  -9.948 -38.815  0.00  0.00    +0.000 OA
ATOM     22  C1  UNL     1      28.578 -10.171 -39.385  0.00  0.00    +0.000 C 
ATOM     23  N1  UNL     1      28.533 -11.033 -40.532  0.00  0.00    +0.000 N 
ATOM     24  H1  UNL     1      27.601 -11.320 -40.901  0.00  0.00    +0.000 HD
BRANCH  23  25
ATOM     25  N2  UNL     1      29.712 -11.506 -41.140  0.00  0.00    +0.000 N 
ATOM     26  H2  UNL     1      30.094 -12.434 -40.853  0.00  0.00    +0.000 HD
BRANCH  25  27
ATOM     27  C2  UNL     1      30.423 -10.757 -42.143  0.00  0.00    +0.000 C 
ATOM     28  S1  UNL     1      29.724  -9.464 -42.888  0.00  0.00    +0.000 S 
BRANCH  27  29
ATOM     29  N3  UNL     1      31.802 -11.044 -42.423  0.00  0.00    +0.000 N 
ATOM     30  H3  UNL     1      32.508 -10.862 -41.672  0.00  0.00    +0.000 HD
BRANCH  29  31
ATOM     31  C3  UNL     1      32.275 -11.559 -43.678  0.00  0.00    +0.000 C 
ATOM     32  C4  UNL     1      32.057 -12.910 -43.998  0.00  0.00    +0.000 C 
ATOM     33  C5  UNL     1      32.537 -13.438 -45.200  0.00  0.00    +0.000 C 
ATOM     34  C6  UNL     1      33.250 -12.624 -46.086  0.00  0.00    +0.000 C 
ATOM     35  C7  UNL     1      33.492 -11.286 -45.766  0.00  0.00    +0.000 C 
ATOM     36  C8  UNL     1      33.015 -10.754 -44.563  0.00  0.00    +0.000 C 
ENDBRANCH  29  31
ENDBRANCH  27  29
ENDBRANCH  25  27
ENDBRANCH  23  25
ENDBRANCH   1  22
TORSDOF 6
