REMARK  Name = resultss/4CJN/ligands/lig_179_t2.pdb
REMARK  4 active torsions:
REMARK  status: ('A' for Active; 'I' for Inactive)
REMARK    1  A    between atoms: C9_1  and  C1_17
REMARK    2  A    between atoms: C12_4  and  C13_7
REMARK    3  A    between atoms: N1_18  and  N2_20
REMARK    4  A    between atoms: C2_21  and  C3_22
REMARK                            x       y       z     vdW  Elec       q    Type
REMARK                         _______ _______ _______ _____ _____    ______ ____
ROOT
ATOM      1  C9  UNL     1      29.493  -9.701 -40.268  0.00  0.00    +0.000 C 
ATOM      2  C10 UNL     1      28.944  -9.801 -41.559  0.00  0.00    +0.000 C 
ATOM      3  C11 UNL     1      29.704 -10.304 -42.618  0.00  0.00    +0.000 C 
ATOM      4  C12 UNL     1      31.028 -10.725 -42.412  0.00  0.00    +0.000 C 
ATOM      5  C20 UNL     1      31.574 -10.634 -41.120  0.00  0.00    +0.000 C 
ATOM      6  C21 UNL     1      30.815 -10.130 -40.060  0.00  0.00    +0.000 C 
ENDROOT
BRANCH   4   7
ATOM      7  C13 UNL     1      31.825 -11.257 -43.542  0.00  0.00    +0.000 A 
ATOM      8  N3  UNL     1      31.654 -12.505 -44.048  0.00  0.00    +0.000 NA
ATOM      9  C14 UNL     1      32.506 -12.745 -45.077  0.00  0.00    +0.000 A 
ATOM     10  C15 UNL     1      32.561 -13.942 -45.793  0.00  0.00    +0.000 C 
ATOM     11  C16 UNL     1      33.494 -14.060 -46.840  0.00  0.00    +0.000 C 
ATOM     12  C17 UNL     1      34.353 -12.988 -47.155  0.00  0.00    +0.000 C 
ATOM     13  C18 UNL     1      34.287 -11.789 -46.428  0.00  0.00    +0.000 C 
ATOM     14  C19 UNL     1      33.355 -11.699 -45.398  0.00  0.00    +0.000 A 
ATOM     15  S1  UNL     1      33.048 -10.413 -44.367  0.00  0.00    +0.000 S 
ENDBRANCH   4   7
BRANCH   1  17
ATOM     16  O1  UNL     1      27.690  -9.835 -38.730  0.00  0.00    +0.000 OA
ATOM     17  C1  UNL     1      28.678  -9.170 -39.149  0.00  0.00    +0.000 C 
ATOM     18  N1  UNL     1      28.968  -7.888 -38.567  0.00  0.00    +0.000 N 
ATOM     19  H1  UNL     1      29.411  -7.159 -39.169  0.00  0.00    +0.000 HD
BRANCH  18  20
ATOM     20  N2  UNL     1      28.491  -7.485 -37.306  0.00  0.00    +0.000 NA
ATOM     21  C2  UNL     1      29.057  -7.817 -36.183  0.00  0.00    +0.000 C 
BRANCH  21  22
ATOM     22  C3  UNL     1      28.503  -7.380 -34.884  0.00  0.00    +0.000 C 
ATOM     23  C4  UNL     1      28.904  -8.124 -33.669  0.00  0.00    +0.000 C 
ATOM     24  C5  UNL     1      28.492  -7.751 -32.457  0.00  0.00    +0.000 C 
ATOM     25  C6  UNL     1      27.605  -6.593 -32.294  0.00  0.00    +0.000 C 
ATOM     26  O2  UNL     1      27.298  -6.204 -31.136  0.00  0.00    +0.000 OA
ATOM     27  C7  UNL     1      27.039  -5.883 -33.494  0.00  0.00    +0.000 C 
ATOM     28 BR1  UNL     1      25.129  -6.195 -33.582  0.00  0.00    +0.000 Br
ATOM     29  C8  UNL     1      27.663  -6.329 -34.794  0.00  0.00    +0.000 C 
ENDBRANCH  21  22
ENDBRANCH  18  20
ENDBRANCH   1  17
TORSDOF 4
