REMARK  Name = resultss/4CJN/ligands/lig_426_t0.pdb
REMARK  7 active torsions:
REMARK  status: ('A' for Active; 'I' for Inactive)
REMARK    1  A    between atoms: C8_1  and  C7_22
REMARK    2  A    between atoms: C18_12  and  C19_15
REMARK    3  A    between atoms: N3_21  and  N2_25
REMARK    4  A    between atoms: N2_25  and  C6_27
REMARK    5  A    between atoms: C6_27  and  N1_29
REMARK    6  A    between atoms: N1_29  and  C5_34
REMARK    7  A    between atoms: C2_31  and  O1_38
REMARK                            x       y       z     vdW  Elec       q    Type
REMARK                         _______ _______ _______ _____ _____    ______ ____
ROOT
ATOM      1  C8  UNL     1      25.063  -7.663 -39.633  0.00  0.00    +0.000 C 
ATOM      2  C9  UNL     1      24.141  -7.172 -40.581  0.00  0.00    +0.000 C 
ATOM      3  C10 UNL     1      24.422  -7.409 -41.922  0.00  0.00    +0.000 A 
ATOM      4  C11 UNL     1      25.551  -8.088 -42.326  0.00  0.00    +0.000 A 
ATOM      5  N4  UNL     1      25.572  -8.252 -43.670  0.00  0.00    +0.000 N 
ATOM      6  C12 UNL     1      24.446  -7.649 -44.109  0.00  0.00    +0.000 A 
ATOM      7  C13 UNL     1      24.001  -7.555 -45.427  0.00  0.00    +0.000 C 
ATOM      8  C14 UNL     1      22.781  -6.895 -45.666  0.00  0.00    +0.000 C 
ATOM      9  C15 UNL     1      22.035  -6.354 -44.594  0.00  0.00    +0.000 C 
ATOM     10  C16 UNL     1      22.501  -6.466 -43.272  0.00  0.00    +0.000 C 
ATOM     11  C17 UNL     1      23.715  -7.120 -43.067  0.00  0.00    +0.000 A 
ATOM     12  C18 UNL     1      26.467  -8.557 -41.375  0.00  0.00    +0.000 C 
ATOM     13  N5  UNL     1      26.182  -8.334 -40.056  0.00  0.00    +0.000 NA
ATOM     14  H10 UNL     1      26.274  -8.762 -44.250  0.00  0.00    +0.000 HD
ENDROOT
BRANCH  12  15
ATOM     15  C19 UNL     1      27.706  -9.276 -41.738  0.00  0.00    +0.000 C 
ATOM     16  C20 UNL     1      28.090 -10.415 -41.011  0.00  0.00    +0.000 C 
ATOM     17  C21 UNL     1      29.273 -11.090 -41.328  0.00  0.00    +0.000 C 
ATOM     18  C22 UNL     1      30.089 -10.625 -42.362  0.00  0.00    +0.000 C 
ATOM     19  C23 UNL     1      29.728  -9.479 -43.076  0.00  0.00    +0.000 C 
ATOM     20  C24 UNL     1      28.545  -8.802 -42.763  0.00  0.00    +0.000 C 
ENDBRANCH  12  15
BRANCH   1  22
ATOM     21  N3  UNL     1      24.232  -8.514 -37.400  0.00  0.00    +0.000 N 
ATOM     22  C7  UNL     1      24.834  -7.472 -38.185  0.00  0.00    +0.000 C 
ATOM     23  O2  UNL     1      25.185  -6.395 -37.630  0.00  0.00    +0.000 OA
ATOM     24  H8  UNL     1      24.235  -9.490 -37.771  0.00  0.00    +0.000 HD
BRANCH  21  25
ATOM     25  N2  UNL     1      23.857  -8.320 -36.059  0.00  0.00    +0.000 N 
ATOM     26  H7  UNL     1      22.964  -7.818 -35.860  0.00  0.00    +0.000 HD
BRANCH  25  27
ATOM     27  C6  UNL     1      24.725  -8.627 -34.955  0.00  0.00    +0.000 C 
ATOM     28  S1  UNL     1      24.519  -7.867 -33.516  0.00  0.00    +0.000 S 
BRANCH  27  29
ATOM     29  N1  UNL     1      25.582  -9.778 -35.012  0.00  0.00    +0.000 N 
ATOM     30  H6  UNL     1      25.156 -10.718 -34.841  0.00  0.00    +0.000 HD
BRANCH  29  34
ATOM     31  C2  UNL     1      29.732  -9.654 -35.956  0.00  0.00    +0.000 C 
ATOM     32  C3  UNL     1      29.317  -9.696 -34.620  0.00  0.00    +0.000 C 
ATOM     33  C4  UNL     1      27.957  -9.734 -34.299  0.00  0.00    +0.000 C 
ATOM     34  C5  UNL     1      26.986  -9.717 -35.315  0.00  0.00    +0.000 C 
ATOM     35  C25 UNL     1      27.401  -9.697 -36.654  0.00  0.00    +0.000 C 
ATOM     36  C26 UNL     1      28.761  -9.658 -36.976  0.00  0.00    +0.000 C 
BRANCH  31  38
ATOM     37  C1  UNL     1      31.685  -9.892 -37.497  0.00  0.00    +0.000 C 
ATOM     38  O1  UNL     1      31.107  -9.614 -36.226  0.00  0.00    +0.000 OA
ENDBRANCH  31  38
ENDBRANCH  29  34
ENDBRANCH  27  29
ENDBRANCH  25  27
ENDBRANCH  21  25
ENDBRANCH   1  22
TORSDOF 7
