REMARK  Name = resultss/4CJN/ligands/lig_343_t0.pdb
REMARK  10 active torsions:
REMARK  status: ('A' for Active; 'I' for Inactive)
REMARK    1  A    between atoms: C2_1  and  O1_28
REMARK    2  A    between atoms: C4_3  and  C5_7
REMARK    3  A    between atoms: C21_6  and  O3_29
REMARK    4  A    between atoms: N2_17  and  N3_19
REMARK    5  A    between atoms: N3_19  and  C13_21
REMARK    6  A    between atoms: O3_29  and  C22_30
REMARK    7  A    between atoms: C22_30  and  C23_31
REMARK    8  A    between atoms: N4_33  and  C25_36
REMARK    9  A    between atoms: C25_36  and  C26_37
REMARK   10  A    between atoms: N5_39  and  C27_41
REMARK                            x       y       z     vdW  Elec       q    Type
REMARK                         _______ _______ _______ _____ _____    ______ ____
ROOT
ATOM      1  C2  UNL     1      27.844  -7.400 -33.543  0.00  0.00    +0.000 C 
ATOM      2  C3  UNL     1      29.067  -7.629 -32.884  0.00  0.00    +0.000 C 
ATOM      3  C4  UNL     1      29.740  -8.852 -33.027  0.00  0.00    +0.000 C 
ATOM      4  C19 UNL     1      29.201  -9.837 -33.865  0.00  0.00    +0.000 C 
ATOM      5  C20 UNL     1      27.983  -9.626 -34.510  0.00  0.00    +0.000 C 
ATOM      6  C21 UNL     1      27.290  -8.409 -34.350  0.00  0.00    +0.000 C 
ENDROOT
BRANCH   3   7
ATOM      7  C5  UNL     1      31.074  -9.089 -32.348  0.00  0.00    +0.000 C 
ATOM      8  N1  UNL     1      31.033 -10.378 -31.650  0.00  0.00    +0.000 N 
ATOM      9  C6  UNL     1      32.158 -11.263 -31.567  0.00  0.00    +0.000 C 
ATOM     10  C7  UNL     1      32.160 -12.320 -30.639  0.00  0.00    +0.000 C 
ATOM     11  C8  UNL     1      33.250 -13.192 -30.566  0.00  0.00    +0.000 C 
ATOM     12  C9  UNL     1      34.334 -13.030 -31.432  0.00  0.00    +0.000 C 
ATOM     13  C10 UNL     1      34.332 -11.993 -32.370  0.00  0.00    +0.000 C 
ATOM     14  C11 UNL     1      33.245 -11.101 -32.435  0.00  0.00    +0.000 C 
ATOM     15  C12 UNL     1      33.206 -10.001 -33.410  0.00  0.00    +0.000 C 
ATOM     16  O2  UNL     1      34.102  -9.906 -34.293  0.00  0.00    +0.000 OA
ATOM     17  N2  UNL     1      32.157  -9.021 -33.350  0.00  0.00    +0.000 N 
ATOM     18  H6  UNL     1      30.218 -10.556 -31.018  0.00  0.00    +0.000 HD
BRANCH  17  19
ATOM     19  N3  UNL     1      32.152  -7.988 -34.308  0.00  0.00    +0.000 N 
ATOM     20  H11 UNL     1      32.644  -7.095 -34.085  0.00  0.00    +0.000 HD
BRANCH  19  21
ATOM     21  C13 UNL     1      31.501  -8.123 -35.582  0.00  0.00    +0.000 C 
ATOM     22  C14 UNL     1      31.586  -9.319 -36.315  0.00  0.00    +0.000 C 
ATOM     23  C15 UNL     1      30.907  -9.450 -37.529  0.00  0.00    +0.000 C 
ATOM     24  C16 UNL     1      30.141  -8.391 -38.022  0.00  0.00    +0.000 C 
ATOM     25  C17 UNL     1      30.044  -7.203 -37.295  0.00  0.00    +0.000 C 
ATOM     26  C18 UNL     1      30.716  -7.069 -36.078  0.00  0.00    +0.000 C 
ENDBRANCH  19  21
ENDBRANCH  17  19
ENDBRANCH   3   7
BRANCH   1  28
ATOM     27  C1  UNL     1      26.193  -5.883 -32.432  0.00  0.00    +0.000 C 
ATOM     28  O1  UNL     1      27.159  -6.180 -33.435  0.00  0.00    +0.000 OA
ENDBRANCH   1  28
BRANCH   6  29
ATOM     29  O3  UNL     1      26.054  -8.168 -34.977  0.00  0.00    +0.000 OA
BRANCH  29  30
ATOM     30  C22 UNL     1      25.435  -9.067 -35.895  0.00  0.00    +0.000 C 
BRANCH  30  31
ATOM     31  C23 UNL     1      25.020  -8.325 -37.122  0.00  0.00    +0.000 C 
ATOM     32  C24 UNL     1      25.252  -8.695 -38.430  0.00  0.00    +0.000 C 
ATOM     33  N4  UNL     1      24.745  -7.711 -39.188  0.00  0.00    +0.000 N 
ATOM     34  N6  UNL     1      24.242  -6.784 -38.388  0.00  0.00    +0.000 NA
ATOM     35  N7  UNL     1      24.394  -7.134 -37.119  0.00  0.00    +0.000 NA
BRANCH  33  36
ATOM     36  C25 UNL     1      24.816  -7.600 -40.641  0.00  0.00    +0.000 C 
BRANCH  36  37
ATOM     37  C26 UNL     1      25.798  -8.593 -41.181  0.00  0.00    +0.000 C 
ATOM     38  O4  UNL     1      25.374  -9.661 -41.698  0.00  0.00    +0.000 OA
ATOM     39  N5  UNL     1      27.206  -8.364 -41.028  0.00  0.00    +0.000 N 
ATOM     40  H24 UNL     1      27.509  -7.641 -40.333  0.00  0.00    +0.000 HD
BRANCH  39  41
ATOM     41  C27 UNL     1      28.221  -9.186 -41.629  0.00  0.00    +0.000 C 
ATOM     42  C28 UNL     1      28.656 -10.341 -40.963  0.00  0.00    +0.000 C 
ATOM     43  C29 UNL     1      29.662 -11.142 -41.509  0.00  0.00    +0.000 C 
ATOM     44  C30 UNL     1      30.255 -10.793 -42.734  0.00  0.00    +0.000 C 
ATOM     45  C31 UNL     1      31.371 -11.626 -43.295  0.00  0.00    +0.000 C 
ATOM     46  C32 UNL     1      29.850  -9.617 -43.386  0.00  0.00    +0.000 C 
ATOM     47  C33 UNL     1      28.839  -8.818 -42.839  0.00  0.00    +0.000 C 
ENDBRANCH  39  41
ENDBRANCH  36  37
ENDBRANCH  33  36
ENDBRANCH  30  31
ENDBRANCH  29  30
ENDBRANCH   6  29
TORSDOF 10
