REMARK  Name = resultss/4CJN/ligands/lig_417_t0.pdb
REMARK  6 active torsions:
REMARK  status: ('A' for Active; 'I' for Inactive)
REMARK    1  A    between atoms: C9_1  and  C8_22
REMARK    2  A    between atoms: C19_12  and  C20_15
REMARK    3  A    between atoms: N3_21  and  N2_25
REMARK    4  A    between atoms: N2_25  and  C7_27
REMARK    5  A    between atoms: C7_27  and  N1_29
REMARK    6  A    between atoms: N1_29  and  C6_36
REMARK                            x       y       z     vdW  Elec       q    Type
REMARK                         _______ _______ _______ _____ _____    ______ ____
ROOT
ATOM      1  C9  UNL     1      27.762  -9.952 -37.686  0.00  0.00    +0.000 C 
ATOM      2  C10 UNL     1      28.992  -9.896 -36.995  0.00  0.00    +0.000 C 
ATOM      3  C11 UNL     1      28.952  -9.535 -35.654  0.00  0.00    +0.000 A 
ATOM      4  C12 UNL     1      27.772  -9.232 -35.011  0.00  0.00    +0.000 A 
ATOM      5  N4  UNL     1      27.980  -8.976 -33.697  0.00  0.00    +0.000 N 
ATOM      6  C13 UNL     1      29.314  -9.101 -33.527  0.00  0.00    +0.000 A 
ATOM      7  C14 UNL     1      30.029  -8.947 -32.340  0.00  0.00    +0.000 C 
ATOM      8  C15 UNL     1      31.422  -9.145 -32.379  0.00  0.00    +0.000 C 
ATOM      9  C16 UNL     1      32.064  -9.495 -33.590  0.00  0.00    +0.000 C 
ATOM     10  C17 UNL     1      31.320  -9.652 -34.773  0.00  0.00    +0.000 C 
ATOM     11  C18 UNL     1      29.945  -9.443 -34.704  0.00  0.00    +0.000 A 
ATOM     12  C19 UNL     1      26.558  -9.273 -35.710  0.00  0.00    +0.000 C 
ATOM     13  N5  UNL     1      26.599  -9.644 -37.027  0.00  0.00    +0.000 NA
ATOM     14  H11 UNL     1      27.272  -8.764 -32.958  0.00  0.00    +0.000 HD
ENDROOT
BRANCH  12  15
ATOM     15  C20 UNL     1      25.259  -8.943 -35.091  0.00  0.00    +0.000 C 
ATOM     16  C21 UNL     1      24.961  -9.338 -33.775  0.00  0.00    +0.000 C 
ATOM     17  C22 UNL     1      23.737  -8.992 -33.194  0.00  0.00    +0.000 C 
ATOM     18  C23 UNL     1      22.808  -8.239 -33.914  0.00  0.00    +0.000 C 
ATOM     19  C24 UNL     1      23.103  -7.823 -35.215  0.00  0.00    +0.000 C 
ATOM     20  C25 UNL     1      24.326  -8.167 -35.800  0.00  0.00    +0.000 C 
ENDBRANCH  12  15
BRANCH   1  22
ATOM     21  N3  UNL     1      28.867 -10.888 -39.760  0.00  0.00    +0.000 N 
ATOM     22  C8  UNL     1      27.709 -10.344 -39.111  0.00  0.00    +0.000 C 
ATOM     23  O1  UNL     1      26.639 -10.195 -39.762  0.00  0.00    +0.000 OA
ATOM     24  H9  UNL     1      29.746 -11.015 -39.211  0.00  0.00    +0.000 HD
BRANCH  21  25
ATOM     25  N2  UNL     1      28.831 -11.286 -41.109  0.00  0.00    +0.000 N 
ATOM     26  H8  UNL     1      28.078 -11.931 -41.440  0.00  0.00    +0.000 HD
BRANCH  25  27
ATOM     27  C7  UNL     1      29.855 -10.895 -42.034  0.00  0.00    +0.000 C 
ATOM     28  S1  UNL     1      29.692  -9.478 -42.846  0.00  0.00    +0.000 S 
BRANCH  27  29
ATOM     29  N1  UNL     1      31.107 -11.601 -42.065  0.00  0.00    +0.000 N 
ATOM     30  H7  UNL     1      31.441 -12.035 -41.175  0.00  0.00    +0.000 HD
BRANCH  29  36
ATOM     31  C1  UNL     1      32.528 -14.152 -46.088  0.00  0.00    +0.000 C 
ATOM     32  C2  UNL     1      32.621 -12.929 -45.223  0.00  0.00    +0.000 C 
ATOM     33  C3  UNL     1      33.540 -11.915 -45.531  0.00  0.00    +0.000 C 
ATOM     34  C4  UNL     1      33.644 -10.789 -44.711  0.00  0.00    +0.000 C 
ATOM     35  C5  UNL     1      32.848 -10.676 -43.569  0.00  0.00    +0.000 C 
ATOM     36  C6  UNL     1      31.950 -11.703 -43.225  0.00  0.00    +0.000 C 
ATOM     37  C26 UNL     1      31.835 -12.821 -44.065  0.00  0.00    +0.000 C 
ENDBRANCH  29  36
ENDBRANCH  27  29
ENDBRANCH  25  27
ENDBRANCH  21  25
ENDBRANCH   1  22
TORSDOF 6
