REMARK  Name = resultss/4CJN/ligands/lig_364_t0.pdb
REMARK  6 active torsions:
REMARK  status: ('A' for Active; 'I' for Inactive)
REMARK    1  A    between atoms: C10_1  and  C9_13
REMARK    2  A    between atoms: C10_1  and  C17_16
REMARK    3  A    between atoms: C10_1  and  C11_30
REMARK    4  A    between atoms: C1_2  and  O1_14
REMARK    5  A    between atoms: C25_27  and  O8_28
REMARK    6  A    between atoms: C15_34  and  N1_36
REMARK                            x       y       z     vdW  Elec       q    Type
REMARK                         _______ _______ _______ _____ _____    ______ ____
ROOT
ATOM      1  C10 UNL     1      28.769  -7.948 -36.906  0.00  0.00    +0.000 C 
ENDROOT
BRANCH   1  13
ATOM      2  C1  UNL     1      27.189  -9.695 -35.797  0.00  0.00    +0.000 A 
ATOM      3  O2  UNL     1      26.141  -9.975 -35.030  0.00  0.00    +0.000 OA
ATOM      4  C2  UNL     1      25.392  -9.044 -34.454  0.00  0.00    +0.000 A 
ATOM      5  C3  UNL     1      24.306  -9.426 -33.657  0.00  0.00    +0.000 C 
ATOM      6  C4  UNL     1      23.504  -8.455 -33.051  0.00  0.00    +0.000 C 
ATOM      7  C5  UNL     1      23.783  -7.097 -33.239  0.00  0.00    +0.000 C 
ATOM      8 CL1  UNL     1      22.772  -5.883 -32.477  0.00  0.00    +0.000 Cl
ATOM      9  C6  UNL     1      24.867  -6.707 -34.033  0.00  0.00    +0.000 C 
ATOM     10  C7  UNL     1      25.681  -7.679 -34.646  0.00  0.00    +0.000 A 
ATOM     11  C8  UNL     1      26.780  -7.336 -35.449  0.00  0.00    +0.000 A 
ATOM     12  O3  UNL     1      27.058  -6.121 -35.652  0.00  0.00    +0.000 OA
ATOM     13  C9  UNL     1      27.574  -8.349 -36.031  0.00  0.00    +0.000 A 
BRANCH   2  14
ATOM     14  O1  UNL     1      27.880 -10.755 -36.376  0.00  0.00    +0.000 OA
ATOM     15  H1  UNL     1      28.800 -11.017 -36.046  0.00  0.00    +0.000 HD
ENDBRANCH   2  14
ENDBRANCH   1  13
BRANCH   1  16
ATOM     16  C17 UNL     1      28.658  -8.473 -38.343  0.00  0.00    +0.000 A 
ATOM     17  C18 UNL     1      27.929  -7.743 -39.308  0.00  0.00    +0.000 A 
ATOM     18  O6  UNL     1      27.365  -6.658 -38.994  0.00  0.00    +0.000 OA
ATOM     19  C19 UNL     1      27.835  -8.224 -40.624  0.00  0.00    +0.000 A 
ATOM     20  C20 UNL     1      27.106  -7.549 -41.621  0.00  0.00    +0.000 C 
ATOM     21  C21 UNL     1      27.039  -8.069 -42.919  0.00  0.00    +0.000 C 
ATOM     22 CL2  UNL     1      26.128  -7.224 -44.156  0.00  0.00    +0.000 Cl
ATOM     23  C22 UNL     1      27.698  -9.263 -43.229  0.00  0.00    +0.000 C 
ATOM     24  C23 UNL     1      28.427  -9.939 -42.247  0.00  0.00    +0.000 C 
ATOM     25  C24 UNL     1      28.499  -9.426 -40.948  0.00  0.00    +0.000 A 
ATOM     26  O7  UNL     1      29.203 -10.072 -40.027  0.00  0.00    +0.000 OA
ATOM     27  C25 UNL     1      29.315  -9.651 -38.771  0.00  0.00    +0.000 A 
BRANCH  27  28
ATOM     28  O8  UNL     1      30.109 -10.384 -37.897  0.00  0.00    +0.000 OA
ATOM     29  H13 UNL     1      31.109 -10.449 -38.033  0.00  0.00    +0.000 HD
ENDBRANCH  27  28
ENDBRANCH   1  16
BRANCH   1  30
ATOM     30  C11 UNL     1      30.137  -8.186 -36.273  0.00  0.00    +0.000 C 
ATOM     31  C12 UNL     1      31.258  -7.539 -36.824  0.00  0.00    +0.000 C 
ATOM     32  C13 UNL     1      32.523  -7.710 -36.263  0.00  0.00    +0.000 C 
ATOM     33  C14 UNL     1      32.693  -8.521 -35.142  0.00  0.00    +0.000 C 
ATOM     34  C15 UNL     1      31.590  -9.172 -34.562  0.00  0.00    +0.000 C 
ATOM     35  C16 UNL     1      30.316  -8.997 -35.132  0.00  0.00    +0.000 C 
BRANCH  34  36
ATOM     36  N1  UNL     1      31.768 -10.003 -33.400  0.00  0.00    +0.000 N 
ATOM     37  O4  UNL     1      32.905 -10.397 -33.065  0.00  0.00    +0.000 OA
ATOM     38  O5  UNL     1      30.686 -10.378 -32.636  0.00  0.00    +0.000 OA
ENDBRANCH  34  36
ENDBRANCH   1  30
TORSDOF 6
