REMARK  Name = resultss/4CJN/ligands/lig_83_t0.pdb
REMARK  4 active torsions:
REMARK  status: ('A' for Active; 'I' for Inactive)
REMARK    1  A    between atoms: C9_10  and  C10_18
REMARK    2  A    between atoms: C21_17  and  C22_24
REMARK    3  A    between atoms: C22_24  and  C23_25
REMARK    4  A    between atoms: C27_31  and  O5_32
REMARK                            x       y       z     vdW  Elec       q    Type
REMARK                         _______ _______ _______ _____ _____    ______ ____
ROOT
ATOM      1  C1  UNL     1      27.793  -9.988 -35.430  0.00  0.00    +0.000 C 
ATOM      2  C2  UNL     1      27.894  -9.142 -36.470  0.00  0.00    +0.000 C 
ATOM      3  C3  UNL     1      29.118  -8.258 -36.599  0.00  0.00    +0.000 C 
ATOM      4  C4  UNL     1      29.347  -7.802 -38.051  0.00  0.00    +0.000 C 
ATOM      5  C5  UNL     1      28.859  -8.896 -39.033  0.00  0.00    +0.000 C 
ATOM      6  C6  UNL     1      29.559  -8.944 -40.460  0.00  0.00    +0.000 C 
ATOM      7  C7  UNL     1      30.993  -9.524 -40.256  0.00  0.00    +0.000 C 
ATOM      8  C8  UNL     1      29.746  -7.532 -41.131  0.00  0.00    +0.000 C 
ATOM      9  O1  UNL     1      28.759  -7.199 -42.080  0.00  0.00    +0.000 OA
ATOM     10  C9  UNL     1      28.610  -8.256 -42.998  0.00  0.00    +0.000 C 
ATOM     11  O2  UNL     1      27.941  -9.321 -42.363  0.00  0.00    +0.000 OA
ATOM     12  C16 UNL     1      28.796  -9.944 -41.426  0.00  0.00    +0.000 C 
ATOM     13  C17 UNL     1      27.977 -10.986 -40.643  0.00  0.00    +0.000 C 
ATOM     14  C18 UNL     1      26.907 -10.384 -39.697  0.00  0.00    +0.000 C 
ATOM     15  C19 UNL     1      27.289  -9.020 -39.004  0.00  0.00    +0.000 C 
ATOM     16  C20 UNL     1      26.617  -7.875 -39.816  0.00  0.00    +0.000 C 
ATOM     17  C21 UNL     1      26.753  -9.004 -37.479  0.00  0.00    +0.000 C 
ENDROOT
BRANCH  10  18
ATOM     18  C10 UNL     1      27.767  -7.790 -44.157  0.00  0.00    +0.000 C 
ATOM     19  C11 UNL     1      26.375  -7.648 -44.012  0.00  0.00    +0.000 C 
ATOM     20  C12 UNL     1      25.596  -7.187 -45.079  0.00  0.00    +0.000 C 
ATOM     21  C13 UNL     1      26.199  -6.855 -46.294  0.00  0.00    +0.000 C 
ATOM     22  C14 UNL     1      27.583  -6.975 -46.444  0.00  0.00    +0.000 C 
ATOM     23  C15 UNL     1      28.365  -7.436 -45.381  0.00  0.00    +0.000 C 
ENDBRANCH  10  18
BRANCH  17  24
ATOM     24  C22 UNL     1      25.895  -7.769 -37.060  0.00  0.00    +0.000 C 
BRANCH  24  25
ATOM     25  C23 UNL     1      24.733  -8.133 -36.169  0.00  0.00    +0.000 C 
ATOM     26  C24 UNL     1      24.487  -7.554 -34.983  0.00  0.00    +0.000 C 
ATOM     27  C25 UNL     1      23.358  -7.856 -34.137  0.00  0.00    +0.000 C 
ATOM     28  O3  UNL     1      22.462  -8.708 -34.385  0.00  0.00    +0.000 OA
ATOM     29  O4  UNL     1      23.370  -7.077 -33.003  0.00  0.00    +0.000 OA
ATOM     30  C26 UNL     1      24.481  -6.186 -33.003  0.00  0.00    +0.000 C 
ATOM     31  C27 UNL     1      25.294  -6.498 -34.288  0.00  0.00    +0.000 C 
BRANCH  31  32
ATOM     32  O5  UNL     1      26.562  -7.001 -33.956  0.00  0.00    +0.000 OA
ATOM     33  H34 UNL     1      27.143  -6.212 -33.800  0.00  0.00    +0.000 HD
ENDBRANCH  31  32
ENDBRANCH  24  25
ENDBRANCH  17  24
TORSDOF 4
