REMARK  Name = resultss/4CJN/ligands/lig_249_t0.pdb
REMARK  13 active torsions:
REMARK  status: ('A' for Active; 'I' for Inactive)
REMARK    1  A    between atoms: C4_1  and  C3_36
REMARK    2  A    between atoms: C6_3  and  C7_10
REMARK    3  A    between atoms: C27_6  and  S2_39
REMARK    4  A    between atoms: C9_12  and  C10_19
REMARK    5  A    between atoms: C14_15  and  S1_22
REMARK    6  A    between atoms: C10_19  and  C11_20
REMARK    7  A    between atoms: S1_22  and  C15_23
REMARK    8  A    between atoms: C15_23  and  C16_24
REMARK    9  A    between atoms: C17_27  and  C18_29
REMARK   10  A    between atoms: C3_36  and  C2_38
REMARK   11  A    between atoms: S2_39  and  C28_40
REMARK   12  A    between atoms: C28_40  and  C29_41
REMARK   13  A    between atoms: C30_44  and  C31_46
REMARK                            x       y       z     vdW  Elec       q    Type
REMARK                         _______ _______ _______ _____ _____    ______ ____
ROOT
ATOM      1  C4  UNL     1      33.196 -11.968 -43.410  0.00  0.00    +0.000 C 
ATOM      2  C5  UNL     1      31.814 -11.696 -43.260  0.00  0.00    +0.000 C 
ATOM      3  C6  UNL     1      31.351 -10.756 -42.307  0.00  0.00    +0.000 C 
ATOM      4  C26 UNL     1      32.327 -10.110 -41.537  0.00  0.00    +0.000 A 
ATOM      5  O3  UNL     1      32.186  -9.180 -40.629  0.00  0.00    +0.000 OA
ATOM      6  C27 UNL     1      33.409  -8.897 -40.210  0.00  0.00    +0.000 A 
ATOM      7  N6  UNL     1      34.379  -9.619 -40.830  0.00  0.00    +0.000 NA
ATOM      8  C37 UNL     1      33.659 -10.379 -41.672  0.00  0.00    +0.000 A 
ATOM      9  C38 UNL     1      34.138 -11.296 -42.600  0.00  0.00    +0.000 C 
ENDROOT
BRANCH   3  10
ATOM     10  C7  UNL     1      29.899 -10.481 -42.147  0.00  0.00    +0.000 C 
ATOM     11  C8  UNL     1      29.135 -11.219 -41.201  0.00  0.00    +0.000 C 
ATOM     12  C9  UNL     1      27.777 -10.919 -40.969  0.00  0.00    +0.000 C 
ATOM     13  C13 UNL     1      27.215  -9.894 -41.728  0.00  0.00    +0.000 A 
ATOM     14  O1  UNL     1      25.997  -9.421 -41.695  0.00  0.00    +0.000 OA
ATOM     15  C14 UNL     1      25.961  -8.471 -42.615  0.00  0.00    +0.000 A 
ATOM     16  N3  UNL     1      27.141  -8.297 -43.266  0.00  0.00    +0.000 NA
ATOM     17  C24 UNL     1      27.923  -9.211 -42.669  0.00  0.00    +0.000 A 
ATOM     18  C25 UNL     1      29.270  -9.463 -42.906  0.00  0.00    +0.000 C 
BRANCH  12  19
ATOM     19  C10 UNL     1      26.945 -11.746 -40.028  0.00  0.00    +0.000 C 
BRANCH  19  20
ATOM     20  C11 UNL     1      27.512 -13.137 -39.962  0.00  0.00    +0.000 C 
ATOM     21  C12 UNL     1      26.784 -14.216 -40.271  0.00  0.00    +0.000 C 
ENDBRANCH  19  20
ENDBRANCH  12  19
BRANCH  15  22
ATOM     22  S1  UNL     1      24.506  -7.481 -42.951  0.00  0.00    +0.000 S 
BRANCH  22  23
ATOM     23  C15 UNL     1      23.595  -7.997 -41.456  0.00  0.00    +0.000 C 
BRANCH  23  24
ATOM     24  C16 UNL     1      24.459  -7.754 -40.264  0.00  0.00    +0.000 A 
ATOM     25  N1  UNL     1      25.136  -6.610 -40.052  0.00  0.00    +0.000 NA
ATOM     26  N2  UNL     1      25.832  -6.795 -38.943  0.00  0.00    +0.000 NA
ATOM     27  C17 UNL     1      25.551  -8.045 -38.517  0.00  0.00    +0.000 A 
ATOM     28  O2  UNL     1      24.711  -8.641 -39.330  0.00  0.00    +0.000 OA
BRANCH  27  29
ATOM     29  C18 UNL     1      26.160  -8.666 -37.320  0.00  0.00    +0.000 C 
ATOM     30  C19 UNL     1      27.453  -9.213 -37.420  0.00  0.00    +0.000 C 
ATOM     31  C20 UNL     1      28.039  -9.863 -36.329  0.00  0.00    +0.000 C 
ATOM     32  C21 UNL     1      27.350  -9.966 -35.123  0.00  0.00    +0.000 C 
ATOM     33  C22 UNL     1      26.072  -9.410 -35.001  0.00  0.00    +0.000 C 
ATOM     34  C23 UNL     1      25.472  -8.753 -36.087  0.00  0.00    +0.000 C 
ATOM     35 BR1  UNL     1      23.766  -7.917 -35.789  0.00  0.00    +0.000 Br
ENDBRANCH  27  29
ENDBRANCH  23  24
ENDBRANCH  22  23
ENDBRANCH  15  22
ENDBRANCH   3  10
BRANCH   1  36
ATOM     36  C3  UNL     1      33.665 -12.926 -44.471  0.00  0.00    +0.000 C 
BRANCH  36  38
ATOM     37  C1  UNL     1      34.040 -11.656 -46.568  0.00  0.00    +0.000 C 
ATOM     38  C2  UNL     1      33.252 -12.447 -45.836  0.00  0.00    +0.000 C 
ENDBRANCH  36  38
ENDBRANCH   1  36
BRANCH   6  39
ATOM     39  S2  UNL     1      33.758  -7.679 -38.946  0.00  0.00    +0.000 S 
BRANCH  39  40
ATOM     40  C28 UNL     1      33.682  -8.876 -37.571  0.00  0.00    +0.000 C 
BRANCH  40  41
ATOM     41  C29 UNL     1      33.055  -8.246 -36.370  0.00  0.00    +0.000 A 
ATOM     42  N4  UNL     1      33.674  -7.362 -35.570  0.00  0.00    +0.000 NA
ATOM     43  N5  UNL     1      32.799  -7.050 -34.624  0.00  0.00    +0.000 NA
ATOM     44  C30 UNL     1      31.682  -7.756 -34.884  0.00  0.00    +0.000 A 
ATOM     45  O4  UNL     1      31.833  -8.486 -35.963  0.00  0.00    +0.000 OA
BRANCH  44  46
ATOM     46  C31 UNL     1      30.431  -7.706 -34.092  0.00  0.00    +0.000 C 
ATOM     47  C32 UNL     1      29.462  -6.749 -34.444  0.00  0.00    +0.000 C 
ATOM     48  C33 UNL     1      28.267  -6.643 -33.731  0.00  0.00    +0.000 C 
ATOM     49  C34 UNL     1      28.016  -7.493 -32.657  0.00  0.00    +0.000 C 
ATOM     50  C35 UNL     1      28.962  -8.454 -32.295  0.00  0.00    +0.000 C 
ATOM     51  C36 UNL     1      30.167  -8.571 -33.001  0.00  0.00    +0.000 C 
ATOM     52 BR2  UNL     1      31.349  -9.981 -32.456  0.00  0.00    +0.000 Br
ENDBRANCH  44  46
ENDBRANCH  40  41
ENDBRANCH  39  40
ENDBRANCH   6  39
TORSDOF 13
