REMARK  Name = resultss/4CJN/ligands/lig_413_t0.pdb
REMARK  6 active torsions:
REMARK  status: ('A' for Active; 'I' for Inactive)
REMARK    1  A    between atoms: C9_1  and  C1_22
REMARK    2  A    between atoms: C19_12  and  C20_15
REMARK    3  A    between atoms: N1_23  and  N2_25
REMARK    4  A    between atoms: N2_25  and  C2_27
REMARK    5  A    between atoms: C2_27  and  N3_29
REMARK    6  A    between atoms: N3_29  and  C3_31
REMARK                            x       y       z     vdW  Elec       q    Type
REMARK                         _______ _______ _______ _____ _____    ______ ____
ROOT
ATOM      1  C9  UNL     1      27.188  -9.427 -37.818  0.00  0.00    +0.000 C 
ATOM      2  C10 UNL     1      25.893  -8.992 -37.466  0.00  0.00    +0.000 C 
ATOM      3  C11 UNL     1      25.681  -8.626 -36.141  0.00  0.00    +0.000 A 
ATOM      4  C12 UNL     1      26.683  -8.689 -35.196  0.00  0.00    +0.000 A 
ATOM      5  N4  UNL     1      26.257  -8.221 -33.998  0.00  0.00    +0.000 N 
ATOM      6  C13 UNL     1      24.965  -7.880 -34.199  0.00  0.00    +0.000 A 
ATOM      7  C14 UNL     1      24.085  -7.332 -33.267  0.00  0.00    +0.000 C 
ATOM      8  C15 UNL     1      22.779  -7.027 -33.694  0.00  0.00    +0.000 C 
ATOM      9  C16 UNL     1      22.385  -7.268 -35.030  0.00  0.00    +0.000 C 
ATOM     10  C17 UNL     1      23.292  -7.818 -35.954  0.00  0.00    +0.000 C 
ATOM     11  C18 UNL     1      24.576  -8.115 -35.501  0.00  0.00    +0.000 A 
ATOM     12  C19 UNL     1      27.960  -9.140 -35.553  0.00  0.00    +0.000 C 
ATOM     13  N5  UNL     1      28.169  -9.484 -36.860  0.00  0.00    +0.000 NA
ATOM     14  H9  UNL     1      26.804  -8.106 -33.116  0.00  0.00    +0.000 HD
ENDROOT
BRANCH  12  15
ATOM     15  C20 UNL     1      29.075  -9.252 -34.589  0.00  0.00    +0.000 C 
ATOM     16  C21 UNL     1      28.848  -9.157 -33.204  0.00  0.00    +0.000 C 
ATOM     17  C22 UNL     1      29.910  -9.295 -32.305  0.00  0.00    +0.000 C 
ATOM     18  C23 UNL     1      31.200  -9.542 -32.777  0.00  0.00    +0.000 C 
ATOM     19  C24 UNL     1      31.432  -9.658 -34.150  0.00  0.00    +0.000 C 
ATOM     20  C25 UNL     1      30.374  -9.521 -35.053  0.00  0.00    +0.000 C 
ENDBRANCH  12  15
BRANCH   1  22
ATOM     21  O1  UNL     1      26.772  -9.416 -40.153  0.00  0.00    +0.000 OA
ATOM     22  C1  UNL     1      27.504  -9.819 -39.209  0.00  0.00    +0.000 C 
ATOM     23  N1  UNL     1      28.640 -10.649 -39.494  0.00  0.00    +0.000 N 
ATOM     24  H1  UNL     1      29.253 -10.957 -38.706  0.00  0.00    +0.000 HD
BRANCH  23  25
ATOM     25  N2  UNL     1      28.916 -11.085 -40.803  0.00  0.00    +0.000 N 
ATOM     26  H2  UNL     1      28.426 -11.928 -41.179  0.00  0.00    +0.000 HD
BRANCH  25  27
ATOM     27  C2  UNL     1      29.883 -10.428 -41.641  0.00  0.00    +0.000 C 
ATOM     28  S1  UNL     1      29.393  -9.464 -42.875  0.00  0.00    +0.000 S 
BRANCH  27  29
ATOM     29  N3  UNL     1      31.278 -10.753 -41.530  0.00  0.00    +0.000 N 
ATOM     30  H3  UNL     1      31.770 -10.503 -40.642  0.00  0.00    +0.000 HD
BRANCH  29  31
ATOM     31  C3  UNL     1      32.020 -11.433 -42.556  0.00  0.00    +0.000 C 
ATOM     32  C4  UNL     1      31.385 -12.368 -43.394  0.00  0.00    +0.000 C 
ATOM     33  C5  UNL     1      32.112 -13.048 -44.374  0.00  0.00    +0.000 C 
ATOM     34  C6  UNL     1      33.479 -12.812 -44.522  0.00  0.00    +0.000 C 
ATOM     35  C7  UNL     1      34.124 -11.897 -43.688  0.00  0.00    +0.000 C 
ATOM     36  C8  UNL     1      33.404 -11.210 -42.702  0.00  0.00    +0.000 C 
ATOM     37 BR1  UNL     1      34.340  -9.947 -41.605  0.00  0.00    +0.000 Br
ENDBRANCH  29  31
ENDBRANCH  27  29
ENDBRANCH  25  27
ENDBRANCH  23  25
ENDBRANCH   1  22
TORSDOF 6
