REMARK  Name = resultss/4CJN/ligands/lig_85_t0.pdb
REMARK  7 active torsions:
REMARK  status: ('A' for Active; 'I' for Inactive)
REMARK    1  A    between atoms: C12_1  and  C11_16
REMARK    2  A    between atoms: C17_6  and  C19_34
REMARK    3  A    between atoms: C20_8  and  O3_32
REMARK    4  A    between atoms: C10_15  and  C9_20
REMARK    5  A    between atoms: C6_17  and  C5_27
REMARK    6  A    between atoms: C2_24  and  O1_31
REMARK    7  A    between atoms: C19_34  and  O2_35
REMARK                            x       y       z     vdW  Elec       q    Type
REMARK                         _______ _______ _______ _____ _____    ______ ____
ROOT
ATOM      1  C12 UNL     1      26.001  -8.557 -37.797  0.00  0.00    +0.000 C 
ATOM      2  C13 UNL     1      25.588  -7.872 -36.472  0.00  0.00    +0.000 C 
ATOM      3  C14 UNL     1      26.579  -6.951 -35.773  0.00  0.00    +0.000 C 
ATOM      4  C15 UNL     1      27.957  -7.619 -35.624  0.00  0.00    +0.000 C 
ATOM      5  C16 UNL     1      28.324  -8.654 -36.746  0.00  0.00    +0.000 C 
ATOM      6  C17 UNL     1      29.877  -8.966 -36.866  0.00  0.00    +0.000 C 
ATOM      7  C18 UNL     1      30.376  -9.492 -35.492  0.00  0.00    +0.000 C 
ATOM      8  C20 UNL     1      30.062 -10.112 -37.918  0.00  0.00    +0.000 C 
ATOM      9  C21 UNL     1      29.435  -9.760 -39.270  0.00  0.00    +0.000 C 
ATOM     10  C22 UNL     1      27.932  -9.509 -39.137  0.00  0.00    +0.000 C 
ATOM     11  C23 UNL     1      27.552  -8.403 -38.100  0.00  0.00    +0.000 C 
ATOM     12  C24 UNL     1      27.892  -6.993 -38.697  0.00  0.00    +0.000 C 
ATOM     13  C25 UNL     1      24.154  -7.826 -36.076  0.00  0.00    +0.000 C 
ATOM     14  O4  UNL     1      25.036  -8.793 -35.556  0.00  0.00    +0.000 OA
ENDROOT
BRANCH   1  16
ATOM     15  C10 UNL     1      24.815  -8.889 -39.968  0.00  0.00    +0.000 C 
ATOM     16  C11 UNL     1      25.112  -8.093 -38.934  0.00  0.00    +0.000 C 
BRANCH  15  20
ATOM     17  C6  UNL     1      21.672  -6.469 -42.920  0.00  0.00    +0.000 C 
ATOM     18  C7  UNL     1      22.558  -7.377 -42.492  0.00  0.00    +0.000 C 
ATOM     19  C8  UNL     1      23.143  -7.415 -41.148  0.00  0.00    +0.000 C 
ATOM     20  C9  UNL     1      23.968  -8.462 -41.098  0.00  0.00    +0.000 C 
ATOM     21  C26 UNL     1      23.922  -9.110 -42.405  0.00  0.00    +0.000 C 
ATOM     22  O5  UNL     1      24.571 -10.134 -42.742  0.00  0.00    +0.000 OA
ATOM     23  O6  UNL     1      23.048  -8.439 -43.242  0.00  0.00    +0.000 OA
BRANCH  17  27
ATOM     24  C2  UNL     1      19.902  -6.387 -46.842  0.00  0.00    +0.000 C 
ATOM     25  C3  UNL     1      19.140  -6.699 -45.711  0.00  0.00    +0.000 C 
ATOM     26  C4  UNL     1      19.727  -6.724 -44.442  0.00  0.00    +0.000 C 
ATOM     27  C5  UNL     1      21.095  -6.448 -44.284  0.00  0.00    +0.000 C 
ATOM     28  C27 UNL     1      21.855  -6.106 -45.418  0.00  0.00    +0.000 C 
ATOM     29  C28 UNL     1      21.268  -6.087 -46.687  0.00  0.00    +0.000 C 
BRANCH  24  31
ATOM     30  C1  UNL     1      17.875  -6.612 -48.287  0.00  0.00    +0.000 C 
ATOM     31  O1  UNL     1      19.267  -6.383 -48.092  0.00  0.00    +0.000 OA
ENDBRANCH  24  31
ENDBRANCH  17  27
ENDBRANCH  15  20
ENDBRANCH   1  16
BRANCH   8  32
ATOM     32  O3  UNL     1      31.419 -10.416 -38.127  0.00  0.00    +0.000 OA
ATOM     33  H23 UNL     1      31.469 -11.063 -38.877  0.00  0.00    +0.000 HD
ENDBRANCH   8  32
BRANCH   6  34
ATOM     34  C19 UNL     1      30.740  -7.713 -37.240  0.00  0.00    +0.000 C 
BRANCH  34  35
ATOM     35  O2  UNL     1      32.099  -7.932 -36.965  0.00  0.00    +0.000 OA
ATOM     36  H21 UNL     1      32.259  -8.904 -37.089  0.00  0.00    +0.000 HD
ENDBRANCH  34  35
ENDBRANCH   6  34
TORSDOF 7
