REMARK  Name = resultss/4CJN/ligands/lig_350_t0.pdb
REMARK  10 active torsions:
REMARK  status: ('A' for Active; 'I' for Inactive)
REMARK    1  A    between atoms: C11_1  and  O3_27
REMARK    2  A    between atoms: C14_4  and  C15_7
REMARK    3  A    between atoms: N4_17  and  N5_19
REMARK    4  A    between atoms: N5_19  and  C23_21
REMARK    5  A    between atoms: O3_27  and  C10_28
REMARK    6  A    between atoms: C10_28  and  C9_31
REMARK    7  A    between atoms: N2_29  and  C7_34
REMARK    8  A    between atoms: C7_34  and  C6_36
REMARK    9  A    between atoms: N1_35  and  C5_42
REMARK   10  A    between atoms: C2_39  and  O1_46
REMARK                            x       y       z     vdW  Elec       q    Type
REMARK                         _______ _______ _______ _____ _____    ______ ____
ROOT
ATOM      1  C11 UNL     1      26.203  -6.851 -39.658  0.00  0.00    +0.000 C 
ATOM      2  C12 UNL     1      25.333  -7.553 -38.814  0.00  0.00    +0.000 C 
ATOM      3  C13 UNL     1      25.645  -7.741 -37.463  0.00  0.00    +0.000 C 
ATOM      4  C14 UNL     1      26.856  -7.245 -36.938  0.00  0.00    +0.000 C 
ATOM      5  C29 UNL     1      27.715  -6.517 -37.779  0.00  0.00    +0.000 C 
ATOM      6  C30 UNL     1      27.393  -6.321 -39.126  0.00  0.00    +0.000 C 
ENDROOT
BRANCH   4   7
ATOM      7  C15 UNL     1      27.229  -7.409 -35.477  0.00  0.00    +0.000 C 
ATOM      8  N3  UNL     1      26.330  -6.604 -34.644  0.00  0.00    +0.000 N 
ATOM      9  C16 UNL     1      25.201  -7.160 -33.951  0.00  0.00    +0.000 C 
ATOM     10  C17 UNL     1      24.252  -6.311 -33.363  0.00  0.00    +0.000 C 
ATOM     11  C18 UNL     1      23.150  -6.846 -32.683  0.00  0.00    +0.000 C 
ATOM     12  C19 UNL     1      22.992  -8.231 -32.590  0.00  0.00    +0.000 C 
ATOM     13  C20 UNL     1      23.939  -9.084 -33.169  0.00  0.00    +0.000 C 
ATOM     14  C21 UNL     1      25.050  -8.549 -33.849  0.00  0.00    +0.000 C 
ATOM     15  C22 UNL     1      26.088  -9.414 -34.435  0.00  0.00    +0.000 C 
ATOM     16  O4  UNL     1      25.968 -10.669 -34.395  0.00  0.00    +0.000 OA
ATOM     17  N4  UNL     1      27.241  -8.822 -35.064  0.00  0.00    +0.000 N 
ATOM     18  H15 UNL     1      26.448  -5.566 -34.663  0.00  0.00    +0.000 HD
BRANCH  17  19
ATOM     19  N5  UNL     1      28.313  -9.634 -35.485  0.00  0.00    +0.000 N 
ATOM     20  H20 UNL     1      28.812 -10.210 -34.772  0.00  0.00    +0.000 HD
BRANCH  19  21
ATOM     21  C23 UNL     1      28.685  -9.775 -36.867  0.00  0.00    +0.000 C 
ATOM     22  C24 UNL     1      27.818 -10.374 -37.799  0.00  0.00    +0.000 C 
ATOM     23  C25 UNL     1      28.211 -10.527 -39.133  0.00  0.00    +0.000 C 
ATOM     24  C26 UNL     1      29.468 -10.076 -39.547  0.00  0.00    +0.000 C 
ATOM     25  C27 UNL     1      30.342  -9.494 -38.624  0.00  0.00    +0.000 C 
ATOM     26  C28 UNL     1      29.957  -9.357 -37.286  0.00  0.00    +0.000 C 
ENDBRANCH  19  21
ENDBRANCH  17  19
ENDBRANCH   4   7
BRANCH   1  27
ATOM     27  O3  UNL     1      25.857  -6.704 -41.011  0.00  0.00    +0.000 OA
BRANCH  27  28
ATOM     28  C10 UNL     1      25.016  -7.612 -41.720  0.00  0.00    +0.000 C 
BRANCH  28  31
ATOM     29  N2  UNL     1      24.526  -7.177 -45.289  0.00  0.00    +0.000 N 
ATOM     30  C8  UNL     1      24.238  -7.851 -44.162  0.00  0.00    +0.000 C 
ATOM     31  C9  UNL     1      25.024  -7.288 -43.177  0.00  0.00    +0.000 C 
ATOM     32  N6  UNL     1      25.752  -6.296 -43.725  0.00  0.00    +0.000 NA
ATOM     33  N7  UNL     1      25.433  -6.254 -45.011  0.00  0.00    +0.000 NA
BRANCH  29  34
ATOM     34  C7  UNL     1      23.957  -7.400 -46.615  0.00  0.00    +0.000 C 
BRANCH  34  36
ATOM     35  N1  UNL     1      21.621  -7.433 -47.627  0.00  0.00    +0.000 N 
ATOM     36  C6  UNL     1      22.557  -6.869 -46.690  0.00  0.00    +0.000 C 
ATOM     37  O2  UNL     1      22.235  -5.883 -45.974  0.00  0.00    +0.000 OA
ATOM     38  H6  UNL     1      21.999  -8.082 -48.355  0.00  0.00    +0.000 HD
BRANCH  35  42
ATOM     39  C2  UNL     1      17.529  -6.310 -48.005  0.00  0.00    +0.000 C 
ATOM     40  C3  UNL     1      18.468  -5.948 -48.977  0.00  0.00    +0.000 C 
ATOM     41  C4  UNL     1      19.809  -6.318 -48.845  0.00  0.00    +0.000 C 
ATOM     42  C5  UNL     1      20.237  -7.048 -47.724  0.00  0.00    +0.000 C 
ATOM     43  C31 UNL     1      19.291  -7.437 -46.759  0.00  0.00    +0.000 C 
ATOM     44  C32 UNL     1      17.950  -7.063 -46.892  0.00  0.00    +0.000 C 
BRANCH  39  46
ATOM     45  C1  UNL     1      15.212  -6.686 -48.863  0.00  0.00    +0.000 C 
ATOM     46  O1  UNL     1      16.196  -5.913 -48.184  0.00  0.00    +0.000 OA
ENDBRANCH  39  46
ENDBRANCH  35  42
ENDBRANCH  34  36
ENDBRANCH  29  34
ENDBRANCH  28  31
ENDBRANCH  27  28
ENDBRANCH   1  27
TORSDOF 10
