REMARK  Name = resultss/4CJN/ligands/lig_427_t0.pdb
REMARK  8 active torsions:
REMARK  status: ('A' for Active; 'I' for Inactive)
REMARK    1  A    between atoms: C11_1  and  C10_22
REMARK    2  A    between atoms: C21_12  and  C22_15
REMARK    3  A    between atoms: N3_21  and  N2_25
REMARK    4  A    between atoms: N2_25  and  C9_27
REMARK    5  A    between atoms: C9_27  and  N1_29
REMARK    6  A    between atoms: N1_29  and  C8_36
REMARK    7  A    between atoms: C3_31  and  O1_37
REMARK    8  A    between atoms: O1_37  and  C2_39
REMARK                            x       y       z     vdW  Elec       q    Type
REMARK                         _______ _______ _______ _____ _____    ______ ____
ROOT
ATOM      1  C11 UNL     1      28.665  -9.787 -39.713  0.00  0.00    +0.000 C 
ATOM      2  C12 UNL     1      27.813  -8.928 -40.442  0.00  0.00    +0.000 C 
ATOM      3  C13 UNL     1      28.116  -8.724 -41.783  0.00  0.00    +0.000 A 
ATOM      4  C14 UNL     1      29.191  -9.332 -42.393  0.00  0.00    +0.000 A 
ATOM      5  N4  UNL     1      29.316  -8.933 -43.682  0.00  0.00    +0.000 N 
ATOM      6  C15 UNL     1      28.292  -8.076 -43.879  0.00  0.00    +0.000 A 
ATOM      7  C16 UNL     1      27.990  -7.381 -45.049  0.00  0.00    +0.000 C 
ATOM      8  C17 UNL     1      26.880  -6.515 -45.034  0.00  0.00    +0.000 C 
ATOM      9  C18 UNL     1      26.106  -6.359 -43.861  0.00  0.00    +0.000 C 
ATOM     10  C19 UNL     1      26.432  -7.069 -42.691  0.00  0.00    +0.000 C 
ATOM     11  C20 UNL     1      27.533  -7.923 -42.738  0.00  0.00    +0.000 A 
ATOM     12  C21 UNL     1      30.018 -10.196 -41.662  0.00  0.00    +0.000 C 
ATOM     13  N5  UNL     1      29.727 -10.384 -40.340  0.00  0.00    +0.000 NA
ATOM     14  H14 UNL     1      30.056  -9.193 -44.371  0.00  0.00    +0.000 HD
ENDROOT
BRANCH  12  15
ATOM     15  C22 UNL     1      31.176 -10.893 -42.257  0.00  0.00    +0.000 C 
ATOM     16  C23 UNL     1      32.477 -10.375 -42.134  0.00  0.00    +0.000 C 
ATOM     17  C24 UNL     1      33.559 -11.035 -42.724  0.00  0.00    +0.000 C 
ATOM     18  C25 UNL     1      33.351 -12.209 -43.453  0.00  0.00    +0.000 C 
ATOM     19  C26 UNL     1      32.059 -12.720 -43.599  0.00  0.00    +0.000 C 
ATOM     20  C27 UNL     1      30.974 -12.063 -43.011  0.00  0.00    +0.000 C 
ENDBRANCH  12  15
BRANCH   1  22
ATOM     21  N3  UNL     1      29.043  -9.252 -37.271  0.00  0.00    +0.000 N 
ATOM     22  C10 UNL     1      28.418 -10.059 -38.282  0.00  0.00    +0.000 C 
ATOM     23  O2  UNL     1      27.644 -10.995 -37.945  0.00  0.00    +0.000 OA
ATOM     24  H12 UNL     1      29.387  -8.300 -37.529  0.00  0.00    +0.000 HD
BRANCH  21  25
ATOM     25  N2  UNL     1      29.020  -9.601 -35.909  0.00  0.00    +0.000 N 
ATOM     26  H11 UNL     1      29.743 -10.267 -35.556  0.00  0.00    +0.000 HD
BRANCH  25  27
ATOM     27  C9  UNL     1      27.961  -9.200 -35.027  0.00  0.00    +0.000 C 
ATOM     28  S1  UNL     1      28.333  -8.302 -33.705  0.00  0.00    +0.000 S 
BRANCH  27  29
ATOM     29  N1  UNL     1      26.653  -9.782 -35.165  0.00  0.00    +0.000 N 
ATOM     30  H10 UNL     1      26.593 -10.780 -35.467  0.00  0.00    +0.000 HD
BRANCH  29  36
ATOM     31  C3  UNL     1      24.808  -8.192 -35.650  0.00  0.00    +0.000 C 
ATOM     32  C4  UNL     1      23.611  -7.571 -35.239  0.00  0.00    +0.000 C 
ATOM     33  C5  UNL     1      23.036  -7.891 -34.006  0.00  0.00    +0.000 C 
ATOM     34  C6  UNL     1      23.640  -8.834 -33.176  0.00  0.00    +0.000 C 
ATOM     35  C7  UNL     1      24.829  -9.451 -33.568  0.00  0.00    +0.000 C 
ATOM     36  C8  UNL     1      25.434  -9.119 -34.789  0.00  0.00    +0.000 C 
BRANCH  31  37
ATOM     37  O1  UNL     1      25.384  -7.930 -36.902  0.00  0.00    +0.000 OA
BRANCH  37  39
ATOM     38  C1  UNL     1      24.720  -7.421 -39.153  0.00  0.00    +0.000 C 
ATOM     39  C2  UNL     1      24.966  -8.517 -38.130  0.00  0.00    +0.000 C 
ENDBRANCH  37  39
ENDBRANCH  31  37
ENDBRANCH  29  36
ENDBRANCH  27  29
ENDBRANCH  25  27
ENDBRANCH  21  25
ENDBRANCH   1  22
TORSDOF 8
