REMARK  Name = resultss/4CJN/ligands/lig_181_t0.pdb
REMARK  5 active torsions:
REMARK  status: ('A' for Active; 'I' for Inactive)
REMARK    1  A    between atoms: C9_1  and  C8_17
REMARK    2  A    between atoms: C12_4  and  C13_7
REMARK    3  A    between atoms: N2_16  and  N1_21
REMARK    4  A    between atoms: C7_20  and  C6_26
REMARK    5  A    between atoms: C2_22  and  O1_29
REMARK                            x       y       z     vdW  Elec       q    Type
REMARK                         _______ _______ _______ _____ _____    ______ ____
ROOT
ATOM      1  C9  UNL     1      29.215  -9.835 -39.817  0.00  0.00    +0.000 C 
ATOM      2  C10 UNL     1      29.444 -10.008 -38.441  0.00  0.00    +0.000 C 
ATOM      3  C11 UNL     1      28.441  -9.720 -37.511  0.00  0.00    +0.000 C 
ATOM      4  C12 UNL     1      27.188  -9.246 -37.934  0.00  0.00    +0.000 C 
ATOM      5  C20 UNL     1      26.961  -9.063 -39.309  0.00  0.00    +0.000 C 
ATOM      6  C21 UNL     1      27.965  -9.352 -40.240  0.00  0.00    +0.000 C 
ENDROOT
BRANCH   4   7
ATOM      7  C13 UNL     1      26.132  -8.943 -36.939  0.00  0.00    +0.000 A 
ATOM      8  N3  UNL     1      26.193  -9.350 -35.645  0.00  0.00    +0.000 NA
ATOM      9  C14 UNL     1      25.103  -8.943 -34.945  0.00  0.00    +0.000 A 
ATOM     10  C15 UNL     1      24.888  -9.213 -33.593  0.00  0.00    +0.000 C 
ATOM     11  C16 UNL     1      23.714  -8.734 -32.987  0.00  0.00    +0.000 C 
ATOM     12  C17 UNL     1      22.774  -7.995 -33.735  0.00  0.00    +0.000 C 
ATOM     13  C18 UNL     1      23.001  -7.730 -35.095  0.00  0.00    +0.000 C 
ATOM     14  C19 UNL     1      24.172  -8.217 -35.670  0.00  0.00    +0.000 A 
ATOM     15  S1  UNL     1      24.711  -8.064 -37.250  0.00  0.00    +0.000 S 
ENDBRANCH   4   7
BRANCH   1  17
ATOM     16  N2  UNL     1      30.137 -11.207 -41.747  0.00  0.00    +0.000 N 
ATOM     17  C8  UNL     1      30.287 -10.138 -40.796  0.00  0.00    +0.000 C 
ATOM     18  O2  UNL     1      31.361  -9.477 -40.765  0.00  0.00    +0.000 OA
ATOM     19  H8  UNL     1      29.539 -12.022 -41.488  0.00  0.00    +0.000 HD
BRANCH  16  21
ATOM     20  C7  UNL     1      31.621 -12.378 -43.203  0.00  0.00    +0.000 C 
ATOM     21  N1  UNL     1      30.923 -11.323 -42.909  0.00  0.00    +0.000 NA
BRANCH  20  26
ATOM     22  C2  UNL     1      33.208 -13.746 -46.352  0.00  0.00    +0.000 C 
ATOM     23  C3  UNL     1      33.901 -12.616 -46.824  0.00  0.00    +0.000 C 
ATOM     24  C4  UNL     1      33.849 -11.413 -46.116  0.00  0.00    +0.000 C 
ATOM     25  C5  UNL     1      33.109 -11.323 -44.935  0.00  0.00    +0.000 C 
ATOM     26  C6  UNL     1      32.412 -12.444 -44.448  0.00  0.00    +0.000 C 
ATOM     27  C22 UNL     1      32.468 -13.649 -45.166  0.00  0.00    +0.000 C 
BRANCH  22  29
ATOM     28  C1  UNL     1      34.213 -15.354 -47.981  0.00  0.00    +0.000 C 
ATOM     29  O1  UNL     1      33.228 -14.976 -47.025  0.00  0.00    +0.000 OA
ENDBRANCH  22  29
ENDBRANCH  20  26
ENDBRANCH  16  21
ENDBRANCH   1  17
TORSDOF 5
