REMARK  Name = resultss/4CJN/ligands/lig_182_t2.pdb
REMARK  4 active torsions:
REMARK  status: ('A' for Active; 'I' for Inactive)
REMARK    1  A    between atoms: C9_1  and  C1_17
REMARK    2  A    between atoms: C12_4  and  C13_7
REMARK    3  A    between atoms: N1_18  and  N2_20
REMARK    4  A    between atoms: C2_21  and  C3_22
REMARK                            x       y       z     vdW  Elec       q    Type
REMARK                         _______ _______ _______ _____ _____    ______ ____
ROOT
ATOM      1  C9  UNL     1      25.333  -9.273 -40.620  0.00  0.00    +0.000 C 
ATOM      2  C10 UNL     1      24.975  -8.647 -39.413  0.00  0.00    +0.000 C 
ATOM      3  C11 UNL     1      25.825  -8.696 -38.306  0.00  0.00    +0.000 C 
ATOM      4  C12 UNL     1      27.052  -9.379 -38.375  0.00  0.00    +0.000 C 
ATOM      5  C20 UNL     1      27.405 -10.017 -39.577  0.00  0.00    +0.000 C 
ATOM      6  C21 UNL     1      26.554  -9.967 -40.686  0.00  0.00    +0.000 C 
ENDROOT
BRANCH   4   7
ATOM      7  C13 UNL     1      27.947  -9.424 -37.196  0.00  0.00    +0.000 A 
ATOM      8  N3  UNL     1      27.503  -9.271 -35.921  0.00  0.00    +0.000 NA
ATOM      9  C14 UNL     1      28.522  -9.354 -35.027  0.00  0.00    +0.000 A 
ATOM     10  C15 UNL     1      28.370  -9.233 -33.645  0.00  0.00    +0.000 C 
ATOM     11  C16 UNL     1      29.510  -9.340 -32.829  0.00  0.00    +0.000 C 
ATOM     12  C17 UNL     1      30.778  -9.563 -33.401  0.00  0.00    +0.000 C 
ATOM     13  C18 UNL     1      30.919  -9.682 -34.793  0.00  0.00    +0.000 C 
ATOM     14  C19 UNL     1      29.773  -9.572 -35.577  0.00  0.00    +0.000 A 
ATOM     15  S1  UNL     1      29.628  -9.670 -37.244  0.00  0.00    +0.000 S 
ENDBRANCH   4   7
BRANCH   1  17
ATOM     16  O1  UNL     1      24.561 -10.041 -42.728  0.00  0.00    +0.000 OA
ATOM     17  C1  UNL     1      24.416  -9.217 -41.784  0.00  0.00    +0.000 C 
ATOM     18  N1  UNL     1      23.356  -8.256 -41.854  0.00  0.00    +0.000 N 
ATOM     19  H1  UNL     1      23.116  -7.677 -41.016  0.00  0.00    +0.000 HD
BRANCH  18  20
ATOM     20  N2  UNL     1      22.592  -8.139 -43.025  0.00  0.00    +0.000 NA
ATOM     21  C2  UNL     1      22.567  -7.043 -43.720  0.00  0.00    +0.000 C 
BRANCH  21  22
ATOM     22  C3  UNL     1      21.758  -6.931 -44.952  0.00  0.00    +0.000 C 
ATOM     23  C4  UNL     1      20.325  -6.585 -44.825  0.00  0.00    +0.000 C 
ATOM     24  C5  UNL     1      19.527  -6.466 -45.891  0.00  0.00    +0.000 C 
ATOM     25  C6  UNL     1      20.012  -6.670 -47.302  0.00  0.00    +0.000 C 
ATOM     26  C7  UNL     1      21.473  -7.020 -47.381  0.00  0.00    +0.000 C 
ATOM     27  O2  UNL     1      22.003  -7.219 -48.507  0.00  0.00    +0.000 OA
ATOM     28  C8  UNL     1      22.294  -7.137 -46.166  0.00  0.00    +0.000 C 
ENDBRANCH  21  22
ENDBRANCH  18  20
ENDBRANCH   1  17
TORSDOF 4
