REMARK  Name = resultss/4CJN/ligands/lig_426_t0.pdb
REMARK  7 active torsions:
REMARK  status: ('A' for Active; 'I' for Inactive)
REMARK    1  A    between atoms: C8_1  and  C7_22
REMARK    2  A    between atoms: C18_12  and  C19_15
REMARK    3  A    between atoms: N3_21  and  N2_25
REMARK    4  A    between atoms: N2_25  and  C6_27
REMARK    5  A    between atoms: C6_27  and  N1_29
REMARK    6  A    between atoms: N1_29  and  C5_34
REMARK    7  A    between atoms: C2_31  and  O1_38
REMARK                            x       y       z     vdW  Elec       q    Type
REMARK                         _______ _______ _______ _____ _____    ______ ____
ROOT
ATOM      1  C8  UNL     1      25.309  -7.516 -38.985  0.00  0.00    +0.000 C 
ATOM      2  C9  UNL     1      24.370  -7.646 -37.939  0.00  0.00    +0.000 C 
ATOM      3  C10 UNL     1      24.853  -8.042 -36.698  0.00  0.00    +0.000 A 
ATOM      4  C11 UNL     1      26.188  -8.305 -36.480  0.00  0.00    +0.000 A 
ATOM      5  N4  UNL     1      26.424  -8.607 -35.180  0.00  0.00    +0.000 N 
ATOM      6  C12 UNL     1      25.212  -8.549 -34.586  0.00  0.00    +0.000 A 
ATOM      7  C13 UNL     1      24.924  -8.769 -33.240  0.00  0.00    +0.000 C 
ATOM      8  C14 UNL     1      23.586  -8.636 -32.823  0.00  0.00    +0.000 C 
ATOM      9  C15 UNL     1      22.577  -8.284 -33.746  0.00  0.00    +0.000 C 
ATOM     10  C16 UNL     1      22.892  -8.061 -35.099  0.00  0.00    +0.000 C 
ATOM     11  C17 UNL     1      24.224  -8.206 -35.484  0.00  0.00    +0.000 A 
ATOM     12  C18 UNL     1      27.108  -8.187 -37.529  0.00  0.00    +0.000 C 
ATOM     13  N5  UNL     1      26.633  -7.785 -38.747  0.00  0.00    +0.000 NA
ATOM     14  H10 UNL     1      27.338  -8.807 -34.717  0.00  0.00    +0.000 HD
ENDROOT
BRANCH  12  15
ATOM     15  C19 UNL     1      28.550  -8.472 -37.371  0.00  0.00    +0.000 C 
ATOM     16  C20 UNL     1      29.483  -7.428 -37.489  0.00  0.00    +0.000 C 
ATOM     17  C21 UNL     1      30.852  -7.688 -37.366  0.00  0.00    +0.000 C 
ATOM     18  C22 UNL     1      31.300  -8.991 -37.140  0.00  0.00    +0.000 C 
ATOM     19  C23 UNL     1      30.381 -10.040 -37.045  0.00  0.00    +0.000 C 
ATOM     20  C24 UNL     1      29.012  -9.784 -37.166  0.00  0.00    +0.000 C 
ENDBRANCH  12  15
BRANCH   1  22
ATOM     21  N3  UNL     1      23.697  -7.623 -40.931  0.00  0.00    +0.000 N 
ATOM     22  C7  UNL     1      24.886  -7.082 -40.333  0.00  0.00    +0.000 C 
ATOM     23  O2  UNL     1      25.562  -6.219 -40.956  0.00  0.00    +0.000 OA
ATOM     24  H8  UNL     1      22.984  -8.076 -40.316  0.00  0.00    +0.000 HD
BRANCH  21  25
ATOM     25  N2  UNL     1      23.341  -7.355 -42.264  0.00  0.00    +0.000 N 
ATOM     26  H7  UNL     1      22.588  -6.655 -42.447  0.00  0.00    +0.000 HD
BRANCH  25  27
ATOM     27  C6  UNL     1      23.844  -8.119 -43.374  0.00  0.00    +0.000 C 
ATOM     28  S1  UNL     1      24.089  -7.391 -44.824  0.00  0.00    +0.000 S 
BRANCH  27  29
ATOM     29  N1  UNL     1      24.390  -9.429 -43.157  0.00  0.00    +0.000 N 
ATOM     30  H6  UNL     1      23.864 -10.250 -43.534  0.00  0.00    +0.000 HD
BRANCH  29  34
ATOM     31  C2  UNL     1      28.094 -10.186 -41.200  0.00  0.00    +0.000 C 
ATOM     32  C3  UNL     1      26.901 -10.679 -40.658  0.00  0.00    +0.000 C 
ATOM     33  C4  UNL     1      25.680 -10.434 -41.291  0.00  0.00    +0.000 C 
ATOM     34  C5  UNL     1      25.631  -9.676 -42.475  0.00  0.00    +0.000 C 
ATOM     35  C25 UNL     1      26.828  -9.200 -43.028  0.00  0.00    +0.000 C 
ATOM     36  C26 UNL     1      28.050  -9.444 -42.396  0.00  0.00    +0.000 C 
BRANCH  31  38
ATOM     37  C1  UNL     1      30.511  -9.750 -40.736  0.00  0.00    +0.000 C 
ATOM     38  O1  UNL     1      29.294 -10.457 -40.525  0.00  0.00    +0.000 OA
ENDBRANCH  31  38
ENDBRANCH  29  34
ENDBRANCH  27  29
ENDBRANCH  25  27
ENDBRANCH  21  25
ENDBRANCH   1  22
TORSDOF 7
