REMARK  Name = resultss/4CJN/ligands/lig_440_t0.pdb
REMARK  8 active torsions:
REMARK  status: ('A' for Active; 'I' for Inactive)
REMARK    1  A    between atoms: N3_1  and  N2_25
REMARK    2  A    between atoms: C6_2  and  C7_5
REMARK    3  A    between atoms: C17_16  and  C18_19
REMARK    4  A    between atoms: N2_25  and  C5_27
REMARK    5  A    between atoms: C5_27  and  N1_29
REMARK    6  A    between atoms: N1_29  and  C4_33
REMARK    7  A    between atoms: C2_31  and  O1_38
REMARK    8  A    between atoms: C25_35  and  O3_39
REMARK                            x       y       z     vdW  Elec       q    Type
REMARK                         _______ _______ _______ _____ _____    ______ ____
ROOT
ATOM      1  N3  UNL     1      30.324 -10.241 -38.099  0.00  0.00    +0.000 N 
ATOM      2  C6  UNL     1      29.576  -9.789 -36.959  0.00  0.00    +0.000 C 
ATOM      3  O2  UNL     1      30.137  -9.717 -35.832  0.00  0.00    +0.000 OA
ATOM      4  H7  UNL     1      29.825 -10.388 -39.003  0.00  0.00    +0.000 HD
ENDROOT
BRANCH   2   5
ATOM      5  C7  UNL     1      28.152  -9.411 -37.094  0.00  0.00    +0.000 C 
ATOM      6  C8  UNL     1      27.350  -9.204 -35.951  0.00  0.00    +0.000 C 
ATOM      7  C9  UNL     1      26.029  -8.825 -36.160  0.00  0.00    +0.000 A 
ATOM      8  C10 UNL     1      25.505  -8.661 -37.425  0.00  0.00    +0.000 A 
ATOM      9  N4  UNL     1      24.224  -8.225 -37.374  0.00  0.00    +0.000 N 
ATOM     10  C11 UNL     1      23.941  -8.137 -36.055  0.00  0.00    +0.000 A 
ATOM     11  C12 UNL     1      22.741  -7.724 -35.475  0.00  0.00    +0.000 C 
ATOM     12  C13 UNL     1      22.663  -7.695 -34.071  0.00  0.00    +0.000 C 
ATOM     13  C14 UNL     1      23.774  -8.066 -33.283  0.00  0.00    +0.000 C 
ATOM     14  C15 UNL     1      24.977  -8.472 -33.889  0.00  0.00    +0.000 C 
ATOM     15  C16 UNL     1      25.023  -8.499 -35.280  0.00  0.00    +0.000 A 
ATOM     16  C17 UNL     1      26.305  -8.889 -38.553  0.00  0.00    +0.000 C 
ATOM     17  N5  UNL     1      27.609  -9.247 -38.343  0.00  0.00    +0.000 NA
ATOM     18  H9  UNL     1      23.593  -7.971 -38.165  0.00  0.00    +0.000 HD
BRANCH  16  19
ATOM     19  C18 UNL     1      25.805  -8.756 -39.938  0.00  0.00    +0.000 C 
ATOM     20  C19 UNL     1      25.876  -9.832 -40.840  0.00  0.00    +0.000 C 
ATOM     21  C20 UNL     1      25.427  -9.679 -42.157  0.00  0.00    +0.000 C 
ATOM     22  C21 UNL     1      24.917  -8.454 -42.586  0.00  0.00    +0.000 C 
ATOM     23  C22 UNL     1      24.865  -7.372 -41.703  0.00  0.00    +0.000 C 
ATOM     24  C23 UNL     1      25.314  -7.518 -40.386  0.00  0.00    +0.000 C 
ENDBRANCH  16  19
ENDBRANCH   2   5
BRANCH   1  25
ATOM     25  N2  UNL     1      31.714 -10.457 -38.016  0.00  0.00    +0.000 N 
ATOM     26  H6  UNL     1      32.084 -11.175 -37.354  0.00  0.00    +0.000 HD
BRANCH  25  27
ATOM     27  C5  UNL     1      32.667  -9.714 -38.791  0.00  0.00    +0.000 C 
ATOM     28  S1  UNL     1      34.281 -10.016 -38.664  0.00  0.00    +0.000 S 
BRANCH  27  29
ATOM     29  N1  UNL     1      32.184  -8.773 -39.764  0.00  0.00    +0.000 N 
ATOM     30  H5  UNL     1      32.512  -7.784 -39.683  0.00  0.00    +0.000 HD
BRANCH  29  33
ATOM     31  C2  UNL     1      29.336  -8.483 -42.172  0.00  0.00    +0.000 C 
ATOM     32  C3  UNL     1      30.223  -8.213 -41.124  0.00  0.00    +0.000 C 
ATOM     33  C4  UNL     1      31.267  -9.097 -40.822  0.00  0.00    +0.000 C 
ATOM     34  C24 UNL     1      31.442 -10.249 -41.607  0.00  0.00    +0.000 C 
ATOM     35  C25 UNL     1      30.573 -10.532 -42.668  0.00  0.00    +0.000 C 
ATOM     36  C27 UNL     1      29.513  -9.648 -42.944  0.00  0.00    +0.000 C 
BRANCH  31  38
ATOM     37  C1  UNL     1      28.205  -6.746 -43.568  0.00  0.00    +0.000 C 
ATOM     38  O1  UNL     1      28.298  -7.571 -42.412  0.00  0.00    +0.000 OA
ENDBRANCH  31  38
BRANCH  35  39
ATOM     39  O3  UNL     1      30.804 -11.690 -43.426  0.00  0.00    +0.000 OA
ATOM     40  C26 UNL     1      31.953 -12.522 -43.300  0.00  0.00    +0.000 C 
ENDBRANCH  35  39
ENDBRANCH  29  33
ENDBRANCH  27  29
ENDBRANCH  25  27
ENDBRANCH   1  25
TORSDOF 8
