REMARK  Name = resultss/4CJN/ligands/lig_428_t0.pdb
REMARK  8 active torsions:
REMARK  status: ('A' for Active; 'I' for Inactive)
REMARK    1  A    between atoms: C9_1  and  C8_22
REMARK    2  A    between atoms: C19_12  and  C20_15
REMARK    3  A    between atoms: N3_21  and  N2_25
REMARK    4  A    between atoms: N2_25  and  C7_27
REMARK    5  A    between atoms: C7_27  and  N1_29
REMARK    6  A    between atoms: N1_29  and  C6_34
REMARK    7  A    between atoms: C3_31  and  O1_37
REMARK    8  A    between atoms: O1_37  and  C2_39
REMARK                            x       y       z     vdW  Elec       q    Type
REMARK                         _______ _______ _______ _____ _____    ______ ____
ROOT
ATOM      1  C9  UNL     1      27.453  -9.714 -37.738  0.00  0.00    +0.000 C 
ATOM      2  C10 UNL     1      28.705  -9.799 -37.090  0.00  0.00    +0.000 C 
ATOM      3  C11 UNL     1      28.732  -9.551 -35.722  0.00  0.00    +0.000 A 
ATOM      4  C12 UNL     1      27.592  -9.243 -35.012  0.00  0.00    +0.000 A 
ATOM      5  N4  UNL     1      27.879  -8.979 -33.714  0.00  0.00    +0.000 N 
ATOM      6  C13 UNL     1      29.215  -9.143 -33.615  0.00  0.00    +0.000 A 
ATOM      7  C14 UNL     1      30.003  -8.968 -32.477  0.00  0.00    +0.000 C 
ATOM      8  C15 UNL     1      31.391  -9.167 -32.599  0.00  0.00    +0.000 C 
ATOM      9  C16 UNL     1      31.959  -9.527 -33.842  0.00  0.00    +0.000 C 
ATOM     10  C17 UNL     1      31.145  -9.692 -34.978  0.00  0.00    +0.000 C 
ATOM     11  C18 UNL     1      29.774  -9.495 -34.825  0.00  0.00    +0.000 A 
ATOM     12  C19 UNL     1      26.352  -9.177 -35.662  0.00  0.00    +0.000 C 
ATOM     13  N5  UNL     1      26.331  -9.406 -37.010  0.00  0.00    +0.000 NA
ATOM     14  H12 UNL     1      27.227  -8.676 -32.956  0.00  0.00    +0.000 HD
ENDROOT
BRANCH  12  15
ATOM     15  C20 UNL     1      25.091  -8.867 -34.958  0.00  0.00    +0.000 C 
ATOM     16  C21 UNL     1      24.116  -8.042 -35.548  0.00  0.00    +0.000 C 
ATOM     17  C22 UNL     1      22.935  -7.744 -34.860  0.00  0.00    +0.000 C 
ATOM     18  C23 UNL     1      22.724  -8.252 -33.576  0.00  0.00    +0.000 C 
ATOM     19  C24 UNL     1      23.697  -9.053 -32.973  0.00  0.00    +0.000 C 
ATOM     20  C25 UNL     1      24.879  -9.354 -33.657  0.00  0.00    +0.000 C 
ENDBRANCH  12  15
BRANCH   1  22
ATOM     21  N3  UNL     1      26.531  -9.080 -40.007  0.00  0.00    +0.000 N 
ATOM     22  C8  UNL     1      27.337  -9.946 -39.193  0.00  0.00    +0.000 C 
ATOM     23  O2  UNL     1      27.933 -10.924 -39.721  0.00  0.00    +0.000 OA
ATOM     24  H10 UNL     1      25.809  -8.484 -39.546  0.00  0.00    +0.000 HD
BRANCH  21  25
ATOM     25  N2  UNL     1      26.504  -9.183 -41.410  0.00  0.00    +0.000 N 
ATOM     26  H9  UNL     1      25.908  -9.925 -41.842  0.00  0.00    +0.000 HD
BRANCH  25  27
ATOM     27  C7  UNL     1      27.159  -8.243 -42.275  0.00  0.00    +0.000 C 
ATOM     28  S1  UNL     1      26.447  -7.805 -43.692  0.00  0.00    +0.000 S 
BRANCH  27  29
ATOM     29  N1  UNL     1      28.544  -7.938 -42.046  0.00  0.00    +0.000 N 
ATOM     30  H8  UNL     1      28.793  -6.954 -41.800  0.00  0.00    +0.000 HD
BRANCH  29  34
ATOM     31  C3  UNL     1      31.748 -10.726 -42.351  0.00  0.00    +0.000 C 
ATOM     32  C4  UNL     1      30.823 -10.600 -43.394  0.00  0.00    +0.000 C 
ATOM     33  C5  UNL     1      29.764  -9.693 -43.302  0.00  0.00    +0.000 C 
ATOM     34  C6  UNL     1      29.610  -8.897 -42.153  0.00  0.00    +0.000 C 
ATOM     35  C26 UNL     1      30.553  -8.998 -41.122  0.00  0.00    +0.000 C 
ATOM     36  C27 UNL     1      31.610  -9.910 -41.211  0.00  0.00    +0.000 C 
BRANCH  31  37
ATOM     37  O1  UNL     1      32.785 -11.662 -42.496  0.00  0.00    +0.000 OA
BRANCH  37  39
ATOM     38  C1  UNL     1      33.676 -12.961 -44.349  0.00  0.00    +0.000 C 
ATOM     39  C2  UNL     1      32.690 -12.909 -43.186  0.00  0.00    +0.000 C 
ENDBRANCH  37  39
ENDBRANCH  31  37
ENDBRANCH  29  34
ENDBRANCH  27  29
ENDBRANCH  25  27
ENDBRANCH  21  25
ENDBRANCH   1  22
TORSDOF 8
