REMARK  Name = resultss/4CJN/ligands/lig_436_t1.pdb
REMARK  5 active torsions:
REMARK  status: ('A' for Active; 'I' for Inactive)
REMARK    1  A    between atoms: C11_1  and  C10_22
REMARK    2  A    between atoms: C21_12  and  C22_15
REMARK    3  A    between atoms: N3_21  and  N2_27
REMARK    4  A    between atoms: N1_25  and  C8_36
REMARK    5  A    between atoms: C9_26  and  S1_37
REMARK                            x       y       z     vdW  Elec       q    Type
REMARK                         _______ _______ _______ _____ _____    ______ ____
ROOT
ATOM      1  C11 UNL     1      30.932  -8.353 -39.892  0.00  0.00    +0.000 C 
ATOM      2  C12 UNL     1      31.955  -9.105 -40.509  0.00  0.00    +0.000 C 
ATOM      3  C13 UNL     1      31.574 -10.008 -41.493  0.00  0.00    +0.000 A 
ATOM      4  C14 UNL     1      30.258 -10.172 -41.868  0.00  0.00    +0.000 A 
ATOM      5  N4  UNL     1      30.128 -11.152 -42.794  0.00  0.00    +0.000 N 
ATOM      6  C15 UNL     1      31.387 -11.591 -43.011  0.00  0.00    +0.000 A 
ATOM      7  C16 UNL     1      31.786 -12.610 -43.876  0.00  0.00    +0.000 C 
ATOM      8  C17 UNL     1      33.156 -12.926 -43.935  0.00  0.00    +0.000 C 
ATOM      9  C18 UNL     1      34.090 -12.228 -43.134  0.00  0.00    +0.000 C 
ATOM     10  C19 UNL     1      33.663 -11.208 -42.264  0.00  0.00    +0.000 C 
ATOM     11  C20 UNL     1      32.301 -10.913 -42.233  0.00  0.00    +0.000 A 
ATOM     12  C21 UNL     1      29.253  -9.409 -41.259  0.00  0.00    +0.000 C 
ATOM     13  N5  UNL     1      29.629  -8.530 -40.280  0.00  0.00    +0.000 NA
ATOM     14  H14 UNL     1      29.254 -11.525 -43.225  0.00  0.00    +0.000 HD
ENDROOT
BRANCH  12  15
ATOM     15  C22 UNL     1      27.825  -9.519 -41.624  0.00  0.00    +0.000 C 
ATOM     16  C23 UNL     1      27.316  -8.869 -42.763  0.00  0.00    +0.000 C 
ATOM     17  C24 UNL     1      25.958  -8.961 -43.080  0.00  0.00    +0.000 C 
ATOM     18  C25 UNL     1      25.094  -9.688 -42.256  0.00  0.00    +0.000 C 
ATOM     19  C26 UNL     1      25.586 -10.319 -41.111  0.00  0.00    +0.000 C 
ATOM     20  C27 UNL     1      26.945 -10.230 -40.791  0.00  0.00    +0.000 C 
ENDBRANCH  12  15
BRANCH   1  22
ATOM     21  N3  UNL     1      30.335  -7.195 -37.726  0.00  0.00    +0.000 N 
ATOM     22  C10 UNL     1      31.245  -7.388 -38.818  0.00  0.00    +0.000 C 
ATOM     23  O1  UNL     1      32.310  -6.715 -38.868  0.00  0.00    +0.000 OA
ATOM     24  H12 UNL     1      29.326  -7.435 -37.862  0.00  0.00    +0.000 HD
BRANCH  21  27
ATOM     25  N1  UNL     1      31.345  -8.434 -35.374  0.00  0.00    +0.000 NA
ATOM     26  C9  UNL     1      31.270  -7.136 -35.420  0.00  0.00    +0.000 C 
ATOM     27  N2  UNL     1      30.700  -6.490 -36.565  0.00  0.00    +0.000 N 
ATOM     28  H11 UNL     1      30.386  -5.498 -36.466  0.00  0.00    +0.000 HD
BRANCH  25  36
ATOM     29  C1  UNL     1      34.192  -8.912 -35.181  0.00  0.00    +0.000 C 
ATOM     30  C2  UNL     1      33.237  -9.415 -34.136  0.00  0.00    +0.000 C 
ATOM     31  C3  UNL     1      33.721 -10.142 -33.037  0.00  0.00    +0.000 C 
ATOM     32  C4  UNL     1      32.844 -10.622 -32.065  0.00  0.00    +0.000 C 
ATOM     33  C5  UNL     1      31.472 -10.399 -32.185  0.00  0.00    +0.000 C 
ATOM     34  C6  UNL     1      30.961  -9.694 -33.285  0.00  0.00    +0.000 C 
ATOM     35  C7  UNL     1      29.478  -9.467 -33.396  0.00  0.00    +0.000 C 
ATOM     36  C8  UNL     1      31.850  -9.175 -34.254  0.00  0.00    +0.000 C 
ENDBRANCH  25  36
BRANCH  26  37
ATOM     37  S1  UNL     1      31.828  -6.116 -34.047  0.00  0.00    +0.000 S 
ATOM     38  H10 UNL     1      32.144  -7.246 -33.269  0.00  0.00    +0.000 HD
ENDBRANCH  26  37
ENDBRANCH  21  27
ENDBRANCH   1  22
TORSDOF 5
