REMARK  Name = resultss/4CJN/ligands/lig_433_t0.pdb
REMARK  6 active torsions:
REMARK  status: ('A' for Active; 'I' for Inactive)
REMARK    1  A    between atoms: C9_1  and  C1_22
REMARK    2  A    between atoms: C19_12  and  C20_15
REMARK    3  A    between atoms: N1_23  and  N2_25
REMARK    4  A    between atoms: N2_25  and  C2_27
REMARK    5  A    between atoms: C2_27  and  N3_29
REMARK    6  A    between atoms: N3_29  and  C3_31
REMARK                            x       y       z     vdW  Elec       q    Type
REMARK                         _______ _______ _______ _____ _____    ______ ____
ROOT
ATOM      1  C9  UNL     1      30.641  -9.720 -36.821  0.00  0.00    +0.000 C 
ATOM      2  C10 UNL     1      29.241  -9.538 -36.815  0.00  0.00    +0.000 C 
ATOM      3  C11 UNL     1      28.633  -9.320 -35.585  0.00  0.00    +0.000 A 
ATOM      4  C12 UNL     1      29.350  -9.287 -34.409  0.00  0.00    +0.000 A 
ATOM      5  N4  UNL     1      28.551  -8.999 -33.353  0.00  0.00    +0.000 N 
ATOM      6  C13 UNL     1      27.315  -8.870 -33.881  0.00  0.00    +0.000 A 
ATOM      7  C14 UNL     1      26.138  -8.561 -33.200  0.00  0.00    +0.000 C 
ATOM      8  C15 UNL     1      24.952  -8.453 -33.951  0.00  0.00    +0.000 C 
ATOM      9  C16 UNL     1      24.967  -8.649 -35.351  0.00  0.00    +0.000 C 
ATOM     10  C17 UNL     1      26.168  -8.956 -36.016  0.00  0.00    +0.000 C 
ATOM     11  C18 UNL     1      27.324  -9.062 -35.246  0.00  0.00    +0.000 A 
ATOM     12  C19 UNL     1      30.737  -9.484 -34.425  0.00  0.00    +0.000 C 
ATOM     13  N5  UNL     1      31.335  -9.686 -35.638  0.00  0.00    +0.000 NA
ATOM     14  H8  UNL     1      28.822  -8.867 -32.354  0.00  0.00    +0.000 HD
ENDROOT
BRANCH  12  15
ATOM     15  C20 UNL     1      31.564  -9.489 -33.200  0.00  0.00    +0.000 C 
ATOM     16  C21 UNL     1      32.151  -8.305 -32.719  0.00  0.00    +0.000 C 
ATOM     17  C22 UNL     1      32.902  -8.319 -31.540  0.00  0.00    +0.000 C 
ATOM     18  C23 UNL     1      33.063  -9.510 -30.825  0.00  0.00    +0.000 C 
ATOM     19  C24 UNL     1      32.467 -10.686 -31.287  0.00  0.00    +0.000 C 
ATOM     20  C25 UNL     1      31.713 -10.677 -32.464  0.00  0.00    +0.000 C 
ENDBRANCH  12  15
BRANCH   1  22
ATOM     21  O1  UNL     1      32.627 -10.027 -38.083  0.00  0.00    +0.000 OA
ATOM     22  C1  UNL     1      31.369  -9.948 -38.089  0.00  0.00    +0.000 C 
ATOM     23  N1  UNL     1      30.654 -10.086 -39.326  0.00  0.00    +0.000 N 
ATOM     24  H1  UNL     1      29.610 -10.068 -39.311  0.00  0.00    +0.000 HD
BRANCH  23  25
ATOM     25  N2  UNL     1      31.335 -10.214 -40.552  0.00  0.00    +0.000 N 
ATOM     26  H2  UNL     1      32.348  -9.960 -40.606  0.00  0.00    +0.000 HD
BRANCH  25  27
ATOM     27  C2  UNL     1      30.676 -10.604 -41.767  0.00  0.00    +0.000 C 
ATOM     28  S1  UNL     1      29.340  -9.792 -42.283  0.00  0.00    +0.000 S 
BRANCH  27  29
ATOM     29  N3  UNL     1      31.040 -11.850 -42.382  0.00  0.00    +0.000 N 
ATOM     30  H3  UNL     1      30.686 -12.729 -41.940  0.00  0.00    +0.000 HD
BRANCH  29  31
ATOM     31  C3  UNL     1      31.840 -11.973 -43.571  0.00  0.00    +0.000 C 
ATOM     32  C4  UNL     1      32.411 -10.822 -44.138  0.00  0.00    +0.000 C 
ATOM     33  C5  UNL     1      33.171 -10.913 -45.308  0.00  0.00    +0.000 C 
ATOM     34  C6  UNL     1      33.355 -12.152 -45.929  0.00  0.00    +0.000 C 
ATOM     35  F1  UNL     1      34.091 -12.236 -47.066  0.00  0.00    +0.000 F 
ATOM     36  C7  UNL     1      32.769 -13.300 -45.386  0.00  0.00    +0.000 C 
ATOM     37  F2  UNL     1      32.932 -14.500 -45.998  0.00  0.00    +0.000 F 
ATOM     38  C8  UNL     1      32.008 -13.211 -44.216  0.00  0.00    +0.000 C 
ENDBRANCH  29  31
ENDBRANCH  27  29
ENDBRANCH  25  27
ENDBRANCH  23  25
ENDBRANCH   1  22
TORSDOF 6
