REMARK  Name = resultss/4CJN/ligands/lig_239_t0.pdb
REMARK  6 active torsions:
REMARK  status: ('A' for Active; 'I' for Inactive)
REMARK    1  A    between atoms: C7_1  and  N1_9
REMARK    2  A    between atoms: C11_5  and  C12_19
REMARK    3  A    between atoms: C6_7  and  C5_14
REMARK    4  A    between atoms: C2_11  and  O1_18
REMARK    5  A    between atoms: C12_19  and  C13_21
REMARK    6  A    between atoms: C13_21  and  C14_22
REMARK                            x       y       z     vdW  Elec       q    Type
REMARK                         _______ _______ _______ _____ _____    ______ ____
ROOT
ATOM      1  C7  UNL     1      27.307  -9.094 -40.587  0.00  0.00    +0.000 C 
ATOM      2  C8  UNL     1      27.270 -10.488 -40.731  0.00  0.00    +0.000 C 
ATOM      3  C9  UNL     1      27.588 -11.317 -39.656  0.00  0.00    +0.000 C 
ATOM      4  C10 UNL     1      27.956 -10.766 -38.427  0.00  0.00    +0.000 C 
ATOM      5  C11 UNL     1      28.017  -9.370 -38.261  0.00  0.00    +0.000 C 
ATOM      6  C22 UNL     1      27.701  -8.541 -39.355  0.00  0.00    +0.000 C 
ENDROOT
BRANCH   1   9
ATOM      7  C6  UNL     1      27.836  -8.144 -42.878  0.00  0.00    +0.000 C 
ATOM      8  O2  UNL     1      29.062  -8.429 -42.792  0.00  0.00    +0.000 OA
ATOM      9  N1  UNL     1      26.997  -8.259 -41.716  0.00  0.00    +0.000 N 
ATOM     10  H6  UNL     1      26.179  -7.614 -41.637  0.00  0.00    +0.000 HD
BRANCH   7  14
ATOM     11  C2  UNL     1      26.270  -6.720 -46.629  0.00  0.00    +0.000 C 
ATOM     12  C3  UNL     1      25.409  -6.937 -45.539  0.00  0.00    +0.000 C 
ATOM     13  C4  UNL     1      25.915  -7.399 -44.320  0.00  0.00    +0.000 C 
ATOM     14  C5  UNL     1      27.291  -7.646 -44.165  0.00  0.00    +0.000 C 
ATOM     15  C23 UNL     1      28.145  -7.438 -45.262  0.00  0.00    +0.000 C 
ATOM     16  C24 UNL     1      27.636  -6.976 -46.479  0.00  0.00    +0.000 C 
BRANCH  11  18
ATOM     17  C1  UNL     1      26.612  -6.171 -49.044  0.00  0.00    +0.000 C 
ATOM     18  O1  UNL     1      25.810  -6.256 -47.871  0.00  0.00    +0.000 OA
ENDBRANCH  11  18
ENDBRANCH   7  14
ENDBRANCH   1   9
BRANCH   5  19
ATOM     19  C12 UNL     1      28.427  -8.765 -36.966  0.00  0.00    +0.000 C 
ATOM     20  O3  UNL     1      29.125  -7.713 -36.972  0.00  0.00    +0.000 OA
BRANCH  19  21
ATOM     21  C13 UNL     1      28.074  -9.408 -35.647  0.00  0.00    +0.000 C 
BRANCH  21  22
ATOM     22  C14 UNL     1      26.893  -8.739 -34.993  0.00  0.00    +0.000 A 
ATOM     23  N2  UNL     1      25.749  -8.563 -35.709  0.00  0.00    +0.000 NA
ATOM     24  C15 UNL     1      24.649  -7.991 -35.156  0.00  0.00    +0.000 A 
ATOM     25  C16 UNL     1      23.485  -7.815 -35.914  0.00  0.00    +0.000 C 
ATOM     26  C17 UNL     1      22.358  -7.226 -35.333  0.00  0.00    +0.000 C 
ATOM     27  C18 UNL     1      22.390  -6.812 -33.998  0.00  0.00    +0.000 C 
ATOM     28  C19 UNL     1      23.549  -6.986 -33.234  0.00  0.00    +0.000 C 
ATOM     29  C20 UNL     1      24.685  -7.576 -33.809  0.00  0.00    +0.000 A 
ATOM     30  N3  UNL     1      25.826  -7.759 -33.085  0.00  0.00    +0.000 N 
ATOM     31  C21 UNL     1      26.927  -8.334 -33.644  0.00  0.00    +0.000 A 
ATOM     32  O4  UNL     1      27.966  -8.502 -32.950  0.00  0.00    +0.000 OA
ATOM     33  H16 UNL     1      25.862  -7.460 -32.084  0.00  0.00    +0.000 HD
ENDBRANCH  21  22
ENDBRANCH  19  21
ENDBRANCH   5  19
TORSDOF 6
