REMARK  Name = resultss/4CJN/ligands/lig_439_t0.pdb
REMARK  8 active torsions:
REMARK  status: ('A' for Active; 'I' for Inactive)
REMARK    1  A    between atoms: N3_1  and  N2_25
REMARK    2  A    between atoms: C7_2  and  C8_5
REMARK    3  A    between atoms: C18_16  and  C19_19
REMARK    4  A    between atoms: N2_25  and  C6_27
REMARK    5  A    between atoms: C6_27  and  N1_29
REMARK    6  A    between atoms: N1_29  and  C5_34
REMARK    7  A    between atoms: C2_31  and  O1_38
REMARK    8  A    between atoms: C26_36  and  O3_39
REMARK                            x       y       z     vdW  Elec       q    Type
REMARK                         _______ _______ _______ _____ _____    ______ ____
ROOT
ATOM      1  N3  UNL     1      27.885 -10.594 -39.361  0.00  0.00    +0.000 N 
ATOM      2  C7  UNL     1      27.013  -9.740 -38.605  0.00  0.00    +0.000 C 
ATOM      3  O2  UNL     1      25.996  -9.239 -39.157  0.00  0.00    +0.000 OA
ATOM      4  H8  UNL     1      28.511 -11.254 -38.847  0.00  0.00    +0.000 HD
ENDROOT
BRANCH   2   5
ATOM      5  C8  UNL     1      27.296  -9.453 -37.184  0.00  0.00    +0.000 C 
ATOM      6  C9  UNL     1      28.595  -9.620 -36.656  0.00  0.00    +0.000 C 
ATOM      7  C10 UNL     1      28.777  -9.323 -35.311  0.00  0.00    +0.000 A 
ATOM      8  C11 UNL     1      27.743  -8.893 -34.508  0.00  0.00    +0.000 A 
ATOM      9  N4  UNL     1      28.177  -8.605 -33.257  0.00  0.00    +0.000 N 
ATOM     10  C12 UNL     1      29.499  -8.879 -33.280  0.00  0.00    +0.000 A 
ATOM     11  C13 UNL     1      30.407  -8.735 -32.231  0.00  0.00    +0.000 C 
ATOM     12  C14 UNL     1      31.754  -9.060 -32.475  0.00  0.00    +0.000 C 
ATOM     13  C15 UNL     1      32.165  -9.514 -33.750  0.00  0.00    +0.000 C 
ATOM     14  C16 UNL     1      31.232  -9.647 -34.795  0.00  0.00    +0.000 C 
ATOM     15  C17 UNL     1      29.905  -9.324 -34.521  0.00  0.00    +0.000 A 
ATOM     16  C18 UNL     1      26.453  -8.751 -35.037  0.00  0.00    +0.000 C 
ATOM     17  N5  UNL     1      26.280  -9.029 -36.366  0.00  0.00    +0.000 NA
ATOM     18  H10 UNL     1      27.633  -8.220 -32.455  0.00  0.00    +0.000 HD
BRANCH  16  19
ATOM     19  C19 UNL     1      25.293  -8.323 -34.229  0.00  0.00    +0.000 C 
ATOM     20  C20 UNL     1      24.498  -9.287 -33.584  0.00  0.00    +0.000 C 
ATOM     21  C21 UNL     1      23.414  -8.893 -32.793  0.00  0.00    +0.000 C 
ATOM     22  C22 UNL     1      23.123  -7.537 -32.629  0.00  0.00    +0.000 C 
ATOM     23  C23 UNL     1      23.920  -6.570 -33.247  0.00  0.00    +0.000 C 
ATOM     24  C24 UNL     1      25.006  -6.960 -34.039  0.00  0.00    +0.000 C 
ENDBRANCH  16  19
ENDBRANCH   2   5
BRANCH   1  25
ATOM     25  N2  UNL     1      27.732 -10.771 -40.746  0.00  0.00    +0.000 N 
ATOM     26  H7  UNL     1      27.395 -11.696 -41.096  0.00  0.00    +0.000 HD
BRANCH  25  27
ATOM     27  C6  UNL     1      28.137  -9.783 -41.703  0.00  0.00    +0.000 C 
ATOM     28  S1  UNL     1      27.031  -9.249 -42.793  0.00  0.00    +0.000 S 
BRANCH  27  29
ATOM     29  N1  UNL     1      29.473  -9.242 -41.670  0.00  0.00    +0.000 N 
ATOM     30  H6  UNL     1      29.607  -8.259 -41.348  0.00  0.00    +0.000 HD
BRANCH  29  34
ATOM     31  C2  UNL     1      32.980 -11.414 -42.706  0.00  0.00    +0.000 C 
ATOM     32  C3  UNL     1      31.764 -11.681 -43.361  0.00  0.00    +0.000 C 
ATOM     33  C4  UNL     1      30.611 -10.967 -43.030  0.00  0.00    +0.000 C 
ATOM     34  C5  UNL     1      30.658  -9.959 -42.057  0.00  0.00    +0.000 C 
ATOM     35  C25 UNL     1      31.861  -9.710 -41.384  0.00  0.00    +0.000 C 
ATOM     36  C26 UNL     1      33.028 -10.427 -41.709  0.00  0.00    +0.000 C 
BRANCH  31  38
ATOM     37  C1  UNL     1      34.297 -13.030 -44.092  0.00  0.00    +0.000 C 
ATOM     38  O1  UNL     1      34.160 -12.112 -43.012  0.00  0.00    +0.000 OA
ENDBRANCH  31  38
BRANCH  36  39
ATOM     39  O3  UNL     1      34.252 -10.192 -41.062  0.00  0.00    +0.000 OA
ATOM     40  C27 UNL     1      34.380  -9.678 -39.740  0.00  0.00    +0.000 C 
ENDBRANCH  36  39
ENDBRANCH  29  34
ENDBRANCH  27  29
ENDBRANCH  25  27
ENDBRANCH   1  25
TORSDOF 8
