MODEL 1
REMARK VINA RESULT:    -5.478      0.000      0.000
REMARK INTER + INTRA:          -6.187
REMARK INTER:                  -6.119
REMARK INTRA:                  -0.069
REMARK UNBOUND:                -0.069
REMARK  Name = resultss/4CJN/ligands/lig_288_t2.pdb
REMARK  4 active torsions:
REMARK  status: ('A' for Active; 'I' for Inactive)
REMARK    1  A    between atoms: C1_1  and  O1_2
REMARK    2  A    between atoms: O1_2  and  C2_3
REMARK    3  A    between atoms: C8_10  and  O3_11
REMARK    4  A    between atoms: C10_13  and  O4_14
REMARK                            x       y       z     vdW  Elec       q    Type
REMARK                         _______ _______ _______ _____ _____    ______ ____
ROOT
ATOM      1  C2  UNL     1      28.502  -9.396 -38.713  0.00  0.00    +0.000 C 
ATOM      2  C3  UNL     1      29.123  -9.906 -37.636  0.00  0.00    +0.000 C 
ATOM      3  C4  UNL     1      28.462 -10.056 -36.290  0.00  0.00    +0.000 C 
ATOM      4  C5  UNL     1      27.102  -9.420 -36.174  0.00  0.00    +0.000 A 
ATOM      5  O2  UNL     1      26.532  -9.389 -34.977  0.00  0.00    +0.000 OA
ATOM      6  C6  UNL     1      25.327  -8.884 -34.755  0.00  0.00    +0.000 A 
ATOM      7  C7  UNL     1      24.837  -8.876 -33.446  0.00  0.00    +0.000 A 
ATOM      8  C8  UNL     1      23.583  -8.340 -33.164  0.00  0.00    +0.000 A 
ATOM      9  C9  UNL     1      22.795  -7.836 -34.200  0.00  0.00    +0.000 A 
ATOM     10  C10 UNL     1      23.242  -7.866 -35.528  0.00  0.00    +0.000 A 
ATOM     11  C11 UNL     1      24.552  -8.355 -35.819  0.00  0.00    +0.000 A 
ATOM     12  C12 UNL     1      25.156  -8.318 -37.100  0.00  0.00    +0.000 A 
ATOM     13  O5  UNL     1      24.582  -7.756 -38.069  0.00  0.00    +0.000 OA
ATOM     14  C13 UNL     1      26.438  -8.879 -37.287  0.00  0.00    +0.000 A 
ATOM     15  C14 UNL     1      27.123  -8.895 -38.602  0.00  0.00    +0.000 C 
ATOM     16  O6  UNL     1      26.541  -8.478 -39.641  0.00  0.00    +0.000 OA
ENDROOT
BRANCH   1  18
ATOM     17  C1  UNL     1      29.392 -10.421 -40.827  0.00  0.00    +0.000 C 
ATOM     18  O1  UNL     1      29.128  -9.314 -39.970  0.00  0.00    +0.000 OA
ENDBRANCH   1  18
BRANCH   8  19
ATOM     19  O3  UNL     1      23.124  -8.321 -31.849  0.00  0.00    +0.000 OA
ATOM     20  H8  UNL     1      22.560  -7.558 -31.495  0.00  0.00    +0.000 HD
ENDBRANCH   8  19
BRANCH  10  21
ATOM     21  O4  UNL     1      22.337  -7.431 -36.500  0.00  0.00    +0.000 OA
ATOM     22  H10 UNL     1      21.485  -7.912 -36.748  0.00  0.00    +0.000 HD
ENDBRANCH  10  21
TORSDOF 3
ENDMDL
MODEL 2
REMARK VINA RESULT:    -5.367      1.367      6.044
REMARK INTER + INTRA:          -6.063
REMARK INTER:                  -6.059
REMARK INTRA:                  -0.004
REMARK UNBOUND:                -0.069
REMARK  Name = resultss/4CJN/ligands/lig_288_t2.pdb
REMARK  4 active torsions:
REMARK  status: ('A' for Active; 'I' for Inactive)
REMARK    1  A    between atoms: C1_1  and  O1_2
REMARK    2  A    between atoms: O1_2  and  C2_3
REMARK    3  A    between atoms: C8_10  and  O3_11
REMARK    4  A    between atoms: C10_13  and  O4_14
REMARK                            x       y       z     vdW  Elec       q    Type
REMARK                         _______ _______ _______ _____ _____    ______ ____
ROOT
ATOM      1  C2  UNL     1      24.076  -8.267 -34.203  0.00  0.00    +0.000 C 
ATOM      2  C3  UNL     1      24.944  -9.155 -33.687  0.00  0.00    +0.000 C 
ATOM      3  C4  UNL     1      26.082  -9.755 -34.469  0.00  0.00    +0.000 C 
ATOM      4  C5  UNL     1      26.081  -9.438 -35.941  0.00  0.00    +0.000 A 
ATOM      5  O2  UNL     1      26.970 -10.053 -36.709  0.00  0.00    +0.000 OA
ATOM      6  C6  UNL     1      27.086  -9.834 -38.011  0.00  0.00    +0.000 A 
ATOM      7  C7  UNL     1      28.039 -10.563 -38.728  0.00  0.00    +0.000 A 
ATOM      8  C8  UNL     1      28.184 -10.378 -40.101  0.00  0.00    +0.000 A 
ATOM      9  C9  UNL     1      27.394  -9.434 -40.761  0.00  0.00    +0.000 A 
ATOM     10  C10 UNL     1      26.459  -8.660 -40.062  0.00  0.00    +0.000 A 
ATOM     11  C11 UNL     1      26.258  -8.887 -38.667  0.00  0.00    +0.000 A 
ATOM     12  C12 UNL     1      25.258  -8.256 -37.887  0.00  0.00    +0.000 A 
ATOM     13  O5  UNL     1      24.407  -7.495 -38.418  0.00  0.00    +0.000 OA
ATOM     14  C13 UNL     1      25.182  -8.516 -36.501  0.00  0.00    +0.000 A 
ATOM     15  C14 UNL     1      24.176  -7.876 -35.618  0.00  0.00    +0.000 C 
ATOM     16  O6  UNL     1      23.390  -6.996 -36.063  0.00  0.00    +0.000 OA
ENDROOT
BRANCH   1  18
ATOM     17  C1  UNL     1      23.136  -6.422 -32.782  0.00  0.00    +0.000 C 
ATOM     18  O1  UNL     1      23.052  -7.686 -33.434  0.00  0.00    +0.000 OA
ENDBRANCH   1  18
BRANCH   8  19
ATOM     19  O3  UNL     1      29.123 -11.131 -40.801  0.00  0.00    +0.000 OA
ATOM     20  H8  UNL     1      28.928 -12.080 -41.096  0.00  0.00    +0.000 HD
ENDBRANCH   8  19
BRANCH  10  21
ATOM     21  O4  UNL     1      25.793  -7.673 -40.796  0.00  0.00    +0.000 OA
ATOM     22  H10 UNL     1      25.812  -6.687 -40.583  0.00  0.00    +0.000 HD
ENDBRANCH  10  21
TORSDOF 3
ENDMDL
MODEL 3
REMARK VINA RESULT:    -5.272      2.266      3.886
REMARK INTER + INTRA:          -5.958
REMARK INTER:                  -5.889
REMARK INTRA:                  -0.068
REMARK UNBOUND:                -0.069
REMARK  Name = resultss/4CJN/ligands/lig_288_t2.pdb
REMARK  4 active torsions:
REMARK  status: ('A' for Active; 'I' for Inactive)
REMARK    1  A    between atoms: C1_1  and  O1_2
REMARK    2  A    between atoms: O1_2  and  C2_3
REMARK    3  A    between atoms: C8_10  and  O3_11
REMARK    4  A    between atoms: C10_13  and  O4_14
REMARK                            x       y       z     vdW  Elec       q    Type
REMARK                         _______ _______ _______ _____ _____    ______ ____
ROOT
ATOM      1  C2  UNL     1      26.244  -9.171 -41.894  0.00  0.00    +0.000 C 
ATOM      2  C3  UNL     1      27.505  -9.634 -41.953  0.00  0.00    +0.000 C 
ATOM      3  C4  UNL     1      28.289 -10.065 -40.741  0.00  0.00    +0.000 C 
ATOM      4  C5  UNL     1      27.631  -9.768 -39.418  0.00  0.00    +0.000 A 
ATOM      5  O2  UNL     1      28.332  -9.989 -38.314  0.00  0.00    +0.000 OA
ATOM      6  C6  UNL     1      27.851  -9.796 -37.094  0.00  0.00    +0.000 A 
ATOM      7  C7  UNL     1      28.689 -10.031 -36.001  0.00  0.00    +0.000 A 
ATOM      8  C8  UNL     1      28.232  -9.824 -34.702  0.00  0.00    +0.000 A 
ATOM      9  C9  UNL     1      26.916  -9.410 -34.487  0.00  0.00    +0.000 A 
ATOM     10  C10 UNL     1      26.040  -9.204 -35.561  0.00  0.00    +0.000 A 
ATOM     11  C11 UNL     1      26.518  -9.351 -36.899  0.00  0.00    +0.000 A 
ATOM     12  C12 UNL     1      25.763  -9.049 -38.058  0.00  0.00    +0.000 A 
ATOM     13  O5  UNL     1      24.616  -8.537 -37.968  0.00  0.00    +0.000 OA
ATOM     14  C13 UNL     1      26.316  -9.282 -39.336  0.00  0.00    +0.000 A 
ATOM     15  C14 UNL     1      25.577  -9.010 -40.593  0.00  0.00    +0.000 C 
ATOM     16  O6  UNL     1      24.374  -8.633 -40.569  0.00  0.00    +0.000 OA
ENDROOT
BRANCH   1  18
ATOM     17  C1  UNL     1      25.655  -7.595 -43.759  0.00  0.00    +0.000 C 
ATOM     18  O1  UNL     1      25.520  -8.823 -43.048  0.00  0.00    +0.000 OA
ENDBRANCH   1  18
BRANCH   8  19
ATOM     19  O3  UNL     1      29.092 -10.044 -33.628  0.00  0.00    +0.000 OA
ATOM     20  H8  UNL     1      28.757 -10.044 -32.672  0.00  0.00    +0.000 HD
ENDBRANCH   8  19
BRANCH  10  21
ATOM     21  O4  UNL     1      24.718  -8.889 -35.234  0.00  0.00    +0.000 OA
ATOM     22  H10 UNL     1      24.112  -8.304 -35.791  0.00  0.00    +0.000 HD
ENDBRANCH  10  21
TORSDOF 3
ENDMDL
MODEL 4
REMARK VINA RESULT:    -5.140      1.805      3.317
REMARK INTER + INTRA:          -5.810
REMARK INTER:                  -5.742
REMARK INTRA:                  -0.068
REMARK UNBOUND:                -0.069
REMARK  Name = resultss/4CJN/ligands/lig_288_t2.pdb
REMARK  4 active torsions:
REMARK  status: ('A' for Active; 'I' for Inactive)
REMARK    1  A    between atoms: C1_1  and  O1_2
REMARK    2  A    between atoms: O1_2  and  C2_3
REMARK    3  A    between atoms: C8_10  and  O3_11
REMARK    4  A    between atoms: C10_13  and  O4_14
REMARK                            x       y       z     vdW  Elec       q    Type
REMARK                         _______ _______ _______ _____ _____    ______ ____
ROOT
ATOM      1  C2  UNL     1      26.543  -9.214 -41.036  0.00  0.00    +0.000 C 
ATOM      2  C3  UNL     1      25.429  -8.463 -41.086  0.00  0.00    +0.000 C 
ATOM      3  C4  UNL     1      24.740  -7.916 -39.864  0.00  0.00    +0.000 C 
ATOM      4  C5  UNL     1      25.277  -8.421 -38.550  0.00  0.00    +0.000 A 
ATOM      5  O2  UNL     1      24.621  -8.092 -37.446  0.00  0.00    +0.000 OA
ATOM      6  C6  UNL     1      25.013  -8.451 -36.231  0.00  0.00    +0.000 A 
ATOM      7  C7  UNL     1      24.227  -8.074 -35.138  0.00  0.00    +0.000 A 
ATOM      8  C8  UNL     1      24.591  -8.444 -33.845  0.00  0.00    +0.000 A 
ATOM      9  C9  UNL     1      25.766  -9.168 -33.635  0.00  0.00    +0.000 A 
ATOM     10  C10 UNL     1      26.595  -9.526 -34.707  0.00  0.00    +0.000 A 
ATOM     11  C11 UNL     1      26.198  -9.207 -36.041  0.00  0.00    +0.000 A 
ATOM     12  C12 UNL     1      26.889  -9.625 -37.205  0.00  0.00    +0.000 A 
ATOM     13  O5  UNL     1      27.879 -10.399 -37.127  0.00  0.00    +0.000 OA
ATOM     14  C13 UNL     1      26.437  -9.208 -38.476  0.00  0.00    +0.000 A 
ATOM     15  C14 UNL     1      27.122  -9.589 -39.736  0.00  0.00    +0.000 C 
ATOM     16  O6  UNL     1      28.201 -10.241 -39.716  0.00  0.00    +0.000 OA
ENDROOT
BRANCH   1  18
ATOM     17  C1  UNL     1      28.044  -8.880 -43.022  0.00  0.00    +0.000 C 
ATOM     18  O1  UNL     1      27.193  -9.670 -42.197  0.00  0.00    +0.000 OA
ENDBRANCH   1  18
BRANCH   8  19
ATOM     19  O3  UNL     1      23.781  -8.078 -32.772  0.00  0.00    +0.000 OA
ATOM     20  H8  UNL     1      23.592  -8.716 -32.009  0.00  0.00    +0.000 HD
ENDBRANCH   8  19
BRANCH  10  21
ATOM     21  O4  UNL     1      27.797 -10.160 -34.380  0.00  0.00    +0.000 OA
ATOM     22  H10 UNL     1      28.172 -10.964 -34.862  0.00  0.00    +0.000 HD
ENDBRANCH  10  21
TORSDOF 3
ENDMDL
MODEL 5
REMARK VINA RESULT:    -5.076      1.698      6.578
REMARK INTER + INTRA:          -5.739
REMARK INTER:                  -5.687
REMARK INTRA:                  -0.051
REMARK UNBOUND:                -0.069
REMARK  Name = resultss/4CJN/ligands/lig_288_t2.pdb
REMARK  4 active torsions:
REMARK  status: ('A' for Active; 'I' for Inactive)
REMARK    1  A    between atoms: C1_1  and  O1_2
REMARK    2  A    between atoms: O1_2  and  C2_3
REMARK    3  A    between atoms: C8_10  and  O3_11
REMARK    4  A    between atoms: C10_13  and  O4_14
REMARK                            x       y       z     vdW  Elec       q    Type
REMARK                         _______ _______ _______ _____ _____    ______ ____
ROOT
ATOM      1  C2  UNL     1      26.058  -9.220 -35.625  0.00  0.00    +0.000 C 
ATOM      2  C3  UNL     1      27.273  -9.697 -35.300  0.00  0.00    +0.000 C 
ATOM      3  C4  UNL     1      28.369  -9.932 -36.305  0.00  0.00    +0.000 C 
ATOM      4  C5  UNL     1      27.958  -9.774 -37.745  0.00  0.00    +0.000 A 
ATOM      5  O2  UNL     1      28.836 -10.109 -38.681  0.00  0.00    +0.000 OA
ATOM      6  C6  UNL     1      28.601  -9.985 -39.980  0.00  0.00    +0.000 A 
ATOM      7  C7  UNL     1      29.588 -10.399 -40.878  0.00  0.00    +0.000 A 
ATOM      8  C8  UNL     1      29.377 -10.304 -42.252  0.00  0.00    +0.000 A 
ATOM      9  C9  UNL     1      28.185  -9.761 -42.735  0.00  0.00    +0.000 A 
ATOM     10  C10 UNL     1      27.194  -9.301 -41.859  0.00  0.00    +0.000 A 
ATOM     11  C11 UNL     1      27.373  -9.453 -40.450  0.00  0.00    +0.000 A 
ATOM     12  C12 UNL     1      26.391  -9.141 -39.478  0.00  0.00    +0.000 A 
ATOM     13  O5  UNL     1      25.235  -8.778 -39.820  0.00  0.00    +0.000 OA
ATOM     14  C13 UNL     1      26.694  -9.280 -38.106  0.00  0.00    +0.000 A 
ATOM     15  C14 UNL     1      25.724  -8.953 -37.033  0.00  0.00    +0.000 C 
ATOM     16  O6  UNL     1      24.601  -8.448 -37.306  0.00  0.00    +0.000 OA
ENDROOT
BRANCH   1  18
ATOM     17  C1  UNL     1      25.323  -8.686 -33.283  0.00  0.00    +0.000 C 
ATOM     18  O1  UNL     1      25.070  -8.964 -34.658  0.00  0.00    +0.000 OA
ENDBRANCH   1  18
BRANCH   8  19
ATOM     19  O3  UNL     1      30.365 -10.744 -43.131  0.00  0.00    +0.000 OA
ATOM     20  H8  UNL     1      30.154 -11.381 -43.889  0.00  0.00    +0.000 HD
ENDBRANCH   8  19
BRANCH  10  21
ATOM     21  O4  UNL     1      26.084  -8.682 -42.442  0.00  0.00    +0.000 OA
ATOM     22  H10 UNL     1      25.127  -8.837 -42.162  0.00  0.00    +0.000 HD
ENDBRANCH  10  21
TORSDOF 3
ENDMDL
MODEL 6
REMARK VINA RESULT:    -5.050      5.573      7.146
REMARK INTER + INTRA:          -5.709
REMARK INTER:                  -5.643
REMARK INTRA:                  -0.066
REMARK UNBOUND:                -0.069
REMARK  Name = resultss/4CJN/ligands/lig_288_t2.pdb
REMARK  4 active torsions:
REMARK  status: ('A' for Active; 'I' for Inactive)
REMARK    1  A    between atoms: C1_1  and  O1_2
REMARK    2  A    between atoms: O1_2  and  C2_3
REMARK    3  A    between atoms: C8_10  and  O3_11
REMARK    4  A    between atoms: C10_13  and  O4_14
REMARK                            x       y       z     vdW  Elec       q    Type
REMARK                         _______ _______ _______ _____ _____    ______ ____
ROOT
ATOM      1  C2  UNL     1      29.218 -10.235 -41.393  0.00  0.00    +0.000 C 
ATOM      2  C3  UNL     1      28.398 -10.766 -40.469  0.00  0.00    +0.000 C 
ATOM      3  C4  UNL     1      26.896 -10.670 -40.537  0.00  0.00    +0.000 C 
ATOM      4  C5  UNL     1      26.364  -9.770 -41.622  0.00  0.00    +0.000 A 
ATOM      5  O2  UNL     1      25.060  -9.528 -41.642  0.00  0.00    +0.000 OA
ATOM      6  C6  UNL     1      24.472  -8.778 -42.563  0.00  0.00    +0.000 A 
ATOM      7  C7  UNL     1      23.094  -8.564 -42.469  0.00  0.00    +0.000 A 
ATOM      8  C8  UNL     1      22.436  -7.768 -43.404  0.00  0.00    +0.000 A 
ATOM      9  C9  UNL     1      23.153  -7.206 -44.463  0.00  0.00    +0.000 A 
ATOM     10  C10 UNL     1      24.528  -7.435 -44.606  0.00  0.00    +0.000 A 
ATOM     11  C11 UNL     1      25.222  -8.196 -43.617  0.00  0.00    +0.000 A 
ATOM     12  C12 UNL     1      26.626  -8.386 -43.590  0.00  0.00    +0.000 A 
ATOM     13  O5  UNL     1      27.373  -7.805 -44.420  0.00  0.00    +0.000 OA
ATOM     14  C13 UNL     1      27.203  -9.203 -42.594  0.00  0.00    +0.000 A 
ATOM     15  C14 UNL     1      28.662  -9.464 -42.516  0.00  0.00    +0.000 C 
ATOM     16  O6  UNL     1      29.446  -9.028 -43.402  0.00  0.00    +0.000 OA
ENDROOT
BRANCH   1  18
ATOM     17  C1  UNL     1      31.489  -9.571 -40.551  0.00  0.00    +0.000 C 
ATOM     18  O1  UNL     1      30.614 -10.383 -41.329  0.00  0.00    +0.000 OA
ENDBRANCH   1  18
BRANCH   8  19
ATOM     19  O3  UNL     1      21.066  -7.550 -43.279  0.00  0.00    +0.000 OA
ATOM     20  H8  UNL     1      20.622  -7.482 -42.371  0.00  0.00    +0.000 HD
ENDBRANCH   8  19
BRANCH  10  21
ATOM     21  O4  UNL     1      25.130  -6.912 -45.754  0.00  0.00    +0.000 OA
ATOM     22  H10 UNL     1      25.086  -7.336 -46.669  0.00  0.00    +0.000 HD
ENDBRANCH  10  21
TORSDOF 3
ENDMDL
MODEL 7
REMARK VINA RESULT:    -4.934      5.860      8.414
REMARK INTER + INTRA:          -5.580
REMARK INTER:                  -5.529
REMARK INTRA:                  -0.051
REMARK UNBOUND:                -0.069
REMARK  Name = resultss/4CJN/ligands/lig_288_t2.pdb
REMARK  4 active torsions:
REMARK  status: ('A' for Active; 'I' for Inactive)
REMARK    1  A    between atoms: C1_1  and  O1_2
REMARK    2  A    between atoms: O1_2  and  C2_3
REMARK    3  A    between atoms: C8_10  and  O3_11
REMARK    4  A    between atoms: C10_13  and  O4_14
REMARK                            x       y       z     vdW  Elec       q    Type
REMARK                         _______ _______ _______ _____ _____    ______ ____
ROOT
ATOM      1  C2  UNL     1      23.503  -7.383 -44.047  0.00  0.00    +0.000 C 
ATOM      2  C3  UNL     1      24.354  -6.800 -44.909  0.00  0.00    +0.000 C 
ATOM      3  C4  UNL     1      25.822  -7.131 -44.977  0.00  0.00    +0.000 C 
ATOM      4  C5  UNL     1      26.324  -8.034 -43.881  0.00  0.00    +0.000 A 
ATOM      5  O2  UNL     1      27.630  -8.245 -43.801  0.00  0.00    +0.000 OA
ATOM      6  C6  UNL     1      28.187  -9.042 -42.900  0.00  0.00    +0.000 A 
ATOM      7  C7  UNL     1      29.579  -9.166 -42.887  0.00  0.00    +0.000 A 
ATOM      8  C8  UNL     1      30.208  -9.979 -41.947  0.00  0.00    +0.000 A 
ATOM      9  C9  UNL     1      29.441 -10.701 -41.031  0.00  0.00    +0.000 A 
ATOM     10  C10 UNL     1      28.042 -10.629 -41.044  0.00  0.00    +0.000 A 
ATOM     11  C11 UNL     1      27.391  -9.749 -41.962  0.00  0.00    +0.000 A 
ATOM     12  C12 UNL     1      25.997  -9.500 -41.983  0.00  0.00    +0.000 A 
ATOM     13  O5  UNL     1      25.238  -9.995 -41.108  0.00  0.00    +0.000 OA
ATOM     14  C13 UNL     1      25.451  -8.650 -42.969  0.00  0.00    +0.000 A 
ATOM     15  C14 UNL     1      23.999  -8.360 -43.066  0.00  0.00    +0.000 C 
ATOM     16  O6  UNL     1      23.172  -8.938 -42.310  0.00  0.00    +0.000 OA
ENDROOT
BRANCH   1  18
ATOM     17  C1  UNL     1      21.400  -6.547 -45.138  0.00  0.00    +0.000 C 
ATOM     18  O1  UNL     1      22.127  -7.089 -44.039  0.00  0.00    +0.000 OA
ENDBRANCH   1  18
BRANCH   8  19
ATOM     19  O3  UNL     1      31.598 -10.070 -41.937  0.00  0.00    +0.000 OA
ATOM     20  H8  UNL     1      32.166  -9.452 -41.370  0.00  0.00    +0.000 HD
ENDBRANCH   8  19
BRANCH  10  21
ATOM     21  O4  UNL     1      27.365 -11.468 -40.154  0.00  0.00    +0.000 OA
ATOM     22  H10 UNL     1      27.138 -11.230 -39.200  0.00  0.00    +0.000 HD
ENDBRANCH  10  21
TORSDOF 3
ENDMDL
MODEL 8
REMARK VINA RESULT:    -4.867      5.300      8.147
REMARK INTER + INTRA:          -5.505
REMARK INTER:                  -5.439
REMARK INTRA:                  -0.066
REMARK UNBOUND:                -0.069
REMARK  Name = resultss/4CJN/ligands/lig_288_t2.pdb
REMARK  4 active torsions:
REMARK  status: ('A' for Active; 'I' for Inactive)
REMARK    1  A    between atoms: C1_1  and  O1_2
REMARK    2  A    between atoms: O1_2  and  C2_3
REMARK    3  A    between atoms: C8_10  and  O3_11
REMARK    4  A    between atoms: C10_13  and  O4_14
REMARK                            x       y       z     vdW  Elec       q    Type
REMARK                         _______ _______ _______ _____ _____    ______ ____
ROOT
ATOM      1  C2  UNL     1      23.160  -6.985 -44.900  0.00  0.00    +0.000 C 
ATOM      2  C3  UNL     1      22.314  -7.424 -43.951  0.00  0.00    +0.000 C 
ATOM      3  C4  UNL     1      22.762  -8.152 -42.711  0.00  0.00    +0.000 C 
ATOM      4  C5  UNL     1      24.220  -8.530 -42.686  0.00  0.00    +0.000 A 
ATOM      5  O2  UNL     1      24.643  -9.298 -41.692  0.00  0.00    +0.000 OA
ATOM      6  C6  UNL     1      25.907  -9.671 -41.545  0.00  0.00    +0.000 A 
ATOM      7  C7  UNL     1      26.236 -10.509 -40.477  0.00  0.00    +0.000 A 
ATOM      8  C8  UNL     1      27.549 -10.940 -40.294  0.00  0.00    +0.000 A 
ATOM      9  C9  UNL     1      28.549 -10.505 -41.166  0.00  0.00    +0.000 A 
ATOM     10  C10 UNL     1      28.257  -9.632 -42.222  0.00  0.00    +0.000 A 
ATOM     11  C11 UNL     1      26.905  -9.237 -42.456  0.00  0.00    +0.000 A 
ATOM     12  C12 UNL     1      26.475  -8.464 -43.562  0.00  0.00    +0.000 A 
ATOM     13  O5  UNL     1      27.277  -8.142 -44.478  0.00  0.00    +0.000 OA
ATOM     14  C13 UNL     1      25.119  -8.084 -43.668  0.00  0.00    +0.000 A 
ATOM     15  C14 UNL     1      24.601  -7.258 -44.786  0.00  0.00    +0.000 C 
ATOM     16  O6  UNL     1      25.381  -6.784 -45.656  0.00  0.00    +0.000 OA
ENDROOT
BRANCH   1  18
ATOM     17  C1  UNL     1      22.181  -6.844 -47.209  0.00  0.00    +0.000 C 
ATOM     18  O1  UNL     1      22.717  -6.264 -46.023  0.00  0.00    +0.000 OA
ENDBRANCH   1  18
BRANCH   8  19
ATOM     19  O3  UNL     1      27.851 -11.793 -39.235  0.00  0.00    +0.000 OA
ATOM     20  H8  UNL     1      28.217 -11.442 -38.359  0.00  0.00    +0.000 HD
ENDBRANCH   8  19
BRANCH  10  21
ATOM     21  O4  UNL     1      29.345  -9.177 -42.973  0.00  0.00    +0.000 OA
ATOM     22  H10 UNL     1      30.075  -8.576 -42.620  0.00  0.00    +0.000 HD
ENDBRANCH  10  21
TORSDOF 3
ENDMDL
MODEL 9
REMARK VINA RESULT:    -4.807      1.711      2.225
REMARK INTER + INTRA:          -5.438
REMARK INTER:                  -5.389
REMARK INTRA:                  -0.049
REMARK UNBOUND:                -0.069
REMARK  Name = resultss/4CJN/ligands/lig_288_t2.pdb
REMARK  4 active torsions:
REMARK  status: ('A' for Active; 'I' for Inactive)
REMARK    1  A    between atoms: C1_1  and  O1_2
REMARK    2  A    between atoms: O1_2  and  C2_3
REMARK    3  A    between atoms: C8_10  and  O3_11
REMARK    4  A    between atoms: C10_13  and  O4_14
REMARK                            x       y       z     vdW  Elec       q    Type
REMARK                         _______ _______ _______ _____ _____    ______ ____
ROOT
ATOM      1  C2  UNL     1      28.456  -9.872 -40.096  0.00  0.00    +0.000 C 
ATOM      2  C3  UNL     1      29.655  -9.894 -39.489  0.00  0.00    +0.000 C 
ATOM      3  C4  UNL     1      29.836  -9.757 -38.000  0.00  0.00    +0.000 C 
ATOM      4  C5  UNL     1      28.586  -9.404 -37.237  0.00  0.00    +0.000 A 
ATOM      5  O2  UNL     1      28.706  -9.126 -35.946  0.00  0.00    +0.000 OA
ATOM      6  C6  UNL     1      27.677  -8.832 -35.164  0.00  0.00    +0.000 A 
ATOM      7  C7  UNL     1      27.923  -8.525 -33.823  0.00  0.00    +0.000 A 
ATOM      8  C8  UNL     1      26.874  -8.192 -32.969  0.00  0.00    +0.000 A 
ATOM      9  C9  UNL     1      25.562  -8.197 -33.448  0.00  0.00    +0.000 A 
ATOM     10  C10 UNL     1      25.280  -8.539 -34.777  0.00  0.00    +0.000 A 
ATOM     11  C11 UNL     1      26.353  -8.819 -35.676  0.00  0.00    +0.000 A 
ATOM     12  C12 UNL     1      26.197  -9.053 -37.064  0.00  0.00    +0.000 A 
ATOM     13  O5  UNL     1      25.072  -8.940 -37.617  0.00  0.00    +0.000 OA
ATOM     14  C13 UNL     1      27.324  -9.373 -37.852  0.00  0.00    +0.000 A 
ATOM     15  C14 UNL     1      27.234  -9.651 -39.307  0.00  0.00    +0.000 C 
ATOM     16  O6  UNL     1      26.117  -9.696 -39.889  0.00  0.00    +0.000 OA
ENDROOT
BRANCH   1  18
ATOM     17  C1  UNL     1      29.378 -10.360 -42.381  0.00  0.00    +0.000 C 
ATOM     18  O1  UNL     1      28.315 -10.052 -41.483  0.00  0.00    +0.000 OA
ENDBRANCH   1  18
BRANCH   8  19
ATOM     19  O3  UNL     1      27.145  -7.867 -31.642  0.00  0.00    +0.000 OA
ATOM     20  H8  UNL     1      27.993  -7.382 -31.378  0.00  0.00    +0.000 HD
ENDBRANCH   8  19
BRANCH  10  21
ATOM     21  O4  UNL     1      23.929  -8.613 -35.128  0.00  0.00    +0.000 OA
ATOM     22  H10 UNL     1      23.354  -9.437 -35.028  0.00  0.00    +0.000 HD
ENDBRANCH  10  21
TORSDOF 3
ENDMDL
