MODEL 1
REMARK VINA RESULT:    -5.750      0.000      0.000
REMARK INTER + INTRA:         -14.160
REMARK INTER:                 -10.961
REMARK INTRA:                  -3.199
REMARK UNBOUND:                -3.199
REMARK  Name = resultss/4CJN/ligands/lig_391_t0.pdb
REMARK  23 active torsions:
REMARK  status: ('A' for Active; 'I' for Inactive)
REMARK    1  A    between atoms: C1_1  and  C2_2
REMARK    2  A    between atoms: C3_4  and  O2_5
REMARK    3  A    between atoms: O2_5  and  C4_6
REMARK    4  A    between atoms: C5_7  and  O3_8
REMARK    5  A    between atoms: C6_9  and  O4_10
REMARK    6  A    between atoms: C7_11  and  O5_12
REMARK    7  A    between atoms: O5_12  and  C8_13
REMARK    8  A    between atoms: C9_14  and  O6_15
REMARK    9  A    between atoms: C10_16  and  O7_17
REMARK   10  A    between atoms: C11_18  and  O8_19
REMARK   11  A    between atoms: C12_21  and  C13_22
REMARK   12  A    between atoms: C13_22  and  O10_23
REMARK   13  A    between atoms: C14_25  and  C15_26
REMARK   14  A    between atoms: C15_26  and  O12_27
REMARK   15  A    between atoms: C16_28  and  O13_29
REMARK   16  A    between atoms: C17_30  and  O14_31
REMARK   17  A    between atoms: C18_32  and  N1_33
REMARK   18  A    between atoms: N1_33  and  C19_34
REMARK   19  A    between atoms: C21_36  and  C22_37
REMARK   20  A    between atoms: C22_37  and  O15_38
REMARK   21  A    between atoms: C23_39  and  O16_40
REMARK   22  A    between atoms: C24_41  and  O17_42
REMARK   23  A    between atoms: C25_43  and  O18_44
REMARK                            x       y       z     vdW  Elec       q    Type
REMARK                         _______ _______ _______ _____ _____    ______ ____
ROOT
ATOM      1  O2  UNL     1      29.498  -7.855 -39.450  0.00  0.00    +0.000 OA
ENDROOT
BRANCH   1   5
ATOM      2  C1  UNL     1      30.286 -10.119 -43.051  0.00  0.00    +0.000 C 
ATOM      3  C2  UNL     1      28.940  -9.816 -42.371  0.00  0.00    +0.000 C 
ATOM      4  O1  UNL     1      29.076  -9.482 -40.998  0.00  0.00    +0.000 OA
ATOM      5  C3  UNL     1      29.815  -8.290 -40.764  0.00  0.00    +0.000 C 
ATOM      6  C16 UNL     1      29.473  -7.152 -41.769  0.00  0.00    +0.000 C 
ATOM      7  C17 UNL     1      28.106  -7.383 -42.437  0.00  0.00    +0.000 C 
ATOM      8  C18 UNL     1      28.065  -8.772 -43.134  0.00  0.00    +0.000 C 
BRANCH   8   9
ATOM      9  N1  UNL     1      26.686  -9.306 -43.240  0.00  0.00    +0.000 NA
ATOM     10  H32 UNL     1      26.550 -10.005 -42.471  0.00  0.00    +0.000 HD
BRANCH   9  11
ATOM     11  C19 UNL     1      25.599  -8.307 -43.152  0.00  0.00    +0.000 C 
ATOM     12  C20 UNL     1      24.959  -8.034 -44.497  0.00  0.00    +0.000 C 
ATOM     13  C21 UNL     1      23.842  -7.284 -44.556  0.00  0.00    +0.000 C 
ATOM     14  C23 UNL     1      23.248  -6.786 -43.244  0.00  0.00    +0.000 C 
ATOM     15  C24 UNL     1      23.174  -7.957 -42.233  0.00  0.00    +0.000 C 
ATOM     16  C25 UNL     1      24.507  -8.781 -42.149  0.00  0.00    +0.000 C 
BRANCH  16  17
ATOM     17  O18 UNL     1      24.238 -10.155 -42.306  0.00  0.00    +0.000 OA
ATOM     18  H43 UNL     1      23.916 -10.291 -43.234  0.00  0.00    +0.000 HD
ENDBRANCH  16  17
BRANCH  15  19
ATOM     19  O17 UNL     1      22.846  -7.449 -40.964  0.00  0.00    +0.000 OA
ATOM     20  H41 UNL     1      22.103  -8.007 -40.617  0.00  0.00    +0.000 HD
ENDBRANCH  15  19
BRANCH  14  21
ATOM     21  O16 UNL     1      21.973  -6.235 -43.446  0.00  0.00    +0.000 OA
ATOM     22  H39 UNL     1      21.602  -6.652 -44.267  0.00  0.00    +0.000 HD
ENDBRANCH  14  21
BRANCH  13  23
ATOM     23  C22 UNL     1      23.197  -7.015 -45.901  0.00  0.00    +0.000 C 
BRANCH  23  24
ATOM     24  O15 UNL     1      23.479  -8.060 -46.791  0.00  0.00    +0.000 OA
ATOM     25  H37 UNL     1      23.335  -8.903 -46.285  0.00  0.00    +0.000 HD
ENDBRANCH  23  24
ENDBRANCH  13  23
ENDBRANCH   9  11
ENDBRANCH   8   9
BRANCH   7  26
ATOM     26  O14 UNL     1      27.889  -6.374 -43.389  0.00  0.00    +0.000 OA
ATOM     27  H30 UNL     1      27.076  -6.623 -43.902  0.00  0.00    +0.000 HD
ENDBRANCH   7  26
BRANCH   6  28
ATOM     28  O13 UNL     1      29.547  -5.883 -41.163  0.00  0.00    +0.000 OA
ATOM     29  H28 UNL     1      28.707  -5.397 -41.368  0.00  0.00    +0.000 HD
ENDBRANCH   6  28
ENDBRANCH   1   5
BRANCH   1  30
ATOM     30  C4  UNL     1      28.395  -8.539 -38.875  0.00  0.00    +0.000 C 
ATOM     31  C5  UNL     1      28.918  -9.404 -37.715  0.00  0.00    +0.000 C 
ATOM     32  C6  UNL     1      27.758 -10.145 -37.016  0.00  0.00    +0.000 C 
ATOM     33  C7  UNL     1      26.469  -9.288 -37.038  0.00  0.00    +0.000 C 
ATOM     34  O11 UNL     1      26.788  -7.906 -37.068  0.00  0.00    +0.000 OA
ATOM     35  C14 UNL     1      27.361  -7.514 -38.314  0.00  0.00    +0.000 C 
BRANCH  32  36
ATOM     36  O4  UNL     1      28.125 -10.452 -35.693  0.00  0.00    +0.000 OA
ATOM     37  H10 UNL     1      28.084 -11.441 -35.608  0.00  0.00    +0.000 HD
ENDBRANCH  32  36
BRANCH  31  38
ATOM     38  O3  UNL     1      29.896 -10.312 -38.157  0.00  0.00    +0.000 OA
ATOM     39  H8  UNL     1      29.427 -11.114 -38.502  0.00  0.00    +0.000 HD
ENDBRANCH  31  38
BRANCH  35  40
ATOM     40  C15 UNL     1      26.264  -7.166 -39.341  0.00  0.00    +0.000 C 
BRANCH  40  41
ATOM     41  O12 UNL     1      26.541  -5.937 -39.957  0.00  0.00    +0.000 OA
ATOM     42  H26 UNL     1      26.367  -5.233 -39.277  0.00  0.00    +0.000 HD
ENDBRANCH  40  41
ENDBRANCH  35  40
BRANCH  33  43
ATOM     43  O5  UNL     1      25.700  -9.570 -35.884  0.00  0.00    +0.000 OA
BRANCH  43  44
ATOM     44  C8  UNL     1      25.296  -8.383 -35.216  0.00  0.00    +0.000 C 
ATOM     45  C9  UNL     1      23.827  -8.073 -35.557  0.00  0.00    +0.000 C 
ATOM     46  C10 UNL     1      23.370  -6.808 -34.809  0.00  0.00    +0.000 C 
ATOM     47  C11 UNL     1      24.032  -6.713 -33.408  0.00  0.00    +0.000 C 
ATOM     48  O9  UNL     1      24.384  -7.994 -32.913  0.00  0.00    +0.000 OA
ATOM     49  C12 UNL     1      25.422  -8.607 -33.680  0.00  0.00    +0.000 C 
BRANCH  47  50
ATOM     50  O8  UNL     1      23.196  -6.065 -32.483  0.00  0.00    +0.000 OA
ATOM     51  H18 UNL     1      22.967  -5.175 -32.866  0.00  0.00    +0.000 HD
ENDBRANCH  47  50
BRANCH  46  52
ATOM     52  O7  UNL     1      21.965  -6.816 -34.716  0.00  0.00    +0.000 OA
ATOM     53  H16 UNL     1      21.676  -7.765 -34.703  0.00  0.00    +0.000 HD
ENDBRANCH  46  52
BRANCH  45  54
ATOM     54  O6  UNL     1      23.674  -7.866 -36.939  0.00  0.00    +0.000 OA
ATOM     55  H14 UNL     1      24.191  -8.581 -37.394  0.00  0.00    +0.000 HD
ENDBRANCH  45  54
BRANCH  49  56
ATOM     56  C13 UNL     1      26.807  -8.194 -33.160  0.00  0.00    +0.000 C 
BRANCH  56  57
ATOM     57  O10 UNL     1      27.692  -8.022 -34.238  0.00  0.00    +0.000 OA
ATOM     58  H22 UNL     1      28.615  -8.080 -33.876  0.00  0.00    +0.000 HD
ENDBRANCH  56  57
ENDBRANCH  49  56
ENDBRANCH  43  44
ENDBRANCH  33  43
ENDBRANCH   1  30
TORSDOF 22
ENDMDL
MODEL 2
REMARK VINA RESULT:    -5.618      2.342      9.373
REMARK INTER + INTRA:         -13.908
REMARK INTER:                 -11.516
REMARK INTRA:                  -2.392
REMARK UNBOUND:                -3.199
REMARK  Name = resultss/4CJN/ligands/lig_391_t0.pdb
REMARK  23 active torsions:
REMARK  status: ('A' for Active; 'I' for Inactive)
REMARK    1  A    between atoms: C1_1  and  C2_2
REMARK    2  A    between atoms: C3_4  and  O2_5
REMARK    3  A    between atoms: O2_5  and  C4_6
REMARK    4  A    between atoms: C5_7  and  O3_8
REMARK    5  A    between atoms: C6_9  and  O4_10
REMARK    6  A    between atoms: C7_11  and  O5_12
REMARK    7  A    between atoms: O5_12  and  C8_13
REMARK    8  A    between atoms: C9_14  and  O6_15
REMARK    9  A    between atoms: C10_16  and  O7_17
REMARK   10  A    between atoms: C11_18  and  O8_19
REMARK   11  A    between atoms: C12_21  and  C13_22
REMARK   12  A    between atoms: C13_22  and  O10_23
REMARK   13  A    between atoms: C14_25  and  C15_26
REMARK   14  A    between atoms: C15_26  and  O12_27
REMARK   15  A    between atoms: C16_28  and  O13_29
REMARK   16  A    between atoms: C17_30  and  O14_31
REMARK   17  A    between atoms: C18_32  and  N1_33
REMARK   18  A    between atoms: N1_33  and  C19_34
REMARK   19  A    between atoms: C21_36  and  C22_37
REMARK   20  A    between atoms: C22_37  and  O15_38
REMARK   21  A    between atoms: C23_39  and  O16_40
REMARK   22  A    between atoms: C24_41  and  O17_42
REMARK   23  A    between atoms: C25_43  and  O18_44
REMARK                            x       y       z     vdW  Elec       q    Type
REMARK                         _______ _______ _______ _____ _____    ______ ____
ROOT
ATOM      1  O2  UNL     1      27.732 -10.039 -41.077  0.00  0.00    +0.000 OA
ENDROOT
BRANCH   1   5
ATOM      2  C1  UNL     1      28.703  -6.720 -38.479  0.00  0.00    +0.000 C 
ATOM      3  C2  UNL     1      28.219  -8.133 -38.109  0.00  0.00    +0.000 C 
ATOM      4  O1  UNL     1      27.548  -8.785 -39.176  0.00  0.00    +0.000 OA
ATOM      5  C3  UNL     1      28.370  -9.029 -40.310  0.00  0.00    +0.000 C 
ATOM      6  C16 UNL     1      29.803  -9.509 -39.937  0.00  0.00    +0.000 C 
ATOM      7  C17 UNL     1      29.850 -10.082 -38.509  0.00  0.00    +0.000 C 
ATOM      8  C18 UNL     1      29.327  -9.039 -37.483  0.00  0.00    +0.000 C 
BRANCH   8   9
ATOM      9  N1  UNL     1      28.773  -9.679 -36.265  0.00  0.00    +0.000 NA
ATOM     10  H32 UNL     1      29.497 -10.333 -35.886  0.00  0.00    +0.000 HD
BRANCH   9  11
ATOM     11  C19 UNL     1      28.370  -8.758 -35.180  0.00  0.00    +0.000 C 
ATOM     12  C20 UNL     1      26.927  -8.955 -34.765  0.00  0.00    +0.000 C 
ATOM     13  C21 UNL     1      26.461  -8.319 -33.674  0.00  0.00    +0.000 C 
ATOM     14  C23 UNL     1      27.439  -7.462 -32.877  0.00  0.00    +0.000 C 
ATOM     15  C24 UNL     1      28.747  -8.258 -32.639  0.00  0.00    +0.000 C 
ATOM     16  C25 UNL     1      29.292  -8.945 -33.940  0.00  0.00    +0.000 C 
BRANCH  16  17
ATOM     17  O18 UNL     1      29.543 -10.310 -33.698  0.00  0.00    +0.000 OA
ATOM     18  H43 UNL     1      29.338 -10.804 -34.534  0.00  0.00    +0.000 HD
ENDBRANCH  16  17
BRANCH  15  19
ATOM     19  O17 UNL     1      29.722  -7.393 -32.112  0.00  0.00    +0.000 OA
ATOM     20  H41 UNL     1      29.982  -7.761 -31.229  0.00  0.00    +0.000 HD
ENDBRANCH  15  19
BRANCH  14  21
ATOM     21  O16 UNL     1      26.879  -7.068 -31.652  0.00  0.00    +0.000 OA
ATOM     22  H39 UNL     1      25.894  -7.156 -31.740  0.00  0.00    +0.000 HD
ENDBRANCH  14  21
BRANCH  13  23
ATOM     23  C22 UNL     1      25.019  -8.520 -33.254  0.00  0.00    +0.000 C 
BRANCH  23  24
ATOM     24  O15 UNL     1      24.450  -7.296 -32.874  0.00  0.00    +0.000 OA
ATOM     25  H37 UNL     1      25.078  -6.590 -33.182  0.00  0.00    +0.000 HD
ENDBRANCH  23  24
ENDBRANCH  13  23
ENDBRANCH   9  11
ENDBRANCH   8   9
BRANCH   7  26
ATOM     26  O14 UNL     1      31.176 -10.421 -38.199  0.00  0.00    +0.000 OA
ATOM     27  H30 UNL     1      31.245 -11.409 -38.238  0.00  0.00    +0.000 HD
ENDBRANCH   7  26
BRANCH   6  28
ATOM     28  O13 UNL     1      30.308 -10.423 -40.881  0.00  0.00    +0.000 OA
ATOM     29  H28 UNL     1      30.348  -9.964 -41.760  0.00  0.00    +0.000 HD
ENDBRANCH   6  28
ENDBRANCH   1   5
BRANCH   1  30
ATOM     30  C4  UNL     1      26.964  -9.533 -42.159  0.00  0.00    +0.000 C 
ATOM     31  C5  UNL     1      25.500  -9.422 -41.698  0.00  0.00    +0.000 C 
ATOM     32  C6  UNL     1      24.615  -8.834 -42.819  0.00  0.00    +0.000 C 
ATOM     33  C7  UNL     1      25.411  -7.812 -43.666  0.00  0.00    +0.000 C 
ATOM     34  O11 UNL     1      26.429  -7.202 -42.888  0.00  0.00    +0.000 OA
ATOM     35  C14 UNL     1      27.476  -8.116 -42.563  0.00  0.00    +0.000 C 
BRANCH  32  36
ATOM     36  O4  UNL     1      23.479  -8.228 -42.252  0.00  0.00    +0.000 OA
ATOM     37  H10 UNL     1      23.607  -7.246 -42.339  0.00  0.00    +0.000 HD
ENDBRANCH  32  36
BRANCH  31  38
ATOM     38  O3  UNL     1      25.004 -10.665 -41.269  0.00  0.00    +0.000 OA
ATOM     39  H8  UNL     1      24.016 -10.634 -41.338  0.00  0.00    +0.000 HD
ENDBRANCH  31  38
BRANCH  35  40
ATOM     40  C15 UNL     1      28.529  -8.172 -43.689  0.00  0.00    +0.000 C 
BRANCH  40  41
ATOM     41  O12 UNL     1      29.516  -9.122 -43.391  0.00  0.00    +0.000 OA
ATOM     42  H26 UNL     1      30.041  -8.757 -42.631  0.00  0.00    +0.000 HD
ENDBRANCH  40  41
ENDBRANCH  35  40
BRANCH  33  43
ATOM     43  O5  UNL     1      24.528  -6.817 -44.150  0.00  0.00    +0.000 OA
BRANCH  43  44
ATOM     44  C8  UNL     1      23.947  -7.188 -45.392  0.00  0.00    +0.000 C 
ATOM     45  C9  UNL     1      22.428  -6.935 -45.347  0.00  0.00    +0.000 C 
ATOM     46  C10 UNL     1      21.795  -7.299 -46.701  0.00  0.00    +0.000 C 
ATOM     47  C11 UNL     1      22.752  -6.964 -47.878  0.00  0.00    +0.000 C 
ATOM     48  O9  UNL     1      23.648  -5.921 -47.536  0.00  0.00    +0.000 OA
ATOM     49  C12 UNL     1      24.571  -6.310 -46.517  0.00  0.00    +0.000 C 
BRANCH  47  50
ATOM     50  O8  UNL     1      22.041  -6.613 -49.038  0.00  0.00    +0.000 OA
ATOM     51  H18 UNL     1      22.613  -6.851 -49.817  0.00  0.00    +0.000 HD
ENDBRANCH  47  50
BRANCH  46  52
ATOM     52  O7  UNL     1      20.566  -6.623 -46.827  0.00  0.00    +0.000 OA
ATOM     53  H16 UNL     1      19.919  -7.259 -47.230  0.00  0.00    +0.000 HD
ENDBRANCH  46  52
BRANCH  45  54
ATOM     54  O6  UNL     1      21.828  -7.711 -44.340  0.00  0.00    +0.000 OA
ATOM     55  H14 UNL     1      21.938  -7.210 -43.490  0.00  0.00    +0.000 HD
ENDBRANCH  45  54
BRANCH  49  56
ATOM     56  C13 UNL     1      25.816  -6.972 -47.126  0.00  0.00    +0.000 C 
BRANCH  56  57
ATOM     57  O10 UNL     1      26.955  -6.626 -46.380  0.00  0.00    +0.000 OA
ATOM     58  H22 UNL     1      26.725  -6.732 -45.420  0.00  0.00    +0.000 HD
ENDBRANCH  56  57
ENDBRANCH  49  56
ENDBRANCH  43  44
ENDBRANCH  33  43
ENDBRANCH   1  30
TORSDOF 22
ENDMDL
MODEL 3
REMARK VINA RESULT:    -5.351      2.182      8.695
REMARK INTER + INTRA:         -13.400
REMARK INTER:                  -9.872
REMARK INTRA:                  -3.528
REMARK UNBOUND:                -3.199
REMARK  Name = resultss/4CJN/ligands/lig_391_t0.pdb
REMARK  23 active torsions:
REMARK  status: ('A' for Active; 'I' for Inactive)
REMARK    1  A    between atoms: C1_1  and  C2_2
REMARK    2  A    between atoms: C3_4  and  O2_5
REMARK    3  A    between atoms: O2_5  and  C4_6
REMARK    4  A    between atoms: C5_7  and  O3_8
REMARK    5  A    between atoms: C6_9  and  O4_10
REMARK    6  A    between atoms: C7_11  and  O5_12
REMARK    7  A    between atoms: O5_12  and  C8_13
REMARK    8  A    between atoms: C9_14  and  O6_15
REMARK    9  A    between atoms: C10_16  and  O7_17
REMARK   10  A    between atoms: C11_18  and  O8_19
REMARK   11  A    between atoms: C12_21  and  C13_22
REMARK   12  A    between atoms: C13_22  and  O10_23
REMARK   13  A    between atoms: C14_25  and  C15_26
REMARK   14  A    between atoms: C15_26  and  O12_27
REMARK   15  A    between atoms: C16_28  and  O13_29
REMARK   16  A    between atoms: C17_30  and  O14_31
REMARK   17  A    between atoms: C18_32  and  N1_33
REMARK   18  A    between atoms: N1_33  and  C19_34
REMARK   19  A    between atoms: C21_36  and  C22_37
REMARK   20  A    between atoms: C22_37  and  O15_38
REMARK   21  A    between atoms: C23_39  and  O16_40
REMARK   22  A    between atoms: C24_41  and  O17_42
REMARK   23  A    between atoms: C25_43  and  O18_44
REMARK                            x       y       z     vdW  Elec       q    Type
REMARK                         _______ _______ _______ _____ _____    ______ ____
ROOT
ATOM      1  O2  UNL     1      27.725  -9.489 -42.274  0.00  0.00    +0.000 OA
ENDROOT
BRANCH   1   5
ATOM      2  C1  UNL     1      30.615  -8.039 -39.401  0.00  0.00    +0.000 C 
ATOM      3  C2  UNL     1      29.079  -8.020 -39.325  0.00  0.00    +0.000 C 
ATOM      4  O1  UNL     1      28.461  -8.119 -40.600  0.00  0.00    +0.000 OA
ATOM      5  C3  UNL     1      28.721  -9.344 -41.272  0.00  0.00    +0.000 C 
ATOM      6  C16 UNL     1      28.672 -10.582 -40.330  0.00  0.00    +0.000 C 
ATOM      7  C17 UNL     1      27.882 -10.280 -39.044  0.00  0.00    +0.000 C 
ATOM      8  C18 UNL     1      28.481  -9.047 -38.312  0.00  0.00    +0.000 C 
BRANCH   8   9
ATOM      9  N1  UNL     1      27.474  -8.347 -37.477  0.00  0.00    +0.000 NA
ATOM     10  H32 UNL     1      26.597  -8.918 -37.482  0.00  0.00    +0.000 HD
BRANCH   9  11
ATOM     11  C19 UNL     1      27.860  -8.105 -36.071  0.00  0.00    +0.000 C 
ATOM     12  C20 UNL     1      26.886  -7.194 -35.355  0.00  0.00    +0.000 C 
ATOM     13  C21 UNL     1      26.999  -7.020 -34.025  0.00  0.00    +0.000 C 
ATOM     14  C23 UNL     1      28.086  -7.800 -33.295  0.00  0.00    +0.000 C 
ATOM     15  C24 UNL     1      28.046  -9.283 -33.741  0.00  0.00    +0.000 C 
ATOM     16  C25 UNL     1      27.965  -9.453 -35.298  0.00  0.00    +0.000 C 
BRANCH  16  17
ATOM     17  O18 UNL     1      26.903 -10.314 -35.637  0.00  0.00    +0.000 OA
ATOM     18  H43 UNL     1      27.231 -10.926 -36.346  0.00  0.00    +0.000 HD
ENDBRANCH  16  17
BRANCH  15  19
ATOM     19  O17 UNL     1      29.185  -9.943 -33.247  0.00  0.00    +0.000 OA
ATOM     20  H41 UNL     1      29.890  -9.851 -33.938  0.00  0.00    +0.000 HD
ENDBRANCH  15  19
BRANCH  14  21
ATOM     21  O16 UNL     1      27.925  -7.705 -31.903  0.00  0.00    +0.000 OA
ATOM     22  H39 UNL     1      27.208  -8.342 -31.649  0.00  0.00    +0.000 HD
ENDBRANCH  14  21
BRANCH  13  23
ATOM     23  C22 UNL     1      26.021  -6.112 -33.306  0.00  0.00    +0.000 C 
BRANCH  23  24
ATOM     24  O15 UNL     1      25.103  -6.875 -32.571  0.00  0.00    +0.000 OA
ATOM     25  H37 UNL     1      24.278  -6.926 -33.123  0.00  0.00    +0.000 HD
ENDBRANCH  23  24
ENDBRANCH  13  23
ENDBRANCH   9  11
ENDBRANCH   8   9
BRANCH   7  26
ATOM     26  O14 UNL     1      27.942 -11.401 -38.201  0.00  0.00    +0.000 OA
ATOM     27  H30 UNL     1      28.832 -11.819 -38.329  0.00  0.00    +0.000 HD
ENDBRANCH   7  26
BRANCH   6  28
ATOM     28  O13 UNL     1      28.172 -11.720 -40.992  0.00  0.00    +0.000 OA
ATOM     29  H28 UNL     1      28.705 -12.504 -40.699  0.00  0.00    +0.000 HD
ENDBRANCH   6  28
ENDBRANCH   1   5
BRANCH   1  30
ATOM     30  C4  UNL     1      26.886  -8.352 -42.409  0.00  0.00    +0.000 C 
ATOM     31  C5  UNL     1      27.222  -7.663 -43.744  0.00  0.00    +0.000 C 
ATOM     32  C6  UNL     1      26.312  -6.437 -43.974  0.00  0.00    +0.000 C 
ATOM     33  C7  UNL     1      24.906  -6.679 -43.373  0.00  0.00    +0.000 C 
ATOM     34  O11 UNL     1      24.595  -8.064 -43.369  0.00  0.00    +0.000 OA
ATOM     35  C14 UNL     1      25.389  -8.789 -42.431  0.00  0.00    +0.000 C 
BRANCH  32  36
ATOM     36  O4  UNL     1      26.221  -6.171 -45.352  0.00  0.00    +0.000 OA
ATOM     37  H10 UNL     1      27.151  -6.049 -45.681  0.00  0.00    +0.000 HD
ENDBRANCH  32  36
BRANCH  31  38
ATOM     38  O3  UNL     1      28.578  -7.296 -43.801  0.00  0.00    +0.000 OA
ATOM     39  H8  UNL     1      28.922  -7.274 -42.871  0.00  0.00    +0.000 HD
ENDBRANCH  31  38
BRANCH  35  40
ATOM     40  C15 UNL     1      24.748  -8.758 -41.027  0.00  0.00    +0.000 C 
BRANCH  40  41
ATOM     41  O12 UNL     1      25.583  -8.087 -40.122  0.00  0.00    +0.000 OA
ATOM     42  H26 UNL     1      25.769  -7.193 -40.516  0.00  0.00    +0.000 HD
ENDBRANCH  40  41
ENDBRANCH  35  40
BRANCH  33  43
ATOM     43  O5  UNL     1      23.943  -5.982 -44.141  0.00  0.00    +0.000 OA
BRANCH  43  44
ATOM     44  C8  UNL     1      22.726  -6.708 -44.246  0.00  0.00    +0.000 C 
ATOM     45  C9  UNL     1      21.755  -6.249 -43.142  0.00  0.00    +0.000 C 
ATOM     46  C10 UNL     1      20.420  -7.004 -43.269  0.00  0.00    +0.000 C 
ATOM     47  C11 UNL     1      20.066  -7.272 -44.758  0.00  0.00    +0.000 C 
ATOM     48  O9  UNL     1      20.662  -6.312 -45.613  0.00  0.00    +0.000 OA
ATOM     49  C12 UNL     1      22.087  -6.413 -45.635  0.00  0.00    +0.000 C 
BRANCH  47  50
ATOM     50  O8  UNL     1      18.676  -7.288 -44.963  0.00  0.00    +0.000 OA
ATOM     51  H18 UNL     1      18.516  -7.052 -45.917  0.00  0.00    +0.000 HD
ENDBRANCH  47  50
BRANCH  46  52
ATOM     52  O7  UNL     1      19.413  -6.262 -42.625  0.00  0.00    +0.000 OA
ATOM     53  H16 UNL     1      19.604  -5.301 -42.789  0.00  0.00    +0.000 HD
ENDBRANCH  46  52
BRANCH  45  54
ATOM     54  O6  UNL     1      22.301  -6.499 -41.870  0.00  0.00    +0.000 OA
ATOM     55  H14 UNL     1      22.213  -7.474 -41.708  0.00  0.00    +0.000 HD
ENDBRANCH  45  54
BRANCH  49  56
ATOM     56  C13 UNL     1      22.551  -7.421 -46.697  0.00  0.00    +0.000 C 
BRANCH  56  57
ATOM     57  O10 UNL     1      23.826  -7.911 -46.367  0.00  0.00    +0.000 OA
ATOM     58  H22 UNL     1      24.388  -7.131 -46.121  0.00  0.00    +0.000 HD
ENDBRANCH  56  57
ENDBRANCH  49  56
ENDBRANCH  43  44
ENDBRANCH  33  43
ENDBRANCH   1  30
TORSDOF 22
ENDMDL
MODEL 4
REMARK VINA RESULT:    -5.031      2.248      9.059
REMARK INTER + INTRA:         -12.788
REMARK INTER:                 -10.571
REMARK INTRA:                  -2.217
REMARK UNBOUND:                -3.199
REMARK  Name = resultss/4CJN/ligands/lig_391_t0.pdb
REMARK  23 active torsions:
REMARK  status: ('A' for Active; 'I' for Inactive)
REMARK    1  A    between atoms: C1_1  and  C2_2
REMARK    2  A    between atoms: C3_4  and  O2_5
REMARK    3  A    between atoms: O2_5  and  C4_6
REMARK    4  A    between atoms: C5_7  and  O3_8
REMARK    5  A    between atoms: C6_9  and  O4_10
REMARK    6  A    between atoms: C7_11  and  O5_12
REMARK    7  A    between atoms: O5_12  and  C8_13
REMARK    8  A    between atoms: C9_14  and  O6_15
REMARK    9  A    between atoms: C10_16  and  O7_17
REMARK   10  A    between atoms: C11_18  and  O8_19
REMARK   11  A    between atoms: C12_21  and  C13_22
REMARK   12  A    between atoms: C13_22  and  O10_23
REMARK   13  A    between atoms: C14_25  and  C15_26
REMARK   14  A    between atoms: C15_26  and  O12_27
REMARK   15  A    between atoms: C16_28  and  O13_29
REMARK   16  A    between atoms: C17_30  and  O14_31
REMARK   17  A    between atoms: C18_32  and  N1_33
REMARK   18  A    between atoms: N1_33  and  C19_34
REMARK   19  A    between atoms: C21_36  and  C22_37
REMARK   20  A    between atoms: C22_37  and  O15_38
REMARK   21  A    between atoms: C23_39  and  O16_40
REMARK   22  A    between atoms: C24_41  and  O17_42
REMARK   23  A    between atoms: C25_43  and  O18_44
REMARK                            x       y       z     vdW  Elec       q    Type
REMARK                         _______ _______ _______ _____ _____    ______ ____
ROOT
ATOM      1  O2  UNL     1      26.669  -9.433 -40.271  0.00  0.00    +0.000 OA
ENDROOT
BRANCH   1   5
ATOM      2  C1  UNL     1      30.141  -6.853 -40.340  0.00  0.00    +0.000 C 
ATOM      3  C2  UNL     1      29.193  -7.174 -39.171  0.00  0.00    +0.000 C 
ATOM      4  O1  UNL     1      27.925  -7.646 -39.600  0.00  0.00    +0.000 OA
ATOM      5  C3  UNL     1      27.978  -8.881 -40.302  0.00  0.00    +0.000 C 
ATOM      6  C16 UNL     1      28.970  -9.902 -39.672  0.00  0.00    +0.000 C 
ATOM      7  C17 UNL     1      29.275  -9.556 -38.204  0.00  0.00    +0.000 C 
ATOM      8  C18 UNL     1      29.819  -8.105 -38.084  0.00  0.00    +0.000 C 
BRANCH   8   9
ATOM      9  N1  UNL     1      29.550  -7.513 -36.752  0.00  0.00    +0.000 NA
ATOM     10  H32 UNL     1      29.281  -6.511 -36.891  0.00  0.00    +0.000 HD
BRANCH   9  11
ATOM     11  C19 UNL     1      28.489  -8.169 -35.958  0.00  0.00    +0.000 C 
ATOM     12  C20 UNL     1      28.618  -7.885 -34.476  0.00  0.00    +0.000 C 
ATOM     13  C21 UNL     1      27.631  -8.262 -33.642  0.00  0.00    +0.000 C 
ATOM     14  C23 UNL     1      26.398  -8.921 -34.250  0.00  0.00    +0.000 C 
ATOM     15  C24 UNL     1      25.919  -8.093 -35.469  0.00  0.00    +0.000 C 
ATOM     16  C25 UNL     1      27.084  -7.712 -36.448  0.00  0.00    +0.000 C 
BRANCH  16  17
ATOM     17  O18 UNL     1      27.065  -6.328 -36.708  0.00  0.00    +0.000 OA
ATOM     18  H43 UNL     1      26.920  -6.209 -37.682  0.00  0.00    +0.000 HD
ENDBRANCH  16  17
BRANCH  15  19
ATOM     19  O17 UNL     1      24.933  -8.820 -36.159  0.00  0.00    +0.000 OA
ATOM     20  H41 UNL     1      24.074  -8.647 -35.695  0.00  0.00    +0.000 HD
ENDBRANCH  15  19
BRANCH  14  21
ATOM     21  O16 UNL     1      25.369  -9.033 -33.302  0.00  0.00    +0.000 OA
ATOM     22  H39 UNL     1      25.570  -9.832 -32.747  0.00  0.00    +0.000 HD
ENDBRANCH  14  21
BRANCH  13  23
ATOM     23  C22 UNL     1      27.758  -7.973 -32.160  0.00  0.00    +0.000 C 
BRANCH  23  24
ATOM     24  O15 UNL     1      26.884  -6.941 -31.792  0.00  0.00    +0.000 OA
ATOM     25  H37 UNL     1      26.374  -7.275 -31.007  0.00  0.00    +0.000 HD
ENDBRANCH  23  24
ENDBRANCH  13  23
ENDBRANCH   9  11
ENDBRANCH   8   9
BRANCH   7  26
ATOM     26  O14 UNL     1      30.234 -10.458 -37.715  0.00  0.00    +0.000 OA
ATOM     27  H30 UNL     1      30.700 -10.846 -38.500  0.00  0.00    +0.000 HD
ENDBRANCH   7  26
BRANCH   6  28
ATOM     28  O13 UNL     1      28.512 -11.226 -39.810  0.00  0.00    +0.000 OA
ATOM     29  H28 UNL     1      28.597 -11.481 -40.765  0.00  0.00    +0.000 HD
ENDBRANCH   6  28
ENDBRANCH   1   5
BRANCH   1  30
ATOM     30  C4  UNL     1      25.880  -9.089 -41.400  0.00  0.00    +0.000 C 
ATOM     31  C5  UNL     1      24.583  -8.430 -40.897  0.00  0.00    +0.000 C 
ATOM     32  C6  UNL     1      23.695  -7.992 -42.082  0.00  0.00    +0.000 C 
ATOM     33  C7  UNL     1      24.565  -7.550 -43.284  0.00  0.00    +0.000 C 
ATOM     34  O11 UNL     1      25.814  -7.045 -42.838  0.00  0.00    +0.000 OA
ATOM     35  C14 UNL     1      26.647  -8.071 -42.300  0.00  0.00    +0.000 C 
BRANCH  32  36
ATOM     36  O4  UNL     1      22.850  -6.945 -41.672  0.00  0.00    +0.000 OA
ATOM     37  H10 UNL     1      22.446  -6.565 -42.498  0.00  0.00    +0.000 HD
ENDBRANCH  32  36
BRANCH  31  38
ATOM     38  O3  UNL     1      23.878  -9.287 -40.034  0.00  0.00    +0.000 OA
ATOM     39  H8  UNL     1      22.912  -9.099 -40.149  0.00  0.00    +0.000 HD
ENDBRANCH  31  38
BRANCH  35  40
ATOM     40  C15 UNL     1      27.455  -8.767 -43.415  0.00  0.00    +0.000 C 
BRANCH  40  41
ATOM     41  O12 UNL     1      28.310  -7.851 -44.045  0.00  0.00    +0.000 OA
ATOM     42  H26 UNL     1      27.800  -7.463 -44.805  0.00  0.00    +0.000 HD
ENDBRANCH  40  41
ENDBRANCH  35  40
BRANCH  33  43
ATOM     43  O5  UNL     1      23.882  -6.545 -44.011  0.00  0.00    +0.000 OA
BRANCH  43  44
ATOM     44  C8  UNL     1      23.365  -7.041 -45.237  0.00  0.00    +0.000 C 
ATOM     45  C9  UNL     1      21.853  -6.760 -45.311  0.00  0.00    +0.000 C 
ATOM     46  C10 UNL     1      21.290  -7.261 -46.653  0.00  0.00    +0.000 C 
ATOM     47  C11 UNL     1      22.321  -7.075 -47.800  0.00  0.00    +0.000 C 
ATOM     48  O9  UNL     1      23.221  -6.016 -47.521  0.00  0.00    +0.000 OA
ATOM     49  C12 UNL     1      24.074  -6.305 -46.412  0.00  0.00    +0.000 C 
BRANCH  47  50
ATOM     50  O8  UNL     1      21.687  -6.843 -49.032  0.00  0.00    +0.000 OA
ATOM     51  H18 UNL     1      22.274  -6.233 -49.555  0.00  0.00    +0.000 HD
ENDBRANCH  47  50
BRANCH  46  52
ATOM     52  O7  UNL     1      20.087  -6.583 -46.926  0.00  0.00    +0.000 OA
ATOM     53  H16 UNL     1      20.236  -5.624 -46.716  0.00  0.00    +0.000 HD
ENDBRANCH  46  52
BRANCH  45  54
ATOM     54  O6  UNL     1      21.178  -7.409 -44.262  0.00  0.00    +0.000 OA
ATOM     55  H14 UNL     1      20.344  -6.896 -44.099  0.00  0.00    +0.000 HD
ENDBRANCH  45  54
BRANCH  49  56
ATOM     56  C13 UNL     1      25.336  -7.051 -46.869  0.00  0.00    +0.000 C 
BRANCH  56  57
ATOM     57  O10 UNL     1      26.402  -6.765 -46.000  0.00  0.00    +0.000 OA
ATOM     58  H22 UNL     1      27.054  -7.510 -46.074  0.00  0.00    +0.000 HD
ENDBRANCH  56  57
ENDBRANCH  49  56
ENDBRANCH  43  44
ENDBRANCH  33  43
ENDBRANCH   1  30
TORSDOF 22
ENDMDL
MODEL 5
REMARK VINA RESULT:    -4.872      3.142      4.954
REMARK INTER + INTRA:         -12.486
REMARK INTER:                 -10.454
REMARK INTRA:                  -2.032
REMARK UNBOUND:                -3.199
REMARK  Name = resultss/4CJN/ligands/lig_391_t0.pdb
REMARK  23 active torsions:
REMARK  status: ('A' for Active; 'I' for Inactive)
REMARK    1  A    between atoms: C1_1  and  C2_2
REMARK    2  A    between atoms: C3_4  and  O2_5
REMARK    3  A    between atoms: O2_5  and  C4_6
REMARK    4  A    between atoms: C5_7  and  O3_8
REMARK    5  A    between atoms: C6_9  and  O4_10
REMARK    6  A    between atoms: C7_11  and  O5_12
REMARK    7  A    between atoms: O5_12  and  C8_13
REMARK    8  A    between atoms: C9_14  and  O6_15
REMARK    9  A    between atoms: C10_16  and  O7_17
REMARK   10  A    between atoms: C11_18  and  O8_19
REMARK   11  A    between atoms: C12_21  and  C13_22
REMARK   12  A    between atoms: C13_22  and  O10_23
REMARK   13  A    between atoms: C14_25  and  C15_26
REMARK   14  A    between atoms: C15_26  and  O12_27
REMARK   15  A    between atoms: C16_28  and  O13_29
REMARK   16  A    between atoms: C17_30  and  O14_31
REMARK   17  A    between atoms: C18_32  and  N1_33
REMARK   18  A    between atoms: N1_33  and  C19_34
REMARK   19  A    between atoms: C21_36  and  C22_37
REMARK   20  A    between atoms: C22_37  and  O15_38
REMARK   21  A    between atoms: C23_39  and  O16_40
REMARK   22  A    between atoms: C24_41  and  O17_42
REMARK   23  A    between atoms: C25_43  and  O18_44
REMARK                            x       y       z     vdW  Elec       q    Type
REMARK                         _______ _______ _______ _____ _____    ______ ____
ROOT
ATOM      1  O2  UNL     1      29.100  -9.477 -40.115  0.00  0.00    +0.000 OA
ENDROOT
BRANCH   1   5
ATOM      2  C1  UNL     1      25.793  -6.692 -39.974  0.00  0.00    +0.000 C 
ATOM      3  C2  UNL     1      26.436  -7.373 -41.195  0.00  0.00    +0.000 C 
ATOM      4  O1  UNL     1      27.759  -7.823 -40.944  0.00  0.00    +0.000 OA
ATOM      5  C3  UNL     1      27.846  -8.832 -39.946  0.00  0.00    +0.000 C 
ATOM      6  C16 UNL     1      26.713  -9.894 -40.050  0.00  0.00    +0.000 C 
ATOM      7  C17 UNL     1      26.083  -9.908 -41.454  0.00  0.00    +0.000 C 
ATOM      8  C18 UNL     1      25.557  -8.495 -41.832  0.00  0.00    +0.000 C 
BRANCH   8   9
ATOM      9  N1  UNL     1      25.521  -8.284 -43.299  0.00  0.00    +0.000 NA
ATOM     10  H32 UNL     1      25.509  -9.223 -43.761  0.00  0.00    +0.000 HD
BRANCH   9  11
ATOM     11  C19 UNL     1      24.372  -7.504 -43.809  0.00  0.00    +0.000 C 
ATOM     12  C20 UNL     1      24.200  -7.645 -45.307  0.00  0.00    +0.000 C 
ATOM     13  C21 UNL     1      23.099  -7.142 -45.896  0.00  0.00    +0.000 C 
ATOM     14  C23 UNL     1      22.048  -6.493 -45.003  0.00  0.00    +0.000 C 
ATOM     15  C24 UNL     1      21.756  -7.416 -43.793  0.00  0.00    +0.000 C 
ATOM     16  C25 UNL     1      23.059  -7.945 -43.097  0.00  0.00    +0.000 C 
BRANCH  16  17
ATOM     17  O18 UNL     1      23.002  -9.346 -42.963  0.00  0.00    +0.000 OA
ATOM     18  H43 UNL     1      22.768  -9.721 -43.852  0.00  0.00    +0.000 HD
ENDBRANCH  16  17
BRANCH  15  19
ATOM     19  O17 UNL     1      20.968  -6.718 -42.862  0.00  0.00    +0.000 OA
ATOM     20  H41 UNL     1      21.548  -6.017 -42.465  0.00  0.00    +0.000 HD
ENDBRANCH  15  19
BRANCH  14  21
ATOM     21  O16 UNL     1      20.867  -6.240 -45.719  0.00  0.00    +0.000 OA
ATOM     22  H39 UNL     1      21.020  -5.418 -46.253  0.00  0.00    +0.000 HD
ENDBRANCH  14  21
BRANCH  13  23
ATOM     23  C22 UNL     1      22.924  -7.288 -47.394  0.00  0.00    +0.000 C 
BRANCH  23  24
ATOM     24  O15 UNL     1      23.077  -8.629 -47.771  0.00  0.00    +0.000 OA
ATOM     25  H37 UNL     1      23.630  -8.624 -48.597  0.00  0.00    +0.000 HD
ENDBRANCH  23  24
ENDBRANCH  13  23
ENDBRANCH   9  11
ENDBRANCH   8   9
BRANCH   7  26
ATOM     26  O14 UNL     1      25.018 -10.823 -41.464  0.00  0.00    +0.000 OA
ATOM     27  H30 UNL     1      24.696 -10.911 -40.530  0.00  0.00    +0.000 HD
ENDBRANCH   7  26
BRANCH   6  28
ATOM     28  O13 UNL     1      27.163 -11.173 -39.670  0.00  0.00    +0.000 OA
ATOM     29  H28 UNL     1      27.915 -11.423 -40.267  0.00  0.00    +0.000 HD
ENDBRANCH   6  28
ENDBRANCH   1   5
BRANCH   1  30
ATOM     30  C4  UNL     1      29.991  -9.282 -39.028  0.00  0.00    +0.000 C 
ATOM     31  C5  UNL     1      30.893  -8.079 -39.357  0.00  0.00    +0.000 C 
ATOM     32  C6  UNL     1      31.863  -7.784 -38.192  0.00  0.00    +0.000 C 
ATOM     33  C7  UNL     1      31.200  -8.114 -36.832  0.00  0.00    +0.000 C 
ATOM     34  O11 UNL     1      29.792  -7.964 -36.913  0.00  0.00    +0.000 OA
ATOM     35  C14 UNL     1      29.190  -8.970 -37.726  0.00  0.00    +0.000 C 
BRANCH  32  36
ATOM     36  O4  UNL     1      32.254  -6.434 -38.236  0.00  0.00    +0.000 OA
ATOM     37  H10 UNL     1      33.222  -6.410 -38.012  0.00  0.00    +0.000 HD
ENDBRANCH  32  36
BRANCH  31  38
ATOM     38  O3  UNL     1      31.599  -8.284 -40.555  0.00  0.00    +0.000 OA
ATOM     39  H8  UNL     1      32.111  -9.128 -40.461  0.00  0.00    +0.000 HD
ENDBRANCH  31  38
BRANCH  35  40
ATOM     40  C15 UNL     1      28.893 -10.240 -36.902  0.00  0.00    +0.000 C 
BRANCH  40  41
ATOM     41  O12 UNL     1      27.510 -10.415 -36.752  0.00  0.00    +0.000 OA
ATOM     42  H26 UNL     1      27.120 -10.392 -37.665  0.00  0.00    +0.000 HD
ENDBRANCH  40  41
ENDBRANCH  35  40
BRANCH  33  43
ATOM     43  O5  UNL     1      31.711  -7.243 -35.840  0.00  0.00    +0.000 OA
BRANCH  43  44
ATOM     44  C8  UNL     1      31.805  -7.883 -34.575  0.00  0.00    +0.000 C 
ATOM     45  C9  UNL     1      30.393  -8.208 -34.055  0.00  0.00    +0.000 C 
ATOM     46  C10 UNL     1      30.485  -8.934 -32.702  0.00  0.00    +0.000 C 
ATOM     47  C11 UNL     1      31.726  -9.867 -32.648  0.00  0.00    +0.000 C 
ATOM     48  O9  UNL     1      32.113 -10.290 -33.944  0.00  0.00    +0.000 OA
ATOM     49  C12 UNL     1      32.599  -9.212 -34.745  0.00  0.00    +0.000 C 
BRANCH  47  50
ATOM     50  O8  UNL     1      31.494 -10.990 -31.835  0.00  0.00    +0.000 OA
ATOM     51  H18 UNL     1      31.881 -10.791 -30.940  0.00  0.00    +0.000 HD
ENDBRANCH  47  50
BRANCH  46  52
ATOM     52  O7  UNL     1      29.292  -9.650 -32.485  0.00  0.00    +0.000 OA
ATOM     53  H16 UNL     1      28.547  -9.091 -32.827  0.00  0.00    +0.000 HD
ENDBRANCH  46  52
BRANCH  45  54
ATOM     54  O6  UNL     1      29.644  -7.030 -33.890  0.00  0.00    +0.000 OA
ATOM     55  H14 UNL     1      29.953  -6.611 -33.044  0.00  0.00    +0.000 HD
ENDBRANCH  45  54
BRANCH  49  56
ATOM     56  C13 UNL     1      34.105  -9.003 -34.532  0.00  0.00    +0.000 C 
BRANCH  56  57
ATOM     57  O10 UNL     1      34.374  -7.640 -34.322  0.00  0.00    +0.000 OA
ATOM     58  H22 UNL     1      35.330  -7.562 -34.065  0.00  0.00    +0.000 HD
ENDBRANCH  56  57
ENDBRANCH  49  56
ENDBRANCH  43  44
ENDBRANCH  33  43
ENDBRANCH   1  30
TORSDOF 22
ENDMDL
MODEL 6
REMARK VINA RESULT:    -4.710      2.495      9.237
REMARK INTER + INTRA:         -12.177
REMARK INTER:                 -11.605
REMARK INTRA:                  -0.572
REMARK UNBOUND:                -3.199
REMARK  Name = resultss/4CJN/ligands/lig_391_t0.pdb
REMARK  23 active torsions:
REMARK  status: ('A' for Active; 'I' for Inactive)
REMARK    1  A    between atoms: C1_1  and  C2_2
REMARK    2  A    between atoms: C3_4  and  O2_5
REMARK    3  A    between atoms: O2_5  and  C4_6
REMARK    4  A    between atoms: C5_7  and  O3_8
REMARK    5  A    between atoms: C6_9  and  O4_10
REMARK    6  A    between atoms: C7_11  and  O5_12
REMARK    7  A    between atoms: O5_12  and  C8_13
REMARK    8  A    between atoms: C9_14  and  O6_15
REMARK    9  A    between atoms: C10_16  and  O7_17
REMARK   10  A    between atoms: C11_18  and  O8_19
REMARK   11  A    between atoms: C12_21  and  C13_22
REMARK   12  A    between atoms: C13_22  and  O10_23
REMARK   13  A    between atoms: C14_25  and  C15_26
REMARK   14  A    between atoms: C15_26  and  O12_27
REMARK   15  A    between atoms: C16_28  and  O13_29
REMARK   16  A    between atoms: C17_30  and  O14_31
REMARK   17  A    between atoms: C18_32  and  N1_33
REMARK   18  A    between atoms: N1_33  and  C19_34
REMARK   19  A    between atoms: C21_36  and  C22_37
REMARK   20  A    between atoms: C22_37  and  O15_38
REMARK   21  A    between atoms: C23_39  and  O16_40
REMARK   22  A    between atoms: C24_41  and  O17_42
REMARK   23  A    between atoms: C25_43  and  O18_44
REMARK                            x       y       z     vdW  Elec       q    Type
REMARK                         _______ _______ _______ _____ _____    ______ ____
ROOT
ATOM      1  O2  UNL     1      27.097  -8.734 -39.405  0.00  0.00    +0.000 OA
ENDROOT
BRANCH   1   5
ATOM      2  C1  UNL     1      30.371  -6.319 -37.935  0.00  0.00    +0.000 C 
ATOM      3  C2  UNL     1      29.473  -7.306 -37.169  0.00  0.00    +0.000 C 
ATOM      4  O1  UNL     1      28.234  -7.546 -37.819  0.00  0.00    +0.000 OA
ATOM      5  C3  UNL     1      28.361  -8.168 -39.090  0.00  0.00    +0.000 C 
ATOM      6  C16 UNL     1      29.437  -9.292 -39.117  0.00  0.00    +0.000 C 
ATOM      7  C17 UNL     1      29.747  -9.808 -37.701  0.00  0.00    +0.000 C 
ATOM      8  C18 UNL     1      30.186  -8.639 -36.776  0.00  0.00    +0.000 C 
BRANCH   8   9
ATOM      9  N1  UNL     1      29.903  -8.916 -35.347  0.00  0.00    +0.000 NA
ATOM     10  H32 UNL     1      30.764  -8.690 -34.796  0.00  0.00    +0.000 HD
BRANCH   9  11
ATOM     11  C19 UNL     1      28.770  -8.171 -34.759  0.00  0.00    +0.000 C 
ATOM     12  C20 UNL     1      27.493  -8.985 -34.739  0.00  0.00    +0.000 C 
ATOM     13  C21 UNL     1      26.420  -8.514 -34.076  0.00  0.00    +0.000 C 
ATOM     14  C23 UNL     1      26.566  -7.193 -33.330  0.00  0.00    +0.000 C 
ATOM     15  C24 UNL     1      27.871  -7.213 -32.495  0.00  0.00    +0.000 C 
ATOM     16  C25 UNL     1      29.113  -7.718 -33.309  0.00  0.00    +0.000 C 
BRANCH  16  17
ATOM     17  O18 UNL     1      29.773  -8.742 -32.602  0.00  0.00    +0.000 OA
ATOM     18  H43 UNL     1      29.682  -8.542 -31.635  0.00  0.00    +0.000 HD
ENDBRANCH  16  17
BRANCH  15  19
ATOM     19  O17 UNL     1      28.119  -5.922 -31.998  0.00  0.00    +0.000 OA
ATOM     20  H41 UNL     1      27.720  -5.285 -32.646  0.00  0.00    +0.000 HD
ENDBRANCH  15  19
BRANCH  14  21
ATOM     21  O16 UNL     1      25.459  -6.959 -32.499  0.00  0.00    +0.000 OA
ATOM     22  H39 UNL     1      24.862  -6.328 -32.981  0.00  0.00    +0.000 HD
ENDBRANCH  14  21
BRANCH  13  23
ATOM     23  C22 UNL     1      25.144  -9.332 -34.050  0.00  0.00    +0.000 C 
BRANCH  23  24
ATOM     24  O15 UNL     1      25.425 -10.677 -34.322  0.00  0.00    +0.000 OA
ATOM     25  H37 UNL     1      24.897 -10.914 -35.130  0.00  0.00    +0.000 HD
ENDBRANCH  23  24
ENDBRANCH  13  23
ENDBRANCH   9  11
ENDBRANCH   8   9
BRANCH   7  26
ATOM     26  O14 UNL     1      30.779 -10.757 -37.778  0.00  0.00    +0.000 OA
ATOM     27  H30 UNL     1      30.356 -11.655 -37.754  0.00  0.00    +0.000 HD
ENDBRANCH   7  26
BRANCH   6  28
ATOM     28  O13 UNL     1      29.073 -10.340 -39.984  0.00  0.00    +0.000 OA
ATOM     29  H28 UNL     1      29.450 -10.141 -40.880  0.00  0.00    +0.000 HD
ENDBRANCH   6  28
ENDBRANCH   1   5
BRANCH   1  30
ATOM     30  C4  UNL     1      26.674  -8.477 -40.735  0.00  0.00    +0.000 C 
ATOM     31  C5  UNL     1      25.717  -9.605 -41.161  0.00  0.00    +0.000 C 
ATOM     32  C6  UNL     1      25.184  -9.363 -42.589  0.00  0.00    +0.000 C 
ATOM     33  C7  UNL     1      25.028  -7.848 -42.866  0.00  0.00    +0.000 C 
ATOM     34  O11 UNL     1      24.772  -7.144 -41.661  0.00  0.00    +0.000 OA
ATOM     35  C14 UNL     1      25.912  -7.117 -40.803  0.00  0.00    +0.000 C 
BRANCH  32  36
ATOM     36  O4  UNL     1      23.953 -10.025 -42.750  0.00  0.00    +0.000 OA
ATOM     37  H10 UNL     1      24.161 -10.989 -42.871  0.00  0.00    +0.000 HD
ENDBRANCH  32  36
BRANCH  31  38
ATOM     38  O3  UNL     1      26.338 -10.863 -41.065  0.00  0.00    +0.000 OA
ATOM     39  H8  UNL     1      25.623 -11.543 -40.973  0.00  0.00    +0.000 HD
ENDBRANCH  31  38
BRANCH  35  40
ATOM     40  C15 UNL     1      26.844  -5.941 -41.159  0.00  0.00    +0.000 C 
BRANCH  40  41
ATOM     41  O12 UNL     1      27.999  -6.407 -41.804  0.00  0.00    +0.000 OA
ATOM     42  H26 UNL     1      28.718  -6.426 -41.118  0.00  0.00    +0.000 HD
ENDBRANCH  40  41
ENDBRANCH  35  40
BRANCH  33  43
ATOM     43  O5  UNL     1      23.955  -7.646 -43.767  0.00  0.00    +0.000 OA
BRANCH  43  44
ATOM     44  C8  UNL     1      24.389  -7.041 -44.977  0.00  0.00    +0.000 C 
ATOM     45  C9  UNL     1      25.871  -7.382 -45.221  0.00  0.00    +0.000 C 
ATOM     46  C10 UNL     1      26.341  -6.762 -46.549  0.00  0.00    +0.000 C 
ATOM     47  C11 UNL     1      25.205  -6.773 -47.608  0.00  0.00    +0.000 C 
ATOM     48  O9  UNL     1      24.276  -7.814 -47.360  0.00  0.00    +0.000 OA
ATOM     49  C12 UNL     1      23.541  -7.610 -46.152  0.00  0.00    +0.000 C 
BRANCH  47  50
ATOM     50  O8  UNL     1      25.714  -6.896 -48.911  0.00  0.00    +0.000 OA
ATOM     51  H18 UNL     1      26.694  -6.726 -48.862  0.00  0.00    +0.000 HD
ENDBRANCH  47  50
BRANCH  46  52
ATOM     52  O7  UNL     1      27.476  -7.461 -47.002  0.00  0.00    +0.000 OA
ATOM     53  H16 UNL     1      27.237  -8.424 -47.030  0.00  0.00    +0.000 HD
ENDBRANCH  46  52
BRANCH  45  54
ATOM     54  O6  UNL     1      26.671  -6.885 -44.177  0.00  0.00    +0.000 OA
ATOM     55  H14 UNL     1      27.282  -7.620 -43.910  0.00  0.00    +0.000 HD
ENDBRANCH  45  54
BRANCH  49  56
ATOM     56  C13 UNL     1      22.287  -6.760 -46.408  0.00  0.00    +0.000 C 
BRANCH  56  57
ATOM     57  O10 UNL     1      21.784  -6.271 -45.190  0.00  0.00    +0.000 OA
ATOM     58  H22 UNL     1      21.232  -5.472 -45.397  0.00  0.00    +0.000 HD
ENDBRANCH  56  57
ENDBRANCH  49  56
ENDBRANCH  43  44
ENDBRANCH  33  43
ENDBRANCH   1  30
TORSDOF 22
ENDMDL
MODEL 7
REMARK VINA RESULT:    -4.610      1.750      2.662
REMARK INTER + INTRA:         -11.987
REMARK INTER:                 -10.099
REMARK INTRA:                  -1.888
REMARK UNBOUND:                -3.199
REMARK  Name = resultss/4CJN/ligands/lig_391_t0.pdb
REMARK  23 active torsions:
REMARK  status: ('A' for Active; 'I' for Inactive)
REMARK    1  A    between atoms: C1_1  and  C2_2
REMARK    2  A    between atoms: C3_4  and  O2_5
REMARK    3  A    between atoms: O2_5  and  C4_6
REMARK    4  A    between atoms: C5_7  and  O3_8
REMARK    5  A    between atoms: C6_9  and  O4_10
REMARK    6  A    between atoms: C7_11  and  O5_12
REMARK    7  A    between atoms: O5_12  and  C8_13
REMARK    8  A    between atoms: C9_14  and  O6_15
REMARK    9  A    between atoms: C10_16  and  O7_17
REMARK   10  A    between atoms: C11_18  and  O8_19
REMARK   11  A    between atoms: C12_21  and  C13_22
REMARK   12  A    between atoms: C13_22  and  O10_23
REMARK   13  A    between atoms: C14_25  and  C15_26
REMARK   14  A    between atoms: C15_26  and  O12_27
REMARK   15  A    between atoms: C16_28  and  O13_29
REMARK   16  A    between atoms: C17_30  and  O14_31
REMARK   17  A    between atoms: C18_32  and  N1_33
REMARK   18  A    between atoms: N1_33  and  C19_34
REMARK   19  A    between atoms: C21_36  and  C22_37
REMARK   20  A    between atoms: C22_37  and  O15_38
REMARK   21  A    between atoms: C23_39  and  O16_40
REMARK   22  A    between atoms: C24_41  and  O17_42
REMARK   23  A    between atoms: C25_43  and  O18_44
REMARK                            x       y       z     vdW  Elec       q    Type
REMARK                         _______ _______ _______ _____ _____    ______ ____
ROOT
ATOM      1  O2  UNL     1      29.840  -9.117 -38.350  0.00  0.00    +0.000 OA
ENDROOT
BRANCH   1   5
ATOM      2  C1  UNL     1      28.774 -10.449 -42.326  0.00  0.00    +0.000 C 
ATOM      3  C2  UNL     1      28.034  -9.467 -41.400  0.00  0.00    +0.000 C 
ATOM      4  O1  UNL     1      28.381  -9.628 -40.033  0.00  0.00    +0.000 OA
ATOM      5  C3  UNL     1      29.746  -9.351 -39.748  0.00  0.00    +0.000 C 
ATOM      6  C16 UNL     1      30.288  -8.104 -40.505  0.00  0.00    +0.000 C 
ATOM      7  C17 UNL     1      29.144  -7.186 -40.971  0.00  0.00    +0.000 C 
ATOM      8  C18 UNL     1      28.133  -7.975 -41.850  0.00  0.00    +0.000 C 
BRANCH   8   9
ATOM      9  N1  UNL     1      26.774  -7.384 -41.810  0.00  0.00    +0.000 NA
ATOM     10  H32 UNL     1      26.810  -6.531 -41.204  0.00  0.00    +0.000 HD
BRANCH   9  11
ATOM     11  C19 UNL     1      26.200  -6.999 -43.117  0.00  0.00    +0.000 C 
ATOM     12  C20 UNL     1      27.199  -7.135 -44.247  0.00  0.00    +0.000 C 
ATOM     13  C21 UNL     1      26.780  -6.992 -45.519  0.00  0.00    +0.000 C 
ATOM     14  C23 UNL     1      25.295  -6.748 -45.757  0.00  0.00    +0.000 C 
ATOM     15  C24 UNL     1      24.465  -7.757 -44.924  0.00  0.00    +0.000 C 
ATOM     16  C25 UNL     1      24.944  -7.862 -43.434  0.00  0.00    +0.000 C 
BRANCH  16  17
ATOM     17  O18 UNL     1      25.158  -9.211 -43.088  0.00  0.00    +0.000 OA
ATOM     18  H43 UNL     1      24.272  -9.612 -42.889  0.00  0.00    +0.000 HD
ENDBRANCH  16  17
BRANCH  15  19
ATOM     19  O17 UNL     1      23.111  -7.382 -44.964  0.00  0.00    +0.000 OA
ATOM     20  H41 UNL     1      23.067  -6.438 -44.664  0.00  0.00    +0.000 HD
ENDBRANCH  15  19
BRANCH  14  21
ATOM     21  O16 UNL     1      24.978  -6.864 -47.119  0.00  0.00    +0.000 OA
ATOM     22  H39 UNL     1      25.806  -6.663 -47.629  0.00  0.00    +0.000 HD
ENDBRANCH  14  21
BRANCH  13  23
ATOM     23  C22 UNL     1      27.778  -7.135 -46.651  0.00  0.00    +0.000 C 
BRANCH  23  24
ATOM     24  O15 UNL     1      27.726  -6.011 -47.486  0.00  0.00    +0.000 OA
ATOM     25  H37 UNL     1      26.762  -5.837 -47.658  0.00  0.00    +0.000 HD
ENDBRANCH  23  24
ENDBRANCH  13  23
ENDBRANCH   9  11
ENDBRANCH   8   9
BRANCH   7  26
ATOM     26  O14 UNL     1      29.685  -6.127 -41.716  0.00  0.00    +0.000 OA
ATOM     27  H30 UNL     1      28.929  -5.552 -42.003  0.00  0.00    +0.000 HD
ENDBRANCH   7  26
BRANCH   6  28
ATOM     28  O13 UNL     1      31.238  -7.402 -39.738  0.00  0.00    +0.000 OA
ATOM     29  H28 UNL     1      30.869  -7.289 -38.824  0.00  0.00    +0.000 HD
ENDBRANCH   6  28
ENDBRANCH   1   5
BRANCH   1  30
ATOM     30  C4  UNL     1      28.607  -8.750 -37.751  0.00  0.00    +0.000 C 
ATOM     31  C5  UNL     1      28.149  -9.908 -36.847  0.00  0.00    +0.000 C 
ATOM     32  C6  UNL     1      26.829  -9.554 -36.128  0.00  0.00    +0.000 C 
ATOM     33  C7  UNL     1      26.765  -8.039 -35.815  0.00  0.00    +0.000 C 
ATOM     34  O11 UNL     1      28.070  -7.508 -35.649  0.00  0.00    +0.000 OA
ATOM     35  C14 UNL     1      28.795  -7.471 -36.877  0.00  0.00    +0.000 C 
BRANCH  32  36
ATOM     36  O4  UNL     1      26.721 -10.308 -34.945  0.00  0.00    +0.000 OA
ATOM     37  H10 UNL     1      27.544 -10.862 -34.884  0.00  0.00    +0.000 HD
ENDBRANCH  32  36
BRANCH  31  38
ATOM     38  O3  UNL     1      28.016 -11.102 -37.576  0.00  0.00    +0.000 OA
ATOM     39  H8  UNL     1      28.928 -11.415 -37.807  0.00  0.00    +0.000 HD
ENDBRANCH  31  38
BRANCH  35  40
ATOM     40  C15 UNL     1      28.491  -6.177 -37.659  0.00  0.00    +0.000 C 
BRANCH  40  41
ATOM     41  O12 UNL     1      27.601  -6.437 -38.711  0.00  0.00    +0.000 OA
ATOM     42  H26 UNL     1      28.152  -6.738 -39.482  0.00  0.00    +0.000 HD
ENDBRANCH  40  41
ENDBRANCH  35  40
BRANCH  33  43
ATOM     43  O5  UNL     1      26.019  -7.838 -34.629  0.00  0.00    +0.000 OA
BRANCH  43  44
ATOM     44  C8  UNL     1      24.775  -7.204 -34.889  0.00  0.00    +0.000 C 
ATOM     45  C9  UNL     1      24.704  -6.796 -36.372  0.00  0.00    +0.000 C 
ATOM     46  C10 UNL     1      23.344  -6.141 -36.673  0.00  0.00    +0.000 C 
ATOM     47  C11 UNL     1      22.208  -6.797 -35.841  0.00  0.00    +0.000 C 
ATOM     48  O9  UNL     1      22.526  -8.134 -35.495  0.00  0.00    +0.000 OA
ATOM     49  C12 UNL     1      23.628  -8.214 -34.589  0.00  0.00    +0.000 C 
BRANCH  47  50
ATOM     50  O8  UNL     1      20.982  -6.767 -36.526  0.00  0.00    +0.000 OA
ATOM     51  H18 UNL     1      21.186  -6.828 -37.498  0.00  0.00    +0.000 HD
ENDBRANCH  47  50
BRANCH  46  52
ATOM     52  O7  UNL     1      23.090  -6.231 -38.055  0.00  0.00    +0.000 OA
ATOM     53  H16 UNL     1      22.642  -5.388 -38.327  0.00  0.00    +0.000 HD
ENDBRANCH  46  52
BRANCH  45  54
ATOM     54  O6  UNL     1      25.728  -5.883 -36.682  0.00  0.00    +0.000 OA
ATOM     55  H14 UNL     1      25.387  -4.981 -36.447  0.00  0.00    +0.000 HD
ENDBRANCH  45  54
BRANCH  49  56
ATOM     56  C13 UNL     1      23.151  -8.112 -33.132  0.00  0.00    +0.000 C 
BRANCH  56  57
ATOM     57  O10 UNL     1      23.756  -7.009 -32.507  0.00  0.00    +0.000 OA
ATOM     58  H22 UNL     1      24.022  -7.295 -31.594  0.00  0.00    +0.000 HD
ENDBRANCH  56  57
ENDBRANCH  49  56
ENDBRANCH  43  44
ENDBRANCH  33  43
ENDBRANCH   1  30
TORSDOF 22
ENDMDL
MODEL 8
REMARK VINA RESULT:    -4.562      2.776      8.496
REMARK INTER + INTRA:         -11.896
REMARK INTER:                 -10.598
REMARK INTRA:                  -1.298
REMARK UNBOUND:                -3.199
REMARK  Name = resultss/4CJN/ligands/lig_391_t0.pdb
REMARK  23 active torsions:
REMARK  status: ('A' for Active; 'I' for Inactive)
REMARK    1  A    between atoms: C1_1  and  C2_2
REMARK    2  A    between atoms: C3_4  and  O2_5
REMARK    3  A    between atoms: O2_5  and  C4_6
REMARK    4  A    between atoms: C5_7  and  O3_8
REMARK    5  A    between atoms: C6_9  and  O4_10
REMARK    6  A    between atoms: C7_11  and  O5_12
REMARK    7  A    between atoms: O5_12  and  C8_13
REMARK    8  A    between atoms: C9_14  and  O6_15
REMARK    9  A    between atoms: C10_16  and  O7_17
REMARK   10  A    between atoms: C11_18  and  O8_19
REMARK   11  A    between atoms: C12_21  and  C13_22
REMARK   12  A    between atoms: C13_22  and  O10_23
REMARK   13  A    between atoms: C14_25  and  C15_26
REMARK   14  A    between atoms: C15_26  and  O12_27
REMARK   15  A    between atoms: C16_28  and  O13_29
REMARK   16  A    between atoms: C17_30  and  O14_31
REMARK   17  A    between atoms: C18_32  and  N1_33
REMARK   18  A    between atoms: N1_33  and  C19_34
REMARK   19  A    between atoms: C21_36  and  C22_37
REMARK   20  A    between atoms: C22_37  and  O15_38
REMARK   21  A    between atoms: C23_39  and  O16_40
REMARK   22  A    between atoms: C24_41  and  O17_42
REMARK   23  A    between atoms: C25_43  and  O18_44
REMARK                            x       y       z     vdW  Elec       q    Type
REMARK                         _______ _______ _______ _____ _____    ______ ____
ROOT
ATOM      1  O2  UNL     1      27.859  -8.788 -38.167  0.00  0.00    +0.000 OA
ENDROOT
BRANCH   1   5
ATOM      2  C1  UNL     1      31.144  -5.975 -38.073  0.00  0.00    +0.000 C 
ATOM      3  C2  UNL     1      30.299  -6.520 -36.908  0.00  0.00    +0.000 C 
ATOM      4  O1  UNL     1      29.038  -7.021 -37.326  0.00  0.00    +0.000 OA
ATOM      5  C3  UNL     1      29.123  -8.143 -38.195  0.00  0.00    +0.000 C 
ATOM      6  C16 UNL     1      30.220  -9.164 -37.771  0.00  0.00    +0.000 C 
ATOM      7  C17 UNL     1      30.599  -8.999 -36.289  0.00  0.00    +0.000 C 
ATOM      8  C18 UNL     1      31.054  -7.541 -35.999  0.00  0.00    +0.000 C 
BRANCH   8   9
ATOM      9  N1  UNL     1      30.837  -7.156 -34.584  0.00  0.00    +0.000 NA
ATOM     10  H32 UNL     1      31.190  -6.179 -34.456  0.00  0.00    +0.000 HD
BRANCH   9  11
ATOM     11  C19 UNL     1      29.437  -7.206 -34.110  0.00  0.00    +0.000 C 
ATOM     12  C20 UNL     1      28.687  -8.403 -34.656  0.00  0.00    +0.000 C 
ATOM     13  C21 UNL     1      27.460  -8.687 -34.180  0.00  0.00    +0.000 C 
ATOM     14  C23 UNL     1      26.907  -7.805 -33.067  0.00  0.00    +0.000 C 
ATOM     15  C24 UNL     1      27.986  -7.618 -31.971  0.00  0.00    +0.000 C 
ATOM     16  C25 UNL     1      29.392  -7.238 -32.554  0.00  0.00    +0.000 C 
BRANCH  16  17
ATOM     17  O18 UNL     1      30.380  -8.099 -32.037  0.00  0.00    +0.000 OA
ATOM     18  H43 UNL     1      30.926  -8.419 -32.802  0.00  0.00    +0.000 HD
ENDBRANCH  16  17
BRANCH  15  19
ATOM     19  O17 UNL     1      27.560  -6.627 -31.069  0.00  0.00    +0.000 OA
ATOM     20  H41 UNL     1      27.898  -5.762 -31.416  0.00  0.00    +0.000 HD
ENDBRANCH  15  19
BRANCH  14  21
ATOM     21  O16 UNL     1      25.743  -8.363 -32.514  0.00  0.00    +0.000 OA
ATOM     22  H39 UNL     1      25.806  -9.347 -32.637  0.00  0.00    +0.000 HD
ENDBRANCH  14  21
BRANCH  13  23
ATOM     23  C22 UNL     1      26.711  -9.887 -34.722  0.00  0.00    +0.000 C 
BRANCH  23  24
ATOM     24  O15 UNL     1      27.292 -10.320 -35.921  0.00  0.00    +0.000 OA
ATOM     25  H37 UNL     1      26.609 -10.881 -36.375  0.00  0.00    +0.000 HD
ENDBRANCH  23  24
ENDBRANCH  13  23
ENDBRANCH   9  11
ENDBRANCH   8   9
BRANCH   7  26
ATOM     26  O14 UNL     1      31.645  -9.885 -35.987  0.00  0.00    +0.000 OA
ATOM     27  H30 UNL     1      31.288 -10.806 -36.080  0.00  0.00    +0.000 HD
ENDBRANCH   7  26
BRANCH   6  28
ATOM     28  O13 UNL     1      29.840 -10.487 -38.067  0.00  0.00    +0.000 OA
ATOM     29  H28 UNL     1      30.321 -11.089 -37.442  0.00  0.00    +0.000 HD
ENDBRANCH   6  28
ENDBRANCH   1   5
BRANCH   1  30
ATOM     30  C4  UNL     1      27.111  -8.627 -39.363  0.00  0.00    +0.000 C 
ATOM     31  C5  UNL     1      26.677 -10.021 -39.849  0.00  0.00    +0.000 C 
ATOM     32  C6  UNL     1      25.820  -9.915 -41.129  0.00  0.00    +0.000 C 
ATOM     33  C7  UNL     1      24.969  -8.622 -41.111  0.00  0.00    +0.000 C 
ATOM     34  O11 UNL     1      24.678  -8.233 -39.778  0.00  0.00    +0.000 OA
ATOM     35  C14 UNL     1      25.838  -7.769 -39.088  0.00  0.00    +0.000 C 
BRANCH  32  36
ATOM     36  O4  UNL     1      24.995 -11.048 -41.238  0.00  0.00    +0.000 OA
ATOM     37  H10 UNL     1      24.151 -10.834 -40.757  0.00  0.00    +0.000 HD
ENDBRANCH  32  36
BRANCH  31  38
ATOM     38  O3  UNL     1      27.788 -10.857 -40.059  0.00  0.00    +0.000 OA
ATOM     39  H8  UNL     1      27.782 -11.129 -41.012  0.00  0.00    +0.000 HD
ENDBRANCH  31  38
BRANCH  35  40
ATOM     40  C15 UNL     1      26.073  -6.268 -39.354  0.00  0.00    +0.000 C 
BRANCH  40  41
ATOM     41  O12 UNL     1      27.125  -6.090 -40.265  0.00  0.00    +0.000 OA
ATOM     42  H26 UNL     1      27.770  -5.467 -39.836  0.00  0.00    +0.000 HD
ENDBRANCH  40  41
ENDBRANCH  35  40
BRANCH  33  43
ATOM     43  O5  UNL     1      23.760  -8.848 -41.811  0.00  0.00    +0.000 OA
BRANCH  43  44
ATOM     44  C8  UNL     1      23.508  -7.832 -42.772  0.00  0.00    +0.000 C 
ATOM     45  C9  UNL     1      24.060  -8.268 -44.141  0.00  0.00    +0.000 C 
ATOM     46  C10 UNL     1      23.760  -7.189 -45.196  0.00  0.00    +0.000 C 
ATOM     47  C11 UNL     1      22.391  -6.505 -44.928  0.00  0.00    +0.000 C 
ATOM     48  O9  UNL     1      21.514  -7.363 -44.218  0.00  0.00    +0.000 OA
ATOM     49  C12 UNL     1      21.969  -7.627 -42.889  0.00  0.00    +0.000 C 
BRANCH  47  50
ATOM     50  O8  UNL     1      21.778  -6.088 -46.121  0.00  0.00    +0.000 OA
ATOM     51  H18 UNL     1      21.012  -5.505 -45.871  0.00  0.00    +0.000 HD
ENDBRANCH  47  50
BRANCH  46  52
ATOM     52  O7  UNL     1      23.800  -7.777 -46.475  0.00  0.00    +0.000 OA
ATOM     53  H16 UNL     1      24.373  -7.200 -47.046  0.00  0.00    +0.000 HD
ENDBRANCH  46  52
BRANCH  45  54
ATOM     54  O6  UNL     1      25.451  -8.465 -44.074  0.00  0.00    +0.000 OA
ATOM     55  H14 UNL     1      25.686  -8.506 -43.110  0.00  0.00    +0.000 HD
ENDBRANCH  45  54
BRANCH  49  56
ATOM     56  C13 UNL     1      21.464  -6.555 -41.912  0.00  0.00    +0.000 C 
BRANCH  56  57
ATOM     57  O10 UNL     1      22.249  -6.563 -40.746  0.00  0.00    +0.000 OA
ATOM     58  H22 UNL     1      22.357  -5.620 -40.455  0.00  0.00    +0.000 HD
ENDBRANCH  56  57
ENDBRANCH  49  56
ENDBRANCH  43  44
ENDBRANCH  33  43
ENDBRANCH   1  30
TORSDOF 22
ENDMDL
MODEL 9
REMARK VINA RESULT:    -4.242      2.498      6.357
REMARK INTER + INTRA:         -11.285
REMARK INTER:                  -8.175
REMARK INTRA:                  -3.110
REMARK UNBOUND:                -3.199
REMARK  Name = resultss/4CJN/ligands/lig_391_t0.pdb
REMARK  23 active torsions:
REMARK  status: ('A' for Active; 'I' for Inactive)
REMARK    1  A    between atoms: C1_1  and  C2_2
REMARK    2  A    between atoms: C3_4  and  O2_5
REMARK    3  A    between atoms: O2_5  and  C4_6
REMARK    4  A    between atoms: C5_7  and  O3_8
REMARK    5  A    between atoms: C6_9  and  O4_10
REMARK    6  A    between atoms: C7_11  and  O5_12
REMARK    7  A    between atoms: O5_12  and  C8_13
REMARK    8  A    between atoms: C9_14  and  O6_15
REMARK    9  A    between atoms: C10_16  and  O7_17
REMARK   10  A    between atoms: C11_18  and  O8_19
REMARK   11  A    between atoms: C12_21  and  C13_22
REMARK   12  A    between atoms: C13_22  and  O10_23
REMARK   13  A    between atoms: C14_25  and  C15_26
REMARK   14  A    between atoms: C15_26  and  O12_27
REMARK   15  A    between atoms: C16_28  and  O13_29
REMARK   16  A    between atoms: C17_30  and  O14_31
REMARK   17  A    between atoms: C18_32  and  N1_33
REMARK   18  A    between atoms: N1_33  and  C19_34
REMARK   19  A    between atoms: C21_36  and  C22_37
REMARK   20  A    between atoms: C22_37  and  O15_38
REMARK   21  A    between atoms: C23_39  and  O16_40
REMARK   22  A    between atoms: C24_41  and  O17_42
REMARK   23  A    between atoms: C25_43  and  O18_44
REMARK                            x       y       z     vdW  Elec       q    Type
REMARK                         _______ _______ _______ _____ _____    ______ ____
ROOT
ATOM      1  O2  UNL     1      25.878  -9.455 -40.791  0.00  0.00    +0.000 OA
ENDROOT
BRANCH   1   5
ATOM      2  C1  UNL     1      28.743  -8.098 -43.733  0.00  0.00    +0.000 C 
ATOM      3  C2  UNL     1      28.691  -7.807 -42.223  0.00  0.00    +0.000 C 
ATOM      4  O1  UNL     1      27.398  -7.992 -41.668  0.00  0.00    +0.000 OA
ATOM      5  C3  UNL     1      26.926  -9.332 -41.740  0.00  0.00    +0.000 C 
ATOM      6  C16 UNL     1      28.025 -10.386 -41.418  0.00  0.00    +0.000 C 
ATOM      7  C17 UNL     1      29.188  -9.762 -40.626  0.00  0.00    +0.000 C 
ATOM      8  C18 UNL     1      29.787  -8.551 -41.396  0.00  0.00    +0.000 C 
BRANCH   8   9
ATOM      9  N1  UNL     1      30.431  -7.572 -40.487  0.00  0.00    +0.000 NA
ATOM     10  H32 UNL     1      29.794  -6.746 -40.397  0.00  0.00    +0.000 HD
BRANCH   9  11
ATOM     11  C19 UNL     1      30.743  -8.064 -39.128  0.00  0.00    +0.000 C 
ATOM     12  C20 UNL     1      32.222  -7.982 -38.811  0.00  0.00    +0.000 C 
ATOM     13  C21 UNL     1      32.642  -8.224 -37.555  0.00  0.00    +0.000 C 
ATOM     14  C23 UNL     1      31.588  -8.524 -36.496  0.00  0.00    +0.000 C 
ATOM     15  C24 UNL     1      30.447  -7.481 -36.594  0.00  0.00    +0.000 C 
ATOM     16  C25 UNL     1      29.944  -7.258 -38.063  0.00  0.00    +0.000 C 
BRANCH  16  17
ATOM     17  O18 UNL     1      29.937  -5.883 -38.370  0.00  0.00    +0.000 OA
ATOM     18  H43 UNL     1      29.477  -5.414 -37.626  0.00  0.00    +0.000 HD
ENDBRANCH  16  17
BRANCH  15  19
ATOM     19  O17 UNL     1      29.377  -7.892 -35.780  0.00  0.00    +0.000 OA
ATOM     20  H41 UNL     1      28.850  -7.078 -35.569  0.00  0.00    +0.000 HD
ENDBRANCH  15  19
BRANCH  14  21
ATOM     21  O16 UNL     1      32.150  -8.513 -35.210  0.00  0.00    +0.000 OA
ATOM     22  H39 UNL     1      32.333  -9.457 -34.963  0.00  0.00    +0.000 HD
ENDBRANCH  14  21
BRANCH  13  23
ATOM     23  C22 UNL     1      34.122  -8.136 -37.236  0.00  0.00    +0.000 C 
BRANCH  23  24
ATOM     24  O15 UNL     1      34.347  -7.167 -36.249  0.00  0.00    +0.000 OA
ATOM     25  H37 UNL     1      34.545  -7.664 -35.412  0.00  0.00    +0.000 HD
ENDBRANCH  23  24
ENDBRANCH  13  23
ENDBRANCH   9  11
ENDBRANCH   8   9
BRANCH   7  26
ATOM     26  O14 UNL     1      30.182 -10.735 -40.437  0.00  0.00    +0.000 OA
ATOM     27  H30 UNL     1      30.323 -10.827 -39.460  0.00  0.00    +0.000 HD
ENDBRANCH   7  26
BRANCH   6  28
ATOM     28  O13 UNL     1      27.491 -11.509 -40.759  0.00  0.00    +0.000 OA
ATOM     29  H28 UNL     1      27.770 -12.319 -41.259  0.00  0.00    +0.000 HD
ENDBRANCH   6  28
ENDBRANCH   1   5
BRANCH   1  30
ATOM     30  C4  UNL     1      25.935  -8.490 -39.751  0.00  0.00    +0.000 C 
ATOM     31  C5  UNL     1      24.703  -7.577 -39.875  0.00  0.00    +0.000 C 
ATOM     32  C6  UNL     1      24.682  -6.527 -38.743  0.00  0.00    +0.000 C 
ATOM     33  C7  UNL     1      25.289  -7.110 -37.444  0.00  0.00    +0.000 C 
ATOM     34  O11 UNL     1      25.105  -8.516 -37.393  0.00  0.00    +0.000 OA
ATOM     35  C14 UNL     1      25.902  -9.197 -38.361  0.00  0.00    +0.000 C 
BRANCH  32  36
ATOM     36  O4  UNL     1      23.360  -6.100 -38.522  0.00  0.00    +0.000 OA
ATOM     37  H10 UNL     1      22.871  -6.875 -38.135  0.00  0.00    +0.000 HD
ENDBRANCH  32  36
BRANCH  31  38
ATOM     38  O3  UNL     1      24.653  -6.956 -41.135  0.00  0.00    +0.000 OA
ATOM     39  H8  UNL     1      25.574  -6.948 -41.502  0.00  0.00    +0.000 HD
ENDBRANCH  31  38
BRANCH  35  40
ATOM     40  C15 UNL     1      27.316  -9.477 -37.812  0.00  0.00    +0.000 C 
BRANCH  40  41
ATOM     41  O12 UNL     1      27.245 -10.247 -36.642  0.00  0.00    +0.000 OA
ATOM     42  H26 UNL     1      26.996  -9.625 -35.908  0.00  0.00    +0.000 HD
ENDBRANCH  40  41
ENDBRANCH  35  40
BRANCH  33  43
ATOM     43  O5  UNL     1      24.662  -6.511 -36.325  0.00  0.00    +0.000 OA
BRANCH  43  44
ATOM     44  C8  UNL     1      24.274  -7.478 -35.359  0.00  0.00    +0.000 C 
ATOM     45  C9  UNL     1      25.419  -7.688 -34.351  0.00  0.00    +0.000 C 
ATOM     46  C10 UNL     1      24.995  -8.707 -33.279  0.00  0.00    +0.000 C 
ATOM     47  C11 UNL     1      23.484  -8.575 -32.944  0.00  0.00    +0.000 C 
ATOM     48  O9  UNL     1      23.008  -7.265 -33.205  0.00  0.00    +0.000 OA
ATOM     49  C12 UNL     1      23.023  -6.948 -34.598  0.00  0.00    +0.000 C 
BRANCH  47  50
ATOM     50  O8  UNL     1      23.218  -8.915 -31.607  0.00  0.00    +0.000 OA
ATOM     51  H18 UNL     1      22.420  -8.394 -31.323  0.00  0.00    +0.000 HD
ENDBRANCH  47  50
BRANCH  46  52
ATOM     52  O7  UNL     1      25.794  -8.525 -32.134  0.00  0.00    +0.000 OA
ATOM     53  H16 UNL     1      25.994  -9.426 -31.768  0.00  0.00    +0.000 HD
ENDBRANCH  46  52
BRANCH  45  54
ATOM     54  O6  UNL     1      26.570  -8.166 -35.004  0.00  0.00    +0.000 OA
ATOM     55  H14 UNL     1      26.749  -9.072 -34.640  0.00  0.00    +0.000 HD
ENDBRANCH  45  54
BRANCH  49  56
ATOM     56  C13 UNL     1      21.718  -7.391 -35.276  0.00  0.00    +0.000 C 
BRANCH  56  57
ATOM     57  O10 UNL     1      21.879  -7.385 -36.672  0.00  0.00    +0.000 OA
ATOM     58  H22 UNL     1      22.740  -7.838 -36.873  0.00  0.00    +0.000 HD
ENDBRANCH  56  57
ENDBRANCH  49  56
ENDBRANCH  43  44
ENDBRANCH  33  43
ENDBRANCH   1  30
TORSDOF 22
ENDMDL
