MODEL 1
REMARK VINA RESULT:    -5.297      0.000      0.000
REMARK INTER + INTRA:          -6.099
REMARK INTER:                  -5.916
REMARK INTRA:                  -0.183
REMARK UNBOUND:                -0.183
REMARK  Name = resultss/4CJN/ligands/lig_243_t0.pdb
REMARK  2 active torsions:
REMARK  status: ('A' for Active; 'I' for Inactive)
REMARK    1  A    between atoms: N3_12  and  N4_13
REMARK    2  A    between atoms: C9_14  and  C10_15
REMARK                            x       y       z     vdW  Elec       q    Type
REMARK                         _______ _______ _______ _____ _____    ______ ____
ROOT
ATOM      1  O1  UNL     1      27.411 -10.753 -37.744  0.00  0.00    +0.000 OA
ATOM      2  C1  UNL     1      27.651 -10.301 -38.896  0.00  0.00    +0.000 A 
ATOM      3  N1  UNL     1      28.769 -10.706 -39.561  0.00  0.00    +0.000 N 
ATOM      4  C2  UNL     1      29.029 -10.275 -40.827  0.00  0.00    +0.000 A 
ATOM      5  C3  UNL     1      30.178 -10.695 -41.514  0.00  0.00    +0.000 A 
ATOM      6  C4  UNL     1      30.416 -10.247 -42.818  0.00  0.00    +0.000 A 
ATOM      7  C5  UNL     1      29.510  -9.382 -43.441  0.00  0.00    +0.000 A 
ATOM      8  C6  UNL     1      28.363  -8.958 -42.764  0.00  0.00    +0.000 A 
ATOM      9  C7  UNL     1      28.119  -9.401 -41.458  0.00  0.00    +0.000 A 
ATOM     10  N2  UNL     1      27.011  -8.996 -40.789  0.00  0.00    +0.000 NA
ATOM     11  C8  UNL     1      26.760  -9.402 -39.516  0.00  0.00    +0.000 A 
ATOM     12  N3  UNL     1      25.559  -8.957 -38.865  0.00  0.00    +0.000 N 
ATOM     13  H1  UNL     1      29.429 -11.367 -39.089  0.00  0.00    +0.000 HD
ATOM     14  H6  UNL     1      24.684  -8.905 -39.432  0.00  0.00    +0.000 HD
ENDROOT
BRANCH  12  15
ATOM     15  N4  UNL     1      25.501  -8.543 -37.520  0.00  0.00    +0.000 NA
ATOM     16  C9  UNL     1      24.410  -8.146 -36.938  0.00  0.00    +0.000 C 
BRANCH  16  17
ATOM     17  C10 UNL     1      24.433  -7.714 -35.538  0.00  0.00    +0.000 A 
ATOM     18  C11 UNL     1      23.545  -8.130 -34.556  0.00  0.00    +0.000 A 
ATOM     19  C12 UNL     1      23.800  -7.554 -33.305  0.00  0.00    +0.000 A 
ATOM     20  C13 UNL     1      24.884  -6.685 -33.300  0.00  0.00    +0.000 A 
ATOM     21  S1  UNL     1      25.527  -6.634 -34.853  0.00  0.00    +0.000 S 
ENDBRANCH  16  17
ENDBRANCH  12  15
TORSDOF 2
ENDMDL
MODEL 2
REMARK VINA RESULT:    -5.241      3.706      8.225
REMARK INTER + INTRA:          -6.036
REMARK INTER:                  -5.824
REMARK INTRA:                  -0.212
REMARK UNBOUND:                -0.183
REMARK  Name = resultss/4CJN/ligands/lig_243_t0.pdb
REMARK  2 active torsions:
REMARK  status: ('A' for Active; 'I' for Inactive)
REMARK    1  A    between atoms: N3_12  and  N4_13
REMARK    2  A    between atoms: C9_14  and  C10_15
REMARK                            x       y       z     vdW  Elec       q    Type
REMARK                         _______ _______ _______ _____ _____    ______ ____
ROOT
ATOM      1  O1  UNL     1      31.048 -10.109 -38.031  0.00  0.00    +0.000 OA
ATOM      2  C1  UNL     1      29.840  -9.920 -37.725  0.00  0.00    +0.000 A 
ATOM      3  N1  UNL     1      29.448 -10.031 -36.424  0.00  0.00    +0.000 N 
ATOM      4  C2  UNL     1      28.161  -9.782 -36.054  0.00  0.00    +0.000 A 
ATOM      5  C3  UNL     1      27.757  -9.890 -34.715  0.00  0.00    +0.000 A 
ATOM      6  C4  UNL     1      26.431  -9.618 -34.360  0.00  0.00    +0.000 A 
ATOM      7  C5  UNL     1      25.506  -9.236 -35.337  0.00  0.00    +0.000 A 
ATOM      8  C6  UNL     1      25.899  -9.125 -36.674  0.00  0.00    +0.000 A 
ATOM      9  C7  UNL     1      27.224  -9.397 -37.037  0.00  0.00    +0.000 A 
ATOM     10  N2  UNL     1      27.618  -9.296 -38.331  0.00  0.00    +0.000 NA
ATOM     11  C8  UNL     1      28.895  -9.568 -38.709  0.00  0.00    +0.000 A 
ATOM     12  N3  UNL     1      29.260  -9.423 -40.091  0.00  0.00    +0.000 N 
ATOM     13  H1  UNL     1      30.156 -10.301 -35.702  0.00  0.00    +0.000 HD
ATOM     14  H6  UNL     1      28.866  -8.613 -40.620  0.00  0.00    +0.000 HD
ENDROOT
BRANCH  12  15
ATOM     15  N4  UNL     1      30.080 -10.332 -40.787  0.00  0.00    +0.000 NA
ATOM     16  C9  UNL     1      30.862  -9.988 -41.765  0.00  0.00    +0.000 C 
BRANCH  16  17
ATOM     17  C10 UNL     1      31.674 -10.996 -42.452  0.00  0.00    +0.000 A 
ATOM     18  C11 UNL     1      31.178 -12.103 -43.125  0.00  0.00    +0.000 A 
ATOM     19  C12 UNL     1      32.183 -12.901 -43.688  0.00  0.00    +0.000 A 
ATOM     20  C13 UNL     1      33.468 -12.426 -43.457  0.00  0.00    +0.000 A 
ATOM     21  S1  UNL     1      33.354 -11.011 -42.554  0.00  0.00    +0.000 S 
ENDBRANCH  16  17
ENDBRANCH  12  15
TORSDOF 2
ENDMDL
MODEL 3
REMARK VINA RESULT:    -5.237      1.665      2.246
REMARK INTER + INTRA:          -6.032
REMARK INTER:                  -5.886
REMARK INTRA:                  -0.147
REMARK UNBOUND:                -0.183
REMARK  Name = resultss/4CJN/ligands/lig_243_t0.pdb
REMARK  2 active torsions:
REMARK  status: ('A' for Active; 'I' for Inactive)
REMARK    1  A    between atoms: N3_12  and  N4_13
REMARK    2  A    between atoms: C9_14  and  C10_15
REMARK                            x       y       z     vdW  Elec       q    Type
REMARK                         _______ _______ _______ _____ _____    ______ ____
ROOT
ATOM      1  O1  UNL     1      27.160  -7.353 -38.157  0.00  0.00    +0.000 OA
ATOM      2  C1  UNL     1      27.675  -8.196 -38.939  0.00  0.00    +0.000 A 
ATOM      3  N1  UNL     1      27.982  -7.833 -40.216  0.00  0.00    +0.000 N 
ATOM      4  C2  UNL     1      28.587  -8.706 -41.070  0.00  0.00    +0.000 A 
ATOM      5  C3  UNL     1      28.908  -8.331 -42.383  0.00  0.00    +0.000 A 
ATOM      6  C4  UNL     1      29.539  -9.243 -43.236  0.00  0.00    +0.000 A 
ATOM      7  C5  UNL     1      29.853 -10.529 -42.782  0.00  0.00    +0.000 A 
ATOM      8  C6  UNL     1      29.537 -10.911 -41.475  0.00  0.00    +0.000 A 
ATOM      9  C7  UNL     1      28.904 -10.004 -40.617  0.00  0.00    +0.000 A 
ATOM     10  N2  UNL     1      28.590 -10.362 -39.346  0.00  0.00    +0.000 NA
ATOM     11  C8  UNL     1      27.963  -9.504 -38.499  0.00  0.00    +0.000 A 
ATOM     12  N3  UNL     1      27.674  -9.932 -37.159  0.00  0.00    +0.000 N 
ATOM     13  H1  UNL     1      27.756  -6.862 -40.536  0.00  0.00    +0.000 HD
ATOM     14  H6  UNL     1      28.390 -10.508 -36.663  0.00  0.00    +0.000 HD
ENDROOT
BRANCH  12  15
ATOM     15  N4  UNL     1      26.465  -9.660 -36.490  0.00  0.00    +0.000 NA
ATOM     16  C9  UNL     1      26.393  -8.976 -35.388  0.00  0.00    +0.000 C 
BRANCH  16  17
ATOM     17  C10 UNL     1      25.098  -8.748 -34.742  0.00  0.00    +0.000 A 
ATOM     18  C11 UNL     1      24.744  -9.193 -33.475  0.00  0.00    +0.000 A 
ATOM     19  C12 UNL     1      23.440  -8.834 -33.111  0.00  0.00    +0.000 A 
ATOM     20  C13 UNL     1      22.766  -8.111 -34.087  0.00  0.00    +0.000 A 
ATOM     21  S1  UNL     1      23.793  -7.916 -35.404  0.00  0.00    +0.000 S 
ENDBRANCH  16  17
ENDBRANCH  12  15
TORSDOF 2
ENDMDL
MODEL 4
REMARK VINA RESULT:    -5.236      4.108      7.216
REMARK INTER + INTRA:          -6.031
REMARK INTER:                  -5.825
REMARK INTRA:                  -0.206
REMARK UNBOUND:                -0.183
REMARK  Name = resultss/4CJN/ligands/lig_243_t0.pdb
REMARK  2 active torsions:
REMARK  status: ('A' for Active; 'I' for Inactive)
REMARK    1  A    between atoms: N3_12  and  N4_13
REMARK    2  A    between atoms: C9_14  and  C10_15
REMARK                            x       y       z     vdW  Elec       q    Type
REMARK                         _______ _______ _______ _____ _____    ______ ____
ROOT
ATOM      1  O1  UNL     1      27.260 -10.374 -37.060  0.00  0.00    +0.000 OA
ATOM      2  C1  UNL     1      28.333 -10.074 -36.470  0.00  0.00    +0.000 A 
ATOM      3  N1  UNL     1      28.316  -9.807 -35.134  0.00  0.00    +0.000 N 
ATOM      4  C2  UNL     1      29.466  -9.531 -34.458  0.00  0.00    +0.000 A 
ATOM      5  C3  UNL     1      29.451  -9.261 -33.081  0.00  0.00    +0.000 A 
ATOM      6  C4  UNL     1      30.647  -8.991 -32.408  0.00  0.00    +0.000 A 
ATOM      7  C5  UNL     1      31.861  -8.991 -33.104  0.00  0.00    +0.000 A 
ATOM      8  C6  UNL     1      31.886  -9.259 -34.476  0.00  0.00    +0.000 A 
ATOM      9  C7  UNL     1      30.692  -9.528 -35.156  0.00  0.00    +0.000 A 
ATOM     10  N2  UNL     1      30.702  -9.788 -36.488  0.00  0.00    +0.000 NA
ATOM     11  C8  UNL     1      29.554 -10.038 -37.172  0.00  0.00    +0.000 A 
ATOM     12  N3  UNL     1      29.628 -10.327 -38.577  0.00  0.00    +0.000 N 
ATOM     13  H1  UNL     1      27.403  -9.828 -34.624  0.00  0.00    +0.000 HD
ATOM     14  H6  UNL     1      30.416 -10.924 -38.915  0.00  0.00    +0.000 HD
ENDROOT
BRANCH  12  15
ATOM     15  N4  UNL     1      28.729  -9.817 -39.533  0.00  0.00    +0.000 NA
ATOM     16  C9  UNL     1      28.117 -10.555 -40.409  0.00  0.00    +0.000 C 
BRANCH  16  17
ATOM     17  C10 UNL     1      27.207  -9.948 -41.383  0.00  0.00    +0.000 A 
ATOM     18  C11 UNL     1      27.597  -9.245 -42.515  0.00  0.00    +0.000 A 
ATOM     19  C12 UNL     1      26.515  -8.772 -43.268  0.00  0.00    +0.000 A 
ATOM     20  C13 UNL     1      25.275  -9.097 -42.731  0.00  0.00    +0.000 A 
ATOM     21  S1  UNL     1      25.526  -9.976 -41.319  0.00  0.00    +0.000 S 
ENDBRANCH  16  17
ENDBRANCH  12  15
TORSDOF 2
ENDMDL
MODEL 5
REMARK VINA RESULT:    -5.149      2.270      7.979
REMARK INTER + INTRA:          -5.934
REMARK INTER:                  -5.718
REMARK INTRA:                  -0.216
REMARK UNBOUND:                -0.183
REMARK  Name = resultss/4CJN/ligands/lig_243_t0.pdb
REMARK  2 active torsions:
REMARK  status: ('A' for Active; 'I' for Inactive)
REMARK    1  A    between atoms: N3_12  and  N4_13
REMARK    2  A    between atoms: C9_14  and  C10_15
REMARK                            x       y       z     vdW  Elec       q    Type
REMARK                         _______ _______ _______ _____ _____    ______ ____
ROOT
ATOM      1  O1  UNL     1      24.623  -8.863 -38.768  0.00  0.00    +0.000 OA
ATOM      2  C1  UNL     1      24.709  -8.530 -37.556  0.00  0.00    +0.000 A 
ATOM      3  N1  UNL     1      23.700  -7.820 -36.977  0.00  0.00    +0.000 N 
ATOM      4  C2  UNL     1      23.739  -7.490 -35.656  0.00  0.00    +0.000 A 
ATOM      5  C3  UNL     1      22.698  -6.764 -35.058  0.00  0.00    +0.000 A 
ATOM      6  C4  UNL     1      22.758  -6.447 -33.697  0.00  0.00    +0.000 A 
ATOM      7  C5  UNL     1      23.854  -6.855 -32.928  0.00  0.00    +0.000 A 
ATOM      8  C6  UNL     1      24.895  -7.579 -33.515  0.00  0.00    +0.000 A 
ATOM      9  C7  UNL     1      24.843  -7.898 -34.877  0.00  0.00    +0.000 A 
ATOM     10  N2  UNL     1      25.848  -8.598 -35.460  0.00  0.00    +0.000 NA
ATOM     11  C8  UNL     1      25.826  -8.908 -36.783  0.00  0.00    +0.000 A 
ATOM     12  N3  UNL     1      26.909  -9.669 -37.341  0.00  0.00    +0.000 N 
ATOM     13  H1  UNL     1      22.879  -7.537 -37.562  0.00  0.00    +0.000 HD
ATOM     14  H6  UNL     1      27.305 -10.449 -36.770  0.00  0.00    +0.000 HD
ENDROOT
BRANCH  12  15
ATOM     15  N4  UNL     1      27.498  -9.400 -38.591  0.00  0.00    +0.000 NA
ATOM     16  C9  UNL     1      27.751 -10.315 -39.477  0.00  0.00    +0.000 C 
BRANCH  16  17
ATOM     17  C10 UNL     1      28.382  -9.958 -40.750  0.00  0.00    +0.000 A 
ATOM     18  C11 UNL     1      29.251 -10.766 -41.470  0.00  0.00    +0.000 A 
ATOM     19  C12 UNL     1      29.706 -10.169 -42.652  0.00  0.00    +0.000 A 
ATOM     20  C13 UNL     1      29.200  -8.893 -42.864  0.00  0.00    +0.000 A 
ATOM     21  S1  UNL     1      28.184  -8.507 -41.580  0.00  0.00    +0.000 S 
ENDBRANCH  16  17
ENDBRANCH  12  15
TORSDOF 2
ENDMDL
MODEL 6
REMARK VINA RESULT:    -5.100      2.572      7.916
REMARK INTER + INTRA:          -5.879
REMARK INTER:                  -5.656
REMARK INTRA:                  -0.223
REMARK UNBOUND:                -0.183
REMARK  Name = resultss/4CJN/ligands/lig_243_t0.pdb
REMARK  2 active torsions:
REMARK  status: ('A' for Active; 'I' for Inactive)
REMARK    1  A    between atoms: N3_12  and  N4_13
REMARK    2  A    between atoms: C9_14  and  C10_15
REMARK                            x       y       z     vdW  Elec       q    Type
REMARK                         _______ _______ _______ _____ _____    ______ ____
ROOT
ATOM      1  O1  UNL     1      27.241 -10.227 -36.392  0.00  0.00    +0.000 OA
ATOM      2  C1  UNL     1      26.496  -9.359 -35.863  0.00  0.00    +0.000 A 
ATOM      3  N1  UNL     1      25.635  -9.722 -34.872  0.00  0.00    +0.000 N 
ATOM      4  C2  UNL     1      24.855  -8.798 -34.244  0.00  0.00    +0.000 A 
ATOM      5  C3  UNL     1      23.971  -9.169 -33.220  0.00  0.00    +0.000 A 
ATOM      6  C4  UNL     1      23.190  -8.199 -32.584  0.00  0.00    +0.000 A 
ATOM      7  C5  UNL     1      23.287  -6.856 -32.966  0.00  0.00    +0.000 A 
ATOM      8  C6  UNL     1      24.165  -6.477 -33.985  0.00  0.00    +0.000 A 
ATOM      9  C7  UNL     1      24.949  -7.443 -34.627  0.00  0.00    +0.000 A 
ATOM     10  N2  UNL     1      25.803  -7.088 -35.620  0.00  0.00    +0.000 NA
ATOM     11  C8  UNL     1      26.565  -8.010 -36.266  0.00  0.00    +0.000 A 
ATOM     12  N3  UNL     1      27.466  -7.573 -37.296  0.00  0.00    +0.000 N 
ATOM     13  H1  UNL     1      25.585 -10.727 -34.585  0.00  0.00    +0.000 HD
ATOM     14  H6  UNL     1      27.988  -6.681 -37.144  0.00  0.00    +0.000 HD
ENDROOT
BRANCH  12  15
ATOM     15  N4  UNL     1      27.656  -8.251 -38.515  0.00  0.00    +0.000 NA
ATOM     16  C9  UNL     1      28.798  -8.314 -39.131  0.00  0.00    +0.000 C 
BRANCH  16  17
ATOM     17  C10 UNL     1      28.912  -9.026 -40.407  0.00  0.00    +0.000 A 
ATOM     18  C11 UNL     1      28.009  -8.940 -41.457  0.00  0.00    +0.000 A 
ATOM     19  C12 UNL     1      28.367  -9.731 -42.556  0.00  0.00    +0.000 A 
ATOM     20  C13 UNL     1      29.547 -10.441 -42.372  0.00  0.00    +0.000 A 
ATOM     21  S1  UNL     1      30.147 -10.083 -40.843  0.00  0.00    +0.000 S 
ENDBRANCH  16  17
ENDBRANCH  12  15
TORSDOF 2
ENDMDL
MODEL 7
REMARK VINA RESULT:    -5.072      3.437      4.590
REMARK INTER + INTRA:          -5.847
REMARK INTER:                  -5.575
REMARK INTRA:                  -0.272
REMARK UNBOUND:                -0.183
REMARK  Name = resultss/4CJN/ligands/lig_243_t0.pdb
REMARK  2 active torsions:
REMARK  status: ('A' for Active; 'I' for Inactive)
REMARK    1  A    between atoms: N3_12  and  N4_13
REMARK    2  A    between atoms: C9_14  and  C10_15
REMARK                            x       y       z     vdW  Elec       q    Type
REMARK                         _______ _______ _______ _____ _____    ______ ____
ROOT
ATOM      1  O1  UNL     1      28.555 -10.561 -40.643  0.00  0.00    +0.000 OA
ATOM      2  C1  UNL     1      29.718 -10.644 -41.121  0.00  0.00    +0.000 A 
ATOM      3  N1  UNL     1      30.010 -11.628 -42.018  0.00  0.00    +0.000 N 
ATOM      4  C2  UNL     1      31.242 -11.712 -42.593  0.00  0.00    +0.000 A 
ATOM      5  C3  UNL     1      31.542 -12.721 -43.521  0.00  0.00    +0.000 A 
ATOM      6  C4  UNL     1      32.812 -12.779 -44.104  0.00  0.00    +0.000 A 
ATOM      7  C5  UNL     1      33.786 -11.832 -43.767  0.00  0.00    +0.000 A 
ATOM      8  C6  UNL     1      33.495 -10.824 -42.843  0.00  0.00    +0.000 A 
ATOM      9  C7  UNL     1      32.227 -10.761 -42.254  0.00  0.00    +0.000 A 
ATOM     10  N2  UNL     1      31.933  -9.788 -41.355  0.00  0.00    +0.000 NA
ATOM     11  C8  UNL     1      30.713  -9.715 -40.760  0.00  0.00    +0.000 A 
ATOM     12  N3  UNL     1      30.452  -8.651 -39.831  0.00  0.00    +0.000 N 
ATOM     13  H1  UNL     1      29.266 -12.319 -42.274  0.00  0.00    +0.000 HD
ATOM     14  H6  UNL     1      30.831  -7.702 -40.052  0.00  0.00    +0.000 HD
ENDROOT
BRANCH  12  15
ATOM     15  N4  UNL     1      29.757  -8.818 -38.617  0.00  0.00    +0.000 NA
ATOM     16  C9  UNL     1      30.237  -9.464 -37.599  0.00  0.00    +0.000 C 
BRANCH  16  17
ATOM     17  C10 UNL     1      29.444  -9.610 -36.375  0.00  0.00    +0.000 A 
ATOM     18  C11 UNL     1      29.951  -9.592 -35.083  0.00  0.00    +0.000 A 
ATOM     19  C12 UNL     1      28.965  -9.756 -34.102  0.00  0.00    +0.000 A 
ATOM     20  C13 UNL     1      27.684  -9.907 -34.619  0.00  0.00    +0.000 A 
ATOM     21  S1  UNL     1      27.778  -9.833 -36.296  0.00  0.00    +0.000 S 
ENDBRANCH  16  17
ENDBRANCH  12  15
TORSDOF 2
ENDMDL
MODEL 8
REMARK VINA RESULT:    -5.049      3.511      7.382
REMARK INTER + INTRA:          -5.822
REMARK INTER:                  -5.619
REMARK INTRA:                  -0.203
REMARK UNBOUND:                -0.183
REMARK  Name = resultss/4CJN/ligands/lig_243_t0.pdb
REMARK  2 active torsions:
REMARK  status: ('A' for Active; 'I' for Inactive)
REMARK    1  A    between atoms: N3_12  and  N4_13
REMARK    2  A    between atoms: C9_14  and  C10_15
REMARK                            x       y       z     vdW  Elec       q    Type
REMARK                         _______ _______ _______ _____ _____    ______ ____
ROOT
ATOM      1  O1  UNL     1      25.435  -8.899 -37.200  0.00  0.00    +0.000 OA
ATOM      2  C1  UNL     1      26.417  -9.032 -36.421  0.00  0.00    +0.000 A 
ATOM      3  N1  UNL     1      26.371  -8.477 -35.177  0.00  0.00    +0.000 N 
ATOM      4  C2  UNL     1      27.394  -8.646 -34.294  0.00  0.00    +0.000 A 
ATOM      5  C3  UNL     1      27.346  -8.080 -33.011  0.00  0.00    +0.000 A 
ATOM      6  C4  UNL     1      28.405  -8.278 -32.119  0.00  0.00    +0.000 A 
ATOM      7  C5  UNL     1      29.513  -9.042 -32.501  0.00  0.00    +0.000 A 
ATOM      8  C6  UNL     1      29.569  -9.611 -33.777  0.00  0.00    +0.000 A 
ATOM      9  C7  UNL     1      28.514  -9.415 -34.675  0.00  0.00    +0.000 A 
ATOM     10  N2  UNL     1      28.557  -9.959 -35.918  0.00  0.00    +0.000 NA
ATOM     11  C8  UNL     1      27.551  -9.772 -36.812  0.00  0.00    +0.000 A 
ATOM     12  N3  UNL     1      27.642 -10.389 -38.105  0.00  0.00    +0.000 N 
ATOM     13  H1  UNL     1      25.528  -7.922 -34.900  0.00  0.00    +0.000 HD
ATOM     14  H6  UNL     1      28.030 -11.357 -38.160  0.00  0.00    +0.000 HD
ENDROOT
BRANCH  12  15
ATOM     15  N4  UNL     1      27.281  -9.753 -39.309  0.00  0.00    +0.000 NA
ATOM     16  C9  UNL     1      26.917 -10.393 -40.378  0.00  0.00    +0.000 C 
BRANCH  16  17
ATOM     17  C10 UNL     1      26.572  -9.659 -41.598  0.00  0.00    +0.000 A 
ATOM     18  C11 UNL     1      27.483  -9.147 -42.511  0.00  0.00    +0.000 A 
ATOM     19  C12 UNL     1      26.874  -8.488 -43.586  0.00  0.00    +0.000 A 
ATOM     20  C13 UNL     1      25.486  -8.477 -43.521  0.00  0.00    +0.000 A 
ATOM     21  S1  UNL     1      25.016  -9.290 -42.126  0.00  0.00    +0.000 S 
ENDBRANCH  16  17
ENDBRANCH  12  15
TORSDOF 2
ENDMDL
MODEL 9
REMARK VINA RESULT:    -4.908      3.238      7.492
REMARK INTER + INTRA:          -5.665
REMARK INTER:                  -5.452
REMARK INTRA:                  -0.213
REMARK UNBOUND:                -0.183
REMARK  Name = resultss/4CJN/ligands/lig_243_t0.pdb
REMARK  2 active torsions:
REMARK  status: ('A' for Active; 'I' for Inactive)
REMARK    1  A    between atoms: N3_12  and  N4_13
REMARK    2  A    between atoms: C9_14  and  C10_15
REMARK                            x       y       z     vdW  Elec       q    Type
REMARK                         _______ _______ _______ _____ _____    ______ ____
ROOT
ATOM      1  O1  UNL     1      24.903  -8.510 -39.869  0.00  0.00    +0.000 OA
ATOM      2  C1  UNL     1      25.642  -8.806 -38.892  0.00  0.00    +0.000 A 
ATOM      3  N1  UNL     1      25.199  -8.594 -37.621  0.00  0.00    +0.000 N 
ATOM      4  C2  UNL     1      25.952  -8.952 -36.544  0.00  0.00    +0.000 A 
ATOM      5  C3  UNL     1      25.494  -8.738 -35.235  0.00  0.00    +0.000 A 
ATOM      6  C4  UNL     1      26.283  -9.125 -34.146  0.00  0.00    +0.000 A 
ATOM      7  C5  UNL     1      27.529  -9.726 -34.359  0.00  0.00    +0.000 A 
ATOM      8  C6  UNL     1      27.993  -9.942 -35.659  0.00  0.00    +0.000 A 
ATOM      9  C7  UNL     1      27.210  -9.556 -36.753  0.00  0.00    +0.000 A 
ATOM     10  N2  UNL     1      27.649  -9.759 -38.021  0.00  0.00    +0.000 NA
ATOM     11  C8  UNL     1      26.913  -9.381 -39.099  0.00  0.00    +0.000 A 
ATOM     12  N3  UNL     1      27.421  -9.639 -40.417  0.00  0.00    +0.000 N 
ATOM     13  H1  UNL     1      24.258  -8.159 -37.478  0.00  0.00    +0.000 HD
ATOM     14  H6  UNL     1      27.911 -10.546 -40.585  0.00  0.00    +0.000 HD
ENDROOT
BRANCH  12  15
ATOM     15  N4  UNL     1      27.337  -8.725 -41.486  0.00  0.00    +0.000 NA
ATOM     16  C9  UNL     1      27.065  -9.072 -42.707  0.00  0.00    +0.000 C 
BRANCH  16  17
ATOM     17  C10 UNL     1      27.013  -8.064 -43.768  0.00  0.00    +0.000 A 
ATOM     18  C11 UNL     1      28.105  -7.595 -44.485  0.00  0.00    +0.000 A 
ATOM     19  C12 UNL     1      27.763  -6.629 -45.439  0.00  0.00    +0.000 A 
ATOM     20  C13 UNL     1      26.406  -6.334 -45.474  0.00  0.00    +0.000 A 
ATOM     21  S1  UNL     1      25.630  -7.276 -44.318  0.00  0.00    +0.000 S 
ENDBRANCH  16  17
ENDBRANCH  12  15
TORSDOF 2
ENDMDL
