MODEL 1
REMARK VINA RESULT:    -6.575      0.000      0.000
REMARK INTER + INTRA:          -9.185
REMARK INTER:                  -8.304
REMARK INTRA:                  -0.881
REMARK UNBOUND:                -0.881
REMARK  Name = resultss/4CJN/ligands/lig_248_t2.pdb
REMARK  7 active torsions:
REMARK  status: ('A' for Active; 'I' for Inactive)
REMARK    1  A    between atoms: C1_1  and  C2_2
REMARK    2  A    between atoms: C5_5  and  N1_6
REMARK    3  A    between atoms: N1_6  and  C6_7
REMARK    4  A    between atoms: C6_7  and  O1_8
REMARK    5  A    between atoms: C7_9  and  N2_10
REMARK    6  A    between atoms: C9_13  and  C10_14
REMARK    7  A    between atoms: C17_22  and  N4_23
REMARK                            x       y       z     vdW  Elec       q    Type
REMARK                         _______ _______ _______ _____ _____    ______ ____
ROOT
ATOM      1  C6  UNL     1      23.966  -8.884 -42.170  0.00  0.00    +0.000 C 
ATOM      2  C7  UNL     1      24.249  -7.689 -42.710  0.00  0.00    +0.000 C 
ENDROOT
BRANCH   2   3
ATOM      3  N2  UNL     1      24.194  -7.461 -44.131  0.00  0.00    +0.000 N 
ATOM      4  C8  UNL     1      22.969  -7.332 -44.738  0.00  0.00    +0.000 A 
ATOM      5  O2  UNL     1      21.907  -7.427 -44.061  0.00  0.00    +0.000 OA
ATOM      6  C9  UNL     1      22.891  -7.088 -46.119  0.00  0.00    +0.000 A 
ATOM      7  C10 UNL     1      21.569  -6.950 -46.812  0.00  0.00    +0.000 C 
ATOM      8  N3  UNL     1      24.035  -6.970 -46.839  0.00  0.00    +0.000 NA
ATOM      9  C11 UNL     1      25.254  -7.082 -46.258  0.00  0.00    +0.000 A 
ATOM     10  C12 UNL     1      26.409  -6.952 -47.038  0.00  0.00    +0.000 A 
ATOM     11  C13 UNL     1      27.669  -7.068 -46.448  0.00  0.00    +0.000 A 
ATOM     12  C14 UNL     1      27.780  -7.315 -45.078  0.00  0.00    +0.000 A 
ATOM     13  C15 UNL     1      26.633  -7.448 -44.290  0.00  0.00    +0.000 A 
ATOM     14  C16 UNL     1      25.348  -7.330 -44.869  0.00  0.00    +0.000 A 
ENDBRANCH   2   3
BRANCH   1  15
ATOM     15  N1  UNL     1      24.025  -9.047 -40.744  0.00  0.00    +0.000 N 
ATOM     16  H6  UNL     1      23.141  -8.988 -40.188  0.00  0.00    +0.000 HD
BRANCH  15  21
ATOM     17  C1  UNL     1      29.080  -9.969 -38.163  0.00  0.00    +0.000 C 
ATOM     18  C2  UNL     1      27.739  -9.770 -38.802  0.00  0.00    +0.000 A 
ATOM     19  C3  UNL     1      27.441 -10.385 -40.023  0.00  0.00    +0.000 A 
ATOM     20  C4  UNL     1      26.208 -10.167 -40.639  0.00  0.00    +0.000 A 
ATOM     21  C5  UNL     1      25.248  -9.331 -40.045  0.00  0.00    +0.000 A 
ATOM     22  C17 UNL     1      25.544  -8.694 -38.815  0.00  0.00    +0.000 A 
ATOM     23  C18 UNL     1      26.797  -8.913 -38.214  0.00  0.00    +0.000 A 
BRANCH  22  24
ATOM     24  N4  UNL     1      24.584  -7.852 -38.151  0.00  0.00    +0.000 N 
ATOM     25  O3  UNL     1      24.200  -8.113 -36.993  0.00  0.00    +0.000 OA
ATOM     26  O4  UNL     1      24.201  -6.660 -38.722  0.00  0.00    +0.000 OA
ENDBRANCH  22  24
ENDBRANCH  15  21
ENDBRANCH   1  15
BRANCH   1  27
ATOM     27  O1  UNL     1      23.608  -9.973 -42.970  0.00  0.00    +0.000 OA
ATOM     28  H7  UNL     1      22.661 -10.133 -43.294  0.00  0.00    +0.000 HD
ENDBRANCH   1  27
TORSDOF 5
ENDMDL
MODEL 2
REMARK VINA RESULT:    -6.356      2.656      3.490
REMARK INTER + INTRA:          -8.909
REMARK INTER:                  -8.021
REMARK INTRA:                  -0.889
REMARK UNBOUND:                -0.881
REMARK  Name = resultss/4CJN/ligands/lig_248_t2.pdb
REMARK  7 active torsions:
REMARK  status: ('A' for Active; 'I' for Inactive)
REMARK    1  A    between atoms: C1_1  and  C2_2
REMARK    2  A    between atoms: C5_5  and  N1_6
REMARK    3  A    between atoms: N1_6  and  C6_7
REMARK    4  A    between atoms: C6_7  and  O1_8
REMARK    5  A    between atoms: C7_9  and  N2_10
REMARK    6  A    between atoms: C9_13  and  C10_14
REMARK    7  A    between atoms: C17_22  and  N4_23
REMARK                            x       y       z     vdW  Elec       q    Type
REMARK                         _______ _______ _______ _____ _____    ______ ____
ROOT
ATOM      1  C6  UNL     1      25.226  -8.767 -42.457  0.00  0.00    +0.000 C 
ATOM      2  C7  UNL     1      24.793  -7.540 -42.785  0.00  0.00    +0.000 C 
ENDROOT
BRANCH   2   3
ATOM      3  N2  UNL     1      23.666  -7.337 -43.659  0.00  0.00    +0.000 N 
ATOM      4  C8  UNL     1      22.411  -7.230 -43.114  0.00  0.00    +0.000 A 
ATOM      5  O2  UNL     1      22.247  -7.326 -41.865  0.00  0.00    +0.000 OA
ATOM      6  C9  UNL     1      21.300  -7.011 -43.945  0.00  0.00    +0.000 A 
ATOM      7  C10 UNL     1      19.916  -6.898 -43.381  0.00  0.00    +0.000 C 
ATOM      8  N3  UNL     1      21.484  -6.893 -45.284  0.00  0.00    +0.000 NA
ATOM      9  C11 UNL     1      22.716  -6.983 -45.842  0.00  0.00    +0.000 A 
ATOM     10  C12 UNL     1      22.861  -6.854 -47.228  0.00  0.00    +0.000 A 
ATOM     11  C13 UNL     1      24.126  -6.947 -47.811  0.00  0.00    +0.000 A 
ATOM     12  C14 UNL     1      25.250  -7.170 -47.012  0.00  0.00    +0.000 A 
ATOM     13  C15 UNL     1      25.117  -7.302 -45.627  0.00  0.00    +0.000 A 
ATOM     14  C16 UNL     1      23.844  -7.207 -45.018  0.00  0.00    +0.000 A 
ENDBRANCH   2   3
BRANCH   1  15
ATOM     15  N1  UNL     1      26.347  -8.907 -41.569  0.00  0.00    +0.000 N 
ATOM     16  H6  UNL     1      26.237  -8.638 -40.564  0.00  0.00    +0.000 HD
BRANCH  15  21
ATOM     17  C1  UNL     1      31.559 -10.762 -43.139  0.00  0.00    +0.000 C 
ATOM     18  C2  UNL     1      30.176 -10.323 -42.758  0.00  0.00    +0.000 A 
ATOM     19  C3  UNL     1      29.523  -9.329 -43.495  0.00  0.00    +0.000 A 
ATOM     20  C4  UNL     1      28.254  -8.891 -43.116  0.00  0.00    +0.000 A 
ATOM     21  C5  UNL     1      27.612  -9.440 -41.993  0.00  0.00    +0.000 A 
ATOM     22  C17 UNL     1      28.269 -10.439 -41.234  0.00  0.00    +0.000 A 
ATOM     23  C18 UNL     1      29.555 -10.858 -41.621  0.00  0.00    +0.000 A 
BRANCH  22  24
ATOM     24  N4  UNL     1      27.643 -11.054 -40.093  0.00  0.00    +0.000 N 
ATOM     25  O3  UNL     1      27.303 -10.369 -39.107  0.00  0.00    +0.000 OA
ATOM     26  O4  UNL     1      27.265 -12.376 -40.142  0.00  0.00    +0.000 OA
ENDBRANCH  22  24
ENDBRANCH  15  21
ENDBRANCH   1  15
BRANCH   1  27
ATOM     27  O1  UNL     1      24.601  -9.913 -42.958  0.00  0.00    +0.000 OA
ATOM     28  H7  UNL     1      23.633  -9.928 -43.254  0.00  0.00    +0.000 HD
ENDBRANCH   1  27
TORSDOF 5
ENDMDL
MODEL 3
REMARK VINA RESULT:    -6.215      1.760      2.207
REMARK INTER + INTRA:          -8.731
REMARK INTER:                  -7.668
REMARK INTRA:                  -1.063
REMARK UNBOUND:                -0.881
REMARK  Name = resultss/4CJN/ligands/lig_248_t2.pdb
REMARK  7 active torsions:
REMARK  status: ('A' for Active; 'I' for Inactive)
REMARK    1  A    between atoms: C1_1  and  C2_2
REMARK    2  A    between atoms: C5_5  and  N1_6
REMARK    3  A    between atoms: N1_6  and  C6_7
REMARK    4  A    between atoms: C6_7  and  O1_8
REMARK    5  A    between atoms: C7_9  and  N2_10
REMARK    6  A    between atoms: C9_13  and  C10_14
REMARK    7  A    between atoms: C17_22  and  N4_23
REMARK                            x       y       z     vdW  Elec       q    Type
REMARK                         _______ _______ _______ _____ _____    ______ ____
ROOT
ATOM      1  C6  UNL     1      23.919  -8.874 -42.173  0.00  0.00    +0.000 C 
ATOM      2  C7  UNL     1      23.970  -7.651 -42.724  0.00  0.00    +0.000 C 
ENDROOT
BRANCH   2   3
ATOM      3  N2  UNL     1      23.955  -7.455 -44.150  0.00  0.00    +0.000 N 
ATOM      4  C8  UNL     1      22.748  -7.330 -44.792  0.00  0.00    +0.000 A 
ATOM      5  O2  UNL     1      21.668  -7.403 -44.142  0.00  0.00    +0.000 OA
ATOM      6  C9  UNL     1      22.709  -7.117 -46.180  0.00  0.00    +0.000 A 
ATOM      7  C10 UNL     1      21.408  -6.985 -46.912  0.00  0.00    +0.000 C 
ATOM      8  N3  UNL     1      23.873  -7.024 -46.872  0.00  0.00    +0.000 NA
ATOM      9  C11 UNL     1      25.075  -7.132 -46.256  0.00  0.00    +0.000 A 
ATOM     10  C12 UNL     1      26.252  -7.028 -47.007  0.00  0.00    +0.000 A 
ATOM     11  C13 UNL     1      27.494  -7.139 -46.380  0.00  0.00    +0.000 A 
ATOM     12  C14 UNL     1      27.567  -7.356 -45.003  0.00  0.00    +0.000 A 
ATOM     13  C15 UNL     1      26.398  -7.464 -44.243  0.00  0.00    +0.000 A 
ATOM     14  C16 UNL     1      25.130  -7.349 -44.859  0.00  0.00    +0.000 A 
ENDBRANCH   2   3
BRANCH   1  15
ATOM     15  N1  UNL     1      23.924  -9.006 -40.743  0.00  0.00    +0.000 N 
ATOM     16  H6  UNL     1      23.143  -9.524 -40.277  0.00  0.00    +0.000 HD
BRANCH  15  21
ATOM     17  C1  UNL     1      28.014  -7.100 -37.178  0.00  0.00    +0.000 C 
ATOM     18  C2  UNL     1      26.969  -7.563 -38.150  0.00  0.00    +0.000 A 
ATOM     19  C3  UNL     1      25.698  -6.980 -38.149  0.00  0.00    +0.000 A 
ATOM     20  C4  UNL     1      24.713  -7.439 -39.024  0.00  0.00    +0.000 A 
ATOM     21  C5  UNL     1      24.981  -8.489 -39.919  0.00  0.00    +0.000 A 
ATOM     22  C17 UNL     1      26.262  -9.093 -39.919  0.00  0.00    +0.000 A 
ATOM     23  C18 UNL     1      27.239  -8.629 -39.019  0.00  0.00    +0.000 A 
BRANCH  22  24
ATOM     24  N4  UNL     1      26.596 -10.152 -40.834  0.00  0.00    +0.000 N 
ATOM     25  O3  UNL     1      25.931 -11.208 -40.859  0.00  0.00    +0.000 OA
ATOM     26  O4  UNL     1      27.552  -9.951 -41.804  0.00  0.00    +0.000 OA
ENDBRANCH  22  24
ENDBRANCH  15  21
ENDBRANCH   1  15
BRANCH   1  27
ATOM     27  O1  UNL     1      23.854 -10.022 -42.968  0.00  0.00    +0.000 OA
ATOM     28  H7  UNL     1      24.646 -10.377 -43.491  0.00  0.00    +0.000 HD
ENDBRANCH   1  27
TORSDOF 5
ENDMDL
MODEL 4
REMARK VINA RESULT:    -6.206      1.833      7.044
REMARK INTER + INTRA:          -8.720
REMARK INTER:                  -8.517
REMARK INTRA:                  -0.203
REMARK UNBOUND:                -0.881
REMARK  Name = resultss/4CJN/ligands/lig_248_t2.pdb
REMARK  7 active torsions:
REMARK  status: ('A' for Active; 'I' for Inactive)
REMARK    1  A    between atoms: C1_1  and  C2_2
REMARK    2  A    between atoms: C5_5  and  N1_6
REMARK    3  A    between atoms: N1_6  and  C6_7
REMARK    4  A    between atoms: C6_7  and  O1_8
REMARK    5  A    between atoms: C7_9  and  N2_10
REMARK    6  A    between atoms: C9_13  and  C10_14
REMARK    7  A    between atoms: C17_22  and  N4_23
REMARK                            x       y       z     vdW  Elec       q    Type
REMARK                         _______ _______ _______ _____ _____    ______ ____
ROOT
ATOM      1  C6  UNL     1      24.427  -8.502 -43.285  0.00  0.00    +0.000 C 
ATOM      2  C7  UNL     1      25.274  -7.804 -42.514  0.00  0.00    +0.000 C 
ENDROOT
BRANCH   2   3
ATOM      3  N2  UNL     1      25.903  -8.381 -41.353  0.00  0.00    +0.000 N 
ATOM      4  C8  UNL     1      25.309  -8.221 -40.126  0.00  0.00    +0.000 A 
ATOM      5  O2  UNL     1      24.236  -7.563 -40.015  0.00  0.00    +0.000 OA
ATOM      6  C9  UNL     1      25.893  -8.792 -38.983  0.00  0.00    +0.000 A 
ATOM      7  C10 UNL     1      25.274  -8.628 -37.628  0.00  0.00    +0.000 C 
ATOM      8  N3  UNL     1      27.037  -9.511 -39.109  0.00  0.00    +0.000 NA
ATOM      9  C11 UNL     1      27.633  -9.691 -40.313  0.00  0.00    +0.000 A 
ATOM     10  C12 UNL     1      28.811 -10.441 -40.399  0.00  0.00    +0.000 A 
ATOM     11  C13 UNL     1      29.432 -10.631 -41.635  0.00  0.00    +0.000 A 
ATOM     12  C14 UNL     1      28.880 -10.071 -42.789  0.00  0.00    +0.000 A 
ATOM     13  C15 UNL     1      27.704  -9.319 -42.715  0.00  0.00    +0.000 A 
ATOM     14  C16 UNL     1      27.058  -9.119 -41.472  0.00  0.00    +0.000 A 
ENDBRANCH   2   3
BRANCH   1  15
ATOM     15  N1  UNL     1      23.842  -7.876 -44.438  0.00  0.00    +0.000 N 
ATOM     16  H6  UNL     1      22.809  -7.711 -44.459  0.00  0.00    +0.000 HD
BRANCH  15  21
ATOM     17  C1  UNL     1      27.087  -6.395 -48.949  0.00  0.00    +0.000 C 
ATOM     18  C2  UNL     1      26.228  -6.725 -47.765  0.00  0.00    +0.000 A 
ATOM     19  C3  UNL     1      26.803  -6.902 -46.502  0.00  0.00    +0.000 A 
ATOM     20  C4  UNL     1      26.009  -7.250 -45.409  0.00  0.00    +0.000 A 
ATOM     21  C5  UNL     1      24.623  -7.426 -45.558  0.00  0.00    +0.000 A 
ATOM     22  C17 UNL     1      24.032  -7.261 -46.834  0.00  0.00    +0.000 A 
ATOM     23  C18 UNL     1      24.849  -6.925 -47.929  0.00  0.00    +0.000 A 
BRANCH  22  24
ATOM     24  N4  UNL     1      22.614  -7.402 -47.033  0.00  0.00    +0.000 N 
ATOM     25  O3  UNL     1      21.823  -7.306 -46.073  0.00  0.00    +0.000 OA
ATOM     26  O4  UNL     1      22.100  -7.483 -48.308  0.00  0.00    +0.000 OA
ENDBRANCH  22  24
ENDBRANCH  15  21
ENDBRANCH   1  15
BRANCH   1  27
ATOM     27  O1  UNL     1      24.108  -9.830 -42.991  0.00  0.00    +0.000 OA
ATOM     28  H7  UNL     1      23.397 -10.351 -43.490  0.00  0.00    +0.000 HD
ENDBRANCH   1  27
TORSDOF 5
ENDMDL
MODEL 5
REMARK VINA RESULT:    -6.180      3.192      5.186
REMARK INTER + INTRA:          -8.687
REMARK INTER:                  -7.850
REMARK INTRA:                  -0.837
REMARK UNBOUND:                -0.881
REMARK  Name = resultss/4CJN/ligands/lig_248_t2.pdb
REMARK  7 active torsions:
REMARK  status: ('A' for Active; 'I' for Inactive)
REMARK    1  A    between atoms: C1_1  and  C2_2
REMARK    2  A    between atoms: C5_5  and  N1_6
REMARK    3  A    between atoms: N1_6  and  C6_7
REMARK    4  A    between atoms: C6_7  and  O1_8
REMARK    5  A    between atoms: C7_9  and  N2_10
REMARK    6  A    between atoms: C9_13  and  C10_14
REMARK    7  A    between atoms: C17_22  and  N4_23
REMARK                            x       y       z     vdW  Elec       q    Type
REMARK                         _______ _______ _______ _____ _____    ______ ____
ROOT
ATOM      1  C6  UNL     1      27.022  -9.177 -38.291  0.00  0.00    +0.000 C 
ATOM      2  C7  UNL     1      26.880 -10.106 -39.248  0.00  0.00    +0.000 C 
ENDROOT
BRANCH   2   3
ATOM      3  N2  UNL     1      27.005  -9.787 -40.647  0.00  0.00    +0.000 N 
ATOM      4  C8  UNL     1      25.899  -9.351 -41.332  0.00  0.00    +0.000 A 
ATOM      5  O2  UNL     1      24.785  -9.245 -40.747  0.00  0.00    +0.000 OA
ATOM      6  C9  UNL     1      26.003  -9.014 -42.692  0.00  0.00    +0.000 A 
ATOM      7  C10 UNL     1      24.812  -8.542 -43.470  0.00  0.00    +0.000 C 
ATOM      8  N3  UNL     1      27.205  -9.114 -43.312  0.00  0.00    +0.000 NA
ATOM      9  C11 UNL     1      28.313  -9.532 -42.651  0.00  0.00    +0.000 A 
ATOM     10  C12 UNL     1      29.534  -9.619 -43.329  0.00  0.00    +0.000 A 
ATOM     11  C13 UNL     1      30.679 -10.050 -42.656  0.00  0.00    +0.000 A 
ATOM     12  C14 UNL     1      30.608 -10.396 -41.305  0.00  0.00    +0.000 A 
ATOM     13  C15 UNL     1      29.393 -10.314 -40.618  0.00  0.00    +0.000 A 
ATOM     14  C16 UNL     1      28.223  -9.877 -41.282  0.00  0.00    +0.000 A 
ENDBRANCH   2   3
BRANCH   1  15
ATOM     15  N1  UNL     1      26.899  -9.558 -36.911  0.00  0.00    +0.000 N 
ATOM     16  H6  UNL     1      25.955  -9.806 -36.534  0.00  0.00    +0.000 HD
BRANCH  15  21
ATOM     17  C1  UNL     1      31.482  -9.610 -33.437  0.00  0.00    +0.000 C 
ATOM     18  C2  UNL     1      30.283  -9.655 -34.337  0.00  0.00    +0.000 A 
ATOM     19  C3  UNL     1      30.443  -9.673 -35.727  0.00  0.00    +0.000 A 
ATOM     20  C4  UNL     1      29.328  -9.672 -36.564  0.00  0.00    +0.000 A 
ATOM     21  C5  UNL     1      28.029  -9.654 -36.028  0.00  0.00    +0.000 A 
ATOM     22  C17 UNL     1      27.856  -9.624 -34.623  0.00  0.00    +0.000 A 
ATOM     23  C18 UNL     1      28.991  -9.610 -33.792  0.00  0.00    +0.000 A 
BRANCH  22  24
ATOM     24  N4  UNL     1      26.547  -9.634 -34.024  0.00  0.00    +0.000 N 
ATOM     25  O3  UNL     1      26.131  -8.645 -33.386  0.00  0.00    +0.000 OA
ATOM     26  O4  UNL     1      25.677 -10.669 -34.282  0.00  0.00    +0.000 OA
ENDBRANCH  22  24
ENDBRANCH  15  21
ENDBRANCH   1  15
BRANCH   1  27
ATOM     27  O1  UNL     1      27.295  -7.844 -38.612  0.00  0.00    +0.000 OA
ATOM     28  H7  UNL     1      27.901  -7.573 -39.377  0.00  0.00    +0.000 HD
ENDBRANCH   1  27
TORSDOF 5
ENDMDL
MODEL 6
REMARK VINA RESULT:    -6.159      4.301      6.468
REMARK INTER + INTRA:          -8.661
REMARK INTER:                  -7.879
REMARK INTRA:                  -0.782
REMARK UNBOUND:                -0.881
REMARK  Name = resultss/4CJN/ligands/lig_248_t2.pdb
REMARK  7 active torsions:
REMARK  status: ('A' for Active; 'I' for Inactive)
REMARK    1  A    between atoms: C1_1  and  C2_2
REMARK    2  A    between atoms: C5_5  and  N1_6
REMARK    3  A    between atoms: N1_6  and  C6_7
REMARK    4  A    between atoms: C6_7  and  O1_8
REMARK    5  A    between atoms: C7_9  and  N2_10
REMARK    6  A    between atoms: C9_13  and  C10_14
REMARK    7  A    between atoms: C17_22  and  N4_23
REMARK                            x       y       z     vdW  Elec       q    Type
REMARK                         _______ _______ _______ _____ _____    ______ ____
ROOT
ATOM      1  C6  UNL     1      28.173 -10.216 -37.718  0.00  0.00    +0.000 C 
ATOM      2  C7  UNL     1      28.337  -9.212 -38.593  0.00  0.00    +0.000 C 
ENDROOT
BRANCH   2   3
ATOM      3  N2  UNL     1      28.229  -9.413 -40.015  0.00  0.00    +0.000 N 
ATOM      4  C8  UNL     1      29.354  -9.745 -40.728  0.00  0.00    +0.000 A 
ATOM      5  O2  UNL     1      30.470  -9.857 -40.146  0.00  0.00    +0.000 OA
ATOM      6  C9  UNL     1      29.269  -9.966 -42.113  0.00  0.00    +0.000 A 
ATOM      7  C10 UNL     1      30.480 -10.322 -42.921  0.00  0.00    +0.000 C 
ATOM      8  N3  UNL     1      28.066  -9.859 -42.730  0.00  0.00    +0.000 NA
ATOM      9  C11 UNL     1      26.940  -9.544 -42.044  0.00  0.00    +0.000 A 
ATOM     10  C12 UNL     1      25.719  -9.446 -42.720  0.00  0.00    +0.000 A 
ATOM     11  C13 UNL     1      24.556  -9.120 -42.020  0.00  0.00    +0.000 A 
ATOM     12  C14 UNL     1      24.608  -8.889 -40.644  0.00  0.00    +0.000 A 
ATOM     13  C15 UNL     1      25.823  -8.983 -39.958  0.00  0.00    +0.000 A 
ATOM     14  C16 UNL     1      27.011  -9.316 -40.649  0.00  0.00    +0.000 A 
ENDBRANCH   2   3
BRANCH   1  15
ATOM     15  N1  UNL     1      28.279  -9.951 -36.310  0.00  0.00    +0.000 N 
ATOM     16  H6  UNL     1      29.171 -10.182 -35.814  0.00  0.00    +0.000 HD
BRANCH  15  21
ATOM     17  C1  UNL     1      23.902  -7.821 -33.248  0.00  0.00    +0.000 C 
ATOM     18  C2  UNL     1      25.062  -8.321 -34.057  0.00  0.00    +0.000 A 
ATOM     19  C3  UNL     1      24.892  -8.655 -35.404  0.00  0.00    +0.000 A 
ATOM     20  C4  UNL     1      25.960  -9.161 -36.145  0.00  0.00    +0.000 A 
ATOM     21  C5  UNL     1      27.221  -9.341 -35.553  0.00  0.00    +0.000 A 
ATOM     22  C17 UNL     1      27.402  -9.017 -34.186  0.00  0.00    +0.000 A 
ATOM     23  C18 UNL     1      26.310  -8.523 -33.449  0.00  0.00    +0.000 A 
BRANCH  22  24
ATOM     24  N4  UNL     1      28.680  -9.156 -33.540  0.00  0.00    +0.000 N 
ATOM     25  O3  UNL     1      29.096  -8.280 -32.754  0.00  0.00    +0.000 OA
ATOM     26  O4  UNL     1      29.388 -10.330 -33.656  0.00  0.00    +0.000 OA
ENDBRANCH  22  24
ENDBRANCH  15  21
ENDBRANCH   1  15
BRANCH   1  27
ATOM     27  O1  UNL     1      27.894 -11.515 -38.152  0.00  0.00    +0.000 OA
ATOM     28  H7  UNL     1      28.091 -12.337 -37.595  0.00  0.00    +0.000 HD
ENDBRANCH   1  27
TORSDOF 5
ENDMDL
MODEL 7
REMARK VINA RESULT:    -5.966      3.656      8.469
REMARK INTER + INTRA:          -8.417
REMARK INTER:                  -7.533
REMARK INTRA:                  -0.884
REMARK UNBOUND:                -0.881
REMARK  Name = resultss/4CJN/ligands/lig_248_t2.pdb
REMARK  7 active torsions:
REMARK  status: ('A' for Active; 'I' for Inactive)
REMARK    1  A    between atoms: C1_1  and  C2_2
REMARK    2  A    between atoms: C5_5  and  N1_6
REMARK    3  A    between atoms: N1_6  and  C6_7
REMARK    4  A    between atoms: C6_7  and  O1_8
REMARK    5  A    between atoms: C7_9  and  N2_10
REMARK    6  A    between atoms: C9_13  and  C10_14
REMARK    7  A    between atoms: C17_22  and  N4_23
REMARK                            x       y       z     vdW  Elec       q    Type
REMARK                         _______ _______ _______ _____ _____    ______ ____
ROOT
ATOM      1  C6  UNL     1      26.109  -8.564 -38.215  0.00  0.00    +0.000 C 
ATOM      2  C7  UNL     1      25.770  -9.290 -37.139  0.00  0.00    +0.000 C 
ENDROOT
BRANCH   2   3
ATOM      3  N2  UNL     1      25.894  -8.775 -35.800  0.00  0.00    +0.000 N 
ATOM      4  C8  UNL     1      24.818  -8.143 -35.227  0.00  0.00    +0.000 A 
ATOM      5  O2  UNL     1      23.741  -8.002 -35.873  0.00  0.00    +0.000 OA
ATOM      6  C9  UNL     1      24.909  -7.650 -33.915  0.00  0.00    +0.000 A 
ATOM      7  C10 UNL     1      23.755  -6.949 -33.265  0.00  0.00    +0.000 C 
ATOM      8  N3  UNL     1      26.062  -7.818 -33.220  0.00  0.00    +0.000 NA
ATOM      9  C11 UNL     1      27.132  -8.449 -33.762  0.00  0.00    +0.000 A 
ATOM     10  C12 UNL     1      28.302  -8.602 -33.009  0.00  0.00    +0.000 A 
ATOM     11  C13 UNL     1      29.409  -9.249 -33.561  0.00  0.00    +0.000 A 
ATOM     12  C14 UNL     1      29.353  -9.745 -34.865  0.00  0.00    +0.000 A 
ATOM     13  C15 UNL     1      28.190  -9.597 -35.626  0.00  0.00    +0.000 A 
ATOM     14  C16 UNL     1      27.056  -8.948 -35.084  0.00  0.00    +0.000 A 
ENDBRANCH   2   3
BRANCH   1  15
ATOM     15  N1  UNL     1      25.950  -9.127 -39.527  0.00  0.00    +0.000 N 
ATOM     16  H6  UNL     1      24.986  -9.312 -39.888  0.00  0.00    +0.000 HD
BRANCH  15  21
ATOM     17  C1  UNL     1      30.352 -10.610 -42.917  0.00  0.00    +0.000 C 
ATOM     18  C2  UNL     1      29.220 -10.167 -42.039  0.00  0.00    +0.000 A 
ATOM     19  C3  UNL     1      29.352 -10.202 -40.647  0.00  0.00    +0.000 A 
ATOM     20  C4  UNL     1      28.284  -9.830 -39.829  0.00  0.00    +0.000 A 
ATOM     21  C5  UNL     1      27.064  -9.414 -40.389  0.00  0.00    +0.000 A 
ATOM     22  C17 UNL     1      26.917  -9.387 -41.797  0.00  0.00    +0.000 A 
ATOM     23  C18 UNL     1      27.998  -9.780 -42.607  0.00  0.00    +0.000 A 
BRANCH  22  24
ATOM     24  N4  UNL     1      25.698  -8.941 -42.420  0.00  0.00    +0.000 N 
ATOM     25  O3  UNL     1      24.954  -9.748 -43.014  0.00  0.00    +0.000 OA
ATOM     26  O4  UNL     1      25.257  -7.651 -42.229  0.00  0.00    +0.000 OA
ENDBRANCH  22  24
ENDBRANCH  15  21
ENDBRANCH   1  15
BRANCH   1  27
ATOM     27  O1  UNL     1      26.609  -7.265 -38.083  0.00  0.00    +0.000 OA
ATOM     28  H7  UNL     1      26.329  -6.639 -37.337  0.00  0.00    +0.000 HD
ENDBRANCH   1  27
TORSDOF 5
ENDMDL
MODEL 8
REMARK VINA RESULT:    -5.873      3.087      8.308
REMARK INTER + INTRA:          -8.299
REMARK INTER:                  -7.462
REMARK INTRA:                  -0.837
REMARK UNBOUND:                -0.881
REMARK  Name = resultss/4CJN/ligands/lig_248_t2.pdb
REMARK  7 active torsions:
REMARK  status: ('A' for Active; 'I' for Inactive)
REMARK    1  A    between atoms: C1_1  and  C2_2
REMARK    2  A    between atoms: C5_5  and  N1_6
REMARK    3  A    between atoms: N1_6  and  C6_7
REMARK    4  A    between atoms: C6_7  and  O1_8
REMARK    5  A    between atoms: C7_9  and  N2_10
REMARK    6  A    between atoms: C9_13  and  C10_14
REMARK    7  A    between atoms: C17_22  and  N4_23
REMARK                            x       y       z     vdW  Elec       q    Type
REMARK                         _______ _______ _______ _____ _____    ______ ____
ROOT
ATOM      1  C6  UNL     1      27.667 -10.829 -39.352  0.00  0.00    +0.000 C 
ATOM      2  C7  UNL     1      27.711  -9.583 -38.857  0.00  0.00    +0.000 C 
ENDROOT
BRANCH   2   3
ATOM      3  N2  UNL     1      27.846  -9.325 -37.446  0.00  0.00    +0.000 N 
ATOM      4  C8  UNL     1      29.064  -9.526 -36.846  0.00  0.00    +0.000 A 
ATOM      5  O2  UNL     1      30.047  -9.945 -37.519  0.00  0.00    +0.000 OA
ATOM      6  C9  UNL     1      29.224  -9.262 -35.476  0.00  0.00    +0.000 A 
ATOM      7  C10 UNL     1      30.539  -9.479 -34.789  0.00  0.00    +0.000 C 
ATOM      8  N3  UNL     1      28.169  -8.797 -34.760  0.00  0.00    +0.000 NA
ATOM      9  C11 UNL     1      26.961  -8.581 -35.336  0.00  0.00    +0.000 A 
ATOM     10  C12 UNL     1      25.900  -8.098 -34.561  0.00  0.00    +0.000 A 
ATOM     11  C13 UNL     1      24.652  -7.874 -35.146  0.00  0.00    +0.000 A 
ATOM     12  C14 UNL     1      24.460  -8.131 -36.505  0.00  0.00    +0.000 A 
ATOM     13  C15 UNL     1      25.512  -8.615 -37.288  0.00  0.00    +0.000 A 
ATOM     14  C16 UNL     1      26.784  -8.844 -36.714  0.00  0.00    +0.000 A 
ENDBRANCH   2   3
BRANCH   1  15
ATOM     15  N1  UNL     1      27.546 -11.022 -40.771  0.00  0.00    +0.000 N 
ATOM     16  H6  UNL     1      27.307 -11.973 -41.136  0.00  0.00    +0.000 HD
BRANCH  15  21
ATOM     17  C1  UNL     1      28.230  -6.971 -44.795  0.00  0.00    +0.000 C 
ATOM     18  C2  UNL     1      28.047  -7.985 -43.705  0.00  0.00    +0.000 A 
ATOM     19  C3  UNL     1      29.158  -8.616 -43.134  0.00  0.00    +0.000 A 
ATOM     20  C4  UNL     1      28.987  -9.590 -42.150  0.00  0.00    +0.000 A 
ATOM     21  C5  UNL     1      27.700  -9.951 -41.716  0.00  0.00    +0.000 A 
ATOM     22  C17 UNL     1      26.568  -9.327 -42.296  0.00  0.00    +0.000 A 
ATOM     23  C18 UNL     1      26.758  -8.358 -43.298  0.00  0.00    +0.000 A 
BRANCH  22  24
ATOM     24  N4  UNL     1      25.231  -9.640 -41.866  0.00  0.00    +0.000 N 
ATOM     25  O3  UNL     1      24.845  -9.343 -40.718  0.00  0.00    +0.000 OA
ATOM     26  O4  UNL     1      24.312 -10.126 -42.768  0.00  0.00    +0.000 OA
ENDBRANCH  22  24
ENDBRANCH  15  21
ENDBRANCH   1  15
BRANCH   1  27
ATOM     27  O1  UNL     1      27.743 -11.943 -38.512  0.00  0.00    +0.000 OA
ATOM     28  H7  UNL     1      28.327 -12.746 -38.712  0.00  0.00    +0.000 HD
ENDBRANCH   1  27
TORSDOF 5
ENDMDL
MODEL 9
REMARK VINA RESULT:    -5.813      4.139      8.660
REMARK INTER + INTRA:          -8.224
REMARK INTER:                  -7.138
REMARK INTRA:                  -1.085
REMARK UNBOUND:                -0.881
REMARK  Name = resultss/4CJN/ligands/lig_248_t2.pdb
REMARK  7 active torsions:
REMARK  status: ('A' for Active; 'I' for Inactive)
REMARK    1  A    between atoms: C1_1  and  C2_2
REMARK    2  A    between atoms: C5_5  and  N1_6
REMARK    3  A    between atoms: N1_6  and  C6_7
REMARK    4  A    between atoms: C6_7  and  O1_8
REMARK    5  A    between atoms: C7_9  and  N2_10
REMARK    6  A    between atoms: C9_13  and  C10_14
REMARK    7  A    between atoms: C17_22  and  N4_23
REMARK                            x       y       z     vdW  Elec       q    Type
REMARK                         _______ _______ _______ _____ _____    ______ ____
ROOT
ATOM      1  C6  UNL     1      26.816  -8.350 -38.509  0.00  0.00    +0.000 C 
ATOM      2  C7  UNL     1      26.668  -7.478 -37.501  0.00  0.00    +0.000 C 
ENDROOT
BRANCH   2   3
ATOM      3  N2  UNL     1      26.504  -7.908 -36.136  0.00  0.00    +0.000 N 
ATOM      4  C8  UNL     1      27.620  -8.192 -35.389  0.00  0.00    +0.000 A 
ATOM      5  O2  UNL     1      28.772  -8.093 -35.897  0.00  0.00    +0.000 OA
ATOM      6  C9  UNL     1      27.485  -8.594 -34.050  0.00  0.00    +0.000 A 
ATOM      7  C10 UNL     1      28.683  -8.919 -33.210  0.00  0.00    +0.000 C 
ATOM      8  N3  UNL     1      26.246  -8.684 -33.504  0.00  0.00    +0.000 NA
ATOM      9  C11 UNL     1      25.132  -8.396 -34.220  0.00  0.00    +0.000 A 
ATOM     10  C12 UNL     1      23.873  -8.501 -33.618  0.00  0.00    +0.000 A 
ATOM     11  C13 UNL     1      22.721  -8.208 -34.349  0.00  0.00    +0.000 A 
ATOM     12  C14 UNL     1      22.821  -7.811 -35.684  0.00  0.00    +0.000 A 
ATOM     13  C15 UNL     1      24.073  -7.704 -36.297  0.00  0.00    +0.000 A 
ATOM     14  C16 UNL     1      25.252  -7.993 -35.571  0.00  0.00    +0.000 A 
ENDBRANCH   2   3
BRANCH   1  15
ATOM     15  N1  UNL     1      26.990  -7.860 -39.848  0.00  0.00    +0.000 N 
ATOM     16  H6  UNL     1      26.441  -7.026 -40.161  0.00  0.00    +0.000 HD
BRANCH  15  21
ATOM     17  C1  UNL     1      30.817 -10.409 -43.302  0.00  0.00    +0.000 C 
ATOM     18  C2  UNL     1      29.808  -9.705 -42.444  0.00  0.00    +0.000 A 
ATOM     19  C3  UNL     1      30.223  -8.767 -41.493  0.00  0.00    +0.000 A 
ATOM     20  C4  UNL     1      29.289  -8.143 -40.665  0.00  0.00    +0.000 A 
ATOM     21  C5  UNL     1      27.920  -8.445 -40.774  0.00  0.00    +0.000 A 
ATOM     22  C17 UNL     1      27.492  -9.402 -41.726  0.00  0.00    +0.000 A 
ATOM     23  C18 UNL     1      28.448 -10.033 -42.542  0.00  0.00    +0.000 A 
BRANCH  22  24
ATOM     24  N4  UNL     1      26.100  -9.725 -41.897  0.00  0.00    +0.000 N 
ATOM     25  O3  UNL     1      25.472 -10.331 -41.005  0.00  0.00    +0.000 OA
ATOM     26  O4  UNL     1      25.403  -9.230 -42.976  0.00  0.00    +0.000 OA
ENDBRANCH  22  24
ENDBRANCH  15  21
ENDBRANCH   1  15
BRANCH   1  27
ATOM     27  O1  UNL     1      26.810  -9.729 -38.279  0.00  0.00    +0.000 OA
ATOM     28  H7  UNL     1      25.972 -10.245 -38.038  0.00  0.00    +0.000 HD
ENDBRANCH   1  27
TORSDOF 5
ENDMDL
