MODEL 1
REMARK VINA RESULT:    -7.357      0.000      0.000
REMARK INTER + INTRA:          -9.133
REMARK INTER:                  -9.077
REMARK INTRA:                  -0.056
REMARK UNBOUND:                -0.056
REMARK  Name = resultss/4CJN/ligands/lig_162_t2.pdb
REMARK  4 active torsions:
REMARK  status: ('A' for Active; 'I' for Inactive)
REMARK    1  A    between atoms: C1_2  and  N1_3
REMARK    2  A    between atoms: C1_2  and  C8_12
REMARK    3  A    between atoms: N2_4  and  C2_5
REMARK    4  A    between atoms: C11_15  and  C12_16
REMARK                            x       y       z     vdW  Elec       q    Type
REMARK                         _______ _______ _______ _____ _____    ______ ____
ROOT
ATOM      1  C8  UNL     1      29.419  -9.750 -39.690  0.00  0.00    +0.000 A 
ATOM      2  C9  UNL     1      28.806 -10.615 -40.614  0.00  0.00    +0.000 A 
ATOM      3  C10 UNL     1      29.525 -11.117 -41.703  0.00  0.00    +0.000 A 
ATOM      4  C11 UNL     1      30.872 -10.767 -41.894  0.00  0.00    +0.000 A 
ATOM      5  C19 UNL     1      31.485  -9.904 -40.970  0.00  0.00    +0.000 A 
ATOM      6  C20 UNL     1      30.768  -9.401 -39.881  0.00  0.00    +0.000 A 
ENDROOT
BRANCH   4   7
ATOM      7  C12 UNL     1      31.623 -11.304 -43.052  0.00  0.00    +0.000 A 
ATOM      8  N4  UNL     1      32.288 -10.516 -43.936  0.00  0.00    +0.000 NA
ATOM      9  C13 UNL     1      32.893 -11.254 -44.902  0.00  0.00    +0.000 A 
ATOM     10  C14 UNL     1      33.648 -10.719 -45.947  0.00  0.00    +0.000 A 
ATOM     11  C15 UNL     1      34.221 -11.596 -46.884  0.00  0.00    +0.000 A 
ATOM     12  C16 UNL     1      34.035 -12.989 -46.766  0.00  0.00    +0.000 A 
ATOM     13  C17 UNL     1      33.272 -13.515 -45.711  0.00  0.00    +0.000 A 
ATOM     14  C18 UNL     1      32.716 -12.624 -44.797  0.00  0.00    +0.000 A 
ATOM     15  S1  UNL     1      31.771 -12.950 -43.452  0.00  0.00    +0.000 S 
ENDBRANCH   4   7
BRANCH   1  17
ATOM     16  O1  UNL     1      28.378  -7.993 -38.480  0.00  0.00    +0.000 OA
ATOM     17  C1  UNL     1      28.657  -9.221 -38.534  0.00  0.00    +0.000 C 
BRANCH  17  18
ATOM     18  N1  UNL     1      28.317 -10.091 -37.441  0.00  0.00    +0.000 NA
ATOM     19  N2  UNL     1      27.268 -10.023 -36.713  0.00  0.00    +0.000 NA
BRANCH  19  20
ATOM     20  C2  UNL     1      26.159  -9.137 -36.921  0.00  0.00    +0.000 C 
ATOM     21  C3  UNL     1      25.289  -8.885 -35.934  0.00  0.00    +0.000 C 
ATOM     22  C4  UNL     1      24.127  -8.003 -36.170  0.00  0.00    +0.000 C 
ATOM     23  C5  UNL     1      23.269  -7.756 -35.176  0.00  0.00    +0.000 C 
ATOM     24  C6  UNL     1      23.460  -8.353 -33.837  0.00  0.00    +0.000 C 
ATOM     25  C7  UNL     1      24.501  -9.154 -33.588  0.00  0.00    +0.000 C 
ATOM     26  N3  UNL     1      25.453  -9.450 -34.620  0.00  0.00    +0.000 N 
ATOM     27  H6  UNL     1      26.256 -10.078 -34.393  0.00  0.00    +0.000 HD
ENDBRANCH  19  20
ENDBRANCH  17  18
ENDBRANCH   1  17
TORSDOF 4
ENDMDL
MODEL 2
REMARK VINA RESULT:    -7.335      1.780      2.387
REMARK INTER + INTRA:          -9.107
REMARK INTER:                  -8.679
REMARK INTRA:                  -0.427
REMARK UNBOUND:                -0.056
REMARK  Name = resultss/4CJN/ligands/lig_162_t2.pdb
REMARK  4 active torsions:
REMARK  status: ('A' for Active; 'I' for Inactive)
REMARK    1  A    between atoms: C1_2  and  N1_3
REMARK    2  A    between atoms: C1_2  and  C8_12
REMARK    3  A    between atoms: N2_4  and  C2_5
REMARK    4  A    between atoms: C11_15  and  C12_16
REMARK                            x       y       z     vdW  Elec       q    Type
REMARK                         _______ _______ _______ _____ _____    ______ ____
ROOT
ATOM      1  C8  UNL     1      29.423  -9.536 -39.865  0.00  0.00    +0.000 A 
ATOM      2  C9  UNL     1      30.756  -9.165 -40.117  0.00  0.00    +0.000 A 
ATOM      3  C10 UNL     1      31.466  -9.741 -41.175  0.00  0.00    +0.000 A 
ATOM      4  C11 UNL     1      30.860 -10.698 -42.006  0.00  0.00    +0.000 A 
ATOM      5  C19 UNL     1      29.528 -11.067 -41.755  0.00  0.00    +0.000 A 
ATOM      6  C20 UNL     1      28.817 -10.492 -40.697  0.00  0.00    +0.000 A 
ENDROOT
BRANCH   4   7
ATOM      7  C12 UNL     1      31.622 -11.302 -43.124  0.00  0.00    +0.000 A 
ATOM      8  N4  UNL     1      32.279 -10.566 -44.057  0.00  0.00    +0.000 NA
ATOM      9  C13 UNL     1      32.897 -11.359 -44.970  0.00  0.00    +0.000 A 
ATOM     10  C14 UNL     1      33.648 -10.885 -46.047  0.00  0.00    +0.000 A 
ATOM     11  C15 UNL     1      34.236 -11.816 -46.921  0.00  0.00    +0.000 A 
ATOM     12  C16 UNL     1      34.068 -13.199 -46.710  0.00  0.00    +0.000 A 
ATOM     13  C17 UNL     1      33.310 -13.663 -45.623  0.00  0.00    +0.000 A 
ATOM     14  C18 UNL     1      32.738 -12.721 -44.773  0.00  0.00    +0.000 A 
ATOM     15  S1  UNL     1      31.794 -12.969 -43.412  0.00  0.00    +0.000 S 
ENDBRANCH   4   7
BRANCH   1  17
ATOM     16  O1  UNL     1      29.070  -7.837 -38.244  0.00  0.00    +0.000 OA
ATOM     17  C1  UNL     1      28.671  -8.923 -38.744  0.00  0.00    +0.000 C 
BRANCH  17  18
ATOM     18  N1  UNL     1      27.542  -9.612 -38.177  0.00  0.00    +0.000 NA
ATOM     19  N2  UNL     1      27.486 -10.153 -37.019  0.00  0.00    +0.000 NA
BRANCH  19  20
ATOM     20  C2  UNL     1      28.498 -10.073 -36.006  0.00  0.00    +0.000 C 
ATOM     21  C3  UNL     1      28.264  -9.431 -34.854  0.00  0.00    +0.000 C 
ATOM     22  C4  UNL     1      29.326  -9.320 -33.832  0.00  0.00    +0.000 C 
ATOM     23  C5  UNL     1      29.079  -8.679 -32.686  0.00  0.00    +0.000 C 
ATOM     24  C6  UNL     1      27.757  -8.076 -32.418  0.00  0.00    +0.000 C 
ATOM     25  C7  UNL     1      26.772  -8.160 -33.320  0.00  0.00    +0.000 C 
ATOM     26  N3  UNL     1      26.985  -8.837 -34.566  0.00  0.00    +0.000 N 
ATOM     27  H6  UNL     1      26.195  -8.887 -35.248  0.00  0.00    +0.000 HD
ENDBRANCH  19  20
ENDBRANCH  17  18
ENDBRANCH   1  17
TORSDOF 4
ENDMDL
MODEL 3
REMARK VINA RESULT:    -7.045      5.357     10.547
REMARK INTER + INTRA:          -8.748
REMARK INTER:                  -8.318
REMARK INTRA:                  -0.430
REMARK UNBOUND:                -0.056
REMARK  Name = resultss/4CJN/ligands/lig_162_t2.pdb
REMARK  4 active torsions:
REMARK  status: ('A' for Active; 'I' for Inactive)
REMARK    1  A    between atoms: C1_2  and  N1_3
REMARK    2  A    between atoms: C1_2  and  C8_12
REMARK    3  A    between atoms: N2_4  and  C2_5
REMARK    4  A    between atoms: C11_15  and  C12_16
REMARK                            x       y       z     vdW  Elec       q    Type
REMARK                         _______ _______ _______ _____ _____    ______ ____
ROOT
ATOM      1  C8  UNL     1      28.526  -9.328 -42.333  0.00  0.00    +0.000 A 
ATOM      2  C9  UNL     1      28.455  -8.390 -43.379  0.00  0.00    +0.000 A 
ATOM      3  C10 UNL     1      27.216  -7.932 -43.840  0.00  0.00    +0.000 A 
ATOM      4  C11 UNL     1      26.022  -8.400 -43.267  0.00  0.00    +0.000 A 
ATOM      5  C19 UNL     1      26.093  -9.335 -42.220  0.00  0.00    +0.000 A 
ATOM      6  C20 UNL     1      27.331  -9.794 -41.759  0.00  0.00    +0.000 A 
ENDROOT
BRANCH   4   7
ATOM      7  C12 UNL     1      24.716  -7.908 -43.764  0.00  0.00    +0.000 A 
ATOM      8  N4  UNL     1      23.599  -7.860 -42.993  0.00  0.00    +0.000 NA
ATOM      9  C13 UNL     1      22.539  -7.370 -43.686  0.00  0.00    +0.000 A 
ATOM     10  C14 UNL     1      21.258  -7.205 -43.155  0.00  0.00    +0.000 A 
ATOM     11  C15 UNL     1      20.246  -6.687 -43.983  0.00  0.00    +0.000 A 
ATOM     12  C16 UNL     1      20.525  -6.342 -45.321  0.00  0.00    +0.000 A 
ATOM     13  C17 UNL     1      21.817  -6.514 -45.843  0.00  0.00    +0.000 A 
ATOM     14  C18 UNL     1      22.800  -7.029 -45.003  0.00  0.00    +0.000 A 
ATOM     15  S1  UNL     1      24.412  -7.341 -45.337  0.00  0.00    +0.000 S 
ENDBRANCH   4   7
BRANCH   1  17
ATOM     16  O1  UNL     1      30.680  -8.985 -41.397  0.00  0.00    +0.000 OA
ATOM     17  C1  UNL     1      29.839  -9.810 -41.844  0.00  0.00    +0.000 C 
BRANCH  17  18
ATOM     18  N1  UNL     1      30.180 -11.203 -41.962  0.00  0.00    +0.000 NA
ATOM     19  N2  UNL     1      30.983 -11.719 -42.813  0.00  0.00    +0.000 NA
BRANCH  19  20
ATOM     20  C2  UNL     1      31.800 -10.994 -43.743  0.00  0.00    +0.000 C 
ATOM     21  C3  UNL     1      32.498 -11.637 -44.688  0.00  0.00    +0.000 C 
ATOM     22  C4  UNL     1      33.368 -10.885 -45.616  0.00  0.00    +0.000 C 
ATOM     23  C5  UNL     1      34.056 -11.538 -46.557  0.00  0.00    +0.000 C 
ATOM     24  C6  UNL     1      33.965 -13.007 -46.687  0.00  0.00    +0.000 C 
ATOM     25  C7  UNL     1      33.186 -13.719 -45.865  0.00  0.00    +0.000 C 
ATOM     26  N3  UNL     1      32.425 -13.067 -44.839  0.00  0.00    +0.000 N 
ATOM     27  H6  UNL     1      31.825 -13.652 -44.215  0.00  0.00    +0.000 HD
ENDBRANCH  19  20
ENDBRANCH  17  18
ENDBRANCH   1  17
TORSDOF 4
ENDMDL
MODEL 4
REMARK VINA RESULT:    -6.985      3.046      4.283
REMARK INTER + INTRA:          -8.675
REMARK INTER:                  -7.831
REMARK INTRA:                  -0.843
REMARK UNBOUND:                -0.056
REMARK  Name = resultss/4CJN/ligands/lig_162_t2.pdb
REMARK  4 active torsions:
REMARK  status: ('A' for Active; 'I' for Inactive)
REMARK    1  A    between atoms: C1_2  and  N1_3
REMARK    2  A    between atoms: C1_2  and  C8_12
REMARK    3  A    between atoms: N2_4  and  C2_5
REMARK    4  A    between atoms: C11_15  and  C12_16
REMARK                            x       y       z     vdW  Elec       q    Type
REMARK                         _______ _______ _______ _____ _____    ______ ____
ROOT
ATOM      1  C8  UNL     1      30.029  -9.697 -40.165  0.00  0.00    +0.000 A 
ATOM      2  C9  UNL     1      31.421  -9.565 -40.310  0.00  0.00    +0.000 A 
ATOM      3  C10 UNL     1      32.077 -10.127 -41.410  0.00  0.00    +0.000 A 
ATOM      4  C11 UNL     1      31.358 -10.831 -42.390  0.00  0.00    +0.000 A 
ATOM      5  C19 UNL     1      29.966 -10.961 -42.246  0.00  0.00    +0.000 A 
ATOM      6  C20 UNL     1      29.309 -10.400 -41.146  0.00  0.00    +0.000 A 
ENDROOT
BRANCH   4   7
ATOM      7  C12 UNL     1      32.064 -11.422 -43.550  0.00  0.00    +0.000 A 
ATOM      8  N4  UNL     1      31.760 -12.643 -44.060  0.00  0.00    +0.000 NA
ATOM      9  C13 UNL     1      32.553 -12.950 -45.120  0.00  0.00    +0.000 A 
ATOM     10  C14 UNL     1      32.473 -14.139 -45.847  0.00  0.00    +0.000 A 
ATOM     11  C15 UNL     1      33.356 -14.332 -46.923  0.00  0.00    +0.000 A 
ATOM     12  C16 UNL     1      34.302 -13.342 -47.258  0.00  0.00    +0.000 A 
ATOM     13  C17 UNL     1      34.373 -12.151 -46.518  0.00  0.00    +0.000 A 
ATOM     14  C18 UNL     1      33.487 -11.985 -45.457  0.00  0.00    +0.000 A 
ATOM     15  S1  UNL     1      33.336 -10.688 -44.407  0.00  0.00    +0.000 S 
ENDBRANCH   4   7
BRANCH   1  17
ATOM     16  O1  UNL     1      29.110  -9.803 -37.979  0.00  0.00    +0.000 OA
ATOM     17  C1  UNL     1      29.334  -9.099 -39.001  0.00  0.00    +0.000 C 
BRANCH  17  18
ATOM     18  N1  UNL     1      28.841  -7.750 -39.075  0.00  0.00    +0.000 NA
ATOM     19  N2  UNL     1      27.663  -7.389 -39.419  0.00  0.00    +0.000 NA
BRANCH  19  20
ATOM     20  C2  UNL     1      26.559  -8.267 -39.682  0.00  0.00    +0.000 C 
ATOM     21  C3  UNL     1      26.140  -8.484 -40.935  0.00  0.00    +0.000 C 
ATOM     22  C4  UNL     1      24.977  -9.358 -41.193  0.00  0.00    +0.000 C 
ATOM     23  C5  UNL     1      24.570  -9.569 -42.448  0.00  0.00    +0.000 C 
ATOM     24  C6  UNL     1      25.265  -8.940 -43.591  0.00  0.00    +0.000 C 
ATOM     25  C7  UNL     1      26.322  -8.144 -43.395  0.00  0.00    +0.000 C 
ATOM     26  N3  UNL     1      26.800  -7.886 -42.067  0.00  0.00    +0.000 N 
ATOM     27  H6  UNL     1      27.629  -7.262 -41.948  0.00  0.00    +0.000 HD
ENDBRANCH  19  20
ENDBRANCH  17  18
ENDBRANCH   1  17
TORSDOF 4
ENDMDL
MODEL 5
REMARK VINA RESULT:    -6.917      2.474     10.971
REMARK INTER + INTRA:          -8.590
REMARK INTER:                  -8.486
REMARK INTRA:                  -0.104
REMARK UNBOUND:                -0.056
REMARK  Name = resultss/4CJN/ligands/lig_162_t2.pdb
REMARK  4 active torsions:
REMARK  status: ('A' for Active; 'I' for Inactive)
REMARK    1  A    between atoms: C1_2  and  N1_3
REMARK    2  A    between atoms: C1_2  and  C8_12
REMARK    3  A    between atoms: N2_4  and  C2_5
REMARK    4  A    between atoms: C11_15  and  C12_16
REMARK                            x       y       z     vdW  Elec       q    Type
REMARK                         _______ _______ _______ _____ _____    ______ ____
ROOT
ATOM      1  C8  UNL     1      29.199 -10.033 -40.796  0.00  0.00    +0.000 A 
ATOM      2  C9  UNL     1      27.807 -10.161 -40.948  0.00  0.00    +0.000 A 
ATOM      3  C10 UNL     1      26.948  -9.889 -39.879  0.00  0.00    +0.000 A 
ATOM      4  C11 UNL     1      27.459  -9.482 -38.636  0.00  0.00    +0.000 A 
ATOM      5  C19 UNL     1      28.850  -9.352 -38.484  0.00  0.00    +0.000 A 
ATOM      6  C20 UNL     1      29.710  -9.624 -39.552  0.00  0.00    +0.000 A 
ENDROOT
BRANCH   4   7
ATOM      7  C12 UNL     1      26.539  -9.197 -37.510  0.00  0.00    +0.000 A 
ATOM      8  N4  UNL     1      26.682  -9.747 -36.277  0.00  0.00    +0.000 NA
ATOM      9  C13 UNL     1      25.710  -9.323 -35.428  0.00  0.00    +0.000 A 
ATOM     10  C14 UNL     1      25.600  -9.720 -34.094  0.00  0.00    +0.000 A 
ATOM     11  C15 UNL     1      24.542  -9.206 -33.323  0.00  0.00    +0.000 A 
ATOM     12  C16 UNL     1      23.615  -8.308 -33.890  0.00  0.00    +0.000 A 
ATOM     13  C17 UNL     1      23.736  -7.918 -35.233  0.00  0.00    +0.000 A 
ATOM     14  C18 UNL     1      24.792  -8.442 -35.974  0.00  0.00    +0.000 A 
ATOM     15  S1  UNL     1      25.190  -8.164 -37.578  0.00  0.00    +0.000 S 
ENDBRANCH   4   7
BRANCH   1  17
ATOM     16  O1  UNL     1      29.642 -10.788 -43.003  0.00  0.00    +0.000 OA
ATOM     17  C1  UNL     1      30.109 -10.319 -41.931  0.00  0.00    +0.000 C 
BRANCH  17  18
ATOM     18  N1  UNL     1      31.529 -10.145 -41.772  0.00  0.00    +0.000 NA
ATOM     19  N2  UNL     1      32.442 -10.943 -42.177  0.00  0.00    +0.000 NA
BRANCH  19  20
ATOM     20  C2  UNL     1      32.238 -12.114 -42.980  0.00  0.00    +0.000 C 
ATOM     21  C3  UNL     1      32.813 -12.228 -44.184  0.00  0.00    +0.000 C 
ATOM     22  C4  UNL     1      32.563 -13.421 -45.020  0.00  0.00    +0.000 C 
ATOM     23  C5  UNL     1      33.146 -13.524 -46.219  0.00  0.00    +0.000 C 
ATOM     24  C6  UNL     1      34.039 -12.462 -46.727  0.00  0.00    +0.000 C 
ATOM     25  C7  UNL     1      34.288 -11.370 -45.996  0.00  0.00    +0.000 C 
ATOM     26  N3  UNL     1      33.689 -11.210 -44.702  0.00  0.00    +0.000 N 
ATOM     27  H6  UNL     1      33.905 -10.347 -44.156  0.00  0.00    +0.000 HD
ENDBRANCH  19  20
ENDBRANCH  17  18
ENDBRANCH   1  17
TORSDOF 4
ENDMDL
MODEL 6
REMARK VINA RESULT:    -6.795      3.796      9.407
REMARK INTER + INTRA:          -8.439
REMARK INTER:                  -7.350
REMARK INTRA:                  -1.089
REMARK UNBOUND:                -0.056
REMARK  Name = resultss/4CJN/ligands/lig_162_t2.pdb
REMARK  4 active torsions:
REMARK  status: ('A' for Active; 'I' for Inactive)
REMARK    1  A    between atoms: C1_2  and  N1_3
REMARK    2  A    between atoms: C1_2  and  C8_12
REMARK    3  A    between atoms: N2_4  and  C2_5
REMARK    4  A    between atoms: C11_15  and  C12_16
REMARK                            x       y       z     vdW  Elec       q    Type
REMARK                         _______ _______ _______ _____ _____    ______ ____
ROOT
ATOM      1  C8  UNL     1      29.949  -8.808 -39.179  0.00  0.00    +0.000 A 
ATOM      2  C9  UNL     1      28.965  -7.804 -39.204  0.00  0.00    +0.000 A 
ATOM      3  C10 UNL     1      27.919  -7.811 -38.276  0.00  0.00    +0.000 A 
ATOM      4  C11 UNL     1      27.832  -8.820 -37.303  0.00  0.00    +0.000 A 
ATOM      5  C19 UNL     1      28.816  -9.822 -37.277  0.00  0.00    +0.000 A 
ATOM      6  C20 UNL     1      29.863  -9.816 -38.204  0.00  0.00    +0.000 A 
ENDROOT
BRANCH   4   7
ATOM      7  C12 UNL     1      26.718  -8.818 -36.326  0.00  0.00    +0.000 A 
ATOM      8  N4  UNL     1      25.507  -8.259 -36.583  0.00  0.00    +0.000 NA
ATOM      9  C13 UNL     1      24.665  -8.393 -35.526  0.00  0.00    +0.000 A 
ATOM     10  C14 UNL     1      23.353  -7.916 -35.498  0.00  0.00    +0.000 A 
ATOM     11  C15 UNL     1      22.586  -8.120 -34.337  0.00  0.00    +0.000 A 
ATOM     12  C16 UNL     1      23.136  -8.793 -33.227  0.00  0.00    +0.000 A 
ATOM     13  C17 UNL     1      24.456  -9.267 -33.268  0.00  0.00    +0.000 A 
ATOM     14  C18 UNL     1      25.194  -9.051 -34.428  0.00  0.00    +0.000 A 
ATOM     15  S1  UNL     1      26.774  -9.495 -34.768  0.00  0.00    +0.000 S 
ENDBRANCH   4   7
BRANCH   1  17
ATOM     16  O1  UNL     1      31.680  -7.725 -40.391  0.00  0.00    +0.000 OA
ATOM     17  C1  UNL     1      31.060  -8.798 -40.160  0.00  0.00    +0.000 C 
BRANCH  17  18
ATOM     18  N1  UNL     1      31.366  -9.988 -40.908  0.00  0.00    +0.000 NA
ATOM     19  N2  UNL     1      30.743 -10.421 -41.938  0.00  0.00    +0.000 NA
BRANCH  19  20
ATOM     20  C2  UNL     1      29.687  -9.737 -42.627  0.00  0.00    +0.000 C 
ATOM     21  C3  UNL     1      28.416  -9.855 -42.222  0.00  0.00    +0.000 C 
ATOM     22  C4  UNL     1      27.330  -9.180 -42.963  0.00  0.00    +0.000 C 
ATOM     23  C5  UNL     1      26.066  -9.303 -42.547  0.00  0.00    +0.000 C 
ATOM     24  C6  UNL     1      25.731 -10.106 -41.353  0.00  0.00    +0.000 C 
ATOM     25  C7  UNL     1      26.689 -10.729 -40.657  0.00  0.00    +0.000 C 
ATOM     26  N3  UNL     1      28.062 -10.629 -41.061  0.00  0.00    +0.000 N 
ATOM     27  H6  UNL     1      28.786 -11.126 -40.495  0.00  0.00    +0.000 HD
ENDBRANCH  19  20
ENDBRANCH  17  18
ENDBRANCH   1  17
TORSDOF 4
ENDMDL
MODEL 7
REMARK VINA RESULT:    -6.651      2.273      3.082
REMARK INTER + INTRA:          -8.262
REMARK INTER:                  -7.441
REMARK INTRA:                  -0.821
REMARK UNBOUND:                -0.056
REMARK  Name = resultss/4CJN/ligands/lig_162_t2.pdb
REMARK  4 active torsions:
REMARK  status: ('A' for Active; 'I' for Inactive)
REMARK    1  A    between atoms: C1_2  and  N1_3
REMARK    2  A    between atoms: C1_2  and  C8_12
REMARK    3  A    between atoms: N2_4  and  C2_5
REMARK    4  A    between atoms: C11_15  and  C12_16
REMARK                            x       y       z     vdW  Elec       q    Type
REMARK                         _______ _______ _______ _____ _____    ______ ____
ROOT
ATOM      1  C8  UNL     1      26.818  -8.659 -39.234  0.00  0.00    +0.000 A 
ATOM      2  C9  UNL     1      27.320  -8.020 -40.382  0.00  0.00    +0.000 A 
ATOM      3  C10 UNL     1      28.419  -8.548 -41.066  0.00  0.00    +0.000 A 
ATOM      4  C11 UNL     1      29.040  -9.727 -40.621  0.00  0.00    +0.000 A 
ATOM      5  C19 UNL     1      28.537 -10.367 -39.475  0.00  0.00    +0.000 A 
ATOM      6  C20 UNL     1      27.438  -9.839 -38.790  0.00  0.00    +0.000 A 
ENDROOT
BRANCH   4   7
ATOM      7  C12 UNL     1      30.204 -10.277 -41.353  0.00  0.00    +0.000 A 
ATOM      8  N4  UNL     1      30.114 -11.328 -42.209  0.00  0.00    +0.000 NA
ATOM      9  C13 UNL     1      31.322 -11.634 -42.749  0.00  0.00    +0.000 A 
ATOM     10  C14 UNL     1      31.539 -12.667 -43.662  0.00  0.00    +0.000 A 
ATOM     11  C15 UNL     1      32.842 -12.879 -44.144  0.00  0.00    +0.000 A 
ATOM     12  C16 UNL     1      33.905 -12.061 -43.712  0.00  0.00    +0.000 A 
ATOM     13  C17 UNL     1      33.675 -11.025 -42.793  0.00  0.00    +0.000 A 
ATOM     14  C18 UNL     1      32.375 -10.837 -42.331  0.00  0.00    +0.000 A 
ATOM     15  S1  UNL     1      31.799  -9.698 -41.245  0.00  0.00    +0.000 S 
ENDBRANCH   4   7
BRANCH   1  17
ATOM     16  O1  UNL     1      24.621  -8.807 -38.346  0.00  0.00    +0.000 OA
ATOM     17  C1  UNL     1      25.651  -8.099 -38.511  0.00  0.00    +0.000 C 
BRANCH  17  18
ATOM     18  N1  UNL     1      25.666  -6.727 -38.080  0.00  0.00    +0.000 NA
ATOM     19  N2  UNL     1      25.764  -6.310 -36.875  0.00  0.00    +0.000 NA
BRANCH  19  20
ATOM     20  C2  UNL     1      26.003  -7.128 -35.721  0.00  0.00    +0.000 C 
ATOM     21  C3  UNL     1      24.984  -7.680 -35.050  0.00  0.00    +0.000 C 
ATOM     22  C4  UNL     1      25.238  -8.488 -33.839  0.00  0.00    +0.000 C 
ATOM     23  C5  UNL     1      24.212  -9.035 -33.179  0.00  0.00    +0.000 C 
ATOM     24  C6  UNL     1      22.821  -8.846 -33.641  0.00  0.00    +0.000 C 
ATOM     25  C7  UNL     1      22.555  -8.123 -34.734  0.00  0.00    +0.000 C 
ATOM     26  N3  UNL     1      23.620  -7.514 -35.478  0.00  0.00    +0.000 N 
ATOM     27  H6  UNL     1      23.379  -6.957 -36.328  0.00  0.00    +0.000 HD
ENDBRANCH  19  20
ENDBRANCH  17  18
ENDBRANCH   1  17
TORSDOF 4
ENDMDL
MODEL 8
REMARK VINA RESULT:    -6.592      4.451      6.727
REMARK INTER + INTRA:          -8.190
REMARK INTER:                  -7.115
REMARK INTRA:                  -1.075
REMARK UNBOUND:                -0.056
REMARK  Name = resultss/4CJN/ligands/lig_162_t2.pdb
REMARK  4 active torsions:
REMARK  status: ('A' for Active; 'I' for Inactive)
REMARK    1  A    between atoms: C1_2  and  N1_3
REMARK    2  A    between atoms: C1_2  and  C8_12
REMARK    3  A    between atoms: N2_4  and  C2_5
REMARK    4  A    between atoms: C11_15  and  C12_16
REMARK                            x       y       z     vdW  Elec       q    Type
REMARK                         _______ _______ _______ _____ _____    ______ ____
ROOT
ATOM      1  C8  UNL     1      25.945  -8.137 -38.498  0.00  0.00    +0.000 A 
ATOM      2  C9  UNL     1      26.851  -7.251 -39.108  0.00  0.00    +0.000 A 
ATOM      3  C10 UNL     1      26.840  -7.065 -40.494  0.00  0.00    +0.000 A 
ATOM      4  C11 UNL     1      25.924  -7.759 -41.302  0.00  0.00    +0.000 A 
ATOM      5  C19 UNL     1      25.018  -8.643 -40.693  0.00  0.00    +0.000 A 
ATOM      6  C20 UNL     1      25.027  -8.830 -39.307  0.00  0.00    +0.000 A 
ENDROOT
BRANCH   4   7
ATOM      7  C12 UNL     1      25.923  -7.554 -42.769  0.00  0.00    +0.000 A 
ATOM      8  N4  UNL     1      27.059  -7.494 -43.511  0.00  0.00    +0.000 NA
ATOM      9  C13 UNL     1      26.783  -7.300 -44.826  0.00  0.00    +0.000 A 
ATOM     10  C14 UNL     1      27.749  -7.197 -45.828  0.00  0.00    +0.000 A 
ATOM     11  C15 UNL     1      27.328  -6.995 -47.154  0.00  0.00    +0.000 A 
ATOM     12  C16 UNL     1      25.955  -6.901 -47.461  0.00  0.00    +0.000 A 
ATOM     13  C17 UNL     1      24.993  -7.006 -46.444  0.00  0.00    +0.000 A 
ATOM     14  C18 UNL     1      25.437  -7.205 -45.140  0.00  0.00    +0.000 A 
ATOM     15  S1  UNL     1      24.537  -7.366 -43.736  0.00  0.00    +0.000 S 
ENDBRANCH   4   7
BRANCH   1  17
ATOM     16  O1  UNL     1      25.811  -7.338 -36.267  0.00  0.00    +0.000 OA
ATOM     17  C1  UNL     1      25.955  -8.332 -37.029  0.00  0.00    +0.000 C 
BRANCH  17  18
ATOM     18  N1  UNL     1      26.217  -9.635 -36.481  0.00  0.00    +0.000 NA
ATOM     19  N2  UNL     1      27.299 -10.307 -36.602  0.00  0.00    +0.000 NA
BRANCH  19  20
ATOM     20  C2  UNL     1      28.513  -9.841 -37.206  0.00  0.00    +0.000 C 
ATOM     21  C3  UNL     1      28.787 -10.110 -38.490  0.00  0.00    +0.000 C 
ATOM     22  C4  UNL     1      30.059  -9.659 -39.092  0.00  0.00    +0.000 C 
ATOM     23  C5  UNL     1      30.318  -9.931 -40.375  0.00  0.00    +0.000 C 
ATOM     24  C6  UNL     1      29.351 -10.679 -41.207  0.00  0.00    +0.000 C 
ATOM     25  C7  UNL     1      28.190 -11.100 -40.694  0.00  0.00    +0.000 C 
ATOM     26  N3  UNL     1      27.863 -10.833 -39.323  0.00  0.00    +0.000 N 
ATOM     27  H6  UNL     1      26.947 -11.174 -38.954  0.00  0.00    +0.000 HD
ENDBRANCH  19  20
ENDBRANCH  17  18
ENDBRANCH   1  17
TORSDOF 4
ENDMDL
MODEL 9
REMARK VINA RESULT:    -6.525      6.219      9.915
REMARK INTER + INTRA:          -8.107
REMARK INTER:                  -7.561
REMARK INTRA:                  -0.546
REMARK UNBOUND:                -0.056
REMARK  Name = resultss/4CJN/ligands/lig_162_t2.pdb
REMARK  4 active torsions:
REMARK  status: ('A' for Active; 'I' for Inactive)
REMARK    1  A    between atoms: C1_2  and  N1_3
REMARK    2  A    between atoms: C1_2  and  C8_12
REMARK    3  A    between atoms: N2_4  and  C2_5
REMARK    4  A    between atoms: C11_15  and  C12_16
REMARK                            x       y       z     vdW  Elec       q    Type
REMARK                         _______ _______ _______ _____ _____    ______ ____
ROOT
ATOM      1  C8  UNL     1      27.664  -8.685 -42.095  0.00  0.00    +0.000 A 
ATOM      2  C9  UNL     1      27.628  -7.466 -42.794  0.00  0.00    +0.000 A 
ATOM      3  C10 UNL     1      26.522  -7.130 -43.581  0.00  0.00    +0.000 A 
ATOM      4  C11 UNL     1      25.428  -8.004 -43.688  0.00  0.00    +0.000 A 
ATOM      5  C19 UNL     1      25.463  -9.222 -42.988  0.00  0.00    +0.000 A 
ATOM      6  C20 UNL     1      26.568  -9.559 -42.200  0.00  0.00    +0.000 A 
ENDROOT
BRANCH   4   7
ATOM      7  C12 UNL     1      24.262  -7.638 -44.526  0.00  0.00    +0.000 A 
ATOM      8  N4  UNL     1      24.273  -7.707 -45.882  0.00  0.00    +0.000 NA
ATOM      9  C13 UNL     1      23.083  -7.318 -46.408  0.00  0.00    +0.000 A 
ATOM     10  C14 UNL     1      22.797  -7.284 -47.774  0.00  0.00    +0.000 A 
ATOM     11  C15 UNL     1      21.522  -6.859 -48.186  0.00  0.00    +0.000 A 
ATOM     12  C16 UNL     1      20.555  -6.476 -47.235  0.00  0.00    +0.000 A 
ATOM     13  C17 UNL     1      20.854  -6.514 -45.864  0.00  0.00    +0.000 A 
ATOM     14  C18 UNL     1      22.124  -6.938 -45.483  0.00  0.00    +0.000 A 
ATOM     15  S1  UNL     1      22.764  -7.087 -43.942  0.00  0.00    +0.000 S 
ENDBRANCH   4   7
BRANCH   1  17
ATOM     16  O1  UNL     1      29.571  -8.126 -40.795  0.00  0.00    +0.000 OA
ATOM     17  C1  UNL     1      28.836  -9.039 -41.258  0.00  0.00    +0.000 C 
BRANCH  17  18
ATOM     18  N1  UNL     1      29.178 -10.421 -41.052  0.00  0.00    +0.000 NA
ATOM     19  N2  UNL     1      29.901 -11.147 -41.817  0.00  0.00    +0.000 NA
BRANCH  19  20
ATOM     20  C2  UNL     1      30.617 -10.693 -42.974  0.00  0.00    +0.000 C 
ATOM     21  C3  UNL     1      31.763 -11.279 -43.344  0.00  0.00    +0.000 C 
ATOM     22  C4  UNL     1      32.514 -10.778 -44.514  0.00  0.00    +0.000 C 
ATOM     23  C5  UNL     1      33.655 -11.374 -44.875  0.00  0.00    +0.000 C 
ATOM     24  C6  UNL     1      34.182 -12.532 -44.123  0.00  0.00    +0.000 C 
ATOM     25  C7  UNL     1      33.526 -13.013 -43.061  0.00  0.00    +0.000 C 
ATOM     26  N3  UNL     1      32.298 -12.410 -42.631  0.00  0.00    +0.000 N 
ATOM     27  H6  UNL     1      31.809 -12.811 -41.800  0.00  0.00    +0.000 HD
ENDBRANCH  19  20
ENDBRANCH  17  18
ENDBRANCH   1  17
TORSDOF 4
ENDMDL
