MODEL 1
REMARK VINA RESULT:    -7.379      0.000      0.000
REMARK INTER + INTRA:          -9.533
REMARK INTER:                  -9.104
REMARK INTRA:                  -0.429
REMARK UNBOUND:                -0.429
REMARK  Name = resultss/4CJN/ligands/lig_175_t0.pdb
REMARK  4 active torsions:
REMARK  status: ('A' for Active; 'I' for Inactive)
REMARK    1  A    between atoms: C1_2  and  C9_12
REMARK    2  A    between atoms: N1_3  and  N2_4
REMARK    3  A    between atoms: C2_5  and  C3_6
REMARK    4  A    between atoms: C12_15  and  C13_16
REMARK                            x       y       z     vdW  Elec       q    Type
REMARK                         _______ _______ _______ _____ _____    ______ ____
ROOT
ATOM      1  C9  UNL     1      28.209 -10.020 -40.464  0.00  0.00    +0.000 A 
ATOM      2  C10 UNL     1      28.722 -10.375 -39.203  0.00  0.00    +0.000 A 
ATOM      3  C11 UNL     1      28.016 -10.068 -38.037  0.00  0.00    +0.000 A 
ATOM      4  C12 UNL     1      26.783  -9.395 -38.102  0.00  0.00    +0.000 A 
ATOM      5  C20 UNL     1      26.276  -9.031 -39.361  0.00  0.00    +0.000 A 
ATOM      6  C21 UNL     1      26.983  -9.337 -40.527  0.00  0.00    +0.000 A 
ENDROOT
BRANCH   4   7
ATOM      7  C13 UNL     1      26.028  -9.065 -36.871  0.00  0.00    +0.000 A 
ATOM      8  N3  UNL     1      24.833  -8.418 -36.885  0.00  0.00    +0.000 NA
ATOM      9  C14 UNL     1      24.351  -8.239 -35.628  0.00  0.00    +0.000 A 
ATOM     10  C15 UNL     1      23.144  -7.605 -35.329  0.00  0.00    +0.000 A 
ATOM     11  C16 UNL     1      22.760  -7.485 -33.982  0.00  0.00    +0.000 A 
ATOM     12  C17 UNL     1      23.582  -7.996 -32.958  0.00  0.00    +0.000 A 
ATOM     13  C18 UNL     1      24.794  -8.631 -33.271  0.00  0.00    +0.000 A 
ATOM     14  C19 UNL     1      25.151  -8.736 -34.613  0.00  0.00    +0.000 A 
ATOM     15  S1  UNL     1      26.518  -9.432 -35.286  0.00  0.00    +0.000 S 
ENDBRANCH   4   7
BRANCH   1  17
ATOM     16  O1  UNL     1      28.488  -9.970 -42.820  0.00  0.00    +0.000 OA
ATOM     17  C1  UNL     1      28.954 -10.335 -41.707  0.00  0.00    +0.000 C 
ATOM     18  N1  UNL     1      30.175 -11.095 -41.663  0.00  0.00    +0.000 N 
ATOM     19  H1  UNL     1      30.303 -11.784 -40.888  0.00  0.00    +0.000 HD
BRANCH  18  20
ATOM     20  N2  UNL     1      31.105 -11.125 -42.719  0.00  0.00    +0.000 NA
ATOM     21  C2  UNL     1      31.357 -12.185 -43.425  0.00  0.00    +0.000 C 
BRANCH  21  22
ATOM     22  C3  UNL     1      32.357 -12.157 -44.510  0.00  0.00    +0.000 A 
ATOM     23  C4  UNL     1      32.770 -13.337 -45.161  0.00  0.00    +0.000 A 
ATOM     24  C5  UNL     1      33.717 -13.281 -46.187  0.00  0.00    +0.000 A 
ATOM     25  C6  UNL     1      34.261 -12.053 -46.574  0.00  0.00    +0.000 A 
ATOM     26  C7  UNL     1      33.858 -10.878 -45.935  0.00  0.00    +0.000 A 
ATOM     27  C8  UNL     1      32.911 -10.928 -44.908  0.00  0.00    +0.000 A 
ENDBRANCH  21  22
ENDBRANCH  18  20
ENDBRANCH   1  17
TORSDOF 4
ENDMDL
MODEL 2
REMARK VINA RESULT:    -7.265      2.599     11.416
REMARK INTER + INTRA:          -9.392
REMARK INTER:                  -8.983
REMARK INTRA:                  -0.409
REMARK UNBOUND:                -0.429
REMARK  Name = resultss/4CJN/ligands/lig_175_t0.pdb
REMARK  4 active torsions:
REMARK  status: ('A' for Active; 'I' for Inactive)
REMARK    1  A    between atoms: C1_2  and  C9_12
REMARK    2  A    between atoms: N1_3  and  N2_4
REMARK    3  A    between atoms: C2_5  and  C3_6
REMARK    4  A    between atoms: C12_15  and  C13_16
REMARK                            x       y       z     vdW  Elec       q    Type
REMARK                         _______ _______ _______ _____ _____    ______ ____
ROOT
ATOM      1  C9  UNL     1      29.222  -9.706 -39.903  0.00  0.00    +0.000 A 
ATOM      2  C10 UNL     1      30.548  -9.278 -40.093  0.00  0.00    +0.000 A 
ATOM      3  C11 UNL     1      31.320  -9.797 -41.136  0.00  0.00    +0.000 A 
ATOM      4  C12 UNL     1      30.786 -10.761 -42.011  0.00  0.00    +0.000 A 
ATOM      5  C20 UNL     1      29.464 -11.196 -41.813  0.00  0.00    +0.000 A 
ATOM      6  C21 UNL     1      28.693 -10.677 -40.770  0.00  0.00    +0.000 A 
ENDROOT
BRANCH   4   7
ATOM      7  C13 UNL     1      31.596 -11.318 -43.119  0.00  0.00    +0.000 A 
ATOM      8  N3  UNL     1      32.237 -10.542 -44.032  0.00  0.00    +0.000 NA
ATOM      9  C14 UNL     1      32.908 -11.297 -44.940  0.00  0.00    +0.000 A 
ATOM     10  C15 UNL     1      33.658 -10.778 -45.996  0.00  0.00    +0.000 A 
ATOM     11  C16 UNL     1      34.305 -11.672 -46.867  0.00  0.00    +0.000 A 
ATOM     12  C17 UNL     1      34.196 -13.063 -46.673  0.00  0.00    +0.000 A 
ATOM     13  C18 UNL     1      33.438 -13.574 -45.607  0.00  0.00    +0.000 A 
ATOM     14  C19 UNL     1      32.807 -12.667 -44.759  0.00  0.00    +0.000 A 
ATOM     15  S1  UNL     1      31.849 -12.971 -43.419  0.00  0.00    +0.000 S 
ENDBRANCH   4   7
BRANCH   1  17
ATOM     16  O1  UNL     1      28.450  -7.935 -38.525  0.00  0.00    +0.000 OA
ATOM     17  C1  UNL     1      28.398  -9.166 -38.794  0.00  0.00    +0.000 C 
ATOM     18  N1  UNL     1      27.581 -10.035 -37.990  0.00  0.00    +0.000 N 
ATOM     19  H1  UNL     1      27.883 -11.027 -37.868  0.00  0.00    +0.000 HD
BRANCH  18  20
ATOM     20  N2  UNL     1      26.525  -9.573 -37.181  0.00  0.00    +0.000 NA
ATOM     21  C2  UNL     1      26.594  -9.491 -35.887  0.00  0.00    +0.000 C 
BRANCH  21  22
ATOM     22  C3  UNL     1      25.445  -9.014 -35.093  0.00  0.00    +0.000 A 
ATOM     23  C4  UNL     1      25.236  -9.446 -33.768  0.00  0.00    +0.000 A 
ATOM     24  C5  UNL     1      24.141  -8.977 -33.038  0.00  0.00    +0.000 A 
ATOM     25  C6  UNL     1      23.245  -8.074 -33.619  0.00  0.00    +0.000 A 
ATOM     26  C7  UNL     1      23.444  -7.640 -34.931  0.00  0.00    +0.000 A 
ATOM     27  C8  UNL     1      24.538  -8.106 -35.666  0.00  0.00    +0.000 A 
ENDBRANCH  21  22
ENDBRANCH  18  20
ENDBRANCH   1  17
TORSDOF 4
ENDMDL
MODEL 3
REMARK VINA RESULT:    -6.850      3.084     11.489
REMARK INTER + INTRA:          -8.881
REMARK INTER:                  -8.517
REMARK INTRA:                  -0.364
REMARK UNBOUND:                -0.429
REMARK  Name = resultss/4CJN/ligands/lig_175_t0.pdb
REMARK  4 active torsions:
REMARK  status: ('A' for Active; 'I' for Inactive)
REMARK    1  A    between atoms: C1_2  and  C9_12
REMARK    2  A    between atoms: N1_3  and  N2_4
REMARK    3  A    between atoms: C2_5  and  C3_6
REMARK    4  A    between atoms: C12_15  and  C13_16
REMARK                            x       y       z     vdW  Elec       q    Type
REMARK                         _______ _______ _______ _____ _____    ______ ____
ROOT
ATOM      1  C9  UNL     1      30.016  -9.460 -40.653  0.00  0.00    +0.000 A 
ATOM      2  C10 UNL     1      29.291 -10.017 -41.722  0.00  0.00    +0.000 A 
ATOM      3  C11 UNL     1      29.952 -10.668 -42.767  0.00  0.00    +0.000 A 
ATOM      4  C12 UNL     1      31.355 -10.772 -42.773  0.00  0.00    +0.000 A 
ATOM      5  C20 UNL     1      32.080 -10.205 -41.710  0.00  0.00    +0.000 A 
ATOM      6  C21 UNL     1      31.418  -9.555 -40.665  0.00  0.00    +0.000 A 
ENDROOT
BRANCH   4   7
ATOM      7  C13 UNL     1      32.065 -11.458 -43.876  0.00  0.00    +0.000 A 
ATOM      8  N3  UNL     1      31.779 -12.728 -44.266  0.00  0.00    +0.000 NA
ATOM      9  C14 UNL     1      32.571 -13.121 -45.297  0.00  0.00    +0.000 A 
ATOM     10  C15 UNL     1      32.508 -14.374 -45.907  0.00  0.00    +0.000 A 
ATOM     11  C16 UNL     1      33.388 -14.654 -46.968  0.00  0.00    +0.000 A 
ATOM     12  C17 UNL     1      34.313 -13.684 -47.402  0.00  0.00    +0.000 A 
ATOM     13  C18 UNL     1      34.367 -12.426 -46.781  0.00  0.00    +0.000 A 
ATOM     14  C19 UNL     1      33.486 -12.175 -45.733  0.00  0.00    +0.000 A 
ATOM     15  S1  UNL     1      33.316 -10.787 -44.809  0.00  0.00    +0.000 S 
ENDBRANCH   4   7
BRANCH   1  17
ATOM     16  O1  UNL     1      28.665  -7.714 -39.784  0.00  0.00    +0.000 OA
ATOM     17  C1  UNL     1      29.323  -8.762 -39.543  0.00  0.00    +0.000 C 
ATOM     18  N1  UNL     1      29.434  -9.236 -38.190  0.00  0.00    +0.000 N 
ATOM     19  H1  UNL     1      30.302  -9.747 -37.912  0.00  0.00    +0.000 HD
BRANCH  18  20
ATOM     20  N2  UNL     1      28.545  -8.862 -37.164  0.00  0.00    +0.000 NA
ATOM     21  C2  UNL     1      28.270  -9.613 -36.141  0.00  0.00    +0.000 C 
BRANCH  21  22
ATOM     22  C3  UNL     1      27.316  -9.170 -35.107  0.00  0.00    +0.000 A 
ATOM     23  C4  UNL     1      27.756  -8.601 -33.895  0.00  0.00    +0.000 A 
ATOM     24  C5  UNL     1      26.831  -8.188 -32.932  0.00  0.00    +0.000 A 
ATOM     25  C6  UNL     1      25.461  -8.336 -33.168  0.00  0.00    +0.000 A 
ATOM     26  C7  UNL     1      25.015  -8.898 -34.366  0.00  0.00    +0.000 A 
ATOM     27  C8  UNL     1      25.936  -9.313 -35.332  0.00  0.00    +0.000 A 
ENDBRANCH  21  22
ENDBRANCH  18  20
ENDBRANCH   1  17
TORSDOF 4
ENDMDL
MODEL 4
REMARK VINA RESULT:    -6.496      1.615      2.050
REMARK INTER + INTRA:          -8.444
REMARK INTER:                  -8.274
REMARK INTRA:                  -0.169
REMARK UNBOUND:                -0.429
REMARK  Name = resultss/4CJN/ligands/lig_175_t0.pdb
REMARK  4 active torsions:
REMARK  status: ('A' for Active; 'I' for Inactive)
REMARK    1  A    between atoms: C1_2  and  C9_12
REMARK    2  A    between atoms: N1_3  and  N2_4
REMARK    3  A    between atoms: C2_5  and  C3_6
REMARK    4  A    between atoms: C12_15  and  C13_16
REMARK                            x       y       z     vdW  Elec       q    Type
REMARK                         _______ _______ _______ _____ _____    ______ ____
ROOT
ATOM      1  C9  UNL     1      29.589 -10.238 -40.757  0.00  0.00    +0.000 A 
ATOM      2  C10 UNL     1      28.227 -10.514 -40.540  0.00  0.00    +0.000 A 
ATOM      3  C11 UNL     1      27.597 -10.104 -39.361  0.00  0.00    +0.000 A 
ATOM      4  C12 UNL     1      28.316  -9.414 -38.369  0.00  0.00    +0.000 A 
ATOM      5  C20 UNL     1      29.680  -9.149 -38.581  0.00  0.00    +0.000 A 
ATOM      6  C21 UNL     1      30.309  -9.559 -39.760  0.00  0.00    +0.000 A 
ENDROOT
BRANCH   4   7
ATOM      7  C13 UNL     1      27.659  -8.976 -37.116  0.00  0.00    +0.000 A 
ATOM      8  N3  UNL     1      26.824  -9.772 -36.398  0.00  0.00    +0.000 NA
ATOM      9  C14 UNL     1      26.357  -9.134 -35.294  0.00  0.00    +0.000 A 
ATOM     10  C15 UNL     1      25.481  -9.700 -34.367  0.00  0.00    +0.000 A 
ATOM     11  C16 UNL     1      25.074  -8.929 -33.265  0.00  0.00    +0.000 A 
ATOM     12  C17 UNL     1      25.544  -7.610 -33.103  0.00  0.00    +0.000 A 
ATOM     13  C18 UNL     1      26.425  -7.051 -34.042  0.00  0.00    +0.000 A 
ATOM     14  C19 UNL     1      26.812  -7.836 -35.125  0.00  0.00    +0.000 A 
ATOM     15  S1  UNL     1      27.840  -7.450 -36.391  0.00  0.00    +0.000 S 
ENDBRANCH   4   7
BRANCH   1  17
ATOM     16  O1  UNL     1      30.469  -9.840 -42.925  0.00  0.00    +0.000 OA
ATOM     17  C1  UNL     1      30.266 -10.676 -42.002  0.00  0.00    +0.000 C 
ATOM     18  N1  UNL     1      30.648 -12.050 -42.191  0.00  0.00    +0.000 N 
ATOM     19  H1  UNL     1      30.088 -12.791 -41.713  0.00  0.00    +0.000 HD
BRANCH  18  20
ATOM     20  N2  UNL     1      31.589 -12.466 -43.152  0.00  0.00    +0.000 NA
ATOM     21  C2  UNL     1      31.386 -12.397 -44.433  0.00  0.00    +0.000 C 
BRANCH  21  22
ATOM     22  C3  UNL     1      32.407 -12.865 -45.391  0.00  0.00    +0.000 A 
ATOM     23  C4  UNL     1      32.418 -14.193 -45.863  0.00  0.00    +0.000 A 
ATOM     24  C5  UNL     1      33.396 -14.609 -46.771  0.00  0.00    +0.000 A 
ATOM     25  C6  UNL     1      34.368 -13.709 -47.218  0.00  0.00    +0.000 A 
ATOM     26  C7  UNL     1      34.363 -12.391 -46.756  0.00  0.00    +0.000 A 
ATOM     27  C8  UNL     1      33.389 -11.969 -45.847  0.00  0.00    +0.000 A 
ENDBRANCH  21  22
ENDBRANCH  18  20
ENDBRANCH   1  17
TORSDOF 4
ENDMDL
MODEL 5
REMARK VINA RESULT:    -5.831      2.349     11.278
REMARK INTER + INTRA:          -7.624
REMARK INTER:                  -7.211
REMARK INTRA:                  -0.413
REMARK UNBOUND:                -0.429
REMARK  Name = resultss/4CJN/ligands/lig_175_t0.pdb
REMARK  4 active torsions:
REMARK  status: ('A' for Active; 'I' for Inactive)
REMARK    1  A    between atoms: C1_2  and  C9_12
REMARK    2  A    between atoms: N1_3  and  N2_4
REMARK    3  A    between atoms: C2_5  and  C3_6
REMARK    4  A    between atoms: C12_15  and  C13_16
REMARK                            x       y       z     vdW  Elec       q    Type
REMARK                         _______ _______ _______ _____ _____    ______ ____
ROOT
ATOM      1  C9  UNL     1      27.658  -9.401 -39.885  0.00  0.00    +0.000 A 
ATOM      2  C10 UNL     1      27.679 -10.760 -40.244  0.00  0.00    +0.000 A 
ATOM      3  C11 UNL     1      28.719 -11.274 -41.024  0.00  0.00    +0.000 A 
ATOM      4  C12 UNL     1      29.759 -10.439 -41.469  0.00  0.00    +0.000 A 
ATOM      5  C20 UNL     1      29.731  -9.077 -41.119  0.00  0.00    +0.000 A 
ATOM      6  C21 UNL     1      28.691  -8.565 -40.340  0.00  0.00    +0.000 A 
ENDROOT
BRANCH   4   7
ATOM      7  C13 UNL     1      30.865 -10.972 -42.297  0.00  0.00    +0.000 A 
ATOM      8  N3  UNL     1      30.684 -11.915 -43.258  0.00  0.00    +0.000 NA
ATOM      9  C14 UNL     1      31.855 -12.230 -43.871  0.00  0.00    +0.000 A 
ATOM     10  C15 UNL     1      31.981 -13.168 -44.897  0.00  0.00    +0.000 A 
ATOM     11  C16 UNL     1      33.254 -13.400 -45.446  0.00  0.00    +0.000 A 
ATOM     12  C17 UNL     1      34.377 -12.699 -44.966  0.00  0.00    +0.000 A 
ATOM     13  C18 UNL     1      34.239 -11.758 -43.933  0.00  0.00    +0.000 A 
ATOM     14  C19 UNL     1      32.967 -11.547 -43.407  0.00  0.00    +0.000 A 
ATOM     15  S1  UNL     1      32.494 -10.503 -42.184  0.00  0.00    +0.000 S 
ENDBRANCH   4   7
BRANCH   1  17
ATOM     16  O1  UNL     1      25.362  -9.158 -39.333  0.00  0.00    +0.000 OA
ATOM     17  C1  UNL     1      26.554  -8.846 -39.063  0.00  0.00    +0.000 C 
ATOM     18  N1  UNL     1      26.823  -7.919 -37.996  0.00  0.00    +0.000 N 
ATOM     19  H1  UNL     1      27.664  -7.305 -38.073  0.00  0.00    +0.000 HD
BRANCH  18  20
ATOM     20  N2  UNL     1      25.903  -7.637 -36.968  0.00  0.00    +0.000 NA
ATOM     21  C2  UNL     1      25.812  -8.330 -35.875  0.00  0.00    +0.000 C 
BRANCH  21  22
ATOM     22  C3  UNL     1      24.815  -7.993 -34.840  0.00  0.00    +0.000 A 
ATOM     23  C4  UNL     1      24.122  -6.766 -34.859  0.00  0.00    +0.000 A 
ATOM     24  C5  UNL     1      23.181  -6.473 -33.868  0.00  0.00    +0.000 A 
ATOM     25  C6  UNL     1      22.921  -7.397 -32.852  0.00  0.00    +0.000 A 
ATOM     26  C7  UNL     1      23.603  -8.616 -32.825  0.00  0.00    +0.000 A 
ATOM     27  C8  UNL     1      24.545  -8.914 -33.814  0.00  0.00    +0.000 A 
ENDBRANCH  21  22
ENDBRANCH  18  20
ENDBRANCH   1  17
TORSDOF 4
ENDMDL
MODEL 6
REMARK VINA RESULT:    -5.815      5.364      9.901
REMARK INTER + INTRA:          -7.604
REMARK INTER:                  -7.214
REMARK INTRA:                  -0.390
REMARK UNBOUND:                -0.429
REMARK  Name = resultss/4CJN/ligands/lig_175_t0.pdb
REMARK  4 active torsions:
REMARK  status: ('A' for Active; 'I' for Inactive)
REMARK    1  A    between atoms: C1_2  and  C9_12
REMARK    2  A    between atoms: N1_3  and  N2_4
REMARK    3  A    between atoms: C2_5  and  C3_6
REMARK    4  A    between atoms: C12_15  and  C13_16
REMARK                            x       y       z     vdW  Elec       q    Type
REMARK                         _______ _______ _______ _____ _____    ______ ____
ROOT
ATOM      1  C9  UNL     1      28.602  -9.123 -41.015  0.00  0.00    +0.000 A 
ATOM      2  C10 UNL     1      29.222  -8.060 -41.696  0.00  0.00    +0.000 A 
ATOM      3  C11 UNL     1      28.670  -7.553 -42.875  0.00  0.00    +0.000 A 
ATOM      4  C12 UNL     1      27.488  -8.100 -43.406  0.00  0.00    +0.000 A 
ATOM      5  C20 UNL     1      26.875  -9.171 -42.731  0.00  0.00    +0.000 A 
ATOM      6  C21 UNL     1      27.428  -9.677 -41.552  0.00  0.00    +0.000 A 
ENDROOT
BRANCH   4   7
ATOM      7  C13 UNL     1      26.895  -7.571 -44.655  0.00  0.00    +0.000 A 
ATOM      8  N3  UNL     1      27.617  -7.355 -45.786  0.00  0.00    +0.000 NA
ATOM      9  C14 UNL     1      26.838  -6.869 -46.787  0.00  0.00    +0.000 A 
ATOM     10  C15 UNL     1      27.303  -6.551 -48.064  0.00  0.00    +0.000 A 
ATOM     11  C16 UNL     1      26.389  -6.055 -49.010  0.00  0.00    +0.000 A 
ATOM     12  C17 UNL     1      25.032  -5.883 -48.671  0.00  0.00    +0.000 A 
ATOM     13  C18 UNL     1      24.577  -6.206 -47.382  0.00  0.00    +0.000 A 
ATOM     14  C19 UNL     1      25.503  -6.695 -46.465  0.00  0.00    +0.000 A 
ATOM     15  S1  UNL     1      25.261  -7.161 -44.873  0.00  0.00    +0.000 S 
ENDBRANCH   4   7
BRANCH   1  17
ATOM     16  O1  UNL     1      30.399 -10.014 -39.746  0.00  0.00    +0.000 OA
ATOM     17  C1  UNL     1      29.185  -9.672 -39.767  0.00  0.00    +0.000 C 
ATOM     18  N1  UNL     1      28.372  -9.867 -38.596  0.00  0.00    +0.000 N 
ATOM     19  H1  UNL     1      27.354 -10.060 -38.726  0.00  0.00    +0.000 HD
BRANCH  18  20
ATOM     20  N2  UNL     1      28.905 -10.035 -37.304  0.00  0.00    +0.000 NA
ATOM     21  C2  UNL     1      29.347  -9.054 -36.577  0.00  0.00    +0.000 C 
BRANCH  21  22
ATOM     22  C3  UNL     1      29.910  -9.297 -35.234  0.00  0.00    +0.000 A 
ATOM     23  C4  UNL     1      31.299  -9.429 -35.032  0.00  0.00    +0.000 A 
ATOM     24  C5  UNL     1      31.806  -9.657 -33.749  0.00  0.00    +0.000 A 
ATOM     25  C6  UNL     1      30.937  -9.753 -32.658  0.00  0.00    +0.000 A 
ATOM     26  C7  UNL     1      29.559  -9.622 -32.849  0.00  0.00    +0.000 A 
ATOM     27  C8  UNL     1      29.047  -9.395 -34.130  0.00  0.00    +0.000 A 
ENDBRANCH  21  22
ENDBRANCH  18  20
ENDBRANCH   1  17
TORSDOF 4
ENDMDL
MODEL 7
REMARK VINA RESULT:    -5.746      5.149      7.182
REMARK INTER + INTRA:          -7.519
REMARK INTER:                  -7.143
REMARK INTRA:                  -0.375
REMARK UNBOUND:                -0.429
REMARK  Name = resultss/4CJN/ligands/lig_175_t0.pdb
REMARK  4 active torsions:
REMARK  status: ('A' for Active; 'I' for Inactive)
REMARK    1  A    between atoms: C1_2  and  C9_12
REMARK    2  A    between atoms: N1_3  and  N2_4
REMARK    3  A    between atoms: C2_5  and  C3_6
REMARK    4  A    between atoms: C12_15  and  C13_16
REMARK                            x       y       z     vdW  Elec       q    Type
REMARK                         _______ _______ _______ _____ _____    ______ ____
ROOT
ATOM      1  C9  UNL     1      26.252  -9.624 -40.303  0.00  0.00    +0.000 A 
ATOM      2  C10 UNL     1      27.436 -10.369 -40.160  0.00  0.00    +0.000 A 
ATOM      3  C11 UNL     1      28.135 -10.368 -38.950  0.00  0.00    +0.000 A 
ATOM      4  C12 UNL     1      27.671  -9.617 -37.855  0.00  0.00    +0.000 A 
ATOM      5  C20 UNL     1      26.493  -8.864 -38.002  0.00  0.00    +0.000 A 
ATOM      6  C21 UNL     1      25.795  -8.865 -39.213  0.00  0.00    +0.000 A 
ENDROOT
BRANCH   4   7
ATOM      7  C13 UNL     1      28.404  -9.609 -36.569  0.00  0.00    +0.000 A 
ATOM      8  N3  UNL     1      29.760  -9.590 -36.488  0.00  0.00    +0.000 NA
ATOM      9  C14 UNL     1      30.180  -9.585 -35.196  0.00  0.00    +0.000 A 
ATOM     10  C15 UNL     1      31.519  -9.568 -34.803  0.00  0.00    +0.000 A 
ATOM     11  C16 UNL     1      31.819  -9.563 -33.429  0.00  0.00    +0.000 A 
ATOM     12  C17 UNL     1      30.784  -9.576 -32.473  0.00  0.00    +0.000 A 
ATOM     13  C18 UNL     1      29.440  -9.593 -32.881  0.00  0.00    +0.000 A 
ATOM     14  C19 UNL     1      29.172  -9.598 -34.247  0.00  0.00    +0.000 A 
ATOM     15  S1  UNL     1      27.689  -9.617 -35.028  0.00  0.00    +0.000 S 
ENDBRANCH   4   7
BRANCH   1  17
ATOM     16  O1  UNL     1      24.851 -10.634 -41.931  0.00  0.00    +0.000 OA
ATOM     17  C1  UNL     1      25.508  -9.614 -41.586  0.00  0.00    +0.000 C 
ATOM     18  N1  UNL     1      25.566  -8.476 -42.464  0.00  0.00    +0.000 N 
ATOM     19  H1  UNL     1      26.426  -7.883 -42.452  0.00  0.00    +0.000 HD
BRANCH  18  20
ATOM     20  N2  UNL     1      24.632  -8.244 -43.492  0.00  0.00    +0.000 NA
ATOM     21  C2  UNL     1      24.891  -7.542 -44.553  0.00  0.00    +0.000 C 
BRANCH  21  22
ATOM     22  C3  UNL     1      23.863  -7.322 -45.589  0.00  0.00    +0.000 A 
ATOM     23  C4  UNL     1      24.171  -7.407 -46.961  0.00  0.00    +0.000 A 
ATOM     24  C5  UNL     1      23.177  -7.195 -47.921  0.00  0.00    +0.000 A 
ATOM     25  C6  UNL     1      21.870  -6.898 -47.524  0.00  0.00    +0.000 A 
ATOM     26  C7  UNL     1      21.555  -6.812 -46.166  0.00  0.00    +0.000 A 
ATOM     27  C8  UNL     1      22.545  -7.023 -45.202  0.00  0.00    +0.000 A 
ENDBRANCH  21  22
ENDBRANCH  18  20
ENDBRANCH   1  17
TORSDOF 4
ENDMDL
MODEL 8
REMARK VINA RESULT:    -5.690      5.437      8.630
REMARK INTER + INTRA:          -7.449
REMARK INTER:                  -7.071
REMARK INTRA:                  -0.378
REMARK UNBOUND:                -0.429
REMARK  Name = resultss/4CJN/ligands/lig_175_t0.pdb
REMARK  4 active torsions:
REMARK  status: ('A' for Active; 'I' for Inactive)
REMARK    1  A    between atoms: C1_2  and  C9_12
REMARK    2  A    between atoms: N1_3  and  N2_4
REMARK    3  A    between atoms: C2_5  and  C3_6
REMARK    4  A    between atoms: C12_15  and  C13_16
REMARK                            x       y       z     vdW  Elec       q    Type
REMARK                         _______ _______ _______ _____ _____    ______ ____
ROOT
ATOM      1  C9  UNL     1      25.414  -9.170 -40.871  0.00  0.00    +0.000 A 
ATOM      2  C10 UNL     1      26.574  -9.961 -40.951  0.00  0.00    +0.000 A 
ATOM      3  C11 UNL     1      27.455 -10.041 -39.869  0.00  0.00    +0.000 A 
ATOM      4  C12 UNL     1      27.200  -9.330 -38.683  0.00  0.00    +0.000 A 
ATOM      5  C20 UNL     1      26.045  -8.531 -38.608  0.00  0.00    +0.000 A 
ATOM      6  C21 UNL     1      25.165  -8.451 -39.691  0.00  0.00    +0.000 A 
ENDROOT
BRANCH   4   7
ATOM      7  C13 UNL     1      28.127  -9.408 -37.531  0.00  0.00    +0.000 A 
ATOM      8  N3  UNL     1      27.705  -9.540 -36.247  0.00  0.00    +0.000 NA
ATOM      9  C14 UNL     1      28.751  -9.589 -35.383  0.00  0.00    +0.000 A 
ATOM     10  C15 UNL     1      28.627  -9.721 -33.999  0.00  0.00    +0.000 A 
ATOM     11  C16 UNL     1      29.794  -9.759 -33.217  0.00  0.00    +0.000 A 
ATOM     12  C17 UNL     1      31.063  -9.665 -33.822  0.00  0.00    +0.000 A 
ATOM     13  C18 UNL     1      31.176  -9.532 -35.215  0.00  0.00    +0.000 A 
ATOM     14  C19 UNL     1      30.004  -9.497 -35.967  0.00  0.00    +0.000 A 
ATOM     15  S1  UNL     1      29.822  -9.349 -37.626  0.00  0.00    +0.000 S 
ENDBRANCH   4   7
BRANCH   1  17
ATOM     16  O1  UNL     1      24.408 -10.023 -42.845  0.00  0.00    +0.000 OA
ATOM     17  C1  UNL     1      24.477  -9.073 -42.018  0.00  0.00    +0.000 C 
ATOM     18  N1  UNL     1      23.685  -7.891 -42.225  0.00  0.00    +0.000 N 
ATOM     19  H1  UNL     1      24.060  -6.976 -41.888  0.00  0.00    +0.000 HD
BRANCH  18  20
ATOM     20  N2  UNL     1      22.544  -7.860 -43.049  0.00  0.00    +0.000 NA
ATOM     21  C2  UNL     1      21.839  -6.790 -43.261  0.00  0.00    +0.000 C 
BRANCH  21  22
ATOM     22  C3  UNL     1      20.642  -6.826 -44.123  0.00  0.00    +0.000 A 
ATOM     23  C4  UNL     1      20.737  -6.673 -45.521  0.00  0.00    +0.000 A 
ATOM     24  C5  UNL     1      19.587  -6.712 -46.315  0.00  0.00    +0.000 A 
ATOM     25  C6  UNL     1      18.335  -6.906 -45.725  0.00  0.00    +0.000 A 
ATOM     26  C7  UNL     1      18.230  -7.061 -44.341  0.00  0.00    +0.000 A 
ATOM     27  C8  UNL     1      19.377  -7.021 -43.542  0.00  0.00    +0.000 A 
ENDBRANCH  21  22
ENDBRANCH  18  20
ENDBRANCH   1  17
TORSDOF 4
ENDMDL
MODEL 9
REMARK VINA RESULT:    -5.642      5.393      7.530
REMARK INTER + INTRA:          -7.390
REMARK INTER:                  -6.987
REMARK INTRA:                  -0.403
REMARK UNBOUND:                -0.429
REMARK  Name = resultss/4CJN/ligands/lig_175_t0.pdb
REMARK  4 active torsions:
REMARK  status: ('A' for Active; 'I' for Inactive)
REMARK    1  A    between atoms: C1_2  and  C9_12
REMARK    2  A    between atoms: N1_3  and  N2_4
REMARK    3  A    between atoms: C2_5  and  C3_6
REMARK    4  A    between atoms: C12_15  and  C13_16
REMARK                            x       y       z     vdW  Elec       q    Type
REMARK                         _______ _______ _______ _____ _____    ______ ____
ROOT
ATOM      1  C9  UNL     1      25.823  -9.153 -41.275  0.00  0.00    +0.000 A 
ATOM      2  C10 UNL     1      27.081  -9.781 -41.301  0.00  0.00    +0.000 A 
ATOM      3  C11 UNL     1      27.858  -9.863 -40.142  0.00  0.00    +0.000 A 
ATOM      4  C12 UNL     1      27.399  -9.314 -38.932  0.00  0.00    +0.000 A 
ATOM      5  C20 UNL     1      26.146  -8.677 -38.909  0.00  0.00    +0.000 A 
ATOM      6  C21 UNL     1      25.370  -8.595 -40.068  0.00  0.00    +0.000 A 
ENDROOT
BRANCH   4   7
ATOM      7  C13 UNL     1      28.216  -9.394 -37.699  0.00  0.00    +0.000 A 
ATOM      8  N3  UNL     1      27.675  -9.471 -36.454  0.00  0.00    +0.000 NA
ATOM      9  C14 UNL     1      28.638  -9.536 -35.498  0.00  0.00    +0.000 A 
ATOM     10  C15 UNL     1      28.384  -9.621 -34.129  0.00  0.00    +0.000 A 
ATOM     11  C16 UNL     1      29.474  -9.682 -33.243  0.00  0.00    +0.000 A 
ATOM     12  C17 UNL     1      30.795  -9.657 -33.734  0.00  0.00    +0.000 A 
ATOM     13  C18 UNL     1      31.038  -9.571 -35.114  0.00  0.00    +0.000 A 
ATOM     14  C19 UNL     1      29.940  -9.512 -35.969  0.00  0.00    +0.000 A 
ATOM     15  S1  UNL     1      29.914  -9.406 -37.641  0.00  0.00    +0.000 S 
ENDBRANCH   4   7
BRANCH   1  17
ATOM     16  O1  UNL     1      24.310 -10.050 -42.869  0.00  0.00    +0.000 OA
ATOM     17  C1  UNL     1      24.994  -9.056 -42.502  0.00  0.00    +0.000 C 
ATOM     18  N1  UNL     1      25.000  -7.862 -43.303  0.00  0.00    +0.000 N 
ATOM     19  H1  UNL     1      25.862  -7.272 -43.309  0.00  0.00    +0.000 HD
BRANCH  18  20
ATOM     20  N2  UNL     1      24.001  -7.560 -44.248  0.00  0.00    +0.000 NA
ATOM     21  C2  UNL     1      24.234  -7.403 -45.516  0.00  0.00    +0.000 C 
BRANCH  21  22
ATOM     22  C3  UNL     1      23.144  -7.071 -46.454  0.00  0.00    +0.000 A 
ATOM     23  C4  UNL     1      23.406  -6.753 -47.802  0.00  0.00    +0.000 A 
ATOM     24  C5  UNL     1      22.354  -6.444 -48.670  0.00  0.00    +0.000 A 
ATOM     25  C6  UNL     1      21.036  -6.450 -48.205  0.00  0.00    +0.000 A 
ATOM     26  C7  UNL     1      20.767  -6.765 -46.871  0.00  0.00    +0.000 A 
ATOM     27  C8  UNL     1      21.814  -7.074 -45.999  0.00  0.00    +0.000 A 
ENDBRANCH  21  22
ENDBRANCH  18  20
ENDBRANCH   1  17
TORSDOF 4
ENDMDL
