MODEL 1
REMARK VINA RESULT:    -7.607      0.000      0.000
REMARK INTER + INTRA:         -10.307
REMARK INTER:                  -9.608
REMARK INTRA:                  -0.700
REMARK UNBOUND:                -0.700
REMARK  Name = resultss/4CJN/ligands/lig_408_t1.pdb
REMARK  5 active torsions:
REMARK  status: ('A' for Active; 'I' for Inactive)
REMARK    1  A    between atoms: C1_2  and  C9_15
REMARK    2  A    between atoms: N1_3  and  N2_4
REMARK    3  A    between atoms: C2_5  and  S1_6
REMARK    4  A    between atoms: N3_7  and  C3_8
REMARK    5  A    between atoms: C19_26  and  C20_27
REMARK                            x       y       z     vdW  Elec       q    Type
REMARK                         _______ _______ _______ _____ _____    ______ ____
ROOT
ATOM      1  C9  UNL     1      27.574  -9.695 -40.109  0.00  0.00    +0.000 A 
ATOM      2  C10 UNL     1      27.615  -9.704 -38.698  0.00  0.00    +0.000 A 
ATOM      3  C11 UNL     1      26.518  -9.176 -38.029  0.00  0.00    +0.000 A 
ATOM      4  C12 UNL     1      25.437  -8.644 -38.700  0.00  0.00    +0.000 A 
ATOM      5  N4  UNL     1      24.475  -8.239 -37.836  0.00  0.00    +0.000 N 
ATOM      6  C13 UNL     1      24.972  -8.515 -36.609  0.00  0.00    +0.000 A 
ATOM      7  C14 UNL     1      24.349  -8.300 -35.378  0.00  0.00    +0.000 A 
ATOM      8  C15 UNL     1      25.036  -8.691 -34.211  0.00  0.00    +0.000 A 
ATOM      9  C16 UNL     1      26.315  -9.287 -34.297  0.00  0.00    +0.000 A 
ATOM     10  C17 UNL     1      26.924  -9.495 -35.549  0.00  0.00    +0.000 A 
ATOM     11  C18 UNL     1      26.223  -9.091 -36.686  0.00  0.00    +0.000 A 
ATOM     12  C19 UNL     1      25.416  -8.625 -40.101  0.00  0.00    +0.000 A 
ATOM     13  N5  UNL     1      26.486  -9.165 -40.758  0.00  0.00    +0.000 NA
ATOM     14  H9  UNL     1      23.537  -7.837 -38.055  0.00  0.00    +0.000 HD
ENDROOT
BRANCH  12  15
ATOM     15  C20 UNL     1      24.306  -8.037 -40.880  0.00  0.00    +0.000 A 
ATOM     16  C21 UNL     1      23.926  -6.697 -40.695  0.00  0.00    +0.000 A 
ATOM     17  C22 UNL     1      22.901  -6.141 -41.464  0.00  0.00    +0.000 A 
ATOM     18  C23 UNL     1      22.253  -6.913 -42.429  0.00  0.00    +0.000 A 
ATOM     19  C24 UNL     1      22.635  -8.242 -42.632  0.00  0.00    +0.000 A 
ATOM     20  C25 UNL     1      23.664  -8.800 -41.869  0.00  0.00    +0.000 A 
ENDBRANCH  12  15
BRANCH   1  22
ATOM     21  O1  UNL     1      28.780 -11.469 -41.122  0.00  0.00    +0.000 OA
ATOM     22  C1  UNL     1      28.700 -10.231 -40.896  0.00  0.00    +0.000 C 
ATOM     23  N1  UNL     1      29.696  -9.351 -41.428  0.00  0.00    +0.000 N 
ATOM     24  H1  UNL     1      29.564  -8.319 -41.337  0.00  0.00    +0.000 HD
BRANCH  23  25
ATOM     25  N2  UNL     1      30.862  -9.884 -42.002  0.00  0.00    +0.000 NA
ATOM     26  C2  UNL     1      32.015  -9.939 -41.403  0.00  0.00    +0.000 C 
ATOM     27  N3  UNL     1      33.152 -10.493 -42.081  0.00  0.00    +0.000 N 
ATOM     28  H3  UNL     1      34.102 -10.250 -41.714  0.00  0.00    +0.000 HD
BRANCH  27  29
ATOM     29  C3  UNL     1      33.071 -11.252 -43.299  0.00  0.00    +0.000 A 
ATOM     30  C4  UNL     1      32.597 -12.574 -43.260  0.00  0.00    +0.000 A 
ATOM     31  C5  UNL     1      32.498 -13.328 -44.436  0.00  0.00    +0.000 A 
ATOM     32  C6  UNL     1      32.857 -12.762 -45.664  0.00  0.00    +0.000 A 
ATOM     33  C7  UNL     1      33.309 -11.440 -45.716  0.00  0.00    +0.000 A 
ATOM     34  F1  UNL     1      33.640 -10.884 -46.908  0.00  0.00    +0.000 F 
ATOM     35  C8  UNL     1      33.411 -10.683 -44.541  0.00  0.00    +0.000 A 
ENDBRANCH  27  29
BRANCH  26  36
ATOM     36  S1  UNL     1      32.264  -9.233 -39.763  0.00  0.00    +0.000 S 
ATOM     37  H2  UNL     1      33.512  -9.857 -39.625  0.00  0.00    +0.000 HD
ENDBRANCH  26  36
ENDBRANCH  23  25
ENDBRANCH   1  22
TORSDOF 5
ENDMDL
MODEL 2
REMARK VINA RESULT:    -7.416      4.150      9.745
REMARK INTER + INTRA:         -10.067
REMARK INTER:                  -9.228
REMARK INTRA:                  -0.839
REMARK UNBOUND:                -0.700
REMARK  Name = resultss/4CJN/ligands/lig_408_t1.pdb
REMARK  5 active torsions:
REMARK  status: ('A' for Active; 'I' for Inactive)
REMARK    1  A    between atoms: C1_2  and  C9_15
REMARK    2  A    between atoms: N1_3  and  N2_4
REMARK    3  A    between atoms: C2_5  and  S1_6
REMARK    4  A    between atoms: N3_7  and  C3_8
REMARK    5  A    between atoms: C19_26  and  C20_27
REMARK                            x       y       z     vdW  Elec       q    Type
REMARK                         _______ _______ _______ _____ _____    ______ ____
ROOT
ATOM      1  C9  UNL     1      28.192  -9.251 -39.810  0.00  0.00    +0.000 A 
ATOM      2  C10 UNL     1      27.546  -8.300 -40.628  0.00  0.00    +0.000 A 
ATOM      3  C11 UNL     1      27.987  -8.189 -41.941  0.00  0.00    +0.000 A 
ATOM      4  C12 UNL     1      29.023  -8.955 -42.434  0.00  0.00    +0.000 A 
ATOM      5  N4  UNL     1      29.236  -8.705 -43.748  0.00  0.00    +0.000 N 
ATOM      6  C13 UNL     1      28.324  -7.761 -44.074  0.00  0.00    +0.000 A 
ATOM      7  C14 UNL     1      28.124  -7.178 -45.326  0.00  0.00    +0.000 A 
ATOM      8  C15 UNL     1      27.091  -6.228 -45.457  0.00  0.00    +0.000 A 
ATOM      9  C16 UNL     1      26.285  -5.887 -44.347  0.00  0.00    +0.000 A 
ATOM     10  C17 UNL     1      26.505  -6.487 -43.092  0.00  0.00    +0.000 A 
ATOM     11  C18 UNL     1      27.539  -7.419 -42.992  0.00  0.00    +0.000 A 
ATOM     12  C19 UNL     1      29.668  -9.885 -41.606  0.00  0.00    +0.000 A 
ATOM     13  N5  UNL     1      29.218 -10.008 -40.321  0.00  0.00    +0.000 NA
ATOM     14  H9  UNL     1      29.922  -9.160 -44.390  0.00  0.00    +0.000 HD
ENDROOT
BRANCH  12  15
ATOM     15  C20 UNL     1      30.807 -10.710 -42.059  0.00  0.00    +0.000 A 
ATOM     16  C21 UNL     1      30.595 -11.923 -42.736  0.00  0.00    +0.000 A 
ATOM     17  C22 UNL     1      31.679 -12.675 -43.194  0.00  0.00    +0.000 A 
ATOM     18  C23 UNL     1      32.982 -12.220 -42.989  0.00  0.00    +0.000 A 
ATOM     19  C24 UNL     1      33.203 -11.007 -42.332  0.00  0.00    +0.000 A 
ATOM     20  C25 UNL     1      32.121 -10.248 -41.878  0.00  0.00    +0.000 A 
ENDBRANCH  12  15
BRANCH   1  22
ATOM     21  O1  UNL     1      27.356 -10.544 -38.005  0.00  0.00    +0.000 OA
ATOM     22  C1  UNL     1      27.789  -9.428 -38.403  0.00  0.00    +0.000 C 
ATOM     23  N1  UNL     1      27.906  -8.345 -37.474  0.00  0.00    +0.000 N 
ATOM     24  H1  UNL     1      28.372  -7.461 -37.780  0.00  0.00    +0.000 HD
BRANCH  23  25
ATOM     25  N2  UNL     1      27.339  -8.460 -36.194  0.00  0.00    +0.000 NA
ATOM     26  C2  UNL     1      27.997  -8.816 -35.130  0.00  0.00    +0.000 C 
ATOM     27  N3  UNL     1      27.322  -8.915 -33.868  0.00  0.00    +0.000 N 
ATOM     28  H3  UNL     1      27.778  -9.484 -33.116  0.00  0.00    +0.000 HD
BRANCH  27  29
ATOM     29  C3  UNL     1      26.008  -8.388 -33.614  0.00  0.00    +0.000 A 
ATOM     30  C4  UNL     1      25.856  -7.022 -33.322  0.00  0.00    +0.000 A 
ATOM     31  C5  UNL     1      24.585  -6.486 -33.083  0.00  0.00    +0.000 A 
ATOM     32  C6  UNL     1      23.453  -7.305 -33.151  0.00  0.00    +0.000 A 
ATOM     33  C7  UNL     1      23.592  -8.661 -33.463  0.00  0.00    +0.000 A 
ATOM     34  F1  UNL     1      22.495  -9.453 -33.547  0.00  0.00    +0.000 F 
ATOM     35  C8  UNL     1      24.863  -9.202 -33.700  0.00  0.00    +0.000 A 
ENDBRANCH  27  29
BRANCH  26  36
ATOM     36  S1  UNL     1      29.730  -9.305 -35.209  0.00  0.00    +0.000 S 
ATOM     37  H2  UNL     1      30.099  -8.092 -35.809  0.00  0.00    +0.000 HD
ENDBRANCH  26  36
ENDBRANCH  23  25
ENDBRANCH   1  22
TORSDOF 5
ENDMDL
MODEL 3
REMARK VINA RESULT:    -7.042      1.493      2.002
REMARK INTER + INTRA:          -9.594
REMARK INTER:                  -9.089
REMARK INTRA:                  -0.505
REMARK UNBOUND:                -0.700
REMARK  Name = resultss/4CJN/ligands/lig_408_t1.pdb
REMARK  5 active torsions:
REMARK  status: ('A' for Active; 'I' for Inactive)
REMARK    1  A    between atoms: C1_2  and  C9_15
REMARK    2  A    between atoms: N1_3  and  N2_4
REMARK    3  A    between atoms: C2_5  and  S1_6
REMARK    4  A    between atoms: N3_7  and  C3_8
REMARK    5  A    between atoms: C19_26  and  C20_27
REMARK                            x       y       z     vdW  Elec       q    Type
REMARK                         _______ _______ _______ _____ _____    ______ ____
ROOT
ATOM      1  C9  UNL     1      28.465 -10.134 -41.204  0.00  0.00    +0.000 A 
ATOM      2  C10 UNL     1      28.471 -10.084 -39.794  0.00  0.00    +0.000 A 
ATOM      3  C11 UNL     1      27.360  -9.525 -39.175  0.00  0.00    +0.000 A 
ATOM      4  C12 UNL     1      26.297  -9.019 -39.894  0.00  0.00    +0.000 A 
ATOM      5  N4  UNL     1      25.316  -8.575 -39.072  0.00  0.00    +0.000 N 
ATOM      6  C13 UNL     1      25.782  -8.800 -37.822  0.00  0.00    +0.000 A 
ATOM      7  C14 UNL     1      25.130  -8.531 -36.617  0.00  0.00    +0.000 A 
ATOM      8  C15 UNL     1      25.787  -8.874 -35.418  0.00  0.00    +0.000 A 
ATOM      9  C16 UNL     1      27.066  -9.477 -35.447  0.00  0.00    +0.000 A 
ATOM     10  C17 UNL     1      27.705  -9.739 -36.674  0.00  0.00    +0.000 A 
ATOM     11  C18 UNL     1      27.033  -9.382 -37.844  0.00  0.00    +0.000 A 
ATOM     12  C19 UNL     1      26.310  -9.059 -41.295  0.00  0.00    +0.000 A 
ATOM     13  N5  UNL     1      27.394  -9.629 -41.902  0.00  0.00    +0.000 NA
ATOM     14  H9  UNL     1      24.385  -8.180 -39.330  0.00  0.00    +0.000 HD
ENDROOT
BRANCH  12  15
ATOM     15  C20 UNL     1      25.222  -8.501 -42.125  0.00  0.00    +0.000 A 
ATOM     16  C21 UNL     1      23.885  -8.868 -41.901  0.00  0.00    +0.000 A 
ATOM     17  C22 UNL     1      22.860  -8.305 -42.666  0.00  0.00    +0.000 A 
ATOM     18  C23 UNL     1      23.161  -7.367 -43.655  0.00  0.00    +0.000 A 
ATOM     19  C24 UNL     1      24.486  -6.984 -43.874  0.00  0.00    +0.000 A 
ATOM     20  C25 UNL     1      25.514  -7.540 -43.106  0.00  0.00    +0.000 A 
ENDBRANCH  12  15
BRANCH   1  22
ATOM     21  O1  UNL     1      29.841 -11.944 -41.881  0.00  0.00    +0.000 OA
ATOM     22  C1  UNL     1      29.607 -10.707 -41.941  0.00  0.00    +0.000 C 
ATOM     23  N1  UNL     1      30.444  -9.868 -42.744  0.00  0.00    +0.000 N 
ATOM     24  H1  UNL     1      30.179  -8.866 -42.882  0.00  0.00    +0.000 HD
BRANCH  23  25
ATOM     25  N2  UNL     1      31.638 -10.381 -43.278  0.00  0.00    +0.000 NA
ATOM     26  C2  UNL     1      32.749 -10.495 -42.613  0.00  0.00    +0.000 C 
ATOM     27  N3  UNL     1      33.920 -11.021 -43.253  0.00  0.00    +0.000 N 
ATOM     28  H3  UNL     1      34.848 -10.820 -42.811  0.00  0.00    +0.000 HD
BRANCH  27  29
ATOM     29  C3  UNL     1      33.908 -11.697 -44.523  0.00  0.00    +0.000 A 
ATOM     30  C4  UNL     1      34.372 -11.027 -45.667  0.00  0.00    +0.000 A 
ATOM     31  C5  UNL     1      34.380 -11.670 -46.911  0.00  0.00    +0.000 A 
ATOM     32  C6  UNL     1      33.940 -12.993 -47.020  0.00  0.00    +0.000 A 
ATOM     33  C7  UNL     1      33.497 -13.676 -45.883  0.00  0.00    +0.000 A 
ATOM     34  F1  UNL     1      33.087 -14.964 -45.983  0.00  0.00    +0.000 F 
ATOM     35  C8  UNL     1      33.486 -13.034 -44.636  0.00  0.00    +0.000 A 
ENDBRANCH  27  29
BRANCH  26  36
ATOM     36  S1  UNL     1      32.901  -9.903 -40.917  0.00  0.00    +0.000 S 
ATOM     37  H2  UNL     1      34.005 -10.732 -40.670  0.00  0.00    +0.000 HD
ENDBRANCH  26  36
ENDBRANCH  23  25
ENDBRANCH   1  22
TORSDOF 5
ENDMDL
MODEL 4
REMARK VINA RESULT:    -6.914      5.464      9.441
REMARK INTER + INTRA:          -9.433
REMARK INTER:                  -9.477
REMARK INTRA:                   0.044
REMARK UNBOUND:                -0.700
REMARK  Name = resultss/4CJN/ligands/lig_408_t1.pdb
REMARK  5 active torsions:
REMARK  status: ('A' for Active; 'I' for Inactive)
REMARK    1  A    between atoms: C1_2  and  C9_15
REMARK    2  A    between atoms: N1_3  and  N2_4
REMARK    3  A    between atoms: C2_5  and  S1_6
REMARK    4  A    between atoms: N3_7  and  C3_8
REMARK    5  A    between atoms: C19_26  and  C20_27
REMARK                            x       y       z     vdW  Elec       q    Type
REMARK                         _______ _______ _______ _____ _____    ______ ____
ROOT
ATOM      1  C9  UNL     1      24.276  -7.227 -41.232  0.00  0.00    +0.000 A 
ATOM      2  C10 UNL     1      25.445  -7.325 -42.018  0.00  0.00    +0.000 A 
ATOM      3  C11 UNL     1      25.289  -7.249 -43.396  0.00  0.00    +0.000 A 
ATOM      4  C12 UNL     1      24.052  -7.105 -43.988  0.00  0.00    +0.000 A 
ATOM      5  N4  UNL     1      24.160  -7.006 -45.334  0.00  0.00    +0.000 N 
ATOM      6  C13 UNL     1      25.487  -7.100 -45.584  0.00  0.00    +0.000 A 
ATOM      7  C14 UNL     1      26.118  -7.036 -46.827  0.00  0.00    +0.000 A 
ATOM      8  C15 UNL     1      27.524  -7.127 -46.860  0.00  0.00    +0.000 A 
ATOM      9  C16 UNL     1      28.263  -7.273 -45.664  0.00  0.00    +0.000 A 
ATOM     10  C17 UNL     1      27.605  -7.335 -44.421  0.00  0.00    +0.000 A 
ATOM     11  C18 UNL     1      26.212  -7.250 -44.420  0.00  0.00    +0.000 A 
ATOM     12  C19 UNL     1      22.897  -7.027 -43.197  0.00  0.00    +0.000 A 
ATOM     13  N5  UNL     1      23.054  -7.078 -41.841  0.00  0.00    +0.000 NA
ATOM     14  H9  UNL     1      23.402  -6.851 -46.035  0.00  0.00    +0.000 HD
ENDROOT
BRANCH  12  15
ATOM     15  C20 UNL     1      21.539  -6.909 -43.768  0.00  0.00    +0.000 A 
ATOM     16  C21 UNL     1      20.403  -6.966 -42.943  0.00  0.00    +0.000 A 
ATOM     17  C22 UNL     1      19.125  -6.816 -43.489  0.00  0.00    +0.000 A 
ATOM     18  C23 UNL     1      18.972  -6.598 -44.859  0.00  0.00    +0.000 A 
ATOM     19  C24 UNL     1      20.096  -6.523 -45.685  0.00  0.00    +0.000 A 
ATOM     20  C25 UNL     1      21.376  -6.668 -45.142  0.00  0.00    +0.000 A 
ENDBRANCH  12  15
BRANCH   1  22
ATOM     21  O1  UNL     1      24.329  -6.247 -39.072  0.00  0.00    +0.000 OA
ATOM     22  C1  UNL     1      24.352  -7.303 -39.761  0.00  0.00    +0.000 C 
ATOM     23  N1  UNL     1      24.429  -8.573 -39.105  0.00  0.00    +0.000 N 
ATOM     24  H1  UNL     1      24.332  -9.445 -39.671  0.00  0.00    +0.000 HD
BRANCH  23  25
ATOM     25  N2  UNL     1      24.700  -8.630 -37.728  0.00  0.00    +0.000 NA
ATOM     26  C2  UNL     1      25.853  -8.953 -37.220  0.00  0.00    +0.000 C 
ATOM     27  N3  UNL     1      26.025  -8.994 -35.796  0.00  0.00    +0.000 N 
ATOM     28  H3  UNL     1      26.837  -9.539 -35.421  0.00  0.00    +0.000 HD
BRANCH  27  29
ATOM     29  C3  UNL     1      25.088  -8.442 -34.856  0.00  0.00    +0.000 A 
ATOM     30  C4  UNL     1      24.642  -7.120 -35.020  0.00  0.00    +0.000 A 
ATOM     31  C5  UNL     1      23.720  -6.566 -34.123  0.00  0.00    +0.000 A 
ATOM     32  C6  UNL     1      23.224  -7.333 -33.064  0.00  0.00    +0.000 A 
ATOM     33  C7  UNL     1      23.645  -8.657 -32.905  0.00  0.00    +0.000 A 
ATOM     34  F1  UNL     1      23.152  -9.407 -31.889  0.00  0.00    +0.000 F 
ATOM     35  C8  UNL     1      24.569  -9.214 -33.800  0.00  0.00    +0.000 A 
ENDBRANCH  27  29
BRANCH  26  36
ATOM     36  S1  UNL     1      27.234  -9.465 -38.259  0.00  0.00    +0.000 S 
ATOM     37  H2  UNL     1      28.152  -9.303 -37.211  0.00  0.00    +0.000 HD
ENDBRANCH  26  36
ENDBRANCH  23  25
ENDBRANCH   1  22
TORSDOF 5
ENDMDL
MODEL 5
REMARK VINA RESULT:    -6.858      4.058      8.172
REMARK INTER + INTRA:          -9.362
REMARK INTER:                  -9.040
REMARK INTRA:                  -0.322
REMARK UNBOUND:                -0.700
REMARK  Name = resultss/4CJN/ligands/lig_408_t1.pdb
REMARK  5 active torsions:
REMARK  status: ('A' for Active; 'I' for Inactive)
REMARK    1  A    between atoms: C1_2  and  C9_15
REMARK    2  A    between atoms: N1_3  and  N2_4
REMARK    3  A    between atoms: C2_5  and  S1_6
REMARK    4  A    between atoms: N3_7  and  C3_8
REMARK    5  A    between atoms: C19_26  and  C20_27
REMARK                            x       y       z     vdW  Elec       q    Type
REMARK                         _______ _______ _______ _____ _____    ______ ____
ROOT
ATOM      1  C9  UNL     1      27.320  -9.221 -41.946  0.00  0.00    +0.000 A 
ATOM      2  C10 UNL     1      27.076  -9.070 -40.565  0.00  0.00    +0.000 A 
ATOM      3  C11 UNL     1      28.075  -9.492 -39.695  0.00  0.00    +0.000 A 
ATOM      4  C12 UNL     1      29.250 -10.055 -40.147  0.00  0.00    +0.000 A 
ATOM      5  N4  UNL     1      30.085 -10.339 -39.118  0.00  0.00    +0.000 N 
ATOM      6  C13 UNL     1      29.411  -9.957 -38.009  0.00  0.00    +0.000 A 
ATOM      7  C14 UNL     1      29.854 -10.027 -36.687  0.00  0.00    +0.000 A 
ATOM      8  C15 UNL     1      28.999  -9.542 -35.676  0.00  0.00    +0.000 A 
ATOM      9  C16 UNL     1      27.736  -8.999 -36.004  0.00  0.00    +0.000 A 
ATOM     10  C17 UNL     1      27.310  -8.939 -37.345  0.00  0.00    +0.000 A 
ATOM     11  C18 UNL     1      28.174  -9.432 -38.322  0.00  0.00    +0.000 A 
ATOM     12  C19 UNL     1      29.474 -10.215 -41.522  0.00  0.00    +0.000 A 
ATOM     13  N5  UNL     1      28.500  -9.778 -42.376  0.00  0.00    +0.000 NA
ATOM     14  H9  UNL     1      31.051 -10.731 -39.158  0.00  0.00    +0.000 HD
ENDROOT
BRANCH  12  15
ATOM     15  C20 UNL     1      30.694 -10.842 -42.070  0.00  0.00    +0.000 A 
ATOM     16  C21 UNL     1      30.625 -12.053 -42.780  0.00  0.00    +0.000 A 
ATOM     17  C22 UNL     1      31.780 -12.617 -43.327  0.00  0.00    +0.000 A 
ATOM     18  C23 UNL     1      33.011 -11.975 -43.177  0.00  0.00    +0.000 A 
ATOM     19  C24 UNL     1      33.086 -10.763 -42.486  0.00  0.00    +0.000 A 
ATOM     20  C25 UNL     1      31.932 -10.192 -41.943  0.00  0.00    +0.000 A 
ENDBRANCH  12  15
BRANCH   1  22
ATOM     21  O1  UNL     1      25.418  -9.611 -43.309  0.00  0.00    +0.000 OA
ATOM     22  C1  UNL     1      26.311  -8.803 -42.937  0.00  0.00    +0.000 C 
ATOM     23  N1  UNL     1      26.325  -7.473 -43.468  0.00  0.00    +0.000 N 
ATOM     24  H1  UNL     1      26.994  -6.774 -43.073  0.00  0.00    +0.000 HD
BRANCH  23  25
ATOM     25  N2  UNL     1      25.491  -7.145 -44.549  0.00  0.00    +0.000 NA
ATOM     26  C2  UNL     1      25.910  -6.950 -45.765  0.00  0.00    +0.000 C 
ATOM     27  N3  UNL     1      24.978  -6.607 -46.801  0.00  0.00    +0.000 N 
ATOM     28  H3  UNL     1      25.359  -6.164 -47.669  0.00  0.00    +0.000 HD
BRANCH  27  29
ATOM     29  C3  UNL     1      23.551  -6.719 -46.668  0.00  0.00    +0.000 A 
ATOM     30  C4  UNL     1      22.812  -7.375 -47.667  0.00  0.00    +0.000 A 
ATOM     31  C5  UNL     1      21.423  -7.505 -47.551  0.00  0.00    +0.000 A 
ATOM     32  C6  UNL     1      20.761  -6.997 -46.429  0.00  0.00    +0.000 A 
ATOM     33  C7  UNL     1      21.490  -6.361 -45.419  0.00  0.00    +0.000 A 
ATOM     34  F1  UNL     1      20.852  -5.883 -44.322  0.00  0.00    +0.000 F 
ATOM     35  C8  UNL     1      22.881  -6.227 -45.532  0.00  0.00    +0.000 A 
ENDBRANCH  27  29
BRANCH  26  36
ATOM     36  S1  UNL     1      27.664  -6.990 -46.179  0.00  0.00    +0.000 S 
ATOM     37  H2  UNL     1      27.606  -5.723 -46.777  0.00  0.00    +0.000 HD
ENDBRANCH  26  36
ENDBRANCH  23  25
ENDBRANCH   1  22
TORSDOF 5
ENDMDL
MODEL 6
REMARK VINA RESULT:    -6.676      6.046      8.050
REMARK INTER + INTRA:          -9.132
REMARK INTER:                  -8.570
REMARK INTRA:                  -0.563
REMARK UNBOUND:                -0.700
REMARK  Name = resultss/4CJN/ligands/lig_408_t1.pdb
REMARK  5 active torsions:
REMARK  status: ('A' for Active; 'I' for Inactive)
REMARK    1  A    between atoms: C1_2  and  C9_15
REMARK    2  A    between atoms: N1_3  and  N2_4
REMARK    3  A    between atoms: C2_5  and  S1_6
REMARK    4  A    between atoms: N3_7  and  C3_8
REMARK    5  A    between atoms: C19_26  and  C20_27
REMARK                            x       y       z     vdW  Elec       q    Type
REMARK                         _______ _______ _______ _____ _____    ______ ____
ROOT
ATOM      1  C9  UNL     1      28.945  -9.665 -35.015  0.00  0.00    +0.000 A 
ATOM      2  C10 UNL     1      27.866  -9.235 -34.214  0.00  0.00    +0.000 A 
ATOM      3  C11 UNL     1      26.670  -8.947 -34.861  0.00  0.00    +0.000 A 
ATOM      4  C12 UNL     1      26.534  -9.054 -36.230  0.00  0.00    +0.000 A 
ATOM      5  N4  UNL     1      25.269  -8.770 -36.620  0.00  0.00    +0.000 N 
ATOM      6  C13 UNL     1      24.611  -8.472 -35.476  0.00  0.00    +0.000 A 
ATOM      7  C14 UNL     1      23.265  -8.128 -35.341  0.00  0.00    +0.000 A 
ATOM      8  C15 UNL     1      22.770  -7.885 -34.044  0.00  0.00    +0.000 A 
ATOM      9  C16 UNL     1      23.620  -7.993 -32.919  0.00  0.00    +0.000 A 
ATOM     10  C17 UNL     1      24.975  -8.342 -33.079  0.00  0.00    +0.000 A 
ATOM     11  C18 UNL     1      25.438  -8.570 -34.376  0.00  0.00    +0.000 A 
ATOM     12  C19 UNL     1      27.619  -9.466 -37.017  0.00  0.00    +0.000 A 
ATOM     13  N5  UNL     1      28.786  -9.770 -36.376  0.00  0.00    +0.000 NA
ATOM     14  H9  UNL     1      24.864  -8.806 -37.581  0.00  0.00    +0.000 HD
ENDROOT
BRANCH  12  15
ATOM     15  C20 UNL     1      27.550  -9.565 -38.489  0.00  0.00    +0.000 A 
ATOM     16  C21 UNL     1      27.636 -10.811 -39.133  0.00  0.00    +0.000 A 
ATOM     17  C22 UNL     1      27.532 -10.896 -40.524  0.00  0.00    +0.000 A 
ATOM     18  C23 UNL     1      27.333  -9.742 -41.282  0.00  0.00    +0.000 A 
ATOM     19  C24 UNL     1      27.230  -8.500 -40.650  0.00  0.00    +0.000 A 
ATOM     20  C25 UNL     1      27.327  -8.411 -39.259  0.00  0.00    +0.000 A 
ENDBRANCH  12  15
BRANCH   1  22
ATOM     21  O1  UNL     1      31.304  -9.896 -35.093  0.00  0.00    +0.000 OA
ATOM     22  C1  UNL     1      30.250  -9.986 -34.408  0.00  0.00    +0.000 C 
ATOM     23  N1  UNL     1      30.332 -10.382 -33.035  0.00  0.00    +0.000 N 
ATOM     24  H1  UNL     1      29.472 -10.344 -32.442  0.00  0.00    +0.000 HD
BRANCH  23  25
ATOM     25  N2  UNL     1      31.543 -10.875 -32.523  0.00  0.00    +0.000 NA
ATOM     26  C2  UNL     1      32.440 -10.143 -31.930  0.00  0.00    +0.000 C 
ATOM     27  N3  UNL     1      33.654 -10.741 -31.451  0.00  0.00    +0.000 N 
ATOM     28  H3  UNL     1      34.467 -10.109 -31.266  0.00  0.00    +0.000 HD
BRANCH  27  29
ATOM     29  C3  UNL     1      33.858 -12.159 -31.329  0.00  0.00    +0.000 A 
ATOM     30  C4  UNL     1      33.848 -12.753 -30.055  0.00  0.00    +0.000 A 
ATOM     31  C5  UNL     1      34.033 -14.133 -29.915  0.00  0.00    +0.000 A 
ATOM     32  C6  UNL     1      34.213 -14.936 -31.046  0.00  0.00    +0.000 A 
ATOM     33  C7  UNL     1      34.203 -14.358 -32.319  0.00  0.00    +0.000 A 
ATOM     34  F1  UNL     1      34.360 -15.137 -33.418  0.00  0.00    +0.000 F 
ATOM     35  C8  UNL     1      34.020 -12.976 -32.464  0.00  0.00    +0.000 A 
ENDBRANCH  27  29
BRANCH  26  36
ATOM     36  S1  UNL     1      32.258  -8.356 -31.784  0.00  0.00    +0.000 S 
ATOM     37  H2  UNL     1      33.126  -8.304 -30.684  0.00  0.00    +0.000 HD
ENDBRANCH  26  36
ENDBRANCH  23  25
ENDBRANCH   1  22
TORSDOF 5
ENDMDL
MODEL 7
REMARK VINA RESULT:    -6.633      3.600      5.142
REMARK INTER + INTRA:          -9.078
REMARK INTER:                  -8.618
REMARK INTRA:                  -0.460
REMARK UNBOUND:                -0.700
REMARK  Name = resultss/4CJN/ligands/lig_408_t1.pdb
REMARK  5 active torsions:
REMARK  status: ('A' for Active; 'I' for Inactive)
REMARK    1  A    between atoms: C1_2  and  C9_15
REMARK    2  A    between atoms: N1_3  and  N2_4
REMARK    3  A    between atoms: C2_5  and  S1_6
REMARK    4  A    between atoms: N3_7  and  C3_8
REMARK    5  A    between atoms: C19_26  and  C20_27
REMARK                            x       y       z     vdW  Elec       q    Type
REMARK                         _______ _______ _______ _____ _____    ______ ____
ROOT
ATOM      1  C9  UNL     1      29.233  -9.729 -37.382  0.00  0.00    +0.000 A 
ATOM      2  C10 UNL     1      30.406  -9.713 -36.599  0.00  0.00    +0.000 A 
ATOM      3  C11 UNL     1      30.258  -9.461 -35.240  0.00  0.00    +0.000 A 
ATOM      4  C12 UNL     1      29.027  -9.215 -34.670  0.00  0.00    +0.000 A 
ATOM      5  N4  UNL     1      29.131  -9.048 -33.330  0.00  0.00    +0.000 N 
ATOM      6  C13 UNL     1      30.451  -9.182 -33.065  0.00  0.00    +0.000 A 
ATOM      7  C14 UNL     1      31.072  -9.112 -31.817  0.00  0.00    +0.000 A 
ATOM      8  C15 UNL     1      32.467  -9.311 -31.760  0.00  0.00    +0.000 A 
ATOM      9  C16 UNL     1      33.202  -9.579 -32.937  0.00  0.00    +0.000 A 
ATOM     10  C17 UNL     1      32.554  -9.645 -34.186  0.00  0.00    +0.000 A 
ATOM     11  C18 UNL     1      31.175  -9.436 -34.212  0.00  0.00    +0.000 A 
ATOM     12  C19 UNL     1      27.870  -9.216 -35.462  0.00  0.00    +0.000 A 
ATOM     13  N5  UNL     1      28.015  -9.487 -36.794  0.00  0.00    +0.000 NA
ATOM     14  H9  UNL     1      28.368  -8.889 -32.636  0.00  0.00    +0.000 HD
ENDROOT
BRANCH  12  15
ATOM     15  C20 UNL     1      26.526  -8.924 -34.921  0.00  0.00    +0.000 A 
ATOM     16  C21 UNL     1      25.850  -9.863 -34.124  0.00  0.00    +0.000 A 
ATOM     17  C22 UNL     1      24.596  -9.561 -33.587  0.00  0.00    +0.000 A 
ATOM     18  C23 UNL     1      24.011  -8.318 -33.833  0.00  0.00    +0.000 A 
ATOM     19  C24 UNL     1      24.683  -7.372 -34.611  0.00  0.00    +0.000 A 
ATOM     20  C25 UNL     1      25.940  -7.668 -35.145  0.00  0.00    +0.000 A 
ENDBRANCH  12  15
BRANCH   1  22
ATOM     21  O1  UNL     1      28.360 -10.589 -39.413  0.00  0.00    +0.000 OA
ATOM     22  C1  UNL     1      29.301  -9.984 -38.833  0.00  0.00    +0.000 C 
ATOM     23  N1  UNL     1      30.424  -9.529 -39.595  0.00  0.00    +0.000 N 
ATOM     24  H1  UNL     1      31.144  -8.929 -39.133  0.00  0.00    +0.000 HD
BRANCH  23  25
ATOM     25  N2  UNL     1      30.577  -9.945 -40.928  0.00  0.00    +0.000 NA
ATOM     26  C2  UNL     1      30.118  -9.295 -41.957  0.00  0.00    +0.000 C 
ATOM     27  N3  UNL     1      30.316  -9.812 -43.281  0.00  0.00    +0.000 N 
ATOM     28  H3  UNL     1      29.692  -9.452 -44.041  0.00  0.00    +0.000 HD
BRANCH  27  29
ATOM     29  C3  UNL     1      31.228 -10.877 -43.600  0.00  0.00    +0.000 A 
ATOM     30  C4  UNL     1      31.008 -12.159 -43.069  0.00  0.00    +0.000 A 
ATOM     31  C5  UNL     1      31.877 -13.212 -43.376  0.00  0.00    +0.000 A 
ATOM     32  C6  UNL     1      32.964 -12.999 -44.231  0.00  0.00    +0.000 A 
ATOM     33  C7  UNL     1      33.178 -11.733 -44.783  0.00  0.00    +0.000 A 
ATOM     34  F1  UNL     1      34.220 -11.528 -45.626  0.00  0.00    +0.000 F 
ATOM     35  C8  UNL     1      32.311 -10.674 -44.476  0.00  0.00    +0.000 A 
ENDBRANCH  27  29
BRANCH  26  36
ATOM     36  S1  UNL     1      29.129  -7.800 -41.766  0.00  0.00    +0.000 S 
ATOM     37  H2  UNL     1      29.826  -7.423 -40.609  0.00  0.00    +0.000 HD
ENDBRANCH  26  36
ENDBRANCH  23  25
ENDBRANCH   1  22
TORSDOF 5
ENDMDL
MODEL 8
REMARK VINA RESULT:    -6.587      3.967      6.413
REMARK INTER + INTRA:          -9.020
REMARK INTER:                  -8.334
REMARK INTRA:                  -0.686
REMARK UNBOUND:                -0.700
REMARK  Name = resultss/4CJN/ligands/lig_408_t1.pdb
REMARK  5 active torsions:
REMARK  status: ('A' for Active; 'I' for Inactive)
REMARK    1  A    between atoms: C1_2  and  C9_15
REMARK    2  A    between atoms: N1_3  and  N2_4
REMARK    3  A    between atoms: C2_5  and  S1_6
REMARK    4  A    between atoms: N3_7  and  C3_8
REMARK    5  A    between atoms: C19_26  and  C20_27
REMARK                            x       y       z     vdW  Elec       q    Type
REMARK                         _______ _______ _______ _____ _____    ______ ____
ROOT
ATOM      1  C9  UNL     1      27.449  -8.640 -37.223  0.00  0.00    +0.000 A 
ATOM      2  C10 UNL     1      28.731  -8.899 -36.695  0.00  0.00    +0.000 A 
ATOM      3  C11 UNL     1      28.854  -8.923 -35.311  0.00  0.00    +0.000 A 
ATOM      4  C12 UNL     1      27.782  -8.685 -34.476  0.00  0.00    +0.000 A 
ATOM      5  N4  UNL     1      28.136  -8.811 -33.175  0.00  0.00    +0.000 N 
ATOM      6  C13 UNL     1      29.453  -9.122 -33.202  0.00  0.00    +0.000 A 
ATOM      7  C14 UNL     1      30.283  -9.373 -32.109  0.00  0.00    +0.000 A 
ATOM      8  C15 UNL     1      31.628  -9.712 -32.363  0.00  0.00    +0.000 A 
ATOM      9  C16 UNL     1      32.108  -9.797 -33.690  0.00  0.00    +0.000 A 
ATOM     10  C17 UNL     1      31.252  -9.540 -34.778  0.00  0.00    +0.000 A 
ATOM     11  C18 UNL     1      29.928  -9.200 -34.495  0.00  0.00    +0.000 A 
ATOM     12  C19 UNL     1      26.516  -8.411 -35.013  0.00  0.00    +0.000 A 
ATOM     13  N5  UNL     1      26.393  -8.411 -36.374  0.00  0.00    +0.000 NA
ATOM     14  H9  UNL     1      27.532  -8.728 -32.328  0.00  0.00    +0.000 HD
ENDROOT
BRANCH  12  15
ATOM     15  C20 UNL     1      25.336  -8.112 -34.176  0.00  0.00    +0.000 A 
ATOM     16  C21 UNL     1      24.920  -6.787 -33.965  0.00  0.00    +0.000 A 
ATOM     17  C22 UNL     1      23.780  -6.517 -33.203  0.00  0.00    +0.000 A 
ATOM     18  C23 UNL     1      23.042  -7.567 -32.654  0.00  0.00    +0.000 A 
ATOM     19  C24 UNL     1      23.438  -8.889 -32.872  0.00  0.00    +0.000 A 
ATOM     20  C25 UNL     1      24.575  -9.163 -33.639  0.00  0.00    +0.000 A 
ENDBRANCH  12  15
BRANCH   1  22
ATOM     21  O1  UNL     1      26.199  -9.110 -39.184  0.00  0.00    +0.000 OA
ATOM     22  C1  UNL     1      27.232  -8.592 -38.681  0.00  0.00    +0.000 C 
ATOM     23  N1  UNL     1      28.181  -7.941 -39.533  0.00  0.00    +0.000 N 
ATOM     24  H1  UNL     1      28.975  -7.415 -39.102  0.00  0.00    +0.000 HD
BRANCH  23  25
ATOM     25  N2  UNL     1      28.071  -8.072 -40.927  0.00  0.00    +0.000 NA
ATOM     26  C2  UNL     1      28.693  -8.972 -41.630  0.00  0.00    +0.000 C 
ATOM     27  N3  UNL     1      28.524  -9.015 -43.054  0.00  0.00    +0.000 N 
ATOM     28  H3  UNL     1      29.247  -9.525 -43.614  0.00  0.00    +0.000 HD
BRANCH  27  29
ATOM     29  C3  UNL     1      27.497  -8.301 -43.764  0.00  0.00    +0.000 A 
ATOM     30  C4  UNL     1      27.853  -7.457 -44.830  0.00  0.00    +0.000 A 
ATOM     31  C5  UNL     1      26.868  -6.762 -45.542  0.00  0.00    +0.000 A 
ATOM     32  C6  UNL     1      25.519  -6.917 -45.208  0.00  0.00    +0.000 A 
ATOM     33  C7  UNL     1      25.153  -7.772 -44.164  0.00  0.00    +0.000 A 
ATOM     34  F1  UNL     1      23.845  -7.937 -43.851  0.00  0.00    +0.000 F 
ATOM     35  C8  UNL     1      26.136  -8.468 -43.447  0.00  0.00    +0.000 A 
ENDBRANCH  27  29
BRANCH  26  36
ATOM     36  S1  UNL     1      29.865 -10.116 -40.878  0.00  0.00    +0.000 S 
ATOM     37  H2  UNL     1      29.922  -9.364 -39.695  0.00  0.00    +0.000 HD
ENDBRANCH  26  36
ENDBRANCH  23  25
ENDBRANCH   1  22
TORSDOF 5
ENDMDL
MODEL 9
REMARK VINA RESULT:    -6.547      4.719      9.236
REMARK INTER + INTRA:          -8.969
REMARK INTER:                  -8.912
REMARK INTRA:                  -0.057
REMARK UNBOUND:                -0.700
REMARK  Name = resultss/4CJN/ligands/lig_408_t1.pdb
REMARK  5 active torsions:
REMARK  status: ('A' for Active; 'I' for Inactive)
REMARK    1  A    between atoms: C1_2  and  C9_15
REMARK    2  A    between atoms: N1_3  and  N2_4
REMARK    3  A    between atoms: C2_5  and  S1_6
REMARK    4  A    between atoms: N3_7  and  C3_8
REMARK    5  A    between atoms: C19_26  and  C20_27
REMARK                            x       y       z     vdW  Elec       q    Type
REMARK                         _______ _______ _______ _____ _____    ______ ____
ROOT
ATOM      1  C9  UNL     1      25.017  -7.956 -40.688  0.00  0.00    +0.000 A 
ATOM      2  C10 UNL     1      24.916  -8.120 -39.291  0.00  0.00    +0.000 A 
ATOM      3  C11 UNL     1      25.966  -8.769 -38.651  0.00  0.00    +0.000 A 
ATOM      4  C12 UNL     1      27.057  -9.254 -39.341  0.00  0.00    +0.000 A 
ATOM      5  N4  UNL     1      27.967  -9.799 -38.499  0.00  0.00    +0.000 N 
ATOM      6  C13 UNL     1      27.427  -9.660 -37.267  0.00  0.00    +0.000 A 
ATOM      7  C14 UNL     1      27.989 -10.050 -36.050  0.00  0.00    +0.000 A 
ATOM      8  C15 UNL     1      27.265  -9.781 -34.870  0.00  0.00    +0.000 A 
ATOM      9  C16 UNL     1      26.011  -9.131 -34.930  0.00  0.00    +0.000 A 
ATOM     10  C17 UNL     1      25.464  -8.746 -36.168  0.00  0.00    +0.000 A 
ATOM     11  C18 UNL     1      26.199  -9.032 -37.319  0.00  0.00    +0.000 A 
ATOM     12  C19 UNL     1      27.137  -9.100 -40.732  0.00  0.00    +0.000 A 
ATOM     13  N5  UNL     1      26.115  -8.442 -41.356  0.00  0.00    +0.000 NA
ATOM     14  H9  UNL     1      28.900 -10.206 -38.730  0.00  0.00    +0.000 HD
ENDROOT
BRANCH  12  15
ATOM     15  C20 UNL     1      28.259  -9.628 -41.535  0.00  0.00    +0.000 A 
ATOM     16  C21 UNL     1      28.756  -8.913 -42.638  0.00  0.00    +0.000 A 
ATOM     17  C22 UNL     1      29.842  -9.404 -43.367  0.00  0.00    +0.000 A 
ATOM     18  C23 UNL     1      30.447 -10.606 -42.997  0.00  0.00    +0.000 A 
ATOM     19  C24 UNL     1      29.971 -11.315 -41.892  0.00  0.00    +0.000 A 
ATOM     20  C25 UNL     1      28.888 -10.825 -41.156  0.00  0.00    +0.000 A 
ENDBRANCH  12  15
BRANCH   1  22
ATOM     21  O1  UNL     1      23.717  -6.057 -41.264  0.00  0.00    +0.000 OA
ATOM     22  C1  UNL     1      23.945  -7.283 -41.445  0.00  0.00    +0.000 C 
ATOM     23  N1  UNL     1      23.170  -8.010 -42.405  0.00  0.00    +0.000 N 
ATOM     24  H1  UNL     1      23.437  -8.994 -42.634  0.00  0.00    +0.000 HD
BRANCH  23  25
ATOM     25  N2  UNL     1      22.029  -7.419 -42.972  0.00  0.00    +0.000 NA
ATOM     26  C2  UNL     1      21.961  -6.982 -44.195  0.00  0.00    +0.000 C 
ATOM     27  N3  UNL     1      20.750  -6.381 -44.677  0.00  0.00    +0.000 N 
ATOM     28  H3  UNL     1      20.814  -5.777 -45.529  0.00  0.00    +0.000 HD
BRANCH  27  29
ATOM     29  C3  UNL     1      19.487  -6.458 -43.995  0.00  0.00    +0.000 A 
ATOM     30  C4  UNL     1      18.356  -6.928 -44.684  0.00  0.00    +0.000 A 
ATOM     31  C5  UNL     1      17.119  -7.021 -44.035  0.00  0.00    +0.000 A 
ATOM     32  C6  UNL     1      17.004  -6.662 -42.688  0.00  0.00    +0.000 A 
ATOM     33  C7  UNL     1      18.128  -6.214 -41.988  0.00  0.00    +0.000 A 
ATOM     34  F1  UNL     1      18.022  -5.883 -40.678  0.00  0.00    +0.000 F 
ATOM     35  C8  UNL     1      19.368  -6.117 -42.634  0.00  0.00    +0.000 A 
ENDBRANCH  27  29
BRANCH  26  36
ATOM     36  S1  UNL     1      23.393  -7.007 -45.289  0.00  0.00    +0.000 S 
ATOM     37  H2  UNL     1      23.288  -5.632 -45.544  0.00  0.00    +0.000 HD
ENDBRANCH  26  36
ENDBRANCH  23  25
ENDBRANCH   1  22
TORSDOF 5
ENDMDL
