MODEL 1
REMARK VINA RESULT:    -4.822      0.000      0.000
REMARK INTER + INTRA:          -7.139
REMARK INTER:                  -6.654
REMARK INTRA:                  -0.485
REMARK UNBOUND:                -0.485
REMARK  Name = resultss/4CJN/ligands/lig_68_t0.pdb
REMARK  9 active torsions:
REMARK  status: ('A' for Active; 'I' for Inactive)
REMARK    1  A    between atoms: O1_1  and  C1_2
REMARK    2  A    between atoms: C1_2  and  C2_3
REMARK    3  A    between atoms: C2_3  and  O2_4
REMARK    4  A    between atoms: C4_6  and  N1_7
REMARK    5  A    between atoms: N1_7  and  C5_8
REMARK    6  A    between atoms: C5_8  and  C6_9
REMARK    7  A    between atoms: C10_14  and  O3_15
REMARK    8  A    between atoms: C11_16  and  O4_17
REMARK    9  A    between atoms: C12_18  and  O5_19
REMARK                            x       y       z     vdW  Elec       q    Type
REMARK                         _______ _______ _______ _____ _____    ______ ____
ROOT
ATOM      1  C2  UNL     1      25.610  -9.464 -41.822  0.00  0.00    +0.000 C 
ATOM      2  C3  UNL     1      27.018  -9.048 -42.320  0.00  0.00    +0.000 C 
ATOM      3  C4  UNL     1      28.161  -9.241 -41.283  0.00  0.00    +0.000 C 
ATOM      4  C10 UNL     1      27.642  -9.356 -39.818  0.00  0.00    +0.000 C 
ATOM      5  C11 UNL     1      26.438  -8.425 -39.558  0.00  0.00    +0.000 C 
ATOM      6  C12 UNL     1      25.238  -8.665 -40.532  0.00  0.00    +0.000 C 
ENDROOT
BRANCH   1   7
ATOM      7  O2  UNL     1      25.592 -10.846 -41.540  0.00  0.00    +0.000 OA
ATOM      8  H4  UNL     1      26.446 -11.083 -41.092  0.00  0.00    +0.000 HD
ENDBRANCH   1   7
BRANCH   3   9
ATOM      9  N1  UNL     1      29.008 -10.403 -41.658  0.00  0.00    +0.000 NA
ATOM     10  H8  UNL     1      28.758 -11.231 -41.068  0.00  0.00    +0.000 HD
BRANCH   9  11
ATOM     11  C5  UNL     1      30.441 -10.170 -41.415  0.00  0.00    +0.000 C 
BRANCH  11  12
ATOM     12  C6  UNL     1      31.293 -11.035 -42.292  0.00  0.00    +0.000 A 
ATOM     13  C7  UNL     1      30.866 -12.155 -42.995  0.00  0.00    +0.000 A 
ATOM     14  C8  UNL     1      31.903 -12.805 -43.674  0.00  0.00    +0.000 A 
ATOM     15  C9  UNL     1      33.144 -12.205 -43.504  0.00  0.00    +0.000 A 
ATOM     16  S1  UNL     1      32.952 -10.866 -42.504  0.00  0.00    +0.000 S 
ENDBRANCH  11  12
ENDBRANCH   9  11
ENDBRANCH   3   9
BRANCH   4  17
ATOM     17  O3  UNL     1      27.290 -10.684 -39.514  0.00  0.00    +0.000 OA
ATOM     18  H15 UNL     1      26.698 -10.653 -38.717  0.00  0.00    +0.000 HD
ENDBRANCH   4  17
BRANCH   5  19
ATOM     19  O4  UNL     1      26.844  -7.078 -39.567  0.00  0.00    +0.000 OA
ATOM     20  H17 UNL     1      27.545  -6.960 -38.876  0.00  0.00    +0.000 HD
ENDBRANCH   5  19
BRANCH   6  21
ATOM     21  O5  UNL     1      24.206  -9.339 -39.853  0.00  0.00    +0.000 OA
ATOM     22  H19 UNL     1      24.496 -10.283 -39.748  0.00  0.00    +0.000 HD
ENDBRANCH   6  21
BRANCH   1  23
ATOM     23  C1  UNL     1      24.576  -9.171 -42.943  0.00  0.00    +0.000 C 
BRANCH  23  24
ATOM     24  O1  UNL     1      23.454 -10.005 -42.823  0.00  0.00    +0.000 OA
ATOM     25  H1  UNL     1      23.196 -10.277 -43.742  0.00  0.00    +0.000 HD
ENDBRANCH  23  24
ENDBRANCH   1  23
TORSDOF 9
ENDMDL
MODEL 2
REMARK VINA RESULT:    -4.774      1.888      2.640
REMARK INTER + INTRA:          -7.074
REMARK INTER:                  -6.489
REMARK INTRA:                  -0.585
REMARK UNBOUND:                -0.485
REMARK  Name = resultss/4CJN/ligands/lig_68_t0.pdb
REMARK  9 active torsions:
REMARK  status: ('A' for Active; 'I' for Inactive)
REMARK    1  A    between atoms: O1_1  and  C1_2
REMARK    2  A    between atoms: C1_2  and  C2_3
REMARK    3  A    between atoms: C2_3  and  O2_4
REMARK    4  A    between atoms: C4_6  and  N1_7
REMARK    5  A    between atoms: N1_7  and  C5_8
REMARK    6  A    between atoms: C5_8  and  C6_9
REMARK    7  A    between atoms: C10_14  and  O3_15
REMARK    8  A    between atoms: C11_16  and  O4_17
REMARK    9  A    between atoms: C12_18  and  O5_19
REMARK                            x       y       z     vdW  Elec       q    Type
REMARK                         _______ _______ _______ _____ _____    ______ ____
ROOT
ATOM      1  C2  UNL     1      24.765  -8.376 -43.493  0.00  0.00    +0.000 C 
ATOM      2  C3  UNL     1      26.091  -8.010 -42.779  0.00  0.00    +0.000 C 
ATOM      3  C4  UNL     1      26.368  -8.802 -41.469  0.00  0.00    +0.000 C 
ATOM      4  C10 UNL     1      25.084  -9.452 -40.867  0.00  0.00    +0.000 C 
ATOM      5  C11 UNL     1      23.845  -8.547 -41.041  0.00  0.00    +0.000 C 
ATOM      6  C12 UNL     1      23.556  -8.159 -42.529  0.00  0.00    +0.000 C 
ENDROOT
BRANCH   1   7
ATOM      7  O2  UNL     1      24.801  -9.725 -43.906  0.00  0.00    +0.000 OA
ATOM      8  H4  UNL     1      24.893 -10.294 -43.097  0.00  0.00    +0.000 HD
ENDBRANCH   1   7
BRANCH   3   9
ATOM      9  N1  UNL     1      27.440  -9.807 -41.689  0.00  0.00    +0.000 NA
ATOM     10  H8  UNL     1      28.074  -9.840 -40.857  0.00  0.00    +0.000 HD
BRANCH   9  11
ATOM     11  C5  UNL     1      28.311  -9.476 -42.829  0.00  0.00    +0.000 C 
BRANCH  11  12
ATOM     12  C6  UNL     1      29.744  -9.792 -42.532  0.00  0.00    +0.000 A 
ATOM     13  C7  UNL     1      30.583 -10.583 -43.307  0.00  0.00    +0.000 A 
ATOM     14  C8  UNL     1      31.850 -10.758 -42.741  0.00  0.00    +0.000 A 
ATOM     15  C9  UNL     1      32.011 -10.114 -41.521  0.00  0.00    +0.000 A 
ATOM     16  S1  UNL     1      30.571  -9.329 -41.144  0.00  0.00    +0.000 S 
ENDBRANCH  11  12
ENDBRANCH   9  11
ENDBRANCH   3   9
BRANCH   4  17
ATOM     17  O3  UNL     1      24.840 -10.710 -41.448  0.00  0.00    +0.000 OA
ATOM     18  H15 UNL     1      24.132 -10.582 -42.131  0.00  0.00    +0.000 HD
ENDBRANCH   4  17
BRANCH   5  19
ATOM     19  O4  UNL     1      23.946  -7.406 -40.224  0.00  0.00    +0.000 OA
ATOM     20  H17 UNL     1      24.825  -6.980 -40.393  0.00  0.00    +0.000 HD
ENDBRANCH   5  19
BRANCH   6  21
ATOM     21  O5  UNL     1      22.451  -8.890 -43.001  0.00  0.00    +0.000 OA
ATOM     22  H19 UNL     1      22.620  -9.844 -42.784  0.00  0.00    +0.000 HD
ENDBRANCH   6  21
BRANCH   1  23
ATOM     23  C1  UNL     1      24.609  -7.475 -44.749  0.00  0.00    +0.000 C 
BRANCH  23  24
ATOM     24  O1  UNL     1      23.712  -8.044 -45.667  0.00  0.00    +0.000 OA
ATOM     25  H1  UNL     1      24.210  -8.744 -46.163  0.00  0.00    +0.000 HD
ENDBRANCH  23  24
ENDBRANCH   1  23
TORSDOF 9
ENDMDL
MODEL 3
REMARK VINA RESULT:    -4.731      4.624      6.179
REMARK INTER + INTRA:          -7.014
REMARK INTER:                  -6.276
REMARK INTRA:                  -0.739
REMARK UNBOUND:                -0.485
REMARK  Name = resultss/4CJN/ligands/lig_68_t0.pdb
REMARK  9 active torsions:
REMARK  status: ('A' for Active; 'I' for Inactive)
REMARK    1  A    between atoms: O1_1  and  C1_2
REMARK    2  A    between atoms: C1_2  and  C2_3
REMARK    3  A    between atoms: C2_3  and  O2_4
REMARK    4  A    between atoms: C4_6  and  N1_7
REMARK    5  A    between atoms: N1_7  and  C5_8
REMARK    6  A    between atoms: C5_8  and  C6_9
REMARK    7  A    between atoms: C10_14  and  O3_15
REMARK    8  A    between atoms: C11_16  and  O4_17
REMARK    9  A    between atoms: C12_18  and  O5_19
REMARK                            x       y       z     vdW  Elec       q    Type
REMARK                         _______ _______ _______ _____ _____    ______ ____
ROOT
ATOM      1  C2  UNL     1      24.470  -7.739 -35.907  0.00  0.00    +0.000 C 
ATOM      2  C3  UNL     1      25.965  -7.331 -35.920  0.00  0.00    +0.000 C 
ATOM      3  C4  UNL     1      26.931  -8.369 -35.279  0.00  0.00    +0.000 C 
ATOM      4  C10 UNL     1      26.204  -9.377 -34.338  0.00  0.00    +0.000 C 
ATOM      5  C11 UNL     1      25.066  -8.705 -33.540  0.00  0.00    +0.000 C 
ATOM      6  C12 UNL     1      23.997  -8.006 -34.443  0.00  0.00    +0.000 C 
ENDROOT
BRANCH   1   7
ATOM      7  O2  UNL     1      24.287  -8.905 -36.680  0.00  0.00    +0.000 OA
ATOM      8  H4  UNL     1      25.177  -9.317 -36.837  0.00  0.00    +0.000 HD
ENDBRANCH   1   7
BRANCH   3   9
ATOM      9  N1  UNL     1      27.712  -9.067 -36.332  0.00  0.00    +0.000 NA
ATOM     10  H8  UNL     1      28.722  -9.109 -36.058  0.00  0.00    +0.000 HD
BRANCH   9  11
ATOM     11  C5  UNL     1      27.690  -8.361 -37.625  0.00  0.00    +0.000 C 
BRANCH  11  12
ATOM     12  C6  UNL     1      27.315  -9.282 -38.744  0.00  0.00    +0.000 A 
ATOM     13  C7  UNL     1      27.928 -10.491 -39.047  0.00  0.00    +0.000 A 
ATOM     14  C8  UNL     1      27.407 -11.099 -40.194  0.00  0.00    +0.000 A 
ATOM     15  C9  UNL     1      26.391 -10.372 -40.799  0.00  0.00    +0.000 A 
ATOM     16  S1  UNL     1      26.143  -8.967 -39.907  0.00  0.00    +0.000 S 
ENDBRANCH  11  12
ENDBRANCH   9  11
ENDBRANCH   3   9
BRANCH   4  17
ATOM     17  O3  UNL     1      25.694 -10.466 -35.068  0.00  0.00    +0.000 OA
ATOM     18  H15 UNL     1      25.385 -11.140 -34.408  0.00  0.00    +0.000 HD
ENDBRANCH   4  17
BRANCH   5  19
ATOM     19  O4  UNL     1      25.590  -7.815 -32.584  0.00  0.00    +0.000 OA
ATOM     20  H17 UNL     1      25.040  -7.882 -31.763  0.00  0.00    +0.000 HD
ENDBRANCH   5  19
BRANCH   6  21
ATOM     21  O5  UNL     1      22.824  -8.782 -34.471  0.00  0.00    +0.000 OA
ATOM     22  H19 UNL     1      22.290  -8.531 -33.672  0.00  0.00    +0.000 HD
ENDBRANCH   6  21
BRANCH   1  23
ATOM     23  C1  UNL     1      23.633  -6.591 -36.533  0.00  0.00    +0.000 C 
BRANCH  23  24
ATOM     24  O1  UNL     1      22.302  -6.989 -36.733  0.00  0.00    +0.000 OA
ATOM     25  H1  UNL     1      22.136  -7.759 -36.128  0.00  0.00    +0.000 HD
ENDBRANCH  23  24
ENDBRANCH   1  23
TORSDOF 9
ENDMDL
MODEL 4
REMARK VINA RESULT:    -4.688      5.190      7.242
REMARK INTER + INTRA:          -6.955
REMARK INTER:                  -6.339
REMARK INTRA:                  -0.615
REMARK UNBOUND:                -0.485
REMARK  Name = resultss/4CJN/ligands/lig_68_t0.pdb
REMARK  9 active torsions:
REMARK  status: ('A' for Active; 'I' for Inactive)
REMARK    1  A    between atoms: O1_1  and  C1_2
REMARK    2  A    between atoms: C1_2  and  C2_3
REMARK    3  A    between atoms: C2_3  and  O2_4
REMARK    4  A    between atoms: C4_6  and  N1_7
REMARK    5  A    between atoms: N1_7  and  C5_8
REMARK    6  A    between atoms: C5_8  and  C6_9
REMARK    7  A    between atoms: C10_14  and  O3_15
REMARK    8  A    between atoms: C11_16  and  O4_17
REMARK    9  A    between atoms: C12_18  and  O5_19
REMARK                            x       y       z     vdW  Elec       q    Type
REMARK                         _______ _______ _______ _____ _____    ______ ____
ROOT
ATOM      1  C2  UNL     1      27.761  -8.225 -33.451  0.00  0.00    +0.000 C 
ATOM      2  C3  UNL     1      28.460  -9.348 -34.259  0.00  0.00    +0.000 C 
ATOM      3  C4  UNL     1      27.810  -9.663 -35.637  0.00  0.00    +0.000 C 
ATOM      4  C10 UNL     1      26.341  -9.152 -35.749  0.00  0.00    +0.000 C 
ATOM      5  C11 UNL     1      25.574  -9.307 -34.418  0.00  0.00    +0.000 C 
ATOM      6  C12 UNL     1      26.261  -8.587 -33.211  0.00  0.00    +0.000 C 
ENDROOT
BRANCH   1   7
ATOM      7  O2  UNL     1      27.843  -7.007 -34.159  0.00  0.00    +0.000 OA
ATOM      8  H4  UNL     1      28.743  -6.949 -34.575  0.00  0.00    +0.000 HD
ENDBRANCH   1   7
BRANCH   3   9
ATOM      9  N1  UNL     1      28.658  -9.141 -36.740  0.00  0.00    +0.000 NA
ATOM     10  H8  UNL     1      28.172  -8.346 -37.217  0.00  0.00    +0.000 HD
BRANCH   9  11
ATOM     11  C5  UNL     1      28.903 -10.137 -37.796  0.00  0.00    +0.000 C 
BRANCH  11  12
ATOM     12  C6  UNL     1      27.997  -9.925 -38.969  0.00  0.00    +0.000 A 
ATOM     13  C7  UNL     1      27.516 -10.913 -39.818  0.00  0.00    +0.000 A 
ATOM     14  C8  UNL     1      26.745 -10.406 -40.870  0.00  0.00    +0.000 A 
ATOM     15  C9  UNL     1      26.622  -9.023 -40.856  0.00  0.00    +0.000 A 
ATOM     16  S1  UNL     1      27.477  -8.430 -39.534  0.00  0.00    +0.000 S 
ENDBRANCH  11  12
ENDBRANCH   9  11
ENDBRANCH   3   9
BRANCH   4  17
ATOM     17  O3  UNL     1      26.308  -7.809 -36.163  0.00  0.00    +0.000 OA
ATOM     18  H15 UNL     1      25.719  -7.323 -35.528  0.00  0.00    +0.000 HD
ENDBRANCH   4  17
BRANCH   5  19
ATOM     19  O4  UNL     1      25.338 -10.666 -34.137  0.00  0.00    +0.000 OA
ATOM     20  H17 UNL     1      24.603 -10.723 -33.474  0.00  0.00    +0.000 HD
ENDBRANCH   5  19
BRANCH   6  21
ATOM     21  O5  UNL     1      25.549  -7.417 -32.892  0.00  0.00    +0.000 OA
ATOM     22  H19 UNL     1      24.644  -7.700 -32.595  0.00  0.00    +0.000 HD
ENDBRANCH   6  21
BRANCH   1  23
ATOM     23  C1  UNL     1      28.491  -8.060 -32.090  0.00  0.00    +0.000 C 
BRANCH  23  24
ATOM     24  O1  UNL     1      27.599  -7.645 -31.089  0.00  0.00    +0.000 OA
ATOM     25  H1  UNL     1      28.145  -7.250 -30.360  0.00  0.00    +0.000 HD
ENDBRANCH  23  24
ENDBRANCH   1  23
TORSDOF 9
ENDMDL
MODEL 5
REMARK VINA RESULT:    -4.654      4.017      5.522
REMARK INTER + INTRA:          -6.908
REMARK INTER:                  -6.272
REMARK INTRA:                  -0.636
REMARK UNBOUND:                -0.485
REMARK  Name = resultss/4CJN/ligands/lig_68_t0.pdb
REMARK  9 active torsions:
REMARK  status: ('A' for Active; 'I' for Inactive)
REMARK    1  A    between atoms: O1_1  and  C1_2
REMARK    2  A    between atoms: C1_2  and  C2_3
REMARK    3  A    between atoms: C2_3  and  O2_4
REMARK    4  A    between atoms: C4_6  and  N1_7
REMARK    5  A    between atoms: N1_7  and  C5_8
REMARK    6  A    between atoms: C5_8  and  C6_9
REMARK    7  A    between atoms: C10_14  and  O3_15
REMARK    8  A    between atoms: C11_16  and  O4_17
REMARK    9  A    between atoms: C12_18  and  O5_19
REMARK                            x       y       z     vdW  Elec       q    Type
REMARK                         _______ _______ _______ _____ _____    ______ ____
ROOT
ATOM      1  C2  UNL     1      25.641  -8.531 -35.311  0.00  0.00    +0.000 C 
ATOM      2  C3  UNL     1      26.714  -7.498 -35.740  0.00  0.00    +0.000 C 
ATOM      3  C4  UNL     1      27.978  -8.109 -36.410  0.00  0.00    +0.000 C 
ATOM      4  C10 UNL     1      28.156  -9.627 -36.105  0.00  0.00    +0.000 C 
ATOM      5  C11 UNL     1      27.732  -9.980 -34.663  0.00  0.00    +0.000 C 
ATOM      6  C12 UNL     1      26.261  -9.573 -34.325  0.00  0.00    +0.000 C 
ENDROOT
BRANCH   1   7
ATOM      7  O2  UNL     1      25.141  -9.201 -36.448  0.00  0.00    +0.000 OA
ATOM      8  H4  UNL     1      24.657 -10.013 -36.142  0.00  0.00    +0.000 HD
ENDBRANCH   1   7
BRANCH   3   9
ATOM      9  N1  UNL     1      27.970  -7.838 -37.871  0.00  0.00    +0.000 NA
ATOM     10  H8  UNL     1      27.382  -8.553 -38.361  0.00  0.00    +0.000 HD
BRANCH   9  11
ATOM     11  C5  UNL     1      29.305  -7.947 -38.482  0.00  0.00    +0.000 C 
BRANCH  11  12
ATOM     12  C6  UNL     1      29.300  -8.896 -39.641  0.00  0.00    +0.000 A 
ATOM     13  C7  UNL     1      28.180  -9.324 -40.340  0.00  0.00    +0.000 A 
ATOM     14  C8  UNL     1      28.477 -10.267 -41.331  0.00  0.00    +0.000 A 
ATOM     15  C9  UNL     1      29.826 -10.587 -41.409  0.00  0.00    +0.000 A 
ATOM     16  S1  UNL     1      30.649  -9.699 -40.241  0.00  0.00    +0.000 S 
ENDBRANCH  11  12
ENDBRANCH   9  11
ENDBRANCH   3   9
BRANCH   4  17
ATOM     17  O3  UNL     1      27.428 -10.410 -37.019  0.00  0.00    +0.000 OA
ATOM     18  H15 UNL     1      26.543  -9.975 -37.134  0.00  0.00    +0.000 HD
ENDBRANCH   4  17
BRANCH   5  19
ATOM     19  O4  UNL     1      28.640  -9.438 -33.734  0.00  0.00    +0.000 OA
ATOM     20  H17 UNL     1      28.807 -10.116 -33.031  0.00  0.00    +0.000 HD
ENDBRANCH   5  19
BRANCH   6  21
ATOM     21  O5  UNL     1      25.449 -10.721 -34.296  0.00  0.00    +0.000 OA
ATOM     22  H19 UNL     1      24.575 -10.469 -34.696  0.00  0.00    +0.000 HD
ENDBRANCH   6  21
BRANCH   1  23
ATOM     23  C1  UNL     1      24.471  -7.780 -34.621  0.00  0.00    +0.000 C 
BRANCH  23  24
ATOM     24  O1  UNL     1      23.337  -8.601 -34.518  0.00  0.00    +0.000 OA
ATOM     25  H1  UNL     1      23.398  -9.073 -33.647  0.00  0.00    +0.000 HD
ENDBRANCH  23  24
ENDBRANCH   1  23
TORSDOF 9
ENDMDL
MODEL 6
REMARK VINA RESULT:    -4.554      4.573      6.183
REMARK INTER + INTRA:          -6.770
REMARK INTER:                  -6.008
REMARK INTRA:                  -0.761
REMARK UNBOUND:                -0.485
REMARK  Name = resultss/4CJN/ligands/lig_68_t0.pdb
REMARK  9 active torsions:
REMARK  status: ('A' for Active; 'I' for Inactive)
REMARK    1  A    between atoms: O1_1  and  C1_2
REMARK    2  A    between atoms: C1_2  and  C2_3
REMARK    3  A    between atoms: C2_3  and  O2_4
REMARK    4  A    between atoms: C4_6  and  N1_7
REMARK    5  A    between atoms: N1_7  and  C5_8
REMARK    6  A    between atoms: C5_8  and  C6_9
REMARK    7  A    between atoms: C10_14  and  O3_15
REMARK    8  A    between atoms: C11_16  and  O4_17
REMARK    9  A    between atoms: C12_18  and  O5_19
REMARK                            x       y       z     vdW  Elec       q    Type
REMARK                         _______ _______ _______ _____ _____    ______ ____
ROOT
ATOM      1  C2  UNL     1      25.791  -8.699 -35.686  0.00  0.00    +0.000 C 
ATOM      2  C3  UNL     1      26.838  -7.707 -36.254  0.00  0.00    +0.000 C 
ATOM      3  C4  UNL     1      28.144  -8.368 -36.782  0.00  0.00    +0.000 C 
ATOM      4  C10 UNL     1      28.367  -9.807 -36.226  0.00  0.00    +0.000 C 
ATOM      5  C11 UNL     1      27.911  -9.934 -34.756  0.00  0.00    +0.000 C 
ATOM      6  C12 UNL     1      26.416  -9.537 -34.527  0.00  0.00    +0.000 C 
ENDROOT
BRANCH   1   7
ATOM      7  O2  UNL     1      25.351  -9.566 -36.709  0.00  0.00    +0.000 OA
ATOM      8  H4  UNL     1      25.965 -10.346 -36.740  0.00  0.00    +0.000 HD
ENDBRANCH   1   7
BRANCH   3   9
ATOM      9  N1  UNL     1      28.172  -8.342 -38.267  0.00  0.00    +0.000 NA
ATOM     10  H8  UNL     1      29.051  -7.881 -38.599  0.00  0.00    +0.000 HD
BRANCH   9  11
ATOM     11  C5  UNL     1      27.074  -7.552 -38.848  0.00  0.00    +0.000 C 
BRANCH  11  12
ATOM     12  C6  UNL     1      26.350  -8.319 -39.910  0.00  0.00    +0.000 A 
ATOM     13  C7  UNL     1      26.423  -9.691 -40.120  0.00  0.00    +0.000 A 
ATOM     14  C8  UNL     1      25.690 -10.116 -41.234  0.00  0.00    +0.000 A 
ATOM     15  C9  UNL     1      25.047  -9.085 -41.905  0.00  0.00    +0.000 A 
ATOM     16  S1  UNL     1      25.393  -7.641 -41.114  0.00  0.00    +0.000 S 
ENDBRANCH  11  12
ENDBRANCH   9  11
ENDBRANCH   3   9
BRANCH   4  17
ATOM     17  O3  UNL     1      27.696 -10.759 -37.015  0.00  0.00    +0.000 OA
ATOM     18  H15 UNL     1      26.747 -10.762 -36.723  0.00  0.00    +0.000 HD
ENDBRANCH   4  17
BRANCH   5  19
ATOM     19  O4  UNL     1      28.770  -9.210 -33.907  0.00  0.00    +0.000 OA
ATOM     20  H17 UNL     1      29.473  -8.788 -34.464  0.00  0.00    +0.000 HD
ENDBRANCH   5  19
BRANCH   6  21
ATOM     21  O5  UNL     1      25.645 -10.697 -34.328  0.00  0.00    +0.000 OA
ATOM     22  H19 UNL     1      26.242 -11.474 -34.491  0.00  0.00    +0.000 HD
ENDBRANCH   6  21
BRANCH   1  23
ATOM     23  C1  UNL     1      24.573  -7.893 -35.159  0.00  0.00    +0.000 C 
BRANCH  23  24
ATOM     24  O1  UNL     1      23.592  -8.748 -34.632  0.00  0.00    +0.000 OA
ATOM     25  H1  UNL     1      23.747  -9.645 -35.028  0.00  0.00    +0.000 HD
ENDBRANCH  23  24
ENDBRANCH   1  23
TORSDOF 9
ENDMDL
MODEL 7
REMARK VINA RESULT:    -4.515      4.352      6.332
REMARK INTER + INTRA:          -6.715
REMARK INTER:                  -6.087
REMARK INTRA:                  -0.628
REMARK UNBOUND:                -0.485
REMARK  Name = resultss/4CJN/ligands/lig_68_t0.pdb
REMARK  9 active torsions:
REMARK  status: ('A' for Active; 'I' for Inactive)
REMARK    1  A    between atoms: O1_1  and  C1_2
REMARK    2  A    between atoms: C1_2  and  C2_3
REMARK    3  A    between atoms: C2_3  and  O2_4
REMARK    4  A    between atoms: C4_6  and  N1_7
REMARK    5  A    between atoms: N1_7  and  C5_8
REMARK    6  A    between atoms: C5_8  and  C6_9
REMARK    7  A    between atoms: C10_14  and  O3_15
REMARK    8  A    between atoms: C11_16  and  O4_17
REMARK    9  A    between atoms: C12_18  and  O5_19
REMARK                            x       y       z     vdW  Elec       q    Type
REMARK                         _______ _______ _______ _____ _____    ______ ____
ROOT
ATOM      1  C2  UNL     1      28.548  -9.093 -35.076  0.00  0.00    +0.000 C 
ATOM      2  C3  UNL     1      28.207  -9.898 -36.356  0.00  0.00    +0.000 C 
ATOM      3  C4  UNL     1      26.848  -9.529 -37.017  0.00  0.00    +0.000 C 
ATOM      4  C10 UNL     1      25.880  -8.787 -36.047  0.00  0.00    +0.000 C 
ATOM      5  C11 UNL     1      25.977  -9.333 -34.606  0.00  0.00    +0.000 C 
ATOM      6  C12 UNL     1      27.421  -9.274 -34.010  0.00  0.00    +0.000 C 
ENDROOT
BRANCH   1   7
ATOM      7  O2  UNL     1      28.678  -7.724 -35.393  0.00  0.00    +0.000 OA
ATOM      8  H4  UNL     1      29.625  -7.461 -35.249  0.00  0.00    +0.000 HD
ENDBRANCH   1   7
BRANCH   3   9
ATOM      9  N1  UNL     1      27.074  -8.755 -38.265  0.00  0.00    +0.000 NA
ATOM     10  H8  UNL     1      26.666  -7.796 -38.168  0.00  0.00    +0.000 HD
BRANCH   9  11
ATOM     11  C5  UNL     1      26.406  -9.346 -39.436  0.00  0.00    +0.000 C 
BRANCH  11  12
ATOM     12  C6  UNL     1      27.395  -9.745 -40.487  0.00  0.00    +0.000 A 
ATOM     13  C7  UNL     1      28.436 -10.651 -40.327  0.00  0.00    +0.000 A 
ATOM     14  C8  UNL     1      29.241 -10.770 -41.465  0.00  0.00    +0.000 A 
ATOM     15  C9  UNL     1      28.842  -9.958 -42.519  0.00  0.00    +0.000 A 
ATOM     16  S1  UNL     1      27.487  -9.087 -42.031  0.00  0.00    +0.000 S 
ENDBRANCH  11  12
ENDBRANCH   9  11
ENDBRANCH   3   9
BRANCH   4  17
ATOM     17  O3  UNL     1      26.132  -7.403 -36.048  0.00  0.00    +0.000 OA
ATOM     18  H15 UNL     1      25.592  -7.008 -35.315  0.00  0.00    +0.000 HD
ENDBRANCH   4  17
BRANCH   5  19
ATOM     19  O4  UNL     1      25.444 -10.634 -34.533  0.00  0.00    +0.000 OA
ATOM     20  H17 UNL     1      24.869 -10.779 -35.327  0.00  0.00    +0.000 HD
ENDBRANCH   5  19
BRANCH   6  21
ATOM     21  O5  UNL     1      27.502  -8.230 -33.070  0.00  0.00    +0.000 OA
ATOM     22  H19 UNL     1      27.438  -8.644 -32.170  0.00  0.00    +0.000 HD
ENDBRANCH   6  21
BRANCH   1  23
ATOM     23  C1  UNL     1      29.900  -9.604 -34.509  0.00  0.00    +0.000 C 
BRANCH  23  24
ATOM     24  O1  UNL     1      29.739 -10.129 -33.218  0.00  0.00    +0.000 OA
ATOM     25  H1  UNL     1      29.311  -9.422 -32.669  0.00  0.00    +0.000 HD
ENDBRANCH  23  24
ENDBRANCH   1  23
TORSDOF 9
ENDMDL
MODEL 8
REMARK VINA RESULT:    -4.504      4.944      7.493
REMARK INTER + INTRA:          -6.701
REMARK INTER:                  -5.976
REMARK INTRA:                  -0.724
REMARK UNBOUND:                -0.485
REMARK  Name = resultss/4CJN/ligands/lig_68_t0.pdb
REMARK  9 active torsions:
REMARK  status: ('A' for Active; 'I' for Inactive)
REMARK    1  A    between atoms: O1_1  and  C1_2
REMARK    2  A    between atoms: C1_2  and  C2_3
REMARK    3  A    between atoms: C2_3  and  O2_4
REMARK    4  A    between atoms: C4_6  and  N1_7
REMARK    5  A    between atoms: N1_7  and  C5_8
REMARK    6  A    between atoms: C5_8  and  C6_9
REMARK    7  A    between atoms: C10_14  and  O3_15
REMARK    8  A    between atoms: C11_16  and  O4_17
REMARK    9  A    between atoms: C12_18  and  O5_19
REMARK                            x       y       z     vdW  Elec       q    Type
REMARK                         _______ _______ _______ _____ _____    ______ ____
ROOT
ATOM      1  C2  UNL     1      24.247  -7.490 -41.078  0.00  0.00    +0.000 C 
ATOM      2  C3  UNL     1      24.910  -7.066 -42.413  0.00  0.00    +0.000 C 
ATOM      3  C4  UNL     1      25.027  -8.200 -43.472  0.00  0.00    +0.000 C 
ATOM      4  C10 UNL     1      24.905  -9.626 -42.855  0.00  0.00    +0.000 C 
ATOM      5  C11 UNL     1      25.582  -9.715 -41.470  0.00  0.00    +0.000 C 
ATOM      6  C12 UNL     1      25.035  -8.676 -40.437  0.00  0.00    +0.000 C 
ENDROOT
BRANCH   1   7
ATOM      7  O2  UNL     1      22.912  -7.884 -41.311  0.00  0.00    +0.000 OA
ATOM      8  H4  UNL     1      22.378  -7.071 -41.510  0.00  0.00    +0.000 HD
ENDBRANCH   1   7
BRANCH   3   9
ATOM      9  N1  UNL     1      24.044  -7.989 -44.566  0.00  0.00    +0.000 NA
ATOM     10  H8  UNL     1      24.505  -8.141 -45.494  0.00  0.00    +0.000 HD
BRANCH   9  11
ATOM     11  C5  UNL     1      23.524  -6.612 -44.612  0.00  0.00    +0.000 C 
BRANCH  11  12
ATOM     12  C6  UNL     1      22.049  -6.593 -44.873  0.00  0.00    +0.000 A 
ATOM     13  C7  UNL     1      21.049  -6.652 -43.911  0.00  0.00    +0.000 A 
ATOM     14  C8  UNL     1      19.762  -6.687 -44.459  0.00  0.00    +0.000 A 
ATOM     15  C9  UNL     1      19.745  -6.662 -45.847  0.00  0.00    +0.000 A 
ATOM     16  S1  UNL     1      21.335  -6.601 -46.394  0.00  0.00    +0.000 S 
ENDBRANCH  11  12
ENDBRANCH   9  11
ENDBRANCH   3   9
BRANCH   4  17
ATOM     17  O3  UNL     1      23.557 -10.013 -42.750  0.00  0.00    +0.000 OA
ATOM     18  H15 UNL     1      23.416 -10.327 -41.819  0.00  0.00    +0.000 HD
ENDBRANCH   4  17
BRANCH   5  19
ATOM     19  O4  UNL     1      26.981  -9.624 -41.596  0.00  0.00    +0.000 OA
ATOM     20  H17 UNL     1      27.393 -10.237 -40.935  0.00  0.00    +0.000 HD
ENDBRANCH   5  19
BRANCH   6  21
ATOM     21  O5  UNL     1      24.209  -9.328 -39.504  0.00  0.00    +0.000 OA
ATOM     22  H19 UNL     1      23.662  -8.628 -39.060  0.00  0.00    +0.000 HD
ENDBRANCH   6  21
BRANCH   1  23
ATOM     23  C1  UNL     1      24.244  -6.273 -40.113  0.00  0.00    +0.000 C 
BRANCH  23  24
ATOM     24  O1  UNL     1      23.418  -6.512 -39.004  0.00  0.00    +0.000 OA
ATOM     25  H1  UNL     1      22.648  -7.049 -39.326  0.00  0.00    +0.000 HD
ENDBRANCH  23  24
ENDBRANCH   1  23
TORSDOF 9
ENDMDL
MODEL 9
REMARK VINA RESULT:    -4.431      3.628      5.602
REMARK INTER + INTRA:          -6.600
REMARK INTER:                  -5.976
REMARK INTRA:                  -0.624
REMARK UNBOUND:                -0.485
REMARK  Name = resultss/4CJN/ligands/lig_68_t0.pdb
REMARK  9 active torsions:
REMARK  status: ('A' for Active; 'I' for Inactive)
REMARK    1  A    between atoms: O1_1  and  C1_2
REMARK    2  A    between atoms: C1_2  and  C2_3
REMARK    3  A    between atoms: C2_3  and  O2_4
REMARK    4  A    between atoms: C4_6  and  N1_7
REMARK    5  A    between atoms: N1_7  and  C5_8
REMARK    6  A    between atoms: C5_8  and  C6_9
REMARK    7  A    between atoms: C10_14  and  O3_15
REMARK    8  A    between atoms: C11_16  and  O4_17
REMARK    9  A    between atoms: C12_18  and  O5_19
REMARK                            x       y       z     vdW  Elec       q    Type
REMARK                         _______ _______ _______ _____ _____    ______ ____
ROOT
ATOM      1  C2  UNL     1      28.300  -9.754 -41.592  0.00  0.00    +0.000 C 
ATOM      2  C3  UNL     1      27.633  -9.415 -42.949  0.00  0.00    +0.000 C 
ATOM      3  C4  UNL     1      26.349  -8.542 -42.846  0.00  0.00    +0.000 C 
ATOM      4  C10 UNL     1      25.708  -8.566 -41.426  0.00  0.00    +0.000 C 
ATOM      5  C11 UNL     1      25.816  -9.959 -40.767  0.00  0.00    +0.000 C 
ATOM      6  C12 UNL     1      27.284 -10.489 -40.662  0.00  0.00    +0.000 C 
ENDROOT
BRANCH   1   7
ATOM      7  O2  UNL     1      28.737  -8.568 -40.966  0.00  0.00    +0.000 OA
ATOM      8  H4  UNL     1      29.596  -8.294 -41.384  0.00  0.00    +0.000 HD
ENDBRANCH   1   7
BRANCH   3   9
ATOM      9  N1  UNL     1      26.630  -7.155 -43.299  0.00  0.00    +0.000 NA
ATOM     10  H8  UNL     1      25.759  -6.725 -43.691  0.00  0.00    +0.000 HD
BRANCH   9  11
ATOM     11  C5  UNL     1      27.617  -7.096 -44.389  0.00  0.00    +0.000 C 
BRANCH  11  12
ATOM     12  C6  UNL     1      26.950  -7.015 -45.728  0.00  0.00    +0.000 A 
ATOM     13  C7  UNL     1      27.584  -7.087 -46.961  0.00  0.00    +0.000 A 
ATOM     14  C8  UNL     1      26.710  -6.910 -48.039  0.00  0.00    +0.000 A 
ATOM     15  C9  UNL     1      25.392  -6.693 -47.660  0.00  0.00    +0.000 A 
ATOM     16  S1  UNL     1      25.315  -6.718 -45.979  0.00  0.00    +0.000 S 
ENDBRANCH  11  12
ENDBRANCH   9  11
ENDBRANCH   3   9
BRANCH   4  17
ATOM     17  O3  UNL     1      26.300  -7.599 -40.592  0.00  0.00    +0.000 OA
ATOM     18  H15 UNL     1      25.590  -7.265 -39.985  0.00  0.00    +0.000 HD
ENDBRANCH   4  17
BRANCH   5  19
ATOM     19  O4  UNL     1      24.983 -10.883 -41.425  0.00  0.00    +0.000 OA
ATOM     20  H17 UNL     1      24.113 -10.442 -41.606  0.00  0.00    +0.000 HD
ENDBRANCH   5  19
BRANCH   6  21
ATOM     21  O5  UNL     1      27.725 -10.393 -39.329  0.00  0.00    +0.000 OA
ATOM     22  H19 UNL     1      27.256  -9.617 -38.923  0.00  0.00    +0.000 HD
ENDBRANCH   6  21
BRANCH   1  23
ATOM     23  C1  UNL     1      29.531 -10.663 -41.853  0.00  0.00    +0.000 C 
BRANCH  23  24
ATOM     24  O1  UNL     1      30.366 -10.716 -40.726  0.00  0.00    +0.000 OA
ATOM     25  H1  UNL     1      30.703  -9.796 -40.570  0.00  0.00    +0.000 HD
ENDBRANCH  23  24
ENDBRANCH   1  23
TORSDOF 9
ENDMDL
