MODEL 1
REMARK VINA RESULT:    -6.055      0.000      0.000
REMARK INTER + INTRA:          -8.066
REMARK INTER:                  -7.647
REMARK INTRA:                  -0.419
REMARK UNBOUND:                -0.419
REMARK  Name = resultss/4CJN/ligands/lig_332_t1.pdb
REMARK  6 active torsions:
REMARK  status: ('A' for Active; 'I' for Inactive)
REMARK    1  A    between atoms: C1_1  and  O1_2
REMARK    2  A    between atoms: O1_2  and  C2_3
REMARK    3  A    between atoms: C4_5  and  C5_6
REMARK    4  A    between atoms: C5_6  and  C6_7
REMARK    5  A    between atoms: C6_7  and  C7_8
REMARK    6  A    between atoms: C11_12  and  O2_13
REMARK                            x       y       z     vdW  Elec       q    Type
REMARK                         _______ _______ _______ _____ _____    ______ ____
ROOT
ATOM      1  C2  UNL     1      27.514  -8.915 -42.408  0.00  0.00    +0.000 C 
ATOM      2  C3  UNL     1      28.683  -9.189 -43.006  0.00  0.00    +0.000 C 
ATOM      3  C4  UNL     1      29.475 -10.446 -42.686  0.00  0.00    +0.000 C 
ATOM      4  C13 UNL     1      29.413 -10.754 -41.175  0.00  0.00    +0.000 C 
ATOM      5  C14 UNL     1      27.988 -10.747 -40.703  0.00  0.00    +0.000 C 
ATOM      6  O3  UNL     1      27.625 -11.509 -39.767  0.00  0.00    +0.000 OA
ATOM      7  C15 UNL     1      27.040  -9.798 -41.308  0.00  0.00    +0.000 C 
ATOM      8  O4  UNL     1      25.851  -9.755 -40.895  0.00  0.00    +0.000 OA
ENDROOT
BRANCH   1  10
ATOM      9  C1  UNL     1      26.513  -7.458 -44.190  0.00  0.00    +0.000 C 
ATOM     10  O1  UNL     1      26.814  -7.775 -42.836  0.00  0.00    +0.000 OA
ENDBRANCH   1  10
BRANCH   3  11
ATOM     11  C5  UNL     1      30.941 -10.330 -43.152  0.00  0.00    +0.000 C 
BRANCH  11  12
ATOM     12  C6  UNL     1      31.714 -11.646 -42.981  0.00  0.00    +0.000 C 
BRANCH  12  13
ATOM     13  C7  UNL     1      32.443 -11.998 -44.250  0.00  0.00    +0.000 A 
ATOM     14  C8  UNL     1      32.562 -13.340 -44.649  0.00  0.00    +0.000 A 
ATOM     15  C9  UNL     1      33.210 -13.665 -45.844  0.00  0.00    +0.000 A 
ATOM     16  C10 UNL     1      33.734 -12.654 -46.654  0.00  0.00    +0.000 A 
ATOM     17  C11 UNL     1      33.608 -11.313 -46.275  0.00  0.00    +0.000 A 
ATOM     18  C12 UNL     1      32.959 -10.985 -45.077  0.00  0.00    +0.000 A 
BRANCH  17  19
ATOM     19  O2  UNL     1      34.130 -10.315 -47.096  0.00  0.00    +0.000 OA
ATOM     20  H13 UNL     1      34.674  -9.549 -46.717  0.00  0.00    +0.000 HD
ENDBRANCH  17  19
ENDBRANCH  12  13
ENDBRANCH  11  12
ENDBRANCH   3  11
TORSDOF 5
ENDMDL
MODEL 2
REMARK VINA RESULT:    -6.044      1.256      1.678
REMARK INTER + INTRA:          -8.052
REMARK INTER:                  -7.505
REMARK INTRA:                  -0.547
REMARK UNBOUND:                -0.419
REMARK  Name = resultss/4CJN/ligands/lig_332_t1.pdb
REMARK  6 active torsions:
REMARK  status: ('A' for Active; 'I' for Inactive)
REMARK    1  A    between atoms: C1_1  and  O1_2
REMARK    2  A    between atoms: O1_2  and  C2_3
REMARK    3  A    between atoms: C4_5  and  C5_6
REMARK    4  A    between atoms: C5_6  and  C6_7
REMARK    5  A    between atoms: C6_7  and  C7_8
REMARK    6  A    between atoms: C11_12  and  O2_13
REMARK                            x       y       z     vdW  Elec       q    Type
REMARK                         _______ _______ _______ _____ _____    ______ ____
ROOT
ATOM      1  C2  UNL     1      28.332  -8.706 -42.971  0.00  0.00    +0.000 C 
ATOM      2  C3  UNL     1      29.481  -9.358 -43.200  0.00  0.00    +0.000 C 
ATOM      3  C4  UNL     1      29.766 -10.723 -42.594  0.00  0.00    +0.000 C 
ATOM      4  C13 UNL     1      29.238 -10.793 -41.146  0.00  0.00    +0.000 C 
ATOM      5  C14 UNL     1      27.805 -10.346 -41.095  0.00  0.00    +0.000 C 
ATOM      6  O3  UNL     1      27.012 -10.850 -40.254  0.00  0.00    +0.000 OA
ATOM      7  C15 UNL     1      27.359  -9.274 -41.998  0.00  0.00    +0.000 C 
ATOM      8  O4  UNL     1      26.170  -8.862 -41.939  0.00  0.00    +0.000 OA
ENDROOT
BRANCH   1  10
ATOM      9  C1  UNL     1      28.080  -7.338 -45.061  0.00  0.00    +0.000 C 
ATOM     10  O1  UNL     1      28.126  -7.492 -43.647  0.00  0.00    +0.000 OA
ENDBRANCH   1  10
BRANCH   3  11
ATOM     11  C5  UNL     1      31.271 -11.062 -42.636  0.00  0.00    +0.000 C 
BRANCH  11  12
ATOM     12  C6  UNL     1      31.544 -12.417 -43.306  0.00  0.00    +0.000 C 
BRANCH  12  13
ATOM     13  C7  UNL     1      32.402 -12.236 -44.530  0.00  0.00    +0.000 A 
ATOM     14  C8  UNL     1      32.888 -10.963 -44.871  0.00  0.00    +0.000 A 
ATOM     15  C9  UNL     1      33.712 -10.801 -45.989  0.00  0.00    +0.000 A 
ATOM     16  C10 UNL     1      34.064 -11.907 -46.767  0.00  0.00    +0.000 A 
ATOM     17  C11 UNL     1      33.599 -13.182 -46.428  0.00  0.00    +0.000 A 
ATOM     18  C12 UNL     1      32.772 -13.347 -45.308  0.00  0.00    +0.000 A 
BRANCH  17  19
ATOM     19  O2  UNL     1      33.964 -14.276 -47.209  0.00  0.00    +0.000 OA
ATOM     20  H13 UNL     1      33.493 -14.483 -48.082  0.00  0.00    +0.000 HD
ENDBRANCH  17  19
ENDBRANCH  12  13
ENDBRANCH  11  12
ENDBRANCH   3  11
TORSDOF 5
ENDMDL
MODEL 3
REMARK VINA RESULT:    -5.783      0.870      2.557
REMARK INTER + INTRA:          -7.723
REMARK INTER:                  -7.128
REMARK INTRA:                  -0.596
REMARK UNBOUND:                -0.419
REMARK  Name = resultss/4CJN/ligands/lig_332_t1.pdb
REMARK  6 active torsions:
REMARK  status: ('A' for Active; 'I' for Inactive)
REMARK    1  A    between atoms: C1_1  and  O1_2
REMARK    2  A    between atoms: O1_2  and  C2_3
REMARK    3  A    between atoms: C4_5  and  C5_6
REMARK    4  A    between atoms: C5_6  and  C6_7
REMARK    5  A    between atoms: C6_7  and  C7_8
REMARK    6  A    between atoms: C11_12  and  O2_13
REMARK                            x       y       z     vdW  Elec       q    Type
REMARK                         _______ _______ _______ _____ _____    ______ ____
ROOT
ATOM      1  C2  UNL     1      28.064 -10.496 -40.992  0.00  0.00    +0.000 C 
ATOM      2  C3  UNL     1      29.371 -10.758 -41.140  0.00  0.00    +0.000 C 
ATOM      3  C4  UNL     1      30.262  -9.916 -42.037  0.00  0.00    +0.000 C 
ATOM      4  C13 UNL     1      29.513  -9.520 -43.326  0.00  0.00    +0.000 C 
ATOM      5  C14 UNL     1      28.181  -8.917 -42.987  0.00  0.00    +0.000 C 
ATOM      6  O3  UNL     1      27.685  -8.019 -43.719  0.00  0.00    +0.000 OA
ATOM      7  C15 UNL     1      27.440  -9.432 -41.824  0.00  0.00    +0.000 C 
ATOM      8  O4  UNL     1      26.304  -8.962 -41.551  0.00  0.00    +0.000 OA
ENDROOT
BRANCH   1  10
ATOM      9  C1  UNL     1      27.295 -12.697 -40.062  0.00  0.00    +0.000 C 
ATOM     10  O1  UNL     1      27.343 -11.275 -40.072  0.00  0.00    +0.000 OA
ENDBRANCH   1  10
BRANCH   3  11
ATOM     11  C5  UNL     1      31.577 -10.647 -42.381  0.00  0.00    +0.000 C 
BRANCH  11  12
ATOM     12  C6  UNL     1      31.331 -12.001 -43.063  0.00  0.00    +0.000 C 
BRANCH  12  13
ATOM     13  C7  UNL     1      32.207 -12.147 -44.278  0.00  0.00    +0.000 A 
ATOM     14  C8  UNL     1      32.457 -13.418 -44.822  0.00  0.00    +0.000 A 
ATOM     15  C9  UNL     1      33.243 -13.550 -45.971  0.00  0.00    +0.000 A 
ATOM     16  C10 UNL     1      33.777 -12.416 -46.589  0.00  0.00    +0.000 A 
ATOM     17  C11 UNL     1      33.523 -11.143 -46.065  0.00  0.00    +0.000 A 
ATOM     18  C12 UNL     1      32.735 -11.009 -44.913  0.00  0.00    +0.000 A 
BRANCH  17  19
ATOM     19  O2  UNL     1      34.056 -10.022 -46.696  0.00  0.00    +0.000 OA
ATOM     20  H13 UNL     1      33.707  -9.090 -46.502  0.00  0.00    +0.000 HD
ENDBRANCH  17  19
ENDBRANCH  12  13
ENDBRANCH  11  12
ENDBRANCH   3  11
TORSDOF 5
ENDMDL
MODEL 4
REMARK VINA RESULT:    -5.699      1.176      2.783
REMARK INTER + INTRA:          -7.617
REMARK INTER:                  -7.246
REMARK INTRA:                  -0.370
REMARK UNBOUND:                -0.419
REMARK  Name = resultss/4CJN/ligands/lig_332_t1.pdb
REMARK  6 active torsions:
REMARK  status: ('A' for Active; 'I' for Inactive)
REMARK    1  A    between atoms: C1_1  and  O1_2
REMARK    2  A    between atoms: O1_2  and  C2_3
REMARK    3  A    between atoms: C4_5  and  C5_6
REMARK    4  A    between atoms: C5_6  and  C6_7
REMARK    5  A    between atoms: C6_7  and  C7_8
REMARK    6  A    between atoms: C11_12  and  O2_13
REMARK                            x       y       z     vdW  Elec       q    Type
REMARK                         _______ _______ _______ _____ _____    ______ ____
ROOT
ATOM      1  C2  UNL     1      27.897 -10.161 -39.921  0.00  0.00    +0.000 C 
ATOM      2  C3  UNL     1      28.873 -10.592 -40.734  0.00  0.00    +0.000 C 
ATOM      3  C4  UNL     1      29.181  -9.903 -42.054  0.00  0.00    +0.000 C 
ATOM      4  C13 UNL     1      27.877  -9.465 -42.753  0.00  0.00    +0.000 C 
ATOM      5  C14 UNL     1      27.016  -8.686 -41.801  0.00  0.00    +0.000 C 
ATOM      6  O3  UNL     1      26.274  -7.761 -42.227  0.00  0.00    +0.000 OA
ATOM      7  C15 UNL     1      27.008  -9.059 -40.377  0.00  0.00    +0.000 C 
ATOM      8  O4  UNL     1      26.261  -8.440 -39.574  0.00  0.00    +0.000 OA
ENDROOT
BRANCH   1  10
ATOM      9  C1  UNL     1      28.328 -10.376 -37.457  0.00  0.00    +0.000 C 
ATOM     10  O1  UNL     1      27.749 -10.808 -38.683  0.00  0.00    +0.000 OA
ENDBRANCH   1  10
BRANCH   3  11
ATOM     11  C5  UNL     1      30.014 -10.807 -42.987  0.00  0.00    +0.000 C 
BRANCH  11  12
ATOM     12  C6  UNL     1      31.524 -10.655 -42.751  0.00  0.00    +0.000 C 
BRANCH  12  13
ATOM     13  C7  UNL     1      32.300 -11.358 -43.832  0.00  0.00    +0.000 A 
ATOM     14  C8  UNL     1      32.665 -12.706 -43.678  0.00  0.00    +0.000 A 
ATOM     15  C9  UNL     1      33.357 -13.368 -44.697  0.00  0.00    +0.000 A 
ATOM     16  C10 UNL     1      33.680 -12.695 -45.878  0.00  0.00    +0.000 A 
ATOM     17  C11 UNL     1      33.309 -11.356 -46.048  0.00  0.00    +0.000 A 
ATOM     18  C12 UNL     1      32.616 -10.690 -45.028  0.00  0.00    +0.000 A 
BRANCH  17  19
ATOM     19  O2  UNL     1      33.632 -10.700 -47.234  0.00  0.00    +0.000 OA
ATOM     20  H13 UNL     1      33.075  -9.927 -47.579  0.00  0.00    +0.000 HD
ENDBRANCH  17  19
ENDBRANCH  12  13
ENDBRANCH  11  12
ENDBRANCH   3  11
TORSDOF 5
ENDMDL
MODEL 5
REMARK VINA RESULT:    -5.460      5.269      7.624
REMARK INTER + INTRA:          -7.315
REMARK INTER:                  -6.907
REMARK INTRA:                  -0.408
REMARK UNBOUND:                -0.419
REMARK  Name = resultss/4CJN/ligands/lig_332_t1.pdb
REMARK  6 active torsions:
REMARK  status: ('A' for Active; 'I' for Inactive)
REMARK    1  A    between atoms: C1_1  and  O1_2
REMARK    2  A    between atoms: O1_2  and  C2_3
REMARK    3  A    between atoms: C4_5  and  C5_6
REMARK    4  A    between atoms: C5_6  and  C6_7
REMARK    5  A    between atoms: C6_7  and  C7_8
REMARK    6  A    between atoms: C11_12  and  O2_13
REMARK                            x       y       z     vdW  Elec       q    Type
REMARK                         _______ _______ _______ _____ _____    ______ ____
ROOT
ATOM      1  C2  UNL     1      27.708  -9.848 -35.183  0.00  0.00    +0.000 C 
ATOM      2  C3  UNL     1      27.631  -9.952 -36.517  0.00  0.00    +0.000 C 
ATOM      3  C4  UNL     1      28.857 -10.223 -37.374  0.00  0.00    +0.000 C 
ATOM      4  C13 UNL     1      30.076  -9.445 -36.837  0.00  0.00    +0.000 C 
ATOM      5  C14 UNL     1      30.244  -9.698 -35.366  0.00  0.00    +0.000 C 
ATOM      6  O3  UNL     1      31.394  -9.708 -34.850  0.00  0.00    +0.000 OA
ATOM      7  C15 UNL     1      29.045  -9.873 -34.531  0.00  0.00    +0.000 C 
ATOM      8  O4  UNL     1      29.170 -10.046 -33.289  0.00  0.00    +0.000 OA
ENDROOT
BRANCH   1  10
ATOM      9  C1  UNL     1      26.144  -8.527 -33.730  0.00  0.00    +0.000 C 
ATOM     10  O1  UNL     1      26.508  -9.686 -34.471  0.00  0.00    +0.000 OA
ENDBRANCH   1  10
BRANCH   3  11
ATOM     11  C5  UNL     1      28.605  -9.872 -38.856  0.00  0.00    +0.000 C 
BRANCH  11  12
ATOM     12  C6  UNL     1      27.576 -10.807 -39.510  0.00  0.00    +0.000 C 
BRANCH  12  13
ATOM     13  C7  UNL     1      27.031 -10.190 -40.770  0.00  0.00    +0.000 A 
ATOM     14  C8  UNL     1      27.888  -9.518 -41.658  0.00  0.00    +0.000 A 
ATOM     15  C9  UNL     1      27.387  -8.975 -42.845  0.00  0.00    +0.000 A 
ATOM     16  C10 UNL     1      26.032  -9.106 -43.158  0.00  0.00    +0.000 A 
ATOM     17  C11 UNL     1      25.171  -9.786 -42.290  0.00  0.00    +0.000 A 
ATOM     18  C12 UNL     1      25.671 -10.331 -41.099  0.00  0.00    +0.000 A 
BRANCH  17  19
ATOM     19  O2  UNL     1      23.823  -9.915 -42.619  0.00  0.00    +0.000 OA
ATOM     20  H13 UNL     1      23.519  -9.982 -43.583  0.00  0.00    +0.000 HD
ENDBRANCH  17  19
ENDBRANCH  12  13
ENDBRANCH  11  12
ENDBRANCH   3  11
TORSDOF 5
ENDMDL
MODEL 6
REMARK VINA RESULT:    -5.425      2.106      3.389
REMARK INTER + INTRA:          -7.271
REMARK INTER:                  -6.800
REMARK INTRA:                  -0.471
REMARK UNBOUND:                -0.419
REMARK  Name = resultss/4CJN/ligands/lig_332_t1.pdb
REMARK  6 active torsions:
REMARK  status: ('A' for Active; 'I' for Inactive)
REMARK    1  A    between atoms: C1_1  and  O1_2
REMARK    2  A    between atoms: O1_2  and  C2_3
REMARK    3  A    between atoms: C4_5  and  C5_6
REMARK    4  A    between atoms: C5_6  and  C6_7
REMARK    5  A    between atoms: C6_7  and  C7_8
REMARK    6  A    between atoms: C11_12  and  O2_13
REMARK                            x       y       z     vdW  Elec       q    Type
REMARK                         _______ _______ _______ _____ _____    ______ ____
ROOT
ATOM      1  C2  UNL     1      29.902  -9.620 -39.035  0.00  0.00    +0.000 C 
ATOM      2  C3  UNL     1      30.756  -9.679 -40.068  0.00  0.00    +0.000 C 
ATOM      3  C4  UNL     1      30.281  -9.931 -41.489  0.00  0.00    +0.000 C 
ATOM      4  C13 UNL     1      29.146 -10.976 -41.504  0.00  0.00    +0.000 C 
ATOM      5  C14 UNL     1      28.077 -10.593 -40.522  0.00  0.00    +0.000 C 
ATOM      6  O3  UNL     1      26.871 -10.880 -40.751  0.00  0.00    +0.000 OA
ATOM      7  C15 UNL     1      28.466  -9.934 -39.265  0.00  0.00    +0.000 C 
ATOM      8  O4  UNL     1      27.584  -9.643 -38.414  0.00  0.00    +0.000 OA
ENDROOT
BRANCH   1  10
ATOM      9  C1  UNL     1      31.692  -9.716 -37.277  0.00  0.00    +0.000 C 
ATOM     10  O1  UNL     1      30.427  -9.294 -37.774  0.00  0.00    +0.000 OA
ENDBRANCH   1  10
BRANCH   3  11
ATOM     11  C5  UNL     1      31.439 -10.381 -42.405  0.00  0.00    +0.000 C 
BRANCH  11  12
ATOM     12  C6  UNL     1      31.256 -11.818 -42.915  0.00  0.00    +0.000 C 
BRANCH  12  13
ATOM     13  C7  UNL     1      32.082 -12.048 -44.152  0.00  0.00    +0.000 A 
ATOM     14  C8  UNL     1      32.798 -10.988 -44.732  0.00  0.00    +0.000 A 
ATOM     15  C9  UNL     1      33.592 -11.208 -45.861  0.00  0.00    +0.000 A 
ATOM     16  C10 UNL     1      33.684 -12.488 -46.414  0.00  0.00    +0.000 A 
ATOM     17  C11 UNL     1      32.988 -13.556 -45.836  0.00  0.00    +0.000 A 
ATOM     18  C12 UNL     1      32.191 -13.336 -44.704  0.00  0.00    +0.000 A 
BRANCH  17  19
ATOM     19  O2  UNL     1      33.095 -14.828 -46.394  0.00  0.00    +0.000 OA
ATOM     20  H13 UNL     1      33.545 -15.587 -45.896  0.00  0.00    +0.000 HD
ENDBRANCH  17  19
ENDBRANCH  12  13
ENDBRANCH  11  12
ENDBRANCH   3  11
TORSDOF 5
ENDMDL
MODEL 7
REMARK VINA RESULT:    -5.329      3.507      6.494
REMARK INTER + INTRA:          -7.149
REMARK INTER:                  -6.538
REMARK INTRA:                  -0.611
REMARK UNBOUND:                -0.419
REMARK  Name = resultss/4CJN/ligands/lig_332_t1.pdb
REMARK  6 active torsions:
REMARK  status: ('A' for Active; 'I' for Inactive)
REMARK    1  A    between atoms: C1_1  and  O1_2
REMARK    2  A    between atoms: O1_2  and  C2_3
REMARK    3  A    between atoms: C4_5  and  C5_6
REMARK    4  A    between atoms: C5_6  and  C6_7
REMARK    5  A    between atoms: C6_7  and  C7_8
REMARK    6  A    between atoms: C11_12  and  O2_13
REMARK                            x       y       z     vdW  Elec       q    Type
REMARK                         _______ _______ _______ _____ _____    ______ ____
ROOT
ATOM      1  C2  UNL     1      24.754  -7.071 -45.964  0.00  0.00    +0.000 C 
ATOM      2  C3  UNL     1      25.715  -7.008 -45.030  0.00  0.00    +0.000 C 
ATOM      3  C4  UNL     1      27.145  -6.627 -45.374  0.00  0.00    +0.000 C 
ATOM      4  C13 UNL     1      27.564  -7.256 -46.719  0.00  0.00    +0.000 C 
ATOM      5  C14 UNL     1      26.541  -6.952 -47.774  0.00  0.00    +0.000 C 
ATOM      6  O3  UNL     1      26.892  -6.806 -48.976  0.00  0.00    +0.000 OA
ATOM      7  C15 UNL     1      25.121  -6.887 -47.394  0.00  0.00    +0.000 C 
ATOM      8  O4  UNL     1      24.248  -6.672 -48.276  0.00  0.00    +0.000 OA
ENDROOT
BRANCH   1  10
ATOM      9  C1  UNL     1      23.001  -7.311 -44.182  0.00  0.00    +0.000 C 
ATOM     10  O1  UNL     1      23.445  -7.345 -45.534  0.00  0.00    +0.000 OA
ENDBRANCH   1  10
BRANCH   3  11
ATOM     11  C5  UNL     1      28.128  -7.038 -44.257  0.00  0.00    +0.000 C 
BRANCH  11  12
ATOM     12  C6  UNL     1      27.422  -7.742 -43.089  0.00  0.00    +0.000 C 
BRANCH  12  13
ATOM     13  C7  UNL     1      28.226  -8.928 -42.625  0.00  0.00    +0.000 A 
ATOM     14  C8  UNL     1      29.433  -9.257 -43.264  0.00  0.00    +0.000 A 
ATOM     15  C9  UNL     1      30.196 -10.338 -42.812  0.00  0.00    +0.000 A 
ATOM     16  C10 UNL     1      29.767 -11.090 -41.715  0.00  0.00    +0.000 A 
ATOM     17  C11 UNL     1      28.574 -10.762 -41.061  0.00  0.00    +0.000 A 
ATOM     18  C12 UNL     1      27.807  -9.679 -41.513  0.00  0.00    +0.000 A 
BRANCH  17  19
ATOM     19  O2  UNL     1      28.161 -11.516 -39.965  0.00  0.00    +0.000 OA
ATOM     20  H13 UNL     1      27.413 -12.195 -40.042  0.00  0.00    +0.000 HD
ENDBRANCH  17  19
ENDBRANCH  12  13
ENDBRANCH  11  12
ENDBRANCH   3  11
TORSDOF 5
ENDMDL
MODEL 8
REMARK VINA RESULT:    -5.070      5.099      7.889
REMARK INTER + INTRA:          -6.823
REMARK INTER:                  -6.314
REMARK INTRA:                  -0.508
REMARK UNBOUND:                -0.419
REMARK  Name = resultss/4CJN/ligands/lig_332_t1.pdb
REMARK  6 active torsions:
REMARK  status: ('A' for Active; 'I' for Inactive)
REMARK    1  A    between atoms: C1_1  and  O1_2
REMARK    2  A    between atoms: O1_2  and  C2_3
REMARK    3  A    between atoms: C4_5  and  C5_6
REMARK    4  A    between atoms: C5_6  and  C6_7
REMARK    5  A    between atoms: C6_7  and  C7_8
REMARK    6  A    between atoms: C11_12  and  O2_13
REMARK                            x       y       z     vdW  Elec       q    Type
REMARK                         _______ _______ _______ _____ _____    ______ ____
ROOT
ATOM      1  C2  UNL     1      28.199  -9.656 -34.518  0.00  0.00    +0.000 C 
ATOM      2  C3  UNL     1      28.414  -9.993 -35.798  0.00  0.00    +0.000 C 
ATOM      3  C4  UNL     1      27.574  -9.426 -36.930  0.00  0.00    +0.000 C 
ATOM      4  C13 UNL     1      26.093  -9.327 -36.509  0.00  0.00    +0.000 C 
ATOM      5  C14 UNL     1      25.976  -8.612 -35.194  0.00  0.00    +0.000 C 
ATOM      6  O3  UNL     1      24.966  -7.901 -34.945  0.00  0.00    +0.000 OA
ATOM      7  C15 UNL     1      27.027  -8.803 -34.182  0.00  0.00    +0.000 C 
ATOM      8  O4  UNL     1      26.922  -8.241 -33.059  0.00  0.00    +0.000 OA
ENDROOT
BRANCH   1  10
ATOM      9  C1  UNL     1      30.281  -9.524 -33.121  0.00  0.00    +0.000 C 
ATOM     10  O1  UNL     1      29.085 -10.163 -33.553  0.00  0.00    +0.000 OA
ENDBRANCH   1  10
BRANCH   3  11
ATOM     11  C5  UNL     1      27.712 -10.266 -38.218  0.00  0.00    +0.000 C 
BRANCH  11  12
ATOM     12  C6  UNL     1      28.564  -9.561 -39.285  0.00  0.00    +0.000 C 
BRANCH  12  13
ATOM     13  C7  UNL     1      27.795  -9.434 -40.573  0.00  0.00    +0.000 A 
ATOM     14  C8  UNL     1      28.414  -8.904 -41.717  0.00  0.00    +0.000 A 
ATOM     15  C9  UNL     1      27.711  -8.817 -42.922  0.00  0.00    +0.000 A 
ATOM     16  C10 UNL     1      26.390  -9.266 -42.996  0.00  0.00    +0.000 A 
ATOM     17  C11 UNL     1      25.767  -9.810 -41.867  0.00  0.00    +0.000 A 
ATOM     18  C12 UNL     1      26.471  -9.898 -40.658  0.00  0.00    +0.000 A 
BRANCH  17  19
ATOM     19  O2  UNL     1      24.452 -10.260 -41.958  0.00  0.00    +0.000 OA
ATOM     20  H13 UNL     1      24.187 -10.993 -42.606  0.00  0.00    +0.000 HD
ENDBRANCH  17  19
ENDBRANCH  12  13
ENDBRANCH  11  12
ENDBRANCH   3  11
TORSDOF 5
ENDMDL
MODEL 9
REMARK VINA RESULT:    -4.941      5.347     10.078
REMARK INTER + INTRA:          -6.660
REMARK INTER:                  -5.947
REMARK INTRA:                  -0.712
REMARK UNBOUND:                -0.419
REMARK  Name = resultss/4CJN/ligands/lig_332_t1.pdb
REMARK  6 active torsions:
REMARK  status: ('A' for Active; 'I' for Inactive)
REMARK    1  A    between atoms: C1_1  and  O1_2
REMARK    2  A    between atoms: O1_2  and  C2_3
REMARK    3  A    between atoms: C4_5  and  C5_6
REMARK    4  A    between atoms: C5_6  and  C6_7
REMARK    5  A    between atoms: C6_7  and  C7_8
REMARK    6  A    between atoms: C11_12  and  O2_13
REMARK                            x       y       z     vdW  Elec       q    Type
REMARK                         _______ _______ _______ _____ _____    ______ ____
ROOT
ATOM      1  C2  UNL     1      27.619 -10.505 -39.797  0.00  0.00    +0.000 C 
ATOM      2  C3  UNL     1      28.066 -10.425 -38.536  0.00  0.00    +0.000 C 
ATOM      3  C4  UNL     1      27.261  -9.745 -37.440  0.00  0.00    +0.000 C 
ATOM      4  C13 UNL     1      26.571  -8.477 -37.983  0.00  0.00    +0.000 C 
ATOM      5  C14 UNL     1      25.814  -8.797 -39.240  0.00  0.00    +0.000 C 
ATOM      6  O3  UNL     1      24.753  -8.176 -39.518  0.00  0.00    +0.000 OA
ATOM      7  C15 UNL     1      26.361  -9.801 -40.166  0.00  0.00    +0.000 C 
ATOM      8  O4  UNL     1      25.757 -10.052 -41.243  0.00  0.00    +0.000 OA
ENDROOT
BRANCH   1  10
ATOM      9  C1  UNL     1      29.493 -10.709 -41.456  0.00  0.00    +0.000 C 
ATOM     10  O1  UNL     1      28.393 -11.231 -40.718  0.00  0.00    +0.000 OA
ENDBRANCH   1  10
BRANCH   3  11
ATOM     11  C5  UNL     1      28.140  -9.399 -36.219  0.00  0.00    +0.000 C 
BRANCH  11  12
ATOM     12  C6  UNL     1      27.555  -9.942 -34.907  0.00  0.00    +0.000 C 
BRANCH  12  13
ATOM     13  C7  UNL     1      26.547  -8.978 -34.340  0.00  0.00    +0.000 A 
ATOM     14  C8  UNL     1      26.810  -7.598 -34.341  0.00  0.00    +0.000 A 
ATOM     15  C9  UNL     1      25.859  -6.700 -33.846  0.00  0.00    +0.000 A 
ATOM     16  C10 UNL     1      24.638  -7.171 -33.356  0.00  0.00    +0.000 A 
ATOM     17  C11 UNL     1      24.359  -8.542 -33.364  0.00  0.00    +0.000 A 
ATOM     18  C12 UNL     1      25.311  -9.444 -33.860  0.00  0.00    +0.000 A 
BRANCH  17  19
ATOM     19  O2  UNL     1      23.135  -8.997 -32.879  0.00  0.00    +0.000 OA
ATOM     20  H13 UNL     1      22.585  -9.679 -33.387  0.00  0.00    +0.000 HD
ENDBRANCH  17  19
ENDBRANCH  12  13
ENDBRANCH  11  12
ENDBRANCH   3  11
TORSDOF 5
ENDMDL
