MODEL 1
REMARK VINA RESULT:    -5.429      0.000      0.000
REMARK INTER + INTRA:          -5.905
REMARK INTER:                  -5.905
REMARK INTRA:                   0.000
REMARK UNBOUND:                 0.000
REMARK  Name = resultss/4CJN/ligands/lig_290_t0.pdb
REMARK  3 active torsions:
REMARK  status: ('A' for Active; 'I' for Inactive)
REMARK    1  A    between atoms: C4_5  and  O2_6
REMARK    2  A    between atoms: C10_13  and  O4_14
REMARK    3  A    between atoms: C12_16  and  O5_17
REMARK                            x       y       z     vdW  Elec       q    Type
REMARK                         _______ _______ _______ _____ _____    ______ ____
ROOT
ATOM      1  O1  UNL     1      24.681  -8.251 -38.154  0.00  0.00    +0.000 OA
ATOM      2  C1  UNL     1      25.263  -8.502 -37.063  0.00  0.00    +0.000 A 
ATOM      3  C2  UNL     1      26.542  -9.087 -37.069  0.00  0.00    +0.000 A 
ATOM      4  C3  UNL     1      27.212  -9.409 -38.266  0.00  0.00    +0.000 A 
ATOM      5  C4  UNL     1      28.486  -9.992 -38.227  0.00  0.00    +0.000 A 
ATOM      6  C5  UNL     1      29.097 -10.253 -36.996  0.00  0.00    +0.000 A 
ATOM      7  C6  UNL     1      28.441  -9.937 -35.804  0.00  0.00    +0.000 A 
ATOM      8  C7  UNL     1      27.169  -9.356 -35.833  0.00  0.00    +0.000 A 
ATOM      9  O3  UNL     1      26.559  -9.061 -34.691  0.00  0.00    +0.000 OA
ATOM     10  C8  UNL     1      25.351  -8.509 -34.639  0.00  0.00    +0.000 A 
ATOM     11  C9  UNL     1      24.784  -8.232 -33.392  0.00  0.00    +0.000 A 
ATOM     12  C10 UNL     1      23.518  -7.652 -33.304  0.00  0.00    +0.000 A 
ATOM     13  C11 UNL     1      22.810  -7.345 -34.470  0.00  0.00    +0.000 A 
ATOM     14  C12 UNL     1      23.359  -7.614 -35.733  0.00  0.00    +0.000 A 
ATOM     15  C13 UNL     1      24.644  -8.202 -35.829  0.00  0.00    +0.000 A 
ENDROOT
BRANCH   5  16
ATOM     16  O2  UNL     1      29.156 -10.314 -39.406  0.00  0.00    +0.000 OA
ATOM     17  H2  UNL     1      29.439 -11.265 -39.611  0.00  0.00    +0.000 HD
ENDBRANCH   5  16
BRANCH  12  18
ATOM     18  O4  UNL     1      22.972  -7.384 -32.050  0.00  0.00    +0.000 OA
ATOM     19  H6  UNL     1      23.379  -7.765 -31.203  0.00  0.00    +0.000 HD
ENDBRANCH  12  18
BRANCH  14  20
ATOM     20  O5  UNL     1      22.628  -7.295 -36.877  0.00  0.00    +0.000 OA
ATOM     21  H8  UNL     1      21.617  -7.367 -36.901  0.00  0.00    +0.000 HD
ENDBRANCH  14  20
TORSDOF 3
ENDMDL
MODEL 2
REMARK VINA RESULT:    -5.267      1.105      6.175
REMARK INTER + INTRA:          -5.728
REMARK INTER:                  -5.728
REMARK INTRA:                   0.000
REMARK UNBOUND:                 0.000
REMARK  Name = resultss/4CJN/ligands/lig_290_t0.pdb
REMARK  3 active torsions:
REMARK  status: ('A' for Active; 'I' for Inactive)
REMARK    1  A    between atoms: C4_5  and  O2_6
REMARK    2  A    between atoms: C10_13  and  O4_14
REMARK    3  A    between atoms: C12_16  and  O5_17
REMARK                            x       y       z     vdW  Elec       q    Type
REMARK                         _______ _______ _______ _____ _____    ______ ____
ROOT
ATOM      1  O1  UNL     1      27.769  -8.817 -33.433  0.00  0.00    +0.000 OA
ATOM      2  C1  UNL     1      27.098  -8.831 -34.502  0.00  0.00    +0.000 A 
ATOM      3  C2  UNL     1      25.754  -8.417 -34.490  0.00  0.00    +0.000 A 
ATOM      4  C3  UNL     1      25.116  -7.978 -33.313  0.00  0.00    +0.000 A 
ATOM      5  C4  UNL     1      23.774  -7.574 -33.347  0.00  0.00    +0.000 A 
ATOM      6  C5  UNL     1      23.065  -7.605 -34.553  0.00  0.00    +0.000 A 
ATOM      7  C6  UNL     1      23.690  -8.039 -35.725  0.00  0.00    +0.000 A 
ATOM      8  C7  UNL     1      25.028  -8.444 -35.701  0.00  0.00    +0.000 A 
ATOM      9  O3  UNL     1      25.607  -8.853 -36.824  0.00  0.00    +0.000 OA
ATOM     10  C8  UNL     1      26.873  -9.253 -36.879  0.00  0.00    +0.000 A 
ATOM     11  C9  UNL     1      27.402  -9.667 -38.105  0.00  0.00    +0.000 A 
ATOM     12  C10 UNL     1      28.727 -10.092 -38.196  0.00  0.00    +0.000 A 
ATOM     13  C11 UNL     1      29.535 -10.105 -37.055  0.00  0.00    +0.000 A 
ATOM     14  C12 UNL     1      29.026  -9.693 -35.813  0.00  0.00    +0.000 A 
ATOM     15  C13 UNL     1      27.681  -9.260 -35.714  0.00  0.00    +0.000 A 
ENDROOT
BRANCH   5  16
ATOM     16  O2  UNL     1      23.135  -7.139 -32.188  0.00  0.00    +0.000 OA
ATOM     17  H2  UNL     1      22.129  -7.021 -32.150  0.00  0.00    +0.000 HD
ENDBRANCH   5  16
BRANCH  12  18
ATOM     18  O4  UNL     1      29.233 -10.501 -39.429  0.00  0.00    +0.000 OA
ATOM     19  H6  UNL     1      28.623 -10.692 -40.215  0.00  0.00    +0.000 HD
ENDBRANCH  12  18
BRANCH  14  20
ATOM     20  O5  UNL     1      29.858  -9.717 -34.694  0.00  0.00    +0.000 OA
ATOM     21  H8  UNL     1      30.735  -9.211 -34.670  0.00  0.00    +0.000 HD
ENDBRANCH  14  20
TORSDOF 3
ENDMDL
MODEL 3
REMARK VINA RESULT:    -5.171      1.525      6.079
REMARK INTER + INTRA:          -5.625
REMARK INTER:                  -5.625
REMARK INTRA:                   0.000
REMARK UNBOUND:                 0.000
REMARK  Name = resultss/4CJN/ligands/lig_290_t0.pdb
REMARK  3 active torsions:
REMARK  status: ('A' for Active; 'I' for Inactive)
REMARK    1  A    between atoms: C4_5  and  O2_6
REMARK    2  A    between atoms: C10_13  and  O4_14
REMARK    3  A    between atoms: C12_16  and  O5_17
REMARK                            x       y       z     vdW  Elec       q    Type
REMARK                         _______ _______ _______ _____ _____    ______ ____
ROOT
ATOM      1  O1  UNL     1      27.605 -10.186 -35.715  0.00  0.00    +0.000 OA
ATOM      2  C1  UNL     1      26.737  -9.595 -36.413  0.00  0.00    +0.000 A 
ATOM      3  C2  UNL     1      25.617  -9.012 -35.793  0.00  0.00    +0.000 A 
ATOM      4  C3  UNL     1      25.423  -9.064 -34.399  0.00  0.00    +0.000 A 
ATOM      5  C4  UNL     1      24.291  -8.470 -33.821  0.00  0.00    +0.000 A 
ATOM      6  C5  UNL     1      23.352  -7.824 -34.632  0.00  0.00    +0.000 A 
ATOM      7  C6  UNL     1      23.536  -7.768 -36.016  0.00  0.00    +0.000 A 
ATOM      8  C7  UNL     1      24.661  -8.358 -36.601  0.00  0.00    +0.000 A 
ATOM      9  O3  UNL     1      24.822  -8.296 -37.917  0.00  0.00    +0.000 OA
ATOM     10  C8  UNL     1      25.864  -8.832 -38.543  0.00  0.00    +0.000 A 
ATOM     11  C9  UNL     1      25.952  -8.719 -39.934  0.00  0.00    +0.000 A 
ATOM     12  C10 UNL     1      27.034  -9.271 -40.621  0.00  0.00    +0.000 A 
ATOM     13  C11 UNL     1      28.038  -9.942 -39.916  0.00  0.00    +0.000 A 
ATOM     14  C12 UNL     1      27.970 -10.068 -38.520  0.00  0.00    +0.000 A 
ATOM     15  C13 UNL     1      26.875  -9.509 -37.816  0.00  0.00    +0.000 A 
ENDROOT
BRANCH   5  16
ATOM     16  O2  UNL     1      24.091  -8.515 -32.443  0.00  0.00    +0.000 OA
ATOM     17  H2  UNL     1      23.435  -9.163 -32.024  0.00  0.00    +0.000 HD
ENDBRANCH   5  16
BRANCH  12  18
ATOM     18  O4  UNL     1      27.102  -9.146 -42.007  0.00  0.00    +0.000 OA
ATOM     19  H6  UNL     1      26.608  -9.784 -42.621  0.00  0.00    +0.000 HD
ENDBRANCH  12  18
BRANCH  14  20
ATOM     20  O5  UNL     1      28.988 -10.743 -37.846  0.00  0.00    +0.000 OA
ATOM     21  H8  UNL     1      29.386 -10.386 -36.986  0.00  0.00    +0.000 HD
ENDBRANCH  14  20
TORSDOF 3
ENDMDL
MODEL 4
REMARK VINA RESULT:    -5.110      3.056      6.207
REMARK INTER + INTRA:          -5.558
REMARK INTER:                  -5.558
REMARK INTRA:                   0.000
REMARK UNBOUND:                 0.000
REMARK  Name = resultss/4CJN/ligands/lig_290_t0.pdb
REMARK  3 active torsions:
REMARK  status: ('A' for Active; 'I' for Inactive)
REMARK    1  A    between atoms: C4_5  and  O2_6
REMARK    2  A    between atoms: C10_13  and  O4_14
REMARK    3  A    between atoms: C12_16  and  O5_17
REMARK                            x       y       z     vdW  Elec       q    Type
REMARK                         _______ _______ _______ _____ _____    ______ ____
ROOT
ATOM      1  O1  UNL     1      30.671 -10.218 -37.745  0.00  0.00    +0.000 OA
ATOM      2  C1  UNL     1      29.429 -10.001 -37.693  0.00  0.00    +0.000 A 
ATOM      3  C2  UNL     1      28.804  -9.802 -36.449  0.00  0.00    +0.000 A 
ATOM      4  C3  UNL     1      29.520  -9.838 -35.237  0.00  0.00    +0.000 A 
ATOM      5  C4  UNL     1      28.857  -9.635 -34.019  0.00  0.00    +0.000 A 
ATOM      6  C5  UNL     1      27.478  -9.397 -34.006  0.00  0.00    +0.000 A 
ATOM      7  C6  UNL     1      26.759  -9.361 -35.203  0.00  0.00    +0.000 A 
ATOM      8  C7  UNL     1      27.412  -9.562 -36.423  0.00  0.00    +0.000 A 
ATOM      9  O3  UNL     1      26.715  -9.524 -37.552  0.00  0.00    +0.000 OA
ATOM     10  C8  UNL     1      27.265  -9.706 -38.747  0.00  0.00    +0.000 A 
ATOM     11  C9  UNL     1      26.454  -9.649 -39.884  0.00  0.00    +0.000 A 
ATOM     12  C10 UNL     1      27.002  -9.835 -41.154  0.00  0.00    +0.000 A 
ATOM     13  C11 UNL     1      28.372 -10.081 -41.293  0.00  0.00    +0.000 A 
ATOM     14  C12 UNL     1      29.205 -10.142 -40.165  0.00  0.00    +0.000 A 
ATOM     15  C13 UNL     1      28.655  -9.953 -38.874  0.00  0.00    +0.000 A 
ENDROOT
BRANCH   5  16
ATOM     16  O2  UNL     1      29.558  -9.668 -32.815  0.00  0.00    +0.000 OA
ATOM     17  H2  UNL     1      29.405 -10.401 -32.133  0.00  0.00    +0.000 HD
ENDBRANCH   5  16
BRANCH  12  18
ATOM     18  O4  UNL     1      26.175  -9.774 -42.274  0.00  0.00    +0.000 OA
ATOM     19  H6  UNL     1      26.416 -10.248 -43.137  0.00  0.00    +0.000 HD
ENDBRANCH  12  18
BRANCH  14  20
ATOM     20  O5  UNL     1      30.567 -10.388 -40.337  0.00  0.00    +0.000 OA
ATOM     21  H8  UNL     1      31.155  -9.776 -40.891  0.00  0.00    +0.000 HD
ENDBRANCH  14  20
TORSDOF 3
ENDMDL
MODEL 5
REMARK VINA RESULT:    -5.073      1.463      5.598
REMARK INTER + INTRA:          -5.518
REMARK INTER:                  -5.518
REMARK INTRA:                   0.000
REMARK UNBOUND:                 0.000
REMARK  Name = resultss/4CJN/ligands/lig_290_t0.pdb
REMARK  3 active torsions:
REMARK  status: ('A' for Active; 'I' for Inactive)
REMARK    1  A    between atoms: C4_5  and  O2_6
REMARK    2  A    between atoms: C10_13  and  O4_14
REMARK    3  A    between atoms: C12_16  and  O5_17
REMARK                            x       y       z     vdW  Elec       q    Type
REMARK                         _______ _______ _______ _____ _____    ______ ____
ROOT
ATOM      1  O1  UNL     1      24.431  -7.425 -38.279  0.00  0.00    +0.000 OA
ATOM      2  C1  UNL     1      25.228  -8.254 -37.758  0.00  0.00    +0.000 A 
ATOM      3  C2  UNL     1      25.163  -8.515 -36.378  0.00  0.00    +0.000 A 
ATOM      4  C3  UNL     1      24.230  -7.876 -35.538  0.00  0.00    +0.000 A 
ATOM      5  C4  UNL     1      24.201  -8.165 -34.166  0.00  0.00    +0.000 A 
ATOM      6  C5  UNL     1      25.101  -9.091 -33.629  0.00  0.00    +0.000 A 
ATOM      7  C6  UNL     1      26.031  -9.729 -34.454  0.00  0.00    +0.000 A 
ATOM      8  C7  UNL     1      26.068  -9.447 -35.823  0.00  0.00    +0.000 A 
ATOM      9  O3  UNL     1      26.957 -10.062 -36.594  0.00  0.00    +0.000 OA
ATOM     10  C8  UNL     1      27.052  -9.845 -37.901  0.00  0.00    +0.000 A 
ATOM     11  C9  UNL     1      28.018 -10.538 -38.636  0.00  0.00    +0.000 A 
ATOM     12  C10 UNL     1      28.143 -10.333 -40.011  0.00  0.00    +0.000 A 
ATOM     13  C11 UNL     1      27.296  -9.429 -40.660  0.00  0.00    +0.000 A 
ATOM     14  C12 UNL     1      26.318  -8.723 -39.943  0.00  0.00    +0.000 A 
ATOM     15  C13 UNL     1      26.186  -8.927 -38.547  0.00  0.00    +0.000 A 
ENDROOT
BRANCH   5  16
ATOM     16  O2  UNL     1      23.280  -7.539 -33.328  0.00  0.00    +0.000 OA
ATOM     17  H2  UNL     1      23.529  -7.253 -32.389  0.00  0.00    +0.000 HD
ENDBRANCH   5  16
BRANCH  12  18
ATOM     18  O4  UNL     1      29.113 -11.034 -40.723  0.00  0.00    +0.000 OA
ATOM     19  H6  UNL     1      30.077 -10.721 -40.755  0.00  0.00    +0.000 HD
ENDBRANCH  12  18
BRANCH  14  20
ATOM     20  O5  UNL     1      25.489  -7.829 -40.620  0.00  0.00    +0.000 OA
ATOM     21  H8  UNL     1      25.797  -7.340 -41.452  0.00  0.00    +0.000 HD
ENDBRANCH  14  20
TORSDOF 3
ENDMDL
MODEL 6
REMARK VINA RESULT:    -5.034      2.284      4.133
REMARK INTER + INTRA:          -5.475
REMARK INTER:                  -5.475
REMARK INTRA:                   0.000
REMARK UNBOUND:                 0.000
REMARK  Name = resultss/4CJN/ligands/lig_290_t0.pdb
REMARK  3 active torsions:
REMARK  status: ('A' for Active; 'I' for Inactive)
REMARK    1  A    between atoms: C4_5  and  O2_6
REMARK    2  A    between atoms: C10_13  and  O4_14
REMARK    3  A    between atoms: C12_16  and  O5_17
REMARK                            x       y       z     vdW  Elec       q    Type
REMARK                         _______ _______ _______ _____ _____    ______ ____
ROOT
ATOM      1  O1  UNL     1      24.692  -8.837 -38.105  0.00  0.00    +0.000 OA
ATOM      2  C1  UNL     1      25.904  -9.180 -38.173  0.00  0.00    +0.000 A 
ATOM      3  C2  UNL     1      26.514  -9.350 -39.429  0.00  0.00    +0.000 A 
ATOM      4  C3  UNL     1      25.813  -9.151 -40.635  0.00  0.00    +0.000 A 
ATOM      5  C4  UNL     1      26.460  -9.332 -41.865  0.00  0.00    +0.000 A 
ATOM      6  C5  UNL     1      27.806  -9.712 -41.897  0.00  0.00    +0.000 A 
ATOM      7  C6  UNL     1      28.509  -9.912 -40.707  0.00  0.00    +0.000 A 
ATOM      8  C7  UNL     1      27.872  -9.734 -39.474  0.00  0.00    +0.000 A 
ATOM      9  O3  UNL     1      28.555  -9.927 -38.352  0.00  0.00    +0.000 OA
ATOM     10  C8  UNL     1      28.017  -9.778 -37.146  0.00  0.00    +0.000 A 
ATOM     11  C9  UNL     1      28.811 -10.003 -36.017  0.00  0.00    +0.000 A 
ATOM     12  C10 UNL     1      28.277  -9.853 -34.736  0.00  0.00    +0.000 A 
ATOM     13  C11 UNL     1      26.939  -9.476 -34.579  0.00  0.00    +0.000 A 
ATOM     14  C12 UNL     1      26.124  -9.245 -35.698  0.00  0.00    +0.000 A 
ATOM     15  C13 UNL     1      26.661  -9.394 -37.000  0.00  0.00    +0.000 A 
ENDROOT
BRANCH   5  16
ATOM     16  O2  UNL     1      25.775  -9.137 -43.063  0.00  0.00    +0.000 OA
ATOM     17  H2  UNL     1      25.247  -8.290 -43.239  0.00  0.00    +0.000 HD
ENDBRANCH   5  16
BRANCH  12  18
ATOM     18  O4  UNL     1      29.085 -10.082 -33.625  0.00  0.00    +0.000 OA
ATOM     19  H6  UNL     1      29.778 -10.823 -33.617  0.00  0.00    +0.000 HD
ENDBRANCH  12  18
BRANCH  14  20
ATOM     20  O5  UNL     1      24.795  -8.870 -35.507  0.00  0.00    +0.000 OA
ATOM     21  H8  UNL     1      24.264  -8.401 -36.231  0.00  0.00    +0.000 HD
ENDBRANCH  14  20
TORSDOF 3
ENDMDL
MODEL 7
REMARK VINA RESULT:    -4.740      5.853      8.531
REMARK INTER + INTRA:          -5.155
REMARK INTER:                  -5.155
REMARK INTRA:                   0.000
REMARK UNBOUND:                 0.000
REMARK  Name = resultss/4CJN/ligands/lig_290_t0.pdb
REMARK  3 active torsions:
REMARK  status: ('A' for Active; 'I' for Inactive)
REMARK    1  A    between atoms: C4_5  and  O2_6
REMARK    2  A    between atoms: C10_13  and  O4_14
REMARK    3  A    between atoms: C12_16  and  O5_17
REMARK                            x       y       z     vdW  Elec       q    Type
REMARK                         _______ _______ _______ _____ _____    ______ ____
ROOT
ATOM      1  O1  UNL     1      25.059 -10.060 -40.573  0.00  0.00    +0.000 OA
ATOM      2  C1  UNL     1      25.630  -9.538 -41.569  0.00  0.00    +0.000 A 
ATOM      3  C2  UNL     1      24.879  -8.793 -42.496  0.00  0.00    +0.000 A 
ATOM      4  C3  UNL     1      23.490  -8.605 -42.356  0.00  0.00    +0.000 A 
ATOM      5  C4  UNL     1      22.780  -7.856 -43.304  0.00  0.00    +0.000 A 
ATOM      6  C5  UNL     1      23.451  -7.294 -44.395  0.00  0.00    +0.000 A 
ATOM      7  C6  UNL     1      24.829  -7.475 -44.543  0.00  0.00    +0.000 A 
ATOM      8  C7  UNL     1      25.546  -8.221 -43.602  0.00  0.00    +0.000 A 
ATOM      9  O3  UNL     1      26.854  -8.383 -43.756  0.00  0.00    +0.000 OA
ATOM     10  C8  UNL     1      27.601  -9.078 -42.905  0.00  0.00    +0.000 A 
ATOM     11  C9  UNL     1      28.973  -9.198 -43.146  0.00  0.00    +0.000 A 
ATOM     12  C10 UNL     1      29.784  -9.921 -42.271  0.00  0.00    +0.000 A 
ATOM     13  C11 UNL     1      29.224 -10.529 -41.144  0.00  0.00    +0.000 A 
ATOM     14  C12 UNL     1      27.850 -10.423 -40.881  0.00  0.00    +0.000 A 
ATOM     15  C13 UNL     1      27.021  -9.690 -41.766  0.00  0.00    +0.000 A 
ENDROOT
BRANCH   5  16
ATOM     16  O2  UNL     1      21.406  -7.665 -43.173  0.00  0.00    +0.000 OA
ATOM     17  H2  UNL     1      20.988  -6.747 -43.266  0.00  0.00    +0.000 HD
ENDBRANCH   5  16
BRANCH  12  18
ATOM     18  O4  UNL     1      31.149 -10.027 -42.531  0.00  0.00    +0.000 OA
ATOM     19  H6  UNL     1      31.587 -10.925 -42.705  0.00  0.00    +0.000 HD
ENDBRANCH  12  18
BRANCH  14  20
ATOM     20  O5  UNL     1      27.322 -11.041 -39.748  0.00  0.00    +0.000 OA
ATOM     21  H8  UNL     1      26.858 -11.940 -39.798  0.00  0.00    +0.000 HD
ENDBRANCH  14  20
TORSDOF 3
ENDMDL
MODEL 8
REMARK VINA RESULT:    -4.700      5.848      8.138
REMARK INTER + INTRA:          -5.112
REMARK INTER:                  -5.112
REMARK INTRA:                   0.000
REMARK UNBOUND:                 0.000
REMARK  Name = resultss/4CJN/ligands/lig_290_t0.pdb
REMARK  3 active torsions:
REMARK  status: ('A' for Active; 'I' for Inactive)
REMARK    1  A    between atoms: C4_5  and  O2_6
REMARK    2  A    between atoms: C10_13  and  O4_14
REMARK    3  A    between atoms: C12_16  and  O5_17
REMARK                            x       y       z     vdW  Elec       q    Type
REMARK                         _______ _______ _______ _____ _____    ______ ____
ROOT
ATOM      1  O1  UNL     1      28.920  -8.368 -43.284  0.00  0.00    +0.000 OA
ATOM      2  C1  UNL     1      27.681  -8.132 -43.324  0.00  0.00    +0.000 A 
ATOM      3  C2  UNL     1      27.098  -7.652 -44.511  0.00  0.00    +0.000 A 
ATOM      4  C3  UNL     1      27.855  -7.420 -45.676  0.00  0.00    +0.000 A 
ATOM      5  C4  UNL     1      27.234  -6.940 -46.837  0.00  0.00    +0.000 A 
ATOM      6  C5  UNL     1      25.857  -6.691 -46.840  0.00  0.00    +0.000 A 
ATOM      7  C6  UNL     1      25.098  -6.918 -45.690  0.00  0.00    +0.000 A 
ATOM      8  C7  UNL     1      25.709  -7.397 -44.526  0.00  0.00    +0.000 A 
ATOM      9  O3  UNL     1      24.974  -7.608 -43.441  0.00  0.00    +0.000 OA
ATOM     10  C8  UNL     1      25.484  -8.060 -42.301  0.00  0.00    +0.000 A 
ATOM     11  C9  UNL     1      24.635  -8.254 -41.207  0.00  0.00    +0.000 A 
ATOM     12  C10 UNL     1      25.139  -8.729 -39.996  0.00  0.00    +0.000 A 
ATOM     13  C11 UNL     1      26.503  -9.013 -39.872  0.00  0.00    +0.000 A 
ATOM     14  C12 UNL     1      27.374  -8.826 -40.957  0.00  0.00    +0.000 A 
ATOM     15  C13 UNL     1      26.868  -8.346 -42.189  0.00  0.00    +0.000 A 
ENDROOT
BRANCH   5  16
ATOM     16  O2  UNL     1      27.975  -6.707 -47.994  0.00  0.00    +0.000 OA
ATOM     17  H2  UNL     1      27.537  -6.374 -48.845  0.00  0.00    +0.000 HD
ENDBRANCH   5  16
BRANCH  12  18
ATOM     18  O4  UNL     1      24.275  -8.914 -38.919  0.00  0.00    +0.000 OA
ATOM     19  H6  UNL     1      24.284  -9.769 -38.374  0.00  0.00    +0.000 HD
ENDBRANCH  12  18
BRANCH  14  20
ATOM     20  O5  UNL     1      28.728  -9.120 -40.801  0.00  0.00    +0.000 OA
ATOM     21  H8  UNL     1      29.120  -9.374 -39.902  0.00  0.00    +0.000 HD
ENDBRANCH  14  20
TORSDOF 3
ENDMDL
MODEL 9
REMARK VINA RESULT:    -4.652      2.463      6.449
REMARK INTER + INTRA:          -5.060
REMARK INTER:                  -5.060
REMARK INTRA:                   0.000
REMARK UNBOUND:                 0.000
REMARK  Name = resultss/4CJN/ligands/lig_290_t0.pdb
REMARK  3 active torsions:
REMARK  status: ('A' for Active; 'I' for Inactive)
REMARK    1  A    between atoms: C4_5  and  O2_6
REMARK    2  A    between atoms: C10_13  and  O4_14
REMARK    3  A    between atoms: C12_16  and  O5_17
REMARK                            x       y       z     vdW  Elec       q    Type
REMARK                         _______ _______ _______ _____ _____    ______ ____
ROOT
ATOM      1  O1  UNL     1      25.134  -8.555 -39.814  0.00  0.00    +0.000 OA
ATOM      2  C1  UNL     1      26.223  -9.063 -39.431  0.00  0.00    +0.000 A 
ATOM      3  C2  UNL     1      26.460  -9.259 -38.058  0.00  0.00    +0.000 A 
ATOM      4  C3  UNL     1      25.513  -8.904 -37.077  0.00  0.00    +0.000 A 
ATOM      5  C4  UNL     1      25.790  -9.117 -35.719  0.00  0.00    +0.000 A 
ATOM      6  C5  UNL     1      27.010  -9.683 -35.336  0.00  0.00    +0.000 A 
ATOM      7  C6  UNL     1      27.955 -10.039 -36.302  0.00  0.00    +0.000 A 
ATOM      8  C7  UNL     1      27.688  -9.830 -37.659  0.00  0.00    +0.000 A 
ATOM      9  O3  UNL     1      28.596 -10.174 -38.564  0.00  0.00    +0.000 OA
ATOM     10  C8  UNL     1      28.414 -10.006 -39.870  0.00  0.00    +0.000 A 
ATOM     11  C9  UNL     1      29.425 -10.396 -40.753  0.00  0.00    +0.000 A 
ATOM     12  C10 UNL     1      29.263 -10.234 -42.129  0.00  0.00    +0.000 A 
ATOM     13  C11 UNL     1      28.083  -9.677 -42.631  0.00  0.00    +0.000 A 
ATOM     14  C12 UNL     1      27.055  -9.277 -41.764  0.00  0.00    +0.000 A 
ATOM     15  C13 UNL     1      27.212  -9.441 -40.366  0.00  0.00    +0.000 A 
ENDROOT
BRANCH   5  16
ATOM     16  O2  UNL     1      24.860  -8.769 -34.742  0.00  0.00    +0.000 OA
ATOM     17  H2  UNL     1      24.971  -9.058 -33.777  0.00  0.00    +0.000 HD
ENDBRANCH   5  16
BRANCH  12  18
ATOM     18  O4  UNL     1      30.284 -10.630 -42.991  0.00  0.00    +0.000 OA
ATOM     19  H6  UNL     1      31.242 -10.330 -42.850  0.00  0.00    +0.000 HD
ENDBRANCH  12  18
BRANCH  14  20
ATOM     20  O5  UNL     1      25.890  -8.726 -42.296  0.00  0.00    +0.000 OA
ATOM     21  H8  UNL     1      25.207  -9.291 -42.786  0.00  0.00    +0.000 HD
ENDBRANCH  14  20
TORSDOF 3
ENDMDL
