MODEL 1
REMARK VINA RESULT:    -4.873      0.000      0.000
REMARK INTER + INTRA:          -7.450
REMARK INTER:                  -6.724
REMARK INTRA:                  -0.726
REMARK UNBOUND:                -0.726
REMARK  Name = resultss/4CJN/ligands/lig_76_t0.pdb
REMARK  9 active torsions:
REMARK  status: ('A' for Active; 'I' for Inactive)
REMARK    1  A    between atoms: O1_1  and  C1_2
REMARK    2  A    between atoms: C1_2  and  C2_3
REMARK    3  A    between atoms: C2_3  and  O2_4
REMARK    4  A    between atoms: C4_6  and  N1_7
REMARK    5  A    between atoms: N1_7  and  C5_8
REMARK    6  A    between atoms: C5_8  and  C6_9
REMARK    7  A    between atoms: C11_15  and  O3_16
REMARK    8  A    between atoms: C12_17  and  O4_18
REMARK    9  A    between atoms: C13_19  and  O5_20
REMARK                            x       y       z     vdW  Elec       q    Type
REMARK                         _______ _______ _______ _____ _____    ______ ____
ROOT
ATOM      1  C2  UNL     1      27.592  -9.676 -38.750  0.00  0.00    +0.000 C 
ATOM      2  C3  UNL     1      26.993  -8.240 -38.769  0.00  0.00    +0.000 C 
ATOM      3  C4  UNL     1      25.491  -8.154 -39.157  0.00  0.00    +0.000 C 
ATOM      4  C11 UNL     1      25.179  -8.987 -40.419  0.00  0.00    +0.000 C 
ATOM      5  C12 UNL     1      25.696 -10.430 -40.295  0.00  0.00    +0.000 C 
ATOM      6  C13 UNL     1      27.223 -10.428 -40.064  0.00  0.00    +0.000 C 
ENDROOT
BRANCH   1   7
ATOM      7  O2  UNL     1      27.071 -10.361 -37.633  0.00  0.00    +0.000 OA
ATOM      8  H4  UNL     1      27.521 -11.244 -37.562  0.00  0.00    +0.000 HD
ENDBRANCH   1   7
BRANCH   3   9
ATOM      9  N1  UNL     1      24.578  -8.529 -38.055  0.00  0.00    +0.000 NA
ATOM     10  H8  UNL     1      24.925  -9.366 -37.541  0.00  0.00    +0.000 HD
BRANCH   9  11
ATOM     11  C5  UNL     1      24.370  -7.439 -37.092  0.00  0.00    +0.000 C 
BRANCH  11  12
ATOM     12  C6  UNL     1      24.224  -7.994 -35.701  0.00  0.00    +0.000 A 
ATOM     13  C7  UNL     1      22.975  -8.028 -35.064  0.00  0.00    +0.000 A 
ATOM     14  C8  UNL     1      22.859  -8.569 -33.782  0.00  0.00    +0.000 A 
ATOM     15  C9  UNL     1      23.996  -9.075 -33.148  0.00  0.00    +0.000 A 
ATOM     16  N2  UNL     1      25.200  -9.041 -33.779  0.00  0.00    +0.000 NA
ATOM     17  C10 UNL     1      25.338  -8.518 -35.027  0.00  0.00    +0.000 A 
ENDBRANCH  11  12
ENDBRANCH   9  11
ENDBRANCH   3   9
BRANCH   4  18
ATOM     18  O3  UNL     1      23.794  -9.009 -40.655  0.00  0.00    +0.000 OA
ATOM     19  H16 UNL     1      23.357  -8.665 -39.832  0.00  0.00    +0.000 HD
ENDBRANCH   4  18
BRANCH   5  20
ATOM     20  O4  UNL     1      25.397 -11.117 -41.483  0.00  0.00    +0.000 OA
ATOM     21  H18 UNL     1      24.427 -11.336 -41.457  0.00  0.00    +0.000 HD
ENDBRANCH   5  20
BRANCH   6  22
ATOM     22  O5  UNL     1      27.697 -11.751 -40.006  0.00  0.00    +0.000 OA
ATOM     23  H20 UNL     1      28.511 -11.797 -40.573  0.00  0.00    +0.000 HD
ENDBRANCH   6  22
BRANCH   1  24
ATOM     24  C1  UNL     1      29.133  -9.581 -38.592  0.00  0.00    +0.000 C 
BRANCH  24  25
ATOM     25  O1  UNL     1      29.632 -10.646 -37.829  0.00  0.00    +0.000 OA
ATOM     26  H1  UNL     1      29.595 -11.447 -38.415  0.00  0.00    +0.000 HD
ENDBRANCH  24  25
ENDBRANCH   1  24
TORSDOF 9
ENDMDL
MODEL 2
REMARK VINA RESULT:    -4.817      4.449      6.855
REMARK INTER + INTRA:          -7.374
REMARK INTER:                  -6.762
REMARK INTRA:                  -0.612
REMARK UNBOUND:                -0.726
REMARK  Name = resultss/4CJN/ligands/lig_76_t0.pdb
REMARK  9 active torsions:
REMARK  status: ('A' for Active; 'I' for Inactive)
REMARK    1  A    between atoms: O1_1  and  C1_2
REMARK    2  A    between atoms: C1_2  and  C2_3
REMARK    3  A    between atoms: C2_3  and  O2_4
REMARK    4  A    between atoms: C4_6  and  N1_7
REMARK    5  A    between atoms: N1_7  and  C5_8
REMARK    6  A    between atoms: C5_8  and  C6_9
REMARK    7  A    between atoms: C11_15  and  O3_16
REMARK    8  A    between atoms: C12_17  and  O4_18
REMARK    9  A    between atoms: C13_19  and  O5_20
REMARK                            x       y       z     vdW  Elec       q    Type
REMARK                         _______ _______ _______ _____ _____    ______ ____
ROOT
ATOM      1  C2  UNL     1      25.408  -8.598 -35.785  0.00  0.00    +0.000 C 
ATOM      2  C3  UNL     1      26.801  -7.907 -35.714  0.00  0.00    +0.000 C 
ATOM      3  C4  UNL     1      27.360  -7.691 -34.280  0.00  0.00    +0.000 C 
ATOM      4  C11 UNL     1      26.300  -7.079 -33.340  0.00  0.00    +0.000 C 
ATOM      5  C12 UNL     1      24.982  -7.871 -33.369  0.00  0.00    +0.000 C 
ATOM      6  C13 UNL     1      24.415  -7.906 -34.804  0.00  0.00    +0.000 C 
ENDROOT
BRANCH   1   7
ATOM      7  O2  UNL     1      25.567  -9.956 -35.440  0.00  0.00    +0.000 OA
ATOM      8  H4  UNL     1      25.612 -10.493 -36.274  0.00  0.00    +0.000 HD
ENDBRANCH   1   7
BRANCH   3   9
ATOM      9  N1  UNL     1      27.930  -8.919 -33.681  0.00  0.00    +0.000 NA
ATOM     10  H8  UNL     1      27.181  -9.574 -33.372  0.00  0.00    +0.000 HD
BRANCH   9  11
ATOM     11  C5  UNL     1      28.831  -9.633 -34.596  0.00  0.00    +0.000 C 
BRANCH  11  12
ATOM     12  C6  UNL     1      30.233  -9.638 -34.047  0.00  0.00    +0.000 A 
ATOM     13  C7  UNL     1      30.468  -9.737 -32.668  0.00  0.00    +0.000 A 
ATOM     14  C8  UNL     1      31.776  -9.763 -32.183  0.00  0.00    +0.000 A 
ATOM     15  C9  UNL     1      32.841  -9.691 -33.084  0.00  0.00    +0.000 A 
ATOM     16  N2  UNL     1      32.599  -9.599 -34.419  0.00  0.00    +0.000 NA
ATOM     17  C10 UNL     1      31.333  -9.572 -34.915  0.00  0.00    +0.000 A 
ENDBRANCH  11  12
ENDBRANCH   9  11
ENDBRANCH   3   9
BRANCH   4  18
ATOM     18  O3  UNL     1      26.787  -7.035 -32.023  0.00  0.00    +0.000 OA
ATOM     19  H16 UNL     1      26.123  -7.509 -31.455  0.00  0.00    +0.000 HD
ENDBRANCH   4  18
BRANCH   5  20
ATOM     20  O4  UNL     1      24.063  -7.245 -32.510  0.00  0.00    +0.000 OA
ATOM     21  H18 UNL     1      23.230  -7.786 -32.531  0.00  0.00    +0.000 HD
ENDBRANCH   5  20
BRANCH   6  22
ATOM     22  O5  UNL     1      23.184  -8.584 -34.813  0.00  0.00    +0.000 OA
ATOM     23  H20 UNL     1      23.381  -9.551 -34.930  0.00  0.00    +0.000 HD
ENDBRANCH   6  22
BRANCH   1  24
ATOM     24  C1  UNL     1      24.878  -8.521 -37.241  0.00  0.00    +0.000 C 
BRANCH  24  25
ATOM     25  O1  UNL     1      23.776  -7.659 -37.335  0.00  0.00    +0.000 OA
ATOM     26  H1  UNL     1      23.737  -7.363 -38.282  0.00  0.00    +0.000 HD
ENDBRANCH  24  25
ENDBRANCH   1  24
TORSDOF 9
ENDMDL
MODEL 3
REMARK VINA RESULT:    -4.769      1.628      2.206
REMARK INTER + INTRA:          -7.307
REMARK INTER:                  -6.627
REMARK INTRA:                  -0.681
REMARK UNBOUND:                -0.726
REMARK  Name = resultss/4CJN/ligands/lig_76_t0.pdb
REMARK  9 active torsions:
REMARK  status: ('A' for Active; 'I' for Inactive)
REMARK    1  A    between atoms: O1_1  and  C1_2
REMARK    2  A    between atoms: C1_2  and  C2_3
REMARK    3  A    between atoms: C2_3  and  O2_4
REMARK    4  A    between atoms: C4_6  and  N1_7
REMARK    5  A    between atoms: N1_7  and  C5_8
REMARK    6  A    between atoms: C5_8  and  C6_9
REMARK    7  A    between atoms: C11_15  and  O3_16
REMARK    8  A    between atoms: C12_17  and  O4_18
REMARK    9  A    between atoms: C13_19  and  O5_20
REMARK                            x       y       z     vdW  Elec       q    Type
REMARK                         _______ _______ _______ _____ _____    ______ ____
ROOT
ATOM      1  C2  UNL     1      27.807  -9.964 -39.052  0.00  0.00    +0.000 C 
ATOM      2  C3  UNL     1      27.881  -8.962 -37.863  0.00  0.00    +0.000 C 
ATOM      3  C4  UNL     1      26.540  -8.723 -37.116  0.00  0.00    +0.000 C 
ATOM      4  C11 UNL     1      25.378  -8.458 -38.098  0.00  0.00    +0.000 C 
ATOM      5  C12 UNL     1      25.287  -9.542 -39.184  0.00  0.00    +0.000 C 
ATOM      6  C13 UNL     1      26.608  -9.608 -39.981  0.00  0.00    +0.000 C 
ENDROOT
BRANCH   1   7
ATOM      7  O2  UNL     1      27.650 -11.264 -38.530  0.00  0.00    +0.000 OA
ATOM      8  H4  UNL     1      26.711 -11.554 -38.673  0.00  0.00    +0.000 HD
ENDBRANCH   1   7
BRANCH   3   9
ATOM      9  N1  UNL     1      26.185  -9.816 -36.184  0.00  0.00    +0.000 NA
ATOM     10  H8  UNL     1      26.628 -10.716 -36.465  0.00  0.00    +0.000 HD
BRANCH   9  11
ATOM     11  C5  UNL     1      26.559  -9.523 -34.793  0.00  0.00    +0.000 C 
BRANCH  11  12
ATOM     12  C6  UNL     1      25.463  -8.749 -34.111  0.00  0.00    +0.000 A 
ATOM     13  C7  UNL     1      24.358  -9.404 -33.549  0.00  0.00    +0.000 A 
ATOM     14  C8  UNL     1      23.365  -8.668 -32.901  0.00  0.00    +0.000 A 
ATOM     15  C9  UNL     1      23.487  -7.280 -32.818  0.00  0.00    +0.000 A 
ATOM     16  N2  UNL     1      24.565  -6.657 -33.363  0.00  0.00    +0.000 NA
ATOM     17  C10 UNL     1      25.545  -7.352 -34.000  0.00  0.00    +0.000 A 
ENDBRANCH  11  12
ENDBRANCH   9  11
ENDBRANCH   3   9
BRANCH   4  18
ATOM     18  O3  UNL     1      24.159  -8.394 -37.401  0.00  0.00    +0.000 OA
ATOM     19  H16 UNL     1      23.439  -8.367 -38.085  0.00  0.00    +0.000 HD
ENDBRANCH   4  18
BRANCH   5  20
ATOM     20  O4  UNL     1      24.226  -9.223 -40.048  0.00  0.00    +0.000 OA
ATOM     21  H18 UNL     1      24.324  -8.263 -40.287  0.00  0.00    +0.000 HD
ENDBRANCH   5  20
BRANCH   6  22
ATOM     22  O5  UNL     1      26.497 -10.563 -41.006  0.00  0.00    +0.000 OA
ATOM     23  H20 UNL     1      25.869 -10.197 -41.683  0.00  0.00    +0.000 HD
ENDBRANCH   6  22
BRANCH   1  24
ATOM     24  C1  UNL     1      29.142  -9.911 -39.843  0.00  0.00    +0.000 C 
BRANCH  24  25
ATOM     25  O1  UNL     1      29.256 -11.000 -40.719  0.00  0.00    +0.000 OA
ATOM     26  H1  UNL     1      30.110 -11.451 -40.489  0.00  0.00    +0.000 HD
ENDBRANCH  24  25
ENDBRANCH   1  24
TORSDOF 9
ENDMDL
MODEL 4
REMARK VINA RESULT:    -4.743      2.393      3.055
REMARK INTER + INTRA:          -7.272
REMARK INTER:                  -6.609
REMARK INTRA:                  -0.663
REMARK UNBOUND:                -0.726
REMARK  Name = resultss/4CJN/ligands/lig_76_t0.pdb
REMARK  9 active torsions:
REMARK  status: ('A' for Active; 'I' for Inactive)
REMARK    1  A    between atoms: O1_1  and  C1_2
REMARK    2  A    between atoms: C1_2  and  C2_3
REMARK    3  A    between atoms: C2_3  and  O2_4
REMARK    4  A    between atoms: C4_6  and  N1_7
REMARK    5  A    between atoms: N1_7  and  C5_8
REMARK    6  A    between atoms: C5_8  and  C6_9
REMARK    7  A    between atoms: C11_15  and  O3_16
REMARK    8  A    between atoms: C12_17  and  O4_18
REMARK    9  A    between atoms: C13_19  and  O5_20
REMARK                            x       y       z     vdW  Elec       q    Type
REMARK                         _______ _______ _______ _____ _____    ______ ____
ROOT
ATOM      1  C2  UNL     1      27.809  -9.718 -38.958  0.00  0.00    +0.000 C 
ATOM      2  C3  UNL     1      27.751  -8.707 -37.776  0.00  0.00    +0.000 C 
ATOM      3  C4  UNL     1      26.351  -8.532 -37.124  0.00  0.00    +0.000 C 
ATOM      4  C11 UNL     1      25.248  -8.331 -38.185  0.00  0.00    +0.000 C 
ATOM      5  C12 UNL     1      25.286  -9.425 -39.265  0.00  0.00    +0.000 C 
ATOM      6  C13 UNL     1      26.660  -9.429 -39.969  0.00  0.00    +0.000 C 
ENDROOT
BRANCH   1   7
ATOM      7  O2  UNL     1      27.682 -11.022 -38.435  0.00  0.00    +0.000 OA
ATOM      8  H4  UNL     1      26.806 -11.394 -38.717  0.00  0.00    +0.000 HD
ENDBRANCH   1   7
BRANCH   3   9
ATOM      9  N1  UNL     1      25.989  -9.635 -36.208  0.00  0.00    +0.000 NA
ATOM     10  H8  UNL     1      26.726 -10.371 -36.187  0.00  0.00    +0.000 HD
BRANCH   9  11
ATOM     11  C5  UNL     1      25.743  -9.177 -34.833  0.00  0.00    +0.000 C 
BRANCH  11  12
ATOM     12  C6  UNL     1      27.038  -9.104 -34.070  0.00  0.00    +0.000 A 
ATOM     13  C7  UNL     1      27.232  -8.143 -33.067  0.00  0.00    +0.000 A 
ATOM     14  C8  UNL     1      28.433  -8.108 -32.356  0.00  0.00    +0.000 A 
ATOM     15  C9  UNL     1      29.431  -9.038 -32.653  0.00  0.00    +0.000 A 
ATOM     16  N2  UNL     1      29.228  -9.968 -33.624  0.00  0.00    +0.000 NA
ATOM     17  C10 UNL     1      28.067 -10.021 -34.331  0.00  0.00    +0.000 A 
ENDBRANCH  11  12
ENDBRANCH   9  11
ENDBRANCH   3   9
BRANCH   4  18
ATOM     18  O3  UNL     1      23.983  -8.325 -37.574  0.00  0.00    +0.000 OA
ATOM     19  H16 UNL     1      23.311  -8.336 -38.305  0.00  0.00    +0.000 HD
ENDBRANCH   4  18
BRANCH   5  20
ATOM     20  O4  UNL     1      24.272  -9.166 -40.202  0.00  0.00    +0.000 OA
ATOM     21  H18 UNL     1      23.768  -8.375 -39.874  0.00  0.00    +0.000 HD
ENDBRANCH   5  20
BRANCH   6  22
ATOM     22  O5  UNL     1      26.668 -10.395 -40.991  0.00  0.00    +0.000 OA
ATOM     23  H20 UNL     1      25.813 -10.304 -41.489  0.00  0.00    +0.000 HD
ENDBRANCH   6  22
BRANCH   1  24
ATOM     24  C1  UNL     1      29.190  -9.602 -39.656  0.00  0.00    +0.000 C 
BRANCH  24  25
ATOM     25  O1  UNL     1      29.474 -10.748 -40.413  0.00  0.00    +0.000 OA
ATOM     26  H1  UNL     1      29.695 -11.463 -39.760  0.00  0.00    +0.000 HD
ENDBRANCH  24  25
ENDBRANCH   1  24
TORSDOF 9
ENDMDL
MODEL 5
REMARK VINA RESULT:    -4.677      5.215      7.197
REMARK INTER + INTRA:          -7.181
REMARK INTER:                  -6.649
REMARK INTRA:                  -0.532
REMARK UNBOUND:                -0.726
REMARK  Name = resultss/4CJN/ligands/lig_76_t0.pdb
REMARK  9 active torsions:
REMARK  status: ('A' for Active; 'I' for Inactive)
REMARK    1  A    between atoms: O1_1  and  C1_2
REMARK    2  A    between atoms: C1_2  and  C2_3
REMARK    3  A    between atoms: C2_3  and  O2_4
REMARK    4  A    between atoms: C4_6  and  N1_7
REMARK    5  A    between atoms: N1_7  and  C5_8
REMARK    6  A    between atoms: C5_8  and  C6_9
REMARK    7  A    between atoms: C11_15  and  O3_16
REMARK    8  A    between atoms: C12_17  and  O4_18
REMARK    9  A    between atoms: C13_19  and  O5_20
REMARK                            x       y       z     vdW  Elec       q    Type
REMARK                         _______ _______ _______ _____ _____    ______ ____
ROOT
ATOM      1  C2  UNL     1      27.774  -9.468 -34.961  0.00  0.00    +0.000 C 
ATOM      2  C3  UNL     1      28.567  -8.131 -34.877  0.00  0.00    +0.000 C 
ATOM      3  C4  UNL     1      28.377  -7.332 -33.558  0.00  0.00    +0.000 C 
ATOM      4  C11 UNL     1      26.888  -7.211 -33.173  0.00  0.00    +0.000 C 
ATOM      5  C12 UNL     1      26.185  -8.578 -33.164  0.00  0.00    +0.000 C 
ATOM      6  C13 UNL     1      26.287  -9.236 -34.557  0.00  0.00    +0.000 C 
ENDROOT
BRANCH   1   7
ATOM      7  O2  UNL     1      28.377 -10.399 -34.091  0.00  0.00    +0.000 OA
ATOM      8  H4  UNL     1      27.747 -11.153 -33.945  0.00  0.00    +0.000 HD
ENDBRANCH   1   7
BRANCH   3   9
ATOM      9  N1  UNL     1      29.158  -7.876 -32.425  0.00  0.00    +0.000 NA
ATOM     10  H8  UNL     1      29.066  -8.912 -32.361  0.00  0.00    +0.000 HD
BRANCH   9  11
ATOM     11  C5  UNL     1      30.586  -7.536 -32.502  0.00  0.00    +0.000 C 
BRANCH  11  12
ATOM     12  C6  UNL     1      31.426  -8.749 -32.207  0.00  0.00    +0.000 A 
ATOM     13  C7  UNL     1      32.591  -8.649 -31.432  0.00  0.00    +0.000 A 
ATOM     14  C8  UNL     1      33.343  -9.792 -31.151  0.00  0.00    +0.000 A 
ATOM     15  C9  UNL     1      32.921 -11.027 -31.648  0.00  0.00    +0.000 A 
ATOM     16  N2  UNL     1      31.787 -11.110 -32.394  0.00  0.00    +0.000 NA
ATOM     17  C10 UNL     1      31.039 -10.012 -32.680  0.00  0.00    +0.000 A 
ENDBRANCH  11  12
ENDBRANCH   9  11
ENDBRANCH   3   9
BRANCH   4  18
ATOM     18  O3  UNL     1      26.761  -6.616 -31.906  0.00  0.00    +0.000 OA
ATOM     19  H16 UNL     1      26.328  -5.733 -32.046  0.00  0.00    +0.000 HD
ENDBRANCH   4  18
BRANCH   5  20
ATOM     20  O4  UNL     1      24.834  -8.386 -32.828  0.00  0.00    +0.000 OA
ATOM     21  H18 UNL     1      24.646  -7.415 -32.922  0.00  0.00    +0.000 HD
ENDBRANCH   5  20
BRANCH   6  22
ATOM     22  O5  UNL     1      25.596 -10.461 -34.557  0.00  0.00    +0.000 OA
ATOM     23  H20 UNL     1      26.236 -11.160 -34.258  0.00  0.00    +0.000 HD
ENDBRANCH   6  22
BRANCH   1  24
ATOM     24  C1  UNL     1      27.865 -10.020 -36.409  0.00  0.00    +0.000 C 
BRANCH  24  25
ATOM     25  O1  UNL     1      26.628  -9.931 -37.065  0.00  0.00    +0.000 OA
ATOM     26  H1  UNL     1      26.393 -10.857 -37.337  0.00  0.00    +0.000 HD
ENDBRANCH  24  25
ENDBRANCH   1  24
TORSDOF 9
ENDMDL
MODEL 6
REMARK VINA RESULT:    -4.669      4.776      7.594
REMARK INTER + INTRA:          -7.170
REMARK INTER:                  -6.447
REMARK INTRA:                  -0.722
REMARK UNBOUND:                -0.726
REMARK  Name = resultss/4CJN/ligands/lig_76_t0.pdb
REMARK  9 active torsions:
REMARK  status: ('A' for Active; 'I' for Inactive)
REMARK    1  A    between atoms: O1_1  and  C1_2
REMARK    2  A    between atoms: C1_2  and  C2_3
REMARK    3  A    between atoms: C2_3  and  O2_4
REMARK    4  A    between atoms: C4_6  and  N1_7
REMARK    5  A    between atoms: N1_7  and  C5_8
REMARK    6  A    between atoms: C5_8  and  C6_9
REMARK    7  A    between atoms: C11_15  and  O3_16
REMARK    8  A    between atoms: C12_17  and  O4_18
REMARK    9  A    between atoms: C13_19  and  O5_20
REMARK                            x       y       z     vdW  Elec       q    Type
REMARK                         _______ _______ _______ _____ _____    ______ ____
ROOT
ATOM      1  C2  UNL     1      27.320  -8.745 -41.643  0.00  0.00    +0.000 C 
ATOM      2  C3  UNL     1      26.918  -9.144 -43.093  0.00  0.00    +0.000 C 
ATOM      3  C4  UNL     1      25.417  -8.950 -43.440  0.00  0.00    +0.000 C 
ATOM      4  C11 UNL     1      24.497  -9.532 -42.345  0.00  0.00    +0.000 C 
ATOM      5  C12 UNL     1      24.873  -9.012 -40.947  0.00  0.00    +0.000 C 
ATOM      6  C13 UNL     1      26.335  -9.383 -40.619  0.00  0.00    +0.000 C 
ENDROOT
BRANCH   1   7
ATOM      7  O2  UNL     1      27.286  -7.339 -41.543  0.00  0.00    +0.000 OA
ATOM      8  H4  UNL     1      26.841  -6.973 -42.352  0.00  0.00    +0.000 HD
ENDBRANCH   1   7
BRANCH   3   9
ATOM      9  N1  UNL     1      25.056  -7.543 -43.720  0.00  0.00    +0.000 NA
ATOM     10  H8  UNL     1      25.589  -6.885 -43.112  0.00  0.00    +0.000 HD
BRANCH   9  11
ATOM     11  C5  UNL     1      25.275  -7.166 -45.123  0.00  0.00    +0.000 C 
BRANCH  11  12
ATOM     12  C6  UNL     1      23.986  -7.258 -45.894  0.00  0.00    +0.000 A 
ATOM     13  C7  UNL     1      22.762  -6.928 -45.295  0.00  0.00    +0.000 A 
ATOM     14  C8  UNL     1      21.580  -6.998 -46.036  0.00  0.00    +0.000 A 
ATOM     15  C9  UNL     1      21.635  -7.397 -47.373  0.00  0.00    +0.000 A 
ATOM     16  N2  UNL     1      22.829  -7.710 -47.943  0.00  0.00    +0.000 NA
ATOM     17  C10 UNL     1      23.992  -7.649 -47.242  0.00  0.00    +0.000 A 
ENDBRANCH  11  12
ENDBRANCH   9  11
ENDBRANCH   3   9
BRANCH   4  18
ATOM     18  O3  UNL     1      23.156  -9.209 -42.616  0.00  0.00    +0.000 OA
ATOM     19  H16 UNL     1      22.754  -8.911 -41.758  0.00  0.00    +0.000 HD
ENDBRANCH   4  18
BRANCH   5  20
ATOM     20  O4  UNL     1      24.011  -9.599 -40.005  0.00  0.00    +0.000 OA
ATOM     21  H18 UNL     1      23.146  -9.765 -40.465  0.00  0.00    +0.000 HD
ENDBRANCH   5  20
BRANCH   6  22
ATOM     22  O5  UNL     1      26.654  -8.953 -39.318  0.00  0.00    +0.000 OA
ATOM     23  H20 UNL     1      25.830  -9.037 -38.770  0.00  0.00    +0.000 HD
ENDBRANCH   6  22
BRANCH   1  24
ATOM     24  C1  UNL     1      28.772  -9.221 -41.371  0.00  0.00    +0.000 C 
BRANCH  24  25
ATOM     25  O1  UNL     1      28.786 -10.468 -40.730  0.00  0.00    +0.000 OA
ATOM     26  H1  UNL     1      28.029 -10.457 -40.088  0.00  0.00    +0.000 HD
ENDBRANCH  24  25
ENDBRANCH   1  24
TORSDOF 9
ENDMDL
MODEL 7
REMARK VINA RESULT:    -4.581      2.311      3.191
REMARK INTER + INTRA:          -7.047
REMARK INTER:                  -6.407
REMARK INTRA:                  -0.640
REMARK UNBOUND:                -0.726
REMARK  Name = resultss/4CJN/ligands/lig_76_t0.pdb
REMARK  9 active torsions:
REMARK  status: ('A' for Active; 'I' for Inactive)
REMARK    1  A    between atoms: O1_1  and  C1_2
REMARK    2  A    between atoms: C1_2  and  C2_3
REMARK    3  A    between atoms: C2_3  and  O2_4
REMARK    4  A    between atoms: C4_6  and  N1_7
REMARK    5  A    between atoms: N1_7  and  C5_8
REMARK    6  A    between atoms: C5_8  and  C6_9
REMARK    7  A    between atoms: C11_15  and  O3_16
REMARK    8  A    between atoms: C12_17  and  O4_18
REMARK    9  A    between atoms: C13_19  and  O5_20
REMARK                            x       y       z     vdW  Elec       q    Type
REMARK                         _______ _______ _______ _____ _____    ______ ____
ROOT
ATOM      1  C2  UNL     1      25.852  -9.277 -41.481  0.00  0.00    +0.000 C 
ATOM      2  C3  UNL     1      26.183  -8.149 -40.460  0.00  0.00    +0.000 C 
ATOM      3  C4  UNL     1      24.951  -7.474 -39.798  0.00  0.00    +0.000 C 
ATOM      4  C11 UNL     1      23.880  -7.091 -40.841  0.00  0.00    +0.000 C 
ATOM      5  C12 UNL     1      23.512  -8.277 -41.748  0.00  0.00    +0.000 C 
ATOM      6  C13 UNL     1      24.767  -8.789 -42.487  0.00  0.00    +0.000 C 
ENDROOT
BRANCH   1   7
ATOM      7  O2  UNL     1      25.386 -10.400 -40.768  0.00  0.00    +0.000 OA
ATOM      8  H4  UNL     1      25.110 -11.098 -41.418  0.00  0.00    +0.000 HD
ENDBRANCH   1   7
BRANCH   3   9
ATOM      9  N1  UNL     1      24.348  -8.286 -38.717  0.00  0.00    +0.000 NA
ATOM     10  H8  UNL     1      24.835  -9.201 -38.611  0.00  0.00    +0.000 HD
BRANCH   9  11
ATOM     11  C5  UNL     1      24.351  -7.598 -37.419  0.00  0.00    +0.000 C 
BRANCH  11  12
ATOM     12  C6  UNL     1      25.099  -8.415 -36.399  0.00  0.00    +0.000 A 
ATOM     13  C7  UNL     1      24.760  -8.357 -35.040  0.00  0.00    +0.000 A 
ATOM     14  C8  UNL     1      25.452  -9.141 -34.114  0.00  0.00    +0.000 A 
ATOM     15  C9  UNL     1      26.477  -9.978 -34.558  0.00  0.00    +0.000 A 
ATOM     16  N2  UNL     1      26.792 -10.028 -35.880  0.00  0.00    +0.000 NA
ATOM     17  C10 UNL     1      26.133  -9.274 -36.800  0.00  0.00    +0.000 A 
ENDBRANCH  11  12
ENDBRANCH   9  11
ENDBRANCH   3   9
BRANCH   4  18
ATOM     18  O3  UNL     1      22.721  -6.622 -40.198  0.00  0.00    +0.000 OA
ATOM     19  H16 UNL     1      22.147  -6.217 -40.900  0.00  0.00    +0.000 HD
ENDBRANCH   4  18
BRANCH   5  20
ATOM     20  O4  UNL     1      22.553  -7.848 -42.681  0.00  0.00    +0.000 OA
ATOM     21  H18 UNL     1      21.817  -7.422 -42.167  0.00  0.00    +0.000 HD
ENDBRANCH   5  20
BRANCH   6  22
ATOM     22  O5  UNL     1      24.414  -9.837 -43.355  0.00  0.00    +0.000 OA
ATOM     23  H20 UNL     1      23.429  -9.949 -43.295  0.00  0.00    +0.000 HD
ENDBRANCH   6  22
BRANCH   1  24
ATOM     24  C1  UNL     1      27.150  -9.677 -42.232  0.00  0.00    +0.000 C 
BRANCH  24  25
ATOM     25  O1  UNL     1      27.238  -9.031 -43.474  0.00  0.00    +0.000 OA
ATOM     26  H1  UNL     1      27.593  -9.705 -44.111  0.00  0.00    +0.000 HD
ENDBRANCH  24  25
ENDBRANCH   1  24
TORSDOF 9
ENDMDL
MODEL 8
REMARK VINA RESULT:    -4.562      2.443      4.338
REMARK INTER + INTRA:          -7.022
REMARK INTER:                  -6.343
REMARK INTRA:                  -0.678
REMARK UNBOUND:                -0.726
REMARK  Name = resultss/4CJN/ligands/lig_76_t0.pdb
REMARK  9 active torsions:
REMARK  status: ('A' for Active; 'I' for Inactive)
REMARK    1  A    between atoms: O1_1  and  C1_2
REMARK    2  A    between atoms: C1_2  and  C2_3
REMARK    3  A    between atoms: C2_3  and  O2_4
REMARK    4  A    between atoms: C4_6  and  N1_7
REMARK    5  A    between atoms: N1_7  and  C5_8
REMARK    6  A    between atoms: C5_8  and  C6_9
REMARK    7  A    between atoms: C11_15  and  O3_16
REMARK    8  A    between atoms: C12_17  and  O4_18
REMARK    9  A    between atoms: C13_19  and  O5_20
REMARK                            x       y       z     vdW  Elec       q    Type
REMARK                         _______ _______ _______ _____ _____    ______ ____
ROOT
ATOM      1  C2  UNL     1      26.123  -9.223 -41.526  0.00  0.00    +0.000 C 
ATOM      2  C3  UNL     1      26.299 -10.401 -40.524  0.00  0.00    +0.000 C 
ATOM      3  C4  UNL     1      27.754 -10.643 -40.037  0.00  0.00    +0.000 C 
ATOM      4  C11 UNL     1      28.755 -10.655 -41.211  0.00  0.00    +0.000 C 
ATOM      5  C12 UNL     1      28.609  -9.410 -42.102  0.00  0.00    +0.000 C 
ATOM      6  C13 UNL     1      27.175  -9.330 -42.670  0.00  0.00    +0.000 C 
ENDROOT
BRANCH   1   7
ATOM      7  O2  UNL     1      26.287  -8.012 -40.823  0.00  0.00    +0.000 OA
ATOM      8  H4  UNL     1      25.592  -7.958 -40.116  0.00  0.00    +0.000 HD
ENDBRANCH   1   7
BRANCH   3   9
ATOM      9  N1  UNL     1      28.192  -9.684 -38.998  0.00  0.00    +0.000 NA
ATOM     10  H8  UNL     1      27.507  -8.907 -38.884  0.00  0.00    +0.000 HD
BRANCH   9  11
ATOM     11  C5  UNL     1      28.404 -10.318 -37.690  0.00  0.00    +0.000 C 
BRANCH  11  12
ATOM     12  C6  UNL     1      27.436  -9.764 -36.680  0.00  0.00    +0.000 A 
ATOM     13  C7  UNL     1      27.679  -9.887 -35.304  0.00  0.00    +0.000 A 
ATOM     14  C8  UNL     1      26.779  -9.345 -34.385  0.00  0.00    +0.000 A 
ATOM     15  C9  UNL     1      25.642  -8.682 -34.851  0.00  0.00    +0.000 A 
ATOM     16  N2  UNL     1      25.420  -8.567 -36.187  0.00  0.00    +0.000 NA
ATOM     17  C10 UNL     1      26.282  -9.086 -37.102  0.00  0.00    +0.000 A 
ENDBRANCH  11  12
ENDBRANCH   9  11
ENDBRANCH   3   9
BRANCH   4  18
ATOM     18  O3  UNL     1      30.072 -10.726 -40.726  0.00  0.00    +0.000 OA
ATOM     19  H16 UNL     1      30.347 -11.679 -40.780  0.00  0.00    +0.000 HD
ENDBRANCH   4  18
BRANCH   5  20
ATOM     20  O4  UNL     1      29.533  -9.502 -43.157  0.00  0.00    +0.000 OA
ATOM     21  H18 UNL     1      29.181 -10.179 -43.794  0.00  0.00    +0.000 HD
ENDBRANCH   5  20
BRANCH   6  22
ATOM     22  O5  UNL     1      27.064  -8.220 -43.526  0.00  0.00    +0.000 OA
ATOM     23  H20 UNL     1      26.658  -7.482 -43.000  0.00  0.00    +0.000 HD
ENDBRANCH   6  22
BRANCH   1  24
ATOM     24  C1  UNL     1      24.684  -9.263 -42.106  0.00  0.00    +0.000 C 
BRANCH  24  25
ATOM     25  O1  UNL     1      24.670  -9.818 -43.394  0.00  0.00    +0.000 OA
ATOM     26  H1  UNL     1      24.354 -10.753 -43.288  0.00  0.00    +0.000 HD
ENDBRANCH  24  25
ENDBRANCH   1  24
TORSDOF 9
ENDMDL
MODEL 9
REMARK VINA RESULT:    -4.474      2.924      6.674
REMARK INTER + INTRA:          -6.900
REMARK INTER:                  -6.190
REMARK INTRA:                  -0.710
REMARK UNBOUND:                -0.726
REMARK  Name = resultss/4CJN/ligands/lig_76_t0.pdb
REMARK  9 active torsions:
REMARK  status: ('A' for Active; 'I' for Inactive)
REMARK    1  A    between atoms: O1_1  and  C1_2
REMARK    2  A    between atoms: C1_2  and  C2_3
REMARK    3  A    between atoms: C2_3  and  O2_4
REMARK    4  A    between atoms: C4_6  and  N1_7
REMARK    5  A    between atoms: N1_7  and  C5_8
REMARK    6  A    between atoms: C5_8  and  C6_9
REMARK    7  A    between atoms: C11_15  and  O3_16
REMARK    8  A    between atoms: C12_17  and  O4_18
REMARK    9  A    between atoms: C13_19  and  O5_20
REMARK                            x       y       z     vdW  Elec       q    Type
REMARK                         _______ _______ _______ _____ _____    ______ ____
ROOT
ATOM      1  C2  UNL     1      25.014  -7.752 -37.602  0.00  0.00    +0.000 C 
ATOM      2  C3  UNL     1      26.352  -7.576 -38.379  0.00  0.00    +0.000 C 
ATOM      3  C4  UNL     1      27.305  -8.802 -38.340  0.00  0.00    +0.000 C 
ATOM      4  C11 UNL     1      27.472  -9.350 -36.906  0.00  0.00    +0.000 C 
ATOM      5  C12 UNL     1      26.115  -9.610 -36.231  0.00  0.00    +0.000 C 
ATOM      6  C13 UNL     1      25.293  -8.305 -36.173  0.00  0.00    +0.000 C 
ENDROOT
BRANCH   1   7
ATOM      7  O2  UNL     1      24.196  -8.647 -38.321  0.00  0.00    +0.000 OA
ATOM      8  H4  UNL     1      23.336  -8.751 -37.837  0.00  0.00    +0.000 HD
ENDBRANCH   1   7
BRANCH   3   9
ATOM      9  N1  UNL     1      26.904  -9.887 -39.262  0.00  0.00    +0.000 NA
ATOM     10  H8  UNL     1      26.010 -10.332 -38.960  0.00  0.00    +0.000 HD
BRANCH   9  11
ATOM     11  C5  UNL     1      26.755  -9.430 -40.650  0.00  0.00    +0.000 C 
BRANCH  11  12
ATOM     12  C6  UNL     1      27.993  -9.758 -41.441  0.00  0.00    +0.000 A 
ATOM     13  C7  UNL     1      28.388  -8.962 -42.526  0.00  0.00    +0.000 A 
ATOM     14  C8  UNL     1      29.553  -9.272 -43.231  0.00  0.00    +0.000 A 
ATOM     15  C9  UNL     1      30.315 -10.376 -42.842  0.00  0.00    +0.000 A 
ATOM     16  N2  UNL     1      29.923 -11.136 -41.786  0.00  0.00    +0.000 NA
ATOM     17  C10 UNL     1      28.792 -10.855 -41.084  0.00  0.00    +0.000 A 
ENDBRANCH  11  12
ENDBRANCH   9  11
ENDBRANCH   3   9
BRANCH   4  18
ATOM     18  O3  UNL     1      28.217 -10.542 -36.927  0.00  0.00    +0.000 OA
ATOM     19  H16 UNL     1      27.988 -11.037 -36.097  0.00  0.00    +0.000 HD
ENDBRANCH   4  18
BRANCH   5  20
ATOM     20  O4  UNL     1      26.346 -10.085 -34.929  0.00  0.00    +0.000 OA
ATOM     21  H18 UNL     1      26.414  -9.290 -34.337  0.00  0.00    +0.000 HD
ENDBRANCH   5  20
BRANCH   6  22
ATOM     22  O5  UNL     1      24.077  -8.538 -35.506  0.00  0.00    +0.000 OA
ATOM     23  H20 UNL     1      24.275  -8.561 -34.533  0.00  0.00    +0.000 HD
ENDBRANCH   6  22
BRANCH   1  24
ATOM     24  C1  UNL     1      24.291  -6.381 -37.524  0.00  0.00    +0.000 C 
BRANCH  24  25
ATOM     25  O1  UNL     1      22.899  -6.544 -37.467  0.00  0.00    +0.000 OA
ATOM     26  H1  UNL     1      22.716  -7.073 -36.647  0.00  0.00    +0.000 HD
ENDBRANCH  24  25
ENDBRANCH   1  24
TORSDOF 9
ENDMDL
