MODEL 1
REMARK VINA RESULT:    -5.963      0.000      0.000
REMARK INTER + INTRA:          -8.702
REMARK INTER:                  -7.706
REMARK INTRA:                  -0.996
REMARK UNBOUND:                -0.996
REMARK  Name = resultss/4CJN/ligands/lig_286_t2.pdb
REMARK  8 active torsions:
REMARK  status: ('A' for Active; 'I' for Inactive)
REMARK    1  A    between atoms: C10_14  and  O5_15
REMARK    2  A    between atoms: C11_16  and  C12_17
REMARK    3  A    between atoms: C13_19  and  C14_20
REMARK    4  A    between atoms: C14_20  and  O7_21
REMARK    5  A    between atoms: C15_22  and  O8_23
REMARK    6  A    between atoms: C16_24  and  O9_25
REMARK    7  A    between atoms: C17_26  and  O10_27
REMARK    8  A    between atoms: C18_28  and  O11_29
REMARK                            x       y       z     vdW  Elec       q    Type
REMARK                         _______ _______ _______ _____ _____    ______ ____
ROOT
ATOM      1  O1  UNL     1      24.752  -6.007 -38.624  0.00  0.00    +0.000 OA
ATOM      2  C1  UNL     1      25.353  -7.111 -38.700  0.00  0.00    +0.000 A 
ATOM      3  C2  UNL     1      25.665  -7.797 -37.513  0.00  0.00    +0.000 A 
ATOM      4  C3  UNL     1      25.238  -7.253 -36.163  0.00  0.00    +0.000 C 
ATOM      5  C4  UNL     1      25.081  -8.347 -35.146  0.00  0.00    +0.000 C 
ATOM      6  O2  UNL     1      24.284  -8.197 -34.182  0.00  0.00    +0.000 OA
ATOM      7  C5  UNL     1      25.893  -9.567 -35.251  0.00  0.00    +0.000 C 
ATOM      8  O3  UNL     1      25.788 -10.475 -34.383  0.00  0.00    +0.000 OA
ATOM      9  C6  UNL     1      26.889  -9.707 -36.363  0.00  0.00    +0.000 C 
ATOM     10  C7  UNL     1      26.460  -8.956 -37.596  0.00  0.00    +0.000 A 
ATOM     11  O4  UNL     1      26.892  -9.383 -38.775  0.00  0.00    +0.000 OA
ATOM     12  C8  UNL     1      26.589  -8.786 -39.922  0.00  0.00    +0.000 A 
ATOM     13  C9  UNL     1      27.132  -9.294 -41.096  0.00  0.00    +0.000 A 
ATOM     14  C10 UNL     1      26.887  -8.688 -42.326  0.00  0.00    +0.000 A 
ATOM     15  C11 UNL     1      25.983  -7.597 -42.411  0.00  0.00    +0.000 A 
ATOM     16  C18 UNL     1      25.412  -7.080 -41.214  0.00  0.00    +0.000 A 
ATOM     17  C19 UNL     1      25.758  -7.644 -39.951  0.00  0.00    +0.000 A 
ENDROOT
BRANCH  15  18
ATOM     18  C12 UNL     1      25.601  -6.980 -43.757  0.00  0.00    +0.000 C 
ATOM     19  O6  UNL     1      26.760  -6.868 -44.568  0.00  0.00    +0.000 OA
ATOM     20  C13 UNL     1      26.478  -6.193 -45.784  0.00  0.00    +0.000 C 
ATOM     21  C15 UNL     1      25.487  -7.022 -46.640  0.00  0.00    +0.000 C 
ATOM     22  C16 UNL     1      24.194  -7.265 -45.843  0.00  0.00    +0.000 C 
ATOM     23  C17 UNL     1      24.530  -7.850 -44.460  0.00  0.00    +0.000 C 
BRANCH  21  24
ATOM     24  O8  UNL     1      25.166  -6.329 -47.820  0.00  0.00    +0.000 OA
ATOM     25  H13 UNL     1      25.919  -6.461 -48.454  0.00  0.00    +0.000 HD
ENDBRANCH  21  24
BRANCH  22  26
ATOM     26  O9  UNL     1      23.364  -8.163 -46.533  0.00  0.00    +0.000 OA
ATOM     27  H15 UNL     1      22.693  -7.618 -47.022  0.00  0.00    +0.000 HD
ENDBRANCH  22  26
BRANCH  23  28
ATOM     28  O10 UNL     1      23.370  -7.967 -43.672  0.00  0.00    +0.000 OA
ATOM     29  H17 UNL     1      22.588  -7.947 -44.282  0.00  0.00    +0.000 HD
ENDBRANCH  23  28
BRANCH  20  30
ATOM     30  C14 UNL     1      27.812  -5.975 -46.518  0.00  0.00    +0.000 C 
BRANCH  30  31
ATOM     31  O7  UNL     1      27.953  -6.864 -47.594  0.00  0.00    +0.000 OA
ATOM     32  H11 UNL     1      28.119  -7.760 -47.203  0.00  0.00    +0.000 HD
ENDBRANCH  30  31
ENDBRANCH  20  30
ENDBRANCH  15  18
BRANCH  14  33
ATOM     33  O5  UNL     1      27.573  -9.207 -43.428  0.00  0.00    +0.000 OA
ATOM     34  H6  UNL     1      27.681  -8.738 -44.315  0.00  0.00    +0.000 HD
ENDBRANCH  14  33
BRANCH  16  35
ATOM     35  O11 UNL     1      24.488  -6.034 -41.328  0.00  0.00    +0.000 OA
ATOM     36  H18 UNL     1      24.376  -5.462 -42.152  0.00  0.00    +0.000 HD
ENDBRANCH  16  35
TORSDOF 8
ENDMDL
MODEL 2
REMARK VINA RESULT:    -5.903      1.740      8.735
REMARK INTER + INTRA:          -8.625
REMARK INTER:                  -7.824
REMARK INTRA:                  -0.801
REMARK UNBOUND:                -0.996
REMARK  Name = resultss/4CJN/ligands/lig_286_t2.pdb
REMARK  8 active torsions:
REMARK  status: ('A' for Active; 'I' for Inactive)
REMARK    1  A    between atoms: C10_14  and  O5_15
REMARK    2  A    between atoms: C11_16  and  C12_17
REMARK    3  A    between atoms: C13_19  and  C14_20
REMARK    4  A    between atoms: C14_20  and  O7_21
REMARK    5  A    between atoms: C15_22  and  O8_23
REMARK    6  A    between atoms: C16_24  and  O9_25
REMARK    7  A    between atoms: C17_26  and  O10_27
REMARK    8  A    between atoms: C18_28  and  O11_29
REMARK                            x       y       z     vdW  Elec       q    Type
REMARK                         _______ _______ _______ _____ _____    ______ ____
ROOT
ATOM      1  O1  UNL     1      23.947  -8.816 -40.986  0.00  0.00    +0.000 OA
ATOM      2  C1  UNL     1      25.038  -8.244 -41.256  0.00  0.00    +0.000 A 
ATOM      3  C2  UNL     1      25.369  -8.014 -42.602  0.00  0.00    +0.000 A 
ATOM      4  C3  UNL     1      24.412  -8.392 -43.716  0.00  0.00    +0.000 C 
ATOM      5  C4  UNL     1      24.615  -7.544 -44.938  0.00  0.00    +0.000 C 
ATOM      6  O2  UNL     1      23.656  -7.342 -45.729  0.00  0.00    +0.000 OA
ATOM      7  C5  UNL     1      25.945  -6.992 -45.234  0.00  0.00    +0.000 C 
ATOM      8  O3  UNL     1      26.129  -6.305 -46.274  0.00  0.00    +0.000 OA
ATOM      9  C6  UNL     1      27.097  -7.295 -44.323  0.00  0.00    +0.000 C 
ATOM     10  C7  UNL     1      26.647  -7.505 -42.902  0.00  0.00    +0.000 A 
ATOM     11  O4  UNL     1      27.505  -7.247 -41.924  0.00  0.00    +0.000 OA
ATOM     12  C8  UNL     1      27.218  -7.414 -40.639  0.00  0.00    +0.000 A 
ATOM     13  C9  UNL     1      28.209  -7.153 -39.699  0.00  0.00    +0.000 A 
ATOM     14  C10 UNL     1      27.984  -7.350 -38.340  0.00  0.00    +0.000 A 
ATOM     15  C11 UNL     1      26.692  -7.720 -37.881  0.00  0.00    +0.000 A 
ATOM     16  C18 UNL     1      25.669  -7.975 -38.836  0.00  0.00    +0.000 A 
ATOM     17  C19 UNL     1      25.947  -7.874 -40.231  0.00  0.00    +0.000 A 
ENDROOT
BRANCH  15  18
ATOM     18  C12 UNL     1      26.378  -7.833 -36.389  0.00  0.00    +0.000 C 
ATOM     19  O6  UNL     1      25.217  -7.071 -36.094  0.00  0.00    +0.000 OA
ATOM     20  C13 UNL     1      24.952  -7.050 -34.700  0.00  0.00    +0.000 C 
ATOM     21  C15 UNL     1      24.614  -8.476 -34.197  0.00  0.00    +0.000 C 
ATOM     22  C16 UNL     1      25.782  -9.426 -34.512  0.00  0.00    +0.000 C 
ATOM     23  C17 UNL     1      26.163  -9.317 -35.999  0.00  0.00    +0.000 C 
BRANCH  21  24
ATOM     24  O8  UNL     1      24.403  -8.465 -32.807  0.00  0.00    +0.000 OA
ATOM     25  H13 UNL     1      24.813  -7.633 -32.453  0.00  0.00    +0.000 HD
ENDBRANCH  21  24
BRANCH  22  26
ATOM     26  O9  UNL     1      25.417 -10.751 -34.227  0.00  0.00    +0.000 OA
ATOM     27  H15 UNL     1      25.898 -11.011 -33.398  0.00  0.00    +0.000 HD
ENDBRANCH  22  26
BRANCH  23  28
ATOM     28  O10 UNL     1      27.307 -10.088 -36.279  0.00  0.00    +0.000 OA
ATOM     29  H17 UNL     1      27.170 -10.521 -37.161  0.00  0.00    +0.000 HD
ENDBRANCH  23  28
BRANCH  20  30
ATOM     30  C14 UNL     1      23.787  -6.076 -34.460  0.00  0.00    +0.000 C 
BRANCH  30  31
ATOM     31  O7  UNL     1      22.564  -6.756 -34.370  0.00  0.00    +0.000 OA
ATOM     32  H11 UNL     1      22.396  -7.160 -35.260  0.00  0.00    +0.000 HD
ENDBRANCH  30  31
ENDBRANCH  20  30
ENDBRANCH  15  18
BRANCH  14  33
ATOM     33  O5  UNL     1      29.081  -7.169 -37.491  0.00  0.00    +0.000 OA
ATOM     34  H6  UNL     1      29.283  -6.322 -36.981  0.00  0.00    +0.000 HD
ENDBRANCH  14  33
BRANCH  16  35
ATOM     35  O11 UNL     1      24.392  -8.294 -38.358  0.00  0.00    +0.000 OA
ATOM     36  H18 UNL     1      24.182  -9.108 -37.799  0.00  0.00    +0.000 HD
ENDBRANCH  16  35
TORSDOF 8
ENDMDL
MODEL 3
REMARK VINA RESULT:    -5.902      4.130      8.646
REMARK INTER + INTRA:          -8.623
REMARK INTER:                  -7.684
REMARK INTRA:                  -0.939
REMARK UNBOUND:                -0.996
REMARK  Name = resultss/4CJN/ligands/lig_286_t2.pdb
REMARK  8 active torsions:
REMARK  status: ('A' for Active; 'I' for Inactive)
REMARK    1  A    between atoms: C10_14  and  O5_15
REMARK    2  A    between atoms: C11_16  and  C12_17
REMARK    3  A    between atoms: C13_19  and  C14_20
REMARK    4  A    between atoms: C14_20  and  O7_21
REMARK    5  A    between atoms: C15_22  and  O8_23
REMARK    6  A    between atoms: C16_24  and  O9_25
REMARK    7  A    between atoms: C17_26  and  O10_27
REMARK    8  A    between atoms: C18_28  and  O11_29
REMARK                            x       y       z     vdW  Elec       q    Type
REMARK                         _______ _______ _______ _____ _____    ______ ____
ROOT
ATOM      1  O1  UNL     1      31.294  -8.801 -39.144  0.00  0.00    +0.000 OA
ATOM      2  C1  UNL     1      30.500  -9.409 -39.911  0.00  0.00    +0.000 A 
ATOM      3  C2  UNL     1      31.009 -10.009 -41.076  0.00  0.00    +0.000 A 
ATOM      4  C3  UNL     1      32.494  -9.982 -41.382  0.00  0.00    +0.000 C 
ATOM      5  C4  UNL     1      32.907 -11.143 -42.242  0.00  0.00    +0.000 C 
ATOM      6  O2  UNL     1      34.087 -11.578 -42.183  0.00  0.00    +0.000 OA
ATOM      7  C5  UNL     1      31.947 -11.735 -43.184  0.00  0.00    +0.000 C 
ATOM      8  O3  UNL     1      32.297 -12.688 -43.930  0.00  0.00    +0.000 OA
ATOM      9  C6  UNL     1      30.565 -11.165 -43.297  0.00  0.00    +0.000 C 
ATOM     10  C7  UNL     1      30.099 -10.562 -41.998  0.00  0.00    +0.000 A 
ATOM     11  O4  UNL     1      28.796 -10.515 -41.756  0.00  0.00    +0.000 OA
ATOM     12  C8  UNL     1      28.279  -9.991 -40.652  0.00  0.00    +0.000 A 
ATOM     13  C9  UNL     1      26.895  -9.956 -40.521  0.00  0.00    +0.000 A 
ATOM     14  C10 UNL     1      26.290  -9.380 -39.407  0.00  0.00    +0.000 A 
ATOM     15  C11 UNL     1      27.087  -8.915 -38.328  0.00  0.00    +0.000 A 
ATOM     16  C18 UNL     1      28.504  -8.961 -38.448  0.00  0.00    +0.000 A 
ATOM     17  C19 UNL     1      29.108  -9.454 -39.642  0.00  0.00    +0.000 A 
ENDROOT
BRANCH  15  18
ATOM     18  C12 UNL     1      26.455  -8.383 -37.041  0.00  0.00    +0.000 C 
ATOM     19  O6  UNL     1      25.266  -7.677 -37.358  0.00  0.00    +0.000 OA
ATOM     20  C13 UNL     1      24.705  -7.064 -36.208  0.00  0.00    +0.000 C 
ATOM     21  C15 UNL     1      24.253  -8.143 -35.192  0.00  0.00    +0.000 C 
ATOM     22  C16 UNL     1      25.453  -9.025 -34.806  0.00  0.00    +0.000 C 
ATOM     23  C17 UNL     1      26.148  -9.552 -36.073  0.00  0.00    +0.000 C 
BRANCH  21  24
ATOM     24  O8  UNL     1      23.746  -7.536 -34.030  0.00  0.00    +0.000 OA
ATOM     25  H13 UNL     1      23.662  -6.565 -34.217  0.00  0.00    +0.000 HD
ENDBRANCH  21  24
BRANCH  22  26
ATOM     26  O9  UNL     1      25.022 -10.113 -34.030  0.00  0.00    +0.000 OA
ATOM     27  H15 UNL     1      24.264 -10.532 -34.516  0.00  0.00    +0.000 HD
ENDBRANCH  22  26
BRANCH  23  28
ATOM     28  O10 UNL     1      27.318 -10.261 -35.743  0.00  0.00    +0.000 OA
ATOM     29  H17 UNL     1      27.791  -9.749 -35.036  0.00  0.00    +0.000 HD
ENDBRANCH  23  28
BRANCH  20  30
ATOM     30  C14 UNL     1      23.524  -6.194 -36.670  0.00  0.00    +0.000 C 
BRANCH  30  31
ATOM     31  O7  UNL     1      22.328  -6.926 -36.688  0.00  0.00    +0.000 OA
ATOM     32  H11 UNL     1      22.528  -7.808 -36.279  0.00  0.00    +0.000 HD
ENDBRANCH  30  31
ENDBRANCH  20  30
ENDBRANCH  15  18
BRANCH  14  33
ATOM     33  O5  UNL     1      24.894  -9.292 -39.428  0.00  0.00    +0.000 OA
ATOM     34  H6  UNL     1      24.296  -9.766 -40.088  0.00  0.00    +0.000 HD
ENDBRANCH  14  33
BRANCH  16  35
ATOM     35  O11 UNL     1      29.268  -8.539 -37.353  0.00  0.00    +0.000 OA
ATOM     36  H18 UNL     1      28.960  -8.589 -36.394  0.00  0.00    +0.000 HD
ENDBRANCH  16  35
TORSDOF 8
ENDMDL
MODEL 4
REMARK VINA RESULT:    -5.900      2.745      3.172
REMARK INTER + INTRA:          -8.620
REMARK INTER:                  -7.980
REMARK INTRA:                  -0.641
REMARK UNBOUND:                -0.996
REMARK  Name = resultss/4CJN/ligands/lig_286_t2.pdb
REMARK  8 active torsions:
REMARK  status: ('A' for Active; 'I' for Inactive)
REMARK    1  A    between atoms: C10_14  and  O5_15
REMARK    2  A    between atoms: C11_16  and  C12_17
REMARK    3  A    between atoms: C13_19  and  C14_20
REMARK    4  A    between atoms: C14_20  and  O7_21
REMARK    5  A    between atoms: C15_22  and  O8_23
REMARK    6  A    between atoms: C16_24  and  O9_25
REMARK    7  A    between atoms: C17_26  and  O10_27
REMARK    8  A    between atoms: C18_28  and  O11_29
REMARK                            x       y       z     vdW  Elec       q    Type
REMARK                         _______ _______ _______ _____ _____    ______ ____
ROOT
ATOM      1  O1  UNL     1      28.159  -6.298 -40.424  0.00  0.00    +0.000 OA
ATOM      2  C1  UNL     1      27.687  -7.419 -40.095  0.00  0.00    +0.000 A 
ATOM      3  C2  UNL     1      28.309  -8.141 -39.062  0.00  0.00    +0.000 A 
ATOM      4  C3  UNL     1      29.492  -7.563 -38.310  0.00  0.00    +0.000 C 
ATOM      5  C4  UNL     1      29.600  -8.126 -36.922  0.00  0.00    +0.000 C 
ATOM      6  O2  UNL     1      30.146  -7.450 -36.011  0.00  0.00    +0.000 OA
ATOM      7  C5  UNL     1      29.112  -9.484 -36.643  0.00  0.00    +0.000 C 
ATOM      8  O3  UNL     1      29.228  -9.974 -35.487  0.00  0.00    +0.000 OA
ATOM      9  C6  UNL     1      28.526 -10.308 -37.749  0.00  0.00    +0.000 C 
ATOM     10  C7  UNL     1      27.865  -9.451 -38.797  0.00  0.00    +0.000 A 
ATOM     11  O4  UNL     1      26.878  -9.975 -39.510  0.00  0.00    +0.000 OA
ATOM     12  C8  UNL     1      26.240  -9.314 -40.468  0.00  0.00    +0.000 A 
ATOM     13  C9  UNL     1      25.248  -9.977 -41.182  0.00  0.00    +0.000 A 
ATOM     14  C10 UNL     1      24.572  -9.353 -42.227  0.00  0.00    +0.000 A 
ATOM     15  C11 UNL     1      24.813  -7.982 -42.509  0.00  0.00    +0.000 A 
ATOM     16  C18 UNL     1      25.817  -7.293 -41.773  0.00  0.00    +0.000 A 
ATOM     17  C19 UNL     1      26.576  -7.978 -40.779  0.00  0.00    +0.000 A 
ENDROOT
BRANCH  15  18
ATOM     18  C12 UNL     1      24.009  -7.233 -43.572  0.00  0.00    +0.000 C 
ATOM     19  O6  UNL     1      24.351  -7.729 -44.857  0.00  0.00    +0.000 OA
ATOM     20  C13 UNL     1      23.717  -6.985 -45.885  0.00  0.00    +0.000 C 
ATOM     21  C15 UNL     1      22.180  -7.158 -45.803  0.00  0.00    +0.000 C 
ATOM     22  C16 UNL     1      21.681  -6.705 -44.419  0.00  0.00    +0.000 C 
ATOM     23  C17 UNL     1      22.491  -7.404 -43.313  0.00  0.00    +0.000 C 
BRANCH  21  24
ATOM     24  O8  UNL     1      21.548  -6.379 -46.788  0.00  0.00    +0.000 OA
ATOM     25  H13 UNL     1      21.591  -6.889 -47.639  0.00  0.00    +0.000 HD
ENDBRANCH  21  24
BRANCH  22  26
ATOM     26  O9  UNL     1      20.323  -7.025 -44.267  0.00  0.00    +0.000 OA
ATOM     27  H15 UNL     1      19.807  -6.332 -44.757  0.00  0.00    +0.000 HD
ENDBRANCH  22  26
BRANCH  23  28
ATOM     28  O10 UNL     1      22.132  -6.912 -42.045  0.00  0.00    +0.000 OA
ATOM     29  H17 UNL     1      22.876  -7.113 -41.421  0.00  0.00    +0.000 HD
ENDBRANCH  23  28
BRANCH  20  30
ATOM     30  C14 UNL     1      24.270  -7.482 -47.231  0.00  0.00    +0.000 C 
BRANCH  30  31
ATOM     31  O7  UNL     1      23.416  -8.429 -47.815  0.00  0.00    +0.000 OA
ATOM     32  H11 UNL     1      23.736  -9.321 -47.520  0.00  0.00    +0.000 HD
ENDBRANCH  30  31
ENDBRANCH  20  30
ENDBRANCH  15  18
BRANCH  14  33
ATOM     33  O5  UNL     1      23.677 -10.143 -42.955  0.00  0.00    +0.000 OA
ATOM     34  H6  UNL     1      23.000 -10.772 -42.548  0.00  0.00    +0.000 HD
ENDBRANCH  14  33
BRANCH  16  35
ATOM     35  O11 UNL     1      26.004  -5.931 -42.038  0.00  0.00    +0.000 OA
ATOM     36  H18 UNL     1      25.717  -5.188 -41.419  0.00  0.00    +0.000 HD
ENDBRANCH  16  35
TORSDOF 8
ENDMDL
MODEL 5
REMARK VINA RESULT:    -5.871      2.602      3.427
REMARK INTER + INTRA:          -8.583
REMARK INTER:                  -7.639
REMARK INTRA:                  -0.944
REMARK UNBOUND:                -0.996
REMARK  Name = resultss/4CJN/ligands/lig_286_t2.pdb
REMARK  8 active torsions:
REMARK  status: ('A' for Active; 'I' for Inactive)
REMARK    1  A    between atoms: C10_14  and  O5_15
REMARK    2  A    between atoms: C11_16  and  C12_17
REMARK    3  A    between atoms: C13_19  and  C14_20
REMARK    4  A    between atoms: C14_20  and  O7_21
REMARK    5  A    between atoms: C15_22  and  O8_23
REMARK    6  A    between atoms: C16_24  and  O9_25
REMARK    7  A    between atoms: C17_26  and  O10_27
REMARK    8  A    between atoms: C18_28  and  O11_29
REMARK                            x       y       z     vdW  Elec       q    Type
REMARK                         _______ _______ _______ _____ _____    ______ ____
ROOT
ATOM      1  O1  UNL     1      26.854  -6.605 -36.158  0.00  0.00    +0.000 OA
ATOM      2  C1  UNL     1      27.594  -7.593 -36.411  0.00  0.00    +0.000 A 
ATOM      3  C2  UNL     1      28.470  -8.057 -35.415  0.00  0.00    +0.000 A 
ATOM      4  C3  UNL     1      28.490  -7.424 -34.037  0.00  0.00    +0.000 C 
ATOM      5  C4  UNL     1      28.963  -8.388 -32.987  0.00  0.00    +0.000 C 
ATOM      6  O2  UNL     1      28.584  -8.251 -31.794  0.00  0.00    +0.000 OA
ATOM      7  C5  UNL     1      29.904  -9.458 -33.345  0.00  0.00    +0.000 C 
ATOM      8  O3  UNL     1      30.329 -10.250 -32.462  0.00  0.00    +0.000 OA
ATOM      9  C6  UNL     1      30.404  -9.570 -34.754  0.00  0.00    +0.000 C 
ATOM     10  C7  UNL     1      29.392  -9.068 -35.750  0.00  0.00    +0.000 A 
ATOM     11  O4  UNL     1      29.416  -9.564 -36.979  0.00  0.00    +0.000 OA
ATOM     12  C8  UNL     1      28.582  -9.180 -37.937  0.00  0.00    +0.000 A 
ATOM     13  C9  UNL     1      28.725  -9.737 -39.203  0.00  0.00    +0.000 A 
ATOM     14  C10 UNL     1      27.909  -9.344 -40.260  0.00  0.00    +0.000 A 
ATOM     15  C11 UNL     1      26.838  -8.440 -40.032  0.00  0.00    +0.000 A 
ATOM     16  C18 UNL     1      26.676  -7.877 -38.736  0.00  0.00    +0.000 A 
ATOM     17  C19 UNL     1      27.588  -8.207 -37.690  0.00  0.00    +0.000 A 
ENDROOT
BRANCH  15  18
ATOM     18  C12 UNL     1      25.852  -8.075 -41.142  0.00  0.00    +0.000 C 
ATOM     19  O6  UNL     1      26.570  -7.787 -42.332  0.00  0.00    +0.000 OA
ATOM     20  C13 UNL     1      25.706  -7.329 -43.360  0.00  0.00    +0.000 C 
ATOM     21  C15 UNL     1      24.717  -8.450 -43.769  0.00  0.00    +0.000 C 
ATOM     22  C16 UNL     1      23.907  -8.898 -42.540  0.00  0.00    +0.000 C 
ATOM     23  C17 UNL     1      24.858  -9.239 -41.379  0.00  0.00    +0.000 C 
BRANCH  21  24
ATOM     24  O8  UNL     1      23.826  -7.980 -44.749  0.00  0.00    +0.000 OA
ATOM     25  H13 UNL     1      24.319  -7.962 -45.611  0.00  0.00    +0.000 HD
ENDBRANCH  21  24
BRANCH  22  26
ATOM     26  O9  UNL     1      23.141 -10.032 -42.855  0.00  0.00    +0.000 OA
ATOM     27  H15 UNL     1      23.519 -10.413 -43.690  0.00  0.00    +0.000 HD
ENDBRANCH  22  26
BRANCH  23  28
ATOM     28  O10 UNL     1      24.132  -9.535 -40.210  0.00  0.00    +0.000 OA
ATOM     29  H17 UNL     1      24.783  -9.628 -39.467  0.00  0.00    +0.000 HD
ENDBRANCH  23  28
BRANCH  20  30
ATOM     30  C14 UNL     1      26.581  -6.888 -44.545  0.00  0.00    +0.000 C 
BRANCH  30  31
ATOM     31  O7  UNL     1      25.886  -6.015 -45.395  0.00  0.00    +0.000 OA
ATOM     32  H11 UNL     1      26.415  -5.176 -45.436  0.00  0.00    +0.000 HD
ENDBRANCH  30  31
ENDBRANCH  20  30
ENDBRANCH  15  18
BRANCH  14  33
ATOM     33  O5  UNL     1      28.211  -9.879 -41.517  0.00  0.00    +0.000 OA
ATOM     34  H6  UNL     1      29.144 -10.055 -41.860  0.00  0.00    +0.000 HD
ENDBRANCH  14  33
BRANCH  16  35
ATOM     35  O11 UNL     1      25.586  -7.024 -38.524  0.00  0.00    +0.000 OA
ATOM     36  H18 UNL     1      24.625  -7.330 -38.488  0.00  0.00    +0.000 HD
ENDBRANCH  16  35
TORSDOF 8
ENDMDL
MODEL 6
REMARK VINA RESULT:    -5.215      4.557      8.865
REMARK INTER + INTRA:          -7.736
REMARK INTER:                  -7.168
REMARK INTRA:                  -0.568
REMARK UNBOUND:                -0.996
REMARK  Name = resultss/4CJN/ligands/lig_286_t2.pdb
REMARK  8 active torsions:
REMARK  status: ('A' for Active; 'I' for Inactive)
REMARK    1  A    between atoms: C10_14  and  O5_15
REMARK    2  A    between atoms: C11_16  and  C12_17
REMARK    3  A    between atoms: C13_19  and  C14_20
REMARK    4  A    between atoms: C14_20  and  O7_21
REMARK    5  A    between atoms: C15_22  and  O8_23
REMARK    6  A    between atoms: C16_24  and  O9_25
REMARK    7  A    between atoms: C17_26  and  O10_27
REMARK    8  A    between atoms: C18_28  and  O11_29
REMARK                            x       y       z     vdW  Elec       q    Type
REMARK                         _______ _______ _______ _____ _____    ______ ____
ROOT
ATOM      1  O1  UNL     1      28.963 -11.134 -41.471  0.00  0.00    +0.000 OA
ATOM      2  C1  UNL     1      30.017 -10.537 -41.123  0.00  0.00    +0.000 A 
ATOM      3  C2  UNL     1      31.181 -10.710 -41.891  0.00  0.00    +0.000 A 
ATOM      4  C3  UNL     1      31.164 -11.551 -43.153  0.00  0.00    +0.000 C 
ATOM      5  C4  UNL     1      32.226 -11.120 -44.124  0.00  0.00    +0.000 C 
ATOM      6  O2  UNL     1      32.064 -11.315 -45.357  0.00  0.00    +0.000 OA
ATOM      7  C5  UNL     1      33.472 -10.519 -43.628  0.00  0.00    +0.000 C 
ATOM      8  O3  UNL     1      34.379 -10.184 -44.436  0.00  0.00    +0.000 OA
ATOM      9  C6  UNL     1      33.685 -10.355 -42.153  0.00  0.00    +0.000 C 
ATOM     10  C7  UNL     1      32.386 -10.156 -41.418  0.00  0.00    +0.000 A 
ATOM     11  O4  UNL     1      32.405  -9.485 -40.274  0.00  0.00    +0.000 OA
ATOM     12  C8  UNL     1      31.322  -9.268 -39.539  0.00  0.00    +0.000 A 
ATOM     13  C9  UNL     1      31.465  -8.587 -38.335  0.00  0.00    +0.000 A 
ATOM     14  C10 UNL     1      30.374  -8.366 -37.498  0.00  0.00    +0.000 A 
ATOM     15  C11 UNL     1      29.070  -8.739 -37.917  0.00  0.00    +0.000 A 
ATOM     16  C18 UNL     1      28.914  -9.423 -39.155  0.00  0.00    +0.000 A 
ATOM     17  C19 UNL     1      30.055  -9.739 -39.950  0.00  0.00    +0.000 A 
ENDROOT
BRANCH  15  18
ATOM     18  C12 UNL     1      27.836  -8.409 -37.077  0.00  0.00    +0.000 C 
ATOM     19  O6  UNL     1      26.761  -8.062 -37.937  0.00  0.00    +0.000 OA
ATOM     20  C13 UNL     1      25.627  -7.634 -37.200  0.00  0.00    +0.000 C 
ATOM     21  C15 UNL     1      25.073  -8.800 -36.343  0.00  0.00    +0.000 C 
ATOM     22  C16 UNL     1      26.172  -9.313 -35.396  0.00  0.00    +0.000 C 
ATOM     23  C17 UNL     1      27.452  -9.621 -36.193  0.00  0.00    +0.000 C 
BRANCH  21  24
ATOM     24  O8  UNL     1      23.981  -8.362 -35.572  0.00  0.00    +0.000 OA
ATOM     25  H13 UNL     1      23.991  -8.881 -34.726  0.00  0.00    +0.000 HD
ENDBRANCH  21  24
BRANCH  22  26
ATOM     26  O9  UNL     1      25.742 -10.480 -34.746  0.00  0.00    +0.000 OA
ATOM     27  H15 UNL     1      25.224 -10.192 -33.949  0.00  0.00    +0.000 HD
ENDBRANCH  22  26
BRANCH  23  28
ATOM     28  O10 UNL     1      28.504  -9.976 -35.329  0.00  0.00    +0.000 OA
ATOM     29  H17 UNL     1      28.331 -10.898 -35.007  0.00  0.00    +0.000 HD
ENDBRANCH  23  28
BRANCH  20  30
ATOM     30  C14 UNL     1      24.580  -7.126 -38.206  0.00  0.00    +0.000 C 
BRANCH  30  31
ATOM     31  O7  UNL     1      24.264  -8.111 -39.153  0.00  0.00    +0.000 OA
ATOM     32  H11 UNL     1      25.016  -8.136 -39.800  0.00  0.00    +0.000 HD
ENDBRANCH  30  31
ENDBRANCH  20  30
ENDBRANCH  15  18
BRANCH  14  33
ATOM     33  O5  UNL     1      30.645  -7.776 -36.259  0.00  0.00    +0.000 OA
ATOM     34  H6  UNL     1      30.110  -7.929 -35.417  0.00  0.00    +0.000 HD
ENDBRANCH  14  33
BRANCH  16  35
ATOM     35  O11 UNL     1      27.615  -9.741 -39.569  0.00  0.00    +0.000 OA
ATOM     36  H18 UNL     1      26.844  -9.090 -39.569  0.00  0.00    +0.000 HD
ENDBRANCH  16  35
TORSDOF 8
ENDMDL
MODEL 7
REMARK VINA RESULT:    -5.117      3.680      6.003
REMARK INTER + INTRA:          -7.609
REMARK INTER:                  -6.918
REMARK INTRA:                  -0.691
REMARK UNBOUND:                -0.996
REMARK  Name = resultss/4CJN/ligands/lig_286_t2.pdb
REMARK  8 active torsions:
REMARK  status: ('A' for Active; 'I' for Inactive)
REMARK    1  A    between atoms: C10_14  and  O5_15
REMARK    2  A    between atoms: C11_16  and  C12_17
REMARK    3  A    between atoms: C13_19  and  C14_20
REMARK    4  A    between atoms: C14_20  and  O7_21
REMARK    5  A    between atoms: C15_22  and  O8_23
REMARK    6  A    between atoms: C16_24  and  O9_25
REMARK    7  A    between atoms: C17_26  and  O10_27
REMARK    8  A    between atoms: C18_28  and  O11_29
REMARK                            x       y       z     vdW  Elec       q    Type
REMARK                         _______ _______ _______ _____ _____    ______ ____
ROOT
ATOM      1  O1  UNL     1      27.779  -9.922 -34.221  0.00  0.00    +0.000 OA
ATOM      2  C1  UNL     1      28.795  -9.612 -34.900  0.00  0.00    +0.000 A 
ATOM      3  C2  UNL     1      30.053  -9.599 -34.271  0.00  0.00    +0.000 A 
ATOM      4  C3  UNL     1      30.203 -10.005 -32.818  0.00  0.00    +0.000 C 
ATOM      5  C4  UNL     1      31.579 -10.529 -32.525  0.00  0.00    +0.000 C 
ATOM      6  O2  UNL     1      31.750 -11.352 -31.587  0.00  0.00    +0.000 OA
ATOM      7  C5  UNL     1      32.729 -10.043 -33.301  0.00  0.00    +0.000 C 
ATOM      8  O3  UNL     1      33.890 -10.456 -33.039  0.00  0.00    +0.000 OA
ATOM      9  C6  UNL     1      32.525  -9.011 -34.369  0.00  0.00    +0.000 C 
ATOM     10  C7  UNL     1      31.159  -9.116 -34.996  0.00  0.00    +0.000 A 
ATOM     11  O4  UNL     1      31.004  -8.694 -36.244  0.00  0.00    +0.000 OA
ATOM     12  C8  UNL     1      29.842  -8.725 -36.884  0.00  0.00    +0.000 A 
ATOM     13  C9  UNL     1      29.785  -8.215 -38.177  0.00  0.00    +0.000 A 
ATOM     14  C10 UNL     1      28.587  -8.180 -38.886  0.00  0.00    +0.000 A 
ATOM     15  C11 UNL     1      27.419  -8.769 -38.334  0.00  0.00    +0.000 A 
ATOM     16  C18 UNL     1      27.473  -9.305 -37.017  0.00  0.00    +0.000 A 
ATOM     17  C19 UNL     1      28.681  -9.235 -36.263  0.00  0.00    +0.000 A 
ENDROOT
BRANCH  15  18
ATOM     18  C12 UNL     1      26.115  -8.852 -39.129  0.00  0.00    +0.000 C 
ATOM     19  O6  UNL     1      25.612  -7.542 -39.343  0.00  0.00    +0.000 OA
ATOM     20  C13 UNL     1      24.342  -7.572 -39.976  0.00  0.00    +0.000 C 
ATOM     21  C15 UNL     1      24.466  -8.174 -41.398  0.00  0.00    +0.000 C 
ATOM     22  C16 UNL     1      25.062  -9.590 -41.311  0.00  0.00    +0.000 C 
ATOM     23  C17 UNL     1      26.359  -9.565 -40.482  0.00  0.00    +0.000 C 
BRANCH  21  24
ATOM     24  O8  UNL     1      23.201  -8.254 -42.006  0.00  0.00    +0.000 OA
ATOM     25  H13 UNL     1      22.537  -8.411 -41.284  0.00  0.00    +0.000 HD
ENDBRANCH  21  24
BRANCH  22  26
ATOM     26  O9  UNL     1      25.347 -10.073 -42.598  0.00  0.00    +0.000 OA
ATOM     27  H15 UNL     1      26.333 -10.032 -42.710  0.00  0.00    +0.000 HD
ENDBRANCH  22  26
BRANCH  23  28
ATOM     28  O10 UNL     1      26.853 -10.868 -40.290  0.00  0.00    +0.000 OA
ATOM     29  H17 UNL     1      26.076 -11.485 -40.266  0.00  0.00    +0.000 HD
ENDBRANCH  23  28
BRANCH  20  30
ATOM     30  C14 UNL     1      23.805  -6.132 -40.017  0.00  0.00    +0.000 C 
BRANCH  30  31
ATOM     31  O7  UNL     1      22.405  -6.112 -40.102  0.00  0.00    +0.000 OA
ATOM     32  H11 UNL     1      22.077  -6.888 -39.578  0.00  0.00    +0.000 HD
ENDBRANCH  30  31
ENDBRANCH  20  30
ENDBRANCH  15  18
BRANCH  14  33
ATOM     33  O5  UNL     1      28.615  -7.543 -40.131  0.00  0.00    +0.000 OA
ATOM     34  H6  UNL     1      29.216  -7.802 -40.899  0.00  0.00    +0.000 HD
ENDBRANCH  14  33
BRANCH  16  35
ATOM     35  O11 UNL     1      26.321  -9.921 -36.513  0.00  0.00    +0.000 OA
ATOM     36  H18 UNL     1      25.607  -9.443 -35.984  0.00  0.00    +0.000 HD
ENDBRANCH  16  35
TORSDOF 8
ENDMDL
MODEL 8
REMARK VINA RESULT:    -5.049      5.291     10.035
REMARK INTER + INTRA:          -7.522
REMARK INTER:                  -6.787
REMARK INTRA:                  -0.734
REMARK UNBOUND:                -0.996
REMARK  Name = resultss/4CJN/ligands/lig_286_t2.pdb
REMARK  8 active torsions:
REMARK  status: ('A' for Active; 'I' for Inactive)
REMARK    1  A    between atoms: C10_14  and  O5_15
REMARK    2  A    between atoms: C11_16  and  C12_17
REMARK    3  A    between atoms: C13_19  and  C14_20
REMARK    4  A    between atoms: C14_20  and  O7_21
REMARK    5  A    between atoms: C15_22  and  O8_23
REMARK    6  A    between atoms: C16_24  and  O9_25
REMARK    7  A    between atoms: C17_26  and  O10_27
REMARK    8  A    between atoms: C18_28  and  O11_29
REMARK                            x       y       z     vdW  Elec       q    Type
REMARK                         _______ _______ _______ _____ _____    ______ ____
ROOT
ATOM      1  O1  UNL     1      32.171  -8.427 -39.444  0.00  0.00    +0.000 OA
ATOM      2  C1  UNL     1      31.231  -9.220 -39.720  0.00  0.00    +0.000 A 
ATOM      3  C2  UNL     1      31.260  -9.906 -40.947  0.00  0.00    +0.000 A 
ATOM      4  C3  UNL     1      32.426  -9.745 -41.903  0.00  0.00    +0.000 C 
ATOM      5  C4  UNL     1      32.598 -10.953 -42.779  0.00  0.00    +0.000 C 
ATOM      6  O2  UNL     1      33.735 -11.235 -43.242  0.00  0.00    +0.000 OA
ATOM      7  C5  UNL     1      31.431 -11.773 -43.135  0.00  0.00    +0.000 C 
ATOM      8  O3  UNL     1      31.565 -12.769 -43.895  0.00  0.00    +0.000 OA
ATOM      9  C6  UNL     1      30.070 -11.389 -42.635  0.00  0.00    +0.000 C 
ATOM     10  C7  UNL     1      30.140 -10.679 -41.309  0.00  0.00    +0.000 A 
ATOM     11  O4  UNL     1      29.093 -10.754 -40.499  0.00  0.00    +0.000 OA
ATOM     12  C8  UNL     1      29.042 -10.152 -39.316  0.00  0.00    +0.000 A 
ATOM     13  C9  UNL     1      27.877 -10.262 -38.567  0.00  0.00    +0.000 A 
ATOM     14  C10 UNL     1      27.745  -9.620 -37.339  0.00  0.00    +0.000 A 
ATOM     15  C11 UNL     1      28.850  -8.926 -36.779  0.00  0.00    +0.000 A 
ATOM     16  C18 UNL     1      30.052  -8.820 -37.535  0.00  0.00    +0.000 A 
ATOM     17  C19 UNL     1      30.133  -9.392 -38.838  0.00  0.00    +0.000 A 
ENDROOT
BRANCH  15  18
ATOM     18  C12 UNL     1      28.780  -8.306 -35.384  0.00  0.00    +0.000 C 
ATOM     19  O6  UNL     1      27.437  -7.950 -35.095  0.00  0.00    +0.000 OA
ATOM     20  C13 UNL     1      27.338  -7.264 -33.857  0.00  0.00    +0.000 C 
ATOM     21  C15 UNL     1      27.748  -8.199 -32.691  0.00  0.00    +0.000 C 
ATOM     22  C16 UNL     1      29.182  -8.707 -32.916  0.00  0.00    +0.000 C 
ATOM     23  C17 UNL     1      29.314  -9.305 -34.328  0.00  0.00    +0.000 C 
BRANCH  21  24
ATOM     24  O8  UNL     1      27.701  -7.504 -31.470  0.00  0.00    +0.000 OA
ATOM     25  H13 UNL     1      26.789  -7.625 -31.097  0.00  0.00    +0.000 HD
ENDBRANCH  21  24
BRANCH  22  26
ATOM     26  O9  UNL     1      29.499  -9.692 -31.967  0.00  0.00    +0.000 OA
ATOM     27  H15 UNL     1      30.042  -9.251 -31.262  0.00  0.00    +0.000 HD
ENDBRANCH  22  26
BRANCH  23  28
ATOM     28  O10 UNL     1      30.647  -9.665 -34.594  0.00  0.00    +0.000 OA
ATOM     29  H17 UNL     1      30.763  -9.687 -35.580  0.00  0.00    +0.000 HD
ENDBRANCH  23  28
BRANCH  20  30
ATOM     30  C14 UNL     1      25.887  -6.777 -33.706  0.00  0.00    +0.000 C 
BRANCH  30  31
ATOM     31  O7  UNL     1      25.147  -7.628 -32.872  0.00  0.00    +0.000 OA
ATOM     32  H11 UNL     1      25.726  -7.836 -32.093  0.00  0.00    +0.000 HD
ENDBRANCH  30  31
ENDBRANCH  20  30
ENDBRANCH  15  18
BRANCH  14  33
ATOM     33  O5  UNL     1      26.493  -9.700 -36.721  0.00  0.00    +0.000 OA
ATOM     34  H6  UNL     1      26.304  -9.441 -35.764  0.00  0.00    +0.000 HD
ENDBRANCH  14  33
BRANCH  16  35
ATOM     35  O11 UNL     1      31.142  -8.170 -36.944  0.00  0.00    +0.000 OA
ATOM     36  H18 UNL     1      31.061  -7.445 -36.247  0.00  0.00    +0.000 HD
ENDBRANCH  16  35
TORSDOF 8
ENDMDL
MODEL 9
REMARK VINA RESULT:    -4.910      4.089      6.140
REMARK INTER + INTRA:          -7.342
REMARK INTER:                  -6.399
REMARK INTRA:                  -0.943
REMARK UNBOUND:                -0.996
REMARK  Name = resultss/4CJN/ligands/lig_286_t2.pdb
REMARK  8 active torsions:
REMARK  status: ('A' for Active; 'I' for Inactive)
REMARK    1  A    between atoms: C10_14  and  O5_15
REMARK    2  A    between atoms: C11_16  and  C12_17
REMARK    3  A    between atoms: C13_19  and  C14_20
REMARK    4  A    between atoms: C14_20  and  O7_21
REMARK    5  A    between atoms: C15_22  and  O8_23
REMARK    6  A    between atoms: C16_24  and  O9_25
REMARK    7  A    between atoms: C17_26  and  O10_27
REMARK    8  A    between atoms: C18_28  and  O11_29
REMARK                            x       y       z     vdW  Elec       q    Type
REMARK                         _______ _______ _______ _____ _____    ______ ____
ROOT
ATOM      1  O1  UNL     1      26.450 -10.022 -34.978  0.00  0.00    +0.000 OA
ATOM      2  C1  UNL     1      25.911  -9.172 -35.736  0.00  0.00    +0.000 A 
ATOM      3  C2  UNL     1      24.717  -8.555 -35.324  0.00  0.00    +0.000 A 
ATOM      4  C3  UNL     1      24.111  -8.858 -33.967  0.00  0.00    +0.000 C 
ATOM      5  C4  UNL     1      23.278  -7.716 -33.461  0.00  0.00    +0.000 C 
ATOM      6  O2  UNL     1      23.127  -7.550 -32.222  0.00  0.00    +0.000 OA
ATOM      7  C5  UNL     1      22.601  -6.824 -34.413  0.00  0.00    +0.000 C 
ATOM      8  O3  UNL     1      21.876  -5.883 -33.995  0.00  0.00    +0.000 OA
ATOM      9  C6  UNL     1      22.730  -7.071 -35.887  0.00  0.00    +0.000 C 
ATOM     10  C7  UNL     1      24.047  -7.715 -36.234  0.00  0.00    +0.000 A 
ATOM     11  O4  UNL     1      24.546  -7.514 -37.446  0.00  0.00    +0.000 OA
ATOM     12  C8  UNL     1      25.689  -8.047 -37.860  0.00  0.00    +0.000 A 
ATOM     13  C9  UNL     1      26.097  -7.805 -39.167  0.00  0.00    +0.000 A 
ATOM     14  C10 UNL     1      27.264  -8.370 -39.675  0.00  0.00    +0.000 A 
ATOM     15  C11 UNL     1      28.117  -9.121 -38.824  0.00  0.00    +0.000 A 
ATOM     16  C18 UNL     1      27.713  -9.362 -37.481  0.00  0.00    +0.000 A 
ATOM     17  C19 UNL     1      26.462  -8.866 -37.007  0.00  0.00    +0.000 A 
ENDROOT
BRANCH  15  18
ATOM     18  C12 UNL     1      29.461  -9.660 -39.315  0.00  0.00    +0.000 C 
ATOM     19  O6  UNL     1      29.343 -10.047 -40.675  0.00  0.00    +0.000 OA
ATOM     20  C13 UNL     1      30.533 -10.663 -41.143  0.00  0.00    +0.000 C 
ATOM     21  C15 UNL     1      31.702  -9.646 -41.133  0.00  0.00    +0.000 C 
ATOM     22  C16 UNL     1      31.899  -9.099 -39.709  0.00  0.00    +0.000 C 
ATOM     23  C17 UNL     1      30.561  -8.581 -39.154  0.00  0.00    +0.000 C 
BRANCH  21  24
ATOM     24  O8  UNL     1      32.893 -10.269 -41.546  0.00  0.00    +0.000 OA
ATOM     25  H13 UNL     1      33.310  -9.683 -42.230  0.00  0.00    +0.000 HD
ENDBRANCH  21  24
BRANCH  22  26
ATOM     26  O9  UNL     1      32.831  -8.049 -39.720  0.00  0.00    +0.000 OA
ATOM     27  H15 UNL     1      32.311  -7.203 -39.741  0.00  0.00    +0.000 HD
ENDBRANCH  22  26
BRANCH  23  28
ATOM     28  O10 UNL     1      30.696  -8.188 -37.810  0.00  0.00    +0.000 OA
ATOM     29  H17 UNL     1      29.899  -7.648 -37.571  0.00  0.00    +0.000 HD
ENDBRANCH  23  28
BRANCH  20  30
ATOM     30  C14 UNL     1      30.258 -11.193 -42.561  0.00  0.00    +0.000 C 
BRANCH  30  31
ATOM     31  O7  UNL     1      31.136 -12.236 -42.893  0.00  0.00    +0.000 OA
ATOM     32  H11 UNL     1      31.573 -11.979 -43.746  0.00  0.00    +0.000 HD
ENDBRANCH  30  31
ENDBRANCH  20  30
ENDBRANCH  15  18
BRANCH  14  33
ATOM     33  O5  UNL     1      27.523  -8.158 -41.033  0.00  0.00    +0.000 OA
ATOM     34  H6  UNL     1      26.855  -8.296 -41.776  0.00  0.00    +0.000 HD
ENDBRANCH  14  33
BRANCH  16  35
ATOM     35  O11 UNL     1      28.592 -10.065 -36.648  0.00  0.00    +0.000 OA
ATOM     36  H18 UNL     1      29.538  -9.778 -36.450  0.00  0.00    +0.000 HD
ENDBRANCH  16  35
TORSDOF 8
ENDMDL
