MODEL 1
REMARK VINA RESULT:    -5.347      0.000      0.000
REMARK INTER + INTRA:          -8.742
REMARK INTER:                  -7.847
REMARK INTRA:                  -0.895
REMARK UNBOUND:                -0.895
REMARK  Name = resultss/4CJN/ligands/lig_75_t0.pdb
REMARK  11 active torsions:
REMARK  status: ('A' for Active; 'I' for Inactive)
REMARK    1  A    between atoms: O1_1  and  C1_2
REMARK    2  A    between atoms: C1_2  and  C2_3
REMARK    3  A    between atoms: C2_3  and  N1_4
REMARK    4  A    between atoms: C2_3  and  C10_17
REMARK    5  A    between atoms: N1_4  and  C3_5
REMARK    6  A    between atoms: C5_7  and  O2_8
REMARK    7  A    between atoms: C5_7  and  C6_9
REMARK    8  A    between atoms: C6_9  and  O3_10
REMARK    9  A    between atoms: C7_11  and  O4_12
REMARK   10  A    between atoms: C8_13  and  O5_14
REMARK   11  A    between atoms: C9_15  and  O6_16
REMARK                            x       y       z     vdW  Elec       q    Type
REMARK                         _______ _______ _______ _____ _____    ______ ____
ROOT
ATOM      1  C3  UNL     1      26.828  -9.643 -36.971  0.00  0.00    +0.000 C 
ATOM      2  C4  UNL     1      28.166 -10.021 -36.278  0.00  0.00    +0.000 C 
ATOM      3  C5  UNL     1      28.564  -9.053 -35.134  0.00  0.00    +0.000 C 
ATOM      4  C7  UNL     1      27.453  -9.072 -34.029  0.00  0.00    +0.000 C 
ATOM      5  C8  UNL     1      26.003  -9.289 -34.568  0.00  0.00    +0.000 C 
ATOM      6  C9  UNL     1      25.849  -8.858 -36.041  0.00  0.00    +0.000 C 
ENDROOT
BRANCH   1   7
ATOM      7  N1  UNL     1      27.109  -8.941 -38.243  0.00  0.00    +0.000 NA
ATOM      8  H5  UNL     1      26.839  -7.935 -38.157  0.00  0.00    +0.000 HD
BRANCH   7   9
ATOM      9  C2  UNL     1      26.440  -9.545 -39.414  0.00  0.00    +0.000 C 
BRANCH   9  10
ATOM     10  C10 UNL     1      27.427  -9.753 -40.547  0.00  0.00    +0.000 A 
ATOM     11  C11 UNL     1      28.528 -10.612 -40.378  0.00  0.00    +0.000 A 
ATOM     12  C12 UNL     1      29.437 -10.808 -41.421  0.00  0.00    +0.000 A 
ATOM     13  C13 UNL     1      29.255 -10.155 -42.642  0.00  0.00    +0.000 A 
ATOM     14  C14 UNL     1      28.161  -9.304 -42.823  0.00  0.00    +0.000 A 
ATOM     15  C15 UNL     1      27.249  -9.105 -41.784  0.00  0.00    +0.000 A 
ENDBRANCH   9  10
BRANCH   9  16
ATOM     16  C1  UNL     1      25.286  -8.640 -39.886  0.00  0.00    +0.000 C 
BRANCH  16  17
ATOM     17  O1  UNL     1      24.103  -9.376 -40.047  0.00  0.00    +0.000 OA
ATOM     18  H1  UNL     1      23.859  -9.315 -41.007  0.00  0.00    +0.000 HD
ENDBRANCH  16  17
ENDBRANCH   9  16
ENDBRANCH   7   9
ENDBRANCH   1   7
BRANCH   3  19
ATOM     19  O2  UNL     1      28.705  -7.740 -35.631  0.00  0.00    +0.000 OA
ATOM     20  H9  UNL     1      29.051  -7.163 -34.902  0.00  0.00    +0.000 HD
ENDBRANCH   3  19
BRANCH   4  21
ATOM     21  O4  UNL     1      27.526  -7.917 -33.225  0.00  0.00    +0.000 OA
ATOM     22  H14 UNL     1      27.159  -7.158 -33.748  0.00  0.00    +0.000 HD
ENDBRANCH   4  21
BRANCH   5  23
ATOM     23  O5  UNL     1      25.642 -10.644 -34.456  0.00  0.00    +0.000 OA
ATOM     24  H16 UNL     1      25.219 -10.758 -33.565  0.00  0.00    +0.000 HD
ENDBRANCH   5  23
BRANCH   6  25
ATOM     25  O6  UNL     1      26.035  -7.470 -36.158  0.00  0.00    +0.000 OA
ATOM     26  H18 UNL     1      26.880  -7.249 -35.685  0.00  0.00    +0.000 HD
ENDBRANCH   6  25
BRANCH   3  27
ATOM     27  C6  UNL     1      29.910  -9.498 -34.501  0.00  0.00    +0.000 C 
BRANCH  27  28
ATOM     28  O3  UNL     1      29.725 -10.006 -33.205  0.00  0.00    +0.000 OA
ATOM     29  H12 UNL     1      29.580 -10.984 -33.294  0.00  0.00    +0.000 HD
ENDBRANCH  27  28
ENDBRANCH   3  27
TORSDOF 11
ENDMDL
MODEL 2
REMARK VINA RESULT:    -5.215      2.728      6.256
REMARK INTER + INTRA:          -8.549
REMARK INTER:                  -7.556
REMARK INTRA:                  -0.993
REMARK UNBOUND:                -0.895
REMARK  Name = resultss/4CJN/ligands/lig_75_t0.pdb
REMARK  11 active torsions:
REMARK  status: ('A' for Active; 'I' for Inactive)
REMARK    1  A    between atoms: O1_1  and  C1_2
REMARK    2  A    between atoms: C1_2  and  C2_3
REMARK    3  A    between atoms: C2_3  and  N1_4
REMARK    4  A    between atoms: C2_3  and  C10_17
REMARK    5  A    between atoms: N1_4  and  C3_5
REMARK    6  A    between atoms: C5_7  and  O2_8
REMARK    7  A    between atoms: C5_7  and  C6_9
REMARK    8  A    between atoms: C6_9  and  O3_10
REMARK    9  A    between atoms: C7_11  and  O4_12
REMARK   10  A    between atoms: C8_13  and  O5_14
REMARK   11  A    between atoms: C9_15  and  O6_16
REMARK                            x       y       z     vdW  Elec       q    Type
REMARK                         _______ _______ _______ _____ _____    ______ ____
ROOT
ATOM      1  C3  UNL     1      27.434  -9.429 -37.850  0.00  0.00    +0.000 C 
ATOM      2  C4  UNL     1      28.743  -8.597 -37.934  0.00  0.00    +0.000 C 
ATOM      3  C5  UNL     1      29.906  -9.343 -38.639  0.00  0.00    +0.000 C 
ATOM      4  C7  UNL     1      29.485  -9.687 -40.108  0.00  0.00    +0.000 C 
ATOM      5  C8  UNL     1      27.965  -9.997 -40.294  0.00  0.00    +0.000 C 
ATOM      6  C9  UNL     1      27.297 -10.485 -38.993  0.00  0.00    +0.000 C 
ENDROOT
BRANCH   1   7
ATOM      7  N1  UNL     1      27.305 -10.016 -36.497  0.00  0.00    +0.000 NA
ATOM      8  H5  UNL     1      26.574 -10.763 -36.507  0.00  0.00    +0.000 HD
BRANCH   7   9
ATOM      9  C2  UNL     1      27.000  -9.024 -35.446  0.00  0.00    +0.000 C 
BRANCH   9  10
ATOM     10  C10 UNL     1      28.060  -9.049 -34.362  0.00  0.00    +0.000 A 
ATOM     11  C11 UNL     1      29.205  -9.853 -34.509  0.00  0.00    +0.000 A 
ATOM     12  C12 UNL     1      30.185  -9.876 -33.514  0.00  0.00    +0.000 A 
ATOM     13  C13 UNL     1      30.036  -9.095 -32.365  0.00  0.00    +0.000 A 
ATOM     14  C14 UNL     1      28.906  -8.287 -32.211  0.00  0.00    +0.000 A 
ATOM     15  C15 UNL     1      27.923  -8.261 -33.203  0.00  0.00    +0.000 A 
ENDBRANCH   9  10
BRANCH   9  16
ATOM     16  C1  UNL     1      25.617  -9.317 -34.832  0.00  0.00    +0.000 C 
BRANCH  16  17
ATOM     17  O1  UNL     1      25.529 -10.652 -34.408  0.00  0.00    +0.000 OA
ATOM     18  H1  UNL     1      26.110 -11.181 -35.015  0.00  0.00    +0.000 HD
ENDBRANCH  16  17
ENDBRANCH   9  16
ENDBRANCH   7   9
ENDBRANCH   1   7
BRANCH   3  19
ATOM     19  O2  UNL     1      30.210 -10.536 -37.949  0.00  0.00    +0.000 OA
ATOM     20  H9  UNL     1      29.974 -11.305 -38.531  0.00  0.00    +0.000 HD
ENDBRANCH   3  19
BRANCH   4  21
ATOM     21  O4  UNL     1      30.280 -10.728 -40.627  0.00  0.00    +0.000 OA
ATOM     22  H14 UNL     1      29.943 -11.583 -40.254  0.00  0.00    +0.000 HD
ENDBRANCH   4  21
BRANCH   5  23
ATOM     23  O5  UNL     1      27.288  -8.848 -40.743  0.00  0.00    +0.000 OA
ATOM     24  H16 UNL     1      27.620  -8.086 -40.200  0.00  0.00    +0.000 HD
ENDBRANCH   5  23
BRANCH   6  25
ATOM     25  O6  UNL     1      27.837 -11.725 -38.611  0.00  0.00    +0.000 OA
ATOM     26  H18 UNL     1      27.552 -11.891 -37.674  0.00  0.00    +0.000 HD
ENDBRANCH   6  25
BRANCH   3  27
ATOM     27  C6  UNL     1      31.172  -8.446 -38.675  0.00  0.00    +0.000 C 
BRANCH  27  28
ATOM     28  O3  UNL     1      31.540  -8.131 -39.993  0.00  0.00    +0.000 OA
ATOM     29  H12 UNL     1      31.241  -8.885 -40.566  0.00  0.00    +0.000 HD
ENDBRANCH  27  28
ENDBRANCH   3  27
TORSDOF 11
ENDMDL
MODEL 3
REMARK VINA RESULT:    -4.943      2.100      3.828
REMARK INTER + INTRA:          -8.150
REMARK INTER:                  -7.253
REMARK INTRA:                  -0.898
REMARK UNBOUND:                -0.895
REMARK  Name = resultss/4CJN/ligands/lig_75_t0.pdb
REMARK  11 active torsions:
REMARK  status: ('A' for Active; 'I' for Inactive)
REMARK    1  A    between atoms: O1_1  and  C1_2
REMARK    2  A    between atoms: C1_2  and  C2_3
REMARK    3  A    between atoms: C2_3  and  N1_4
REMARK    4  A    between atoms: C2_3  and  C10_17
REMARK    5  A    between atoms: N1_4  and  C3_5
REMARK    6  A    between atoms: C5_7  and  O2_8
REMARK    7  A    between atoms: C5_7  and  C6_9
REMARK    8  A    between atoms: C6_9  and  O3_10
REMARK    9  A    between atoms: C7_11  and  O4_12
REMARK   10  A    between atoms: C8_13  and  O5_14
REMARK   11  A    between atoms: C9_15  and  O6_16
REMARK                            x       y       z     vdW  Elec       q    Type
REMARK                         _______ _______ _______ _____ _____    ______ ____
ROOT
ATOM      1  C3  UNL     1      26.684  -8.598 -36.049  0.00  0.00    +0.000 C 
ATOM      2  C4  UNL     1      25.801  -7.328 -35.920  0.00  0.00    +0.000 C 
ATOM      3  C5  UNL     1      24.631  -7.487 -34.914  0.00  0.00    +0.000 C 
ATOM      4  C7  UNL     1      25.211  -7.789 -33.490  0.00  0.00    +0.000 C 
ATOM      5  C8  UNL     1      26.528  -8.630 -33.488  0.00  0.00    +0.000 C 
ATOM      6  C9  UNL     1      26.685  -9.485 -34.762  0.00  0.00    +0.000 C 
ENDROOT
BRANCH   1   7
ATOM      7  N1  UNL     1      26.304  -9.346 -37.269  0.00  0.00    +0.000 NA
ATOM      8  H5  UNL     1      26.306 -10.372 -37.067  0.00  0.00    +0.000 HD
BRANCH   7   9
ATOM      9  C2  UNL     1      27.167  -9.058 -38.433  0.00  0.00    +0.000 C 
BRANCH   9  10
ATOM     10  C10 UNL     1      26.373  -9.145 -39.722  0.00  0.00    +0.000 A 
ATOM     11  C11 UNL     1      26.997  -9.564 -40.911  0.00  0.00    +0.000 A 
ATOM     12  C12 UNL     1      26.267  -9.649 -42.100  0.00  0.00    +0.000 A 
ATOM     13  C13 UNL     1      24.909  -9.320 -42.114  0.00  0.00    +0.000 A 
ATOM     14  C14 UNL     1      24.278  -8.909 -40.938  0.00  0.00    +0.000 A 
ATOM     15  C15 UNL     1      25.003  -8.822 -39.747  0.00  0.00    +0.000 A 
ENDBRANCH   9  10
BRANCH   9  16
ATOM     16  C1  UNL     1      28.342 -10.054 -38.476  0.00  0.00    +0.000 C 
BRANCH  16  17
ATOM     17  O1  UNL     1      27.938 -11.326 -38.042  0.00  0.00    +0.000 OA
ATOM     18  H1  UNL     1      28.588 -11.974 -38.420  0.00  0.00    +0.000 HD
ENDBRANCH  16  17
ENDBRANCH   9  16
ENDBRANCH   7   9
ENDBRANCH   1   7
BRANCH   3  19
ATOM     19  O2  UNL     1      23.787  -8.546 -35.309  0.00  0.00    +0.000 OA
ATOM     20  H9  UNL     1      23.078  -8.180 -35.899  0.00  0.00    +0.000 HD
ENDBRANCH   3  19
BRANCH   4  21
ATOM     21  O4  UNL     1      24.233  -8.380 -32.666  0.00  0.00    +0.000 OA
ATOM     22  H14 UNL     1      24.551  -8.326 -31.728  0.00  0.00    +0.000 HD
ENDBRANCH   4  21
BRANCH   5  23
ATOM     23  O5  UNL     1      27.644  -7.781 -33.377  0.00  0.00    +0.000 OA
ATOM     24  H16 UNL     1      28.138  -8.060 -32.561  0.00  0.00    +0.000 HD
ENDBRANCH   5  23
BRANCH   6  25
ATOM     25  O6  UNL     1      25.675 -10.462 -34.813  0.00  0.00    +0.000 OA
ATOM     26  H18 UNL     1      25.140 -10.370 -33.982  0.00  0.00    +0.000 HD
ENDBRANCH   6  25
BRANCH   3  27
ATOM     27  C6  UNL     1      23.799  -6.178 -34.850  0.00  0.00    +0.000 C 
BRANCH  27  28
ATOM     28  O3  UNL     1      22.683  -6.319 -34.010  0.00  0.00    +0.000 OA
ATOM     29  H12 UNL     1      22.802  -7.169 -33.510  0.00  0.00    +0.000 HD
ENDBRANCH  27  28
ENDBRANCH   3  27
TORSDOF 11
ENDMDL
MODEL 4
REMARK VINA RESULT:    -4.617      3.304      4.988
REMARK INTER + INTRA:          -7.671
REMARK INTER:                  -6.722
REMARK INTRA:                  -0.948
REMARK UNBOUND:                -0.895
REMARK  Name = resultss/4CJN/ligands/lig_75_t0.pdb
REMARK  11 active torsions:
REMARK  status: ('A' for Active; 'I' for Inactive)
REMARK    1  A    between atoms: O1_1  and  C1_2
REMARK    2  A    between atoms: C1_2  and  C2_3
REMARK    3  A    between atoms: C2_3  and  N1_4
REMARK    4  A    between atoms: C2_3  and  C10_17
REMARK    5  A    between atoms: N1_4  and  C3_5
REMARK    6  A    between atoms: C5_7  and  O2_8
REMARK    7  A    between atoms: C5_7  and  C6_9
REMARK    8  A    between atoms: C6_9  and  O3_10
REMARK    9  A    between atoms: C7_11  and  O4_12
REMARK   10  A    between atoms: C8_13  and  O5_14
REMARK   11  A    between atoms: C9_15  and  O6_16
REMARK                            x       y       z     vdW  Elec       q    Type
REMARK                         _______ _______ _______ _____ _____    ______ ____
ROOT
ATOM      1  C3  UNL     1      26.998  -9.470 -40.461  0.00  0.00    +0.000 C 
ATOM      2  C4  UNL     1      28.122 -10.211 -41.234  0.00  0.00    +0.000 C 
ATOM      3  C5  UNL     1      29.550  -9.740 -40.852  0.00  0.00    +0.000 C 
ATOM      4  C7  UNL     1      29.790 -10.005 -39.326  0.00  0.00    +0.000 C 
ATOM      5  C8  UNL     1      28.518  -9.858 -38.431  0.00  0.00    +0.000 C 
ATOM      6  C9  UNL     1      27.453  -8.940 -39.064  0.00  0.00    +0.000 C 
ENDROOT
BRANCH   1   7
ATOM      7  N1  UNL     1      26.415  -8.415 -41.321  0.00  0.00    +0.000 NA
ATOM      8  H5  UNL     1      25.692  -7.884 -40.784  0.00  0.00    +0.000 HD
BRANCH   7   9
ATOM      9  C2  UNL     1      25.836  -8.929 -42.579  0.00  0.00    +0.000 C 
BRANCH   9  10
ATOM     10  C10 UNL     1      26.327  -8.120 -43.764  0.00  0.00    +0.000 A 
ATOM     11  C11 UNL     1      25.408  -7.462 -44.602  0.00  0.00    +0.000 A 
ATOM     12  C12 UNL     1      25.857  -6.713 -45.693  0.00  0.00    +0.000 A 
ATOM     13  C13 UNL     1      27.225  -6.609 -45.956  0.00  0.00    +0.000 A 
ATOM     14  C14 UNL     1      28.147  -7.253 -45.127  0.00  0.00    +0.000 A 
ATOM     15  C15 UNL     1      27.703  -8.003 -44.035  0.00  0.00    +0.000 A 
ENDBRANCH   9  10
BRANCH   9  16
ATOM     16  C1  UNL     1      24.297  -8.873 -42.510  0.00  0.00    +0.000 C 
BRANCH  16  17
ATOM     17  O1  UNL     1      23.736 -10.126 -42.803  0.00  0.00    +0.000 OA
ATOM     18  H1  UNL     1      23.449 -10.093 -43.753  0.00  0.00    +0.000 HD
ENDBRANCH  16  17
ENDBRANCH   9  16
ENDBRANCH   7   9
ENDBRANCH   1   7
BRANCH   3  19
ATOM     19  O2  UNL     1      29.697  -8.362 -41.115  0.00  0.00    +0.000 OA
ATOM     20  H9  UNL     1      29.753  -7.880 -40.249  0.00  0.00    +0.000 HD
ENDBRANCH   3  19
BRANCH   4  21
ATOM     21  O4  UNL     1      30.844  -9.208 -38.840  0.00  0.00    +0.000 OA
ATOM     22  H14 UNL     1      30.500  -8.284 -38.723  0.00  0.00    +0.000 HD
ENDBRANCH   4  21
BRANCH   5  23
ATOM     23  O5  UNL     1      27.941 -11.120 -38.199  0.00  0.00    +0.000 OA
ATOM     24  H16 UNL     1      27.656 -11.475 -39.082  0.00  0.00    +0.000 HD
ENDBRANCH   5  23
BRANCH   6  25
ATOM     25  O6  UNL     1      27.943  -7.625 -39.150  0.00  0.00    +0.000 OA
ATOM     26  H18 UNL     1      27.913  -7.242 -38.235  0.00  0.00    +0.000 HD
ENDBRANCH   6  25
BRANCH   3  27
ATOM     27  C6  UNL     1      30.609 -10.525 -41.671  0.00  0.00    +0.000 C 
BRANCH  27  28
ATOM     28  O3  UNL     1      31.894 -10.374 -41.127  0.00  0.00    +0.000 OA
ATOM     29  H12 UNL     1      32.488 -10.073 -41.863  0.00  0.00    +0.000 HD
ENDBRANCH  27  28
ENDBRANCH   3  27
TORSDOF 11
ENDMDL
MODEL 5
REMARK VINA RESULT:    -4.501      2.910      7.234
REMARK INTER + INTRA:          -7.502
REMARK INTER:                  -6.607
REMARK INTRA:                  -0.895
REMARK UNBOUND:                -0.895
REMARK  Name = resultss/4CJN/ligands/lig_75_t0.pdb
REMARK  11 active torsions:
REMARK  status: ('A' for Active; 'I' for Inactive)
REMARK    1  A    between atoms: O1_1  and  C1_2
REMARK    2  A    between atoms: C1_2  and  C2_3
REMARK    3  A    between atoms: C2_3  and  N1_4
REMARK    4  A    between atoms: C2_3  and  C10_17
REMARK    5  A    between atoms: N1_4  and  C3_5
REMARK    6  A    between atoms: C5_7  and  O2_8
REMARK    7  A    between atoms: C5_7  and  C6_9
REMARK    8  A    between atoms: C6_9  and  O3_10
REMARK    9  A    between atoms: C7_11  and  O4_12
REMARK   10  A    between atoms: C8_13  and  O5_14
REMARK   11  A    between atoms: C9_15  and  O6_16
REMARK                            x       y       z     vdW  Elec       q    Type
REMARK                         _______ _______ _______ _____ _____    ______ ____
ROOT
ATOM      1  C3  UNL     1      25.337  -6.820 -39.058  0.00  0.00    +0.000 C 
ATOM      2  C4  UNL     1      26.014  -8.161 -39.451  0.00  0.00    +0.000 C 
ATOM      3  C5  UNL     1      25.198  -8.987 -40.480  0.00  0.00    +0.000 C 
ATOM      4  C7  UNL     1      25.032  -8.153 -41.797  0.00  0.00    +0.000 C 
ATOM      5  C8  UNL     1      24.919  -6.610 -41.580  0.00  0.00    +0.000 C 
ATOM      6  C9  UNL     1      24.405  -6.246 -40.173  0.00  0.00    +0.000 C 
ENDROOT
BRANCH   1   7
ATOM      7  N1  UNL     1      24.657  -6.971 -37.752  0.00  0.00    +0.000 NA
ATOM      8  H5  UNL     1      24.289  -6.044 -37.439  0.00  0.00    +0.000 HD
BRANCH   7   9
ATOM      9  C2  UNL     1      25.514  -7.555 -36.701  0.00  0.00    +0.000 C 
BRANCH   9  10
ATOM     10  C10 UNL     1      24.677  -8.030 -35.529  0.00  0.00    +0.000 A 
ATOM     11  C11 UNL     1      25.285  -8.689 -34.445  0.00  0.00    +0.000 A 
ATOM     12  C12 UNL     1      24.516  -9.124 -33.362  0.00  0.00    +0.000 A 
ATOM     13  C13 UNL     1      23.137  -8.904 -33.347  0.00  0.00    +0.000 A 
ATOM     14  C14 UNL     1      22.523  -8.245 -34.416  0.00  0.00    +0.000 A 
ATOM     15  C15 UNL     1      23.287  -7.808 -35.501  0.00  0.00    +0.000 A 
ENDBRANCH   9  10
BRANCH   9  16
ATOM     16  C1  UNL     1      26.542  -6.512 -36.219  0.00  0.00    +0.000 C 
BRANCH  16  17
ATOM     17  O1  UNL     1      27.853  -6.976 -36.405  0.00  0.00    +0.000 OA
ATOM     18  H1  UNL     1      27.779  -7.914 -36.723  0.00  0.00    +0.000 HD
ENDBRANCH  16  17
ENDBRANCH   9  16
ENDBRANCH   7   9
ENDBRANCH   1   7
BRANCH   3  19
ATOM     19  O2  UNL     1      23.924  -9.296 -39.959  0.00  0.00    +0.000 OA
ATOM     20  H9  UNL     1      23.609  -8.525 -39.419  0.00  0.00    +0.000 HD
ENDBRANCH   3  19
BRANCH   4  21
ATOM     21  O4  UNL     1      23.952  -8.636 -42.562  0.00  0.00    +0.000 OA
ATOM     22  H14 UNL     1      23.382  -9.192 -41.969  0.00  0.00    +0.000 HD
ENDBRANCH   4  21
BRANCH   5  23
ATOM     23  O5  UNL     1      26.173  -6.002 -41.772  0.00  0.00    +0.000 OA
ATOM     24  H16 UNL     1      26.630  -5.999 -40.890  0.00  0.00    +0.000 HD
ENDBRANCH   5  23
BRANCH   6  25
ATOM     25  O6  UNL     1      23.082  -6.695 -40.013  0.00  0.00    +0.000 OA
ATOM     26  H18 UNL     1      22.883  -6.673 -39.041  0.00  0.00    +0.000 HD
ENDBRANCH   6  25
BRANCH   3  27
ATOM     27  C6  UNL     1      25.940 -10.309 -40.813  0.00  0.00    +0.000 C 
BRANCH  27  28
ATOM     28  O3  UNL     1      25.070 -11.261 -41.369  0.00  0.00    +0.000 OA
ATOM     29  H12 UNL     1      25.066 -11.112 -42.350  0.00  0.00    +0.000 HD
ENDBRANCH  27  28
ENDBRANCH   3  27
TORSDOF 11
ENDMDL
MODEL 6
REMARK VINA RESULT:    -4.438      3.051      5.626
REMARK INTER + INTRA:          -7.408
REMARK INTER:                  -6.474
REMARK INTRA:                  -0.934
REMARK UNBOUND:                -0.895
REMARK  Name = resultss/4CJN/ligands/lig_75_t0.pdb
REMARK  11 active torsions:
REMARK  status: ('A' for Active; 'I' for Inactive)
REMARK    1  A    between atoms: O1_1  and  C1_2
REMARK    2  A    between atoms: C1_2  and  C2_3
REMARK    3  A    between atoms: C2_3  and  N1_4
REMARK    4  A    between atoms: C2_3  and  C10_17
REMARK    5  A    between atoms: N1_4  and  C3_5
REMARK    6  A    between atoms: C5_7  and  O2_8
REMARK    7  A    between atoms: C5_7  and  C6_9
REMARK    8  A    between atoms: C6_9  and  O3_10
REMARK    9  A    between atoms: C7_11  and  O4_12
REMARK   10  A    between atoms: C8_13  and  O5_14
REMARK   11  A    between atoms: C9_15  and  O6_16
REMARK                            x       y       z     vdW  Elec       q    Type
REMARK                         _______ _______ _______ _____ _____    ______ ____
ROOT
ATOM      1  C3  UNL     1      26.844  -8.753 -36.940  0.00  0.00    +0.000 C 
ATOM      2  C4  UNL     1      26.089  -9.395 -35.744  0.00  0.00    +0.000 C 
ATOM      3  C5  UNL     1      25.217  -8.387 -34.951  0.00  0.00    +0.000 C 
ATOM      4  C7  UNL     1      24.134  -7.777 -35.904  0.00  0.00    +0.000 C 
ATOM      5  C8  UNL     1      24.595  -7.605 -37.387  0.00  0.00    +0.000 C 
ATOM      6  C9  UNL     1      26.127  -7.494 -37.521  0.00  0.00    +0.000 C 
ENDROOT
BRANCH   1   7
ATOM      7  N1  UNL     1      28.251  -8.496 -36.558  0.00  0.00    +0.000 NA
ATOM      8  H5  UNL     1      28.732  -7.971 -37.324  0.00  0.00    +0.000 HD
BRANCH   7   9
ATOM      9  C2  UNL     1      29.011  -9.721 -36.231  0.00  0.00    +0.000 C 
BRANCH   9  10
ATOM     10  C10 UNL     1      29.732  -9.565 -34.906  0.00  0.00    +0.000 A 
ATOM     11  C11 UNL     1      29.000  -9.432 -33.713  0.00  0.00    +0.000 A 
ATOM     12  C12 UNL     1      29.662  -9.293 -32.490  0.00  0.00    +0.000 A 
ATOM     13  C13 UNL     1      31.058  -9.290 -32.445  0.00  0.00    +0.000 A 
ATOM     14  C14 UNL     1      31.796  -9.428 -33.624  0.00  0.00    +0.000 A 
ATOM     15  C15 UNL     1      31.139  -9.568 -34.849  0.00  0.00    +0.000 A 
ENDBRANCH   9  10
BRANCH   9  16
ATOM     16  C1  UNL     1      30.028 -10.023 -37.348  0.00  0.00    +0.000 C 
BRANCH  16  17
ATOM     17  O1  UNL     1      29.393 -10.576 -38.470  0.00  0.00    +0.000 OA
ATOM     18  H1  UNL     1      30.042 -10.521 -39.220  0.00  0.00    +0.000 HD
ENDBRANCH  16  17
ENDBRANCH   9  16
ENDBRANCH   7   9
ENDBRANCH   1   7
BRANCH   3  19
ATOM     19  O2  UNL     1      26.020  -7.349 -34.432  0.00  0.00    +0.000 OA
ATOM     20  H9  UNL     1      25.730  -7.163 -33.501  0.00  0.00    +0.000 HD
ENDBRANCH   3  19
BRANCH   4  21
ATOM     21  O4  UNL     1      23.636  -6.566 -35.386  0.00  0.00    +0.000 OA
ATOM     22  H14 UNL     1      24.405  -5.956 -35.244  0.00  0.00    +0.000 HD
ENDBRANCH   4  21
BRANCH   5  23
ATOM     23  O5  UNL     1      24.154  -8.694 -38.161  0.00  0.00    +0.000 OA
ATOM     24  H16 UNL     1      24.230  -9.504 -37.590  0.00  0.00    +0.000 HD
ENDBRANCH   5  23
BRANCH   6  25
ATOM     25  O6  UNL     1      26.579  -6.316 -36.901  0.00  0.00    +0.000 OA
ATOM     26  H18 UNL     1      27.348  -5.983 -37.434  0.00  0.00    +0.000 HD
ENDBRANCH   6  25
BRANCH   3  27
ATOM     27  C6  UNL     1      24.504  -9.107 -33.775  0.00  0.00    +0.000 C 
BRANCH  27  28
ATOM     28  O3  UNL     1      23.111  -9.126 -33.954  0.00  0.00    +0.000 OA
ATOM     29  H12 UNL     1      22.941  -8.992 -34.922  0.00  0.00    +0.000 HD
ENDBRANCH  27  28
ENDBRANCH   3  27
TORSDOF 11
ENDMDL
MODEL 7
REMARK VINA RESULT:    -4.410      2.812      4.114
REMARK INTER + INTRA:          -7.367
REMARK INTER:                  -6.351
REMARK INTRA:                  -1.016
REMARK UNBOUND:                -0.895
REMARK  Name = resultss/4CJN/ligands/lig_75_t0.pdb
REMARK  11 active torsions:
REMARK  status: ('A' for Active; 'I' for Inactive)
REMARK    1  A    between atoms: O1_1  and  C1_2
REMARK    2  A    between atoms: C1_2  and  C2_3
REMARK    3  A    between atoms: C2_3  and  N1_4
REMARK    4  A    between atoms: C2_3  and  C10_17
REMARK    5  A    between atoms: N1_4  and  C3_5
REMARK    6  A    between atoms: C5_7  and  O2_8
REMARK    7  A    between atoms: C5_7  and  C6_9
REMARK    8  A    between atoms: C6_9  and  O3_10
REMARK    9  A    between atoms: C7_11  and  O4_12
REMARK   10  A    between atoms: C8_13  and  O5_14
REMARK   11  A    between atoms: C9_15  and  O6_16
REMARK                            x       y       z     vdW  Elec       q    Type
REMARK                         _______ _______ _______ _____ _____    ______ ____
ROOT
ATOM      1  C3  UNL     1      25.055  -8.180 -40.039  0.00  0.00    +0.000 C 
ATOM      2  C4  UNL     1      25.725  -9.580 -40.077  0.00  0.00    +0.000 C 
ATOM      3  C5  UNL     1      27.110  -9.622 -39.379  0.00  0.00    +0.000 C 
ATOM      4  C7  UNL     1      26.941  -9.234 -37.870  0.00  0.00    +0.000 C 
ATOM      5  C8  UNL     1      25.816  -8.186 -37.589  0.00  0.00    +0.000 C 
ATOM      6  C9  UNL     1      25.502  -7.312 -38.820  0.00  0.00    +0.000 C 
ENDROOT
BRANCH   1   7
ATOM      7  N1  UNL     1      25.251  -7.500 -41.339  0.00  0.00    +0.000 NA
ATOM      8  H5  UNL     1      24.534  -6.748 -41.454  0.00  0.00    +0.000 HD
BRANCH   7   9
ATOM      9  C2  UNL     1      25.215  -8.415 -42.499  0.00  0.00    +0.000 C 
BRANCH   9  10
ATOM     10  C10 UNL     1      26.089  -7.891 -43.622  0.00  0.00    +0.000 A 
ATOM     11  C11 UNL     1      27.484  -8.062 -43.571  0.00  0.00    +0.000 A 
ATOM     12  C12 UNL     1      28.292  -7.584 -44.607  0.00  0.00    +0.000 A 
ATOM     13  C13 UNL     1      27.717  -6.936 -45.703  0.00  0.00    +0.000 A 
ATOM     14  C14 UNL     1      26.332  -6.767 -45.767  0.00  0.00    +0.000 A 
ATOM     15  C15 UNL     1      25.520  -7.243 -44.734  0.00  0.00    +0.000 A 
ENDBRANCH   9  10
BRANCH   9  16
ATOM     16  C1  UNL     1      23.765  -8.576 -42.996  0.00  0.00    +0.000 C 
BRANCH  16  17
ATOM     17  O1  UNL     1      23.334  -9.904 -42.863  0.00  0.00    +0.000 OA
ATOM     18  H1  UNL     1      23.926 -10.329 -42.189  0.00  0.00    +0.000 HD
ENDBRANCH  16  17
ENDBRANCH   9  16
ENDBRANCH   7   9
ENDBRANCH   1   7
BRANCH   3  19
ATOM     19  O2  UNL     1      27.997  -8.715 -39.997  0.00  0.00    +0.000 OA
ATOM     20  H9  UNL     1      28.735  -8.517 -39.365  0.00  0.00    +0.000 HD
ENDBRANCH   3  19
BRANCH   4  21
ATOM     21  O4  UNL     1      28.168  -8.817 -37.319  0.00  0.00    +0.000 OA
ATOM     22  H14 UNL     1      28.836  -8.784 -38.052  0.00  0.00    +0.000 HD
ENDBRANCH   4  21
BRANCH   5  23
ATOM     23  O5  UNL     1      24.635  -8.839 -37.190  0.00  0.00    +0.000 OA
ATOM     24  H16 UNL     1      24.733  -9.046 -36.223  0.00  0.00    +0.000 HD
ENDBRANCH   5  23
BRANCH   6  25
ATOM     25  O6  UNL     1      26.616  -6.515 -39.140  0.00  0.00    +0.000 OA
ATOM     26  H18 UNL     1      26.645  -5.776 -38.478  0.00  0.00    +0.000 HD
ENDBRANCH   6  25
BRANCH   3  27
ATOM     27  C6  UNL     1      27.710 -11.050 -39.466  0.00  0.00    +0.000 C 
BRANCH  27  28
ATOM     28  O3  UNL     1      27.985 -11.571 -38.191  0.00  0.00    +0.000 OA
ATOM     29  H12 UNL     1      27.178 -11.416 -37.635  0.00  0.00    +0.000 HD
ENDBRANCH  27  28
ENDBRANCH   3  27
TORSDOF 11
ENDMDL
MODEL 8
REMARK VINA RESULT:    -4.313      2.641      6.406
REMARK INTER + INTRA:          -7.225
REMARK INTER:                  -6.410
REMARK INTRA:                  -0.816
REMARK UNBOUND:                -0.895
REMARK  Name = resultss/4CJN/ligands/lig_75_t0.pdb
REMARK  11 active torsions:
REMARK  status: ('A' for Active; 'I' for Inactive)
REMARK    1  A    between atoms: O1_1  and  C1_2
REMARK    2  A    between atoms: C1_2  and  C2_3
REMARK    3  A    between atoms: C2_3  and  N1_4
REMARK    4  A    between atoms: C2_3  and  C10_17
REMARK    5  A    between atoms: N1_4  and  C3_5
REMARK    6  A    between atoms: C5_7  and  O2_8
REMARK    7  A    between atoms: C5_7  and  C6_9
REMARK    8  A    between atoms: C6_9  and  O3_10
REMARK    9  A    between atoms: C7_11  and  O4_12
REMARK   10  A    between atoms: C8_13  and  O5_14
REMARK   11  A    between atoms: C9_15  and  O6_16
REMARK                            x       y       z     vdW  Elec       q    Type
REMARK                         _______ _______ _______ _____ _____    ______ ____
ROOT
ATOM      1  C3  UNL     1      26.275  -8.098 -39.235  0.00  0.00    +0.000 C 
ATOM      2  C4  UNL     1      27.504  -8.673 -39.989  0.00  0.00    +0.000 C 
ATOM      3  C5  UNL     1      27.129  -9.685 -41.103  0.00  0.00    +0.000 C 
ATOM      4  C7  UNL     1      26.229  -8.971 -42.169  0.00  0.00    +0.000 C 
ATOM      5  C8  UNL     1      25.285  -7.869 -41.591  0.00  0.00    +0.000 C 
ATOM      6  C9  UNL     1      24.972  -8.083 -40.096  0.00  0.00    +0.000 C 
ENDROOT
BRANCH   1   7
ATOM      7  N1  UNL     1      26.110  -8.801 -37.944  0.00  0.00    +0.000 NA
ATOM      8  H5  UNL     1      25.244  -9.387 -37.971  0.00  0.00    +0.000 HD
BRANCH   7   9
ATOM      9  C2  UNL     1      26.072  -7.897 -36.776  0.00  0.00    +0.000 C 
BRANCH   9  10
ATOM     10  C10 UNL     1      27.094  -8.320 -35.738  0.00  0.00    +0.000 A 
ATOM     11  C11 UNL     1      27.921  -7.360 -35.127  0.00  0.00    +0.000 A 
ATOM     12  C12 UNL     1      28.861  -7.745 -34.166  0.00  0.00    +0.000 A 
ATOM     13  C13 UNL     1      28.982  -9.089 -33.804  0.00  0.00    +0.000 A 
ATOM     14  C14 UNL     1      28.161 -10.050 -34.400  0.00  0.00    +0.000 A 
ATOM     15  C15 UNL     1      27.220  -9.670 -35.360  0.00  0.00    +0.000 A 
ENDBRANCH   9  10
BRANCH   9  16
ATOM     16  C1  UNL     1      24.663  -7.900 -36.153  0.00  0.00    +0.000 C 
BRANCH  16  17
ATOM     17  O1  UNL     1      23.760  -8.612 -36.958  0.00  0.00    +0.000 OA
ATOM     18  H1  UNL     1      23.909  -8.306 -37.890  0.00  0.00    +0.000 HD
ENDBRANCH  16  17
ENDBRANCH   9  16
ENDBRANCH   7   9
ENDBRANCH   1   7
BRANCH   3  19
ATOM     19  O2  UNL     1      26.424 -10.777 -40.554  0.00  0.00    +0.000 OA
ATOM     20  H9  UNL     1      25.664 -10.425 -40.021  0.00  0.00    +0.000 HD
ENDBRANCH   3  19
BRANCH   4  21
ATOM     21  O4  UNL     1      25.503  -9.913 -42.923  0.00  0.00    +0.000 OA
ATOM     22  H14 UNL     1      26.104 -10.269 -43.628  0.00  0.00    +0.000 HD
ENDBRANCH   4  21
BRANCH   5  23
ATOM     23  O5  UNL     1      25.870  -6.599 -41.749  0.00  0.00    +0.000 OA
ATOM     24  H16 UNL     1      26.383  -6.411 -40.920  0.00  0.00    +0.000 HD
ENDBRANCH   5  23
BRANCH   6  25
ATOM     25  O6  UNL     1      24.232  -9.266 -39.925  0.00  0.00    +0.000 OA
ATOM     26  H18 UNL     1      23.641  -9.357 -40.717  0.00  0.00    +0.000 HD
ENDBRANCH   6  25
BRANCH   3  27
ATOM     27  C6  UNL     1      28.411 -10.214 -41.800  0.00  0.00    +0.000 C 
BRANCH  27  28
ATOM     28  O3  UNL     1      29.127 -11.086 -40.964  0.00  0.00    +0.000 OA
ATOM     29  H12 UNL     1      29.461 -10.547 -40.200  0.00  0.00    +0.000 HD
ENDBRANCH  27  28
ENDBRANCH   3  27
TORSDOF 11
ENDMDL
MODEL 9
REMARK VINA RESULT:    -4.275      2.326      6.945
REMARK INTER + INTRA:          -7.169
REMARK INTER:                  -6.038
REMARK INTRA:                  -1.131
REMARK UNBOUND:                -0.895
REMARK  Name = resultss/4CJN/ligands/lig_75_t0.pdb
REMARK  11 active torsions:
REMARK  status: ('A' for Active; 'I' for Inactive)
REMARK    1  A    between atoms: O1_1  and  C1_2
REMARK    2  A    between atoms: C1_2  and  C2_3
REMARK    3  A    between atoms: C2_3  and  N1_4
REMARK    4  A    between atoms: C2_3  and  C10_17
REMARK    5  A    between atoms: N1_4  and  C3_5
REMARK    6  A    between atoms: C5_7  and  O2_8
REMARK    7  A    between atoms: C5_7  and  C6_9
REMARK    8  A    between atoms: C6_9  and  O3_10
REMARK    9  A    between atoms: C7_11  and  O4_12
REMARK   10  A    between atoms: C8_13  and  O5_14
REMARK   11  A    between atoms: C9_15  and  O6_16
REMARK                            x       y       z     vdW  Elec       q    Type
REMARK                         _______ _______ _______ _____ _____    ______ ____
ROOT
ATOM      1  C3  UNL     1      26.908  -9.669 -38.552  0.00  0.00    +0.000 C 
ATOM      2  C4  UNL     1      25.835  -9.560 -39.669  0.00  0.00    +0.000 C 
ATOM      3  C5  UNL     1      26.348  -8.855 -40.952  0.00  0.00    +0.000 C 
ATOM      4  C7  UNL     1      27.548  -9.669 -41.546  0.00  0.00    +0.000 C 
ATOM      5  C8  UNL     1      28.446 -10.375 -40.480  0.00  0.00    +0.000 C 
ATOM      6  C9  UNL     1      28.371  -9.694 -39.098  0.00  0.00    +0.000 C 
ENDROOT
BRANCH   1   7
ATOM      7  N1  UNL     1      26.683  -8.611 -37.542  0.00  0.00    +0.000 NA
ATOM      8  H5  UNL     1      27.347  -7.820 -37.707  0.00  0.00    +0.000 HD
BRANCH   7   9
ATOM      9  C2  UNL     1      26.800  -9.086 -36.148  0.00  0.00    +0.000 C 
BRANCH   9  10
ATOM     10  C10 UNL     1      25.519  -8.819 -35.382  0.00  0.00    +0.000 A 
ATOM     11  C11 UNL     1      24.448  -8.152 -36.003  0.00  0.00    +0.000 A 
ATOM     12  C12 UNL     1      23.264  -7.909 -35.301  0.00  0.00    +0.000 A 
ATOM     13  C13 UNL     1      23.136  -8.331 -33.976  0.00  0.00    +0.000 A 
ATOM     14  C14 UNL     1      24.191  -9.000 -33.350  0.00  0.00    +0.000 A 
ATOM     15  C15 UNL     1      25.376  -9.246 -34.048  0.00  0.00    +0.000 A 
ENDBRANCH   9  10
BRANCH   9  16
ATOM     16  C1  UNL     1      27.982  -8.384 -35.451  0.00  0.00    +0.000 C 
BRANCH  16  17
ATOM     17  O1  UNL     1      28.576  -7.439 -36.300  0.00  0.00    +0.000 OA
ATOM     18  H1  UNL     1      28.235  -7.624 -37.214  0.00  0.00    +0.000 HD
ENDBRANCH  16  17
ENDBRANCH   9  16
ENDBRANCH   7   9
ENDBRANCH   1   7
BRANCH   3  19
ATOM     19  O2  UNL     1      26.776  -7.544 -40.652  0.00  0.00    +0.000 OA
ATOM     20  H9  UNL     1      26.857  -7.037 -41.501  0.00  0.00    +0.000 HD
ENDBRANCH   3  19
BRANCH   4  21
ATOM     21  O4  UNL     1      28.322  -8.865 -42.405  0.00  0.00    +0.000 OA
ATOM     22  H14 UNL     1      28.373  -9.321 -43.285  0.00  0.00    +0.000 HD
ENDBRANCH   4  21
BRANCH   5  23
ATOM     23  O5  UNL     1      28.061 -11.721 -40.338  0.00  0.00    +0.000 OA
ATOM     24  H16 UNL     1      27.361 -11.749 -39.634  0.00  0.00    +0.000 HD
ENDBRANCH   5  23
BRANCH   6  25
ATOM     25  O6  UNL     1      28.911  -8.398 -39.172  0.00  0.00    +0.000 OA
ATOM     26  H18 UNL     1      29.021  -8.075 -38.239  0.00  0.00    +0.000 HD
ENDBRANCH   6  25
BRANCH   3  27
ATOM     27  C6  UNL     1      25.216  -8.784 -42.012  0.00  0.00    +0.000 C 
BRANCH  27  28
ATOM     28  O3  UNL     1      25.398  -9.741 -43.023  0.00  0.00    +0.000 OA
ATOM     29  H12 UNL     1      25.242  -9.282 -43.889  0.00  0.00    +0.000 HD
ENDBRANCH  27  28
ENDBRANCH   3  27
TORSDOF 11
ENDMDL
