MODEL 1
REMARK VINA RESULT:    -8.589      0.000      0.000
REMARK INTER + INTRA:         -12.603
REMARK INTER:                 -12.104
REMARK INTRA:                  -0.499
REMARK UNBOUND:                -0.499
REMARK  Name = resultss/4CJN/ligands/lig_426_t0.pdb
REMARK  8 active torsions:
REMARK  status: ('A' for Active; 'I' for Inactive)
REMARK    1  A    between atoms: C1_1  and  O1_2
REMARK    2  A    between atoms: O1_2  and  C2_3
REMARK    3  A    between atoms: C5_6  and  N1_7
REMARK    4  A    between atoms: N1_7  and  C6_8
REMARK    5  A    between atoms: C6_8  and  N2_10
REMARK    6  A    between atoms: N2_10  and  N3_11
REMARK    7  A    between atoms: C7_12  and  C8_14
REMARK    8  A    between atoms: C18_25  and  C19_26
REMARK                            x       y       z     vdW  Elec       q    Type
REMARK                         _______ _______ _______ _____ _____    ______ ____
ROOT
ATOM      1  C8  UNL     1      27.701  -9.857 -37.658  0.00  0.00    +0.000 A 
ATOM      2  C9  UNL     1      28.928  -9.838 -36.961  0.00  0.00    +0.000 A 
ATOM      3  C10 UNL     1      28.886  -9.526 -35.608  0.00  0.00    +0.000 A 
ATOM      4  C11 UNL     1      27.705  -9.239 -34.958  0.00  0.00    +0.000 A 
ATOM      5  N4  UNL     1      27.909  -9.033 -33.635  0.00  0.00    +0.000 N 
ATOM      6  C12 UNL     1      29.242  -9.176 -33.464  0.00  0.00    +0.000 A 
ATOM      7  C13 UNL     1      29.953  -9.071 -32.270  0.00  0.00    +0.000 A 
ATOM      8  C14 UNL     1      31.345  -9.278 -32.312  0.00  0.00    +0.000 A 
ATOM      9  C15 UNL     1      31.989  -9.587 -33.530  0.00  0.00    +0.000 A 
ATOM     10  C16 UNL     1      31.250  -9.694 -34.722  0.00  0.00    +0.000 A 
ATOM     11  C17 UNL     1      29.874  -9.478 -34.651  0.00  0.00    +0.000 A 
ATOM     12  C18 UNL     1      26.495  -9.246 -35.663  0.00  0.00    +0.000 A 
ATOM     13  N5  UNL     1      26.537  -9.566 -36.992  0.00  0.00    +0.000 NA
ATOM     14  H10 UNL     1      27.201  -8.842 -32.892  0.00  0.00    +0.000 HD
ENDROOT
BRANCH  12  15
ATOM     15  C19 UNL     1      25.195  -8.930 -35.034  0.00  0.00    +0.000 A 
ATOM     16  C20 UNL     1      24.262  -8.137 -35.723  0.00  0.00    +0.000 A 
ATOM     17  C21 UNL     1      23.039  -7.810 -35.129  0.00  0.00    +0.000 A 
ATOM     18  C22 UNL     1      22.744  -8.259 -33.839  0.00  0.00    +0.000 A 
ATOM     19  C23 UNL     1      23.676  -9.029 -33.137  0.00  0.00    +0.000 A 
ATOM     20  C24 UNL     1      24.899  -9.358 -33.728  0.00  0.00    +0.000 A 
ENDBRANCH  12  15
BRANCH   1  22
ATOM     21  N3  UNL     1      28.664 -11.030 -39.681  0.00  0.00    +0.000 N 
ATOM     22  C7  UNL     1      27.651 -10.196 -39.095  0.00  0.00    +0.000 C 
ATOM     23  O2  UNL     1      26.705  -9.766 -39.810  0.00  0.00    +0.000 OA
ATOM     24  H8  UNL     1      29.246 -11.631 -39.056  0.00  0.00    +0.000 HD
BRANCH  21  25
ATOM     25  N2  UNL     1      28.741 -11.253 -41.067  0.00  0.00    +0.000 N 
ATOM     26  H7  UNL     1      28.172 -12.025 -41.478  0.00  0.00    +0.000 HD
BRANCH  25  27
ATOM     27  C6  UNL     1      29.690 -10.582 -41.913  0.00  0.00    +0.000 C 
ATOM     28  S1  UNL     1      29.323  -9.117 -42.553  0.00  0.00    +0.000 S 
BRANCH  27  29
ATOM     29  N1  UNL     1      31.048 -11.044 -41.979  0.00  0.00    +0.000 N 
ATOM     30  H6  UNL     1      31.603 -11.071 -41.093  0.00  0.00    +0.000 HD
BRANCH  29  34
ATOM     31  C2  UNL     1      32.964 -12.430 -45.519  0.00  0.00    +0.000 A 
ATOM     32  C3  UNL     1      32.978 -11.067 -45.202  0.00  0.00    +0.000 A 
ATOM     33  C4  UNL     1      32.350 -10.601 -44.044  0.00  0.00    +0.000 A 
ATOM     34  C5  UNL     1      31.683 -11.495 -43.188  0.00  0.00    +0.000 A 
ATOM     35  C25 UNL     1      31.687 -12.863 -43.494  0.00  0.00    +0.000 A 
ATOM     36  C26 UNL     1      32.314 -13.330 -44.653  0.00  0.00    +0.000 A 
BRANCH  31  38
ATOM     37  C1  UNL     1      33.589 -14.182 -47.189  0.00  0.00    +0.000 C 
ATOM     38  O1  UNL     1      33.606 -12.847 -46.694  0.00  0.00    +0.000 OA
ENDBRANCH  31  38
ENDBRANCH  29  34
ENDBRANCH  27  29
ENDBRANCH  25  27
ENDBRANCH  21  25
ENDBRANCH   1  22
TORSDOF 7
ENDMDL
MODEL 2
REMARK VINA RESULT:    -8.104      0.855      4.365
REMARK INTER + INTRA:         -11.920
REMARK INTER:                 -11.358
REMARK INTRA:                  -0.562
REMARK UNBOUND:                -0.499
REMARK  Name = resultss/4CJN/ligands/lig_426_t0.pdb
REMARK  8 active torsions:
REMARK  status: ('A' for Active; 'I' for Inactive)
REMARK    1  A    between atoms: C1_1  and  O1_2
REMARK    2  A    between atoms: O1_2  and  C2_3
REMARK    3  A    between atoms: C5_6  and  N1_7
REMARK    4  A    between atoms: N1_7  and  C6_8
REMARK    5  A    between atoms: C6_8  and  N2_10
REMARK    6  A    between atoms: N2_10  and  N3_11
REMARK    7  A    between atoms: C7_12  and  C8_14
REMARK    8  A    between atoms: C18_25  and  C19_26
REMARK                            x       y       z     vdW  Elec       q    Type
REMARK                         _______ _______ _______ _____ _____    ______ ____
ROOT
ATOM      1  C8  UNL     1      27.228  -9.756 -38.001  0.00  0.00    +0.000 A 
ATOM      2  C9  UNL     1      25.976  -9.243 -37.600  0.00  0.00    +0.000 A 
ATOM      3  C10 UNL     1      25.863  -8.798 -36.288  0.00  0.00    +0.000 A 
ATOM      4  C11 UNL     1      26.916  -8.852 -35.402  0.00  0.00    +0.000 A 
ATOM      5  N4  UNL     1      26.585  -8.301 -34.209  0.00  0.00    +0.000 N 
ATOM      6  C12 UNL     1      25.298  -7.915 -34.353  0.00  0.00    +0.000 A 
ATOM      7  C13 UNL     1      24.499  -7.280 -33.403  0.00  0.00    +0.000 A 
ATOM      8  C14 UNL     1      23.182  -6.945 -33.767  0.00  0.00    +0.000 A 
ATOM      9  C15 UNL     1      22.697  -7.242 -35.061  0.00  0.00    +0.000 A 
ATOM     10  C16 UNL     1      23.523  -7.878 -36.005  0.00  0.00    +0.000 A 
ATOM     11  C17 UNL     1      24.821  -8.204 -35.613  0.00  0.00    +0.000 A 
ATOM     12  C18 UNL     1      28.149  -9.378 -35.808  0.00  0.00    +0.000 A 
ATOM     13  N5  UNL     1      28.262  -9.804 -37.102  0.00  0.00    +0.000 NA
ATOM     14  H10 UNL     1      27.189  -8.163 -33.369  0.00  0.00    +0.000 HD
ENDROOT
BRANCH  12  15
ATOM     15  C19 UNL     1      29.315  -9.483 -34.905  0.00  0.00    +0.000 A 
ATOM     16  C20 UNL     1      30.614  -9.362 -35.426  0.00  0.00    +0.000 A 
ATOM     17  C21 UNL     1      31.726  -9.485 -34.588  0.00  0.00    +0.000 A 
ATOM     18  C22 UNL     1      31.552  -9.744 -33.226  0.00  0.00    +0.000 A 
ATOM     19  C23 UNL     1      30.264  -9.890 -32.702  0.00  0.00    +0.000 A 
ATOM     20  C24 UNL     1      29.150  -9.767 -33.537  0.00  0.00    +0.000 A 
ENDBRANCH  12  15
BRANCH   1  22
ATOM     21  N3  UNL     1      28.665 -10.900 -39.741  0.00  0.00    +0.000 N 
ATOM     22  C7  UNL     1      27.442 -10.235 -39.383  0.00  0.00    +0.000 C 
ATOM     23  O2  UNL     1      26.540 -10.075 -40.250  0.00  0.00    +0.000 OA
ATOM     24  H8  UNL     1      29.257 -11.308 -38.984  0.00  0.00    +0.000 HD
BRANCH  21  25
ATOM     25  N2  UNL     1      28.973 -11.234 -41.071  0.00  0.00    +0.000 N 
ATOM     26  H7  UNL     1      28.636 -12.148 -41.445  0.00  0.00    +0.000 HD
BRANCH  25  27
ATOM     27  C6  UNL     1      29.870 -10.456 -41.883  0.00  0.00    +0.000 C 
ATOM     28  S1  UNL     1      29.410  -8.978 -42.424  0.00  0.00    +0.000 S 
BRANCH  27  29
ATOM     29  N1  UNL     1      31.251 -10.833 -41.993  0.00  0.00    +0.000 N 
ATOM     30  H6  UNL     1      31.870 -10.681 -41.164  0.00  0.00    +0.000 HD
BRANCH  29  34
ATOM     31  C2  UNL     1      32.917 -12.555 -45.512  0.00  0.00    +0.000 A 
ATOM     32  C3  UNL     1      32.302 -13.371 -44.555  0.00  0.00    +0.000 A 
ATOM     33  C4  UNL     1      31.755 -12.816 -43.395  0.00  0.00    +0.000 A 
ATOM     34  C5  UNL     1      31.827 -11.431 -43.167  0.00  0.00    +0.000 A 
ATOM     35  C25 UNL     1      32.424 -10.611 -44.134  0.00  0.00    +0.000 A 
ATOM     36  C26 UNL     1      32.973 -11.165 -45.295  0.00  0.00    +0.000 A 
BRANCH  31  38
ATOM     37  C1  UNL     1      33.116 -14.467 -47.110  0.00  0.00    +0.000 C 
ATOM     38  O1  UNL     1      33.454 -13.160 -46.657  0.00  0.00    +0.000 OA
ENDBRANCH  31  38
ENDBRANCH  29  34
ENDBRANCH  27  29
ENDBRANCH  25  27
ENDBRANCH  21  25
ENDBRANCH   1  22
TORSDOF 7
ENDMDL
MODEL 3
REMARK VINA RESULT:    -7.794      2.673      4.597
REMARK INTER + INTRA:         -11.483
REMARK INTER:                 -10.818
REMARK INTRA:                  -0.665
REMARK UNBOUND:                -0.499
REMARK  Name = resultss/4CJN/ligands/lig_426_t0.pdb
REMARK  8 active torsions:
REMARK  status: ('A' for Active; 'I' for Inactive)
REMARK    1  A    between atoms: C1_1  and  O1_2
REMARK    2  A    between atoms: O1_2  and  C2_3
REMARK    3  A    between atoms: C5_6  and  N1_7
REMARK    4  A    between atoms: N1_7  and  C6_8
REMARK    5  A    between atoms: C6_8  and  N2_10
REMARK    6  A    between atoms: N2_10  and  N3_11
REMARK    7  A    between atoms: C7_12  and  C8_14
REMARK    8  A    between atoms: C18_25  and  C19_26
REMARK                            x       y       z     vdW  Elec       q    Type
REMARK                         _______ _______ _______ _____ _____    ______ ____
ROOT
ATOM      1  C8  UNL     1      27.506  -9.364 -38.429  0.00  0.00    +0.000 A 
ATOM      2  C9  UNL     1      27.149  -9.310 -37.065  0.00  0.00    +0.000 A 
ATOM      3  C10 UNL     1      25.886  -8.819 -36.758  0.00  0.00    +0.000 A 
ATOM      4  C11 UNL     1      25.008  -8.394 -37.731  0.00  0.00    +0.000 A 
ATOM      5  N4  UNL     1      23.820  -8.023 -37.194  0.00  0.00    +0.000 N 
ATOM      6  C12 UNL     1      23.971  -8.204 -35.864  0.00  0.00    +0.000 A 
ATOM      7  C13 UNL     1      23.020  -7.974 -34.871  0.00  0.00    +0.000 A 
ATOM      8  C14 UNL     1      23.379  -8.249 -33.538  0.00  0.00    +0.000 A 
ATOM      9  C15 UNL     1      24.665  -8.748 -33.229  0.00  0.00    +0.000 A 
ATOM     10  C16 UNL     1      25.606  -8.977 -34.248  0.00  0.00    +0.000 A 
ATOM     11  C17 UNL     1      25.224  -8.690 -35.558  0.00  0.00    +0.000 A 
ATOM     12  C18 UNL     1      25.380  -8.438 -39.081  0.00  0.00    +0.000 A 
ATOM     13  N5  UNL     1      26.618  -8.934 -39.382  0.00  0.00    +0.000 NA
ATOM     14  H10 UNL     1      22.958  -7.702 -37.688  0.00  0.00    +0.000 HD
ENDROOT
BRANCH  12  15
ATOM     15  C19 UNL     1      24.496  -7.981 -40.174  0.00  0.00    +0.000 A 
ATOM     16  C20 UNL     1      24.166  -8.861 -41.218  0.00  0.00    +0.000 A 
ATOM     17  C21 UNL     1      23.351  -8.434 -42.271  0.00  0.00    +0.000 A 
ATOM     18  C22 UNL     1      22.872  -7.122 -42.299  0.00  0.00    +0.000 A 
ATOM     19  C23 UNL     1      23.214  -6.232 -41.277  0.00  0.00    +0.000 A 
ATOM     20  C24 UNL     1      24.027  -6.656 -40.222  0.00  0.00    +0.000 A 
ENDBRANCH  12  15
BRANCH   1  22
ATOM     21  N3  UNL     1      29.154  -9.998 -40.241  0.00  0.00    +0.000 N 
ATOM     22  C7  UNL     1      28.823  -9.889 -38.847  0.00  0.00    +0.000 C 
ATOM     23  O2  UNL     1      29.669 -10.229 -37.976  0.00  0.00    +0.000 OA
ATOM     24  H8  UNL     1      28.607  -9.439 -40.934  0.00  0.00    +0.000 HD
BRANCH  21  25
ATOM     25  N2  UNL     1      30.328 -10.630 -40.685  0.00  0.00    +0.000 N 
ATOM     26  H7  UNL     1      30.373 -11.673 -40.654  0.00  0.00    +0.000 HD
BRANCH  25  27
ATOM     27  C6  UNL     1      31.525  -9.907 -41.017  0.00  0.00    +0.000 C 
ATOM     28  S1  UNL     1      31.690  -8.342 -40.555  0.00  0.00    +0.000 S 
BRANCH  27  29
ATOM     29  N1  UNL     1      32.681 -10.610 -41.501  0.00  0.00    +0.000 N 
ATOM     30  H6  UNL     1      33.524 -10.653 -40.884  0.00  0.00    +0.000 HD
BRANCH  29  34
ATOM     31  C2  UNL     1      32.826 -12.533 -45.296  0.00  0.00    +0.000 A 
ATOM     32  C3  UNL     1      32.049 -13.073 -44.266  0.00  0.00    +0.000 A 
ATOM     33  C4  UNL     1      31.997 -12.452 -43.015  0.00  0.00    +0.000 A 
ATOM     34  C5  UNL     1      32.736 -11.281 -42.771  0.00  0.00    +0.000 A 
ATOM     35  C25 UNL     1      33.498 -10.727 -43.810  0.00  0.00    +0.000 A 
ATOM     36  C26 UNL     1      33.551 -11.349 -45.061  0.00  0.00    +0.000 A 
BRANCH  31  38
ATOM     37  C1  UNL     1      32.969 -14.605 -46.686  0.00  0.00    +0.000 C 
ATOM     38  O1  UNL     1      32.848 -13.195 -46.532  0.00  0.00    +0.000 OA
ENDBRANCH  31  38
ENDBRANCH  29  34
ENDBRANCH  27  29
ENDBRANCH  25  27
ENDBRANCH  21  25
ENDBRANCH   1  22
TORSDOF 7
ENDMDL
MODEL 4
REMARK VINA RESULT:    -7.429      4.661      7.636
REMARK INTER + INTRA:         -10.968
REMARK INTER:                  -9.862
REMARK INTRA:                  -1.106
REMARK UNBOUND:                -0.499
REMARK  Name = resultss/4CJN/ligands/lig_426_t0.pdb
REMARK  8 active torsions:
REMARK  status: ('A' for Active; 'I' for Inactive)
REMARK    1  A    between atoms: C1_1  and  O1_2
REMARK    2  A    between atoms: O1_2  and  C2_3
REMARK    3  A    between atoms: C5_6  and  N1_7
REMARK    4  A    between atoms: N1_7  and  C6_8
REMARK    5  A    between atoms: C6_8  and  N2_10
REMARK    6  A    between atoms: N2_10  and  N3_11
REMARK    7  A    between atoms: C7_12  and  C8_14
REMARK    8  A    between atoms: C18_25  and  C19_26
REMARK                            x       y       z     vdW  Elec       q    Type
REMARK                         _______ _______ _______ _____ _____    ______ ____
ROOT
ATOM      1  C8  UNL     1      26.475  -9.746 -41.132  0.00  0.00    +0.000 A 
ATOM      2  C9  UNL     1      26.275  -9.646 -39.739  0.00  0.00    +0.000 A 
ATOM      3  C10 UNL     1      27.383  -9.844 -38.923  0.00  0.00    +0.000 A 
ATOM      4  C11 UNL     1      28.629 -10.131 -39.435  0.00  0.00    +0.000 A 
ATOM      5  N4  UNL     1      29.558 -10.215 -38.452  0.00  0.00    +0.000 N 
ATOM      6  C12 UNL     1      28.873  -9.994 -37.309  0.00  0.00    +0.000 A 
ATOM      7  C13 UNL     1      29.385  -9.963 -36.013  0.00  0.00    +0.000 A 
ATOM      8  C14 UNL     1      28.494  -9.694 -34.958  0.00  0.00    +0.000 A 
ATOM      9  C15 UNL     1      27.125  -9.458 -35.217  0.00  0.00    +0.000 A 
ATOM     10  C16 UNL     1      26.631  -9.489 -36.533  0.00  0.00    +0.000 A 
ATOM     11  C17 UNL     1      27.536  -9.764 -37.557  0.00  0.00    +0.000 A 
ATOM     12  C18 UNL     1      28.811 -10.243 -40.819  0.00  0.00    +0.000 A 
ATOM     13  N5  UNL     1      27.723 -10.035 -41.621  0.00  0.00    +0.000 NA
ATOM     14  H10 UNL     1      30.585 -10.376 -38.544  0.00  0.00    +0.000 HD
ENDROOT
BRANCH  12  15
ATOM     15  C19 UNL     1      30.115 -10.566 -41.436  0.00  0.00    +0.000 A 
ATOM     16  C20 UNL     1      31.248  -9.799 -41.115  0.00  0.00    +0.000 A 
ATOM     17  C21 UNL     1      32.482 -10.079 -41.710  0.00  0.00    +0.000 A 
ATOM     18  C22 UNL     1      32.592 -11.115 -42.641  0.00  0.00    +0.000 A 
ATOM     19  C23 UNL     1      31.466 -11.868 -42.984  0.00  0.00    +0.000 A 
ATOM     20  C24 UNL     1      30.231 -11.593 -42.391  0.00  0.00    +0.000 A 
ENDBRANCH  12  15
BRANCH   1  22
ATOM     21  N3  UNL     1      24.101  -9.009 -41.607  0.00  0.00    +0.000 N 
ATOM     22  C7  UNL     1      25.356  -9.532 -42.074  0.00  0.00    +0.000 C 
ATOM     23  O2  UNL     1      25.507  -9.792 -43.299  0.00  0.00    +0.000 OA
ATOM     24  H8  UNL     1      24.074  -8.507 -40.691  0.00  0.00    +0.000 HD
BRANCH  21  25
ATOM     25  N2  UNL     1      22.967  -8.933 -42.434  0.00  0.00    +0.000 N 
ATOM     26  H7  UNL     1      22.489  -9.821 -42.703  0.00  0.00    +0.000 HD
BRANCH  25  27
ATOM     27  C6  UNL     1      22.540  -7.712 -43.060  0.00  0.00    +0.000 C 
ATOM     28  S1  UNL     1      20.939  -7.374 -43.186  0.00  0.00    +0.000 S 
BRANCH  27  29
ATOM     29  N1  UNL     1      23.490  -6.668 -43.326  0.00  0.00    +0.000 N 
ATOM     30  H6  UNL     1      23.517  -5.851 -42.675  0.00  0.00    +0.000 HD
BRANCH  29  34
ATOM     31  C2  UNL     1      26.276  -6.677 -46.545  0.00  0.00    +0.000 A 
ATOM     32  C3  UNL     1      24.927  -6.966 -46.784  0.00  0.00    +0.000 A 
ATOM     33  C4  UNL     1      24.005  -6.968 -45.734  0.00  0.00    +0.000 A 
ATOM     34  C5  UNL     1      24.422  -6.694 -44.419  0.00  0.00    +0.000 A 
ATOM     35  C25 UNL     1      25.769  -6.384 -44.183  0.00  0.00    +0.000 A 
ATOM     36  C26 UNL     1      26.693  -6.382 -45.233  0.00  0.00    +0.000 A 
BRANCH  31  38
ATOM     37  C1  UNL     1      26.768  -6.565 -48.994  0.00  0.00    +0.000 C 
ATOM     38  O1  UNL     1      27.163  -6.690 -47.631  0.00  0.00    +0.000 OA
ENDBRANCH  31  38
ENDBRANCH  29  34
ENDBRANCH  27  29
ENDBRANCH  25  27
ENDBRANCH  21  25
ENDBRANCH   1  22
TORSDOF 7
ENDMDL
MODEL 5
REMARK VINA RESULT:    -7.408      3.871      6.236
REMARK INTER + INTRA:         -10.939
REMARK INTER:                  -9.161
REMARK INTRA:                  -1.779
REMARK UNBOUND:                -0.499
REMARK  Name = resultss/4CJN/ligands/lig_426_t0.pdb
REMARK  8 active torsions:
REMARK  status: ('A' for Active; 'I' for Inactive)
REMARK    1  A    between atoms: C1_1  and  O1_2
REMARK    2  A    between atoms: O1_2  and  C2_3
REMARK    3  A    between atoms: C5_6  and  N1_7
REMARK    4  A    between atoms: N1_7  and  C6_8
REMARK    5  A    between atoms: C6_8  and  N2_10
REMARK    6  A    between atoms: N2_10  and  N3_11
REMARK    7  A    between atoms: C7_12  and  C8_14
REMARK    8  A    between atoms: C18_25  and  C19_26
REMARK                            x       y       z     vdW  Elec       q    Type
REMARK                         _______ _______ _______ _____ _____    ______ ____
ROOT
ATOM      1  C8  UNL     1      25.309  -7.516 -38.985  0.00  0.00    +0.000 A 
ATOM      2  C9  UNL     1      24.370  -7.646 -37.939  0.00  0.00    +0.000 A 
ATOM      3  C10 UNL     1      24.853  -8.042 -36.698  0.00  0.00    +0.000 A 
ATOM      4  C11 UNL     1      26.188  -8.305 -36.480  0.00  0.00    +0.000 A 
ATOM      5  N4  UNL     1      26.424  -8.607 -35.180  0.00  0.00    +0.000 N 
ATOM      6  C12 UNL     1      25.212  -8.549 -34.586  0.00  0.00    +0.000 A 
ATOM      7  C13 UNL     1      24.924  -8.769 -33.240  0.00  0.00    +0.000 A 
ATOM      8  C14 UNL     1      23.586  -8.636 -32.823  0.00  0.00    +0.000 A 
ATOM      9  C15 UNL     1      22.577  -8.284 -33.746  0.00  0.00    +0.000 A 
ATOM     10  C16 UNL     1      22.892  -8.061 -35.099  0.00  0.00    +0.000 A 
ATOM     11  C17 UNL     1      24.224  -8.206 -35.484  0.00  0.00    +0.000 A 
ATOM     12  C18 UNL     1      27.108  -8.187 -37.529  0.00  0.00    +0.000 A 
ATOM     13  N5  UNL     1      26.633  -7.785 -38.747  0.00  0.00    +0.000 NA
ATOM     14  H10 UNL     1      27.338  -8.807 -34.717  0.00  0.00    +0.000 HD
ENDROOT
BRANCH  12  15
ATOM     15  C19 UNL     1      28.550  -8.472 -37.371  0.00  0.00    +0.000 A 
ATOM     16  C20 UNL     1      29.483  -7.428 -37.489  0.00  0.00    +0.000 A 
ATOM     17  C21 UNL     1      30.852  -7.688 -37.366  0.00  0.00    +0.000 A 
ATOM     18  C22 UNL     1      31.300  -8.991 -37.140  0.00  0.00    +0.000 A 
ATOM     19  C23 UNL     1      30.381 -10.040 -37.045  0.00  0.00    +0.000 A 
ATOM     20  C24 UNL     1      29.012  -9.784 -37.166  0.00  0.00    +0.000 A 
ENDBRANCH  12  15
BRANCH   1  22
ATOM     21  N3  UNL     1      23.697  -7.623 -40.931  0.00  0.00    +0.000 N 
ATOM     22  C7  UNL     1      24.886  -7.082 -40.333  0.00  0.00    +0.000 C 
ATOM     23  O2  UNL     1      25.562  -6.219 -40.956  0.00  0.00    +0.000 OA
ATOM     24  H8  UNL     1      22.984  -8.076 -40.316  0.00  0.00    +0.000 HD
BRANCH  21  25
ATOM     25  N2  UNL     1      23.341  -7.355 -42.264  0.00  0.00    +0.000 N 
ATOM     26  H7  UNL     1      22.588  -6.655 -42.447  0.00  0.00    +0.000 HD
BRANCH  25  27
ATOM     27  C6  UNL     1      23.844  -8.119 -43.374  0.00  0.00    +0.000 C 
ATOM     28  S1  UNL     1      24.089  -7.391 -44.824  0.00  0.00    +0.000 S 
BRANCH  27  29
ATOM     29  N1  UNL     1      24.390  -9.429 -43.157  0.00  0.00    +0.000 N 
ATOM     30  H6  UNL     1      23.864 -10.250 -43.534  0.00  0.00    +0.000 HD
BRANCH  29  34
ATOM     31  C2  UNL     1      28.094 -10.186 -41.200  0.00  0.00    +0.000 A 
ATOM     32  C3  UNL     1      26.901 -10.679 -40.658  0.00  0.00    +0.000 A 
ATOM     33  C4  UNL     1      25.680 -10.434 -41.291  0.00  0.00    +0.000 A 
ATOM     34  C5  UNL     1      25.631  -9.676 -42.475  0.00  0.00    +0.000 A 
ATOM     35  C25 UNL     1      26.828  -9.200 -43.028  0.00  0.00    +0.000 A 
ATOM     36  C26 UNL     1      28.050  -9.444 -42.396  0.00  0.00    +0.000 A 
BRANCH  31  38
ATOM     37  C1  UNL     1      30.511  -9.750 -40.736  0.00  0.00    +0.000 C 
ATOM     38  O1  UNL     1      29.294 -10.457 -40.525  0.00  0.00    +0.000 OA
ENDBRANCH  31  38
ENDBRANCH  29  34
ENDBRANCH  27  29
ENDBRANCH  25  27
ENDBRANCH  21  25
ENDBRANCH   1  22
TORSDOF 7
ENDMDL
MODEL 6
REMARK VINA RESULT:    -7.358      4.501      9.740
REMARK INTER + INTRA:         -10.869
REMARK INTER:                  -9.640
REMARK INTRA:                  -1.229
REMARK UNBOUND:                -0.499
REMARK  Name = resultss/4CJN/ligands/lig_426_t0.pdb
REMARK  8 active torsions:
REMARK  status: ('A' for Active; 'I' for Inactive)
REMARK    1  A    between atoms: C1_1  and  O1_2
REMARK    2  A    between atoms: O1_2  and  C2_3
REMARK    3  A    between atoms: C5_6  and  N1_7
REMARK    4  A    between atoms: N1_7  and  C6_8
REMARK    5  A    between atoms: C6_8  and  N2_10
REMARK    6  A    between atoms: N2_10  and  N3_11
REMARK    7  A    between atoms: C7_12  and  C8_14
REMARK    8  A    between atoms: C18_25  and  C19_26
REMARK                            x       y       z     vdW  Elec       q    Type
REMARK                         _______ _______ _______ _____ _____    ______ ____
ROOT
ATOM      1  C8  UNL     1      25.063  -7.663 -39.633  0.00  0.00    +0.000 A 
ATOM      2  C9  UNL     1      24.141  -7.172 -40.581  0.00  0.00    +0.000 A 
ATOM      3  C10 UNL     1      24.422  -7.409 -41.922  0.00  0.00    +0.000 A 
ATOM      4  C11 UNL     1      25.551  -8.088 -42.326  0.00  0.00    +0.000 A 
ATOM      5  N4  UNL     1      25.572  -8.252 -43.670  0.00  0.00    +0.000 N 
ATOM      6  C12 UNL     1      24.446  -7.649 -44.109  0.00  0.00    +0.000 A 
ATOM      7  C13 UNL     1      24.001  -7.555 -45.427  0.00  0.00    +0.000 A 
ATOM      8  C14 UNL     1      22.781  -6.895 -45.666  0.00  0.00    +0.000 A 
ATOM      9  C15 UNL     1      22.035  -6.354 -44.594  0.00  0.00    +0.000 A 
ATOM     10  C16 UNL     1      22.501  -6.466 -43.272  0.00  0.00    +0.000 A 
ATOM     11  C17 UNL     1      23.715  -7.120 -43.067  0.00  0.00    +0.000 A 
ATOM     12  C18 UNL     1      26.467  -8.557 -41.375  0.00  0.00    +0.000 A 
ATOM     13  N5  UNL     1      26.182  -8.334 -40.056  0.00  0.00    +0.000 NA
ATOM     14  H10 UNL     1      26.274  -8.762 -44.250  0.00  0.00    +0.000 HD
ENDROOT
BRANCH  12  15
ATOM     15  C19 UNL     1      27.706  -9.276 -41.738  0.00  0.00    +0.000 A 
ATOM     16  C20 UNL     1      28.090 -10.415 -41.011  0.00  0.00    +0.000 A 
ATOM     17  C21 UNL     1      29.273 -11.090 -41.328  0.00  0.00    +0.000 A 
ATOM     18  C22 UNL     1      30.089 -10.625 -42.362  0.00  0.00    +0.000 A 
ATOM     19  C23 UNL     1      29.728  -9.479 -43.076  0.00  0.00    +0.000 A 
ATOM     20  C24 UNL     1      28.545  -8.802 -42.763  0.00  0.00    +0.000 A 
ENDBRANCH  12  15
BRANCH   1  22
ATOM     21  N3  UNL     1      24.232  -8.514 -37.400  0.00  0.00    +0.000 N 
ATOM     22  C7  UNL     1      24.834  -7.472 -38.185  0.00  0.00    +0.000 C 
ATOM     23  O2  UNL     1      25.185  -6.395 -37.630  0.00  0.00    +0.000 OA
ATOM     24  H8  UNL     1      24.235  -9.490 -37.771  0.00  0.00    +0.000 HD
BRANCH  21  25
ATOM     25  N2  UNL     1      23.857  -8.320 -36.059  0.00  0.00    +0.000 N 
ATOM     26  H7  UNL     1      22.964  -7.818 -35.860  0.00  0.00    +0.000 HD
BRANCH  25  27
ATOM     27  C6  UNL     1      24.725  -8.627 -34.955  0.00  0.00    +0.000 C 
ATOM     28  S1  UNL     1      24.519  -7.867 -33.516  0.00  0.00    +0.000 S 
BRANCH  27  29
ATOM     29  N1  UNL     1      25.582  -9.778 -35.012  0.00  0.00    +0.000 N 
ATOM     30  H6  UNL     1      25.156 -10.718 -34.841  0.00  0.00    +0.000 HD
BRANCH  29  34
ATOM     31  C2  UNL     1      29.732  -9.654 -35.956  0.00  0.00    +0.000 A 
ATOM     32  C3  UNL     1      29.317  -9.696 -34.620  0.00  0.00    +0.000 A 
ATOM     33  C4  UNL     1      27.957  -9.734 -34.299  0.00  0.00    +0.000 A 
ATOM     34  C5  UNL     1      26.986  -9.717 -35.315  0.00  0.00    +0.000 A 
ATOM     35  C25 UNL     1      27.401  -9.697 -36.654  0.00  0.00    +0.000 A 
ATOM     36  C26 UNL     1      28.761  -9.658 -36.976  0.00  0.00    +0.000 A 
BRANCH  31  38
ATOM     37  C1  UNL     1      31.685  -9.892 -37.497  0.00  0.00    +0.000 C 
ATOM     38  O1  UNL     1      31.107  -9.614 -36.226  0.00  0.00    +0.000 OA
ENDBRANCH  31  38
ENDBRANCH  29  34
ENDBRANCH  27  29
ENDBRANCH  25  27
ENDBRANCH  21  25
ENDBRANCH   1  22
TORSDOF 7
ENDMDL
MODEL 7
REMARK VINA RESULT:    -7.292      3.068      6.229
REMARK INTER + INTRA:         -10.775
REMARK INTER:                  -9.654
REMARK INTRA:                  -1.121
REMARK UNBOUND:                -0.499
REMARK  Name = resultss/4CJN/ligands/lig_426_t0.pdb
REMARK  8 active torsions:
REMARK  status: ('A' for Active; 'I' for Inactive)
REMARK    1  A    between atoms: C1_1  and  O1_2
REMARK    2  A    between atoms: O1_2  and  C2_3
REMARK    3  A    between atoms: C5_6  and  N1_7
REMARK    4  A    between atoms: N1_7  and  C6_8
REMARK    5  A    between atoms: C6_8  and  N2_10
REMARK    6  A    between atoms: N2_10  and  N3_11
REMARK    7  A    between atoms: C7_12  and  C8_14
REMARK    8  A    between atoms: C18_25  and  C19_26
REMARK                            x       y       z     vdW  Elec       q    Type
REMARK                         _______ _______ _______ _____ _____    ______ ____
ROOT
ATOM      1  C8  UNL     1      30.569  -9.700 -36.687  0.00  0.00    +0.000 A 
ATOM      2  C9  UNL     1      29.174  -9.484 -36.658  0.00  0.00    +0.000 A 
ATOM      3  C10 UNL     1      28.593  -9.249 -35.418  0.00  0.00    +0.000 A 
ATOM      4  C11 UNL     1      29.331  -9.229 -34.254  0.00  0.00    +0.000 A 
ATOM      5  N4  UNL     1      28.558  -8.915 -33.187  0.00  0.00    +0.000 N 
ATOM      6  C12 UNL     1      27.316  -8.757 -33.694  0.00  0.00    +0.000 A 
ATOM      7  C13 UNL     1      26.159  -8.414 -32.996  0.00  0.00    +0.000 A 
ATOM      8  C14 UNL     1      24.964  -8.281 -33.726  0.00  0.00    +0.000 A 
ATOM      9  C15 UNL     1      24.949  -8.484 -35.124  0.00  0.00    +0.000 A 
ATOM     10  C16 UNL     1      26.130  -8.823 -35.809  0.00  0.00    +0.000 A 
ATOM     11  C17 UNL     1      27.298  -8.954 -35.059  0.00  0.00    +0.000 A 
ATOM     12  C18 UNL     1      30.712  -9.459 -34.294  0.00  0.00    +0.000 A 
ATOM     13  N5  UNL     1      31.284  -9.677 -35.517  0.00  0.00    +0.000 NA
ATOM     14  H10 UNL     1      28.849  -8.784 -32.193  0.00  0.00    +0.000 HD
ENDROOT
BRANCH  12  15
ATOM     15  C19 UNL     1      31.561  -9.470 -33.084  0.00  0.00    +0.000 A 
ATOM     16  C20 UNL     1      31.755 -10.669 -32.378  0.00  0.00    +0.000 A 
ATOM     17  C21 UNL     1      32.535 -10.688 -31.218  0.00  0.00    +0.000 A 
ATOM     18  C22 UNL     1      33.115  -9.509 -30.745  0.00  0.00    +0.000 A 
ATOM     19  C23 UNL     1      32.909  -8.306 -31.427  0.00  0.00    +0.000 A 
ATOM     20  C24 UNL     1      32.131  -8.283 -32.588  0.00  0.00    +0.000 A 
ENDBRANCH  12  15
BRANCH   1  22
ATOM     21  N3  UNL     1      30.533 -10.036 -39.194  0.00  0.00    +0.000 N 
ATOM     22  C7  UNL     1      31.272  -9.939 -37.965  0.00  0.00    +0.000 C 
ATOM     23  O2  UNL     1      32.529 -10.041 -37.981  0.00  0.00    +0.000 OA
ATOM     24  H8  UNL     1      29.566  -9.645 -39.233  0.00  0.00    +0.000 HD
BRANCH  21  25
ATOM     25  N2  UNL     1      31.141 -10.412 -40.405  0.00  0.00    +0.000 N 
ATOM     26  H7  UNL     1      32.057 -10.912 -40.367  0.00  0.00    +0.000 HD
BRANCH  25  27
ATOM     27  C6  UNL     1      30.647  -9.993 -41.688  0.00  0.00    +0.000 C 
ATOM     28  S1  UNL     1      30.917 -10.924 -43.012  0.00  0.00    +0.000 S 
BRANCH  27  29
ATOM     29  N1  UNL     1      29.693  -8.924 -41.778  0.00  0.00    +0.000 N 
ATOM     30  H6  UNL     1      30.047  -7.942 -41.709  0.00  0.00    +0.000 HD
BRANCH  29  34
ATOM     31  C2  UNL     1      25.531  -9.587 -42.379  0.00  0.00    +0.000 A 
ATOM     32  C3  UNL     1      26.275  -8.887 -43.336  0.00  0.00    +0.000 A 
ATOM     33  C4  UNL     1      27.641  -8.662 -43.147  0.00  0.00    +0.000 A 
ATOM     34  C5  UNL     1      28.285  -9.123 -41.985  0.00  0.00    +0.000 A 
ATOM     35  C25 UNL     1      27.544  -9.842 -41.037  0.00  0.00    +0.000 A 
ATOM     36  C26 UNL     1      26.177 -10.068 -41.224  0.00  0.00    +0.000 A 
BRANCH  31  38
ATOM     37  C1  UNL     1      23.184  -8.751 -42.582  0.00  0.00    +0.000 C 
ATOM     38  O1  UNL     1      24.163  -9.785 -42.613  0.00  0.00    +0.000 OA
ENDBRANCH  31  38
ENDBRANCH  29  34
ENDBRANCH  27  29
ENDBRANCH  25  27
ENDBRANCH  21  25
ENDBRANCH   1  22
TORSDOF 7
ENDMDL
MODEL 8
REMARK VINA RESULT:    -7.268      5.992      8.864
REMARK INTER + INTRA:         -10.741
REMARK INTER:                 -10.091
REMARK INTRA:                  -0.650
REMARK UNBOUND:                -0.499
REMARK  Name = resultss/4CJN/ligands/lig_426_t0.pdb
REMARK  8 active torsions:
REMARK  status: ('A' for Active; 'I' for Inactive)
REMARK    1  A    between atoms: C1_1  and  O1_2
REMARK    2  A    between atoms: O1_2  and  C2_3
REMARK    3  A    between atoms: C5_6  and  N1_7
REMARK    4  A    between atoms: N1_7  and  C6_8
REMARK    5  A    between atoms: C6_8  and  N2_10
REMARK    6  A    between atoms: N2_10  and  N3_11
REMARK    7  A    between atoms: C7_12  and  C8_14
REMARK    8  A    between atoms: C18_25  and  C19_26
REMARK                            x       y       z     vdW  Elec       q    Type
REMARK                         _______ _______ _______ _____ _____    ______ ____
ROOT
ATOM      1  C8  UNL     1      26.569  -9.446 -41.184  0.00  0.00    +0.000 A 
ATOM      2  C9  UNL     1      26.340  -9.398 -39.793  0.00  0.00    +0.000 A 
ATOM      3  C10 UNL     1      27.417  -9.684 -38.962  0.00  0.00    +0.000 A 
ATOM      4  C11 UNL     1      28.661 -10.007 -39.459  0.00  0.00    +0.000 A 
ATOM      5  N4  UNL     1      29.561 -10.177 -38.460  0.00  0.00    +0.000 N 
ATOM      6  C12 UNL     1      28.859  -9.974 -37.324  0.00  0.00    +0.000 A 
ATOM      7  C13 UNL     1      29.340 -10.024 -36.017  0.00  0.00    +0.000 A 
ATOM      8  C14 UNL     1      28.437  -9.760 -34.971  0.00  0.00    +0.000 A 
ATOM      9  C15 UNL     1      27.087  -9.449 -35.249  0.00  0.00    +0.000 A 
ATOM     10  C16 UNL     1      26.625  -9.398 -36.576  0.00  0.00    +0.000 A 
ATOM     11  C17 UNL     1      27.541  -9.671 -37.591  0.00  0.00    +0.000 A 
ATOM     12  C18 UNL     1      28.871 -10.066 -40.842  0.00  0.00    +0.000 A 
ATOM     13  N5  UNL     1      27.814  -9.772 -41.658  0.00  0.00    +0.000 NA
ATOM     14  H10 UNL     1      30.582 -10.382 -38.536  0.00  0.00    +0.000 HD
ENDROOT
BRANCH  12  15
ATOM     15  C19 UNL     1      30.174 -10.423 -41.444  0.00  0.00    +0.000 A 
ATOM     16  C20 UNL     1      31.337  -9.745 -41.042  0.00  0.00    +0.000 A 
ATOM     17  C21 UNL     1      32.571 -10.056 -41.621  0.00  0.00    +0.000 A 
ATOM     18  C22 UNL     1      32.652 -11.034 -42.615  0.00  0.00    +0.000 A 
ATOM     19  C23 UNL     1      31.497 -11.698 -43.037  0.00  0.00    +0.000 A 
ATOM     20  C24 UNL     1      30.262 -11.391 -42.461  0.00  0.00    +0.000 A 
ENDBRANCH  12  15
BRANCH   1  22
ATOM     21  N3  UNL     1      24.111  -9.178 -41.720  0.00  0.00    +0.000 N 
ATOM     22  C7  UNL     1      25.484  -9.139 -42.141  0.00  0.00    +0.000 C 
ATOM     23  O2  UNL     1      25.765  -8.823 -43.329  0.00  0.00    +0.000 OA
ATOM     24  H8  UNL     1      23.894  -9.124 -40.699  0.00  0.00    +0.000 HD
BRANCH  21  25
ATOM     25  N2  UNL     1      23.046  -9.043 -42.627  0.00  0.00    +0.000 N 
ATOM     26  H7  UNL     1      22.685  -9.900 -43.101  0.00  0.00    +0.000 HD
BRANCH  25  27
ATOM     27  C6  UNL     1      22.546  -7.766 -43.058  0.00  0.00    +0.000 C 
ATOM     28  S1  UNL     1      21.569  -6.894 -42.070  0.00  0.00    +0.000 S 
BRANCH  27  29
ATOM     29  N1  UNL     1      23.108  -7.126 -44.215  0.00  0.00    +0.000 N 
ATOM     30  H6  UNL     1      24.066  -6.716 -44.133  0.00  0.00    +0.000 HD
BRANCH  29  34
ATOM     31  C2  UNL     1      21.075  -6.912 -47.950  0.00  0.00    +0.000 A 
ATOM     32  C3  UNL     1      22.414  -7.316 -47.902  0.00  0.00    +0.000 A 
ATOM     33  C4  UNL     1      23.091  -7.387 -46.682  0.00  0.00    +0.000 A 
ATOM     34  C5  UNL     1      22.440  -7.040 -45.485  0.00  0.00    +0.000 A 
ATOM     35  C25 UNL     1      21.092  -6.655 -45.530  0.00  0.00    +0.000 A 
ATOM     36  C26 UNL     1      20.414  -6.583 -46.750  0.00  0.00    +0.000 A 
BRANCH  31  38
ATOM     37  C1  UNL     1      19.037  -6.696 -49.381  0.00  0.00    +0.000 C 
ATOM     38  O1  UNL     1      20.441  -6.854 -49.199  0.00  0.00    +0.000 OA
ENDBRANCH  31  38
ENDBRANCH  29  34
ENDBRANCH  27  29
ENDBRANCH  25  27
ENDBRANCH  21  25
ENDBRANCH   1  22
TORSDOF 7
ENDMDL
MODEL 9
REMARK VINA RESULT:    -7.144      3.482     10.209
REMARK INTER + INTRA:         -10.567
REMARK INTER:                  -9.255
REMARK INTRA:                  -1.312
REMARK UNBOUND:                -0.499
REMARK  Name = resultss/4CJN/ligands/lig_426_t0.pdb
REMARK  8 active torsions:
REMARK  status: ('A' for Active; 'I' for Inactive)
REMARK    1  A    between atoms: C1_1  and  O1_2
REMARK    2  A    between atoms: O1_2  and  C2_3
REMARK    3  A    between atoms: C5_6  and  N1_7
REMARK    4  A    between atoms: N1_7  and  C6_8
REMARK    5  A    between atoms: C6_8  and  N2_10
REMARK    6  A    between atoms: N2_10  and  N3_11
REMARK    7  A    between atoms: C7_12  and  C8_14
REMARK    8  A    between atoms: C18_25  and  C19_26
REMARK                            x       y       z     vdW  Elec       q    Type
REMARK                         _______ _______ _______ _____ _____    ______ ____
ROOT
ATOM      1  C8  UNL     1      27.932  -9.755 -38.259  0.00  0.00    +0.000 A 
ATOM      2  C9  UNL     1      26.728  -9.294 -38.833  0.00  0.00    +0.000 A 
ATOM      3  C10 UNL     1      26.669  -9.233 -40.220  0.00  0.00    +0.000 A 
ATOM      4  C11 UNL     1      27.732  -9.599 -41.017  0.00  0.00    +0.000 A 
ATOM      5  N4  UNL     1      27.413  -9.518 -42.331  0.00  0.00    +0.000 N 
ATOM      6  C12 UNL     1      26.137  -9.077 -42.350  0.00  0.00    +0.000 A 
ATOM      7  C13 UNL     1      25.345  -8.841 -43.473  0.00  0.00    +0.000 A 
ATOM      8  C14 UNL     1      24.025  -8.398 -43.268  0.00  0.00    +0.000 A 
ATOM      9  C15 UNL     1      23.526  -8.209 -41.959  0.00  0.00    +0.000 A 
ATOM     10  C16 UNL     1      24.342  -8.459 -40.841  0.00  0.00    +0.000 A 
ATOM     11  C17 UNL     1      25.646  -8.890 -41.076  0.00  0.00    +0.000 A 
ATOM     12  C18 UNL     1      28.927 -10.041 -40.435  0.00  0.00    +0.000 A 
ATOM     13  N5  UNL     1      28.979 -10.112 -39.070  0.00  0.00    +0.000 NA
ATOM     14  H10 UNL     1      27.999  -9.773 -43.157  0.00  0.00    +0.000 HD
ENDROOT
BRANCH  12  15
ATOM     15  C19 UNL     1      30.112 -10.431 -41.227  0.00  0.00    +0.000 A 
ATOM     16  C20 UNL     1      31.323  -9.740 -41.058  0.00  0.00    +0.000 A 
ATOM     17  C21 UNL     1      32.445 -10.082 -41.819  0.00  0.00    +0.000 A 
ATOM     18  C22 UNL     1      32.363 -11.107 -42.765  0.00  0.00    +0.000 A 
ATOM     19  C23 UNL     1      31.156 -11.785 -42.958  0.00  0.00    +0.000 A 
ATOM     20  C24 UNL     1      30.033 -11.446 -42.198  0.00  0.00    +0.000 A 
ENDBRANCH  12  15
BRANCH   1  22
ATOM     21  N3  UNL     1      29.248  -9.359 -36.135  0.00  0.00    +0.000 N 
ATOM     22  C7  UNL     1      28.076  -9.869 -36.792  0.00  0.00    +0.000 C 
ATOM     23  O2  UNL     1      27.159 -10.401 -36.110  0.00  0.00    +0.000 OA
ATOM     24  H8  UNL     1      29.839  -8.656 -36.633  0.00  0.00    +0.000 HD
BRANCH  21  25
ATOM     25  N2  UNL     1      29.496  -9.580 -34.769  0.00  0.00    +0.000 N 
ATOM     26  H7  UNL     1      29.674 -10.557 -34.448  0.00  0.00    +0.000 HD
BRANCH  25  27
ATOM     27  C6  UNL     1      29.349  -8.553 -33.774  0.00  0.00    +0.000 C 
ATOM     28  S1  UNL     1      30.425  -8.450 -32.540  0.00  0.00    +0.000 S 
BRANCH  27  29
ATOM     29  N1  UNL     1      28.445  -7.459 -33.996  0.00  0.00    +0.000 N 
ATOM     30  H6  UNL     1      28.847  -6.496 -34.067  0.00  0.00    +0.000 HD
BRANCH  29  34
ATOM     31  C2  UNL     1      24.247  -7.991 -34.460  0.00  0.00    +0.000 A 
ATOM     32  C3  UNL     1      24.958  -7.197 -35.367  0.00  0.00    +0.000 A 
ATOM     33  C4  UNL     1      26.335  -7.013 -35.222  0.00  0.00    +0.000 A 
ATOM     34  C5  UNL     1      27.025  -7.614 -34.154  0.00  0.00    +0.000 A 
ATOM     35  C25 UNL     1      26.317  -8.426 -33.257  0.00  0.00    +0.000 A 
ATOM     36  C26 UNL     1      24.938  -8.610 -33.401  0.00  0.00    +0.000 A 
BRANCH  31  38
ATOM     37  C1  UNL     1      22.083  -7.351 -35.535  0.00  0.00    +0.000 C 
ATOM     38  O1  UNL     1      22.865  -8.141 -34.646  0.00  0.00    +0.000 OA
ENDBRANCH  31  38
ENDBRANCH  29  34
ENDBRANCH  27  29
ENDBRANCH  25  27
ENDBRANCH  21  25
ENDBRANCH   1  22
TORSDOF 7
ENDMDL
