MODEL 1
REMARK VINA RESULT:    -5.141      0.000      0.000
REMARK INTER + INTRA:          -8.107
REMARK INTER:                  -7.395
REMARK INTRA:                  -0.712
REMARK UNBOUND:                -0.712
REMARK  Name = resultss/4CJN/ligands/lig_60_t0.pdb
REMARK  13 active torsions:
REMARK  status: ('A' for Active; 'I' for Inactive)
REMARK    1  A    between atoms: C1_1  and  O1_2
REMARK    2  A    between atoms: O1_2  and  C2_3
REMARK    3  A    between atoms: C3_5  and  C4_6
REMARK    4  A    between atoms: C5_7  and  N1_8
REMARK    5  A    between atoms: N1_8  and  C6_9
REMARK    6  A    between atoms: C8_11  and  O3_12
REMARK    7  A    between atoms: C8_11  and  C9_13
REMARK    8  A    between atoms: C9_13  and  O4_14
REMARK    9  A    between atoms: C10_15  and  O5_16
REMARK   10  A    between atoms: C11_17  and  O6_18
REMARK   11  A    between atoms: C12_19  and  O7_20
REMARK   12  A    between atoms: C13_21  and  O8_22
REMARK   13  A    between atoms: C14_23  and  O9_24
REMARK                            x       y       z     vdW  Elec       q    Type
REMARK                         _______ _______ _______ _____ _____    ______ ____
ROOT
ATOM      1  C6  UNL     1      26.761  -7.853 -36.573  0.00  0.00    +0.000 C 
ATOM      2  C7  UNL     1      26.199  -9.235 -36.147  0.00  0.00    +0.000 C 
ATOM      3  C8  UNL     1      26.001  -9.395 -34.614  0.00  0.00    +0.000 C 
ATOM      4  C10 UNL     1      27.314  -9.041 -33.858  0.00  0.00    +0.000 C 
ATOM      5  C11 UNL     1      27.920  -7.672 -34.264  0.00  0.00    +0.000 C 
ATOM      6  C12 UNL     1      28.059  -7.508 -35.792  0.00  0.00    +0.000 C 
ENDROOT
BRANCH   1   7
ATOM      7  N1  UNL     1      27.059  -7.789 -38.022  0.00  0.00    +0.000 NA
ATOM      8  H10 UNL     1      26.726  -6.866 -38.390  0.00  0.00    +0.000 HD
BRANCH   7  13
ATOM      9  C2  UNL     1      25.919  -9.723 -41.598  0.00  0.00    +0.000 C 
ATOM     10  O2  UNL     1      27.070 -10.163 -40.895  0.00  0.00    +0.000 OA
ATOM     11  C3  UNL     1      27.546  -9.169 -40.000  0.00  0.00    +0.000 C 
ATOM     12  C4  UNL     1      28.861  -9.673 -39.398  0.00  0.00    +0.000 C 
ATOM     13  C5  UNL     1      26.510  -8.861 -38.885  0.00  0.00    +0.000 C 
ATOM     14  C13 UNL     1      25.150  -8.470 -39.521  0.00  0.00    +0.000 C 
ATOM     15  C14 UNL     1      24.761  -9.485 -40.615  0.00  0.00    +0.000 C 
BRANCH   9  17
ATOM     16  C1  UNL     1      27.068  -8.848 -43.413  0.00  0.00    +0.000 C 
ATOM     17  O1  UNL     1      26.181  -8.553 -42.357  0.00  0.00    +0.000 OA
ENDBRANCH   9  17
BRANCH  14  18
ATOM     18  O8  UNL     1      24.145  -8.465 -38.541  0.00  0.00    +0.000 OA
ATOM     19  H25 UNL     1      24.492  -7.942 -37.772  0.00  0.00    +0.000 HD
ENDBRANCH  14  18
BRANCH  15  20
ATOM     20  O9  UNL     1      23.595  -9.088 -41.295  0.00  0.00    +0.000 OA
ATOM     21  H27 UNL     1      22.955  -8.734 -40.624  0.00  0.00    +0.000 HD
ENDBRANCH  15  20
ENDBRANCH   7  13
ENDBRANCH   1   7
BRANCH   3  22
ATOM     22  O3  UNL     1      25.712 -10.749 -34.339  0.00  0.00    +0.000 OA
ATOM     23  H14 UNL     1      26.443 -11.307 -34.716  0.00  0.00    +0.000 HD
ENDBRANCH   3  22
BRANCH   4  24
ATOM     24  O5  UNL     1      28.262 -10.060 -34.072  0.00  0.00    +0.000 OA
ATOM     25  H19 UNL     1      28.275 -10.624 -33.255  0.00  0.00    +0.000 HD
ENDBRANCH   4  24
BRANCH   5  26
ATOM     26  O6  UNL     1      27.151  -6.616 -33.750  0.00  0.00    +0.000 OA
ATOM     27  H21 UNL     1      27.766  -5.849 -33.612  0.00  0.00    +0.000 HD
ENDBRANCH   5  26
BRANCH   6  28
ATOM     28  O7  UNL     1      29.178  -8.212 -36.280  0.00  0.00    +0.000 OA
ATOM     29  H23 UNL     1      28.860  -8.946 -36.862  0.00  0.00    +0.000 HD
ENDBRANCH   6  28
BRANCH   3  30
ATOM     30  C9  UNL     1      24.799  -8.534 -34.127  0.00  0.00    +0.000 C 
BRANCH  30  31
ATOM     31  O4  UNL     1      24.846  -8.332 -32.739  0.00  0.00    +0.000 OA
ATOM     32  H17 UNL     1      24.484  -9.154 -32.317  0.00  0.00    +0.000 HD
ENDBRANCH  30  31
ENDBRANCH   3  30
TORSDOF 11
ENDMDL
MODEL 2
REMARK VINA RESULT:    -5.133      1.018      2.447
REMARK INTER + INTRA:          -8.096
REMARK INTER:                  -7.353
REMARK INTRA:                  -0.743
REMARK UNBOUND:                -0.712
REMARK  Name = resultss/4CJN/ligands/lig_60_t0.pdb
REMARK  13 active torsions:
REMARK  status: ('A' for Active; 'I' for Inactive)
REMARK    1  A    between atoms: C1_1  and  O1_2
REMARK    2  A    between atoms: O1_2  and  C2_3
REMARK    3  A    between atoms: C3_5  and  C4_6
REMARK    4  A    between atoms: C5_7  and  N1_8
REMARK    5  A    between atoms: N1_8  and  C6_9
REMARK    6  A    between atoms: C8_11  and  O3_12
REMARK    7  A    between atoms: C8_11  and  C9_13
REMARK    8  A    between atoms: C9_13  and  O4_14
REMARK    9  A    between atoms: C10_15  and  O5_16
REMARK   10  A    between atoms: C11_17  and  O6_18
REMARK   11  A    between atoms: C12_19  and  O7_20
REMARK   12  A    between atoms: C13_21  and  O8_22
REMARK   13  A    between atoms: C14_23  and  O9_24
REMARK                            x       y       z     vdW  Elec       q    Type
REMARK                         _______ _______ _______ _____ _____    ______ ____
ROOT
ATOM      1  C6  UNL     1      27.114  -8.877 -36.553  0.00  0.00    +0.000 C 
ATOM      2  C7  UNL     1      28.123  -8.117 -35.653  0.00  0.00    +0.000 C 
ATOM      3  C8  UNL     1      28.111  -8.566 -34.165  0.00  0.00    +0.000 C 
ATOM      4  C10 UNL     1      26.664  -8.512 -33.594  0.00  0.00    +0.000 C 
ATOM      5  C11 UNL     1      25.618  -9.247 -34.472  0.00  0.00    +0.000 C 
ATOM      6  C12 UNL     1      25.680  -8.831 -35.956  0.00  0.00    +0.000 C 
ENDROOT
BRANCH   1   7
ATOM      7  N1  UNL     1      27.063  -8.331 -37.928  0.00  0.00    +0.000 NA
ATOM      8  H10 UNL     1      26.454  -7.478 -37.925  0.00  0.00    +0.000 HD
BRANCH   7  13
ATOM      9  C2  UNL     1      26.233  -9.594 -41.870  0.00  0.00    +0.000 C 
ATOM     10  O2  UNL     1      27.334 -10.149 -41.170  0.00  0.00    +0.000 OA
ATOM     11  C3  UNL     1      27.723  -9.331 -40.077  0.00  0.00    +0.000 C 
ATOM     12  C4  UNL     1      28.997  -9.931 -39.474  0.00  0.00    +0.000 C 
ATOM     13  C5  UNL     1      26.599  -9.232 -39.009  0.00  0.00    +0.000 C 
ATOM     14  C13 UNL     1      25.286  -8.737 -39.670  0.00  0.00    +0.000 C 
ATOM     15  C14 UNL     1      24.999  -9.540 -40.955  0.00  0.00    +0.000 C 
BRANCH   9  17
ATOM     16  C1  UNL     1      27.141  -8.419 -43.653  0.00  0.00    +0.000 C 
ATOM     17  O1  UNL     1      26.532  -8.305 -42.385  0.00  0.00    +0.000 OA
ENDBRANCH   9  17
BRANCH  14  18
ATOM     18  O8  UNL     1      24.209  -8.912 -38.787  0.00  0.00    +0.000 OA
ATOM     19  H25 UNL     1      23.689  -8.066 -38.792  0.00  0.00    +0.000 HD
ENDBRANCH  14  18
BRANCH  15  20
ATOM     20  O9  UNL     1      23.882  -9.030 -41.642  0.00  0.00    +0.000 OA
ATOM     21  H27 UNL     1      23.913  -8.040 -41.582  0.00  0.00    +0.000 HD
ENDBRANCH  15  20
ENDBRANCH   7  13
ENDBRANCH   1   7
BRANCH   3  22
ATOM     22  O3  UNL     1      28.890  -7.658 -33.417  0.00  0.00    +0.000 OA
ATOM     23  H14 UNL     1      28.533  -6.742 -33.567  0.00  0.00    +0.000 HD
ENDBRANCH   3  22
BRANCH   4  24
ATOM     24  O5  UNL     1      26.281  -7.167 -33.429  0.00  0.00    +0.000 OA
ATOM     25  H19 UNL     1      26.919  -6.615 -33.953  0.00  0.00    +0.000 HD
ENDBRANCH   4  24
BRANCH   5  26
ATOM     26  O6  UNL     1      25.777 -10.639 -34.372  0.00  0.00    +0.000 OA
ATOM     27  H21 UNL     1      26.643 -10.864 -34.802  0.00  0.00    +0.000 HD
ENDBRANCH   5  26
BRANCH   6  28
ATOM     28  O7  UNL     1      25.058  -7.583 -36.160  0.00  0.00    +0.000 OA
ATOM     29  H23 UNL     1      24.089  -7.682 -35.990  0.00  0.00    +0.000 HD
ENDBRANCH   6  28
BRANCH   3  30
ATOM     30  C9  UNL     1      28.742  -9.982 -34.018  0.00  0.00    +0.000 C 
BRANCH  30  31
ATOM     31  O4  UNL     1      29.772  -9.985 -33.064  0.00  0.00    +0.000 OA
ATOM     32  H17 UNL     1      30.005  -9.035 -32.892  0.00  0.00    +0.000 HD
ENDBRANCH  30  31
ENDBRANCH   3  30
TORSDOF 11
ENDMDL
MODEL 3
REMARK VINA RESULT:    -4.995      1.687      7.043
REMARK INTER + INTRA:          -7.897
REMARK INTER:                  -6.948
REMARK INTRA:                  -0.949
REMARK UNBOUND:                -0.712
REMARK  Name = resultss/4CJN/ligands/lig_60_t0.pdb
REMARK  13 active torsions:
REMARK  status: ('A' for Active; 'I' for Inactive)
REMARK    1  A    between atoms: C1_1  and  O1_2
REMARK    2  A    between atoms: O1_2  and  C2_3
REMARK    3  A    between atoms: C3_5  and  C4_6
REMARK    4  A    between atoms: C5_7  and  N1_8
REMARK    5  A    between atoms: N1_8  and  C6_9
REMARK    6  A    between atoms: C8_11  and  O3_12
REMARK    7  A    between atoms: C8_11  and  C9_13
REMARK    8  A    between atoms: C9_13  and  O4_14
REMARK    9  A    between atoms: C10_15  and  O5_16
REMARK   10  A    between atoms: C11_17  and  O6_18
REMARK   11  A    between atoms: C12_19  and  O7_20
REMARK   12  A    between atoms: C13_21  and  O8_22
REMARK   13  A    between atoms: C14_23  and  O9_24
REMARK                            x       y       z     vdW  Elec       q    Type
REMARK                         _______ _______ _______ _____ _____    ______ ____
ROOT
ATOM      1  C6  UNL     1      25.685  -8.662 -39.455  0.00  0.00    +0.000 C 
ATOM      2  C7  UNL     1      25.481  -7.543 -40.511  0.00  0.00    +0.000 C 
ATOM      3  C8  UNL     1      24.961  -8.053 -41.884  0.00  0.00    +0.000 C 
ATOM      4  C10 UNL     1      25.870  -9.200 -42.416  0.00  0.00    +0.000 C 
ATOM      5  C11 UNL     1      26.115 -10.333 -41.386  0.00  0.00    +0.000 C 
ATOM      6  C12 UNL     1      26.577  -9.806 -40.012  0.00  0.00    +0.000 C 
ENDROOT
BRANCH   1   7
ATOM      7  N1  UNL     1      26.304  -8.154 -38.210  0.00  0.00    +0.000 NA
ATOM      8  H10 UNL     1      27.340  -8.091 -38.354  0.00  0.00    +0.000 HD
BRANCH   7  13
ATOM      9  C2  UNL     1      26.269  -8.935 -34.061  0.00  0.00    +0.000 C 
ATOM     10  O2  UNL     1      25.059  -8.618 -34.728  0.00  0.00    +0.000 OA
ATOM     11  C3  UNL     1      25.301  -7.975 -35.970  0.00  0.00    +0.000 C 
ATOM     12  C4  UNL     1      23.948  -7.546 -36.546  0.00  0.00    +0.000 C 
ATOM     13  C5  UNL     1      26.051  -8.908 -36.959  0.00  0.00    +0.000 C 
ATOM     14  C13 UNL     1      27.360  -9.426 -36.306  0.00  0.00    +0.000 C 
ATOM     15  C14 UNL     1      27.075  -9.953 -34.885  0.00  0.00    +0.000 C 
BRANCH   9  17
ATOM     16  C1  UNL     1      27.287  -7.655 -32.414  0.00  0.00    +0.000 C 
ATOM     17  O1  UNL     1      27.045  -7.775 -33.799  0.00  0.00    +0.000 OA
ENDBRANCH   9  17
BRANCH  14  18
ATOM     18  O8  UNL     1      27.895 -10.476 -37.070  0.00  0.00    +0.000 OA
ATOM     19  H25 UNL     1      28.779 -10.171 -37.404  0.00  0.00    +0.000 HD
ENDBRANCH  14  18
BRANCH  15  20
ATOM     20  O9  UNL     1      28.262 -10.313 -34.222  0.00  0.00    +0.000 OA
ATOM     21  H27 UNL     1      28.025 -10.584 -33.297  0.00  0.00    +0.000 HD
ENDBRANCH  15  20
ENDBRANCH   7  13
ENDBRANCH   1   7
BRANCH   3  22
ATOM     22  O3  UNL     1      25.037  -6.994 -42.813  0.00  0.00    +0.000 OA
ATOM     23  H14 UNL     1      25.626  -7.278 -43.563  0.00  0.00    +0.000 HD
ENDBRANCH   3  22
BRANCH   4  24
ATOM     24  O5  UNL     1      27.104  -8.659 -42.826  0.00  0.00    +0.000 OA
ATOM     25  H19 UNL     1      27.757  -8.835 -42.098  0.00  0.00    +0.000 HD
ENDBRANCH   4  24
BRANCH   5  26
ATOM     26  O6  UNL     1      24.957 -11.112 -41.221  0.00  0.00    +0.000 OA
ATOM     27  H21 UNL     1      25.095 -11.949 -41.737  0.00  0.00    +0.000 HD
ENDBRANCH   5  26
BRANCH   6  28
ATOM     28  O7  UNL     1      27.941  -9.456 -40.034  0.00  0.00    +0.000 OA
ATOM     29  H23 UNL     1      28.367  -9.788 -39.206  0.00  0.00    +0.000 HD
ENDBRANCH   6  28
BRANCH   3  30
ATOM     30  C9  UNL     1      23.472  -8.496 -41.773  0.00  0.00    +0.000 C 
BRANCH  30  31
ATOM     31  O4  UNL     1      23.147  -9.440 -42.759  0.00  0.00    +0.000 OA
ATOM     32  H17 UNL     1      22.859  -8.930 -43.561  0.00  0.00    +0.000 HD
ENDBRANCH  30  31
ENDBRANCH   3  30
TORSDOF 11
ENDMDL
MODEL 4
REMARK VINA RESULT:    -4.780      2.133      7.265
REMARK INTER + INTRA:          -7.588
REMARK INTER:                  -6.604
REMARK INTRA:                  -0.984
REMARK UNBOUND:                -0.712
REMARK  Name = resultss/4CJN/ligands/lig_60_t0.pdb
REMARK  13 active torsions:
REMARK  status: ('A' for Active; 'I' for Inactive)
REMARK    1  A    between atoms: C1_1  and  O1_2
REMARK    2  A    between atoms: O1_2  and  C2_3
REMARK    3  A    between atoms: C3_5  and  C4_6
REMARK    4  A    between atoms: C5_7  and  N1_8
REMARK    5  A    between atoms: N1_8  and  C6_9
REMARK    6  A    between atoms: C8_11  and  O3_12
REMARK    7  A    between atoms: C8_11  and  C9_13
REMARK    8  A    between atoms: C9_13  and  O4_14
REMARK    9  A    between atoms: C10_15  and  O5_16
REMARK   10  A    between atoms: C11_17  and  O6_18
REMARK   11  A    between atoms: C12_19  and  O7_20
REMARK   12  A    between atoms: C13_21  and  O8_22
REMARK   13  A    between atoms: C14_23  and  O9_24
REMARK                            x       y       z     vdW  Elec       q    Type
REMARK                         _______ _______ _______ _____ _____    ______ ____
ROOT
ATOM      1  C6  UNL     1      25.350  -8.184 -40.807  0.00  0.00    +0.000 C 
ATOM      2  C7  UNL     1      24.956  -6.878 -41.545  0.00  0.00    +0.000 C 
ATOM      3  C8  UNL     1      24.009  -7.095 -42.758  0.00  0.00    +0.000 C 
ATOM      4  C10 UNL     1      24.604  -8.157 -43.728  0.00  0.00    +0.000 C 
ATOM      5  C11 UNL     1      25.027  -9.475 -43.029  0.00  0.00    +0.000 C 
ATOM      6  C12 UNL     1      25.922  -9.239 -41.794  0.00  0.00    +0.000 C 
ENDROOT
BRANCH   1   7
ATOM      7  N1  UNL     1      26.355  -7.949 -39.745  0.00  0.00    +0.000 NA
ATOM      8  H10 UNL     1      27.262  -7.684 -40.197  0.00  0.00    +0.000 HD
BRANCH   7  13
ATOM      9  C2  UNL     1      27.768  -9.819 -36.233  0.00  0.00    +0.000 C 
ATOM     10  O2  UNL     1      26.377  -9.596 -36.401  0.00  0.00    +0.000 OA
ATOM     11  C3  UNL     1      26.124  -8.604 -37.384  0.00  0.00    +0.000 C 
ATOM     12  C4  UNL     1      24.616  -8.330 -37.394  0.00  0.00    +0.000 C 
ATOM     13  C5  UNL     1      26.614  -9.052 -38.788  0.00  0.00    +0.000 C 
ATOM     14  C13 UNL     1      28.115  -9.439 -38.724  0.00  0.00    +0.000 C 
ATOM     15  C14 UNL     1      28.373 -10.380 -37.531  0.00  0.00    +0.000 C 
BRANCH   9  17
ATOM     16  C1  UNL     1      28.740  -8.690 -34.455  0.00  0.00    +0.000 C 
ATOM     17  O1  UNL     1      28.445  -8.637 -35.833  0.00  0.00    +0.000 OA
ENDBRANCH   9  17
BRANCH  14  18
ATOM     18  O8  UNL     1      28.489 -10.103 -39.903  0.00  0.00    +0.000 OA
ATOM     19  H25 UNL     1      28.400  -9.450 -40.645  0.00  0.00    +0.000 HD
ENDBRANCH  14  18
BRANCH  15  20
ATOM     20  O9  UNL     1      29.745 -10.648 -37.373  0.00  0.00    +0.000 OA
ATOM     21  H27 UNL     1      30.040 -11.197 -38.145  0.00  0.00    +0.000 HD
ENDBRANCH  15  20
ENDBRANCH   7  13
ENDBRANCH   1   7
BRANCH   3  22
ATOM     22  O3  UNL     1      23.912  -5.883 -43.474  0.00  0.00    +0.000 OA
ATOM     23  H14 UNL     1      24.224  -6.044 -44.404  0.00  0.00    +0.000 HD
ENDBRANCH   3  22
BRANCH   4  24
ATOM     24  O5  UNL     1      25.710  -7.602 -44.400  0.00  0.00    +0.000 OA
ATOM     25  H19 UNL     1      26.234  -8.358 -44.776  0.00  0.00    +0.000 HD
ENDBRANCH   4  24
BRANCH   5  26
ATOM     26  O6  UNL     1      23.898 -10.220 -42.650  0.00  0.00    +0.000 OA
ATOM     27  H21 UNL     1      23.239  -9.579 -42.276  0.00  0.00    +0.000 HD
ENDBRANCH   5  26
BRANCH   6  28
ATOM     28  O7  UNL     1      27.247  -8.950 -42.175  0.00  0.00    +0.000 OA
ATOM     29  H23 UNL     1      27.268  -8.795 -43.152  0.00  0.00    +0.000 HD
ENDBRANCH   6  28
BRANCH   3  30
ATOM     30  C9  UNL     1      22.582  -7.486 -42.272  0.00  0.00    +0.000 C 
BRANCH  30  31
ATOM     31  O4  UNL     1      21.852  -8.118 -43.291  0.00  0.00    +0.000 OA
ATOM     32  H17 UNL     1      21.153  -7.476 -43.583  0.00  0.00    +0.000 HD
ENDBRANCH  30  31
ENDBRANCH   3  30
TORSDOF 11
ENDMDL
MODEL 5
REMARK VINA RESULT:    -4.583      1.685      2.280
REMARK INTER + INTRA:          -7.305
REMARK INTER:                  -6.799
REMARK INTRA:                  -0.506
REMARK UNBOUND:                -0.712
REMARK  Name = resultss/4CJN/ligands/lig_60_t0.pdb
REMARK  13 active torsions:
REMARK  status: ('A' for Active; 'I' for Inactive)
REMARK    1  A    between atoms: C1_1  and  O1_2
REMARK    2  A    between atoms: O1_2  and  C2_3
REMARK    3  A    between atoms: C3_5  and  C4_6
REMARK    4  A    between atoms: C5_7  and  N1_8
REMARK    5  A    between atoms: N1_8  and  C6_9
REMARK    6  A    between atoms: C8_11  and  O3_12
REMARK    7  A    between atoms: C8_11  and  C9_13
REMARK    8  A    between atoms: C9_13  and  O4_14
REMARK    9  A    between atoms: C10_15  and  O5_16
REMARK   10  A    between atoms: C11_17  and  O6_18
REMARK   11  A    between atoms: C12_19  and  O7_20
REMARK   12  A    between atoms: C13_21  and  O8_22
REMARK   13  A    between atoms: C14_23  and  O9_24
REMARK                            x       y       z     vdW  Elec       q    Type
REMARK                         _______ _______ _______ _____ _____    ______ ____
ROOT
ATOM      1  C6  UNL     1      28.385  -9.168 -37.245  0.00  0.00    +0.000 C 
ATOM      2  C7  UNL     1      27.373 -10.122 -36.558  0.00  0.00    +0.000 C 
ATOM      3  C8  UNL     1      26.743  -9.550 -35.257  0.00  0.00    +0.000 C 
ATOM      4  C10 UNL     1      27.857  -9.076 -34.278  0.00  0.00    +0.000 C 
ATOM      5  C11 UNL     1      28.901  -8.132 -34.928  0.00  0.00    +0.000 C 
ATOM      6  C12 UNL     1      29.476  -8.689 -36.247  0.00  0.00    +0.000 C 
ENDROOT
BRANCH   1   7
ATOM      7  N1  UNL     1      29.059  -9.801 -38.402  0.00  0.00    +0.000 NA
ATOM      8  H10 UNL     1      30.043  -9.445 -38.449  0.00  0.00    +0.000 HD
BRANCH   7  13
ATOM      9  C2  UNL     1      26.168  -8.606 -41.238  0.00  0.00    +0.000 C 
ATOM     10  O2  UNL     1      27.399  -7.907 -41.150  0.00  0.00    +0.000 OA
ATOM     11  C3  UNL     1      28.042  -8.139 -39.906  0.00  0.00    +0.000 C 
ATOM     12  C4  UNL     1      29.281  -7.240 -39.846  0.00  0.00    +0.000 C 
ATOM     13  C5  UNL     1      28.435  -9.632 -39.736  0.00  0.00    +0.000 C 
ATOM     14  C13 UNL     1      27.185 -10.532 -39.922  0.00  0.00    +0.000 C 
ATOM     15  C14 UNL     1      26.418 -10.123 -41.196  0.00  0.00    +0.000 C 
BRANCH   9  17
ATOM     16  C1  UNL     1      24.215  -7.452 -40.753  0.00  0.00    +0.000 C 
ATOM     17  O1  UNL     1      25.268  -8.218 -40.211  0.00  0.00    +0.000 OA
ENDBRANCH   9  17
BRANCH  14  18
ATOM     18  O8  UNL     1      27.573 -11.875 -40.049  0.00  0.00    +0.000 OA
ATOM     19  H25 UNL     1      26.898 -12.318 -40.627  0.00  0.00    +0.000 HD
ENDBRANCH  14  18
BRANCH  15  20
ATOM     20  O9  UNL     1      25.213 -10.837 -41.323  0.00  0.00    +0.000 OA
ATOM     21  H27 UNL     1      25.438 -11.789 -41.491  0.00  0.00    +0.000 HD
ENDBRANCH  15  20
ENDBRANCH   7  13
ENDBRANCH   1   7
BRANCH   3  22
ATOM     22  O3  UNL     1      26.031 -10.583 -34.612  0.00  0.00    +0.000 OA
ATOM     23  H14 UNL     1      26.673 -11.304 -34.374  0.00  0.00    +0.000 HD
ENDBRANCH   3  22
BRANCH   4  24
ATOM     24  O5  UNL     1      28.509 -10.202 -33.739  0.00  0.00    +0.000 OA
ATOM     25  H19 UNL     1      28.112 -10.370 -32.844  0.00  0.00    +0.000 HD
ENDBRANCH   4  24
BRANCH   5  26
ATOM     26  O6  UNL     1      28.345  -6.863 -35.162  0.00  0.00    +0.000 OA
ATOM     27  H21 UNL     1      27.843  -6.920 -36.017  0.00  0.00    +0.000 HD
ENDBRANCH   5  26
BRANCH   6  28
ATOM     28  O7  UNL     1      30.444  -9.682 -36.000  0.00  0.00    +0.000 OA
ATOM     29  H23 UNL     1      31.342  -9.292 -36.148  0.00  0.00    +0.000 HD
ENDBRANCH   6  28
BRANCH   3  30
ATOM     30  C9  UNL     1      25.741  -8.407 -35.594  0.00  0.00    +0.000 C 
BRANCH  30  31
ATOM     31  O4  UNL     1      24.433  -8.747 -35.214  0.00  0.00    +0.000 OA
ATOM     32  H17 UNL     1      23.880  -7.931 -35.328  0.00  0.00    +0.000 HD
ENDBRANCH  30  31
ENDBRANCH   3  30
TORSDOF 11
ENDMDL
MODEL 6
REMARK VINA RESULT:    -4.578      1.977      6.531
REMARK INTER + INTRA:          -7.297
REMARK INTER:                  -7.160
REMARK INTRA:                  -0.137
REMARK UNBOUND:                -0.712
REMARK  Name = resultss/4CJN/ligands/lig_60_t0.pdb
REMARK  13 active torsions:
REMARK  status: ('A' for Active; 'I' for Inactive)
REMARK    1  A    between atoms: C1_1  and  O1_2
REMARK    2  A    between atoms: O1_2  and  C2_3
REMARK    3  A    between atoms: C3_5  and  C4_6
REMARK    4  A    between atoms: C5_7  and  N1_8
REMARK    5  A    between atoms: N1_8  and  C6_9
REMARK    6  A    between atoms: C8_11  and  O3_12
REMARK    7  A    between atoms: C8_11  and  C9_13
REMARK    8  A    between atoms: C9_13  and  O4_14
REMARK    9  A    between atoms: C10_15  and  O5_16
REMARK   10  A    between atoms: C11_17  and  O6_18
REMARK   11  A    between atoms: C12_19  and  O7_20
REMARK   12  A    between atoms: C13_21  and  O8_22
REMARK   13  A    between atoms: C14_23  and  O9_24
REMARK                            x       y       z     vdW  Elec       q    Type
REMARK                         _______ _______ _______ _____ _____    ______ ____
ROOT
ATOM      1  C6  UNL     1      24.915  -7.620 -40.037  0.00  0.00    +0.000 C 
ATOM      2  C7  UNL     1      24.845  -9.167 -40.126  0.00  0.00    +0.000 C 
ATOM      3  C8  UNL     1      25.300  -9.746 -41.494  0.00  0.00    +0.000 C 
ATOM      4  C10 UNL     1      24.527  -9.059 -42.658  0.00  0.00    +0.000 C 
ATOM      5  C11 UNL     1      24.557  -7.510 -42.599  0.00  0.00    +0.000 C 
ATOM      6  C12 UNL     1      24.156  -6.953 -41.218  0.00  0.00    +0.000 C 
ENDROOT
BRANCH   1   7
ATOM      7  N1  UNL     1      24.350  -7.102 -38.770  0.00  0.00    +0.000 NA
ATOM      8  H10 UNL     1      24.158  -6.079 -38.884  0.00  0.00    +0.000 HD
BRANCH   7  13
ATOM      9  C2  UNL     1      27.145  -8.901 -36.165  0.00  0.00    +0.000 C 
ATOM     10  O2  UNL     1      27.463  -7.674 -36.802  0.00  0.00    +0.000 OA
ATOM     11  C3  UNL     1      26.640  -7.445 -37.935  0.00  0.00    +0.000 C 
ATOM     12  C4  UNL     1      27.147  -6.180 -38.634  0.00  0.00    +0.000 C 
ATOM     13  C5  UNL     1      25.147  -7.293 -37.534  0.00  0.00    +0.000 C 
ATOM     14  C13 UNL     1      24.689  -8.534 -36.722  0.00  0.00    +0.000 C 
ATOM     15  C14 UNL     1      25.711  -8.851 -35.612  0.00  0.00    +0.000 C 
BRANCH   9  17
ATOM     16  C1  UNL     1      28.677 -10.273 -37.239  0.00  0.00    +0.000 C 
ATOM     17  O1  UNL     1      27.306 -10.005 -37.042  0.00  0.00    +0.000 OA
ENDBRANCH   9  17
BRANCH  14  18
ATOM     18  O8  UNL     1      23.445  -8.284 -36.123  0.00  0.00    +0.000 OA
ATOM     19  H25 UNL     1      23.594  -7.599 -35.420  0.00  0.00    +0.000 HD
ENDBRANCH  14  18
BRANCH  15  20
ATOM     20  O9  UNL     1      25.388 -10.044 -34.939  0.00  0.00    +0.000 OA
ATOM     21  H27 UNL     1      26.063 -10.185 -34.226  0.00  0.00    +0.000 HD
ENDBRANCH  15  20
ENDBRANCH   7  13
ENDBRANCH   1   7
BRANCH   3  22
ATOM     22  O3  UNL     1      24.975 -11.119 -41.530  0.00  0.00    +0.000 OA
ATOM     23  H14 UNL     1      25.428 -11.527 -42.316  0.00  0.00    +0.000 HD
ENDBRANCH   3  22
BRANCH   4  24
ATOM     24  O5  UNL     1      23.191  -9.506 -42.653  0.00  0.00    +0.000 OA
ATOM     25  H19 UNL     1      23.215 -10.499 -42.662  0.00  0.00    +0.000 HD
ENDBRANCH   4  24
BRANCH   5  26
ATOM     26  O6  UNL     1      25.829  -7.025 -42.946  0.00  0.00    +0.000 OA
ATOM     27  H21 UNL     1      26.088  -7.472 -43.794  0.00  0.00    +0.000 HD
ENDBRANCH   5  26
BRANCH   6  28
ATOM     28  O7  UNL     1      22.759  -6.989 -41.041  0.00  0.00    +0.000 OA
ATOM     29  H23 UNL     1      22.561  -7.409 -40.168  0.00  0.00    +0.000 HD
ENDBRANCH   6  28
BRANCH   3  30
ATOM     30  C9  UNL     1      26.842  -9.608 -41.660  0.00  0.00    +0.000 C 
BRANCH  30  31
ATOM     31  O4  UNL     1      27.212  -9.618 -43.013  0.00  0.00    +0.000 OA
ATOM     32  H17 UNL     1      27.541 -10.533 -43.214  0.00  0.00    +0.000 HD
ENDBRANCH  30  31
ENDBRANCH   3  30
TORSDOF 11
ENDMDL
MODEL 7
REMARK VINA RESULT:    -4.426      3.464      5.121
REMARK INTER + INTRA:          -7.078
REMARK INTER:                  -6.502
REMARK INTRA:                  -0.576
REMARK UNBOUND:                -0.712
REMARK  Name = resultss/4CJN/ligands/lig_60_t0.pdb
REMARK  13 active torsions:
REMARK  status: ('A' for Active; 'I' for Inactive)
REMARK    1  A    between atoms: C1_1  and  O1_2
REMARK    2  A    between atoms: O1_2  and  C2_3
REMARK    3  A    between atoms: C3_5  and  C4_6
REMARK    4  A    between atoms: C5_7  and  N1_8
REMARK    5  A    between atoms: N1_8  and  C6_9
REMARK    6  A    between atoms: C8_11  and  O3_12
REMARK    7  A    between atoms: C8_11  and  C9_13
REMARK    8  A    between atoms: C9_13  and  O4_14
REMARK    9  A    between atoms: C10_15  and  O5_16
REMARK   10  A    between atoms: C11_17  and  O6_18
REMARK   11  A    between atoms: C12_19  and  O7_20
REMARK   12  A    between atoms: C13_21  and  O8_22
REMARK   13  A    between atoms: C14_23  and  O9_24
REMARK                            x       y       z     vdW  Elec       q    Type
REMARK                         _______ _______ _______ _____ _____    ______ ____
ROOT
ATOM      1  C6  UNL     1      26.579  -8.783 -34.333  0.00  0.00    +0.000 C 
ATOM      2  C7  UNL     1      25.135  -9.329 -34.184  0.00  0.00    +0.000 C 
ATOM      3  C8  UNL     1      24.028  -8.314 -34.580  0.00  0.00    +0.000 C 
ATOM      4  C10 UNL     1      24.226  -6.970 -33.819  0.00  0.00    +0.000 C 
ATOM      5  C11 UNL     1      25.662  -6.396 -33.928  0.00  0.00    +0.000 C 
ATOM      6  C12 UNL     1      26.752  -7.433 -33.585  0.00  0.00    +0.000 C 
ENDROOT
BRANCH   1   7
ATOM      7  N1  UNL     1      27.595  -9.732 -33.822  0.00  0.00    +0.000 NA
ATOM      8  H10 UNL     1      27.961  -9.368 -32.910  0.00  0.00    +0.000 HD
BRANCH   7  13
ATOM      9  C2  UNL     1      30.913  -8.975 -36.321  0.00  0.00    +0.000 C 
ATOM     10  O2  UNL     1      31.119  -9.460 -35.004  0.00  0.00    +0.000 OA
ATOM     11  C3  UNL     1      29.980  -9.245 -34.185  0.00  0.00    +0.000 C 
ATOM     12  C4  UNL     1      30.344  -9.666 -32.758  0.00  0.00    +0.000 C 
ATOM     13  C5  UNL     1      28.749 -10.041 -34.699  0.00  0.00    +0.000 C 
ATOM     14  C13 UNL     1      28.474  -9.687 -36.184  0.00  0.00    +0.000 C 
ATOM     15  C14 UNL     1      29.780  -9.762 -37.001  0.00  0.00    +0.000 C 
BRANCH   9  17
ATOM     16  C1  UNL     1      31.835  -6.848 -36.414  0.00  0.00    +0.000 C 
ATOM     17  O1  UNL     1      30.634  -7.583 -36.331  0.00  0.00    +0.000 OA
ENDBRANCH   9  17
BRANCH  14  18
ATOM     18  O8  UNL     1      27.555 -10.596 -36.732  0.00  0.00    +0.000 OA
ATOM     19  H25 UNL     1      28.012 -11.477 -36.780  0.00  0.00    +0.000 HD
ENDBRANCH  14  18
BRANCH  15  20
ATOM     20  O9  UNL     1      29.586  -9.325 -38.324  0.00  0.00    +0.000 OA
ATOM     21  H27 UNL     1      30.295  -9.731 -38.887  0.00  0.00    +0.000 HD
ENDBRANCH  15  20
ENDBRANCH   7  13
ENDBRANCH   1   7
BRANCH   3  22
ATOM     22  O3  UNL     1      22.778  -8.836 -34.187  0.00  0.00    +0.000 OA
ATOM     23  H14 UNL     1      22.436  -9.416 -34.919  0.00  0.00    +0.000 HD
ENDBRANCH   3  22
BRANCH   4  24
ATOM     24  O5  UNL     1      23.892  -7.153 -32.463  0.00  0.00    +0.000 OA
ATOM     25  H19 UNL     1      24.508  -6.585 -31.930  0.00  0.00    +0.000 HD
ENDBRANCH   4  24
BRANCH   5  26
ATOM     26  O6  UNL     1      25.895  -5.884 -35.215  0.00  0.00    +0.000 OA
ATOM     27  H21 UNL     1      25.465  -6.507 -35.858  0.00  0.00    +0.000 HD
ENDBRANCH   5  26
BRANCH   6  28
ATOM     28  O7  UNL     1      26.867  -7.607 -32.191  0.00  0.00    +0.000 OA
ATOM     29  H23 UNL     1      26.993  -8.570 -32.002  0.00  0.00    +0.000 HD
ENDBRANCH   6  28
BRANCH   3  30
ATOM     30  C9  UNL     1      24.003  -8.108 -36.124  0.00  0.00    +0.000 C 
BRANCH  30  31
ATOM     31  O4  UNL     1      24.950  -8.926 -36.762  0.00  0.00    +0.000 OA
ATOM     32  H17 UNL     1      25.737  -8.976 -36.160  0.00  0.00    +0.000 HD
ENDBRANCH  30  31
ENDBRANCH   3  30
TORSDOF 11
ENDMDL
MODEL 8
REMARK VINA RESULT:    -4.384      2.657      4.705
REMARK INTER + INTRA:          -7.018
REMARK INTER:                  -6.038
REMARK INTRA:                  -0.980
REMARK UNBOUND:                -0.712
REMARK  Name = resultss/4CJN/ligands/lig_60_t0.pdb
REMARK  13 active torsions:
REMARK  status: ('A' for Active; 'I' for Inactive)
REMARK    1  A    between atoms: C1_1  and  O1_2
REMARK    2  A    between atoms: O1_2  and  C2_3
REMARK    3  A    between atoms: C3_5  and  C4_6
REMARK    4  A    between atoms: C5_7  and  N1_8
REMARK    5  A    between atoms: N1_8  and  C6_9
REMARK    6  A    between atoms: C8_11  and  O3_12
REMARK    7  A    between atoms: C8_11  and  C9_13
REMARK    8  A    between atoms: C9_13  and  O4_14
REMARK    9  A    between atoms: C10_15  and  O5_16
REMARK   10  A    between atoms: C11_17  and  O6_18
REMARK   11  A    between atoms: C12_19  and  O7_20
REMARK   12  A    between atoms: C13_21  and  O8_22
REMARK   13  A    between atoms: C14_23  and  O9_24
REMARK                            x       y       z     vdW  Elec       q    Type
REMARK                         _______ _______ _______ _____ _____    ______ ____
ROOT
ATOM      1  C6  UNL     1      26.089  -8.718 -39.639  0.00  0.00    +0.000 C 
ATOM      2  C7  UNL     1      25.885  -9.246 -38.195  0.00  0.00    +0.000 C 
ATOM      3  C8  UNL     1      27.191  -9.322 -37.356  0.00  0.00    +0.000 C 
ATOM      4  C10 UNL     1      28.282 -10.126 -38.123  0.00  0.00    +0.000 C 
ATOM      5  C11 UNL     1      28.507  -9.642 -39.579  0.00  0.00    +0.000 C 
ATOM      6  C12 UNL     1      27.195  -9.519 -40.381  0.00  0.00    +0.000 C 
ENDROOT
BRANCH   1   7
ATOM      7  N1  UNL     1      24.847  -8.786 -40.444  0.00  0.00    +0.000 NA
ATOM      8  H10 UNL     1      24.745  -9.759 -40.818  0.00  0.00    +0.000 HD
BRANCH   7  13
ATOM      9  C2  UNL     1      22.952  -6.749 -43.619  0.00  0.00    +0.000 C 
ATOM     10  O2  UNL     1      23.205  -6.071 -42.399  0.00  0.00    +0.000 OA
ATOM     11  C3  UNL     1      23.430  -6.982 -41.334  0.00  0.00    +0.000 C 
ATOM     12  C4  UNL     1      23.551  -6.169 -40.041  0.00  0.00    +0.000 C 
ATOM     13  C5  UNL     1      24.706  -7.834 -41.572  0.00  0.00    +0.000 C 
ATOM     14  C13 UNL     1      24.613  -8.554 -42.943  0.00  0.00    +0.000 C 
ATOM     15  C14 UNL     1      24.191  -7.556 -44.041  0.00  0.00    +0.000 C 
BRANCH   9  17
ATOM     16  C1  UNL     1      20.634  -6.829 -43.670  0.00  0.00    +0.000 C 
ATOM     17  O1  UNL     1      21.812  -7.591 -43.527  0.00  0.00    +0.000 OA
ENDBRANCH   9  17
BRANCH  14  18
ATOM     18  O8  UNL     1      25.863  -9.092 -43.289  0.00  0.00    +0.000 OA
ATOM     19  H25 UNL     1      26.477  -8.326 -43.439  0.00  0.00    +0.000 HD
ENDBRANCH  14  18
BRANCH  15  20
ATOM     20  O9  UNL     1      23.976  -8.204 -45.271  0.00  0.00    +0.000 OA
ATOM     21  H27 UNL     1      23.235  -7.737 -45.737  0.00  0.00    +0.000 HD
ENDBRANCH  15  20
ENDBRANCH   7  13
ENDBRANCH   1   7
BRANCH   3  22
ATOM     22  O3  UNL     1      26.918 -10.023 -36.163  0.00  0.00    +0.000 OA
ATOM     23  H14 UNL     1      27.762 -10.097 -35.643  0.00  0.00    +0.000 HD
ENDBRANCH   3  22
BRANCH   4  24
ATOM     24  O5  UNL     1      27.934 -11.491 -38.128  0.00  0.00    +0.000 OA
ATOM     25  H19 UNL     1      28.382 -11.910 -37.347  0.00  0.00    +0.000 HD
ENDBRANCH   4  24
BRANCH   5  26
ATOM     26  O6  UNL     1      29.180  -8.409 -39.594  0.00  0.00    +0.000 OA
ATOM     27  H21 UNL     1      30.150  -8.609 -39.659  0.00  0.00    +0.000 HD
ENDBRANCH   5  26
BRANCH   6  28
ATOM     28  O7  UNL     1      26.741 -10.781 -40.811  0.00  0.00    +0.000 OA
ATOM     29  H23 UNL     1      25.759 -10.818 -40.702  0.00  0.00    +0.000 HD
ENDBRANCH   6  28
BRANCH   3  30
ATOM     30  C9  UNL     1      27.681  -7.893 -36.978  0.00  0.00    +0.000 C 
BRANCH  30  31
ATOM     31  O4  UNL     1      29.039  -7.897 -36.623  0.00  0.00    +0.000 OA
ATOM     32  H17 UNL     1      29.308  -8.848 -36.531  0.00  0.00    +0.000 HD
ENDBRANCH  30  31
ENDBRANCH   3  30
TORSDOF 11
ENDMDL
MODEL 9
REMARK VINA RESULT:    -4.297      1.661      6.207
REMARK INTER + INTRA:          -6.893
REMARK INTER:                  -6.083
REMARK INTRA:                  -0.809
REMARK UNBOUND:                -0.712
REMARK  Name = resultss/4CJN/ligands/lig_60_t0.pdb
REMARK  13 active torsions:
REMARK  status: ('A' for Active; 'I' for Inactive)
REMARK    1  A    between atoms: C1_1  and  O1_2
REMARK    2  A    between atoms: O1_2  and  C2_3
REMARK    3  A    between atoms: C3_5  and  C4_6
REMARK    4  A    between atoms: C5_7  and  N1_8
REMARK    5  A    between atoms: N1_8  and  C6_9
REMARK    6  A    between atoms: C8_11  and  O3_12
REMARK    7  A    between atoms: C8_11  and  C9_13
REMARK    8  A    between atoms: C9_13  and  O4_14
REMARK    9  A    between atoms: C10_15  and  O5_16
REMARK   10  A    between atoms: C11_17  and  O6_18
REMARK   11  A    between atoms: C12_19  and  O7_20
REMARK   12  A    between atoms: C13_21  and  O8_22
REMARK   13  A    between atoms: C14_23  and  O9_24
REMARK                            x       y       z     vdW  Elec       q    Type
REMARK                         _______ _______ _______ _____ _____    ______ ____
ROOT
ATOM      1  C6  UNL     1      26.344  -7.999 -39.343  0.00  0.00    +0.000 C 
ATOM      2  C7  UNL     1      25.505  -9.221 -39.801  0.00  0.00    +0.000 C 
ATOM      3  C8  UNL     1      26.280 -10.221 -40.704  0.00  0.00    +0.000 C 
ATOM      4  C10 UNL     1      26.929  -9.474 -41.906  0.00  0.00    +0.000 C 
ATOM      5  C11 UNL     1      27.765  -8.235 -41.494  0.00  0.00    +0.000 C 
ATOM      6  C12 UNL     1      27.000  -7.281 -40.553  0.00  0.00    +0.000 C 
ENDROOT
BRANCH   1   7
ATOM      7  N1  UNL     1      25.534  -7.008 -38.597  0.00  0.00    +0.000 NA
ATOM      8  H10 UNL     1      25.779  -6.050 -38.943  0.00  0.00    +0.000 HD
BRANCH   7  13
ATOM      9  C2  UNL     1      26.738  -8.321 -34.769  0.00  0.00    +0.000 C 
ATOM     10  O2  UNL     1      27.312  -7.149 -35.324  0.00  0.00    +0.000 OA
ATOM     11  C3  UNL     1      27.137  -7.100 -36.732  0.00  0.00    +0.000 C 
ATOM     12  C4  UNL     1      27.907  -5.883 -37.256  0.00  0.00    +0.000 C 
ATOM     13  C5  UNL     1      25.635  -7.012 -37.118  0.00  0.00    +0.000 C 
ATOM     14  C13 UNL     1      24.855  -8.189 -36.475  0.00  0.00    +0.000 C 
ATOM     15  C14 UNL     1      25.215  -8.314 -34.981  0.00  0.00    +0.000 C 
BRANCH   9  17
ATOM     16  C1  UNL     1      28.292 -10.012 -34.436  0.00  0.00    +0.000 C 
ATOM     17  O1  UNL     1      27.315  -9.499 -35.315  0.00  0.00    +0.000 OA
ENDBRANCH   9  17
BRANCH  14  18
ATOM     18  O8  UNL     1      23.474  -7.964 -36.582  0.00  0.00    +0.000 OA
ATOM     19  H25 UNL     1      23.328  -7.442 -37.414  0.00  0.00    +0.000 HD
ENDBRANCH  14  18
BRANCH  15  20
ATOM     20  O9  UNL     1      24.619  -9.449 -34.401  0.00  0.00    +0.000 OA
ATOM     21  H27 UNL     1      24.435 -10.101 -35.126  0.00  0.00    +0.000 HD
ENDBRANCH  15  20
ENDBRANCH   7  13
ENDBRANCH   1   7
BRANCH   3  22
ATOM     22  O3  UNL     1      25.360 -11.149 -41.236  0.00  0.00    +0.000 OA
ATOM     23  H14 UNL     1      25.751 -12.060 -41.152  0.00  0.00    +0.000 HD
ENDBRANCH   3  22
BRANCH   4  24
ATOM     24  O5  UNL     1      25.921  -9.086 -42.809  0.00  0.00    +0.000 OA
ATOM     25  H19 UNL     1      25.220  -9.790 -42.786  0.00  0.00    +0.000 HD
ENDBRANCH   4  24
BRANCH   5  26
ATOM     26  O6  UNL     1      28.967  -8.628 -40.883  0.00  0.00    +0.000 OA
ATOM     27  H21 UNL     1      29.024  -8.143 -40.018  0.00  0.00    +0.000 HD
ENDBRANCH   5  26
BRANCH   6  28
ATOM     28  O7  UNL     1      26.079  -6.491 -41.269  0.00  0.00    +0.000 OA
ATOM     29  H23 UNL     1      26.360  -5.545 -41.210  0.00  0.00    +0.000 HD
ENDBRANCH   6  28
BRANCH   3  30
ATOM     30  C9  UNL     1      27.334 -11.006 -39.869  0.00  0.00    +0.000 C 
BRANCH  30  31
ATOM     31  O4  UNL     1      28.370 -11.491 -40.683  0.00  0.00    +0.000 OA
ATOM     32  H17 UNL     1      29.101 -11.778 -40.075  0.00  0.00    +0.000 HD
ENDBRANCH  30  31
ENDBRANCH   3  30
TORSDOF 11
ENDMDL
