MODEL 1
REMARK VINA RESULT:    -6.237      0.000      0.000
REMARK INTER + INTRA:         -12.644
REMARK INTER:                 -10.066
REMARK INTRA:                  -2.578
REMARK UNBOUND:                -2.578
REMARK  Name = resultss/4CJN/ligands/lig_344_t2.pdb
REMARK  12 active torsions:
REMARK  status: ('A' for Active; 'I' for Inactive)
REMARK    1  A    between atoms: C1_1  and  O1_2
REMARK    2  A    between atoms: O1_2  and  C2_3
REMARK    3  A    between atoms: C4_5  and  C5_6
REMARK    4  A    between atoms: C12_14  and  O2_15
REMARK    5  A    between atoms: N2_16  and  N3_17
REMARK    6  A    between atoms: N3_17  and  C13_18
REMARK    7  A    between atoms: C21_26  and  O3_27
REMARK    8  A    between atoms: O3_27  and  C22_28
REMARK    9  A    between atoms: C22_28  and  C23_29
REMARK   10  A    between atoms: N4_31  and  C25_32
REMARK   11  A    between atoms: C25_32  and  C26_33
REMARK   12  A    between atoms: N5_35  and  C27_36
REMARK                            x       y       z     vdW  Elec       q    Type
REMARK                         _______ _______ _______ _____ _____    ______ ____
ROOT
ATOM      1  C2  UNL     1      23.637  -6.805 -36.752  0.00  0.00    +0.000 A 
ATOM      2  C3  UNL     1      24.038  -6.726 -38.100  0.00  0.00    +0.000 A 
ATOM      3  C4  UNL     1      25.029  -7.583 -38.607  0.00  0.00    +0.000 A 
ATOM      4  C19 UNL     1      25.652  -8.493 -37.737  0.00  0.00    +0.000 A 
ATOM      5  C20 UNL     1      25.269  -8.567 -36.397  0.00  0.00    +0.000 A 
ATOM      6  C21 UNL     1      24.252  -7.733 -35.900  0.00  0.00    +0.000 A 
ENDROOT
BRANCH   3   7
ATOM      7  C5  UNL     1      25.482  -7.486 -40.047  0.00  0.00    +0.000 C 
ATOM      8  N1  UNL     1      26.946  -7.460 -40.125  0.00  0.00    +0.000 NA
ATOM      9  C6  UNL     1      27.678  -8.477 -40.482  0.00  0.00    +0.000 A 
ATOM     10  C7  UNL     1      29.072  -8.365 -40.413  0.00  0.00    +0.000 A 
ATOM     11  C8  UNL     1      29.884  -9.459 -40.719  0.00  0.00    +0.000 A 
ATOM     12  C9  UNL     1      29.309 -10.672 -41.103  0.00  0.00    +0.000 A 
ATOM     13  C10 UNL     1      27.921 -10.792 -41.198  0.00  0.00    +0.000 A 
ATOM     14  C11 UNL     1      27.088  -9.693 -40.905  0.00  0.00    +0.000 A 
ATOM     15  C12 UNL     1      25.752  -9.776 -41.049  0.00  0.00    +0.000 C 
ATOM     16  N2  UNL     1      24.941  -8.608 -40.817  0.00  0.00    +0.000 N 
BRANCH  15  17
ATOM     17  O2  UNL     1      25.158 -10.980 -41.432  0.00  0.00    +0.000 OA
ATOM     18  H10 UNL     1      24.236 -11.252 -41.115  0.00  0.00    +0.000 HD
ENDBRANCH  15  17
BRANCH  16  19
ATOM     19  N3  UNL     1      23.591  -8.573 -41.216  0.00  0.00    +0.000 N 
ATOM     20  H11 UNL     1      22.858  -8.865 -40.530  0.00  0.00    +0.000 HD
BRANCH  19  21
ATOM     21  C13 UNL     1      23.176  -8.016 -42.473  0.00  0.00    +0.000 A 
ATOM     22  C14 UNL     1      21.858  -7.561 -42.625  0.00  0.00    +0.000 A 
ATOM     23  C15 UNL     1      21.435  -7.011 -43.839  0.00  0.00    +0.000 A 
ATOM     24  C16 UNL     1      22.330  -6.897 -44.906  0.00  0.00    +0.000 A 
ATOM     25  C17 UNL     1      23.649  -7.331 -44.758  0.00  0.00    +0.000 A 
ATOM     26  C18 UNL     1      24.075  -7.886 -43.549  0.00  0.00    +0.000 A 
ENDBRANCH  19  21
ENDBRANCH  16  19
ENDBRANCH   3   7
BRANCH   1  28
ATOM     27  C1  UNL     1      21.237  -6.246 -36.309  0.00  0.00    +0.000 C 
ATOM     28  O1  UNL     1      22.633  -5.978 -36.224  0.00  0.00    +0.000 OA
ENDBRANCH   1  28
BRANCH   6  29
ATOM     29  O3  UNL     1      23.822  -7.795 -34.565  0.00  0.00    +0.000 OA
BRANCH  29  30
ATOM     30  C22 UNL     1      24.123  -6.822 -33.570  0.00  0.00    +0.000 C 
BRANCH  30  31
ATOM     31  C23 UNL     1      25.583  -6.870 -33.271  0.00  0.00    +0.000 A 
ATOM     32  C24 UNL     1      26.284  -7.941 -32.763  0.00  0.00    +0.000 A 
ATOM     33  N4  UNL     1      27.572  -7.563 -32.746  0.00  0.00    +0.000 N 
ATOM     34  N6  UNL     1      27.657  -6.327 -33.212  0.00  0.00    +0.000 NA
ATOM     35  N7  UNL     1      26.456  -5.883 -33.555  0.00  0.00    +0.000 NA
BRANCH  33  36
ATOM     36  C25 UNL     1      28.701  -8.331 -32.234  0.00  0.00    +0.000 C 
BRANCH  36  37
ATOM     37  C26 UNL     1      29.374  -9.051 -33.359  0.00  0.00    +0.000 C 
ATOM     38  O4  UNL     1      29.590 -10.289 -33.259  0.00  0.00    +0.000 OA
ATOM     39  N5  UNL     1      29.764  -8.331 -34.538  0.00  0.00    +0.000 N 
ATOM     40  H24 UNL     1      29.337  -7.390 -34.695  0.00  0.00    +0.000 HD
BRANCH  39  41
ATOM     41  C27 UNL     1      30.618  -8.864 -35.563  0.00  0.00    +0.000 A 
ATOM     42  C28 UNL     1      30.091  -9.495 -36.705  0.00  0.00    +0.000 A 
ATOM     43  C29 UNL     1      30.946 -10.024 -37.678  0.00  0.00    +0.000 A 
ATOM     44  C30 UNL     1      32.331  -9.937 -37.514  0.00  0.00    +0.000 A 
ATOM     45  C31 UNL     1      32.863  -9.333 -36.372  0.00  0.00    +0.000 A 
ATOM     46  C32 UNL     1      32.011  -8.807 -35.396  0.00  0.00    +0.000 A 
ENDBRANCH  39  41
ENDBRANCH  36  37
ENDBRANCH  33  36
ENDBRANCH  30  31
ENDBRANCH  29  30
ENDBRANCH   6  29
TORSDOF 11
ENDMDL
MODEL 2
REMARK VINA RESULT:    -6.221      3.184      5.560
REMARK INTER + INTRA:         -12.617
REMARK INTER:                 -11.232
REMARK INTRA:                  -1.386
REMARK UNBOUND:                -2.578
REMARK  Name = resultss/4CJN/ligands/lig_344_t2.pdb
REMARK  12 active torsions:
REMARK  status: ('A' for Active; 'I' for Inactive)
REMARK    1  A    between atoms: C1_1  and  O1_2
REMARK    2  A    between atoms: O1_2  and  C2_3
REMARK    3  A    between atoms: C4_5  and  C5_6
REMARK    4  A    between atoms: C12_14  and  O2_15
REMARK    5  A    between atoms: N2_16  and  N3_17
REMARK    6  A    between atoms: N3_17  and  C13_18
REMARK    7  A    between atoms: C21_26  and  O3_27
REMARK    8  A    between atoms: O3_27  and  C22_28
REMARK    9  A    between atoms: C22_28  and  C23_29
REMARK   10  A    between atoms: N4_31  and  C25_32
REMARK   11  A    between atoms: C25_32  and  C26_33
REMARK   12  A    between atoms: N5_35  and  C27_36
REMARK                            x       y       z     vdW  Elec       q    Type
REMARK                         _______ _______ _______ _____ _____    ______ ____
ROOT
ATOM      1  C2  UNL     1      25.918  -8.744 -37.751  0.00  0.00    +0.000 A 
ATOM      2  C3  UNL     1      26.204  -9.089 -39.087  0.00  0.00    +0.000 A 
ATOM      3  C4  UNL     1      27.252  -9.973 -39.393  0.00  0.00    +0.000 A 
ATOM      4  C19 UNL     1      28.046 -10.475 -38.350  0.00  0.00    +0.000 A 
ATOM      5  C20 UNL     1      27.778 -10.127 -37.025  0.00  0.00    +0.000 A 
ATOM      6  C21 UNL     1      26.706  -9.270 -36.717  0.00  0.00    +0.000 A 
ENDROOT
BRANCH   3   7
ATOM      7  C5  UNL     1      27.580 -10.326 -40.827  0.00  0.00    +0.000 C 
ATOM      8  N1  UNL     1      26.408 -10.135 -41.686  0.00  0.00    +0.000 NA
ATOM      9  C6  UNL     1      26.248  -9.125 -42.492  0.00  0.00    +0.000 A 
ATOM     10  C7  UNL     1      25.036  -8.994 -43.182  0.00  0.00    +0.000 A 
ATOM     11  C8  UNL     1      24.805  -7.885 -43.997  0.00  0.00    +0.000 A 
ATOM     12  C9  UNL     1      25.785  -6.901 -44.137  0.00  0.00    +0.000 A 
ATOM     13  C10 UNL     1      27.007  -7.029 -43.474  0.00  0.00    +0.000 A 
ATOM     14  C11 UNL     1      27.262  -8.150 -42.657  0.00  0.00    +0.000 A 
ATOM     15  C12 UNL     1      28.456  -8.317 -42.059  0.00  0.00    +0.000 C 
ATOM     16  N2  UNL     1      28.706  -9.514 -41.296  0.00  0.00    +0.000 N 
BRANCH  15  17
ATOM     17  O2  UNL     1      29.451  -7.345 -42.185  0.00  0.00    +0.000 OA
ATOM     18  H10 UNL     1      29.616  -6.646 -41.472  0.00  0.00    +0.000 HD
ENDBRANCH  15  17
BRANCH  16  19
ATOM     19  N3  UNL     1      30.009  -9.855 -40.889  0.00  0.00    +0.000 N 
ATOM     20  H11 UNL     1      30.281  -9.697 -39.893  0.00  0.00    +0.000 HD
BRANCH  19  21
ATOM     21  C13 UNL     1      30.928 -10.544 -41.753  0.00  0.00    +0.000 A 
ATOM     22  C14 UNL     1      32.272 -10.144 -41.791  0.00  0.00    +0.000 A 
ATOM     23  C15 UNL     1      33.183 -10.804 -42.620  0.00  0.00    +0.000 A 
ATOM     24  C16 UNL     1      32.763 -11.880 -43.407  0.00  0.00    +0.000 A 
ATOM     25  C17 UNL     1      31.430 -12.296 -43.363  0.00  0.00    +0.000 A 
ATOM     26  C18 UNL     1      30.515 -11.636 -42.539  0.00  0.00    +0.000 A 
ENDBRANCH  19  21
ENDBRANCH  16  19
ENDBRANCH   3   7
BRANCH   1  28
ATOM     27  C1  UNL     1      24.759  -6.527 -37.839  0.00  0.00    +0.000 C 
ATOM     28  O1  UNL     1      24.863  -7.883 -37.413  0.00  0.00    +0.000 OA
ENDBRANCH   1  28
BRANCH   6  29
ATOM     29  O3  UNL     1      26.389  -8.917 -35.396  0.00  0.00    +0.000 OA
BRANCH  29  30
ATOM     30  C22 UNL     1      26.706  -9.699 -34.249  0.00  0.00    +0.000 C 
BRANCH  30  31
ATOM     31  C23 UNL     1      27.845  -9.063 -33.527  0.00  0.00    +0.000 A 
ATOM     32  C24 UNL     1      29.184  -9.217 -33.805  0.00  0.00    +0.000 A 
ATOM     33  N4  UNL     1      29.831  -8.391 -32.966  0.00  0.00    +0.000 N 
ATOM     34  N6  UNL     1      28.938  -7.769 -32.213  0.00  0.00    +0.000 NA
ATOM     35  N7  UNL     1      27.713  -8.149 -32.545  0.00  0.00    +0.000 NA
BRANCH  33  36
ATOM     36  C25 UNL     1      31.275  -8.240 -32.830  0.00  0.00    +0.000 C 
BRANCH  36  37
ATOM     37  C26 UNL     1      31.930  -9.584 -32.871  0.00  0.00    +0.000 C 
ATOM     38  O4  UNL     1      32.183 -10.115 -33.985  0.00  0.00    +0.000 OA
ATOM     39  N5  UNL     1      32.267 -10.252 -31.646  0.00  0.00    +0.000 N 
ATOM     40  H24 UNL     1      32.290  -9.680 -30.771  0.00  0.00    +0.000 HD
BRANCH  39  41
ATOM     41  C27 UNL     1      32.674 -11.628 -31.563  0.00  0.00    +0.000 A 
ATOM     42  C28 UNL     1      34.009 -12.014 -31.788  0.00  0.00    +0.000 A 
ATOM     43  C29 UNL     1      34.374 -13.364 -31.722  0.00  0.00    +0.000 A 
ATOM     44  C30 UNL     1      33.411 -14.336 -31.443  0.00  0.00    +0.000 A 
ATOM     45  C31 UNL     1      32.079 -13.963 -31.241  0.00  0.00    +0.000 A 
ATOM     46  C32 UNL     1      31.710 -12.617 -31.310  0.00  0.00    +0.000 A 
ENDBRANCH  39  41
ENDBRANCH  36  37
ENDBRANCH  33  36
ENDBRANCH  30  31
ENDBRANCH  29  30
ENDBRANCH   6  29
TORSDOF 11
ENDMDL
MODEL 3
REMARK VINA RESULT:    -6.153      2.344     10.080
REMARK INTER + INTRA:         -12.508
REMARK INTER:                 -10.567
REMARK INTRA:                  -1.942
REMARK UNBOUND:                -2.578
REMARK  Name = resultss/4CJN/ligands/lig_344_t2.pdb
REMARK  12 active torsions:
REMARK  status: ('A' for Active; 'I' for Inactive)
REMARK    1  A    between atoms: C1_1  and  O1_2
REMARK    2  A    between atoms: O1_2  and  C2_3
REMARK    3  A    between atoms: C4_5  and  C5_6
REMARK    4  A    between atoms: C12_14  and  O2_15
REMARK    5  A    between atoms: N2_16  and  N3_17
REMARK    6  A    between atoms: N3_17  and  C13_18
REMARK    7  A    between atoms: C21_26  and  O3_27
REMARK    8  A    between atoms: O3_27  and  C22_28
REMARK    9  A    between atoms: C22_28  and  C23_29
REMARK   10  A    between atoms: N4_31  and  C25_32
REMARK   11  A    between atoms: C25_32  and  C26_33
REMARK   12  A    between atoms: N5_35  and  C27_36
REMARK                            x       y       z     vdW  Elec       q    Type
REMARK                         _______ _______ _______ _____ _____    ______ ____
ROOT
ATOM      1  C2  UNL     1      27.954  -8.860 -38.691  0.00  0.00    +0.000 A 
ATOM      2  C3  UNL     1      27.642  -8.816 -37.318  0.00  0.00    +0.000 A 
ATOM      3  C4  UNL     1      28.034  -7.723 -36.526  0.00  0.00    +0.000 A 
ATOM      4  C19 UNL     1      28.784  -6.692 -37.113  0.00  0.00    +0.000 A 
ATOM      5  C20 UNL     1      29.108  -6.735 -38.470  0.00  0.00    +0.000 A 
ATOM      6  C21 UNL     1      28.685  -7.812 -39.269  0.00  0.00    +0.000 A 
ENDROOT
BRANCH   3   7
ATOM      7  C5  UNL     1      27.725  -7.682 -35.045  0.00  0.00    +0.000 C 
ATOM      8  N1  UNL     1      26.676  -6.696 -34.765  0.00  0.00    +0.000 NA
ATOM      9  C6  UNL     1      25.435  -7.000 -34.512  0.00  0.00    +0.000 A 
ATOM     10  C7  UNL     1      24.501  -5.967 -34.367  0.00  0.00    +0.000 A 
ATOM     11  C8  UNL     1      23.151  -6.259 -34.167  0.00  0.00    +0.000 A 
ATOM     12  C9  UNL     1      22.723  -7.586 -34.102  0.00  0.00    +0.000 A 
ATOM     13  C10 UNL     1      23.647  -8.627 -34.221  0.00  0.00    +0.000 A 
ATOM     14  C11 UNL     1      25.016  -8.349 -34.411  0.00  0.00    +0.000 A 
ATOM     15  C12 UNL     1      25.925  -9.340 -34.468  0.00  0.00    +0.000 C 
ATOM     16  N2  UNL     1      27.323  -9.013 -34.583  0.00  0.00    +0.000 N 
BRANCH  15  17
ATOM     17  O2  UNL     1      25.518 -10.675 -34.405  0.00  0.00    +0.000 OA
ATOM     18  H10 UNL     1      25.510 -11.275 -35.220  0.00  0.00    +0.000 HD
ENDBRANCH  15  17
BRANCH  16  19
ATOM     19  N3  UNL     1      28.315  -9.989 -34.372  0.00  0.00    +0.000 N 
ATOM     20  H11 UNL     1      28.109 -10.979 -34.636  0.00  0.00    +0.000 HD
BRANCH  19  21
ATOM     21  C13 UNL     1      29.645  -9.652 -33.946  0.00  0.00    +0.000 A 
ATOM     22  C14 UNL     1      30.689  -9.639 -34.884  0.00  0.00    +0.000 A 
ATOM     23  C15 UNL     1      31.989  -9.309 -34.491  0.00  0.00    +0.000 A 
ATOM     24  C16 UNL     1      32.255  -8.974 -33.160  0.00  0.00    +0.000 A 
ATOM     25  C17 UNL     1      31.220  -8.968 -32.223  0.00  0.00    +0.000 A 
ATOM     26  C18 UNL     1      29.919  -9.302 -32.611  0.00  0.00    +0.000 A 
ENDBRANCH  19  21
ENDBRANCH  16  19
ENDBRANCH   3   7
BRANCH   1  28
ATOM     27  C1  UNL     1      27.661 -11.302 -39.155  0.00  0.00    +0.000 C 
ATOM     28  O1  UNL     1      27.556  -9.927 -39.511  0.00  0.00    +0.000 OA
ENDBRANCH   1  28
BRANCH   6  29
ATOM     29  O3  UNL     1      28.970  -7.880 -40.642  0.00  0.00    +0.000 OA
BRANCH  29  30
ATOM     30  C22 UNL     1      28.352  -7.071 -41.638  0.00  0.00    +0.000 C 
BRANCH  30  31
ATOM     31  C23 UNL     1      26.989  -7.605 -41.919  0.00  0.00    +0.000 A 
ATOM     32  C24 UNL     1      25.798  -7.125 -41.421  0.00  0.00    +0.000 A 
ATOM     33  N4  UNL     1      24.834  -7.849 -42.012  0.00  0.00    +0.000 N 
ATOM     34  N6  UNL     1      25.401  -8.727 -42.824  0.00  0.00    +0.000 NA
ATOM     35  N7  UNL     1      26.720  -8.591 -42.798  0.00  0.00    +0.000 NA
BRANCH  33  36
ATOM     36  C25 UNL     1      23.400  -7.760 -41.766  0.00  0.00    +0.000 C 
BRANCH  36  37
ATOM     37  C26 UNL     1      22.670  -7.631 -43.065  0.00  0.00    +0.000 C 
ATOM     38  O4  UNL     1      21.563  -8.217 -43.212  0.00  0.00    +0.000 OA
ATOM     39  N5  UNL     1      23.231  -6.844 -44.126  0.00  0.00    +0.000 N 
ATOM     40  H24 UNL     1      23.993  -6.172 -43.880  0.00  0.00    +0.000 HD
BRANCH  39  41
ATOM     41  C27 UNL     1      22.743  -6.846 -45.477  0.00  0.00    +0.000 A 
ATOM     42  C28 UNL     1      21.452  -6.383 -45.793  0.00  0.00    +0.000 A 
ATOM     43  C29 UNL     1      20.994  -6.415 -47.115  0.00  0.00    +0.000 A 
ATOM     44  C30 UNL     1      21.814  -6.920 -48.127  0.00  0.00    +0.000 A 
ATOM     45  C31 UNL     1      23.088  -7.403 -47.819  0.00  0.00    +0.000 A 
ATOM     46  C32 UNL     1      23.548  -7.376 -46.499  0.00  0.00    +0.000 A 
ENDBRANCH  39  41
ENDBRANCH  36  37
ENDBRANCH  33  36
ENDBRANCH  30  31
ENDBRANCH  29  30
ENDBRANCH   6  29
TORSDOF 11
ENDMDL
MODEL 4
REMARK VINA RESULT:    -6.133      1.781      2.760
REMARK INTER + INTRA:         -12.476
REMARK INTER:                  -9.368
REMARK INTRA:                  -3.107
REMARK UNBOUND:                -2.578
REMARK  Name = resultss/4CJN/ligands/lig_344_t2.pdb
REMARK  12 active torsions:
REMARK  status: ('A' for Active; 'I' for Inactive)
REMARK    1  A    between atoms: C1_1  and  O1_2
REMARK    2  A    between atoms: O1_2  and  C2_3
REMARK    3  A    between atoms: C4_5  and  C5_6
REMARK    4  A    between atoms: C12_14  and  O2_15
REMARK    5  A    between atoms: N2_16  and  N3_17
REMARK    6  A    between atoms: N3_17  and  C13_18
REMARK    7  A    between atoms: C21_26  and  O3_27
REMARK    8  A    between atoms: O3_27  and  C22_28
REMARK    9  A    between atoms: C22_28  and  C23_29
REMARK   10  A    between atoms: N4_31  and  C25_32
REMARK   11  A    between atoms: C25_32  and  C26_33
REMARK   12  A    between atoms: N5_35  and  C27_36
REMARK                            x       y       z     vdW  Elec       q    Type
REMARK                         _______ _______ _______ _____ _____    ______ ____
ROOT
ATOM      1  C2  UNL     1      23.560  -6.603 -37.287  0.00  0.00    +0.000 A 
ATOM      2  C3  UNL     1      23.605  -6.198 -38.636  0.00  0.00    +0.000 A 
ATOM      3  C4  UNL     1      24.321  -6.945 -39.587  0.00  0.00    +0.000 A 
ATOM      4  C19 UNL     1      25.034  -8.078 -39.166  0.00  0.00    +0.000 A 
ATOM      5  C20 UNL     1      25.006  -8.477 -37.829  0.00  0.00    +0.000 A 
ATOM      6  C21 UNL     1      24.260  -7.749 -36.885  0.00  0.00    +0.000 A 
ENDROOT
BRANCH   3   7
ATOM      7  C5  UNL     1      24.394  -6.501 -41.032  0.00  0.00    +0.000 C 
ATOM      8  N1  UNL     1      25.765  -6.120 -41.385  0.00  0.00    +0.000 NA
ATOM      9  C6  UNL     1      26.573  -6.861 -42.087  0.00  0.00    +0.000 A 
ATOM     10  C7  UNL     1      27.897  -6.439 -42.268  0.00  0.00    +0.000 A 
ATOM     11  C8  UNL     1      28.807  -7.244 -42.954  0.00  0.00    +0.000 A 
ATOM     12  C9  UNL     1      28.402  -8.475 -43.473  0.00  0.00    +0.000 A 
ATOM     13  C10 UNL     1      27.080  -8.899 -43.321  0.00  0.00    +0.000 A 
ATOM     14  C11 UNL     1      26.145  -8.093 -42.642  0.00  0.00    +0.000 A 
ATOM     15  C12 UNL     1      24.854  -8.460 -42.539  0.00  0.00    +0.000 C 
ATOM     16  N2  UNL     1      23.912  -7.573 -41.907  0.00  0.00    +0.000 N 
BRANCH  15  17
ATOM     17  O2  UNL     1      24.428  -9.688 -43.051  0.00  0.00    +0.000 OA
ATOM     18  H10 UNL     1      24.313 -10.506 -42.466  0.00  0.00    +0.000 HD
ENDBRANCH  15  17
BRANCH  16  19
ATOM     19  N3  UNL     1      22.526  -7.788 -42.020  0.00  0.00    +0.000 N 
ATOM     20  H11 UNL     1      22.028  -8.268 -41.236  0.00  0.00    +0.000 HD
BRANCH  19  21
ATOM     21  C13 UNL     1      21.750  -7.248 -43.101  0.00  0.00    +0.000 A 
ATOM     22  C14 UNL     1      20.396  -6.943 -42.895  0.00  0.00    +0.000 A 
ATOM     23  C15 UNL     1      19.624  -6.411 -43.932  0.00  0.00    +0.000 A 
ATOM     24  C16 UNL     1      20.203  -6.164 -45.180  0.00  0.00    +0.000 A 
ATOM     25  C17 UNL     1      21.554  -6.448 -45.390  0.00  0.00    +0.000 A 
ATOM     26  C18 UNL     1      22.328  -6.984 -44.357  0.00  0.00    +0.000 A 
ENDBRANCH  19  21
ENDBRANCH  16  19
ENDBRANCH   3   7
BRANCH   1  28
ATOM     27  C1  UNL     1      21.454  -6.096 -36.032  0.00  0.00    +0.000 C 
ATOM     28  O1  UNL     1      22.834  -5.890 -36.320  0.00  0.00    +0.000 OA
ENDBRANCH   1  28
BRANCH   6  29
ATOM     29  O3  UNL     1      24.186  -8.133 -35.536  0.00  0.00    +0.000 OA
BRANCH  29  30
ATOM     30  C22 UNL     1      24.883  -7.493 -34.473  0.00  0.00    +0.000 C 
BRANCH  30  31
ATOM     31  C23 UNL     1      26.277  -7.200 -34.914  0.00  0.00    +0.000 A 
ATOM     32  C24 UNL     1      27.340  -8.074 -34.916  0.00  0.00    +0.000 A 
ATOM     33  N4  UNL     1      28.362  -7.408 -35.479  0.00  0.00    +0.000 N 
ATOM     34  N6  UNL     1      27.951  -6.192 -35.799  0.00  0.00    +0.000 NA
ATOM     35  N7  UNL     1      26.673  -6.041 -35.478  0.00  0.00    +0.000 NA
BRANCH  33  36
ATOM     36  C25 UNL     1      29.728  -7.890 -35.651  0.00  0.00    +0.000 C 
BRANCH  36  37
ATOM     37  C26 UNL     1      29.770  -8.912 -36.742  0.00  0.00    +0.000 C 
ATOM     38  O4  UNL     1      30.394  -9.991 -36.554  0.00  0.00    +0.000 OA
ATOM     39  N5  UNL     1      29.101  -8.658 -37.986  0.00  0.00    +0.000 N 
ATOM     40  H24 UNL     1      28.388  -7.894 -38.007  0.00  0.00    +0.000 HD
BRANCH  39  41
ATOM     41  C27 UNL     1      29.273  -9.452 -39.171  0.00  0.00    +0.000 A 
ATOM     42  C28 UNL     1      30.432  -9.349 -39.964  0.00  0.00    +0.000 A 
ATOM     43  C29 UNL     1      30.564 -10.119 -41.125  0.00  0.00    +0.000 A 
ATOM     44  C30 UNL     1      29.539 -10.987 -41.509  0.00  0.00    +0.000 A 
ATOM     45  C31 UNL     1      28.375 -11.078 -40.740  0.00  0.00    +0.000 A 
ATOM     46  C32 UNL     1      28.238 -10.307 -39.582  0.00  0.00    +0.000 A 
ENDBRANCH  39  41
ENDBRANCH  36  37
ENDBRANCH  33  36
ENDBRANCH  30  31
ENDBRANCH  29  30
ENDBRANCH   6  29
TORSDOF 11
ENDMDL
MODEL 5
REMARK VINA RESULT:    -6.106      2.445      9.478
REMARK INTER + INTRA:         -12.432
REMARK INTER:                 -10.790
REMARK INTRA:                  -1.641
REMARK UNBOUND:                -2.578
REMARK  Name = resultss/4CJN/ligands/lig_344_t2.pdb
REMARK  12 active torsions:
REMARK  status: ('A' for Active; 'I' for Inactive)
REMARK    1  A    between atoms: C1_1  and  O1_2
REMARK    2  A    between atoms: O1_2  and  C2_3
REMARK    3  A    between atoms: C4_5  and  C5_6
REMARK    4  A    between atoms: C12_14  and  O2_15
REMARK    5  A    between atoms: N2_16  and  N3_17
REMARK    6  A    between atoms: N3_17  and  C13_18
REMARK    7  A    between atoms: C21_26  and  O3_27
REMARK    8  A    between atoms: O3_27  and  C22_28
REMARK    9  A    between atoms: C22_28  and  C23_29
REMARK   10  A    between atoms: N4_31  and  C25_32
REMARK   11  A    between atoms: C25_32  and  C26_33
REMARK   12  A    between atoms: N5_35  and  C27_36
REMARK                            x       y       z     vdW  Elec       q    Type
REMARK                         _______ _______ _______ _____ _____    ______ ____
ROOT
ATOM      1  C2  UNL     1      30.040  -9.644 -37.808  0.00  0.00    +0.000 A 
ATOM      2  C3  UNL     1      29.763  -9.448 -36.441  0.00  0.00    +0.000 A 
ATOM      3  C4  UNL     1      28.466  -9.640 -35.935  0.00  0.00    +0.000 A 
ATOM      4  C19 UNL     1      27.434  -9.986 -36.822  0.00  0.00    +0.000 A 
ATOM      5  C20 UNL     1      27.699 -10.169 -38.181  0.00  0.00    +0.000 A 
ATOM      6  C21 UNL     1      29.004 -10.011 -38.679  0.00  0.00    +0.000 A 
ENDROOT
BRANCH   3   7
ATOM      7  C5  UNL     1      28.156  -9.406 -34.473  0.00  0.00    +0.000 C 
ATOM      8  N1  UNL     1      29.158 -10.058 -33.624  0.00  0.00    +0.000 NA
ATOM      9  C6  UNL     1      30.119  -9.429 -33.010  0.00  0.00    +0.000 A 
ATOM     10  C7  UNL     1      31.081 -10.173 -32.315  0.00  0.00    +0.000 A 
ATOM     11  C8  UNL     1      32.163  -9.534 -31.708  0.00  0.00    +0.000 A 
ATOM     12  C9  UNL     1      32.291  -8.146 -31.784  0.00  0.00    +0.000 A 
ATOM     13  C10 UNL     1      31.328  -7.389 -32.455  0.00  0.00    +0.000 A 
ATOM     14  C11 UNL     1      30.221  -8.017 -33.062  0.00  0.00    +0.000 A 
ATOM     15  C12 UNL     1      29.255  -7.296 -33.660  0.00  0.00    +0.000 C 
ATOM     16  N2  UNL     1      28.100  -7.968 -34.199  0.00  0.00    +0.000 N 
BRANCH  15  17
ATOM     17  O2  UNL     1      29.364  -5.906 -33.747  0.00  0.00    +0.000 OA
ATOM     18  H10 UNL     1      28.555  -5.307 -33.851  0.00  0.00    +0.000 HD
ENDBRANCH  15  17
BRANCH  16  19
ATOM     19  N3  UNL     1      26.955  -7.246 -34.581  0.00  0.00    +0.000 N 
ATOM     20  H11 UNL     1      27.076  -6.375 -35.147  0.00  0.00    +0.000 HD
BRANCH  19  21
ATOM     21  C13 UNL     1      25.624  -7.736 -34.349  0.00  0.00    +0.000 A 
ATOM     22  C14 UNL     1      24.610  -7.450 -35.275  0.00  0.00    +0.000 A 
ATOM     23  C15 UNL     1      23.311  -7.923 -35.071  0.00  0.00    +0.000 A 
ATOM     24  C16 UNL     1      23.017  -8.699 -33.947  0.00  0.00    +0.000 A 
ATOM     25  C17 UNL     1      24.023  -9.004 -33.028  0.00  0.00    +0.000 A 
ATOM     26  C18 UNL     1      25.323  -8.529 -33.226  0.00  0.00    +0.000 A 
ENDBRANCH  19  21
ENDBRANCH  16  19
ENDBRANCH   3   7
BRANCH   1  28
ATOM     27  C1  UNL     1      32.190  -8.384 -38.049  0.00  0.00    +0.000 C 
ATOM     28  O1  UNL     1      31.330  -9.482 -38.337  0.00  0.00    +0.000 OA
ENDBRANCH   1  28
BRANCH   6  29
ATOM     29  O3  UNL     1      29.315 -10.210 -40.033  0.00  0.00    +0.000 OA
BRANCH  29  30
ATOM     30  C22 UNL     1      28.374 -10.581 -41.035  0.00  0.00    +0.000 C 
BRANCH  30  31
ATOM     31  C23 UNL     1      27.888  -9.351 -41.724  0.00  0.00    +0.000 A 
ATOM     32  C24 UNL     1      27.382  -9.269 -43.002  0.00  0.00    +0.000 A 
ATOM     33  N4  UNL     1      26.991  -7.995 -43.161  0.00  0.00    +0.000 N 
ATOM     34  N6  UNL     1      27.246  -7.330 -42.045  0.00  0.00    +0.000 NA
ATOM     35  N7  UNL     1      27.783  -8.140 -41.142  0.00  0.00    +0.000 NA
BRANCH  33  36
ATOM     36  C25 UNL     1      26.444  -7.394 -44.372  0.00  0.00    +0.000 C 
BRANCH  36  37
ATOM     37  C26 UNL     1      24.989  -7.102 -44.179  0.00  0.00    +0.000 C 
ATOM     38  O4  UNL     1      24.366  -6.458 -45.065  0.00  0.00    +0.000 OA
ATOM     39  N5  UNL     1      24.319  -7.559 -42.995  0.00  0.00    +0.000 N 
ATOM     40  H24 UNL     1      24.787  -8.302 -42.428  0.00  0.00    +0.000 HD
BRANCH  39  41
ATOM     41  C27 UNL     1      23.004  -7.137 -42.599  0.00  0.00    +0.000 A 
ATOM     42  C28 UNL     1      21.869  -7.444 -43.372  0.00  0.00    +0.000 A 
ATOM     43  C29 UNL     1      20.602  -7.002 -42.974  0.00  0.00    +0.000 A 
ATOM     44  C30 UNL     1      20.460  -6.242 -41.810  0.00  0.00    +0.000 A 
ATOM     45  C31 UNL     1      21.585  -5.912 -41.049  0.00  0.00    +0.000 A 
ATOM     46  C32 UNL     1      22.853  -6.349 -41.446  0.00  0.00    +0.000 A 
ENDBRANCH  39  41
ENDBRANCH  36  37
ENDBRANCH  33  36
ENDBRANCH  30  31
ENDBRANCH  29  30
ENDBRANCH   6  29
TORSDOF 11
ENDMDL
MODEL 6
REMARK VINA RESULT:    -6.091      2.296      9.690
REMARK INTER + INTRA:         -12.409
REMARK INTER:                  -9.732
REMARK INTRA:                  -2.677
REMARK UNBOUND:                -2.578
REMARK  Name = resultss/4CJN/ligands/lig_344_t2.pdb
REMARK  12 active torsions:
REMARK  status: ('A' for Active; 'I' for Inactive)
REMARK    1  A    between atoms: C1_1  and  O1_2
REMARK    2  A    between atoms: O1_2  and  C2_3
REMARK    3  A    between atoms: C4_5  and  C5_6
REMARK    4  A    between atoms: C12_14  and  O2_15
REMARK    5  A    between atoms: N2_16  and  N3_17
REMARK    6  A    between atoms: N3_17  and  C13_18
REMARK    7  A    between atoms: C21_26  and  O3_27
REMARK    8  A    between atoms: O3_27  and  C22_28
REMARK    9  A    between atoms: C22_28  and  C23_29
REMARK   10  A    between atoms: N4_31  and  C25_32
REMARK   11  A    between atoms: C25_32  and  C26_33
REMARK   12  A    between atoms: N5_35  and  C27_36
REMARK                            x       y       z     vdW  Elec       q    Type
REMARK                         _______ _______ _______ _____ _____    ______ ____
ROOT
ATOM      1  C2  UNL     1      28.868  -7.979 -38.804  0.00  0.00    +0.000 A 
ATOM      2  C3  UNL     1      28.280  -7.089 -37.884  0.00  0.00    +0.000 A 
ATOM      3  C4  UNL     1      27.342  -7.544 -36.942  0.00  0.00    +0.000 A 
ATOM      4  C19 UNL     1      26.961  -8.895 -36.958  0.00  0.00    +0.000 A 
ATOM      5  C20 UNL     1      27.530  -9.780 -37.876  0.00  0.00    +0.000 A 
ATOM      6  C21 UNL     1      28.494  -9.331 -38.795  0.00  0.00    +0.000 A 
ENDROOT
BRANCH   3   7
ATOM      7  C5  UNL     1      26.688  -6.588 -35.968  0.00  0.00    +0.000 C 
ATOM      8  N1  UNL     1      25.244  -6.516 -36.210  0.00  0.00    +0.000 NA
ATOM      9  C6  UNL     1      24.348  -7.102 -35.470  0.00  0.00    +0.000 A 
ATOM     10  C7  UNL     1      23.004  -7.052 -35.863  0.00  0.00    +0.000 A 
ATOM     11  C8  UNL     1      22.028  -7.731 -35.132  0.00  0.00    +0.000 A 
ATOM     12  C9  UNL     1      22.385  -8.460 -33.996  0.00  0.00    +0.000 A 
ATOM     13  C10 UNL     1      23.717  -8.502 -33.579  0.00  0.00    +0.000 A 
ATOM     14  C11 UNL     1      24.713  -7.811 -34.298  0.00  0.00    +0.000 A 
ATOM     15  C12 UNL     1      25.990  -7.792 -33.875  0.00  0.00    +0.000 C 
ATOM     16  N2  UNL     1      26.964  -7.010 -34.593  0.00  0.00    +0.000 N 
BRANCH  15  17
ATOM     17  O2  UNL     1      26.367  -8.516 -32.742  0.00  0.00    +0.000 OA
ATOM     18  H10 UNL     1      25.830  -8.496 -31.884  0.00  0.00    +0.000 HD
ENDBRANCH  15  17
BRANCH  16  19
ATOM     19  N3  UNL     1      28.230  -6.743 -34.039  0.00  0.00    +0.000 N 
ATOM     20  H11 UNL     1      28.304  -6.034 -33.276  0.00  0.00    +0.000 HD
BRANCH  19  21
ATOM     21  C13 UNL     1      29.395  -7.510 -34.382  0.00  0.00    +0.000 A 
ATOM     22  C14 UNL     1      30.514  -6.862 -34.926  0.00  0.00    +0.000 A 
ATOM     23  C15 UNL     1      31.660  -7.589 -35.261  0.00  0.00    +0.000 A 
ATOM     24  C16 UNL     1      31.704  -8.968 -35.042  0.00  0.00    +0.000 A 
ATOM     25  C17 UNL     1      30.602  -9.620 -34.485  0.00  0.00    +0.000 A 
ATOM     26  C18 UNL     1      29.452  -8.898 -34.153  0.00  0.00    +0.000 A 
ENDBRANCH  19  21
ENDBRANCH  16  19
ENDBRANCH   3   7
BRANCH   1  28
ATOM     27  C1  UNL     1      29.575  -6.623 -40.786  0.00  0.00    +0.000 C 
ATOM     28  O1  UNL     1      29.825  -7.558 -39.740  0.00  0.00    +0.000 OA
ENDBRANCH   1  28
BRANCH   6  29
ATOM     29  O3  UNL     1      29.107 -10.195 -39.716  0.00  0.00    +0.000 OA
BRANCH  29  30
ATOM     30  C22 UNL     1      28.411 -10.979 -40.678  0.00  0.00    +0.000 C 
BRANCH  30  31
ATOM     31  C23 UNL     1      27.554 -10.083 -41.507  0.00  0.00    +0.000 A 
ATOM     32  C24 UNL     1      27.959  -9.316 -42.577  0.00  0.00    +0.000 A 
ATOM     33  N4  UNL     1      26.843  -8.752 -43.066  0.00  0.00    +0.000 N 
ATOM     34  N6  UNL     1      25.812  -9.146 -42.336  0.00  0.00    +0.000 NA
ATOM     35  N7  UNL     1      26.216  -9.974 -41.382  0.00  0.00    +0.000 NA
BRANCH  33  36
ATOM     36  C25 UNL     1      26.757  -7.801 -44.168  0.00  0.00    +0.000 C 
BRANCH  36  37
ATOM     37  C26 UNL     1      25.415  -7.140 -44.164  0.00  0.00    +0.000 C 
ATOM     38  O4  UNL     1      25.322  -5.931 -43.820  0.00  0.00    +0.000 OA
ATOM     39  N5  UNL     1      24.251  -7.885 -44.552  0.00  0.00    +0.000 N 
ATOM     40  H24 UNL     1      24.398  -8.778 -45.076  0.00  0.00    +0.000 HD
BRANCH  39  41
ATOM     41  C27 UNL     1      22.901  -7.430 -44.360  0.00  0.00    +0.000 A 
ATOM     42  C28 UNL     1      22.160  -6.862 -45.412  0.00  0.00    +0.000 A 
ATOM     43  C29 UNL     1      20.854  -6.408 -45.191  0.00  0.00    +0.000 A 
ATOM     44  C30 UNL     1      20.285  -6.507 -43.919  0.00  0.00    +0.000 A 
ATOM     45  C31 UNL     1      21.023  -7.049 -42.863  0.00  0.00    +0.000 A 
ATOM     46  C32 UNL     1      22.328  -7.500 -43.079  0.00  0.00    +0.000 A 
ENDBRANCH  39  41
ENDBRANCH  36  37
ENDBRANCH  33  36
ENDBRANCH  30  31
ENDBRANCH  29  30
ENDBRANCH   6  29
TORSDOF 11
ENDMDL
MODEL 7
REMARK VINA RESULT:    -6.029      2.696      7.649
REMARK INTER + INTRA:         -12.307
REMARK INTER:                  -9.655
REMARK INTRA:                  -2.653
REMARK UNBOUND:                -2.578
REMARK  Name = resultss/4CJN/ligands/lig_344_t2.pdb
REMARK  12 active torsions:
REMARK  status: ('A' for Active; 'I' for Inactive)
REMARK    1  A    between atoms: C1_1  and  O1_2
REMARK    2  A    between atoms: O1_2  and  C2_3
REMARK    3  A    between atoms: C4_5  and  C5_6
REMARK    4  A    between atoms: C12_14  and  O2_15
REMARK    5  A    between atoms: N2_16  and  N3_17
REMARK    6  A    between atoms: N3_17  and  C13_18
REMARK    7  A    between atoms: C21_26  and  O3_27
REMARK    8  A    between atoms: O3_27  and  C22_28
REMARK    9  A    between atoms: C22_28  and  C23_29
REMARK   10  A    between atoms: N4_31  and  C25_32
REMARK   11  A    between atoms: C25_32  and  C26_33
REMARK   12  A    between atoms: N5_35  and  C27_36
REMARK                            x       y       z     vdW  Elec       q    Type
REMARK                         _______ _______ _______ _____ _____    ______ ____
ROOT
ATOM      1  C2  UNL     1      27.632  -7.889 -42.714  0.00  0.00    +0.000 A 
ATOM      2  C3  UNL     1      28.690  -7.390 -41.929  0.00  0.00    +0.000 A 
ATOM      3  C4  UNL     1      29.030  -8.000 -40.710  0.00  0.00    +0.000 A 
ATOM      4  C19 UNL     1      28.269  -9.089 -40.257  0.00  0.00    +0.000 A 
ATOM      5  C20 UNL     1      27.211  -9.581 -41.023  0.00  0.00    +0.000 A 
ATOM      6  C21 UNL     1      26.894  -8.992 -42.260  0.00  0.00    +0.000 A 
ENDROOT
BRANCH   3   7
ATOM      7  C5  UNL     1      30.149  -7.453 -39.849  0.00  0.00    +0.000 C 
ATOM      8  N1  UNL     1      29.628  -6.997 -38.557  0.00  0.00    +0.000 NA
ATOM      9  C6  UNL     1      29.760  -7.656 -37.441  0.00  0.00    +0.000 A 
ATOM     10  C7  UNL     1      29.125  -7.174 -36.290  0.00  0.00    +0.000 A 
ATOM     11  C8  UNL     1      29.187  -7.894 -35.096  0.00  0.00    +0.000 A 
ATOM     12  C9  UNL     1      29.889  -9.099 -35.039  0.00  0.00    +0.000 A 
ATOM     13  C10 UNL     1      30.545  -9.582 -36.173  0.00  0.00    +0.000 A 
ATOM     14  C11 UNL     1      30.505  -8.860 -37.384  0.00  0.00    +0.000 A 
ATOM     15  C12 UNL     1      31.182  -9.281 -38.468  0.00  0.00    +0.000 C 
ATOM     16  N2  UNL     1      31.180  -8.476 -39.662  0.00  0.00    +0.000 N 
BRANCH  15  17
ATOM     17  O2  UNL     1      31.890 -10.485 -38.433  0.00  0.00    +0.000 OA
ATOM     18  H10 UNL     1      32.228 -10.887 -37.568  0.00  0.00    +0.000 HD
ENDBRANCH  15  17
BRANCH  16  19
ATOM     19  N3  UNL     1      32.082  -8.734 -40.711  0.00  0.00    +0.000 N 
ATOM     20  H11 UNL     1      32.895  -8.090 -40.844  0.00  0.00    +0.000 HD
BRANCH  19  21
ATOM     21  C13 UNL     1      32.009  -9.925 -41.512  0.00  0.00    +0.000 A 
ATOM     22  C14 UNL     1      33.191 -10.580 -41.886  0.00  0.00    +0.000 A 
ATOM     23  C15 UNL     1      33.142 -11.743 -42.660  0.00  0.00    +0.000 A 
ATOM     24  C16 UNL     1      31.909 -12.270 -43.054  0.00  0.00    +0.000 A 
ATOM     25  C17 UNL     1      30.726 -11.634 -42.673  0.00  0.00    +0.000 A 
ATOM     26  C18 UNL     1      30.771 -10.469 -41.903  0.00  0.00    +0.000 A 
ENDBRANCH  19  21
ENDBRANCH  16  19
ENDBRANCH   3   7
BRANCH   1  28
ATOM     27  C1  UNL     1      28.102  -7.349 -45.113  0.00  0.00    +0.000 C 
ATOM     28  O1  UNL     1      27.285  -7.316 -43.947  0.00  0.00    +0.000 OA
ENDBRANCH   1  28
BRANCH   6  29
ATOM     29  O3  UNL     1      25.854  -9.473 -43.071  0.00  0.00    +0.000 OA
BRANCH  29  30
ATOM     30  C22 UNL     1      24.475  -9.455 -42.716  0.00  0.00    +0.000 C 
BRANCH  30  31
ATOM     31  C23 UNL     1      24.160  -8.153 -42.061  0.00  0.00    +0.000 A 
ATOM     32  C24 UNL     1      23.988  -7.931 -40.713  0.00  0.00    +0.000 A 
ATOM     33  N4  UNL     1      23.814  -6.606 -40.579  0.00  0.00    +0.000 N 
ATOM     34  N6  UNL     1      23.871  -6.047 -41.778  0.00  0.00    +0.000 NA
ATOM     35  N7  UNL     1      24.097  -6.970 -42.703  0.00  0.00    +0.000 NA
BRANCH  33  36
ATOM     36  C25 UNL     1      23.531  -5.883 -39.345  0.00  0.00    +0.000 C 
BRANCH  36  37
ATOM     37  C26 UNL     1      24.356  -6.444 -38.230  0.00  0.00    +0.000 C 
ATOM     38  O4  UNL     1      25.552  -6.070 -38.097  0.00  0.00    +0.000 OA
ATOM     39  N5  UNL     1      23.779  -7.396 -37.323  0.00  0.00    +0.000 N 
ATOM     40  H24 UNL     1      22.737  -7.474 -37.300  0.00  0.00    +0.000 HD
BRANCH  39  41
ATOM     41  C27 UNL     1      24.535  -8.168 -36.376  0.00  0.00    +0.000 A 
ATOM     42  C28 UNL     1      24.274  -8.100 -34.995  0.00  0.00    +0.000 A 
ATOM     43  C29 UNL     1      25.040  -8.847 -34.093  0.00  0.00    +0.000 A 
ATOM     44  C30 UNL     1      26.077  -9.657 -34.561  0.00  0.00    +0.000 A 
ATOM     45  C31 UNL     1      26.359  -9.713 -35.928  0.00  0.00    +0.000 A 
ATOM     46  C32 UNL     1      25.598  -8.966 -36.832  0.00  0.00    +0.000 A 
ENDBRANCH  39  41
ENDBRANCH  36  37
ENDBRANCH  33  36
ENDBRANCH  30  31
ENDBRANCH  29  30
ENDBRANCH   6  29
TORSDOF 11
ENDMDL
MODEL 8
REMARK VINA RESULT:    -6.011      2.944      7.228
REMARK INTER + INTRA:         -12.280
REMARK INTER:                  -9.203
REMARK INTRA:                  -3.077
REMARK UNBOUND:                -2.578
REMARK  Name = resultss/4CJN/ligands/lig_344_t2.pdb
REMARK  12 active torsions:
REMARK  status: ('A' for Active; 'I' for Inactive)
REMARK    1  A    between atoms: C1_1  and  O1_2
REMARK    2  A    between atoms: O1_2  and  C2_3
REMARK    3  A    between atoms: C4_5  and  C5_6
REMARK    4  A    between atoms: C12_14  and  O2_15
REMARK    5  A    between atoms: N2_16  and  N3_17
REMARK    6  A    between atoms: N3_17  and  C13_18
REMARK    7  A    between atoms: C21_26  and  O3_27
REMARK    8  A    between atoms: O3_27  and  C22_28
REMARK    9  A    between atoms: C22_28  and  C23_29
REMARK   10  A    between atoms: N4_31  and  C25_32
REMARK   11  A    between atoms: C25_32  and  C26_33
REMARK   12  A    between atoms: N5_35  and  C27_36
REMARK                            x       y       z     vdW  Elec       q    Type
REMARK                         _______ _______ _______ _____ _____    ______ ____
ROOT
ATOM      1  C2  UNL     1      28.876  -9.700 -40.102  0.00  0.00    +0.000 A 
ATOM      2  C3  UNL     1      30.182  -9.303 -39.752  0.00  0.00    +0.000 A 
ATOM      3  C4  UNL     1      30.826  -8.263 -40.442  0.00  0.00    +0.000 A 
ATOM      4  C19 UNL     1      30.168  -7.651 -41.521  0.00  0.00    +0.000 A 
ATOM      5  C20 UNL     1      28.880  -8.049 -41.882  0.00  0.00    +0.000 A 
ATOM      6  C21 UNL     1      28.222  -9.066 -41.168  0.00  0.00    +0.000 A 
ENDROOT
BRANCH   3   7
ATOM      7  C5  UNL     1      32.238  -7.849 -40.088  0.00  0.00    +0.000 C 
ATOM      8  N1  UNL     1      32.281  -7.260 -38.746  0.00  0.00    +0.000 NA
ATOM      9  C6  UNL     1      32.725  -7.877 -37.689  0.00  0.00    +0.000 A 
ATOM     10  C7  UNL     1      32.615  -7.251 -36.441  0.00  0.00    +0.000 A 
ATOM     11  C8  UNL     1      33.015  -7.915 -35.281  0.00  0.00    +0.000 A 
ATOM     12  C9  UNL     1      33.536  -9.207 -35.357  0.00  0.00    +0.000 A 
ATOM     13  C10 UNL     1      33.674  -9.836 -36.596  0.00  0.00    +0.000 A 
ATOM     14  C11 UNL     1      33.287  -9.175 -37.779  0.00  0.00    +0.000 A 
ATOM     15  C12 UNL     1      33.468  -9.744 -38.985  0.00  0.00    +0.000 C 
ATOM     16  N2  UNL     1      33.133  -9.006 -40.176  0.00  0.00    +0.000 N 
BRANCH  15  17
ATOM     17  O2  UNL     1      33.987 -11.037 -39.083  0.00  0.00    +0.000 OA
ATOM     18  H10 UNL     1      33.393 -11.854 -39.154  0.00  0.00    +0.000 HD
ENDBRANCH  15  17
BRANCH  16  19
ATOM     19  N3  UNL     1      33.556  -9.445 -41.444  0.00  0.00    +0.000 N 
ATOM     20  H11 UNL     1      34.350  -8.950 -41.908  0.00  0.00    +0.000 HD
BRANCH  19  21
ATOM     21  C13 UNL     1      33.033 -10.635 -42.058  0.00  0.00    +0.000 A 
ATOM     22  C14 UNL     1      31.685 -10.678 -42.444  0.00  0.00    +0.000 A 
ATOM     23  C15 UNL     1      31.158 -11.824 -43.048  0.00  0.00    +0.000 A 
ATOM     24  C16 UNL     1      31.977 -12.930 -43.285  0.00  0.00    +0.000 A 
ATOM     25  C17 UNL     1      33.325 -12.890 -42.920  0.00  0.00    +0.000 A 
ATOM     26  C18 UNL     1      33.855 -11.749 -42.312  0.00  0.00    +0.000 A 
ENDBRANCH  19  21
ENDBRANCH  16  19
ENDBRANCH   3   7
BRANCH   1  28
ATOM     27  C1  UNL     1      27.981 -10.741 -38.009  0.00  0.00    +0.000 C 
ATOM     28  O1  UNL     1      28.199 -10.720 -39.416  0.00  0.00    +0.000 OA
ENDBRANCH   1  28
BRANCH   6  29
ATOM     29  O3  UNL     1      26.918  -9.476 -41.485  0.00  0.00    +0.000 OA
BRANCH  29  30
ATOM     30  C22 UNL     1      25.770  -8.636 -41.436  0.00  0.00    +0.000 C 
BRANCH  30  31
ATOM     31  C23 UNL     1      25.605  -8.121 -40.046  0.00  0.00    +0.000 A 
ATOM     32  C24 UNL     1      25.094  -8.808 -38.969  0.00  0.00    +0.000 A 
ATOM     33  N4  UNL     1      25.223  -7.987 -37.914  0.00  0.00    +0.000 N 
ATOM     34  N6  UNL     1      25.778  -6.857 -38.322  0.00  0.00    +0.000 NA
ATOM     35  N7  UNL     1      26.037  -6.916 -39.621  0.00  0.00    +0.000 NA
BRANCH  33  36
ATOM     36  C25 UNL     1      24.768  -8.238 -36.551  0.00  0.00    +0.000 C 
BRANCH  36  37
ATOM     37  C26 UNL     1      25.874  -8.854 -35.754  0.00  0.00    +0.000 C 
ATOM     38  O4  UNL     1      25.734 -10.023 -35.304  0.00  0.00    +0.000 OA
ATOM     39  N5  UNL     1      27.080  -8.113 -35.512  0.00  0.00    +0.000 N 
ATOM     40  H24 UNL     1      27.264  -7.277 -36.113  0.00  0.00    +0.000 HD
BRANCH  39  41
ATOM     41  C27 UNL     1      28.094  -8.507 -34.574  0.00  0.00    +0.000 A 
ATOM     42  C28 UNL     1      29.160  -9.344 -34.951  0.00  0.00    +0.000 A 
ATOM     43  C29 UNL     1      30.122  -9.729 -34.011  0.00  0.00    +0.000 A 
ATOM     44  C30 UNL     1      30.022  -9.292 -32.688  0.00  0.00    +0.000 A 
ATOM     45  C31 UNL     1      28.953  -8.480 -32.299  0.00  0.00    +0.000 A 
ATOM     46  C32 UNL     1      27.988  -8.096 -33.235  0.00  0.00    +0.000 A 
ENDBRANCH  39  41
ENDBRANCH  36  37
ENDBRANCH  33  36
ENDBRANCH  30  31
ENDBRANCH  29  30
ENDBRANCH   6  29
TORSDOF 11
ENDMDL
MODEL 9
REMARK VINA RESULT:    -5.965      3.778      7.480
REMARK INTER + INTRA:         -12.205
REMARK INTER:                  -8.868
REMARK INTRA:                  -3.337
REMARK UNBOUND:                -2.578
REMARK  Name = resultss/4CJN/ligands/lig_344_t2.pdb
REMARK  12 active torsions:
REMARK  status: ('A' for Active; 'I' for Inactive)
REMARK    1  A    between atoms: C1_1  and  O1_2
REMARK    2  A    between atoms: O1_2  and  C2_3
REMARK    3  A    between atoms: C4_5  and  C5_6
REMARK    4  A    between atoms: C12_14  and  O2_15
REMARK    5  A    between atoms: N2_16  and  N3_17
REMARK    6  A    between atoms: N3_17  and  C13_18
REMARK    7  A    between atoms: C21_26  and  O3_27
REMARK    8  A    between atoms: O3_27  and  C22_28
REMARK    9  A    between atoms: C22_28  and  C23_29
REMARK   10  A    between atoms: N4_31  and  C25_32
REMARK   11  A    between atoms: C25_32  and  C26_33
REMARK   12  A    between atoms: N5_35  and  C27_36
REMARK                            x       y       z     vdW  Elec       q    Type
REMARK                         _______ _______ _______ _____ _____    ______ ____
ROOT
ATOM      1  C2  UNL     1      27.930  -9.904 -41.666  0.00  0.00    +0.000 A 
ATOM      2  C3  UNL     1      29.011 -10.786 -41.469  0.00  0.00    +0.000 A 
ATOM      3  C4  UNL     1      30.135 -10.745 -42.310  0.00  0.00    +0.000 A 
ATOM      4  C19 UNL     1      30.149  -9.841 -43.384  0.00  0.00    +0.000 A 
ATOM      5  C20 UNL     1      29.076  -8.974 -43.594  0.00  0.00    +0.000 A 
ATOM      6  C21 UNL     1      27.966  -8.992 -42.730  0.00  0.00    +0.000 A 
ENDROOT
BRANCH   3   7
ATOM      7  C5  UNL     1      31.288 -11.706 -42.119  0.00  0.00    +0.000 C 
ATOM      8  N1  UNL     1      31.383 -12.627 -43.255  0.00  0.00    +0.000 NA
ATOM      9  C6  UNL     1      32.270 -12.529 -44.204  0.00  0.00    +0.000 A 
ATOM     10  C7  UNL     1      32.194 -13.404 -45.296  0.00  0.00    +0.000 A 
ATOM     11  C8  UNL     1      33.084 -13.279 -46.364  0.00  0.00    +0.000 A 
ATOM     12  C9  UNL     1      34.062 -12.284 -46.347  0.00  0.00    +0.000 A 
ATOM     13  C10 UNL     1      34.165 -11.419 -45.256  0.00  0.00    +0.000 A 
ATOM     14  C11 UNL     1      33.283 -11.540 -44.163  0.00  0.00    +0.000 A 
ATOM     15  C12 UNL     1      33.407 -10.753 -43.078  0.00  0.00    +0.000 C 
ATOM     16  N2  UNL     1      32.537 -10.960 -41.949  0.00  0.00    +0.000 N 
BRANCH  15  17
ATOM     17  O2  UNL     1      34.380  -9.751 -43.042  0.00  0.00    +0.000 OA
ATOM     18  H10 UNL     1      34.290  -8.893 -43.570  0.00  0.00    +0.000 HD
ENDBRANCH  15  17
BRANCH  16  19
ATOM     19  N3  UNL     1      32.806 -10.355 -40.707  0.00  0.00    +0.000 N 
ATOM     20  H11 UNL     1      33.721 -10.550 -40.242  0.00  0.00    +0.000 HD
BRANCH  19  21
ATOM     21  C13 UNL     1      31.934  -9.372 -40.127  0.00  0.00    +0.000 A 
ATOM     22  C14 UNL     1      31.207  -9.689 -38.969  0.00  0.00    +0.000 A 
ATOM     23  C15 UNL     1      30.358  -8.744 -38.386  0.00  0.00    +0.000 A 
ATOM     24  C16 UNL     1      30.239  -7.469 -38.945  0.00  0.00    +0.000 A 
ATOM     25  C17 UNL     1      30.971  -7.138 -40.087  0.00  0.00    +0.000 A 
ATOM     26  C18 UNL     1      31.818  -8.081 -40.677  0.00  0.00    +0.000 A 
ENDBRANCH  19  21
ENDBRANCH  16  19
ENDBRANCH   3   7
BRANCH   1  28
ATOM     27  C1  UNL     1      25.655 -10.725 -41.021  0.00  0.00    +0.000 C 
ATOM     28  O1  UNL     1      26.804  -9.907 -40.828  0.00  0.00    +0.000 OA
ENDBRANCH   1  28
BRANCH   6  29
ATOM     29  O3  UNL     1      26.879  -8.119 -42.893  0.00  0.00    +0.000 OA
BRANCH  29  30
ATOM     30  C22 UNL     1      26.924  -6.716 -42.656  0.00  0.00    +0.000 C 
BRANCH  30  31
ATOM     31  C23 UNL     1      26.615  -6.456 -41.220  0.00  0.00    +0.000 A 
ATOM     32  C24 UNL     1      25.481  -6.838 -40.541  0.00  0.00    +0.000 A 
ATOM     33  N4  UNL     1      25.678  -6.475 -39.263  0.00  0.00    +0.000 N 
ATOM     34  N6  UNL     1      26.865  -5.897 -39.165  0.00  0.00    +0.000 NA
ATOM     35  N7  UNL     1      27.467  -5.885 -40.346  0.00  0.00    +0.000 NA
BRANCH  33  36
ATOM     36  C25 UNL     1      24.732  -6.610 -38.161  0.00  0.00    +0.000 C 
BRANCH  36  37
ATOM     37  C26 UNL     1      25.430  -7.166 -36.961  0.00  0.00    +0.000 C 
ATOM     38  O4  UNL     1      24.992  -6.893 -35.810  0.00  0.00    +0.000 OA
ATOM     39  N5  UNL     1      26.585  -8.002 -37.128  0.00  0.00    +0.000 N 
ATOM     40  H24 UNL     1      26.751  -8.416 -38.074  0.00  0.00    +0.000 HD
BRANCH  39  41
ATOM     41  C27 UNL     1      27.462  -8.390 -36.058  0.00  0.00    +0.000 A 
ATOM     42  C28 UNL     1      27.338  -9.638 -35.421  0.00  0.00    +0.000 A 
ATOM     43  C29 UNL     1      28.193  -9.981 -34.367  0.00  0.00    +0.000 A 
ATOM     44  C30 UNL     1      29.168  -9.078 -33.935  0.00  0.00    +0.000 A 
ATOM     45  C31 UNL     1      29.282  -7.827 -34.548  0.00  0.00    +0.000 A 
ATOM     46  C32 UNL     1      28.428  -7.480 -35.598  0.00  0.00    +0.000 A 
ENDBRANCH  39  41
ENDBRANCH  36  37
ENDBRANCH  33  36
ENDBRANCH  30  31
ENDBRANCH  29  30
ENDBRANCH   6  29
TORSDOF 11
ENDMDL
