MODEL 1
REMARK VINA RESULT:    -5.603      0.000      0.000
REMARK INTER + INTRA:          -6.462
REMARK INTER:                  -6.258
REMARK INTRA:                  -0.204
REMARK UNBOUND:                -0.204
REMARK  Name = resultss/4CJN/ligands/lig_243_t1.pdb
REMARK  2 active torsions:
REMARK  status: ('A' for Active; 'I' for Inactive)
REMARK    1  A    between atoms: N3_12  and  N4_13
REMARK    2  A    between atoms: C9_14  and  C10_15
REMARK                            x       y       z     vdW  Elec       q    Type
REMARK                         _______ _______ _______ _____ _____    ______ ____
ROOT
ATOM      1  O1  UNL     1      30.518 -10.362 -37.381  0.00  0.00    +0.000 OA
ATOM      2  C1  UNL     1      29.578 -10.170 -38.201  0.00  0.00    +0.000 A 
ATOM      3  N1  UNL     1      29.847 -10.123 -39.535  0.00  0.00    +0.000 N 
ATOM      4  C2  UNL     1      28.855  -9.917 -40.444  0.00  0.00    +0.000 A 
ATOM      5  C3  UNL     1      29.137  -9.869 -41.819  0.00  0.00    +0.000 A 
ATOM      6  C4  UNL     1      28.106  -9.657 -42.739  0.00  0.00    +0.000 A 
ATOM      7  C5  UNL     1      26.791  -9.491 -42.295  0.00  0.00    +0.000 A 
ATOM      8  C6  UNL     1      26.499  -9.537 -40.928  0.00  0.00    +0.000 A 
ATOM      9  C7  UNL     1      27.527  -9.750 -39.996  0.00  0.00    +0.000 A 
ATOM     10  N2  UNL     1      27.260  -9.797 -38.659  0.00  0.00    +0.000 N 
ATOM     11  C8  UNL     1      28.259 -10.005 -37.747  0.00  0.00    +0.000 A 
ATOM     12  N3  UNL     1      28.011 -10.052 -36.470  0.00  0.00    +0.000 NA
ATOM     13  H1  UNL     1      30.834 -10.248 -39.858  0.00  0.00    +0.000 HD
ATOM     14  H6  UNL     1      26.273  -9.673 -38.340  0.00  0.00    +0.000 HD
ENDROOT
BRANCH  12  15
ATOM     15  N4  UNL     1      26.723  -9.895 -35.939  0.00  0.00    +0.000 NA
ATOM     16  C9  UNL     1      26.351  -8.767 -35.427  0.00  0.00    +0.000 C 
BRANCH  16  17
ATOM     17  C10 UNL     1      25.003  -8.613 -34.875  0.00  0.00    +0.000 A 
ATOM     18  C11 UNL     1      24.576  -9.102 -33.647  0.00  0.00    +0.000 A 
ATOM     19  C12 UNL     1      23.235  -8.807 -33.374  0.00  0.00    +0.000 A 
ATOM     20  C13 UNL     1      22.603  -8.089 -34.381  0.00  0.00    +0.000 A 
ATOM     21  S1  UNL     1      23.715  -7.820 -35.615  0.00  0.00    +0.000 S 
ENDBRANCH  16  17
ENDBRANCH  12  15
TORSDOF 2
ENDMDL
MODEL 2
REMARK VINA RESULT:    -5.484      2.730      7.028
REMARK INTER + INTRA:          -6.329
REMARK INTER:                  -6.106
REMARK INTRA:                  -0.223
REMARK UNBOUND:                -0.204
REMARK  Name = resultss/4CJN/ligands/lig_243_t1.pdb
REMARK  2 active torsions:
REMARK  status: ('A' for Active; 'I' for Inactive)
REMARK    1  A    between atoms: N3_12  and  N4_13
REMARK    2  A    between atoms: C9_14  and  C10_15
REMARK                            x       y       z     vdW  Elec       q    Type
REMARK                         _______ _______ _______ _____ _____    ______ ____
ROOT
ATOM      1  O1  UNL     1      26.381 -10.599 -34.340  0.00  0.00    +0.000 OA
ATOM      2  C1  UNL     1      25.716  -9.720 -34.954  0.00  0.00    +0.000 A 
ATOM      3  N1  UNL     1      24.664  -9.118 -34.336  0.00  0.00    +0.000 N 
ATOM      4  C2  UNL     1      23.926  -8.166 -34.972  0.00  0.00    +0.000 A 
ATOM      5  C3  UNL     1      22.841  -7.547 -34.330  0.00  0.00    +0.000 A 
ATOM      6  C4  UNL     1      22.096  -6.571 -34.998  0.00  0.00    +0.000 A 
ATOM      7  C5  UNL     1      22.425  -6.209 -36.307  0.00  0.00    +0.000 A 
ATOM      8  C6  UNL     1      23.503  -6.818 -36.956  0.00  0.00    +0.000 A 
ATOM      9  C7  UNL     1      24.260  -7.799 -36.294  0.00  0.00    +0.000 A 
ATOM     10  N2  UNL     1      25.314  -8.404 -36.911  0.00  0.00    +0.000 N 
ATOM     11  C8  UNL     1      26.054  -9.360 -36.269  0.00  0.00    +0.000 A 
ATOM     12  N3  UNL     1      27.062  -9.942 -36.853  0.00  0.00    +0.000 NA
ATOM     13  H1  UNL     1      24.424  -9.396 -33.356  0.00  0.00    +0.000 HD
ATOM     14  H6  UNL     1      25.551  -8.124 -37.890  0.00  0.00    +0.000 HD
ENDROOT
BRANCH  12  15
ATOM     15  N4  UNL     1      27.461  -9.638 -38.162  0.00  0.00    +0.000 NA
ATOM     16  C9  UNL     1      27.565 -10.569 -39.055  0.00  0.00    +0.000 C 
BRANCH  16  17
ATOM     17  C10 UNL     1      27.983 -10.242 -40.420  0.00  0.00    +0.000 A 
ATOM     18  C11 UNL     1      27.186  -9.636 -41.382  0.00  0.00    +0.000 A 
ATOM     19  C12 UNL     1      27.847  -9.442 -42.602  0.00  0.00    +0.000 A 
ATOM     20  C13 UNL     1      29.160  -9.895 -42.604  0.00  0.00    +0.000 A 
ATOM     21  S1  UNL     1      29.501 -10.536 -41.086  0.00  0.00    +0.000 S 
ENDBRANCH  16  17
ENDBRANCH  12  15
TORSDOF 2
ENDMDL
MODEL 3
REMARK VINA RESULT:    -5.316      3.381      7.072
REMARK INTER + INTRA:          -6.141
REMARK INTER:                  -5.948
REMARK INTRA:                  -0.193
REMARK UNBOUND:                -0.204
REMARK  Name = resultss/4CJN/ligands/lig_243_t1.pdb
REMARK  2 active torsions:
REMARK  status: ('A' for Active; 'I' for Inactive)
REMARK    1  A    between atoms: N3_12  and  N4_13
REMARK    2  A    between atoms: C9_14  and  C10_15
REMARK                            x       y       z     vdW  Elec       q    Type
REMARK                         _______ _______ _______ _____ _____    ______ ____
ROOT
ATOM      1  O1  UNL     1      26.134 -10.288 -34.601  0.00  0.00    +0.000 OA
ATOM      2  C1  UNL     1      27.359 -10.044 -34.780  0.00  0.00    +0.000 A 
ATOM      3  N1  UNL     1      28.204 -10.021 -33.713  0.00  0.00    +0.000 N 
ATOM      4  C2  UNL     1      29.531  -9.760 -33.873  0.00  0.00    +0.000 A 
ATOM      5  C3  UNL     1      30.399  -9.738 -32.770  0.00  0.00    +0.000 A 
ATOM      6  C4  UNL     1      31.758  -9.470 -32.953  0.00  0.00    +0.000 A 
ATOM      7  C5  UNL     1      32.259  -9.220 -34.234  0.00  0.00    +0.000 A 
ATOM      8  C6  UNL     1      31.404  -9.240 -35.340  0.00  0.00    +0.000 A 
ATOM      9  C7  UNL     1      30.036  -9.509 -35.167  0.00  0.00    +0.000 A 
ATOM     10  N2  UNL     1      29.188  -9.532 -36.234  0.00  0.00    +0.000 N 
ATOM     11  C8  UNL     1      27.855  -9.794 -36.070  0.00  0.00    +0.000 A 
ATOM     12  N3  UNL     1      27.039  -9.818 -37.085  0.00  0.00    +0.000 NA
ATOM     13  H1  UNL     1      27.820 -10.208 -32.758  0.00  0.00    +0.000 HD
ATOM     14  H6  UNL     1      29.575  -9.344 -37.187  0.00  0.00    +0.000 HD
ENDROOT
BRANCH  12  15
ATOM     15  N4  UNL     1      27.457  -9.579 -38.402  0.00  0.00    +0.000 NA
ATOM     16  C9  UNL     1      27.696 -10.562 -39.208  0.00  0.00    +0.000 C 
BRANCH  16  17
ATOM     17  C10 UNL     1      28.133 -10.304 -40.583  0.00  0.00    +0.000 A 
ATOM     18  C11 UNL     1      29.312 -10.767 -41.152  0.00  0.00    +0.000 A 
ATOM     19  C12 UNL     1      29.473 -10.367 -42.485  0.00  0.00    +0.000 A 
ATOM     20  C13 UNL     1      28.427  -9.590 -42.966  0.00  0.00    +0.000 A 
ATOM     21  S1  UNL     1      27.298  -9.401 -41.732  0.00  0.00    +0.000 S 
ENDBRANCH  16  17
ENDBRANCH  12  15
TORSDOF 2
ENDMDL
MODEL 4
REMARK VINA RESULT:    -5.299      3.912      8.125
REMARK INTER + INTRA:          -6.122
REMARK INTER:                  -5.919
REMARK INTRA:                  -0.203
REMARK UNBOUND:                -0.204
REMARK  Name = resultss/4CJN/ligands/lig_243_t1.pdb
REMARK  2 active torsions:
REMARK  status: ('A' for Active; 'I' for Inactive)
REMARK    1  A    between atoms: N3_12  and  N4_13
REMARK    2  A    between atoms: C9_14  and  C10_15
REMARK                            x       y       z     vdW  Elec       q    Type
REMARK                         _______ _______ _______ _____ _____    ______ ____
ROOT
ATOM      1  O1  UNL     1      25.890  -9.535 -40.786  0.00  0.00    +0.000 OA
ATOM      2  C1  UNL     1      26.694  -9.662 -39.822  0.00  0.00    +0.000 A 
ATOM      3  N1  UNL     1      26.322  -9.259 -38.577  0.00  0.00    +0.000 N 
ATOM      4  C2  UNL     1      27.166  -9.384 -37.516  0.00  0.00    +0.000 A 
ATOM      5  C3  UNL     1      26.777  -8.966 -36.233  0.00  0.00    +0.000 A 
ATOM      6  C4  UNL     1      27.658  -9.103 -35.155  0.00  0.00    +0.000 A 
ATOM      7  C5  UNL     1      28.928  -9.653 -35.350  0.00  0.00    +0.000 A 
ATOM      8  C6  UNL     1      29.325 -10.071 -36.623  0.00  0.00    +0.000 A 
ATOM      9  C7  UNL     1      28.448  -9.940 -37.713  0.00  0.00    +0.000 A 
ATOM     10  N2  UNL     1      28.820 -10.342 -38.962  0.00  0.00    +0.000 N 
ATOM     11  C8  UNL     1      27.968 -10.217 -40.026  0.00  0.00    +0.000 A 
ATOM     12  N3  UNL     1      28.316 -10.599 -41.221  0.00  0.00    +0.000 NA
ATOM     13  H1  UNL     1      25.369  -8.848 -38.440  0.00  0.00    +0.000 HD
ATOM     14  H6  UNL     1      29.772 -10.753 -39.094  0.00  0.00    +0.000 HD
ENDROOT
BRANCH  12  15
ATOM     15  N4  UNL     1      29.570 -11.161 -41.504  0.00  0.00    +0.000 NA
ATOM     16  C9  UNL     1      30.185 -10.882 -42.607  0.00  0.00    +0.000 C 
BRANCH  16  17
ATOM     17  C10 UNL     1      31.494 -11.474 -42.895  0.00  0.00    +0.000 A 
ATOM     18  C11 UNL     1      31.705 -12.675 -43.558  0.00  0.00    +0.000 A 
ATOM     19  C12 UNL     1      33.061 -12.997 -43.695  0.00  0.00    +0.000 A 
ATOM     20  C13 UNL     1      33.918 -12.055 -43.142  0.00  0.00    +0.000 A 
ATOM     21  S1  UNL     1      32.988 -10.817 -42.482  0.00  0.00    +0.000 S 
ENDBRANCH  16  17
ENDBRANCH  12  15
TORSDOF 2
ENDMDL
MODEL 5
REMARK VINA RESULT:    -5.146      2.621      3.431
REMARK INTER + INTRA:          -5.951
REMARK INTER:                  -5.751
REMARK INTRA:                  -0.200
REMARK UNBOUND:                -0.204
REMARK  Name = resultss/4CJN/ligands/lig_243_t1.pdb
REMARK  2 active torsions:
REMARK  status: ('A' for Active; 'I' for Inactive)
REMARK    1  A    between atoms: N3_12  and  N4_13
REMARK    2  A    between atoms: C9_14  and  C10_15
REMARK                            x       y       z     vdW  Elec       q    Type
REMARK                         _______ _______ _______ _____ _____    ______ ____
ROOT
ATOM      1  O1  UNL     1      24.428  -7.345 -41.813  0.00  0.00    +0.000 OA
ATOM      2  C1  UNL     1      25.405  -8.060 -41.458  0.00  0.00    +0.000 A 
ATOM      3  N1  UNL     1      26.351  -8.412 -42.372  0.00  0.00    +0.000 N 
ATOM      4  C2  UNL     1      27.416  -9.183 -42.020  0.00  0.00    +0.000 A 
ATOM      5  C3  UNL     1      28.389  -9.542 -42.966  0.00  0.00    +0.000 A 
ATOM      6  C4  UNL     1      29.477 -10.334 -42.586  0.00  0.00    +0.000 A 
ATOM      7  C5  UNL     1      29.600 -10.772 -41.265  0.00  0.00    +0.000 A 
ATOM      8  C6  UNL     1      28.637 -10.420 -40.314  0.00  0.00    +0.000 A 
ATOM      9  C7  UNL     1      27.540  -9.625 -40.685  0.00  0.00    +0.000 A 
ATOM     10  N2  UNL     1      26.591  -9.272 -39.771  0.00  0.00    +0.000 N 
ATOM     11  C8  UNL     1      25.521  -8.497 -40.128  0.00  0.00    +0.000 A 
ATOM     12  N3  UNL     1      24.612  -8.156 -39.261  0.00  0.00    +0.000 NA
ATOM     13  H1  UNL     1      26.250  -8.079 -43.359  0.00  0.00    +0.000 HD
ATOM     14  H6  UNL     1      26.695  -9.606 -38.786  0.00  0.00    +0.000 HD
ENDROOT
BRANCH  12  15
ATOM     15  N4  UNL     1      24.658  -8.552 -37.916  0.00  0.00    +0.000 NA
ATOM     16  C9  UNL     1      24.184  -7.789 -36.986  0.00  0.00    +0.000 C 
BRANCH  16  17
ATOM     17  C10 UNL     1      24.237  -8.210 -35.583  0.00  0.00    +0.000 A 
ATOM     18  C11 UNL     1      23.167  -8.194 -34.698  0.00  0.00    +0.000 A 
ATOM     19  C12 UNL     1      23.505  -8.653 -33.419  0.00  0.00    +0.000 A 
ATOM     20  C13 UNL     1      24.836  -9.030 -33.294  0.00  0.00    +0.000 A 
ATOM     21  S1  UNL     1      25.594  -8.793 -34.777  0.00  0.00    +0.000 S 
ENDBRANCH  16  17
ENDBRANCH  12  15
TORSDOF 2
ENDMDL
MODEL 6
REMARK VINA RESULT:    -4.899      5.848      8.222
REMARK INTER + INTRA:          -5.675
REMARK INTER:                  -5.477
REMARK INTRA:                  -0.198
REMARK UNBOUND:                -0.204
REMARK  Name = resultss/4CJN/ligands/lig_243_t1.pdb
REMARK  2 active torsions:
REMARK  status: ('A' for Active; 'I' for Inactive)
REMARK    1  A    between atoms: N3_12  and  N4_13
REMARK    2  A    between atoms: C9_14  and  C10_15
REMARK                            x       y       z     vdW  Elec       q    Type
REMARK                         _______ _______ _______ _____ _____    ______ ____
ROOT
ATOM      1  O1  UNL     1      22.351  -7.388 -45.160  0.00  0.00    +0.000 OA
ATOM      2  C1  UNL     1      23.532  -7.206 -45.566  0.00  0.00    +0.000 A 
ATOM      3  N1  UNL     1      23.748  -6.757 -46.832  0.00  0.00    +0.000 N 
ATOM      4  C2  UNL     1      25.010  -6.552 -47.300  0.00  0.00    +0.000 A 
ATOM      5  C3  UNL     1      25.228  -6.089 -48.607  0.00  0.00    +0.000 A 
ATOM      6  C4  UNL     1      26.531  -5.883 -49.070  0.00  0.00    +0.000 A 
ATOM      7  C5  UNL     1      27.622  -6.139 -48.235  0.00  0.00    +0.000 A 
ATOM      8  C6  UNL     1      27.417  -6.601 -46.931  0.00  0.00    +0.000 A 
ATOM      9  C7  UNL     1      26.112  -6.810 -46.456  0.00  0.00    +0.000 A 
ATOM     10  N2  UNL     1      25.893  -7.261 -45.188  0.00  0.00    +0.000 N 
ATOM     11  C8  UNL     1      24.623  -7.466 -44.720  0.00  0.00    +0.000 A 
ATOM     12  N3  UNL     1      24.408  -7.896 -43.510  0.00  0.00    +0.000 NA
ATOM     13  H1  UNL     1      22.925  -6.569 -47.450  0.00  0.00    +0.000 HD
ATOM     14  H6  UNL     1      26.718  -7.448 -44.572  0.00  0.00    +0.000 HD
ENDROOT
BRANCH  12  15
ATOM     15  N4  UNL     1      25.443  -8.177 -42.608  0.00  0.00    +0.000 NA
ATOM     16  C9  UNL     1      25.831  -9.394 -42.404  0.00  0.00    +0.000 C 
BRANCH  16  17
ATOM     17  C10 UNL     1      26.913  -9.679 -41.459  0.00  0.00    +0.000 A 
ATOM     18  C11 UNL     1      28.209 -10.038 -41.804  0.00  0.00    +0.000 A 
ATOM     19  C12 UNL     1      29.036 -10.250 -40.694  0.00  0.00    +0.000 A 
ATOM     20  C13 UNL     1      28.395 -10.060 -39.476  0.00  0.00    +0.000 A 
ATOM     21  S1  UNL     1      26.799  -9.626 -39.780  0.00  0.00    +0.000 S 
ENDBRANCH  16  17
ENDBRANCH  12  15
TORSDOF 2
ENDMDL
MODEL 7
REMARK VINA RESULT:    -4.802      4.818      7.902
REMARK INTER + INTRA:          -5.568
REMARK INTER:                  -5.345
REMARK INTRA:                  -0.223
REMARK UNBOUND:                -0.204
REMARK  Name = resultss/4CJN/ligands/lig_243_t1.pdb
REMARK  2 active torsions:
REMARK  status: ('A' for Active; 'I' for Inactive)
REMARK    1  A    between atoms: N3_12  and  N4_13
REMARK    2  A    between atoms: C9_14  and  C10_15
REMARK                            x       y       z     vdW  Elec       q    Type
REMARK                         _______ _______ _______ _____ _____    ______ ____
ROOT
ATOM      1  O1  UNL     1      24.619  -9.245 -39.862  0.00  0.00    +0.000 OA
ATOM      2  C1  UNL     1      25.643  -9.354 -40.590  0.00  0.00    +0.000 A 
ATOM      3  N1  UNL     1      26.832  -9.710 -40.031  0.00  0.00    +0.000 N 
ATOM      4  C2  UNL     1      27.956  -9.836 -40.790  0.00  0.00    +0.000 A 
ATOM      5  C3  UNL     1      29.180 -10.203 -40.209  0.00  0.00    +0.000 A 
ATOM      6  C4  UNL     1      30.323 -10.329 -41.004  0.00  0.00    +0.000 A 
ATOM      7  C5  UNL     1      30.252 -10.088 -42.379  0.00  0.00    +0.000 A 
ATOM      8  C6  UNL     1      29.039  -9.723 -42.968  0.00  0.00    +0.000 A 
ATOM      9  C7  UNL     1      27.884  -9.594 -42.179  0.00  0.00    +0.000 A 
ATOM     10  N2  UNL     1      26.692  -9.238 -42.736  0.00  0.00    +0.000 N 
ATOM     11  C8  UNL     1      25.564  -9.112 -41.971  0.00  0.00    +0.000 A 
ATOM     12  N3  UNL     1      24.423  -8.772 -42.497  0.00  0.00    +0.000 NA
ATOM     13  H1  UNL     1      26.875  -9.887 -39.001  0.00  0.00    +0.000 HD
ATOM     14  H6  UNL     1      26.652  -9.061 -43.766  0.00  0.00    +0.000 HD
ENDROOT
BRANCH  12  15
ATOM     15  N4  UNL     1      24.264  -8.513 -43.866  0.00  0.00    +0.000 NA
ATOM     16  C9  UNL     1      23.620  -7.467 -44.271  0.00  0.00    +0.000 C 
BRANCH  16  17
ATOM     17  C10 UNL     1      23.458  -7.205 -45.704  0.00  0.00    +0.000 A 
ATOM     18  C11 UNL     1      24.490  -7.144 -46.632  0.00  0.00    +0.000 A 
ATOM     19  C12 UNL     1      24.044  -6.878 -47.932  0.00  0.00    +0.000 A 
ATOM     20  C13 UNL     1      22.667  -6.728 -48.032  0.00  0.00    +0.000 A 
ATOM     21  S1  UNL     1      22.001  -6.927 -46.499  0.00  0.00    +0.000 S 
ENDBRANCH  16  17
ENDBRANCH  12  15
TORSDOF 2
ENDMDL
MODEL 8
REMARK VINA RESULT:    -4.758      3.954      6.939
REMARK INTER + INTRA:          -5.518
REMARK INTER:                  -5.290
REMARK INTRA:                  -0.228
REMARK UNBOUND:                -0.204
REMARK  Name = resultss/4CJN/ligands/lig_243_t1.pdb
REMARK  2 active torsions:
REMARK  status: ('A' for Active; 'I' for Inactive)
REMARK    1  A    between atoms: N3_12  and  N4_13
REMARK    2  A    between atoms: C9_14  and  C10_15
REMARK                            x       y       z     vdW  Elec       q    Type
REMARK                         _______ _______ _______ _____ _____    ______ ____
ROOT
ATOM      1  O1  UNL     1      27.099  -8.539 -38.189  0.00  0.00    +0.000 OA
ATOM      2  C1  UNL     1      26.574  -8.612 -37.044  0.00  0.00    +0.000 A 
ATOM      3  N1  UNL     1      25.262  -8.291 -36.882  0.00  0.00    +0.000 N 
ATOM      4  C2  UNL     1      24.667  -8.360 -35.659  0.00  0.00    +0.000 A 
ATOM      5  C3  UNL     1      23.312  -8.028 -35.498  0.00  0.00    +0.000 A 
ATOM      6  C4  UNL     1      22.718  -8.105 -34.234  0.00  0.00    +0.000 A 
ATOM      7  C5  UNL     1      23.469  -8.512 -33.128  0.00  0.00    +0.000 A 
ATOM      8  C6  UNL     1      24.818  -8.844 -33.278  0.00  0.00    +0.000 A 
ATOM      9  C7  UNL     1      25.425  -8.771 -34.542  0.00  0.00    +0.000 A 
ATOM     10  N2  UNL     1      26.741  -9.091 -34.706  0.00  0.00    +0.000 N 
ATOM     11  C8  UNL     1      27.336  -9.022 -35.937  0.00  0.00    +0.000 A 
ATOM     12  N3  UNL     1      28.591  -9.327 -36.100  0.00  0.00    +0.000 NA
ATOM     13  H1  UNL     1      24.708  -7.988 -37.716  0.00  0.00    +0.000 HD
ATOM     14  H6  UNL     1      27.291  -9.394 -33.871  0.00  0.00    +0.000 HD
ENDROOT
BRANCH  12  15
ATOM     15  N4  UNL     1      29.416  -9.743 -35.046  0.00  0.00    +0.000 NA
ATOM     16  C9  UNL     1      30.583  -9.213 -34.869  0.00  0.00    +0.000 C 
BRANCH  16  17
ATOM     17  C10 UNL     1      31.438  -9.655 -33.765  0.00  0.00    +0.000 A 
ATOM     18  C11 UNL     1      31.003 -10.326 -32.630  0.00  0.00    +0.000 A 
ATOM     19  C12 UNL     1      32.040 -10.626 -31.738  0.00  0.00    +0.000 A 
ATOM     20  C13 UNL     1      33.289 -10.194 -32.166  0.00  0.00    +0.000 A 
ATOM     21  S1  UNL     1      33.104  -9.437 -33.657  0.00  0.00    +0.000 S 
ENDBRANCH  16  17
ENDBRANCH  12  15
TORSDOF 2
ENDMDL
MODEL 9
REMARK VINA RESULT:    -4.750      4.122      5.867
REMARK INTER + INTRA:          -5.509
REMARK INTER:                  -5.316
REMARK INTRA:                  -0.193
REMARK UNBOUND:                -0.204
REMARK  Name = resultss/4CJN/ligands/lig_243_t1.pdb
REMARK  2 active torsions:
REMARK  status: ('A' for Active; 'I' for Inactive)
REMARK    1  A    between atoms: N3_12  and  N4_13
REMARK    2  A    between atoms: C9_14  and  C10_15
REMARK                            x       y       z     vdW  Elec       q    Type
REMARK                         _______ _______ _______ _____ _____    ______ ____
ROOT
ATOM      1  O1  UNL     1      22.811  -8.702 -42.640  0.00  0.00    +0.000 OA
ATOM      2  C1  UNL     1      23.982  -8.461 -43.042  0.00  0.00    +0.000 A 
ATOM      3  N1  UNL     1      24.170  -7.866 -44.251  0.00  0.00    +0.000 N 
ATOM      4  C2  UNL     1      25.421  -7.593 -44.714  0.00  0.00    +0.000 A 
ATOM      5  C3  UNL     1      25.610  -6.979 -45.962  0.00  0.00    +0.000 A 
ATOM      6  C4  UNL     1      26.902  -6.705 -46.420  0.00  0.00    +0.000 A 
ATOM      7  C5  UNL     1      28.011  -7.045 -45.640  0.00  0.00    +0.000 A 
ATOM      8  C6  UNL     1      27.834  -7.657 -44.396  0.00  0.00    +0.000 A 
ATOM      9  C7  UNL     1      26.541  -7.935 -43.925  0.00  0.00    +0.000 A 
ATOM     10  N2  UNL     1      26.350  -8.532 -42.714  0.00  0.00    +0.000 N 
ATOM     11  C8  UNL     1      25.091  -8.805 -42.252  0.00  0.00    +0.000 A 
ATOM     12  N3  UNL     1      24.902  -9.374 -41.096  0.00  0.00    +0.000 NA
ATOM     13  H1  UNL     1      23.334  -7.616 -44.829  0.00  0.00    +0.000 HD
ATOM     14  H6  UNL     1      27.188  -8.780 -42.139  0.00  0.00    +0.000 HD
ENDROOT
BRANCH  12  15
ATOM     15  N4  UNL     1      25.957  -9.747 -40.251  0.00  0.00    +0.000 NA
ATOM     16  C9  UNL     1      26.287  -9.009 -39.240  0.00  0.00    +0.000 C 
BRANCH  16  17
ATOM     17  C10 UNL     1      27.391  -9.406 -38.362  0.00  0.00    +0.000 A 
ATOM     18  C11 UNL     1      27.281  -9.677 -37.005  0.00  0.00    +0.000 A 
ATOM     19  C12 UNL     1      28.500 -10.034 -36.416  0.00  0.00    +0.000 A 
ATOM     20  C13 UNL     1      29.569 -10.043 -37.303  0.00  0.00    +0.000 A 
ATOM     21  S1  UNL     1      28.997  -9.608 -38.824  0.00  0.00    +0.000 S 
ENDBRANCH  16  17
ENDBRANCH  12  15
TORSDOF 2
ENDMDL
