MODEL 1
REMARK VINA RESULT:    -6.139      0.000      0.000
REMARK INTER + INTRA:         -13.981
REMARK INTER:                 -11.701
REMARK INTRA:                  -2.281
REMARK UNBOUND:                -2.281
REMARK  Name = resultss/4CJN/ligands/lig_276_t0.pdb
REMARK  23 active torsions:
REMARK  status: ('A' for Active; 'I' for Inactive)
REMARK    1  A    between atoms: C1_1  and  C2_2
REMARK    2  A    between atoms: C3_4  and  O2_5
REMARK    3  A    between atoms: O2_5  and  C4_6
REMARK    4  A    between atoms: C5_7  and  O3_8
REMARK    5  A    between atoms: C6_9  and  O4_10
REMARK    6  A    between atoms: C7_11  and  O5_12
REMARK    7  A    between atoms: O5_12  and  C8_13
REMARK    8  A    between atoms: C9_14  and  O6_15
REMARK    9  A    between atoms: C10_16  and  O7_17
REMARK   10  A    between atoms: C11_18  and  O8_19
REMARK   11  A    between atoms: C12_21  and  C13_22
REMARK   12  A    between atoms: C13_22  and  O10_23
REMARK   13  A    between atoms: C14_25  and  C15_26
REMARK   14  A    between atoms: C15_26  and  O12_27
REMARK   15  A    between atoms: C16_28  and  O13_29
REMARK   16  A    between atoms: C17_30  and  O14_31
REMARK   17  A    between atoms: C18_32  and  N1_33
REMARK   18  A    between atoms: N1_33  and  C19_34
REMARK   19  A    between atoms: C21_36  and  C22_37
REMARK   20  A    between atoms: C22_37  and  O15_38
REMARK   21  A    between atoms: C23_39  and  O16_40
REMARK   22  A    between atoms: C24_41  and  O17_42
REMARK   23  A    between atoms: C25_43  and  O18_44
REMARK                            x       y       z     vdW  Elec       q    Type
REMARK                         _______ _______ _______ _____ _____    ______ ____
ROOT
ATOM      1  O2  UNL     1      26.635  -9.780 -40.473  0.00  0.00    +0.000 OA
ENDROOT
BRANCH   1   5
ATOM      2  C1  UNL     1      28.433  -6.621 -38.127  0.00  0.00    +0.000 C 
ATOM      3  C2  UNL     1      27.697  -7.886 -37.650  0.00  0.00    +0.000 C 
ATOM      4  O1  UNL     1      26.838  -8.432 -38.639  0.00  0.00    +0.000 OA
ATOM      5  C3  UNL     1      27.516  -8.890 -39.802  0.00  0.00    +0.000 C 
ATOM      6  C16 UNL     1      28.843  -9.639 -39.483  0.00  0.00    +0.000 C 
ATOM      7  C17 UNL     1      28.867 -10.146 -38.030  0.00  0.00    +0.000 C 
ATOM      8  C18 UNL     1      28.636  -8.972 -37.037  0.00  0.00    +0.000 C 
BRANCH   8   9
ATOM      9  N1  UNL     1      28.047  -9.429 -35.755  0.00  0.00    +0.000 NA
ATOM     10  H32 UNL     1      28.831  -9.691 -35.113  0.00  0.00    +0.000 HD
BRANCH   9  11
ATOM     11  C19 UNL     1      27.186  -8.450 -35.057  0.00  0.00    +0.000 C 
ATOM     12  C20 UNL     1      25.834  -9.028 -34.693  0.00  0.00    +0.000 C 
ATOM     13  C21 UNL     1      25.006  -8.323 -33.901  0.00  0.00    +0.000 C 
ATOM     14  C23 UNL     1      25.501  -6.984 -33.365  0.00  0.00    +0.000 C 
ATOM     15  C24 UNL     1      26.933  -7.152 -32.798  0.00  0.00    +0.000 C 
ATOM     16  C25 UNL     1      27.888  -7.934 -33.767  0.00  0.00    +0.000 C 
BRANCH  16  17
ATOM     17  O18 UNL     1      28.520  -8.988 -33.079  0.00  0.00    +0.000 OA
ATOM     18  H43 UNL     1      28.427  -8.807 -32.107  0.00  0.00    +0.000 HD
ENDBRANCH  16  17
BRANCH  15  19
ATOM     19  O17 UNL     1      27.469  -5.883 -32.521  0.00  0.00    +0.000 OA
ATOM     20  H41 UNL     1      28.454  -5.992 -32.480  0.00  0.00    +0.000 HD
ENDBRANCH  15  19
BRANCH  14  21
ATOM     21  O16 UNL     1      24.639  -6.490 -32.373  0.00  0.00    +0.000 OA
ATOM     22  H39 UNL     1      24.831  -5.520 -32.279  0.00  0.00    +0.000 HD
ENDBRANCH  14  21
BRANCH  13  23
ATOM     23  C22 UNL     1      23.655  -8.903 -33.531  0.00  0.00    +0.000 C 
BRANCH  23  24
ATOM     24  O15 UNL     1      23.506  -8.934 -32.138  0.00  0.00    +0.000 OA
ATOM     25  H37 UNL     1      23.982  -8.134 -31.790  0.00  0.00    +0.000 HD
ENDBRANCH  23  24
ENDBRANCH  13  23
ENDBRANCH   9  11
ENDBRANCH   8   9
BRANCH   7  26
ATOM     26  O14 UNL     1      30.114 -10.737 -37.775  0.00  0.00    +0.000 OA
ATOM     27  H30 UNL     1      30.013 -11.303 -36.967  0.00  0.00    +0.000 HD
ENDBRANCH   7  26
BRANCH   6  28
ATOM     28  O13 UNL     1      29.087 -10.679 -40.400  0.00  0.00    +0.000 OA
ATOM     29  H28 UNL     1      30.036 -10.951 -40.307  0.00  0.00    +0.000 HD
ENDBRANCH   6  28
ENDBRANCH   1   5
BRANCH   1  30
ATOM     30  C4  UNL     1      25.801  -9.143 -41.427  0.00  0.00    +0.000 C 
ATOM     31  C5  UNL     1      24.582  -8.562 -40.688  0.00  0.00    +0.000 C 
ATOM     32  C6  UNL     1      23.651  -7.815 -41.667  0.00  0.00    +0.000 C 
ATOM     33  C7  UNL     1      24.469  -7.142 -42.796  0.00  0.00    +0.000 C 
ATOM     34  O11 UNL     1      25.773  -6.816 -42.341  0.00  0.00    +0.000 OA
ATOM     35  C14 UNL     1      26.572  -7.978 -42.122  0.00  0.00    +0.000 C 
BRANCH  32  36
ATOM     36  O4  UNL     1      22.900  -6.856 -40.962  0.00  0.00    +0.000 OA
ATOM     37  H10 UNL     1      22.012  -7.265 -40.783  0.00  0.00    +0.000 HD
ENDBRANCH  32  36
BRANCH  31  38
ATOM     38  O3  UNL     1      23.880  -9.565 -39.997  0.00  0.00    +0.000 OA
ATOM     39  H8  UNL     1      24.538 -10.077 -39.462  0.00  0.00    +0.000 HD
ENDBRANCH  31  38
BRANCH  35  40
ATOM     40  C15 UNL     1      27.262  -8.427 -43.426  0.00  0.00    +0.000 C 
BRANCH  40  41
ATOM     41  O12 UNL     1      28.346  -9.271 -43.142  0.00  0.00    +0.000 OA
ATOM     42  H26 UNL     1      28.336  -9.424 -42.160  0.00  0.00    +0.000 HD
ENDBRANCH  40  41
ENDBRANCH  35  40
BRANCH  33  43
ATOM     43  O5  UNL     1      23.807  -5.964 -43.215  0.00  0.00    +0.000 OA
BRANCH  43  44
ATOM     44  C8  UNL     1      23.461  -6.014 -44.592  0.00  0.00    +0.000 C 
ATOM     45  C9  UNL     1      24.609  -6.661 -45.389  0.00  0.00    +0.000 C 
ATOM     46  C10 UNL     1      24.228  -6.754 -46.877  0.00  0.00    +0.000 C 
ATOM     47  C11 UNL     1      22.710  -7.033 -47.053  0.00  0.00    +0.000 C 
ATOM     48  O9  UNL     1      22.173  -7.703 -45.925  0.00  0.00    +0.000 OA
ATOM     49  C12 UNL     1      22.181  -6.886 -44.753  0.00  0.00    +0.000 C 
BRANCH  47  50
ATOM     50  O8  UNL     1      22.453  -7.784 -48.212  0.00  0.00    +0.000 OA
ATOM     51  H18 UNL     1      22.457  -7.150 -48.980  0.00  0.00    +0.000 HD
ENDBRANCH  47  50
BRANCH  46  52
ATOM     52  O7  UNL     1      25.010  -7.753 -47.487  0.00  0.00    +0.000 OA
ATOM     53  H16 UNL     1      25.948  -7.425 -47.500  0.00  0.00    +0.000 HD
ENDBRANCH  46  52
BRANCH  45  54
ATOM     54  O6  UNL     1      25.785  -5.900 -45.266  0.00  0.00    +0.000 OA
ATOM     55  H14 UNL     1      25.809  -5.284 -46.044  0.00  0.00    +0.000 HD
ENDBRANCH  45  54
BRANCH  49  56
ATOM     56  C13 UNL     1      20.903  -6.038 -44.665  0.00  0.00    +0.000 C 
BRANCH  56  57
ATOM     57  O10 UNL     1      19.772  -6.861 -44.800  0.00  0.00    +0.000 OA
ATOM     58  H22 UNL     1      18.987  -6.340 -44.486  0.00  0.00    +0.000 HD
ENDBRANCH  56  57
ENDBRANCH  49  56
ENDBRANCH  43  44
ENDBRANCH  33  43
ENDBRANCH   1  30
TORSDOF 22
ENDMDL
MODEL 2
REMARK VINA RESULT:    -6.038      1.765      3.114
REMARK INTER + INTRA:         -13.789
REMARK INTER:                 -11.596
REMARK INTRA:                  -2.194
REMARK UNBOUND:                -2.281
REMARK  Name = resultss/4CJN/ligands/lig_276_t0.pdb
REMARK  23 active torsions:
REMARK  status: ('A' for Active; 'I' for Inactive)
REMARK    1  A    between atoms: C1_1  and  C2_2
REMARK    2  A    between atoms: C3_4  and  O2_5
REMARK    3  A    between atoms: O2_5  and  C4_6
REMARK    4  A    between atoms: C5_7  and  O3_8
REMARK    5  A    between atoms: C6_9  and  O4_10
REMARK    6  A    between atoms: C7_11  and  O5_12
REMARK    7  A    between atoms: O5_12  and  C8_13
REMARK    8  A    between atoms: C9_14  and  O6_15
REMARK    9  A    between atoms: C10_16  and  O7_17
REMARK   10  A    between atoms: C11_18  and  O8_19
REMARK   11  A    between atoms: C12_21  and  C13_22
REMARK   12  A    between atoms: C13_22  and  O10_23
REMARK   13  A    between atoms: C14_25  and  C15_26
REMARK   14  A    between atoms: C15_26  and  O12_27
REMARK   15  A    between atoms: C16_28  and  O13_29
REMARK   16  A    between atoms: C17_30  and  O14_31
REMARK   17  A    between atoms: C18_32  and  N1_33
REMARK   18  A    between atoms: N1_33  and  C19_34
REMARK   19  A    between atoms: C21_36  and  C22_37
REMARK   20  A    between atoms: C22_37  and  O15_38
REMARK   21  A    between atoms: C23_39  and  O16_40
REMARK   22  A    between atoms: C24_41  and  O17_42
REMARK   23  A    between atoms: C25_43  and  O18_44
REMARK                            x       y       z     vdW  Elec       q    Type
REMARK                         _______ _______ _______ _____ _____    ______ ____
ROOT
ATOM      1  O2  UNL     1      27.226  -8.933 -41.775  0.00  0.00    +0.000 OA
ENDROOT
BRANCH   1   5
ATOM      2  C1  UNL     1      28.545  -7.176 -38.049  0.00  0.00    +0.000 C 
ATOM      3  C2  UNL     1      27.249  -7.948 -38.352  0.00  0.00    +0.000 C 
ATOM      4  O1  UNL     1      26.920  -7.954 -39.733  0.00  0.00    +0.000 OA
ATOM      5  C3  UNL     1      27.873  -8.620 -40.550  0.00  0.00    +0.000 C 
ATOM      6  C16 UNL     1      28.412  -9.935 -39.915  0.00  0.00    +0.000 C 
ATOM      7  C17 UNL     1      27.460 -10.467 -38.830  0.00  0.00    +0.000 C 
ATOM      8  C18 UNL     1      27.209  -9.384 -37.743  0.00  0.00    +0.000 C 
BRANCH   8   9
ATOM      9  N1  UNL     1      25.905  -9.566 -37.060  0.00  0.00    +0.000 NA
ATOM     10  H32 UNL     1      25.877 -10.536 -36.668  0.00  0.00    +0.000 HD
BRANCH   9  11
ATOM     11  C19 UNL     1      25.613  -8.616 -35.965  0.00  0.00    +0.000 C 
ATOM     12  C20 UNL     1      24.171  -8.156 -35.971  0.00  0.00    +0.000 C 
ATOM     13  C21 UNL     1      23.705  -7.431 -34.936  0.00  0.00    +0.000 C 
ATOM     14  C23 UNL     1      24.655  -7.152 -33.777  0.00  0.00    +0.000 C 
ATOM     15  C24 UNL     1      25.365  -8.466 -33.364  0.00  0.00    +0.000 C 
ATOM     16  C25 UNL     1      25.941  -9.262 -34.587  0.00  0.00    +0.000 C 
BRANCH  16  17
ATOM     17  O18 UNL     1      25.509 -10.602 -34.540  0.00  0.00    +0.000 OA
ATOM     18  H43 UNL     1      24.547 -10.613 -34.786  0.00  0.00    +0.000 HD
ENDBRANCH  16  17
BRANCH  15  19
ATOM     19  O17 UNL     1      26.399  -8.165 -32.460  0.00  0.00    +0.000 OA
ATOM     20  H41 UNL     1      27.122  -7.737 -32.987  0.00  0.00    +0.000 HD
ENDBRANCH  15  19
BRANCH  14  21
ATOM     21  O16 UNL     1      23.966  -6.606 -32.682  0.00  0.00    +0.000 OA
ATOM     22  H39 UNL     1      23.622  -7.367 -32.146  0.00  0.00    +0.000 HD
ENDBRANCH  14  21
BRANCH  13  23
ATOM     23  C22 UNL     1      22.260  -6.974 -34.938  0.00  0.00    +0.000 C 
BRANCH  23  24
ATOM     24  O15 UNL     1      21.772  -6.916 -36.251  0.00  0.00    +0.000 OA
ATOM     25  H37 UNL     1      22.387  -7.472 -36.801  0.00  0.00    +0.000 HD
ENDBRANCH  23  24
ENDBRANCH  13  23
ENDBRANCH   9  11
ENDBRANCH   8   9
BRANCH   7  26
ATOM     26  O14 UNL     1      28.035 -11.602 -38.237  0.00  0.00    +0.000 OA
ATOM     27  H30 UNL     1      28.765 -11.909 -38.835  0.00  0.00    +0.000 HD
ENDBRANCH   7  26
BRANCH   6  28
ATOM     28  O13 UNL     1      28.685 -10.911 -40.892  0.00  0.00    +0.000 OA
ATOM     29  H28 UNL     1      29.015 -10.447 -41.704  0.00  0.00    +0.000 HD
ENDBRANCH   6  28
ENDBRANCH   1   5
BRANCH   1  30
ATOM     30  C4  UNL     1      26.387  -7.894 -42.256  0.00  0.00    +0.000 C 
ATOM     31  C5  UNL     1      27.095  -7.214 -43.440  0.00  0.00    +0.000 C 
ATOM     32  C6  UNL     1      26.214  -6.097 -44.040  0.00  0.00    +0.000 C 
ATOM     33  C7  UNL     1      24.714  -6.467 -43.933  0.00  0.00    +0.000 C 
ATOM     34  O11 UNL     1      24.544  -7.875 -43.946  0.00  0.00    +0.000 OA
ATOM     35  C14 UNL     1      25.031  -8.486 -42.752  0.00  0.00    +0.000 C 
BRANCH  32  36
ATOM     36  O4  UNL     1      26.575  -5.883 -45.383  0.00  0.00    +0.000 OA
ATOM     37  H10 UNL     1      26.213  -4.992 -45.637  0.00  0.00    +0.000 HD
ENDBRANCH  32  36
BRANCH  31  38
ATOM     38  O3  UNL     1      28.351  -6.709 -43.061  0.00  0.00    +0.000 OA
ATOM     39  H8  UNL     1      28.824  -6.429 -43.886  0.00  0.00    +0.000 HD
ENDBRANCH  31  38
BRANCH  35  40
ATOM     40  C15 UNL     1      23.951  -8.481 -41.651  0.00  0.00    +0.000 C 
BRANCH  40  41
ATOM     41  O12 UNL     1      24.392  -9.195 -40.527  0.00  0.00    +0.000 OA
ATOM     42  H26 UNL     1      25.383  -9.241 -40.592  0.00  0.00    +0.000 HD
ENDBRANCH  40  41
ENDBRANCH  35  40
BRANCH  33  43
ATOM     43  O5  UNL     1      24.013  -5.897 -45.023  0.00  0.00    +0.000 OA
BRANCH  43  44
ATOM     44  C8  UNL     1      22.846  -6.640 -45.345  0.00  0.00    +0.000 C 
ATOM     45  C9  UNL     1      21.614  -5.965 -44.716  0.00  0.00    +0.000 C 
ATOM     46  C10 UNL     1      20.340  -6.743 -45.090  0.00  0.00    +0.000 C 
ATOM     47  C11 UNL     1      20.439  -7.328 -46.526  0.00  0.00    +0.000 C 
ATOM     48  O9  UNL     1      21.321  -6.568 -47.334  0.00  0.00    +0.000 OA
ATOM     49  C12 UNL     1      22.677  -6.657 -46.893  0.00  0.00    +0.000 C 
BRANCH  47  50
ATOM     50  O8  UNL     1      19.179  -7.401 -47.142  0.00  0.00    +0.000 OA
ATOM     51  H18 UNL     1      18.568  -6.800 -46.637  0.00  0.00    +0.000 HD
ENDBRANCH  47  50
BRANCH  46  52
ATOM     52  O7  UNL     1      19.228  -5.889 -44.957  0.00  0.00    +0.000 OA
ATOM     53  H16 UNL     1      19.488  -5.007 -45.330  0.00  0.00    +0.000 HD
ENDBRANCH  46  52
BRANCH  45  54
ATOM     54  O6  UNL     1      21.732  -5.930 -43.315  0.00  0.00    +0.000 OA
ATOM     55  H14 UNL     1      22.673  -5.688 -43.114  0.00  0.00    +0.000 HD
ENDBRANCH  45  54
BRANCH  49  56
ATOM     56  C13 UNL     1      23.383  -7.865 -47.527  0.00  0.00    +0.000 C 
BRANCH  56  57
ATOM     57  O10 UNL     1      24.563  -7.448 -48.167  0.00  0.00    +0.000 OA
ATOM     58  H22 UNL     1      25.325  -7.733 -47.598  0.00  0.00    +0.000 HD
ENDBRANCH  56  57
ENDBRANCH  49  56
ENDBRANCH  43  44
ENDBRANCH  33  43
ENDBRANCH   1  30
TORSDOF 22
ENDMDL
MODEL 3
REMARK VINA RESULT:    -6.017      1.668      1.981
REMARK INTER + INTRA:         -13.749
REMARK INTER:                 -11.401
REMARK INTRA:                  -2.348
REMARK UNBOUND:                -2.281
REMARK  Name = resultss/4CJN/ligands/lig_276_t0.pdb
REMARK  23 active torsions:
REMARK  status: ('A' for Active; 'I' for Inactive)
REMARK    1  A    between atoms: C1_1  and  C2_2
REMARK    2  A    between atoms: C3_4  and  O2_5
REMARK    3  A    between atoms: O2_5  and  C4_6
REMARK    4  A    between atoms: C5_7  and  O3_8
REMARK    5  A    between atoms: C6_9  and  O4_10
REMARK    6  A    between atoms: C7_11  and  O5_12
REMARK    7  A    between atoms: O5_12  and  C8_13
REMARK    8  A    between atoms: C9_14  and  O6_15
REMARK    9  A    between atoms: C10_16  and  O7_17
REMARK   10  A    between atoms: C11_18  and  O8_19
REMARK   11  A    between atoms: C12_21  and  C13_22
REMARK   12  A    between atoms: C13_22  and  O10_23
REMARK   13  A    between atoms: C14_25  and  C15_26
REMARK   14  A    between atoms: C15_26  and  O12_27
REMARK   15  A    between atoms: C16_28  and  O13_29
REMARK   16  A    between atoms: C17_30  and  O14_31
REMARK   17  A    between atoms: C18_32  and  N1_33
REMARK   18  A    between atoms: N1_33  and  C19_34
REMARK   19  A    between atoms: C21_36  and  C22_37
REMARK   20  A    between atoms: C22_37  and  O15_38
REMARK   21  A    between atoms: C23_39  and  O16_40
REMARK   22  A    between atoms: C24_41  and  O17_42
REMARK   23  A    between atoms: C25_43  and  O18_44
REMARK                            x       y       z     vdW  Elec       q    Type
REMARK                         _______ _______ _______ _____ _____    ______ ____
ROOT
ATOM      1  O2  UNL     1      28.501  -9.671 -40.519  0.00  0.00    +0.000 OA
ENDROOT
BRANCH   1   5
ATOM      2  C1  UNL     1      30.048  -6.575 -37.923  0.00  0.00    +0.000 C 
ATOM      3  C2  UNL     1      29.480  -7.956 -37.554  0.00  0.00    +0.000 C 
ATOM      4  O1  UNL     1      28.640  -8.497 -38.563  0.00  0.00    +0.000 OA
ATOM      5  C3  UNL     1      29.308  -8.756 -39.791  0.00  0.00    +0.000 C 
ATOM      6  C16 UNL     1      30.724  -9.376 -39.599  0.00  0.00    +0.000 C 
ATOM      7  C17 UNL     1      30.872 -10.018 -38.209  0.00  0.00    +0.000 C 
ATOM      8  C18 UNL     1      30.561  -8.983 -37.091  0.00  0.00    +0.000 C 
BRANCH   8   9
ATOM      9  N1  UNL     1      30.087  -9.630 -35.844  0.00  0.00    +0.000 NA
ATOM     10  H32 UNL     1      30.927  -9.908 -35.284  0.00  0.00    +0.000 HD
BRANCH   9  11
ATOM     11  C19 UNL     1      29.211  -8.806 -34.984  0.00  0.00    +0.000 C 
ATOM     12  C20 UNL     1      27.789  -9.324 -34.945  0.00  0.00    +0.000 C 
ATOM     13  C21 UNL     1      26.915  -8.790 -34.071  0.00  0.00    +0.000 C 
ATOM     14  C23 UNL     1      27.426  -7.713 -33.121  0.00  0.00    +0.000 C 
ATOM     15  C24 UNL     1      28.760  -8.176 -32.484  0.00  0.00    +0.000 C 
ATOM     16  C25 UNL     1      29.776  -8.746 -33.534  0.00  0.00    +0.000 C 
BRANCH  16  17
ATOM     17  O18 UNL     1      30.243 -10.009 -33.121  0.00  0.00    +0.000 OA
ATOM     18  H43 UNL     1      29.466 -10.626 -33.113  0.00  0.00    +0.000 HD
ENDBRANCH  16  17
BRANCH  15  19
ATOM     19  O17 UNL     1      29.340  -7.097 -31.795  0.00  0.00    +0.000 OA
ATOM     20  H41 UNL     1      30.018  -6.703 -32.402  0.00  0.00    +0.000 HD
ENDBRANCH  15  19
BRANCH  14  21
ATOM     21  O16 UNL     1      26.480  -7.433 -32.123  0.00  0.00    +0.000 OA
ATOM     22  H39 UNL     1      25.739  -6.932 -32.555  0.00  0.00    +0.000 HD
ENDBRANCH  14  21
BRANCH  13  23
ATOM     23  C22 UNL     1      25.493  -9.312 -34.028  0.00  0.00    +0.000 C 
BRANCH  23  24
ATOM     24  O15 UNL     1      25.473 -10.686 -34.302  0.00  0.00    +0.000 OA
ATOM     25  H37 UNL     1      24.929 -11.105 -33.584  0.00  0.00    +0.000 HD
ENDBRANCH  23  24
ENDBRANCH  13  23
ENDBRANCH   9  11
ENDBRANCH   8   9
BRANCH   7  26
ATOM     26  O14 UNL     1      32.189 -10.484 -38.062  0.00  0.00    +0.000 OA
ATOM     27  H30 UNL     1      32.595 -10.508 -38.967  0.00  0.00    +0.000 HD
ENDBRANCH   7  26
BRANCH   6  28
ATOM     28  O13 UNL     1      31.038 -10.284 -40.628  0.00  0.00    +0.000 OA
ATOM     29  H28 UNL     1      31.193  -9.764 -41.458  0.00  0.00    +0.000 HD
ENDBRANCH   6  28
ENDBRANCH   1   5
BRANCH   1  30
ATOM     30  C4  UNL     1      27.658  -9.048 -41.475  0.00  0.00    +0.000 C 
ATOM     31  C5  UNL     1      26.489  -8.384 -40.726  0.00  0.00    +0.000 C 
ATOM     32  C6  UNL     1      25.552  -7.649 -41.709  0.00  0.00    +0.000 C 
ATOM     33  C7  UNL     1      26.355  -7.065 -42.897  0.00  0.00    +0.000 C 
ATOM     34  O11 UNL     1      27.686  -6.769 -42.503  0.00  0.00    +0.000 OA
ATOM     35  C14 UNL     1      28.447  -7.949 -42.253  0.00  0.00    +0.000 C 
BRANCH  32  36
ATOM     36  O4  UNL     1      24.864  -6.628 -41.029  0.00  0.00    +0.000 OA
ATOM     37  H10 UNL     1      24.087  -7.057 -40.582  0.00  0.00    +0.000 HD
ENDBRANCH  32  36
BRANCH  31  38
ATOM     38  O3  UNL     1      25.774  -9.324 -39.963  0.00  0.00    +0.000 OA
ATOM     39  H8  UNL     1      24.939  -9.535 -40.453  0.00  0.00    +0.000 HD
ENDBRANCH  31  38
BRANCH  35  40
ATOM     40  C15 UNL     1      29.074  -8.488 -43.555  0.00  0.00    +0.000 C 
BRANCH  40  41
ATOM     41  O12 UNL     1      29.859  -9.620 -43.290  0.00  0.00    +0.000 OA
ATOM     42  H26 UNL     1      30.632  -9.309 -42.749  0.00  0.00    +0.000 HD
ENDBRANCH  40  41
ENDBRANCH  35  40
BRANCH  33  43
ATOM     43  O5  UNL     1      25.724  -5.883 -43.352  0.00  0.00    +0.000 OA
BRANCH  43  44
ATOM     44  C8  UNL     1      25.300  -5.999 -44.703  0.00  0.00    +0.000 C 
ATOM     45  C9  UNL     1      26.409  -6.665 -45.537  0.00  0.00    +0.000 C 
ATOM     46  C10 UNL     1      25.945  -6.828 -46.995  0.00  0.00    +0.000 C 
ATOM     47  C11 UNL     1      24.424  -7.133 -47.070  0.00  0.00    +0.000 C 
ATOM     48  O9  UNL     1      23.962  -7.759 -45.885  0.00  0.00    +0.000 OA
ATOM     49  C12 UNL     1      24.026  -6.892 -44.752  0.00  0.00    +0.000 C 
BRANCH  47  50
ATOM     50  O8  UNL     1      24.112  -7.937 -48.180  0.00  0.00    +0.000 OA
ATOM     51  H18 UNL     1      23.805  -8.816 -47.830  0.00  0.00    +0.000 HD
ENDBRANCH  47  50
BRANCH  46  52
ATOM     52  O7  UNL     1      26.706  -7.843 -47.606  0.00  0.00    +0.000 OA
ATOM     53  H16 UNL     1      27.547  -7.427 -47.929  0.00  0.00    +0.000 HD
ENDBRANCH  46  52
BRANCH  45  54
ATOM     54  O6  UNL     1      27.579  -5.886 -45.515  0.00  0.00    +0.000 OA
ATOM     55  H14 UNL     1      27.536  -5.283 -46.303  0.00  0.00    +0.000 HD
ENDBRANCH  45  54
BRANCH  49  56
ATOM     56  C13 UNL     1      22.743  -6.056 -44.626  0.00  0.00    +0.000 C 
BRANCH  56  57
ATOM     57  O10 UNL     1      22.180  -6.232 -43.351  0.00  0.00    +0.000 OA
ATOM     58  H22 UNL     1      22.866  -5.965 -42.685  0.00  0.00    +0.000 HD
ENDBRANCH  56  57
ENDBRANCH  49  56
ENDBRANCH  43  44
ENDBRANCH  33  43
ENDBRANCH   1  30
TORSDOF 22
ENDMDL
MODEL 4
REMARK VINA RESULT:    -5.993      2.449     10.450
REMARK INTER + INTRA:         -13.703
REMARK INTER:                 -11.089
REMARK INTRA:                  -2.615
REMARK UNBOUND:                -2.281
REMARK  Name = resultss/4CJN/ligands/lig_276_t0.pdb
REMARK  23 active torsions:
REMARK  status: ('A' for Active; 'I' for Inactive)
REMARK    1  A    between atoms: C1_1  and  C2_2
REMARK    2  A    between atoms: C3_4  and  O2_5
REMARK    3  A    between atoms: O2_5  and  C4_6
REMARK    4  A    between atoms: C5_7  and  O3_8
REMARK    5  A    between atoms: C6_9  and  O4_10
REMARK    6  A    between atoms: C7_11  and  O5_12
REMARK    7  A    between atoms: O5_12  and  C8_13
REMARK    8  A    between atoms: C9_14  and  O6_15
REMARK    9  A    between atoms: C10_16  and  O7_17
REMARK   10  A    between atoms: C11_18  and  O8_19
REMARK   11  A    between atoms: C12_21  and  C13_22
REMARK   12  A    between atoms: C13_22  and  O10_23
REMARK   13  A    between atoms: C14_25  and  C15_26
REMARK   14  A    between atoms: C15_26  and  O12_27
REMARK   15  A    between atoms: C16_28  and  O13_29
REMARK   16  A    between atoms: C17_30  and  O14_31
REMARK   17  A    between atoms: C18_32  and  N1_33
REMARK   18  A    between atoms: N1_33  and  C19_34
REMARK   19  A    between atoms: C21_36  and  C22_37
REMARK   20  A    between atoms: C22_37  and  O15_38
REMARK   21  A    between atoms: C23_39  and  O16_40
REMARK   22  A    between atoms: C24_41  and  O17_42
REMARK   23  A    between atoms: C25_43  and  O18_44
REMARK                            x       y       z     vdW  Elec       q    Type
REMARK                         _______ _______ _______ _____ _____    ______ ____
ROOT
ATOM      1  O2  UNL     1      26.406  -7.793 -38.500  0.00  0.00    +0.000 OA
ENDROOT
BRANCH   1   5
ATOM      2  C1  UNL     1      28.659 -10.613 -40.884  0.00  0.00    +0.000 C 
ATOM      3  C2  UNL     1      27.271 -10.006 -41.153  0.00  0.00    +0.000 C 
ATOM      4  O1  UNL     1      26.642  -9.520 -39.976  0.00  0.00    +0.000 OA
ATOM      5  C3  UNL     1      27.334  -8.445 -39.355  0.00  0.00    +0.000 C 
ATOM      6  C16 UNL     1      27.895  -7.409 -40.372  0.00  0.00    +0.000 C 
ATOM      7  C17 UNL     1      27.169  -7.500 -41.726  0.00  0.00    +0.000 C 
ATOM      8  C18 UNL     1      27.254  -8.944 -42.297  0.00  0.00    +0.000 C 
BRANCH   8   9
ATOM      9  N1  UNL     1      26.125  -9.254 -43.207  0.00  0.00    +0.000 NA
ATOM     10  H32 UNL     1      25.693 -10.154 -42.890  0.00  0.00    +0.000 HD
BRANCH   9  11
ATOM     11  C19 UNL     1      25.060  -8.232 -43.283  0.00  0.00    +0.000 C 
ATOM     12  C20 UNL     1      24.625  -7.958 -44.707  0.00  0.00    +0.000 C 
ATOM     13  C21 UNL     1      23.545  -7.186 -44.931  0.00  0.00    +0.000 C 
ATOM     14  C23 UNL     1      22.780  -6.663 -43.721  0.00  0.00    +0.000 C 
ATOM     15  C24 UNL     1      22.535  -7.824 -42.724  0.00  0.00    +0.000 C 
ATOM     16  C25 UNL     1      23.824  -8.674 -42.444  0.00  0.00    +0.000 C 
BRANCH  16  17
ATOM     17  O18 UNL     1      23.551 -10.043 -42.629  0.00  0.00    +0.000 OA
ATOM     18  H43 UNL     1      24.257 -10.554 -42.155  0.00  0.00    +0.000 HD
ENDBRANCH  16  17
BRANCH  15  19
ATOM     19  O17 UNL     1      22.040  -7.297 -41.519  0.00  0.00    +0.000 OA
ATOM     20  H41 UNL     1      22.213  -6.321 -41.541  0.00  0.00    +0.000 HD
ENDBRANCH  15  19
BRANCH  14  21
ATOM     21  O16 UNL     1      21.559  -6.088 -44.108  0.00  0.00    +0.000 OA
ATOM     22  H39 UNL     1      21.253  -6.573 -44.919  0.00  0.00    +0.000 HD
ENDBRANCH  14  21
BRANCH  13  23
ATOM     23  C22 UNL     1      23.106  -6.916 -46.357  0.00  0.00    +0.000 C 
BRANCH  23  24
ATOM     24  O15 UNL     1      21.990  -7.701 -46.676  0.00  0.00    +0.000 OA
ATOM     25  H37 UNL     1      22.193  -8.618 -46.354  0.00  0.00    +0.000 HD
ENDBRANCH  23  24
ENDBRANCH  13  23
ENDBRANCH   9  11
ENDBRANCH   8   9
BRANCH   7  26
ATOM     26  O14 UNL     1      27.771  -6.605 -42.625  0.00  0.00    +0.000 OA
ATOM     27  H30 UNL     1      27.065  -5.981 -42.937  0.00  0.00    +0.000 HD
ENDBRANCH   7  26
BRANCH   6  28
ATOM     28  O13 UNL     1      27.865  -6.101 -39.853  0.00  0.00    +0.000 OA
ATOM     29  H28 UNL     1      28.787  -5.737 -39.887  0.00  0.00    +0.000 HD
ENDBRANCH   6  28
ENDBRANCH   1   5
BRANCH   1  30
ATOM     30  C4  UNL     1      26.738  -7.890 -37.123  0.00  0.00    +0.000 C 
ATOM     31  C5  UNL     1      25.854  -8.980 -36.491  0.00  0.00    +0.000 C 
ATOM     32  C6  UNL     1      26.195  -9.166 -34.997  0.00  0.00    +0.000 C 
ATOM     33  C7  UNL     1      27.702  -8.920 -34.745  0.00  0.00    +0.000 C 
ATOM     34  O11 UNL     1      28.460  -9.230 -35.904  0.00  0.00    +0.000 OA
ATOM     35  C14 UNL     1      28.235  -8.296 -36.958  0.00  0.00    +0.000 C 
BRANCH  32  36
ATOM     36  O4  UNL     1      25.831 -10.463 -34.590  0.00  0.00    +0.000 OA
ATOM     37  H10 UNL     1      26.409 -11.093 -35.096  0.00  0.00    +0.000 HD
ENDBRANCH  32  36
BRANCH  31  38
ATOM     38  O3  UNL     1      24.489  -8.690 -36.660  0.00  0.00    +0.000 OA
ATOM     39  H8  UNL     1      23.975  -9.331 -36.105  0.00  0.00    +0.000 HD
ENDBRANCH  31  38
BRANCH  35  40
ATOM     40  C15 UNL     1      29.163  -7.071 -36.818  0.00  0.00    +0.000 C 
BRANCH  40  41
ATOM     41  O12 UNL     1      28.422  -5.883 -36.900  0.00  0.00    +0.000 OA
ATOM     42  H26 UNL     1      28.725  -5.308 -36.149  0.00  0.00    +0.000 HD
ENDBRANCH  40  41
ENDBRANCH  35  40
BRANCH  33  43
ATOM     43  O5  UNL     1      28.135  -9.730 -33.668  0.00  0.00    +0.000 OA
BRANCH  43  44
ATOM     44  C8  UNL     1      29.069  -9.051 -32.840  0.00  0.00    +0.000 C 
ATOM     45  C9  UNL     1      30.501  -9.386 -33.296  0.00  0.00    +0.000 C 
ATOM     46  C10 UNL     1      31.520  -8.626 -32.428  0.00  0.00    +0.000 C 
ATOM     47  C11 UNL     1      30.982  -7.226 -32.025  0.00  0.00    +0.000 C 
ATOM     48  O9  UNL     1      30.039  -6.743 -32.967  0.00  0.00    +0.000 OA
ATOM     49  C12 UNL     1      28.839  -7.518 -32.981  0.00  0.00    +0.000 C 
BRANCH  47  50
ATOM     50  O8  UNL     1      32.024  -6.294 -31.882  0.00  0.00    +0.000 OA
ATOM     51  H18 UNL     1      32.799  -6.777 -31.486  0.00  0.00    +0.000 HD
ENDBRANCH  47  50
BRANCH  46  52
ATOM     52  O7  UNL     1      32.736  -8.530 -33.130  0.00  0.00    +0.000 OA
ATOM     53  H16 UNL     1      33.365  -9.180 -32.721  0.00  0.00    +0.000 HD
ENDBRANCH  46  52
BRANCH  45  54
ATOM     54  O6  UNL     1      30.745 -10.766 -33.184  0.00  0.00    +0.000 OA
ATOM     55  H14 UNL     1      31.626 -10.864 -32.736  0.00  0.00    +0.000 HD
ENDBRANCH  45  54
BRANCH  49  56
ATOM     56  C13 UNL     1      27.836  -6.998 -31.940  0.00  0.00    +0.000 C 
BRANCH  56  57
ATOM     57  O10 UNL     1      27.555  -8.005 -31.001  0.00  0.00    +0.000 OA
ATOM     58  H22 UNL     1      27.232  -7.558 -30.175  0.00  0.00    +0.000 HD
ENDBRANCH  56  57
ENDBRANCH  49  56
ENDBRANCH  43  44
ENDBRANCH  33  43
ENDBRANCH   1  30
TORSDOF 22
ENDMDL
MODEL 5
REMARK VINA RESULT:    -5.861      2.030      3.606
REMARK INTER + INTRA:         -13.453
REMARK INTER:                 -11.187
REMARK INTRA:                  -2.266
REMARK UNBOUND:                -2.281
REMARK  Name = resultss/4CJN/ligands/lig_276_t0.pdb
REMARK  23 active torsions:
REMARK  status: ('A' for Active; 'I' for Inactive)
REMARK    1  A    between atoms: C1_1  and  C2_2
REMARK    2  A    between atoms: C3_4  and  O2_5
REMARK    3  A    between atoms: O2_5  and  C4_6
REMARK    4  A    between atoms: C5_7  and  O3_8
REMARK    5  A    between atoms: C6_9  and  O4_10
REMARK    6  A    between atoms: C7_11  and  O5_12
REMARK    7  A    between atoms: O5_12  and  C8_13
REMARK    8  A    between atoms: C9_14  and  O6_15
REMARK    9  A    between atoms: C10_16  and  O7_17
REMARK   10  A    between atoms: C11_18  and  O8_19
REMARK   11  A    between atoms: C12_21  and  C13_22
REMARK   12  A    between atoms: C13_22  and  O10_23
REMARK   13  A    between atoms: C14_25  and  C15_26
REMARK   14  A    between atoms: C15_26  and  O12_27
REMARK   15  A    between atoms: C16_28  and  O13_29
REMARK   16  A    between atoms: C17_30  and  O14_31
REMARK   17  A    between atoms: C18_32  and  N1_33
REMARK   18  A    between atoms: N1_33  and  C19_34
REMARK   19  A    between atoms: C21_36  and  C22_37
REMARK   20  A    between atoms: C22_37  and  O15_38
REMARK   21  A    between atoms: C23_39  and  O16_40
REMARK   22  A    between atoms: C24_41  and  O17_42
REMARK   23  A    between atoms: C25_43  and  O18_44
REMARK                            x       y       z     vdW  Elec       q    Type
REMARK                         _______ _______ _______ _____ _____    ______ ____
ROOT
ATOM      1  O2  UNL     1      30.520  -9.320 -40.321  0.00  0.00    +0.000 OA
ENDROOT
BRANCH   1   5
ATOM      2  C1  UNL     1      30.967  -6.413 -37.149  0.00  0.00    +0.000 C 
ATOM      3  C2  UNL     1      30.327  -7.811 -37.101  0.00  0.00    +0.000 C 
ATOM      4  O1  UNL     1      29.920  -8.278 -38.378  0.00  0.00    +0.000 OA
ATOM      5  C3  UNL     1      30.993  -8.462 -39.293  0.00  0.00    +0.000 C 
ATOM      6  C16 UNL     1      32.251  -9.103 -38.639  0.00  0.00    +0.000 C 
ATOM      7  C17 UNL     1      31.895  -9.837 -37.334  0.00  0.00    +0.000 C 
ATOM      8  C18 UNL     1      31.182  -8.875 -36.343  0.00  0.00    +0.000 C 
BRANCH   8   9
ATOM      9  N1  UNL     1      30.298  -9.598 -35.397  0.00  0.00    +0.000 NA
ATOM     10  H32 UNL     1      30.900 -10.033 -34.660  0.00  0.00    +0.000 HD
BRANCH   9  11
ATOM     11  C19 UNL     1      29.266  -8.778 -34.726  0.00  0.00    +0.000 C 
ATOM     12  C20 UNL     1      27.870  -9.324 -34.938  0.00  0.00    +0.000 C 
ATOM     13  C21 UNL     1      26.842  -8.795 -34.247  0.00  0.00    +0.000 C 
ATOM     14  C23 UNL     1      27.153  -7.694 -33.240  0.00  0.00    +0.000 C 
ATOM     15  C24 UNL     1      28.355  -8.122 -32.361  0.00  0.00    +0.000 C 
ATOM     16  C25 UNL     1      29.556  -8.687 -33.199  0.00  0.00    +0.000 C 
BRANCH  16  17
ATOM     17  O18 UNL     1      29.961  -9.935 -32.685  0.00  0.00    +0.000 OA
ATOM     18  H43 UNL     1      30.697 -10.269 -33.261  0.00  0.00    +0.000 HD
ENDBRANCH  16  17
BRANCH  15  19
ATOM     19  O17 UNL     1      28.782  -7.022 -31.597  0.00  0.00    +0.000 OA
ATOM     20  H41 UNL     1      29.380  -6.486 -32.179  0.00  0.00    +0.000 HD
ENDBRANCH  15  19
BRANCH  14  21
ATOM     21  O16 UNL     1      26.036  -7.419 -32.435  0.00  0.00    +0.000 OA
ATOM     22  H39 UNL     1      26.277  -6.650 -31.855  0.00  0.00    +0.000 HD
ENDBRANCH  14  21
BRANCH  13  23
ATOM     23  C22 UNL     1      25.445  -9.344 -34.455  0.00  0.00    +0.000 C 
BRANCH  23  24
ATOM     24  O15 UNL     1      25.448 -10.739 -34.321  0.00  0.00    +0.000 OA
ATOM     25  H37 UNL     1      24.631 -11.065 -34.784  0.00  0.00    +0.000 HD
ENDBRANCH  23  24
ENDBRANCH  13  23
ENDBRANCH   9  11
ENDBRANCH   8   9
BRANCH   7  26
ATOM     26  O14 UNL     1      33.076 -10.322 -36.749  0.00  0.00    +0.000 OA
ATOM     27  H30 UNL     1      33.830 -10.037 -37.327  0.00  0.00    +0.000 HD
ENDBRANCH   7  26
BRANCH   6  28
ATOM     28  O13 UNL     1      32.933  -9.945 -39.539  0.00  0.00    +0.000 OA
ATOM     29  H28 UNL     1      32.474  -9.891 -40.416  0.00  0.00    +0.000 HD
ENDBRANCH   6  28
ENDBRANCH   1   5
BRANCH   1  30
ATOM     30  C4  UNL     1      29.201  -9.021 -40.750  0.00  0.00    +0.000 C 
ATOM     31  C5  UNL     1      29.292  -8.205 -42.051  0.00  0.00    +0.000 C 
ATOM     32  C6  UNL     1      27.884  -7.882 -42.596  0.00  0.00    +0.000 C 
ATOM     33  C7  UNL     1      26.896  -9.031 -42.278  0.00  0.00    +0.000 C 
ATOM     34  O11 UNL     1      27.583 -10.269 -42.189  0.00  0.00    +0.000 OA
ATOM     35  C14 UNL     1      28.417 -10.339 -41.034  0.00  0.00    +0.000 C 
BRANCH  32  36
ATOM     36  O4  UNL     1      27.956  -7.663 -43.984  0.00  0.00    +0.000 OA
ATOM     37  H10 UNL     1      27.022  -7.540 -44.302  0.00  0.00    +0.000 HD
ENDBRANCH  32  36
BRANCH  31  38
ATOM     38  O3  UNL     1      30.038  -7.028 -41.865  0.00  0.00    +0.000 OA
ATOM     39  H8  UNL     1      30.961  -7.294 -41.619  0.00  0.00    +0.000 HD
ENDBRANCH  31  38
BRANCH  35  40
ATOM     40  C15 UNL     1      27.619 -10.823 -39.806  0.00  0.00    +0.000 C 
BRANCH  40  41
ATOM     41  O12 UNL     1      28.413 -10.767 -38.651  0.00  0.00    +0.000 OA
ATOM     42  H26 UNL     1      27.966 -11.337 -37.971  0.00  0.00    +0.000 HD
ENDBRANCH  40  41
ENDBRANCH  35  40
BRANCH  33  43
ATOM     43  O5  UNL     1      25.920  -9.105 -43.300  0.00  0.00    +0.000 OA
BRANCH  43  44
ATOM     44  C8  UNL     1      24.912  -8.116 -43.139  0.00  0.00    +0.000 C 
ATOM     45  C9  UNL     1      24.317  -7.758 -44.513  0.00  0.00    +0.000 C 
ATOM     46  C10 UNL     1      23.199  -6.714 -44.345  0.00  0.00    +0.000 C 
ATOM     47  C11 UNL     1      22.408  -6.944 -43.028  0.00  0.00    +0.000 C 
ATOM     48  O9  UNL     1      22.466  -8.300 -42.620  0.00  0.00    +0.000 OA
ATOM     49  C12 UNL     1      23.784  -8.696 -42.236  0.00  0.00    +0.000 C 
BRANCH  47  50
ATOM     50  O8  UNL     1      21.066  -6.547 -43.155  0.00  0.00    +0.000 OA
ATOM     51  H18 UNL     1      20.549  -7.345 -43.449  0.00  0.00    +0.000 HD
ENDBRANCH  47  50
BRANCH  46  52
ATOM     52  O7  UNL     1      22.354  -6.765 -45.470  0.00  0.00    +0.000 OA
ATOM     53  H16 UNL     1      22.668  -7.515 -46.041  0.00  0.00    +0.000 HD
ENDBRANCH  46  52
BRANCH  45  54
ATOM     54  O6  UNL     1      25.309  -7.231 -45.359  0.00  0.00    +0.000 OA
ATOM     55  H14 UNL     1      25.909  -7.985 -45.600  0.00  0.00    +0.000 HD
ENDBRANCH  45  54
BRANCH  49  56
ATOM     56  C13 UNL     1      24.038  -8.398 -40.751  0.00  0.00    +0.000 C 
BRANCH  56  57
ATOM     57  O10 UNL     1      24.229  -9.599 -40.048  0.00  0.00    +0.000 OA
ATOM     58  H22 UNL     1      23.336  -9.912 -39.747  0.00  0.00    +0.000 HD
ENDBRANCH  56  57
ENDBRANCH  49  56
ENDBRANCH  43  44
ENDBRANCH  33  43
ENDBRANCH   1  30
TORSDOF 22
ENDMDL
MODEL 6
REMARK VINA RESULT:    -5.680      1.612      3.371
REMARK INTER + INTRA:         -13.107
REMARK INTER:                 -10.713
REMARK INTRA:                  -2.394
REMARK UNBOUND:                -2.281
REMARK  Name = resultss/4CJN/ligands/lig_276_t0.pdb
REMARK  23 active torsions:
REMARK  status: ('A' for Active; 'I' for Inactive)
REMARK    1  A    between atoms: C1_1  and  C2_2
REMARK    2  A    between atoms: C3_4  and  O2_5
REMARK    3  A    between atoms: O2_5  and  C4_6
REMARK    4  A    between atoms: C5_7  and  O3_8
REMARK    5  A    between atoms: C6_9  and  O4_10
REMARK    6  A    between atoms: C7_11  and  O5_12
REMARK    7  A    between atoms: O5_12  and  C8_13
REMARK    8  A    between atoms: C9_14  and  O6_15
REMARK    9  A    between atoms: C10_16  and  O7_17
REMARK   10  A    between atoms: C11_18  and  O8_19
REMARK   11  A    between atoms: C12_21  and  C13_22
REMARK   12  A    between atoms: C13_22  and  O10_23
REMARK   13  A    between atoms: C14_25  and  C15_26
REMARK   14  A    between atoms: C15_26  and  O12_27
REMARK   15  A    between atoms: C16_28  and  O13_29
REMARK   16  A    between atoms: C17_30  and  O14_31
REMARK   17  A    between atoms: C18_32  and  N1_33
REMARK   18  A    between atoms: N1_33  and  C19_34
REMARK   19  A    between atoms: C21_36  and  C22_37
REMARK   20  A    between atoms: C22_37  and  O15_38
REMARK   21  A    between atoms: C23_39  and  O16_40
REMARK   22  A    between atoms: C24_41  and  O17_42
REMARK   23  A    between atoms: C25_43  and  O18_44
REMARK                            x       y       z     vdW  Elec       q    Type
REMARK                         _______ _______ _______ _____ _____    ______ ____
ROOT
ATOM      1  O2  UNL     1      27.585  -9.257 -41.941  0.00  0.00    +0.000 OA
ENDROOT
BRANCH   1   5
ATOM      2  C1  UNL     1      29.440  -7.465 -38.468  0.00  0.00    +0.000 C 
ATOM      3  C2  UNL     1      27.981  -7.915 -38.666  0.00  0.00    +0.000 C 
ATOM      4  O1  UNL     1      27.610  -8.000 -40.033  0.00  0.00    +0.000 OA
ATOM      5  C3  UNL     1      28.336  -8.977 -40.768  0.00  0.00    +0.000 C 
ATOM      6  C16 UNL     1      28.552 -10.301 -39.979  0.00  0.00    +0.000 C 
ATOM      7  C17 UNL     1      27.537 -10.443 -38.831  0.00  0.00    +0.000 C 
ATOM      8  C18 UNL     1      27.606  -9.213 -37.883  0.00  0.00    +0.000 C 
BRANCH   8   9
ATOM      9  N1  UNL     1      26.324  -8.978 -37.176  0.00  0.00    +0.000 NA
ATOM     10  H32 UNL     1      25.650  -9.721 -37.472  0.00  0.00    +0.000 HD
BRANCH   9  11
ATOM     11  C19 UNL     1      26.394  -8.980 -35.699  0.00  0.00    +0.000 C 
ATOM     12  C20 UNL     1      27.819  -9.007 -35.189  0.00  0.00    +0.000 C 
ATOM     13  C21 UNL     1      28.054  -8.835 -33.875  0.00  0.00    +0.000 C 
ATOM     14  C23 UNL     1      26.860  -8.569 -32.967  0.00  0.00    +0.000 C 
ATOM     15  C24 UNL     1      25.962  -7.476 -33.601  0.00  0.00    +0.000 C 
ATOM     16  C25 UNL     1      25.664  -7.733 -35.120  0.00  0.00    +0.000 C 
BRANCH  16  17
ATOM     17  O18 UNL     1      25.960  -6.580 -35.873  0.00  0.00    +0.000 OA
ATOM     18  H43 UNL     1      26.145  -6.870 -36.803  0.00  0.00    +0.000 HD
ENDBRANCH  16  17
BRANCH  15  19
ATOM     19  O17 UNL     1      24.755  -7.400 -32.884  0.00  0.00    +0.000 OA
ATOM     20  H41 UNL     1      24.994  -7.188 -31.945  0.00  0.00    +0.000 HD
ENDBRANCH  15  19
BRANCH  14  21
ATOM     21  O16 UNL     1      27.279  -8.172 -31.687  0.00  0.00    +0.000 OA
ATOM     22  H39 UNL     1      28.271  -8.130 -31.705  0.00  0.00    +0.000 HD
ENDBRANCH  14  21
BRANCH  13  23
ATOM     23  C22 UNL     1      29.482  -8.855 -33.365  0.00  0.00    +0.000 C 
BRANCH  23  24
ATOM     24  O15 UNL     1      29.929 -10.177 -33.232  0.00  0.00    +0.000 OA
ATOM     25  H37 UNL     1      30.797 -10.129 -32.750  0.00  0.00    +0.000 HD
ENDBRANCH  23  24
ENDBRANCH  13  23
ENDBRANCH   9  11
ENDBRANCH   8   9
BRANCH   7  26
ATOM     26  O14 UNL     1      27.832 -11.609 -38.106  0.00  0.00    +0.000 OA
ATOM     27  H30 UNL     1      27.687 -12.379 -38.715  0.00  0.00    +0.000 HD
ENDBRANCH   7  26
BRANCH   6  28
ATOM     28  O13 UNL     1      28.535 -11.422 -40.830  0.00  0.00    +0.000 OA
ATOM     29  H28 UNL     1      29.391 -11.439 -41.331  0.00  0.00    +0.000 HD
ENDBRANCH   6  28
ENDBRANCH   1   5
BRANCH   1  30
ATOM     30  C4  UNL     1      26.807  -8.160 -42.394  0.00  0.00    +0.000 C 
ATOM     31  C5  UNL     1      27.616  -7.409 -43.467  0.00  0.00    +0.000 C 
ATOM     32  C6  UNL     1      26.806  -6.224 -44.035  0.00  0.00    +0.000 C 
ATOM     33  C7  UNL     1      25.295  -6.557 -44.064  0.00  0.00    +0.000 C 
ATOM     34  O11 UNL     1      25.094  -7.955 -44.203  0.00  0.00    +0.000 OA
ATOM     35  C14 UNL     1      25.478  -8.672 -43.031  0.00  0.00    +0.000 C 
BRANCH  32  36
ATOM     36  O4  UNL     1      27.268  -5.915 -45.327  0.00  0.00    +0.000 OA
ATOM     37  H10 UNL     1      27.697  -5.020 -45.270  0.00  0.00    +0.000 HD
ENDBRANCH  32  36
BRANCH  31  38
ATOM     38  O3  UNL     1      28.852  -6.972 -42.960  0.00  0.00    +0.000 OA
ATOM     39  H8  UNL     1      28.687  -6.147 -42.437  0.00  0.00    +0.000 HD
ENDBRANCH  31  38
BRANCH  35  40
ATOM     40  C15 UNL     1      24.321  -8.722 -42.011  0.00  0.00    +0.000 C 
BRANCH  40  41
ATOM     41  O12 UNL     1      23.131  -9.118 -42.639  0.00  0.00    +0.000 OA
ATOM     42  H26 UNL     1      22.464  -8.404 -42.459  0.00  0.00    +0.000 HD
ENDBRANCH  40  41
ENDBRANCH  35  40
BRANCH  33  43
ATOM     43  O5  UNL     1      24.688  -5.883 -45.151  0.00  0.00    +0.000 OA
BRANCH  43  44
ATOM     44  C8  UNL     1      23.563  -6.594 -45.650  0.00  0.00    +0.000 C 
ATOM     45  C9  UNL     1      22.288  -6.107 -44.937  0.00  0.00    +0.000 C 
ATOM     46  C10 UNL     1      21.059  -6.845 -45.497  0.00  0.00    +0.000 C 
ATOM     47  C11 UNL     1      21.217  -7.128 -47.017  0.00  0.00    +0.000 C 
ATOM     48  O9  UNL     1      22.081  -6.188 -47.631  0.00  0.00    +0.000 OA
ATOM     49  C12 UNL     1      23.429  -6.309 -47.175  0.00  0.00    +0.000 C 
BRANCH  47  50
ATOM     50  O8  UNL     1      19.975  -7.127 -47.674  0.00  0.00    +0.000 OA
ATOM     51  H18 UNL     1      20.122  -7.511 -48.581  0.00  0.00    +0.000 HD
ENDBRANCH  47  50
BRANCH  46  52
ATOM     52  O7  UNL     1      19.907  -6.080 -45.232  0.00  0.00    +0.000 OA
ATOM     53  H16 UNL     1      19.160  -6.717 -45.079  0.00  0.00    +0.000 HD
ENDBRANCH  46  52
BRANCH  45  54
ATOM     54  O6  UNL     1      22.373  -6.347 -43.555  0.00  0.00    +0.000 OA
ATOM     55  H14 UNL     1      22.524  -7.322 -43.443  0.00  0.00    +0.000 HD
ENDBRANCH  45  54
BRANCH  49  56
ATOM     56  C13 UNL     1      24.203  -7.337 -48.013  0.00  0.00    +0.000 C 
BRANCH  56  57
ATOM     57  O10 UNL     1      25.489  -7.521 -47.477  0.00  0.00    +0.000 OA
ATOM     58  H22 UNL     1      25.644  -8.499 -47.407  0.00  0.00    +0.000 HD
ENDBRANCH  56  57
ENDBRANCH  49  56
ENDBRANCH  43  44
ENDBRANCH  33  43
ENDBRANCH   1  30
TORSDOF 22
ENDMDL
MODEL 7
REMARK VINA RESULT:    -4.907      1.615      3.232
REMARK INTER + INTRA:         -11.633
REMARK INTER:                 -10.127
REMARK INTRA:                  -1.506
REMARK UNBOUND:                -2.281
REMARK  Name = resultss/4CJN/ligands/lig_276_t0.pdb
REMARK  23 active torsions:
REMARK  status: ('A' for Active; 'I' for Inactive)
REMARK    1  A    between atoms: C1_1  and  C2_2
REMARK    2  A    between atoms: C3_4  and  O2_5
REMARK    3  A    between atoms: O2_5  and  C4_6
REMARK    4  A    between atoms: C5_7  and  O3_8
REMARK    5  A    between atoms: C6_9  and  O4_10
REMARK    6  A    between atoms: C7_11  and  O5_12
REMARK    7  A    between atoms: O5_12  and  C8_13
REMARK    8  A    between atoms: C9_14  and  O6_15
REMARK    9  A    between atoms: C10_16  and  O7_17
REMARK   10  A    between atoms: C11_18  and  O8_19
REMARK   11  A    between atoms: C12_21  and  C13_22
REMARK   12  A    between atoms: C13_22  and  O10_23
REMARK   13  A    between atoms: C14_25  and  C15_26
REMARK   14  A    between atoms: C15_26  and  O12_27
REMARK   15  A    between atoms: C16_28  and  O13_29
REMARK   16  A    between atoms: C17_30  and  O14_31
REMARK   17  A    between atoms: C18_32  and  N1_33
REMARK   18  A    between atoms: N1_33  and  C19_34
REMARK   19  A    between atoms: C21_36  and  C22_37
REMARK   20  A    between atoms: C22_37  and  O15_38
REMARK   21  A    between atoms: C23_39  and  O16_40
REMARK   22  A    between atoms: C24_41  and  O17_42
REMARK   23  A    between atoms: C25_43  and  O18_44
REMARK                            x       y       z     vdW  Elec       q    Type
REMARK                         _______ _______ _______ _____ _____    ______ ____
ROOT
ATOM      1  O2  UNL     1      28.177  -9.827 -41.322  0.00  0.00    +0.000 OA
ENDROOT
BRANCH   1   5
ATOM      2  C1  UNL     1      31.289  -9.064 -38.415  0.00  0.00    +0.000 C 
ATOM      3  C2  UNL     1      29.930  -8.364 -38.588  0.00  0.00    +0.000 C 
ATOM      4  O1  UNL     1      29.389  -8.520 -39.891  0.00  0.00    +0.000 OA
ATOM      5  C3  UNL     1      29.087  -9.867 -40.232  0.00  0.00    +0.000 C 
ATOM      6  C16 UNL     1      28.437 -10.663 -39.062  0.00  0.00    +0.000 C 
ATOM      7  C17 UNL     1      27.821  -9.720 -38.014  0.00  0.00    +0.000 C 
ATOM      8  C18 UNL     1      28.887  -8.721 -37.482  0.00  0.00    +0.000 C 
BRANCH   8   9
ATOM      9  N1  UNL     1      28.279  -7.462 -36.989  0.00  0.00    +0.000 NA
ATOM     10  H32 UNL     1      27.345  -7.352 -37.448  0.00  0.00    +0.000 HD
BRANCH   9  11
ATOM     11  C19 UNL     1      28.088  -7.369 -35.526  0.00  0.00    +0.000 C 
ATOM     12  C20 UNL     1      26.748  -7.919 -35.084  0.00  0.00    +0.000 C 
ATOM     13  C21 UNL     1      26.496  -8.068 -33.770  0.00  0.00    +0.000 C 
ATOM     14  C23 UNL     1      27.608  -7.717 -32.787  0.00  0.00    +0.000 C 
ATOM     15  C24 UNL     1      28.936  -8.363 -33.258  0.00  0.00    +0.000 C 
ATOM     16  C25 UNL     1      29.226  -8.128 -34.782  0.00  0.00    +0.000 C 
BRANCH  16  17
ATOM     17  O18 UNL     1      29.514  -9.353 -35.414  0.00  0.00    +0.000 OA
ATOM     18  H43 UNL     1      30.500  -9.415 -35.507  0.00  0.00    +0.000 HD
ENDBRANCH  16  17
BRANCH  15  19
ATOM     19  O17 UNL     1      29.994  -7.852 -32.486  0.00  0.00    +0.000 OA
ATOM     20  H41 UNL     1      29.938  -8.293 -31.599  0.00  0.00    +0.000 HD
ENDBRANCH  15  19
BRANCH  14  21
ATOM     21  O16 UNL     1      27.288  -8.150 -31.491  0.00  0.00    +0.000 OA
ATOM     22  H39 UNL     1      28.135  -8.164 -30.971  0.00  0.00    +0.000 HD
ENDBRANCH  14  21
BRANCH  13  23
ATOM     23  C22 UNL     1      25.158  -8.624 -33.327  0.00  0.00    +0.000 C 
BRANCH  23  24
ATOM     24  O15 UNL     1      24.428  -7.641 -32.644  0.00  0.00    +0.000 OA
ATOM     25  H37 UNL     1      24.964  -6.807 -32.701  0.00  0.00    +0.000 HD
ENDBRANCH  23  24
ENDBRANCH  13  23
ENDBRANCH   9  11
ENDBRANCH   8   9
BRANCH   7  26
ATOM     26  O14 UNL     1      27.326 -10.488 -36.947  0.00  0.00    +0.000 OA
ATOM     27  H30 UNL     1      26.772  -9.888 -36.384  0.00  0.00    +0.000 HD
ENDBRANCH   7  26
BRANCH   6  28
ATOM     28  O13 UNL     1      27.499 -11.603 -39.531  0.00  0.00    +0.000 OA
ATOM     29  H28 UNL     1      27.948 -12.486 -39.576  0.00  0.00    +0.000 HD
ENDBRANCH   6  28
ENDBRANCH   1   5
BRANCH   1  30
ATOM     30  C4  UNL     1      27.408  -8.635 -41.377  0.00  0.00    +0.000 C 
ATOM     31  C5  UNL     1      27.820  -7.855 -42.638  0.00  0.00    +0.000 C 
ATOM     32  C6  UNL     1      26.988  -6.563 -42.782  0.00  0.00    +0.000 C 
ATOM     33  C7  UNL     1      25.554  -6.772 -42.236  0.00  0.00    +0.000 C 
ATOM     34  O11 UNL     1      25.165  -8.131 -42.359  0.00  0.00    +0.000 OA
ATOM     35  C14 UNL     1      25.890  -8.979 -41.470  0.00  0.00    +0.000 C 
BRANCH  32  36
ATOM     36  O4  UNL     1      26.950  -6.176 -44.133  0.00  0.00    +0.000 OA
ATOM     37  H10 UNL     1      27.769  -5.638 -44.299  0.00  0.00    +0.000 HD
ENDBRANCH  32  36
BRANCH  31  38
ATOM     38  O3  UNL     1      29.196  -7.566 -42.632  0.00  0.00    +0.000 OA
ATOM     39  H8  UNL     1      29.618  -8.102 -43.351  0.00  0.00    +0.000 HD
ENDBRANCH  31  38
BRANCH  35  40
ATOM     40  C15 UNL     1      25.214  -9.031 -40.084  0.00  0.00    +0.000 C 
BRANCH  40  41
ATOM     41  O12 UNL     1      23.852  -9.336 -40.214  0.00  0.00    +0.000 OA
ATOM     42  H26 UNL     1      23.492  -8.735 -40.919  0.00  0.00    +0.000 HD
ENDBRANCH  40  41
ENDBRANCH  35  40
BRANCH  33  43
ATOM     43  O5  UNL     1      24.654  -5.956 -42.962  0.00  0.00    +0.000 OA
BRANCH  43  44
ATOM     44  C8  UNL     1      23.453  -6.648 -43.278  0.00  0.00    +0.000 C 
ATOM     45  C9  UNL     1      22.354  -6.257 -42.274  0.00  0.00    +0.000 C 
ATOM     46  C10 UNL     1      21.039  -6.974 -42.629  0.00  0.00    +0.000 C 
ATOM     47  C11 UNL     1      20.875  -7.118 -44.167  0.00  0.00    +0.000 C 
ATOM     48  O9  UNL     1      21.585  -6.106 -44.861  0.00  0.00    +0.000 OA
ATOM     49  C12 UNL     1      23.000  -6.233 -44.709  0.00  0.00    +0.000 C 
BRANCH  47  50
ATOM     50  O8  UNL     1      19.523  -7.090 -44.548  0.00  0.00    +0.000 OA
ATOM     51  H18 UNL     1      19.001  -7.509 -43.813  0.00  0.00    +0.000 HD
ENDBRANCH  47  50
BRANCH  46  52
ATOM     52  O7  UNL     1      19.964  -6.264 -42.061  0.00  0.00    +0.000 OA
ATOM     53  H16 UNL     1      19.630  -5.633 -42.751  0.00  0.00    +0.000 HD
ENDBRANCH  46  52
BRANCH  45  54
ATOM     54  O6  UNL     1      22.729  -6.616 -40.967  0.00  0.00    +0.000 OA
ATOM     55  H14 UNL     1      23.710  -6.476 -40.903  0.00  0.00    +0.000 HD
ENDBRANCH  45  54
BRANCH  49  56
ATOM     56  C13 UNL     1      23.587  -7.164 -45.780  0.00  0.00    +0.000 C 
BRANCH  56  57
ATOM     57  O10 UNL     1      24.235  -8.250 -45.168  0.00  0.00    +0.000 OA
ATOM     58  H22 UNL     1      25.212  -8.085 -45.230  0.00  0.00    +0.000 HD
ENDBRANCH  56  57
ENDBRANCH  49  56
ENDBRANCH  43  44
ENDBRANCH  33  43
ENDBRANCH   1  30
TORSDOF 22
ENDMDL
MODEL 8
REMARK VINA RESULT:    -4.878      3.145     11.001
REMARK INTER + INTRA:         -11.578
REMARK INTER:                  -9.753
REMARK INTRA:                  -1.825
REMARK UNBOUND:                -2.281
REMARK  Name = resultss/4CJN/ligands/lig_276_t0.pdb
REMARK  23 active torsions:
REMARK  status: ('A' for Active; 'I' for Inactive)
REMARK    1  A    between atoms: C1_1  and  C2_2
REMARK    2  A    between atoms: C3_4  and  O2_5
REMARK    3  A    between atoms: O2_5  and  C4_6
REMARK    4  A    between atoms: C5_7  and  O3_8
REMARK    5  A    between atoms: C6_9  and  O4_10
REMARK    6  A    between atoms: C7_11  and  O5_12
REMARK    7  A    between atoms: O5_12  and  C8_13
REMARK    8  A    between atoms: C9_14  and  O6_15
REMARK    9  A    between atoms: C10_16  and  O7_17
REMARK   10  A    between atoms: C11_18  and  O8_19
REMARK   11  A    between atoms: C12_21  and  C13_22
REMARK   12  A    between atoms: C13_22  and  O10_23
REMARK   13  A    between atoms: C14_25  and  C15_26
REMARK   14  A    between atoms: C15_26  and  O12_27
REMARK   15  A    between atoms: C16_28  and  O13_29
REMARK   16  A    between atoms: C17_30  and  O14_31
REMARK   17  A    between atoms: C18_32  and  N1_33
REMARK   18  A    between atoms: N1_33  and  C19_34
REMARK   19  A    between atoms: C21_36  and  C22_37
REMARK   20  A    between atoms: C22_37  and  O15_38
REMARK   21  A    between atoms: C23_39  and  O16_40
REMARK   22  A    between atoms: C24_41  and  O17_42
REMARK   23  A    between atoms: C25_43  and  O18_44
REMARK                            x       y       z     vdW  Elec       q    Type
REMARK                         _______ _______ _______ _____ _____    ______ ____
ROOT
ATOM      1  O2  UNL     1      29.855  -8.646 -39.562  0.00  0.00    +0.000 OA
ENDROOT
BRANCH   1   5
ATOM      2  C1  UNL     1      25.912  -6.867 -39.521  0.00  0.00    +0.000 C 
ATOM      3  C2  UNL     1      26.711  -7.427 -40.710  0.00  0.00    +0.000 C 
ATOM      4  O1  UNL     1      28.108  -7.480 -40.462  0.00  0.00    +0.000 OA
ATOM      5  C3  UNL     1      28.473  -8.357 -39.405  0.00  0.00    +0.000 C 
ATOM      6  C16 UNL     1      27.674  -9.694 -39.415  0.00  0.00    +0.000 C 
ATOM      7  C17 UNL     1      27.064  -9.974 -40.799  0.00  0.00    +0.000 C 
ATOM      8  C18 UNL     1      26.169  -8.787 -41.254  0.00  0.00    +0.000 C 
BRANCH   8   9
ATOM      9  N1  UNL     1      26.069  -8.693 -42.730  0.00  0.00    +0.000 NA
ATOM     10  H32 UNL     1      25.961  -9.663 -43.110  0.00  0.00    +0.000 HD
BRANCH   9  11
ATOM     11  C19 UNL     1      24.956  -7.869 -43.249  0.00  0.00    +0.000 C 
ATOM     12  C20 UNL     1      24.919  -7.838 -44.762  0.00  0.00    +0.000 C 
ATOM     13  C21 UNL     1      23.866  -7.279 -45.386  0.00  0.00    +0.000 C 
ATOM     14  C23 UNL     1      22.729  -6.744 -44.523  0.00  0.00    +0.000 C 
ATOM     15  C24 UNL     1      22.348  -7.802 -43.457  0.00  0.00    +0.000 C 
ATOM     16  C25 UNL     1      23.594  -8.398 -42.712  0.00  0.00    +0.000 C 
BRANCH  16  17
ATOM     17  O18 UNL     1      23.550  -9.805 -42.744  0.00  0.00    +0.000 OA
ATOM     18  H43 UNL     1      22.751 -10.090 -42.230  0.00  0.00    +0.000 HD
ENDBRANCH  16  17
BRANCH  15  19
ATOM     19  O17 UNL     1      21.469  -7.221 -42.526  0.00  0.00    +0.000 OA
ATOM     20  H41 UNL     1      20.861  -6.629 -43.040  0.00  0.00    +0.000 HD
ENDBRANCH  15  19
BRANCH  14  21
ATOM     21  O16 UNL     1      21.611  -6.420 -45.308  0.00  0.00    +0.000 OA
ATOM     22  H39 UNL     1      20.837  -6.336 -44.691  0.00  0.00    +0.000 HD
ENDBRANCH  14  21
BRANCH  13  23
ATOM     23  C22 UNL     1      23.825  -7.253 -46.901  0.00  0.00    +0.000 C 
BRANCH  23  24
ATOM     24  O15 UNL     1      23.053  -8.318 -47.383  0.00  0.00    +0.000 OA
ATOM     25  H37 UNL     1      23.688  -8.951 -47.811  0.00  0.00    +0.000 HD
ENDBRANCH  23  24
ENDBRANCH  13  23
ENDBRANCH   9  11
ENDBRANCH   8   9
BRANCH   7  26
ATOM     26  O14 UNL     1      26.291 -11.143 -40.727  0.00  0.00    +0.000 OA
ATOM     27  H30 UNL     1      26.672 -11.790 -41.376  0.00  0.00    +0.000 HD
ENDBRANCH   7  26
BRANCH   6  28
ATOM     28  O13 UNL     1      28.460 -10.772 -38.965  0.00  0.00    +0.000 OA
ATOM     29  H28 UNL     1      29.157 -10.949 -39.648  0.00  0.00    +0.000 HD
ENDBRANCH   6  28
ENDBRANCH   1   5
BRANCH   1  30
ATOM     30  C4  UNL     1      30.650  -8.235 -38.460  0.00  0.00    +0.000 C 
ATOM     31  C5  UNL     1      29.801  -7.305 -37.575  0.00  0.00    +0.000 C 
ATOM     32  C6  UNL     1      30.597  -6.854 -36.331  0.00  0.00    +0.000 C 
ATOM     33  C7  UNL     1      31.560  -7.972 -35.862  0.00  0.00    +0.000 C 
ATOM     34  O11 UNL     1      31.050  -9.250 -36.211  0.00  0.00    +0.000 OA
ATOM     35  C14 UNL     1      31.084  -9.475 -37.619  0.00  0.00    +0.000 C 
BRANCH  32  36
ATOM     36  O4  UNL     1      29.703  -6.508 -35.301  0.00  0.00    +0.000 OA
ATOM     37  H10 UNL     1      28.888  -6.147 -35.741  0.00  0.00    +0.000 HD
ENDBRANCH  32  36
BRANCH  31  38
ATOM     38  O3  UNL     1      29.337  -6.195 -38.301  0.00  0.00    +0.000 OA
ATOM     39  H8  UNL     1      28.356  -6.140 -38.169  0.00  0.00    +0.000 HD
ENDBRANCH  31  38
BRANCH  35  40
ATOM     40  C15 UNL     1      32.456 -10.029 -38.056  0.00  0.00    +0.000 C 
BRANCH  40  41
ATOM     41  O12 UNL     1      32.556 -10.042 -39.455  0.00  0.00    +0.000 OA
ATOM     42  H26 UNL     1      33.249  -9.371 -39.696  0.00  0.00    +0.000 HD
ENDBRANCH  40  41
ENDBRANCH  35  40
BRANCH  33  43
ATOM     43  O5  UNL     1      31.718  -7.895 -34.458  0.00  0.00    +0.000 OA
BRANCH  43  44
ATOM     44  C8  UNL     1      31.771  -9.183 -33.861  0.00  0.00    +0.000 C 
ATOM     45  C9  UNL     1      33.067  -9.319 -33.040  0.00  0.00    +0.000 C 
ATOM     46  C10 UNL     1      33.116 -10.699 -32.360  0.00  0.00    +0.000 C 
ATOM     47  C11 UNL     1      31.697 -11.165 -31.931  0.00  0.00    +0.000 C 
ATOM     48  O9  UNL     1      30.835 -10.062 -31.707  0.00  0.00    +0.000 OA
ATOM     49  C12 UNL     1      30.550  -9.342 -32.908  0.00  0.00    +0.000 C 
BRANCH  47  50
ATOM     50  O8  UNL     1      31.744 -11.967 -30.779  0.00  0.00    +0.000 OA
ATOM     51  H18 UNL     1      31.908 -11.364 -30.005  0.00  0.00    +0.000 HD
ENDBRANCH  47  50
BRANCH  46  52
ATOM     52  O7  UNL     1      33.993 -10.635 -31.261  0.00  0.00    +0.000 OA
ATOM     53  H16 UNL     1      34.665 -11.355 -31.378  0.00  0.00    +0.000 HD
ENDBRANCH  46  52
BRANCH  45  54
ATOM     54  O6  UNL     1      34.194  -9.179 -33.869  0.00  0.00    +0.000 OA
ATOM     55  H14 UNL     1      33.917  -8.609 -34.634  0.00  0.00    +0.000 HD
ENDBRANCH  45  54
BRANCH  49  56
ATOM     56  C13 UNL     1      29.339  -9.945 -33.636  0.00  0.00    +0.000 C 
BRANCH  56  57
ATOM     57  O10 UNL     1      28.645  -8.936 -34.325  0.00  0.00    +0.000 OA
ATOM     58  H22 UNL     1      29.233  -8.621 -35.060  0.00  0.00    +0.000 HD
ENDBRANCH  56  57
ENDBRANCH  49  56
ENDBRANCH  43  44
ENDBRANCH  33  43
ENDBRANCH   1  30
TORSDOF 22
ENDMDL
MODEL 9
REMARK VINA RESULT:    -4.876      2.228      9.249
REMARK INTER + INTRA:         -11.575
REMARK INTER:                  -9.571
REMARK INTRA:                  -2.003
REMARK UNBOUND:                -2.281
REMARK  Name = resultss/4CJN/ligands/lig_276_t0.pdb
REMARK  23 active torsions:
REMARK  status: ('A' for Active; 'I' for Inactive)
REMARK    1  A    between atoms: C1_1  and  C2_2
REMARK    2  A    between atoms: C3_4  and  O2_5
REMARK    3  A    between atoms: O2_5  and  C4_6
REMARK    4  A    between atoms: C5_7  and  O3_8
REMARK    5  A    between atoms: C6_9  and  O4_10
REMARK    6  A    between atoms: C7_11  and  O5_12
REMARK    7  A    between atoms: O5_12  and  C8_13
REMARK    8  A    between atoms: C9_14  and  O6_15
REMARK    9  A    between atoms: C10_16  and  O7_17
REMARK   10  A    between atoms: C11_18  and  O8_19
REMARK   11  A    between atoms: C12_21  and  C13_22
REMARK   12  A    between atoms: C13_22  and  O10_23
REMARK   13  A    between atoms: C14_25  and  C15_26
REMARK   14  A    between atoms: C15_26  and  O12_27
REMARK   15  A    between atoms: C16_28  and  O13_29
REMARK   16  A    between atoms: C17_30  and  O14_31
REMARK   17  A    between atoms: C18_32  and  N1_33
REMARK   18  A    between atoms: N1_33  and  C19_34
REMARK   19  A    between atoms: C21_36  and  C22_37
REMARK   20  A    between atoms: C22_37  and  O15_38
REMARK   21  A    between atoms: C23_39  and  O16_40
REMARK   22  A    between atoms: C24_41  and  O17_42
REMARK   23  A    between atoms: C25_43  and  O18_44
REMARK                            x       y       z     vdW  Elec       q    Type
REMARK                         _______ _______ _______ _____ _____    ______ ____
ROOT
ATOM      1  O2  UNL     1      28.044  -6.168 -40.141  0.00  0.00    +0.000 OA
ENDROOT
BRANCH   1   5
ATOM      2  C1  UNL     1      28.754 -10.398 -40.700  0.00  0.00    +0.000 C 
ATOM      3  C2  UNL     1      27.583  -9.536 -41.203  0.00  0.00    +0.000 C 
ATOM      4  O1  UNL     1      27.414  -8.342 -40.455  0.00  0.00    +0.000 OA
ATOM      5  C3  UNL     1      28.515  -7.447 -40.541  0.00  0.00    +0.000 C 
ATOM      6  C16 UNL     1      29.105  -7.340 -41.978  0.00  0.00    +0.000 C 
ATOM      7  C17 UNL     1      28.093  -7.807 -43.038  0.00  0.00    +0.000 C 
ATOM      8  C18 UNL     1      27.616  -9.256 -42.739  0.00  0.00    +0.000 C 
BRANCH   8   9
ATOM      9  N1  UNL     1      26.267  -9.528 -43.292  0.00  0.00    +0.000 NA
ATOM     10  H32 UNL     1      25.848 -10.319 -42.750  0.00  0.00    +0.000 HD
BRANCH   9  11
ATOM     11  C19 UNL     1      25.318  -8.394 -43.261  0.00  0.00    +0.000 C 
ATOM     12  C20 UNL     1      24.744  -8.086 -44.627  0.00  0.00    +0.000 C 
ATOM     13  C21 UNL     1      23.735  -7.200 -44.736  0.00  0.00    +0.000 C 
ATOM     14  C23 UNL     1      23.186  -6.586 -43.453  0.00  0.00    +0.000 C 
ATOM     15  C24 UNL     1      22.941  -7.704 -42.409  0.00  0.00    +0.000 C 
ATOM     16  C25 UNL     1      24.154  -8.689 -42.269  0.00  0.00    +0.000 C 
BRANCH  16  17
ATOM     17  O18 UNL     1      23.713 -10.022 -42.390  0.00  0.00    +0.000 OA
ATOM     18  H43 UNL     1      23.055 -10.184 -41.665  0.00  0.00    +0.000 HD
ENDBRANCH  16  17
BRANCH  15  19
ATOM     19  O17 UNL     1      22.657  -7.116 -41.164  0.00  0.00    +0.000 OA
ATOM     20  H41 UNL     1      21.874  -6.523 -41.301  0.00  0.00    +0.000 HD
ENDBRANCH  15  19
BRANCH  14  21
ATOM     21  O16 UNL     1      21.996  -5.883 -43.702  0.00  0.00    +0.000 OA
ATOM     22  H39 UNL     1      21.689  -5.515 -42.832  0.00  0.00    +0.000 HD
ENDBRANCH  14  21
BRANCH  13  23
ATOM     23  C22 UNL     1      23.156  -6.895 -46.103  0.00  0.00    +0.000 C 
BRANCH  23  24
ATOM     24  O15 UNL     1      23.438  -7.941 -46.992  0.00  0.00    +0.000 OA
ATOM     25  H37 UNL     1      24.252  -8.391 -46.643  0.00  0.00    +0.000 HD
ENDBRANCH  23  24
ENDBRANCH  13  23
ENDBRANCH   9  11
ENDBRANCH   8   9
BRANCH   7  26
ATOM     26  O14 UNL     1      28.706  -7.767 -44.301  0.00  0.00    +0.000 OA
ATOM     27  H30 UNL     1      28.045  -7.391 -44.938  0.00  0.00    +0.000 HD
ENDBRANCH   7  26
BRANCH   6  28
ATOM     28  O13 UNL     1      29.582  -6.043 -42.249  0.00  0.00    +0.000 OA
ATOM     29  H28 UNL     1      30.223  -5.797 -41.534  0.00  0.00    +0.000 HD
ENDBRANCH   6  28
ENDBRANCH   1   5
BRANCH   1  30
ATOM     30  C4  UNL     1      27.224  -6.201 -38.984  0.00  0.00    +0.000 C 
ATOM     31  C5  UNL     1      25.830  -6.707 -39.397  0.00  0.00    +0.000 C 
ATOM     32  C6  UNL     1      24.897  -6.808 -38.171  0.00  0.00    +0.000 C 
ATOM     33  C7  UNL     1      25.697  -7.196 -36.904  0.00  0.00    +0.000 C 
ATOM     34  O11 UNL     1      26.841  -7.961 -37.250  0.00  0.00    +0.000 OA
ATOM     35  C14 UNL     1      27.824  -7.180 -37.928  0.00  0.00    +0.000 C 
BRANCH  32  36
ATOM     36  O4  UNL     1      23.886  -7.753 -38.426  0.00  0.00    +0.000 OA
ATOM     37  H10 UNL     1      23.031  -7.343 -38.129  0.00  0.00    +0.000 HD
ENDBRANCH  32  36
BRANCH  31  38
ATOM     38  O3  UNL     1      25.265  -5.890 -40.390  0.00  0.00    +0.000 OA
ATOM     39  H8  UNL     1      26.003  -5.391 -40.825  0.00  0.00    +0.000 HD
ENDBRANCH  31  38
BRANCH  35  40
ATOM     40  C15 UNL     1      28.748  -6.463 -36.922  0.00  0.00    +0.000 C 
BRANCH  40  41
ATOM     41  O12 UNL     1      29.093  -7.325 -35.872  0.00  0.00    +0.000 OA
ATOM     42  H26 UNL     1      29.266  -8.215 -36.280  0.00  0.00    +0.000 HD
ENDBRANCH  40  41
ENDBRANCH  35  40
BRANCH  33  43
ATOM     43  O5  UNL     1      24.868  -7.952 -36.041  0.00  0.00    +0.000 OA
BRANCH  43  44
ATOM     44  C8  UNL     1      25.450  -8.108 -34.754  0.00  0.00    +0.000 C 
ATOM     45  C9  UNL     1      26.635  -9.088 -34.839  0.00  0.00    +0.000 C 
ATOM     46  C10 UNL     1      27.294  -9.235 -33.457  0.00  0.00    +0.000 C 
ATOM     47  C11 UNL     1      27.259  -7.896 -32.671  0.00  0.00    +0.000 C 
ATOM     48  O9  UNL     1      27.203  -6.783 -33.546  0.00  0.00    +0.000 OA
ATOM     49  C12 UNL     1      25.974  -6.723 -34.272  0.00  0.00    +0.000 C 
BRANCH  47  50
ATOM     50  O8  UNL     1      28.367  -7.768 -31.816  0.00  0.00    +0.000 OA
ATOM     51  H18 UNL     1      29.129  -7.444 -32.368  0.00  0.00    +0.000 HD
ENDBRANCH  47  50
BRANCH  46  52
ATOM     52  O7  UNL     1      28.613  -9.698 -33.627  0.00  0.00    +0.000 OA
ATOM     53  H16 UNL     1      29.072  -9.062 -34.236  0.00  0.00    +0.000 HD
ENDBRANCH  46  52
BRANCH  45  54
ATOM     54  O6  UNL     1      26.199 -10.352 -35.274  0.00  0.00    +0.000 OA
ATOM     55  H14 UNL     1      26.007 -10.884 -34.458  0.00  0.00    +0.000 HD
ENDBRANCH  45  54
BRANCH  49  56
ATOM     56  C13 UNL     1      24.903  -5.958 -33.479  0.00  0.00    +0.000 C 
BRANCH  56  57
ATOM     57  O10 UNL     1      23.654  -6.094 -34.107  0.00  0.00    +0.000 OA
ATOM     58  H22 UNL     1      23.741  -5.722 -35.024  0.00  0.00    +0.000 HD
ENDBRANCH  56  57
ENDBRANCH  49  56
ENDBRANCH  43  44
ENDBRANCH  33  43
ENDBRANCH   1  30
TORSDOF 22
ENDMDL
