MODEL 1
REMARK VINA RESULT:    -7.441      0.000      0.000
REMARK INTER + INTRA:         -10.271
REMARK INTER:                  -9.616
REMARK INTRA:                  -0.656
REMARK UNBOUND:                -0.656
REMARK  Name = resultss/4CJN/ligands/lig_185_t0.pdb
REMARK  6 active torsions:
REMARK  status: ('A' for Active; 'I' for Inactive)
REMARK    1  A    between atoms: C1_2  and  C9_14
REMARK    2  A    between atoms: N1_3  and  N2_4
REMARK    3  A    between atoms: C2_5  and  C3_6
REMARK    4  A    between atoms: C5_8  and  O2_9
REMARK    5  A    between atoms: C8_12  and  O3_13
REMARK    6  A    between atoms: C12_17  and  C13_18
REMARK                            x       y       z     vdW  Elec       q    Type
REMARK                         _______ _______ _______ _____ _____    ______ ____
ROOT
ATOM      1  O1  UNL     1      28.703  -9.907 -43.016  0.00  0.00    +0.000 OA
ATOM      2  C1  UNL     1      29.124 -10.373 -41.923  0.00  0.00    +0.000 C 
ATOM      3  N1  UNL     1      30.293 -11.203 -41.920  0.00  0.00    +0.000 N 
ATOM      4  H1  UNL     1      30.560 -11.732 -41.060  0.00  0.00    +0.000 HD
ENDROOT
BRANCH   2   5
ATOM      5  C9  UNL     1      28.392 -10.068 -40.669  0.00  0.00    +0.000 A 
ATOM      6  C10 UNL     1      27.033  -9.715 -40.719  0.00  0.00    +0.000 A 
ATOM      7  C11 UNL     1      26.331  -9.421 -39.546  0.00  0.00    +0.000 A 
ATOM      8  C12 UNL     1      26.974  -9.465 -38.298  0.00  0.00    +0.000 A 
ATOM      9  C20 UNL     1      28.337  -9.804 -38.249  0.00  0.00    +0.000 A 
ATOM     10  C21 UNL     1      29.039 -10.100 -39.421  0.00  0.00    +0.000 A 
BRANCH   8  11
ATOM     11  C13 UNL     1      26.220  -9.151 -37.061  0.00  0.00    +0.000 A 
ATOM     12  N3  UNL     1      25.003  -8.548 -37.067  0.00  0.00    +0.000 NA
ATOM     13  C14 UNL     1      24.529  -8.375 -35.807  0.00  0.00    +0.000 A 
ATOM     14  C15 UNL     1      23.303  -7.782 -35.499  0.00  0.00    +0.000 A 
ATOM     15  C16 UNL     1      22.931  -7.663 -34.148  0.00  0.00    +0.000 A 
ATOM     16  C17 UNL     1      23.783  -8.134 -33.129  0.00  0.00    +0.000 A 
ATOM     17  C18 UNL     1      25.014  -8.728 -33.451  0.00  0.00    +0.000 A 
ATOM     18  C19 UNL     1      25.358  -8.833 -34.796  0.00  0.00    +0.000 A 
ATOM     19  S1  UNL     1      26.742  -9.485 -35.479  0.00  0.00    +0.000 S 
ENDBRANCH   8  11
ENDBRANCH   2   5
BRANCH   3  20
ATOM     20  N2  UNL     1      31.040 -11.364 -43.099  0.00  0.00    +0.000 NA
ATOM     21  C2  UNL     1      31.756 -12.422 -43.316  0.00  0.00    +0.000 C 
BRANCH  21  22
ATOM     22  C3  UNL     1      32.590 -12.548 -44.529  0.00  0.00    +0.000 A 
ATOM     23  C4  UNL     1      32.445 -13.712 -45.302  0.00  0.00    +0.000 A 
ATOM     24  C5  UNL     1      33.253 -13.936 -46.421  0.00  0.00    +0.000 A 
ATOM     25  C6  UNL     1      34.217 -12.990 -46.781  0.00  0.00    +0.000 A 
ATOM     26  C7  UNL     1      34.355 -11.816 -46.040  0.00  0.00    +0.000 A 
ATOM     27  C8  UNL     1      33.537 -11.570 -44.931  0.00  0.00    +0.000 A 
BRANCH  24  28
ATOM     28  O2  UNL     1      33.095 -15.106 -47.160  0.00  0.00    +0.000 OA
ATOM     29  H4  UNL     1      32.212 -15.604 -47.182  0.00  0.00    +0.000 HD
ENDBRANCH  24  28
BRANCH  27  30
ATOM     30  O3  UNL     1      33.671 -10.337 -44.288  0.00  0.00    +0.000 OA
ATOM     31  H7  UNL     1      34.468  -9.728 -44.409  0.00  0.00    +0.000 HD
ENDBRANCH  27  30
ENDBRANCH  21  22
ENDBRANCH   3  20
TORSDOF 6
ENDMDL
MODEL 2
REMARK VINA RESULT:    -6.572      3.890     11.784
REMARK INTER + INTRA:          -9.149
REMARK INTER:                  -8.521
REMARK INTRA:                  -0.628
REMARK UNBOUND:                -0.656
REMARK  Name = resultss/4CJN/ligands/lig_185_t0.pdb
REMARK  6 active torsions:
REMARK  status: ('A' for Active; 'I' for Inactive)
REMARK    1  A    between atoms: C1_2  and  C9_14
REMARK    2  A    between atoms: N1_3  and  N2_4
REMARK    3  A    between atoms: C2_5  and  C3_6
REMARK    4  A    between atoms: C5_8  and  O2_9
REMARK    5  A    between atoms: C8_12  and  O3_13
REMARK    6  A    between atoms: C12_17  and  C13_18
REMARK                            x       y       z     vdW  Elec       q    Type
REMARK                         _______ _______ _______ _____ _____    ______ ____
ROOT
ATOM      1  O1  UNL     1      27.590  -8.623 -39.759  0.00  0.00    +0.000 OA
ATOM      2  C1  UNL     1      28.660  -9.230 -39.482  0.00  0.00    +0.000 C 
ATOM      3  N1  UNL     1      29.061  -9.347 -38.111  0.00  0.00    +0.000 N 
ATOM      4  H1  UNL     1      30.017  -9.694 -37.870  0.00  0.00    +0.000 HD
ENDROOT
BRANCH   2   5
ATOM      5  C9  UNL     1      29.486  -9.791 -40.578  0.00  0.00    +0.000 A 
ATOM      6  C10 UNL     1      28.872 -10.254 -41.753  0.00  0.00    +0.000 A 
ATOM      7  C11 UNL     1      29.637 -10.790 -42.793  0.00  0.00    +0.000 A 
ATOM      8  C12 UNL     1      31.034 -10.883 -42.679  0.00  0.00    +0.000 A 
ATOM      9  C20 UNL     1      31.648 -10.432 -41.497  0.00  0.00    +0.000 A 
ATOM     10  C21 UNL     1      30.884  -9.895 -40.457  0.00  0.00    +0.000 A 
BRANCH   8  11
ATOM     11  C13 UNL     1      31.836 -11.453 -43.787  0.00  0.00    +0.000 A 
ATOM     12  N3  UNL     1      31.685 -12.726 -44.233  0.00  0.00    +0.000 NA
ATOM     13  C14 UNL     1      32.537 -12.999 -45.254  0.00  0.00    +0.000 A 
ATOM     14  C15 UNL     1      32.611 -14.227 -45.913  0.00  0.00    +0.000 A 
ATOM     15  C16 UNL     1      33.541 -14.377 -46.958  0.00  0.00    +0.000 A 
ATOM     16  C17 UNL     1      34.380 -13.307 -47.327  0.00  0.00    +0.000 A 
ATOM     17  C18 UNL     1      34.296 -12.076 -46.656  0.00  0.00    +0.000 A 
ATOM     18  C19 UNL     1      33.367 -11.954 -45.626  0.00  0.00    +0.000 A 
ATOM     19  S1  UNL     1      33.041 -10.627 -44.655  0.00  0.00    +0.000 S 
ENDBRANCH   8  11
ENDBRANCH   2   5
BRANCH   3  20
ATOM     20  N2  UNL     1      28.195  -8.924 -37.089  0.00  0.00    +0.000 NA
ATOM     21  C2  UNL     1      28.443  -9.161 -35.840  0.00  0.00    +0.000 C 
BRANCH  21  22
ATOM     22  C3  UNL     1      27.490  -8.771 -34.780  0.00  0.00    +0.000 A 
ATOM     23  C4  UNL     1      27.966  -7.951 -33.744  0.00  0.00    +0.000 A 
ATOM     24  C5  UNL     1      27.144  -7.603 -32.668  0.00  0.00    +0.000 A 
ATOM     25  C6  UNL     1      25.827  -8.071 -32.622  0.00  0.00    +0.000 A 
ATOM     26  C7  UNL     1      25.330  -8.864 -33.657  0.00  0.00    +0.000 A 
ATOM     27  C8  UNL     1      26.137  -9.201 -34.750  0.00  0.00    +0.000 A 
BRANCH  24  28
ATOM     28  O2  UNL     1      27.648  -6.799 -31.649  0.00  0.00    +0.000 OA
ATOM     29  H4  UNL     1      27.806  -7.163 -30.716  0.00  0.00    +0.000 HD
ENDBRANCH  24  28
BRANCH  27  30
ATOM     30  O3  UNL     1      25.549  -9.925 -35.790  0.00  0.00    +0.000 OA
ATOM     31  H7  UNL     1      26.004 -10.100 -36.675  0.00  0.00    +0.000 HD
ENDBRANCH  27  30
ENDBRANCH  21  22
ENDBRANCH   3  20
TORSDOF 6
ENDMDL
MODEL 3
REMARK VINA RESULT:    -6.376      3.709     11.661
REMARK INTER + INTRA:          -8.896
REMARK INTER:                  -8.257
REMARK INTRA:                  -0.639
REMARK UNBOUND:                -0.656
REMARK  Name = resultss/4CJN/ligands/lig_185_t0.pdb
REMARK  6 active torsions:
REMARK  status: ('A' for Active; 'I' for Inactive)
REMARK    1  A    between atoms: C1_2  and  C9_14
REMARK    2  A    between atoms: N1_3  and  N2_4
REMARK    3  A    between atoms: C2_5  and  C3_6
REMARK    4  A    between atoms: C5_8  and  O2_9
REMARK    5  A    between atoms: C8_12  and  O3_13
REMARK    6  A    between atoms: C12_17  and  C13_18
REMARK                            x       y       z     vdW  Elec       q    Type
REMARK                         _______ _______ _______ _____ _____    ______ ____
ROOT
ATOM      1  O1  UNL     1      26.764  -8.571 -39.489  0.00  0.00    +0.000 OA
ATOM      2  C1  UNL     1      27.989  -8.733 -39.239  0.00  0.00    +0.000 C 
ATOM      3  N1  UNL     1      28.507  -8.303 -37.973  0.00  0.00    +0.000 N 
ATOM      4  H1  UNL     1      29.539  -8.273 -37.810  0.00  0.00    +0.000 HD
ENDROOT
BRANCH   2   5
ATOM      5  C9  UNL     1      28.868  -9.345 -40.265  0.00  0.00    +0.000 A 
ATOM      6  C10 UNL     1      28.648 -10.670 -40.678  0.00  0.00    +0.000 A 
ATOM      7  C11 UNL     1      29.471 -11.262 -41.640  0.00  0.00    +0.000 A 
ATOM      8  C12 UNL     1      30.539 -10.545 -42.206  0.00  0.00    +0.000 A 
ATOM      9  C20 UNL     1      30.768  -9.224 -41.783  0.00  0.00    +0.000 A 
ATOM     10  C21 UNL     1      29.945  -8.631 -40.822  0.00  0.00    +0.000 A 
BRANCH   8  11
ATOM     11  C13 UNL     1      31.406 -11.182 -43.225  0.00  0.00    +0.000 A 
ATOM     12  N3  UNL     1      32.072 -10.479 -44.177  0.00  0.00    +0.000 NA
ATOM     13  C14 UNL     1      32.794 -11.297 -44.984  0.00  0.00    +0.000 A 
ATOM     14  C15 UNL     1      33.580 -10.859 -46.052  0.00  0.00    +0.000 A 
ATOM     15  C16 UNL     1      34.279 -11.815 -46.812  0.00  0.00    +0.000 A 
ATOM     16  C17 UNL     1      34.185 -13.185 -46.497  0.00  0.00    +0.000 A 
ATOM     17  C18 UNL     1      33.391 -13.613 -45.421  0.00  0.00    +0.000 A 
ATOM     18  C19 UNL     1      32.709 -12.647 -44.686  0.00  0.00    +0.000 A 
ATOM     19  S1  UNL     1      31.698 -12.851 -43.364  0.00  0.00    +0.000 S 
ENDBRANCH   8  11
ENDBRANCH   2   5
BRANCH   3  20
ATOM     20  N2  UNL     1      27.629  -7.851 -36.975  0.00  0.00    +0.000 NA
ATOM     21  C2  UNL     1      27.221  -8.627 -36.020  0.00  0.00    +0.000 C 
BRANCH  21  22
ATOM     22  C3  UNL     1      26.244  -8.158 -35.015  0.00  0.00    +0.000 A 
ATOM     23  C4  UNL     1      25.028  -8.856 -34.913  0.00  0.00    +0.000 A 
ATOM     24  C5  UNL     1      24.026  -8.425 -34.039  0.00  0.00    +0.000 A 
ATOM     25  C6  UNL     1      24.232  -7.289 -33.251  0.00  0.00    +0.000 A 
ATOM     26  C7  UNL     1      25.445  -6.601 -33.321  0.00  0.00    +0.000 A 
ATOM     27  C8  UNL     1      26.465  -7.035 -34.176  0.00  0.00    +0.000 A 
BRANCH  24  28
ATOM     28  O2  UNL     1      22.826  -9.129 -33.969  0.00  0.00    +0.000 OA
ATOM     29  H4  UNL     1      22.702  -9.902 -33.325  0.00  0.00    +0.000 HD
ENDBRANCH  24  28
BRANCH  27  30
ATOM     30  O3  UNL     1      27.682  -6.351 -34.131  0.00  0.00    +0.000 OA
ATOM     31  H7  UNL     1      27.939  -5.626 -34.786  0.00  0.00    +0.000 HD
ENDBRANCH  27  30
ENDBRANCH  21  22
ENDBRANCH   3  20
TORSDOF 6
ENDMDL
MODEL 4
REMARK VINA RESULT:    -6.141      5.652      8.322
REMARK INTER + INTRA:          -8.592
REMARK INTER:                  -7.939
REMARK INTRA:                  -0.653
REMARK UNBOUND:                -0.656
REMARK  Name = resultss/4CJN/ligands/lig_185_t0.pdb
REMARK  6 active torsions:
REMARK  status: ('A' for Active; 'I' for Inactive)
REMARK    1  A    between atoms: C1_2  and  C9_14
REMARK    2  A    between atoms: N1_3  and  N2_4
REMARK    3  A    between atoms: C2_5  and  C3_6
REMARK    4  A    between atoms: C5_8  and  O2_9
REMARK    5  A    between atoms: C8_12  and  O3_13
REMARK    6  A    between atoms: C12_17  and  C13_18
REMARK                            x       y       z     vdW  Elec       q    Type
REMARK                         _______ _______ _______ _____ _____    ______ ____
ROOT
ATOM      1  O1  UNL     1      24.449 -10.083 -42.693  0.00  0.00    +0.000 OA
ATOM      2  C1  UNL     1      25.322  -9.200 -42.476  0.00  0.00    +0.000 C 
ATOM      3  N1  UNL     1      25.500  -8.144 -43.428  0.00  0.00    +0.000 N 
ATOM      4  H1  UNL     1      26.322  -7.503 -43.355  0.00  0.00    +0.000 HD
ENDROOT
BRANCH   2   5
ATOM      5  C9  UNL     1      26.156  -9.284 -41.252  0.00  0.00    +0.000 A 
ATOM      6  C10 UNL     1      25.767  -8.597 -40.090  0.00  0.00    +0.000 A 
ATOM      7  C11 UNL     1      26.545  -8.663 -38.930  0.00  0.00    +0.000 A 
ATOM      8  C12 UNL     1      27.734  -9.410 -38.908  0.00  0.00    +0.000 A 
ATOM      9  C20 UNL     1      28.131 -10.086 -40.075  0.00  0.00    +0.000 A 
ATOM     10  C21 UNL     1      27.353 -10.022 -41.235  0.00  0.00    +0.000 A 
BRANCH   8  11
ATOM     11  C13 UNL     1      28.551  -9.473 -37.674  0.00  0.00    +0.000 A 
ATOM     12  N3  UNL     1      28.015  -9.630 -36.436  0.00  0.00    +0.000 NA
ATOM     13  C14 UNL     1      28.976  -9.657 -35.478  0.00  0.00    +0.000 A 
ATOM     14  C15 UNL     1      28.725  -9.806 -34.112  0.00  0.00    +0.000 A 
ATOM     15  C16 UNL     1      29.816  -9.817 -33.224  0.00  0.00    +0.000 A 
ATOM     16  C17 UNL     1      31.132  -9.680 -33.706  0.00  0.00    +0.000 A 
ATOM     17  C18 UNL     1      31.371  -9.530 -35.082  0.00  0.00    +0.000 A 
ATOM     18  C19 UNL     1      30.274  -9.522 -35.940  0.00  0.00    +0.000 A 
ATOM     19  S1  UNL     1      30.246  -9.362 -37.608  0.00  0.00    +0.000 S 
ENDBRANCH   8  11
ENDBRANCH   2   5
BRANCH   3  20
ATOM     20  N2  UNL     1      24.610  -8.016 -44.507  0.00  0.00    +0.000 NA
ATOM     21  C2  UNL     1      23.663  -7.131 -44.511  0.00  0.00    +0.000 C 
BRANCH  21  22
ATOM     22  C3  UNL     1      22.691  -7.053 -45.621  0.00  0.00    +0.000 A 
ATOM     23  C4  UNL     1      21.395  -6.600 -45.322  0.00  0.00    +0.000 A 
ATOM     24  C5  UNL     1      20.401  -6.572 -46.304  0.00  0.00    +0.000 A 
ATOM     25  C6  UNL     1      20.696  -6.993 -47.604  0.00  0.00    +0.000 A 
ATOM     26  C7  UNL     1      21.986  -7.420 -47.924  0.00  0.00    +0.000 A 
ATOM     27  C8  UNL     1      22.996  -7.432 -46.954  0.00  0.00    +0.000 A 
BRANCH  24  28
ATOM     28  O2  UNL     1      19.122  -6.130 -45.975  0.00  0.00    +0.000 OA
ATOM     29  H4  UNL     1      18.391  -6.052 -46.674  0.00  0.00    +0.000 HD
ENDBRANCH  24  28
BRANCH  27  30
ATOM     30  O3  UNL     1      24.283  -7.789 -47.365  0.00  0.00    +0.000 OA
ATOM     31  H7  UNL     1      24.800  -8.562 -46.971  0.00  0.00    +0.000 HD
ENDBRANCH  27  30
ENDBRANCH  21  22
ENDBRANCH   3  20
TORSDOF 6
ENDMDL
MODEL 5
REMARK VINA RESULT:    -5.903      6.861     11.615
REMARK INTER + INTRA:          -8.285
REMARK INTER:                  -7.633
REMARK INTRA:                  -0.651
REMARK UNBOUND:                -0.656
REMARK  Name = resultss/4CJN/ligands/lig_185_t0.pdb
REMARK  6 active torsions:
REMARK  status: ('A' for Active; 'I' for Inactive)
REMARK    1  A    between atoms: C1_2  and  C9_14
REMARK    2  A    between atoms: N1_3  and  N2_4
REMARK    3  A    between atoms: C2_5  and  C3_6
REMARK    4  A    between atoms: C5_8  and  O2_9
REMARK    5  A    between atoms: C8_12  and  O3_13
REMARK    6  A    between atoms: C12_17  and  C13_18
REMARK                            x       y       z     vdW  Elec       q    Type
REMARK                         _______ _______ _______ _____ _____    ______ ____
ROOT
ATOM      1  O1  UNL     1      26.399  -8.055 -40.398  0.00  0.00    +0.000 OA
ATOM      2  C1  UNL     1      25.138  -8.061 -40.411  0.00  0.00    +0.000 C 
ATOM      3  N1  UNL     1      24.428  -8.305 -39.189  0.00  0.00    +0.000 N 
ATOM      4  H1  UNL     1      23.398  -8.481 -39.205  0.00  0.00    +0.000 HD
ENDROOT
BRANCH   2   5
ATOM      5  C9  UNL     1      24.419  -7.834 -41.688  0.00  0.00    +0.000 A 
ATOM      6  C10 UNL     1      23.058  -7.488 -41.675  0.00  0.00    +0.000 A 
ATOM      7  C11 UNL     1      22.366  -7.275 -42.871  0.00  0.00    +0.000 A 
ATOM      8  C12 UNL     1      23.017  -7.413 -44.109  0.00  0.00    +0.000 A 
ATOM      9  C20 UNL     1      24.376  -7.773 -44.122  0.00  0.00    +0.000 A 
ATOM     10  C21 UNL     1      25.069  -7.984 -42.926  0.00  0.00    +0.000 A 
BRANCH   8  11
ATOM     11  C13 UNL     1      22.275  -7.186 -45.370  0.00  0.00    +0.000 A 
ATOM     12  N3  UNL     1      20.920  -7.121 -45.433  0.00  0.00    +0.000 NA
ATOM     13  C14 UNL     1      20.491  -6.904 -46.702  0.00  0.00    +0.000 A 
ATOM     14  C15 UNL     1      19.149  -6.792 -47.073  0.00  0.00    +0.000 A 
ATOM     15  C16 UNL     1      18.841  -6.568 -48.427  0.00  0.00    +0.000 A 
ATOM     16  C17 UNL     1      19.868  -6.460 -49.385  0.00  0.00    +0.000 A 
ATOM     17  C18 UNL     1      21.213  -6.575 -48.999  0.00  0.00    +0.000 A 
ATOM     18  C19 UNL     1      21.491  -6.797 -47.653  0.00  0.00    +0.000 A 
ATOM     19  S1  UNL     1      22.979  -6.975 -46.903  0.00  0.00    +0.000 S 
ENDBRANCH   8  11
ENDBRANCH   2   5
BRANCH   3  20
ATOM     20  N2  UNL     1      25.130  -8.383 -37.975  0.00  0.00    +0.000 NA
ATOM     21  C2  UNL     1      24.553  -8.165 -36.836  0.00  0.00    +0.000 C 
BRANCH  21  22
ATOM     22  C3  UNL     1      25.319  -8.183 -35.572  0.00  0.00    +0.000 A 
ATOM     23  C4  UNL     1      24.936  -7.281 -34.565  0.00  0.00    +0.000 A 
ATOM     24  C5  UNL     1      25.660  -7.189 -33.372  0.00  0.00    +0.000 A 
ATOM     25  C6  UNL     1      26.777  -8.005 -33.173  0.00  0.00    +0.000 A 
ATOM     26  C7  UNL     1      27.154  -8.924 -34.152  0.00  0.00    +0.000 A 
ATOM     27  C8  UNL     1      26.425  -9.042 -35.342  0.00  0.00    +0.000 A 
BRANCH  24  28
ATOM     28  O2  UNL     1      25.264  -6.276 -32.397  0.00  0.00    +0.000 OA
ATOM     29  H4  UNL     1      25.919  -5.621 -31.986  0.00  0.00    +0.000 HD
ENDBRANCH  24  28
BRANCH  27  30
ATOM     30  O3  UNL     1      26.807 -10.042 -36.239  0.00  0.00    +0.000 OA
ATOM     31  H7  UNL     1      26.731 -11.030 -36.040  0.00  0.00    +0.000 HD
ENDBRANCH  27  30
ENDBRANCH  21  22
ENDBRANCH   3  20
TORSDOF 6
ENDMDL
MODEL 6
REMARK VINA RESULT:    -5.601      6.559     10.425
REMARK INTER + INTRA:          -7.894
REMARK INTER:                  -7.424
REMARK INTRA:                  -0.470
REMARK UNBOUND:                -0.656
REMARK  Name = resultss/4CJN/ligands/lig_185_t0.pdb
REMARK  6 active torsions:
REMARK  status: ('A' for Active; 'I' for Inactive)
REMARK    1  A    between atoms: C1_2  and  C9_14
REMARK    2  A    between atoms: N1_3  and  N2_4
REMARK    3  A    between atoms: C2_5  and  C3_6
REMARK    4  A    between atoms: C5_8  and  O2_9
REMARK    5  A    between atoms: C8_12  and  O3_13
REMARK    6  A    between atoms: C12_17  and  C13_18
REMARK                            x       y       z     vdW  Elec       q    Type
REMARK                         _______ _______ _______ _____ _____    ______ ____
ROOT
ATOM      1  O1  UNL     1      27.046  -7.517 -40.161  0.00  0.00    +0.000 OA
ATOM      2  C1  UNL     1      25.875  -7.977 -40.239  0.00  0.00    +0.000 C 
ATOM      3  N1  UNL     1      25.329  -8.692 -39.123  0.00  0.00    +0.000 N 
ATOM      4  H1  UNL     1      24.435  -9.222 -39.224  0.00  0.00    +0.000 HD
ENDROOT
BRANCH   2   5
ATOM      5  C9  UNL     1      25.097  -7.786 -41.488  0.00  0.00    +0.000 A 
ATOM      6  C10 UNL     1      23.876  -7.093 -41.454  0.00  0.00    +0.000 A 
ATOM      7  C11 UNL     1      23.129  -6.908 -42.621  0.00  0.00    +0.000 A 
ATOM      8  C12 UNL     1      23.583  -7.420 -43.849  0.00  0.00    +0.000 A 
ATOM      9  C20 UNL     1      24.799  -8.126 -43.880  0.00  0.00    +0.000 A 
ATOM     10  C21 UNL     1      25.546  -8.309 -42.713  0.00  0.00    +0.000 A 
BRANCH   8  11
ATOM     11  C13 UNL     1      22.785  -7.219 -45.080  0.00  0.00    +0.000 A 
ATOM     12  N3  UNL     1      21.428  -7.145 -45.081  0.00  0.00    +0.000 NA
ATOM     13  C14 UNL     1      20.943  -6.958 -46.334  0.00  0.00    +0.000 A 
ATOM     14  C15 UNL     1      19.586  -6.844 -46.646  0.00  0.00    +0.000 A 
ATOM     15  C16 UNL     1      19.217  -6.651 -47.990  0.00  0.00    +0.000 A 
ATOM     16  C17 UNL     1      20.199  -6.577 -48.997  0.00  0.00    +0.000 A 
ATOM     17  C18 UNL     1      21.560  -6.693 -48.671  0.00  0.00    +0.000 A 
ATOM     18  C19 UNL     1      21.899  -6.883 -47.333  0.00  0.00    +0.000 A 
ATOM     19  S1  UNL     1      23.418  -7.054 -46.648  0.00  0.00    +0.000 S 
ENDBRANCH   8  11
ENDBRANCH   2   5
BRANCH   3  20
ATOM     20  N2  UNL     1      26.036  -8.741 -37.910  0.00  0.00    +0.000 NA
ATOM     21  C2  UNL     1      27.063  -9.514 -37.748  0.00  0.00    +0.000 C 
BRANCH  21  22
ATOM     22  C3  UNL     1      27.756  -9.607 -36.446  0.00  0.00    +0.000 A 
ATOM     23  C4  UNL     1      29.151  -9.441 -36.436  0.00  0.00    +0.000 A 
ATOM     24  C5  UNL     1      29.883  -9.590 -35.254  0.00  0.00    +0.000 A 
ATOM     25  C6  UNL     1      29.222  -9.905 -34.063  0.00  0.00    +0.000 A 
ATOM     26  C7  UNL     1      27.833 -10.047 -34.051  0.00  0.00    +0.000 A 
ATOM     27  C8  UNL     1      27.087  -9.878 -35.223  0.00  0.00    +0.000 A 
BRANCH  24  28
ATOM     28  O2  UNL     1      31.266  -9.432 -35.278  0.00  0.00    +0.000 OA
ATOM     29  H4  UNL     1      31.756  -9.172 -36.127  0.00  0.00    +0.000 HD
ENDBRANCH  24  28
BRANCH  27  30
ATOM     30  O3  UNL     1      25.696  -9.949 -35.121  0.00  0.00    +0.000 OA
ATOM     31  H7  UNL     1      25.136 -10.642 -35.596  0.00  0.00    +0.000 HD
ENDBRANCH  27  30
ENDBRANCH  21  22
ENDBRANCH   3  20
TORSDOF 6
ENDMDL
MODEL 7
REMARK VINA RESULT:    -5.600      6.128     10.635
REMARK INTER + INTRA:          -7.893
REMARK INTER:                  -7.224
REMARK INTRA:                  -0.668
REMARK UNBOUND:                -0.656
REMARK  Name = resultss/4CJN/ligands/lig_185_t0.pdb
REMARK  6 active torsions:
REMARK  status: ('A' for Active; 'I' for Inactive)
REMARK    1  A    between atoms: C1_2  and  C9_14
REMARK    2  A    between atoms: N1_3  and  N2_4
REMARK    3  A    between atoms: C2_5  and  C3_6
REMARK    4  A    between atoms: C5_8  and  O2_9
REMARK    5  A    between atoms: C8_12  and  O3_13
REMARK    6  A    between atoms: C12_17  and  C13_18
REMARK                            x       y       z     vdW  Elec       q    Type
REMARK                         _______ _______ _______ _____ _____    ______ ____
ROOT
ATOM      1  O1  UNL     1      27.371  -9.964 -39.363  0.00  0.00    +0.000 OA
ATOM      2  C1  UNL     1      26.364  -9.206 -39.311  0.00  0.00    +0.000 C 
ATOM      3  N1  UNL     1      25.876  -8.780 -38.032  0.00  0.00    +0.000 N 
ATOM      4  H1  UNL     1      24.954  -8.294 -37.956  0.00  0.00    +0.000 HD
ENDROOT
BRANCH   2   5
ATOM      5  C9  UNL     1      25.699  -8.788 -40.569  0.00  0.00    +0.000 A 
ATOM      6  C10 UNL     1      26.019  -9.429 -41.778  0.00  0.00    +0.000 A 
ATOM      7  C11 UNL     1      25.404  -9.042 -42.972  0.00  0.00    +0.000 A 
ATOM      8  C12 UNL     1      24.460  -8.001 -42.987  0.00  0.00    +0.000 A 
ATOM      9  C20 UNL     1      24.150  -7.351 -41.779  0.00  0.00    +0.000 A 
ATOM     10  C21 UNL     1      24.765  -7.737 -40.584  0.00  0.00    +0.000 A 
BRANCH   8  11
ATOM     11  C13 UNL     1      23.814  -7.599 -44.258  0.00  0.00    +0.000 A 
ATOM     12  N3  UNL     1      22.477  -7.392 -44.378  0.00  0.00    +0.000 NA
ATOM     13  C14 UNL     1      22.142  -7.033 -45.643  0.00  0.00    +0.000 A 
ATOM     14  C15 UNL     1      20.841  -6.756 -46.066  0.00  0.00    +0.000 A 
ATOM     15  C16 UNL     1      20.631  -6.394 -47.409  0.00  0.00    +0.000 A 
ATOM     16  C17 UNL     1      21.715  -6.315 -48.306  0.00  0.00    +0.000 A 
ATOM     17  C18 UNL     1      23.019  -6.596 -47.868  0.00  0.00    +0.000 A 
ATOM     18  C19 UNL     1      23.199  -6.952 -46.534  0.00  0.00    +0.000 A 
ATOM     19  S1  UNL     1      24.619  -7.340 -45.732  0.00  0.00    +0.000 S 
ENDBRANCH   8  11
ENDBRANCH   2   5
BRANCH   3  20
ATOM     20  N2  UNL     1      26.603  -9.082 -36.869  0.00  0.00    +0.000 NA
ATOM     21  C2  UNL     1      26.844  -8.189 -35.961  0.00  0.00    +0.000 C 
BRANCH  21  22
ATOM     22  C3  UNL     1      27.668  -8.502 -34.776  0.00  0.00    +0.000 A 
ATOM     23  C4  UNL     1      27.285  -7.938 -33.547  0.00  0.00    +0.000 A 
ATOM     24  C5  UNL     1      28.059  -8.128 -32.399  0.00  0.00    +0.000 A 
ATOM     25  C6  UNL     1      29.227  -8.893 -32.467  0.00  0.00    +0.000 A 
ATOM     26  C7  UNL     1      29.606  -9.483 -33.673  0.00  0.00    +0.000 A 
ATOM     27  C8  UNL     1      28.829  -9.318 -34.825  0.00  0.00    +0.000 A 
BRANCH  24  28
ATOM     28  O2  UNL     1      27.661  -7.545 -31.198  0.00  0.00    +0.000 OA
ATOM     29  H4  UNL     1      28.328  -7.100 -30.578  0.00  0.00    +0.000 HD
ENDBRANCH  24  28
BRANCH  27  30
ATOM     30  O3  UNL     1      29.221 -10.007 -35.975  0.00  0.00    +0.000 OA
ATOM     31  H7  UNL     1      28.628 -10.662 -36.464  0.00  0.00    +0.000 HD
ENDBRANCH  27  30
ENDBRANCH  21  22
ENDBRANCH   3  20
TORSDOF 6
ENDMDL
MODEL 8
REMARK VINA RESULT:    -5.505      5.883     10.367
REMARK INTER + INTRA:          -7.770
REMARK INTER:                  -7.111
REMARK INTRA:                  -0.659
REMARK UNBOUND:                -0.656
REMARK  Name = resultss/4CJN/ligands/lig_185_t0.pdb
REMARK  6 active torsions:
REMARK  status: ('A' for Active; 'I' for Inactive)
REMARK    1  A    between atoms: C1_2  and  C9_14
REMARK    2  A    between atoms: N1_3  and  N2_4
REMARK    3  A    between atoms: C2_5  and  C3_6
REMARK    4  A    between atoms: C5_8  and  O2_9
REMARK    5  A    between atoms: C8_12  and  O3_13
REMARK    6  A    between atoms: C12_17  and  C13_18
REMARK                            x       y       z     vdW  Elec       q    Type
REMARK                         _______ _______ _______ _____ _____    ______ ____
ROOT
ATOM      1  O1  UNL     1      27.736 -10.373 -38.774  0.00  0.00    +0.000 OA
ATOM      2  C1  UNL     1      27.642  -9.146 -39.050  0.00  0.00    +0.000 C 
ATOM      3  N1  UNL     1      27.825  -8.180 -38.007  0.00  0.00    +0.000 N 
ATOM      4  H1  UNL     1      27.588  -7.175 -38.173  0.00  0.00    +0.000 HD
ENDROOT
BRANCH   2   5
ATOM      5  C9  UNL     1      27.328  -8.732 -40.439  0.00  0.00    +0.000 A 
ATOM      6  C10 UNL     1      27.047  -7.385 -40.723  0.00  0.00    +0.000 A 
ATOM      7  C11 UNL     1      26.744  -6.980 -42.026  0.00  0.00    +0.000 A 
ATOM      8  C12 UNL     1      26.707  -7.915 -43.075  0.00  0.00    +0.000 A 
ATOM      9  C20 UNL     1      26.974  -9.265 -42.788  0.00  0.00    +0.000 A 
ATOM     10  C21 UNL     1      27.278  -9.670 -41.485  0.00  0.00    +0.000 A 
BRANCH   8  11
ATOM     11  C13 UNL     1      26.385  -7.476 -44.452  0.00  0.00    +0.000 A 
ATOM     12  N3  UNL     1      27.334  -7.197 -45.383  0.00  0.00    +0.000 NA
ATOM     13  C14 UNL     1      26.777  -6.817 -46.561  0.00  0.00    +0.000 A 
ATOM     14  C15 UNL     1      27.504  -6.469 -47.701  0.00  0.00    +0.000 A 
ATOM     15  C16 UNL     1      26.801  -6.093 -48.861  0.00  0.00    +0.000 A 
ATOM     16  C17 UNL     1      25.393  -6.070 -48.866  0.00  0.00    +0.000 A 
ATOM     17  C18 UNL     1      24.673  -6.423 -47.713  0.00  0.00    +0.000 A 
ATOM     18  C19 UNL     1      25.393  -6.790 -46.579  0.00  0.00    +0.000 A 
ATOM     19  S1  UNL     1      24.819  -7.255 -45.074  0.00  0.00    +0.000 S 
ENDBRANCH   8  11
ENDBRANCH   2   5
BRANCH   3  20
ATOM     20  N2  UNL     1      28.252  -8.594 -36.735  0.00  0.00    +0.000 NA
ATOM     21  C2  UNL     1      29.378  -8.199 -36.229  0.00  0.00    +0.000 C 
BRANCH  21  22
ATOM     22  C3  UNL     1      29.847  -8.697 -34.919  0.00  0.00    +0.000 A 
ATOM     23  C4  UNL     1      31.141  -9.240 -34.853  0.00  0.00    +0.000 A 
ATOM     24  C5  UNL     1      31.625  -9.800 -33.667  0.00  0.00    +0.000 A 
ATOM     25  C6  UNL     1      30.816  -9.817 -32.527  0.00  0.00    +0.000 A 
ATOM     26  C7  UNL     1      29.538  -9.257 -32.568  0.00  0.00    +0.000 A 
ATOM     27  C8  UNL     1      29.051  -8.674 -33.744  0.00  0.00    +0.000 A 
BRANCH  24  28
ATOM     28  O2  UNL     1      32.907 -10.342 -33.636  0.00  0.00    +0.000 OA
ATOM     29  H4  UNL     1      33.428 -10.523 -34.487  0.00  0.00    +0.000 HD
ENDBRANCH  24  28
BRANCH  27  30
ATOM     30  O3  UNL     1      27.799  -8.057 -33.690  0.00  0.00    +0.000 OA
ATOM     31  H7  UNL     1      26.981  -8.411 -34.165  0.00  0.00    +0.000 HD
ENDBRANCH  27  30
ENDBRANCH  21  22
ENDBRANCH   3  20
TORSDOF 6
ENDMDL
MODEL 9
REMARK VINA RESULT:    -5.421      5.739      7.361
REMARK INTER + INTRA:          -7.662
REMARK INTER:                  -7.037
REMARK INTRA:                  -0.625
REMARK UNBOUND:                -0.656
REMARK  Name = resultss/4CJN/ligands/lig_185_t0.pdb
REMARK  6 active torsions:
REMARK  status: ('A' for Active; 'I' for Inactive)
REMARK    1  A    between atoms: C1_2  and  C9_14
REMARK    2  A    between atoms: N1_3  and  N2_4
REMARK    3  A    between atoms: C2_5  and  C3_6
REMARK    4  A    between atoms: C5_8  and  O2_9
REMARK    5  A    between atoms: C8_12  and  O3_13
REMARK    6  A    between atoms: C12_17  and  C13_18
REMARK                            x       y       z     vdW  Elec       q    Type
REMARK                         _______ _______ _______ _____ _____    ______ ____
ROOT
ATOM      1  O1  UNL     1      27.077 -10.009 -42.379  0.00  0.00    +0.000 OA
ATOM      2  C1  UNL     1      26.933  -9.064 -41.556  0.00  0.00    +0.000 C 
ATOM      3  N1  UNL     1      26.161  -7.918 -41.938  0.00  0.00    +0.000 N 
ATOM      4  H1  UNL     1      26.167  -7.058 -41.343  0.00  0.00    +0.000 HD
ENDROOT
BRANCH   2   5
ATOM      5  C9  UNL     1      27.578  -9.151 -40.224  0.00  0.00    +0.000 A 
ATOM      6  C10 UNL     1      27.276 -10.222 -39.367  0.00  0.00    +0.000 A 
ATOM      7  C11 UNL     1      27.873 -10.315 -38.106  0.00  0.00    +0.000 A 
ATOM      8  C12 UNL     1      28.780  -9.335 -37.670  0.00  0.00    +0.000 A 
ATOM      9  C20 UNL     1      29.072  -8.255 -38.522  0.00  0.00    +0.000 A 
ATOM     10  C21 UNL     1      28.476  -8.162 -39.783  0.00  0.00    +0.000 A 
BRANCH   8  11
ATOM     11  C13 UNL     1      29.406  -9.443 -36.332  0.00  0.00    +0.000 A 
ATOM     12  N3  UNL     1      30.748  -9.372 -36.133  0.00  0.00    +0.000 NA
ATOM     13  C14 UNL     1      31.063  -9.499 -34.819  0.00  0.00    +0.000 A 
ATOM     14  C15 UNL     1      32.363  -9.466 -34.312  0.00  0.00    +0.000 A 
ATOM     15  C16 UNL     1      32.551  -9.609 -32.925  0.00  0.00    +0.000 A 
ATOM     16  C17 UNL     1      31.445  -9.784 -32.069  0.00  0.00    +0.000 A 
ATOM     17  C18 UNL     1      30.142  -9.815 -32.591  0.00  0.00    +0.000 A 
ATOM     18  C19 UNL     1      29.984  -9.671 -33.967  0.00  0.00    +0.000 A 
ATOM     19  S1  UNL     1      28.571  -9.667 -34.869  0.00  0.00    +0.000 S 
ENDBRANCH   8  11
ENDBRANCH   2   5
BRANCH   3  20
ATOM     20  N2  UNL     1      25.453  -7.922 -43.151  0.00  0.00    +0.000 NA
ATOM     21  C2  UNL     1      25.861  -7.253 -44.183  0.00  0.00    +0.000 C 
BRANCH  21  22
ATOM     22  C3  UNL     1      25.071  -7.211 -45.431  0.00  0.00    +0.000 A 
ATOM     23  C4  UNL     1      25.765  -6.996 -46.634  0.00  0.00    +0.000 A 
ATOM     24  C5  UNL     1      25.078  -6.869 -47.845  0.00  0.00    +0.000 A 
ATOM     25  C6  UNL     1      23.683  -6.961 -47.865  0.00  0.00    +0.000 A 
ATOM     26  C7  UNL     1      22.981  -7.202 -46.683  0.00  0.00    +0.000 A 
ATOM     27  C8  UNL     1      23.660  -7.353 -45.467  0.00  0.00    +0.000 A 
BRANCH  24  28
ATOM     28  O2  UNL     1      25.791  -6.643 -49.020  0.00  0.00    +0.000 OA
ATOM     29  H4  UNL     1      26.242  -7.401 -49.521  0.00  0.00    +0.000 HD
ENDBRANCH  24  28
BRANCH  27  30
ATOM     30  O3  UNL     1      22.902  -7.678 -44.339  0.00  0.00    +0.000 OA
ATOM     31  H7  UNL     1      22.792  -7.063 -43.545  0.00  0.00    +0.000 HD
ENDBRANCH  27  30
ENDBRANCH  21  22
ENDBRANCH   3  20
TORSDOF 6
ENDMDL
