MODEL 1
REMARK VINA RESULT:    -5.501      0.000      0.000
REMARK INTER + INTRA:          -5.823
REMARK INTER:                  -5.823
REMARK INTRA:                   0.000
REMARK UNBOUND:                 0.000
REMARK  Name = resultss/4CJN/ligands/lig_318_t1.pdb
REMARK  2 active torsions:
REMARK  status: ('A' for Active; 'I' for Inactive)
REMARK    1  A    between atoms: C11_15  and  O5_16
REMARK    2  A    between atoms: C12_17  and  O6_18
REMARK                            x       y       z     vdW  Elec       q    Type
REMARK                         _______ _______ _______ _____ _____    ______ ____
ROOT
ATOM      1  O1  UNL     1      27.432  -9.025 -34.466  0.00  0.00    +0.000 OA
ATOM      2  C1  UNL     1      26.561  -8.889 -35.366  0.00  0.00    +0.000 A 
ATOM      3  C2  UNL     1      26.898  -9.185 -36.705  0.00  0.00    +0.000 A 
ATOM      4  C3  UNL     1      28.225  -9.756 -37.085  0.00  0.00    +0.000 C 
ATOM      5  O2  UNL     1      29.094 -10.004 -36.206  0.00  0.00    +0.000 OA
ATOM      6  C4  UNL     1      28.580 -10.013 -38.521  0.00  0.00    +0.000 C 
ATOM      7  C5  UNL     1      27.343 -10.153 -39.355  0.00  0.00    +0.000 C 
ATOM      8  O3  UNL     1      27.296 -10.987 -40.246  0.00  0.00    +0.000 OA
ATOM      9  C6  UNL     1      26.209  -9.190 -39.163  0.00  0.00    +0.000 C 
ATOM     10  C7  UNL     1      25.935  -8.934 -37.706  0.00  0.00    +0.000 A 
ATOM     11  O4  UNL     1      24.759  -8.412 -37.385  0.00  0.00    +0.000 OA
ATOM     12  C8  UNL     1      24.399  -8.133 -36.140  0.00  0.00    +0.000 A 
ATOM     13  C9  UNL     1      23.146  -7.557 -35.922  0.00  0.00    +0.000 A 
ATOM     14  C10 UNL     1      22.738  -7.228 -34.635  0.00  0.00    +0.000 A 
ATOM     15  C11 UNL     1      23.555  -7.509 -33.541  0.00  0.00    +0.000 A 
ATOM     16  C12 UNL     1      24.807  -8.129 -33.728  0.00  0.00    +0.000 A 
ATOM     17  C13 UNL     1      25.268  -8.401 -35.052  0.00  0.00    +0.000 A 
ENDROOT
BRANCH  15  18
ATOM     18  O5  UNL     1      23.095  -7.183 -32.264  0.00  0.00    +0.000 OA
ATOM     19  H7  UNL     1      22.912  -7.885 -31.557  0.00  0.00    +0.000 HD
ENDBRANCH  15  18
BRANCH  16  20
ATOM     20  O6  UNL     1      25.525  -8.480 -32.579  0.00  0.00    +0.000 OA
ATOM     21  H8  UNL     1      26.508  -8.700 -32.565  0.00  0.00    +0.000 HD
ENDBRANCH  16  20
TORSDOF 2
ENDMDL
MODEL 2
REMARK VINA RESULT:    -5.484      2.228      4.212
REMARK INTER + INTRA:          -5.804
REMARK INTER:                  -5.804
REMARK INTRA:                   0.000
REMARK UNBOUND:                 0.000
REMARK  Name = resultss/4CJN/ligands/lig_318_t1.pdb
REMARK  2 active torsions:
REMARK  status: ('A' for Active; 'I' for Inactive)
REMARK    1  A    between atoms: C11_15  and  O5_16
REMARK    2  A    between atoms: C12_17  and  O6_18
REMARK                            x       y       z     vdW  Elec       q    Type
REMARK                         _______ _______ _______ _____ _____    ______ ____
ROOT
ATOM      1  O1  UNL     1      26.166  -9.501 -36.530  0.00  0.00    +0.000 OA
ATOM      2  C1  UNL     1      26.070  -8.839 -35.464  0.00  0.00    +0.000 A 
ATOM      3  C2  UNL     1      27.120  -8.891 -34.519  0.00  0.00    +0.000 A 
ATOM      4  C3  UNL     1      28.393  -9.627 -34.785  0.00  0.00    +0.000 C 
ATOM      5  O2  UNL     1      28.576 -10.223 -35.881  0.00  0.00    +0.000 OA
ATOM      6  C4  UNL     1      29.472  -9.713 -33.744  0.00  0.00    +0.000 C 
ATOM      7  C5  UNL     1      29.346  -8.595 -32.755  0.00  0.00    +0.000 C 
ATOM      8  O3  UNL     1      30.346  -8.040 -32.327  0.00  0.00    +0.000 OA
ATOM      9  C6  UNL     1      27.994  -8.238 -32.213  0.00  0.00    +0.000 C 
ATOM     10  C7  UNL     1      26.947  -8.217 -33.293  0.00  0.00    +0.000 A 
ATOM     11  O4  UNL     1      25.815  -7.575 -33.038  0.00  0.00    +0.000 OA
ATOM     12  C8  UNL     1      24.813  -7.489 -33.901  0.00  0.00    +0.000 A 
ATOM     13  C9  UNL     1      23.655  -6.812 -33.513  0.00  0.00    +0.000 A 
ATOM     14  C10 UNL     1      22.572  -6.718 -34.379  0.00  0.00    +0.000 A 
ATOM     15  C11 UNL     1      22.644  -7.260 -35.661  0.00  0.00    +0.000 A 
ATOM     16  C12 UNL     1      23.816  -7.913 -36.094  0.00  0.00    +0.000 A 
ATOM     17  C13 UNL     1      24.905  -8.081 -35.186  0.00  0.00    +0.000 A 
ENDROOT
BRANCH  15  18
ATOM     18  O5  UNL     1      21.541  -7.122 -36.506  0.00  0.00    +0.000 OA
ATOM     19  H7  UNL     1      21.023  -6.254 -36.585  0.00  0.00    +0.000 HD
ENDBRANCH  15  18
BRANCH  16  20
ATOM     20  O6  UNL     1      23.857  -8.335 -37.428  0.00  0.00    +0.000 OA
ATOM     21  H8  UNL     1      23.489  -7.810 -38.205  0.00  0.00    +0.000 HD
ENDBRANCH  16  20
TORSDOF 2
ENDMDL
MODEL 3
REMARK VINA RESULT:    -5.473      2.222      5.888
REMARK INTER + INTRA:          -5.793
REMARK INTER:                  -5.793
REMARK INTRA:                   0.000
REMARK UNBOUND:                 0.000
REMARK  Name = resultss/4CJN/ligands/lig_318_t1.pdb
REMARK  2 active torsions:
REMARK  status: ('A' for Active; 'I' for Inactive)
REMARK    1  A    between atoms: C11_15  and  O5_16
REMARK    2  A    between atoms: C12_17  and  O6_18
REMARK                            x       y       z     vdW  Elec       q    Type
REMARK                         _______ _______ _______ _____ _____    ______ ____
ROOT
ATOM      1  O1  UNL     1      24.800  -8.641 -37.565  0.00  0.00    +0.000 OA
ATOM      2  C1  UNL     1      25.967  -9.074 -37.754  0.00  0.00    +0.000 A 
ATOM      3  C2  UNL     1      26.874  -9.115 -36.673  0.00  0.00    +0.000 A 
ATOM      4  C3  UNL     1      26.469  -8.756 -35.280  0.00  0.00    +0.000 C 
ATOM      5  O2  UNL     1      25.283  -8.412 -35.023  0.00  0.00    +0.000 OA
ATOM      6  C4  UNL     1      27.464  -8.755 -34.156  0.00  0.00    +0.000 C 
ATOM      7  C5  UNL     1      28.635  -9.630 -34.484  0.00  0.00    +0.000 C 
ATOM      8  O3  UNL     1      29.142 -10.326 -33.618  0.00  0.00    +0.000 OA
ATOM      9  C6  UNL     1      29.249  -9.562 -35.851  0.00  0.00    +0.000 C 
ATOM     10  C7  UNL     1      28.202  -9.515 -36.931  0.00  0.00    +0.000 A 
ATOM     11  O4  UNL     1      28.579  -9.819 -38.165  0.00  0.00    +0.000 OA
ATOM     12  C8  UNL     1      27.756  -9.809 -39.204  0.00  0.00    +0.000 A 
ATOM     13  C9  UNL     1      28.271 -10.118 -40.465  0.00  0.00    +0.000 A 
ATOM     14  C10 UNL     1      27.448 -10.097 -41.585  0.00  0.00    +0.000 A 
ATOM     15  C11 UNL     1      26.090  -9.809 -41.458  0.00  0.00    +0.000 A 
ATOM     16  C12 UNL     1      25.536  -9.534 -40.192  0.00  0.00    +0.000 A 
ATOM     17  C13 UNL     1      26.387  -9.479 -39.047  0.00  0.00    +0.000 A 
ENDROOT
BRANCH  15  18
ATOM     18  O5  UNL     1      25.297  -9.822 -42.606  0.00  0.00    +0.000 OA
ATOM     19  H7  UNL     1      24.531  -9.173 -42.744  0.00  0.00    +0.000 HD
ENDBRANCH  15  18
BRANCH  16  20
ATOM     20  O6  UNL     1      24.148  -9.362 -40.125  0.00  0.00    +0.000 OA
ATOM     21  H8  UNL     1      23.495 -10.087 -39.875  0.00  0.00    +0.000 HD
ENDBRANCH  16  20
TORSDOF 2
ENDMDL
MODEL 4
REMARK VINA RESULT:    -5.382      1.531      2.438
REMARK INTER + INTRA:          -5.696
REMARK INTER:                  -5.696
REMARK INTRA:                   0.000
REMARK UNBOUND:                 0.000
REMARK  Name = resultss/4CJN/ligands/lig_318_t1.pdb
REMARK  2 active torsions:
REMARK  status: ('A' for Active; 'I' for Inactive)
REMARK    1  A    between atoms: C11_15  and  O5_16
REMARK    2  A    between atoms: C12_17  and  O6_18
REMARK                            x       y       z     vdW  Elec       q    Type
REMARK                         _______ _______ _______ _____ _____    ______ ____
ROOT
ATOM      1  O1  UNL     1      27.671 -10.302 -37.170  0.00  0.00    +0.000 OA
ATOM      2  C1  UNL     1      26.651  -9.670 -37.552  0.00  0.00    +0.000 A 
ATOM      3  C2  UNL     1      26.431  -9.483 -38.935  0.00  0.00    +0.000 A 
ATOM      4  C3  UNL     1      27.315 -10.098 -39.971  0.00  0.00    +0.000 C 
ATOM      5  O2  UNL     1      28.292 -10.822 -39.638  0.00  0.00    +0.000 OA
ATOM      6  C4  UNL     1      27.093  -9.841 -41.434  0.00  0.00    +0.000 C 
ATOM      7  C5  UNL     1      25.679  -9.417 -41.690  0.00  0.00    +0.000 C 
ATOM      8  O3  UNL     1      25.088  -9.818 -42.680  0.00  0.00    +0.000 OA
ATOM      9  C6  UNL     1      25.033  -8.412 -40.782  0.00  0.00    +0.000 C 
ATOM     10  C7  UNL     1      25.333  -8.693 -39.335  0.00  0.00    +0.000 A 
ATOM     11  O4  UNL     1      24.552  -8.127 -38.425  0.00  0.00    +0.000 OA
ATOM     12  C8  UNL     1      24.714  -8.290 -37.120  0.00  0.00    +0.000 A 
ATOM     13  C9  UNL     1      23.848  -7.622 -36.252  0.00  0.00    +0.000 A 
ATOM     14  C10 UNL     1      23.997  -7.746 -34.875  0.00  0.00    +0.000 A 
ATOM     15  C11 UNL     1      24.985  -8.573 -34.344  0.00  0.00    +0.000 A 
ATOM     16  C12 UNL     1      25.847  -9.292 -35.197  0.00  0.00    +0.000 A 
ATOM     17  C13 UNL     1      25.751  -9.112 -36.610  0.00  0.00    +0.000 A 
ENDROOT
BRANCH  15  18
ATOM     18  O5  UNL     1      25.084  -8.686 -32.956  0.00  0.00    +0.000 OA
ATOM     19  H7  UNL     1      24.744  -9.497 -32.452  0.00  0.00    +0.000 HD
ENDBRANCH  15  18
BRANCH  16  20
ATOM     20  O6  UNL     1      26.741 -10.185 -34.597  0.00  0.00    +0.000 OA
ATOM     21  H8  UNL     1      27.538  -9.911 -34.044  0.00  0.00    +0.000 HD
ENDBRANCH  16  20
TORSDOF 2
ENDMDL
MODEL 5
REMARK VINA RESULT:    -5.340      1.296      6.146
REMARK INTER + INTRA:          -5.653
REMARK INTER:                  -5.653
REMARK INTRA:                   0.000
REMARK UNBOUND:                 0.000
REMARK  Name = resultss/4CJN/ligands/lig_318_t1.pdb
REMARK  2 active torsions:
REMARK  status: ('A' for Active; 'I' for Inactive)
REMARK    1  A    between atoms: C11_15  and  O5_16
REMARK    2  A    between atoms: C12_17  and  O6_18
REMARK                            x       y       z     vdW  Elec       q    Type
REMARK                         _______ _______ _______ _____ _____    ______ ____
ROOT
ATOM      1  O1  UNL     1      24.700  -8.374 -37.958  0.00  0.00    +0.000 OA
ATOM      2  C1  UNL     1      25.370  -8.742 -36.957  0.00  0.00    +0.000 A 
ATOM      3  C2  UNL     1      24.852  -8.529 -35.661  0.00  0.00    +0.000 A 
ATOM      4  C3  UNL     1      23.484  -7.973 -35.432  0.00  0.00    +0.000 C 
ATOM      5  O2  UNL     1      22.736  -7.683 -36.405  0.00  0.00    +0.000 OA
ATOM      6  C4  UNL     1      22.975  -7.705 -34.045  0.00  0.00    +0.000 C 
ATOM      7  C5  UNL     1      23.718  -8.530 -33.039  0.00  0.00    +0.000 C 
ATOM      8  O3  UNL     1      23.124  -9.029 -32.096  0.00  0.00    +0.000 OA
ATOM      9  C6  UNL     1      25.210  -8.647 -33.137  0.00  0.00    +0.000 C 
ATOM     10  C7  UNL     1      25.662  -8.863 -34.556  0.00  0.00    +0.000 A 
ATOM     11  O4  UNL     1      26.885  -9.341 -34.745  0.00  0.00    +0.000 OA
ATOM     12  C8  UNL     1      27.402  -9.570 -35.943  0.00  0.00    +0.000 A 
ATOM     13  C9  UNL     1      28.712 -10.047 -36.023  0.00  0.00    +0.000 A 
ATOM     14  C10 UNL     1      29.302 -10.279 -37.260  0.00  0.00    +0.000 A 
ATOM     15  C11 UNL     1      28.579 -10.079 -38.435  0.00  0.00    +0.000 A 
ATOM     16  C12 UNL     1      27.242  -9.638 -38.383  0.00  0.00    +0.000 A 
ATOM     17  C13 UNL     1      26.653  -9.324 -37.120  0.00  0.00    +0.000 A 
ENDROOT
BRANCH  15  18
ATOM     18  O5  UNL     1      29.204 -10.347 -39.654  0.00  0.00    +0.000 OA
ATOM     19  H7  UNL     1      30.023  -9.839 -39.968  0.00  0.00    +0.000 HD
ENDBRANCH  15  18
BRANCH  16  20
ATOM     20  O6  UNL     1      26.545  -9.564 -39.594  0.00  0.00    +0.000 OA
ATOM     21  H8  UNL     1      26.594  -8.788 -40.235  0.00  0.00    +0.000 HD
ENDBRANCH  16  20
TORSDOF 2
ENDMDL
MODEL 6
REMARK VINA RESULT:    -5.254      3.280      6.859
REMARK INTER + INTRA:          -5.561
REMARK INTER:                  -5.561
REMARK INTRA:                   0.000
REMARK UNBOUND:                 0.000
REMARK  Name = resultss/4CJN/ligands/lig_318_t1.pdb
REMARK  2 active torsions:
REMARK  status: ('A' for Active; 'I' for Inactive)
REMARK    1  A    between atoms: C11_15  and  O5_16
REMARK    2  A    between atoms: C12_17  and  O6_18
REMARK                            x       y       z     vdW  Elec       q    Type
REMARK                         _______ _______ _______ _____ _____    ______ ____
ROOT
ATOM      1  O1  UNL     1      26.889 -10.146 -37.586  0.00  0.00    +0.000 OA
ATOM      2  C1  UNL     1      28.139 -10.019 -37.505  0.00  0.00    +0.000 A 
ATOM      3  C2  UNL     1      28.734  -9.822 -36.240  0.00  0.00    +0.000 A 
ATOM      4  C3  UNL     1      27.943  -9.860 -34.973  0.00  0.00    +0.000 C 
ATOM      5  O2  UNL     1      26.702 -10.084 -34.996  0.00  0.00    +0.000 OA
ATOM      6  C4  UNL     1      28.588  -9.594 -33.644  0.00  0.00    +0.000 C 
ATOM      7  C5  UNL     1      30.064  -9.843 -33.712  0.00  0.00    +0.000 C 
ATOM      8  O3  UNL     1      30.640 -10.373 -32.775  0.00  0.00    +0.000 OA
ATOM      9  C6  UNL     1      30.845  -9.338 -34.888  0.00  0.00    +0.000 C 
ATOM     10  C7  UNL     1      30.124  -9.588 -36.186  0.00  0.00    +0.000 A 
ATOM     11  O4  UNL     1      30.836  -9.534 -37.304  0.00  0.00    +0.000 OA
ATOM     12  C8  UNL     1      30.319  -9.728 -38.508  0.00  0.00    +0.000 A 
ATOM     13  C9  UNL     1      31.159  -9.618 -39.619  0.00  0.00    +0.000 A 
ATOM     14  C10 UNL     1      30.654  -9.792 -40.902  0.00  0.00    +0.000 A 
ATOM     15  C11 UNL     1      29.313 -10.121 -41.094  0.00  0.00    +0.000 A 
ATOM     16  C12 UNL     1      28.453 -10.279 -39.990  0.00  0.00    +0.000 A 
ATOM     17  C13 UNL     1      28.944 -10.029 -38.672  0.00  0.00    +0.000 A 
ENDROOT
BRANCH  15  18
ATOM     18  O5  UNL     1      28.854 -10.309 -42.399  0.00  0.00    +0.000 OA
ATOM     19  H7  UNL     1      28.396  -9.574 -42.925  0.00  0.00    +0.000 HD
ENDBRANCH  15  18
BRANCH  16  20
ATOM     20  O6  UNL     1      27.149 -10.717 -40.252  0.00  0.00    +0.000 OA
ATOM     21  H8  UNL     1      26.914 -11.632 -40.603  0.00  0.00    +0.000 HD
ENDBRANCH  16  20
TORSDOF 2
ENDMDL
MODEL 7
REMARK VINA RESULT:    -5.249      1.357      5.731
REMARK INTER + INTRA:          -5.555
REMARK INTER:                  -5.555
REMARK INTRA:                   0.000
REMARK UNBOUND:                 0.000
REMARK  Name = resultss/4CJN/ligands/lig_318_t1.pdb
REMARK  2 active torsions:
REMARK  status: ('A' for Active; 'I' for Inactive)
REMARK    1  A    between atoms: C11_15  and  O5_16
REMARK    2  A    between atoms: C12_17  and  O6_18
REMARK                            x       y       z     vdW  Elec       q    Type
REMARK                         _______ _______ _______ _____ _____    ______ ____
ROOT
ATOM      1  O1  UNL     1      28.025 -10.495 -36.842  0.00  0.00    +0.000 OA
ATOM      2  C1  UNL     1      27.091  -9.768 -37.270  0.00  0.00    +0.000 A 
ATOM      3  C2  UNL     1      26.128  -9.271 -36.364  0.00  0.00    +0.000 A 
ATOM      4  C3  UNL     1      26.233  -9.494 -34.890  0.00  0.00    +0.000 C 
ATOM      5  O2  UNL     1      27.206 -10.132 -34.403  0.00  0.00    +0.000 OA
ATOM      6  C4  UNL     1      25.169  -9.003 -33.952  0.00  0.00    +0.000 C 
ATOM      7  C5  UNL     1      24.391  -7.883 -34.571  0.00  0.00    +0.000 C 
ATOM      8  O3  UNL     1      24.042  -6.930 -33.893  0.00  0.00    +0.000 OA
ATOM      9  C6  UNL     1      23.949  -7.993 -36.001  0.00  0.00    +0.000 C 
ATOM     10  C7  UNL     1      25.041  -8.538 -36.882  0.00  0.00    +0.000 A 
ATOM     11  O4  UNL     1      24.926  -8.348 -38.190  0.00  0.00    +0.000 OA
ATOM     12  C8  UNL     1      25.814  -8.783 -39.071  0.00  0.00    +0.000 A 
ATOM     13  C9  UNL     1      25.576  -8.551 -40.428  0.00  0.00    +0.000 A 
ATOM     14  C10 UNL     1      26.469  -9.010 -41.388  0.00  0.00    +0.000 A 
ATOM     15  C11 UNL     1      27.637  -9.670 -41.007  0.00  0.00    +0.000 A 
ATOM     16  C12 UNL     1      27.923  -9.882 -39.644  0.00  0.00    +0.000 A 
ATOM     17  C13 UNL     1      26.975  -9.481 -38.654  0.00  0.00    +0.000 A 
ENDROOT
BRANCH  15  18
ATOM     18  O5  UNL     1      28.518 -10.093 -42.004  0.00  0.00    +0.000 OA
ATOM     19  H7  UNL     1      28.448  -9.772 -42.962  0.00  0.00    +0.000 HD
ENDBRANCH  15  18
BRANCH  16  20
ATOM     20  O6  UNL     1      29.163 -10.452 -39.332  0.00  0.00    +0.000 OA
ATOM     21  H8  UNL     1      29.418 -11.407 -39.530  0.00  0.00    +0.000 HD
ENDBRANCH  16  20
TORSDOF 2
ENDMDL
MODEL 8
REMARK VINA RESULT:    -5.208      2.591      6.344
REMARK INTER + INTRA:          -5.512
REMARK INTER:                  -5.512
REMARK INTRA:                   0.000
REMARK UNBOUND:                 0.000
REMARK  Name = resultss/4CJN/ligands/lig_318_t1.pdb
REMARK  2 active torsions:
REMARK  status: ('A' for Active; 'I' for Inactive)
REMARK    1  A    between atoms: C11_15  and  O5_16
REMARK    2  A    between atoms: C12_17  and  O6_18
REMARK                            x       y       z     vdW  Elec       q    Type
REMARK                         _______ _______ _______ _____ _____    ______ ____
ROOT
ATOM      1  O1  UNL     1      30.975 -10.038 -37.421  0.00  0.00    +0.000 OA
ATOM      2  C1  UNL     1      29.723  -9.931 -37.489  0.00  0.00    +0.000 A 
ATOM      3  C2  UNL     1      28.975  -9.779 -36.300  0.00  0.00    +0.000 A 
ATOM      4  C3  UNL     1      29.627  -9.637 -34.963  0.00  0.00    +0.000 C 
ATOM      5  O2  UNL     1      30.883  -9.638 -34.855  0.00  0.00    +0.000 OA
ATOM      6  C4  UNL     1      28.810  -9.531 -33.708  0.00  0.00    +0.000 C 
ATOM      7  C5  UNL     1      27.425  -9.050 -34.015  0.00  0.00    +0.000 C 
ATOM      8  O3  UNL     1      26.870  -8.260 -33.266  0.00  0.00    +0.000 OA
ATOM      9  C6  UNL     1      26.685  -9.627 -35.184  0.00  0.00    +0.000 C 
ATOM     10  C7  UNL     1      27.568  -9.756 -36.396  0.00  0.00    +0.000 A 
ATOM     11  O4  UNL     1      26.977  -9.898 -37.574  0.00  0.00    +0.000 OA
ATOM     12  C8  UNL     1      27.641 -10.028 -38.714  0.00  0.00    +0.000 A 
ATOM     13  C9  UNL     1      26.913 -10.201 -39.893  0.00  0.00    +0.000 A 
ATOM     14  C10 UNL     1      27.570 -10.364 -41.107  0.00  0.00    +0.000 A 
ATOM     15  C11 UNL     1      28.962 -10.312 -41.169  0.00  0.00    +0.000 A 
ATOM     16  C12 UNL     1      29.720 -10.097 -40.001  0.00  0.00    +0.000 A 
ATOM     17  C13 UNL     1      29.058 -10.005 -38.739  0.00  0.00    +0.000 A 
ENDROOT
BRANCH  15  18
ATOM     18  O5  UNL     1      29.579 -10.457 -42.413  0.00  0.00    +0.000 OA
ATOM     19  H7  UNL     1      30.132  -9.720 -42.834  0.00  0.00    +0.000 HD
ENDBRANCH  15  18
BRANCH  16  20
ATOM     20  O6  UNL     1      31.103  -9.948 -40.154  0.00  0.00    +0.000 OA
ATOM     21  H8  UNL     1      31.540  -9.349 -40.836  0.00  0.00    +0.000 HD
ENDBRANCH  16  20
TORSDOF 2
ENDMDL
MODEL 9
REMARK VINA RESULT:    -5.147      1.770      3.447
REMARK INTER + INTRA:          -5.448
REMARK INTER:                  -5.448
REMARK INTRA:                   0.000
REMARK UNBOUND:                 0.000
REMARK  Name = resultss/4CJN/ligands/lig_318_t1.pdb
REMARK  2 active torsions:
REMARK  status: ('A' for Active; 'I' for Inactive)
REMARK    1  A    between atoms: C11_15  and  O5_16
REMARK    2  A    between atoms: C12_17  and  O6_18
REMARK                            x       y       z     vdW  Elec       q    Type
REMARK                         _______ _______ _______ _____ _____    ______ ____
ROOT
ATOM      1  O1  UNL     1      25.981  -8.312 -37.943  0.00  0.00    +0.000 OA
ATOM      2  C1  UNL     1      26.094  -8.542 -36.711  0.00  0.00    +0.000 A 
ATOM      3  C2  UNL     1      27.307  -9.067 -36.212  0.00  0.00    +0.000 A 
ATOM      4  C3  UNL     1      28.505  -9.267 -37.083  0.00  0.00    +0.000 C 
ATOM      5  O2  UNL     1      28.472  -8.957 -38.305  0.00  0.00    +0.000 OA
ATOM      6  C4  UNL     1      29.766  -9.877 -36.543  0.00  0.00    +0.000 C 
ATOM      7  C5  UNL     1      29.834  -9.724 -35.054  0.00  0.00    +0.000 C 
ATOM      8  O3  UNL     1      30.898  -9.466 -34.513  0.00  0.00    +0.000 OA
ATOM      9  C6  UNL     1      28.613  -9.997 -34.227  0.00  0.00    +0.000 C 
ATOM     10  C7  UNL     1      27.376  -9.404 -34.845  0.00  0.00    +0.000 A 
ATOM     11  O4  UNL     1      26.314  -9.248 -34.064  0.00  0.00    +0.000 OA
ATOM     12  C8  UNL     1      25.164  -8.745 -34.488  0.00  0.00    +0.000 A 
ATOM     13  C9  UNL     1      24.103  -8.655 -33.585  0.00  0.00    +0.000 A 
ATOM     14  C10 UNL     1      22.872  -8.154 -33.993  0.00  0.00    +0.000 A 
ATOM     15  C11 UNL     1      22.694  -7.696 -35.297  0.00  0.00    +0.000 A 
ATOM     16  C12 UNL     1      23.760  -7.737 -36.219  0.00  0.00    +0.000 A 
ATOM     17  C13 UNL     1      25.005  -8.319 -35.831  0.00  0.00    +0.000 A 
ENDROOT
BRANCH  15  18
ATOM     18  O5  UNL     1      21.448  -7.180 -35.657  0.00  0.00    +0.000 OA
ATOM     19  H7  UNL     1      21.128  -7.155 -36.618  0.00  0.00    +0.000 HD
ENDBRANCH  15  18
BRANCH  16  20
ATOM     20  O6  UNL     1      23.541  -7.161 -37.475  0.00  0.00    +0.000 OA
ATOM     21  H8  UNL     1      24.240  -7.085 -38.198  0.00  0.00    +0.000 HD
ENDBRANCH  16  20
TORSDOF 2
ENDMDL
