MODEL 1
REMARK VINA RESULT:    -5.371      0.000      0.000
REMARK INTER + INTRA:          -6.065
REMARK INTER:                  -5.999
REMARK INTRA:                  -0.066
REMARK UNBOUND:                -0.066
REMARK  Name = resultss/4CJN/ligands/lig_317_t1.pdb
REMARK  4 active torsions:
REMARK  status: ('A' for Active; 'I' for Inactive)
REMARK    1  A    between atoms: C1_1  and  O1_2
REMARK    2  A    between atoms: O1_2  and  C2_3
REMARK    3  A    between atoms: C14_19  and  O6_20
REMARK    4  A    between atoms: O6_20  and  C15_21
REMARK                            x       y       z     vdW  Elec       q    Type
REMARK                         _______ _______ _______ _____ _____    ______ ____
ROOT
ATOM      1  C2  UNL     1      29.673  -9.971 -41.687  0.00  0.00    +0.000 A 
ATOM      2  C3  UNL     1      28.288  -9.898 -41.920  0.00  0.00    +0.000 A 
ATOM      3  C4  UNL     1      27.391  -9.795 -40.863  0.00  0.00    +0.000 A 
ATOM      4  C5  UNL     1      27.850  -9.763 -39.550  0.00  0.00    +0.000 A 
ATOM      5  O2  UNL     1      26.964  -9.664 -38.568  0.00  0.00    +0.000 OA
ATOM      6  C6  UNL     1      27.298  -9.630 -37.284  0.00  0.00    +0.000 A 
ATOM      7  C7  UNL     1      26.189  -9.488 -36.277  0.00  0.00    +0.000 C 
ATOM      8  C8  UNL     1      26.618  -9.949 -34.915  0.00  0.00    +0.000 C 
ATOM      9  O3  UNL     1      25.844 -10.574 -34.207  0.00  0.00    +0.000 OA
ATOM     10  C9  UNL     1      27.959  -9.541 -34.387  0.00  0.00    +0.000 C 
ATOM     11  C10 UNL     1      29.014  -9.657 -35.450  0.00  0.00    +0.000 C 
ATOM     12  O4  UNL     1      30.221  -9.689 -35.086  0.00  0.00    +0.000 OA
ATOM     13  C11 UNL     1      28.654  -9.688 -36.899  0.00  0.00    +0.000 A 
ATOM     14  C12 UNL     1      29.630  -9.794 -37.915  0.00  0.00    +0.000 A 
ATOM     15  O5  UNL     1      30.851  -9.854 -37.604  0.00  0.00    +0.000 OA
ATOM     16  C13 UNL     1      29.234  -9.833 -39.274  0.00  0.00    +0.000 A 
ATOM     17  C14 UNL     1      30.160  -9.938 -40.351  0.00  0.00    +0.000 A 
ENDROOT
BRANCH   1  19
ATOM     18  C1  UNL     1      31.095 -11.295 -43.277  0.00  0.00    +0.000 C 
ATOM     19  O1  UNL     1      30.571 -10.074 -42.761  0.00  0.00    +0.000 OA
ENDBRANCH   1  19
BRANCH  17  20
ATOM     20  O6  UNL     1      31.535 -10.007 -40.042  0.00  0.00    +0.000 OA
ATOM     21  C15 UNL     1      32.540  -9.054 -40.370  0.00  0.00    +0.000 C 
ENDBRANCH  17  20
TORSDOF 2
ENDMDL
MODEL 2
REMARK VINA RESULT:    -5.305      2.886      7.597
REMARK INTER + INTRA:          -5.991
REMARK INTER:                  -5.989
REMARK INTRA:                  -0.002
REMARK UNBOUND:                -0.066
REMARK  Name = resultss/4CJN/ligands/lig_317_t1.pdb
REMARK  4 active torsions:
REMARK  status: ('A' for Active; 'I' for Inactive)
REMARK    1  A    between atoms: C1_1  and  O1_2
REMARK    2  A    between atoms: O1_2  and  C2_3
REMARK    3  A    between atoms: C14_19  and  O6_20
REMARK    4  A    between atoms: O6_20  and  C15_21
REMARK                            x       y       z     vdW  Elec       q    Type
REMARK                         _______ _______ _______ _____ _____    ______ ____
ROOT
ATOM      1  C2  UNL     1      24.066  -8.139 -34.043  0.00  0.00    +0.000 A 
ATOM      2  C3  UNL     1      24.983  -9.077 -33.534  0.00  0.00    +0.000 A 
ATOM      3  C4  UNL     1      25.923  -9.677 -34.363  0.00  0.00    +0.000 A 
ATOM      4  C5  UNL     1      25.974  -9.359 -35.716  0.00  0.00    +0.000 A 
ATOM      5  O2  UNL     1      26.885  -9.953 -36.476  0.00  0.00    +0.000 OA
ATOM      6  C6  UNL     1      27.014  -9.723 -37.776  0.00  0.00    +0.000 A 
ATOM      7  C7  UNL     1      28.111 -10.448 -38.509  0.00  0.00    +0.000 C 
ATOM      8  C8  UNL     1      27.850 -10.496 -39.985  0.00  0.00    +0.000 C 
ATOM      9  O3  UNL     1      28.110 -11.506 -40.622  0.00  0.00    +0.000 OA
ATOM     10  C9  UNL     1      27.374  -9.263 -40.691  0.00  0.00    +0.000 C 
ATOM     11  C10 UNL     1      26.317  -8.558 -39.890  0.00  0.00    +0.000 C 
ATOM     12  O4  UNL     1      25.582  -7.724 -40.484  0.00  0.00    +0.000 OA
ATOM     13  C11 UNL     1      26.166  -8.800 -38.424  0.00  0.00    +0.000 A 
ATOM     14  C12 UNL     1      25.180  -8.147 -37.651  0.00  0.00    +0.000 A 
ATOM     15  O5  UNL     1      24.403  -7.320 -38.201  0.00  0.00    +0.000 OA
ATOM     16  C13 UNL     1      25.071  -8.423 -36.266  0.00  0.00    +0.000 A 
ATOM     17  C14 UNL     1      24.104  -7.802 -35.424  0.00  0.00    +0.000 A 
ENDROOT
BRANCH   1  19
ATOM     18  C1  UNL     1      23.207  -6.213 -32.679  0.00  0.00    +0.000 C 
ATOM     19  O1  UNL     1      23.120  -7.538 -33.198  0.00  0.00    +0.000 OA
ENDBRANCH   1  19
BRANCH  17  20
ATOM     20  O6  UNL     1      23.217  -6.871 -36.003  0.00  0.00    +0.000 OA
ATOM     21  C15 UNL     1      21.795  -6.938 -36.031  0.00  0.00    +0.000 C 
ENDBRANCH  17  20
TORSDOF 2
ENDMDL
MODEL 3
REMARK VINA RESULT:    -5.281      1.497      6.750
REMARK INTER + INTRA:          -5.964
REMARK INTER:                  -5.894
REMARK INTRA:                  -0.070
REMARK UNBOUND:                -0.066
REMARK  Name = resultss/4CJN/ligands/lig_317_t1.pdb
REMARK  4 active torsions:
REMARK  status: ('A' for Active; 'I' for Inactive)
REMARK    1  A    between atoms: C1_1  and  O1_2
REMARK    2  A    between atoms: O1_2  and  C2_3
REMARK    3  A    between atoms: C14_19  and  O6_20
REMARK    4  A    between atoms: O6_20  and  C15_21
REMARK                            x       y       z     vdW  Elec       q    Type
REMARK                         _______ _______ _______ _____ _____    ______ ____
ROOT
ATOM      1  C2  UNL     1      26.657  -9.444 -35.390  0.00  0.00    +0.000 A 
ATOM      2  C3  UNL     1      27.999  -9.750 -35.101  0.00  0.00    +0.000 A 
ATOM      3  C4  UNL     1      28.925  -9.929 -36.122  0.00  0.00    +0.000 A 
ATOM      4  C5  UNL     1      28.539  -9.808 -37.452  0.00  0.00    +0.000 A 
ATOM      5  O2  UNL     1      29.451  -9.986 -38.399  0.00  0.00    +0.000 OA
ATOM      6  C6  UNL     1      29.185  -9.897 -39.695  0.00  0.00    +0.000 A 
ATOM      7  C7  UNL     1      30.324 -10.096 -40.659  0.00  0.00    +0.000 C 
ATOM      8  C8  UNL     1      29.833 -10.459 -42.028  0.00  0.00    +0.000 C 
ATOM      9  O3  UNL     1      30.427 -11.293 -42.693  0.00  0.00    +0.000 OA
ATOM     10  C9  UNL     1      28.676  -9.711 -42.619  0.00  0.00    +0.000 C 
ATOM     11  C10 UNL     1      27.594  -9.500 -41.599  0.00  0.00    +0.000 C 
ATOM     12  O4  UNL     1      26.439  -9.208 -42.012  0.00  0.00    +0.000 OA
ATOM     13  C11 UNL     1      27.880  -9.589 -40.136  0.00  0.00    +0.000 A 
ATOM     14  C12 UNL     1      26.878  -9.393 -39.159  0.00  0.00    +0.000 A 
ATOM     15  O5  UNL     1      25.700  -9.122 -39.519  0.00  0.00    +0.000 OA
ATOM     16  C13 UNL     1      27.200  -9.501 -37.784  0.00  0.00    +0.000 A 
ATOM     17  C14 UNL     1      26.244  -9.316 -36.745  0.00  0.00    +0.000 A 
ENDROOT
BRANCH   1  19
ATOM     18  C1  UNL     1      25.745  -8.195 -33.411  0.00  0.00    +0.000 C 
ATOM     19  O1  UNL     1      25.728  -9.265 -34.352  0.00  0.00    +0.000 OA
ENDBRANCH   1  19
BRANCH  17  20
ATOM     20  O6  UNL     1      24.916  -9.011 -37.109  0.00  0.00    +0.000 OA
ATOM     21  C15 UNL     1      24.206  -7.806 -36.845  0.00  0.00    +0.000 C 
ENDBRANCH  17  20
TORSDOF 2
ENDMDL
MODEL 4
REMARK VINA RESULT:    -5.209      2.368      3.427
REMARK INTER + INTRA:          -5.884
REMARK INTER:                  -5.817
REMARK INTRA:                  -0.067
REMARK UNBOUND:                -0.066
REMARK  Name = resultss/4CJN/ligands/lig_317_t1.pdb
REMARK  4 active torsions:
REMARK  status: ('A' for Active; 'I' for Inactive)
REMARK    1  A    between atoms: C1_1  and  O1_2
REMARK    2  A    between atoms: O1_2  and  C2_3
REMARK    3  A    between atoms: C14_19  and  O6_20
REMARK    4  A    between atoms: O6_20  and  C15_21
REMARK                            x       y       z     vdW  Elec       q    Type
REMARK                         _______ _______ _______ _____ _____    ______ ____
ROOT
ATOM      1  C2  UNL     1      26.392  -8.808 -41.042  0.00  0.00    +0.000 A 
ATOM      2  C3  UNL     1      25.313  -7.905 -41.075  0.00  0.00    +0.000 A 
ATOM      3  C4  UNL     1      24.652  -7.541 -39.907  0.00  0.00    +0.000 A 
ATOM      4  C5  UNL     1      25.047  -8.067 -38.681  0.00  0.00    +0.000 A 
ATOM      5  O2  UNL     1      24.391  -7.696 -37.589  0.00  0.00    +0.000 OA
ATOM      6  C6  UNL     1      24.686  -8.141 -36.374  0.00  0.00    +0.000 A 
ATOM      7  C7  UNL     1      23.875  -7.614 -35.221  0.00  0.00    +0.000 C 
ATOM      8  C8  UNL     1      23.955  -8.521 -34.029  0.00  0.00    +0.000 C 
ATOM      9  O3  UNL     1      22.964  -8.727 -33.346  0.00  0.00    +0.000 OA
ATOM     10  C9  UNL     1      25.282  -9.084 -33.619  0.00  0.00    +0.000 C 
ATOM     11  C10 UNL     1      26.064  -9.548 -34.815  0.00  0.00    +0.000 C 
ATOM     12  O4  UNL     1      27.021 -10.345 -34.623  0.00  0.00    +0.000 OA
ATOM     13  C11 UNL     1      25.749  -9.049 -36.187  0.00  0.00    +0.000 A 
ATOM     14  C12 UNL     1      26.473  -9.470 -37.325  0.00  0.00    +0.000 A 
ATOM     15  O5  UNL     1      27.426 -10.286 -37.192  0.00  0.00    +0.000 OA
ATOM     16  C13 UNL     1      26.125  -8.976 -38.606  0.00  0.00    +0.000 A 
ATOM     17  C14 UNL     1      26.809  -9.355 -39.797  0.00  0.00    +0.000 A 
ENDROOT
BRANCH   1  19
ATOM     18  C1  UNL     1      27.747  -8.270 -43.086  0.00  0.00    +0.000 C 
ATOM     19  O1  UNL     1      27.054  -9.170 -42.226  0.00  0.00    +0.000 OA
ENDBRANCH   1  19
BRANCH  17  20
ATOM     20  O6  UNL     1      27.881 -10.265 -39.688  0.00  0.00    +0.000 OA
ATOM     21  C15 UNL     1      29.257 -10.009 -39.946  0.00  0.00    +0.000 C 
ENDBRANCH  17  20
TORSDOF 2
ENDMDL
MODEL 5
REMARK VINA RESULT:    -5.137      2.698      4.296
REMARK INTER + INTRA:          -5.804
REMARK INTER:                  -5.741
REMARK INTRA:                  -0.063
REMARK UNBOUND:                -0.066
REMARK  Name = resultss/4CJN/ligands/lig_317_t1.pdb
REMARK  4 active torsions:
REMARK  status: ('A' for Active; 'I' for Inactive)
REMARK    1  A    between atoms: C1_1  and  O1_2
REMARK    2  A    between atoms: O1_2  and  C2_3
REMARK    3  A    between atoms: C14_19  and  O6_20
REMARK    4  A    between atoms: O6_20  and  C15_21
REMARK                            x       y       z     vdW  Elec       q    Type
REMARK                         _______ _______ _______ _____ _____    ______ ____
ROOT
ATOM      1  C2  UNL     1      26.948  -9.682 -41.158  0.00  0.00    +0.000 A 
ATOM      2  C3  UNL     1      27.940 -10.489 -40.571  0.00  0.00    +0.000 A 
ATOM      3  C4  UNL     1      28.028 -10.619 -39.190  0.00  0.00    +0.000 A 
ATOM      4  C5  UNL     1      27.134  -9.949 -38.361  0.00  0.00    +0.000 A 
ATOM      5  O2  UNL     1      27.250 -10.097 -37.048  0.00  0.00    +0.000 OA
ATOM      6  C6  UNL     1      26.452  -9.501 -36.172  0.00  0.00    +0.000 A 
ATOM      7  C7  UNL     1      26.682  -9.781 -34.712  0.00  0.00    +0.000 C 
ATOM      8  C8  UNL     1      26.083  -8.715 -33.843  0.00  0.00    +0.000 C 
ATOM      9  O3  UNL     1      26.676  -8.330 -32.847  0.00  0.00    +0.000 OA
ATOM     10  C9  UNL     1      24.706  -8.206 -34.143  0.00  0.00    +0.000 C 
ATOM     11  C10 UNL     1      24.521  -7.992 -35.619  0.00  0.00    +0.000 C 
ATOM     12  O4  UNL     1      23.570  -7.255 -35.995  0.00  0.00    +0.000 OA
ATOM     13  C11 UNL     1      25.406  -8.663 -36.616  0.00  0.00    +0.000 A 
ATOM     14  C12 UNL     1      25.248  -8.478 -38.008  0.00  0.00    +0.000 A 
ATOM     15  O5  UNL     1      24.327  -7.732 -38.438  0.00  0.00    +0.000 OA
ATOM     16  C13 UNL     1      26.124  -9.129 -38.911  0.00  0.00    +0.000 A 
ATOM     17  C14 UNL     1      26.026  -8.990 -40.325  0.00  0.00    +0.000 A 
ENDROOT
BRANCH   1  19
ATOM     18  C1  UNL     1      27.458  -8.511 -43.320  0.00  0.00    +0.000 C 
ATOM     19  O1  UNL     1      26.867  -9.556 -42.554  0.00  0.00    +0.000 OA
ENDBRANCH   1  19
BRANCH  17  20
ATOM     20  O6  UNL     1      25.006  -8.164 -40.843  0.00  0.00    +0.000 OA
ATOM     21  C15 UNL     1      23.863  -8.570 -41.588  0.00  0.00    +0.000 C 
ENDBRANCH  17  20
TORSDOF 2
ENDMDL
MODEL 6
REMARK VINA RESULT:    -5.087      2.851      5.073
REMARK INTER + INTRA:          -5.748
REMARK INTER:                  -5.714
REMARK INTRA:                  -0.034
REMARK UNBOUND:                -0.066
REMARK  Name = resultss/4CJN/ligands/lig_317_t1.pdb
REMARK  4 active torsions:
REMARK  status: ('A' for Active; 'I' for Inactive)
REMARK    1  A    between atoms: C1_1  and  O1_2
REMARK    2  A    between atoms: O1_2  and  C2_3
REMARK    3  A    between atoms: C14_19  and  O6_20
REMARK    4  A    between atoms: O6_20  and  C15_21
REMARK                            x       y       z     vdW  Elec       q    Type
REMARK                         _______ _______ _______ _____ _____    ______ ____
ROOT
ATOM      1  C2  UNL     1      28.169  -9.820 -38.351  0.00  0.00    +0.000 A 
ATOM      2  C3  UNL     1      28.695 -10.230 -37.113  0.00  0.00    +0.000 A 
ATOM      3  C4  UNL     1      28.007  -9.988 -35.930  0.00  0.00    +0.000 A 
ATOM      4  C5  UNL     1      26.781  -9.331 -35.950  0.00  0.00    +0.000 A 
ATOM      5  O2  UNL     1      26.154  -9.117 -34.801  0.00  0.00    +0.000 OA
ATOM      6  C6  UNL     1      24.984  -8.497 -34.711  0.00  0.00    +0.000 A 
ATOM      7  C7  UNL     1      24.375  -8.347 -33.343  0.00  0.00    +0.000 C 
ATOM      8  C8  UNL     1      23.359  -7.245 -33.309  0.00  0.00    +0.000 C 
ATOM      9  O3  UNL     1      23.286  -6.508 -32.337  0.00  0.00    +0.000 OA
ATOM     10  C9  UNL     1      22.363  -7.124 -34.422  0.00  0.00    +0.000 C 
ATOM     11  C10 UNL     1      23.021  -7.330 -35.757  0.00  0.00    +0.000 C 
ATOM     12  O4  UNL     1      22.413  -6.925 -36.785  0.00  0.00    +0.000 OA
ATOM     13  C11 UNL     1      24.333  -8.033 -35.874  0.00  0.00    +0.000 A 
ATOM     14  C12 UNL     1      24.967  -8.240 -37.119  0.00  0.00    +0.000 A 
ATOM     15  O5  UNL     1      24.414  -7.833 -38.177  0.00  0.00    +0.000 OA
ATOM     16  C13 UNL     1      26.218  -8.902 -37.173  0.00  0.00    +0.000 A 
ATOM     17  C14 UNL     1      26.916  -9.147 -38.390  0.00  0.00    +0.000 A 
ENDROOT
BRANCH   1  19
ATOM     18  C1  UNL     1      30.210  -9.659 -39.805  0.00  0.00    +0.000 C 
ATOM     19  O1  UNL     1      28.871 -10.069 -39.541  0.00  0.00    +0.000 OA
ENDBRANCH   1  19
BRANCH  17  20
ATOM     20  O6  UNL     1      26.328  -8.707 -39.595  0.00  0.00    +0.000 OA
ATOM     21  C15 UNL     1      25.805  -9.514 -40.643  0.00  0.00    +0.000 C 
ENDBRANCH  17  20
TORSDOF 2
ENDMDL
MODEL 7
REMARK VINA RESULT:    -5.080      2.429      6.750
REMARK INTER + INTRA:          -5.740
REMARK INTER:                  -5.705
REMARK INTRA:                  -0.035
REMARK UNBOUND:                -0.066
REMARK  Name = resultss/4CJN/ligands/lig_317_t1.pdb
REMARK  4 active torsions:
REMARK  status: ('A' for Active; 'I' for Inactive)
REMARK    1  A    between atoms: C1_1  and  O1_2
REMARK    2  A    between atoms: O1_2  and  C2_3
REMARK    3  A    between atoms: C14_19  and  O6_20
REMARK    4  A    between atoms: O6_20  and  C15_21
REMARK                            x       y       z     vdW  Elec       q    Type
REMARK                         _______ _______ _______ _____ _____    ______ ____
ROOT
ATOM      1  C2  UNL     1      24.921  -8.513 -35.040  0.00  0.00    +0.000 A 
ATOM      2  C3  UNL     1      24.032  -7.603 -35.640  0.00  0.00    +0.000 A 
ATOM      3  C4  UNL     1      24.063  -7.375 -37.011  0.00  0.00    +0.000 A 
ATOM      4  C5  UNL     1      24.978  -8.045 -37.816  0.00  0.00    +0.000 A 
ATOM      5  O2  UNL     1      24.978  -7.801 -39.120  0.00  0.00    +0.000 OA
ATOM      6  C6  UNL     1      25.811  -8.383 -39.972  0.00  0.00    +0.000 A 
ATOM      7  C7  UNL     1      25.679  -8.031 -41.430  0.00  0.00    +0.000 C 
ATOM      8  C8  UNL     1      26.935  -8.343 -42.189  0.00  0.00    +0.000 C 
ATOM      9  O3  UNL     1      27.331  -7.583 -43.058  0.00  0.00    +0.000 OA
ATOM     10  C9  UNL     1      27.636  -9.646 -41.950  0.00  0.00    +0.000 C 
ATOM     11  C10 UNL     1      27.693  -9.966 -40.484  0.00  0.00    +0.000 C 
ATOM     12  O4  UNL     1      28.532 -10.824 -40.097  0.00  0.00    +0.000 OA
ATOM     13  C11 UNL     1      26.756  -9.325 -39.514  0.00  0.00    +0.000 A 
ATOM     14  C12 UNL     1      26.791  -9.613 -38.131  0.00  0.00    +0.000 A 
ATOM     15  O5  UNL     1      27.628 -10.446 -37.688  0.00  0.00    +0.000 OA
ATOM     16  C13 UNL     1      25.888  -8.967 -37.252  0.00  0.00    +0.000 A 
ATOM     17  C14 UNL     1      25.863  -9.207 -35.848  0.00  0.00    +0.000 A 
ENDROOT
BRANCH   1  19
ATOM     18  C1  UNL     1      23.697  -8.915 -32.884  0.00  0.00    +0.000 C 
ATOM     19  O1  UNL     1      24.883  -8.737 -33.654  0.00  0.00    +0.000 OA
ENDBRANCH   1  19
BRANCH  17  20
ATOM     20  O6  UNL     1      26.784 -10.133 -35.316  0.00  0.00    +0.000 OA
ATOM     21  C15 UNL     1      27.879  -9.858 -34.448  0.00  0.00    +0.000 C 
ENDBRANCH  17  20
TORSDOF 2
ENDMDL
MODEL 8
REMARK VINA RESULT:    -5.033      1.722      5.731
REMARK INTER + INTRA:          -5.688
REMARK INTER:                  -5.666
REMARK INTRA:                  -0.021
REMARK UNBOUND:                -0.066
REMARK  Name = resultss/4CJN/ligands/lig_317_t1.pdb
REMARK  4 active torsions:
REMARK  status: ('A' for Active; 'I' for Inactive)
REMARK    1  A    between atoms: C1_1  and  O1_2
REMARK    2  A    between atoms: O1_2  and  C2_3
REMARK    3  A    between atoms: C14_19  and  O6_20
REMARK    4  A    between atoms: O6_20  and  C15_21
REMARK                            x       y       z     vdW  Elec       q    Type
REMARK                         _______ _______ _______ _____ _____    ______ ____
ROOT
ATOM      1  C2  UNL     1      29.768  -9.618 -34.278  0.00  0.00    +0.000 A 
ATOM      2  C3  UNL     1      28.378  -9.821 -34.210  0.00  0.00    +0.000 A 
ATOM      3  C4  UNL     1      27.629 -10.025 -35.363  0.00  0.00    +0.000 A 
ATOM      4  C5  UNL     1      28.245 -10.030 -36.611  0.00  0.00    +0.000 A 
ATOM      5  O2  UNL     1      27.497 -10.228 -37.689  0.00  0.00    +0.000 OA
ATOM      6  C6  UNL     1      27.985 -10.247 -38.922  0.00  0.00    +0.000 A 
ATOM      7  C7  UNL     1      27.024 -10.510 -40.050  0.00  0.00    +0.000 C 
ATOM      8  C8  UNL     1      27.569 -10.029 -41.362  0.00  0.00    +0.000 C 
ATOM      9  O3  UNL     1      26.831  -9.491 -42.173  0.00  0.00    +0.000 OA
ATOM     10  C9  UNL     1      28.997 -10.312 -41.717  0.00  0.00    +0.000 C 
ATOM     11  C10 UNL     1      29.900 -10.080 -40.539  0.00  0.00    +0.000 C 
ATOM     12  O4  UNL     1      31.134  -9.936 -40.758  0.00  0.00    +0.000 OA
ATOM     13  C11 UNL     1      29.367 -10.063 -39.145  0.00  0.00    +0.000 A 
ATOM     14  C12 UNL     1      30.198  -9.849 -38.023  0.00  0.00    +0.000 A 
ATOM     15  O5  UNL     1      31.437  -9.675 -38.188  0.00  0.00    +0.000 OA
ATOM     16  C13 UNL     1      29.639  -9.830 -36.722  0.00  0.00    +0.000 A 
ATOM     17  C14 UNL     1      30.414  -9.621 -35.545  0.00  0.00    +0.000 A 
ENDROOT
BRANCH   1  19
ATOM     18  C1  UNL     1      31.381 -10.373 -32.509  0.00  0.00    +0.000 C 
ATOM     19  O1  UNL     1      30.516  -9.413 -33.108  0.00  0.00    +0.000 OA
ENDBRANCH   1  19
BRANCH  17  20
ATOM     20  O6  UNL     1      31.803  -9.423 -35.690  0.00  0.00    +0.000 OA
ATOM     21  C15 UNL     1      32.536  -8.232 -35.426  0.00  0.00    +0.000 C 
ENDBRANCH  17  20
TORSDOF 2
ENDMDL
MODEL 9
REMARK VINA RESULT:    -4.994      4.635      8.641
REMARK INTER + INTRA:          -5.644
REMARK INTER:                  -5.572
REMARK INTRA:                  -0.071
REMARK UNBOUND:                -0.066
REMARK  Name = resultss/4CJN/ligands/lig_317_t1.pdb
REMARK  4 active torsions:
REMARK  status: ('A' for Active; 'I' for Inactive)
REMARK    1  A    between atoms: C1_1  and  O1_2
REMARK    2  A    between atoms: O1_2  and  C2_3
REMARK    3  A    between atoms: C14_19  and  O6_20
REMARK    4  A    between atoms: O6_20  and  C15_21
REMARK                            x       y       z     vdW  Elec       q    Type
REMARK                         _______ _______ _______ _____ _____    ______ ____
ROOT
ATOM      1  C2  UNL     1      27.693  -9.906 -41.298  0.00  0.00    +0.000 A 
ATOM      2  C3  UNL     1      28.991  -9.671 -41.785  0.00  0.00    +0.000 A 
ATOM      3  C4  UNL     1      29.195  -8.933 -42.945  0.00  0.00    +0.000 A 
ATOM      4  C5  UNL     1      28.114  -8.412 -43.647  0.00  0.00    +0.000 A 
ATOM      5  O2  UNL     1      28.348  -7.713 -44.750  0.00  0.00    +0.000 OA
ATOM      6  C6  UNL     1      27.388  -7.178 -45.493  0.00  0.00    +0.000 A 
ATOM      7  C7  UNL     1      27.800  -6.386 -46.705  0.00  0.00    +0.000 C 
ATOM      8  C8  UNL     1      26.680  -6.268 -47.695  0.00  0.00    +0.000 C 
ATOM      9  O3  UNL     1      26.909  -6.346 -48.893  0.00  0.00    +0.000 OA
ATOM     10  C9  UNL     1      25.300  -5.943 -47.212  0.00  0.00    +0.000 C 
ATOM     11  C10 UNL     1      24.964  -6.727 -45.975  0.00  0.00    +0.000 C 
ATOM     12  O4  UNL     1      23.750  -6.833 -45.652  0.00  0.00    +0.000 OA
ATOM     13  C11 UNL     1      26.034  -7.327 -45.124  0.00  0.00    +0.000 A 
ATOM     14  C12 UNL     1      25.741  -8.066 -43.956  0.00  0.00    +0.000 A 
ATOM     15  O5  UNL     1      24.541  -8.222 -43.601  0.00  0.00    +0.000 OA
ATOM     16  C13 UNL     1      26.794  -8.626 -43.191  0.00  0.00    +0.000 A 
ATOM     17  C14 UNL     1      26.575  -9.380 -42.003  0.00  0.00    +0.000 A 
ENDROOT
BRANCH   1  19
ATOM     18  C1  UNL     1      27.896 -10.249 -38.818  0.00  0.00    +0.000 C 
ATOM     19  O1  UNL     1      27.496 -10.653 -40.125  0.00  0.00    +0.000 OA
ENDBRANCH   1  19
BRANCH  17  20
ATOM     20  O6  UNL     1      25.246  -9.576 -41.574  0.00  0.00    +0.000 OA
ATOM     21  C15 UNL     1      24.625  -9.028 -40.417  0.00  0.00    +0.000 C 
ENDBRANCH  17  20
TORSDOF 2
ENDMDL
