MODEL 1
REMARK VINA RESULT:    -6.469      0.000      0.000
REMARK INTER + INTRA:          -9.852
REMARK INTER:                  -8.360
REMARK INTRA:                  -1.493
REMARK UNBOUND:                -1.493
REMARK  Name = resultss/4CJN/ligands/lig_264_t0.pdb
REMARK  5 active torsions:
REMARK  status: ('A' for Active; 'I' for Inactive)
REMARK    1  A    between atoms: C1_2  and  C17_22
REMARK    2  A    between atoms: N1_3  and  C2_4
REMARK    3  A    between atoms: C5_8  and  C6_9
REMARK    4  A    between atoms: N2_11  and  C7_12
REMARK    5  A    between atoms: C7_12  and  C8_13
REMARK                            x       y       z     vdW  Elec       q    Type
REMARK                         _______ _______ _______ _____ _____    ______ ____
ROOT
ATOM      1  C2  UNL     1      26.846  -8.933 -39.653  0.00  0.00    +0.000 A 
ATOM      2  S1  UNL     1      27.066  -9.688 -41.157  0.00  0.00    +0.000 S 
ATOM      3  C3  UNL     1      25.521  -9.299 -41.687  0.00  0.00    +0.000 A 
ATOM      4  C4  UNL     1      24.859  -8.568 -40.766  0.00  0.00    +0.000 A 
ATOM      5  C5  UNL     1      25.583  -8.319 -39.596  0.00  0.00    +0.000 A 
ATOM      6  C14 UNL     1      23.610  -7.992 -41.311  0.00  0.00    +0.000 C 
ATOM      7  C15 UNL     1      23.567  -8.540 -42.760  0.00  0.00    +0.000 C 
ATOM      8  C16 UNL     1      24.867  -9.343 -43.005  0.00  0.00    +0.000 C 
ENDROOT
BRANCH   1  11
ATOM      9  O1  UNL     1      27.726 -11.166 -38.100  0.00  0.00    +0.000 OA
ATOM     10  C1  UNL     1      28.081 -10.008 -37.748  0.00  0.00    +0.000 C 
ATOM     11  N1  UNL     1      27.844  -8.896 -38.625  0.00  0.00    +0.000 N 
ATOM     12  H1  UNL     1      28.523  -8.102 -38.627  0.00  0.00    +0.000 HD
BRANCH  10  13
ATOM     13  C17 UNL     1      28.755  -9.816 -36.444  0.00  0.00    +0.000 A 
ATOM     14  C18 UNL     1      28.032  -9.869 -35.240  0.00  0.00    +0.000 A 
ATOM     15  C19 UNL     1      28.692  -9.717 -34.020  0.00  0.00    +0.000 A 
ATOM     16  C20 UNL     1      30.073  -9.516 -34.009  0.00  0.00    +0.000 A 
ATOM     17  N3  UNL     1      30.763  -9.471 -35.178  0.00  0.00    +0.000 NA
ATOM     18  C21 UNL     1      30.144  -9.616 -36.381  0.00  0.00    +0.000 A 
ENDBRANCH  10  13
ENDBRANCH   1  11
BRANCH   5  19
ATOM     19  C6  UNL     1      25.154  -7.392 -38.536  0.00  0.00    +0.000 C 
ATOM     20  O2  UNL     1      25.870  -6.388 -38.270  0.00  0.00    +0.000 OA
ATOM     21  N2  UNL     1      23.955  -7.638 -37.791  0.00  0.00    +0.000 N 
ATOM     22  H2  UNL     1      23.376  -8.479 -38.014  0.00  0.00    +0.000 HD
BRANCH  21  23
ATOM     23  C7  UNL     1      23.575  -6.824 -36.639  0.00  0.00    +0.000 C 
BRANCH  23  24
ATOM     24  C8  UNL     1      23.708  -7.625 -35.370  0.00  0.00    +0.000 A 
ATOM     25  C9  UNL     1      24.968  -7.791 -34.774  0.00  0.00    +0.000 A 
ATOM     26  C10 UNL     1      25.092  -8.503 -33.577  0.00  0.00    +0.000 A 
ATOM     27  C11 UNL     1      23.961  -9.050 -32.965  0.00  0.00    +0.000 A 
ATOM     28  C12 UNL     1      22.701  -8.879 -33.548  0.00  0.00    +0.000 A 
ATOM     29  C13 UNL     1      22.573  -8.169 -34.745  0.00  0.00    +0.000 A 
ENDBRANCH  23  24
ENDBRANCH  21  23
ENDBRANCH   5  19
TORSDOF 5
ENDMDL
MODEL 2
REMARK VINA RESULT:    -6.280      1.781      4.709
REMARK INTER + INTRA:          -9.609
REMARK INTER:                  -7.501
REMARK INTRA:                  -2.108
REMARK UNBOUND:                -1.493
REMARK  Name = resultss/4CJN/ligands/lig_264_t0.pdb
REMARK  5 active torsions:
REMARK  status: ('A' for Active; 'I' for Inactive)
REMARK    1  A    between atoms: C1_2  and  C17_22
REMARK    2  A    between atoms: N1_3  and  C2_4
REMARK    3  A    between atoms: C5_8  and  C6_9
REMARK    4  A    between atoms: N2_11  and  C7_12
REMARK    5  A    between atoms: C7_12  and  C8_13
REMARK                            x       y       z     vdW  Elec       q    Type
REMARK                         _______ _______ _______ _____ _____    ______ ____
ROOT
ATOM      1  C2  UNL     1      25.875  -8.901 -39.454  0.00  0.00    +0.000 A 
ATOM      2  S1  UNL     1      25.300  -8.465 -40.990  0.00  0.00    +0.000 S 
ATOM      3  C3  UNL     1      26.790  -8.707 -41.723  0.00  0.00    +0.000 A 
ATOM      4  C4  UNL     1      27.703  -9.156 -40.837  0.00  0.00    +0.000 A 
ATOM      5  C5  UNL     1      27.220  -9.299 -39.533  0.00  0.00    +0.000 A 
ATOM      6  C14 UNL     1      28.937  -9.626 -41.505  0.00  0.00    +0.000 C 
ATOM      7  C15 UNL     1      28.662  -9.343 -43.003  0.00  0.00    +0.000 C 
ATOM      8  C16 UNL     1      27.218  -8.798 -43.129  0.00  0.00    +0.000 C 
ENDROOT
BRANCH   1  11
ATOM      9  O1  UNL     1      25.947  -6.936 -37.378  0.00  0.00    +0.000 OA
ATOM     10  C1  UNL     1      25.306  -8.004 -37.177  0.00  0.00    +0.000 C 
ATOM     11  N1  UNL     1      25.067  -8.903 -38.271  0.00  0.00    +0.000 N 
ATOM     12  H1  UNL     1      24.184  -9.462 -38.280  0.00  0.00    +0.000 HD
BRANCH  10  13
ATOM     13  C17 UNL     1      24.794  -8.304 -35.821  0.00  0.00    +0.000 A 
ATOM     14  C18 UNL     1      25.552  -9.057 -34.910  0.00  0.00    +0.000 A 
ATOM     15  C19 UNL     1      25.064  -9.301 -33.626  0.00  0.00    +0.000 A 
ATOM     16  C20 UNL     1      23.820  -8.788 -33.257  0.00  0.00    +0.000 A 
ATOM     17  N3  UNL     1      23.096  -8.058 -34.144  0.00  0.00    +0.000 NA
ATOM     18  C21 UNL     1      23.548  -7.806 -35.402  0.00  0.00    +0.000 A 
ENDBRANCH  10  13
ENDBRANCH   1  11
BRANCH   5  19
ATOM     19  C6  UNL     1      27.962  -9.950 -38.440  0.00  0.00    +0.000 C 
ATOM     20  O2  UNL     1      27.649 -11.122 -38.096  0.00  0.00    +0.000 OA
ATOM     21  N2  UNL     1      29.008  -9.253 -37.751  0.00  0.00    +0.000 N 
ATOM     22  H2  UNL     1      29.251  -8.279 -38.038  0.00  0.00    +0.000 HD
BRANCH  21  23
ATOM     23  C7  UNL     1      29.666  -9.809 -36.571  0.00  0.00    +0.000 C 
BRANCH  23  24
ATOM     24  C8  UNL     1      29.280  -9.026 -35.344  0.00  0.00    +0.000 A 
ATOM     25  C9  UNL     1      28.935  -7.670 -35.456  0.00  0.00    +0.000 A 
ATOM     26  C10 UNL     1      28.541  -6.947 -34.326  0.00  0.00    +0.000 A 
ATOM     27  C11 UNL     1      28.486  -7.573 -33.078  0.00  0.00    +0.000 A 
ATOM     28  C12 UNL     1      28.818  -8.926 -32.960  0.00  0.00    +0.000 A 
ATOM     29  C13 UNL     1      29.214  -9.652 -34.087  0.00  0.00    +0.000 A 
ENDBRANCH  23  24
ENDBRANCH  21  23
ENDBRANCH   5  19
TORSDOF 5
ENDMDL
MODEL 3
REMARK VINA RESULT:    -5.993      1.405      2.007
REMARK INTER + INTRA:          -9.237
REMARK INTER:                  -7.972
REMARK INTRA:                  -1.265
REMARK UNBOUND:                -1.493
REMARK  Name = resultss/4CJN/ligands/lig_264_t0.pdb
REMARK  5 active torsions:
REMARK  status: ('A' for Active; 'I' for Inactive)
REMARK    1  A    between atoms: C1_2  and  C17_22
REMARK    2  A    between atoms: N1_3  and  C2_4
REMARK    3  A    between atoms: C5_8  and  C6_9
REMARK    4  A    between atoms: N2_11  and  C7_12
REMARK    5  A    between atoms: C7_12  and  C8_13
REMARK                            x       y       z     vdW  Elec       q    Type
REMARK                         _______ _______ _______ _____ _____    ______ ____
ROOT
ATOM      1  C2  UNL     1      27.556  -9.592 -38.850  0.00  0.00    +0.000 A 
ATOM      2  S1  UNL     1      28.443 -10.313 -40.105  0.00  0.00    +0.000 S 
ATOM      3  C3  UNL     1      27.429  -9.709 -41.299  0.00  0.00    +0.000 A 
ATOM      4  C4  UNL     1      26.460  -8.933 -40.769  0.00  0.00    +0.000 A 
ATOM      5  C5  UNL     1      26.505  -8.824 -39.375  0.00  0.00    +0.000 A 
ATOM      6  C14 UNL     1      25.723  -8.181 -41.809  0.00  0.00    +0.000 C 
ATOM      7  C15 UNL     1      26.376  -8.665 -43.129  0.00  0.00    +0.000 C 
ATOM      8  C16 UNL     1      27.539  -9.620 -42.764  0.00  0.00    +0.000 C 
ENDROOT
BRANCH   1  11
ATOM      9  O1  UNL     1      29.114  -7.743 -37.324  0.00  0.00    +0.000 OA
ATOM     10  C1  UNL     1      28.847  -8.869 -36.819  0.00  0.00    +0.000 C 
ATOM     11  N1  UNL     1      27.889  -9.723 -37.462  0.00  0.00    +0.000 N 
ATOM     12  H1  UNL     1      27.296 -10.350 -36.871  0.00  0.00    +0.000 HD
BRANCH  10  13
ATOM     13  C17 UNL     1      29.510  -9.281 -35.563  0.00  0.00    +0.000 A 
ATOM     14  C18 UNL     1      30.908  -9.231 -35.431  0.00  0.00    +0.000 A 
ATOM     15  C19 UNL     1      31.511  -9.594 -34.226  0.00  0.00    +0.000 A 
ATOM     16  C20 UNL     1      30.714 -10.003 -33.157  0.00  0.00    +0.000 A 
ATOM     17  N3  UNL     1      29.363 -10.045 -33.293  0.00  0.00    +0.000 NA
ATOM     18  C21 UNL     1      28.750  -9.696 -34.456  0.00  0.00    +0.000 A 
ENDBRANCH  10  13
ENDBRANCH   1  11
BRANCH   5  19
ATOM     19  C6  UNL     1      25.682  -7.889 -38.590  0.00  0.00    +0.000 C 
ATOM     20  O2  UNL     1      25.985  -6.665 -38.576  0.00  0.00    +0.000 OA
ATOM     21  N2  UNL     1      24.568  -8.363 -37.823  0.00  0.00    +0.000 N 
ATOM     22  H2  UNL     1      24.334  -9.381 -37.834  0.00  0.00    +0.000 HD
BRANCH  21  23
ATOM     23  C7  UNL     1      23.820  -7.493 -36.919  0.00  0.00    +0.000 C 
BRANCH  23  24
ATOM     24  C8  UNL     1      23.881  -8.028 -35.513  0.00  0.00    +0.000 A 
ATOM     25  C9  UNL     1      22.709  -8.121 -34.745  0.00  0.00    +0.000 A 
ATOM     26  C10 UNL     1      22.754  -8.651 -33.452  0.00  0.00    +0.000 A 
ATOM     27  C11 UNL     1      23.966  -9.096 -32.919  0.00  0.00    +0.000 A 
ATOM     28  C12 UNL     1      25.135  -9.017 -33.681  0.00  0.00    +0.000 A 
ATOM     29  C13 UNL     1      25.096  -8.486 -34.973  0.00  0.00    +0.000 A 
ENDBRANCH  23  24
ENDBRANCH  21  23
ENDBRANCH   5  19
TORSDOF 5
ENDMDL
MODEL 4
REMARK VINA RESULT:    -5.963      5.188      9.744
REMARK INTER + INTRA:          -9.199
REMARK INTER:                  -8.106
REMARK INTRA:                  -1.093
REMARK UNBOUND:                -1.493
REMARK  Name = resultss/4CJN/ligands/lig_264_t0.pdb
REMARK  5 active torsions:
REMARK  status: ('A' for Active; 'I' for Inactive)
REMARK    1  A    between atoms: C1_2  and  C17_22
REMARK    2  A    between atoms: N1_3  and  C2_4
REMARK    3  A    between atoms: C5_8  and  C6_9
REMARK    4  A    between atoms: N2_11  and  C7_12
REMARK    5  A    between atoms: C7_12  and  C8_13
REMARK                            x       y       z     vdW  Elec       q    Type
REMARK                         _______ _______ _______ _____ _____    ______ ____
ROOT
ATOM      1  C2  UNL     1      27.992  -9.327 -41.167  0.00  0.00    +0.000 A 
ATOM      2  S1  UNL     1      26.648  -9.371 -40.132  0.00  0.00    +0.000 S 
ATOM      3  C3  UNL     1      27.569  -9.790 -38.793  0.00  0.00    +0.000 A 
ATOM      4  C4  UNL     1      28.881  -9.851 -39.104  0.00  0.00    +0.000 A 
ATOM      5  C5  UNL     1      29.171  -9.576 -40.444  0.00  0.00    +0.000 A 
ATOM      6  C14 UNL     1      29.731  -9.954 -37.897  0.00  0.00    +0.000 C 
ATOM      7  C15 UNL     1      28.702 -10.000 -36.739  0.00  0.00    +0.000 C 
ATOM      8  C16 UNL     1      27.290  -9.825 -37.349  0.00  0.00    +0.000 C 
ENDROOT
BRANCH   1  11
ATOM      9  O1  UNL     1      28.219  -6.724 -42.326  0.00  0.00    +0.000 OA
ATOM     10  C1  UNL     1      27.824  -7.677 -43.053  0.00  0.00    +0.000 C 
ATOM     11  N1  UNL     1      27.913  -9.024 -42.565  0.00  0.00    +0.000 N 
ATOM     12  H1  UNL     1      28.091  -9.796 -43.247  0.00  0.00    +0.000 HD
BRANCH  10  13
ATOM     13  C17 UNL     1      27.293  -7.392 -44.404  0.00  0.00    +0.000 A 
ATOM     14  C18 UNL     1      28.150  -7.290 -45.513  0.00  0.00    +0.000 A 
ATOM     15  C19 UNL     1      27.625  -7.052 -46.784  0.00  0.00    +0.000 A 
ATOM     16  C20 UNL     1      26.245  -6.919 -46.941  0.00  0.00    +0.000 A 
ATOM     17  N3  UNL     1      25.425  -7.023 -45.864  0.00  0.00    +0.000 NA
ATOM     18  C21 UNL     1      25.910  -7.254 -44.615  0.00  0.00    +0.000 A 
ENDBRANCH  10  13
ENDBRANCH   1  11
BRANCH   5  19
ATOM     19  C6  UNL     1      30.530  -9.393 -40.978  0.00  0.00    +0.000 C 
ATOM     20  O2  UNL     1      30.977  -8.224 -41.136  0.00  0.00    +0.000 OA
ATOM     21  N2  UNL     1      31.331 -10.524 -41.344  0.00  0.00    +0.000 N 
ATOM     22  H2  UNL     1      30.946 -11.487 -41.219  0.00  0.00    +0.000 HD
BRANCH  21  23
ATOM     23  C7  UNL     1      32.623 -10.379 -42.011  0.00  0.00    +0.000 C 
BRANCH  23  24
ATOM     24  C8  UNL     1      32.660 -11.219 -43.260  0.00  0.00    +0.000 A 
ATOM     25  C9  UNL     1      33.340 -10.756 -44.398  0.00  0.00    +0.000 A 
ATOM     26  C10 UNL     1      33.409 -11.549 -45.548  0.00  0.00    +0.000 A 
ATOM     27  C11 UNL     1      32.805 -12.808 -45.569  0.00  0.00    +0.000 A 
ATOM     28  C12 UNL     1      32.136 -13.281 -44.436  0.00  0.00    +0.000 A 
ATOM     29  C13 UNL     1      32.063 -12.492 -43.285  0.00  0.00    +0.000 A 
ENDBRANCH  23  24
ENDBRANCH  21  23
ENDBRANCH   5  19
TORSDOF 5
ENDMDL
MODEL 5
REMARK VINA RESULT:    -5.957      2.403      6.238
REMARK INTER + INTRA:          -9.191
REMARK INTER:                  -7.281
REMARK INTRA:                  -1.910
REMARK UNBOUND:                -1.493
REMARK  Name = resultss/4CJN/ligands/lig_264_t0.pdb
REMARK  5 active torsions:
REMARK  status: ('A' for Active; 'I' for Inactive)
REMARK    1  A    between atoms: C1_2  and  C17_22
REMARK    2  A    between atoms: N1_3  and  C2_4
REMARK    3  A    between atoms: C5_8  and  C6_9
REMARK    4  A    between atoms: N2_11  and  C7_12
REMARK    5  A    between atoms: C7_12  and  C8_13
REMARK                            x       y       z     vdW  Elec       q    Type
REMARK                         _______ _______ _______ _____ _____    ______ ____
ROOT
ATOM      1  C2  UNL     1      26.281  -9.272 -36.388  0.00  0.00    +0.000 A 
ATOM      2  S1  UNL     1      26.177  -9.730 -34.757  0.00  0.00    +0.000 S 
ATOM      3  C3  UNL     1      24.797  -8.812 -34.487  0.00  0.00    +0.000 A 
ATOM      4  C4  UNL     1      24.387  -8.204 -35.619  0.00  0.00    +0.000 A 
ATOM      5  C5  UNL     1      25.194  -8.453 -36.734  0.00  0.00    +0.000 A 
ATOM      6  C14 UNL     1      23.039  -7.612 -35.471  0.00  0.00    +0.000 C 
ATOM      7  C15 UNL     1      22.676  -7.914 -33.995  0.00  0.00    +0.000 C 
ATOM      8  C16 UNL     1      23.820  -8.761 -33.387  0.00  0.00    +0.000 C 
ENDROOT
BRANCH   1  11
ATOM      9  O1  UNL     1      28.340  -7.635 -37.507  0.00  0.00    +0.000 OA
ATOM     10  C1  UNL     1      28.181  -8.802 -37.962  0.00  0.00    +0.000 C 
ATOM     11  N1  UNL     1      27.313  -9.717 -37.276  0.00  0.00    +0.000 N 
ATOM     12  H1  UNL     1      27.541 -10.737 -37.293  0.00  0.00    +0.000 HD
BRANCH  10  13
ATOM     13  C17 UNL     1      28.907  -9.214 -39.184  0.00  0.00    +0.000 A 
ATOM     14  C18 UNL     1      28.497 -10.331 -39.929  0.00  0.00    +0.000 A 
ATOM     15  C19 UNL     1      29.176 -10.684 -41.096  0.00  0.00    +0.000 A 
ATOM     16  C20 UNL     1      30.263  -9.915 -41.513  0.00  0.00    +0.000 A 
ATOM     17  N3  UNL     1      30.650  -8.833 -40.788  0.00  0.00    +0.000 NA
ATOM     18  C21 UNL     1      30.005  -8.469 -39.648  0.00  0.00    +0.000 A 
ENDBRANCH  10  13
ENDBRANCH   1  11
BRANCH   5  19
ATOM     19  C6  UNL     1      24.849  -8.063 -38.111  0.00  0.00    +0.000 C 
ATOM     20  O2  UNL     1      24.588  -6.855 -38.362  0.00  0.00    +0.000 OA
ATOM     21  N2  UNL     1      24.778  -9.046 -39.152  0.00  0.00    +0.000 N 
ATOM     22  H2  UNL     1      24.985 -10.045 -38.929  0.00  0.00    +0.000 HD
BRANCH  21  23
ATOM     23  C7  UNL     1      24.298  -8.723 -40.494  0.00  0.00    +0.000 C 
BRANCH  23  24
ATOM     24  C8  UNL     1      25.463  -8.523 -41.428  0.00  0.00    +0.000 A 
ATOM     25  C9  UNL     1      25.678  -9.423 -42.484  0.00  0.00    +0.000 A 
ATOM     26  C10 UNL     1      26.737  -9.223 -43.376  0.00  0.00    +0.000 A 
ATOM     27  C11 UNL     1      27.583  -8.122 -43.222  0.00  0.00    +0.000 A 
ATOM     28  C12 UNL     1      27.369  -7.216 -42.180  0.00  0.00    +0.000 A 
ATOM     29  C13 UNL     1      26.313  -7.413 -41.285  0.00  0.00    +0.000 A 
ENDBRANCH  23  24
ENDBRANCH  21  23
ENDBRANCH   5  19
TORSDOF 5
ENDMDL
MODEL 6
REMARK VINA RESULT:    -5.916      2.728      7.435
REMARK INTER + INTRA:          -9.137
REMARK INTER:                  -8.103
REMARK INTRA:                  -1.034
REMARK UNBOUND:                -1.493
REMARK  Name = resultss/4CJN/ligands/lig_264_t0.pdb
REMARK  5 active torsions:
REMARK  status: ('A' for Active; 'I' for Inactive)
REMARK    1  A    between atoms: C1_2  and  C17_22
REMARK    2  A    between atoms: N1_3  and  C2_4
REMARK    3  A    between atoms: C5_8  and  C6_9
REMARK    4  A    between atoms: N2_11  and  C7_12
REMARK    5  A    between atoms: C7_12  and  C8_13
REMARK                            x       y       z     vdW  Elec       q    Type
REMARK                         _______ _______ _______ _____ _____    ______ ____
ROOT
ATOM      1  C2  UNL     1      28.844  -8.682 -35.242  0.00  0.00    +0.000 A 
ATOM      2  S1  UNL     1      30.219  -8.337 -34.309  0.00  0.00    +0.000 S 
ATOM      3  C3  UNL     1      31.253  -9.139 -35.360  0.00  0.00    +0.000 A 
ATOM      4  C4  UNL     1      30.584  -9.623 -36.427  0.00  0.00    +0.000 A 
ATOM      5  C5  UNL     1      29.209  -9.369 -36.411  0.00  0.00    +0.000 A 
ATOM      6  C14 UNL     1      31.502 -10.096 -37.487  0.00  0.00    +0.000 C 
ATOM      7  C15 UNL     1      32.906  -9.869 -36.870  0.00  0.00    +0.000 C 
ATOM      8  C16 UNL     1      32.718  -9.179 -35.498  0.00  0.00    +0.000 C 
ENDROOT
BRANCH   1  11
ATOM      9  O1  UNL     1      26.731 -10.411 -34.392  0.00  0.00    +0.000 OA
ATOM     10  C1  UNL     1      26.454  -9.213 -34.677  0.00  0.00    +0.000 C 
ATOM     11  N1  UNL     1      27.517  -8.271 -34.888  0.00  0.00    +0.000 N 
ATOM     12  H1  UNL     1      27.367  -7.272 -34.619  0.00  0.00    +0.000 HD
BRANCH  10  13
ATOM     13  C17 UNL     1      25.038  -8.793 -34.768  0.00  0.00    +0.000 A 
ATOM     14  C18 UNL     1      24.166  -8.944 -33.677  0.00  0.00    +0.000 A 
ATOM     15  C19 UNL     1      22.842  -8.512 -33.775  0.00  0.00    +0.000 A 
ATOM     16  C20 UNL     1      22.397  -7.930 -34.962  0.00  0.00    +0.000 A 
ATOM     17  N3  UNL     1      23.250  -7.786 -36.010  0.00  0.00    +0.000 NA
ATOM     18  C21 UNL     1      24.544  -8.198 -35.941  0.00  0.00    +0.000 A 
ENDBRANCH  10  13
ENDBRANCH   1  11
BRANCH   5  19
ATOM     19  C6  UNL     1      28.305  -9.624 -37.545  0.00  0.00    +0.000 C 
ATOM     20  O2  UNL     1      27.647 -10.699 -37.578  0.00  0.00    +0.000 OA
ATOM     21  N2  UNL     1      28.193  -8.678 -38.616  0.00  0.00    +0.000 N 
ATOM     22  H2  UNL     1      28.750  -7.796 -38.582  0.00  0.00    +0.000 HD
BRANCH  21  23
ATOM     23  C7  UNL     1      27.421  -8.960 -39.824  0.00  0.00    +0.000 C 
BRANCH  23  24
ATOM     24  C8  UNL     1      28.341  -9.363 -40.946  0.00  0.00    +0.000 A 
ATOM     25  C9  UNL     1      29.052 -10.571 -40.873  0.00  0.00    +0.000 A 
ATOM     26  C10 UNL     1      29.879 -10.967 -41.928  0.00  0.00    +0.000 A 
ATOM     27  C11 UNL     1      30.000 -10.162 -43.064  0.00  0.00    +0.000 A 
ATOM     28  C12 UNL     1      29.287  -8.963 -43.149  0.00  0.00    +0.000 A 
ATOM     29  C13 UNL     1      28.460  -8.563 -42.096  0.00  0.00    +0.000 A 
ENDBRANCH  23  24
ENDBRANCH  21  23
ENDBRANCH   5  19
TORSDOF 5
ENDMDL
MODEL 7
REMARK VINA RESULT:    -5.910      3.497      8.436
REMARK INTER + INTRA:          -9.130
REMARK INTER:                  -7.518
REMARK INTRA:                  -1.612
REMARK UNBOUND:                -1.493
REMARK  Name = resultss/4CJN/ligands/lig_264_t0.pdb
REMARK  5 active torsions:
REMARK  status: ('A' for Active; 'I' for Inactive)
REMARK    1  A    between atoms: C1_2  and  C17_22
REMARK    2  A    between atoms: N1_3  and  C2_4
REMARK    3  A    between atoms: C5_8  and  C6_9
REMARK    4  A    between atoms: N2_11  and  C7_12
REMARK    5  A    between atoms: C7_12  and  C8_13
REMARK                            x       y       z     vdW  Elec       q    Type
REMARK                         _______ _______ _______ _____ _____    ______ ____
ROOT
ATOM      1  C2  UNL     1      28.034  -9.354 -37.194  0.00  0.00    +0.000 A 
ATOM      2  S1  UNL     1      27.484  -9.712 -35.629  0.00  0.00    +0.000 S 
ATOM      3  C3  UNL     1      29.036  -9.762 -34.990  0.00  0.00    +0.000 A 
ATOM      4  C4  UNL     1      29.959  -9.466 -35.928  0.00  0.00    +0.000 A 
ATOM      5  C5  UNL     1      29.431  -9.208 -37.198  0.00  0.00    +0.000 A 
ATOM      6  C14 UNL     1      31.297  -9.243 -35.337  0.00  0.00    +0.000 C 
ATOM      7  C15 UNL     1      31.067  -9.506 -33.827  0.00  0.00    +0.000 C 
ATOM      8  C16 UNL     1      29.559  -9.781 -33.615  0.00  0.00    +0.000 C 
ENDROOT
BRANCH   1  11
ATOM      9  O1  UNL     1      27.597 -11.262 -39.277  0.00  0.00    +0.000 OA
ATOM     10  C1  UNL     1      27.162 -10.088 -39.433  0.00  0.00    +0.000 C 
ATOM     11  N1  UNL     1      27.169  -9.177 -38.322  0.00  0.00    +0.000 N 
ATOM     12  H1  UNL     1      26.411  -8.460 -38.254  0.00  0.00    +0.000 HD
BRANCH  10  13
ATOM     13  C17 UNL     1      26.633  -9.674 -40.751  0.00  0.00    +0.000 A 
ATOM     14  C18 UNL     1      27.332  -8.763 -41.559  0.00  0.00    +0.000 A 
ATOM     15  C19 UNL     1      26.831  -8.410 -42.813  0.00  0.00    +0.000 A 
ATOM     16  C20 UNL     1      25.634  -8.974 -43.255  0.00  0.00    +0.000 A 
ATOM     17  N3  UNL     1      24.967  -9.857 -42.468  0.00  0.00    +0.000 NA
ATOM     18  C21 UNL     1      25.433 -10.217 -41.242  0.00  0.00    +0.000 A 
ENDBRANCH  10  13
ENDBRANCH   1  11
BRANCH   5  19
ATOM     19  C6  UNL     1      30.211  -8.678 -38.328  0.00  0.00    +0.000 C 
ATOM     20  O2  UNL     1      29.903  -7.558 -38.818  0.00  0.00    +0.000 OA
ATOM     21  N2  UNL     1      31.290  -9.437 -38.891  0.00  0.00    +0.000 N 
ATOM     22  H2  UNL     1      31.529 -10.368 -38.484  0.00  0.00    +0.000 HD
BRANCH  21  23
ATOM     23  C7  UNL     1      31.990  -9.012 -40.101  0.00  0.00    +0.000 C 
BRANCH  23  24
ATOM     24  C8  UNL     1      31.756 -10.003 -41.211  0.00  0.00    +0.000 A 
ATOM     25  C9  UNL     1      30.453 -10.436 -41.503  0.00  0.00    +0.000 A 
ATOM     26  C10 UNL     1      30.226 -11.328 -42.556  0.00  0.00    +0.000 A 
ATOM     27  C11 UNL     1      31.297 -11.790 -43.326  0.00  0.00    +0.000 A 
ATOM     28  C12 UNL     1      32.596 -11.355 -43.048  0.00  0.00    +0.000 A 
ATOM     29  C13 UNL     1      32.827 -10.465 -41.996  0.00  0.00    +0.000 A 
ENDBRANCH  23  24
ENDBRANCH  21  23
ENDBRANCH   5  19
TORSDOF 5
ENDMDL
MODEL 8
REMARK VINA RESULT:    -5.873      2.348      5.358
REMARK INTER + INTRA:          -9.082
REMARK INTER:                  -7.560
REMARK INTRA:                  -1.523
REMARK UNBOUND:                -1.493
REMARK  Name = resultss/4CJN/ligands/lig_264_t0.pdb
REMARK  5 active torsions:
REMARK  status: ('A' for Active; 'I' for Inactive)
REMARK    1  A    between atoms: C1_2  and  C17_22
REMARK    2  A    between atoms: N1_3  and  C2_4
REMARK    3  A    between atoms: C5_8  and  C6_9
REMARK    4  A    between atoms: N2_11  and  C7_12
REMARK    5  A    between atoms: C7_12  and  C8_13
REMARK                            x       y       z     vdW  Elec       q    Type
REMARK                         _______ _______ _______ _____ _____    ______ ____
ROOT
ATOM      1  C2  UNL     1      27.663  -8.551 -39.181  0.00  0.00    +0.000 A 
ATOM      2  S1  UNL     1      26.776  -8.998 -40.557  0.00  0.00    +0.000 S 
ATOM      3  C3  UNL     1      28.146  -9.123 -41.519  0.00  0.00    +0.000 A 
ATOM      4  C4  UNL     1      29.266  -8.879 -40.807  0.00  0.00    +0.000 A 
ATOM      5  C5  UNL     1      29.039  -8.566 -39.463  0.00  0.00    +0.000 A 
ATOM      6  C14 UNL     1      30.489  -9.240 -41.557  0.00  0.00    +0.000 C 
ATOM      7  C15 UNL     1      29.939  -9.721 -42.924  0.00  0.00    +0.000 C 
ATOM      8  C16 UNL     1      28.393  -9.697 -42.852  0.00  0.00    +0.000 C 
ENDROOT
BRANCH   1  11
ATOM      9  O1  UNL     1      27.303 -10.408 -37.037  0.00  0.00    +0.000 OA
ATOM     10  C1  UNL     1      26.730  -9.285 -36.967  0.00  0.00    +0.000 C 
ATOM     11  N1  UNL     1      27.069  -8.258 -37.911  0.00  0.00    +0.000 N 
ATOM     12  H1  UNL     1      27.035  -7.259 -37.603  0.00  0.00    +0.000 HD
BRANCH  10  13
ATOM     13  C17 UNL     1      25.734  -9.040 -35.901  0.00  0.00    +0.000 A 
ATOM     14  C18 UNL     1      25.863  -9.638 -34.637  0.00  0.00    +0.000 A 
ATOM     15  C19 UNL     1      24.929  -9.369 -33.635  0.00  0.00    +0.000 A 
ATOM     16  C20 UNL     1      23.871  -8.499 -33.903  0.00  0.00    +0.000 A 
ATOM     17  N3  UNL     1      23.756  -7.923 -35.127  0.00  0.00    +0.000 NA
ATOM     18  C21 UNL     1      24.653  -8.169 -36.121  0.00  0.00    +0.000 A 
ENDBRANCH  10  13
ENDBRANCH   1  11
BRANCH   5  19
ATOM     19  C6  UNL     1      30.099  -8.451 -38.447  0.00  0.00    +0.000 C 
ATOM     20  O2  UNL     1      30.778  -7.390 -38.384  0.00  0.00    +0.000 OA
ATOM     21  N2  UNL     1      30.380  -9.539 -37.558  0.00  0.00    +0.000 N 
ATOM     22  H2  UNL     1      29.817 -10.416 -37.627  0.00  0.00    +0.000 HD
BRANCH  21  23
ATOM     23  C7  UNL     1      31.515  -9.518 -36.639  0.00  0.00    +0.000 C 
BRANCH  23  24
ATOM     24  C8  UNL     1      31.029  -9.488 -35.214  0.00  0.00    +0.000 A 
ATOM     25  C9  UNL     1      29.652  -9.518 -34.940  0.00  0.00    +0.000 A 
ATOM     26  C10 UNL     1      29.196  -9.527 -33.618  0.00  0.00    +0.000 A 
ATOM     27  C11 UNL     1      30.111  -9.511 -32.562  0.00  0.00    +0.000 A 
ATOM     28  C12 UNL     1      31.483  -9.493 -32.826  0.00  0.00    +0.000 A 
ATOM     29  C13 UNL     1      31.943  -9.482 -34.146  0.00  0.00    +0.000 A 
ENDBRANCH  23  24
ENDBRANCH  21  23
ENDBRANCH   5  19
TORSDOF 5
ENDMDL
MODEL 9
REMARK VINA RESULT:    -5.851      2.615      7.007
REMARK INTER + INTRA:          -9.053
REMARK INTER:                  -6.717
REMARK INTRA:                  -2.337
REMARK UNBOUND:                -1.493
REMARK  Name = resultss/4CJN/ligands/lig_264_t0.pdb
REMARK  5 active torsions:
REMARK  status: ('A' for Active; 'I' for Inactive)
REMARK    1  A    between atoms: C1_2  and  C17_22
REMARK    2  A    between atoms: N1_3  and  C2_4
REMARK    3  A    between atoms: C5_8  and  C6_9
REMARK    4  A    between atoms: N2_11  and  C7_12
REMARK    5  A    between atoms: C7_12  and  C8_13
REMARK                            x       y       z     vdW  Elec       q    Type
REMARK                         _______ _______ _______ _____ _____    ______ ____
ROOT
ATOM      1  C2  UNL     1      24.809  -7.674 -37.182  0.00  0.00    +0.000 A 
ATOM      2  S1  UNL     1      23.293  -7.286 -36.526  0.00  0.00    +0.000 S 
ATOM      3  C3  UNL     1      23.593  -8.112 -35.095  0.00  0.00    +0.000 A 
ATOM      4  C4  UNL     1      24.836  -8.635 -35.086  0.00  0.00    +0.000 A 
ATOM      5  C5  UNL     1      25.573  -8.395 -36.250  0.00  0.00    +0.000 A 
ATOM      6  C14 UNL     1      25.216  -9.133 -33.745  0.00  0.00    +0.000 C 
ATOM      7  C15 UNL     1      23.947  -8.874 -32.895  0.00  0.00    +0.000 C 
ATOM      8  C16 UNL     1      22.916  -8.142 -33.788  0.00  0.00    +0.000 C 
ENDROOT
BRANCH   1  11
ATOM      9  O1  UNL     1      24.557  -9.207 -39.582  0.00  0.00    +0.000 OA
ATOM     10  C1  UNL     1      25.275  -8.169 -39.601  0.00  0.00    +0.000 C 
ATOM     11  N1  UNL     1      25.242  -7.266 -38.486  0.00  0.00    +0.000 N 
ATOM     12  H1  UNL     1      25.378  -6.244 -38.661  0.00  0.00    +0.000 HD
BRANCH  10  13
ATOM     13  C17 UNL     1      26.125  -7.891 -40.780  0.00  0.00    +0.000 A 
ATOM     14  C18 UNL     1      27.353  -7.223 -40.647  0.00  0.00    +0.000 A 
ATOM     15  C19 UNL     1      28.154  -6.998 -41.768  0.00  0.00    +0.000 A 
ATOM     16  C20 UNL     1      27.723  -7.445 -43.017  0.00  0.00    +0.000 A 
ATOM     17  N3  UNL     1      26.535  -8.094 -43.135  0.00  0.00    +0.000 NA
ATOM     18  C21 UNL     1      25.736  -8.325 -42.059  0.00  0.00    +0.000 A 
ENDBRANCH  10  13
ENDBRANCH   1  11
BRANCH   5  19
ATOM     19  C6  UNL     1      27.007  -8.695 -36.400  0.00  0.00    +0.000 C 
ATOM     20  O2  UNL     1      27.855  -7.934 -35.859  0.00  0.00    +0.000 OA
ATOM     21  N2  UNL     1      27.441  -9.818 -37.177  0.00  0.00    +0.000 N 
ATOM     22  H2  UNL     1      26.729 -10.434 -37.630  0.00  0.00    +0.000 HD
BRANCH  21  23
ATOM     23  C7  UNL     1      28.851 -10.062 -37.470  0.00  0.00    +0.000 C 
BRANCH  23  24
ATOM     24  C8  UNL     1      29.062 -10.176 -38.957  0.00  0.00    +0.000 A 
ATOM     25  C9  UNL     1      30.260  -9.724 -39.533  0.00  0.00    +0.000 A 
ATOM     26  C10 UNL     1      30.475  -9.860 -40.908  0.00  0.00    +0.000 A 
ATOM     27  C11 UNL     1      29.499 -10.451 -41.715  0.00  0.00    +0.000 A 
ATOM     28  C12 UNL     1      28.309 -10.913 -41.147  0.00  0.00    +0.000 A 
ATOM     29  C13 UNL     1      28.089 -10.778 -39.774  0.00  0.00    +0.000 A 
ENDBRANCH  23  24
ENDBRANCH  21  23
ENDBRANCH   5  19
TORSDOF 5
ENDMDL
