MODEL 1
REMARK VINA RESULT:    -5.392      0.000      0.000
REMARK INTER + INTRA:          -6.747
REMARK INTER:                  -6.496
REMARK INTRA:                  -0.252
REMARK UNBOUND:                -0.252
REMARK  Name = resultss/4CJN/ligands/lig_306_t1.pdb
REMARK  7 active torsions:
REMARK  status: ('A' for Active; 'I' for Inactive)
REMARK    1  A    between atoms: C1_1  and  O1_2
REMARK    2  A    between atoms: O1_2  and  C2_3
REMARK    3  A    between atoms: C6_8  and  O3_9
REMARK    4  A    between atoms: C8_11  and  O4_12
REMARK    5  A    between atoms: O4_12  and  C9_13
REMARK    6  A    between atoms: C10_14  and  O5_15
REMARK    7  A    between atoms: O5_15  and  C11_16
REMARK                            x       y       z     vdW  Elec       q    Type
REMARK                         _______ _______ _______ _____ _____    ______ ____
ROOT
ATOM      1  C2  UNL     1      27.015  -9.631 -41.743  0.00  0.00    +0.000 A 
ATOM      2  C3  UNL     1      28.397  -9.837 -41.834  0.00  0.00    +0.000 A 
ATOM      3  C4  UNL     1      29.199  -9.974 -40.693  0.00  0.00    +0.000 A 
ATOM      4  O2  UNL     1      30.438 -10.155 -40.840  0.00  0.00    +0.000 OA
ATOM      5  C5  UNL     1      28.617  -9.898 -39.409  0.00  0.00    +0.000 A 
ATOM      6  C6  UNL     1      29.329 -10.059 -38.206  0.00  0.00    +0.000 A 
ATOM      7  C7  UNL     1      28.651  -9.879 -36.965  0.00  0.00    +0.000 A 
ATOM      8  C8  UNL     1      29.325  -9.808 -35.711  0.00  0.00    +0.000 A 
ATOM      9  C10 UNL     1      28.564  -9.762 -34.509  0.00  0.00    +0.000 A 
ATOM     10  C12 UNL     1      27.163  -9.686 -34.580  0.00  0.00    +0.000 A 
ATOM     11  C13 UNL     1      26.516  -9.637 -35.807  0.00  0.00    +0.000 A 
ATOM     12  C14 UNL     1      27.238  -9.717 -36.993  0.00  0.00    +0.000 A 
ATOM     13  O6  UNL     1      26.570  -9.629 -38.136  0.00  0.00    +0.000 OA
ATOM     14  C15 UNL     1      27.156  -9.685 -39.319  0.00  0.00    +0.000 A 
ATOM     15  C16 UNL     1      26.398  -9.557 -40.481  0.00  0.00    +0.000 A 
ENDROOT
BRANCH   1  17
ATOM     16  C1  UNL     1      24.896  -9.219 -43.008  0.00  0.00    +0.000 C 
ATOM     17  O1  UNL     1      26.288  -9.505 -42.938  0.00  0.00    +0.000 OA
ENDBRANCH   1  17
BRANCH   6  18
ATOM     18  O3  UNL     1      30.670 -10.449 -38.274  0.00  0.00    +0.000 OA
ATOM     19  H5  UNL     1      31.439  -9.832 -38.054  0.00  0.00    +0.000 HD
ENDBRANCH   6  18
BRANCH   8  20
ATOM     20  O4  UNL     1      30.731  -9.728 -35.709  0.00  0.00    +0.000 OA
ATOM     21  C9  UNL     1      31.530  -8.559 -35.556  0.00  0.00    +0.000 C 
ENDBRANCH   8  20
BRANCH   9  22
ATOM     22  O5  UNL     1      29.213  -9.788 -33.264  0.00  0.00    +0.000 OA
ATOM     23  C11 UNL     1      29.488  -8.646 -32.459  0.00  0.00    +0.000 C 
ENDBRANCH   9  22
TORSDOF 4
ENDMDL
MODEL 2
REMARK VINA RESULT:    -5.196      1.376      1.657
REMARK INTER + INTRA:          -6.511
REMARK INTER:                  -6.254
REMARK INTRA:                  -0.257
REMARK UNBOUND:                -0.252
REMARK  Name = resultss/4CJN/ligands/lig_306_t1.pdb
REMARK  7 active torsions:
REMARK  status: ('A' for Active; 'I' for Inactive)
REMARK    1  A    between atoms: C1_1  and  O1_2
REMARK    2  A    between atoms: O1_2  and  C2_3
REMARK    3  A    between atoms: C6_8  and  O3_9
REMARK    4  A    between atoms: C8_11  and  O4_12
REMARK    5  A    between atoms: O4_12  and  C9_13
REMARK    6  A    between atoms: C10_14  and  O5_15
REMARK    7  A    between atoms: O5_15  and  C11_16
REMARK                            x       y       z     vdW  Elec       q    Type
REMARK                         _______ _______ _______ _____ _____    ______ ____
ROOT
ATOM      1  C2  UNL     1      25.038  -8.876 -41.815  0.00  0.00    +0.000 A 
ATOM      2  C3  UNL     1      26.278  -9.413 -42.184  0.00  0.00    +0.000 A 
ATOM      3  C4  UNL     1      27.222  -9.811 -41.229  0.00  0.00    +0.000 A 
ATOM      4  O2  UNL     1      28.322 -10.286 -41.623  0.00  0.00    +0.000 OA
ATOM      5  C5  UNL     1      26.937  -9.669 -39.854  0.00  0.00    +0.000 A 
ATOM      6  C6  UNL     1      27.803 -10.072 -38.819  0.00  0.00    +0.000 A 
ATOM      7  C7  UNL     1      27.446  -9.803 -37.466  0.00  0.00    +0.000 A 
ATOM      8  C8  UNL     1      28.344  -9.975 -36.373  0.00  0.00    +0.000 A 
ATOM      9  C10 UNL     1      27.867  -9.811 -35.042  0.00  0.00    +0.000 A 
ATOM     10  C12 UNL     1      26.545  -9.386 -34.829  0.00  0.00    +0.000 A 
ATOM     11  C13 UNL     1      25.708  -9.105 -35.900  0.00  0.00    +0.000 A 
ATOM     12  C14 UNL     1      26.143  -9.293 -37.208  0.00  0.00    +0.000 A 
ATOM     13  O6  UNL     1      25.312  -8.975 -38.192  0.00  0.00    +0.000 OA
ATOM     14  C15 UNL     1      25.626  -9.105 -39.469  0.00  0.00    +0.000 A 
ATOM     15  C16 UNL     1      24.716  -8.725 -40.454  0.00  0.00    +0.000 A 
ENDROOT
BRANCH   1  17
ATOM     16  C1  UNL     1      22.795  -8.124 -42.631  0.00  0.00    +0.000 C 
ATOM     17  O1  UNL     1      24.151  -8.503 -42.838  0.00  0.00    +0.000 OA
ENDBRANCH   1  17
BRANCH   6  18
ATOM     18  O3  UNL     1      28.961 -10.778 -39.159  0.00  0.00    +0.000 OA
ATOM     19  H5  UNL     1      29.206 -11.017 -40.110  0.00  0.00    +0.000 HD
ENDBRANCH   6  18
BRANCH   8  20
ATOM     20  O4  UNL     1      29.698 -10.246 -36.654  0.00  0.00    +0.000 OA
ATOM     21  C9  UNL     1      30.799  -9.350 -36.551  0.00  0.00    +0.000 C 
ENDBRANCH   8  20
BRANCH   9  22
ATOM     22  O5  UNL     1      28.715 -10.071 -33.954  0.00  0.00    +0.000 OA
ATOM     23  C11 UNL     1      29.263  -9.082 -33.087  0.00  0.00    +0.000 C 
ENDBRANCH   9  22
TORSDOF 4
ENDMDL
MODEL 3
REMARK VINA RESULT:    -5.135      2.849      4.712
REMARK INTER + INTRA:          -6.438
REMARK INTER:                  -6.447
REMARK INTRA:                   0.009
REMARK UNBOUND:                -0.252
REMARK  Name = resultss/4CJN/ligands/lig_306_t1.pdb
REMARK  7 active torsions:
REMARK  status: ('A' for Active; 'I' for Inactive)
REMARK    1  A    between atoms: C1_1  and  O1_2
REMARK    2  A    between atoms: O1_2  and  C2_3
REMARK    3  A    between atoms: C6_8  and  O3_9
REMARK    4  A    between atoms: C8_11  and  O4_12
REMARK    5  A    between atoms: O4_12  and  C9_13
REMARK    6  A    between atoms: C10_14  and  O5_15
REMARK    7  A    between atoms: O5_15  and  C11_16
REMARK                            x       y       z     vdW  Elec       q    Type
REMARK                         _______ _______ _______ _____ _____    ______ ____
ROOT
ATOM      1  C2  UNL     1      27.991 -10.486 -40.312  0.00  0.00    +0.000 A 
ATOM      2  C3  UNL     1      27.026  -9.702 -40.956  0.00  0.00    +0.000 A 
ATOM      3  C4  UNL     1      26.050  -8.997 -40.239  0.00  0.00    +0.000 A 
ATOM      4  O2  UNL     1      25.207  -8.310 -40.876  0.00  0.00    +0.000 OA
ATOM      5  C5  UNL     1      26.018  -9.074 -38.830  0.00  0.00    +0.000 A 
ATOM      6  C6  UNL     1      25.102  -8.377 -38.019  0.00  0.00    +0.000 A 
ATOM      7  C7  UNL     1      25.110  -8.597 -36.611  0.00  0.00    +0.000 A 
ATOM      8  C8  UNL     1      24.093  -8.110 -35.740  0.00  0.00    +0.000 A 
ATOM      9  C10 UNL     1      24.246  -8.258 -34.333  0.00  0.00    +0.000 A 
ATOM     10  C12 UNL     1      25.347  -8.969 -33.828  0.00  0.00    +0.000 A 
ATOM     11  C13 UNL     1      26.274  -9.544 -34.686  0.00  0.00    +0.000 A 
ATOM     12  C14 UNL     1      26.163  -9.381 -36.063  0.00  0.00    +0.000 A 
ATOM     13  O6  UNL     1      27.058  -9.983 -36.836  0.00  0.00    +0.000 OA
ATOM     14  C15 UNL     1      27.041  -9.901 -38.155  0.00  0.00    +0.000 A 
ATOM     15  C16 UNL     1      27.995 -10.582 -38.909  0.00  0.00    +0.000 A 
ENDROOT
BRANCH   1  17
ATOM     16  C1  UNL     1      30.140 -10.578 -41.591  0.00  0.00    +0.000 C 
ATOM     17  O1  UNL     1      28.933 -11.158 -41.109  0.00  0.00    +0.000 OA
ENDBRANCH   1  17
BRANCH   6  18
ATOM     18  O3  UNL     1      24.253  -7.446 -38.625  0.00  0.00    +0.000 OA
ATOM     19  H5  UNL     1      23.601  -6.872 -38.109  0.00  0.00    +0.000 HD
ENDBRANCH   6  18
BRANCH   8  20
ATOM     20  O4  UNL     1      22.935  -7.545 -36.311  0.00  0.00    +0.000 OA
ATOM     21  C9  UNL     1      22.538  -6.178 -36.286  0.00  0.00    +0.000 C 
ENDBRANCH   8  20
BRANCH   9  22
ATOM     22  O5  UNL     1      23.299  -7.699 -33.459  0.00  0.00    +0.000 OA
ATOM     23  C11 UNL     1      23.430  -6.439 -32.807  0.00  0.00    +0.000 C 
ENDBRANCH   9  22
TORSDOF 4
ENDMDL
MODEL 4
REMARK VINA RESULT:    -5.104      4.843      9.193
REMARK INTER + INTRA:          -6.400
REMARK INTER:                  -6.169
REMARK INTRA:                  -0.231
REMARK UNBOUND:                -0.252
REMARK  Name = resultss/4CJN/ligands/lig_306_t1.pdb
REMARK  7 active torsions:
REMARK  status: ('A' for Active; 'I' for Inactive)
REMARK    1  A    between atoms: C1_1  and  O1_2
REMARK    2  A    between atoms: O1_2  and  C2_3
REMARK    3  A    between atoms: C6_8  and  O3_9
REMARK    4  A    between atoms: C8_11  and  O4_12
REMARK    5  A    between atoms: O4_12  and  C9_13
REMARK    6  A    between atoms: C10_14  and  O5_15
REMARK    7  A    between atoms: O5_15  and  C11_16
REMARK                            x       y       z     vdW  Elec       q    Type
REMARK                         _______ _______ _______ _____ _____    ______ ____
ROOT
ATOM      1  C2  UNL     1      28.622  -9.336 -42.195  0.00  0.00    +0.000 A 
ATOM      2  C3  UNL     1      27.624  -9.991 -41.464  0.00  0.00    +0.000 A 
ATOM      3  C4  UNL     1      26.264  -9.813 -41.750  0.00  0.00    +0.000 A 
ATOM      4  O2  UNL     1      25.412 -10.429 -41.054  0.00  0.00    +0.000 OA
ATOM      5  C5  UNL     1      25.870  -8.949 -42.794  0.00  0.00    +0.000 A 
ATOM      6  C6  UNL     1      24.534  -8.732 -43.182  0.00  0.00    +0.000 A 
ATOM      7  C7  UNL     1      24.250  -7.772 -44.196  0.00  0.00    +0.000 A 
ATOM      8  C8  UNL     1      22.930  -7.329 -44.503  0.00  0.00    +0.000 A 
ATOM      9  C10 UNL     1      22.722  -6.471 -45.619  0.00  0.00    +0.000 A 
ATOM     10  C12 UNL     1      23.829  -5.993 -46.340  0.00  0.00    +0.000 A 
ATOM     11  C13 UNL     1      25.121  -6.333 -45.965  0.00  0.00    +0.000 A 
ATOM     12  C14 UNL     1      25.346  -7.199 -44.900  0.00  0.00    +0.000 A 
ATOM     13  O6  UNL     1      26.602  -7.461 -44.565  0.00  0.00    +0.000 OA
ATOM     14  C15 UNL     1      26.928  -8.262 -43.565  0.00  0.00    +0.000 A 
ATOM     15  C16 UNL     1      28.269  -8.472 -43.247  0.00  0.00    +0.000 A 
ENDROOT
BRANCH   1  17
ATOM     16  C1  UNL     1      30.659 -10.786 -42.095  0.00  0.00    +0.000 C 
ATOM     17  O1  UNL     1      29.960  -9.572 -41.841  0.00  0.00    +0.000 OA
ENDBRANCH   1  17
BRANCH   6  18
ATOM     18  O3  UNL     1      23.536  -9.514 -42.593  0.00  0.00    +0.000 OA
ATOM     19  H5  UNL     1      23.271 -10.427 -42.937  0.00  0.00    +0.000 HD
ENDBRANCH   6  18
BRANCH   8  20
ATOM     20  O4  UNL     1      21.878  -7.715 -43.649  0.00  0.00    +0.000 OA
ATOM     21  C9  UNL     1      21.226  -6.917 -42.666  0.00  0.00    +0.000 C 
ENDBRANCH   8  20
BRANCH   9  22
ATOM     22  O5  UNL     1      21.418  -6.104 -45.990  0.00  0.00    +0.000 OA
ATOM     23  C11 UNL     1      20.561  -6.866 -46.834  0.00  0.00    +0.000 C 
ENDBRANCH   9  22
TORSDOF 4
ENDMDL
MODEL 5
REMARK VINA RESULT:    -5.067      2.076      2.705
REMARK INTER + INTRA:          -6.356
REMARK INTER:                  -6.108
REMARK INTRA:                  -0.248
REMARK UNBOUND:                -0.252
REMARK  Name = resultss/4CJN/ligands/lig_306_t1.pdb
REMARK  7 active torsions:
REMARK  status: ('A' for Active; 'I' for Inactive)
REMARK    1  A    between atoms: C1_1  and  O1_2
REMARK    2  A    between atoms: O1_2  and  C2_3
REMARK    3  A    between atoms: C6_8  and  O3_9
REMARK    4  A    between atoms: C8_11  and  O4_12
REMARK    5  A    between atoms: O4_12  and  C9_13
REMARK    6  A    between atoms: C10_14  and  O5_15
REMARK    7  A    between atoms: O5_15  and  C11_16
REMARK                            x       y       z     vdW  Elec       q    Type
REMARK                         _______ _______ _______ _____ _____    ______ ____
ROOT
ATOM      1  C2  UNL     1      27.035  -8.546 -42.953  0.00  0.00    +0.000 A 
ATOM      2  C3  UNL     1      27.969  -9.530 -42.608  0.00  0.00    +0.000 A 
ATOM      3  C4  UNL     1      28.084 -10.009 -41.296  0.00  0.00    +0.000 A 
ATOM      4  O2  UNL     1      28.946 -10.895 -41.047  0.00  0.00    +0.000 OA
ATOM      5  C5  UNL     1      27.251  -9.492 -40.281  0.00  0.00    +0.000 A 
ATOM      6  C6  UNL     1      27.266  -9.931 -38.944  0.00  0.00    +0.000 A 
ATOM      7  C7  UNL     1      26.437  -9.278 -37.986  0.00  0.00    +0.000 A 
ATOM      8  C8  UNL     1      26.540  -9.504 -36.582  0.00  0.00    +0.000 A 
ATOM      9  C10 UNL     1      25.587  -8.912 -35.706  0.00  0.00    +0.000 A 
ATOM     10  C12 UNL     1      24.620  -8.035 -36.227  0.00  0.00    +0.000 A 
ATOM     11  C13 UNL     1      24.598  -7.726 -37.580  0.00  0.00    +0.000 A 
ATOM     12  C14 UNL     1      25.497  -8.320 -38.458  0.00  0.00    +0.000 A 
ATOM     13  O6  UNL     1      25.452  -7.960 -39.734  0.00  0.00    +0.000 OA
ATOM     14  C15 UNL     1      26.265  -8.454 -40.651  0.00  0.00    +0.000 A 
ATOM     15  C16 UNL     1      26.183  -8.011 -41.970  0.00  0.00    +0.000 A 
ENDROOT
BRANCH   1  17
ATOM     16  C1  UNL     1      27.992  -7.342 -44.927  0.00  0.00    +0.000 C 
ATOM     17  O1  UNL     1      26.987  -8.124 -44.292  0.00  0.00    +0.000 OA
ENDBRANCH   1  17
BRANCH   6  18
ATOM     18  O3  UNL     1      28.054 -11.039 -38.617  0.00  0.00    +0.000 OA
ATOM     19  H5  UNL     1      27.694 -11.981 -38.565  0.00  0.00    +0.000 HD
ENDBRANCH   6  18
BRANCH   8  20
ATOM     20  O4  UNL     1      27.624 -10.265 -36.103  0.00  0.00    +0.000 OA
ATOM     21  C9  UNL     1      28.826  -9.780 -35.514  0.00  0.00    +0.000 C 
ENDBRANCH   8  20
BRANCH   9  22
ATOM     22  O5  UNL     1      25.618  -9.203 -34.333  0.00  0.00    +0.000 OA
ATOM     23  C11 UNL     1      25.999  -8.288 -33.310  0.00  0.00    +0.000 C 
ENDBRANCH   9  22
TORSDOF 4
ENDMDL
MODEL 6
REMARK VINA RESULT:    -4.889      2.033      3.888
REMARK INTER + INTRA:          -6.141
REMARK INTER:                  -6.130
REMARK INTRA:                  -0.012
REMARK UNBOUND:                -0.252
REMARK  Name = resultss/4CJN/ligands/lig_306_t1.pdb
REMARK  7 active torsions:
REMARK  status: ('A' for Active; 'I' for Inactive)
REMARK    1  A    between atoms: C1_1  and  O1_2
REMARK    2  A    between atoms: O1_2  and  C2_3
REMARK    3  A    between atoms: C6_8  and  O3_9
REMARK    4  A    between atoms: C8_11  and  O4_12
REMARK    5  A    between atoms: O4_12  and  C9_13
REMARK    6  A    between atoms: C10_14  and  O5_15
REMARK    7  A    between atoms: O5_15  and  C11_16
REMARK                            x       y       z     vdW  Elec       q    Type
REMARK                         _______ _______ _______ _____ _____    ______ ____
ROOT
ATOM      1  C2  UNL     1      29.386 -10.256 -42.244  0.00  0.00    +0.000 A 
ATOM      2  C3  UNL     1      28.227  -9.593 -42.666  0.00  0.00    +0.000 A 
ATOM      3  C4  UNL     1      27.272  -9.125 -41.754  0.00  0.00    +0.000 A 
ATOM      4  O2  UNL     1      26.248  -8.538 -42.195  0.00  0.00    +0.000 OA
ATOM      5  C5  UNL     1      27.462  -9.326 -40.370  0.00  0.00    +0.000 A 
ATOM      6  C6  UNL     1      26.580  -8.863 -39.374  0.00  0.00    +0.000 A 
ATOM      7  C7  UNL     1      26.831  -9.197 -38.011  0.00  0.00    +0.000 A 
ATOM      8  C8  UNL     1      25.892  -8.963 -36.965  0.00  0.00    +0.000 A 
ATOM      9  C10 UNL     1      26.273  -9.202 -35.615  0.00  0.00    +0.000 A 
ATOM     10  C12 UNL     1      27.534  -9.758 -35.341  0.00  0.00    +0.000 A 
ATOM     11  C13 UNL     1      28.400 -10.095 -36.371  0.00  0.00    +0.000 A 
ATOM     12  C14 UNL     1      28.062  -9.837 -37.695  0.00  0.00    +0.000 A 
ATOM     13  O6  UNL     1      28.914 -10.212 -38.640  0.00  0.00    +0.000 OA
ATOM     14  C15 UNL     1      28.689 -10.023 -39.929  0.00  0.00    +0.000 A 
ATOM     15  C16 UNL     1      29.614 -10.468 -40.872  0.00  0.00    +0.000 A 
ENDROOT
BRANCH   1  17
ATOM     16  C1  UNL     1      31.244 -11.731 -43.041  0.00  0.00    +0.000 C 
ATOM     17  O1  UNL     1      30.291 -10.690 -43.226  0.00  0.00    +0.000 OA
ENDBRANCH   1  17
BRANCH   6  18
ATOM     18  O3  UNL     1      25.517  -8.040 -39.758  0.00  0.00    +0.000 OA
ATOM     19  H5  UNL     1      25.536  -7.033 -39.672  0.00  0.00    +0.000 HD
ENDBRANCH   6  18
BRANCH   8  20
ATOM     20  O4  UNL     1      24.589  -8.554 -37.313  0.00  0.00    +0.000 OA
ATOM     21  C9  UNL     1      23.932  -7.348 -36.938  0.00  0.00    +0.000 C 
ENDBRANCH   8  20
BRANCH   9  22
ATOM     22  O5  UNL     1      25.392  -8.885 -34.569  0.00  0.00    +0.000 OA
ATOM     23  C11 UNL     1      25.785  -8.459 -33.267  0.00  0.00    +0.000 C 
ENDBRANCH   9  22
TORSDOF 4
ENDMDL
MODEL 7
REMARK VINA RESULT:    -4.797      3.392      5.319
REMARK INTER + INTRA:          -6.031
REMARK INTER:                  -5.813
REMARK INTRA:                  -0.218
REMARK UNBOUND:                -0.252
REMARK  Name = resultss/4CJN/ligands/lig_306_t1.pdb
REMARK  7 active torsions:
REMARK  status: ('A' for Active; 'I' for Inactive)
REMARK    1  A    between atoms: C1_1  and  O1_2
REMARK    2  A    between atoms: O1_2  and  C2_3
REMARK    3  A    between atoms: C6_8  and  O3_9
REMARK    4  A    between atoms: C8_11  and  O4_12
REMARK    5  A    between atoms: O4_12  and  C9_13
REMARK    6  A    between atoms: C10_14  and  O5_15
REMARK    7  A    between atoms: O5_15  and  C11_16
REMARK                            x       y       z     vdW  Elec       q    Type
REMARK                         _______ _______ _______ _____ _____    ______ ____
ROOT
ATOM      1  C2  UNL     1      23.474  -7.141 -34.853  0.00  0.00    +0.000 A 
ATOM      2  C3  UNL     1      23.671  -7.760 -36.093  0.00  0.00    +0.000 A 
ATOM      3  C4  UNL     1      24.856  -8.444 -36.396  0.00  0.00    +0.000 A 
ATOM      4  O2  UNL     1      24.975  -8.979 -37.531  0.00  0.00    +0.000 OA
ATOM      5  C5  UNL     1      25.892  -8.516 -35.440  0.00  0.00    +0.000 A 
ATOM      6  C6  UNL     1      27.102  -9.208 -35.635  0.00  0.00    +0.000 A 
ATOM      7  C7  UNL     1      28.112  -9.143 -34.631  0.00  0.00    +0.000 A 
ATOM      8  C8  UNL     1      29.439  -9.625 -34.827  0.00  0.00    +0.000 A 
ATOM      9  C10 UNL     1      30.346  -9.643 -33.731  0.00  0.00    +0.000 A 
ATOM     10  C12 UNL     1      29.953  -9.095 -32.498  0.00  0.00    +0.000 A 
ATOM     11  C13 UNL     1      28.700  -8.519 -32.346  0.00  0.00    +0.000 A 
ATOM     12  C14 UNL     1      27.785  -8.522 -33.394  0.00  0.00    +0.000 A 
ATOM     13  O6  UNL     1      26.615  -7.926 -33.201  0.00  0.00    +0.000 OA
ATOM     14  C15 UNL     1      25.678  -7.864 -34.131  0.00  0.00    +0.000 A 
ATOM     15  C16 UNL     1      24.482  -7.197 -33.873  0.00  0.00    +0.000 A 
ENDROOT
BRANCH   1  17
ATOM     16  C1  UNL     1      21.269  -6.253 -35.635  0.00  0.00    +0.000 C 
ATOM     17  O1  UNL     1      22.256  -6.477 -34.634  0.00  0.00    +0.000 OA
ENDBRANCH   1  17
BRANCH   6  18
ATOM     18  O3  UNL     1      27.245  -9.987 -36.787  0.00  0.00    +0.000 OA
ATOM     19  H5  UNL     1      26.645 -10.771 -37.005  0.00  0.00    +0.000 HD
ENDBRANCH   6  18
BRANCH   8  20
ATOM     20  O4  UNL     1      29.826 -10.016 -36.124  0.00  0.00    +0.000 OA
ATOM     21  C9  UNL     1      30.609  -9.275 -37.053  0.00  0.00    +0.000 C 
ENDBRANCH   8  20
BRANCH   9  22
ATOM     22  O5  UNL     1      31.625 -10.204 -33.885  0.00  0.00    +0.000 OA
ATOM     23  C11 UNL     1      32.817  -9.700 -33.291  0.00  0.00    +0.000 C 
ENDBRANCH   9  22
TORSDOF 4
ENDMDL
MODEL 8
REMARK VINA RESULT:    -4.771      1.495      3.120
REMARK INTER + INTRA:          -5.999
REMARK INTER:                  -6.005
REMARK INTRA:                   0.005
REMARK UNBOUND:                -0.252
REMARK  Name = resultss/4CJN/ligands/lig_306_t1.pdb
REMARK  7 active torsions:
REMARK  status: ('A' for Active; 'I' for Inactive)
REMARK    1  A    between atoms: C1_1  and  O1_2
REMARK    2  A    between atoms: O1_2  and  C2_3
REMARK    3  A    between atoms: C6_8  and  O3_9
REMARK    4  A    between atoms: C8_11  and  O4_12
REMARK    5  A    between atoms: O4_12  and  C9_13
REMARK    6  A    between atoms: C10_14  and  O5_15
REMARK    7  A    between atoms: O5_15  and  C11_16
REMARK                            x       y       z     vdW  Elec       q    Type
REMARK                         _______ _______ _______ _____ _____    ______ ____
ROOT
ATOM      1  C2  UNL     1      27.080  -8.999 -42.017  0.00  0.00    +0.000 A 
ATOM      2  C3  UNL     1      25.792  -9.044 -41.470  0.00  0.00    +0.000 A 
ATOM      3  C4  UNL     1      25.581  -9.160 -40.090  0.00  0.00    +0.000 A 
ATOM      4  O2  UNL     1      24.397  -9.198 -39.658  0.00  0.00    +0.000 OA
ATOM      5  C5  UNL     1      26.683  -9.240 -39.212  0.00  0.00    +0.000 A 
ATOM      6  C6  UNL     1      26.576  -9.322 -37.811  0.00  0.00    +0.000 A 
ATOM      7  C7  UNL     1      27.757  -9.484 -37.029  0.00  0.00    +0.000 A 
ATOM      8  C8  UNL     1      27.736  -9.789 -35.637  0.00  0.00    +0.000 A 
ATOM      9  C10 UNL     1      28.955  -9.802 -34.905  0.00  0.00    +0.000 A 
ATOM     10  C12 UNL     1      30.171  -9.611 -35.582  0.00  0.00    +0.000 A 
ATOM     11  C13 UNL     1      30.196  -9.430 -36.958  0.00  0.00    +0.000 A 
ATOM     12  C14 UNL     1      29.014  -9.379 -37.688  0.00  0.00    +0.000 A 
ATOM     13  O6  UNL     1      29.100  -9.240 -39.005  0.00  0.00    +0.000 OA
ATOM     14  C15 UNL     1      28.041  -9.189 -39.794  0.00  0.00    +0.000 A 
ATOM     15  C16 UNL     1      28.204  -9.070 -41.174  0.00  0.00    +0.000 A 
ENDROOT
BRANCH   1  17
ATOM     16  C1  UNL     1      26.800  -7.740 -44.161  0.00  0.00    +0.000 C 
ATOM     17  O1  UNL     1      27.200  -8.882 -43.411  0.00  0.00    +0.000 OA
ENDBRANCH   1  17
BRANCH   6  18
ATOM     18  O3  UNL     1      25.311  -9.181 -37.232  0.00  0.00    +0.000 OA
ATOM     19  H5  UNL     1      24.475  -9.596 -37.618  0.00  0.00    +0.000 HD
ENDBRANCH   6  18
BRANCH   8  20
ATOM     20  O4  UNL     1      26.504 -10.127 -35.044  0.00  0.00    +0.000 OA
ATOM     21  C9  UNL     1      25.788  -9.391 -34.058  0.00  0.00    +0.000 C 
ENDBRANCH   8  20
BRANCH   9  22
ATOM     22  O5  UNL     1      28.940 -10.007 -33.516  0.00  0.00    +0.000 OA
ATOM     23  C11 UNL     1      29.944  -9.560 -32.610  0.00  0.00    +0.000 C 
ENDBRANCH   9  22
TORSDOF 4
ENDMDL
MODEL 9
REMARK VINA RESULT:    -4.742      5.778      9.382
REMARK INTER + INTRA:          -5.964
REMARK INTER:                  -5.721
REMARK INTRA:                  -0.242
REMARK UNBOUND:                -0.252
REMARK  Name = resultss/4CJN/ligands/lig_306_t1.pdb
REMARK  7 active torsions:
REMARK  status: ('A' for Active; 'I' for Inactive)
REMARK    1  A    between atoms: C1_1  and  O1_2
REMARK    2  A    between atoms: O1_2  and  C2_3
REMARK    3  A    between atoms: C6_8  and  O3_9
REMARK    4  A    between atoms: C8_11  and  O4_12
REMARK    5  A    between atoms: O4_12  and  C9_13
REMARK    6  A    between atoms: C10_14  and  O5_15
REMARK    7  A    between atoms: O5_15  and  C11_16
REMARK                            x       y       z     vdW  Elec       q    Type
REMARK                         _______ _______ _______ _____ _____    ______ ____
ROOT
ATOM      1  C2  UNL     1      21.859  -6.546 -48.147  0.00  0.00    +0.000 A 
ATOM      2  C3  UNL     1      21.229  -6.751 -46.913  0.00  0.00    +0.000 A 
ATOM      3  C4  UNL     1      21.962  -6.994 -45.744  0.00  0.00    +0.000 A 
ATOM      4  O2  UNL     1      21.337  -7.173 -44.663  0.00  0.00    +0.000 OA
ATOM      5  C5  UNL     1      23.371  -7.045 -45.792  0.00  0.00    +0.000 A 
ATOM      6  C6  UNL     1      24.196  -7.246 -44.669  0.00  0.00    +0.000 A 
ATOM      7  C7  UNL     1      25.605  -7.362 -44.850  0.00  0.00    +0.000 A 
ATOM      8  C8  UNL     1      26.493  -7.778 -43.816  0.00  0.00    +0.000 A 
ATOM      9  C10 UNL     1      27.897  -7.739 -44.041  0.00  0.00    +0.000 A 
ATOM     10  C12 UNL     1      28.384  -7.385 -45.311  0.00  0.00    +0.000 A 
ATOM     11  C13 UNL     1      27.512  -7.095 -46.350  0.00  0.00    +0.000 A 
ATOM     12  C14 UNL     1      26.137  -7.093 -46.142  0.00  0.00    +0.000 A 
ATOM     13  O6  UNL     1      25.350  -6.842 -47.181  0.00  0.00    +0.000 OA
ATOM     14  C15 UNL     1      24.031  -6.824 -47.097  0.00  0.00    +0.000 A 
ATOM     15  C16 UNL     1      23.262  -6.582 -48.234  0.00  0.00    +0.000 A 
ENDROOT
BRANCH   1  17
ATOM     16  C1  UNL     1      19.691  -6.724 -49.385  0.00  0.00    +0.000 C 
ATOM     17  O1  UNL     1      21.048  -6.308 -49.268  0.00  0.00    +0.000 OA
ENDBRANCH   1  17
BRANCH   6  18
ATOM     18  O3  UNL     1      23.602  -7.267 -43.404  0.00  0.00    +0.000 OA
ATOM     19  H5  UNL     1      23.587  -8.085 -42.811  0.00  0.00    +0.000 HD
ENDBRANCH   6  18
BRANCH   8  20
ATOM     20  O4  UNL     1      25.941  -8.272 -42.617  0.00  0.00    +0.000 OA
ATOM     21  C9  UNL     1      25.773  -9.635 -42.241  0.00  0.00    +0.000 C 
ENDBRANCH   8  20
BRANCH   9  22
ATOM     22  O5  UNL     1      28.786  -8.054 -43.001  0.00  0.00    +0.000 OA
ATOM     23  C11 UNL     1      29.402  -9.323 -42.805  0.00  0.00    +0.000 C 
ENDBRANCH   9  22
TORSDOF 4
ENDMDL
