MODEL 1
REMARK VINA RESULT:    -7.420      0.000      0.000
REMARK INTER + INTRA:          -9.723
REMARK INTER:                  -9.371
REMARK INTRA:                  -0.352
REMARK UNBOUND:                -0.352
REMARK  Name = resultss/4CJN/ligands/lig_163_t0.pdb
REMARK  5 active torsions:
REMARK  status: ('A' for Active; 'I' for Inactive)
REMARK    1  A    between atoms: C1_2  and  C9_13
REMARK    2  A    between atoms: N1_3  and  N2_4
REMARK    3  A    between atoms: C2_5  and  C3_6
REMARK    4  A    between atoms: C6_9  and  O2_10
REMARK    5  A    between atoms: C12_16  and  C13_17
REMARK                            x       y       z     vdW  Elec       q    Type
REMARK                         _______ _______ _______ _____ _____    ______ ____
ROOT
ATOM      1  C9  UNL     1      29.639  -9.909 -40.283  0.00  0.00    +0.000 A 
ATOM      2  C10 UNL     1      29.038 -10.785 -41.203  0.00  0.00    +0.000 A 
ATOM      3  C11 UNL     1      29.774 -11.316 -42.266  0.00  0.00    +0.000 A 
ATOM      4  C12 UNL     1      31.130 -10.988 -42.430  0.00  0.00    +0.000 A 
ATOM      5  C20 UNL     1      31.735 -10.119 -41.504  0.00  0.00    +0.000 A 
ATOM      6  C21 UNL     1      30.998  -9.588 -40.442  0.00  0.00    +0.000 A 
ENDROOT
BRANCH   4   7
ATOM      7  C13 UNL     1      31.902 -11.557 -43.560  0.00  0.00    +0.000 A 
ATOM      8  N3  UNL     1      31.624 -12.764 -44.115  0.00  0.00    +0.000 NA
ATOM      9  C14 UNL     1      32.477 -13.052 -45.132  0.00  0.00    +0.000 A 
ATOM     10  C15 UNL     1      32.435 -14.223 -45.890  0.00  0.00    +0.000 A 
ATOM     11  C16 UNL     1      33.379 -14.396 -46.917  0.00  0.00    +0.000 A 
ATOM     12  C17 UNL     1      34.346 -13.404 -47.173  0.00  0.00    +0.000 A 
ATOM     13  C18 UNL     1      34.378 -12.230 -46.403  0.00  0.00    +0.000 A 
ATOM     14  C19 UNL     1      33.433 -12.083 -45.393  0.00  0.00    +0.000 A 
ATOM     15  S1  UNL     1      33.223 -10.810 -44.323  0.00  0.00    +0.000 S 
ENDBRANCH   4   7
BRANCH   1  17
ATOM     16  O1  UNL     1      28.493  -8.146 -39.181  0.00  0.00    +0.000 OA
ATOM     17  C1  UNL     1      28.850  -9.355 -39.154  0.00  0.00    +0.000 C 
ATOM     18  N1  UNL     1      28.531 -10.166 -38.011  0.00  0.00    +0.000 N 
ATOM     19  H1  UNL     1      29.184 -10.938 -37.751  0.00  0.00    +0.000 HD
BRANCH  18  20
ATOM     20  N2  UNL     1      27.512  -9.843 -37.094  0.00  0.00    +0.000 NA
ATOM     21  C2  UNL     1      27.694  -9.083 -36.056  0.00  0.00    +0.000 C 
BRANCH  21  22
ATOM     22  C3  UNL     1      26.587  -8.794 -35.122  0.00  0.00    +0.000 A 
ATOM     23  C4  UNL     1      26.122  -7.481 -34.919  0.00  0.00    +0.000 A 
ATOM     24  C5  UNL     1      25.071  -7.234 -34.029  0.00  0.00    +0.000 A 
ATOM     25  C6  UNL     1      24.474  -8.291 -33.335  0.00  0.00    +0.000 A 
ATOM     26  C7  UNL     1      24.933  -9.599 -33.533  0.00  0.00    +0.000 A 
ATOM     27  C8  UNL     1      25.982  -9.849 -34.421  0.00  0.00    +0.000 A 
BRANCH  25  28
ATOM     28  O2  UNL     1      23.429  -8.029 -32.452  0.00  0.00    +0.000 OA
ATOM     29  H5  UNL     1      23.430  -8.395 -31.507  0.00  0.00    +0.000 HD
ENDBRANCH  25  28
ENDBRANCH  21  22
ENDBRANCH  18  20
ENDBRANCH   1  17
TORSDOF 5
ENDMDL
MODEL 2
REMARK VINA RESULT:    -7.000      1.843      2.049
REMARK INTER + INTRA:          -9.193
REMARK INTER:                  -8.770
REMARK INTRA:                  -0.423
REMARK UNBOUND:                -0.352
REMARK  Name = resultss/4CJN/ligands/lig_163_t0.pdb
REMARK  5 active torsions:
REMARK  status: ('A' for Active; 'I' for Inactive)
REMARK    1  A    between atoms: C1_2  and  C9_13
REMARK    2  A    between atoms: N1_3  and  N2_4
REMARK    3  A    between atoms: C2_5  and  C3_6
REMARK    4  A    between atoms: C6_9  and  O2_10
REMARK    5  A    between atoms: C12_16  and  C13_17
REMARK                            x       y       z     vdW  Elec       q    Type
REMARK                         _______ _______ _______ _____ _____    ______ ____
ROOT
ATOM      1  C9  UNL     1      30.255  -9.842 -40.434  0.00  0.00    +0.000 A 
ATOM      2  C10 UNL     1      29.559 -10.765 -41.235  0.00  0.00    +0.000 A 
ATOM      3  C11 UNL     1      30.182 -11.373 -42.328  0.00  0.00    +0.000 A 
ATOM      4  C12 UNL     1      31.519 -11.077 -42.643  0.00  0.00    +0.000 A 
ATOM      5  C20 UNL     1      32.219 -10.162 -41.838  0.00  0.00    +0.000 A 
ATOM      6  C21 UNL     1      31.595  -9.553 -40.744  0.00  0.00    +0.000 A 
ENDROOT
BRANCH   4   7
ATOM      7  C13 UNL     1      32.172 -11.726 -43.804  0.00  0.00    +0.000 A 
ATOM      8  N3  UNL     1      31.793 -12.939 -44.284  0.00  0.00    +0.000 NA
ATOM      9  C14 UNL     1      32.548 -13.308 -45.351  0.00  0.00    +0.000 A 
ATOM     10  C15 UNL     1      32.392 -14.504 -46.053  0.00  0.00    +0.000 A 
ATOM     11  C16 UNL     1      33.242 -14.764 -47.142  0.00  0.00    +0.000 A 
ATOM     12  C17 UNL     1      34.231 -13.833 -47.514  0.00  0.00    +0.000 A 
ATOM     13  C18 UNL     1      34.380 -12.632 -46.800  0.00  0.00    +0.000 A 
ATOM     14  C19 UNL     1      33.525 -12.400 -45.726  0.00  0.00    +0.000 A 
ATOM     15  S1  UNL     1      33.461 -11.077 -44.699  0.00  0.00    +0.000 S 
ENDBRANCH   4   7
BRANCH   1  17
ATOM     16  O1  UNL     1      28.327  -9.205 -39.206  0.00  0.00    +0.000 OA
ATOM     17  C1  UNL     1      29.586  -9.207 -39.272  0.00  0.00    +0.000 C 
ATOM     18  N1  UNL     1      30.354  -8.553 -38.247  0.00  0.00    +0.000 N 
ATOM     19  H1  UNL     1      31.272  -8.131 -38.507  0.00  0.00    +0.000 HD
BRANCH  18  20
ATOM     20  N2  UNL     1      29.841  -8.255 -36.970  0.00  0.00    +0.000 NA
ATOM     21  C2  UNL     1      29.745  -9.127 -36.012  0.00  0.00    +0.000 C 
BRANCH  21  22
ATOM     22  C3  UNL     1      29.181  -8.754 -34.698  0.00  0.00    +0.000 A 
ATOM     23  C4  UNL     1      27.994  -8.006 -34.594  0.00  0.00    +0.000 A 
ATOM     24  C5  UNL     1      27.481  -7.667 -33.337  0.00  0.00    +0.000 A 
ATOM     25  C6  UNL     1      28.145  -8.070 -32.175  0.00  0.00    +0.000 A 
ATOM     26  C7  UNL     1      29.327  -8.815 -32.272  0.00  0.00    +0.000 A 
ATOM     27  C8  UNL     1      29.842  -9.155 -33.527  0.00  0.00    +0.000 A 
BRANCH  25  28
ATOM     28  O2  UNL     1      27.623  -7.725 -30.930  0.00  0.00    +0.000 OA
ATOM     29  H5  UNL     1      27.538  -6.758 -30.641  0.00  0.00    +0.000 HD
ENDBRANCH  25  28
ENDBRANCH  21  22
ENDBRANCH  18  20
ENDBRANCH   1  17
TORSDOF 5
ENDMDL
MODEL 3
REMARK VINA RESULT:    -5.913      6.131     10.460
REMARK INTER + INTRA:          -7.820
REMARK INTER:                  -7.436
REMARK INTRA:                  -0.384
REMARK UNBOUND:                -0.352
REMARK  Name = resultss/4CJN/ligands/lig_163_t0.pdb
REMARK  5 active torsions:
REMARK  status: ('A' for Active; 'I' for Inactive)
REMARK    1  A    between atoms: C1_2  and  C9_13
REMARK    2  A    between atoms: N1_3  and  N2_4
REMARK    3  A    between atoms: C2_5  and  C3_6
REMARK    4  A    between atoms: C6_9  and  O2_10
REMARK    5  A    between atoms: C12_16  and  C13_17
REMARK                            x       y       z     vdW  Elec       q    Type
REMARK                         _______ _______ _______ _____ _____    ______ ____
ROOT
ATOM      1  C9  UNL     1      26.363  -9.714 -40.346  0.00  0.00    +0.000 A 
ATOM      2  C10 UNL     1      27.518 -10.480 -40.111  0.00  0.00    +0.000 A 
ATOM      3  C11 UNL     1      28.175 -10.418 -38.880  0.00  0.00    +0.000 A 
ATOM      4  C12 UNL     1      27.690  -9.592 -37.851  0.00  0.00    +0.000 A 
ATOM      5  C20 UNL     1      26.529  -8.834 -38.082  0.00  0.00    +0.000 A 
ATOM      6  C21 UNL     1      25.872  -8.896 -39.314  0.00  0.00    +0.000 A 
ENDROOT
BRANCH   4   7
ATOM      7  C13 UNL     1      28.394  -9.534 -36.549  0.00  0.00    +0.000 A 
ATOM      8  N3  UNL     1      29.745  -9.608 -36.432  0.00  0.00    +0.000 NA
ATOM      9  C14 UNL     1      30.136  -9.529 -35.134  0.00  0.00    +0.000 A 
ATOM     10  C15 UNL     1      31.463  -9.577 -34.705  0.00  0.00    +0.000 A 
ATOM     11  C16 UNL     1      31.731  -9.485 -33.328  0.00  0.00    +0.000 A 
ATOM     12  C17 UNL     1      30.678  -9.346 -32.402  0.00  0.00    +0.000 A 
ATOM     13  C18 UNL     1      29.346  -9.298 -32.846  0.00  0.00    +0.000 A 
ATOM     14  C19 UNL     1      29.108  -9.392 -34.214  0.00  0.00    +0.000 A 
ATOM     15  S1  UNL     1      27.645  -9.366 -35.032  0.00  0.00    +0.000 S 
ENDBRANCH   4   7
BRANCH   1  17
ATOM     16  O1  UNL     1      24.843 -10.722 -41.866  0.00  0.00    +0.000 OA
ATOM     17  C1  UNL     1      25.668  -9.792 -41.655  0.00  0.00    +0.000 C 
ATOM     18  N1  UNL     1      25.962  -8.850 -42.702  0.00  0.00    +0.000 N 
ATOM     19  H1  UNL     1      26.916  -8.428 -42.738  0.00  0.00    +0.000 HD
BRANCH  18  20
ATOM     20  N2  UNL     1      25.116  -8.636 -43.807  0.00  0.00    +0.000 NA
ATOM     21  C2  UNL     1      24.952  -7.478 -44.372  0.00  0.00    +0.000 C 
BRANCH  21  22
ATOM     22  C3  UNL     1      24.036  -7.314 -45.520  0.00  0.00    +0.000 A 
ATOM     23  C4  UNL     1      22.665  -7.058 -45.333  0.00  0.00    +0.000 A 
ATOM     24  C5  UNL     1      21.819  -6.906 -46.438  0.00  0.00    +0.000 A 
ATOM     25  C6  UNL     1      22.330  -7.008 -47.735  0.00  0.00    +0.000 A 
ATOM     26  C7  UNL     1      23.694  -7.263 -47.926  0.00  0.00    +0.000 A 
ATOM     27  C8  UNL     1      24.541  -7.415 -46.825  0.00  0.00    +0.000 A 
BRANCH  25  28
ATOM     28  O2  UNL     1      21.476  -6.854 -48.824  0.00  0.00    +0.000 OA
ATOM     29  H5  UNL     1      21.645  -6.153 -49.536  0.00  0.00    +0.000 HD
ENDBRANCH  25  28
ENDBRANCH  21  22
ENDBRANCH  18  20
ENDBRANCH   1  17
TORSDOF 5
ENDMDL
MODEL 4
REMARK VINA RESULT:    -5.891      6.375     11.041
REMARK INTER + INTRA:          -7.793
REMARK INTER:                  -7.387
REMARK INTRA:                  -0.406
REMARK UNBOUND:                -0.352
REMARK  Name = resultss/4CJN/ligands/lig_163_t0.pdb
REMARK  5 active torsions:
REMARK  status: ('A' for Active; 'I' for Inactive)
REMARK    1  A    between atoms: C1_2  and  C9_13
REMARK    2  A    between atoms: N1_3  and  N2_4
REMARK    3  A    between atoms: C2_5  and  C3_6
REMARK    4  A    between atoms: C6_9  and  O2_10
REMARK    5  A    between atoms: C12_16  and  C13_17
REMARK                            x       y       z     vdW  Elec       q    Type
REMARK                         _______ _______ _______ _____ _____    ______ ____
ROOT
ATOM      1  C9  UNL     1      25.871  -9.217 -40.493  0.00  0.00    +0.000 A 
ATOM      2  C10 UNL     1      25.112  -8.514 -39.541  0.00  0.00    +0.000 A 
ATOM      3  C11 UNL     1      25.555  -8.401 -38.221  0.00  0.00    +0.000 A 
ATOM      4  C12 UNL     1      26.771  -8.982 -37.822  0.00  0.00    +0.000 A 
ATOM      5  C20 UNL     1      27.535  -9.677 -38.776  0.00  0.00    +0.000 A 
ATOM      6  C21 UNL     1      27.091  -9.791 -40.097  0.00  0.00    +0.000 A 
ENDROOT
BRANCH   4   7
ATOM      7  C13 UNL     1      27.233  -8.856 -36.420  0.00  0.00    +0.000 A 
ATOM      8  N3  UNL     1      28.348  -9.471 -35.948  0.00  0.00    +0.000 NA
ATOM      9  C14 UNL     1      28.550  -9.194 -34.634  0.00  0.00    +0.000 A 
ATOM     10  C15 UNL     1      29.615  -9.685 -33.878  0.00  0.00    +0.000 A 
ATOM     11  C16 UNL     1      29.707  -9.319 -32.524  0.00  0.00    +0.000 A 
ATOM     12  C17 UNL     1      28.741  -8.472 -31.945  0.00  0.00    +0.000 A 
ATOM     13  C18 UNL     1      27.673  -7.984 -32.716  0.00  0.00    +0.000 A 
ATOM     14  C19 UNL     1      27.605  -8.362 -34.054  0.00  0.00    +0.000 A 
ATOM     15  S1  UNL     1      26.465  -7.945 -35.210  0.00  0.00    +0.000 S 
ENDBRANCH   4   7
BRANCH   1  17
ATOM     16  O1  UNL     1      24.781 -10.366 -42.262  0.00  0.00    +0.000 OA
ATOM     17  C1  UNL     1      25.394  -9.327 -41.894  0.00  0.00    +0.000 C 
ATOM     18  N1  UNL     1      25.666  -8.285 -42.849  0.00  0.00    +0.000 N 
ATOM     19  H1  UNL     1      26.527  -7.709 -42.723  0.00  0.00    +0.000 HD
BRANCH  18  20
ATOM     20  N2  UNL     1      24.961  -8.145 -44.059  0.00  0.00    +0.000 NA
ATOM     21  C2  UNL     1      24.114  -7.188 -44.291  0.00  0.00    +0.000 C 
BRANCH  21  22
ATOM     22  C3  UNL     1      23.393  -7.105 -45.578  0.00  0.00    +0.000 A 
ATOM     23  C4  UNL     1      24.076  -7.178 -46.807  0.00  0.00    +0.000 A 
ATOM     24  C5  UNL     1      23.369  -7.097 -48.012  0.00  0.00    +0.000 A 
ATOM     25  C6  UNL     1      21.980  -6.945 -48.004  0.00  0.00    +0.000 A 
ATOM     26  C7  UNL     1      21.295  -6.871 -46.784  0.00  0.00    +0.000 A 
ATOM     27  C8  UNL     1      21.998  -6.951 -45.579  0.00  0.00    +0.000 A 
BRANCH  25  28
ATOM     28  O2  UNL     1      21.290  -6.866 -49.212  0.00  0.00    +0.000 OA
ATOM     29  H5  UNL     1      21.007  -7.699 -49.716  0.00  0.00    +0.000 HD
ENDBRANCH  25  28
ENDBRANCH  21  22
ENDBRANCH  18  20
ENDBRANCH   1  17
TORSDOF 5
ENDMDL
MODEL 5
REMARK VINA RESULT:    -5.878      6.731      8.298
REMARK INTER + INTRA:          -7.776
REMARK INTER:                  -7.344
REMARK INTRA:                  -0.432
REMARK UNBOUND:                -0.352
REMARK  Name = resultss/4CJN/ligands/lig_163_t0.pdb
REMARK  5 active torsions:
REMARK  status: ('A' for Active; 'I' for Inactive)
REMARK    1  A    between atoms: C1_2  and  C9_13
REMARK    2  A    between atoms: N1_3  and  N2_4
REMARK    3  A    between atoms: C2_5  and  C3_6
REMARK    4  A    between atoms: C6_9  and  O2_10
REMARK    5  A    between atoms: C12_16  and  C13_17
REMARK                            x       y       z     vdW  Elec       q    Type
REMARK                         _______ _______ _______ _____ _____    ______ ____
ROOT
ATOM      1  C9  UNL     1      26.351  -8.569 -42.138  0.00  0.00    +0.000 A 
ATOM      2  C10 UNL     1      26.865  -7.982 -43.308  0.00  0.00    +0.000 A 
ATOM      3  C11 UNL     1      26.014  -7.612 -44.352  0.00  0.00    +0.000 A 
ATOM      4  C12 UNL     1      24.627  -7.816 -44.250  0.00  0.00    +0.000 A 
ATOM      5  C20 UNL     1      24.111  -8.395 -43.078  0.00  0.00    +0.000 A 
ATOM      6  C21 UNL     1      24.964  -8.765 -42.033  0.00  0.00    +0.000 A 
ENDROOT
BRANCH   4   7
ATOM      7  C13 UNL     1      23.733  -7.421 -45.364  0.00  0.00    +0.000 A 
ATOM      8  N3  UNL     1      22.382  -7.358 -45.243  0.00  0.00    +0.000 NA
ATOM      9  C14 UNL     1      21.797  -6.970 -46.406  0.00  0.00    +0.000 A 
ATOM     10  C15 UNL     1      20.421  -6.817 -46.584  0.00  0.00    +0.000 A 
ATOM     11  C16 UNL     1      19.945  -6.408 -47.843  0.00  0.00    +0.000 A 
ATOM     12  C17 UNL     1      20.843  -6.158 -48.899  0.00  0.00    +0.000 A 
ATOM     13  C18 UNL     1      22.226  -6.315 -48.707  0.00  0.00    +0.000 A 
ATOM     14  C19 UNL     1      22.670  -6.722 -47.452  0.00  0.00    +0.000 A 
ATOM     15  S1  UNL     1      24.239  -6.991 -46.928  0.00  0.00    +0.000 S 
ENDBRANCH   4   7
BRANCH   1  17
ATOM     16  O1  UNL     1      28.433  -8.482 -41.000  0.00  0.00    +0.000 OA
ATOM     17  C1  UNL     1      27.263  -8.952 -41.032  0.00  0.00    +0.000 C 
ATOM     18  N1  UNL     1      26.845  -9.889 -40.024  0.00  0.00    +0.000 N 
ATOM     19  H1  UNL     1      26.142 -10.616 -40.282  0.00  0.00    +0.000 HD
BRANCH  18  20
ATOM     20  N2  UNL     1      27.491 -10.025 -38.780  0.00  0.00    +0.000 NA
ATOM     21  C2  UNL     1      27.196  -9.311 -37.736  0.00  0.00    +0.000 C 
BRANCH  21  22
ATOM     22  C3  UNL     1      27.923  -9.490 -36.462  0.00  0.00    +0.000 A 
ATOM     23  C4  UNL     1      29.329  -9.449 -36.407  0.00  0.00    +0.000 A 
ATOM     24  C5  UNL     1      29.993  -9.620 -35.188  0.00  0.00    +0.000 A 
ATOM     25  C6  UNL     1      29.265  -9.834 -34.014  0.00  0.00    +0.000 A 
ATOM     26  C7  UNL     1      27.866  -9.877 -34.062  0.00  0.00    +0.000 A 
ATOM     27  C8  UNL     1      27.199  -9.705 -35.279  0.00  0.00    +0.000 A 
BRANCH  25  28
ATOM     28  O2  UNL     1      29.940 -10.003 -32.808  0.00  0.00    +0.000 OA
ATOM     29  H5  UNL     1      29.588  -9.607 -31.943  0.00  0.00    +0.000 HD
ENDBRANCH  25  28
ENDBRANCH  21  22
ENDBRANCH  18  20
ENDBRANCH   1  17
TORSDOF 5
ENDMDL
MODEL 6
REMARK VINA RESULT:    -5.795      6.084      7.794
REMARK INTER + INTRA:          -7.671
REMARK INTER:                  -7.241
REMARK INTRA:                  -0.430
REMARK UNBOUND:                -0.352
REMARK  Name = resultss/4CJN/ligands/lig_163_t0.pdb
REMARK  5 active torsions:
REMARK  status: ('A' for Active; 'I' for Inactive)
REMARK    1  A    between atoms: C1_2  and  C9_13
REMARK    2  A    between atoms: N1_3  and  N2_4
REMARK    3  A    between atoms: C2_5  and  C3_6
REMARK    4  A    between atoms: C6_9  and  O2_10
REMARK    5  A    between atoms: C12_16  and  C13_17
REMARK                            x       y       z     vdW  Elec       q    Type
REMARK                         _______ _______ _______ _____ _____    ______ ____
ROOT
ATOM      1  C9  UNL     1      26.706  -9.495 -40.711  0.00  0.00    +0.000 A 
ATOM      2  C10 UNL     1      27.223  -9.372 -42.012  0.00  0.00    +0.000 A 
ATOM      3  C11 UNL     1      26.431  -8.875 -43.050  0.00  0.00    +0.000 A 
ATOM      4  C12 UNL     1      25.102  -8.484 -42.809  0.00  0.00    +0.000 A 
ATOM      5  C20 UNL     1      24.587  -8.597 -41.506  0.00  0.00    +0.000 A 
ATOM      6  C21 UNL     1      25.381  -9.095 -40.469  0.00  0.00    +0.000 A 
ENDROOT
BRANCH   4   7
ATOM      7  C13 UNL     1      24.269  -7.958 -43.916  0.00  0.00    +0.000 A 
ATOM      8  N3  UNL     1      24.688  -7.925 -45.208  0.00  0.00    +0.000 NA
ATOM      9  C14 UNL     1      23.738  -7.397 -46.024  0.00  0.00    +0.000 A 
ATOM     10  C15 UNL     1      23.884  -7.236 -47.402  0.00  0.00    +0.000 A 
ATOM     11  C16 UNL     1      22.820  -6.675 -48.132  0.00  0.00    +0.000 A 
ATOM     12  C17 UNL     1      21.634  -6.286 -47.480  0.00  0.00    +0.000 A 
ATOM     13  C18 UNL     1      21.499  -6.453 -46.092  0.00  0.00    +0.000 A 
ATOM     14  C19 UNL     1      22.567  -7.010 -45.394  0.00  0.00    +0.000 A 
ATOM     15  S1  UNL     1      22.699  -7.330 -43.753  0.00  0.00    +0.000 S 
ENDBRANCH   4   7
BRANCH   1  17
ATOM     16  O1  UNL     1      28.711 -10.456 -39.879  0.00  0.00    +0.000 OA
ATOM     17  C1  UNL     1      27.558 -10.019 -39.614  0.00  0.00    +0.000 C 
ATOM     18  N1  UNL     1      27.068 -10.078 -38.264  0.00  0.00    +0.000 N 
ATOM     19  H1  UNL     1      26.041 -10.194 -38.113  0.00  0.00    +0.000 HD
BRANCH  18  20
ATOM     20  N2  UNL     1      27.908 -10.214 -37.142  0.00  0.00    +0.000 NA
ATOM     21  C2  UNL     1      28.437  -9.208 -36.515  0.00  0.00    +0.000 C 
BRANCH  21  22
ATOM     22  C3  UNL     1      29.325  -9.418 -35.353  0.00  0.00    +0.000 A 
ATOM     23  C4  UNL     1      28.808  -9.583 -34.054  0.00  0.00    +0.000 A 
ATOM     24  C5  UNL     1      29.670  -9.781 -32.971  0.00  0.00    +0.000 A 
ATOM     25  C6  UNL     1      31.054  -9.817 -33.170  0.00  0.00    +0.000 A 
ATOM     26  C7  UNL     1      31.574  -9.653 -34.460  0.00  0.00    +0.000 A 
ATOM     27  C8  UNL     1      30.715  -9.455 -35.544  0.00  0.00    +0.000 A 
BRANCH  25  28
ATOM     28  O2  UNL     1      31.900 -10.015 -32.082  0.00  0.00    +0.000 OA
ATOM     29  H5  UNL     1      31.958 -10.912 -31.612  0.00  0.00    +0.000 HD
ENDBRANCH  25  28
ENDBRANCH  21  22
ENDBRANCH  18  20
ENDBRANCH   1  17
TORSDOF 5
ENDMDL
MODEL 7
REMARK VINA RESULT:    -5.655      6.745     10.355
REMARK INTER + INTRA:          -7.495
REMARK INTER:                  -7.091
REMARK INTRA:                  -0.404
REMARK UNBOUND:                -0.352
REMARK  Name = resultss/4CJN/ligands/lig_163_t0.pdb
REMARK  5 active torsions:
REMARK  status: ('A' for Active; 'I' for Inactive)
REMARK    1  A    between atoms: C1_2  and  C9_13
REMARK    2  A    between atoms: N1_3  and  N2_4
REMARK    3  A    between atoms: C2_5  and  C3_6
REMARK    4  A    between atoms: C6_9  and  O2_10
REMARK    5  A    between atoms: C12_16  and  C13_17
REMARK                            x       y       z     vdW  Elec       q    Type
REMARK                         _______ _______ _______ _____ _____    ______ ____
ROOT
ATOM      1  C9  UNL     1      25.725  -9.065 -41.065  0.00  0.00    +0.000 A 
ATOM      2  C10 UNL     1      26.557 -10.182 -40.874  0.00  0.00    +0.000 A 
ATOM      3  C11 UNL     1      27.380 -10.273 -39.749  0.00  0.00    +0.000 A 
ATOM      4  C12 UNL     1      27.386  -9.251 -38.783  0.00  0.00    +0.000 A 
ATOM      5  C20 UNL     1      26.546  -8.139 -38.968  0.00  0.00    +0.000 A 
ATOM      6  C21 UNL     1      25.724  -8.048 -40.095  0.00  0.00    +0.000 A 
ENDROOT
BRANCH   4   7
ATOM      7  C13 UNL     1      28.262  -9.357 -37.593  0.00  0.00    +0.000 A 
ATOM      8  N3  UNL     1      27.782  -9.475 -36.327  0.00  0.00    +0.000 NA
ATOM      9  C14 UNL     1      28.790  -9.555 -35.420  0.00  0.00    +0.000 A 
ATOM     10  C15 UNL     1      28.604  -9.681 -34.043  0.00  0.00    +0.000 A 
ATOM     11  C16 UNL     1      29.736  -9.755 -33.213  0.00  0.00    +0.000 A 
ATOM     12  C17 UNL     1      31.031  -9.702 -33.765  0.00  0.00    +0.000 A 
ATOM     13  C18 UNL     1      31.206  -9.574 -35.153  0.00  0.00    +0.000 A 
ATOM     14  C19 UNL     1      30.069  -9.504 -35.952  0.00  0.00    +0.000 A 
ATOM     15  S1  UNL     1      29.961  -9.352 -37.618  0.00  0.00    +0.000 S 
ENDBRANCH   4   7
BRANCH   1  17
ATOM     16  O1  UNL     1      24.659 -10.010 -42.964  0.00  0.00    +0.000 OA
ATOM     17  C1  UNL     1      24.850  -8.981 -42.260  0.00  0.00    +0.000 C 
ATOM     18  N1  UNL     1      24.257  -7.730 -42.654  0.00  0.00    +0.000 N 
ATOM     19  H1  UNL     1      24.760  -6.847 -42.416  0.00  0.00    +0.000 HD
BRANCH  18  20
ATOM     20  N2  UNL     1      23.161  -7.638 -43.531  0.00  0.00    +0.000 NA
ATOM     21  C2  UNL     1      23.207  -7.030 -44.678  0.00  0.00    +0.000 C 
BRANCH  21  22
ATOM     22  C3  UNL     1      22.015  -6.953 -45.547  0.00  0.00    +0.000 A 
ATOM     23  C4  UNL     1      20.772  -6.517 -45.052  0.00  0.00    +0.000 A 
ATOM     24  C5  UNL     1      19.659  -6.453 -45.897  0.00  0.00    +0.000 A 
ATOM     25  C6  UNL     1      19.773  -6.821 -47.240  0.00  0.00    +0.000 A 
ATOM     26  C7  UNL     1      21.007  -7.257 -47.739  0.00  0.00    +0.000 A 
ATOM     27  C8  UNL     1      22.121  -7.321 -46.897  0.00  0.00    +0.000 A 
BRANCH  25  28
ATOM     28  O2  UNL     1      18.655  -6.753 -48.069  0.00  0.00    +0.000 OA
ATOM     29  H5  UNL     1      17.973  -7.501 -48.101  0.00  0.00    +0.000 HD
ENDBRANCH  25  28
ENDBRANCH  21  22
ENDBRANCH  18  20
ENDBRANCH   1  17
TORSDOF 5
ENDMDL
MODEL 8
REMARK VINA RESULT:    -5.616      7.306      8.770
REMARK INTER + INTRA:          -7.445
REMARK INTER:                  -7.032
REMARK INTRA:                  -0.414
REMARK UNBOUND:                -0.352
REMARK  Name = resultss/4CJN/ligands/lig_163_t0.pdb
REMARK  5 active torsions:
REMARK  status: ('A' for Active; 'I' for Inactive)
REMARK    1  A    between atoms: C1_2  and  C9_13
REMARK    2  A    between atoms: N1_3  and  N2_4
REMARK    3  A    between atoms: C2_5  and  C3_6
REMARK    4  A    between atoms: C6_9  and  O2_10
REMARK    5  A    between atoms: C12_16  and  C13_17
REMARK                            x       y       z     vdW  Elec       q    Type
REMARK                         _______ _______ _______ _____ _____    ______ ____
ROOT
ATOM      1  C9  UNL     1      24.730  -8.075 -41.725  0.00  0.00    +0.000 A 
ATOM      2  C10 UNL     1      23.365  -7.737 -41.714  0.00  0.00    +0.000 A 
ATOM      3  C11 UNL     1      22.697  -7.435 -42.904  0.00  0.00    +0.000 A 
ATOM      4  C12 UNL     1      23.377  -7.467 -44.133  0.00  0.00    +0.000 A 
ATOM      5  C20 UNL     1      24.740  -7.814 -44.146  0.00  0.00    +0.000 A 
ATOM      6  C21 UNL     1      25.408  -8.116 -42.955  0.00  0.00    +0.000 A 
ENDROOT
BRANCH   4   7
ATOM      7  C13 UNL     1      22.661  -7.144 -45.389  0.00  0.00    +0.000 A 
ATOM      8  N3  UNL     1      21.308  -7.041 -45.466  0.00  0.00    +0.000 NA
ATOM      9  C14 UNL     1      20.904  -6.737 -46.726  0.00  0.00    +0.000 A 
ATOM     10  C15 UNL     1      19.573  -6.568 -47.109  0.00  0.00    +0.000 A 
ATOM     11  C16 UNL     1      19.291  -6.253 -48.451  0.00  0.00    +0.000 A 
ATOM     12  C17 UNL     1      20.335  -6.112 -49.386  0.00  0.00    +0.000 A 
ATOM     13  C18 UNL     1      21.671  -6.285 -48.988  0.00  0.00    +0.000 A 
ATOM     14  C19 UNL     1      21.923  -6.596 -47.655  0.00  0.00    +0.000 A 
ATOM     15  S1  UNL     1      23.394  -6.857 -46.895  0.00  0.00    +0.000 S 
ENDBRANCH   4   7
BRANCH   1  17
ATOM     16  O1  UNL     1      26.687  -8.483 -40.444  0.00  0.00    +0.000 OA
ATOM     17  C1  UNL     1      25.428  -8.401 -40.457  0.00  0.00    +0.000 C 
ATOM     18  N1  UNL     1      24.686  -8.672 -39.255  0.00  0.00    +0.000 N 
ATOM     19  H1  UNL     1      23.728  -9.078 -39.344  0.00  0.00    +0.000 HD
BRANCH  18  20
ATOM     20  N2  UNL     1      25.257  -8.632 -37.969  0.00  0.00    +0.000 NA
ATOM     21  C2  UNL     1      24.671  -8.101 -36.939  0.00  0.00    +0.000 C 
BRANCH  21  22
ATOM     22  C3  UNL     1      25.330  -8.076 -35.617  0.00  0.00    +0.000 A 
ATOM     23  C4  UNL     1      24.662  -8.504 -34.455  0.00  0.00    +0.000 A 
ATOM     24  C5  UNL     1      25.311  -8.472 -33.216  0.00  0.00    +0.000 A 
ATOM     25  C6  UNL     1      26.628  -8.014 -33.122  0.00  0.00    +0.000 A 
ATOM     26  C7  UNL     1      27.298  -7.586 -34.276  0.00  0.00    +0.000 A 
ATOM     27  C8  UNL     1      26.653  -7.618 -35.515  0.00  0.00    +0.000 A 
BRANCH  25  28
ATOM     28  O2  UNL     1      27.260  -7.987 -31.882  0.00  0.00    +0.000 OA
ATOM     29  H5  UNL     1      26.960  -7.355 -31.147  0.00  0.00    +0.000 HD
ENDBRANCH  25  28
ENDBRANCH  21  22
ENDBRANCH  18  20
ENDBRANCH   1  17
TORSDOF 5
ENDMDL
MODEL 9
REMARK VINA RESULT:    -5.531      7.602      9.640
REMARK INTER + INTRA:          -7.337
REMARK INTER:                  -6.926
REMARK INTRA:                  -0.412
REMARK UNBOUND:                -0.352
REMARK  Name = resultss/4CJN/ligands/lig_163_t0.pdb
REMARK  5 active torsions:
REMARK  status: ('A' for Active; 'I' for Inactive)
REMARK    1  A    between atoms: C1_2  and  C9_13
REMARK    2  A    between atoms: N1_3  and  N2_4
REMARK    3  A    between atoms: C2_5  and  C3_6
REMARK    4  A    between atoms: C6_9  and  O2_10
REMARK    5  A    between atoms: C12_16  and  C13_17
REMARK                            x       y       z     vdW  Elec       q    Type
REMARK                         _______ _______ _______ _____ _____    ______ ____
ROOT
ATOM      1  C9  UNL     1      24.601  -7.534 -41.048  0.00  0.00    +0.000 A 
ATOM      2  C10 UNL     1      24.300  -6.252 -41.540  0.00  0.00    +0.000 A 
ATOM      3  C11 UNL     1      23.336  -6.080 -42.536  0.00  0.00    +0.000 A 
ATOM      4  C12 UNL     1      22.646  -7.186 -43.062  0.00  0.00    +0.000 A 
ATOM      5  C20 UNL     1      22.939  -8.467 -42.563  0.00  0.00    +0.000 A 
ATOM      6  C21 UNL     1      23.904  -8.639 -41.566  0.00  0.00    +0.000 A 
ENDROOT
BRANCH   4   7
ATOM      7  C13 UNL     1      21.626  -6.993 -44.119  0.00  0.00    +0.000 A 
ATOM      8  N3  UNL     1      20.290  -7.046 -43.878  0.00  0.00    +0.000 NA
ATOM      9  C14 UNL     1      19.573  -6.836 -45.012  0.00  0.00    +0.000 A 
ATOM     10  C15 UNL     1      18.179  -6.833 -45.075  0.00  0.00    +0.000 A 
ATOM     11  C16 UNL     1      17.559  -6.602 -46.317  0.00  0.00    +0.000 A 
ATOM     12  C17 UNL     1      18.335  -6.379 -47.471  0.00  0.00    +0.000 A 
ATOM     13  C18 UNL     1      19.738  -6.384 -47.395  0.00  0.00    +0.000 A 
ATOM     14  C19 UNL     1      20.325  -6.616 -46.155  0.00  0.00    +0.000 A 
ATOM     15  S1  UNL     1      21.952  -6.681 -45.756  0.00  0.00    +0.000 S 
ENDBRANCH   4   7
BRANCH   1  17
ATOM     16  O1  UNL     1      26.486  -6.806 -39.803  0.00  0.00    +0.000 OA
ATOM     17  C1  UNL     1      25.621  -7.706 -39.984  0.00  0.00    +0.000 C 
ATOM     18  N1  UNL     1      25.666  -8.905 -39.192  0.00  0.00    +0.000 N 
ATOM     19  H1  UNL     1      25.326  -9.795 -39.619  0.00  0.00    +0.000 HD
BRANCH  18  20
ATOM     20  N2  UNL     1      26.346  -8.994 -37.962  0.00  0.00    +0.000 NA
ATOM     21  C2  UNL     1      27.481  -9.608 -37.811  0.00  0.00    +0.000 C 
BRANCH  21  22
ATOM     22  C3  UNL     1      28.136  -9.679 -36.489  0.00  0.00    +0.000 A 
ATOM     23  C4  UNL     1      29.538  -9.644 -36.362  0.00  0.00    +0.000 A 
ATOM     24  C5  UNL     1      30.133  -9.712 -35.098  0.00  0.00    +0.000 A 
ATOM     25  C6  UNL     1      29.341  -9.816 -33.951  0.00  0.00    +0.000 A 
ATOM     26  C7  UNL     1      27.946  -9.852 -34.071  0.00  0.00    +0.000 A 
ATOM     27  C8  UNL     1      27.348  -9.783 -35.333  0.00  0.00    +0.000 A 
BRANCH  25  28
ATOM     28  O2  UNL     1      29.949  -9.883 -32.700  0.00  0.00    +0.000 OA
ATOM     29  H5  UNL     1      29.695 -10.597 -32.025  0.00  0.00    +0.000 HD
ENDBRANCH  25  28
ENDBRANCH  21  22
ENDBRANCH  18  20
ENDBRANCH   1  17
TORSDOF 5
ENDMDL
