MODEL 1
REMARK VINA RESULT:    -4.007      0.000      0.000
REMARK INTER + INTRA:          -5.679
REMARK INTER:                  -5.178
REMARK INTRA:                  -0.502
REMARK UNBOUND:                -0.502
REMARK  Name = resultss/4CJN/ligands/lig_34_t0.pdb
REMARK  10 active torsions:
REMARK  status: ('A' for Active; 'I' for Inactive)
REMARK    1  A    between atoms: C1_1  and  SI1_2
REMARK    2  A    between atoms: SI1_2  and  C2_3
REMARK    3  A    between atoms: SI1_2  and  C3_4
REMARK    4  A    between atoms: SI1_2  and  C4_5
REMARK    5  A    between atoms: C4_5  and  N1_6
REMARK    6  A    between atoms: C6_8  and  O1_9
REMARK    7  A    between atoms: C7_10  and  O2_11
REMARK    8  A    between atoms: C8_12  and  O3_13
REMARK    9  A    between atoms: C9_14  and  C10_15
REMARK   10  A    between atoms: C10_15  and  O4_16
REMARK                            x       y       z     vdW  Elec       q    Type
REMARK                         _______ _______ _______ _____ _____    ______ ____
ROOT
ATOM      1  N1  UNL     1      27.285  -9.335 -36.776  0.00  0.00    +0.000 NA
ATOM      2  C5  UNL     1      27.504 -10.020 -35.468  0.00  0.00    +0.000 C 
ATOM      3  C6  UNL     1      26.488  -9.650 -34.365  0.00  0.00    +0.000 C 
ATOM      4  C7  UNL     1      25.936  -8.233 -34.582  0.00  0.00    +0.000 C 
ATOM      5  C8  UNL     1      25.265  -8.103 -35.972  0.00  0.00    +0.000 C 
ATOM      6  C9  UNL     1      25.832  -9.104 -37.028  0.00  0.00    +0.000 C 
ENDROOT
BRANCH   3   7
ATOM      7  O1  UNL     1      25.443 -10.590 -34.349  0.00  0.00    +0.000 OA
ATOM      8  H15 UNL     1      25.111 -10.637 -33.414  0.00  0.00    +0.000 HD
ENDBRANCH   3   7
BRANCH   4   9
ATOM      9  O2  UNL     1      26.983  -7.300 -34.481  0.00  0.00    +0.000 OA
ATOM     10  H17 UNL     1      27.551  -7.584 -33.718  0.00  0.00    +0.000 HD
ENDBRANCH   4   9
BRANCH   5  11
ATOM     11  O3  UNL     1      23.868  -8.231 -35.869  0.00  0.00    +0.000 OA
ATOM     12  H19 UNL     1      23.674  -8.885 -35.149  0.00  0.00    +0.000 HD
ENDBRANCH   5  11
BRANCH   1  13
ATOM     13  C4  UNL     1      27.952 -10.103 -37.858  0.00  0.00    +0.000 C 
BRANCH  13  15
ATOM     14  C1  UNL     1      29.445  -7.435 -38.253  0.00  0.00    +0.000 C 
ATOM     15 SI1  UNL     1      29.544  -9.289 -38.462  0.00  0.00    +0.000 Si
ATOM     16  C2  UNL     1      31.044  -9.964 -37.572  0.00  0.00    +0.000 C 
ATOM     17  C3  UNL     1      29.741  -9.668 -40.279  0.00  0.00    +0.000 C 
ENDBRANCH  13  15
ENDBRANCH   1  13
BRANCH   6  18
ATOM     18  C10 UNL     1      25.515  -8.551 -38.440  0.00  0.00    +0.000 C 
BRANCH  18  19
ATOM     19  O4  UNL     1      24.187  -8.830 -38.791  0.00  0.00    +0.000 OA
ATOM     20  H23 UNL     1      23.955  -9.681 -38.339  0.00  0.00    +0.000 HD
ENDBRANCH  18  19
ENDBRANCH   6  18
TORSDOF 7
ENDMDL
MODEL 2
REMARK VINA RESULT:    -3.989      3.538      6.016
REMARK INTER + INTRA:          -5.656
REMARK INTER:                  -5.142
REMARK INTRA:                  -0.514
REMARK UNBOUND:                -0.502
REMARK  Name = resultss/4CJN/ligands/lig_34_t0.pdb
REMARK  10 active torsions:
REMARK  status: ('A' for Active; 'I' for Inactive)
REMARK    1  A    between atoms: C1_1  and  SI1_2
REMARK    2  A    between atoms: SI1_2  and  C2_3
REMARK    3  A    between atoms: SI1_2  and  C3_4
REMARK    4  A    between atoms: SI1_2  and  C4_5
REMARK    5  A    between atoms: C4_5  and  N1_6
REMARK    6  A    between atoms: C6_8  and  O1_9
REMARK    7  A    between atoms: C7_10  and  O2_11
REMARK    8  A    between atoms: C8_12  and  O3_13
REMARK    9  A    between atoms: C9_14  and  C10_15
REMARK   10  A    between atoms: C10_15  and  O4_16
REMARK                            x       y       z     vdW  Elec       q    Type
REMARK                         _______ _______ _______ _____ _____    ______ ____
ROOT
ATOM      1  N1  UNL     1      26.269  -8.649 -41.529  0.00  0.00    +0.000 NA
ATOM      2  C5  UNL     1      26.236  -8.392 -42.999  0.00  0.00    +0.000 C 
ATOM      3  C6  UNL     1      24.832  -8.106 -43.575  0.00  0.00    +0.000 C 
ATOM      4  C7  UNL     1      23.745  -8.792 -42.734  0.00  0.00    +0.000 C 
ATOM      5  C8  UNL     1      23.806  -8.328 -41.258  0.00  0.00    +0.000 C 
ATOM      6  C9  UNL     1      25.226  -7.851 -40.819  0.00  0.00    +0.000 C 
ENDROOT
BRANCH   3   7
ATOM      7  O1  UNL     1      24.615  -6.718 -43.626  0.00  0.00    +0.000 OA
ATOM      8  H15 UNL     1      25.508  -6.290 -43.697  0.00  0.00    +0.000 HD
ENDBRANCH   3   7
BRANCH   4   9
ATOM      9  O2  UNL     1      23.917 -10.187 -42.792  0.00  0.00    +0.000 OA
ATOM     10  H17 UNL     1      24.507 -10.374 -43.568  0.00  0.00    +0.000 HD
ENDBRANCH   4   9
BRANCH   5  11
ATOM     11  O3  UNL     1      22.848  -7.329 -41.006  0.00  0.00    +0.000 OA
ATOM     12  H19 UNL     1      23.314  -6.557 -40.594  0.00  0.00    +0.000 HD
ENDBRANCH   5  11
BRANCH   1  13
ATOM     13  C4  UNL     1      27.642  -8.410 -41.012  0.00  0.00    +0.000 C 
BRANCH  13  15
ATOM     14  C1  UNL     1      27.461 -11.373 -40.182  0.00  0.00    +0.000 C 
ATOM     15 SI1  UNL     1      28.609 -10.006 -40.733  0.00  0.00    +0.000 Si
ATOM     16  C2  UNL     1      29.544 -10.523 -42.268  0.00  0.00    +0.000 C 
ATOM     17  C3  UNL     1      29.859  -9.703 -39.380  0.00  0.00    +0.000 C 
ENDBRANCH  13  15
ENDBRANCH   1  13
BRANCH   6  18
ATOM     18  C10 UNL     1      25.310  -7.935 -39.274  0.00  0.00    +0.000 C 
BRANCH  18  19
ATOM     19  O4  UNL     1      24.317  -8.789 -38.773  0.00  0.00    +0.000 OA
ATOM     20  H23 UNL     1      24.357  -9.612 -39.324  0.00  0.00    +0.000 HD
ENDBRANCH  18  19
ENDBRANCH   6  18
TORSDOF 7
ENDMDL
MODEL 3
REMARK VINA RESULT:    -3.956      2.472      4.067
REMARK INTER + INTRA:          -5.614
REMARK INTER:                  -5.141
REMARK INTRA:                  -0.474
REMARK UNBOUND:                -0.502
REMARK  Name = resultss/4CJN/ligands/lig_34_t0.pdb
REMARK  10 active torsions:
REMARK  status: ('A' for Active; 'I' for Inactive)
REMARK    1  A    between atoms: C1_1  and  SI1_2
REMARK    2  A    between atoms: SI1_2  and  C2_3
REMARK    3  A    between atoms: SI1_2  and  C3_4
REMARK    4  A    between atoms: SI1_2  and  C4_5
REMARK    5  A    between atoms: C4_5  and  N1_6
REMARK    6  A    between atoms: C6_8  and  O1_9
REMARK    7  A    between atoms: C7_10  and  O2_11
REMARK    8  A    between atoms: C8_12  and  O3_13
REMARK    9  A    between atoms: C9_14  and  C10_15
REMARK   10  A    between atoms: C10_15  and  O4_16
REMARK                            x       y       z     vdW  Elec       q    Type
REMARK                         _______ _______ _______ _____ _____    ______ ____
ROOT
ATOM      1  N1  UNL     1      25.311  -7.387 -35.149  0.00  0.00    +0.000 NA
ATOM      2  C5  UNL     1      24.677  -6.095 -34.751  0.00  0.00    +0.000 C 
ATOM      3  C6  UNL     1      23.608  -6.213 -33.642  0.00  0.00    +0.000 C 
ATOM      4  C7  UNL     1      22.942  -7.597 -33.669  0.00  0.00    +0.000 C 
ATOM      5  C8  UNL     1      23.992  -8.724 -33.502  0.00  0.00    +0.000 C 
ATOM      6  C9  UNL     1      25.418  -8.316 -33.986  0.00  0.00    +0.000 C 
ENDROOT
BRANCH   3   7
ATOM      7  O1  UNL     1      24.197  -5.973 -32.389  0.00  0.00    +0.000 OA
ATOM      8  H15 UNL     1      23.584  -6.349 -31.705  0.00  0.00    +0.000 HD
ENDBRANCH   3   7
BRANCH   4   9
ATOM      9  O2  UNL     1      22.264  -7.769 -34.889  0.00  0.00    +0.000 OA
ATOM     10  H17 UNL     1      21.860  -6.892 -35.121  0.00  0.00    +0.000 HD
ENDBRANCH   4   9
BRANCH   5  11
ATOM     11  O3  UNL     1      24.032  -9.179 -32.171  0.00  0.00    +0.000 OA
ATOM     12  H19 UNL     1      24.569  -8.533 -31.644  0.00  0.00    +0.000 HD
ENDBRANCH   5  11
BRANCH   1  13
ATOM     13  C4  UNL     1      26.616  -7.119 -35.808  0.00  0.00    +0.000 C 
BRANCH  13  15
ATOM     14  C1  UNL     1      27.278  -6.398 -38.731  0.00  0.00    +0.000 C 
ATOM     15 SI1  UNL     1      26.684  -7.750 -37.585  0.00  0.00    +0.000 Si
ATOM     16  C2  UNL     1      27.778  -9.259 -37.739  0.00  0.00    +0.000 C 
ATOM     17  C3  UNL     1      24.958  -8.242 -38.097  0.00  0.00    +0.000 C 
ENDBRANCH  13  15
ENDBRANCH   1  13
BRANCH   6  18
ATOM     18  C10 UNL     1      26.218  -9.610 -34.283  0.00  0.00    +0.000 C 
BRANCH  18  19
ATOM     19  O4  UNL     1      25.371 -10.727 -34.267  0.00  0.00    +0.000 OA
ATOM     20  H23 UNL     1      24.521 -10.435 -34.685  0.00  0.00    +0.000 HD
ENDBRANCH  18  19
ENDBRANCH   6  18
TORSDOF 7
ENDMDL
MODEL 4
REMARK VINA RESULT:    -3.885      2.547      3.180
REMARK INTER + INTRA:          -5.522
REMARK INTER:                  -5.064
REMARK INTRA:                  -0.458
REMARK UNBOUND:                -0.502
REMARK  Name = resultss/4CJN/ligands/lig_34_t0.pdb
REMARK  10 active torsions:
REMARK  status: ('A' for Active; 'I' for Inactive)
REMARK    1  A    between atoms: C1_1  and  SI1_2
REMARK    2  A    between atoms: SI1_2  and  C2_3
REMARK    3  A    between atoms: SI1_2  and  C3_4
REMARK    4  A    between atoms: SI1_2  and  C4_5
REMARK    5  A    between atoms: C4_5  and  N1_6
REMARK    6  A    between atoms: C6_8  and  O1_9
REMARK    7  A    between atoms: C7_10  and  O2_11
REMARK    8  A    between atoms: C8_12  and  O3_13
REMARK    9  A    between atoms: C9_14  and  C10_15
REMARK   10  A    between atoms: C10_15  and  O4_16
REMARK                            x       y       z     vdW  Elec       q    Type
REMARK                         _______ _______ _______ _____ _____    ______ ____
ROOT
ATOM      1  N1  UNL     1      25.253  -8.197 -36.303  0.00  0.00    +0.000 NA
ATOM      2  C5  UNL     1      26.125  -9.390 -36.096  0.00  0.00    +0.000 C 
ATOM      3  C6  UNL     1      26.395  -9.747 -34.617  0.00  0.00    +0.000 C 
ATOM      4  C7  UNL     1      26.317  -8.496 -33.730  0.00  0.00    +0.000 C 
ATOM      5  C8  UNL     1      24.936  -7.807 -33.856  0.00  0.00    +0.000 C 
ATOM      6  C9  UNL     1      24.231  -8.082 -35.221  0.00  0.00    +0.000 C 
ENDROOT
BRANCH   3   7
ATOM      7  O1  UNL     1      25.470 -10.715 -34.189  0.00  0.00    +0.000 OA
ATOM      8  H15 UNL     1      24.870 -10.271 -33.534  0.00  0.00    +0.000 HD
ENDBRANCH   3   7
BRANCH   4   9
ATOM      9  O2  UNL     1      27.326  -7.591 -34.105  0.00  0.00    +0.000 OA
ATOM     10  H17 UNL     1      27.766  -7.965 -34.913  0.00  0.00    +0.000 HD
ENDBRANCH   4   9
BRANCH   5  11
ATOM     11  O3  UNL     1      24.097  -8.165 -32.785  0.00  0.00    +0.000 OA
ATOM     12  H19 UNL     1      23.818  -7.332 -32.324  0.00  0.00    +0.000 HD
ENDBRANCH   5  11
BRANCH   1  13
ATOM     13  C4  UNL     1      24.661  -8.244 -37.665  0.00  0.00    +0.000 C 
BRANCH  13  15
ATOM     14  C1  UNL     1      27.215  -6.651 -38.330  0.00  0.00    +0.000 C 
ATOM     15 SI1  UNL     1      25.892  -7.777 -39.017  0.00  0.00    +0.000 Si
ATOM     16  C2  UNL     1      26.668  -9.291 -39.796  0.00  0.00    +0.000 C 
ATOM     17  C3  UNL     1      24.971  -6.858 -40.355  0.00  0.00    +0.000 C 
ENDBRANCH  13  15
ENDBRANCH   1  13
BRANCH   6  18
ATOM     18  C10 UNL     1      23.183  -6.966 -35.459  0.00  0.00    +0.000 C 
BRANCH  18  19
ATOM     19  O4  UNL     1      21.976  -7.281 -34.819  0.00  0.00    +0.000 OA
ATOM     20  H23 UNL     1      21.775  -6.518 -34.218  0.00  0.00    +0.000 HD
ENDBRANCH  18  19
ENDBRANCH   6  18
TORSDOF 7
ENDMDL
MODEL 5
REMARK VINA RESULT:    -3.678      2.376      2.974
REMARK INTER + INTRA:          -5.255
REMARK INTER:                  -4.757
REMARK INTRA:                  -0.498
REMARK UNBOUND:                -0.502
REMARK  Name = resultss/4CJN/ligands/lig_34_t0.pdb
REMARK  10 active torsions:
REMARK  status: ('A' for Active; 'I' for Inactive)
REMARK    1  A    between atoms: C1_1  and  SI1_2
REMARK    2  A    between atoms: SI1_2  and  C2_3
REMARK    3  A    between atoms: SI1_2  and  C3_4
REMARK    4  A    between atoms: SI1_2  and  C4_5
REMARK    5  A    between atoms: C4_5  and  N1_6
REMARK    6  A    between atoms: C6_8  and  O1_9
REMARK    7  A    between atoms: C7_10  and  O2_11
REMARK    8  A    between atoms: C8_12  and  O3_13
REMARK    9  A    between atoms: C9_14  and  C10_15
REMARK   10  A    between atoms: C10_15  and  O4_16
REMARK                            x       y       z     vdW  Elec       q    Type
REMARK                         _______ _______ _______ _____ _____    ______ ____
ROOT
ATOM      1  N1  UNL     1      25.333  -8.540 -34.970  0.00  0.00    +0.000 NA
ATOM      2  C5  UNL     1      24.839  -9.373 -33.834  0.00  0.00    +0.000 C 
ATOM      3  C6  UNL     1      23.602  -8.807 -33.104  0.00  0.00    +0.000 C 
ATOM      4  C7  UNL     1      23.556  -7.275 -33.212  0.00  0.00    +0.000 C 
ATOM      5  C8  UNL     1      23.542  -6.820 -34.692  0.00  0.00    +0.000 C 
ATOM      6  C9  UNL     1      24.205  -7.849 -35.661  0.00  0.00    +0.000 C 
ENDROOT
BRANCH   3   7
ATOM      7  O1  UNL     1      22.434  -9.374 -33.643  0.00  0.00    +0.000 OA
ATOM      8  H15 UNL     1      22.312  -8.979 -34.546  0.00  0.00    +0.000 HD
ENDBRANCH   3   7
BRANCH   4   9
ATOM      9  O2  UNL     1      24.679  -6.725 -32.567  0.00  0.00    +0.000 OA
ATOM     10  H17 UNL     1      24.339  -6.090 -31.884  0.00  0.00    +0.000 HD
ENDBRANCH   4   9
BRANCH   5  11
ATOM     11  O3  UNL     1      22.233  -6.517 -35.111  0.00  0.00    +0.000 OA
ATOM     12  H19 UNL     1      22.190  -6.644 -36.094  0.00  0.00    +0.000 HD
ENDBRANCH   5  11
BRANCH   1  13
ATOM     13  C4  UNL     1      26.153  -9.378 -35.882  0.00  0.00    +0.000 C 
BRANCH  13  15
ATOM     14  C1  UNL     1      28.430  -7.310 -35.676  0.00  0.00    +0.000 C 
ATOM     15 SI1  UNL     1      28.008  -9.130 -35.637  0.00  0.00    +0.000 Si
ATOM     16  C2  UNL     1      28.601  -9.900 -34.039  0.00  0.00    +0.000 C 
ATOM     17  C3  UNL     1      28.902  -9.973 -37.041  0.00  0.00    +0.000 C 
ENDBRANCH  13  15
ENDBRANCH   1  13
BRANCH   6  18
ATOM     18  C10 UNL     1      24.619  -7.101 -36.954  0.00  0.00    +0.000 C 
BRANCH  18  19
ATOM     19  O4  UNL     1      23.513  -6.929 -37.798  0.00  0.00    +0.000 OA
ATOM     20  H23 UNL     1      23.069  -7.814 -37.856  0.00  0.00    +0.000 HD
ENDBRANCH  18  19
ENDBRANCH   6  18
TORSDOF 7
ENDMDL
MODEL 6
REMARK VINA RESULT:    -3.637      2.360      3.761
REMARK INTER + INTRA:          -5.201
REMARK INTER:                  -4.681
REMARK INTRA:                  -0.520
REMARK UNBOUND:                -0.502
REMARK  Name = resultss/4CJN/ligands/lig_34_t0.pdb
REMARK  10 active torsions:
REMARK  status: ('A' for Active; 'I' for Inactive)
REMARK    1  A    between atoms: C1_1  and  SI1_2
REMARK    2  A    between atoms: SI1_2  and  C2_3
REMARK    3  A    between atoms: SI1_2  and  C3_4
REMARK    4  A    between atoms: SI1_2  and  C4_5
REMARK    5  A    between atoms: C4_5  and  N1_6
REMARK    6  A    between atoms: C6_8  and  O1_9
REMARK    7  A    between atoms: C7_10  and  O2_11
REMARK    8  A    between atoms: C8_12  and  O3_13
REMARK    9  A    between atoms: C9_14  and  C10_15
REMARK   10  A    between atoms: C10_15  and  O4_16
REMARK                            x       y       z     vdW  Elec       q    Type
REMARK                         _______ _______ _______ _____ _____    ______ ____
ROOT
ATOM      1  N1  UNL     1      26.051  -8.059 -36.060  0.00  0.00    +0.000 NA
ATOM      2  C5  UNL     1      24.571  -8.123 -35.880  0.00  0.00    +0.000 C 
ATOM      3  C6  UNL     1      24.106  -8.441 -34.442  0.00  0.00    +0.000 C 
ATOM      4  C7  UNL     1      25.162  -9.271 -33.696  0.00  0.00    +0.000 C 
ATOM      5  C8  UNL     1      26.523  -8.534 -33.652  0.00  0.00    +0.000 C 
ATOM      6  C9  UNL     1      26.722  -7.533 -34.834  0.00  0.00    +0.000 C 
ENDROOT
BRANCH   3   7
ATOM      7  O1  UNL     1      23.843  -7.244 -33.754  0.00  0.00    +0.000 OA
ATOM      8  H15 UNL     1      23.651  -7.490 -32.811  0.00  0.00    +0.000 HD
ENDBRANCH   3   7
BRANCH   4   9
ATOM      9  O2  UNL     1      25.325 -10.511 -34.340  0.00  0.00    +0.000 OA
ATOM     10  H17 UNL     1      25.498 -11.185 -33.632  0.00  0.00    +0.000 HD
ENDBRANCH   4   9
BRANCH   5  11
ATOM     11  O3  UNL     1      26.700  -7.883 -32.417  0.00  0.00    +0.000 OA
ATOM     12  H19 UNL     1      26.402  -6.943 -32.523  0.00  0.00    +0.000 HD
ENDBRANCH   5  11
BRANCH   1  13
ATOM     13  C4  UNL     1      26.372  -7.279 -37.283  0.00  0.00    +0.000 C 
BRANCH  13  15
ATOM     14  C1  UNL     1      25.080  -8.818 -39.621  0.00  0.00    +0.000 C 
ATOM     15 SI1  UNL     1      26.692  -8.372 -38.788  0.00  0.00    +0.000 Si
ATOM     16  C2  UNL     1      27.846  -7.546 -40.006  0.00  0.00    +0.000 C 
ATOM     17  C3  UNL     1      27.510  -9.945 -38.204  0.00  0.00    +0.000 C 
ENDBRANCH  13  15
ENDBRANCH   1  13
BRANCH   6  18
ATOM     18  C10 UNL     1      28.241  -7.279 -35.004  0.00  0.00    +0.000 C 
BRANCH  18  19
ATOM     19  O4  UNL     1      28.982  -8.255 -34.323  0.00  0.00    +0.000 OA
ATOM     20  H23 UNL     1      28.975  -9.060 -34.901  0.00  0.00    +0.000 HD
ENDBRANCH  18  19
ENDBRANCH   6  18
TORSDOF 7
ENDMDL
MODEL 7
REMARK VINA RESULT:    -3.517      2.894      5.042
REMARK INTER + INTRA:          -5.047
REMARK INTER:                  -4.554
REMARK INTRA:                  -0.492
REMARK UNBOUND:                -0.502
REMARK  Name = resultss/4CJN/ligands/lig_34_t0.pdb
REMARK  10 active torsions:
REMARK  status: ('A' for Active; 'I' for Inactive)
REMARK    1  A    between atoms: C1_1  and  SI1_2
REMARK    2  A    between atoms: SI1_2  and  C2_3
REMARK    3  A    between atoms: SI1_2  and  C3_4
REMARK    4  A    between atoms: SI1_2  and  C4_5
REMARK    5  A    between atoms: C4_5  and  N1_6
REMARK    6  A    between atoms: C6_8  and  O1_9
REMARK    7  A    between atoms: C7_10  and  O2_11
REMARK    8  A    between atoms: C8_12  and  O3_13
REMARK    9  A    between atoms: C9_14  and  C10_15
REMARK   10  A    between atoms: C10_15  and  O4_16
REMARK                            x       y       z     vdW  Elec       q    Type
REMARK                         _______ _______ _______ _____ _____    ______ ____
ROOT
ATOM      1  N1  UNL     1      27.537  -9.108 -38.687  0.00  0.00    +0.000 NA
ATOM      2  C5  UNL     1      28.913  -9.417 -39.175  0.00  0.00    +0.000 C 
ATOM      3  C6  UNL     1      28.968 -10.241 -40.481  0.00  0.00    +0.000 C 
ATOM      4  C7  UNL     1      27.718 -11.123 -40.624  0.00  0.00    +0.000 C 
ATOM      5  C8  UNL     1      26.426 -10.269 -40.600  0.00  0.00    +0.000 C 
ATOM      6  C9  UNL     1      26.589  -8.924 -39.825  0.00  0.00    +0.000 C 
ENDROOT
BRANCH   3   7
ATOM      7  O1  UNL     1      29.089  -9.375 -41.581  0.00  0.00    +0.000 OA
ATOM      8  H15 UNL     1      28.381  -9.631 -42.229  0.00  0.00    +0.000 HD
ENDBRANCH   3   7
BRANCH   4   9
ATOM      9  O2  UNL     1      27.680 -12.056 -39.572  0.00  0.00    +0.000 OA
ATOM     10  H17 UNL     1      26.741 -12.095 -39.253  0.00  0.00    +0.000 HD
ENDBRANCH   4   9
BRANCH   5  11
ATOM     11  O3  UNL     1      25.956 -10.035 -41.905  0.00  0.00    +0.000 OA
ATOM     12  H19 UNL     1      24.975  -9.899 -41.856  0.00  0.00    +0.000 HD
ENDBRANCH   5  11
BRANCH   1  13
ATOM     13  C4  UNL     1      27.585  -7.940 -37.770  0.00  0.00    +0.000 C 
BRANCH  13  15
ATOM     14  C1  UNL     1      28.637  -9.729 -35.490  0.00  0.00    +0.000 C 
ATOM     15 SI1  UNL     1      27.385  -8.421 -35.956  0.00  0.00    +0.000 Si
ATOM     16  C2  UNL     1      27.545  -6.939 -34.827  0.00  0.00    +0.000 C 
ATOM     17  C3  UNL     1      25.675  -9.132 -35.724  0.00  0.00    +0.000 C 
ENDBRANCH  13  15
ENDBRANCH   1  13
BRANCH   6  18
ATOM     18  C10 UNL     1      25.182  -8.434 -39.402  0.00  0.00    +0.000 C 
BRANCH  18  19
ATOM     19  O4  UNL     1      24.195  -9.324 -39.851  0.00  0.00    +0.000 OA
ATOM     20  H23 UNL     1      23.591  -8.796 -40.433  0.00  0.00    +0.000 HD
ENDBRANCH  18  19
ENDBRANCH   6  18
TORSDOF 7
ENDMDL
MODEL 8
REMARK VINA RESULT:    -3.517      2.024      2.404
REMARK INTER + INTRA:          -5.046
REMARK INTER:                  -4.656
REMARK INTRA:                  -0.390
REMARK UNBOUND:                -0.502
REMARK  Name = resultss/4CJN/ligands/lig_34_t0.pdb
REMARK  10 active torsions:
REMARK  status: ('A' for Active; 'I' for Inactive)
REMARK    1  A    between atoms: C1_1  and  SI1_2
REMARK    2  A    between atoms: SI1_2  and  C2_3
REMARK    3  A    between atoms: SI1_2  and  C3_4
REMARK    4  A    between atoms: SI1_2  and  C4_5
REMARK    5  A    between atoms: C4_5  and  N1_6
REMARK    6  A    between atoms: C6_8  and  O1_9
REMARK    7  A    between atoms: C7_10  and  O2_11
REMARK    8  A    between atoms: C8_12  and  O3_13
REMARK    9  A    between atoms: C9_14  and  C10_15
REMARK   10  A    between atoms: C10_15  and  O4_16
REMARK                            x       y       z     vdW  Elec       q    Type
REMARK                         _______ _______ _______ _____ _____    ______ ____
ROOT
ATOM      1  N1  UNL     1      26.334  -7.906 -35.811  0.00  0.00    +0.000 NA
ATOM      2  C5  UNL     1      26.995  -9.017 -35.066  0.00  0.00    +0.000 C 
ATOM      3  C6  UNL     1      26.145  -9.633 -33.933  0.00  0.00    +0.000 C 
ATOM      4  C7  UNL     1      25.159  -8.601 -33.366  0.00  0.00    +0.000 C 
ATOM      5  C8  UNL     1      24.228  -8.050 -34.475  0.00  0.00    +0.000 C 
ATOM      6  C9  UNL     1      24.859  -8.119 -35.901  0.00  0.00    +0.000 C 
ENDROOT
BRANCH   3   7
ATOM      7  O1  UNL     1      25.457 -10.760 -34.416  0.00  0.00    +0.000 OA
ATOM      8  H15 UNL     1      24.713 -10.936 -33.784  0.00  0.00    +0.000 HD
ENDBRANCH   3   7
BRANCH   4   9
ATOM      9  O2  UNL     1      25.874  -7.537 -32.787  0.00  0.00    +0.000 OA
ATOM     10  H17 UNL     1      25.238  -6.781 -32.687  0.00  0.00    +0.000 HD
ENDBRANCH   4   9
BRANCH   5  11
ATOM     11  O3  UNL     1      22.982  -8.703 -34.453  0.00  0.00    +0.000 OA
ATOM     12  H19 UNL     1      23.143  -9.662 -34.256  0.00  0.00    +0.000 HD
ENDBRANCH   5  11
BRANCH   1  13
ATOM     13  C4  UNL     1      26.983  -7.741 -37.138  0.00  0.00    +0.000 C 
BRANCH  13  15
ATOM     14  C1  UNL     1      29.010  -5.883 -38.533  0.00  0.00    +0.000 C 
ATOM     15 SI1  UNL     1      28.688  -6.939 -37.025  0.00  0.00    +0.000 Si
ATOM     16  C2  UNL     1      28.869  -5.919 -35.468  0.00  0.00    +0.000 C 
ATOM     17  C3  UNL     1      29.969  -8.295 -36.970  0.00  0.00    +0.000 C 
ENDBRANCH  13  15
ENDBRANCH   1  13
BRANCH   6  18
ATOM     18  C10 UNL     1      24.127  -7.095 -36.805  0.00  0.00    +0.000 C 
BRANCH  18  19
ATOM     19  O4  UNL     1      22.758  -7.392 -36.875  0.00  0.00    +0.000 OA
ATOM     20  H23 UNL     1      22.325  -6.867 -36.154  0.00  0.00    +0.000 HD
ENDBRANCH  18  19
ENDBRANCH   6  18
TORSDOF 7
ENDMDL
MODEL 9
REMARK VINA RESULT:    -3.315      2.711      4.785
REMARK INTER + INTRA:          -4.786
REMARK INTER:                  -4.311
REMARK INTRA:                  -0.475
REMARK UNBOUND:                -0.502
REMARK  Name = resultss/4CJN/ligands/lig_34_t0.pdb
REMARK  10 active torsions:
REMARK  status: ('A' for Active; 'I' for Inactive)
REMARK    1  A    between atoms: C1_1  and  SI1_2
REMARK    2  A    between atoms: SI1_2  and  C2_3
REMARK    3  A    between atoms: SI1_2  and  C3_4
REMARK    4  A    between atoms: SI1_2  and  C4_5
REMARK    5  A    between atoms: C4_5  and  N1_6
REMARK    6  A    between atoms: C6_8  and  O1_9
REMARK    7  A    between atoms: C7_10  and  O2_11
REMARK    8  A    between atoms: C8_12  and  O3_13
REMARK    9  A    between atoms: C9_14  and  C10_15
REMARK   10  A    between atoms: C10_15  and  O4_16
REMARK                            x       y       z     vdW  Elec       q    Type
REMARK                         _______ _______ _______ _____ _____    ______ ____
ROOT
ATOM      1  N1  UNL     1      27.087  -8.525 -37.027  0.00  0.00    +0.000 NA
ATOM      2  C5  UNL     1      28.575  -8.584 -37.133  0.00  0.00    +0.000 C 
ATOM      3  C6  UNL     1      29.107  -9.220 -38.436  0.00  0.00    +0.000 C 
ATOM      4  C7  UNL     1      28.101 -10.235 -39.001  0.00  0.00    +0.000 C 
ATOM      5  C8  UNL     1      26.728  -9.569 -39.268  0.00  0.00    +0.000 C 
ATOM      6  C9  UNL     1      26.459  -8.324 -38.366  0.00  0.00    +0.000 C 
ENDROOT
BRANCH   3   7
ATOM      7  O1  UNL     1      29.374  -8.212 -39.379  0.00  0.00    +0.000 OA
ATOM      8  H15 UNL     1      28.608  -8.199 -40.011  0.00  0.00    +0.000 HD
ENDBRANCH   3   7
BRANCH   4   9
ATOM      9  O2  UNL     1      27.937 -11.291 -38.087  0.00  0.00    +0.000 OA
ATOM     10  H17 UNL     1      28.060 -12.135 -38.594  0.00  0.00    +0.000 HD
ENDBRANCH   4   9
BRANCH   5  11
ATOM     11  O3  UNL     1      26.590  -9.235 -40.628  0.00  0.00    +0.000 OA
ATOM     12  H19 UNL     1      27.412  -8.759 -40.910  0.00  0.00    +0.000 HD
ENDBRANCH   5  11
BRANCH   1  13
ATOM     13  C4  UNL     1      26.699  -7.487 -36.037  0.00  0.00    +0.000 C 
BRANCH  13  15
ATOM     14  C1  UNL     1      26.037 -10.041 -34.444  0.00  0.00    +0.000 C 
ATOM     15 SI1  UNL     1      26.340  -8.201 -34.328  0.00  0.00    +0.000 Si
ATOM     16  C2  UNL     1      27.729  -7.846 -33.126  0.00  0.00    +0.000 C 
ATOM     17  C3  UNL     1      24.794  -7.389 -33.668  0.00  0.00    +0.000 C 
ENDBRANCH  13  15
ENDBRANCH   1  13
BRANCH   6  18
ATOM     18  C10 UNL     1      24.929  -8.082 -38.317  0.00  0.00    +0.000 C 
BRANCH  18  19
ATOM     19  O4  UNL     1      24.263  -8.971 -39.173  0.00  0.00    +0.000 OA
ATOM     20  H23 UNL     1      24.186  -8.509 -40.046  0.00  0.00    +0.000 HD
ENDBRANCH  18  19
ENDBRANCH   6  18
TORSDOF 7
ENDMDL
