MODEL 1
REMARK VINA RESULT:    -5.546      0.000      0.000
REMARK INTER + INTRA:          -6.589
REMARK INTER:                  -6.518
REMARK INTRA:                  -0.071
REMARK UNBOUND:                -0.071
REMARK  Name = resultss/4CJN/ligands/lig_291_t0.pdb
REMARK  6 active torsions:
REMARK  status: ('A' for Active; 'I' for Inactive)
REMARK    1  A    between atoms: C1_1  and  O1_2
REMARK    2  A    between atoms: O1_2  and  C2_3
REMARK    3  A    between atoms: C8_10  and  O3_11
REMARK    4  A    between atoms: C10_13  and  O4_14
REMARK    5  A    between atoms: C14_19  and  O6_20
REMARK    6  A    between atoms: O6_20  and  C15_21
REMARK                            x       y       z     vdW  Elec       q    Type
REMARK                         _______ _______ _______ _____ _____    ______ ____
ROOT
ATOM      1  C2  UNL     1      28.175  -9.532 -38.776  0.00  0.00    +0.000 A 
ATOM      2  C3  UNL     1      28.801 -10.093 -37.650  0.00  0.00    +0.000 A 
ATOM      3  C4  UNL     1      28.192 -10.053 -36.402  0.00  0.00    +0.000 A 
ATOM      4  C5  UNL     1      26.946  -9.452 -36.245  0.00  0.00    +0.000 A 
ATOM      5  O2  UNL     1      26.403  -9.422 -35.036  0.00  0.00    +0.000 OA
ATOM      6  C6  UNL     1      25.218  -8.887 -34.785  0.00  0.00    +0.000 A 
ATOM      7  C7  UNL     1      24.755  -8.883 -33.466  0.00  0.00    +0.000 A 
ATOM      8  C8  UNL     1      23.521  -8.314 -33.152  0.00  0.00    +0.000 A 
ATOM      9  C9  UNL     1      22.729  -7.777 -34.166  0.00  0.00    +0.000 A 
ATOM     10  C10 UNL     1      23.148  -7.805 -35.502  0.00  0.00    +0.000 A 
ATOM     11  C11 UNL     1      24.439  -8.322 -35.826  0.00  0.00    +0.000 A 
ATOM     12  C12 UNL     1      25.018  -8.278 -37.119  0.00  0.00    +0.000 A 
ATOM     13  O5  UNL     1      24.434  -7.672 -38.055  0.00  0.00    +0.000 OA
ATOM     14  C13 UNL     1      26.283  -8.879 -37.351  0.00  0.00    +0.000 A 
ATOM     15  C14 UNL     1      26.900  -8.917 -38.635  0.00  0.00    +0.000 A 
ENDROOT
BRANCH   1  17
ATOM     16  C1  UNL     1      28.831 -10.710 -40.894  0.00  0.00    +0.000 C 
ATOM     17  O1  UNL     1      28.800  -9.576 -40.033  0.00  0.00    +0.000 OA
ENDBRANCH   1  17
BRANCH   8  18
ATOM     18  O3  UNL     1      23.065  -8.286 -31.836  0.00  0.00    +0.000 OA
ATOM     19  H7  UNL     1      23.340  -8.995 -31.164  0.00  0.00    +0.000 HD
ENDBRANCH   8  18
BRANCH  10  20
ATOM     20  O4  UNL     1      22.233  -7.340 -36.451  0.00  0.00    +0.000 OA
ATOM     21  H9  UNL     1      21.425  -6.775 -36.237  0.00  0.00    +0.000 HD
ENDBRANCH  10  20
BRANCH  15  22
ATOM     22  O6  UNL     1      26.210  -8.342 -39.723  0.00  0.00    +0.000 OA
ATOM     23  C15 UNL     1      25.535  -9.027 -40.774  0.00  0.00    +0.000 C 
ENDBRANCH  15  22
TORSDOF 4
ENDMDL
MODEL 2
REMARK VINA RESULT:    -5.171      1.614      6.630
REMARK INTER + INTRA:          -6.149
REMARK INTER:                  -6.151
REMARK INTRA:                   0.002
REMARK UNBOUND:                -0.071
REMARK  Name = resultss/4CJN/ligands/lig_291_t0.pdb
REMARK  6 active torsions:
REMARK  status: ('A' for Active; 'I' for Inactive)
REMARK    1  A    between atoms: C1_1  and  O1_2
REMARK    2  A    between atoms: O1_2  and  C2_3
REMARK    3  A    between atoms: C8_10  and  O3_11
REMARK    4  A    between atoms: C10_13  and  O4_14
REMARK    5  A    between atoms: C14_19  and  O6_20
REMARK    6  A    between atoms: O6_20  and  C15_21
REMARK                            x       y       z     vdW  Elec       q    Type
REMARK                         _______ _______ _______ _____ _____    ______ ____
ROOT
ATOM      1  C2  UNL     1      24.914  -8.539 -35.016  0.00  0.00    +0.000 A 
ATOM      2  C3  UNL     1      24.030  -7.655 -35.659  0.00  0.00    +0.000 A 
ATOM      3  C4  UNL     1      24.078  -7.475 -37.035  0.00  0.00    +0.000 A 
ATOM      4  C5  UNL     1      25.006  -8.171 -37.806  0.00  0.00    +0.000 A 
ATOM      5  O2  UNL     1      25.028  -7.962 -39.114  0.00  0.00    +0.000 OA
ATOM      6  C6  UNL     1      25.863  -8.583 -39.935  0.00  0.00    +0.000 A 
ATOM      7  C7  UNL     1      25.820  -8.264 -41.295  0.00  0.00    +0.000 A 
ATOM      8  C8  UNL     1      26.693  -8.879 -42.192  0.00  0.00    +0.000 A 
ATOM      9  C9  UNL     1      27.590  -9.844 -41.734  0.00  0.00    +0.000 A 
ATOM     10  C10 UNL     1      27.626 -10.214 -40.385  0.00  0.00    +0.000 A 
ATOM     11  C11 UNL     1      26.785  -9.542 -39.445  0.00  0.00    +0.000 A 
ATOM     12  C12 UNL     1      26.833  -9.740 -38.043  0.00  0.00    +0.000 A 
ATOM     13  O5  UNL     1      27.719 -10.477 -37.535  0.00  0.00    +0.000 OA
ATOM     14  C13 UNL     1      25.910  -9.069 -37.199  0.00  0.00    +0.000 A 
ATOM     15  C14 UNL     1      25.868  -9.261 -35.787  0.00  0.00    +0.000 A 
ENDROOT
BRANCH   1  17
ATOM     16  C1  UNL     1      23.666  -8.875 -32.863  0.00  0.00    +0.000 C 
ATOM     17  O1  UNL     1      24.860  -8.713 -33.624  0.00  0.00    +0.000 OA
ENDBRANCH   1  17
BRANCH   8  18
ATOM     18  O3  UNL     1      26.671  -8.548 -43.545  0.00  0.00    +0.000 OA
ATOM     19  H7  UNL     1      25.971  -7.922 -43.926  0.00  0.00    +0.000 HD
ENDBRANCH   8  18
BRANCH  10  20
ATOM     20  O4  UNL     1      28.483 -11.266 -40.050  0.00  0.00    +0.000 OA
ATOM     21  H9  UNL     1      29.489 -11.229 -40.123  0.00  0.00    +0.000 HD
ENDBRANCH  10  20
BRANCH  15  22
ATOM     22  O6  UNL     1      26.778 -10.171 -35.211  0.00  0.00    +0.000 OA
ATOM     23  C15 UNL     1      27.901  -9.863 -34.391  0.00  0.00    +0.000 C 
ENDBRANCH  15  22
TORSDOF 4
ENDMDL
MODEL 3
REMARK VINA RESULT:    -5.125      2.249      3.739
REMARK INTER + INTRA:          -6.095
REMARK INTER:                  -6.073
REMARK INTRA:                  -0.023
REMARK UNBOUND:                -0.071
REMARK  Name = resultss/4CJN/ligands/lig_291_t0.pdb
REMARK  6 active torsions:
REMARK  status: ('A' for Active; 'I' for Inactive)
REMARK    1  A    between atoms: C1_1  and  O1_2
REMARK    2  A    between atoms: O1_2  and  C2_3
REMARK    3  A    between atoms: C8_10  and  O3_11
REMARK    4  A    between atoms: C10_13  and  O4_14
REMARK    5  A    between atoms: C14_19  and  O6_20
REMARK    6  A    between atoms: O6_20  and  C15_21
REMARK                            x       y       z     vdW  Elec       q    Type
REMARK                         _______ _______ _______ _____ _____    ______ ____
ROOT
ATOM      1  C2  UNL     1      26.911  -9.528 -41.621  0.00  0.00    +0.000 A 
ATOM      2  C3  UNL     1      28.275  -9.867 -41.570  0.00  0.00    +0.000 A 
ATOM      3  C4  UNL     1      28.926 -10.020 -40.353  0.00  0.00    +0.000 A 
ATOM      4  C5  UNL     1      28.237  -9.840 -39.157  0.00  0.00    +0.000 A 
ATOM      5  O2  UNL     1      28.896  -9.982 -38.016  0.00  0.00    +0.000 OA
ATOM      6  C6  UNL     1      28.329  -9.845 -36.827  0.00  0.00    +0.000 A 
ATOM      7  C7  UNL     1      29.127  -9.987 -35.688  0.00  0.00    +0.000 A 
ATOM      8  C8  UNL     1      28.576  -9.833 -34.416  0.00  0.00    +0.000 A 
ATOM      9  C9  UNL     1      27.213  -9.570 -34.280  0.00  0.00    +0.000 A 
ATOM     10  C10 UNL     1      26.382  -9.464 -35.401  0.00  0.00    +0.000 A 
ATOM     11  C11 UNL     1      26.947  -9.551 -36.710  0.00  0.00    +0.000 A 
ATOM     12  C12 UNL     1      26.226  -9.327 -37.909  0.00  0.00    +0.000 A 
ATOM     13  O5  UNL     1      25.031  -8.933 -37.868  0.00  0.00    +0.000 OA
ATOM     14  C13 UNL     1      26.866  -9.502 -39.164  0.00  0.00    +0.000 A 
ATOM     15  C14 UNL     1      26.189  -9.343 -40.409  0.00  0.00    +0.000 A 
ENDROOT
BRANCH   1  17
ATOM     16  C1  UNL     1      26.342  -8.219 -43.687  0.00  0.00    +0.000 C 
ATOM     17  O1  UNL     1      26.262  -9.374 -42.857  0.00  0.00    +0.000 OA
ENDBRANCH   1  17
BRANCH   8  18
ATOM     18  O3  UNL     1      29.371  -9.951 -33.278  0.00  0.00    +0.000 OA
ATOM     19  H7  UNL     1      30.338  -9.647 -33.273  0.00  0.00    +0.000 HD
ENDBRANCH   8  18
BRANCH  10  20
ATOM     20  O4  UNL     1      25.015  -9.307 -35.150  0.00  0.00    +0.000 OA
ATOM     21  H9  UNL     1      24.521  -9.743 -34.386  0.00  0.00    +0.000 HD
ENDBRANCH  10  20
BRANCH  15  22
ATOM     22  O6  UNL     1      24.818  -9.012 -40.385  0.00  0.00    +0.000 OA
ATOM     23  C15 UNL     1      24.225  -7.771 -40.754  0.00  0.00    +0.000 C 
ENDBRANCH  15  22
TORSDOF 4
ENDMDL
MODEL 4
REMARK VINA RESULT:    -5.110      1.517      3.368
REMARK INTER + INTRA:          -6.078
REMARK INTER:                  -5.993
REMARK INTRA:                  -0.085
REMARK UNBOUND:                -0.071
REMARK  Name = resultss/4CJN/ligands/lig_291_t0.pdb
REMARK  6 active torsions:
REMARK  status: ('A' for Active; 'I' for Inactive)
REMARK    1  A    between atoms: C1_1  and  O1_2
REMARK    2  A    between atoms: O1_2  and  C2_3
REMARK    3  A    between atoms: C8_10  and  O3_11
REMARK    4  A    between atoms: C10_13  and  O4_14
REMARK    5  A    between atoms: C14_19  and  O6_20
REMARK    6  A    between atoms: O6_20  and  C15_21
REMARK                            x       y       z     vdW  Elec       q    Type
REMARK                         _______ _______ _______ _____ _____    ______ ____
ROOT
ATOM      1  C2  UNL     1      26.488  -9.253 -40.958  0.00  0.00    +0.000 A 
ATOM      2  C3  UNL     1      25.318  -8.474 -40.965  0.00  0.00    +0.000 A 
ATOM      3  C4  UNL     1      24.703  -8.101 -39.776  0.00  0.00    +0.000 A 
ATOM      4  C5  UNL     1      25.237  -8.495 -38.552  0.00  0.00    +0.000 A 
ATOM      5  O2  UNL     1      24.614  -8.130 -37.441  0.00  0.00    +0.000 OA
ATOM      6  C6  UNL     1      25.048  -8.442 -36.229  0.00  0.00    +0.000 A 
ATOM      7  C7  UNL     1      24.295  -8.031 -35.126  0.00  0.00    +0.000 A 
ATOM      8  C8  UNL     1      24.704  -8.353 -33.831  0.00  0.00    +0.000 A 
ATOM      9  C9  UNL     1      25.890  -9.060 -33.637  0.00  0.00    +0.000 A 
ATOM     10  C10 UNL     1      26.686  -9.448 -34.720  0.00  0.00    +0.000 A 
ATOM     11  C11 UNL     1      26.242  -9.185 -36.053  0.00  0.00    +0.000 A 
ATOM     12  C12 UNL     1      26.898  -9.647 -37.221  0.00  0.00    +0.000 A 
ATOM     13  O5  UNL     1      27.886 -10.422 -37.130  0.00  0.00    +0.000 OA
ATOM     14  C13 UNL     1      26.411  -9.276 -38.501  0.00  0.00    +0.000 A 
ATOM     15  C14 UNL     1      27.050  -9.663 -39.716  0.00  0.00    +0.000 A 
ENDROOT
BRANCH   1  17
ATOM     16  C1  UNL     1      27.727  -8.731 -43.078  0.00  0.00    +0.000 C 
ATOM     17  O1  UNL     1      27.101  -9.627 -42.164  0.00  0.00    +0.000 OA
ENDBRANCH   1  17
BRANCH   8  18
ATOM     18  O3  UNL     1      23.945  -7.965 -32.729  0.00  0.00    +0.000 OA
ATOM     19  H7  UNL     1      22.990  -8.283 -32.605  0.00  0.00    +0.000 HD
ENDBRANCH   8  18
BRANCH  10  20
ATOM     20  O4  UNL     1      27.907 -10.055 -34.410  0.00  0.00    +0.000 OA
ATOM     21  H9  UNL     1      28.288 -10.852 -34.896  0.00  0.00    +0.000 HD
ENDBRANCH  10  20
BRANCH  15  22
ATOM     22  O6  UNL     1      28.226 -10.437 -39.634  0.00  0.00    +0.000 OA
ATOM     23  C15 UNL     1      29.544 -10.044 -40.005  0.00  0.00    +0.000 C 
ENDBRANCH  15  22
TORSDOF 4
ENDMDL
MODEL 5
REMARK VINA RESULT:    -4.852      2.217      5.871
REMARK INTER + INTRA:          -5.774
REMARK INTER:                  -5.686
REMARK INTRA:                  -0.089
REMARK UNBOUND:                -0.071
REMARK  Name = resultss/4CJN/ligands/lig_291_t0.pdb
REMARK  6 active torsions:
REMARK  status: ('A' for Active; 'I' for Inactive)
REMARK    1  A    between atoms: C1_1  and  O1_2
REMARK    2  A    between atoms: O1_2  and  C2_3
REMARK    3  A    between atoms: C8_10  and  O3_11
REMARK    4  A    between atoms: C10_13  and  O4_14
REMARK    5  A    between atoms: C14_19  and  O6_20
REMARK    6  A    between atoms: O6_20  and  C15_21
REMARK                            x       y       z     vdW  Elec       q    Type
REMARK                         _______ _______ _______ _____ _____    ______ ____
ROOT
ATOM      1  C2  UNL     1      29.236  -9.625 -34.606  0.00  0.00    +0.000 A 
ATOM      2  C3  UNL     1      30.407  -9.713 -35.379  0.00  0.00    +0.000 A 
ATOM      3  C4  UNL     1      30.349  -9.685 -36.767  0.00  0.00    +0.000 A 
ATOM      4  C5  UNL     1      29.124  -9.568 -37.419  0.00  0.00    +0.000 A 
ATOM      5  O2  UNL     1      29.109  -9.558 -38.744  0.00  0.00    +0.000 OA
ATOM      6  C6  UNL     1      27.999  -9.438 -39.457  0.00  0.00    +0.000 A 
ATOM      7  C7  UNL     1      28.097  -9.470 -40.851  0.00  0.00    +0.000 A 
ATOM      8  C8  UNL     1      26.952  -9.365 -41.641  0.00  0.00    +0.000 A 
ATOM      9  C9  UNL     1      25.707  -9.194 -41.037  0.00  0.00    +0.000 A 
ATOM     10  C10 UNL     1      25.584  -9.116 -39.645  0.00  0.00    +0.000 A 
ATOM     11  C11 UNL     1      26.740  -9.291 -38.823  0.00  0.00    +0.000 A 
ATOM     12  C12 UNL     1      26.712  -9.364 -37.408  0.00  0.00    +0.000 A 
ATOM     13  O5  UNL     1      25.613  -9.373 -36.794  0.00  0.00    +0.000 OA
ATOM     14  C13 UNL     1      27.925  -9.475 -36.680  0.00  0.00    +0.000 A 
ATOM     15  C14 UNL     1      27.976  -9.502 -35.255  0.00  0.00    +0.000 A 
ENDROOT
BRANCH   1  17
ATOM     16  C1  UNL     1      29.891  -8.646 -32.389  0.00  0.00    +0.000 C 
ATOM     17  O1  UNL     1      29.305  -9.656 -33.204  0.00  0.00    +0.000 OA
ENDBRANCH   1  17
BRANCH   8  18
ATOM     18  O3  UNL     1      27.040  -9.420 -43.031  0.00  0.00    +0.000 OA
ATOM     19  H7  UNL     1      27.214 -10.292 -43.517  0.00  0.00    +0.000 HD
ENDBRANCH   8  18
BRANCH  10  20
ATOM     20  O4  UNL     1      24.309  -8.833 -39.147  0.00  0.00    +0.000 OA
ATOM     21  H9  UNL     1      23.570  -8.401 -39.681  0.00  0.00    +0.000 HD
ENDBRANCH  10  20
BRANCH  15  22
ATOM     22  O6  UNL     1      26.762  -9.399 -34.544  0.00  0.00    +0.000 OA
ATOM     23  C15 UNL     1      26.332  -8.314 -33.728  0.00  0.00    +0.000 C 
ENDBRANCH  15  22
TORSDOF 4
ENDMDL
MODEL 6
REMARK VINA RESULT:    -4.765      2.286      4.091
REMARK INTER + INTRA:          -5.672
REMARK INTER:                  -5.596
REMARK INTRA:                  -0.076
REMARK UNBOUND:                -0.071
REMARK  Name = resultss/4CJN/ligands/lig_291_t0.pdb
REMARK  6 active torsions:
REMARK  status: ('A' for Active; 'I' for Inactive)
REMARK    1  A    between atoms: C1_1  and  O1_2
REMARK    2  A    between atoms: O1_2  and  C2_3
REMARK    3  A    between atoms: C8_10  and  O3_11
REMARK    4  A    between atoms: C10_13  and  O4_14
REMARK    5  A    between atoms: C14_19  and  O6_20
REMARK    6  A    between atoms: O6_20  and  C15_21
REMARK                            x       y       z     vdW  Elec       q    Type
REMARK                         _______ _______ _______ _____ _____    ______ ____
ROOT
ATOM      1  C2  UNL     1      26.200  -9.586 -40.087  0.00  0.00    +0.000 A 
ATOM      2  C3  UNL     1      25.079  -8.886 -39.607  0.00  0.00    +0.000 A 
ATOM      3  C4  UNL     1      25.013  -8.466 -38.285  0.00  0.00    +0.000 A 
ATOM      4  C5  UNL     1      26.061  -8.733 -37.407  0.00  0.00    +0.000 A 
ATOM      5  O2  UNL     1      25.955  -8.327 -36.150  0.00  0.00    +0.000 OA
ATOM      6  C6  UNL     1      26.900  -8.520 -35.242  0.00  0.00    +0.000 A 
ATOM      7  C7  UNL     1      26.669  -8.077 -33.937  0.00  0.00    +0.000 A 
ATOM      8  C8  UNL     1      27.630  -8.275 -32.944  0.00  0.00    +0.000 A 
ATOM      9  C9  UNL     1      28.840  -8.888 -33.265  0.00  0.00    +0.000 A 
ATOM     10  C10 UNL     1      29.115  -9.304 -34.573  0.00  0.00    +0.000 A 
ATOM     11  C11 UNL     1      28.113  -9.169 -35.582  0.00  0.00    +0.000 A 
ATOM     12  C12 UNL     1      28.233  -9.674 -36.901  0.00  0.00    +0.000 A 
ATOM     13  O5  UNL     1      29.227 -10.374 -37.225  0.00  0.00    +0.000 OA
ATOM     14  C13 UNL     1      27.205  -9.431 -37.849  0.00  0.00    +0.000 A 
ATOM     15  C14 UNL     1      27.282  -9.865 -39.205  0.00  0.00    +0.000 A 
ENDROOT
BRANCH   1  17
ATOM     16  C1  UNL     1      26.087  -9.164 -42.559  0.00  0.00    +0.000 C 
ATOM     17  O1  UNL     1      26.257 -10.008 -41.425  0.00  0.00    +0.000 OA
ENDBRANCH   1  17
BRANCH   8  18
ATOM     18  O3  UNL     1      27.396  -7.856 -31.636  0.00  0.00    +0.000 OA
ATOM     19  H7  UNL     1      28.157  -7.616 -31.012  0.00  0.00    +0.000 HD
ENDBRANCH   8  18
BRANCH  10  20
ATOM     20  O4  UNL     1      30.399  -9.806 -34.809  0.00  0.00    +0.000 OA
ATOM     21  H9  UNL     1      30.840 -10.527 -34.259  0.00  0.00    +0.000 HD
ENDBRANCH  10  20
BRANCH  15  22
ATOM     22  O6  UNL     1      28.441 -10.553 -39.620  0.00  0.00    +0.000 OA
ATOM     23  C15 UNL     1      29.444 -10.088 -40.517  0.00  0.00    +0.000 C 
ENDBRANCH  15  22
TORSDOF 4
ENDMDL
MODEL 7
REMARK VINA RESULT:    -4.725      3.011      6.523
REMARK INTER + INTRA:          -5.625
REMARK INTER:                  -5.622
REMARK INTRA:                  -0.003
REMARK UNBOUND:                -0.071
REMARK  Name = resultss/4CJN/ligands/lig_291_t0.pdb
REMARK  6 active torsions:
REMARK  status: ('A' for Active; 'I' for Inactive)
REMARK    1  A    between atoms: C1_1  and  O1_2
REMARK    2  A    between atoms: O1_2  and  C2_3
REMARK    3  A    between atoms: C8_10  and  O3_11
REMARK    4  A    between atoms: C10_13  and  O4_14
REMARK    5  A    between atoms: C14_19  and  O6_20
REMARK    6  A    between atoms: O6_20  and  C15_21
REMARK                            x       y       z     vdW  Elec       q    Type
REMARK                         _______ _______ _______ _____ _____    ______ ____
ROOT
ATOM      1  C2  UNL     1      28.734  -9.792 -35.847  0.00  0.00    +0.000 A 
ATOM      2  C3  UNL     1      27.380  -9.506 -35.601  0.00  0.00    +0.000 A 
ATOM      3  C4  UNL     1      26.485  -9.338 -36.649  0.00  0.00    +0.000 A 
ATOM      4  C5  UNL     1      26.915  -9.449 -37.969  0.00  0.00    +0.000 A 
ATOM      5  O2  UNL     1      26.034  -9.268 -38.941  0.00  0.00    +0.000 OA
ATOM      6  C6  UNL     1      26.340  -9.366 -40.227  0.00  0.00    +0.000 A 
ATOM      7  C7  UNL     1      25.337  -9.125 -41.170  0.00  0.00    +0.000 A 
ATOM      8  C8  UNL     1      25.619  -9.199 -42.534  0.00  0.00    +0.000 A 
ATOM      9  C9  UNL     1      26.900  -9.548 -42.958  0.00  0.00    +0.000 A 
ATOM     10  C10 UNL     1      27.913  -9.835 -42.036  0.00  0.00    +0.000 A 
ATOM     11  C11 UNL     1      27.656  -9.696 -40.638  0.00  0.00    +0.000 A 
ATOM     12  C12 UNL     1      28.638  -9.830 -39.625  0.00  0.00    +0.000 A 
ATOM     13  O5  UNL     1      29.849  -9.991 -39.932  0.00  0.00    +0.000 OA
ATOM     14  C13 UNL     1      28.266  -9.737 -38.259  0.00  0.00    +0.000 A 
ATOM     15  C14 UNL     1      29.192  -9.912 -37.189  0.00  0.00    +0.000 A 
ENDROOT
BRANCH   1  17
ATOM     16  C1  UNL     1      29.413  -9.511 -33.446  0.00  0.00    +0.000 C 
ATOM     17  O1  UNL     1      29.632  -9.959 -34.780  0.00  0.00    +0.000 OA
ENDBRANCH   1  17
BRANCH   8  18
ATOM     18  O3  UNL     1      24.629  -8.937 -43.479  0.00  0.00    +0.000 OA
ATOM     19  H7  UNL     1      23.649  -8.897 -43.223  0.00  0.00    +0.000 HD
ENDBRANCH   8  18
BRANCH  10  20
ATOM     20  O4  UNL     1      29.129 -10.280 -42.565  0.00  0.00    +0.000 OA
ATOM     21  H9  UNL     1      29.336 -11.241 -42.792  0.00  0.00    +0.000 HD
ENDBRANCH  10  20
BRANCH  15  22
ATOM     22  O6  UNL     1      30.534 -10.207 -37.510  0.00  0.00    +0.000 OA
ATOM     23  C15 UNL     1      31.682  -9.417 -37.218  0.00  0.00    +0.000 C 
ENDBRANCH  15  22
TORSDOF 4
ENDMDL
MODEL 8
REMARK VINA RESULT:    -4.587      4.360      6.486
REMARK INTER + INTRA:          -5.463
REMARK INTER:                  -5.420
REMARK INTRA:                  -0.043
REMARK UNBOUND:                -0.071
REMARK  Name = resultss/4CJN/ligands/lig_291_t0.pdb
REMARK  6 active torsions:
REMARK  status: ('A' for Active; 'I' for Inactive)
REMARK    1  A    between atoms: C1_1  and  O1_2
REMARK    2  A    between atoms: O1_2  and  C2_3
REMARK    3  A    between atoms: C8_10  and  O3_11
REMARK    4  A    between atoms: C10_13  and  O4_14
REMARK    5  A    between atoms: C14_19  and  O6_20
REMARK    6  A    between atoms: O6_20  and  C15_21
REMARK                            x       y       z     vdW  Elec       q    Type
REMARK                         _______ _______ _______ _____ _____    ______ ____
ROOT
ATOM      1  C2  UNL     1      30.736  -9.448 -37.560  0.00  0.00    +0.000 A 
ATOM      2  C3  UNL     1      29.688 -10.060 -36.850  0.00  0.00    +0.000 A 
ATOM      3  C4  UNL     1      28.455 -10.282 -37.450  0.00  0.00    +0.000 A 
ATOM      4  C5  UNL     1      28.235  -9.902 -38.771  0.00  0.00    +0.000 A 
ATOM      5  O2  UNL     1      27.041 -10.119 -39.304  0.00  0.00    +0.000 OA
ATOM      6  C6  UNL     1      26.736  -9.806 -40.555  0.00  0.00    +0.000 A 
ATOM      7  C7  UNL     1      25.435 -10.053 -41.004  0.00  0.00    +0.000 A 
ATOM      8  C8  UNL     1      25.064  -9.722 -42.307  0.00  0.00    +0.000 A 
ATOM      9  C9  UNL     1      26.006  -9.175 -43.177  0.00  0.00    +0.000 A 
ATOM     10  C10 UNL     1      27.327  -8.956 -42.768  0.00  0.00    +0.000 A 
ATOM     11  C11 UNL     1      27.700  -9.226 -41.415  0.00  0.00    +0.000 A 
ATOM     12  C12 UNL     1      28.967  -8.919 -40.858  0.00  0.00    +0.000 A 
ATOM     13  O5  UNL     1      29.820  -8.283 -41.532  0.00  0.00    +0.000 OA
ATOM     14  C13 UNL     1      29.261  -9.287 -39.520  0.00  0.00    +0.000 A 
ATOM     15  C14 UNL     1      30.530  -9.055 -38.912  0.00  0.00    +0.000 A 
ENDROOT
BRANCH   1  17
ATOM     16  C1  UNL     1      32.215  -9.256 -35.540  0.00  0.00    +0.000 C 
ATOM     17  O1  UNL     1      31.978  -9.226 -36.944  0.00  0.00    +0.000 OA
ENDBRANCH   1  17
BRANCH   8  18
ATOM     18  O3  UNL     1      23.763  -9.944 -42.754  0.00  0.00    +0.000 OA
ATOM     19  H7  UNL     1      23.573 -10.272 -43.694  0.00  0.00    +0.000 HD
ENDBRANCH   8  18
BRANCH  10  20
ATOM     20  O4  UNL     1      28.216  -8.506 -43.748  0.00  0.00    +0.000 OA
ATOM     21  H9  UNL     1      28.335  -7.540 -44.012  0.00  0.00    +0.000 HD
ENDBRANCH  10  20
BRANCH  15  22
ATOM     22  O6  UNL     1      31.539  -8.445 -39.687  0.00  0.00    +0.000 OA
ATOM     23  C15 UNL     1      32.735  -9.048 -40.171  0.00  0.00    +0.000 C 
ENDBRANCH  15  22
TORSDOF 4
ENDMDL
MODEL 9
REMARK VINA RESULT:    -4.511      2.981      5.073
REMARK INTER + INTRA:          -5.373
REMARK INTER:                  -5.291
REMARK INTRA:                  -0.082
REMARK UNBOUND:                -0.071
REMARK  Name = resultss/4CJN/ligands/lig_291_t0.pdb
REMARK  6 active torsions:
REMARK  status: ('A' for Active; 'I' for Inactive)
REMARK    1  A    between atoms: C1_1  and  O1_2
REMARK    2  A    between atoms: O1_2  and  C2_3
REMARK    3  A    between atoms: C8_10  and  O3_11
REMARK    4  A    between atoms: C10_13  and  O4_14
REMARK    5  A    between atoms: C14_19  and  O6_20
REMARK    6  A    between atoms: O6_20  and  C15_21
REMARK                            x       y       z     vdW  Elec       q    Type
REMARK                         _______ _______ _______ _____ _____    ______ ____
ROOT
ATOM      1  C2  UNL     1      25.403  -9.104 -41.768  0.00  0.00    +0.000 A 
ATOM      2  C3  UNL     1      24.424  -8.696 -40.846  0.00  0.00    +0.000 A 
ATOM      3  C4  UNL     1      24.691  -8.682 -39.483  0.00  0.00    +0.000 A 
ATOM      4  C5  UNL     1      25.938  -9.073 -39.004  0.00  0.00    +0.000 A 
ATOM      5  O2  UNL     1      26.149  -9.058 -37.696  0.00  0.00    +0.000 OA
ATOM      6  C6  UNL     1      27.304  -9.398 -37.142  0.00  0.00    +0.000 A 
ATOM      7  C7  UNL     1      27.406  -9.375 -35.748  0.00  0.00    +0.000 A 
ATOM      8  C8  UNL     1      28.597  -9.743 -35.122  0.00  0.00    +0.000 A 
ATOM      9  C9  UNL     1      29.702 -10.104 -35.893  0.00  0.00    +0.000 A 
ATOM     10  C10 UNL     1      29.641 -10.096 -37.291  0.00  0.00    +0.000 A 
ATOM     11  C11 UNL     1      28.407  -9.787 -37.942  0.00  0.00    +0.000 A 
ATOM     12  C12 UNL     1      28.196  -9.878 -39.341  0.00  0.00    +0.000 A 
ATOM     13  O5  UNL     1      29.094 -10.344 -40.090  0.00  0.00    +0.000 OA
ATOM     14  C13 UNL     1      26.950  -9.487 -39.897  0.00  0.00    +0.000 A 
ATOM     15  C14 UNL     1      26.685  -9.504 -41.297  0.00  0.00    +0.000 A 
ENDROOT
BRANCH   1  17
ATOM     16  C1  UNL     1      24.928  -7.961 -43.952  0.00  0.00    +0.000 C 
ATOM     17  O1  UNL     1      25.124  -9.117 -43.144  0.00  0.00    +0.000 OA
ENDBRANCH   1  17
BRANCH   8  18
ATOM     18  O3  UNL     1      28.698  -9.744 -33.732  0.00  0.00    +0.000 OA
ATOM     19  H7  UNL     1      28.215 -10.432 -33.166  0.00  0.00    +0.000 HD
ENDBRANCH   8  18
BRANCH  10  20
ATOM     20  O4  UNL     1      30.834 -10.367 -37.968  0.00  0.00    +0.000 OA
ATOM     21  H9  UNL     1      31.623  -9.740 -38.009  0.00  0.00    +0.000 HD
ENDBRANCH  10  20
BRANCH  15  22
ATOM     22  O6  UNL     1      27.718  -9.916 -42.165  0.00  0.00    +0.000 OA
ATOM     23  C15 UNL     1      28.497  -9.093 -43.028  0.00  0.00    +0.000 C 
ENDBRANCH  15  22
TORSDOF 4
ENDMDL
