MODEL 1
REMARK VINA RESULT:    -6.708      0.000      0.000
REMARK INTER + INTRA:          -8.511
REMARK INTER:                  -8.865
REMARK INTRA:                   0.354
REMARK UNBOUND:                 0.354
REMARK  Name = resultss/4CJN/ligands/lig_370_t2.pdb
REMARK  8 active torsions:
REMARK  status: ('A' for Active; 'I' for Inactive)
REMARK    1  A    between atoms: C1_1  and  O1_2
REMARK    2  A    between atoms: O1_2  and  C2_3
REMARK    3  A    between atoms: C5_6  and  C6_7
REMARK    4  A    between atoms: C6_7  and  C7_8
REMARK    5  A    between atoms: C6_7  and  C16_21
REMARK    6  A    between atoms: C15_19  and  O4_20
REMARK    7  A    between atoms: C24_32  and  O7_33
REMARK    8  A    between atoms: C26_35  and  O8_36
REMARK                            x       y       z     vdW  Elec       q    Type
REMARK                         _______ _______ _______ _____ _____    ______ ____
ROOT
ATOM      1  C6  UNL     1      28.395 -10.058 -41.395  0.00  0.00    +0.000 C 
ENDROOT
BRANCH   1   2
ATOM      2  C7  UNL     1      28.192  -9.907 -39.881  0.00  0.00    +0.000 A 
ATOM      3  C8  UNL     1      28.326  -8.679 -39.186  0.00  0.00    +0.000 A 
ATOM      4  O2  UNL     1      28.610  -7.616 -39.801  0.00  0.00    +0.000 OA
ATOM      5  C9  UNL     1      28.122  -8.641 -37.796  0.00  0.00    +0.000 A 
ATOM      6  C10 UNL     1      28.270  -7.457 -37.048  0.00  0.00    +0.000 A 
ATOM      7  C11 UNL     1      28.060  -7.468 -35.664  0.00  0.00    +0.000 A 
ATOM      8 CL1  UNL     1      28.258  -5.994 -34.736  0.00  0.00    +0.000 Cl
ATOM      9  C12 UNL     1      27.695  -8.654 -35.019  0.00  0.00    +0.000 A 
ATOM     10  C13 UNL     1      27.544  -9.833 -35.753  0.00  0.00    +0.000 A 
ATOM     11  C14 UNL     1      27.757  -9.834 -37.136  0.00  0.00    +0.000 A 
ATOM     12  O3  UNL     1      27.611 -10.960 -37.820  0.00  0.00    +0.000 OA
ATOM     13  C15 UNL     1      27.805 -11.041 -39.132  0.00  0.00    +0.000 A 
BRANCH  13  14
ATOM     14  O4  UNL     1      27.616 -12.268 -39.763  0.00  0.00    +0.000 OA
ATOM     15  H10 UNL     1      26.690 -12.575 -40.032  0.00  0.00    +0.000 HD
ENDBRANCH  13  14
ENDBRANCH   1   2
BRANCH   1  16
ATOM     16  C16 UNL     1      27.661  -8.985 -42.207  0.00  0.00    +0.000 A 
ATOM     17  C17 UNL     1      26.287  -9.079 -42.532  0.00  0.00    +0.000 A 
ATOM     18  O5  UNL     1      25.604 -10.068 -42.153  0.00  0.00    +0.000 OA
ATOM     19  C18 UNL     1      25.677  -8.055 -43.275  0.00  0.00    +0.000 A 
ATOM     20  C19 UNL     1      24.321  -8.106 -43.651  0.00  0.00    +0.000 A 
ATOM     21  C20 UNL     1      23.756  -7.063 -44.393  0.00  0.00    +0.000 A 
ATOM     22 CL2  UNL     1      22.066  -7.133 -44.859  0.00  0.00    +0.000 Cl
ATOM     23  C21 UNL     1      24.538  -5.963 -44.763  0.00  0.00    +0.000 A 
ATOM     24  C22 UNL     1      25.884  -5.901 -44.392  0.00  0.00    +0.000 A 
ATOM     25  C23 UNL     1      26.457  -6.941 -43.651  0.00  0.00    +0.000 A 
ATOM     26  O6  UNL     1      27.734  -6.869 -43.302  0.00  0.00    +0.000 OA
ATOM     27  C24 UNL     1      28.350  -7.819 -42.606  0.00  0.00    +0.000 A 
BRANCH  27  28
ATOM     28  O7  UNL     1      29.691  -7.641 -42.274  0.00  0.00    +0.000 OA
ATOM     29  H14 UNL     1      30.017  -6.767 -41.879  0.00  0.00    +0.000 HD
ENDBRANCH  27  28
ENDBRANCH   1  16
BRANCH   1  33
ATOM     30  C2  UNL     1      32.498 -10.730 -42.682  0.00  0.00    +0.000 A 
ATOM     31  C3  UNL     1      31.414 -10.967 -43.548  0.00  0.00    +0.000 A 
ATOM     32  C4  UNL     1      30.104 -10.738 -43.122  0.00  0.00    +0.000 A 
ATOM     33  C5  UNL     1      29.843 -10.261 -41.826  0.00  0.00    +0.000 A 
ATOM     34  C25 UNL     1      30.931 -10.034 -40.958  0.00  0.00    +0.000 A 
ATOM     35  C26 UNL     1      32.247 -10.262 -41.385  0.00  0.00    +0.000 A 
BRANCH  30  37
ATOM     36  C1  UNL     1      34.336 -10.703 -44.376  0.00  0.00    +0.000 C 
ATOM     37  O1  UNL     1      33.829 -10.948 -43.070  0.00  0.00    +0.000 OA
ENDBRANCH  30  37
BRANCH  35  38
ATOM     38  O8  UNL     1      33.316 -10.029 -40.521  0.00  0.00    +0.000 OA
ATOM     39  H16 UNL     1      34.241 -10.398 -40.711  0.00  0.00    +0.000 HD
ENDBRANCH  35  38
ENDBRANCH   1  33
TORSDOF 7
ENDMDL
MODEL 2
REMARK VINA RESULT:    -6.660      2.530      5.790
REMARK INTER + INTRA:          -8.447
REMARK INTER:                  -9.384
REMARK INTRA:                   0.937
REMARK UNBOUND:                 0.354
REMARK  Name = resultss/4CJN/ligands/lig_370_t2.pdb
REMARK  8 active torsions:
REMARK  status: ('A' for Active; 'I' for Inactive)
REMARK    1  A    between atoms: C1_1  and  O1_2
REMARK    2  A    between atoms: O1_2  and  C2_3
REMARK    3  A    between atoms: C5_6  and  C6_7
REMARK    4  A    between atoms: C6_7  and  C7_8
REMARK    5  A    between atoms: C6_7  and  C16_21
REMARK    6  A    between atoms: C15_19  and  O4_20
REMARK    7  A    between atoms: C24_32  and  O7_33
REMARK    8  A    between atoms: C26_35  and  O8_36
REMARK                            x       y       z     vdW  Elec       q    Type
REMARK                         _______ _______ _______ _____ _____    ______ ____
ROOT
ATOM      1  C6  UNL     1      28.455  -8.239 -40.469  0.00  0.00    +0.000 C 
ENDROOT
BRANCH   1   2
ATOM      2  C7  UNL     1      28.012  -8.653 -39.058  0.00  0.00    +0.000 A 
ATOM      3  C8  UNL     1      27.567  -7.738 -38.071  0.00  0.00    +0.000 A 
ATOM      4  O2  UNL     1      27.495  -6.504 -38.320  0.00  0.00    +0.000 OA
ATOM      5  C9  UNL     1      27.185  -8.213 -36.805  0.00  0.00    +0.000 A 
ATOM      6  C10 UNL     1      26.763  -7.350 -35.776  0.00  0.00    +0.000 A 
ATOM      7  C11 UNL     1      26.393  -7.869 -34.529  0.00  0.00    +0.000 A 
ATOM      8 CL1  UNL     1      25.880  -6.788 -33.247  0.00  0.00    +0.000 Cl
ATOM      9  C12 UNL     1      26.437  -9.248 -34.303  0.00  0.00    +0.000 A 
ATOM     10  C13 UNL     1      26.852 -10.112 -35.318  0.00  0.00    +0.000 A 
ATOM     11  C14 UNL     1      27.228  -9.603 -36.566  0.00  0.00    +0.000 A 
ATOM     12  O3  UNL     1      27.621 -10.435 -37.521  0.00  0.00    +0.000 OA
ATOM     13  C15 UNL     1      28.001 -10.026 -38.726  0.00  0.00    +0.000 A 
BRANCH  13  14
ATOM     14  O4  UNL     1      28.388 -10.979 -39.666  0.00  0.00    +0.000 OA
ATOM     15  H10 UNL     1      28.924 -11.792 -39.389  0.00  0.00    +0.000 HD
ENDBRANCH  13  14
ENDBRANCH   1   2
BRANCH   1  16
ATOM     16  C16 UNL     1      29.733  -8.951 -40.926  0.00  0.00    +0.000 A 
ATOM     17  C17 UNL     1      29.740  -9.926 -41.952  0.00  0.00    +0.000 A 
ATOM     18  O5  UNL     1      28.673 -10.246 -42.540  0.00  0.00    +0.000 OA
ATOM     19  C18 UNL     1      30.950 -10.535 -42.324  0.00  0.00    +0.000 A 
ATOM     20  C19 UNL     1      31.015 -11.530 -43.319  0.00  0.00    +0.000 A 
ATOM     21  C20 UNL     1      32.243 -12.109 -43.655  0.00  0.00    +0.000 A 
ATOM     22 CL2  UNL     1      32.317 -13.349 -44.895  0.00  0.00    +0.000 Cl
ATOM     23  C21 UNL     1      33.413 -11.700 -43.005  0.00  0.00    +0.000 A 
ATOM     24  C22 UNL     1      33.359 -10.712 -42.019  0.00  0.00    +0.000 A 
ATOM     25  C23 UNL     1      32.135 -10.127 -41.675  0.00  0.00    +0.000 A 
ATOM     26  O6  UNL     1      32.098  -9.188 -40.740  0.00  0.00    +0.000 OA
ATOM     27  C24 UNL     1      30.974  -8.592 -40.355  0.00  0.00    +0.000 A 
BRANCH  27  28
ATOM     28  O7  UNL     1      31.044  -7.604 -39.377  0.00  0.00    +0.000 OA
ATOM     29  H14 UNL     1      30.847  -6.636 -39.601  0.00  0.00    +0.000 HD
ENDBRANCH  27  28
ENDBRANCH   1  16
BRANCH   1  33
ATOM     30  C2  UNL     1      25.290  -8.166 -43.454  0.00  0.00    +0.000 A 
ATOM     31  C3  UNL     1      26.370  -7.267 -43.516  0.00  0.00    +0.000 A 
ATOM     32  C4  UNL     1      27.382  -7.310 -42.555  0.00  0.00    +0.000 A 
ATOM     33  C5  UNL     1      27.345  -8.253 -41.514  0.00  0.00    +0.000 A 
ATOM     34  C25 UNL     1      26.255  -9.146 -41.450  0.00  0.00    +0.000 A 
ATOM     35  C26 UNL     1      25.239  -9.105 -42.416  0.00  0.00    +0.000 A 
BRANCH  30  37
ATOM     36  C1  UNL     1      24.242  -7.355 -45.575  0.00  0.00    +0.000 C 
ATOM     37  O1  UNL     1      24.252  -8.157 -44.400  0.00  0.00    +0.000 OA
ENDBRANCH  30  37
BRANCH  35  38
ATOM     38  O8  UNL     1      24.169  -9.996 -42.347  0.00  0.00    +0.000 OA
ATOM     39  H16 UNL     1      23.292  -9.738 -41.909  0.00  0.00    +0.000 HD
ENDBRANCH  35  38
ENDBRANCH   1  33
TORSDOF 7
ENDMDL
MODEL 3
REMARK VINA RESULT:    -6.546      2.921      6.363
REMARK INTER + INTRA:          -8.298
REMARK INTER:                  -8.731
REMARK INTRA:                   0.434
REMARK UNBOUND:                 0.354
REMARK  Name = resultss/4CJN/ligands/lig_370_t2.pdb
REMARK  8 active torsions:
REMARK  status: ('A' for Active; 'I' for Inactive)
REMARK    1  A    between atoms: C1_1  and  O1_2
REMARK    2  A    between atoms: O1_2  and  C2_3
REMARK    3  A    between atoms: C5_6  and  C6_7
REMARK    4  A    between atoms: C6_7  and  C7_8
REMARK    5  A    between atoms: C6_7  and  C16_21
REMARK    6  A    between atoms: C15_19  and  O4_20
REMARK    7  A    between atoms: C24_32  and  O7_33
REMARK    8  A    between atoms: C26_35  and  O8_36
REMARK                            x       y       z     vdW  Elec       q    Type
REMARK                         _______ _______ _______ _____ _____    ______ ____
ROOT
ATOM      1  C6  UNL     1      27.534  -8.107 -40.492  0.00  0.00    +0.000 C 
ENDROOT
BRANCH   1   2
ATOM      2  C7  UNL     1      27.572  -8.084 -38.957  0.00  0.00    +0.000 A 
ATOM      3  C8  UNL     1      26.517  -8.551 -38.135  0.00  0.00    +0.000 A 
ATOM      4  O2  UNL     1      25.471  -9.039 -38.641  0.00  0.00    +0.000 OA
ATOM      5  C9  UNL     1      26.645  -8.485 -36.736  0.00  0.00    +0.000 A 
ATOM      6  C10 UNL     1      25.618  -8.907 -35.869  0.00  0.00    +0.000 A 
ATOM      7  C11 UNL     1      25.790  -8.820 -34.483  0.00  0.00    +0.000 A 
ATOM      8 CL1  UNL     1      24.503  -9.334 -33.407  0.00  0.00    +0.000 Cl
ATOM      9  C12 UNL     1      26.983  -8.321 -33.952  0.00  0.00    +0.000 A 
ATOM     10  C13 UNL     1      28.007  -7.903 -34.805  0.00  0.00    +0.000 A 
ATOM     11  C14 UNL     1      27.844  -7.980 -36.193  0.00  0.00    +0.000 A 
ATOM     12  O3  UNL     1      28.825  -7.579 -36.990  0.00  0.00    +0.000 OA
ATOM     13  C15 UNL     1      28.740  -7.614 -38.315  0.00  0.00    +0.000 A 
BRANCH  13  14
ATOM     14  O4  UNL     1      29.829  -7.180 -39.068  0.00  0.00    +0.000 OA
ATOM     15  H10 UNL     1      30.775  -7.410 -38.791  0.00  0.00    +0.000 HD
ENDBRANCH  13  14
ENDBRANCH   1   2
BRANCH   1  16
ATOM     16  C16 UNL     1      28.394  -9.224 -41.094  0.00  0.00    +0.000 A 
ATOM     17  C17 UNL     1      29.360  -8.987 -42.100  0.00  0.00    +0.000 A 
ATOM     18  O5  UNL     1      29.555  -7.822 -42.541  0.00  0.00    +0.000 OA
ATOM     19  C18 UNL     1      30.117 -10.058 -42.603  0.00  0.00    +0.000 A 
ATOM     20  C19 UNL     1      31.074  -9.887 -43.622  0.00  0.00    +0.000 A 
ATOM     21  C20 UNL     1      31.803 -10.984 -44.094  0.00  0.00    +0.000 A 
ATOM     22 CL2  UNL     1      32.994 -10.765 -45.364  0.00  0.00    +0.000 Cl
ATOM     23  C21 UNL     1      31.586 -12.256 -43.552  0.00  0.00    +0.000 A 
ATOM     24  C22 UNL     1      30.641 -12.435 -42.538  0.00  0.00    +0.000 A 
ATOM     25  C23 UNL     1      29.906 -11.344 -42.061  0.00  0.00    +0.000 A 
ATOM     26  O6  UNL     1      29.014 -11.526 -41.097  0.00  0.00    +0.000 OA
ATOM     27  C24 UNL     1      28.274 -10.541 -40.598  0.00  0.00    +0.000 A 
BRANCH  27  28
ATOM     28  O7  UNL     1      27.378 -10.833 -39.573  0.00  0.00    +0.000 OA
ATOM     29  H14 UNL     1      26.799 -11.664 -39.610  0.00  0.00    +0.000 HD
ENDBRANCH  27  28
ENDBRANCH   1  16
BRANCH   1  33
ATOM     30  C2  UNL     1      23.511  -7.811 -42.124  0.00  0.00    +0.000 A 
ATOM     31  C3  UNL     1      24.109  -6.725 -41.459  0.00  0.00    +0.000 A 
ATOM     32  C4  UNL     1      25.405  -6.834 -40.949  0.00  0.00    +0.000 A 
ATOM     33  C5  UNL     1      26.136  -8.025 -41.095  0.00  0.00    +0.000 A 
ATOM     34  C25 UNL     1      25.529  -9.114 -41.753  0.00  0.00    +0.000 A 
ATOM     35  C26 UNL     1      24.229  -9.005 -42.267  0.00  0.00    +0.000 A 
BRANCH  30  37
ATOM     36  C1  UNL     1      21.871  -7.101 -43.874  0.00  0.00    +0.000 C 
ATOM     37  O1  UNL     1      22.211  -7.743 -42.651  0.00  0.00    +0.000 OA
ENDBRANCH  30  37
BRANCH  35  38
ATOM     38  O8  UNL     1      23.639 -10.086 -42.921  0.00  0.00    +0.000 OA
ATOM     39  H16 UNL     1      22.672 -10.340 -42.760  0.00  0.00    +0.000 HD
ENDBRANCH  35  38
ENDBRANCH   1  33
TORSDOF 7
ENDMDL
MODEL 4
REMARK VINA RESULT:    -5.995      1.599      2.688
REMARK INTER + INTRA:          -7.569
REMARK INTER:                  -8.370
REMARK INTRA:                   0.801
REMARK UNBOUND:                 0.354
REMARK  Name = resultss/4CJN/ligands/lig_370_t2.pdb
REMARK  8 active torsions:
REMARK  status: ('A' for Active; 'I' for Inactive)
REMARK    1  A    between atoms: C1_1  and  O1_2
REMARK    2  A    between atoms: O1_2  and  C2_3
REMARK    3  A    between atoms: C5_6  and  C6_7
REMARK    4  A    between atoms: C6_7  and  C7_8
REMARK    5  A    between atoms: C6_7  and  C16_21
REMARK    6  A    between atoms: C15_19  and  O4_20
REMARK    7  A    between atoms: C24_32  and  O7_33
REMARK    8  A    between atoms: C26_35  and  O8_36
REMARK                            x       y       z     vdW  Elec       q    Type
REMARK                         _______ _______ _______ _____ _____    ______ ____
ROOT
ATOM      1  C6  UNL     1      28.576 -10.049 -40.944  0.00  0.00    +0.000 C 
ENDROOT
BRANCH   1   2
ATOM      2  C7  UNL     1      28.692  -9.260 -39.633  0.00  0.00    +0.000 A 
ATOM      3  C8  UNL     1      28.427  -9.810 -38.355  0.00  0.00    +0.000 A 
ATOM      4  O2  UNL     1      28.088 -11.018 -38.229  0.00  0.00    +0.000 OA
ATOM      5  C9  UNL     1      28.559  -9.006 -37.209  0.00  0.00    +0.000 A 
ATOM      6  C10 UNL     1      28.280  -9.489 -35.917  0.00  0.00    +0.000 A 
ATOM      7  C11 UNL     1      28.424  -8.650 -34.806  0.00  0.00    +0.000 A 
ATOM      8 CL1  UNL     1      28.063  -9.253 -33.199  0.00  0.00    +0.000 Cl
ATOM      9  C12 UNL     1      28.850  -7.328 -34.975  0.00  0.00    +0.000 A 
ATOM     10  C13 UNL     1      29.130  -6.841 -36.253  0.00  0.00    +0.000 A 
ATOM     11  C14 UNL     1      28.985  -7.671 -37.371  0.00  0.00    +0.000 A 
ATOM     12  O3  UNL     1      29.254  -7.195 -38.579  0.00  0.00    +0.000 OA
ATOM     13  C15 UNL     1      29.132  -7.918 -39.686  0.00  0.00    +0.000 A 
BRANCH  13  14
ATOM     14  O4  UNL     1      29.449  -7.331 -40.909  0.00  0.00    +0.000 OA
ATOM     15  H10 UNL     1      30.007  -7.827 -41.592  0.00  0.00    +0.000 HD
ENDBRANCH  13  14
ENDBRANCH   1   2
BRANCH   1  16
ATOM     16  C16 UNL     1      27.622  -9.397 -41.952  0.00  0.00    +0.000 A 
ATOM     17  C17 UNL     1      28.079  -8.686 -43.087  0.00  0.00    +0.000 A 
ATOM     18  O5  UNL     1      29.313  -8.566 -43.316  0.00  0.00    +0.000 OA
ATOM     19  C18 UNL     1      27.148  -8.117 -43.971  0.00  0.00    +0.000 A 
ATOM     20  C19 UNL     1      27.543  -7.376 -45.102  0.00  0.00    +0.000 A 
ATOM     21  C20 UNL     1      26.579  -6.826 -45.955  0.00  0.00    +0.000 A 
ATOM     22 CL2  UNL     1      27.078  -5.903 -47.362  0.00  0.00    +0.000 Cl
ATOM     23  C21 UNL     1      25.219  -7.013 -45.688  0.00  0.00    +0.000 A 
ATOM     24  C22 UNL     1      24.817  -7.748 -44.571  0.00  0.00    +0.000 A 
ATOM     25  C23 UNL     1      25.773  -8.301 -43.711  0.00  0.00    +0.000 A 
ATOM     26  O6  UNL     1      25.379  -9.000 -42.656  0.00  0.00    +0.000 OA
ATOM     27  C24 UNL     1      26.227  -9.548 -41.792  0.00  0.00    +0.000 A 
BRANCH  27  28
ATOM     28  O7  UNL     1      25.713 -10.280 -40.724  0.00  0.00    +0.000 OA
ATOM     29  H14 UNL     1      25.892  -9.999 -39.767  0.00  0.00    +0.000 HD
ENDBRANCH  27  28
ENDBRANCH   1  16
BRANCH   1  33
ATOM     30  C2  UNL     1      32.343 -11.359 -42.685  0.00  0.00    +0.000 A 
ATOM     31  C3  UNL     1      31.121 -11.941 -43.071  0.00  0.00    +0.000 A 
ATOM     32  C4  UNL     1      29.920 -11.502 -42.509  0.00  0.00    +0.000 A 
ATOM     33  C5  UNL     1      29.908 -10.471 -41.554  0.00  0.00    +0.000 A 
ATOM     34  C25 UNL     1      31.136  -9.898 -41.163  0.00  0.00    +0.000 A 
ATOM     35  C26 UNL     1      32.342 -10.336 -41.727  0.00  0.00    +0.000 A 
BRANCH  30  37
ATOM     36  C1  UNL     1      33.709 -12.625 -44.353  0.00  0.00    +0.000 C 
ATOM     37  O1  UNL     1      33.572 -11.771 -43.224  0.00  0.00    +0.000 OA
ENDBRANCH  30  37
BRANCH  35  38
ATOM     38  O8  UNL     1      33.550  -9.760 -41.338  0.00  0.00    +0.000 OA
ATOM     39  H16 UNL     1      34.132  -9.254 -41.995  0.00  0.00    +0.000 HD
ENDBRANCH  35  38
ENDBRANCH   1  33
TORSDOF 7
ENDMDL
MODEL 5
REMARK VINA RESULT:    -5.488      1.324      6.502
REMARK INTER + INTRA:          -6.899
REMARK INTER:                  -7.587
REMARK INTRA:                   0.688
REMARK UNBOUND:                 0.354
REMARK  Name = resultss/4CJN/ligands/lig_370_t2.pdb
REMARK  8 active torsions:
REMARK  status: ('A' for Active; 'I' for Inactive)
REMARK    1  A    between atoms: C1_1  and  O1_2
REMARK    2  A    between atoms: O1_2  and  C2_3
REMARK    3  A    between atoms: C5_6  and  C6_7
REMARK    4  A    between atoms: C6_7  and  C7_8
REMARK    5  A    between atoms: C6_7  and  C16_21
REMARK    6  A    between atoms: C15_19  and  O4_20
REMARK    7  A    between atoms: C24_32  and  O7_33
REMARK    8  A    between atoms: C26_35  and  O8_36
REMARK                            x       y       z     vdW  Elec       q    Type
REMARK                         _______ _______ _______ _____ _____    ______ ____
ROOT
ATOM      1  C6  UNL     1      29.361  -8.146 -40.589  0.00  0.00    +0.000 C 
ENDROOT
BRANCH   1   2
ATOM      2  C7  UNL     1      28.186  -7.607 -41.417  0.00  0.00    +0.000 A 
ATOM      3  C8  UNL     1      26.873  -8.137 -41.363  0.00  0.00    +0.000 A 
ATOM      4  O2  UNL     1      26.596  -9.097 -40.594  0.00  0.00    +0.000 OA
ATOM      5  C9  UNL     1      25.863  -7.576 -42.163  0.00  0.00    +0.000 A 
ATOM      6  C10 UNL     1      24.548  -8.080 -42.173  0.00  0.00    +0.000 A 
ATOM      7  C11 UNL     1      23.575  -7.490 -42.988  0.00  0.00    +0.000 A 
ATOM      8 CL1  UNL     1      21.942  -8.129 -43.007  0.00  0.00    +0.000 Cl
ATOM      9  C12 UNL     1      23.904  -6.394 -43.792  0.00  0.00    +0.000 A 
ATOM     10  C13 UNL     1      25.205  -5.887 -43.787  0.00  0.00    +0.000 A 
ATOM     11  C14 UNL     1      26.186  -6.472 -42.979  0.00  0.00    +0.000 A 
ATOM     12  O3  UNL     1      27.417  -5.981 -42.985  0.00  0.00    +0.000 OA
ATOM     13  C15 UNL     1      28.403  -6.488 -42.253  0.00  0.00    +0.000 A 
BRANCH  13  14
ATOM     14  O4  UNL     1      29.661  -5.895 -42.319  0.00  0.00    +0.000 OA
ATOM     15  H10 UNL     1      30.315  -5.980 -41.551  0.00  0.00    +0.000 HD
ENDBRANCH  13  14
ENDBRANCH   1   2
BRANCH   1  16
ATOM     16  C16 UNL     1      28.946  -8.585 -39.180  0.00  0.00    +0.000 A 
ATOM     17  C17 UNL     1      28.815  -7.676 -38.104  0.00  0.00    +0.000 A 
ATOM     18  O5  UNL     1      29.034  -6.446 -38.272  0.00  0.00    +0.000 OA
ATOM     19  C18 UNL     1      28.426  -8.148 -36.839  0.00  0.00    +0.000 A 
ATOM     20  C19 UNL     1      28.304  -7.294 -35.725  0.00  0.00    +0.000 A 
ATOM     21  C20 UNL     1      27.915  -7.810 -34.483  0.00  0.00    +0.000 A 
ATOM     22 CL2  UNL     1      27.766  -6.742 -33.099  0.00  0.00    +0.000 Cl
ATOM     23  C21 UNL     1      27.643  -9.175 -34.345  0.00  0.00    +0.000 A 
ATOM     24  C22 UNL     1      27.758 -10.029 -35.445  0.00  0.00    +0.000 A 
ATOM     25  C23 UNL     1      28.148  -9.523 -36.690  0.00  0.00    +0.000 A 
ATOM     26  O6  UNL     1      28.250 -10.343 -37.727  0.00  0.00    +0.000 OA
ATOM     27  C24 UNL     1      28.621  -9.938 -38.937  0.00  0.00    +0.000 A 
BRANCH  27  28
ATOM     28  O7  UNL     1      28.680 -10.875 -39.966  0.00  0.00    +0.000 OA
ATOM     29  H14 UNL     1      29.529 -11.003 -40.505  0.00  0.00    +0.000 HD
ENDBRANCH  27  28
ENDBRANCH   1  16
BRANCH   1  33
ATOM     30  C2  UNL     1      31.760 -11.124 -42.665  0.00  0.00    +0.000 A 
ATOM     31  C3  UNL     1      30.456 -10.813 -43.092  0.00  0.00    +0.000 A 
ATOM     32  C4  UNL     1      29.703  -9.848 -42.419  0.00  0.00    +0.000 A 
ATOM     33  C5  UNL     1      30.233  -9.167 -41.311  0.00  0.00    +0.000 A 
ATOM     34  C25 UNL     1      31.537  -9.489 -40.880  0.00  0.00    +0.000 A 
ATOM     35  C26 UNL     1      32.295 -10.457 -41.555  0.00  0.00    +0.000 A 
BRANCH  30  37
ATOM     36  C1  UNL     1      32.097 -12.918 -44.374  0.00  0.00    +0.000 C 
ATOM     37  O1  UNL     1      32.551 -12.088 -43.312  0.00  0.00    +0.000 OA
ENDBRANCH  30  37
BRANCH  35  38
ATOM     38  O8  UNL     1      33.585 -10.764 -41.126  0.00  0.00    +0.000 OA
ATOM     39  H16 UNL     1      33.805 -11.662 -40.710  0.00  0.00    +0.000 HD
ENDBRANCH  35  38
ENDBRANCH   1  33
TORSDOF 7
ENDMDL
MODEL 6
REMARK VINA RESULT:    -5.113      3.201      7.092
REMARK INTER + INTRA:          -6.404
REMARK INTER:                  -7.669
REMARK INTRA:                   1.265
REMARK UNBOUND:                 0.354
REMARK  Name = resultss/4CJN/ligands/lig_370_t2.pdb
REMARK  8 active torsions:
REMARK  status: ('A' for Active; 'I' for Inactive)
REMARK    1  A    between atoms: C1_1  and  O1_2
REMARK    2  A    between atoms: O1_2  and  C2_3
REMARK    3  A    between atoms: C5_6  and  C6_7
REMARK    4  A    between atoms: C6_7  and  C7_8
REMARK    5  A    between atoms: C6_7  and  C16_21
REMARK    6  A    between atoms: C15_19  and  O4_20
REMARK    7  A    between atoms: C24_32  and  O7_33
REMARK    8  A    between atoms: C26_35  and  O8_36
REMARK                            x       y       z     vdW  Elec       q    Type
REMARK                         _______ _______ _______ _____ _____    ______ ____
ROOT
ATOM      1  C6  UNL     1      26.841  -9.215 -39.610  0.00  0.00    +0.000 C 
ENDROOT
BRANCH   1   2
ATOM      2  C7  UNL     1      28.304  -8.751 -39.653  0.00  0.00    +0.000 A 
ATOM      3  C8  UNL     1      29.349  -9.491 -40.259  0.00  0.00    +0.000 A 
ATOM      4  O2  UNL     1      29.116 -10.594 -40.824  0.00  0.00    +0.000 OA
ATOM      5  C9  UNL     1      30.660  -8.983 -40.245  0.00  0.00    +0.000 A 
ATOM      6  C10 UNL     1      31.743  -9.687 -40.804  0.00  0.00    +0.000 A 
ATOM      7  C11 UNL     1      33.032  -9.142 -40.765  0.00  0.00    +0.000 A 
ATOM      8 CL1  UNL     1      34.380 -10.029 -41.452  0.00  0.00    +0.000 Cl
ATOM      9  C12 UNL     1      33.248  -7.893 -40.174  0.00  0.00    +0.000 A 
ATOM     10  C13 UNL     1      32.179  -7.187 -39.619  0.00  0.00    +0.000 A 
ATOM     11  C14 UNL     1      30.888  -7.725 -39.648  0.00  0.00    +0.000 A 
ATOM     12  O3  UNL     1      29.882  -7.044 -39.116  0.00  0.00    +0.000 OA
ATOM     13  C15 UNL     1      28.632  -7.493 -39.099  0.00  0.00    +0.000 A 
BRANCH  13  14
ATOM     14  O4  UNL     1      27.643  -6.698 -38.525  0.00  0.00    +0.000 OA
ATOM     15  H10 UNL     1      26.725  -7.077 -38.325  0.00  0.00    +0.000 HD
ENDBRANCH  13  14
ENDBRANCH   1   2
BRANCH   1  16
ATOM     16  C16 UNL     1      26.186  -9.001 -38.240  0.00  0.00    +0.000 A 
ATOM     17  C17 UNL     1      25.097  -8.120 -38.043  0.00  0.00    +0.000 A 
ATOM     18  O5  UNL     1      24.614  -7.471 -39.010  0.00  0.00    +0.000 OA
ATOM     19  C18 UNL     1      24.542  -7.976 -36.761  0.00  0.00    +0.000 A 
ATOM     20  C19 UNL     1      23.475  -7.095 -36.499  0.00  0.00    +0.000 A 
ATOM     21  C20 UNL     1      22.956  -6.983 -35.205  0.00  0.00    +0.000 A 
ATOM     22 CL2  UNL     1      21.626  -5.883 -34.886  0.00  0.00    +0.000 Cl
ATOM     23  C21 UNL     1      23.494  -7.749 -34.165  0.00  0.00    +0.000 A 
ATOM     24  C22 UNL     1      24.551  -8.627 -34.415  0.00  0.00    +0.000 A 
ATOM     25  C23 UNL     1      25.078  -8.745 -35.706  0.00  0.00    +0.000 A 
ATOM     26  O6  UNL     1      26.079  -9.585 -35.931  0.00  0.00    +0.000 OA
ATOM     27  C24 UNL     1      26.635  -9.746 -37.127  0.00  0.00    +0.000 A 
BRANCH  27  28
ATOM     28  O7  UNL     1      27.670 -10.668 -37.264  0.00  0.00    +0.000 OA
ATOM     29  H14 UNL     1      28.037 -11.160 -36.458  0.00  0.00    +0.000 HD
ENDBRANCH  27  28
ENDBRANCH   1  16
BRANCH   1  33
ATOM     30  C2  UNL     1      24.413  -7.728 -42.901  0.00  0.00    +0.000 A 
ATOM     31  C3  UNL     1      25.574  -7.049 -42.487  0.00  0.00    +0.000 A 
ATOM     32  C4  UNL     1      26.347  -7.545 -41.435  0.00  0.00    +0.000 A 
ATOM     33  C5  UNL     1      25.985  -8.732 -40.774  0.00  0.00    +0.000 A 
ATOM     34  C25 UNL     1      24.815  -9.403 -41.186  0.00  0.00    +0.000 A 
ATOM     35  C26 UNL     1      24.039  -8.908 -42.243  0.00  0.00    +0.000 A 
BRANCH  30  37
ATOM     36  C1  UNL     1      24.046  -7.126 -45.300  0.00  0.00    +0.000 C 
ATOM     37  O1  UNL     1      23.608  -7.264 -43.953  0.00  0.00    +0.000 OA
ENDBRANCH  30  37
BRANCH  35  38
ATOM     38  O8  UNL     1      22.888  -9.582 -42.646  0.00  0.00    +0.000 OA
ATOM     39  H16 UNL     1      22.032  -9.086 -42.864  0.00  0.00    +0.000 HD
ENDBRANCH  35  38
ENDBRANCH   1  33
TORSDOF 7
ENDMDL
MODEL 7
REMARK VINA RESULT:    -5.055      1.283      6.471
REMARK INTER + INTRA:          -6.327
REMARK INTER:                  -8.399
REMARK INTRA:                   2.072
REMARK UNBOUND:                 0.354
REMARK  Name = resultss/4CJN/ligands/lig_370_t2.pdb
REMARK  8 active torsions:
REMARK  status: ('A' for Active; 'I' for Inactive)
REMARK    1  A    between atoms: C1_1  and  O1_2
REMARK    2  A    between atoms: O1_2  and  C2_3
REMARK    3  A    between atoms: C5_6  and  C6_7
REMARK    4  A    between atoms: C6_7  and  C7_8
REMARK    5  A    between atoms: C6_7  and  C16_21
REMARK    6  A    between atoms: C15_19  and  O4_20
REMARK    7  A    between atoms: C24_32  and  O7_33
REMARK    8  A    between atoms: C26_35  and  O8_36
REMARK                            x       y       z     vdW  Elec       q    Type
REMARK                         _______ _______ _______ _____ _____    ______ ____
ROOT
ATOM      1  C6  UNL     1      28.671  -8.526 -40.892  0.00  0.00    +0.000 C 
ENDROOT
BRANCH   1   2
ATOM      2  C7  UNL     1      27.463  -8.360 -41.825  0.00  0.00    +0.000 A 
ATOM      3  C8  UNL     1      27.508  -7.660 -43.056  0.00  0.00    +0.000 A 
ATOM      4  O2  UNL     1      28.581  -7.138 -43.464  0.00  0.00    +0.000 OA
ATOM      5  C9  UNL     1      26.347  -7.559 -43.842  0.00  0.00    +0.000 A 
ATOM      6  C10 UNL     1      26.324  -6.851 -45.059  0.00  0.00    +0.000 A 
ATOM      7  C11 UNL     1      25.143  -6.777 -45.807  0.00  0.00    +0.000 A 
ATOM      8 CL1  UNL     1      25.116  -5.883 -47.316  0.00  0.00    +0.000 Cl
ATOM      9  C12 UNL     1      23.982  -7.409 -45.351  0.00  0.00    +0.000 A 
ATOM     10  C13 UNL     1      23.997  -8.115 -44.146  0.00  0.00    +0.000 A 
ATOM     11  C14 UNL     1      25.171  -8.192 -43.388  0.00  0.00    +0.000 A 
ATOM     12  O3  UNL     1      25.170  -8.865 -42.246  0.00  0.00    +0.000 OA
ATOM     13  C15 UNL     1      26.242  -8.975 -41.469  0.00  0.00    +0.000 A 
BRANCH  13  14
ATOM     14  O4  UNL     1      26.144  -9.712 -40.292  0.00  0.00    +0.000 OA
ATOM     15  H10 UNL     1      25.342 -10.305 -40.117  0.00  0.00    +0.000 HD
ENDBRANCH  13  14
ENDBRANCH   1   2
BRANCH   1  16
ATOM     16  C16 UNL     1      28.270  -8.853 -39.449  0.00  0.00    +0.000 A 
ATOM     17  C17 UNL     1      27.962  -7.854 -38.496  0.00  0.00    +0.000 A 
ATOM     18  O5  UNL     1      28.004  -6.634 -38.809  0.00  0.00    +0.000 OA
ATOM     19  C18 UNL     1      27.597  -8.227 -37.191  0.00  0.00    +0.000 A 
ATOM     20  C19 UNL     1      27.306  -7.276 -36.193  0.00  0.00    +0.000 A 
ATOM     21  C20 UNL     1      26.948  -7.694 -34.907  0.00  0.00    +0.000 A 
ATOM     22 CL2  UNL     1      26.587  -6.505 -33.668  0.00  0.00    +0.000 Cl
ATOM     23  C21 UNL     1      26.876  -9.059 -34.608  0.00  0.00    +0.000 A 
ATOM     24  C22 UNL     1      27.160 -10.009 -35.592  0.00  0.00    +0.000 A 
ATOM     25  C23 UNL     1      27.520  -9.601 -36.881  0.00  0.00    +0.000 A 
ATOM     26  O6  UNL     1      27.784 -10.513 -37.807  0.00  0.00    +0.000 OA
ATOM     27  C24 UNL     1      28.139 -10.202 -39.050  0.00  0.00    +0.000 A 
BRANCH  27  28
ATOM     28  O7  UNL     1      28.378 -11.234 -39.954  0.00  0.00    +0.000 OA
ATOM     29  H14 UNL     1      28.616 -11.035 -40.918  0.00  0.00    +0.000 HD
ENDBRANCH  27  28
ENDBRANCH   1  16
BRANCH   1  33
ATOM     30  C2  UNL     1      31.748 -11.175 -42.457  0.00  0.00    +0.000 A 
ATOM     31  C3  UNL     1      30.463 -11.134 -43.028  0.00  0.00    +0.000 A 
ATOM     32  C4  UNL     1      29.489 -10.272 -42.519  0.00  0.00    +0.000 A 
ATOM     33  C5  UNL     1      29.776  -9.426 -41.434  0.00  0.00    +0.000 A 
ATOM     34  C25 UNL     1      31.062  -9.477 -40.859  0.00  0.00    +0.000 A 
ATOM     35  C26 UNL     1      32.041 -10.342 -41.370  0.00  0.00    +0.000 A 
BRANCH  30  37
ATOM     36  C1  UNL     1      32.985 -12.304 -44.314  0.00  0.00    +0.000 C 
ATOM     37  O1  UNL     1      32.755 -12.028 -42.938  0.00  0.00    +0.000 OA
ENDBRANCH  30  37
BRANCH  35  38
ATOM     38  O8  UNL     1      33.312 -10.381 -40.798  0.00  0.00    +0.000 OA
ATOM     39  H16 UNL     1      34.124 -10.671 -41.330  0.00  0.00    +0.000 HD
ENDBRANCH  35  38
ENDBRANCH   1  33
TORSDOF 7
ENDMDL
MODEL 8
REMARK VINA RESULT:    -4.978      2.721      7.592
REMARK INTER + INTRA:          -6.225
REMARK INTER:                  -6.755
REMARK INTRA:                   0.530
REMARK UNBOUND:                 0.354
REMARK  Name = resultss/4CJN/ligands/lig_370_t2.pdb
REMARK  8 active torsions:
REMARK  status: ('A' for Active; 'I' for Inactive)
REMARK    1  A    between atoms: C1_1  and  O1_2
REMARK    2  A    between atoms: O1_2  and  C2_3
REMARK    3  A    between atoms: C5_6  and  C6_7
REMARK    4  A    between atoms: C6_7  and  C7_8
REMARK    5  A    between atoms: C6_7  and  C16_21
REMARK    6  A    between atoms: C15_19  and  O4_20
REMARK    7  A    between atoms: C24_32  and  O7_33
REMARK    8  A    between atoms: C26_35  and  O8_36
REMARK                            x       y       z     vdW  Elec       q    Type
REMARK                         _______ _______ _______ _____ _____    ______ ____
ROOT
ATOM      1  C6  UNL     1      27.467  -9.398 -40.369  0.00  0.00    +0.000 C 
ENDROOT
BRANCH   1   2
ATOM      2  C7  UNL     1      28.500 -10.241 -41.130  0.00  0.00    +0.000 A 
ATOM      3  C8  UNL     1      29.464  -9.698 -42.014  0.00  0.00    +0.000 A 
ATOM      4  O2  UNL     1      29.532  -8.454 -42.211  0.00  0.00    +0.000 OA
ATOM      5  C9  UNL     1      30.368 -10.553 -42.668  0.00  0.00    +0.000 A 
ATOM      6  C10 UNL     1      31.328 -10.074 -43.580  0.00  0.00    +0.000 A 
ATOM      7  C11 UNL     1      32.206 -10.965 -44.209  0.00  0.00    +0.000 A 
ATOM      8 CL1  UNL     1      33.392 -10.365 -45.354  0.00  0.00    +0.000 Cl
ATOM      9  C12 UNL     1      32.137 -12.333 -43.930  0.00  0.00    +0.000 A 
ATOM     10  C13 UNL     1      31.190 -12.816 -43.025  0.00  0.00    +0.000 A 
ATOM     11  C14 UNL     1      30.304 -11.936 -42.395  0.00  0.00    +0.000 A 
ATOM     12  O3  UNL     1      29.409 -12.409 -41.539  0.00  0.00    +0.000 OA
ATOM     13  C15 UNL     1      28.530 -11.637 -40.909  0.00  0.00    +0.000 A 
BRANCH  13  14
ATOM     14  O4  UNL     1      27.636 -12.227 -40.020  0.00  0.00    +0.000 OA
ATOM     15  H10 UNL     1      27.952 -12.581 -39.126  0.00  0.00    +0.000 HD
ENDBRANCH  13  14
ENDBRANCH   1   2
BRANCH   1  16
ATOM     16  C16 UNL     1      28.049  -8.722 -39.122  0.00  0.00    +0.000 A 
ATOM     17  C17 UNL     1      28.094  -9.358 -37.859  0.00  0.00    +0.000 A 
ATOM     18  O5  UNL     1      27.651 -10.530 -37.714  0.00  0.00    +0.000 OA
ATOM     19  C18 UNL     1      28.646  -8.681 -36.759  0.00  0.00    +0.000 A 
ATOM     20  C19 UNL     1      28.694  -9.253 -35.473  0.00  0.00    +0.000 A 
ATOM     21  C20 UNL     1      29.252  -8.540 -34.406  0.00  0.00    +0.000 A 
ATOM     22 CL2  UNL     1      29.308  -9.258 -32.806  0.00  0.00    +0.000 Cl
ATOM     23  C21 UNL     1      29.768  -7.256 -34.615  0.00  0.00    +0.000 A 
ATOM     24  C22 UNL     1      29.728  -6.682 -35.888  0.00  0.00    +0.000 A 
ATOM     25  C23 UNL     1      29.170  -7.387 -36.960  0.00  0.00    +0.000 A 
ATOM     26  O6  UNL     1      29.141  -6.832 -38.164  0.00  0.00    +0.000 OA
ATOM     27  C24 UNL     1      28.622  -7.436 -39.228  0.00  0.00    +0.000 A 
BRANCH  27  28
ATOM     28  O7  UNL     1      28.656  -6.775 -40.454  0.00  0.00    +0.000 OA
ATOM     29  H14 UNL     1      27.810  -6.399 -40.865  0.00  0.00    +0.000 HD
ENDBRANCH  27  28
ENDBRANCH   1  16
BRANCH   1  33
ATOM     30  C2  UNL     1      25.033  -6.733 -42.801  0.00  0.00    +0.000 A 
ATOM     31  C3  UNL     1      24.854  -6.815 -41.408  0.00  0.00    +0.000 A 
ATOM     32  C4  UNL     1      25.650  -7.669 -40.641  0.00  0.00    +0.000 A 
ATOM     33  C5  UNL     1      26.646  -8.456 -41.243  0.00  0.00    +0.000 A 
ATOM     34  C25 UNL     1      26.816  -8.378 -42.640  0.00  0.00    +0.000 A 
ATOM     35  C26 UNL     1      26.019  -7.520 -43.412  0.00  0.00    +0.000 A 
BRANCH  30  37
ATOM     36  C1  UNL     1      22.949  -6.203 -44.077  0.00  0.00    +0.000 C 
ATOM     37  O1  UNL     1      24.255  -5.888 -43.608  0.00  0.00    +0.000 OA
ENDBRANCH  30  37
BRANCH  35  38
ATOM     38  O8  UNL     1      26.198  -7.445 -44.792  0.00  0.00    +0.000 OA
ATOM     39  H16 UNL     1      25.982  -6.602 -45.310  0.00  0.00    +0.000 HD
ENDBRANCH  35  38
ENDBRANCH   1  33
TORSDOF 7
ENDMDL
