MODEL 1
REMARK VINA RESULT:    -5.883      0.000      0.000
REMARK INTER + INTRA:          -8.779
REMARK INTER:                  -7.946
REMARK INTRA:                  -0.833
REMARK UNBOUND:                -0.833
REMARK  Name = resultss/4CJN/ligands/lig_286_t0.pdb
REMARK  10 active torsions:
REMARK  status: ('A' for Active; 'I' for Inactive)
REMARK    1  A    between atoms: C4_5  and  O2_6
REMARK    2  A    between atoms: C5_7  and  O3_8
REMARK    3  A    between atoms: C10_14  and  O5_15
REMARK    4  A    between atoms: C11_16  and  C12_17
REMARK    5  A    between atoms: C13_19  and  C14_20
REMARK    6  A    between atoms: C14_20  and  O7_21
REMARK    7  A    between atoms: C15_22  and  O8_23
REMARK    8  A    between atoms: C16_24  and  O9_25
REMARK    9  A    between atoms: C17_26  and  O10_27
REMARK   10  A    between atoms: C18_28  and  O11_29
REMARK                            x       y       z     vdW  Elec       q    Type
REMARK                         _______ _______ _______ _____ _____    ______ ____
ROOT
ATOM      1  O1  UNL     1      29.308 -10.358 -37.358  0.00  0.00    +0.000 OA
ATOM      2  C1  UNL     1      28.327  -9.677 -36.955  0.00  0.00    +0.000 A 
ATOM      3  C2  UNL     1      27.249  -9.445 -37.830  0.00  0.00    +0.000 A 
ATOM      4  C3  UNL     1      27.266  -9.875 -39.169  0.00  0.00    +0.000 A 
ATOM      5  C4  UNL     1      26.177  -9.631 -40.016  0.00  0.00    +0.000 A 
ATOM      6  C5  UNL     1      25.044  -8.945 -39.515  0.00  0.00    +0.000 A 
ATOM      7  C6  UNL     1      25.028  -8.523 -38.182  0.00  0.00    +0.000 A 
ATOM      8  C7  UNL     1      26.116  -8.770 -37.340  0.00  0.00    +0.000 A 
ATOM      9  O4  UNL     1      26.067  -8.375 -36.076  0.00  0.00    +0.000 OA
ATOM     10  C8  UNL     1      27.065  -8.561 -35.219  0.00  0.00    +0.000 A 
ATOM     11  C9  UNL     1      26.897  -8.139 -33.903  0.00  0.00    +0.000 A 
ATOM     12  C10 UNL     1      27.899  -8.338 -32.954  0.00  0.00    +0.000 A 
ATOM     13  C11 UNL     1      29.118  -8.944 -33.325  0.00  0.00    +0.000 A 
ATOM     14  C18 UNL     1      29.330  -9.308 -34.679  0.00  0.00    +0.000 A 
ATOM     15  C19 UNL     1      28.271  -9.183 -35.626  0.00  0.00    +0.000 A 
ENDROOT
BRANCH  13  16
ATOM     16  C12 UNL     1      30.225  -9.111 -32.292  0.00  0.00    +0.000 C 
ATOM     17  O6  UNL     1      30.805 -10.397 -32.435  0.00  0.00    +0.000 OA
ATOM     18  C13 UNL     1      31.741 -10.655 -31.401  0.00  0.00    +0.000 C 
ATOM     19  C15 UNL     1      32.935  -9.675 -31.503  0.00  0.00    +0.000 C 
ATOM     20  C16 UNL     1      32.425  -8.226 -31.440  0.00  0.00    +0.000 C 
ATOM     21  C17 UNL     1      31.296  -8.007 -32.460  0.00  0.00    +0.000 C 
BRANCH  19  22
ATOM     22  O8  UNL     1      33.829  -9.899 -30.444  0.00  0.00    +0.000 OA
ATOM     23  H13 UNL     1      34.250 -10.784 -30.602  0.00  0.00    +0.000 HD
ENDBRANCH  19  22
BRANCH  20  24
ATOM     24  O9  UNL     1      33.489  -7.348 -31.709  0.00  0.00    +0.000 OA
ATOM     25  H15 UNL     1      34.329  -7.860 -31.575  0.00  0.00    +0.000 HD
ENDBRANCH  20  24
BRANCH  21  26
ATOM     26  O10 UNL     1      30.725  -6.740 -32.246  0.00  0.00    +0.000 OA
ATOM     27  H17 UNL     1      31.444  -6.155 -31.890  0.00  0.00    +0.000 HD
ENDBRANCH  21  26
BRANCH  18  28
ATOM     28  C14 UNL     1      32.198 -12.116 -31.540  0.00  0.00    +0.000 C 
BRANCH  28  29
ATOM     29  O7  UNL     1      32.547 -12.651 -30.291  0.00  0.00    +0.000 OA
ATOM     30  H11 UNL     1      33.482 -12.374 -30.104  0.00  0.00    +0.000 HD
ENDBRANCH  28  29
ENDBRANCH  18  28
ENDBRANCH  13  16
BRANCH   5  31
ATOM     31  O2  UNL     1      26.262 -10.083 -41.333  0.00  0.00    +0.000 OA
ATOM     32  H2  UNL     1      26.854  -9.666 -42.037  0.00  0.00    +0.000 HD
ENDBRANCH   5  31
BRANCH   6  33
ATOM     33  O3  UNL     1      23.924  -8.664 -40.300  0.00  0.00    +0.000 OA
ATOM     34  H3  UNL     1      22.975  -8.679 -39.956  0.00  0.00    +0.000 HD
ENDBRANCH   6  33
BRANCH  12  35
ATOM     35  O5  UNL     1      27.690  -7.918 -31.640  0.00  0.00    +0.000 OA
ATOM     36  H6  UNL     1      28.424  -7.961 -30.942  0.00  0.00    +0.000 HD
ENDBRANCH  12  35
BRANCH  14  37
ATOM     37  O11 UNL     1      30.608  -9.749 -35.043  0.00  0.00    +0.000 OA
ATOM     38  H18 UNL     1      30.830 -10.703 -35.290  0.00  0.00    +0.000 HD
ENDBRANCH  14  37
TORSDOF 10
ENDMDL
MODEL 2
REMARK VINA RESULT:    -5.862      4.886      8.355
REMARK INTER + INTRA:          -8.751
REMARK INTER:                  -8.126
REMARK INTRA:                  -0.625
REMARK UNBOUND:                -0.833
REMARK  Name = resultss/4CJN/ligands/lig_286_t0.pdb
REMARK  10 active torsions:
REMARK  status: ('A' for Active; 'I' for Inactive)
REMARK    1  A    between atoms: C4_5  and  O2_6
REMARK    2  A    between atoms: C5_7  and  O3_8
REMARK    3  A    between atoms: C10_14  and  O5_15
REMARK    4  A    between atoms: C11_16  and  C12_17
REMARK    5  A    between atoms: C13_19  and  C14_20
REMARK    6  A    between atoms: C14_20  and  O7_21
REMARK    7  A    between atoms: C15_22  and  O8_23
REMARK    8  A    between atoms: C16_24  and  O9_25
REMARK    9  A    between atoms: C17_26  and  O10_27
REMARK   10  A    between atoms: C18_28  and  O11_29
REMARK                            x       y       z     vdW  Elec       q    Type
REMARK                         _______ _______ _______ _____ _____    ______ ____
ROOT
ATOM      1  O1  UNL     1      23.623  -7.732 -43.660  0.00  0.00    +0.000 OA
ATOM      2  C1  UNL     1      24.879  -7.656 -43.602  0.00  0.00    +0.000 A 
ATOM      3  C2  UNL     1      25.608  -7.443 -44.786  0.00  0.00    +0.000 A 
ATOM      4  C3  UNL     1      24.989  -7.395 -46.048  0.00  0.00    +0.000 A 
ATOM      5  C4  UNL     1      25.742  -7.179 -47.210  0.00  0.00    +0.000 A 
ATOM      6  C5  UNL     1      27.142  -7.002 -47.110  0.00  0.00    +0.000 A 
ATOM      7  C6  UNL     1      27.755  -7.044 -45.853  0.00  0.00    +0.000 A 
ATOM      8  C7  UNL     1      27.000  -7.259 -44.697  0.00  0.00    +0.000 A 
ATOM      9  O4  UNL     1      27.604  -7.277 -43.518  0.00  0.00    +0.000 OA
ATOM     10  C8  UNL     1      26.958  -7.487 -42.375  0.00  0.00    +0.000 A 
ATOM     11  C9  UNL     1      27.682  -7.450 -41.187  0.00  0.00    +0.000 A 
ATOM     12  C10 UNL     1      27.049  -7.633 -39.958  0.00  0.00    +0.000 A 
ATOM     13  C11 UNL     1      25.664  -7.893 -39.905  0.00  0.00    +0.000 A 
ATOM     14  C18 UNL     1      24.930  -8.010 -41.113  0.00  0.00    +0.000 A 
ATOM     15  C19 UNL     1      25.563  -7.735 -42.361  0.00  0.00    +0.000 A 
ENDROOT
BRANCH  13  16
ATOM     16  C12 UNL     1      24.992  -8.142 -38.560  0.00  0.00    +0.000 C 
ATOM     17  O6  UNL     1      25.949  -8.663 -37.651  0.00  0.00    +0.000 OA
ATOM     18  C13 UNL     1      25.339  -9.049 -36.431  0.00  0.00    +0.000 C 
ATOM     19  C15 UNL     1      24.752  -7.811 -35.711  0.00  0.00    +0.000 C 
ATOM     20  C16 UNL     1      23.745  -7.102 -36.633  0.00  0.00    +0.000 C 
ATOM     21  C17 UNL     1      24.373  -6.835 -38.011  0.00  0.00    +0.000 C 
BRANCH  19  22
ATOM     22  O8  UNL     1      24.100  -8.207 -34.532  0.00  0.00    +0.000 OA
ATOM     23  H13 UNL     1      23.725  -9.111 -34.699  0.00  0.00    +0.000 HD
ENDBRANCH  19  22
BRANCH  20  24
ATOM     24  O9  UNL     1      23.352  -5.888 -36.044  0.00  0.00    +0.000 OA
ATOM     25  H15 UNL     1      23.821  -5.163 -36.535  0.00  0.00    +0.000 HD
ENDBRANCH  20  24
BRANCH  21  26
ATOM     26  O10 UNL     1      23.376  -6.366 -38.884  0.00  0.00    +0.000 OA
ATOM     27  H17 UNL     1      22.535  -6.837 -38.644  0.00  0.00    +0.000 HD
ENDBRANCH  21  26
BRANCH  18  28
ATOM     28  C14 UNL     1      26.409  -9.743 -35.574  0.00  0.00    +0.000 C 
BRANCH  28  29
ATOM     29  O7  UNL     1      25.817 -10.532 -34.576  0.00  0.00    +0.000 OA
ATOM     30  H11 UNL     1      25.714 -11.446 -34.948  0.00  0.00    +0.000 HD
ENDBRANCH  28  29
ENDBRANCH  18  28
ENDBRANCH  13  16
BRANCH   5  31
ATOM     31  O2  UNL     1      25.063  -7.147 -48.429  0.00  0.00    +0.000 OA
ATOM     32  H2  UNL     1      24.753  -7.969 -48.926  0.00  0.00    +0.000 HD
ENDBRANCH   5  31
BRANCH   6  33
ATOM     33  O3  UNL     1      27.956  -6.785 -48.224  0.00  0.00    +0.000 OA
ATOM     34  H3  UNL     1      27.802  -7.209 -49.127  0.00  0.00    +0.000 HD
ENDBRANCH   6  33
BRANCH  12  35
ATOM     35  O5  UNL     1      27.803  -7.572 -38.785  0.00  0.00    +0.000 OA
ATOM     36  H6  UNL     1      28.513  -6.863 -38.643  0.00  0.00    +0.000 HD
ENDBRANCH  12  35
BRANCH  14  37
ATOM     37  O11 UNL     1      23.599  -8.435 -41.028  0.00  0.00    +0.000 OA
ATOM     38  H18 UNL     1      22.810  -7.812 -40.927  0.00  0.00    +0.000 HD
ENDBRANCH  14  37
TORSDOF 10
ENDMDL
MODEL 3
REMARK VINA RESULT:    -5.823      4.674      7.116
REMARK INTER + INTRA:          -8.698
REMARK INTER:                  -7.922
REMARK INTRA:                  -0.776
REMARK UNBOUND:                -0.833
REMARK  Name = resultss/4CJN/ligands/lig_286_t0.pdb
REMARK  10 active torsions:
REMARK  status: ('A' for Active; 'I' for Inactive)
REMARK    1  A    between atoms: C4_5  and  O2_6
REMARK    2  A    between atoms: C5_7  and  O3_8
REMARK    3  A    between atoms: C10_14  and  O5_15
REMARK    4  A    between atoms: C11_16  and  C12_17
REMARK    5  A    between atoms: C13_19  and  C14_20
REMARK    6  A    between atoms: C14_20  and  O7_21
REMARK    7  A    between atoms: C15_22  and  O8_23
REMARK    8  A    between atoms: C16_24  and  O9_25
REMARK    9  A    between atoms: C17_26  and  O10_27
REMARK   10  A    between atoms: C18_28  and  O11_29
REMARK                            x       y       z     vdW  Elec       q    Type
REMARK                         _______ _______ _______ _____ _____    ______ ____
ROOT
ATOM      1  O1  UNL     1      23.609  -8.029 -41.030  0.00  0.00    +0.000 OA
ATOM      2  C1  UNL     1      24.823  -7.829 -41.304  0.00  0.00    +0.000 A 
ATOM      3  C2  UNL     1      25.203  -7.669 -42.649  0.00  0.00    +0.000 A 
ATOM      4  C3  UNL     1      24.287  -7.808 -43.708  0.00  0.00    +0.000 A 
ATOM      5  C4  UNL     1      24.696  -7.640 -45.038  0.00  0.00    +0.000 A 
ATOM      6  C5  UNL     1      26.047  -7.323 -45.317  0.00  0.00    +0.000 A 
ATOM      7  C6  UNL     1      26.954  -7.181 -44.262  0.00  0.00    +0.000 A 
ATOM      8  C7  UNL     1      26.542  -7.348 -42.937  0.00  0.00    +0.000 A 
ATOM      9  O4  UNL     1      27.419  -7.189 -41.956  0.00  0.00    +0.000 OA
ATOM     10  C8  UNL     1      27.107  -7.343 -40.674  0.00  0.00    +0.000 A 
ATOM     11  C9  UNL     1      28.095  -7.118 -39.719  0.00  0.00    +0.000 A 
ATOM     12  C10 UNL     1      27.814  -7.235 -38.358  0.00  0.00    +0.000 A 
ATOM     13  C11 UNL     1      26.526  -7.617 -37.929  0.00  0.00    +0.000 A 
ATOM     14  C18 UNL     1      25.534  -7.923 -38.894  0.00  0.00    +0.000 A 
ATOM     15  C19 UNL     1      25.799  -7.718 -40.281  0.00  0.00    +0.000 A 
ENDROOT
BRANCH  13  16
ATOM     16  C12 UNL     1      26.245  -7.791 -36.442  0.00  0.00    +0.000 C 
ATOM     17  O6  UNL     1      25.056  -7.093 -36.108  0.00  0.00    +0.000 OA
ATOM     18  C13 UNL     1      24.832  -7.102 -34.708  0.00  0.00    +0.000 C 
ATOM     19  C15 UNL     1      24.586  -8.549 -34.215  0.00  0.00    +0.000 C 
ATOM     20  C16 UNL     1      25.785  -9.437 -34.590  0.00  0.00    +0.000 C 
ATOM     21  C17 UNL     1      26.117  -9.290 -36.084  0.00  0.00    +0.000 C 
BRANCH  19  22
ATOM     22  O8  UNL     1      24.421  -8.557 -32.820  0.00  0.00    +0.000 OA
ATOM     23  H13 UNL     1      24.150  -7.639 -32.556  0.00  0.00    +0.000 HD
ENDBRANCH  19  22
BRANCH  20  24
ATOM     24  O9  UNL     1      25.479 -10.776 -34.298  0.00  0.00    +0.000 OA
ATOM     25  H15 UNL     1      24.857 -10.769 -33.524  0.00  0.00    +0.000 HD
ENDBRANCH  20  24
BRANCH  21  26
ATOM     26  O10 UNL     1      27.324  -9.958 -36.352  0.00  0.00    +0.000 OA
ATOM     27  H17 UNL     1      27.142 -10.606 -37.081  0.00  0.00    +0.000 HD
ENDBRANCH  21  26
BRANCH  18  28
ATOM     28  C14 UNL     1      23.622  -6.198 -34.424  0.00  0.00    +0.000 C 
BRANCH  28  29
ATOM     29  O7  UNL     1      22.448  -6.956 -34.304  0.00  0.00    +0.000 OA
ATOM     30  H11 UNL     1      22.575  -7.779 -34.845  0.00  0.00    +0.000 HD
ENDBRANCH  28  29
ENDBRANCH  18  28
ENDBRANCH  13  16
BRANCH   5  31
ATOM     31  O2  UNL     1      23.736  -7.795 -46.039  0.00  0.00    +0.000 OA
ATOM     32  H2  UNL     1      23.677  -7.212 -46.861  0.00  0.00    +0.000 HD
ENDBRANCH   5  31
BRANCH   6  33
ATOM     33  O3  UNL     1      26.526  -7.144 -46.617  0.00  0.00    +0.000 OA
ATOM     34  H3  UNL     1      26.145  -6.477 -47.272  0.00  0.00    +0.000 HD
ENDBRANCH   6  33
BRANCH  12  35
ATOM     35  O5  UNL     1      28.825  -6.985 -37.428  0.00  0.00    +0.000 OA
ATOM     36  H6  UNL     1      29.268  -7.733 -36.908  0.00  0.00    +0.000 HD
ENDBRANCH  12  35
BRANCH  14  37
ATOM     37  O11 UNL     1      24.324  -8.461 -38.437  0.00  0.00    +0.000 OA
ATOM     38  H18 UNL     1      23.738  -9.080 -38.978  0.00  0.00    +0.000 HD
ENDBRANCH  14  37
TORSDOF 10
ENDMDL
MODEL 4
REMARK VINA RESULT:    -5.802      2.298      9.785
REMARK INTER + INTRA:          -8.670
REMARK INTER:                  -7.843
REMARK INTRA:                  -0.827
REMARK UNBOUND:                -0.833
REMARK  Name = resultss/4CJN/ligands/lig_286_t0.pdb
REMARK  10 active torsions:
REMARK  status: ('A' for Active; 'I' for Inactive)
REMARK    1  A    between atoms: C4_5  and  O2_6
REMARK    2  A    between atoms: C5_7  and  O3_8
REMARK    3  A    between atoms: C10_14  and  O5_15
REMARK    4  A    between atoms: C11_16  and  C12_17
REMARK    5  A    between atoms: C13_19  and  C14_20
REMARK    6  A    between atoms: C14_20  and  O7_21
REMARK    7  A    between atoms: C15_22  and  O8_23
REMARK    8  A    between atoms: C16_24  and  O9_25
REMARK    9  A    between atoms: C17_26  and  O10_27
REMARK   10  A    between atoms: C18_28  and  O11_29
REMARK                            x       y       z     vdW  Elec       q    Type
REMARK                         _______ _______ _______ _____ _____    ______ ____
ROOT
ATOM      1  O1  UNL     1      26.080  -7.100 -35.794  0.00  0.00    +0.000 OA
ATOM      2  C1  UNL     1      26.990  -7.936 -36.040  0.00  0.00    +0.000 A 
ATOM      3  C2  UNL     1      27.803  -8.393 -34.986  0.00  0.00    +0.000 A 
ATOM      4  C3  UNL     1      27.690  -7.885 -33.679  0.00  0.00    +0.000 A 
ATOM      5  C4  UNL     1      28.512  -8.363 -32.650  0.00  0.00    +0.000 A 
ATOM      6  C5  UNL     1      29.466  -9.370 -32.930  0.00  0.00    +0.000 A 
ATOM      7  C6  UNL     1      29.572  -9.877 -34.229  0.00  0.00    +0.000 A 
ATOM      8  C7  UNL     1      28.749  -9.399 -35.253  0.00  0.00    +0.000 A 
ATOM      9  O4  UNL     1      28.859  -9.910 -36.470  0.00  0.00    +0.000 OA
ATOM     10  C8  UNL     1      28.122  -9.500 -37.497  0.00  0.00    +0.000 A 
ATOM     11  C9  UNL     1      28.292 -10.128 -38.728  0.00  0.00    +0.000 A 
ATOM     12  C10 UNL     1      27.523  -9.759 -39.831  0.00  0.00    +0.000 A 
ATOM     13  C11 UNL     1      26.580  -8.716 -39.722  0.00  0.00    +0.000 A 
ATOM     14  C18 UNL     1      26.453  -8.018 -38.495  0.00  0.00    +0.000 A 
ATOM     15  C19 UNL     1      27.177  -8.455 -37.347  0.00  0.00    +0.000 A 
ENDROOT
BRANCH  13  16
ATOM     16  C12 UNL     1      25.781  -8.287 -40.947  0.00  0.00    +0.000 C 
ATOM     17  O6  UNL     1      26.658  -8.169 -42.056  0.00  0.00    +0.000 OA
ATOM     18  C13 UNL     1      25.988  -7.630 -43.183  0.00  0.00    +0.000 C 
ATOM     19  C15 UNL     1      24.881  -8.601 -43.663  0.00  0.00    +0.000 C 
ATOM     20  C16 UNL     1      23.897  -8.877 -42.514  0.00  0.00    +0.000 C 
ATOM     21  C17 UNL     1      24.656  -9.306 -41.247  0.00  0.00    +0.000 C 
BRANCH  19  22
ATOM     22  O8  UNL     1      24.185  -8.037 -44.744  0.00  0.00    +0.000 OA
ATOM     23  H13 UNL     1      23.359  -7.629 -44.375  0.00  0.00    +0.000 HD
ENDBRANCH  19  22
BRANCH  20  24
ATOM     24  O9  UNL     1      23.004  -9.890 -42.901  0.00  0.00    +0.000 OA
ATOM     25  H15 UNL     1      23.454 -10.416 -43.613  0.00  0.00    +0.000 HD
ENDBRANCH  20  24
BRANCH  21  26
ATOM     26  O10 UNL     1      23.753  -9.363 -40.171  0.00  0.00    +0.000 OA
ATOM     27  H17 UNL     1      23.846  -8.511 -39.669  0.00  0.00    +0.000 HD
ENDBRANCH  21  26
BRANCH  18  28
ATOM     28  C14 UNL     1      27.038  -7.389 -44.279  0.00  0.00    +0.000 C 
BRANCH  28  29
ATOM     29  O7  UNL     1      26.581  -6.445 -45.211  0.00  0.00    +0.000 OA
ATOM     30  H11 UNL     1      25.895  -5.891 -44.755  0.00  0.00    +0.000 HD
ENDBRANCH  28  29
ENDBRANCH  18  28
ENDBRANCH  13  16
BRANCH   5  31
ATOM     31  O2  UNL     1      28.349  -7.812 -31.378  0.00  0.00    +0.000 OA
ATOM     32  H2  UNL     1      29.022  -7.205 -30.933  0.00  0.00    +0.000 HD
ENDBRANCH   5  31
BRANCH   6  33
ATOM     33  O3  UNL     1      30.320  -9.892 -31.956  0.00  0.00    +0.000 OA
ATOM     34  H3  UNL     1      30.608 -10.859 -31.916  0.00  0.00    +0.000 HD
ENDBRANCH   6  33
BRANCH  12  35
ATOM     35  O5  UNL     1      27.707 -10.422 -41.046  0.00  0.00    +0.000 OA
ATOM     36  H6  UNL     1      28.630 -10.564 -41.441  0.00  0.00    +0.000 HD
ENDBRANCH  12  35
BRANCH  14  37
ATOM     37  O11 UNL     1      25.633  -6.883 -38.472  0.00  0.00    +0.000 OA
ATOM     38  H18 UNL     1      25.535  -6.270 -37.675  0.00  0.00    +0.000 HD
ENDBRANCH  14  37
TORSDOF 10
ENDMDL
MODEL 5
REMARK VINA RESULT:    -5.739      1.346      2.663
REMARK INTER + INTRA:          -8.585
REMARK INTER:                  -7.817
REMARK INTRA:                  -0.768
REMARK UNBOUND:                -0.833
REMARK  Name = resultss/4CJN/ligands/lig_286_t0.pdb
REMARK  10 active torsions:
REMARK  status: ('A' for Active; 'I' for Inactive)
REMARK    1  A    between atoms: C4_5  and  O2_6
REMARK    2  A    between atoms: C5_7  and  O3_8
REMARK    3  A    between atoms: C10_14  and  O5_15
REMARK    4  A    between atoms: C11_16  and  C12_17
REMARK    5  A    between atoms: C13_19  and  C14_20
REMARK    6  A    between atoms: C14_20  and  O7_21
REMARK    7  A    between atoms: C15_22  and  O8_23
REMARK    8  A    between atoms: C16_24  and  O9_25
REMARK    9  A    between atoms: C17_26  and  O10_27
REMARK   10  A    between atoms: C18_28  and  O11_29
REMARK                            x       y       z     vdW  Elec       q    Type
REMARK                         _______ _______ _______ _____ _____    ______ ____
ROOT
ATOM      1  O1  UNL     1      26.251  -8.902 -36.256  0.00  0.00    +0.000 OA
ATOM      2  C1  UNL     1      27.156  -9.229 -37.071  0.00  0.00    +0.000 A 
ATOM      3  C2  UNL     1      26.840  -9.332 -38.438  0.00  0.00    +0.000 A 
ATOM      4  C3  UNL     1      25.529  -9.163 -38.919  0.00  0.00    +0.000 A 
ATOM      5  C4  UNL     1      25.247  -9.269 -40.288  0.00  0.00    +0.000 A 
ATOM      6  C5  UNL     1      26.296  -9.545 -41.197  0.00  0.00    +0.000 A 
ATOM      7  C6  UNL     1      27.599  -9.706 -40.716  0.00  0.00    +0.000 A 
ATOM      8  C7  UNL     1      27.878  -9.599 -39.351  0.00  0.00    +0.000 A 
ATOM      9  O4  UNL     1      29.124  -9.738 -38.926  0.00  0.00    +0.000 OA
ATOM     10  C8  UNL     1      29.466  -9.662 -37.644  0.00  0.00    +0.000 A 
ATOM     11  C9  UNL     1      30.811  -9.788 -37.307  0.00  0.00    +0.000 A 
ATOM     12  C10 UNL     1      31.228  -9.685 -35.980  0.00  0.00    +0.000 A 
ATOM     13  C11 UNL     1      30.283  -9.484 -34.952  0.00  0.00    +0.000 A 
ATOM     14  C18 UNL     1      28.904  -9.432 -35.275  0.00  0.00    +0.000 A 
ATOM     15  C19 UNL     1      28.489  -9.449 -36.640  0.00  0.00    +0.000 A 
ENDROOT
BRANCH  13  16
ATOM     16  C12 UNL     1      30.746  -9.424 -33.501  0.00  0.00    +0.000 C 
ATOM     17  O6  UNL     1      31.490 -10.593 -33.201  0.00  0.00    +0.000 OA
ATOM     18  C13 UNL     1      31.816 -10.653 -31.823  0.00  0.00    +0.000 C 
ATOM     19  C15 UNL     1      32.758  -9.483 -31.444  0.00  0.00    +0.000 C 
ATOM     20  C16 UNL     1      32.090  -8.143 -31.798  0.00  0.00    +0.000 C 
ATOM     21  C17 UNL     1      31.596  -8.156 -33.253  0.00  0.00    +0.000 C 
BRANCH  19  22
ATOM     22  O8  UNL     1      33.031  -9.516 -30.067  0.00  0.00    +0.000 OA
ATOM     23  H13 UNL     1      32.949  -8.585 -29.734  0.00  0.00    +0.000 HD
ENDBRANCH  19  22
BRANCH  20  24
ATOM     24  O9  UNL     1      33.016  -7.102 -31.616  0.00  0.00    +0.000 OA
ATOM     25  H15 UNL     1      33.921  -7.507 -31.669  0.00  0.00    +0.000 HD
ENDBRANCH  20  24
BRANCH  21  26
ATOM     26  O10 UNL     1      30.827  -7.002 -33.485  0.00  0.00    +0.000 OA
ATOM     27  H17 UNL     1      31.231  -6.272 -32.948  0.00  0.00    +0.000 HD
ENDBRANCH  21  26
BRANCH  18  28
ATOM     28  C14 UNL     1      32.478 -12.015 -31.559  0.00  0.00    +0.000 C 
BRANCH  28  29
ATOM     29  O7  UNL     1      32.370 -12.369 -30.206  0.00  0.00    +0.000 OA
ATOM     30  H11 UNL     1      31.403 -12.481 -30.008  0.00  0.00    +0.000 HD
ENDBRANCH  28  29
ENDBRANCH  18  28
ENDBRANCH  13  16
BRANCH   5  31
ATOM     31  O2  UNL     1      23.923  -9.094 -40.695  0.00  0.00    +0.000 OA
ATOM     32  H2  UNL     1      23.578  -9.331 -41.614  0.00  0.00    +0.000 HD
ENDBRANCH   5  31
BRANCH   6  33
ATOM     33  O3  UNL     1      26.089  -9.667 -42.572  0.00  0.00    +0.000 OA
ATOM     34  H3  UNL     1      26.783  -9.441 -43.270  0.00  0.00    +0.000 HD
ENDBRANCH   6  33
BRANCH  12  35
ATOM     35  O5  UNL     1      32.587  -9.799 -35.680  0.00  0.00    +0.000 OA
ATOM     36  H6  UNL     1      33.302  -9.667 -36.386  0.00  0.00    +0.000 HD
ENDBRANCH  12  35
BRANCH  14  37
ATOM     37  O11 UNL     1      27.987  -9.401 -34.217  0.00  0.00    +0.000 OA
ATOM     38  H18 UNL     1      27.527  -8.564 -33.889  0.00  0.00    +0.000 HD
ENDBRANCH  14  37
TORSDOF 10
ENDMDL
MODEL 6
REMARK VINA RESULT:    -5.683      6.728      8.563
REMARK INTER + INTRA:          -8.509
REMARK INTER:                  -7.652
REMARK INTRA:                  -0.856
REMARK UNBOUND:                -0.833
REMARK  Name = resultss/4CJN/ligands/lig_286_t0.pdb
REMARK  10 active torsions:
REMARK  status: ('A' for Active; 'I' for Inactive)
REMARK    1  A    between atoms: C4_5  and  O2_6
REMARK    2  A    between atoms: C5_7  and  O3_8
REMARK    3  A    between atoms: C10_14  and  O5_15
REMARK    4  A    between atoms: C11_16  and  C12_17
REMARK    5  A    between atoms: C13_19  and  C14_20
REMARK    6  A    between atoms: C14_20  and  O7_21
REMARK    7  A    between atoms: C15_22  and  O8_23
REMARK    8  A    between atoms: C16_24  and  O9_25
REMARK    9  A    between atoms: C17_26  and  O10_27
REMARK   10  A    between atoms: C18_28  and  O11_29
REMARK                            x       y       z     vdW  Elec       q    Type
REMARK                         _______ _______ _______ _____ _____    ______ ____
ROOT
ATOM      1  O1  UNL     1      26.862  -7.815 -44.718  0.00  0.00    +0.000 OA
ATOM      2  C1  UNL     1      26.151  -8.233 -43.765  0.00  0.00    +0.000 A 
ATOM      3  C2  UNL     1      24.773  -7.949 -43.763  0.00  0.00    +0.000 A 
ATOM      4  C3  UNL     1      24.173  -7.143 -44.747  0.00  0.00    +0.000 A 
ATOM      5  C4  UNL     1      22.797  -6.880 -44.720  0.00  0.00    +0.000 A 
ATOM      6  C5  UNL     1      22.001  -7.437 -43.691  0.00  0.00    +0.000 A 
ATOM      7  C6  UNL     1      22.599  -8.243 -42.717  0.00  0.00    +0.000 A 
ATOM      8  C7  UNL     1      23.972  -8.504 -42.748  0.00  0.00    +0.000 A 
ATOM      9  O4  UNL     1      24.509  -9.285 -41.823  0.00  0.00    +0.000 OA
ATOM     10  C8  UNL     1      25.806  -9.570 -41.778  0.00  0.00    +0.000 A 
ATOM     11  C9  UNL     1      26.263 -10.431 -40.784  0.00  0.00    +0.000 A 
ATOM     12  C10 UNL     1      27.609 -10.788 -40.710  0.00  0.00    +0.000 A 
ATOM     13  C11 UNL     1      28.537 -10.251 -41.627  0.00  0.00    +0.000 A 
ATOM     14  C18 UNL     1      28.097  -9.313 -42.595  0.00  0.00    +0.000 A 
ATOM     15  C19 UNL     1      26.707  -9.019 -42.723  0.00  0.00    +0.000 A 
ENDROOT
BRANCH  13  16
ATOM     16  C12 UNL     1      30.014 -10.608 -41.505  0.00  0.00    +0.000 C 
ATOM     17  O6  UNL     1      30.539 -10.864 -42.797  0.00  0.00    +0.000 OA
ATOM     18  C13 UNL     1      31.871 -11.344 -42.723  0.00  0.00    +0.000 C 
ATOM     19  C15 UNL     1      32.800 -10.255 -42.134  0.00  0.00    +0.000 C 
ATOM     20  C16 UNL     1      32.287  -9.827 -40.748  0.00  0.00    +0.000 C 
ATOM     21  C17 UNL     1      30.795  -9.465 -40.815  0.00  0.00    +0.000 C 
BRANCH  19  22
ATOM     22  O8  UNL     1      34.106 -10.755 -42.011  0.00  0.00    +0.000 OA
ATOM     23  H13 UNL     1      34.572 -10.563 -42.866  0.00  0.00    +0.000 HD
ENDBRANCH  19  22
BRANCH  20  24
ATOM     24  O9  UNL     1      33.028  -8.721 -40.300  0.00  0.00    +0.000 OA
ATOM     25  H15 UNL     1      33.697  -8.515 -41.005  0.00  0.00    +0.000 HD
ENDBRANCH  20  24
BRANCH  21  26
ATOM     26  O10 UNL     1      30.314  -9.267 -39.509  0.00  0.00    +0.000 OA
ATOM     27  H17 UNL     1      29.631  -8.548 -39.558  0.00  0.00    +0.000 HD
ENDBRANCH  21  26
BRANCH  18  28
ATOM     28  C14 UNL     1      32.302 -11.744 -44.143  0.00  0.00    +0.000 C 
BRANCH  28  29
ATOM     29  O7  UNL     1      32.964 -10.684 -44.781  0.00  0.00    +0.000 OA
ATOM     30  H11 UNL     1      33.584 -10.283 -44.117  0.00  0.00    +0.000 HD
ENDBRANCH  28  29
ENDBRANCH  18  28
ENDBRANCH  13  16
BRANCH   5  31
ATOM     31  O2  UNL     1      22.269  -6.069 -45.726  0.00  0.00    +0.000 OA
ATOM     32  H2  UNL     1      22.230  -6.330 -46.700  0.00  0.00    +0.000 HD
ENDBRANCH   5  31
BRANCH   6  33
ATOM     33  O3  UNL     1      20.625  -7.217 -43.599  0.00  0.00    +0.000 OA
ATOM     34  H3  UNL     1      20.212  -6.395 -43.182  0.00  0.00    +0.000 HD
ENDBRANCH   6  33
BRANCH  12  35
ATOM     35  O5  UNL     1      28.030 -11.668 -39.711  0.00  0.00    +0.000 OA
ATOM     36  H6  UNL     1      29.008 -11.896 -39.578  0.00  0.00    +0.000 HD
ENDBRANCH  12  35
BRANCH  14  37
ATOM     37  O11 UNL     1      29.070  -8.675 -43.374  0.00  0.00    +0.000 OA
ATOM     38  H18 UNL     1      29.279  -7.689 -43.325  0.00  0.00    +0.000 HD
ENDBRANCH  14  37
TORSDOF 10
ENDMDL
MODEL 7
REMARK VINA RESULT:    -5.651      4.750      8.712
REMARK INTER + INTRA:          -8.466
REMARK INTER:                  -7.624
REMARK INTRA:                  -0.842
REMARK UNBOUND:                -0.833
REMARK  Name = resultss/4CJN/ligands/lig_286_t0.pdb
REMARK  10 active torsions:
REMARK  status: ('A' for Active; 'I' for Inactive)
REMARK    1  A    between atoms: C4_5  and  O2_6
REMARK    2  A    between atoms: C5_7  and  O3_8
REMARK    3  A    between atoms: C10_14  and  O5_15
REMARK    4  A    between atoms: C11_16  and  C12_17
REMARK    5  A    between atoms: C13_19  and  C14_20
REMARK    6  A    between atoms: C14_20  and  O7_21
REMARK    7  A    between atoms: C15_22  and  O8_23
REMARK    8  A    between atoms: C16_24  and  O9_25
REMARK    9  A    between atoms: C17_26  and  O10_27
REMARK   10  A    between atoms: C18_28  and  O11_29
REMARK                            x       y       z     vdW  Elec       q    Type
REMARK                         _______ _______ _______ _____ _____    ______ ____
ROOT
ATOM      1  O1  UNL     1      27.438  -6.977 -44.829  0.00  0.00    +0.000 OA
ATOM      2  C1  UNL     1      26.207  -7.196 -44.675  0.00  0.00    +0.000 A 
ATOM      3  C2  UNL     1      25.339  -7.025 -45.768  0.00  0.00    +0.000 A 
ATOM      4  C3  UNL     1      25.785  -6.535 -47.009  0.00  0.00    +0.000 A 
ATOM      5  C4  UNL     1      24.897  -6.377 -48.081  0.00  0.00    +0.000 A 
ATOM      6  C5  UNL     1      23.533  -6.719 -47.913  0.00  0.00    +0.000 A 
ATOM      7  C6  UNL     1      23.094  -7.211 -46.680  0.00  0.00    +0.000 A 
ATOM      8  C7  UNL     1      23.983  -7.368 -45.613  0.00  0.00    +0.000 A 
ATOM      9  O4  UNL     1      23.542  -7.853 -44.462  0.00  0.00    +0.000 OA
ATOM     10  C8  UNL     1      24.323  -8.020 -43.399  0.00  0.00    +0.000 A 
ATOM     11  C9  UNL     1      23.768  -8.570 -42.248  0.00  0.00    +0.000 A 
ATOM     12  C10 UNL     1      24.549  -8.796 -41.115  0.00  0.00    +0.000 A 
ATOM     13  C11 UNL     1      25.912  -8.436 -41.109  0.00  0.00    +0.000 A 
ATOM     14  C18 UNL     1      26.470  -7.803 -42.249  0.00  0.00    +0.000 A 
ATOM     15  C19 UNL     1      25.692  -7.655 -43.435  0.00  0.00    +0.000 A 
ENDROOT
BRANCH  13  16
ATOM     16  C12 UNL     1      26.744  -8.640 -39.848  0.00  0.00    +0.000 C 
ATOM     17  O6  UNL     1      26.030  -8.132 -38.733  0.00  0.00    +0.000 OA
ATOM     18  C13 UNL     1      26.823  -8.165 -37.559  0.00  0.00    +0.000 C 
ATOM     19  C15 UNL     1      27.153  -9.629 -37.176  0.00  0.00    +0.000 C 
ATOM     20  C16 UNL     1      27.868 -10.324 -38.347  0.00  0.00    +0.000 C 
ATOM     21  C17 UNL     1      27.072 -10.139 -39.650  0.00  0.00    +0.000 C 
BRANCH  19  22
ATOM     22  O8  UNL     1      27.985  -9.652 -36.046  0.00  0.00    +0.000 OA
ATOM     23  H13 UNL     1      27.866 -10.540 -35.617  0.00  0.00    +0.000 HD
ENDBRANCH  19  22
BRANCH  20  24
ATOM     24  O9  UNL     1      28.004 -11.692 -38.061  0.00  0.00    +0.000 OA
ATOM     25  H15 UNL     1      27.715 -11.822 -37.120  0.00  0.00    +0.000 HD
ENDBRANCH  20  24
BRANCH  21  26
ATOM     26  O10 UNL     1      27.840 -10.614 -40.727  0.00  0.00    +0.000 OA
ATOM     27  H17 UNL     1      27.897  -9.878 -41.390  0.00  0.00    +0.000 HD
ENDBRANCH  21  26
BRANCH  18  28
ATOM     28  C14 UNL     1      26.037  -7.456 -36.445  0.00  0.00    +0.000 C 
BRANCH  28  29
ATOM     29  O7  UNL     1      25.350  -8.385 -35.648  0.00  0.00    +0.000 OA
ATOM     30  H11 UNL     1      24.725  -8.876 -36.244  0.00  0.00    +0.000 HD
ENDBRANCH  28  29
ENDBRANCH  18  28
ENDBRANCH  13  16
BRANCH   5  31
ATOM     31  O2  UNL     1      25.407  -5.883 -49.283  0.00  0.00    +0.000 OA
ATOM     32  H2  UNL     1      26.388  -5.877 -49.521  0.00  0.00    +0.000 HD
ENDBRANCH   5  31
BRANCH   6  33
ATOM     33  O3  UNL     1      22.591  -6.586 -48.935  0.00  0.00    +0.000 OA
ATOM     34  H3  UNL     1      22.600  -7.131 -49.785  0.00  0.00    +0.000 HD
ENDBRANCH   6  33
BRANCH  12  35
ATOM     35  O5  UNL     1      23.963  -9.366 -39.983  0.00  0.00    +0.000 OA
ATOM     36  H6  UNL     1      23.666 -10.335 -39.967  0.00  0.00    +0.000 HD
ENDBRANCH  12  35
BRANCH  14  37
ATOM     37  O11 UNL     1      27.776  -7.308 -42.147  0.00  0.00    +0.000 OA
ATOM     38  H18 UNL     1      28.497  -7.464 -42.836  0.00  0.00    +0.000 HD
ENDBRANCH  14  37
TORSDOF 10
ENDMDL
MODEL 8
REMARK VINA RESULT:    -5.526      4.661      7.340
REMARK INTER + INTRA:          -8.298
REMARK INTER:                  -7.534
REMARK INTRA:                  -0.763
REMARK UNBOUND:                -0.833
REMARK  Name = resultss/4CJN/ligands/lig_286_t0.pdb
REMARK  10 active torsions:
REMARK  status: ('A' for Active; 'I' for Inactive)
REMARK    1  A    between atoms: C4_5  and  O2_6
REMARK    2  A    between atoms: C5_7  and  O3_8
REMARK    3  A    between atoms: C10_14  and  O5_15
REMARK    4  A    between atoms: C11_16  and  C12_17
REMARK    5  A    between atoms: C13_19  and  C14_20
REMARK    6  A    between atoms: C14_20  and  O7_21
REMARK    7  A    between atoms: C15_22  and  O8_23
REMARK    8  A    between atoms: C16_24  and  O9_25
REMARK    9  A    between atoms: C17_26  and  O10_27
REMARK   10  A    between atoms: C18_28  and  O11_29
REMARK                            x       y       z     vdW  Elec       q    Type
REMARK                         _______ _______ _______ _____ _____    ______ ____
ROOT
ATOM      1  O1  UNL     1      26.267 -10.450 -34.762  0.00  0.00    +0.000 OA
ATOM      2  C1  UNL     1      25.985  -9.278 -35.133  0.00  0.00    +0.000 A 
ATOM      3  C2  UNL     1      25.089  -8.514 -34.365  0.00  0.00    +0.000 A 
ATOM      4  C3  UNL     1      24.429  -9.041 -33.240  0.00  0.00    +0.000 A 
ATOM      5  C4  UNL     1      23.542  -8.253 -32.493  0.00  0.00    +0.000 A 
ATOM      6  C5  UNL     1      23.313  -6.909 -32.875  0.00  0.00    +0.000 A 
ATOM      7  C6  UNL     1      23.975  -6.387 -33.990  0.00  0.00    +0.000 A 
ATOM      8  C7  UNL     1      24.859  -7.175 -34.732  0.00  0.00    +0.000 A 
ATOM      9  O4  UNL     1      25.486  -6.648 -35.773  0.00  0.00    +0.000 OA
ATOM     10  C8  UNL     1      26.331  -7.336 -36.534  0.00  0.00    +0.000 A 
ATOM     11  C9  UNL     1      26.965  -6.678 -37.584  0.00  0.00    +0.000 A 
ATOM     12  C10 UNL     1      27.884  -7.344 -38.395  0.00  0.00    +0.000 A 
ATOM     13  C11 UNL     1      28.161  -8.710 -38.180  0.00  0.00    +0.000 A 
ATOM     14  C18 UNL     1      27.463  -9.410 -37.163  0.00  0.00    +0.000 A 
ATOM     15  C19 UNL     1      26.591  -8.706 -36.282  0.00  0.00    +0.000 A 
ENDROOT
BRANCH  13  16
ATOM     16  C12 UNL     1      29.128  -9.440 -39.104  0.00  0.00    +0.000 C 
ATOM     17  O6  UNL     1      28.696  -9.287 -40.446  0.00  0.00    +0.000 OA
ATOM     18  C13 UNL     1      29.481 -10.070 -41.330  0.00  0.00    +0.000 C 
ATOM     19  C15 UNL     1      30.946  -9.569 -41.332  0.00  0.00    +0.000 C 
ATOM     20  C16 UNL     1      31.512  -9.612 -39.903  0.00  0.00    +0.000 C 
ATOM     21  C17 UNL     1      30.565  -8.895 -38.927  0.00  0.00    +0.000 C 
BRANCH  19  22
ATOM     22  O8  UNL     1      31.728 -10.385 -42.166  0.00  0.00    +0.000 OA
ATOM     23  H13 UNL     1      32.591  -9.914 -42.304  0.00  0.00    +0.000 HD
ENDBRANCH  19  22
BRANCH  20  24
ATOM     24  O9  UNL     1      32.774  -8.994 -39.886  0.00  0.00    +0.000 OA
ATOM     25  H15 UNL     1      33.424  -9.672 -39.566  0.00  0.00    +0.000 HD
ENDBRANCH  20  24
BRANCH  21  26
ATOM     26  O10 UNL     1      31.010  -9.116 -37.612  0.00  0.00    +0.000 OA
ATOM     27  H17 UNL     1      30.321  -8.738 -37.005  0.00  0.00    +0.000 HD
ENDBRANCH  21  26
BRANCH  18  28
ATOM     28  C14 UNL     1      28.849  -9.970 -42.727  0.00  0.00    +0.000 C 
BRANCH  28  29
ATOM     29  O7  UNL     1      29.415  -8.913 -43.457  0.00  0.00    +0.000 OA
ATOM     30  H11 UNL     1      30.313  -9.213 -43.758  0.00  0.00    +0.000 HD
ENDBRANCH  28  29
ENDBRANCH  18  28
ENDBRANCH  13  16
BRANCH   5  31
ATOM     31  O2  UNL     1      22.919  -8.840 -31.391  0.00  0.00    +0.000 OA
ATOM     32  H2  UNL     1      23.339  -9.560 -30.821  0.00  0.00    +0.000 HD
ENDBRANCH   5  31
BRANCH   6  33
ATOM     33  O3  UNL     1      22.442  -6.067 -32.180  0.00  0.00    +0.000 OA
ATOM     34  H3  UNL     1      22.399  -6.006 -31.173  0.00  0.00    +0.000 HD
ENDBRANCH   6  33
BRANCH  12  35
ATOM     35  O5  UNL     1      28.514  -6.648 -39.428  0.00  0.00    +0.000 OA
ATOM     36  H6  UNL     1      28.585  -7.032 -40.364  0.00  0.00    +0.000 HD
ENDBRANCH  12  35
BRANCH  14  37
ATOM     37  O11 UNL     1      27.637 -10.798 -37.090  0.00  0.00    +0.000 OA
ATOM     38  H18 UNL     1      28.535 -11.260 -37.126  0.00  0.00    +0.000 HD
ENDBRANCH  14  37
TORSDOF 10
ENDMDL
MODEL 9
REMARK VINA RESULT:    -5.490      2.346      9.233
REMARK INTER + INTRA:          -8.249
REMARK INTER:                  -7.563
REMARK INTRA:                  -0.686
REMARK UNBOUND:                -0.833
REMARK  Name = resultss/4CJN/ligands/lig_286_t0.pdb
REMARK  10 active torsions:
REMARK  status: ('A' for Active; 'I' for Inactive)
REMARK    1  A    between atoms: C4_5  and  O2_6
REMARK    2  A    between atoms: C5_7  and  O3_8
REMARK    3  A    between atoms: C10_14  and  O5_15
REMARK    4  A    between atoms: C11_16  and  C12_17
REMARK    5  A    between atoms: C13_19  and  C14_20
REMARK    6  A    between atoms: C14_20  and  O7_21
REMARK    7  A    between atoms: C15_22  and  O8_23
REMARK    8  A    between atoms: C16_24  and  O9_25
REMARK    9  A    between atoms: C17_26  and  O10_27
REMARK   10  A    between atoms: C18_28  and  O11_29
REMARK                            x       y       z     vdW  Elec       q    Type
REMARK                         _______ _______ _______ _____ _____    ______ ____
ROOT
ATOM      1  O1  UNL     1      30.213  -8.841 -38.132  0.00  0.00    +0.000 OA
ATOM      2  C1  UNL     1      29.349  -8.941 -37.219  0.00  0.00    +0.000 A 
ATOM      3  C2  UNL     1      29.769  -9.223 -35.907  0.00  0.00    +0.000 A 
ATOM      4  C3  UNL     1      31.116  -9.481 -35.591  0.00  0.00    +0.000 A 
ATOM      5  C4  UNL     1      31.504  -9.757 -34.273  0.00  0.00    +0.000 A 
ATOM      6  C5  UNL     1      30.529  -9.771 -33.247  0.00  0.00    +0.000 A 
ATOM      7  C6  UNL     1      29.192  -9.508 -33.563  0.00  0.00    +0.000 A 
ATOM      8  C7  UNL     1      28.808  -9.233 -34.879  0.00  0.00    +0.000 A 
ATOM      9  O4  UNL     1      27.538  -8.970 -35.147  0.00  0.00    +0.000 OA
ATOM     10  C8  UNL     1      27.094  -8.711 -36.372  0.00  0.00    +0.000 A 
ATOM     11  C9  UNL     1      25.745  -8.412 -36.540  0.00  0.00    +0.000 A 
ATOM     12  C10 UNL     1      25.233  -8.102 -37.800  0.00  0.00    +0.000 A 
ATOM     13  C11 UNL     1      26.073  -8.120 -38.932  0.00  0.00    +0.000 A 
ATOM     14  C18 UNL     1      27.432  -8.498 -38.785  0.00  0.00    +0.000 A 
ATOM     15  C19 UNL     1      27.972  -8.729 -37.485  0.00  0.00    +0.000 A 
ENDROOT
BRANCH  13  16
ATOM     16  C12 UNL     1      25.492  -7.829 -40.311  0.00  0.00    +0.000 C 
ATOM     17  O6  UNL     1      26.501  -7.266 -41.132  0.00  0.00    +0.000 OA
ATOM     18  C13 UNL     1      25.971  -6.842 -42.377  0.00  0.00    +0.000 C 
ATOM     19  C15 UNL     1      25.450  -8.060 -43.179  0.00  0.00    +0.000 C 
ATOM     20  C16 UNL     1      24.392  -8.812 -42.354  0.00  0.00    +0.000 C 
ATOM     21  C17 UNL     1      24.928  -9.122 -40.947  0.00  0.00    +0.000 C 
BRANCH  19  22
ATOM     22  O8  UNL     1      24.876  -7.628 -44.385  0.00  0.00    +0.000 OA
ATOM     23  H13 UNL     1      25.157  -6.685 -44.518  0.00  0.00    +0.000 HD
ENDBRANCH  19  22
BRANCH  20  24
ATOM     24  O9  UNL     1      24.056 -10.008 -43.011  0.00  0.00    +0.000 OA
ATOM     25  H15 UNL     1      23.210 -10.333 -42.605  0.00  0.00    +0.000 HD
ENDBRANCH  20  24
BRANCH  21  26
ATOM     26  O10 UNL     1      23.880  -9.633 -40.161  0.00  0.00    +0.000 OA
ATOM     27  H17 UNL     1      23.838  -9.079 -39.338  0.00  0.00    +0.000 HD
ENDBRANCH  21  26
BRANCH  18  28
ATOM     28  C14 UNL     1      27.088  -6.107 -43.133  0.00  0.00    +0.000 C 
BRANCH  28  29
ATOM     29  O7  UNL     1      27.694  -6.951 -44.076  0.00  0.00    +0.000 OA
ATOM     30  H11 UNL     1      26.975  -7.291 -44.670  0.00  0.00    +0.000 HD
ENDBRANCH  28  29
ENDBRANCH  18  28
ENDBRANCH  13  16
BRANCH   5  31
ATOM     31  O2  UNL     1      32.855 -10.008 -34.031  0.00  0.00    +0.000 OA
ATOM     32  H2  UNL     1      33.497 -10.365 -34.724  0.00  0.00    +0.000 HD
ENDBRANCH   5  31
BRANCH   6  33
ATOM     33  O3  UNL     1      30.842 -10.040 -31.913  0.00  0.00    +0.000 OA
ATOM     34  H3  UNL     1      30.724  -9.377 -31.161  0.00  0.00    +0.000 HD
ENDBRANCH   6  33
BRANCH  12  35
ATOM     35  O5  UNL     1      23.878  -7.790 -37.929  0.00  0.00    +0.000 OA
ATOM     36  H6  UNL     1      23.532  -7.220 -38.693  0.00  0.00    +0.000 HD
ENDBRANCH  12  35
BRANCH  14  37
ATOM     37  O11 UNL     1      28.191  -8.669 -39.949  0.00  0.00    +0.000 OA
ATOM     38  H18 UNL     1      28.911  -9.369 -40.059  0.00  0.00    +0.000 HD
ENDBRANCH  14  37
TORSDOF 10
ENDMDL
