MODEL 1
REMARK VINA RESULT:    -6.181      0.000      0.000
REMARK INTER + INTRA:          -7.949
REMARK INTER:                  -7.265
REMARK INTRA:                  -0.684
REMARK UNBOUND:                -0.684
REMARK  Name = resultss/4CJN/ligands/lig_262_t2.pdb
REMARK  6 active torsions:
REMARK  status: ('A' for Active; 'I' for Inactive)
REMARK    1  A    between atoms: C1_1  and  C2_2
REMARK    2  A    between atoms: C2_2  and  C3_3
REMARK    3  A    between atoms: C2_2  and  O1_4
REMARK    4  A    between atoms: C2_2  and  C4_5
REMARK    5  A    between atoms: C14_16  and  C15_17
REMARK    6  A    between atoms: C21_25  and  O5_26
REMARK                            x       y       z     vdW  Elec       q    Type
REMARK                         _______ _______ _______ _____ _____    ______ ____
ROOT
ATOM      1  C4  UNL     1      27.168  -8.849 -35.980  0.00  0.00    +0.000 C 
ATOM      2  C5  UNL     1      27.598 -10.142 -36.636  0.00  0.00    +0.000 C 
ATOM      3  C6  UNL     1      27.581 -10.038 -37.950  0.00  0.00    +0.000 A 
ATOM      4  C7  UNL     1      27.951 -11.028 -38.887  0.00  0.00    +0.000 A 
ATOM      5  C8  UNL     1      27.874 -10.728 -40.266  0.00  0.00    +0.000 A 
ATOM      6  C9  UNL     1      27.427  -9.449 -40.636  0.00  0.00    +0.000 A 
ATOM      7  C10 UNL     1      27.078  -8.501 -39.704  0.00  0.00    +0.000 A 
ATOM      8  C11 UNL     1      27.155  -8.790 -38.347  0.00  0.00    +0.000 A 
ATOM      9  C12 UNL     1      26.821  -7.929 -37.188  0.00  0.00    +0.000 C 
ATOM     10  O2  UNL     1      26.703  -7.384 -40.283  0.00  0.00    +0.000 OA
ATOM     11  C13 UNL     1      26.785  -7.559 -41.592  0.00  0.00    +0.000 A 
ATOM     12  C14 UNL     1      26.473  -6.590 -42.464  0.00  0.00    +0.000 C 
ATOM     13  C21 UNL     1      27.250  -8.852 -41.862  0.00  0.00    +0.000 A 
ENDROOT
BRANCH  12  14
ATOM     14  C15 UNL     1      26.475  -6.748 -43.932  0.00  0.00    +0.000 C 
ATOM     15  C16 UNL     1      27.704  -6.308 -44.700  0.00  0.00    +0.000 C 
ATOM     16  C17 UNL     1      27.867  -7.069 -46.026  0.00  0.00    +0.000 C 
ATOM     17  C18 UNL     1      26.578  -7.087 -46.794  0.00  0.00    +0.000 C 
ATOM     18  O3  UNL     1      26.588  -7.121 -48.053  0.00  0.00    +0.000 OA
ATOM     19  C19 UNL     1      25.311  -7.140 -46.052  0.00  0.00    +0.000 C 
ATOM     20  O4  UNL     1      24.216  -7.282 -46.660  0.00  0.00    +0.000 OA
ATOM     21  C20 UNL     1      25.335  -7.038 -44.585  0.00  0.00    +0.000 C 
ENDBRANCH  12  14
BRANCH   1  23
ATOM     22  C1  UNL     1      26.366  -8.476 -33.590  0.00  0.00    +0.000 C 
ATOM     23  C2  UNL     1      25.987  -9.039 -34.979  0.00  0.00    +0.000 C 
ATOM     24  C3  UNL     1      24.742  -8.279 -35.491  0.00  0.00    +0.000 C 
BRANCH  23  25
ATOM     25  O1  UNL     1      25.695 -10.413 -34.866  0.00  0.00    +0.000 OA
ATOM     26  H7  UNL     1      25.452 -10.599 -33.921  0.00  0.00    +0.000 HD
ENDBRANCH  23  25
ENDBRANCH   1  23
BRANCH  13  27
ATOM     27  O5  UNL     1      27.525  -9.415 -43.106  0.00  0.00    +0.000 OA
ATOM     28  H20 UNL     1      26.780  -9.683 -43.737  0.00  0.00    +0.000 HD
ENDBRANCH  13  27
TORSDOF 4
ENDMDL
MODEL 2
REMARK VINA RESULT:    -6.152      4.389      5.493
REMARK INTER + INTRA:          -7.914
REMARK INTER:                  -7.549
REMARK INTRA:                  -0.365
REMARK UNBOUND:                -0.684
REMARK  Name = resultss/4CJN/ligands/lig_262_t2.pdb
REMARK  6 active torsions:
REMARK  status: ('A' for Active; 'I' for Inactive)
REMARK    1  A    between atoms: C1_1  and  C2_2
REMARK    2  A    between atoms: C2_2  and  C3_3
REMARK    3  A    between atoms: C2_2  and  O1_4
REMARK    4  A    between atoms: C2_2  and  C4_5
REMARK    5  A    between atoms: C14_16  and  C15_17
REMARK    6  A    between atoms: C21_25  and  O5_26
REMARK                            x       y       z     vdW  Elec       q    Type
REMARK                         _______ _______ _______ _____ _____    ______ ____
ROOT
ATOM      1  C4  UNL     1      25.150  -7.346 -33.697  0.00  0.00    +0.000 C 
ATOM      2  C5  UNL     1      26.188  -8.254 -33.076  0.00  0.00    +0.000 C 
ATOM      3  C6  UNL     1      27.023  -8.713 -33.987  0.00  0.00    +0.000 A 
ATOM      4  C7  UNL     1      28.135  -9.557 -33.775  0.00  0.00    +0.000 A 
ATOM      5  C8  UNL     1      28.925  -9.941 -34.882  0.00  0.00    +0.000 A 
ATOM      6  C9  UNL     1      28.558  -9.460 -36.149  0.00  0.00    +0.000 A 
ATOM      7  C10 UNL     1      27.474  -8.636 -36.329  0.00  0.00    +0.000 A 
ATOM      8  C11 UNL     1      26.695  -8.253 -35.243  0.00  0.00    +0.000 A 
ATOM      9  C12 UNL     1      25.491  -7.389 -35.215  0.00  0.00    +0.000 C 
ATOM     10  O2  UNL     1      27.333  -8.308 -37.593  0.00  0.00    +0.000 OA
ATOM     11  C13 UNL     1      28.299  -8.902 -38.274  0.00  0.00    +0.000 A 
ATOM     12  C14 UNL     1      28.432  -8.757 -39.601  0.00  0.00    +0.000 C 
ATOM     13  C21 UNL     1      29.107  -9.635 -37.398  0.00  0.00    +0.000 A 
ENDROOT
BRANCH  12  14
ATOM     14  C15 UNL     1      29.443  -9.450 -40.425  0.00  0.00    +0.000 C 
ATOM     15  C16 UNL     1      29.082 -10.793 -41.025  0.00  0.00    +0.000 C 
ATOM     16  C17 UNL     1      29.878 -11.093 -42.305  0.00  0.00    +0.000 C 
ATOM     17  C18 UNL     1      31.341 -10.832 -42.098  0.00  0.00    +0.000 C 
ATOM     18  O3  UNL     1      32.202 -11.498 -42.731  0.00  0.00    +0.000 OA
ATOM     19  C19 UNL     1      31.747  -9.740 -41.203  0.00  0.00    +0.000 C 
ATOM     20  O4  UNL     1      32.959  -9.410 -41.101  0.00  0.00    +0.000 OA
ATOM     21  C20 UNL     1      30.718  -9.024 -40.434  0.00  0.00    +0.000 C 
ENDBRANCH  12  14
BRANCH   1  23
ATOM     22  C1  UNL     1      22.813  -7.721 -34.644  0.00  0.00    +0.000 C 
ATOM     23  C2  UNL     1      23.687  -7.784 -33.371  0.00  0.00    +0.000 C 
ATOM     24  C3  UNL     1      23.683  -9.237 -32.846  0.00  0.00    +0.000 C 
BRANCH  23  25
ATOM     25  O1  UNL     1      23.156  -6.920 -32.393  0.00  0.00    +0.000 OA
ATOM     26  H7  UNL     1      23.531  -6.013 -32.547  0.00  0.00    +0.000 HD
ENDBRANCH  23  25
ENDBRANCH   1  23
BRANCH  13  27
ATOM     27  O5  UNL     1      30.257 -10.360 -37.704  0.00  0.00    +0.000 OA
ATOM     28  H20 UNL     1      30.372 -11.317 -37.396  0.00  0.00    +0.000 HD
ENDBRANCH  13  27
TORSDOF 4
ENDMDL
MODEL 3
REMARK VINA RESULT:    -6.103      2.111      3.695
REMARK INTER + INTRA:          -7.857
REMARK INTER:                  -7.171
REMARK INTRA:                  -0.686
REMARK UNBOUND:                -0.684
REMARK  Name = resultss/4CJN/ligands/lig_262_t2.pdb
REMARK  6 active torsions:
REMARK  status: ('A' for Active; 'I' for Inactive)
REMARK    1  A    between atoms: C1_1  and  C2_2
REMARK    2  A    between atoms: C2_2  and  C3_3
REMARK    3  A    between atoms: C2_2  and  O1_4
REMARK    4  A    between atoms: C2_2  and  C4_5
REMARK    5  A    between atoms: C14_16  and  C15_17
REMARK    6  A    between atoms: C21_25  and  O5_26
REMARK                            x       y       z     vdW  Elec       q    Type
REMARK                         _______ _______ _______ _____ _____    ______ ____
ROOT
ATOM      1  C4  UNL     1      28.267  -9.997 -34.237  0.00  0.00    +0.000 C 
ATOM      2  C5  UNL     1      26.925  -9.335 -34.016  0.00  0.00    +0.000 C 
ATOM      3  C6  UNL     1      26.351  -9.029 -35.163  0.00  0.00    +0.000 A 
ATOM      4  C7  UNL     1      25.085  -8.433 -35.349  0.00  0.00    +0.000 A 
ATOM      5  C8  UNL     1      24.631  -8.186 -36.664  0.00  0.00    +0.000 A 
ATOM      6  C9  UNL     1      25.473  -8.547 -37.728  0.00  0.00    +0.000 A 
ATOM      7  C10 UNL     1      26.699  -9.131 -37.521  0.00  0.00    +0.000 A 
ATOM      8  C11 UNL     1      27.149  -9.378 -36.230  0.00  0.00    +0.000 A 
ATOM      9  C12 UNL     1      28.428  -9.982 -35.786  0.00  0.00    +0.000 C 
ATOM     10  O2  UNL     1      27.299  -9.387 -38.660  0.00  0.00    +0.000 OA
ATOM     11  C13 UNL     1      26.504  -8.983 -39.637  0.00  0.00    +0.000 A 
ATOM     12  C14 UNL     1      26.835  -9.114 -40.930  0.00  0.00    +0.000 C 
ATOM     13  C21 UNL     1      25.328  -8.452 -39.093  0.00  0.00    +0.000 A 
ENDROOT
BRANCH  12  14
ATOM     14  C15 UNL     1      26.024  -8.618 -42.059  0.00  0.00    +0.000 C 
ATOM     15  C16 UNL     1      24.962  -9.530 -42.637  0.00  0.00    +0.000 C 
ATOM     16  C17 UNL     1      23.818  -8.748 -43.301  0.00  0.00    +0.000 C 
ATOM     17  C18 UNL     1      24.357  -7.692 -44.223  0.00  0.00    +0.000 C 
ATOM     18  O3  UNL     1      23.704  -7.344 -45.242  0.00  0.00    +0.000 OA
ATOM     19  C19 UNL     1      25.618  -7.023 -43.875  0.00  0.00    +0.000 C 
ATOM     20  O4  UNL     1      26.037  -6.049 -44.555  0.00  0.00    +0.000 OA
ATOM     21  C20 UNL     1      26.382  -7.497 -42.711  0.00  0.00    +0.000 C 
ENDBRANCH  12  14
BRANCH   1  23
ATOM     22  C1  UNL     1      30.275  -8.445 -34.465  0.00  0.00    +0.000 C 
ATOM     23  C2  UNL     1      29.429  -9.283 -33.480  0.00  0.00    +0.000 C 
ATOM     24  C3  UNL     1      28.847  -8.336 -32.406  0.00  0.00    +0.000 C 
BRANCH  23  25
ATOM     25  O1  UNL     1      30.245 -10.255 -32.867  0.00  0.00    +0.000 OA
ATOM     26  H7  UNL     1      30.342 -10.014 -31.909  0.00  0.00    +0.000 HD
ENDBRANCH  23  25
ENDBRANCH   1  23
BRANCH  13  27
ATOM     27  O5  UNL     1      24.217  -7.967 -39.778  0.00  0.00    +0.000 OA
ATOM     28  H20 UNL     1      23.337  -8.467 -39.774  0.00  0.00    +0.000 HD
ENDBRANCH  13  27
TORSDOF 4
ENDMDL
MODEL 4
REMARK VINA RESULT:    -5.970      1.814      2.296
REMARK INTER + INTRA:          -7.701
REMARK INTER:                  -7.077
REMARK INTRA:                  -0.624
REMARK UNBOUND:                -0.684
REMARK  Name = resultss/4CJN/ligands/lig_262_t2.pdb
REMARK  6 active torsions:
REMARK  status: ('A' for Active; 'I' for Inactive)
REMARK    1  A    between atoms: C1_1  and  C2_2
REMARK    2  A    between atoms: C2_2  and  C3_3
REMARK    3  A    between atoms: C2_2  and  O1_4
REMARK    4  A    between atoms: C2_2  and  C4_5
REMARK    5  A    between atoms: C14_16  and  C15_17
REMARK    6  A    between atoms: C21_25  and  O5_26
REMARK                            x       y       z     vdW  Elec       q    Type
REMARK                         _______ _______ _______ _____ _____    ______ ____
ROOT
ATOM      1  C4  UNL     1      28.180  -9.131 -36.543  0.00  0.00    +0.000 C 
ATOM      2  C5  UNL     1      28.278 -10.403 -37.355  0.00  0.00    +0.000 C 
ATOM      3  C6  UNL     1      27.677 -10.270 -38.521  0.00  0.00    +0.000 A 
ATOM      4  C7  UNL     1      27.593 -11.232 -39.551  0.00  0.00    +0.000 A 
ATOM      5  C8  UNL     1      26.909 -10.903 -40.742  0.00  0.00    +0.000 A 
ATOM      6  C9  UNL     1      26.340  -9.623 -40.840  0.00  0.00    +0.000 A 
ATOM      7  C10 UNL     1      26.439  -8.702 -39.826  0.00  0.00    +0.000 A 
ATOM      8  C11 UNL     1      27.113  -9.020 -38.653  0.00  0.00    +0.000 A 
ATOM      9  C12 UNL     1      27.328  -8.190 -37.444  0.00  0.00    +0.000 C 
ATOM     10  O2  UNL     1      25.841  -7.578 -40.147  0.00  0.00    +0.000 OA
ATOM     11  C13 UNL     1      25.332  -7.723 -41.359  0.00  0.00    +0.000 A 
ATOM     12  C14 UNL     1      24.660  -6.739 -41.975  0.00  0.00    +0.000 C 
ATOM     13  C21 UNL     1      25.633  -9.001 -41.843  0.00  0.00    +0.000 A 
ENDROOT
BRANCH  12  14
ATOM     14  C15 UNL     1      24.009  -6.864 -43.294  0.00  0.00    +0.000 C 
ATOM     15  C16 UNL     1      24.820  -6.535 -44.530  0.00  0.00    +0.000 C 
ATOM     16  C17 UNL     1      24.313  -7.279 -45.776  0.00  0.00    +0.000 C 
ATOM     17  C18 UNL     1      22.824  -7.149 -45.907  0.00  0.00    +0.000 C 
ATOM     18  O3  UNL     1      22.282  -7.156 -47.044  0.00  0.00    +0.000 OA
ATOM     19  C19 UNL     1      22.006  -7.088 -44.688  0.00  0.00    +0.000 C 
ATOM     20  O4  UNL     1      20.748  -7.105 -44.756  0.00  0.00    +0.000 OA
ATOM     21  C20 UNL     1      22.676  -7.022 -43.380  0.00  0.00    +0.000 C 
ENDBRANCH  12  14
BRANCH   1  23
ATOM     22  C1  UNL     1      28.652  -9.886 -34.154  0.00  0.00    +0.000 C 
ATOM     23  C2  UNL     1      27.570  -9.361 -35.125  0.00  0.00    +0.000 C 
ATOM     24  C3  UNL     1      27.020  -8.027 -34.571  0.00  0.00    +0.000 C 
BRANCH  23  25
ATOM     25  O1  UNL     1      26.527 -10.304 -35.221  0.00  0.00    +0.000 OA
ATOM     26  H7  UNL     1      25.751  -9.957 -34.708  0.00  0.00    +0.000 HD
ENDBRANCH  23  25
ENDBRANCH   1  23
BRANCH  13  27
ATOM     27  O5  UNL     1      25.326  -9.532 -43.094  0.00  0.00    +0.000 OA
ATOM     28  H20 UNL     1      26.033  -9.629 -43.812  0.00  0.00    +0.000 HD
ENDBRANCH  13  27
TORSDOF 4
ENDMDL
MODEL 5
REMARK VINA RESULT:    -5.840      2.524      8.669
REMARK INTER + INTRA:          -7.548
REMARK INTER:                  -6.884
REMARK INTRA:                  -0.664
REMARK UNBOUND:                -0.684
REMARK  Name = resultss/4CJN/ligands/lig_262_t2.pdb
REMARK  6 active torsions:
REMARK  status: ('A' for Active; 'I' for Inactive)
REMARK    1  A    between atoms: C1_1  and  C2_2
REMARK    2  A    between atoms: C2_2  and  C3_3
REMARK    3  A    between atoms: C2_2  and  O1_4
REMARK    4  A    between atoms: C2_2  and  C4_5
REMARK    5  A    between atoms: C14_16  and  C15_17
REMARK    6  A    between atoms: C21_25  and  O5_26
REMARK                            x       y       z     vdW  Elec       q    Type
REMARK                         _______ _______ _______ _____ _____    ______ ____
ROOT
ATOM      1  C4  UNL     1      23.920  -8.775 -43.025  0.00  0.00    +0.000 C 
ATOM      2  C5  UNL     1      25.357  -9.173 -43.279  0.00  0.00    +0.000 C 
ATOM      3  C6  UNL     1      26.042  -9.225 -42.154  0.00  0.00    +0.000 A 
ATOM      4  C7  UNL     1      27.397  -9.591 -41.999  0.00  0.00    +0.000 A 
ATOM      5  C8  UNL     1      27.961  -9.596 -40.703  0.00  0.00    +0.000 A 
ATOM      6  C9  UNL     1      27.137  -9.231 -39.627  0.00  0.00    +0.000 A 
ATOM      7  C10 UNL     1      25.819  -8.884 -39.804  0.00  0.00    +0.000 A 
ATOM      8  C11 UNL     1      25.259  -8.880 -41.076  0.00  0.00    +0.000 A 
ATOM      9  C12 UNL     1      23.878  -8.533 -41.487  0.00  0.00    +0.000 C 
ATOM     10  O2  UNL     1      25.249  -8.592 -38.657  0.00  0.00    +0.000 OA
ATOM     11  C13 UNL     1      26.158  -8.729 -37.707  0.00  0.00    +0.000 A 
ATOM     12  C14 UNL     1      25.881  -8.507 -36.413  0.00  0.00    +0.000 C 
ATOM     13  C21 UNL     1      27.369  -9.143 -38.274  0.00  0.00    +0.000 A 
ENDROOT
BRANCH  12  14
ATOM     14  C15 UNL     1      26.869  -8.573 -35.319  0.00  0.00    +0.000 C 
ATOM     15  C16 UNL     1      27.122  -9.912 -34.659  0.00  0.00    +0.000 C 
ATOM     16  C17 UNL     1      28.529 -10.006 -34.047  0.00  0.00    +0.000 C 
ATOM     17  C18 UNL     1      28.832  -8.792 -33.218  0.00  0.00    +0.000 C 
ATOM     18  O3  UNL     1      29.599  -8.876 -32.223  0.00  0.00    +0.000 OA
ATOM     19  C19 UNL     1      28.280  -7.494 -33.631  0.00  0.00    +0.000 C 
ATOM     20  O4  UNL     1      28.613  -6.435 -33.035  0.00  0.00    +0.000 OA
ATOM     21  C20 UNL     1      27.341  -7.443 -34.762  0.00  0.00    +0.000 C 
ENDBRANCH  12  14
BRANCH   1  23
ATOM     22  C1  UNL     1      23.541  -6.254 -43.008  0.00  0.00    +0.000 C 
ATOM     23  C2  UNL     1      23.474  -7.538 -43.866  0.00  0.00    +0.000 C 
ATOM     24  C3  UNL     1      24.416  -7.366 -45.079  0.00  0.00    +0.000 C 
BRANCH  23  25
ATOM     25  O1  UNL     1      22.152  -7.738 -44.311  0.00  0.00    +0.000 OA
ATOM     26  H7  UNL     1      21.852  -6.907 -44.764  0.00  0.00    +0.000 HD
ENDBRANCH  23  25
ENDBRANCH   1  23
BRANCH  13  27
ATOM     27  O5  UNL     1      28.557  -9.450 -37.615  0.00  0.00    +0.000 OA
ATOM     28  H20 UNL     1      28.821 -10.409 -37.426  0.00  0.00    +0.000 HD
ENDBRANCH  13  27
TORSDOF 4
ENDMDL
MODEL 6
REMARK VINA RESULT:    -5.766      4.253      9.703
REMARK INTER + INTRA:          -7.460
REMARK INTER:                  -6.731
REMARK INTRA:                  -0.729
REMARK UNBOUND:                -0.684
REMARK  Name = resultss/4CJN/ligands/lig_262_t2.pdb
REMARK  6 active torsions:
REMARK  status: ('A' for Active; 'I' for Inactive)
REMARK    1  A    between atoms: C1_1  and  C2_2
REMARK    2  A    between atoms: C2_2  and  C3_3
REMARK    3  A    between atoms: C2_2  and  O1_4
REMARK    4  A    between atoms: C2_2  and  C4_5
REMARK    5  A    between atoms: C14_16  and  C15_17
REMARK    6  A    between atoms: C21_25  and  O5_26
REMARK                            x       y       z     vdW  Elec       q    Type
REMARK                         _______ _______ _______ _____ _____    ______ ____
ROOT
ATOM      1  C4  UNL     1      27.138 -10.649 -40.763  0.00  0.00    +0.000 C 
ATOM      2  C5  UNL     1      28.559 -10.339 -41.180  0.00  0.00    +0.000 C 
ATOM      3  C6  UNL     1      29.319 -10.091 -40.132  0.00  0.00    +0.000 A 
ATOM      4  C7  UNL     1      30.700  -9.797 -40.132  0.00  0.00    +0.000 A 
ATOM      5  C8  UNL     1      31.351  -9.566 -38.900  0.00  0.00    +0.000 A 
ATOM      6  C9  UNL     1      30.583  -9.640 -37.727  0.00  0.00    +0.000 A 
ATOM      7  C10 UNL     1      29.241  -9.933 -37.752  0.00  0.00    +0.000 A 
ATOM      8  C11 UNL     1      28.596 -10.163 -38.962  0.00  0.00    +0.000 A 
ATOM      9  C12 UNL     1      27.170 -10.481 -39.215  0.00  0.00    +0.000 C 
ATOM     10  O2  UNL     1      28.738  -9.956 -36.540  0.00  0.00    +0.000 OA
ATOM     11  C13 UNL     1      29.715  -9.678 -35.692  0.00  0.00    +0.000 A 
ATOM     12  C14 UNL     1      29.519  -9.632 -34.365  0.00  0.00    +0.000 C 
ATOM     13  C21 UNL     1      30.906  -9.480 -36.399  0.00  0.00    +0.000 A 
ENDROOT
BRANCH  12  14
ATOM     14  C15 UNL     1      30.550  -9.257 -33.377  0.00  0.00    +0.000 C 
ATOM     15  C16 UNL     1      31.286 -10.364 -32.652  0.00  0.00    +0.000 C 
ATOM     16  C17 UNL     1      32.684  -9.927 -32.184  0.00  0.00    +0.000 C 
ATOM     17  C18 UNL     1      32.621  -8.602 -31.481  0.00  0.00    +0.000 C 
ATOM     18  O3  UNL     1      33.443  -8.327 -30.567  0.00  0.00    +0.000 OA
ATOM     19  C19 UNL     1      31.637  -7.607 -31.928  0.00  0.00    +0.000 C 
ATOM     20  O4  UNL     1      31.637  -6.442 -31.448  0.00  0.00    +0.000 OA
ATOM     21  C20 UNL     1      30.654  -7.984 -32.956  0.00  0.00    +0.000 C 
ENDBRANCH  12  14
BRANCH   1  23
ATOM     22  C1  UNL     1      25.713  -8.545 -40.562  0.00  0.00    +0.000 C 
ATOM     23  C2  UNL     1      26.085  -9.740 -41.469  0.00  0.00    +0.000 C 
ATOM     24  C3  UNL     1      26.672  -9.189 -42.788  0.00  0.00    +0.000 C 
BRANCH  23  25
ATOM     25  O1  UNL     1      24.930 -10.501 -41.741  0.00  0.00    +0.000 OA
ATOM     26  H7  UNL     1      25.199 -11.280 -42.294  0.00  0.00    +0.000 HD
ENDBRANCH  23  25
ENDBRANCH   1  23
BRANCH  13  27
ATOM     27  O5  UNL     1      32.172  -9.219 -35.880  0.00  0.00    +0.000 OA
ATOM     28  H20 UNL     1      32.783  -9.970 -35.583  0.00  0.00    +0.000 HD
ENDBRANCH  13  27
TORSDOF 4
ENDMDL
MODEL 7
REMARK VINA RESULT:    -5.724      3.131      8.866
REMARK INTER + INTRA:          -7.412
REMARK INTER:                  -6.893
REMARK INTRA:                  -0.518
REMARK UNBOUND:                -0.684
REMARK  Name = resultss/4CJN/ligands/lig_262_t2.pdb
REMARK  6 active torsions:
REMARK  status: ('A' for Active; 'I' for Inactive)
REMARK    1  A    between atoms: C1_1  and  C2_2
REMARK    2  A    between atoms: C2_2  and  C3_3
REMARK    3  A    between atoms: C2_2  and  O1_4
REMARK    4  A    between atoms: C2_2  and  C4_5
REMARK    5  A    between atoms: C14_16  and  C15_17
REMARK    6  A    between atoms: C21_25  and  O5_26
REMARK                            x       y       z     vdW  Elec       q    Type
REMARK                         _______ _______ _______ _____ _____    ______ ____
ROOT
ATOM      1  C4  UNL     1      24.914  -9.748 -41.868  0.00  0.00    +0.000 C 
ATOM      2  C5  UNL     1      26.364  -9.661 -42.290  0.00  0.00    +0.000 C 
ATOM      3  C6  UNL     1      27.155  -9.523 -41.245  0.00  0.00    +0.000 A 
ATOM      4  C7  UNL     1      28.565  -9.443 -41.249  0.00  0.00    +0.000 A 
ATOM      5  C8  UNL     1      29.247  -9.302 -40.020  0.00  0.00    +0.000 A 
ATOM      6  C9  UNL     1      28.480  -9.247 -38.846  0.00  0.00    +0.000 A 
ATOM      7  C10 UNL     1      27.109  -9.332 -38.867  0.00  0.00    +0.000 A 
ATOM      8  C11 UNL     1      26.433  -9.473 -40.074  0.00  0.00    +0.000 A 
ATOM      9  C12 UNL     1      24.975  -9.573 -40.322  0.00  0.00    +0.000 C 
ATOM     10  O2  UNL     1      26.611  -9.267 -37.653  0.00  0.00    +0.000 OA
ATOM     11  C13 UNL     1      27.621  -9.133 -36.809  0.00  0.00    +0.000 A 
ATOM     12  C14 UNL     1      27.439  -9.046 -35.483  0.00  0.00    +0.000 C 
ATOM     13  C21 UNL     1      28.827  -9.126 -37.520  0.00  0.00    +0.000 A 
ENDROOT
BRANCH  12  14
ATOM     14  C15 UNL     1      28.517  -8.822 -34.500  0.00  0.00    +0.000 C 
ATOM     15  C16 UNL     1      29.040  -7.413 -34.316  0.00  0.00    +0.000 C 
ATOM     16  C17 UNL     1      29.634  -7.189 -32.916  0.00  0.00    +0.000 C 
ATOM     17  C18 UNL     1      30.576  -8.298 -32.551  0.00  0.00    +0.000 C 
ATOM     18  O3  UNL     1      31.555  -8.077 -31.790  0.00  0.00    +0.000 OA
ATOM     19  C19 UNL     1      30.295  -9.656 -33.036  0.00  0.00    +0.000 C 
ATOM     20  O4  UNL     1      30.991 -10.633 -32.649  0.00  0.00    +0.000 OA
ATOM     21  C20 UNL     1      29.179  -9.866 -33.971  0.00  0.00    +0.000 C 
ENDBRANCH  12  14
BRANCH   1  23
ATOM     22  C1  UNL     1      23.725  -7.505 -41.638  0.00  0.00    +0.000 C 
ATOM     23  C2  UNL     1      24.009  -8.696 -42.582  0.00  0.00    +0.000 C 
ATOM     24  C3  UNL     1      24.727  -8.161 -43.842  0.00  0.00    +0.000 C 
BRANCH  23  25
ATOM     25  O1  UNL     1      22.794  -9.307 -42.947  0.00  0.00    +0.000 OA
ATOM     26  H7  UNL     1      22.414  -8.801 -43.713  0.00  0.00    +0.000 HD
ENDBRANCH  23  25
ENDBRANCH   1  23
BRANCH  13  27
ATOM     27  O5  UNL     1      30.119  -9.056 -37.004  0.00  0.00    +0.000 OA
ATOM     28  H20 UNL     1      30.860  -9.646 -37.361  0.00  0.00    +0.000 HD
ENDBRANCH  13  27
TORSDOF 4
ENDMDL
MODEL 8
REMARK VINA RESULT:    -5.638      4.650      9.354
REMARK INTER + INTRA:          -7.311
REMARK INTER:                  -6.620
REMARK INTRA:                  -0.691
REMARK UNBOUND:                -0.684
REMARK  Name = resultss/4CJN/ligands/lig_262_t2.pdb
REMARK  6 active torsions:
REMARK  status: ('A' for Active; 'I' for Inactive)
REMARK    1  A    between atoms: C1_1  and  C2_2
REMARK    2  A    between atoms: C2_2  and  C3_3
REMARK    3  A    between atoms: C2_2  and  O1_4
REMARK    4  A    between atoms: C2_2  and  C4_5
REMARK    5  A    between atoms: C14_16  and  C15_17
REMARK    6  A    between atoms: C21_25  and  O5_26
REMARK                            x       y       z     vdW  Elec       q    Type
REMARK                         _______ _______ _______ _____ _____    ______ ____
ROOT
ATOM      1  C4  UNL     1      18.943  -6.197 -46.387  0.00  0.00    +0.000 C 
ATOM      2  C5  UNL     1      18.485  -5.969 -44.964  0.00  0.00    +0.000 C 
ATOM      3  C6  UNL     1      19.446  -6.248 -44.106  0.00  0.00    +0.000 A 
ATOM      4  C7  UNL     1      19.395  -6.123 -42.700  0.00  0.00    +0.000 A 
ATOM      5  C8  UNL     1      20.536  -6.465 -41.940  0.00  0.00    +0.000 A 
ATOM      6  C9  UNL     1      21.673  -6.917 -42.629  0.00  0.00    +0.000 A 
ATOM      7  C10 UNL     1      21.699  -7.025 -43.998  0.00  0.00    +0.000 A 
ATOM      8  C11 UNL     1      20.580  -6.688 -44.751  0.00  0.00    +0.000 A 
ATOM      9  C12 UNL     1      20.393  -6.739 -46.220  0.00  0.00    +0.000 C 
ATOM     10  O2  UNL     1      22.866  -7.458 -44.416  0.00  0.00    +0.000 OA
ATOM     11  C13 UNL     1      23.630  -7.652 -43.353  0.00  0.00    +0.000 A 
ATOM     12  C14 UNL     1      24.894  -8.090 -43.451  0.00  0.00    +0.000 C 
ATOM     13  C21 UNL     1      22.918  -7.312 -42.197  0.00  0.00    +0.000 A 
ENDROOT
BRANCH  12  14
ATOM     14  C15 UNL     1      25.769  -8.394 -42.301  0.00  0.00    +0.000 C 
ATOM     15  C16 UNL     1      26.723  -7.320 -41.822  0.00  0.00    +0.000 C 
ATOM     16  C17 UNL     1      27.077  -7.474 -40.334  0.00  0.00    +0.000 C 
ATOM     17  C18 UNL     1      27.462  -8.890 -40.020  0.00  0.00    +0.000 C 
ATOM     18  O3  UNL     1      28.288  -9.137 -39.102  0.00  0.00    +0.000 OA
ATOM     19  C19 UNL     1      26.805  -9.983 -40.751  0.00  0.00    +0.000 C 
ATOM     20  O4  UNL     1      27.009 -11.184 -40.430  0.00  0.00    +0.000 OA
ATOM     21  C20 UNL     1      25.892  -9.657 -41.857  0.00  0.00    +0.000 C 
ENDBRANCH  12  14
BRANCH   1  23
ATOM     22  C1  UNL     1      16.528  -6.900 -46.800  0.00  0.00    +0.000 C 
ATOM     23  C2  UNL     1      18.003  -7.158 -47.181  0.00  0.00    +0.000 C 
ATOM     24  C3  UNL     1      18.168  -6.911 -48.698  0.00  0.00    +0.000 C 
BRANCH  23  25
ATOM     25  O1  UNL     1      18.343  -8.490 -46.874  0.00  0.00    +0.000 OA
ATOM     26  H7  UNL     1      18.708  -8.509 -45.951  0.00  0.00    +0.000 HD
ENDBRANCH  23  25
ENDBRANCH   1  23
BRANCH  13  27
ATOM     27  O5  UNL     1      23.375  -7.323 -40.882  0.00  0.00    +0.000 OA
ATOM     28  H20 UNL     1      23.242  -6.525 -40.273  0.00  0.00    +0.000 HD
ENDBRANCH  13  27
TORSDOF 4
ENDMDL
MODEL 9
REMARK VINA RESULT:    -5.284      3.107      4.617
REMARK INTER + INTRA:          -6.895
REMARK INTER:                  -6.457
REMARK INTRA:                  -0.438
REMARK UNBOUND:                -0.684
REMARK  Name = resultss/4CJN/ligands/lig_262_t2.pdb
REMARK  6 active torsions:
REMARK  status: ('A' for Active; 'I' for Inactive)
REMARK    1  A    between atoms: C1_1  and  C2_2
REMARK    2  A    between atoms: C2_2  and  C3_3
REMARK    3  A    between atoms: C2_2  and  O1_4
REMARK    4  A    between atoms: C2_2  and  C4_5
REMARK    5  A    between atoms: C14_16  and  C15_17
REMARK    6  A    between atoms: C21_25  and  O5_26
REMARK                            x       y       z     vdW  Elec       q    Type
REMARK                         _______ _______ _______ _____ _____    ______ ____
ROOT
ATOM      1  C4  UNL     1      30.820  -9.661 -33.867  0.00  0.00    +0.000 C 
ATOM      2  C5  UNL     1      29.379  -9.779 -33.421  0.00  0.00    +0.000 C 
ATOM      3  C6  UNL     1      28.553  -9.601 -34.432  0.00  0.00    +0.000 A 
ATOM      4  C7  UNL     1      27.143  -9.671 -34.401  0.00  0.00    +0.000 A 
ATOM      5  C8  UNL     1      26.420  -9.457 -35.596  0.00  0.00    +0.000 A 
ATOM      6  C9  UNL     1      27.149  -9.182 -36.764  0.00  0.00    +0.000 A 
ATOM      7  C10 UNL     1      28.522  -9.124 -36.769  0.00  0.00    +0.000 A 
ATOM      8  C11 UNL     1      29.238  -9.336 -35.597  0.00  0.00    +0.000 A 
ATOM      9  C12 UNL     1      30.703  -9.310 -35.379  0.00  0.00    +0.000 C 
ATOM     10  O2  UNL     1      28.980  -8.863 -37.972  0.00  0.00    +0.000 OA
ATOM     11  C13 UNL     1      27.942  -8.736 -38.782  0.00  0.00    +0.000 A 
ATOM     12  C14 UNL     1      28.082  -8.473 -40.089  0.00  0.00    +0.000 C 
ATOM     13  C21 UNL     1      26.759  -8.941 -38.061  0.00  0.00    +0.000 A 
ENDROOT
BRANCH  12  14
ATOM     14  C15 UNL     1      26.963  -8.249 -41.026  0.00  0.00    +0.000 C 
ATOM     15  C16 UNL     1      26.338  -6.870 -41.080  0.00  0.00    +0.000 C 
ATOM     16  C17 UNL     1      25.690  -6.577 -42.443  0.00  0.00    +0.000 C 
ATOM     17  C18 UNL     1      24.816  -7.718 -42.876  0.00  0.00    +0.000 C 
ATOM     18  O3  UNL     1      23.803  -7.506 -43.594  0.00  0.00    +0.000 OA
ATOM     19  C19 UNL     1      25.205  -9.087 -42.512  0.00  0.00    +0.000 C 
ATOM     20  O4  UNL     1      24.568 -10.077 -42.962  0.00  0.00    +0.000 OA
ATOM     21  C20 UNL     1      26.359  -9.291 -41.623  0.00  0.00    +0.000 C 
ENDBRANCH  12  14
BRANCH   1  23
ATOM     22  C1  UNL     1      30.666  -7.657 -32.300  0.00  0.00    +0.000 C 
ATOM     23  C2  UNL     1      31.628  -8.612 -33.041  0.00  0.00    +0.000 C 
ATOM     24  C3  UNL     1      32.503  -9.336 -31.993  0.00  0.00    +0.000 C 
BRANCH  23  25
ATOM     25  O1  UNL     1      32.446  -7.870 -33.916  0.00  0.00    +0.000 OA
ATOM     26  H7  UNL     1      33.376  -7.904 -33.571  0.00  0.00    +0.000 HD
ENDBRANCH  23  25
ENDBRANCH   1  23
BRANCH  13  27
ATOM     27  O5  UNL     1      25.455  -8.946 -38.549  0.00  0.00    +0.000 OA
ATOM     28  H20 UNL     1      24.969  -9.814 -38.742  0.00  0.00    +0.000 HD
ENDBRANCH  13  27
TORSDOF 4
ENDMDL
