MODEL 1
REMARK VINA RESULT:    -5.521      0.000      0.000
REMARK INTER + INTRA:          -5.844
REMARK INTER:                  -5.844
REMARK INTRA:                   0.000
REMARK UNBOUND:                 0.000
REMARK  Name = resultss/4CJN/ligands/lig_326_t1.pdb
REMARK  2 active torsions:
REMARK  status: ('A' for Active; 'I' for Inactive)
REMARK    1  A    between atoms: C9_13  and  O5_14
REMARK    2  A    between atoms: C12_17  and  O6_18
REMARK                            x       y       z     vdW  Elec       q    Type
REMARK                         _______ _______ _______ _____ _____    ______ ____
ROOT
ATOM      1  O1  UNL     1      26.579  -9.918 -35.016  0.00  0.00    +0.000 OA
ATOM      2  C1  UNL     1      25.887  -9.239 -35.819  0.00  0.00    +0.000 A 
ATOM      3  C2  UNL     1      26.205  -9.262 -37.195  0.00  0.00    +0.000 A 
ATOM      4  C3  UNL     1      27.383 -10.012 -37.728  0.00  0.00    +0.000 C 
ATOM      5  O2  UNL     1      28.188 -10.585 -36.944  0.00  0.00    +0.000 OA
ATOM      6  C4  UNL     1      27.675 -10.067 -39.201  0.00  0.00    +0.000 C 
ATOM      7  C5  UNL     1      26.472  -9.681 -40.007  0.00  0.00    +0.000 C 
ATOM      8  O3  UNL     1      26.235 -10.246 -41.064  0.00  0.00    +0.000 OA
ATOM      9  C6  UNL     1      25.627  -8.525 -39.564  0.00  0.00    +0.000 C 
ATOM     10  C7  UNL     1      25.353  -8.578 -38.086  0.00  0.00    +0.000 A 
ATOM     11  O4  UNL     1      24.287  -7.934 -37.632  0.00  0.00    +0.000 OA
ATOM     12  C8  UNL     1      23.960  -7.876 -36.348  0.00  0.00    +0.000 A 
ATOM     13  C9  UNL     1      22.790  -7.196 -35.985  0.00  0.00    +0.000 A 
ATOM     14  C10 UNL     1      22.409  -7.129 -34.644  0.00  0.00    +0.000 A 
ATOM     15  C11 UNL     1      23.206  -7.707 -33.660  0.00  0.00    +0.000 A 
ATOM     16  C12 UNL     1      24.401  -8.356 -33.991  0.00  0.00    +0.000 A 
ATOM     17  C13 UNL     1      24.772  -8.493 -35.362  0.00  0.00    +0.000 A 
ENDROOT
BRANCH  13  18
ATOM     18  O5  UNL     1      22.004  -6.597 -36.970  0.00  0.00    +0.000 OA
ATOM     19  H5  UNL     1      21.837  -7.049 -37.861  0.00  0.00    +0.000 HD
ENDBRANCH  13  18
BRANCH  16  20
ATOM     20  O6  UNL     1      25.180  -8.810 -32.922  0.00  0.00    +0.000 OA
ATOM     21  H8  UNL     1      24.935  -9.585 -32.323  0.00  0.00    +0.000 HD
ENDBRANCH  16  20
TORSDOF 2
ENDMDL
MODEL 2
REMARK VINA RESULT:    -5.392      1.302      2.069
REMARK INTER + INTRA:          -5.707
REMARK INTER:                  -5.707
REMARK INTRA:                   0.000
REMARK UNBOUND:                 0.000
REMARK  Name = resultss/4CJN/ligands/lig_326_t1.pdb
REMARK  2 active torsions:
REMARK  status: ('A' for Active; 'I' for Inactive)
REMARK    1  A    between atoms: C9_13  and  O5_14
REMARK    2  A    between atoms: C12_17  and  O6_18
REMARK                            x       y       z     vdW  Elec       q    Type
REMARK                         _______ _______ _______ _____ _____    ______ ____
ROOT
ATOM      1  O1  UNL     1      27.911 -10.451 -37.299  0.00  0.00    +0.000 OA
ATOM      2  C1  UNL     1      26.925  -9.727 -37.598  0.00  0.00    +0.000 A 
ATOM      3  C2  UNL     1      26.625  -9.497 -38.958  0.00  0.00    +0.000 A 
ATOM      4  C3  UNL     1      27.480 -10.027 -40.064  0.00  0.00    +0.000 C 
ATOM      5  O2  UNL     1      28.556 -10.632 -39.809  0.00  0.00    +0.000 OA
ATOM      6  C4  UNL     1      27.115  -9.816 -41.506  0.00  0.00    +0.000 C 
ATOM      7  C5  UNL     1      25.673  -9.431 -41.650  0.00  0.00    +0.000 C 
ATOM      8  O3  UNL     1      25.022  -9.841 -42.598  0.00  0.00    +0.000 OA
ATOM      9  C6  UNL     1      25.071  -8.453 -40.687  0.00  0.00    +0.000 C 
ATOM     10  C7  UNL     1      25.457  -8.770 -39.268  0.00  0.00    +0.000 A 
ATOM     11  O4  UNL     1      24.672  -8.319 -38.300  0.00  0.00    +0.000 OA
ATOM     12  C8  UNL     1      24.924  -8.501 -37.010  0.00  0.00    +0.000 A 
ATOM     13  C9  UNL     1      24.005  -8.011 -36.072  0.00  0.00    +0.000 A 
ATOM     14  C10 UNL     1      24.233  -8.199 -34.708  0.00  0.00    +0.000 A 
ATOM     15  C11 UNL     1      25.388  -8.841 -34.273  0.00  0.00    +0.000 A 
ATOM     16  C12 UNL     1      26.343  -9.304 -35.187  0.00  0.00    +0.000 A 
ATOM     17  C13 UNL     1      26.095  -9.181 -36.587  0.00  0.00    +0.000 A 
ENDROOT
BRANCH  13  18
ATOM     18  O5  UNL     1      22.860  -7.346 -36.509  0.00  0.00    +0.000 OA
ATOM     19  H5  UNL     1      21.955  -7.802 -36.522  0.00  0.00    +0.000 HD
ENDBRANCH  13  18
BRANCH  16  20
ATOM     20  O6  UNL     1      27.515  -9.841 -34.645  0.00  0.00    +0.000 OA
ATOM     21  H8  UNL     1      28.186  -9.319 -34.101  0.00  0.00    +0.000 HD
ENDBRANCH  16  20
TORSDOF 2
ENDMDL
MODEL 3
REMARK VINA RESULT:    -5.383      2.578      4.638
REMARK INTER + INTRA:          -5.698
REMARK INTER:                  -5.698
REMARK INTRA:                   0.000
REMARK UNBOUND:                 0.000
REMARK  Name = resultss/4CJN/ligands/lig_326_t1.pdb
REMARK  2 active torsions:
REMARK  status: ('A' for Active; 'I' for Inactive)
REMARK    1  A    between atoms: C9_13  and  O5_14
REMARK    2  A    between atoms: C12_17  and  O6_18
REMARK                            x       y       z     vdW  Elec       q    Type
REMARK                         _______ _______ _______ _____ _____    ______ ____
ROOT
ATOM      1  O1  UNL     1      26.555  -9.130 -36.664  0.00  0.00    +0.000 OA
ATOM      2  C1  UNL     1      26.306  -8.710 -35.503  0.00  0.00    +0.000 A 
ATOM      3  C2  UNL     1      27.303  -8.804 -34.507  0.00  0.00    +0.000 A 
ATOM      4  C3  UNL     1      28.626  -9.451 -34.761  0.00  0.00    +0.000 C 
ATOM      5  O2  UNL     1      28.864 -10.015 -35.864  0.00  0.00    +0.000 OA
ATOM      6  C4  UNL     1      29.692  -9.495 -33.704  0.00  0.00    +0.000 C 
ATOM      7  C5  UNL     1      29.425  -8.492 -32.622  0.00  0.00    +0.000 C 
ATOM      8  O3  UNL     1      30.353  -7.896 -32.096  0.00  0.00    +0.000 OA
ATOM      9  C6  UNL     1      28.027  -8.309 -32.115  0.00  0.00    +0.000 C 
ATOM     10  C7  UNL     1      27.037  -8.234 -33.245  0.00  0.00    +0.000 A 
ATOM     11  O4  UNL     1      25.880  -7.630 -33.013  0.00  0.00    +0.000 OA
ATOM     12  C8  UNL     1      24.913  -7.532 -33.916  0.00  0.00    +0.000 A 
ATOM     13  C9  UNL     1      23.744  -6.839 -33.572  0.00  0.00    +0.000 A 
ATOM     14  C10 UNL     1      22.714  -6.704 -34.503  0.00  0.00    +0.000 A 
ATOM     15  C11 UNL     1      22.828  -7.285 -35.763  0.00  0.00    +0.000 A 
ATOM     16  C12 UNL     1      23.967  -8.017 -36.118  0.00  0.00    +0.000 A 
ATOM     17  C13 UNL     1      25.059  -8.109 -35.204  0.00  0.00    +0.000 A 
ENDROOT
BRANCH  13  18
ATOM     18  O5  UNL     1      23.621  -6.278 -32.301  0.00  0.00    +0.000 OA
ATOM     19  H5  UNL     1      23.922  -6.776 -31.471  0.00  0.00    +0.000 HD
ENDBRANCH  13  18
BRANCH  16  20
ATOM     20  O6  UNL     1      23.939  -8.646 -37.366  0.00  0.00    +0.000 OA
ATOM     21  H8  UNL     1      23.235  -8.487 -38.072  0.00  0.00    +0.000 HD
ENDBRANCH  16  20
TORSDOF 2
ENDMDL
MODEL 4
REMARK VINA RESULT:    -5.380      2.706      4.452
REMARK INTER + INTRA:          -5.695
REMARK INTER:                  -5.695
REMARK INTRA:                   0.000
REMARK UNBOUND:                 0.000
REMARK  Name = resultss/4CJN/ligands/lig_326_t1.pdb
REMARK  2 active torsions:
REMARK  status: ('A' for Active; 'I' for Inactive)
REMARK    1  A    between atoms: C9_13  and  O5_14
REMARK    2  A    between atoms: C12_17  and  O6_18
REMARK                            x       y       z     vdW  Elec       q    Type
REMARK                         _______ _______ _______ _____ _____    ______ ____
ROOT
ATOM      1  O1  UNL     1      29.391 -10.345 -39.969  0.00  0.00    +0.000 OA
ATOM      2  C1  UNL     1      28.295  -9.899 -39.536  0.00  0.00    +0.000 A 
ATOM      3  C2  UNL     1      27.275  -9.565 -40.454  0.00  0.00    +0.000 A 
ATOM      4  C3  UNL     1      27.472  -9.657 -41.932  0.00  0.00    +0.000 C 
ATOM      5  O2  UNL     1      28.598  -9.958 -42.413  0.00  0.00    +0.000 OA
ATOM      6  C4  UNL     1      26.357  -9.347 -42.891  0.00  0.00    +0.000 C 
ATOM      7  C5  UNL     1      25.026  -9.376 -42.203  0.00  0.00    +0.000 C 
ATOM      8  O3  UNL     1      24.044  -9.810 -42.786  0.00  0.00    +0.000 OA
ATOM      9  C6  UNL     1      24.887  -8.767 -40.841  0.00  0.00    +0.000 C 
ATOM     10  C7  UNL     1      26.024  -9.167 -39.941  0.00  0.00    +0.000 A 
ATOM     11  O4  UNL     1      25.824  -9.110 -38.632  0.00  0.00    +0.000 OA
ATOM     12  C8  UNL     1      26.758  -9.401 -37.736  0.00  0.00    +0.000 A 
ATOM     13  C9  UNL     1      26.424  -9.341 -36.376  0.00  0.00    +0.000 A 
ATOM     14  C10 UNL     1      27.379  -9.656 -35.409  0.00  0.00    +0.000 A 
ATOM     15  C11 UNL     1      28.674  -9.996 -35.788  0.00  0.00    +0.000 A 
ATOM     16  C12 UNL     1      29.046 -10.024 -37.138  0.00  0.00    +0.000 A 
ATOM     17  C13 UNL     1      28.066  -9.771 -38.144  0.00  0.00    +0.000 A 
ENDROOT
BRANCH  13  18
ATOM     18  O5  UNL     1      25.133  -8.975 -35.997  0.00  0.00    +0.000 OA
ATOM     19  H5  UNL     1      24.950  -8.106 -35.510  0.00  0.00    +0.000 HD
ENDBRANCH  13  18
BRANCH  16  20
ATOM     20  O6  UNL     1      30.394 -10.276 -37.407  0.00  0.00    +0.000 OA
ATOM     21  H8  UNL     1      30.927 -11.035 -37.007  0.00  0.00    +0.000 HD
ENDBRANCH  16  20
TORSDOF 2
ENDMDL
MODEL 5
REMARK VINA RESULT:    -5.296      3.027      5.192
REMARK INTER + INTRA:          -5.605
REMARK INTER:                  -5.605
REMARK INTRA:                   0.000
REMARK UNBOUND:                 0.000
REMARK  Name = resultss/4CJN/ligands/lig_326_t1.pdb
REMARK  2 active torsions:
REMARK  status: ('A' for Active; 'I' for Inactive)
REMARK    1  A    between atoms: C9_13  and  O5_14
REMARK    2  A    between atoms: C12_17  and  O6_18
REMARK                            x       y       z     vdW  Elec       q    Type
REMARK                         _______ _______ _______ _____ _____    ______ ____
ROOT
ATOM      1  O1  UNL     1      24.910  -8.945 -38.658  0.00  0.00    +0.000 OA
ATOM      2  C1  UNL     1      26.048  -9.266 -39.090  0.00  0.00    +0.000 A 
ATOM      3  C2  UNL     1      26.280  -9.277 -40.483  0.00  0.00    +0.000 A 
ATOM      4  C3  UNL     1      25.198  -8.987 -41.473  0.00  0.00    +0.000 C 
ATOM      5  O2  UNL     1      24.010  -8.805 -41.091  0.00  0.00    +0.000 OA
ATOM      6  C4  UNL     1      25.477  -8.953 -42.949  0.00  0.00    +0.000 C 
ATOM      7  C5  UNL     1      26.944  -8.813 -43.221  0.00  0.00    +0.000 C 
ATOM      8  O3  UNL     1      27.331  -8.136 -44.162  0.00  0.00    +0.000 OA
ATOM      9  C6  UNL     1      27.924  -9.598 -42.403  0.00  0.00    +0.000 C 
ATOM     10  C7  UNL     1      27.589  -9.539 -40.938  0.00  0.00    +0.000 A 
ATOM     11  O4  UNL     1      28.565  -9.768 -40.071  0.00  0.00    +0.000 OA
ATOM     12  C8  UNL     1      28.389  -9.781 -38.756  0.00  0.00    +0.000 A 
ATOM     13  C9  UNL     1      29.501  -9.998 -37.933  0.00  0.00    +0.000 A 
ATOM     14  C10 UNL     1      29.352 -10.002 -36.546  0.00  0.00    +0.000 A 
ATOM     15  C11 UNL     1      28.095  -9.825 -35.976  0.00  0.00    +0.000 A 
ATOM     16  C12 UNL     1      26.960  -9.646 -36.776  0.00  0.00    +0.000 A 
ATOM     17  C13 UNL     1      27.103  -9.572 -38.194  0.00  0.00    +0.000 A 
ENDROOT
BRANCH  13  18
ATOM     18  O5  UNL     1      30.756 -10.200 -38.507  0.00  0.00    +0.000 OA
ATOM     19  H5  UNL     1      31.561  -9.649 -38.228  0.00  0.00    +0.000 HD
ENDBRANCH  13  18
BRANCH  16  20
ATOM     20  O6  UNL     1      25.732  -9.582 -36.110  0.00  0.00    +0.000 OA
ATOM     21  H8  UNL     1      24.847  -9.392 -36.557  0.00  0.00    +0.000 HD
ENDBRANCH  16  20
TORSDOF 2
ENDMDL
MODEL 6
REMARK VINA RESULT:    -5.227      2.314      5.852
REMARK INTER + INTRA:          -5.533
REMARK INTER:                  -5.533
REMARK INTRA:                   0.000
REMARK UNBOUND:                 0.000
REMARK  Name = resultss/4CJN/ligands/lig_326_t1.pdb
REMARK  2 active torsions:
REMARK  status: ('A' for Active; 'I' for Inactive)
REMARK    1  A    between atoms: C9_13  and  O5_14
REMARK    2  A    between atoms: C12_17  and  O6_18
REMARK                            x       y       z     vdW  Elec       q    Type
REMARK                         _______ _______ _______ _____ _____    ______ ____
ROOT
ATOM      1  O1  UNL     1      24.803  -8.605 -37.220  0.00  0.00    +0.000 OA
ATOM      2  C1  UNL     1      25.997  -8.919 -37.471  0.00  0.00    +0.000 A 
ATOM      3  C2  UNL     1      26.932  -8.979 -36.414  0.00  0.00    +0.000 A 
ATOM      4  C3  UNL     1      26.572  -8.612 -35.010  0.00  0.00    +0.000 C 
ATOM      5  O2  UNL     1      25.430  -8.151 -34.739  0.00  0.00    +0.000 OA
ATOM      6  C4  UNL     1      27.567  -8.731 -33.890  0.00  0.00    +0.000 C 
ATOM      7  C5  UNL     1      28.713  -9.617 -34.275  0.00  0.00    +0.000 C 
ATOM      8  O3  UNL     1      29.219 -10.359 -33.447  0.00  0.00    +0.000 OA
ATOM      9  C6  UNL     1      29.304  -9.504 -35.648  0.00  0.00    +0.000 C 
ATOM     10  C7  UNL     1      28.234  -9.434 -36.703  0.00  0.00    +0.000 A 
ATOM     11  O4  UNL     1      28.560  -9.791 -37.937  0.00  0.00    +0.000 OA
ATOM     12  C8  UNL     1      27.718  -9.738 -38.961  0.00  0.00    +0.000 A 
ATOM     13  C9  UNL     1      28.160 -10.176 -40.216  0.00  0.00    +0.000 A 
ATOM     14  C10 UNL     1      27.294 -10.148 -41.310  0.00  0.00    +0.000 A 
ATOM     15  C11 UNL     1      26.001  -9.653 -41.166  0.00  0.00    +0.000 A 
ATOM     16  C12 UNL     1      25.547  -9.171 -39.933  0.00  0.00    +0.000 A 
ATOM     17  C13 UNL     1      26.395  -9.255 -38.788  0.00  0.00    +0.000 A 
ENDROOT
BRANCH  13  18
ATOM     18  O5  UNL     1      29.464 -10.649 -40.363  0.00  0.00    +0.000 OA
ATOM     19  H5  UNL     1      29.902 -11.224 -39.653  0.00  0.00    +0.000 HD
ENDBRANCH  13  18
BRANCH  16  20
ATOM     20  O6  UNL     1      24.270  -8.601 -39.920  0.00  0.00    +0.000 OA
ATOM     21  H8  UNL     1      23.641  -8.586 -40.709  0.00  0.00    +0.000 HD
ENDBRANCH  16  20
TORSDOF 2
ENDMDL
MODEL 7
REMARK VINA RESULT:    -5.224      1.567      5.155
REMARK INTER + INTRA:          -5.529
REMARK INTER:                  -5.529
REMARK INTRA:                   0.000
REMARK UNBOUND:                 0.000
REMARK  Name = resultss/4CJN/ligands/lig_326_t1.pdb
REMARK  2 active torsions:
REMARK  status: ('A' for Active; 'I' for Inactive)
REMARK    1  A    between atoms: C9_13  and  O5_14
REMARK    2  A    between atoms: C12_17  and  O6_18
REMARK                            x       y       z     vdW  Elec       q    Type
REMARK                         _______ _______ _______ _____ _____    ______ ____
ROOT
ATOM      1  O1  UNL     1      28.400 -10.171 -37.067  0.00  0.00    +0.000 OA
ATOM      2  C1  UNL     1      27.263  -9.696 -37.330  0.00  0.00    +0.000 A 
ATOM      3  C2  UNL     1      26.439  -9.252 -36.273  0.00  0.00    +0.000 A 
ATOM      4  C3  UNL     1      26.837  -9.391 -34.839  0.00  0.00    +0.000 C 
ATOM      5  O2  UNL     1      27.899  -9.994 -34.523  0.00  0.00    +0.000 OA
ATOM      6  C4  UNL     1      25.969  -8.867 -33.731  0.00  0.00    +0.000 C 
ATOM      7  C5  UNL     1      24.968  -7.878 -34.248  0.00  0.00    +0.000 C 
ATOM      8  O3  UNL     1      24.666  -6.904 -33.575  0.00  0.00    +0.000 OA
ATOM      9  C6  UNL     1      24.262  -8.150 -35.541  0.00  0.00    +0.000 C 
ATOM     10  C7  UNL     1      25.217  -8.629 -36.599  0.00  0.00    +0.000 A 
ATOM     11  O4  UNL     1      24.863  -8.471 -37.867  0.00  0.00    +0.000 OA
ATOM     12  C8  UNL     1      25.601  -8.885 -38.889  0.00  0.00    +0.000 A 
ATOM     13  C9  UNL     1      25.145  -8.632 -40.190  0.00  0.00    +0.000 A 
ATOM     14  C10 UNL     1      25.905  -9.040 -41.287  0.00  0.00    +0.000 A 
ATOM     15  C11 UNL     1      27.099  -9.729 -41.094  0.00  0.00    +0.000 A 
ATOM     16  C12 UNL     1      27.557 -10.030 -39.806  0.00  0.00    +0.000 A 
ATOM     17  C13 UNL     1      26.829  -9.562 -38.672  0.00  0.00    +0.000 A 
ENDROOT
BRANCH  13  18
ATOM     18  O5  UNL     1      23.936  -7.963 -40.381  0.00  0.00    +0.000 OA
ATOM     19  H5  UNL     1      23.908  -6.985 -40.645  0.00  0.00    +0.000 HD
ENDBRANCH  13  18
BRANCH  16  20
ATOM     20  O6  UNL     1      28.712 -10.815 -39.724  0.00  0.00    +0.000 OA
ATOM     21  H8  UNL     1      28.717 -11.813 -39.576  0.00  0.00    +0.000 HD
ENDBRANCH  16  20
TORSDOF 2
ENDMDL
MODEL 8
REMARK VINA RESULT:    -5.186      1.844      6.446
REMARK INTER + INTRA:          -5.489
REMARK INTER:                  -5.489
REMARK INTRA:                   0.000
REMARK UNBOUND:                 0.000
REMARK  Name = resultss/4CJN/ligands/lig_326_t1.pdb
REMARK  2 active torsions:
REMARK  status: ('A' for Active; 'I' for Inactive)
REMARK    1  A    between atoms: C9_13  and  O5_14
REMARK    2  A    between atoms: C12_17  and  O6_18
REMARK                            x       y       z     vdW  Elec       q    Type
REMARK                         _______ _______ _______ _____ _____    ______ ____
ROOT
ATOM      1  O1  UNL     1      24.637  -8.237 -39.738  0.00  0.00    +0.000 OA
ATOM      2  C1  UNL     1      25.770  -8.678 -39.413  0.00  0.00    +0.000 A 
ATOM      3  C2  UNL     1      26.077  -8.852 -38.046  0.00  0.00    +0.000 A 
ATOM      4  C3  UNL     1      25.126  -8.464 -36.960  0.00  0.00    +0.000 C 
ATOM      5  O2  UNL     1      24.041  -7.883 -37.234  0.00  0.00    +0.000 OA
ATOM      6  C4  UNL     1      25.450  -8.705 -35.512  0.00  0.00    +0.000 C 
ATOM      7  C5  UNL     1      26.554  -9.707 -35.363  0.00  0.00    +0.000 C 
ATOM      8  O3  UNL     1      26.533 -10.510 -34.442  0.00  0.00    +0.000 OA
ATOM      9  C6  UNL     1      27.736  -9.645 -36.282  0.00  0.00    +0.000 C 
ATOM     10  C7  UNL     1      27.312  -9.445 -37.711  0.00  0.00    +0.000 A 
ATOM     11  O4  UNL     1      28.153  -9.822 -38.663  0.00  0.00    +0.000 OA
ATOM     12  C8  UNL     1      27.911  -9.665 -39.958  0.00  0.00    +0.000 A 
ATOM     13  C9  UNL     1      28.857 -10.135 -40.879  0.00  0.00    +0.000 A 
ATOM     14  C10 UNL     1      28.625  -9.999 -42.248  0.00  0.00    +0.000 A 
ATOM     15  C11 UNL     1      27.472  -9.367 -42.703  0.00  0.00    +0.000 A 
ATOM     16  C12 UNL     1      26.530  -8.851 -41.805  0.00  0.00    +0.000 A 
ATOM     17  C13 UNL     1      26.717  -9.041 -40.403  0.00  0.00    +0.000 A 
ENDROOT
BRANCH  13  18
ATOM     18  O5  UNL     1      30.023 -10.747 -40.420  0.00  0.00    +0.000 OA
ATOM     19  H5  UNL     1      30.914 -10.264 -40.430  0.00  0.00    +0.000 HD
ENDBRANCH  13  18
BRANCH  16  20
ATOM     20  O6  UNL     1      25.460  -8.144 -42.362  0.00  0.00    +0.000 OA
ATOM     21  H8  UNL     1      24.668  -8.570 -42.819  0.00  0.00    +0.000 HD
ENDBRANCH  16  20
TORSDOF 2
ENDMDL
MODEL 9
REMARK VINA RESULT:    -5.124      2.323      5.497
REMARK INTER + INTRA:          -5.423
REMARK INTER:                  -5.423
REMARK INTRA:                   0.000
REMARK UNBOUND:                 0.000
REMARK  Name = resultss/4CJN/ligands/lig_326_t1.pdb
REMARK  2 active torsions:
REMARK  status: ('A' for Active; 'I' for Inactive)
REMARK    1  A    between atoms: C9_13  and  O5_14
REMARK    2  A    between atoms: C12_17  and  O6_18
REMARK                            x       y       z     vdW  Elec       q    Type
REMARK                         _______ _______ _______ _____ _____    ______ ____
ROOT
ATOM      1  O1  UNL     1      29.802  -9.997 -37.727  0.00  0.00    +0.000 OA
ATOM      2  C1  UNL     1      28.552  -9.847 -37.681  0.00  0.00    +0.000 A 
ATOM      3  C2  UNL     1      27.931  -9.605 -36.437  0.00  0.00    +0.000 A 
ATOM      4  C3  UNL     1      28.697  -9.588 -35.153  0.00  0.00    +0.000 C 
ATOM      5  O2  UNL     1      29.924  -9.879 -35.134  0.00  0.00    +0.000 OA
ATOM      6  C4  UNL     1      28.027  -9.277 -33.845  0.00  0.00    +0.000 C 
ATOM      7  C5  UNL     1      26.705  -8.605 -34.060  0.00  0.00    +0.000 C 
ATOM      8  O3  UNL     1      26.334  -7.725 -33.297  0.00  0.00    +0.000 OA
ATOM      9  C6  UNL     1      25.795  -9.095 -35.145  0.00  0.00    +0.000 C 
ATOM     10  C7  UNL     1      26.547  -9.338 -36.425  0.00  0.00    +0.000 A 
ATOM     11  O4  UNL     1      25.859  -9.319 -37.558  0.00  0.00    +0.000 OA
ATOM     12  C8  UNL     1      26.400  -9.554 -38.746  0.00  0.00    +0.000 A 
ATOM     13  C9  UNL     1      25.584  -9.472 -39.882  0.00  0.00    +0.000 A 
ATOM     14  C10 UNL     1      26.125  -9.699 -41.148  0.00  0.00    +0.000 A 
ATOM     15  C11 UNL     1      27.467 -10.041 -41.284  0.00  0.00    +0.000 A 
ATOM     16  C12 UNL     1      28.295 -10.170 -40.163  0.00  0.00    +0.000 A 
ATOM     17  C13 UNL     1      27.776  -9.876 -38.867  0.00  0.00    +0.000 A 
ENDROOT
BRANCH  13  18
ATOM     18  O5  UNL     1      24.233  -9.153 -39.741  0.00  0.00    +0.000 OA
ATOM     19  H5  UNL     1      23.689  -9.487 -38.954  0.00  0.00    +0.000 HD
ENDBRANCH  13  18
BRANCH  16  20
ATOM     20  O6  UNL     1      29.598 -10.619 -40.400  0.00  0.00    +0.000 OA
ATOM     21  H8  UNL     1      30.021 -11.416 -39.948  0.00  0.00    +0.000 HD
ENDBRANCH  16  20
TORSDOF 2
ENDMDL
