MODEL 1
REMARK VINA RESULT:    -7.152      0.000      0.000
REMARK INTER + INTRA:         -13.957
REMARK INTER:                 -11.961
REMARK INTRA:                  -1.996
REMARK UNBOUND:                -1.996
REMARK  Name = resultss/4CJN/ligands/lig_337_t2.pdb
REMARK  13 active torsions:
REMARK  status: ('A' for Active; 'I' for Inactive)
REMARK    1  A    between atoms: C1_1  and  O1_2
REMARK    2  A    between atoms: O1_2  and  C2_3
REMARK    3  A    between atoms: C4_5  and  C5_6
REMARK    4  A    between atoms: C12_14  and  O2_15
REMARK    5  A    between atoms: N2_16  and  N3_17
REMARK    6  A    between atoms: N3_17  and  C13_18
REMARK    7  A    between atoms: C21_26  and  O3_27
REMARK    8  A    between atoms: O3_27  and  C22_28
REMARK    9  A    between atoms: C22_28  and  C23_29
REMARK   10  A    between atoms: N4_31  and  C25_32
REMARK   11  A    between atoms: C25_32  and  C26_33
REMARK   12  A    between atoms: N5_35  and  C27_36
REMARK   13  A    between atoms: C30_39  and  N6_40
REMARK                            x       y       z     vdW  Elec       q    Type
REMARK                         _______ _______ _______ _____ _____    ______ ____
ROOT
ATOM      1  C2  UNL     1      26.605  -8.809 -36.845  0.00  0.00    +0.000 A 
ATOM      2  C3  UNL     1      27.339  -8.054 -35.908  0.00  0.00    +0.000 A 
ATOM      3  C4  UNL     1      27.047  -6.694 -35.703  0.00  0.00    +0.000 A 
ATOM      4  C19 UNL     1      25.987  -6.100 -36.412  0.00  0.00    +0.000 A 
ATOM      5  C20 UNL     1      25.249  -6.848 -37.333  0.00  0.00    +0.000 A 
ATOM      6  C21 UNL     1      25.561  -8.197 -37.559  0.00  0.00    +0.000 A 
ENDROOT
BRANCH   3   7
ATOM      7  C5  UNL     1      27.855  -5.883 -34.717  0.00  0.00    +0.000 C 
ATOM      8  N1  UNL     1      29.278  -6.124 -34.939  0.00  0.00    +0.000 NA
ATOM      9  C6  UNL     1      30.098  -6.656 -34.078  0.00  0.00    +0.000 A 
ATOM     10  C7  UNL     1      31.438  -6.819 -34.455  0.00  0.00    +0.000 A 
ATOM     11  C8  UNL     1      32.362  -7.376 -33.570  0.00  0.00    +0.000 A 
ATOM     12  C9  UNL     1      31.953  -7.785 -32.301  0.00  0.00    +0.000 A 
ATOM     13  C10 UNL     1      30.617  -7.633 -31.907  0.00  0.00    +0.000 A 
ATOM     14  C11 UNL     1      29.663  -7.058 -32.786  0.00  0.00    +0.000 A 
ATOM     15  C12 UNL     1      28.368  -6.867 -32.430  0.00  0.00    +0.000 C 
ATOM     16  N2  UNL     1      27.463  -6.222 -33.344  0.00  0.00    +0.000 N 
BRANCH  15  17
ATOM     17  O2  UNL     1      27.861  -7.240 -31.177  0.00  0.00    +0.000 OA
ATOM     18  H10 UNL     1      28.056  -6.792 -30.295  0.00  0.00    +0.000 HD
ENDBRANCH  15  17
BRANCH  16  19
ATOM     19  N3  UNL     1      26.126  -6.021 -32.951  0.00  0.00    +0.000 N 
ATOM     20  H11 UNL     1      25.862  -5.089 -32.541  0.00  0.00    +0.000 HD
BRANCH  19  21
ATOM     21  C13 UNL     1      25.104  -6.997 -33.203  0.00  0.00    +0.000 A 
ATOM     22  C14 UNL     1      23.810  -6.575 -33.538  0.00  0.00    +0.000 A 
ATOM     23  C15 UNL     1      22.814  -7.514 -33.833  0.00  0.00    +0.000 A 
ATOM     24  C16 UNL     1      23.109  -8.878 -33.805  0.00  0.00    +0.000 A 
ATOM     25  C17 UNL     1      24.401  -9.308 -33.485  0.00  0.00    +0.000 A 
ATOM     26  C18 UNL     1      25.397  -8.372 -33.187  0.00  0.00    +0.000 A 
ENDBRANCH  19  21
ENDBRANCH  16  19
ENDBRANCH   3   7
BRANCH   1  28
ATOM     27  C1  UNL     1      28.157 -10.705 -37.369  0.00  0.00    +0.000 C 
ATOM     28  O1  UNL     1      26.869 -10.167 -37.081  0.00  0.00    +0.000 OA
ENDBRANCH   1  28
BRANCH   6  29
ATOM     29  O3  UNL     1      24.839  -8.934 -38.503  0.00  0.00    +0.000 OA
BRANCH  29  30
ATOM     30  C22 UNL     1      25.020  -8.752 -39.909  0.00  0.00    +0.000 C 
BRANCH  30  31
ATOM     31  C23 UNL     1      26.371  -9.248 -40.314  0.00  0.00    +0.000 A 
ATOM     32  C24 UNL     1      27.553  -8.542 -40.270  0.00  0.00    +0.000 A 
ATOM     33  N4  UNL     1      28.507  -9.399 -40.667  0.00  0.00    +0.000 N 
ATOM     34  N7  UNL     1      27.952 -10.578 -40.897  0.00  0.00    +0.000 NA
ATOM     35  N8  UNL     1      26.645 -10.519 -40.682  0.00  0.00    +0.000 NA
BRANCH  33  36
ATOM     36  C25 UNL     1      29.936  -9.134 -40.754  0.00  0.00    +0.000 C 
BRANCH  36  37
ATOM     37  C26 UNL     1      30.467  -9.649 -42.055  0.00  0.00    +0.000 C 
ATOM     38  O4  UNL     1      29.848  -9.387 -43.121  0.00  0.00    +0.000 OA
ATOM     39  N5  UNL     1      31.672 -10.424 -42.078  0.00  0.00    +0.000 N 
ATOM     40  H24 UNL     1      32.346 -10.285 -41.297  0.00  0.00    +0.000 HD
BRANCH  39  41
ATOM     41  C27 UNL     1      32.084 -11.265 -43.172  0.00  0.00    +0.000 A 
ATOM     42  C28 UNL     1      31.544 -12.553 -43.282  0.00  0.00    +0.000 A 
ATOM     43  C29 UNL     1      31.894 -13.390 -44.345  0.00  0.00    +0.000 A 
ATOM     44  C30 UNL     1      32.790 -12.944 -45.332  0.00  0.00    +0.000 A 
ATOM     45  C31 UNL     1      33.312 -11.642 -45.239  0.00  0.00    +0.000 A 
ATOM     46  C32 UNL     1      32.959 -10.809 -44.172  0.00  0.00    +0.000 A 
BRANCH  44  47
ATOM     47  N6  UNL     1      33.154 -13.793 -46.433  0.00  0.00    +0.000 N 
ATOM     48  O5  UNL     1      32.739 -14.970 -46.488  0.00  0.00    +0.000 OA
ATOM     49  O6  UNL     1      33.976 -13.328 -47.438  0.00  0.00    +0.000 OA
ENDBRANCH  44  47
ENDBRANCH  39  41
ENDBRANCH  36  37
ENDBRANCH  33  36
ENDBRANCH  30  31
ENDBRANCH  29  30
ENDBRANCH   6  29
TORSDOF 12
ENDMDL
MODEL 2
REMARK VINA RESULT:    -6.708      5.694      8.150
REMARK INTER + INTRA:         -13.214
REMARK INTER:                 -11.322
REMARK INTRA:                  -1.892
REMARK UNBOUND:                -1.996
REMARK  Name = resultss/4CJN/ligands/lig_337_t2.pdb
REMARK  13 active torsions:
REMARK  status: ('A' for Active; 'I' for Inactive)
REMARK    1  A    between atoms: C1_1  and  O1_2
REMARK    2  A    between atoms: O1_2  and  C2_3
REMARK    3  A    between atoms: C4_5  and  C5_6
REMARK    4  A    between atoms: C12_14  and  O2_15
REMARK    5  A    between atoms: N2_16  and  N3_17
REMARK    6  A    between atoms: N3_17  and  C13_18
REMARK    7  A    between atoms: C21_26  and  O3_27
REMARK    8  A    between atoms: O3_27  and  C22_28
REMARK    9  A    between atoms: C22_28  and  C23_29
REMARK   10  A    between atoms: N4_31  and  C25_32
REMARK   11  A    between atoms: C25_32  and  C26_33
REMARK   12  A    between atoms: N5_35  and  C27_36
REMARK   13  A    between atoms: C30_39  and  N6_40
REMARK                            x       y       z     vdW  Elec       q    Type
REMARK                         _______ _______ _______ _____ _____    ______ ____
ROOT
ATOM      1  C2  UNL     1      27.260  -8.488 -40.355  0.00  0.00    +0.000 A 
ATOM      2  C3  UNL     1      27.251  -8.376 -38.951  0.00  0.00    +0.000 A 
ATOM      3  C4  UNL     1      26.603  -7.295 -38.326  0.00  0.00    +0.000 A 
ATOM      4  C19 UNL     1      25.928  -6.346 -39.114  0.00  0.00    +0.000 A 
ATOM      5  C20 UNL     1      25.925  -6.460 -40.506  0.00  0.00    +0.000 A 
ATOM      6  C21 UNL     1      26.597  -7.522 -41.130  0.00  0.00    +0.000 A 
ENDROOT
BRANCH   3   7
ATOM      7  C5  UNL     1      26.620  -7.165 -36.821  0.00  0.00    +0.000 C 
ATOM      8  N1  UNL     1      28.002  -7.110 -36.352  0.00  0.00    +0.000 NA
ATOM      9  C6  UNL     1      28.568  -7.980 -35.565  0.00  0.00    +0.000 A 
ATOM     10  C7  UNL     1      29.910  -7.777 -35.213  0.00  0.00    +0.000 A 
ATOM     11  C8  UNL     1      30.565  -8.673 -34.367  0.00  0.00    +0.000 A 
ATOM     12  C9  UNL     1      29.888  -9.787 -33.873  0.00  0.00    +0.000 A 
ATOM     13  C10 UNL     1      28.548 -10.008 -34.216  0.00  0.00    +0.000 A 
ATOM     14  C11 UNL     1      27.858  -9.104 -35.064  0.00  0.00    +0.000 A 
ATOM     15  C12 UNL     1      26.553  -9.268 -35.395  0.00  0.00    +0.000 C 
ATOM     16  N2  UNL     1      25.892  -8.284 -36.210  0.00  0.00    +0.000 N 
BRANCH  15  17
ATOM     17  O2  UNL     1      25.785 -10.353 -34.946  0.00  0.00    +0.000 OA
ATOM     18  H10 UNL     1      25.249 -10.393 -34.093  0.00  0.00    +0.000 HD
ENDBRANCH  15  17
BRANCH  16  19
ATOM     19  N3  UNL     1      24.534  -8.465 -36.532  0.00  0.00    +0.000 N 
ATOM     20  H11 UNL     1      24.266  -9.303 -37.108  0.00  0.00    +0.000 HD
BRANCH  19  21
ATOM     21  C13 UNL     1      23.506  -7.616 -36.001  0.00  0.00    +0.000 A 
ATOM     22  C14 UNL     1      23.347  -7.504 -34.613  0.00  0.00    +0.000 A 
ATOM     23  C15 UNL     1      22.380  -6.644 -34.079  0.00  0.00    +0.000 A 
ATOM     24  C16 UNL     1      21.574  -5.883 -34.929  0.00  0.00    +0.000 A 
ATOM     25  C17 UNL     1      21.736  -5.978 -36.315  0.00  0.00    +0.000 A 
ATOM     26  C18 UNL     1      22.699  -6.839 -36.851  0.00  0.00    +0.000 A 
ENDBRANCH  19  21
ENDBRANCH  16  19
ENDBRANCH   3   7
BRANCH   1  28
ATOM     27  C1  UNL     1      27.666 -10.930 -40.747  0.00  0.00    +0.000 C 
ATOM     28  O1  UNL     1      27.899  -9.549 -41.015  0.00  0.00    +0.000 OA
ENDBRANCH   1  28
BRANCH   6  29
ATOM     29  O3  UNL     1      26.616  -7.616 -42.525  0.00  0.00    +0.000 OA
BRANCH  29  30
ATOM     30  C22 UNL     1      27.231  -6.621 -43.345  0.00  0.00    +0.000 C 
BRANCH  30  31
ATOM     31  C23 UNL     1      26.886  -6.863 -44.780  0.00  0.00    +0.000 A 
ATOM     32  C24 UNL     1      25.722  -6.497 -45.418  0.00  0.00    +0.000 A 
ATOM     33  N4  UNL     1      25.878  -6.859 -46.702  0.00  0.00    +0.000 N 
ATOM     34  N7  UNL     1      27.086  -7.376 -46.855  0.00  0.00    +0.000 NA
ATOM     35  N8  UNL     1      27.731  -7.384 -45.697  0.00  0.00    +0.000 NA
BRANCH  33  36
ATOM     36  C25 UNL     1      24.930  -6.652 -47.787  0.00  0.00    +0.000 C 
BRANCH  36  37
ATOM     37  C26 UNL     1      23.586  -7.178 -47.393  0.00  0.00    +0.000 C 
ATOM     38  O4  UNL     1      23.336  -8.404 -47.542  0.00  0.00    +0.000 OA
ATOM     39  N5  UNL     1      22.603  -6.291 -46.845  0.00  0.00    +0.000 N 
ATOM     40  H24 UNL     1      22.946  -5.429 -46.373  0.00  0.00    +0.000 HD
BRANCH  39  41
ATOM     41  C27 UNL     1      21.194  -6.577 -46.769  0.00  0.00    +0.000 A 
ATOM     42  C28 UNL     1      20.567  -6.583 -45.516  0.00  0.00    +0.000 A 
ATOM     43  C29 UNL     1      19.195  -6.826 -45.401  0.00  0.00    +0.000 A 
ATOM     44  C30 UNL     1      18.419  -7.060 -46.549  0.00  0.00    +0.000 A 
ATOM     45  C31 UNL     1      19.041  -7.027 -47.809  0.00  0.00    +0.000 A 
ATOM     46  C32 UNL     1      20.414  -6.784 -47.919  0.00  0.00    +0.000 A 
BRANCH  44  47
ATOM     47  N6  UNL     1      17.006  -7.306 -46.444  0.00  0.00    +0.000 N 
ATOM     48  O5  UNL     1      16.388  -7.007 -45.401  0.00  0.00    +0.000 OA
ATOM     49  O6  UNL     1      16.315  -7.887 -47.487  0.00  0.00    +0.000 OA
ENDBRANCH  44  47
ENDBRANCH  39  41
ENDBRANCH  36  37
ENDBRANCH  33  36
ENDBRANCH  30  31
ENDBRANCH  29  30
ENDBRANCH   6  29
TORSDOF 12
ENDMDL
MODEL 3
REMARK VINA RESULT:    -6.439      2.782      5.804
REMARK INTER + INTRA:         -12.765
REMARK INTER:                 -10.385
REMARK INTRA:                  -2.380
REMARK UNBOUND:                -1.996
REMARK  Name = resultss/4CJN/ligands/lig_337_t2.pdb
REMARK  13 active torsions:
REMARK  status: ('A' for Active; 'I' for Inactive)
REMARK    1  A    between atoms: C1_1  and  O1_2
REMARK    2  A    between atoms: O1_2  and  C2_3
REMARK    3  A    between atoms: C4_5  and  C5_6
REMARK    4  A    between atoms: C12_14  and  O2_15
REMARK    5  A    between atoms: N2_16  and  N3_17
REMARK    6  A    between atoms: N3_17  and  C13_18
REMARK    7  A    between atoms: C21_26  and  O3_27
REMARK    8  A    between atoms: O3_27  and  C22_28
REMARK    9  A    between atoms: C22_28  and  C23_29
REMARK   10  A    between atoms: N4_31  and  C25_32
REMARK   11  A    between atoms: C25_32  and  C26_33
REMARK   12  A    between atoms: N5_35  and  C27_36
REMARK   13  A    between atoms: C30_39  and  N6_40
REMARK                            x       y       z     vdW  Elec       q    Type
REMARK                         _______ _______ _______ _____ _____    ______ ____
ROOT
ATOM      1  C2  UNL     1      29.650  -8.494 -33.630  0.00  0.00    +0.000 A 
ATOM      2  C3  UNL     1      28.486  -8.830 -34.348  0.00  0.00    +0.000 A 
ATOM      3  C4  UNL     1      28.579  -9.391 -35.635  0.00  0.00    +0.000 A 
ATOM      4  C19 UNL     1      29.848  -9.652 -36.185  0.00  0.00    +0.000 A 
ATOM      5  C20 UNL     1      31.004  -9.331 -35.470  0.00  0.00    +0.000 A 
ATOM      6  C21 UNL     1      30.910  -8.744 -34.199  0.00  0.00    +0.000 A 
ENDROOT
BRANCH   3   7
ATOM      7  C5  UNL     1      27.327  -9.724 -36.412  0.00  0.00    +0.000 C 
ATOM      8  N1  UNL     1      27.688 -10.434 -37.636  0.00  0.00    +0.000 NA
ATOM      9  C6  UNL     1      27.464 -10.012 -38.848  0.00  0.00    +0.000 A 
ATOM     10  C7  UNL     1      27.879 -10.820 -39.916  0.00  0.00    +0.000 A 
ATOM     11  C8  UNL     1      27.658 -10.421 -41.235  0.00  0.00    +0.000 A 
ATOM     12  C9  UNL     1      27.030  -9.205 -41.500  0.00  0.00    +0.000 A 
ATOM     13  C10 UNL     1      26.611  -8.383 -40.446  0.00  0.00    +0.000 A 
ATOM     14  C11 UNL     1      26.814  -8.773 -39.098  0.00  0.00    +0.000 A 
ATOM     15  C12 UNL     1      26.396  -8.018 -38.051  0.00  0.00    +0.000 C 
ATOM     16  N2  UNL     1      26.576  -8.498 -36.706  0.00  0.00    +0.000 N 
BRANCH  15  17
ATOM     17  O2  UNL     1      25.752  -6.783 -38.213  0.00  0.00    +0.000 OA
ATOM     18  H10 UNL     1      25.599  -6.299 -39.085  0.00  0.00    +0.000 HD
ENDBRANCH  15  17
BRANCH  16  19
ATOM     19  N3  UNL     1      26.123  -7.706 -35.633  0.00  0.00    +0.000 N 
ATOM     20  H11 UNL     1      26.626  -6.804 -35.434  0.00  0.00    +0.000 HD
BRANCH  19  21
ATOM     21  C13 UNL     1      24.938  -8.032 -34.893  0.00  0.00    +0.000 A 
ATOM     22  C14 UNL     1      23.679  -7.830 -35.475  0.00  0.00    +0.000 A 
ATOM     23  C15 UNL     1      22.515  -8.187 -34.784  0.00  0.00    +0.000 A 
ATOM     24  C16 UNL     1      22.603  -8.758 -33.513  0.00  0.00    +0.000 A 
ATOM     25  C17 UNL     1      23.856  -8.977 -32.931  0.00  0.00    +0.000 A 
ATOM     26  C18 UNL     1      25.020  -8.618 -33.617  0.00  0.00    +0.000 A 
ENDBRANCH  19  21
ENDBRANCH  16  19
ENDBRANCH   3   7
BRANCH   1  28
ATOM     27  C1  UNL     1      28.767  -6.833 -31.975  0.00  0.00    +0.000 C 
ATOM     28  O1  UNL     1      29.598  -7.929 -32.346  0.00  0.00    +0.000 OA
ENDBRANCH   1  28
BRANCH   6  29
ATOM     29  O3  UNL     1      32.071  -8.397 -33.500  0.00  0.00    +0.000 OA
BRANCH  29  30
ATOM     30  C22 UNL     1      32.762  -7.169 -33.737  0.00  0.00    +0.000 C 
BRANCH  30  31
ATOM     31  C23 UNL     1      33.193  -7.097 -35.167  0.00  0.00    +0.000 A 
ATOM     32  C24 UNL     1      32.635  -6.317 -36.155  0.00  0.00    +0.000 A 
ATOM     33  N4  UNL     1      33.378  -6.529 -37.253  0.00  0.00    +0.000 N 
ATOM     34  N7  UNL     1      34.365  -7.356 -36.946  0.00  0.00    +0.000 NA
ATOM     35  N8  UNL     1      34.282  -7.716 -35.673  0.00  0.00    +0.000 NA
BRANCH  33  36
ATOM     36  C25 UNL     1      33.208  -5.901 -38.555  0.00  0.00    +0.000 C 
BRANCH  36  37
ATOM     37  C26 UNL     1      33.420  -6.913 -39.636  0.00  0.00    +0.000 C 
ATOM     38  O4  UNL     1      33.960  -6.557 -40.717  0.00  0.00    +0.000 OA
ATOM     39  N5  UNL     1      33.016  -8.273 -39.432  0.00  0.00    +0.000 N 
ATOM     40  H24 UNL     1      32.961  -8.614 -38.450  0.00  0.00    +0.000 HD
BRANCH  39  41
ATOM     41  C27 UNL     1      32.828  -9.238 -40.484  0.00  0.00    +0.000 A 
ATOM     42  C28 UNL     1      31.531  -9.500 -40.943  0.00  0.00    +0.000 A 
ATOM     43  C29 UNL     1      31.307 -10.407 -41.983  0.00  0.00    +0.000 A 
ATOM     44  C30 UNL     1      32.388 -11.066 -42.593  0.00  0.00    +0.000 A 
ATOM     45  C31 UNL     1      33.693 -10.784 -42.153  0.00  0.00    +0.000 A 
ATOM     46  C32 UNL     1      33.911  -9.876 -41.111  0.00  0.00    +0.000 A 
BRANCH  44  47
ATOM     47  N6  UNL     1      32.171 -11.997 -43.667  0.00  0.00    +0.000 N 
ATOM     48  O5  UNL     1      31.467 -13.013 -43.490  0.00  0.00    +0.000 OA
ATOM     49  O6  UNL     1      32.747 -11.790 -44.903  0.00  0.00    +0.000 OA
ENDBRANCH  44  47
ENDBRANCH  39  41
ENDBRANCH  36  37
ENDBRANCH  33  36
ENDBRANCH  30  31
ENDBRANCH  29  30
ENDBRANCH   6  29
TORSDOF 12
ENDMDL
MODEL 4
REMARK VINA RESULT:    -6.421      4.010     11.174
REMARK INTER + INTRA:         -12.733
REMARK INTER:                 -10.145
REMARK INTRA:                  -2.588
REMARK UNBOUND:                -1.996
REMARK  Name = resultss/4CJN/ligands/lig_337_t2.pdb
REMARK  13 active torsions:
REMARK  status: ('A' for Active; 'I' for Inactive)
REMARK    1  A    between atoms: C1_1  and  O1_2
REMARK    2  A    between atoms: O1_2  and  C2_3
REMARK    3  A    between atoms: C4_5  and  C5_6
REMARK    4  A    between atoms: C12_14  and  O2_15
REMARK    5  A    between atoms: N2_16  and  N3_17
REMARK    6  A    between atoms: N3_17  and  C13_18
REMARK    7  A    between atoms: C21_26  and  O3_27
REMARK    8  A    between atoms: O3_27  and  C22_28
REMARK    9  A    between atoms: C22_28  and  C23_29
REMARK   10  A    between atoms: N4_31  and  C25_32
REMARK   11  A    between atoms: C25_32  and  C26_33
REMARK   12  A    between atoms: N5_35  and  C27_36
REMARK   13  A    between atoms: C30_39  and  N6_40
REMARK                            x       y       z     vdW  Elec       q    Type
REMARK                         _______ _______ _______ _____ _____    ______ ____
ROOT
ATOM      1  C2  UNL     1      26.030  -7.794 -40.164  0.00  0.00    +0.000 A 
ATOM      2  C3  UNL     1      25.669  -6.834 -41.128  0.00  0.00    +0.000 A 
ATOM      3  C4  UNL     1      25.357  -7.225 -42.443  0.00  0.00    +0.000 A 
ATOM      4  C19 UNL     1      25.369  -8.591 -42.778  0.00  0.00    +0.000 A 
ATOM      5  C20 UNL     1      25.716  -9.548 -41.820  0.00  0.00    +0.000 A 
ATOM      6  C21 UNL     1      26.056  -9.154 -40.518  0.00  0.00    +0.000 A 
ENDROOT
BRANCH   3   7
ATOM      7  C5  UNL     1      24.997  -6.187 -43.481  0.00  0.00    +0.000 C 
ATOM      8  N1  UNL     1      23.667  -6.470 -44.011  0.00  0.00    +0.000 NA
ATOM      9  C6  UNL     1      23.393  -6.762 -45.250  0.00  0.00    +0.000 A 
ATOM     10  C7  UNL     1      22.056  -7.009 -45.591  0.00  0.00    +0.000 A 
ATOM     11  C8  UNL     1      21.705  -7.319 -46.905  0.00  0.00    +0.000 A 
ATOM     12  C9  UNL     1      22.689  -7.397 -47.890  0.00  0.00    +0.000 A 
ATOM     13  C10 UNL     1      24.030  -7.156 -47.569  0.00  0.00    +0.000 A 
ATOM     14  C11 UNL     1      24.409  -6.827 -46.241  0.00  0.00    +0.000 A 
ATOM     15  C12 UNL     1      25.694  -6.558 -45.897  0.00  0.00    +0.000 C 
ATOM     16  N2  UNL     1      26.006  -6.170 -44.547  0.00  0.00    +0.000 N 
BRANCH  15  17
ATOM     17  O2  UNL     1      26.753  -6.606 -46.815  0.00  0.00    +0.000 OA
ATOM     18  H10 UNL     1      26.679  -6.786 -47.804  0.00  0.00    +0.000 HD
ENDBRANCH  15  17
BRANCH  16  19
ATOM     19  N3  UNL     1      27.343  -5.883 -44.212  0.00  0.00    +0.000 N 
ATOM     20  H11 UNL     1      27.699  -4.908 -44.378  0.00  0.00    +0.000 HD
BRANCH  19  21
ATOM     21  C13 UNL     1      28.183  -6.839 -43.548  0.00  0.00    +0.000 A 
ATOM     22  C14 UNL     1      28.756  -6.516 -42.310  0.00  0.00    +0.000 A 
ATOM     23  C15 UNL     1      29.540  -7.455 -41.628  0.00  0.00    +0.000 A 
ATOM     24  C16 UNL     1      29.745  -8.723 -42.173  0.00  0.00    +0.000 A 
ATOM     25  C17 UNL     1      29.165  -9.058 -43.401  0.00  0.00    +0.000 A 
ATOM     26  C18 UNL     1      28.385  -8.122 -44.086  0.00  0.00    +0.000 A 
ENDBRANCH  19  21
ENDBRANCH  16  19
ENDBRANCH   3   7
BRANCH   1  28
ATOM     27  C1  UNL     1      27.332  -6.474 -38.478  0.00  0.00    +0.000 C 
ATOM     28  O1  UNL     1      26.352  -7.442 -38.844  0.00  0.00    +0.000 OA
ENDBRANCH   1  28
BRANCH   6  29
ATOM     29  O3  UNL     1      26.430 -10.112 -39.571  0.00  0.00    +0.000 OA
BRANCH  29  30
ATOM     30  C22 UNL     1      27.633 -10.873 -39.696  0.00  0.00    +0.000 C 
BRANCH  30  31
ATOM     31  C23 UNL     1      28.655 -10.368 -38.727  0.00  0.00    +0.000 A 
ATOM     32  C24 UNL     1      28.525 -10.299 -37.357  0.00  0.00    +0.000 A 
ATOM     33  N4  UNL     1      29.702  -9.844 -36.900  0.00  0.00    +0.000 N 
ATOM     34  N7  UNL     1      30.525  -9.687 -37.924  0.00  0.00    +0.000 NA
ATOM     35  N8  UNL     1      29.915 -10.007 -39.056  0.00  0.00    +0.000 NA
BRANCH  33  36
ATOM     36  C25 UNL     1      30.074  -9.633 -35.509  0.00  0.00    +0.000 C 
BRANCH  36  37
ATOM     37  C26 UNL     1      28.873  -9.206 -34.723  0.00  0.00    +0.000 C 
ATOM     38  O4  UNL     1      28.367 -10.004 -33.890  0.00  0.00    +0.000 OA
ATOM     39  N5  UNL     1      28.318  -7.900 -34.919  0.00  0.00    +0.000 N 
ATOM     40  H24 UNL     1      28.954  -7.158 -35.278  0.00  0.00    +0.000 HD
BRANCH  39  41
ATOM     41  C27 UNL     1      26.993  -7.505 -34.516  0.00  0.00    +0.000 A 
ATOM     42  C28 UNL     1      25.893  -7.953 -35.259  0.00  0.00    +0.000 A 
ATOM     43  C29 UNL     1      24.589  -7.618 -34.885  0.00  0.00    +0.000 A 
ATOM     44  C30 UNL     1      24.360  -6.829 -33.745  0.00  0.00    +0.000 A 
ATOM     45  C31 UNL     1      25.460  -6.401 -32.982  0.00  0.00    +0.000 A 
ATOM     46  C32 UNL     1      26.764  -6.739 -33.361  0.00  0.00    +0.000 A 
BRANCH  44  47
ATOM     47  N6  UNL     1      23.023  -6.482 -33.347  0.00  0.00    +0.000 N 
ATOM     48  O5  UNL     1      22.753  -6.284 -32.144  0.00  0.00    +0.000 OA
ATOM     49  O6  UNL     1      22.017  -6.375 -34.284  0.00  0.00    +0.000 OA
ENDBRANCH  44  47
ENDBRANCH  39  41
ENDBRANCH  36  37
ENDBRANCH  33  36
ENDBRANCH  30  31
ENDBRANCH  29  30
ENDBRANCH   6  29
TORSDOF 12
ENDMDL
MODEL 5
REMARK VINA RESULT:    -6.345      1.435      2.037
REMARK INTER + INTRA:         -12.608
REMARK INTER:                 -11.490
REMARK INTRA:                  -1.118
REMARK UNBOUND:                -1.996
REMARK  Name = resultss/4CJN/ligands/lig_337_t2.pdb
REMARK  13 active torsions:
REMARK  status: ('A' for Active; 'I' for Inactive)
REMARK    1  A    between atoms: C1_1  and  O1_2
REMARK    2  A    between atoms: O1_2  and  C2_3
REMARK    3  A    between atoms: C4_5  and  C5_6
REMARK    4  A    between atoms: C12_14  and  O2_15
REMARK    5  A    between atoms: N2_16  and  N3_17
REMARK    6  A    between atoms: N3_17  and  C13_18
REMARK    7  A    between atoms: C21_26  and  O3_27
REMARK    8  A    between atoms: O3_27  and  C22_28
REMARK    9  A    between atoms: C22_28  and  C23_29
REMARK   10  A    between atoms: N4_31  and  C25_32
REMARK   11  A    between atoms: C25_32  and  C26_33
REMARK   12  A    between atoms: N5_35  and  C27_36
REMARK   13  A    between atoms: C30_39  and  N6_40
REMARK                            x       y       z     vdW  Elec       q    Type
REMARK                         _______ _______ _______ _____ _____    ______ ____
ROOT
ATOM      1  C2  UNL     1      26.212  -7.052 -38.527  0.00  0.00    +0.000 A 
ATOM      2  C3  UNL     1      27.000  -6.542 -37.477  0.00  0.00    +0.000 A 
ATOM      3  C4  UNL     1      27.496  -7.397 -36.476  0.00  0.00    +0.000 A 
ATOM      4  C19 UNL     1      27.232  -8.776 -36.553  0.00  0.00    +0.000 A 
ATOM      5  C20 UNL     1      26.460  -9.288 -37.599  0.00  0.00    +0.000 A 
ATOM      6  C21 UNL     1      25.941  -8.430 -38.580  0.00  0.00    +0.000 A 
ENDROOT
BRANCH   3   7
ATOM      7  C5  UNL     1      28.318  -6.839 -35.338  0.00  0.00    +0.000 C 
ATOM      8  N1  UNL     1      29.618  -7.504 -35.304  0.00  0.00    +0.000 NA
ATOM      9  C6  UNL     1      30.069  -8.232 -34.324  0.00  0.00    +0.000 A 
ATOM     10  C7  UNL     1      31.343  -8.801 -34.456  0.00  0.00    +0.000 A 
ATOM     11  C8  UNL     1      31.880  -9.585 -33.433  0.00  0.00    +0.000 A 
ATOM     12  C9  UNL     1      31.143  -9.816 -32.272  0.00  0.00    +0.000 A 
ATOM     13  C10 UNL     1      29.868  -9.257 -32.123  0.00  0.00    +0.000 A 
ATOM     14  C11 UNL     1      29.307  -8.448 -33.144  0.00  0.00    +0.000 A 
ATOM     15  C12 UNL     1      28.088  -7.866 -33.024  0.00  0.00    +0.000 C 
ATOM     16  N2  UNL     1      27.600  -7.005 -34.069  0.00  0.00    +0.000 N 
BRANCH  15  17
ATOM     17  O2  UNL     1      27.273  -8.033 -31.895  0.00  0.00    +0.000 OA
ATOM     18  H10 UNL     1      26.297  -7.788 -31.820  0.00  0.00    +0.000 HD
ENDBRANCH  15  17
BRANCH  16  19
ATOM     19  N3  UNL     1      26.337  -6.400 -33.920  0.00  0.00    +0.000 N 
ATOM     20  H11 UNL     1      26.299  -5.363 -33.745  0.00  0.00    +0.000 HD
BRANCH  19  21
ATOM     21  C13 UNL     1      25.116  -7.128 -34.117  0.00  0.00    +0.000 A 
ATOM     22  C14 UNL     1      24.803  -8.199 -33.269  0.00  0.00    +0.000 A 
ATOM     23  C15 UNL     1      23.594  -8.889 -33.419  0.00  0.00    +0.000 A 
ATOM     24  C16 UNL     1      22.688  -8.506 -34.410  0.00  0.00    +0.000 A 
ATOM     25  C17 UNL     1      22.986  -7.429 -35.252  0.00  0.00    +0.000 A 
ATOM     26  C18 UNL     1      24.195  -6.740 -35.106  0.00  0.00    +0.000 A 
ENDBRANCH  19  21
ENDBRANCH  16  19
ENDBRANCH   3   7
BRANCH   1  28
ATOM     27  C1  UNL     1      26.391  -5.883 -40.736  0.00  0.00    +0.000 C 
ATOM     28  O1  UNL     1      25.696  -6.231 -39.541  0.00  0.00    +0.000 OA
ENDBRANCH   1  28
BRANCH   6  29
ATOM     29  O3  UNL     1      25.145  -8.943 -39.609  0.00  0.00    +0.000 OA
BRANCH  29  30
ATOM     30  C22 UNL     1      25.663  -9.833 -40.599  0.00  0.00    +0.000 C 
BRANCH  30  31
ATOM     31  C23 UNL     1      26.980  -9.326 -41.096  0.00  0.00    +0.000 A 
ATOM     32  C24 UNL     1      28.155  -9.255 -40.383  0.00  0.00    +0.000 A 
ATOM     33  N4  UNL     1      29.079  -8.799 -41.243  0.00  0.00    +0.000 N 
ATOM     34  N7  UNL     1      28.516  -8.642 -42.430  0.00  0.00    +0.000 NA
ATOM     35  N8  UNL     1      27.231  -8.965 -42.374  0.00  0.00    +0.000 NA
BRANCH  33  36
ATOM     36  C25 UNL     1      30.493  -8.586 -40.971  0.00  0.00    +0.000 C 
BRANCH  36  37
ATOM     37  C26 UNL     1      31.299  -9.684 -41.591  0.00  0.00    +0.000 C 
ATOM     38  O4  UNL     1      32.398 -10.012 -41.070  0.00  0.00    +0.000 OA
ATOM     39  N5  UNL     1      30.813 -10.355 -42.761  0.00  0.00    +0.000 N 
ATOM     40  H24 UNL     1      29.784 -10.356 -42.920  0.00  0.00    +0.000 HD
BRANCH  39  41
ATOM     41  C27 UNL     1      31.625 -11.148 -43.646  0.00  0.00    +0.000 A 
ATOM     42  C28 UNL     1      31.475 -12.541 -43.643  0.00  0.00    +0.000 A 
ATOM     43  C29 UNL     1      32.222 -13.346 -44.508  0.00  0.00    +0.000 A 
ATOM     44  C30 UNL     1      33.133 -12.764 -45.406  0.00  0.00    +0.000 A 
ATOM     45  C31 UNL     1      33.266 -11.365 -45.430  0.00  0.00    +0.000 A 
ATOM     46  C32 UNL     1      32.517 -10.565 -44.562  0.00  0.00    +0.000 A 
BRANCH  44  47
ATOM     47  N6  UNL     1      33.904 -13.581 -46.304  0.00  0.00    +0.000 N 
ATOM     48  O5  UNL     1      34.346 -13.104 -47.370  0.00  0.00    +0.000 OA
ATOM     49  O6  UNL     1      34.156 -14.904 -46.009  0.00  0.00    +0.000 OA
ENDBRANCH  44  47
ENDBRANCH  39  41
ENDBRANCH  36  37
ENDBRANCH  33  36
ENDBRANCH  30  31
ENDBRANCH  29  30
ENDBRANCH   6  29
TORSDOF 12
ENDMDL
MODEL 6
REMARK VINA RESULT:    -6.269      2.574      3.575
REMARK INTER + INTRA:         -12.480
REMARK INTER:                  -9.161
REMARK INTRA:                  -3.319
REMARK UNBOUND:                -1.996
REMARK  Name = resultss/4CJN/ligands/lig_337_t2.pdb
REMARK  13 active torsions:
REMARK  status: ('A' for Active; 'I' for Inactive)
REMARK    1  A    between atoms: C1_1  and  O1_2
REMARK    2  A    between atoms: O1_2  and  C2_3
REMARK    3  A    between atoms: C4_5  and  C5_6
REMARK    4  A    between atoms: C12_14  and  O2_15
REMARK    5  A    between atoms: N2_16  and  N3_17
REMARK    6  A    between atoms: N3_17  and  C13_18
REMARK    7  A    between atoms: C21_26  and  O3_27
REMARK    8  A    between atoms: O3_27  and  C22_28
REMARK    9  A    between atoms: C22_28  and  C23_29
REMARK   10  A    between atoms: N4_31  and  C25_32
REMARK   11  A    between atoms: C25_32  and  C26_33
REMARK   12  A    between atoms: N5_35  and  C27_36
REMARK   13  A    between atoms: C30_39  and  N6_40
REMARK                            x       y       z     vdW  Elec       q    Type
REMARK                         _______ _______ _______ _____ _____    ______ ____
ROOT
ATOM      1  C2  UNL     1      26.993  -8.347 -37.774  0.00  0.00    +0.000 A 
ATOM      2  C3  UNL     1      28.272  -8.180 -37.208  0.00  0.00    +0.000 A 
ATOM      3  C4  UNL     1      28.559  -7.055 -36.413  0.00  0.00    +0.000 A 
ATOM      4  C19 UNL     1      27.544  -6.116 -36.154  0.00  0.00    +0.000 A 
ATOM      5  C20 UNL     1      26.272  -6.284 -36.705  0.00  0.00    +0.000 A 
ATOM      6  C21 UNL     1      25.995  -7.390 -37.523  0.00  0.00    +0.000 A 
ENDROOT
BRANCH   3   7
ATOM      7  C5  UNL     1      29.940  -6.868 -35.830  0.00  0.00    +0.000 C 
ATOM      8  N1  UNL     1      30.930  -6.900 -36.904  0.00  0.00    +0.000 NA
ATOM      9  C6  UNL     1      31.883  -7.779 -37.026  0.00  0.00    +0.000 A 
ATOM     10  C7  UNL     1      32.749  -7.665 -38.122  0.00  0.00    +0.000 A 
ATOM     11  C8  UNL     1      33.793  -8.575 -38.299  0.00  0.00    +0.000 A 
ATOM     12  C9  UNL     1      33.975  -9.614 -37.387  0.00  0.00    +0.000 A 
ATOM     13  C10 UNL     1      33.118  -9.745 -36.287  0.00  0.00    +0.000 A 
ATOM     14  C11 UNL     1      32.058  -8.825 -36.080  0.00  0.00    +0.000 A 
ATOM     15  C12 UNL     1      31.226  -8.902 -35.012  0.00  0.00    +0.000 C 
ATOM     16  N2  UNL     1      30.208  -7.902 -34.825  0.00  0.00    +0.000 N 
BRANCH  15  17
ATOM     17  O2  UNL     1      31.329  -9.906 -34.038  0.00  0.00    +0.000 OA
ATOM     18  H10 UNL     1      30.572 -10.291 -33.494  0.00  0.00    +0.000 HD
ENDBRANCH  15  17
BRANCH  16  19
ATOM     19  N3  UNL     1      29.362  -7.992 -33.702  0.00  0.00    +0.000 N 
ATOM     20  H11 UNL     1      29.677  -7.544 -32.805  0.00  0.00    +0.000 HD
BRANCH  19  21
ATOM     21  C13 UNL     1      28.048  -8.565 -33.783  0.00  0.00    +0.000 A 
ATOM     22  C14 UNL     1      26.955  -7.871 -33.247  0.00  0.00    +0.000 A 
ATOM     23  C15 UNL     1      25.661  -8.395 -33.360  0.00  0.00    +0.000 A 
ATOM     24  C16 UNL     1      25.453  -9.609 -34.017  0.00  0.00    +0.000 A 
ATOM     25  C17 UNL     1      26.537 -10.301 -34.567  0.00  0.00    +0.000 A 
ATOM     26  C18 UNL     1      27.830  -9.782 -34.453  0.00  0.00    +0.000 A 
ENDBRANCH  19  21
ENDBRANCH  16  19
ENDBRANCH   3   7
BRANCH   1  28
ATOM     27  C1  UNL     1      27.602 -10.442 -39.006  0.00  0.00    +0.000 C 
ATOM     28  O1  UNL     1      26.670  -9.453 -38.576  0.00  0.00    +0.000 OA
ENDBRANCH   1  28
BRANCH   6  29
ATOM     29  O3  UNL     1      24.729  -7.539 -38.095  0.00  0.00    +0.000 OA
BRANCH  29  30
ATOM     30  C22 UNL     1      24.317  -6.783 -39.236  0.00  0.00    +0.000 C 
BRANCH  30  31
ATOM     31  C23 UNL     1      24.659  -7.526 -40.487  0.00  0.00    +0.000 A 
ATOM     32  C24 UNL     1      25.454  -7.077 -41.519  0.00  0.00    +0.000 A 
ATOM     33  N4  UNL     1      25.529  -8.094 -42.392  0.00  0.00    +0.000 N 
ATOM     34  N7  UNL     1      24.859  -9.126 -41.905  0.00  0.00    +0.000 NA
ATOM     35  N8  UNL     1      24.320  -8.811 -40.735  0.00  0.00    +0.000 NA
BRANCH  33  36
ATOM     36  C25 UNL     1      26.287  -8.121 -43.635  0.00  0.00    +0.000 C 
BRANCH  36  37
ATOM     37  C26 UNL     1      27.749  -8.230 -43.333  0.00  0.00    +0.000 C 
ATOM     38  O4  UNL     1      28.561  -7.483 -43.942  0.00  0.00    +0.000 OA
ATOM     39  N5  UNL     1      28.209  -9.172 -42.356  0.00  0.00    +0.000 N 
ATOM     40  H24 UNL     1      27.537  -9.462 -41.617  0.00  0.00    +0.000 HD
BRANCH  39  41
ATOM     41  C27 UNL     1      29.570  -9.627 -42.235  0.00  0.00    +0.000 A 
ATOM     42  C28 UNL     1      30.087 -10.492 -43.209  0.00  0.00    +0.000 A 
ATOM     43  C29 UNL     1      31.412 -10.933 -43.146  0.00  0.00    +0.000 A 
ATOM     44  C30 UNL     1      32.252 -10.506 -42.103  0.00  0.00    +0.000 A 
ATOM     45  C31 UNL     1      31.743  -9.617 -41.141  0.00  0.00    +0.000 A 
ATOM     46  C32 UNL     1      30.417  -9.178 -41.208  0.00  0.00    +0.000 A 
BRANCH  44  47
ATOM     47  N6  UNL     1      33.617 -10.949 -42.030  0.00  0.00    +0.000 N 
ATOM     48  O5  UNL     1      34.278 -10.791 -40.983  0.00  0.00    +0.000 OA
ATOM     49  O6  UNL     1      34.222 -11.543 -43.118  0.00  0.00    +0.000 OA
ENDBRANCH  44  47
ENDBRANCH  39  41
ENDBRANCH  36  37
ENDBRANCH  33  36
ENDBRANCH  30  31
ENDBRANCH  29  30
ENDBRANCH   6  29
TORSDOF 12
ENDMDL
MODEL 7
REMARK VINA RESULT:    -6.007      3.171      7.180
REMARK INTER + INTRA:         -12.043
REMARK INTER:                  -9.856
REMARK INTRA:                  -2.187
REMARK UNBOUND:                -1.996
REMARK  Name = resultss/4CJN/ligands/lig_337_t2.pdb
REMARK  13 active torsions:
REMARK  status: ('A' for Active; 'I' for Inactive)
REMARK    1  A    between atoms: C1_1  and  O1_2
REMARK    2  A    between atoms: O1_2  and  C2_3
REMARK    3  A    between atoms: C4_5  and  C5_6
REMARK    4  A    between atoms: C12_14  and  O2_15
REMARK    5  A    between atoms: N2_16  and  N3_17
REMARK    6  A    between atoms: N3_17  and  C13_18
REMARK    7  A    between atoms: C21_26  and  O3_27
REMARK    8  A    between atoms: O3_27  and  C22_28
REMARK    9  A    between atoms: C22_28  and  C23_29
REMARK   10  A    between atoms: N4_31  and  C25_32
REMARK   11  A    between atoms: C25_32  and  C26_33
REMARK   12  A    between atoms: N5_35  and  C27_36
REMARK   13  A    between atoms: C30_39  and  N6_40
REMARK                            x       y       z     vdW  Elec       q    Type
REMARK                         _______ _______ _______ _____ _____    ______ ____
ROOT
ATOM      1  C2  UNL     1      27.787 -10.438 -39.179  0.00  0.00    +0.000 A 
ATOM      2  C3  UNL     1      27.210  -9.537 -38.264  0.00  0.00    +0.000 A 
ATOM      3  C4  UNL     1      27.396  -8.150 -38.413  0.00  0.00    +0.000 A 
ATOM      4  C19 UNL     1      28.132  -7.667 -39.510  0.00  0.00    +0.000 A 
ATOM      5  C20 UNL     1      28.697  -8.557 -40.426  0.00  0.00    +0.000 A 
ATOM      6  C21 UNL     1      28.536  -9.940 -40.259  0.00  0.00    +0.000 A 
ENDROOT
BRANCH   3   7
ATOM      7  C5  UNL     1      26.796  -7.190 -37.412  0.00  0.00    +0.000 C 
ATOM      8  N1  UNL     1      26.845  -7.783 -36.079  0.00  0.00    +0.000 NA
ATOM      9  C6  UNL     1      25.811  -8.071 -35.342  0.00  0.00    +0.000 A 
ATOM     10  C7  UNL     1      26.036  -8.641 -34.081  0.00  0.00    +0.000 A 
ATOM     11  C8  UNL     1      24.965  -8.963 -33.247  0.00  0.00    +0.000 A 
ATOM     12  C9  UNL     1      23.657  -8.729 -33.668  0.00  0.00    +0.000 A 
ATOM     13  C10 UNL     1      23.412  -8.162 -34.925  0.00  0.00    +0.000 A 
ATOM     14  C11 UNL     1      24.485  -7.816 -35.786  0.00  0.00    +0.000 A 
ATOM     15  C12 UNL     1      24.289  -7.239 -36.998  0.00  0.00    +0.000 C 
ATOM     16  N2  UNL     1      25.421  -6.854 -37.798  0.00  0.00    +0.000 N 
BRANCH  15  17
ATOM     17  O2  UNL     1      23.013  -6.959 -37.510  0.00  0.00    +0.000 OA
ATOM     18  H10 UNL     1      22.709  -7.091 -38.462  0.00  0.00    +0.000 HD
ENDBRANCH  15  17
BRANCH  16  19
ATOM     19  N3  UNL     1      25.197  -6.244 -39.048  0.00  0.00    +0.000 N 
ATOM     20  H11 UNL     1      25.661  -5.321 -39.242  0.00  0.00    +0.000 HD
BRANCH  19  21
ATOM     21  C13 UNL     1      24.460  -6.898 -40.092  0.00  0.00    +0.000 A 
ATOM     22  C14 UNL     1      23.572  -6.156 -40.883  0.00  0.00    +0.000 A 
ATOM     23  C15 UNL     1      22.882  -6.769 -41.936  0.00  0.00    +0.000 A 
ATOM     24  C16 UNL     1      23.083  -8.124 -42.210  0.00  0.00    +0.000 A 
ATOM     25  C17 UNL     1      23.978  -8.868 -41.434  0.00  0.00    +0.000 A 
ATOM     26  C18 UNL     1      24.667  -8.259 -40.381  0.00  0.00    +0.000 A 
ENDBRANCH  19  21
ENDBRANCH  16  19
ENDBRANCH   3   7
BRANCH   1  28
ATOM     27  C1  UNL     1      26.961 -12.651 -40.014  0.00  0.00    +0.000 C 
ATOM     28  O1  UNL     1      27.628 -11.827 -39.061  0.00  0.00    +0.000 OA
ENDBRANCH   1  28
BRANCH   6  29
ATOM     29  O3  UNL     1      29.128 -10.828 -41.163  0.00  0.00    +0.000 OA
BRANCH  29  30
ATOM     30  C22 UNL     1      29.747 -10.383 -42.371  0.00  0.00    +0.000 C 
BRANCH  30  31
ATOM     31  C23 UNL     1      31.232 -10.359 -42.201  0.00  0.00    +0.000 A 
ATOM     32  C24 UNL     1      31.928  -9.873 -41.116  0.00  0.00    +0.000 A 
ATOM     33  N4  UNL     1      33.223 -10.113 -41.374  0.00  0.00    +0.000 N 
ATOM     34  N7  UNL     1      33.317 -10.751 -42.529  0.00  0.00    +0.000 NA
ATOM     35  N8  UNL     1      32.113 -10.923 -43.056  0.00  0.00    +0.000 NA
BRANCH  33  36
ATOM     36  C25 UNL     1      34.354  -9.813 -40.507  0.00  0.00    +0.000 C 
BRANCH  36  37
ATOM     37  C26 UNL     1      33.951  -9.976 -39.075  0.00  0.00    +0.000 C 
ATOM     38  O4  UNL     1      34.355 -10.981 -38.432  0.00  0.00    +0.000 OA
ATOM     39  N5  UNL     1      33.120  -8.990 -38.450  0.00  0.00    +0.000 N 
ATOM     40  H24 UNL     1      33.141  -8.026 -38.843  0.00  0.00    +0.000 HD
BRANCH  39  41
ATOM     41  C27 UNL     1      32.379  -9.196 -37.233  0.00  0.00    +0.000 A 
ATOM     42  C28 UNL     1      33.028  -9.030 -36.003  0.00  0.00    +0.000 A 
ATOM     43  C29 UNL     1      32.337  -9.192 -34.799  0.00  0.00    +0.000 A 
ATOM     44  C30 UNL     1      30.969  -9.516 -34.805  0.00  0.00    +0.000 A 
ATOM     45  C31 UNL     1      30.309  -9.655 -36.038  0.00  0.00    +0.000 A 
ATOM     46  C32 UNL     1      31.005  -9.493 -37.240  0.00  0.00    +0.000 A 
BRANCH  44  47
ATOM     47  N6  UNL     1      30.246  -9.679 -33.573  0.00  0.00    +0.000 N 
ATOM     48  O5  UNL     1      29.112 -10.201 -33.571  0.00  0.00    +0.000 OA
ATOM     49  O6  UNL     1      30.787  -9.252 -32.379  0.00  0.00    +0.000 OA
ENDBRANCH  44  47
ENDBRANCH  39  41
ENDBRANCH  36  37
ENDBRANCH  33  36
ENDBRANCH  30  31
ENDBRANCH  29  30
ENDBRANCH   6  29
TORSDOF 12
ENDMDL
MODEL 8
REMARK VINA RESULT:    -5.793      3.929      9.386
REMARK INTER + INTRA:         -11.684
REMARK INTER:                  -8.134
REMARK INTRA:                  -3.549
REMARK UNBOUND:                -1.996
REMARK  Name = resultss/4CJN/ligands/lig_337_t2.pdb
REMARK  13 active torsions:
REMARK  status: ('A' for Active; 'I' for Inactive)
REMARK    1  A    between atoms: C1_1  and  O1_2
REMARK    2  A    between atoms: O1_2  and  C2_3
REMARK    3  A    between atoms: C4_5  and  C5_6
REMARK    4  A    between atoms: C12_14  and  O2_15
REMARK    5  A    between atoms: N2_16  and  N3_17
REMARK    6  A    between atoms: N3_17  and  C13_18
REMARK    7  A    between atoms: C21_26  and  O3_27
REMARK    8  A    between atoms: O3_27  and  C22_28
REMARK    9  A    between atoms: C22_28  and  C23_29
REMARK   10  A    between atoms: N4_31  and  C25_32
REMARK   11  A    between atoms: C25_32  and  C26_33
REMARK   12  A    between atoms: N5_35  and  C27_36
REMARK   13  A    between atoms: C30_39  and  N6_40
REMARK                            x       y       z     vdW  Elec       q    Type
REMARK                         _______ _______ _______ _____ _____    ______ ____
ROOT
ATOM      1  C2  UNL     1      30.420  -8.597 -39.659  0.00  0.00    +0.000 A 
ATOM      2  C3  UNL     1      29.049  -8.282 -39.733  0.00  0.00    +0.000 A 
ATOM      3  C4  UNL     1      28.619  -7.114 -40.389  0.00  0.00    +0.000 A 
ATOM      4  C19 UNL     1      29.569  -6.281 -41.008  0.00  0.00    +0.000 A 
ATOM      5  C20 UNL     1      30.929  -6.596 -40.947  0.00  0.00    +0.000 A 
ATOM      6  C21 UNL     1      31.358  -7.745 -40.266  0.00  0.00    +0.000 A 
ENDROOT
BRANCH   3   7
ATOM      7  C5  UNL     1      27.150  -6.767 -40.440  0.00  0.00    +0.000 C 
ATOM      8  N1  UNL     1      26.753  -6.142 -39.182  0.00  0.00    +0.000 NA
ATOM      9  C6  UNL     1      25.875  -6.618 -38.346  0.00  0.00    +0.000 A 
ATOM     10  C7  UNL     1      25.612  -5.888 -37.178  0.00  0.00    +0.000 A 
ATOM     11  C8  UNL     1      24.677  -6.347 -36.250  0.00  0.00    +0.000 A 
ATOM     12  C9  UNL     1      24.002  -7.546 -36.475  0.00  0.00    +0.000 A 
ATOM     13  C10 UNL     1      24.253  -8.291 -37.634  0.00  0.00    +0.000 A 
ATOM     14  C11 UNL     1      25.191  -7.837 -38.597  0.00  0.00    +0.000 A 
ATOM     15  C12 UNL     1      25.440  -8.515 -39.746  0.00  0.00    +0.000 C 
ATOM     16  N2  UNL     1      26.357  -7.972 -40.712  0.00  0.00    +0.000 N 
BRANCH  15  17
ATOM     17  O2  UNL     1      24.810  -9.727 -40.066  0.00  0.00    +0.000 OA
ATOM     18  H10 UNL     1      25.250 -10.540 -40.470  0.00  0.00    +0.000 HD
ENDBRANCH  15  17
BRANCH  16  19
ATOM     19  N3  UNL     1      26.593  -8.684 -41.904  0.00  0.00    +0.000 N 
ATOM     20  H11 UNL     1      26.656  -9.733 -41.854  0.00  0.00    +0.000 HD
BRANCH  19  21
ATOM     21  C13 UNL     1      26.627  -8.036 -43.184  0.00  0.00    +0.000 A 
ATOM     22  C14 UNL     1      27.840  -7.941 -43.881  0.00  0.00    +0.000 A 
ATOM     23  C15 UNL     1      27.881  -7.354 -45.151  0.00  0.00    +0.000 A 
ATOM     24  C16 UNL     1      26.710  -6.867 -45.736  0.00  0.00    +0.000 A 
ATOM     25  C17 UNL     1      25.494  -6.970 -45.053  0.00  0.00    +0.000 A 
ATOM     26  C18 UNL     1      25.450  -7.554 -43.783  0.00  0.00    +0.000 A 
ENDBRANCH  19  21
ENDBRANCH  16  19
ENDBRANCH   3   7
BRANCH   1  28
ATOM     27  C1  UNL     1      30.729 -10.019 -37.619  0.00  0.00    +0.000 C 
ATOM     28  O1  UNL     1      30.887  -9.750 -39.010  0.00  0.00    +0.000 OA
ENDBRANCH   1  28
BRANCH   6  29
ATOM     29  O3  UNL     1      32.722  -8.041 -40.183  0.00  0.00    +0.000 OA
BRANCH  29  30
ATOM     30  C22 UNL     1      33.660  -7.141 -39.589  0.00  0.00    +0.000 C 
BRANCH  30  31
ATOM     31  C23 UNL     1      33.418  -7.058 -38.115  0.00  0.00    +0.000 A 
ATOM     32  C24 UNL     1      33.672  -8.040 -37.184  0.00  0.00    +0.000 A 
ATOM     33  N4  UNL     1      33.361  -7.505 -35.993  0.00  0.00    +0.000 N 
ATOM     34  N7  UNL     1      32.982  -6.251 -36.175  0.00  0.00    +0.000 NA
ATOM     35  N8  UNL     1      33.014  -5.945 -37.464  0.00  0.00    +0.000 NA
BRANCH  33  36
ATOM     36  C25 UNL     1      33.493  -8.142 -34.691  0.00  0.00    +0.000 C 
BRANCH  36  37
ATOM     37  C26 UNL     1      32.139  -8.329 -34.080  0.00  0.00    +0.000 C 
ATOM     38  O4  UNL     1      32.034  -8.969 -33.000  0.00  0.00    +0.000 OA
ATOM     39  N5  UNL     1      30.983  -7.776 -34.721  0.00  0.00    +0.000 N 
ATOM     40  H24 UNL     1      31.127  -6.953 -35.342  0.00  0.00    +0.000 HD
BRANCH  39  41
ATOM     41  C27 UNL     1      29.627  -8.178 -34.452  0.00  0.00    +0.000 A 
ATOM     42  C28 UNL     1      28.685  -7.204 -34.095  0.00  0.00    +0.000 A 
ATOM     43  C29 UNL     1      27.352  -7.548 -33.855  0.00  0.00    +0.000 A 
ATOM     44  C30 UNL     1      26.932  -8.883 -33.979  0.00  0.00    +0.000 A 
ATOM     45  C31 UNL     1      27.869  -9.858 -34.364  0.00  0.00    +0.000 A 
ATOM     46  C32 UNL     1      29.202  -9.509 -34.602  0.00  0.00    +0.000 A 
BRANCH  44  47
ATOM     47  N6  UNL     1      25.562  -9.249 -33.740  0.00  0.00    +0.000 N 
ATOM     48  O5  UNL     1      25.160 -10.400 -34.008  0.00  0.00    +0.000 OA
ATOM     49  O6  UNL     1      24.670  -8.332 -33.225  0.00  0.00    +0.000 OA
ENDBRANCH  44  47
ENDBRANCH  39  41
ENDBRANCH  36  37
ENDBRANCH  33  36
ENDBRANCH  30  31
ENDBRANCH  29  30
ENDBRANCH   6  29
TORSDOF 12
ENDMDL
MODEL 9
REMARK VINA RESULT:    -5.669      4.711      7.231
REMARK INTER + INTRA:         -11.476
REMARK INTER:                 -10.022
REMARK INTRA:                  -1.455
REMARK UNBOUND:                -1.996
REMARK  Name = resultss/4CJN/ligands/lig_337_t2.pdb
REMARK  13 active torsions:
REMARK  status: ('A' for Active; 'I' for Inactive)
REMARK    1  A    between atoms: C1_1  and  O1_2
REMARK    2  A    between atoms: O1_2  and  C2_3
REMARK    3  A    between atoms: C4_5  and  C5_6
REMARK    4  A    between atoms: C12_14  and  O2_15
REMARK    5  A    between atoms: N2_16  and  N3_17
REMARK    6  A    between atoms: N3_17  and  C13_18
REMARK    7  A    between atoms: C21_26  and  O3_27
REMARK    8  A    between atoms: O3_27  and  C22_28
REMARK    9  A    between atoms: C22_28  and  C23_29
REMARK   10  A    between atoms: N4_31  and  C25_32
REMARK   11  A    between atoms: C25_32  and  C26_33
REMARK   12  A    between atoms: N5_35  and  C27_36
REMARK   13  A    between atoms: C30_39  and  N6_40
REMARK                            x       y       z     vdW  Elec       q    Type
REMARK                         _______ _______ _______ _____ _____    ______ ____
ROOT
ATOM      1  C2  UNL     1      27.165  -7.406 -38.202  0.00  0.00    +0.000 A 
ATOM      2  C3  UNL     1      27.985  -6.893 -37.178  0.00  0.00    +0.000 A 
ATOM      3  C4  UNL     1      28.472  -7.736 -36.163  0.00  0.00    +0.000 A 
ATOM      4  C19 UNL     1      28.166  -9.109 -36.200  0.00  0.00    +0.000 A 
ATOM      5  C20 UNL     1      27.363  -9.624 -37.220  0.00  0.00    +0.000 A 
ATOM      6  C21 UNL     1      26.852  -8.777 -38.215  0.00  0.00    +0.000 A 
ENDROOT
BRANCH   3   7
ATOM      7  C5  UNL     1      29.329  -7.174 -35.053  0.00  0.00    +0.000 C 
ATOM      8  N1  UNL     1      30.603  -7.886 -35.013  0.00  0.00    +0.000 NA
ATOM      9  C6  UNL     1      31.038  -8.599 -34.014  0.00  0.00    +0.000 A 
ATOM     10  C7  UNL     1      32.288  -9.221 -34.142  0.00  0.00    +0.000 A 
ATOM     11  C8  UNL     1      32.808  -9.991 -33.101  0.00  0.00    +0.000 A 
ATOM     12  C9  UNL     1      32.078 -10.157 -31.925  0.00  0.00    +0.000 A 
ATOM     13  C10 UNL     1      30.826  -9.546 -31.779  0.00  0.00    +0.000 A 
ATOM     14  C11 UNL     1      30.283  -8.748 -32.820  0.00  0.00    +0.000 A 
ATOM     15  C12 UNL     1      29.088  -8.117 -32.705  0.00  0.00    +0.000 C 
ATOM     16  N2  UNL     1      28.620  -7.272 -33.771  0.00  0.00    +0.000 N 
BRANCH  15  17
ATOM     17  O2  UNL     1      28.282  -8.217 -31.562  0.00  0.00    +0.000 OA
ATOM     18  H10 UNL     1      27.510  -8.853 -31.429  0.00  0.00    +0.000 HD
ENDBRANCH  15  17
BRANCH  16  19
ATOM     19  N3  UNL     1      27.383  -6.615 -33.628  0.00  0.00    +0.000 N 
ATOM     20  H11 UNL     1      27.388  -5.593 -33.377  0.00  0.00    +0.000 HD
BRANCH  19  21
ATOM     21  C13 UNL     1      26.138  -7.262 -33.929  0.00  0.00    +0.000 A 
ATOM     22  C14 UNL     1      25.869  -8.530 -33.395  0.00  0.00    +0.000 A 
ATOM     23  C15 UNL     1      24.640  -9.154 -33.641  0.00  0.00    +0.000 A 
ATOM     24  C16 UNL     1      23.670  -8.510 -34.411  0.00  0.00    +0.000 A 
ATOM     25  C17 UNL     1      23.925  -7.239 -34.936  0.00  0.00    +0.000 A 
ATOM     26  C18 UNL     1      25.153  -6.614 -34.694  0.00  0.00    +0.000 A 
ENDBRANCH  19  21
ENDBRANCH  16  19
ENDBRANCH   3   7
BRANCH   1  28
ATOM     27  C1  UNL     1      27.455  -5.893 -40.177  0.00  0.00    +0.000 C 
ATOM     28  O1  UNL     1      26.657  -6.596 -39.229  0.00  0.00    +0.000 OA
ENDBRANCH   1  28
BRANCH   6  29
ATOM     29  O3  UNL     1      26.025  -9.292 -39.217  0.00  0.00    +0.000 OA
BRANCH  29  30
ATOM     30  C22 UNL     1      26.547  -9.988 -40.350  0.00  0.00    +0.000 C 
BRANCH  30  31
ATOM     31  C23 UNL     1      25.922  -9.460 -41.602  0.00  0.00    +0.000 A 
ATOM     32  C24 UNL     1      26.377  -8.409 -42.368  0.00  0.00    +0.000 A 
ATOM     33  N4  UNL     1      25.544  -8.333 -43.418  0.00  0.00    +0.000 N 
ATOM     34  N7  UNL     1      24.656  -9.310 -43.329  0.00  0.00    +0.000 NA
ATOM     35  N8  UNL     1      24.866 -10.022 -42.231  0.00  0.00    +0.000 NA
BRANCH  33  36
ATOM     36  C25 UNL     1      25.629  -7.400 -44.532  0.00  0.00    +0.000 C 
BRANCH  36  37
ATOM     37  C26 UNL     1      24.271  -6.852 -44.838  0.00  0.00    +0.000 C 
ATOM     38  O4  UNL     1      23.827  -5.890 -44.155  0.00  0.00    +0.000 OA
ATOM     39  N5  UNL     1      23.495  -7.415 -45.902  0.00  0.00    +0.000 N 
ATOM     40  H24 UNL     1      24.011  -7.894 -46.669  0.00  0.00    +0.000 HD
BRANCH  39  41
ATOM     41  C27 UNL     1      22.075  -7.239 -46.063  0.00  0.00    +0.000 A 
ATOM     42  C28 UNL     1      21.307  -6.856 -44.956  0.00  0.00    +0.000 A 
ATOM     43  C29 UNL     1      19.931  -6.645 -45.075  0.00  0.00    +0.000 A 
ATOM     44  C30 UNL     1      19.295  -6.804 -46.319  0.00  0.00    +0.000 A 
ATOM     45  C31 UNL     1      20.069  -7.160 -47.437  0.00  0.00    +0.000 A 
ATOM     46  C32 UNL     1      21.445  -7.371 -47.312  0.00  0.00    +0.000 A 
BRANCH  44  47
ATOM     47  N6  UNL     1      17.881  -6.584 -46.456  0.00  0.00    +0.000 N 
ATOM     48  O5  UNL     1      17.092  -6.971 -45.569  0.00  0.00    +0.000 OA
ATOM     49  O6  UNL     1      17.373  -5.954 -47.573  0.00  0.00    +0.000 OA
ENDBRANCH  44  47
ENDBRANCH  39  41
ENDBRANCH  36  37
ENDBRANCH  33  36
ENDBRANCH  30  31
ENDBRANCH  29  30
ENDBRANCH   6  29
TORSDOF 12
ENDMDL
