MODEL 1
REMARK VINA RESULT:    -7.499      0.000      0.000
REMARK INTER + INTRA:         -10.279
REMARK INTER:                  -9.472
REMARK INTRA:                  -0.807
REMARK UNBOUND:                -0.807
REMARK  Name = resultss/4CJN/ligands/lig_411_t1.pdb
REMARK  5 active torsions:
REMARK  status: ('A' for Active; 'I' for Inactive)
REMARK    1  A    between atoms: C1_2  and  C9_15
REMARK    2  A    between atoms: N1_3  and  N2_4
REMARK    3  A    between atoms: C2_5  and  S1_6
REMARK    4  A    between atoms: N3_7  and  C3_8
REMARK    5  A    between atoms: C19_26  and  C20_27
REMARK                            x       y       z     vdW  Elec       q    Type
REMARK                         _______ _______ _______ _____ _____    ______ ____
ROOT
ATOM      1  C9  UNL     1      28.666 -10.160 -40.515  0.00  0.00    +0.000 A 
ATOM      2  C10 UNL     1      28.643 -10.255 -39.106  0.00  0.00    +0.000 A 
ATOM      3  C11 UNL     1      27.542  -9.715 -38.451  0.00  0.00    +0.000 A 
ATOM      4  C12 UNL     1      26.504  -9.119 -39.132  0.00  0.00    +0.000 A 
ATOM      5  N4  UNL     1      25.579  -8.618 -38.278  0.00  0.00    +0.000 N 
ATOM      6  C13 UNL     1      26.042  -8.925 -37.047  0.00  0.00    +0.000 A 
ATOM      7  C14 UNL     1      25.448  -8.619 -35.824  0.00  0.00    +0.000 A 
ATOM      8  C15 UNL     1      26.108  -9.026 -34.650  0.00  0.00    +0.000 A 
ATOM      9  C16 UNL     1      27.340  -9.716 -34.722  0.00  0.00    +0.000 A 
ATOM     10  C17 UNL     1      27.924 -10.008 -35.968  0.00  0.00    +0.000 A 
ATOM     11  C18 UNL     1      27.243  -9.600 -37.113  0.00  0.00    +0.000 A 
ATOM     12  C19 UNL     1      26.529  -9.047 -40.531  0.00  0.00    +0.000 A 
ATOM     13  N5  UNL     1      27.620  -9.565 -41.172  0.00  0.00    +0.000 NA
ATOM     14  H9  UNL     1      24.712  -8.081 -38.504  0.00  0.00    +0.000 HD
ENDROOT
BRANCH  12  15
ATOM     15  C20 UNL     1      25.439  -8.444 -41.326  0.00  0.00    +0.000 A 
ATOM     16  C21 UNL     1      25.401  -7.059 -41.569  0.00  0.00    +0.000 A 
ATOM     17  C22 UNL     1      24.349  -6.500 -42.301  0.00  0.00    +0.000 A 
ATOM     18  C23 UNL     1      23.321  -7.313 -42.783  0.00  0.00    +0.000 A 
ATOM     19  C24 UNL     1      23.339  -8.687 -42.527  0.00  0.00    +0.000 A 
ATOM     20  C25 UNL     1      24.388  -9.251 -41.796  0.00  0.00    +0.000 A 
ENDBRANCH  12  15
BRANCH   1  22
ATOM     21  O1  UNL     1      29.692 -11.804 -41.888  0.00  0.00    +0.000 OA
ATOM     22  C1  UNL     1      29.805 -10.698 -41.291  0.00  0.00    +0.000 C 
ATOM     23  N1  UNL     1      31.039  -9.977 -41.374  0.00  0.00    +0.000 N 
ATOM     24  H1  UNL     1      31.141  -9.077 -40.854  0.00  0.00    +0.000 HD
BRANCH  23  25
ATOM     25  N2  UNL     1      32.091 -10.483 -42.157  0.00  0.00    +0.000 NA
ATOM     26  C2  UNL     1      33.348 -10.420 -41.829  0.00  0.00    +0.000 C 
ATOM     27  N3  UNL     1      34.346 -10.981 -42.695  0.00  0.00    +0.000 N 
ATOM     28  H3  UNL     1      35.280 -11.197 -42.278  0.00  0.00    +0.000 HD
BRANCH  27  29
ATOM     29  C3  UNL     1      34.120 -11.340 -44.070  0.00  0.00    +0.000 A 
ATOM     30  C4  UNL     1      34.380 -10.399 -45.078  0.00  0.00    +0.000 A 
ATOM     31  C5  UNL     1      34.142 -10.717 -46.419  0.00  0.00    +0.000 A 
ATOM     32  C6  UNL     1      33.633 -11.972 -46.763  0.00  0.00    +0.000 A 
ATOM     33  C7  UNL     1      33.352 -12.910 -45.765  0.00  0.00    +0.000 A 
ATOM     34 CL1  UNL     1      32.681 -14.474 -46.194  0.00  0.00    +0.000 Cl
ATOM     35  C8  UNL     1      33.583 -12.594 -44.421  0.00  0.00    +0.000 A 
ENDBRANCH  27  29
BRANCH  26  36
ATOM     36  S1  UNL     1      33.883  -9.702 -40.269  0.00  0.00    +0.000 S 
ATOM     37  H2  UNL     1      33.703 -10.921 -39.591  0.00  0.00    +0.000 HD
ENDBRANCH  26  36
ENDBRANCH  23  25
ENDBRANCH   1  22
TORSDOF 5
ENDMDL
MODEL 2
REMARK VINA RESULT:    -7.050      4.265      8.441
REMARK INTER + INTRA:          -9.711
REMARK INTER:                  -9.590
REMARK INTRA:                  -0.121
REMARK UNBOUND:                -0.807
REMARK  Name = resultss/4CJN/ligands/lig_411_t1.pdb
REMARK  5 active torsions:
REMARK  status: ('A' for Active; 'I' for Inactive)
REMARK    1  A    between atoms: C1_2  and  C9_15
REMARK    2  A    between atoms: N1_3  and  N2_4
REMARK    3  A    between atoms: C2_5  and  S1_6
REMARK    4  A    between atoms: N3_7  and  C3_8
REMARK    5  A    between atoms: C19_26  and  C20_27
REMARK                            x       y       z     vdW  Elec       q    Type
REMARK                         _______ _______ _______ _____ _____    ______ ____
ROOT
ATOM      1  C9  UNL     1      26.550  -9.448 -41.711  0.00  0.00    +0.000 A 
ATOM      2  C10 UNL     1      26.229  -9.294 -40.345  0.00  0.00    +0.000 A 
ATOM      3  C11 UNL     1      27.227  -9.580 -39.421  0.00  0.00    +0.000 A 
ATOM      4  C12 UNL     1      28.486  -9.988 -39.805  0.00  0.00    +0.000 A 
ATOM      5  N4  UNL     1      29.264 -10.262 -38.731  0.00  0.00    +0.000 N 
ATOM      6  C13 UNL     1      28.480 -10.003 -37.661  0.00  0.00    +0.000 A 
ATOM      7  C14 UNL     1      28.821 -10.135 -36.316  0.00  0.00    +0.000 A 
ATOM      8  C15 UNL     1      27.844  -9.819 -35.354  0.00  0.00    +0.000 A 
ATOM      9  C16 UNL     1      26.558  -9.387 -35.752  0.00  0.00    +0.000 A 
ATOM     10  C17 UNL     1      26.235  -9.266 -37.116  0.00  0.00    +0.000 A 
ATOM     11  C18 UNL     1      27.225  -9.579 -38.045  0.00  0.00    +0.000 A 
ATOM     12  C19 UNL     1      28.798 -10.121 -41.164  0.00  0.00    +0.000 A 
ATOM     13  N5  UNL     1      27.809  -9.854 -42.071  0.00  0.00    +0.000 NA
ATOM     14  H9  UNL     1      30.242 -10.628 -38.715  0.00  0.00    +0.000 HD
ENDROOT
BRANCH  12  15
ATOM     15  C20 UNL     1      30.134 -10.530 -41.648  0.00  0.00    +0.000 A 
ATOM     16  C21 UNL     1      31.287  -9.816 -41.274  0.00  0.00    +0.000 A 
ATOM     17  C22 UNL     1      32.541 -10.198 -41.761  0.00  0.00    +0.000 A 
ATOM     18  C23 UNL     1      32.653 -11.285 -42.633  0.00  0.00    +0.000 A 
ATOM     19  C24 UNL     1      31.510 -11.985 -43.027  0.00  0.00    +0.000 A 
ATOM     20  C25 UNL     1      30.254 -11.606 -42.543  0.00  0.00    +0.000 A 
ENDBRANCH  12  15
BRANCH   1  22
ATOM     21  O1  UNL     1      24.661 -10.038 -43.024  0.00  0.00    +0.000 OA
ATOM     22  C1  UNL     1      25.543  -9.176 -42.760  0.00  0.00    +0.000 C 
ATOM     23  N1  UNL     1      25.558  -7.940 -43.484  0.00  0.00    +0.000 N 
ATOM     24  H1  UNL     1      26.307  -7.241 -43.286  0.00  0.00    +0.000 HD
BRANCH  23  25
ATOM     25  N2  UNL     1      24.562  -7.683 -44.443  0.00  0.00    +0.000 NA
ATOM     26  C2  UNL     1      24.793  -7.222 -45.637  0.00  0.00    +0.000 C 
ATOM     27  N3  UNL     1      23.705  -7.006 -46.547  0.00  0.00    +0.000 N 
ATOM     28  H3  UNL     1      23.932  -6.944 -47.566  0.00  0.00    +0.000 HD
BRANCH  27  29
ATOM     29  C3  UNL     1      22.320  -6.951 -46.160  0.00  0.00    +0.000 A 
ATOM     30  C4  UNL     1      21.325  -7.155 -47.128  0.00  0.00    +0.000 A 
ATOM     31  C5  UNL     1      19.973  -7.079 -46.779  0.00  0.00    +0.000 A 
ATOM     32  C6  UNL     1      19.604  -6.789 -45.463  0.00  0.00    +0.000 A 
ATOM     33  C7  UNL     1      20.586  -6.563 -44.494  0.00  0.00    +0.000 A 
ATOM     34 CL1  UNL     1      20.123  -6.165 -42.849  0.00  0.00    +0.000 Cl
ATOM     35  C8  UNL     1      21.941  -6.632 -44.841  0.00  0.00    +0.000 A 
ENDBRANCH  27  29
BRANCH  26  36
ATOM     36  S1  UNL     1      26.465  -6.905 -46.221  0.00  0.00    +0.000 S 
ATOM     37  H2  UNL     1      26.097  -7.153 -47.556  0.00  0.00    +0.000 HD
ENDBRANCH  26  36
ENDBRANCH  23  25
ENDBRANCH   1  22
TORSDOF 5
ENDMDL
MODEL 3
REMARK VINA RESULT:    -6.739      1.395      2.033
REMARK INTER + INTRA:          -9.319
REMARK INTER:                  -8.824
REMARK INTRA:                  -0.495
REMARK UNBOUND:                -0.807
REMARK  Name = resultss/4CJN/ligands/lig_411_t1.pdb
REMARK  5 active torsions:
REMARK  status: ('A' for Active; 'I' for Inactive)
REMARK    1  A    between atoms: C1_2  and  C9_15
REMARK    2  A    between atoms: N1_3  and  N2_4
REMARK    3  A    between atoms: C2_5  and  S1_6
REMARK    4  A    between atoms: N3_7  and  C3_8
REMARK    5  A    between atoms: C19_26  and  C20_27
REMARK                            x       y       z     vdW  Elec       q    Type
REMARK                         _______ _______ _______ _____ _____    ______ ____
ROOT
ATOM      1  C9  UNL     1      27.517  -9.280 -40.935  0.00  0.00    +0.000 A 
ATOM      2  C10 UNL     1      27.408  -9.376 -39.530  0.00  0.00    +0.000 A 
ATOM      3  C11 UNL     1      26.254  -8.867 -38.946  0.00  0.00    +0.000 A 
ATOM      4  C12 UNL     1      25.245  -8.298 -39.692  0.00  0.00    +0.000 A 
ATOM      5  N4  UNL     1      24.255  -7.823 -38.899  0.00  0.00    +0.000 N 
ATOM      6  C13 UNL     1      24.648  -8.118 -37.641  0.00  0.00    +0.000 A 
ATOM      7  C14 UNL     1      23.969  -7.830 -36.458  0.00  0.00    +0.000 A 
ATOM      8  C15 UNL     1      24.565  -8.219 -35.244  0.00  0.00    +0.000 A 
ATOM      9  C16 UNL     1      25.817  -8.876 -35.237  0.00  0.00    +0.000 A 
ATOM     10  C17 UNL     1      26.486  -9.152 -36.444  0.00  0.00    +0.000 A 
ATOM     11  C18 UNL     1      25.868  -8.761 -37.630  0.00  0.00    +0.000 A 
ATOM     12  C19 UNL     1      25.356  -8.224 -41.087  0.00  0.00    +0.000 A 
ATOM     13  N5  UNL     1      26.499  -8.712 -41.658  0.00  0.00    +0.000 NA
ATOM     14  H9  UNL     1      23.390  -7.309 -39.180  0.00  0.00    +0.000 HD
ENDROOT
BRANCH  12  15
ATOM     15  C20 UNL     1      24.302  -7.651 -41.950  0.00  0.00    +0.000 A 
ATOM     16  C21 UNL     1      23.059  -8.292 -42.096  0.00  0.00    +0.000 A 
ATOM     17  C22 UNL     1      22.082  -7.752 -42.938  0.00  0.00    +0.000 A 
ATOM     18  C23 UNL     1      22.340  -6.577 -43.648  0.00  0.00    +0.000 A 
ATOM     19  C24 UNL     1      23.581  -5.946 -43.526  0.00  0.00    +0.000 A 
ATOM     20  C25 UNL     1      24.561  -6.482 -42.686  0.00  0.00    +0.000 A 
ENDBRANCH  12  15
BRANCH   1  22
ATOM     21  O1  UNL     1      28.705  -9.909 -42.893  0.00  0.00    +0.000 OA
ATOM     22  C1  UNL     1      28.716  -9.787 -41.637  0.00  0.00    +0.000 C 
ATOM     23  N1  UNL     1      29.896 -10.141 -40.906  0.00  0.00    +0.000 N 
ATOM     24  H1  UNL     1      29.893 -10.069 -39.865  0.00  0.00    +0.000 HD
BRANCH  23  25
ATOM     25  N2  UNL     1      31.040 -10.575 -41.598  0.00  0.00    +0.000 NA
ATOM     26  C2  UNL     1      32.247 -10.146 -41.367  0.00  0.00    +0.000 C 
ATOM     27  N3  UNL     1      33.351 -10.664 -42.123  0.00  0.00    +0.000 N 
ATOM     28  H3  UNL     1      34.308 -10.549 -41.719  0.00  0.00    +0.000 HD
BRANCH  27  29
ATOM     29  C3  UNL     1      33.220 -11.399 -43.353  0.00  0.00    +0.000 A 
ATOM     30  C4  UNL     1      32.569 -12.642 -43.347  0.00  0.00    +0.000 A 
ATOM     31  C5  UNL     1      32.454 -13.385 -44.526  0.00  0.00    +0.000 A 
ATOM     32  C6  UNL     1      32.998 -12.899 -45.718  0.00  0.00    +0.000 A 
ATOM     33  C7  UNL     1      33.667 -11.672 -45.732  0.00  0.00    +0.000 A 
ATOM     34 CL1  UNL     1      34.380 -11.076 -47.221  0.00  0.00    +0.000 Cl
ATOM     35  C8  UNL     1      33.789 -10.927 -44.553  0.00  0.00    +0.000 A 
ENDBRANCH  27  29
BRANCH  26  36
ATOM     36  S1  UNL     1      32.593  -8.956 -40.064  0.00  0.00    +0.000 S 
ATOM     37  H2  UNL     1      33.474  -9.844 -39.421  0.00  0.00    +0.000 HD
ENDBRANCH  26  36
ENDBRANCH  23  25
ENDBRANCH   1  22
TORSDOF 5
ENDMDL
MODEL 4
REMARK VINA RESULT:    -6.723      4.319      8.689
REMARK INTER + INTRA:          -9.299
REMARK INTER:                  -8.480
REMARK INTRA:                  -0.819
REMARK UNBOUND:                -0.807
REMARK  Name = resultss/4CJN/ligands/lig_411_t1.pdb
REMARK  5 active torsions:
REMARK  status: ('A' for Active; 'I' for Inactive)
REMARK    1  A    between atoms: C1_2  and  C9_15
REMARK    2  A    between atoms: N1_3  and  N2_4
REMARK    3  A    between atoms: C2_5  and  S1_6
REMARK    4  A    between atoms: N3_7  and  C3_8
REMARK    5  A    between atoms: C19_26  and  C20_27
REMARK                            x       y       z     vdW  Elec       q    Type
REMARK                         _______ _______ _______ _____ _____    ______ ____
ROOT
ATOM      1  C9  UNL     1      29.180  -9.873 -39.160  0.00  0.00    +0.000 A 
ATOM      2  C10 UNL     1      27.905  -9.355 -39.475  0.00  0.00    +0.000 A 
ATOM      3  C11 UNL     1      27.530  -9.358 -40.813  0.00  0.00    +0.000 A 
ATOM      4  C12 UNL     1      28.352  -9.852 -41.803  0.00  0.00    +0.000 A 
ATOM      5  N4  UNL     1      27.796  -9.694 -43.028  0.00  0.00    +0.000 N 
ATOM      6  C13 UNL     1      26.602  -9.108 -42.793  0.00  0.00    +0.000 A 
ATOM      7  C14 UNL     1      25.649  -8.732 -43.738  0.00  0.00    +0.000 A 
ATOM      8  C15 UNL     1      24.467  -8.122 -43.276  0.00  0.00    +0.000 A 
ATOM      9  C16 UNL     1      24.268  -7.898 -41.895  0.00  0.00    +0.000 A 
ATOM     10  C17 UNL     1      25.247  -8.281 -40.960  0.00  0.00    +0.000 A 
ATOM     11  C18 UNL     1      26.402  -8.889 -41.446  0.00  0.00    +0.000 A 
ATOM     12  C19 UNL     1      29.607 -10.381 -41.477  0.00  0.00    +0.000 A 
ATOM     13  N5  UNL     1      29.980 -10.362 -40.161  0.00  0.00    +0.000 NA
ATOM     14  H9  UNL     1      28.202  -9.934 -43.960  0.00  0.00    +0.000 HD
ENDROOT
BRANCH  12  15
ATOM     15  C20 UNL     1      30.528 -10.949 -42.483  0.00  0.00    +0.000 A 
ATOM     16  C21 UNL     1      30.679 -12.341 -42.620  0.00  0.00    +0.000 A 
ATOM     17  C22 UNL     1      31.574 -12.865 -43.557  0.00  0.00    +0.000 A 
ATOM     18  C23 UNL     1      32.334 -12.006 -44.356  0.00  0.00    +0.000 A 
ATOM     19  C24 UNL     1      32.207 -10.622 -44.211  0.00  0.00    +0.000 A 
ATOM     20  C25 UNL     1      31.314 -10.094 -43.274  0.00  0.00    +0.000 A 
ENDBRANCH  12  15
BRANCH   1  22
ATOM     21  O1  UNL     1      30.889 -10.075 -37.523  0.00  0.00    +0.000 OA
ATOM     22  C1  UNL     1      29.663  -9.898 -37.762  0.00  0.00    +0.000 C 
ATOM     23  N1  UNL     1      28.753  -9.721 -36.671  0.00  0.00    +0.000 N 
ATOM     24  H1  UNL     1      27.735  -9.604 -36.869  0.00  0.00    +0.000 HD
BRANCH  23  25
ATOM     25  N2  UNL     1      29.240  -9.699 -35.353  0.00  0.00    +0.000 NA
ATOM     26  C2  UNL     1      28.490  -9.699 -34.290  0.00  0.00    +0.000 C 
ATOM     27  N3  UNL     1      29.089  -9.689 -32.986  0.00  0.00    +0.000 N 
ATOM     28  H3  UNL     1      28.500 -10.002 -32.181  0.00  0.00    +0.000 HD
BRANCH  27  29
ATOM     29  C3  UNL     1      30.465  -9.358 -32.727  0.00  0.00    +0.000 A 
ATOM     30  C4  UNL     1      30.852  -8.010 -32.680  0.00  0.00    +0.000 A 
ATOM     31  C5  UNL     1      32.188  -7.665 -32.456  0.00  0.00    +0.000 A 
ATOM     32  C6  UNL     1      33.152  -8.663 -32.288  0.00  0.00    +0.000 A 
ATOM     33  C7  UNL     1      32.782 -10.010 -32.353  0.00  0.00    +0.000 A 
ATOM     34 CL1  UNL     1      33.996 -11.264 -32.176  0.00  0.00    +0.000 Cl
ATOM     35  C8  UNL     1      31.445 -10.359 -32.583  0.00  0.00    +0.000 A 
ENDBRANCH  27  29
BRANCH  26  36
ATOM     36  S1  UNL     1      26.696  -9.780 -34.400  0.00  0.00    +0.000 S 
ATOM     37  H2  UNL     1      26.756 -10.604 -35.539  0.00  0.00    +0.000 HD
ENDBRANCH  26  36
ENDBRANCH  23  25
ENDBRANCH   1  22
TORSDOF 5
ENDMDL
MODEL 5
REMARK VINA RESULT:    -6.667      5.090      8.771
REMARK INTER + INTRA:          -9.228
REMARK INTER:                  -8.990
REMARK INTRA:                  -0.238
REMARK UNBOUND:                -0.807
REMARK  Name = resultss/4CJN/ligands/lig_411_t1.pdb
REMARK  5 active torsions:
REMARK  status: ('A' for Active; 'I' for Inactive)
REMARK    1  A    between atoms: C1_2  and  C9_15
REMARK    2  A    between atoms: N1_3  and  N2_4
REMARK    3  A    between atoms: C2_5  and  S1_6
REMARK    4  A    between atoms: N3_7  and  C3_8
REMARK    5  A    between atoms: C19_26  and  C20_27
REMARK                            x       y       z     vdW  Elec       q    Type
REMARK                         _______ _______ _______ _____ _____    ______ ____
ROOT
ATOM      1  C9  UNL     1      24.612  -8.101 -41.799  0.00  0.00    +0.000 A 
ATOM      2  C10 UNL     1      23.224  -7.857 -41.888  0.00  0.00    +0.000 A 
ATOM      3  C11 UNL     1      22.740  -7.370 -43.097  0.00  0.00    +0.000 A 
ATOM      4  C12 UNL     1      23.564  -7.139 -44.176  0.00  0.00    +0.000 A 
ATOM      5  N4  UNL     1      22.876  -6.611 -45.217  0.00  0.00    +0.000 N 
ATOM      6  C13 UNL     1      21.600  -6.530 -44.782  0.00  0.00    +0.000 A 
ATOM      7  C14 UNL     1      20.500  -6.044 -45.487  0.00  0.00    +0.000 A 
ATOM      8  C15 UNL     1      19.251  -6.039 -44.839  0.00  0.00    +0.000 A 
ATOM      9  C16 UNL     1      19.130  -6.508 -43.511  0.00  0.00    +0.000 A 
ATOM     10  C17 UNL     1      20.256  -6.988 -42.816  0.00  0.00    +0.000 A 
ATOM     11  C18 UNL     1      21.477  -6.988 -43.487  0.00  0.00    +0.000 A 
ATOM     12  C19 UNL     1      24.937  -7.402 -44.082  0.00  0.00    +0.000 A 
ATOM     13  N5  UNL     1      25.413  -7.867 -42.887  0.00  0.00    +0.000 NA
ATOM     14  H9  UNL     1      23.242  -6.298 -46.144  0.00  0.00    +0.000 HD
ENDROOT
BRANCH  12  15
ATOM     15  C20 UNL     1      25.875  -7.202 -45.207  0.00  0.00    +0.000 A 
ATOM     16  C21 UNL     1      25.402  -7.047 -46.523  0.00  0.00    +0.000 A 
ATOM     17  C22 UNL     1      26.302  -6.886 -47.581  0.00  0.00    +0.000 A 
ATOM     18  C23 UNL     1      27.678  -6.890 -47.337  0.00  0.00    +0.000 A 
ATOM     19  C24 UNL     1      28.156  -7.065 -46.036  0.00  0.00    +0.000 A 
ATOM     20  C25 UNL     1      27.260  -7.228 -44.976  0.00  0.00    +0.000 A 
ENDBRANCH  12  15
BRANCH   1  22
ATOM     21  O1  UNL     1      24.488  -9.197 -39.696  0.00  0.00    +0.000 OA
ATOM     22  C1  UNL     1      25.212  -8.610 -40.547  0.00  0.00    +0.000 C 
ATOM     23  N1  UNL     1      26.610  -8.444 -40.286  0.00  0.00    +0.000 N 
ATOM     24  H1  UNL     1      27.201  -7.931 -40.977  0.00  0.00    +0.000 HD
BRANCH  23  25
ATOM     25  N2  UNL     1      27.168  -8.978 -39.112  0.00  0.00    +0.000 NA
ATOM     26  C2  UNL     1      27.644 -10.185 -39.005  0.00  0.00    +0.000 C 
ATOM     27  N3  UNL     1      28.205 -10.629 -37.761  0.00  0.00    +0.000 N 
ATOM     28  H3  UNL     1      28.846 -11.454 -37.789  0.00  0.00    +0.000 HD
BRANCH  27  29
ATOM     29  C3  UNL     1      28.010  -9.966 -36.499  0.00  0.00    +0.000 A 
ATOM     30  C4  UNL     1      29.101  -9.346 -35.870  0.00  0.00    +0.000 A 
ATOM     31  C5  UNL     1      28.939  -8.720 -34.631  0.00  0.00    +0.000 A 
ATOM     32  C6  UNL     1      27.691  -8.717 -34.003  0.00  0.00    +0.000 A 
ATOM     33  C7  UNL     1      26.602  -9.349 -34.610  0.00  0.00    +0.000 A 
ATOM     34 CL1  UNL     1      25.042  -9.375 -33.807  0.00  0.00    +0.000 Cl
ATOM     35  C8  UNL     1      26.760  -9.982 -35.849  0.00  0.00    +0.000 A 
ENDBRANCH  27  29
BRANCH  26  36
ATOM     36  S1  UNL     1      27.684 -11.311 -40.406  0.00  0.00    +0.000 S 
ATOM     37  H2  UNL     1      27.732 -12.436 -39.562  0.00  0.00    +0.000 HD
ENDBRANCH  26  36
ENDBRANCH  23  25
ENDBRANCH   1  22
TORSDOF 5
ENDMDL
MODEL 6
REMARK VINA RESULT:    -6.588      4.541      8.140
REMARK INTER + INTRA:          -9.128
REMARK INTER:                  -8.900
REMARK INTRA:                  -0.228
REMARK UNBOUND:                -0.807
REMARK  Name = resultss/4CJN/ligands/lig_411_t1.pdb
REMARK  5 active torsions:
REMARK  status: ('A' for Active; 'I' for Inactive)
REMARK    1  A    between atoms: C1_2  and  C9_15
REMARK    2  A    between atoms: N1_3  and  N2_4
REMARK    3  A    between atoms: C2_5  and  S1_6
REMARK    4  A    between atoms: N3_7  and  C3_8
REMARK    5  A    between atoms: C19_26  and  C20_27
REMARK                            x       y       z     vdW  Elec       q    Type
REMARK                         _______ _______ _______ _____ _____    ______ ____
ROOT
ATOM      1  C9  UNL     1      25.963  -8.002 -42.399  0.00  0.00    +0.000 A 
ATOM      2  C10 UNL     1      26.655  -7.755 -43.604  0.00  0.00    +0.000 A 
ATOM      3  C11 UNL     1      25.920  -7.242 -44.666  0.00  0.00    +0.000 A 
ATOM      4  C12 UNL     1      24.573  -6.971 -44.562  0.00  0.00    +0.000 A 
ATOM      5  N4  UNL     1      24.066  -6.537 -45.740  0.00  0.00    +0.000 N 
ATOM      6  C13 UNL     1      25.119  -6.521 -46.586  0.00  0.00    +0.000 A 
ATOM      7  C14 UNL     1      25.114  -6.151 -47.929  0.00  0.00    +0.000 A 
ATOM      8  C15 UNL     1      26.329  -6.217 -48.636  0.00  0.00    +0.000 A 
ATOM      9  C16 UNL     1      27.510  -6.654 -47.994  0.00  0.00    +0.000 A 
ATOM     10  C17 UNL     1      27.490  -7.028 -46.637  0.00  0.00    +0.000 A 
ATOM     11  C18 UNL     1      26.274  -6.945 -45.962  0.00  0.00    +0.000 A 
ATOM     12  C19 UNL     1      23.900  -7.203 -43.355  0.00  0.00    +0.000 A 
ATOM     13  N5  UNL     1      24.623  -7.722 -42.316  0.00  0.00    +0.000 NA
ATOM     14  H9  UNL     1      23.075  -6.297 -45.970  0.00  0.00    +0.000 HD
ENDROOT
BRANCH  12  15
ATOM     15  C20 UNL     1      22.463  -6.912 -43.165  0.00  0.00    +0.000 A 
ATOM     16  C21 UNL     1      21.572  -6.931 -44.253  0.00  0.00    +0.000 A 
ATOM     17  C22 UNL     1      20.221  -6.627 -44.063  0.00  0.00    +0.000 A 
ATOM     18  C23 UNL     1      19.751  -6.290 -42.791  0.00  0.00    +0.000 A 
ATOM     19  C24 UNL     1      20.634  -6.247 -41.709  0.00  0.00    +0.000 A 
ATOM     20  C25 UNL     1      21.986  -6.550 -41.895  0.00  0.00    +0.000 A 
ENDBRANCH  12  15
BRANCH   1  22
ATOM     21  O1  UNL     1      26.051  -9.314 -40.421  0.00  0.00    +0.000 OA
ATOM     22  C1  UNL     1      26.666  -8.558 -41.222  0.00  0.00    +0.000 C 
ATOM     23  N1  UNL     1      28.043  -8.247 -40.979  0.00  0.00    +0.000 N 
ATOM     24  H1  UNL     1      28.541  -7.596 -41.626  0.00  0.00    +0.000 HD
BRANCH  23  25
ATOM     25  N2  UNL     1      28.704  -8.824 -39.882  0.00  0.00    +0.000 NA
ATOM     26  C2  UNL     1      29.455  -9.885 -39.950  0.00  0.00    +0.000 C 
ATOM     27  N3  UNL     1      30.098 -10.387 -38.769  0.00  0.00    +0.000 N 
ATOM     28  H3  UNL     1      30.919 -11.022 -38.900  0.00  0.00    +0.000 HD
BRANCH  27  29
ATOM     29  C3  UNL     1      29.740 -10.012 -37.427  0.00  0.00    +0.000 A 
ATOM     30  C4  UNL     1      30.735  -9.545 -36.554  0.00  0.00    +0.000 A 
ATOM     31  C5  UNL     1      30.415  -9.200 -35.237  0.00  0.00    +0.000 A 
ATOM     32  C6  UNL     1      29.102  -9.329 -34.778  0.00  0.00    +0.000 A 
ATOM     33  C7  UNL     1      28.106  -9.813 -35.632  0.00  0.00    +0.000 A 
ATOM     34 CL1  UNL     1      26.464 -10.008 -35.046  0.00  0.00    +0.000 Cl
ATOM     35  C8  UNL     1      28.424 -10.165 -36.950  0.00  0.00    +0.000 A 
ENDBRANCH  27  29
BRANCH  26  36
ATOM     36  S1  UNL     1      29.774 -10.718 -41.512  0.00  0.00    +0.000 S 
ATOM     37  H2  UNL     1      30.828 -11.464 -40.953  0.00  0.00    +0.000 HD
ENDBRANCH  26  36
ENDBRANCH  23  25
ENDBRANCH   1  22
TORSDOF 5
ENDMDL
MODEL 7
REMARK VINA RESULT:    -6.582      4.526      6.836
REMARK INTER + INTRA:          -9.120
REMARK INTER:                  -8.329
REMARK INTRA:                  -0.791
REMARK UNBOUND:                -0.807
REMARK  Name = resultss/4CJN/ligands/lig_411_t1.pdb
REMARK  5 active torsions:
REMARK  status: ('A' for Active; 'I' for Inactive)
REMARK    1  A    between atoms: C1_2  and  C9_15
REMARK    2  A    between atoms: N1_3  and  N2_4
REMARK    3  A    between atoms: C2_5  and  S1_6
REMARK    4  A    between atoms: N3_7  and  C3_8
REMARK    5  A    between atoms: C19_26  and  C20_27
REMARK                            x       y       z     vdW  Elec       q    Type
REMARK                         _______ _______ _______ _____ _____    ______ ____
ROOT
ATOM      1  C9  UNL     1      27.185  -8.896 -37.298  0.00  0.00    +0.000 A 
ATOM      2  C10 UNL     1      28.470  -9.191 -36.791  0.00  0.00    +0.000 A 
ATOM      3  C11 UNL     1      28.638  -9.131 -35.413  0.00  0.00    +0.000 A 
ATOM      4  C12 UNL     1      27.604  -8.810 -34.562  0.00  0.00    +0.000 A 
ATOM      5  N4  UNL     1      28.024  -8.759 -33.275  0.00  0.00    +0.000 N 
ATOM      6  C13 UNL     1      29.337  -9.071 -33.326  0.00  0.00    +0.000 A 
ATOM      7  C14 UNL     1      30.226  -9.149 -32.256  0.00  0.00    +0.000 A 
ATOM      8  C15 UNL     1      31.564  -9.483 -32.534  0.00  0.00    +0.000 A 
ATOM      9  C16 UNL     1      31.984  -9.724 -33.862  0.00  0.00    +0.000 A 
ATOM     10  C17 UNL     1      31.069  -9.634 -34.928  0.00  0.00    +0.000 A 
ATOM     11  C18 UNL     1      29.749  -9.309 -34.621  0.00  0.00    +0.000 A 
ATOM     12  C19 UNL     1      26.329  -8.537 -35.074  0.00  0.00    +0.000 A 
ATOM     13  N5  UNL     1      26.170  -8.581 -36.432  0.00  0.00    +0.000 NA
ATOM     14  H9  UNL     1      27.475  -8.502 -32.424  0.00  0.00    +0.000 HD
ENDROOT
BRANCH  12  15
ATOM     15  C20 UNL     1      25.169  -8.210 -34.218  0.00  0.00    +0.000 A 
ATOM     16  C21 UNL     1      24.807  -6.874 -33.971  0.00  0.00    +0.000 A 
ATOM     17  C22 UNL     1      23.724  -6.579 -33.137  0.00  0.00    +0.000 A 
ATOM     18  C23 UNL     1      23.003  -7.613 -32.534  0.00  0.00    +0.000 A 
ATOM     19  C24 UNL     1      23.369  -8.942 -32.757  0.00  0.00    +0.000 A 
ATOM     20  C25 UNL     1      24.452  -9.242 -33.590  0.00  0.00    +0.000 A 
ENDBRANCH  12  15
BRANCH   1  22
ATOM     21  O1  UNL     1      25.766  -9.202 -39.177  0.00  0.00    +0.000 OA
ATOM     22  C1  UNL     1      26.921  -8.925 -38.753  0.00  0.00    +0.000 C 
ATOM     23  N1  UNL     1      27.964  -8.639 -39.692  0.00  0.00    +0.000 N 
ATOM     24  H1  UNL     1      28.927  -8.439 -39.340  0.00  0.00    +0.000 HD
BRANCH  23  25
ATOM     25  N2  UNL     1      27.679  -8.625 -41.068  0.00  0.00    +0.000 NA
ATOM     26  C2  UNL     1      28.238  -9.408 -41.943  0.00  0.00    +0.000 C 
ATOM     27  N3  UNL     1      27.865  -9.322 -43.327  0.00  0.00    +0.000 N 
ATOM     28  H3  UNL     1      28.080 -10.143 -43.937  0.00  0.00    +0.000 HD
BRANCH  27  29
ATOM     29  C3  UNL     1      27.147  -8.219 -43.908  0.00  0.00    +0.000 A 
ATOM     30  C4  UNL     1      27.858  -7.202 -44.562  0.00  0.00    +0.000 A 
ATOM     31  C5  UNL     1      27.182  -6.107 -45.110  0.00  0.00    +0.000 A 
ATOM     32  C6  UNL     1      25.792  -6.013 -45.000  0.00  0.00    +0.000 A 
ATOM     33  C7  UNL     1      25.075  -7.010 -44.332  0.00  0.00    +0.000 A 
ATOM     34 CL1  UNL     1      23.334  -6.877 -44.163  0.00  0.00    +0.000 Cl
ATOM     35  C8  UNL     1      25.749  -8.105 -43.777  0.00  0.00    +0.000 A 
ENDBRANCH  27  29
BRANCH  26  36
ATOM     36  S1  UNL     1      29.432 -10.664 -41.462  0.00  0.00    +0.000 S 
ATOM     37  H2  UNL     1      29.728 -10.965 -42.803  0.00  0.00    +0.000 HD
ENDBRANCH  26  36
ENDBRANCH  23  25
ENDBRANCH   1  22
TORSDOF 5
ENDMDL
MODEL 8
REMARK VINA RESULT:    -6.568      6.126      9.484
REMARK INTER + INTRA:          -9.102
REMARK INTER:                  -8.953
REMARK INTRA:                  -0.149
REMARK UNBOUND:                -0.807
REMARK  Name = resultss/4CJN/ligands/lig_411_t1.pdb
REMARK  5 active torsions:
REMARK  status: ('A' for Active; 'I' for Inactive)
REMARK    1  A    between atoms: C1_2  and  C9_15
REMARK    2  A    between atoms: N1_3  and  N2_4
REMARK    3  A    between atoms: C2_5  and  S1_6
REMARK    4  A    between atoms: N3_7  and  C3_8
REMARK    5  A    between atoms: C19_26  and  C20_27
REMARK                            x       y       z     vdW  Elec       q    Type
REMARK                         _______ _______ _______ _____ _____    ______ ____
ROOT
ATOM      1  C9  UNL     1      24.774  -7.883 -40.749  0.00  0.00    +0.000 A 
ATOM      2  C10 UNL     1      25.774  -7.821 -41.744  0.00  0.00    +0.000 A 
ATOM      3  C11 UNL     1      25.383  -7.416 -43.015  0.00  0.00    +0.000 A 
ATOM      4  C12 UNL     1      24.080  -7.075 -43.307  0.00  0.00    +0.000 A 
ATOM      5  N4  UNL     1      23.933  -6.772 -44.619  0.00  0.00    +0.000 N 
ATOM      6  C13 UNL     1      25.169  -6.910 -45.147  0.00  0.00    +0.000 A 
ATOM      7  C14 UNL     1      25.544  -6.714 -46.474  0.00  0.00    +0.000 A 
ATOM      8  C15 UNL     1      26.893  -6.922 -46.817  0.00  0.00    +0.000 A 
ATOM      9  C16 UNL     1      27.828  -7.325 -45.837  0.00  0.00    +0.000 A 
ATOM     10  C17 UNL     1      27.425  -7.523 -44.503  0.00  0.00    +0.000 A 
ATOM     11  C18 UNL     1      26.085  -7.301 -44.193  0.00  0.00    +0.000 A 
ATOM     12  C19 UNL     1      23.100  -7.123 -42.308  0.00  0.00    +0.000 A 
ATOM     13  N5  UNL     1      23.484  -7.537 -41.062  0.00  0.00    +0.000 NA
ATOM     14  H9  UNL     1      23.059  -6.521 -45.132  0.00  0.00    +0.000 HD
ENDROOT
BRANCH  12  15
ATOM     15  C20 UNL     1      21.690  -6.748 -42.544  0.00  0.00    +0.000 A 
ATOM     16  C21 UNL     1      20.903  -6.208 -41.511  0.00  0.00    +0.000 A 
ATOM     17  C22 UNL     1      19.562  -5.883 -41.742  0.00  0.00    +0.000 A 
ATOM     18  C23 UNL     1      18.994  -6.106 -42.999  0.00  0.00    +0.000 A 
ATOM     19  C24 UNL     1      19.762  -6.663 -44.024  0.00  0.00    +0.000 A 
ATOM     20  C25 UNL     1      21.103  -6.990 -43.797  0.00  0.00    +0.000 A 
ENDBRANCH  12  15
BRANCH   1  22
ATOM     21  O1  UNL     1      25.936  -9.241 -39.187  0.00  0.00    +0.000 OA
ATOM     22  C1  UNL     1      25.101  -8.314 -39.373  0.00  0.00    +0.000 C 
ATOM     23  N1  UNL     1      24.479  -7.690 -38.244  0.00  0.00    +0.000 N 
ATOM     24  H1  UNL     1      23.765  -6.945 -38.401  0.00  0.00    +0.000 HD
BRANCH  23  25
ATOM     25  N2  UNL     1      24.840  -8.083 -36.944  0.00  0.00    +0.000 NA
ATOM     26  C2  UNL     1      24.067  -7.980 -35.902  0.00  0.00    +0.000 C 
ATOM     27  N3  UNL     1      24.529  -8.424 -34.618  0.00  0.00    +0.000 N 
ATOM     28  H3  UNL     1      23.807  -8.623 -33.888  0.00  0.00    +0.000 HD
BRANCH  27  29
ATOM     29  C3  UNL     1      25.906  -8.690 -34.297  0.00  0.00    +0.000 A 
ATOM     30  C4  UNL     1      26.554  -9.781 -34.894  0.00  0.00    +0.000 A 
ATOM     31  C5  UNL     1      27.884 -10.074 -34.577  0.00  0.00    +0.000 A 
ATOM     32  C6  UNL     1      28.574  -9.286 -33.651  0.00  0.00    +0.000 A 
ATOM     33  C7  UNL     1      27.932  -8.209 -33.034  0.00  0.00    +0.000 A 
ATOM     34 CL1  UNL     1      28.787  -7.240 -31.847  0.00  0.00    +0.000 Cl
ATOM     35  C8  UNL     1      26.599  -7.916 -33.345  0.00  0.00    +0.000 A 
ENDBRANCH  27  29
BRANCH  26  36
ATOM     36  S1  UNL     1      22.386  -7.354 -36.032  0.00  0.00    +0.000 S 
ATOM     37  H2  UNL     1      22.259  -7.268 -34.633  0.00  0.00    +0.000 HD
ENDBRANCH  26  36
ENDBRANCH  23  25
ENDBRANCH   1  22
TORSDOF 5
ENDMDL
MODEL 9
REMARK VINA RESULT:    -6.531      4.053      8.248
REMARK INTER + INTRA:          -9.056
REMARK INTER:                  -8.868
REMARK INTRA:                  -0.188
REMARK UNBOUND:                -0.807
REMARK  Name = resultss/4CJN/ligands/lig_411_t1.pdb
REMARK  5 active torsions:
REMARK  status: ('A' for Active; 'I' for Inactive)
REMARK    1  A    between atoms: C1_2  and  C9_15
REMARK    2  A    between atoms: N1_3  and  N2_4
REMARK    3  A    between atoms: C2_5  and  S1_6
REMARK    4  A    between atoms: N3_7  and  C3_8
REMARK    5  A    between atoms: C19_26  and  C20_27
REMARK                            x       y       z     vdW  Elec       q    Type
REMARK                         _______ _______ _______ _____ _____    ______ ____
ROOT
ATOM      1  C9  UNL     1      27.367  -9.183 -42.058  0.00  0.00    +0.000 A 
ATOM      2  C10 UNL     1      27.459  -8.895 -40.678  0.00  0.00    +0.000 A 
ATOM      3  C11 UNL     1      28.603  -9.321 -40.014  0.00  0.00    +0.000 A 
ATOM      4  C12 UNL     1      29.620  -9.988 -40.662  0.00  0.00    +0.000 A 
ATOM      5  N4  UNL     1      30.598 -10.351 -39.798  0.00  0.00    +0.000 N 
ATOM      6  C13 UNL     1      30.190  -9.885 -38.597  0.00  0.00    +0.000 A 
ATOM      7  C14 UNL     1      30.852 -10.010 -37.377  0.00  0.00    +0.000 A 
ATOM      8  C15 UNL     1      30.242  -9.456 -36.237  0.00  0.00    +0.000 A 
ATOM      9  C16 UNL     1      28.993  -8.803 -36.336  0.00  0.00    +0.000 A 
ATOM     10  C17 UNL     1      28.340  -8.695 -37.578  0.00  0.00    +0.000 A 
ATOM     11  C18 UNL     1      28.972  -9.246 -38.691  0.00  0.00    +0.000 A 
ATOM     12  C19 UNL     1      29.527 -10.253 -42.034  0.00  0.00    +0.000 A 
ATOM     13  N5  UNL     1      28.392  -9.846 -42.682  0.00  0.00    +0.000 NA
ATOM     14  H9  UNL     1      31.465 -10.900 -39.994  0.00  0.00    +0.000 HD
ENDROOT
BRANCH  12  15
ATOM     15  C20 UNL     1      30.589 -10.941 -42.797  0.00  0.00    +0.000 A 
ATOM     16  C21 UNL     1      31.404 -10.234 -43.700  0.00  0.00    +0.000 A 
ATOM     17  C22 UNL     1      32.388 -10.904 -44.434  0.00  0.00    +0.000 A 
ATOM     18  C23 UNL     1      32.558 -12.283 -44.284  0.00  0.00    +0.000 A 
ATOM     19  C24 UNL     1      31.738 -12.995 -43.406  0.00  0.00    +0.000 A 
ATOM     20  C25 UNL     1      30.753 -12.330 -42.669  0.00  0.00    +0.000 A 
ENDBRANCH  12  15
BRANCH   1  22
ATOM     21  O1  UNL     1      25.404  -9.654 -43.309  0.00  0.00    +0.000 OA
ATOM     22  C1  UNL     1      26.179  -8.776 -42.838  0.00  0.00    +0.000 C 
ATOM     23  N1  UNL     1      25.894  -7.391 -43.068  0.00  0.00    +0.000 N 
ATOM     24  H1  UNL     1      26.552  -6.667 -42.704  0.00  0.00    +0.000 HD
BRANCH  23  25
ATOM     25  N2  UNL     1      24.733  -7.026 -43.771  0.00  0.00    +0.000 NA
ATOM     26  C2  UNL     1      23.572  -6.821 -43.220  0.00  0.00    +0.000 C 
ATOM     27  N3  UNL     1      22.450  -6.438 -44.028  0.00  0.00    +0.000 N 
ATOM     28  H3  UNL     1      21.641  -5.984 -43.547  0.00  0.00    +0.000 HD
BRANCH  27  29
ATOM     29  C3  UNL     1      22.401  -6.561 -45.461  0.00  0.00    +0.000 A 
ATOM     30  C4  UNL     1      21.222  -7.013 -46.073  0.00  0.00    +0.000 A 
ATOM     31  C5  UNL     1      21.161  -7.166 -47.462  0.00  0.00    +0.000 A 
ATOM     32  C6  UNL     1      22.279  -6.879 -48.250  0.00  0.00    +0.000 A 
ATOM     33  C7  UNL     1      23.465  -6.447 -47.649  0.00  0.00    +0.000 A 
ATOM     34 CL1  UNL     1      24.879  -6.119 -48.634  0.00  0.00    +0.000 Cl
ATOM     35  C8  UNL     1      23.532  -6.298 -46.258  0.00  0.00    +0.000 A 
ENDBRANCH  27  29
BRANCH  26  36
ATOM     36  S1  UNL     1      23.337  -6.939 -41.441  0.00  0.00    +0.000 S 
ATOM     37  H2  UNL     1      24.405  -6.057 -41.193  0.00  0.00    +0.000 HD
ENDBRANCH  26  36
ENDBRANCH  23  25
ENDBRANCH   1  22
TORSDOF 5
ENDMDL
