MODEL 1
REMARK VINA RESULT:    -4.173      0.000      0.000
REMARK INTER + INTRA:          -6.022
REMARK INTER:                  -5.637
REMARK INTRA:                  -0.385
REMARK UNBOUND:                -0.385
REMARK  Name = resultss/4CJN/ligands/lig_114_t0.pdb
REMARK  9 active torsions:
REMARK  status: ('A' for Active; 'I' for Inactive)
REMARK    1  A    between atoms: C1_1  and  C2_2
REMARK    2  A    between atoms: C2_2  and  C3_3
REMARK    3  A    between atoms: C3_3  and  C4_4
REMARK    4  A    between atoms: C4_4  and  N1_5
REMARK    5  A    between atoms: C6_7  and  O1_8
REMARK    6  A    between atoms: C7_9  and  O2_10
REMARK    7  A    between atoms: C8_11  and  O3_12
REMARK    8  A    between atoms: C9_13  and  C10_14
REMARK    9  A    between atoms: C10_14  and  O4_15
REMARK                            x       y       z     vdW  Elec       q    Type
REMARK                         _______ _______ _______ _____ _____    ______ ____
ROOT
ATOM      1  N1  UNL     1      25.321  -7.034 -34.426  0.00  0.00    +0.000 NA
ATOM      2  C5  UNL     1      25.852  -8.034 -33.463  0.00  0.00    +0.000 C 
ATOM      3  C6  UNL     1      24.931  -9.242 -33.207  0.00  0.00    +0.000 C 
ATOM      4  C7  UNL     1      23.440  -8.858 -32.963  0.00  0.00    +0.000 C 
ATOM      5  C8  UNL     1      23.112  -7.397 -33.348  0.00  0.00    +0.000 C 
ATOM      6  C9  UNL     1      23.850  -6.990 -34.642  0.00  0.00    +0.000 C 
ENDROOT
BRANCH   3   7
ATOM      7  O1  UNL     1      25.046 -10.140 -34.281  0.00  0.00    +0.000 OA
ATOM      8  H13 UNL     1      25.945 -10.558 -34.212  0.00  0.00    +0.000 HD
ENDBRANCH   3   7
BRANCH   4   9
ATOM      9  O2  UNL     1      23.096  -9.076 -31.618  0.00  0.00    +0.000 OA
ATOM     10  H15 UNL     1      22.476  -8.345 -31.358  0.00  0.00    +0.000 HD
ENDBRANCH   4   9
BRANCH   5  11
ATOM     11  O3  UNL     1      23.491  -6.519 -32.315  0.00  0.00    +0.000 OA
ATOM     12  H17 UNL     1      23.438  -5.597 -32.678  0.00  0.00    +0.000 HD
ENDBRANCH   5  11
BRANCH   1  13
ATOM     13  C4  UNL     1      26.162  -6.801 -35.618  0.00  0.00    +0.000 C 
BRANCH  13  14
ATOM     14  C3  UNL     1      27.392  -7.719 -35.604  0.00  0.00    +0.000 C 
BRANCH  14  16
ATOM     15  C1  UNL     1      28.105  -9.994 -36.435  0.00  0.00    +0.000 C 
ATOM     16  C2  UNL     1      27.354  -8.709 -36.774  0.00  0.00    +0.000 C 
ENDBRANCH  14  16
ENDBRANCH  13  14
ENDBRANCH   1  13
BRANCH   6  17
ATOM     17  C10 UNL     1      23.372  -7.801 -35.877  0.00  0.00    +0.000 C 
BRANCH  17  18
ATOM     18  O4  UNL     1      22.062  -7.435 -36.220  0.00  0.00    +0.000 OA
ATOM     19  H21 UNL     1      22.109  -7.054 -37.135  0.00  0.00    +0.000 HD
ENDBRANCH  17  18
ENDBRANCH   6  17
TORSDOF 8
ENDMDL
MODEL 2
REMARK VINA RESULT:    -4.015      6.241      8.316
REMARK INTER + INTRA:          -5.808
REMARK INTER:                  -5.505
REMARK INTRA:                  -0.304
REMARK UNBOUND:                -0.385
REMARK  Name = resultss/4CJN/ligands/lig_114_t0.pdb
REMARK  9 active torsions:
REMARK  status: ('A' for Active; 'I' for Inactive)
REMARK    1  A    between atoms: C1_1  and  C2_2
REMARK    2  A    between atoms: C2_2  and  C3_3
REMARK    3  A    between atoms: C3_3  and  C4_4
REMARK    4  A    between atoms: C4_4  and  N1_5
REMARK    5  A    between atoms: C6_7  and  O1_8
REMARK    6  A    between atoms: C7_9  and  O2_10
REMARK    7  A    between atoms: C8_11  and  O3_12
REMARK    8  A    between atoms: C9_13  and  C10_14
REMARK    9  A    between atoms: C10_14  and  O4_15
REMARK                            x       y       z     vdW  Elec       q    Type
REMARK                         _______ _______ _______ _____ _____    ______ ____
ROOT
ATOM      1  N1  UNL     1      26.077  -9.837 -41.667  0.00  0.00    +0.000 NA
ATOM      2  C5  UNL     1      26.420  -9.204 -42.967  0.00  0.00    +0.000 C 
ATOM      3  C6  UNL     1      25.720  -7.859 -43.239  0.00  0.00    +0.000 C 
ATOM      4  C7  UNL     1      24.195  -7.864 -42.921  0.00  0.00    +0.000 C 
ATOM      5  C8  UNL     1      23.746  -9.091 -42.094  0.00  0.00    +0.000 C 
ATOM      6  C9  UNL     1      24.796  -9.444 -41.019  0.00  0.00    +0.000 C 
ENDROOT
BRANCH   3   7
ATOM      7  O1  UNL     1      26.377  -6.848 -42.518  0.00  0.00    +0.000 OA
ATOM      8  H13 UNL     1      27.224  -6.653 -43.000  0.00  0.00    +0.000 HD
ENDBRANCH   3   7
BRANCH   4   9
ATOM      9  O2  UNL     1      23.450  -7.805 -44.113  0.00  0.00    +0.000 OA
ATOM     10  H15 UNL     1      24.068  -7.488 -44.823  0.00  0.00    +0.000 HD
ENDBRANCH   4   9
BRANCH   5  11
ATOM     11  O3  UNL     1      23.560 -10.207 -42.931  0.00  0.00    +0.000 OA
ATOM     12  H17 UNL     1      22.785 -10.716 -42.576  0.00  0.00    +0.000 HD
ENDBRANCH   5  11
BRANCH   1  13
ATOM     13  C4  UNL     1      27.220 -10.071 -40.761  0.00  0.00    +0.000 C 
BRANCH  13  14
ATOM     14  C3  UNL     1      28.537  -9.646 -41.426  0.00  0.00    +0.000 C 
BRANCH  14  16
ATOM     15  C1  UNL     1      30.269 -10.783 -42.869  0.00  0.00    +0.000 C 
ATOM     16  C2  UNL     1      29.498 -10.834 -41.552  0.00  0.00    +0.000 C 
ENDBRANCH  14  16
ENDBRANCH  13  14
ENDBRANCH   1  13
BRANCH   6  17
ATOM     17  C10 UNL     1      24.949  -8.328 -39.950  0.00  0.00    +0.000 C 
BRANCH  17  18
ATOM     18  O4  UNL     1      24.382  -8.739 -38.736  0.00  0.00    +0.000 OA
ATOM     19  H21 UNL     1      24.050  -7.917 -38.290  0.00  0.00    +0.000 HD
ENDBRANCH  17  18
ENDBRANCH   6  17
TORSDOF 8
ENDMDL
MODEL 3
REMARK VINA RESULT:    -3.876      1.721      2.083
REMARK INTER + INTRA:          -5.620
REMARK INTER:                  -5.310
REMARK INTRA:                  -0.309
REMARK UNBOUND:                -0.385
REMARK  Name = resultss/4CJN/ligands/lig_114_t0.pdb
REMARK  9 active torsions:
REMARK  status: ('A' for Active; 'I' for Inactive)
REMARK    1  A    between atoms: C1_1  and  C2_2
REMARK    2  A    between atoms: C2_2  and  C3_3
REMARK    3  A    between atoms: C3_3  and  C4_4
REMARK    4  A    between atoms: C4_4  and  N1_5
REMARK    5  A    between atoms: C6_7  and  O1_8
REMARK    6  A    between atoms: C7_9  and  O2_10
REMARK    7  A    between atoms: C8_11  and  O3_12
REMARK    8  A    between atoms: C9_13  and  C10_14
REMARK    9  A    between atoms: C10_14  and  O4_15
REMARK                            x       y       z     vdW  Elec       q    Type
REMARK                         _______ _______ _______ _____ _____    ______ ____
ROOT
ATOM      1  N1  UNL     1      26.845  -7.951 -35.137  0.00  0.00    +0.000 NA
ATOM      2  C5  UNL     1      26.761  -8.692 -33.852  0.00  0.00    +0.000 C 
ATOM      3  C6  UNL     1      25.408  -9.379 -33.585  0.00  0.00    +0.000 C 
ATOM      4  C7  UNL     1      24.173  -8.474 -33.874  0.00  0.00    +0.000 C 
ATOM      5  C8  UNL     1      24.521  -7.199 -34.676  0.00  0.00    +0.000 C 
ATOM      6  C9  UNL     1      25.572  -7.504 -35.765  0.00  0.00    +0.000 C 
ENDROOT
BRANCH   3   7
ATOM      7  O1  UNL     1      25.343 -10.566 -34.332  0.00  0.00    +0.000 OA
ATOM      8  H13 UNL     1      26.013 -10.485 -35.062  0.00  0.00    +0.000 HD
ENDBRANCH   3   7
BRANCH   4   9
ATOM      9  O2  UNL     1      23.544  -8.111 -32.670  0.00  0.00    +0.000 OA
ATOM     10  H15 UNL     1      24.259  -7.808 -32.051  0.00  0.00    +0.000 HD
ENDBRANCH   4   9
BRANCH   5  11
ATOM     11  O3  UNL     1      25.032  -6.204 -33.821  0.00  0.00    +0.000 OA
ATOM     12  H17 UNL     1      24.699  -5.330 -34.154  0.00  0.00    +0.000 HD
ENDBRANCH   5  11
BRANCH   1  13
ATOM     13  C4  UNL     1      27.901  -8.410 -36.060  0.00  0.00    +0.000 C 
BRANCH  13  14
ATOM     14  C3  UNL     1      28.572  -9.685 -35.529  0.00  0.00    +0.000 C 
BRANCH  14  16
ATOM     15  C1  UNL     1      30.380  -9.688 -33.767  0.00  0.00    +0.000 C 
ATOM     16  C2  UNL     1      30.058  -9.445 -35.239  0.00  0.00    +0.000 C 
ENDBRANCH  14  16
ENDBRANCH  13  14
ENDBRANCH   1  13
BRANCH   6  17
ATOM     17  C10 UNL     1      25.034  -8.474 -36.853  0.00  0.00    +0.000 C 
BRANCH  17  18
ATOM     18  O4  UNL     1      23.820  -8.000 -37.368  0.00  0.00    +0.000 OA
ATOM     19  H21 UNL     1      24.039  -7.190 -37.898  0.00  0.00    +0.000 HD
ENDBRANCH  17  18
ENDBRANCH   6  17
TORSDOF 8
ENDMDL
MODEL 4
REMARK VINA RESULT:    -3.864      1.922      2.380
REMARK INTER + INTRA:          -5.604
REMARK INTER:                  -5.325
REMARK INTRA:                  -0.278
REMARK UNBOUND:                -0.385
REMARK  Name = resultss/4CJN/ligands/lig_114_t0.pdb
REMARK  9 active torsions:
REMARK  status: ('A' for Active; 'I' for Inactive)
REMARK    1  A    between atoms: C1_1  and  C2_2
REMARK    2  A    between atoms: C2_2  and  C3_3
REMARK    3  A    between atoms: C3_3  and  C4_4
REMARK    4  A    between atoms: C4_4  and  N1_5
REMARK    5  A    between atoms: C6_7  and  O1_8
REMARK    6  A    between atoms: C7_9  and  O2_10
REMARK    7  A    between atoms: C8_11  and  O3_12
REMARK    8  A    between atoms: C9_13  and  C10_14
REMARK    9  A    between atoms: C10_14  and  O4_15
REMARK                            x       y       z     vdW  Elec       q    Type
REMARK                         _______ _______ _______ _____ _____    ______ ____
ROOT
ATOM      1  N1  UNL     1      25.640  -8.703 -34.198  0.00  0.00    +0.000 NA
ATOM      2  C5  UNL     1      24.644  -9.228 -33.228  0.00  0.00    +0.000 C 
ATOM      3  C6  UNL     1      23.280  -8.513 -33.246  0.00  0.00    +0.000 C 
ATOM      4  C7  UNL     1      23.381  -6.959 -33.269  0.00  0.00    +0.000 C 
ATOM      5  C8  UNL     1      24.801  -6.442 -33.600  0.00  0.00    +0.000 C 
ATOM      6  C9  UNL     1      25.462  -7.311 -34.692  0.00  0.00    +0.000 C 
ENDROOT
BRANCH   3   7
ATOM      7  O1  UNL     1      22.534  -8.980 -34.341  0.00  0.00    +0.000 OA
ATOM      8  H13 UNL     1      21.587  -9.029 -34.046  0.00  0.00    +0.000 HD
ENDBRANCH   3   7
BRANCH   4   9
ATOM      9  O2  UNL     1      22.966  -6.426 -32.036  0.00  0.00    +0.000 OA
ATOM     10  H15 UNL     1      21.976  -6.498 -32.011  0.00  0.00    +0.000 HD
ENDBRANCH   4   9
BRANCH   5  11
ATOM     11  O3  UNL     1      25.613  -6.463 -32.451  0.00  0.00    +0.000 OA
ATOM     12  H17 UNL     1      26.016  -7.368 -32.392  0.00  0.00    +0.000 HD
ENDBRANCH   5  11
BRANCH   1  13
ATOM     13  C4  UNL     1      26.136  -9.685 -35.183  0.00  0.00    +0.000 C 
BRANCH  13  14
ATOM     14  C3  UNL     1      27.659  -9.575 -35.342  0.00  0.00    +0.000 C 
BRANCH  14  16
ATOM     15  C1  UNL     1      29.883  -9.653 -34.150  0.00  0.00    +0.000 C 
ATOM     16  C2  UNL     1      28.366  -9.726 -33.991  0.00  0.00    +0.000 C 
ENDBRANCH  14  16
ENDBRANCH  13  14
ENDBRANCH   1  13
BRANCH   6  17
ATOM     17  C10 UNL     1      24.721  -7.217 -36.054  0.00  0.00    +0.000 C 
BRANCH  17  18
ATOM     18  O4  UNL     1      25.594  -6.761 -37.051  0.00  0.00    +0.000 OA
ATOM     19  H21 UNL     1      26.511  -6.844 -36.678  0.00  0.00    +0.000 HD
ENDBRANCH  17  18
ENDBRANCH   6  17
TORSDOF 8
ENDMDL
MODEL 5
REMARK VINA RESULT:    -3.760      5.083      6.784
REMARK INTER + INTRA:          -5.463
REMARK INTER:                  -5.193
REMARK INTRA:                  -0.270
REMARK UNBOUND:                -0.385
REMARK  Name = resultss/4CJN/ligands/lig_114_t0.pdb
REMARK  9 active torsions:
REMARK  status: ('A' for Active; 'I' for Inactive)
REMARK    1  A    between atoms: C1_1  and  C2_2
REMARK    2  A    between atoms: C2_2  and  C3_3
REMARK    3  A    between atoms: C3_3  and  C4_4
REMARK    4  A    between atoms: C4_4  and  N1_5
REMARK    5  A    between atoms: C6_7  and  O1_8
REMARK    6  A    between atoms: C7_9  and  O2_10
REMARK    7  A    between atoms: C8_11  and  O3_12
REMARK    8  A    between atoms: C9_13  and  C10_14
REMARK    9  A    between atoms: C10_14  and  O4_15
REMARK                            x       y       z     vdW  Elec       q    Type
REMARK                         _______ _______ _______ _____ _____    ______ ____
ROOT
ATOM      1  N1  UNL     1      28.214  -9.316 -40.689  0.00  0.00    +0.000 NA
ATOM      2  C5  UNL     1      29.014  -9.718 -39.502  0.00  0.00    +0.000 C 
ATOM      3  C6  UNL     1      28.191 -10.265 -38.320  0.00  0.00    +0.000 C 
ATOM      4  C7  UNL     1      26.935  -9.410 -37.976  0.00  0.00    +0.000 C 
ATOM      5  C8  UNL     1      26.572  -8.384 -39.074  0.00  0.00    +0.000 C 
ATOM      6  C9  UNL     1      26.779  -8.987 -40.480  0.00  0.00    +0.000 C 
ENDROOT
BRANCH   3   7
ATOM      7  O1  UNL     1      27.831 -11.595 -38.591  0.00  0.00    +0.000 OA
ATOM      8  H13 UNL     1      27.459 -11.611 -39.512  0.00  0.00    +0.000 HD
ENDBRANCH   3   7
BRANCH   4   9
ATOM      9  O2  UNL     1      27.122  -8.740 -36.754  0.00  0.00    +0.000 OA
ATOM     10  H15 UNL     1      27.518  -7.855 -36.969  0.00  0.00    +0.000 HD
ENDBRANCH   4   9
BRANCH   5  11
ATOM     11  O3  UNL     1      27.370  -7.231 -38.953  0.00  0.00    +0.000 OA
ATOM     12  H17 UNL     1      28.262  -7.449 -39.332  0.00  0.00    +0.000 HD
ENDBRANCH   5  11
BRANCH   1  13
ATOM     13  C4  UNL     1      28.545 -10.028 -41.939  0.00  0.00    +0.000 C 
BRANCH  13  14
ATOM     14  C3  UNL     1      29.741 -10.967 -41.731  0.00  0.00    +0.000 C 
BRANCH  14  16
ATOM     15  C1  UNL     1      31.383 -12.331 -43.079  0.00  0.00    +0.000 C 
ATOM     16  C2  UNL     1      30.635 -11.005 -42.976  0.00  0.00    +0.000 C 
ENDBRANCH  14  16
ENDBRANCH  13  14
ENDBRANCH   1  13
BRANCH   6  17
ATOM     17  C10 UNL     1      25.815 -10.171 -40.765  0.00  0.00    +0.000 C 
BRANCH  17  18
ATOM     18  O4  UNL     1      24.495  -9.805 -40.466  0.00  0.00    +0.000 OA
ATOM     19  H21 UNL     1      23.912 -10.384 -41.023  0.00  0.00    +0.000 HD
ENDBRANCH  17  18
ENDBRANCH   6  17
TORSDOF 8
ENDMDL
MODEL 6
REMARK VINA RESULT:    -3.746      2.638      4.397
REMARK INTER + INTRA:          -5.444
REMARK INTER:                  -5.233
REMARK INTRA:                  -0.211
REMARK UNBOUND:                -0.385
REMARK  Name = resultss/4CJN/ligands/lig_114_t0.pdb
REMARK  9 active torsions:
REMARK  status: ('A' for Active; 'I' for Inactive)
REMARK    1  A    between atoms: C1_1  and  C2_2
REMARK    2  A    between atoms: C2_2  and  C3_3
REMARK    3  A    between atoms: C3_3  and  C4_4
REMARK    4  A    between atoms: C4_4  and  N1_5
REMARK    5  A    between atoms: C6_7  and  O1_8
REMARK    6  A    between atoms: C7_9  and  O2_10
REMARK    7  A    between atoms: C8_11  and  O3_12
REMARK    8  A    between atoms: C9_13  and  C10_14
REMARK    9  A    between atoms: C10_14  and  O4_15
REMARK                            x       y       z     vdW  Elec       q    Type
REMARK                         _______ _______ _______ _____ _____    ______ ____
ROOT
ATOM      1  N1  UNL     1      26.950  -9.510 -36.421  0.00  0.00    +0.000 NA
ATOM      2  C5  UNL     1      25.954  -8.413 -36.305  0.00  0.00    +0.000 C 
ATOM      3  C6  UNL     1      26.029  -7.602 -34.998  0.00  0.00    +0.000 C 
ATOM      4  C7  UNL     1      26.154  -8.480 -33.717  0.00  0.00    +0.000 C 
ATOM      5  C8  UNL     1      26.509  -9.955 -34.016  0.00  0.00    +0.000 C 
ATOM      6  C9  UNL     1      27.536 -10.051 -35.165  0.00  0.00    +0.000 C 
ENDROOT
BRANCH   3   7
ATOM      7  O1  UNL     1      27.096  -6.692 -35.086  0.00  0.00    +0.000 OA
ATOM      8  H13 UNL     1      27.071  -6.138 -34.261  0.00  0.00    +0.000 HD
ENDBRANCH   3   7
BRANCH   4   9
ATOM      9  O2  UNL     1      24.962  -8.427 -32.974  0.00  0.00    +0.000 OA
ATOM     10  H15 UNL     1      24.685  -7.474 -32.941  0.00  0.00    +0.000 HD
ENDBRANCH   4   9
BRANCH   5  11
ATOM     11  O3  UNL     1      25.355 -10.674 -34.379  0.00  0.00    +0.000 OA
ATOM     12  H17 UNL     1      25.105 -10.389 -35.296  0.00  0.00    +0.000 HD
ENDBRANCH   5  11
BRANCH   1  13
ATOM     13  C4  UNL     1      27.864  -9.410 -37.576  0.00  0.00    +0.000 C 
BRANCH  13  14
ATOM     14  C3  UNL     1      27.912 -10.735 -38.349  0.00  0.00    +0.000 C 
BRANCH  14  16
ATOM     15  C1  UNL     1      28.566 -10.762 -40.787  0.00  0.00    +0.000 C 
ATOM     16  C2  UNL     1      27.428 -10.549 -39.792  0.00  0.00    +0.000 C 
ENDBRANCH  14  16
ENDBRANCH  13  14
ENDBRANCH   1  13
BRANCH   6  17
ATOM     17  C10 UNL     1      28.906  -9.423 -34.789  0.00  0.00    +0.000 C 
BRANCH  17  18
ATOM     18  O4  UNL     1      29.411 -10.021 -33.626  0.00  0.00    +0.000 OA
ATOM     19  H21 UNL     1      29.956 -10.795 -33.925  0.00  0.00    +0.000 HD
ENDBRANCH  17  18
ENDBRANCH   6  17
TORSDOF 8
ENDMDL
MODEL 7
REMARK VINA RESULT:    -3.720      1.719      3.227
REMARK INTER + INTRA:          -5.409
REMARK INTER:                  -5.230
REMARK INTRA:                  -0.180
REMARK UNBOUND:                -0.385
REMARK  Name = resultss/4CJN/ligands/lig_114_t0.pdb
REMARK  9 active torsions:
REMARK  status: ('A' for Active; 'I' for Inactive)
REMARK    1  A    between atoms: C1_1  and  C2_2
REMARK    2  A    between atoms: C2_2  and  C3_3
REMARK    3  A    between atoms: C3_3  and  C4_4
REMARK    4  A    between atoms: C4_4  and  N1_5
REMARK    5  A    between atoms: C6_7  and  O1_8
REMARK    6  A    between atoms: C7_9  and  O2_10
REMARK    7  A    between atoms: C8_11  and  O3_12
REMARK    8  A    between atoms: C9_13  and  C10_14
REMARK    9  A    between atoms: C10_14  and  O4_15
REMARK                            x       y       z     vdW  Elec       q    Type
REMARK                         _______ _______ _______ _____ _____    ______ ____
ROOT
ATOM      1  N1  UNL     1      26.517  -8.516 -35.708  0.00  0.00    +0.000 NA
ATOM      2  C5  UNL     1      25.205  -8.452 -36.402  0.00  0.00    +0.000 C 
ATOM      3  C6  UNL     1      24.050  -7.882 -35.557  0.00  0.00    +0.000 C 
ATOM      4  C7  UNL     1      23.975  -8.467 -34.115  0.00  0.00    +0.000 C 
ATOM      5  C8  UNL     1      25.246  -9.244 -33.701  0.00  0.00    +0.000 C 
ATOM      6  C9  UNL     1      26.516  -8.537 -34.220  0.00  0.00    +0.000 C 
ENDROOT
BRANCH   3   7
ATOM      7  O1  UNL     1      24.157  -6.481 -35.522  0.00  0.00    +0.000 OA
ATOM      8  H13 UNL     1      24.524  -6.199 -36.401  0.00  0.00    +0.000 HD
ENDBRANCH   3   7
BRANCH   4   9
ATOM      9  O2  UNL     1      22.853  -9.305 -33.988  0.00  0.00    +0.000 OA
ATOM     10  H15 UNL     1      22.482  -9.428 -34.902  0.00  0.00    +0.000 HD
ENDBRANCH   4   9
BRANCH   5  11
ATOM     11  O3  UNL     1      25.213 -10.553 -34.218  0.00  0.00    +0.000 OA
ATOM     12  H17 UNL     1      24.275 -10.872 -34.153  0.00  0.00    +0.000 HD
ENDBRANCH   5  11
BRANCH   1  13
ATOM     13  C4  UNL     1      27.605  -7.749 -36.348  0.00  0.00    +0.000 C 
BRANCH  13  14
ATOM     14  C3  UNL     1      28.704  -8.690 -36.863  0.00  0.00    +0.000 C 
BRANCH  14  16
ATOM     15  C1  UNL     1      27.938 -10.533 -38.408  0.00  0.00    +0.000 C 
ATOM     16  C2  UNL     1      28.194 -10.132 -36.957  0.00  0.00    +0.000 C 
ENDBRANCH  14  16
ENDBRANCH  13  14
ENDBRANCH   1  13
BRANCH   6  17
ATOM     17  C10 UNL     1      26.724  -7.140 -33.573  0.00  0.00    +0.000 C 
BRANCH  17  18
ATOM     18  O4  UNL     1      26.715  -7.248 -32.175  0.00  0.00    +0.000 OA
ATOM     19  H21 UNL     1      27.574  -7.675 -31.922  0.00  0.00    +0.000 HD
ENDBRANCH  17  18
ENDBRANCH   6  17
TORSDOF 8
ENDMDL
MODEL 8
REMARK VINA RESULT:    -3.379      2.524      3.374
REMARK INTER + INTRA:          -4.949
REMARK INTER:                  -4.593
REMARK INTRA:                  -0.357
REMARK UNBOUND:                -0.385
REMARK  Name = resultss/4CJN/ligands/lig_114_t0.pdb
REMARK  9 active torsions:
REMARK  status: ('A' for Active; 'I' for Inactive)
REMARK    1  A    between atoms: C1_1  and  C2_2
REMARK    2  A    between atoms: C2_2  and  C3_3
REMARK    3  A    between atoms: C3_3  and  C4_4
REMARK    4  A    between atoms: C4_4  and  N1_5
REMARK    5  A    between atoms: C6_7  and  O1_8
REMARK    6  A    between atoms: C7_9  and  O2_10
REMARK    7  A    between atoms: C8_11  and  O3_12
REMARK    8  A    between atoms: C9_13  and  C10_14
REMARK    9  A    between atoms: C10_14  and  O4_15
REMARK                            x       y       z     vdW  Elec       q    Type
REMARK                         _______ _______ _______ _____ _____    ______ ____
ROOT
ATOM      1  N1  UNL     1      27.033  -7.512 -35.172  0.00  0.00    +0.000 NA
ATOM      2  C5  UNL     1      28.225  -6.914 -34.515  0.00  0.00    +0.000 C 
ATOM      3  C6  UNL     1      28.742  -7.684 -33.285  0.00  0.00    +0.000 C 
ATOM      4  C7  UNL     1      27.622  -8.114 -32.292  0.00  0.00    +0.000 C 
ATOM      5  C8  UNL     1      26.198  -7.984 -32.880  0.00  0.00    +0.000 C 
ATOM      6  C9  UNL     1      26.174  -8.416 -34.363  0.00  0.00    +0.000 C 
ENDROOT
BRANCH   3   7
ATOM      7  O1  UNL     1      29.479  -8.798 -33.720  0.00  0.00    +0.000 OA
ATOM      8  H13 UNL     1      28.820  -9.480 -34.019  0.00  0.00    +0.000 HD
ENDBRANCH   3   7
BRANCH   4   9
ATOM      9  O2  UNL     1      27.707  -7.363 -31.106  0.00  0.00    +0.000 OA
ATOM     10  H15 UNL     1      27.849  -8.010 -30.366  0.00  0.00    +0.000 HD
ENDBRANCH   4   9
BRANCH   5  11
ATOM     11  O3  UNL     1      25.747  -6.654 -32.789  0.00  0.00    +0.000 OA
ATOM     12  H17 UNL     1      25.183  -6.478 -33.587  0.00  0.00    +0.000 HD
ENDBRANCH   5  11
BRANCH   1  13
ATOM     13  C4  UNL     1      27.218  -7.884 -36.589  0.00  0.00    +0.000 C 
BRANCH  13  14
ATOM     14  C3  UNL     1      28.620  -7.491 -37.077  0.00  0.00    +0.000 C 
BRANCH  14  16
ATOM     15  C1  UNL     1      28.729 -10.001 -37.328  0.00  0.00    +0.000 C 
ATOM     16  C2  UNL     1      29.304  -8.663 -37.790  0.00  0.00    +0.000 C 
ENDBRANCH  14  16
ENDBRANCH  13  14
ENDBRANCH   1  13
BRANCH   6  17
ATOM     17  C10 UNL     1      26.500  -9.924 -34.546  0.00  0.00    +0.000 C 
BRANCH  17  18
ATOM     18  O4  UNL     1      25.368 -10.703 -34.267  0.00  0.00    +0.000 OA
ATOM     19  H21 UNL     1      24.879 -10.802 -35.125  0.00  0.00    +0.000 HD
ENDBRANCH  17  18
ENDBRANCH   6  17
TORSDOF 8
ENDMDL
MODEL 9
REMARK VINA RESULT:    -3.306      5.929      7.414
REMARK INTER + INTRA:          -4.850
REMARK INTER:                  -4.572
REMARK INTRA:                  -0.278
REMARK UNBOUND:                -0.385
REMARK  Name = resultss/4CJN/ligands/lig_114_t0.pdb
REMARK  9 active torsions:
REMARK  status: ('A' for Active; 'I' for Inactive)
REMARK    1  A    between atoms: C1_1  and  C2_2
REMARK    2  A    between atoms: C2_2  and  C3_3
REMARK    3  A    between atoms: C3_3  and  C4_4
REMARK    4  A    between atoms: C4_4  and  N1_5
REMARK    5  A    between atoms: C6_7  and  O1_8
REMARK    6  A    between atoms: C7_9  and  O2_10
REMARK    7  A    between atoms: C8_11  and  O3_12
REMARK    8  A    between atoms: C9_13  and  C10_14
REMARK    9  A    between atoms: C10_14  and  O4_15
REMARK                            x       y       z     vdW  Elec       q    Type
REMARK                         _______ _______ _______ _____ _____    ______ ____
ROOT
ATOM      1  N1  UNL     1      27.248  -8.320 -41.588  0.00  0.00    +0.000 NA
ATOM      2  C5  UNL     1      27.011  -9.558 -40.800  0.00  0.00    +0.000 C 
ATOM      3  C6  UNL     1      25.528  -9.898 -40.554  0.00  0.00    +0.000 C 
ATOM      4  C7  UNL     1      24.670  -8.682 -40.094  0.00  0.00    +0.000 C 
ATOM      5  C8  UNL     1      25.379  -7.321 -40.289  0.00  0.00    +0.000 C 
ATOM      6  C9  UNL     1      26.167  -7.298 -41.617  0.00  0.00    +0.000 C 
ENDROOT
BRANCH   3   7
ATOM      7  O1  UNL     1      24.993 -10.475 -41.717  0.00  0.00    +0.000 OA
ATOM      8  H13 UNL     1      25.256  -9.890 -42.476  0.00  0.00    +0.000 HD
ENDBRANCH   3   7
BRANCH   4   9
ATOM      9  O2  UNL     1      24.304  -8.828 -38.744  0.00  0.00    +0.000 OA
ATOM     10  H15 UNL     1      25.009  -8.382 -38.205  0.00  0.00    +0.000 HD
ENDBRANCH   4   9
BRANCH   5  11
ATOM     11  O3  UNL     1      26.271  -7.074 -39.229  0.00  0.00    +0.000 OA
ATOM     12  H17 UNL     1      27.084  -7.619 -39.395  0.00  0.00    +0.000 HD
ENDBRANCH   5  11
BRANCH   1  13
ATOM     13  C4  UNL     1      28.000  -8.509 -42.844  0.00  0.00    +0.000 C 
BRANCH  13  14
ATOM     14  C3  UNL     1      28.590  -9.925 -42.918  0.00  0.00    +0.000 C 
BRANCH  14  16
ATOM     15  C1  UNL     1      30.736 -11.214 -42.596  0.00  0.00    +0.000 C 
ATOM     16  C2  UNL     1      30.119  -9.880 -43.010  0.00  0.00    +0.000 C 
ENDBRANCH  14  16
ENDBRANCH  13  14
ENDBRANCH   1  13
BRANCH   6  17
ATOM     17  C10 UNL     1      25.240  -7.400 -42.859  0.00  0.00    +0.000 C 
BRANCH  17  18
ATOM     18  O4  UNL     1      25.351  -6.242 -43.642  0.00  0.00    +0.000 OA
ATOM     19  H21 UNL     1      25.753  -5.547 -43.059  0.00  0.00    +0.000 HD
ENDBRANCH  17  18
ENDBRANCH   6  17
TORSDOF 8
ENDMDL
