MODEL 1
REMARK VINA RESULT:    -5.168      0.000      0.000
REMARK INTER + INTRA:          -7.654
REMARK INTER:                  -6.980
REMARK INTRA:                  -0.673
REMARK UNBOUND:                -0.673
REMARK  Name = resultss/4CJN/ligands/lig_23_t0.pdb
REMARK  10 active torsions:
REMARK  status: ('A' for Active; 'I' for Inactive)
REMARK    1  A    between atoms: C1_1  and  SI1_2
REMARK    2  A    between atoms: SI1_2  and  C2_3
REMARK    3  A    between atoms: SI1_2  and  C3_4
REMARK    4  A    between atoms: SI1_2  and  C10_16
REMARK    5  A    between atoms: C3_4  and  N1_5
REMARK    6  A    between atoms: C5_7  and  O1_8
REMARK    7  A    between atoms: C6_9  and  O2_10
REMARK    8  A    between atoms: C7_11  and  O3_12
REMARK    9  A    between atoms: C8_13  and  C9_14
REMARK   10  A    between atoms: C9_14  and  O4_15
REMARK                            x       y       z     vdW  Elec       q    Type
REMARK                         _______ _______ _______ _____ _____    ______ ____
ROOT
ATOM      1  N1  UNL     1      27.262  -8.899 -38.322  0.00  0.00    +0.000 NA
ATOM      2  C4  UNL     1      28.717  -9.004 -38.632  0.00  0.00    +0.000 C 
ATOM      3  C5  UNL     1      29.038  -9.951 -39.813  0.00  0.00    +0.000 C 
ATOM      4  C6  UNL     1      27.894 -10.949 -40.036  0.00  0.00    +0.000 C 
ATOM      5  C7  UNL     1      26.571 -10.202 -40.334  0.00  0.00    +0.000 C 
ATOM      6  C8  UNL     1      26.470  -8.835 -39.587  0.00  0.00    +0.000 C 
ENDROOT
BRANCH   3   7
ATOM      7  O1  UNL     1      29.258  -9.194 -40.976  0.00  0.00    +0.000 OA
ATOM      8  H12 UNL     1      30.125  -8.725 -40.855  0.00  0.00    +0.000 HD
ENDBRANCH   3   7
BRANCH   4   9
ATOM      9  O2  UNL     1      27.754 -11.750 -38.888  0.00  0.00    +0.000 OA
ATOM     10  H14 UNL     1      27.113 -12.473 -39.119  0.00  0.00    +0.000 HD
ENDBRANCH   4   9
BRANCH   5  11
ATOM     11  O3  UNL     1      26.460  -9.974 -41.718  0.00  0.00    +0.000 OA
ATOM     12  H16 UNL     1      27.379  -9.816 -42.061  0.00  0.00    +0.000 HD
ENDBRANCH   5  11
BRANCH   1  13
ATOM     13  C3  UNL     1      27.020  -7.745 -37.417  0.00  0.00    +0.000 C 
BRANCH  13  15
ATOM     14  C1  UNL     1      27.733  -9.918 -35.401  0.00  0.00    +0.000 C 
ATOM     15 SI1  UNL     1      26.969  -8.226 -35.592  0.00  0.00    +0.000 Si
ATOM     16  C2  UNL     1      27.990  -7.001 -34.614  0.00  0.00    +0.000 C 
BRANCH  15  17
ATOM     17  C10 UNL     1      25.217  -8.313 -34.988  0.00  0.00    +0.000 A 
ATOM     18  C11 UNL     1      24.159  -7.828 -35.772  0.00  0.00    +0.000 A 
ATOM     19  C12 UNL     1      22.845  -7.905 -35.302  0.00  0.00    +0.000 A 
ATOM     20  C13 UNL     1      22.580  -8.462 -34.049  0.00  0.00    +0.000 A 
ATOM     21  C14 UNL     1      23.631  -8.940 -33.261  0.00  0.00    +0.000 A 
ATOM     22  C15 UNL     1      24.946  -8.865 -33.728  0.00  0.00    +0.000 A 
ENDBRANCH  15  17
ENDBRANCH  13  15
ENDBRANCH   1  13
BRANCH   6  23
ATOM     23  C9  UNL     1      24.972  -8.479 -39.369  0.00  0.00    +0.000 C 
BRANCH  23  24
ATOM     24  O4  UNL     1      24.127  -9.401 -40.005  0.00  0.00    +0.000 OA
ATOM     25  H20 UNL     1      23.891  -9.009 -40.887  0.00  0.00    +0.000 HD
ENDBRANCH  23  24
ENDBRANCH   6  23
TORSDOF 8
ENDMDL
MODEL 2
REMARK VINA RESULT:    -5.017      2.801      6.602
REMARK INTER + INTRA:          -7.450
REMARK INTER:                  -6.754
REMARK INTRA:                  -0.697
REMARK UNBOUND:                -0.673
REMARK  Name = resultss/4CJN/ligands/lig_23_t0.pdb
REMARK  10 active torsions:
REMARK  status: ('A' for Active; 'I' for Inactive)
REMARK    1  A    between atoms: C1_1  and  SI1_2
REMARK    2  A    between atoms: SI1_2  and  C2_3
REMARK    3  A    between atoms: SI1_2  and  C3_4
REMARK    4  A    between atoms: SI1_2  and  C10_16
REMARK    5  A    between atoms: C3_4  and  N1_5
REMARK    6  A    between atoms: C5_7  and  O1_8
REMARK    7  A    between atoms: C6_9  and  O2_10
REMARK    8  A    between atoms: C7_11  and  O3_12
REMARK    9  A    between atoms: C8_13  and  C9_14
REMARK   10  A    between atoms: C9_14  and  O4_15
REMARK                            x       y       z     vdW  Elec       q    Type
REMARK                         _______ _______ _______ _____ _____    ______ ____
ROOT
ATOM      1  N1  UNL     1      27.346  -9.406 -36.859  0.00  0.00    +0.000 NA
ATOM      2  C4  UNL     1      27.513 -10.097 -35.548  0.00  0.00    +0.000 C 
ATOM      3  C5  UNL     1      26.568  -9.574 -34.440  0.00  0.00    +0.000 C 
ATOM      4  C6  UNL     1      26.079  -8.157 -34.767  0.00  0.00    +0.000 C 
ATOM      5  C7  UNL     1      25.327  -8.140 -36.121  0.00  0.00    +0.000 C 
ATOM      6  C8  UNL     1      25.896  -9.177 -37.138  0.00  0.00    +0.000 C 
ENDROOT
BRANCH   3   7
ATOM      7  O1  UNL     1      25.476 -10.447 -34.303  0.00  0.00    +0.000 OA
ATOM      8  H12 UNL     1      24.905 -10.083 -33.577  0.00  0.00    +0.000 HD
ENDBRANCH   3   7
BRANCH   4   9
ATOM      9  O2  UNL     1      27.184  -7.289 -34.813  0.00  0.00    +0.000 OA
ATOM     10  H14 UNL     1      27.640  -7.356 -33.933  0.00  0.00    +0.000 HD
ENDBRANCH   4   9
BRANCH   5  11
ATOM     11  O3  UNL     1      23.964  -8.414 -35.905  0.00  0.00    +0.000 OA
ATOM     12  H16 UNL     1      23.453  -7.894 -36.580  0.00  0.00    +0.000 HD
ENDBRANCH   5  11
BRANCH   1  13
ATOM     13  C3  UNL     1      28.038 -10.172 -37.927  0.00  0.00    +0.000 C 
BRANCH  13  15
ATOM     14  C1  UNL     1      29.341  -7.460 -38.419  0.00  0.00    +0.000 C 
ATOM     15 SI1  UNL     1      29.577  -9.304 -38.592  0.00  0.00    +0.000 Si
ATOM     16  C2  UNL     1      31.053  -9.811 -37.560  0.00  0.00    +0.000 C 
BRANCH  15  17
ATOM     17  C10 UNL     1      29.818  -9.688 -40.391  0.00  0.00    +0.000 A 
ATOM     18  C11 UNL     1      31.085 -10.027 -40.892  0.00  0.00    +0.000 A 
ATOM     19  C12 UNL     1      31.247 -10.316 -42.250  0.00  0.00    +0.000 A 
ATOM     20  C13 UNL     1      30.150 -10.265 -43.113  0.00  0.00    +0.000 A 
ATOM     21  C14 UNL     1      28.888  -9.921 -42.620  0.00  0.00    +0.000 A 
ATOM     22  C15 UNL     1      28.722  -9.631 -41.263  0.00  0.00    +0.000 A 
ENDBRANCH  15  17
ENDBRANCH  13  15
ENDBRANCH   1  13
BRANCH   6  23
ATOM     23  C9  UNL     1      25.609  -8.686 -38.585  0.00  0.00    +0.000 C 
BRANCH  23  24
ATOM     24  O4  UNL     1      24.245  -8.785 -38.900  0.00  0.00    +0.000 OA
ATOM     25  H20 UNL     1      23.919  -9.628 -38.489  0.00  0.00    +0.000 HD
ENDBRANCH  23  24
ENDBRANCH   6  23
TORSDOF 8
ENDMDL
MODEL 3
REMARK VINA RESULT:    -4.650      3.462      6.468
REMARK INTER + INTRA:          -6.954
REMARK INTER:                  -6.181
REMARK INTRA:                  -0.773
REMARK UNBOUND:                -0.673
REMARK  Name = resultss/4CJN/ligands/lig_23_t0.pdb
REMARK  10 active torsions:
REMARK  status: ('A' for Active; 'I' for Inactive)
REMARK    1  A    between atoms: C1_1  and  SI1_2
REMARK    2  A    between atoms: SI1_2  and  C2_3
REMARK    3  A    between atoms: SI1_2  and  C3_4
REMARK    4  A    between atoms: SI1_2  and  C10_16
REMARK    5  A    between atoms: C3_4  and  N1_5
REMARK    6  A    between atoms: C5_7  and  O1_8
REMARK    7  A    between atoms: C6_9  and  O2_10
REMARK    8  A    between atoms: C7_11  and  O3_12
REMARK    9  A    between atoms: C8_13  and  C9_14
REMARK   10  A    between atoms: C9_14  and  O4_15
REMARK                            x       y       z     vdW  Elec       q    Type
REMARK                         _______ _______ _______ _____ _____    ______ ____
ROOT
ATOM      1  N1  UNL     1      26.662  -8.450 -40.734  0.00  0.00    +0.000 NA
ATOM      2  C4  UNL     1      26.810  -8.266 -42.206  0.00  0.00    +0.000 C 
ATOM      3  C5  UNL     1      25.487  -8.427 -42.992  0.00  0.00    +0.000 C 
ATOM      4  C6  UNL     1      24.470  -9.244 -42.184  0.00  0.00    +0.000 C 
ATOM      5  C7  UNL     1      24.172  -8.555 -40.829  0.00  0.00    +0.000 C 
ATOM      6  C8  UNL     1      25.408  -7.794 -40.257  0.00  0.00    +0.000 C 
ENDROOT
BRANCH   3   7
ATOM      7  O1  UNL     1      24.963  -7.158 -43.294  0.00  0.00    +0.000 OA
ATOM      8  H12 UNL     1      25.705  -6.624 -43.681  0.00  0.00    +0.000 HD
ENDBRANCH   3   7
BRANCH   4   9
ATOM      9  O2  UNL     1      24.985 -10.535 -41.971  0.00  0.00    +0.000 OA
ATOM     10  H14 UNL     1      25.025 -10.979 -42.858  0.00  0.00    +0.000 HD
ENDBRANCH   4   9
BRANCH   5  11
ATOM     11  O3  UNL     1      23.110  -7.646 -40.988  0.00  0.00    +0.000 OA
ATOM     12  H16 UNL     1      22.275  -8.181 -41.043  0.00  0.00    +0.000 HD
ENDBRANCH   5  11
BRANCH   1  13
ATOM     13  C3  UNL     1      27.882  -7.964 -40.039  0.00  0.00    +0.000 C 
BRANCH  13  15
ATOM     14  C1  UNL     1      30.000  -8.672 -37.963  0.00  0.00    +0.000 C 
ATOM     15 SI1  UNL     1      28.955  -9.357 -39.351  0.00  0.00    +0.000 Si
ATOM     16  C2  UNL     1      27.844 -10.690 -38.653  0.00  0.00    +0.000 C 
BRANCH  15  17
ATOM     17  C10 UNL     1      30.094 -10.012 -40.660  0.00  0.00    +0.000 A 
ATOM     18  C11 UNL     1      29.631 -10.907 -41.636  0.00  0.00    +0.000 A 
ATOM     19  C12 UNL     1      30.503 -11.388 -42.617  0.00  0.00    +0.000 A 
ATOM     20  C13 UNL     1      31.840 -10.983 -42.627  0.00  0.00    +0.000 A 
ATOM     21  C14 UNL     1      32.308 -10.098 -41.652  0.00  0.00    +0.000 A 
ATOM     22  C15 UNL     1      31.439  -9.615 -40.669  0.00  0.00    +0.000 A 
ENDBRANCH  15  17
ENDBRANCH  13  15
ENDBRANCH   1  13
BRANCH   6  23
ATOM     23  C9  UNL     1      25.292  -7.720 -38.708  0.00  0.00    +0.000 C 
BRANCH  23  24
ATOM     24  O4  UNL     1      24.266  -8.548 -38.229  0.00  0.00    +0.000 OA
ATOM     25  H20 UNL     1      24.505  -8.788 -37.296  0.00  0.00    +0.000 HD
ENDBRANCH  23  24
ENDBRANCH   6  23
TORSDOF 8
ENDMDL
MODEL 4
REMARK VINA RESULT:    -4.613      3.180      6.382
REMARK INTER + INTRA:          -6.905
REMARK INTER:                  -6.177
REMARK INTRA:                  -0.727
REMARK UNBOUND:                -0.673
REMARK  Name = resultss/4CJN/ligands/lig_23_t0.pdb
REMARK  10 active torsions:
REMARK  status: ('A' for Active; 'I' for Inactive)
REMARK    1  A    between atoms: C1_1  and  SI1_2
REMARK    2  A    between atoms: SI1_2  and  C2_3
REMARK    3  A    between atoms: SI1_2  and  C3_4
REMARK    4  A    between atoms: SI1_2  and  C10_16
REMARK    5  A    between atoms: C3_4  and  N1_5
REMARK    6  A    between atoms: C5_7  and  O1_8
REMARK    7  A    between atoms: C6_9  and  O2_10
REMARK    8  A    between atoms: C7_11  and  O3_12
REMARK    9  A    between atoms: C8_13  and  C9_14
REMARK   10  A    between atoms: C9_14  and  O4_15
REMARK                            x       y       z     vdW  Elec       q    Type
REMARK                         _______ _______ _______ _____ _____    ______ ____
ROOT
ATOM      1  N1  UNL     1      26.288  -8.179 -36.027  0.00  0.00    +0.000 NA
ATOM      2  C4  UNL     1      24.803  -8.088 -35.925  0.00  0.00    +0.000 C 
ATOM      3  C5  UNL     1      24.250  -8.442 -34.524  0.00  0.00    +0.000 C 
ATOM      4  C6  UNL     1      25.254  -9.301 -33.744  0.00  0.00    +0.000 C 
ATOM      5  C7  UNL     1      26.599  -8.551 -33.580  0.00  0.00    +0.000 C 
ATOM      6  C8  UNL     1      26.924  -7.626 -34.794  0.00  0.00    +0.000 C 
ENDROOT
BRANCH   3   7
ATOM      7  O1  UNL     1      23.967  -7.261 -33.818  0.00  0.00    +0.000 OA
ATOM      8  H12 UNL     1      24.798  -6.717 -33.820  0.00  0.00    +0.000 HD
ENDBRANCH   3   7
BRANCH   4   9
ATOM      9  O2  UNL     1      25.452 -10.513 -34.431  0.00  0.00    +0.000 OA
ATOM     10  H14 UNL     1      25.419 -10.302 -35.400  0.00  0.00    +0.000 HD
ENDBRANCH   4   9
BRANCH   5  11
ATOM     11  O3  UNL     1      26.564  -7.772 -32.409  0.00  0.00    +0.000 OA
ATOM     12  H16 UNL     1      27.506  -7.593 -32.151  0.00  0.00    +0.000 HD
ENDBRANCH   5  11
BRANCH   1  13
ATOM     13  C3  UNL     1      26.750  -7.519 -37.275  0.00  0.00    +0.000 C 
BRANCH  13  15
ATOM     14  C1  UNL     1      29.217  -7.938 -39.017  0.00  0.00    +0.000 C 
ATOM     15 SI1  UNL     1      27.603  -8.702 -38.475  0.00  0.00    +0.000 Si
ATOM     16  C2  UNL     1      27.976 -10.305 -37.584  0.00  0.00    +0.000 C 
BRANCH  15  17
ATOM     17  C10 UNL     1      26.557  -8.970 -39.983  0.00  0.00    +0.000 A 
ATOM     18  C11 UNL     1      27.141  -9.293 -41.217  0.00  0.00    +0.000 A 
ATOM     19  C12 UNL     1      26.337  -9.494 -42.343  0.00  0.00    +0.000 A 
ATOM     20  C13 UNL     1      24.949  -9.369 -42.244  0.00  0.00    +0.000 A 
ATOM     21  C14 UNL     1      24.363  -9.040 -41.019  0.00  0.00    +0.000 A 
ATOM     22  C15 UNL     1      25.164  -8.838 -39.892  0.00  0.00    +0.000 A 
ENDBRANCH  15  17
ENDBRANCH  13  15
ENDBRANCH   1  13
BRANCH   6  23
ATOM     23  C9  UNL     1      28.465  -7.453 -34.909  0.00  0.00    +0.000 C 
BRANCH  23  24
ATOM     24  O4  UNL     1      29.142  -8.245 -33.970  0.00  0.00    +0.000 OA
ATOM     25  H20 UNL     1      29.623  -8.947 -34.482  0.00  0.00    +0.000 HD
ENDBRANCH  23  24
ENDBRANCH   6  23
TORSDOF 8
ENDMDL
MODEL 5
REMARK VINA RESULT:    -4.603      3.183      6.264
REMARK INTER + INTRA:          -6.890
REMARK INTER:                  -6.370
REMARK INTRA:                  -0.520
REMARK UNBOUND:                -0.673
REMARK  Name = resultss/4CJN/ligands/lig_23_t0.pdb
REMARK  10 active torsions:
REMARK  status: ('A' for Active; 'I' for Inactive)
REMARK    1  A    between atoms: C1_1  and  SI1_2
REMARK    2  A    between atoms: SI1_2  and  C2_3
REMARK    3  A    between atoms: SI1_2  and  C3_4
REMARK    4  A    between atoms: SI1_2  and  C10_16
REMARK    5  A    between atoms: C3_4  and  N1_5
REMARK    6  A    between atoms: C5_7  and  O1_8
REMARK    7  A    between atoms: C6_9  and  O2_10
REMARK    8  A    between atoms: C7_11  and  O3_12
REMARK    9  A    between atoms: C8_13  and  C9_14
REMARK   10  A    between atoms: C9_14  and  O4_15
REMARK                            x       y       z     vdW  Elec       q    Type
REMARK                         _______ _______ _______ _____ _____    ______ ____
ROOT
ATOM      1  N1  UNL     1      25.500  -8.269 -36.309  0.00  0.00    +0.000 NA
ATOM      2  C4  UNL     1      26.246  -9.529 -36.027  0.00  0.00    +0.000 C 
ATOM      3  C5  UNL     1      26.445  -9.814 -34.520  0.00  0.00    +0.000 C 
ATOM      4  C6  UNL     1      26.321  -8.523 -33.701  0.00  0.00    +0.000 C 
ATOM      5  C7  UNL     1      24.929  -7.876 -33.913  0.00  0.00    +0.000 C 
ATOM      6  C8  UNL     1      24.367  -8.116 -35.348  0.00  0.00    +0.000 C 
ENDROOT
BRANCH   3   7
ATOM      7  O1  UNL     1      25.495 -10.757 -34.090  0.00  0.00    +0.000 OA
ATOM      8  H12 UNL     1      25.913 -11.652 -34.189  0.00  0.00    +0.000 HD
ENDBRANCH   3   7
BRANCH   4   9
ATOM      9  O2  UNL     1      27.336  -7.632 -34.092  0.00  0.00    +0.000 OA
ATOM     10  H14 UNL     1      28.158  -7.899 -33.603  0.00  0.00    +0.000 HD
ENDBRANCH   4   9
BRANCH   5  11
ATOM     11  O3  UNL     1      24.021  -8.397 -32.974  0.00  0.00    +0.000 OA
ATOM     12  H16 UNL     1      23.754  -7.646 -32.380  0.00  0.00    +0.000 HD
ENDBRANCH   5  11
BRANCH   1  13
ATOM     13  C3  UNL     1      25.074  -8.241 -37.732  0.00  0.00    +0.000 C 
BRANCH  13  15
ATOM     14  C1  UNL     1      25.444  -6.379 -40.117  0.00  0.00    +0.000 C 
ATOM     15 SI1  UNL     1      26.346  -7.444 -38.878  0.00  0.00    +0.000 Si
ATOM     16  C2  UNL     1      27.472  -6.348 -37.864  0.00  0.00    +0.000 C 
BRANCH  15  17
ATOM     17  C10 UNL     1      27.288  -8.741 -39.811  0.00  0.00    +0.000 A 
ATOM     18  C11 UNL     1      28.244  -8.384 -40.775  0.00  0.00    +0.000 A 
ATOM     19  C12 UNL     1      28.947  -9.375 -41.466  0.00  0.00    +0.000 A 
ATOM     20  C13 UNL     1      28.698 -10.724 -41.203  0.00  0.00    +0.000 A 
ATOM     21  C14 UNL     1      27.742 -11.085 -40.250  0.00  0.00    +0.000 A 
ATOM     22  C15 UNL     1      27.037 -10.097 -39.556  0.00  0.00    +0.000 A 
ENDBRANCH  15  17
ENDBRANCH  13  15
ENDBRANCH   1  13
BRANCH   6  23
ATOM     23  C9  UNL     1      23.388  -6.965 -35.715  0.00  0.00    +0.000 C 
BRANCH  23  24
ATOM     24  O4  UNL     1      22.162  -7.463 -36.181  0.00  0.00    +0.000 OA
ATOM     25  H20 UNL     1      21.982  -8.298 -35.675  0.00  0.00    +0.000 HD
ENDBRANCH  23  24
ENDBRANCH   6  23
TORSDOF 8
ENDMDL
MODEL 6
REMARK VINA RESULT:    -4.597      3.539      7.646
REMARK INTER + INTRA:          -6.882
REMARK INTER:                  -6.252
REMARK INTRA:                  -0.630
REMARK UNBOUND:                -0.673
REMARK  Name = resultss/4CJN/ligands/lig_23_t0.pdb
REMARK  10 active torsions:
REMARK  status: ('A' for Active; 'I' for Inactive)
REMARK    1  A    between atoms: C1_1  and  SI1_2
REMARK    2  A    between atoms: SI1_2  and  C2_3
REMARK    3  A    between atoms: SI1_2  and  C3_4
REMARK    4  A    between atoms: SI1_2  and  C10_16
REMARK    5  A    between atoms: C3_4  and  N1_5
REMARK    6  A    between atoms: C5_7  and  O1_8
REMARK    7  A    between atoms: C6_9  and  O2_10
REMARK    8  A    between atoms: C7_11  and  O3_12
REMARK    9  A    between atoms: C8_13  and  C9_14
REMARK   10  A    between atoms: C9_14  and  O4_15
REMARK                            x       y       z     vdW  Elec       q    Type
REMARK                         _______ _______ _______ _____ _____    ______ ____
ROOT
ATOM      1  N1  UNL     1      27.769  -9.456 -39.989  0.00  0.00    +0.000 NA
ATOM      2  C4  UNL     1      28.302  -9.657 -38.610  0.00  0.00    +0.000 C 
ATOM      3  C5  UNL     1      27.438  -9.006 -37.505  0.00  0.00    +0.000 C 
ATOM      4  C6  UNL     1      26.567  -7.884 -38.086  0.00  0.00    +0.000 C 
ATOM      5  C7  UNL     1      25.637  -8.436 -39.194  0.00  0.00    +0.000 C 
ATOM      6  C8  UNL     1      26.283  -9.609 -39.993  0.00  0.00    +0.000 C 
ENDROOT
BRANCH   3   7
ATOM      7  O1  UNL     1      26.631  -9.985 -36.900  0.00  0.00    +0.000 OA
ATOM      8  H12 UNL     1      26.108  -9.528 -36.190  0.00  0.00    +0.000 HD
ENDBRANCH   3   7
BRANCH   4   9
ATOM      9  O2  UNL     1      27.402  -6.878 -38.606  0.00  0.00    +0.000 OA
ATOM     10  H14 UNL     1      27.856  -7.264 -39.401  0.00  0.00    +0.000 HD
ENDBRANCH   4   9
BRANCH   5  11
ATOM     11  O3  UNL     1      24.434  -8.884 -38.618  0.00  0.00    +0.000 OA
ATOM     12  H16 UNL     1      24.213  -8.256 -37.881  0.00  0.00    +0.000 HD
ENDBRANCH   5  11
BRANCH   1  13
ATOM     13  C3  UNL     1      28.459 -10.371 -40.935  0.00  0.00    +0.000 C 
BRANCH  13  15
ATOM     14  C1  UNL     1      28.777  -8.552 -43.361  0.00  0.00    +0.000 C 
ATOM     15 SI1  UNL     1      29.709  -9.494 -42.046  0.00  0.00    +0.000 Si
ATOM     16  C2  UNL     1      30.680  -8.270 -41.017  0.00  0.00    +0.000 C 
BRANCH  15  17
ATOM     17  C10 UNL     1      30.810 -10.725 -42.889  0.00  0.00    +0.000 A 
ATOM     18  C11 UNL     1      31.756 -10.312 -43.841  0.00  0.00    +0.000 A 
ATOM     19  C12 UNL     1      32.580 -11.254 -44.464  0.00  0.00    +0.000 A 
ATOM     20  C13 UNL     1      32.462 -12.609 -44.146  0.00  0.00    +0.000 A 
ATOM     21  C14 UNL     1      31.517 -13.026 -43.204  0.00  0.00    +0.000 A 
ATOM     22  C15 UNL     1      30.691 -12.087 -42.579  0.00  0.00    +0.000 A 
ENDBRANCH  15  17
ENDBRANCH  13  15
ENDBRANCH   1  13
BRANCH   6  23
ATOM     23  C9  UNL     1      25.666  -9.660 -41.419  0.00  0.00    +0.000 C 
BRANCH  23  24
ATOM     24  O4  UNL     1      24.263  -9.665 -41.371  0.00  0.00    +0.000 OA
ATOM     25  H20 UNL     1      24.010 -10.028 -40.483  0.00  0.00    +0.000 HD
ENDBRANCH  23  24
ENDBRANCH   6  23
TORSDOF 8
ENDMDL
MODEL 7
REMARK VINA RESULT:    -4.571      1.534      3.025
REMARK INTER + INTRA:          -6.848
REMARK INTER:                  -6.120
REMARK INTRA:                  -0.728
REMARK UNBOUND:                -0.673
REMARK  Name = resultss/4CJN/ligands/lig_23_t0.pdb
REMARK  10 active torsions:
REMARK  status: ('A' for Active; 'I' for Inactive)
REMARK    1  A    between atoms: C1_1  and  SI1_2
REMARK    2  A    between atoms: SI1_2  and  C2_3
REMARK    3  A    between atoms: SI1_2  and  C3_4
REMARK    4  A    between atoms: SI1_2  and  C10_16
REMARK    5  A    between atoms: C3_4  and  N1_5
REMARK    6  A    between atoms: C5_7  and  O1_8
REMARK    7  A    between atoms: C6_9  and  O2_10
REMARK    8  A    between atoms: C7_11  and  O3_12
REMARK    9  A    between atoms: C8_13  and  C9_14
REMARK   10  A    between atoms: C9_14  and  O4_15
REMARK                            x       y       z     vdW  Elec       q    Type
REMARK                         _______ _______ _______ _____ _____    ______ ____
ROOT
ATOM      1  N1  UNL     1      28.013  -9.361 -37.475  0.00  0.00    +0.000 NA
ATOM      2  C4  UNL     1      26.773  -9.613 -38.265  0.00  0.00    +0.000 C 
ATOM      3  C5  UNL     1      26.996  -9.611 -39.796  0.00  0.00    +0.000 C 
ATOM      4  C6  UNL     1      28.272  -8.840 -40.159  0.00  0.00    +0.000 C 
ATOM      5  C7  UNL     1      29.506  -9.476 -39.470  0.00  0.00    +0.000 C 
ATOM      6  C8  UNL     1      29.166 -10.095 -38.079  0.00  0.00    +0.000 C 
ENDROOT
BRANCH   3   7
ATOM      7  O1  UNL     1      27.078 -10.934 -40.262  0.00  0.00    +0.000 OA
ATOM      8  H12 UNL     1      27.146 -11.518 -39.461  0.00  0.00    +0.000 HD
ENDBRANCH   3   7
BRANCH   4   9
ATOM      9  O2  UNL     1      28.128  -7.500 -39.759  0.00  0.00    +0.000 OA
ATOM     10  H14 UNL     1      27.799  -7.513 -38.822  0.00  0.00    +0.000 HD
ENDBRANCH   4   9
BRANCH   5  11
ATOM     11  O3  UNL     1      30.041 -10.480 -40.297  0.00  0.00    +0.000 OA
ATOM     12  H16 UNL     1      30.936 -10.166 -40.594  0.00  0.00    +0.000 HD
ENDBRANCH   5  11
BRANCH   1  13
ATOM     13  C3  UNL     1      27.780  -9.701 -36.048  0.00  0.00    +0.000 C 
BRANCH  13  15
ATOM     14  C1  UNL     1      28.091  -8.285 -33.366  0.00  0.00    +0.000 C 
ATOM     15 SI1  UNL     1      27.211  -8.229 -35.012  0.00  0.00    +0.000 Si
ATOM     16  C2  UNL     1      27.695  -6.648 -35.888  0.00  0.00    +0.000 C 
BRANCH  15  17
ATOM     17  C10 UNL     1      25.386  -8.320 -34.693  0.00  0.00    +0.000 A 
ATOM     18  C11 UNL     1      24.465  -7.852 -35.642  0.00  0.00    +0.000 A 
ATOM     19  C12 UNL     1      23.093  -7.932 -35.386  0.00  0.00    +0.000 A 
ATOM     20  C13 UNL     1      22.634  -8.474 -34.183  0.00  0.00    +0.000 A 
ATOM     21  C14 UNL     1      23.549  -8.935 -33.231  0.00  0.00    +0.000 A 
ATOM     22  C15 UNL     1      24.921  -8.857 -33.484  0.00  0.00    +0.000 A 
ENDBRANCH  15  17
ENDBRANCH  13  15
ENDBRANCH   1  13
BRANCH   6  23
ATOM     23  C9  UNL     1      30.442 -10.092 -37.190  0.00  0.00    +0.000 C 
BRANCH  23  24
ATOM     24  O4  UNL     1      31.567 -10.529 -37.906  0.00  0.00    +0.000 OA
ATOM     25  H20 UNL     1      31.585 -11.519 -37.831  0.00  0.00    +0.000 HD
ENDBRANCH  23  24
ENDBRANCH   6  23
TORSDOF 8
ENDMDL
MODEL 8
REMARK VINA RESULT:    -4.561      3.632      6.575
REMARK INTER + INTRA:          -6.834
REMARK INTER:                  -6.080
REMARK INTRA:                  -0.754
REMARK UNBOUND:                -0.673
REMARK  Name = resultss/4CJN/ligands/lig_23_t0.pdb
REMARK  10 active torsions:
REMARK  status: ('A' for Active; 'I' for Inactive)
REMARK    1  A    between atoms: C1_1  and  SI1_2
REMARK    2  A    between atoms: SI1_2  and  C2_3
REMARK    3  A    between atoms: SI1_2  and  C3_4
REMARK    4  A    between atoms: SI1_2  and  C10_16
REMARK    5  A    between atoms: C3_4  and  N1_5
REMARK    6  A    between atoms: C5_7  and  O1_8
REMARK    7  A    between atoms: C6_9  and  O2_10
REMARK    8  A    between atoms: C7_11  and  O3_12
REMARK    9  A    between atoms: C8_13  and  C9_14
REMARK   10  A    between atoms: C9_14  and  O4_15
REMARK                            x       y       z     vdW  Elec       q    Type
REMARK                         _______ _______ _______ _____ _____    ______ ____
ROOT
ATOM      1  N1  UNL     1      25.124  -7.537 -35.389  0.00  0.00    +0.000 NA
ATOM      2  C4  UNL     1      23.789  -7.758 -36.016  0.00  0.00    +0.000 C 
ATOM      3  C5  UNL     1      22.643  -7.949 -34.995  0.00  0.00    +0.000 C 
ATOM      4  C6  UNL     1      23.194  -8.399 -33.636  0.00  0.00    +0.000 C 
ATOM      5  C7  UNL     1      24.194  -7.353 -33.082  0.00  0.00    +0.000 C 
ATOM      6  C8  UNL     1      24.994  -6.630 -34.209  0.00  0.00    +0.000 C 
ENDROOT
BRANCH   3   7
ATOM      7  O1  UNL     1      21.929  -6.747 -34.858  0.00  0.00    +0.000 OA
ATOM      8  H12 UNL     1      22.602  -6.018 -34.791  0.00  0.00    +0.000 HD
ENDBRANCH   3   7
BRANCH   4   9
ATOM      9  O2  UNL     1      23.828  -9.645 -33.787  0.00  0.00    +0.000 OA
ATOM     10  H14 UNL     1      24.006  -9.991 -32.873  0.00  0.00    +0.000 HD
ENDBRANCH   4   9
BRANCH   5  11
ATOM     11  O3  UNL     1      23.498  -6.391 -32.328  0.00  0.00    +0.000 OA
ATOM     12  H16 UNL     1      24.142  -6.015 -31.671  0.00  0.00    +0.000 HD
ENDBRANCH   5  11
BRANCH   1  13
ATOM     13  C3  UNL     1      26.086  -7.044 -36.409  0.00  0.00    +0.000 C 
BRANCH  13  15
ATOM     14  C1  UNL     1      28.926  -7.617 -37.356  0.00  0.00    +0.000 C 
ATOM     15 SI1  UNL     1      27.253  -8.385 -37.045  0.00  0.00    +0.000 Si
ATOM     16  C2  UNL     1      27.440  -9.701 -35.729  0.00  0.00    +0.000 C 
BRANCH  15  17
ATOM     17  C10 UNL     1      26.633  -9.084 -38.648  0.00  0.00    +0.000 A 
ATOM     18  C11 UNL     1      25.402  -8.675 -39.183  0.00  0.00    +0.000 A 
ATOM     19  C12 UNL     1      24.952  -9.211 -40.394  0.00  0.00    +0.000 A 
ATOM     20  C13 UNL     1      25.724 -10.157 -41.073  0.00  0.00    +0.000 A 
ATOM     21  C14 UNL     1      26.947 -10.572 -40.539  0.00  0.00    +0.000 A 
ATOM     22  C15 UNL     1      27.400 -10.039 -39.329  0.00  0.00    +0.000 A 
ENDBRANCH  15  17
ENDBRANCH  13  15
ENDBRANCH   1  13
BRANCH   6  23
ATOM     23  C9  UNL     1      26.359  -6.147 -33.641  0.00  0.00    +0.000 C 
BRANCH  23  24
ATOM     24  O4  UNL     1      26.494  -6.473 -32.283  0.00  0.00    +0.000 OA
ATOM     25  H20 UNL     1      27.284  -7.070 -32.210  0.00  0.00    +0.000 HD
ENDBRANCH  23  24
ENDBRANCH   6  23
TORSDOF 8
ENDMDL
MODEL 9
REMARK VINA RESULT:    -4.510      3.134      5.887
REMARK INTER + INTRA:          -6.765
REMARK INTER:                  -6.063
REMARK INTRA:                  -0.701
REMARK UNBOUND:                -0.673
REMARK  Name = resultss/4CJN/ligands/lig_23_t0.pdb
REMARK  10 active torsions:
REMARK  status: ('A' for Active; 'I' for Inactive)
REMARK    1  A    between atoms: C1_1  and  SI1_2
REMARK    2  A    between atoms: SI1_2  and  C2_3
REMARK    3  A    between atoms: SI1_2  and  C3_4
REMARK    4  A    between atoms: SI1_2  and  C10_16
REMARK    5  A    between atoms: C3_4  and  N1_5
REMARK    6  A    between atoms: C5_7  and  O1_8
REMARK    7  A    between atoms: C6_9  and  O2_10
REMARK    8  A    between atoms: C7_11  and  O3_12
REMARK    9  A    between atoms: C8_13  and  C9_14
REMARK   10  A    between atoms: C9_14  and  O4_15
REMARK                            x       y       z     vdW  Elec       q    Type
REMARK                         _______ _______ _______ _____ _____    ______ ____
ROOT
ATOM      1  N1  UNL     1      26.254  -8.724 -35.846  0.00  0.00    +0.000 NA
ATOM      2  C4  UNL     1      25.881  -9.103 -34.452  0.00  0.00    +0.000 C 
ATOM      3  C5  UNL     1      24.631  -8.366 -33.917  0.00  0.00    +0.000 C 
ATOM      4  C6  UNL     1      24.388  -7.068 -34.698  0.00  0.00    +0.000 C 
ATOM      5  C7  UNL     1      24.191  -7.368 -36.205  0.00  0.00    +0.000 C 
ATOM      6  C8  UNL     1      25.027  -8.594 -36.688  0.00  0.00    +0.000 C 
ENDROOT
BRANCH   3   7
ATOM      7  O1  UNL     1      23.511  -9.209 -34.015  0.00  0.00    +0.000 OA
ATOM      8  H12 UNL     1      22.786  -8.678 -34.438  0.00  0.00    +0.000 HD
ENDBRANCH   3   7
BRANCH   4   9
ATOM      9  O2  UNL     1      25.487  -6.209 -34.513  0.00  0.00    +0.000 OA
ATOM     10  H14 UNL     1      25.286  -5.653 -33.715  0.00  0.00    +0.000 HD
ENDBRANCH   4   9
BRANCH   5  11
ATOM     11  O3  UNL     1      22.830  -7.615 -36.461  0.00  0.00    +0.000 OA
ATOM     12  H16 UNL     1      22.530  -6.935 -37.120  0.00  0.00    +0.000 HD
ENDBRANCH   5  11
BRANCH   1  13
ATOM     13  C3  UNL     1      27.240  -9.695 -36.387  0.00  0.00    +0.000 C 
BRANCH  13  15
ATOM     14  C1  UNL     1      29.772  -9.770 -38.082  0.00  0.00    +0.000 C 
ATOM     15 SI1  UNL     1      28.967  -8.964 -36.604  0.00  0.00    +0.000 Si
ATOM     16  C2  UNL     1      28.811  -7.130 -36.940  0.00  0.00    +0.000 C 
BRANCH  15  17
ATOM     17  C10 UNL     1      30.016  -9.314 -35.114  0.00  0.00    +0.000 A 
ATOM     18  C11 UNL     1      29.430  -9.604 -33.872  0.00  0.00    +0.000 A 
ATOM     19  C12 UNL     1      30.237  -9.868 -32.761  0.00  0.00    +0.000 A 
ATOM     20  C13 UNL     1      31.628  -9.840 -32.883  0.00  0.00    +0.000 A 
ATOM     21  C14 UNL     1      32.216  -9.545 -34.116  0.00  0.00    +0.000 A 
ATOM     22  C15 UNL     1      31.413  -9.280 -35.229  0.00  0.00    +0.000 A 
ENDBRANCH  15  17
ENDBRANCH  13  15
ENDBRANCH   1  13
BRANCH   6  23
ATOM     23  C9  UNL     1      25.326  -8.444 -38.207  0.00  0.00    +0.000 C 
BRANCH  23  24
ATOM     24  O4  UNL     1      24.249  -8.890 -38.989  0.00  0.00    +0.000 OA
ATOM     25  H20 UNL     1      23.460  -8.935 -38.387  0.00  0.00    +0.000 HD
ENDBRANCH  23  24
ENDBRANCH   6  23
TORSDOF 8
ENDMDL
