MODEL 1
REMARK VINA RESULT:    -3.982      0.000      0.000
REMARK INTER + INTRA:          -5.918
REMARK INTER:                  -5.378
REMARK INTRA:                  -0.539
REMARK UNBOUND:                -0.539
REMARK  Name = resultss/4CJN/ligands/lig_111_t0.pdb
REMARK  9 active torsions:
REMARK  status: ('A' for Active; 'I' for Inactive)
REMARK    1  A    between atoms: C1_1  and  C2_2
REMARK    2  A    between atoms: C2_2  and  C3_3
REMARK    3  A    between atoms: C3_3  and  C4_4
REMARK    4  A    between atoms: C4_4  and  N1_5
REMARK    5  A    between atoms: C6_7  and  O1_8
REMARK    6  A    between atoms: C7_9  and  O2_10
REMARK    7  A    between atoms: C8_11  and  O3_12
REMARK    8  A    between atoms: C9_13  and  C10_14
REMARK    9  A    between atoms: C10_14  and  O4_15
REMARK                            x       y       z     vdW  Elec       q    Type
REMARK                         _______ _______ _______ _____ _____    ______ ____
ROOT
ATOM      1  N1  UNL     1      27.611  -9.708 -41.905  0.00  0.00    +0.000 NA
ATOM      2  C5  UNL     1      26.737  -9.315 -43.042  0.00  0.00    +0.000 C 
ATOM      3  C6  UNL     1      25.683  -8.261 -42.656  0.00  0.00    +0.000 C 
ATOM      4  C7  UNL     1      24.769  -8.759 -41.505  0.00  0.00    +0.000 C 
ATOM      5  C8  UNL     1      25.419  -9.895 -40.672  0.00  0.00    +0.000 C 
ATOM      6  C9  UNL     1      26.948  -9.676 -40.570  0.00  0.00    +0.000 C 
ENDROOT
BRANCH   3   7
ATOM      7  O1  UNL     1      26.334  -7.073 -42.283  0.00  0.00    +0.000 OA
ATOM      8  H13 UNL     1      26.666  -7.205 -41.356  0.00  0.00    +0.000 HD
ENDBRANCH   3   7
BRANCH   4   9
ATOM      9  O2  UNL     1      23.538  -9.184 -42.036  0.00  0.00    +0.000 OA
ATOM     10  H15 UNL     1      23.727  -9.977 -42.602  0.00  0.00    +0.000 HD
ENDBRANCH   4   9
BRANCH   5  11
ATOM     11  O3  UNL     1      25.153 -11.149 -41.253  0.00  0.00    +0.000 OA
ATOM     12  H17 UNL     1      26.028 -11.601 -41.385  0.00  0.00    +0.000 HD
ENDBRANCH   5  11
BRANCH   1  13
ATOM     13  C4  UNL     1      28.899  -8.974 -41.917  0.00  0.00    +0.000 C 
BRANCH  13  14
ATOM     14  C3  UNL     1      29.859  -9.629 -42.915  0.00  0.00    +0.000 C 
BRANCH  14  16
ATOM     15  C1  UNL     1      31.329 -11.626 -43.382  0.00  0.00    +0.000 C 
ATOM     16  C2  UNL     1      30.340 -10.993 -42.407  0.00  0.00    +0.000 C 
ENDBRANCH  14  16
ENDBRANCH  13  14
ENDBRANCH   1  13
BRANCH   6  17
ATOM     17  C10 UNL     1      27.583 -10.726 -39.635  0.00  0.00    +0.000 C 
BRANCH  17  18
ATOM     18  O4  UNL     1      27.729 -11.953 -40.298  0.00  0.00    +0.000 OA
ATOM     19  H21 UNL     1      28.201 -12.554 -39.665  0.00  0.00    +0.000 HD
ENDBRANCH  17  18
ENDBRANCH   6  17
TORSDOF 8
ENDMDL
MODEL 2
REMARK VINA RESULT:    -3.862      6.216      7.672
REMARK INTER + INTRA:          -5.756
REMARK INTER:                  -5.288
REMARK INTRA:                  -0.467
REMARK UNBOUND:                -0.539
REMARK  Name = resultss/4CJN/ligands/lig_111_t0.pdb
REMARK  9 active torsions:
REMARK  status: ('A' for Active; 'I' for Inactive)
REMARK    1  A    between atoms: C1_1  and  C2_2
REMARK    2  A    between atoms: C2_2  and  C3_3
REMARK    3  A    between atoms: C3_3  and  C4_4
REMARK    4  A    between atoms: C4_4  and  N1_5
REMARK    5  A    between atoms: C6_7  and  O1_8
REMARK    6  A    between atoms: C7_9  and  O2_10
REMARK    7  A    between atoms: C8_11  and  O3_12
REMARK    8  A    between atoms: C9_13  and  C10_14
REMARK    9  A    between atoms: C10_14  and  O4_15
REMARK                            x       y       z     vdW  Elec       q    Type
REMARK                         _______ _______ _______ _____ _____    ______ ____
ROOT
ATOM      1  N1  UNL     1      25.508  -7.750 -35.644  0.00  0.00    +0.000 NA
ATOM      2  C5  UNL     1      26.037  -8.114 -34.302  0.00  0.00    +0.000 C 
ATOM      3  C6  UNL     1      25.245  -9.249 -33.629  0.00  0.00    +0.000 C 
ATOM      4  C7  UNL     1      23.746  -8.883 -33.465  0.00  0.00    +0.000 C 
ATOM      5  C8  UNL     1      23.289  -7.772 -34.445  0.00  0.00    +0.000 C 
ATOM      6  C9  UNL     1      24.034  -7.910 -35.796  0.00  0.00    +0.000 C 
ENDROOT
BRANCH   3   7
ATOM      7  O1  UNL     1      25.380 -10.421 -34.393  0.00  0.00    +0.000 OA
ATOM      8  H13 UNL     1      25.687 -10.144 -35.296  0.00  0.00    +0.000 HD
ENDBRANCH   3   7
BRANCH   4   9
ATOM      9  O2  UNL     1      23.503  -8.494 -32.136  0.00  0.00    +0.000 OA
ATOM     10  H15 UNL     1      22.720  -9.017 -31.822  0.00  0.00    +0.000 HD
ENDBRANCH   4   9
BRANCH   5  11
ATOM     11  O3  UNL     1      23.528  -6.498 -33.896  0.00  0.00    +0.000 OA
ATOM     12  H17 UNL     1      24.512  -6.398 -33.805  0.00  0.00    +0.000 HD
ENDBRANCH   5  11
BRANCH   1  13
ATOM     13  C4  UNL     1      26.266  -8.408 -36.735  0.00  0.00    +0.000 C 
BRANCH  13  14
ATOM     14  C3  UNL     1      27.730  -8.583 -36.316  0.00  0.00    +0.000 C 
BRANCH  14  16
ATOM     15  C1  UNL     1      28.005 -10.383 -38.063  0.00  0.00    +0.000 C 
ATOM     16  C2  UNL     1      28.219 -10.008 -36.599  0.00  0.00    +0.000 C 
ENDBRANCH  14  16
ENDBRANCH  13  14
ENDBRANCH   1  13
BRANCH   6  17
ATOM     17  C10 UNL     1      23.491  -6.891 -36.820  0.00  0.00    +0.000 C 
BRANCH  17  18
ATOM     18  O4  UNL     1      22.115  -6.697 -36.638  0.00  0.00    +0.000 OA
ATOM     19  H21 UNL     1      21.668  -7.157 -37.396  0.00  0.00    +0.000 HD
ENDBRANCH  17  18
ENDBRANCH   6  17
TORSDOF 8
ENDMDL
MODEL 3
REMARK VINA RESULT:    -3.682      7.194      9.282
REMARK INTER + INTRA:          -5.513
REMARK INTER:                  -5.040
REMARK INTRA:                  -0.473
REMARK UNBOUND:                -0.539
REMARK  Name = resultss/4CJN/ligands/lig_111_t0.pdb
REMARK  9 active torsions:
REMARK  status: ('A' for Active; 'I' for Inactive)
REMARK    1  A    between atoms: C1_1  and  C2_2
REMARK    2  A    between atoms: C2_2  and  C3_3
REMARK    3  A    between atoms: C3_3  and  C4_4
REMARK    4  A    between atoms: C4_4  and  N1_5
REMARK    5  A    between atoms: C6_7  and  O1_8
REMARK    6  A    between atoms: C7_9  and  O2_10
REMARK    7  A    between atoms: C8_11  and  O3_12
REMARK    8  A    between atoms: C9_13  and  C10_14
REMARK    9  A    between atoms: C10_14  and  O4_15
REMARK                            x       y       z     vdW  Elec       q    Type
REMARK                         _______ _______ _______ _____ _____    ______ ____
ROOT
ATOM      1  N1  UNL     1      25.976  -7.715 -33.950  0.00  0.00    +0.000 NA
ATOM      2  C5  UNL     1      25.980  -8.378 -35.281  0.00  0.00    +0.000 C 
ATOM      3  C6  UNL     1      26.548  -9.807 -35.242  0.00  0.00    +0.000 C 
ATOM      4  C7  UNL     1      28.001  -9.832 -34.696  0.00  0.00    +0.000 C 
ATOM      5  C8  UNL     1      28.342  -8.582 -33.844  0.00  0.00    +0.000 C 
ATOM      6  C9  UNL     1      27.096  -8.118 -33.051  0.00  0.00    +0.000 C 
ENDROOT
BRANCH   3   7
ATOM      7  O1  UNL     1      25.715 -10.614 -34.449  0.00  0.00    +0.000 OA
ATOM      8  H13 UNL     1      26.299 -11.065 -33.783  0.00  0.00    +0.000 HD
ENDBRANCH   3   7
BRANCH   4   9
ATOM      9  O2  UNL     1      28.902  -9.955 -35.769  0.00  0.00    +0.000 OA
ATOM     10  H15 UNL     1      29.180 -10.906 -35.803  0.00  0.00    +0.000 HD
ENDBRANCH   4   9
BRANCH   5  11
ATOM     11  O3  UNL     1      28.805  -7.536 -34.663  0.00  0.00    +0.000 OA
ATOM     12  H17 UNL     1      28.007  -7.111 -35.075  0.00  0.00    +0.000 HD
ENDBRANCH   5  11
BRANCH   1  13
ATOM     13  C4  UNL     1      24.654  -7.812 -33.287  0.00  0.00    +0.000 C 
BRANCH  13  14
ATOM     14  C3  UNL     1      23.922  -6.470 -33.393  0.00  0.00    +0.000 C 
BRANCH  14  16
ATOM     15  C1  UNL     1      22.394  -8.056 -34.625  0.00  0.00    +0.000 C 
ATOM     16  C2  UNL     1      22.597  -6.620 -34.148  0.00  0.00    +0.000 C 
ENDBRANCH  14  16
ENDBRANCH  13  14
ENDBRANCH   1  13
BRANCH   6  17
ATOM     17  C10 UNL     1      27.460  -6.957 -32.102  0.00  0.00    +0.000 C 
BRANCH  17  18
ATOM     18  O4  UNL     1      28.816  -7.014 -31.753  0.00  0.00    +0.000 OA
ATOM     19  H21 UNL     1      29.141  -7.904 -32.052  0.00  0.00    +0.000 HD
ENDBRANCH  17  18
ENDBRANCH   6  17
TORSDOF 8
ENDMDL
MODEL 4
REMARK VINA RESULT:    -3.659      2.088      3.494
REMARK INTER + INTRA:          -5.482
REMARK INTER:                  -5.282
REMARK INTRA:                  -0.200
REMARK UNBOUND:                -0.539
REMARK  Name = resultss/4CJN/ligands/lig_111_t0.pdb
REMARK  9 active torsions:
REMARK  status: ('A' for Active; 'I' for Inactive)
REMARK    1  A    between atoms: C1_1  and  C2_2
REMARK    2  A    between atoms: C2_2  and  C3_3
REMARK    3  A    between atoms: C3_3  and  C4_4
REMARK    4  A    between atoms: C4_4  and  N1_5
REMARK    5  A    between atoms: C6_7  and  O1_8
REMARK    6  A    between atoms: C7_9  and  O2_10
REMARK    7  A    between atoms: C8_11  and  O3_12
REMARK    8  A    between atoms: C9_13  and  C10_14
REMARK    9  A    between atoms: C10_14  and  O4_15
REMARK                            x       y       z     vdW  Elec       q    Type
REMARK                         _______ _______ _______ _____ _____    ______ ____
ROOT
ATOM      1  N1  UNL     1      27.976  -9.696 -40.573  0.00  0.00    +0.000 NA
ATOM      2  C5  UNL     1      28.608  -9.227 -39.310  0.00  0.00    +0.000 C 
ATOM      3  C6  UNL     1      27.878  -9.722 -38.050  0.00  0.00    +0.000 C 
ATOM      4  C7  UNL     1      26.393  -9.272 -38.033  0.00  0.00    +0.000 C 
ATOM      5  C8  UNL     1      25.854  -8.927 -39.446  0.00  0.00    +0.000 C 
ATOM      6  C9  UNL     1      26.496  -9.858 -40.505  0.00  0.00    +0.000 C 
ENDROOT
BRANCH   3   7
ATOM      7  O1  UNL     1      27.962 -11.124 -37.988  0.00  0.00    +0.000 OA
ATOM      8  H13 UNL     1      27.296 -11.482 -38.633  0.00  0.00    +0.000 HD
ENDBRANCH   3   7
BRANCH   4   9
ATOM      9  O2  UNL     1      26.248  -8.170 -37.172  0.00  0.00    +0.000 OA
ATOM     10  H15 UNL     1      26.949  -7.514 -37.423  0.00  0.00    +0.000 HD
ENDBRANCH   4   9
BRANCH   5  11
ATOM     11  O3  UNL     1      26.125  -7.583 -39.765  0.00  0.00    +0.000 OA
ATOM     12  H17 UNL     1      26.993  -7.351 -39.341  0.00  0.00    +0.000 HD
ENDBRANCH   5  11
BRANCH   1  13
ATOM     13  C4  UNL     1      28.654 -10.896 -41.118  0.00  0.00    +0.000 C 
BRANCH  13  14
ATOM     14  C3  UNL     1      30.111 -10.560 -41.454  0.00  0.00    +0.000 C 
BRANCH  14  16
ATOM     15  C1  UNL     1      31.268 -12.183 -43.002  0.00  0.00    +0.000 C 
ATOM     16  C2  UNL     1      30.436 -10.907 -42.911  0.00  0.00    +0.000 C 
ENDBRANCH  14  16
ENDBRANCH  13  14
ENDBRANCH   1  13
BRANCH   6  17
ATOM     17  C10 UNL     1      25.869  -9.610 -41.893  0.00  0.00    +0.000 C 
BRANCH  17  18
ATOM     18  O4  UNL     1      24.686 -10.348 -42.037  0.00  0.00    +0.000 OA
ATOM     19  H21 UNL     1      24.022  -9.729 -42.439  0.00  0.00    +0.000 HD
ENDBRANCH  17  18
ENDBRANCH   6  17
TORSDOF 8
ENDMDL
MODEL 5
REMARK VINA RESULT:    -3.643      1.527      3.334
REMARK INTER + INTRA:          -5.461
REMARK INTER:                  -4.942
REMARK INTRA:                  -0.518
REMARK UNBOUND:                -0.539
REMARK  Name = resultss/4CJN/ligands/lig_111_t0.pdb
REMARK  9 active torsions:
REMARK  status: ('A' for Active; 'I' for Inactive)
REMARK    1  A    between atoms: C1_1  and  C2_2
REMARK    2  A    between atoms: C2_2  and  C3_3
REMARK    3  A    between atoms: C3_3  and  C4_4
REMARK    4  A    between atoms: C4_4  and  N1_5
REMARK    5  A    between atoms: C6_7  and  O1_8
REMARK    6  A    between atoms: C7_9  and  O2_10
REMARK    7  A    between atoms: C8_11  and  O3_12
REMARK    8  A    between atoms: C9_13  and  C10_14
REMARK    9  A    between atoms: C10_14  and  O4_15
REMARK                            x       y       z     vdW  Elec       q    Type
REMARK                         _______ _______ _______ _____ _____    ______ ____
ROOT
ATOM      1  N1  UNL     1      26.605  -8.323 -42.376  0.00  0.00    +0.000 NA
ATOM      2  C5  UNL     1      26.987  -8.340 -40.938  0.00  0.00    +0.000 C 
ATOM      3  C6  UNL     1      26.289  -9.455 -40.141  0.00  0.00    +0.000 C 
ATOM      4  C7  UNL     1      24.743  -9.334 -40.219  0.00  0.00    +0.000 C 
ATOM      5  C8  UNL     1      24.267  -8.517 -41.448  0.00  0.00    +0.000 C 
ATOM      6  C9  UNL     1      25.208  -8.765 -42.653  0.00  0.00    +0.000 C 
ENDROOT
BRANCH   3   7
ATOM      7  O1  UNL     1      26.705 -10.704 -40.632  0.00  0.00    +0.000 OA
ATOM      8  H13 UNL     1      26.849 -10.597 -41.609  0.00  0.00    +0.000 HD
ENDBRANCH   3   7
BRANCH   4   9
ATOM      9  O2  UNL     1      24.258  -8.759 -39.031  0.00  0.00    +0.000 OA
ATOM     10  H15 UNL     1      23.401  -8.313 -39.257  0.00  0.00    +0.000 HD
ENDBRANCH   4   9
BRANCH   5  11
ATOM     11  O3  UNL     1      24.231  -7.143 -41.145  0.00  0.00    +0.000 OA
ATOM     12  H17 UNL     1      24.239  -6.653 -42.009  0.00  0.00    +0.000 HD
ENDBRANCH   5  11
BRANCH   1  13
ATOM     13  C4  UNL     1      27.600  -9.025 -43.221  0.00  0.00    +0.000 C 
BRANCH  13  14
ATOM     14  C3  UNL     1      29.013  -8.744 -42.699  0.00  0.00    +0.000 C 
BRANCH  14  16
ATOM     15  C1  UNL     1      29.971 -10.936 -41.897  0.00  0.00    +0.000 C 
ATOM     16  C2  UNL     1      29.963  -9.903 -43.020  0.00  0.00    +0.000 C 
ENDBRANCH  14  16
ENDBRANCH  13  14
ENDBRANCH   1  13
BRANCH   6  17
ATOM     17  C10 UNL     1      24.668  -8.060 -43.915  0.00  0.00    +0.000 C 
BRANCH  17  18
ATOM     18  O4  UNL     1      23.266  -8.047 -43.909  0.00  0.00    +0.000 OA
ATOM     19  H21 UNL     1      22.985  -8.143 -44.857  0.00  0.00    +0.000 HD
ENDBRANCH  17  18
ENDBRANCH   6  17
TORSDOF 8
ENDMDL
MODEL 6
REMARK VINA RESULT:    -3.610      5.226      6.227
REMARK INTER + INTRA:          -5.416
REMARK INTER:                  -4.932
REMARK INTRA:                  -0.484
REMARK UNBOUND:                -0.539
REMARK  Name = resultss/4CJN/ligands/lig_111_t0.pdb
REMARK  9 active torsions:
REMARK  status: ('A' for Active; 'I' for Inactive)
REMARK    1  A    between atoms: C1_1  and  C2_2
REMARK    2  A    between atoms: C2_2  and  C3_3
REMARK    3  A    between atoms: C3_3  and  C4_4
REMARK    4  A    between atoms: C4_4  and  N1_5
REMARK    5  A    between atoms: C6_7  and  O1_8
REMARK    6  A    between atoms: C7_9  and  O2_10
REMARK    7  A    between atoms: C8_11  and  O3_12
REMARK    8  A    between atoms: C9_13  and  C10_14
REMARK    9  A    between atoms: C10_14  and  O4_15
REMARK                            x       y       z     vdW  Elec       q    Type
REMARK                         _______ _______ _______ _____ _____    ______ ____
ROOT
ATOM      1  N1  UNL     1      26.650  -8.943 -36.609  0.00  0.00    +0.000 NA
ATOM      2  C5  UNL     1      25.182  -8.753 -36.759  0.00  0.00    +0.000 C 
ATOM      3  C6  UNL     1      24.575  -7.853 -35.668  0.00  0.00    +0.000 C 
ATOM      4  C7  UNL     1      24.837  -8.419 -34.247  0.00  0.00    +0.000 C 
ATOM      5  C8  UNL     1      26.043  -9.393 -34.202  0.00  0.00    +0.000 C 
ATOM      6  C9  UNL     1      27.136  -8.937 -35.200  0.00  0.00    +0.000 C 
ENDROOT
BRANCH   3   7
ATOM      7  O1  UNL     1      25.112  -6.560 -35.784  0.00  0.00    +0.000 OA
ATOM      8  H13 UNL     1      24.491  -5.946 -35.311  0.00  0.00    +0.000 HD
ENDBRANCH   3   7
BRANCH   4   9
ATOM      9  O2  UNL     1      23.675  -9.057 -33.776  0.00  0.00    +0.000 OA
ATOM     10  H15 UNL     1      23.961  -9.687 -33.065  0.00  0.00    +0.000 HD
ENDBRANCH   4   9
BRANCH   5  11
ATOM     11  O3  UNL     1      25.633 -10.703 -34.509  0.00  0.00    +0.000 OA
ATOM     12  H17 UNL     1      24.746 -10.637 -34.950  0.00  0.00    +0.000 HD
ENDBRANCH   5  11
BRANCH   1  13
ATOM     13  C4  UNL     1      27.419  -8.021 -37.479  0.00  0.00    +0.000 C 
BRANCH  13  14
ATOM     14  C3  UNL     1      26.755  -7.936 -38.857  0.00  0.00    +0.000 C 
BRANCH  14  16
ATOM     15  C1  UNL     1      26.372  -9.840 -40.469  0.00  0.00    +0.000 C 
ATOM     16  C2  UNL     1      27.408  -8.908 -39.847  0.00  0.00    +0.000 C 
ENDBRANCH  14  16
ENDBRANCH  13  14
ENDBRANCH   1  13
BRANCH   6  17
ATOM     17  C10 UNL     1      28.393  -9.822 -35.067  0.00  0.00    +0.000 C 
BRANCH  17  18
ATOM     18  O4  UNL     1      28.595 -10.193 -33.730  0.00  0.00    +0.000 OA
ATOM     19  H21 UNL     1      28.297  -9.421 -33.182  0.00  0.00    +0.000 HD
ENDBRANCH  17  18
ENDBRANCH   6  17
TORSDOF 8
ENDMDL
MODEL 7
REMARK VINA RESULT:    -3.606      2.516      3.994
REMARK INTER + INTRA:          -5.411
REMARK INTER:                  -4.833
REMARK INTRA:                  -0.578
REMARK UNBOUND:                -0.539
REMARK  Name = resultss/4CJN/ligands/lig_111_t0.pdb
REMARK  9 active torsions:
REMARK  status: ('A' for Active; 'I' for Inactive)
REMARK    1  A    between atoms: C1_1  and  C2_2
REMARK    2  A    between atoms: C2_2  and  C3_3
REMARK    3  A    between atoms: C3_3  and  C4_4
REMARK    4  A    between atoms: C4_4  and  N1_5
REMARK    5  A    between atoms: C6_7  and  O1_8
REMARK    6  A    between atoms: C7_9  and  O2_10
REMARK    7  A    between atoms: C8_11  and  O3_12
REMARK    8  A    between atoms: C9_13  and  C10_14
REMARK    9  A    between atoms: C10_14  and  O4_15
REMARK                            x       y       z     vdW  Elec       q    Type
REMARK                         _______ _______ _______ _____ _____    ______ ____
ROOT
ATOM      1  N1  UNL     1      26.623  -9.537 -39.471  0.00  0.00    +0.000 NA
ATOM      2  C5  UNL     1      26.722 -10.550 -40.557  0.00  0.00    +0.000 C 
ATOM      3  C6  UNL     1      26.785  -9.925 -41.961  0.00  0.00    +0.000 C 
ATOM      4  C7  UNL     1      25.545  -9.039 -42.251  0.00  0.00    +0.000 C 
ATOM      5  C8  UNL     1      24.838  -8.556 -40.959  0.00  0.00    +0.000 C 
ATOM      6  C9  UNL     1      25.880  -8.299 -39.842  0.00  0.00    +0.000 C 
ENDROOT
BRANCH   3   7
ATOM      7  O1  UNL     1      27.963  -9.168 -42.077  0.00  0.00    +0.000 OA
ATOM      8  H13 UNL     1      28.046  -8.634 -41.243  0.00  0.00    +0.000 HD
ENDBRANCH   3   7
BRANCH   4   9
ATOM      9  O2  UNL     1      24.644  -9.747 -43.067  0.00  0.00    +0.000 OA
ATOM     10  H15 UNL     1      23.938  -9.106 -43.340  0.00  0.00    +0.000 HD
ENDBRANCH   4   9
BRANCH   5  11
ATOM     11  O3  UNL     1      23.897  -9.507 -40.524  0.00  0.00    +0.000 OA
ATOM     12  H17 UNL     1      23.399  -9.102 -39.766  0.00  0.00    +0.000 HD
ENDBRANCH   5  11
BRANCH   1  13
ATOM     13  C4  UNL     1      27.944  -9.246 -38.864  0.00  0.00    +0.000 C 
BRANCH  13  14
ATOM     14  C3  UNL     1      28.280 -10.315 -37.819  0.00  0.00    +0.000 C 
BRANCH  14  16
ATOM     15  C1  UNL     1      27.994  -8.371 -36.236  0.00  0.00    +0.000 C 
ATOM     16  C2  UNL     1      27.837  -9.878 -36.418  0.00  0.00    +0.000 C 
ENDBRANCH  14  16
ENDBRANCH  13  14
ENDBRANCH   1  13
BRANCH   6  17
ATOM     17  C10 UNL     1      25.200  -7.693 -38.597  0.00  0.00    +0.000 C 
BRANCH  17  18
ATOM     18  O4  UNL     1      24.427  -8.659 -37.938  0.00  0.00    +0.000 OA
ATOM     19  H21 UNL     1      23.479  -8.410 -38.098  0.00  0.00    +0.000 HD
ENDBRANCH  17  18
ENDBRANCH   6  17
TORSDOF 8
ENDMDL
MODEL 8
REMARK VINA RESULT:    -3.603      7.643      8.568
REMARK INTER + INTRA:          -5.407
REMARK INTER:                  -5.214
REMARK INTRA:                  -0.193
REMARK UNBOUND:                -0.539
REMARK  Name = resultss/4CJN/ligands/lig_111_t0.pdb
REMARK  9 active torsions:
REMARK  status: ('A' for Active; 'I' for Inactive)
REMARK    1  A    between atoms: C1_1  and  C2_2
REMARK    2  A    between atoms: C2_2  and  C3_3
REMARK    3  A    between atoms: C3_3  and  C4_4
REMARK    4  A    between atoms: C4_4  and  N1_5
REMARK    5  A    between atoms: C6_7  and  O1_8
REMARK    6  A    between atoms: C7_9  and  O2_10
REMARK    7  A    between atoms: C8_11  and  O3_12
REMARK    8  A    between atoms: C9_13  and  C10_14
REMARK    9  A    between atoms: C10_14  and  O4_15
REMARK                            x       y       z     vdW  Elec       q    Type
REMARK                         _______ _______ _______ _____ _____    ______ ____
ROOT
ATOM      1  N1  UNL     1      26.349  -7.523 -34.404  0.00  0.00    +0.000 NA
ATOM      2  C5  UNL     1      25.636  -6.219 -34.468  0.00  0.00    +0.000 C 
ATOM      3  C6  UNL     1      24.723  -5.969 -33.254  0.00  0.00    +0.000 C 
ATOM      4  C7  UNL     1      23.657  -7.086 -33.100  0.00  0.00    +0.000 C 
ATOM      5  C8  UNL     1      24.062  -8.405 -33.809  0.00  0.00    +0.000 C 
ATOM      6  C9  UNL     1      25.594  -8.611 -33.720  0.00  0.00    +0.000 C 
ENDROOT
BRANCH   3   7
ATOM      7  O1  UNL     1      25.511  -5.884 -32.094  0.00  0.00    +0.000 OA
ATOM      8  H13 UNL     1      25.946  -4.991 -32.105  0.00  0.00    +0.000 HD
ENDBRANCH   3   7
BRANCH   4   9
ATOM      9  O2  UNL     1      22.422  -6.626 -33.591  0.00  0.00    +0.000 OA
ATOM     10  H15 UNL     1      21.988  -7.394 -34.044  0.00  0.00    +0.000 HD
ENDBRANCH   4   9
BRANCH   5  11
ATOM     11  O3  UNL     1      23.661  -8.385 -35.158  0.00  0.00    +0.000 OA
ATOM     12  H17 UNL     1      24.246  -7.735 -35.628  0.00  0.00    +0.000 HD
ENDBRANCH   5  11
BRANCH   1  13
ATOM     13  C4  UNL     1      27.729  -7.374 -33.881  0.00  0.00    +0.000 C 
BRANCH  13  14
ATOM     14  C3  UNL     1      27.860  -8.118 -32.548  0.00  0.00    +0.000 C 
BRANCH  14  16
ATOM     15  C1  UNL     1      29.576  -9.660 -33.569  0.00  0.00    +0.000 C 
ATOM     16  C2  UNL     1      29.253  -8.739 -32.395  0.00  0.00    +0.000 C 
ENDBRANCH  14  16
ENDBRANCH  13  14
ENDBRANCH   1  13
BRANCH   6  17
ATOM     17  C10 UNL     1      25.990  -9.983 -34.306  0.00  0.00    +0.000 C 
BRANCH  17  18
ATOM     18  O4  UNL     1      25.905  -9.963 -35.705  0.00  0.00    +0.000 OA
ATOM     19  H21 UNL     1      24.937  -9.908 -35.922  0.00  0.00    +0.000 HD
ENDBRANCH  17  18
ENDBRANCH   6  17
TORSDOF 8
ENDMDL
MODEL 9
REMARK VINA RESULT:    -3.492      7.168      8.308
REMARK INTER + INTRA:          -5.256
REMARK INTER:                  -4.805
REMARK INTRA:                  -0.451
REMARK UNBOUND:                -0.539
REMARK  Name = resultss/4CJN/ligands/lig_111_t0.pdb
REMARK  9 active torsions:
REMARK  status: ('A' for Active; 'I' for Inactive)
REMARK    1  A    between atoms: C1_1  and  C2_2
REMARK    2  A    between atoms: C2_2  and  C3_3
REMARK    3  A    between atoms: C3_3  and  C4_4
REMARK    4  A    between atoms: C4_4  and  N1_5
REMARK    5  A    between atoms: C6_7  and  O1_8
REMARK    6  A    between atoms: C7_9  and  O2_10
REMARK    7  A    between atoms: C8_11  and  O3_12
REMARK    8  A    between atoms: C9_13  and  C10_14
REMARK    9  A    between atoms: C10_14  and  O4_15
REMARK                            x       y       z     vdW  Elec       q    Type
REMARK                         _______ _______ _______ _____ _____    ______ ____
ROOT
ATOM      1  N1  UNL     1      27.648  -8.916 -33.696  0.00  0.00    +0.000 NA
ATOM      2  C5  UNL     1      26.819  -9.902 -34.440  0.00  0.00    +0.000 C 
ATOM      3  C6  UNL     1      26.105  -9.292 -35.660  0.00  0.00    +0.000 C 
ATOM      4  C7  UNL     1      25.187  -8.109 -35.254  0.00  0.00    +0.000 C 
ATOM      5  C8  UNL     1      25.584  -7.479 -33.894  0.00  0.00    +0.000 C 
ATOM      6  C9  UNL     1      27.122  -7.521 -33.713  0.00  0.00    +0.000 C 
ENDROOT
BRANCH   3   7
ATOM      7  O1  UNL     1      27.067  -8.865 -36.591  0.00  0.00    +0.000 OA
ATOM      8  H13 UNL     1      27.256  -7.909 -36.394  0.00  0.00    +0.000 HD
ENDBRANCH   3   7
BRANCH   4   9
ATOM      9  O2  UNL     1      23.850  -8.545 -35.220  0.00  0.00    +0.000 OA
ATOM     10  H15 UNL     1      23.308  -7.785 -34.883  0.00  0.00    +0.000 HD
ENDBRANCH   4   9
BRANCH   5  11
ATOM     11  O3  UNL     1      24.960  -8.161 -32.832  0.00  0.00    +0.000 OA
ATOM     12  H17 UNL     1      24.757  -7.487 -32.131  0.00  0.00    +0.000 HD
ENDBRANCH   5  11
BRANCH   1  13
ATOM     13  C4  UNL     1      29.076  -8.988 -34.086  0.00  0.00    +0.000 C 
BRANCH  13  14
ATOM     14  C3  UNL     1      29.892  -9.613 -32.949  0.00  0.00    +0.000 C 
BRANCH  14  16
ATOM     15  C1  UNL     1      32.158 -10.478 -32.251  0.00  0.00    +0.000 C 
ATOM     16  C2  UNL     1      31.317  -9.945 -33.408  0.00  0.00    +0.000 C 
ENDBRANCH  14  16
ENDBRANCH  13  14
ENDBRANCH   1  13
BRANCH   6  17
ATOM     17  C10 UNL     1      27.535  -6.780 -32.425  0.00  0.00    +0.000 C 
BRANCH  17  18
ATOM     18  O4  UNL     1      27.435  -7.629 -31.314  0.00  0.00    +0.000 OA
ATOM     19  H21 UNL     1      27.826  -8.498 -31.595  0.00  0.00    +0.000 HD
ENDBRANCH  17  18
ENDBRANCH   6  17
TORSDOF 8
ENDMDL
