MODEL 1
REMARK VINA RESULT:    -5.527      0.000      0.000
REMARK INTER + INTRA:          -8.352
REMARK INTER:                  -7.788
REMARK INTRA:                  -0.564
REMARK UNBOUND:                -0.564
REMARK  Name = resultss/4CJN/ligands/lig_51_t0.pdb
REMARK  12 active torsions:
REMARK  status: ('A' for Active; 'I' for Inactive)
REMARK    1  A    between atoms: C1_1  and  C2_2
REMARK    2  A    between atoms: C4_4  and  N1_5
REMARK    3  A    between atoms: C5_6  and  O1_7
REMARK    4  A    between atoms: C6_8  and  O2_9
REMARK    5  A    between atoms: C7_10  and  N2_11
REMARK    6  A    between atoms: N2_11  and  C8_12
REMARK    7  A    between atoms: C10_14  and  O3_15
REMARK    8  A    between atoms: C10_14  and  C11_16
REMARK    9  A    between atoms: C11_16  and  O4_17
REMARK   10  A    between atoms: C12_18  and  O5_19
REMARK   11  A    between atoms: C13_20  and  O6_21
REMARK   12  A    between atoms: C14_22  and  O7_23
REMARK                            x       y       z     vdW  Elec       q    Type
REMARK                         _______ _______ _______ _____ _____    ______ ____
ROOT
ATOM      1  C8  UNL     1      27.047  -8.915 -37.739  0.00  0.00    +0.000 C 
ATOM      2  C9  UNL     1      28.163  -8.091 -37.084  0.00  0.00    +0.000 C 
ATOM      3  C10 UNL     1      28.894  -8.883 -35.949  0.00  0.00    +0.000 C 
ATOM      4  C12 UNL     1      27.966  -9.979 -35.326  0.00  0.00    +0.000 C 
ATOM      5  C13 UNL     1      26.495  -9.514 -35.280  0.00  0.00    +0.000 C 
ATOM      6  C14 UNL     1      25.927  -9.222 -36.701  0.00  0.00    +0.000 C 
ENDROOT
BRANCH   1   7
ATOM      7  N2  UNL     1      26.551  -8.213 -38.941  0.00  0.00    +0.000 NA
ATOM      8  H15 UNL     1      25.659  -7.702 -38.746  0.00  0.00    +0.000 HD
BRANCH   7  15
ATOM      9  C1  UNL     1      28.964  -8.639 -40.621  0.00  0.00    +0.000 C 
ATOM     10  C2  UNL     1      27.535  -8.566 -41.181  0.00  0.00    +0.000 C 
ATOM     11  C3  UNL     1      27.452  -9.377 -42.492  0.00  0.00    +0.000 C 
ATOM     12  C4  UNL     1      26.043  -9.328 -43.109  0.00  0.00    +0.000 C 
ATOM     13  C5  UNL     1      25.007  -9.850 -42.093  0.00  0.00    +0.000 C 
ATOM     14  C6  UNL     1      25.064  -9.044 -40.774  0.00  0.00    +0.000 C 
ATOM     15  C7  UNL     1      26.489  -9.068 -40.149  0.00  0.00    +0.000 C 
BRANCH  12  16
ATOM     16  N1  UNL     1      25.720  -7.963 -43.541  0.00  0.00    +0.000 NA
ATOM     17  H8  UNL     1      24.824  -7.987 -44.080  0.00  0.00    +0.000 HD
ATOM     18  H9  UNL     1      26.450  -7.650 -44.223  0.00  0.00    +0.000 HD
ENDBRANCH  12  16
BRANCH  13  19
ATOM     19  O1  UNL     1      23.720  -9.776 -42.652  0.00  0.00    +0.000 OA
ATOM     20  H11 UNL     1      23.075  -9.770 -41.897  0.00  0.00    +0.000 HD
ENDBRANCH  13  19
BRANCH  14  21
ATOM     21  O2  UNL     1      24.115  -9.539 -39.861  0.00  0.00    +0.000 OA
ATOM     22  H13 UNL     1      23.545  -8.777 -39.577  0.00  0.00    +0.000 HD
ENDBRANCH  14  21
ENDBRANCH   7  15
ENDBRANCH   1   7
BRANCH   3  23
ATOM     23  O3  UNL     1      29.260  -7.976 -34.932  0.00  0.00    +0.000 OA
ATOM     24  H19 UNL     1      29.751  -8.484 -34.232  0.00  0.00    +0.000 HD
ENDBRANCH   3  23
BRANCH   4  25
ATOM     25  O5  UNL     1      28.407 -10.291 -34.026  0.00  0.00    +0.000 OA
ATOM     26  H24 UNL     1      27.776  -9.864 -33.391  0.00  0.00    +0.000 HD
ENDBRANCH   4  25
BRANCH   5  27
ATOM     27  O6  UNL     1      25.714 -10.497 -34.650  0.00  0.00    +0.000 OA
ATOM     28  H26 UNL     1      25.891 -11.351 -35.123  0.00  0.00    +0.000 HD
ENDBRANCH   5  27
BRANCH   6  29
ATOM     29  O7  UNL     1      25.029  -8.143 -36.616  0.00  0.00    +0.000 OA
ATOM     30  H28 UNL     1      25.130  -7.754 -35.708  0.00  0.00    +0.000 HD
ENDBRANCH   6  29
BRANCH   3  31
ATOM     31  C11 UNL     1      30.172  -9.555 -36.521  0.00  0.00    +0.000 C 
BRANCH  31  32
ATOM     32  O4  UNL     1      29.850 -10.558 -37.447  0.00  0.00    +0.000 OA
ATOM     33  H22 UNL     1      29.477 -10.101 -38.245  0.00  0.00    +0.000 HD
ENDBRANCH  31  32
ENDBRANCH   3  31
TORSDOF 11
ENDMDL
MODEL 2
REMARK VINA RESULT:    -5.327      2.421      6.210
REMARK INTER + INTRA:          -8.070
REMARK INTER:                  -7.210
REMARK INTRA:                  -0.860
REMARK UNBOUND:                -0.564
REMARK  Name = resultss/4CJN/ligands/lig_51_t0.pdb
REMARK  12 active torsions:
REMARK  status: ('A' for Active; 'I' for Inactive)
REMARK    1  A    between atoms: C1_1  and  C2_2
REMARK    2  A    between atoms: C4_4  and  N1_5
REMARK    3  A    between atoms: C5_6  and  O1_7
REMARK    4  A    between atoms: C6_8  and  O2_9
REMARK    5  A    between atoms: C7_10  and  N2_11
REMARK    6  A    between atoms: N2_11  and  C8_12
REMARK    7  A    between atoms: C10_14  and  O3_15
REMARK    8  A    between atoms: C10_14  and  C11_16
REMARK    9  A    between atoms: C11_16  and  O4_17
REMARK   10  A    between atoms: C12_18  and  O5_19
REMARK   11  A    between atoms: C13_20  and  O6_21
REMARK   12  A    between atoms: C14_22  and  O7_23
REMARK                            x       y       z     vdW  Elec       q    Type
REMARK                         _______ _______ _______ _____ _____    ______ ____
ROOT
ATOM      1  C8  UNL     1      27.648  -8.983 -38.539  0.00  0.00    +0.000 C 
ATOM      2  C9  UNL     1      27.319  -8.180 -39.805  0.00  0.00    +0.000 C 
ATOM      3  C10 UNL     1      26.194  -8.856 -40.657  0.00  0.00    +0.000 C 
ATOM      4  C12 UNL     1      26.140 -10.402 -40.413  0.00  0.00    +0.000 C 
ATOM      5  C13 UNL     1      27.549 -10.985 -40.180  0.00  0.00    +0.000 C 
ATOM      6  C14 UNL     1      28.238 -10.373 -38.924  0.00  0.00    +0.000 C 
ENDROOT
BRANCH   1   7
ATOM      7  N2  UNL     1      28.541  -8.192 -37.668  0.00  0.00    +0.000 NA
ATOM      8  H15 UNL     1      29.542  -8.477 -37.784  0.00  0.00    +0.000 HD
BRANCH   7  15
ATOM      9  C1  UNL     1      30.031  -9.670 -35.564  0.00  0.00    +0.000 C 
ATOM     10  C2  UNL     1      28.509  -9.461 -35.547  0.00  0.00    +0.000 C 
ATOM     11  C3  UNL     1      28.002  -9.486 -34.089  0.00  0.00    +0.000 C 
ATOM     12  C4  UNL     1      26.477  -9.295 -34.008  0.00  0.00    +0.000 C 
ATOM     13  C5  UNL     1      26.077  -7.970 -34.689  0.00  0.00    +0.000 C 
ATOM     14  C6  UNL     1      26.565  -7.927 -36.156  0.00  0.00    +0.000 C 
ATOM     15  C7  UNL     1      28.104  -8.140 -36.253  0.00  0.00    +0.000 C 
BRANCH  12  16
ATOM     16  N1  UNL     1      25.785 -10.436 -34.620  0.00  0.00    +0.000 NA
ATOM     17  H8  UNL     1      26.497 -11.059 -35.065  0.00  0.00    +0.000 HD
ATOM     18  H9  UNL     1      25.193 -10.081 -35.407  0.00  0.00    +0.000 HD
ENDBRANCH  12  16
BRANCH  13  19
ATOM     19  O1  UNL     1      24.681  -7.816 -34.637  0.00  0.00    +0.000 OA
ATOM     20  H11 UNL     1      24.489  -6.853 -34.779  0.00  0.00    +0.000 HD
ENDBRANCH  13  19
BRANCH  14  21
ATOM     21  O2  UNL     1      26.194  -6.711 -36.756  0.00  0.00    +0.000 OA
ATOM     22  H13 UNL     1      25.706  -6.177 -36.076  0.00  0.00    +0.000 HD
ENDBRANCH  14  21
ENDBRANCH   7  15
ENDBRANCH   1   7
BRANCH   3  23
ATOM     23  O3  UNL     1      26.464  -8.628 -42.022  0.00  0.00    +0.000 OA
ATOM     24  H19 UNL     1      27.011  -7.800 -42.092  0.00  0.00    +0.000 HD
ENDBRANCH   3  23
BRANCH   4  25
ATOM     25  O5  UNL     1      25.539 -11.035 -41.517  0.00  0.00    +0.000 OA
ATOM     26  H24 UNL     1      24.585 -11.185 -41.288  0.00  0.00    +0.000 HD
ENDBRANCH   4  25
BRANCH   5  27
ATOM     27  O6  UNL     1      27.459 -12.380 -40.037  0.00  0.00    +0.000 OA
ATOM     28  H26 UNL     1      27.106 -12.554 -39.126  0.00  0.00    +0.000 HD
ENDBRANCH   5  27
BRANCH   6  29
ATOM     29  O7  UNL     1      29.618 -10.268 -39.171  0.00  0.00    +0.000 OA
ATOM     30  H28 UNL     1      29.798  -9.321 -39.407  0.00  0.00    +0.000 HD
ENDBRANCH   6  29
BRANCH   3  31
ATOM     31  C11 UNL     1      24.819  -8.230 -40.296  0.00  0.00    +0.000 C 
BRANCH  31  32
ATOM     32  O4  UNL     1      23.873  -9.219 -39.987  0.00  0.00    +0.000 OA
ATOM     33  H22 UNL     1      23.531  -9.013 -39.079  0.00  0.00    +0.000 HD
ENDBRANCH  31  32
ENDBRANCH   3  31
TORSDOF 11
ENDMDL
MODEL 3
REMARK VINA RESULT:    -5.240      2.010      2.802
REMARK INTER + INTRA:          -7.948
REMARK INTER:                  -7.132
REMARK INTRA:                  -0.817
REMARK UNBOUND:                -0.564
REMARK  Name = resultss/4CJN/ligands/lig_51_t0.pdb
REMARK  12 active torsions:
REMARK  status: ('A' for Active; 'I' for Inactive)
REMARK    1  A    between atoms: C1_1  and  C2_2
REMARK    2  A    between atoms: C4_4  and  N1_5
REMARK    3  A    between atoms: C5_6  and  O1_7
REMARK    4  A    between atoms: C6_8  and  O2_9
REMARK    5  A    between atoms: C7_10  and  N2_11
REMARK    6  A    between atoms: N2_11  and  C8_12
REMARK    7  A    between atoms: C10_14  and  O3_15
REMARK    8  A    between atoms: C10_14  and  C11_16
REMARK    9  A    between atoms: C11_16  and  O4_17
REMARK   10  A    between atoms: C12_18  and  O5_19
REMARK   11  A    between atoms: C13_20  and  O6_21
REMARK   12  A    between atoms: C14_22  and  O7_23
REMARK                            x       y       z     vdW  Elec       q    Type
REMARK                         _______ _______ _______ _____ _____    ______ ____
ROOT
ATOM      1  C8  UNL     1      25.272  -8.013 -37.011  0.00  0.00    +0.000 C 
ATOM      2  C9  UNL     1      26.315  -7.682 -35.935  0.00  0.00    +0.000 C 
ATOM      3  C10 UNL     1      25.943  -8.293 -34.544  0.00  0.00    +0.000 C 
ATOM      4  C12 UNL     1      24.397  -8.503 -34.404  0.00  0.00    +0.000 C 
ATOM      5  C13 UNL     1      23.610  -7.389 -35.124  0.00  0.00    +0.000 C 
ATOM      6  C14 UNL     1      23.905  -7.355 -36.653  0.00  0.00    +0.000 C 
ENDROOT
BRANCH   1   7
ATOM      7  N2  UNL     1      25.782  -7.612 -38.338  0.00  0.00    +0.000 NA
ATOM      8  H15 UNL     1      25.125  -6.955 -38.819  0.00  0.00    +0.000 HD
BRANCH   7  15
ATOM      9  C1  UNL     1      28.660  -8.268 -38.678  0.00  0.00    +0.000 C 
ATOM     10  C2  UNL     1      27.605  -8.453 -39.780  0.00  0.00    +0.000 C 
ATOM     11  C3  UNL     1      28.051  -9.579 -40.737  0.00  0.00    +0.000 C 
ATOM     12  C4  UNL     1      27.039  -9.801 -41.874  0.00  0.00    +0.000 C 
ATOM     13  C5  UNL     1      25.650 -10.122 -41.284  0.00  0.00    +0.000 C 
ATOM     14  C6  UNL     1      25.176  -9.001 -40.330  0.00  0.00    +0.000 C 
ATOM     15  C7  UNL     1      26.202  -8.752 -39.186  0.00  0.00    +0.000 C 
BRANCH  12  16
ATOM     16  N1  UNL     1      26.983  -8.623 -42.749  0.00  0.00    +0.000 NA
ATOM     17  H8  UNL     1      26.918  -7.767 -42.151  0.00  0.00    +0.000 HD
ATOM     18  H9  UNL     1      26.089  -8.655 -43.291  0.00  0.00    +0.000 HD
ENDBRANCH  12  16
BRANCH  13  19
ATOM     19  O1  UNL     1      24.723 -10.296 -42.327  0.00  0.00    +0.000 OA
ATOM     20  H11 UNL     1      24.147  -9.488 -42.341  0.00  0.00    +0.000 HD
ENDBRANCH  13  19
BRANCH  14  21
ATOM     21  O2  UNL     1      23.912  -9.316 -39.800  0.00  0.00    +0.000 OA
ATOM     22  H13 UNL     1      23.877 -10.299 -39.670  0.00  0.00    +0.000 HD
ENDBRANCH  14  21
ENDBRANCH   7  15
ENDBRANCH   1   7
BRANCH   3  23
ATOM     23  O3  UNL     1      26.366  -7.404 -33.534  0.00  0.00    +0.000 OA
ATOM     24  H19 UNL     1      27.359  -7.443 -33.488  0.00  0.00    +0.000 HD
ENDBRANCH   3  23
BRANCH   4  25
ATOM     25  O5  UNL     1      24.044  -8.531 -33.042  0.00  0.00    +0.000 OA
ATOM     26  H24 UNL     1      24.883  -8.635 -32.523  0.00  0.00    +0.000 HD
ENDBRANCH   4  25
BRANCH   5  27
ATOM     27  O6  UNL     1      22.233  -7.578 -34.913  0.00  0.00    +0.000 OA
ATOM     28  H26 UNL     1      21.910  -8.172 -35.639  0.00  0.00    +0.000 HD
ENDBRANCH   5  27
BRANCH   6  29
ATOM     29  O7  UNL     1      23.877  -6.019 -37.090  0.00  0.00    +0.000 OA
ATOM     30  H28 UNL     1      23.691  -6.038 -38.065  0.00  0.00    +0.000 HD
ENDBRANCH   6  29
BRANCH   3  31
ATOM     31  C11 UNL     1      26.666  -9.656 -34.362  0.00  0.00    +0.000 C 
BRANCH  31  32
ATOM     32  O4  UNL     1      25.753 -10.721 -34.358  0.00  0.00    +0.000 OA
ATOM     33  H22 UNL     1      25.893 -11.214 -33.508  0.00  0.00    +0.000 HD
ENDBRANCH  31  32
ENDBRANCH   3  31
TORSDOF 11
ENDMDL
MODEL 4
REMARK VINA RESULT:    -5.130      2.985      6.137
REMARK INTER + INTRA:          -7.793
REMARK INTER:                  -6.884
REMARK INTRA:                  -0.909
REMARK UNBOUND:                -0.564
REMARK  Name = resultss/4CJN/ligands/lig_51_t0.pdb
REMARK  12 active torsions:
REMARK  status: ('A' for Active; 'I' for Inactive)
REMARK    1  A    between atoms: C1_1  and  C2_2
REMARK    2  A    between atoms: C4_4  and  N1_5
REMARK    3  A    between atoms: C5_6  and  O1_7
REMARK    4  A    between atoms: C6_8  and  O2_9
REMARK    5  A    between atoms: C7_10  and  N2_11
REMARK    6  A    between atoms: N2_11  and  C8_12
REMARK    7  A    between atoms: C10_14  and  O3_15
REMARK    8  A    between atoms: C10_14  and  C11_16
REMARK    9  A    between atoms: C11_16  and  O4_17
REMARK   10  A    between atoms: C12_18  and  O5_19
REMARK   11  A    between atoms: C13_20  and  O6_21
REMARK   12  A    between atoms: C14_22  and  O7_23
REMARK                            x       y       z     vdW  Elec       q    Type
REMARK                         _______ _______ _______ _____ _____    ______ ____
ROOT
ATOM      1  C8  UNL     1      26.631  -9.171 -37.854  0.00  0.00    +0.000 C 
ATOM      2  C9  UNL     1      27.408 -10.398 -38.347  0.00  0.00    +0.000 C 
ATOM      3  C10 UNL     1      28.528 -10.016 -39.371  0.00  0.00    +0.000 C 
ATOM      4  C12 UNL     1      28.192  -8.681 -40.117  0.00  0.00    +0.000 C 
ATOM      5  C13 UNL     1      26.676  -8.541 -40.366  0.00  0.00    +0.000 C 
ATOM      6  C14 UNL     1      25.862  -8.511 -39.038  0.00  0.00    +0.000 C 
ENDROOT
BRANCH   1   7
ATOM      7  N2  UNL     1      25.751  -9.558 -36.732  0.00  0.00    +0.000 NA
ATOM      8  H15 UNL     1      24.862  -9.993 -37.074  0.00  0.00    +0.000 HD
BRANCH   7  15
ATOM      9  C1  UNL     1      27.611  -9.212 -34.442  0.00  0.00    +0.000 C 
ATOM     10  C2  UNL     1      26.102  -8.930 -34.368  0.00  0.00    +0.000 C 
ATOM     11  C3  UNL     1      25.829  -7.868 -33.281  0.00  0.00    +0.000 C 
ATOM     12  C4  UNL     1      24.328  -7.554 -33.150  0.00  0.00    +0.000 C 
ATOM     13  C5  UNL     1      23.770  -7.082 -34.508  0.00  0.00    +0.000 C 
ATOM     14  C6  UNL     1      24.023  -8.137 -35.612  0.00  0.00    +0.000 C 
ATOM     15  C7  UNL     1      25.535  -8.479 -35.741  0.00  0.00    +0.000 C 
BRANCH  12  16
ATOM     16  N1  UNL     1      23.600  -8.730 -32.657  0.00  0.00    +0.000 NA
ATOM     17  H8  UNL     1      22.918  -9.030 -33.390  0.00  0.00    +0.000 HD
ATOM     18  H9  UNL     1      23.020  -8.440 -31.836  0.00  0.00    +0.000 HD
ENDBRANCH  12  16
BRANCH  13  19
ATOM     19  O1  UNL     1      22.394  -6.825 -34.389  0.00  0.00    +0.000 OA
ATOM     20  H11 UNL     1      21.918  -7.650 -34.668  0.00  0.00    +0.000 HD
ENDBRANCH  13  19
BRANCH  14  21
ATOM     21  O2  UNL     1      23.510  -7.685 -36.841  0.00  0.00    +0.000 OA
ATOM     22  H13 UNL     1      22.523  -7.784 -36.810  0.00  0.00    +0.000 HD
ENDBRANCH  14  21
ENDBRANCH   7  15
ENDBRANCH   1   7
BRANCH   3  23
ATOM     23  O3  UNL     1      28.637 -11.047 -40.326  0.00  0.00    +0.000 OA
ATOM     24  H19 UNL     1      27.860 -11.657 -40.208  0.00  0.00    +0.000 HD
ENDBRANCH   3  23
BRANCH   4  25
ATOM     25  O5  UNL     1      28.882  -8.636 -41.343  0.00  0.00    +0.000 OA
ATOM     26  H24 UNL     1      28.573  -9.410 -41.882  0.00  0.00    +0.000 HD
ENDBRANCH   4  25
BRANCH   5  27
ATOM     27  O6  UNL     1      26.429  -7.368 -41.099  0.00  0.00    +0.000 OA
ATOM     28  H26 UNL     1      25.882  -7.629 -41.885  0.00  0.00    +0.000 HD
ENDBRANCH   5  27
BRANCH   6  29
ATOM     29  O7  UNL     1      24.632  -9.160 -39.246  0.00  0.00    +0.000 OA
ATOM     30  H28 UNL     1      24.344  -9.520 -38.367  0.00  0.00    +0.000 HD
ENDBRANCH   6  29
BRANCH   3  31
ATOM     31  C11 UNL     1      29.884  -9.862 -38.627  0.00  0.00    +0.000 C 
BRANCH  31  32
ATOM     32  O4  UNL     1      30.965 -10.153 -39.472  0.00  0.00    +0.000 OA
ATOM     33  H22 UNL     1      31.071 -11.140 -39.471  0.00  0.00    +0.000 HD
ENDBRANCH  31  32
ENDBRANCH   3  31
TORSDOF 11
ENDMDL
MODEL 5
REMARK VINA RESULT:    -4.988      2.586      6.297
REMARK INTER + INTRA:          -7.593
REMARK INTER:                  -6.745
REMARK INTRA:                  -0.848
REMARK UNBOUND:                -0.564
REMARK  Name = resultss/4CJN/ligands/lig_51_t0.pdb
REMARK  12 active torsions:
REMARK  status: ('A' for Active; 'I' for Inactive)
REMARK    1  A    between atoms: C1_1  and  C2_2
REMARK    2  A    between atoms: C4_4  and  N1_5
REMARK    3  A    between atoms: C5_6  and  O1_7
REMARK    4  A    between atoms: C6_8  and  O2_9
REMARK    5  A    between atoms: C7_10  and  N2_11
REMARK    6  A    between atoms: N2_11  and  C8_12
REMARK    7  A    between atoms: C10_14  and  O3_15
REMARK    8  A    between atoms: C10_14  and  C11_16
REMARK    9  A    between atoms: C11_16  and  O4_17
REMARK   10  A    between atoms: C12_18  and  O5_19
REMARK   11  A    between atoms: C13_20  and  O6_21
REMARK   12  A    between atoms: C14_22  and  O7_23
REMARK                            x       y       z     vdW  Elec       q    Type
REMARK                         _______ _______ _______ _____ _____    ______ ____
ROOT
ATOM      1  C8  UNL     1      27.086  -9.483 -40.282  0.00  0.00    +0.000 C 
ATOM      2  C9  UNL     1      28.388  -9.971 -40.931  0.00  0.00    +0.000 C 
ATOM      3  C10 UNL     1      28.828  -9.063 -42.127  0.00  0.00    +0.000 C 
ATOM      4  C12 UNL     1      27.603  -8.333 -42.773  0.00  0.00    +0.000 C 
ATOM      5  C13 UNL     1      26.341  -9.220 -42.749  0.00  0.00    +0.000 C 
ATOM      6  C14 UNL     1      25.909  -9.587 -41.298  0.00  0.00    +0.000 C 
ENDROOT
BRANCH   1   7
ATOM      7  N2  UNL     1      26.844 -10.232 -39.032  0.00  0.00    +0.000 NA
ATOM      8  H15 UNL     1      26.012 -10.861 -39.116  0.00  0.00    +0.000 HD
BRANCH   7  15
ATOM      9  C1  UNL     1      29.198 -10.098 -37.224  0.00  0.00    +0.000 C 
ATOM     10  C2  UNL     1      27.743 -10.005 -36.741  0.00  0.00    +0.000 C 
ATOM     11  C3  UNL     1      27.687  -9.194 -35.428  0.00  0.00    +0.000 C 
ATOM     12  C4  UNL     1      26.252  -9.078 -34.885  0.00  0.00    +0.000 C 
ATOM     13  C5  UNL     1      25.339  -8.435 -35.949  0.00  0.00    +0.000 C 
ATOM     14  C6  UNL     1      25.370  -9.238 -37.271  0.00  0.00    +0.000 C 
ATOM     15  C7  UNL     1      26.819  -9.380 -37.820  0.00  0.00    +0.000 C 
BRANCH  12  16
ATOM     16  N1  UNL     1      25.748 -10.397 -34.483  0.00  0.00    +0.000 NA
ATOM     17  H8  UNL     1      24.723 -10.318 -34.290  0.00  0.00    +0.000 HD
ATOM     18  H9  UNL     1      26.187 -10.654 -33.568  0.00  0.00    +0.000 HD
ENDBRANCH  12  16
BRANCH  13  19
ATOM     19  O1  UNL     1      24.024  -8.358 -35.458  0.00  0.00    +0.000 OA
ATOM     20  H11 UNL     1      24.071  -8.497 -34.477  0.00  0.00    +0.000 HD
ENDBRANCH  13  19
BRANCH  14  21
ATOM     21  O2  UNL     1      24.535  -8.632 -38.227  0.00  0.00    +0.000 OA
ATOM     22  H13 UNL     1      24.896  -8.853 -39.125  0.00  0.00    +0.000 HD
ENDBRANCH  14  21
ENDBRANCH   7  15
ENDBRANCH   1   7
BRANCH   3  23
ATOM     23  O3  UNL     1      29.435  -9.874 -43.109  0.00  0.00    +0.000 OA
ATOM     24  H19 UNL     1      29.700 -10.730 -42.678  0.00  0.00    +0.000 HD
ENDBRANCH   3  23
BRANCH   4  25
ATOM     25  O5  UNL     1      27.910  -7.978 -44.101  0.00  0.00    +0.000 OA
ATOM     26  H24 UNL     1      27.575  -7.055 -44.243  0.00  0.00    +0.000 HD
ENDBRANCH   4  25
BRANCH   5  27
ATOM     27  O6  UNL     1      25.289  -8.554 -43.401  0.00  0.00    +0.000 OA
ATOM     28  H26 UNL     1      25.541  -7.595 -43.447  0.00  0.00    +0.000 HD
ENDBRANCH   5  27
BRANCH   6  29
ATOM     29  O7  UNL     1      25.377 -10.888 -41.300  0.00  0.00    +0.000 OA
ATOM     30  H28 UNL     1      24.814 -10.969 -42.113  0.00  0.00    +0.000 HD
ENDBRANCH   6  29
BRANCH   3  31
ATOM     31  C11 UNL     1      29.853  -8.007 -41.631  0.00  0.00    +0.000 C 
BRANCH  31  32
ATOM     32  O4  UNL     1      29.504  -6.717 -42.058  0.00  0.00    +0.000 OA
ATOM     33  H22 UNL     1      28.954  -6.826 -42.877  0.00  0.00    +0.000 HD
ENDBRANCH  31  32
ENDBRANCH   3  31
TORSDOF 11
ENDMDL
MODEL 6
REMARK VINA RESULT:    -4.802      2.399      3.010
REMARK INTER + INTRA:          -7.330
REMARK INTER:                  -6.411
REMARK INTRA:                  -0.919
REMARK UNBOUND:                -0.564
REMARK  Name = resultss/4CJN/ligands/lig_51_t0.pdb
REMARK  12 active torsions:
REMARK  status: ('A' for Active; 'I' for Inactive)
REMARK    1  A    between atoms: C1_1  and  C2_2
REMARK    2  A    between atoms: C4_4  and  N1_5
REMARK    3  A    between atoms: C5_6  and  O1_7
REMARK    4  A    between atoms: C6_8  and  O2_9
REMARK    5  A    between atoms: C7_10  and  N2_11
REMARK    6  A    between atoms: N2_11  and  C8_12
REMARK    7  A    between atoms: C10_14  and  O3_15
REMARK    8  A    between atoms: C10_14  and  C11_16
REMARK    9  A    between atoms: C11_16  and  O4_17
REMARK   10  A    between atoms: C12_18  and  O5_19
REMARK   11  A    between atoms: C13_20  and  O6_21
REMARK   12  A    between atoms: C14_22  and  O7_23
REMARK                            x       y       z     vdW  Elec       q    Type
REMARK                         _______ _______ _______ _____ _____    ______ ____
ROOT
ATOM      1  C8  UNL     1      26.182  -9.109 -36.029  0.00  0.00    +0.000 C 
ATOM      2  C9  UNL     1      27.528  -8.388 -35.880  0.00  0.00    +0.000 C 
ATOM      3  C10 UNL     1      28.053  -8.417 -34.406  0.00  0.00    +0.000 C 
ATOM      4  C12 UNL     1      26.877  -8.558 -33.381  0.00  0.00    +0.000 C 
ATOM      5  C13 UNL     1      25.618  -7.807 -33.861  0.00  0.00    +0.000 C 
ATOM      6  C14 UNL     1      25.082  -8.364 -35.214  0.00  0.00    +0.000 C 
ENDROOT
BRANCH   1   7
ATOM      7  N2  UNL     1      25.850  -9.249 -37.462  0.00  0.00    +0.000 NA
ATOM      8  H15 UNL     1      25.351 -10.148 -37.654  0.00  0.00    +0.000 HD
BRANCH   7  15
ATOM      9  C1  UNL     1      26.154  -6.639 -38.850  0.00  0.00    +0.000 C 
ATOM     10  C2  UNL     1      26.571  -7.986 -39.460  0.00  0.00    +0.000 C 
ATOM     11  C3  UNL     1      27.710  -7.760 -40.477  0.00  0.00    +0.000 C 
ATOM     12  C4  UNL     1      28.162  -9.075 -41.136  0.00  0.00    +0.000 C 
ATOM     13  C5  UNL     1      28.607 -10.078 -40.052  0.00  0.00    +0.000 C 
ATOM     14  C6  UNL     1      27.476 -10.330 -39.026  0.00  0.00    +0.000 C 
ATOM     15  C7  UNL     1      26.996  -9.004 -38.368  0.00  0.00    +0.000 C 
BRANCH  12  16
ATOM     16  N1  UNL     1      27.083  -9.632 -41.962  0.00  0.00    +0.000 NA
ATOM     17  H8  UNL     1      27.237  -9.337 -42.953  0.00  0.00    +0.000 HD
ATOM     18  H9  UNL     1      26.181  -9.188 -41.672  0.00  0.00    +0.000 HD
ENDBRANCH  12  16
BRANCH  13  19
ATOM     19  O1  UNL     1      28.991 -11.287 -40.657  0.00  0.00    +0.000 OA
ATOM     20  H11 UNL     1      29.883 -11.138 -41.064  0.00  0.00    +0.000 HD
ENDBRANCH  13  19
BRANCH  14  21
ATOM     21  O2  UNL     1      27.904 -11.243 -38.045  0.00  0.00    +0.000 OA
ATOM     22  H13 UNL     1      28.636 -10.812 -37.532  0.00  0.00    +0.000 HD
ENDBRANCH  14  21
ENDBRANCH   7  15
ENDBRANCH   1   7
BRANCH   3  23
ATOM     23  O3  UNL     1      28.731  -7.207 -34.145  0.00  0.00    +0.000 OA
ATOM     24  H19 UNL     1      28.083  -6.576 -33.733  0.00  0.00    +0.000 HD
ENDBRANCH   3  23
BRANCH   4  25
ATOM     25  O5  UNL     1      27.279  -8.060 -32.127  0.00  0.00    +0.000 OA
ATOM     26  H24 UNL     1      27.966  -8.680 -31.771  0.00  0.00    +0.000 HD
ENDBRANCH   4  25
BRANCH   5  27
ATOM     27  O6  UNL     1      24.615  -7.901 -32.881  0.00  0.00    +0.000 OA
ATOM     28  H26 UNL     1      25.074  -8.064 -32.016  0.00  0.00    +0.000 HD
ENDBRANCH   5  27
BRANCH   6  29
ATOM     29  O7  UNL     1      24.553  -7.299 -35.964  0.00  0.00    +0.000 OA
ATOM     30  H28 UNL     1      25.307  -6.685 -36.165  0.00  0.00    +0.000 HD
ENDBRANCH   6  29
BRANCH   3  31
ATOM     31  C11 UNL     1      29.038  -9.604 -34.225  0.00  0.00    +0.000 C 
BRANCH  31  32
ATOM     32  O4  UNL     1      29.460  -9.718 -32.892  0.00  0.00    +0.000 OA
ATOM     33  H22 UNL     1      28.736  -9.338 -32.330  0.00  0.00    +0.000 HD
ENDBRANCH  31  32
ENDBRANCH   3  31
TORSDOF 11
ENDMDL
MODEL 7
REMARK VINA RESULT:    -4.582      2.675      4.295
REMARK INTER + INTRA:          -7.020
REMARK INTER:                  -6.269
REMARK INTRA:                  -0.751
REMARK UNBOUND:                -0.564
REMARK  Name = resultss/4CJN/ligands/lig_51_t0.pdb
REMARK  12 active torsions:
REMARK  status: ('A' for Active; 'I' for Inactive)
REMARK    1  A    between atoms: C1_1  and  C2_2
REMARK    2  A    between atoms: C4_4  and  N1_5
REMARK    3  A    between atoms: C5_6  and  O1_7
REMARK    4  A    between atoms: C6_8  and  O2_9
REMARK    5  A    between atoms: C7_10  and  N2_11
REMARK    6  A    between atoms: N2_11  and  C8_12
REMARK    7  A    between atoms: C10_14  and  O3_15
REMARK    8  A    between atoms: C10_14  and  C11_16
REMARK    9  A    between atoms: C11_16  and  O4_17
REMARK   10  A    between atoms: C12_18  and  O5_19
REMARK   11  A    between atoms: C13_20  and  O6_21
REMARK   12  A    between atoms: C14_22  and  O7_23
REMARK                            x       y       z     vdW  Elec       q    Type
REMARK                         _______ _______ _______ _____ _____    ______ ____
ROOT
ATOM      1  C8  UNL     1      26.624  -9.650 -40.077  0.00  0.00    +0.000 C 
ATOM      2  C9  UNL     1      27.397  -8.625 -40.918  0.00  0.00    +0.000 C 
ATOM      3  C10 UNL     1      28.834  -9.125 -41.283  0.00  0.00    +0.000 C 
ATOM      4  C12 UNL     1      29.365 -10.160 -40.235  0.00  0.00    +0.000 C 
ATOM      5  C13 UNL     1      28.878  -9.821 -38.811  0.00  0.00    +0.000 C 
ATOM      6  C14 UNL     1      27.324  -9.850 -38.699  0.00  0.00    +0.000 C 
ENDROOT
BRANCH   1   7
ATOM      7  N2  UNL     1      25.213  -9.230 -39.957  0.00  0.00    +0.000 NA
ATOM      8  H15 UNL     1      24.569 -10.054 -39.917  0.00  0.00    +0.000 HD
BRANCH   7  15
ATOM      9  C1  UNL     1      25.395  -6.334 -39.318  0.00  0.00    +0.000 C 
ATOM     10  C2  UNL     1      24.300  -6.947 -40.204  0.00  0.00    +0.000 C 
ATOM     11  C3  UNL     1      23.788  -5.884 -41.200  0.00  0.00    +0.000 C 
ATOM     12  C4  UNL     1      22.674  -6.437 -42.108  0.00  0.00    +0.000 C 
ATOM     13  C5  UNL     1      23.185  -7.678 -42.868  0.00  0.00    +0.000 C 
ATOM     14  C6  UNL     1      23.693  -8.762 -41.889  0.00  0.00    +0.000 C 
ATOM     15  C7  UNL     1      24.806  -8.210 -40.951  0.00  0.00    +0.000 C 
BRANCH  12  16
ATOM     16  N1  UNL     1      21.479  -6.755 -41.317  0.00  0.00    +0.000 NA
ATOM     17  H8  UNL     1      21.496  -6.182 -40.443  0.00  0.00    +0.000 HD
ATOM     18  H9  UNL     1      21.546  -7.750 -41.002  0.00  0.00    +0.000 HD
ENDBRANCH  12  16
BRANCH  13  19
ATOM     19  O1  UNL     1      22.156  -8.195 -43.673  0.00  0.00    +0.000 OA
ATOM     20  H11 UNL     1      21.299  -7.860 -43.300  0.00  0.00    +0.000 HD
ENDBRANCH  13  19
BRANCH  14  21
ATOM     21  O2  UNL     1      24.158  -9.882 -42.602  0.00  0.00    +0.000 OA
ATOM     22  H13 UNL     1      23.440 -10.157 -43.230  0.00  0.00    +0.000 HD
ENDBRANCH  14  21
ENDBRANCH   7  15
ENDBRANCH   1   7
BRANCH   3  23
ATOM     23  O3  UNL     1      29.707  -8.016 -41.298  0.00  0.00    +0.000 OA
ATOM     24  H19 UNL     1      29.703  -7.612 -40.390  0.00  0.00    +0.000 HD
ENDBRANCH   3  23
BRANCH   4  25
ATOM     25  O5  UNL     1      30.773 -10.184 -40.263  0.00  0.00    +0.000 OA
ATOM     26  H24 UNL     1      31.070 -10.821 -39.564  0.00  0.00    +0.000 HD
ENDBRANCH   4  25
BRANCH   5  27
ATOM     27  O6  UNL     1      29.435 -10.732 -37.897  0.00  0.00    +0.000 OA
ATOM     28  H26 UNL     1      28.782 -11.472 -37.795  0.00  0.00    +0.000 HD
ENDBRANCH   5  27
BRANCH   6  29
ATOM     29  O7  UNL     1      26.917  -8.855 -37.793  0.00  0.00    +0.000 OA
ATOM     30  H28 UNL     1      26.033  -8.527 -38.103  0.00  0.00    +0.000 HD
ENDBRANCH   6  29
BRANCH   3  31
ATOM     31  C11 UNL     1      28.817  -9.781 -42.691  0.00  0.00    +0.000 C 
BRANCH  31  32
ATOM     32  O4  UNL     1      29.764 -10.811 -42.785  0.00  0.00    +0.000 OA
ATOM     33  H22 UNL     1      30.165 -10.915 -41.883  0.00  0.00    +0.000 HD
ENDBRANCH  31  32
ENDBRANCH   3  31
TORSDOF 11
ENDMDL
MODEL 8
REMARK VINA RESULT:    -4.510      2.552      3.576
REMARK INTER + INTRA:          -6.919
REMARK INTER:                  -6.088
REMARK INTRA:                  -0.831
REMARK UNBOUND:                -0.564
REMARK  Name = resultss/4CJN/ligands/lig_51_t0.pdb
REMARK  12 active torsions:
REMARK  status: ('A' for Active; 'I' for Inactive)
REMARK    1  A    between atoms: C1_1  and  C2_2
REMARK    2  A    between atoms: C4_4  and  N1_5
REMARK    3  A    between atoms: C5_6  and  O1_7
REMARK    4  A    between atoms: C6_8  and  O2_9
REMARK    5  A    between atoms: C7_10  and  N2_11
REMARK    6  A    between atoms: N2_11  and  C8_12
REMARK    7  A    between atoms: C10_14  and  O3_15
REMARK    8  A    between atoms: C10_14  and  C11_16
REMARK    9  A    between atoms: C11_16  and  O4_17
REMARK   10  A    between atoms: C12_18  and  O5_19
REMARK   11  A    between atoms: C13_20  and  O6_21
REMARK   12  A    between atoms: C14_22  and  O7_23
REMARK                            x       y       z     vdW  Elec       q    Type
REMARK                         _______ _______ _______ _____ _____    ______ ____
ROOT
ATOM      1  C8  UNL     1      26.016  -7.852 -37.251  0.00  0.00    +0.000 C 
ATOM      2  C9  UNL     1      26.926  -7.272 -36.160  0.00  0.00    +0.000 C 
ATOM      3  C10 UNL     1      26.785  -8.040 -34.803  0.00  0.00    +0.000 C 
ATOM      4  C12 UNL     1      25.381  -8.723 -34.674  0.00  0.00    +0.000 C 
ATOM      5  C13 UNL     1      24.276  -7.869 -35.330  0.00  0.00    +0.000 C 
ATOM      6  C14 UNL     1      24.520  -7.666 -36.856  0.00  0.00    +0.000 C 
ENDROOT
BRANCH   1   7
ATOM      7  N2  UNL     1      26.353  -7.245 -38.554  0.00  0.00    +0.000 NA
ATOM      8  H15 UNL     1      25.547  -6.708 -38.949  0.00  0.00    +0.000 HD
BRANCH   7  15
ATOM      9  C1  UNL     1      24.641  -8.861 -40.367  0.00  0.00    +0.000 C 
ATOM     10  C2  UNL     1      25.967  -9.361 -39.771  0.00  0.00    +0.000 C 
ATOM     11  C3  UNL     1      26.586 -10.420 -40.708  0.00  0.00    +0.000 C 
ATOM     12  C4  UNL     1      27.912 -10.971 -40.155  0.00  0.00    +0.000 C 
ATOM     13  C5  UNL     1      28.906  -9.814 -39.926  0.00  0.00    +0.000 C 
ATOM     14  C6  UNL     1      28.311  -8.745 -38.979  0.00  0.00    +0.000 C 
ATOM     15  C7  UNL     1      26.958  -8.194 -39.517  0.00  0.00    +0.000 C 
BRANCH  12  16
ATOM     16  N1  UNL     1      27.678 -11.721 -38.914  0.00  0.00    +0.000 NA
ATOM     17  H8  UNL     1      27.038 -12.521 -39.125  0.00  0.00    +0.000 HD
ATOM     18  H9  UNL     1      27.152 -11.107 -38.251  0.00  0.00    +0.000 HD
ENDBRANCH  12  16
BRANCH  13  19
ATOM     19  O1  UNL     1      30.105 -10.320 -39.394  0.00  0.00    +0.000 OA
ATOM     20  H11 UNL     1      29.965 -10.430 -38.418  0.00  0.00    +0.000 HD
ENDBRANCH  13  19
BRANCH  14  21
ATOM     21  O2  UNL     1      29.231  -7.699 -38.788  0.00  0.00    +0.000 OA
ATOM     22  H13 UNL     1      28.775  -6.850 -39.029  0.00  0.00    +0.000 HD
ENDBRANCH  14  21
ENDBRANCH   7  15
ENDBRANCH   1   7
BRANCH   3  23
ATOM     23  O3  UNL     1      26.932  -7.118 -33.746  0.00  0.00    +0.000 OA
ATOM     24  H19 UNL     1      26.089  -7.117 -33.220  0.00  0.00    +0.000 HD
ENDBRANCH   3  23
BRANCH   4  25
ATOM     25  O5  UNL     1      25.079  -8.930 -33.315  0.00  0.00    +0.000 OA
ATOM     26  H24 UNL     1      25.139  -8.048 -32.863  0.00  0.00    +0.000 HD
ENDBRANCH   4  25
BRANCH   5  27
ATOM     27  O6  UNL     1      23.029  -8.484 -35.128  0.00  0.00    +0.000 OA
ATOM     28  H26 UNL     1      23.034  -8.848 -34.205  0.00  0.00    +0.000 HD
ENDBRANCH   5  27
BRANCH   6  29
ATOM     29  O7  UNL     1      24.074  -6.383 -37.218  0.00  0.00    +0.000 OA
ATOM     30  H28 UNL     1      23.135  -6.480 -37.528  0.00  0.00    +0.000 HD
ENDBRANCH   6  29
BRANCH   3  31
ATOM     31  C11 UNL     1      27.894  -9.121 -34.698  0.00  0.00    +0.000 C 
BRANCH  31  32
ATOM     32  O4  UNL     1      27.348 -10.413 -34.674  0.00  0.00    +0.000 OA
ATOM     33  H22 UNL     1      27.413 -10.733 -33.737  0.00  0.00    +0.000 HD
ENDBRANCH  31  32
ENDBRANCH   3  31
TORSDOF 11
ENDMDL
MODEL 9
REMARK VINA RESULT:    -4.462      2.893      6.691
REMARK INTER + INTRA:          -6.852
REMARK INTER:                  -6.109
REMARK INTRA:                  -0.743
REMARK UNBOUND:                -0.564
REMARK  Name = resultss/4CJN/ligands/lig_51_t0.pdb
REMARK  12 active torsions:
REMARK  status: ('A' for Active; 'I' for Inactive)
REMARK    1  A    between atoms: C1_1  and  C2_2
REMARK    2  A    between atoms: C4_4  and  N1_5
REMARK    3  A    between atoms: C5_6  and  O1_7
REMARK    4  A    between atoms: C6_8  and  O2_9
REMARK    5  A    between atoms: C7_10  and  N2_11
REMARK    6  A    between atoms: N2_11  and  C8_12
REMARK    7  A    between atoms: C10_14  and  O3_15
REMARK    8  A    between atoms: C10_14  and  C11_16
REMARK    9  A    between atoms: C11_16  and  O4_17
REMARK   10  A    between atoms: C12_18  and  O5_19
REMARK   11  A    between atoms: C13_20  and  O6_21
REMARK   12  A    between atoms: C14_22  and  O7_23
REMARK                            x       y       z     vdW  Elec       q    Type
REMARK                         _______ _______ _______ _____ _____    ______ ____
ROOT
ATOM      1  C8  UNL     1      28.582 -10.063 -39.106  0.00  0.00    +0.000 C 
ATOM      2  C9  UNL     1      29.586 -10.093 -40.265  0.00  0.00    +0.000 C 
ATOM      3  C10 UNL     1      29.024  -9.402 -41.552  0.00  0.00    +0.000 C 
ATOM      4  C12 UNL     1      27.459  -9.439 -41.585  0.00  0.00    +0.000 C 
ATOM      5  C13 UNL     1      26.912 -10.743 -40.966  0.00  0.00    +0.000 C 
ATOM      6  C14 UNL     1      27.317 -10.896 -39.469  0.00  0.00    +0.000 C 
ENDROOT
BRANCH   1   7
ATOM      7  N2  UNL     1      29.242 -10.518 -37.865  0.00  0.00    +0.000 NA
ATOM      8  H15 UNL     1      28.884 -11.452 -37.560  0.00  0.00    +0.000 HD
BRANCH   7  15
ATOM      9  C1  UNL     1      31.740  -9.081 -37.138  0.00  0.00    +0.000 C 
ATOM     10  C2  UNL     1      30.650  -9.467 -36.126  0.00  0.00    +0.000 C 
ATOM     11  C3  UNL     1      30.678  -8.482 -34.938  0.00  0.00    +0.000 C 
ATOM     12  C4  UNL     1      29.615  -8.828 -33.880  0.00  0.00    +0.000 C 
ATOM     13  C5  UNL     1      28.216  -8.841 -34.528  0.00  0.00    +0.000 C 
ATOM     14  C6  UNL     1      28.160  -9.831 -35.715  0.00  0.00    +0.000 C 
ATOM     15  C7  UNL     1      29.244  -9.505 -36.783  0.00  0.00    +0.000 C 
BRANCH  12  16
ATOM     16  N1  UNL     1      29.920 -10.118 -33.249  0.00  0.00    +0.000 NA
ATOM     17  H8  UNL     1      29.071 -10.446 -32.735  0.00  0.00    +0.000 HD
ATOM     18  H9  UNL     1      30.651  -9.964 -32.517  0.00  0.00    +0.000 HD
ENDBRANCH  12  16
BRANCH  13  19
ATOM     19  O1  UNL     1      27.253  -9.185 -33.563  0.00  0.00    +0.000 OA
ATOM     20  H11 UNL     1      27.421  -8.616 -32.768  0.00  0.00    +0.000 HD
ENDBRANCH  13  19
BRANCH  14  21
ATOM     21  O2  UNL     1      26.878  -9.825 -36.293  0.00  0.00    +0.000 OA
ATOM     22  H13 UNL     1      26.854  -9.094 -36.965  0.00  0.00    +0.000 HD
ENDBRANCH  14  21
ENDBRANCH   7  15
ENDBRANCH   1   7
BRANCH   3  23
ATOM     23  O3  UNL     1      29.512 -10.091 -42.682  0.00  0.00    +0.000 OA
ATOM     24  H19 UNL     1      30.485 -10.247 -42.549  0.00  0.00    +0.000 HD
ENDBRANCH   3  23
BRANCH   4  25
ATOM     25  O5  UNL     1      27.011  -9.320 -42.915  0.00  0.00    +0.000 OA
ATOM     26  H24 UNL     1      27.623  -9.857 -43.481  0.00  0.00    +0.000 HD
ENDBRANCH   4  25
BRANCH   5  27
ATOM     27  O6  UNL     1      25.512 -10.764 -41.082  0.00  0.00    +0.000 OA
ATOM     28  H26 UNL     1      25.153 -10.232 -40.325  0.00  0.00    +0.000 HD
ENDBRANCH   5  27
BRANCH   6  29
ATOM     29  O7  UNL     1      27.533 -12.259 -39.197  0.00  0.00    +0.000 OA
ATOM     30  H28 UNL     1      28.157 -12.597 -39.891  0.00  0.00    +0.000 HD
ENDBRANCH   6  29
BRANCH   3  31
ATOM     31  C11 UNL     1      29.505  -7.927 -41.604  0.00  0.00    +0.000 C 
BRANCH  31  32
ATOM     32  O4  UNL     1      29.032  -7.277 -42.754  0.00  0.00    +0.000 OA
ATOM     33  H22 UNL     1      28.279  -6.698 -42.466  0.00  0.00    +0.000 HD
ENDBRANCH  31  32
ENDBRANCH   3  31
TORSDOF 11
ENDMDL
