MODEL 1
REMARK VINA RESULT:    -6.151      0.000      0.000
REMARK INTER + INTRA:          -8.687
REMARK INTER:                  -8.129
REMARK INTRA:                  -0.558
REMARK UNBOUND:                -0.558
REMARK  Name = resultss/4CJN/ligands/lig_392_t1.pdb
REMARK  7 active torsions:
REMARK  status: ('A' for Active; 'I' for Inactive)
REMARK    1  A    between atoms: C1_1  and  C2_2
REMARK    2  A    between atoms: C5_5  and  S1_6
REMARK    3  A    between atoms: S1_6  and  O3_9
REMARK    4  A    between atoms: O3_9  and  C6_10
REMARK    5  A    between atoms: C9_13  and  C10_14
REMARK    6  A    between atoms: N1_15  and  N2_16
REMARK    7  A    between atoms: C12_19  and  O4_20
REMARK                            x       y       z     vdW  Elec       q    Type
REMARK                         _______ _______ _______ _____ _____    ______ ____
ROOT
ATOM      1  C6  UNL     1      30.670 -10.219 -42.291  0.00  0.00    +0.000 A 
ATOM      2  C7  UNL     1      30.717  -9.222 -41.298  0.00  0.00    +0.000 A 
ATOM      3  C8  UNL     1      29.789  -9.223 -40.252  0.00  0.00    +0.000 A 
ATOM      4  C9  UNL     1      28.798 -10.217 -40.181  0.00  0.00    +0.000 A 
ATOM      5  C14 UNL     1      28.754 -11.208 -41.172  0.00  0.00    +0.000 A 
ATOM      6  C15 UNL     1      29.683 -11.207 -42.216  0.00  0.00    +0.000 A 
ENDROOT
BRANCH   4   7
ATOM      7  C10 UNL     1      27.804 -10.239 -39.089  0.00  0.00    +0.000 C 
ATOM      8  N1  UNL     1      28.105  -9.811 -37.900  0.00  0.00    +0.000 NA
BRANCH   8   9
ATOM      9  N2  UNL     1      27.185  -9.794 -36.835  0.00  0.00    +0.000 NA
ATOM     10  C11 UNL     1      27.364  -9.158 -35.714  0.00  0.00    +0.000 A 
ATOM     11  N3  UNL     1      26.439  -9.142 -34.731  0.00  0.00    +0.000 N 
ATOM     12  C12 UNL     1      26.866  -8.452 -33.640  0.00  0.00    +0.000 A 
ATOM     13  C13 UNL     1      28.145  -7.916 -33.737  0.00  0.00    +0.000 A 
ATOM     14  S2  UNL     1      28.760  -8.328 -35.251  0.00  0.00    +0.000 S 
ATOM     15  H9  UNL     1      25.507  -9.607 -34.799  0.00  0.00    +0.000 HD
BRANCH  12  16
ATOM     16  O4  UNL     1      26.078  -8.299 -32.503  0.00  0.00    +0.000 OA
ATOM     17  H10 UNL     1      25.632  -7.413 -32.296  0.00  0.00    +0.000 HD
ENDBRANCH  12  16
ENDBRANCH   8   9
ENDBRANCH   4   7
BRANCH   1  18
ATOM     18  O3  UNL     1      31.575 -10.267 -43.360  0.00  0.00    +0.000 OA
BRANCH  18  19
ATOM     19  S1  UNL     1      33.104 -11.034 -43.313  0.00  0.00    +0.000 S 
ATOM     20  O1  UNL     1      33.264 -11.775 -42.017  0.00  0.00    +0.000 OA
ATOM     21  O2  UNL     1      34.181  -9.991 -43.441  0.00  0.00    +0.000 OA
BRANCH  19  26
ATOM     22  C1  UNL     1      33.573 -14.991 -47.890  0.00  0.00    +0.000 C 
ATOM     23  C2  UNL     1      33.437 -13.992 -46.780  0.00  0.00    +0.000 A 
ATOM     24  C3  UNL     1      32.408 -14.124 -45.834  0.00  0.00    +0.000 A 
ATOM     25  C4  UNL     1      32.303 -13.214 -44.777  0.00  0.00    +0.000 A 
ATOM     26  C5  UNL     1      33.230 -12.171 -44.649  0.00  0.00    +0.000 A 
ATOM     27  C16 UNL     1      34.271 -12.053 -45.578  0.00  0.00    +0.000 A 
ATOM     28  C17 UNL     1      34.378 -12.961 -46.635  0.00  0.00    +0.000 A 
ENDBRANCH  19  26
ENDBRANCH  18  19
ENDBRANCH   1  18
TORSDOF 6
ENDMDL
MODEL 2
REMARK VINA RESULT:    -6.030      6.636     10.391
REMARK INTER + INTRA:          -8.527
REMARK INTER:                  -7.575
REMARK INTRA:                  -0.951
REMARK UNBOUND:                -0.558
REMARK  Name = resultss/4CJN/ligands/lig_392_t1.pdb
REMARK  7 active torsions:
REMARK  status: ('A' for Active; 'I' for Inactive)
REMARK    1  A    between atoms: C1_1  and  C2_2
REMARK    2  A    between atoms: C5_5  and  S1_6
REMARK    3  A    between atoms: S1_6  and  O3_9
REMARK    4  A    between atoms: O3_9  and  C6_10
REMARK    5  A    between atoms: C9_13  and  C10_14
REMARK    6  A    between atoms: N1_15  and  N2_16
REMARK    7  A    between atoms: C12_19  and  O4_20
REMARK                            x       y       z     vdW  Elec       q    Type
REMARK                         _______ _______ _______ _____ _____    ______ ____
ROOT
ATOM      1  C6  UNL     1      29.157  -8.747 -36.419  0.00  0.00    +0.000 A 
ATOM      2  C7  UNL     1      29.064 -10.017 -37.017  0.00  0.00    +0.000 A 
ATOM      3  C8  UNL     1      28.366 -10.182 -38.218  0.00  0.00    +0.000 A 
ATOM      4  C9  UNL     1      27.750  -9.083 -38.840  0.00  0.00    +0.000 A 
ATOM      5  C14 UNL     1      27.844  -7.818 -38.240  0.00  0.00    +0.000 A 
ATOM      6  C15 UNL     1      28.542  -7.655 -37.040  0.00  0.00    +0.000 A 
ENDROOT
BRANCH   4   7
ATOM      7  C10 UNL     1      27.004  -9.230 -40.106  0.00  0.00    +0.000 C 
ATOM      8  N1  UNL     1      25.734  -9.500 -40.109  0.00  0.00    +0.000 NA
BRANCH   8   9
ATOM      9  N2  UNL     1      24.979  -9.631 -41.290  0.00  0.00    +0.000 NA
ATOM     10  C11 UNL     1      24.220  -8.698 -41.788  0.00  0.00    +0.000 A 
ATOM     11  N3  UNL     1      23.540  -8.855 -42.942  0.00  0.00    +0.000 N 
ATOM     12  C12 UNL     1      22.780  -7.766 -43.239  0.00  0.00    +0.000 A 
ATOM     13  C13 UNL     1      22.842  -6.728 -42.316  0.00  0.00    +0.000 A 
ATOM     14  S2  UNL     1      23.886  -7.201 -41.081  0.00  0.00    +0.000 S 
ATOM     15  H9  UNL     1      23.587  -9.712 -43.537  0.00  0.00    +0.000 HD
BRANCH  12  16
ATOM     16  O4  UNL     1      21.995  -7.698 -44.386  0.00  0.00    +0.000 OA
ATOM     17  H10 UNL     1      22.418  -7.694 -45.306  0.00  0.00    +0.000 HD
ENDBRANCH  12  16
ENDBRANCH   8   9
ENDBRANCH   4   7
BRANCH   1  18
ATOM     18  O3  UNL     1      29.843  -8.524 -35.217  0.00  0.00    +0.000 OA
BRANCH  18  19
ATOM     19  S1  UNL     1      29.229  -8.881 -33.660  0.00  0.00    +0.000 S 
ATOM     20  O1  UNL     1      29.750  -7.883 -32.665  0.00  0.00    +0.000 OA
ATOM     21  O2  UNL     1      29.663 -10.267 -33.267  0.00  0.00    +0.000 OA
BRANCH  19  26
ATOM     22  C1  UNL     1      23.170  -8.593 -33.824  0.00  0.00    +0.000 C 
ATOM     23  C2  UNL     1      24.665  -8.676 -33.750  0.00  0.00    +0.000 A 
ATOM     24  C3  UNL     1      25.330  -9.835 -34.181  0.00  0.00    +0.000 A 
ATOM     25  C4  UNL     1      26.727  -9.900 -34.148  0.00  0.00    +0.000 A 
ATOM     26  C5  UNL     1      27.473  -8.805 -33.691  0.00  0.00    +0.000 A 
ATOM     27  C16 UNL     1      26.812  -7.639 -33.283  0.00  0.00    +0.000 A 
ATOM     28  C17 UNL     1      25.416  -7.573 -33.316  0.00  0.00    +0.000 A 
ENDBRANCH  19  26
ENDBRANCH  18  19
ENDBRANCH   1  18
TORSDOF 6
ENDMDL
MODEL 3
REMARK VINA RESULT:    -5.974      3.558     11.113
REMARK INTER + INTRA:          -8.453
REMARK INTER:                  -8.206
REMARK INTRA:                  -0.247
REMARK UNBOUND:                -0.558
REMARK  Name = resultss/4CJN/ligands/lig_392_t1.pdb
REMARK  7 active torsions:
REMARK  status: ('A' for Active; 'I' for Inactive)
REMARK    1  A    between atoms: C1_1  and  C2_2
REMARK    2  A    between atoms: C5_5  and  S1_6
REMARK    3  A    between atoms: S1_6  and  O3_9
REMARK    4  A    between atoms: O3_9  and  C6_10
REMARK    5  A    between atoms: C9_13  and  C10_14
REMARK    6  A    between atoms: N1_15  and  N2_16
REMARK    7  A    between atoms: C12_19  and  O4_20
REMARK                            x       y       z     vdW  Elec       q    Type
REMARK                         _______ _______ _______ _____ _____    ______ ____
ROOT
ATOM      1  C6  UNL     1      28.272 -10.398 -38.141  0.00  0.00    +0.000 A 
ATOM      2  C7  UNL     1      27.617 -10.600 -39.370  0.00  0.00    +0.000 A 
ATOM      3  C8  UNL     1      28.303 -10.409 -40.574  0.00  0.00    +0.000 A 
ATOM      4  C9  UNL     1      29.651 -10.012 -40.570  0.00  0.00    +0.000 A 
ATOM      5  C14 UNL     1      30.300  -9.810 -39.343  0.00  0.00    +0.000 A 
ATOM      6  C15 UNL     1      29.614 -10.003 -38.141  0.00  0.00    +0.000 A 
ENDROOT
BRANCH   4   7
ATOM      7  C10 UNL     1      30.397  -9.800 -41.827  0.00  0.00    +0.000 C 
ATOM      8  N1  UNL     1      31.440 -10.517 -42.116  0.00  0.00    +0.000 NA
BRANCH   8   9
ATOM      9  N2  UNL     1      32.170 -10.364 -43.310  0.00  0.00    +0.000 NA
ATOM     10  C11 UNL     1      32.441 -11.330 -44.140  0.00  0.00    +0.000 A 
ATOM     11  N3  UNL     1      33.116 -11.131 -45.291  0.00  0.00    +0.000 N 
ATOM     12  C12 UNL     1      33.320 -12.292 -45.970  0.00  0.00    +0.000 A 
ATOM     13  C13 UNL     1      32.815 -13.435 -45.360  0.00  0.00    +0.000 A 
ATOM     14  S2  UNL     1      32.089 -12.966 -43.914  0.00  0.00    +0.000 S 
ATOM     15  H9  UNL     1      33.446 -10.197 -45.621  0.00  0.00    +0.000 HD
BRANCH  12  16
ATOM     16  O4  UNL     1      33.991 -12.331 -47.189  0.00  0.00    +0.000 OA
ATOM     17  H10 UNL     1      33.778 -11.665 -47.921  0.00  0.00    +0.000 HD
ENDBRANCH  12  16
ENDBRANCH   8   9
ENDBRANCH   4   7
BRANCH   1  18
ATOM     18  O3  UNL     1      27.635 -10.575 -36.905  0.00  0.00    +0.000 OA
BRANCH  18  19
ATOM     19  S1  UNL     1      27.570  -9.402 -35.661  0.00  0.00    +0.000 S 
ATOM     20  O1  UNL     1      28.457  -8.240 -36.009  0.00  0.00    +0.000 OA
ATOM     21  O2  UNL     1      28.030 -10.026 -34.372  0.00  0.00    +0.000 OA
BRANCH  19  26
ATOM     22  C1  UNL     1      21.883  -7.384 -35.017  0.00  0.00    +0.000 C 
ATOM     23  C2  UNL     1      23.276  -7.915 -35.183  0.00  0.00    +0.000 A 
ATOM     24  C3  UNL     1      23.912  -7.852 -36.433  0.00  0.00    +0.000 A 
ATOM     25  C4  UNL     1      25.224  -8.313 -36.580  0.00  0.00    +0.000 A 
ATOM     26  C5  UNL     1      25.917  -8.833 -35.478  0.00  0.00    +0.000 A 
ATOM     27  C16 UNL     1      25.293  -8.874 -34.226  0.00  0.00    +0.000 A 
ATOM     28  C17 UNL     1      23.981  -8.414 -34.076  0.00  0.00    +0.000 A 
ENDBRANCH  19  26
ENDBRANCH  18  19
ENDBRANCH   1  18
TORSDOF 6
ENDMDL
MODEL 4
REMARK VINA RESULT:    -5.933      3.324     10.736
REMARK INTER + INTRA:          -8.398
REMARK INTER:                  -7.731
REMARK INTRA:                  -0.668
REMARK UNBOUND:                -0.558
REMARK  Name = resultss/4CJN/ligands/lig_392_t1.pdb
REMARK  7 active torsions:
REMARK  status: ('A' for Active; 'I' for Inactive)
REMARK    1  A    between atoms: C1_1  and  C2_2
REMARK    2  A    between atoms: C5_5  and  S1_6
REMARK    3  A    between atoms: S1_6  and  O3_9
REMARK    4  A    between atoms: O3_9  and  C6_10
REMARK    5  A    between atoms: C9_13  and  C10_14
REMARK    6  A    between atoms: N1_15  and  N2_16
REMARK    7  A    between atoms: C12_19  and  O4_20
REMARK                            x       y       z     vdW  Elec       q    Type
REMARK                         _______ _______ _______ _____ _____    ______ ____
ROOT
ATOM      1  C6  UNL     1      28.207 -10.507 -38.190  0.00  0.00    +0.000 A 
ATOM      2  C7  UNL     1      27.592 -10.856 -39.407  0.00  0.00    +0.000 A 
ATOM      3  C8  UNL     1      28.279 -10.698 -40.616  0.00  0.00    +0.000 A 
ATOM      4  C9  UNL     1      29.589 -10.189 -40.628  0.00  0.00    +0.000 A 
ATOM      5  C14 UNL     1      30.198  -9.841 -39.414  0.00  0.00    +0.000 A 
ATOM      6  C15 UNL     1      29.511 -10.001 -38.207  0.00  0.00    +0.000 A 
ENDROOT
BRANCH   4   7
ATOM      7  C10 UNL     1      30.335 -10.010 -41.890  0.00  0.00    +0.000 C 
ATOM      8  N1  UNL     1      31.538 -10.477 -42.030  0.00  0.00    +0.000 NA
BRANCH   8   9
ATOM      9  N2  UNL     1      32.279 -10.347 -43.219  0.00  0.00    +0.000 NA
ATOM     10  C11 UNL     1      32.483 -11.310 -44.071  0.00  0.00    +0.000 A 
ATOM     11  N3  UNL     1      33.173 -11.131 -45.217  0.00  0.00    +0.000 N 
ATOM     12  C12 UNL     1      33.296 -12.287 -45.924  0.00  0.00    +0.000 A 
ATOM     13  C13 UNL     1      32.711 -13.406 -45.342  0.00  0.00    +0.000 A 
ATOM     14  S2  UNL     1      32.017 -12.921 -43.885  0.00  0.00    +0.000 S 
ATOM     15  H9  UNL     1      33.568 -10.215 -45.525  0.00  0.00    +0.000 HD
BRANCH  12  16
ATOM     16  O4  UNL     1      33.965 -12.344 -47.143  0.00  0.00    +0.000 OA
ATOM     17  H10 UNL     1      33.672 -12.990 -47.866  0.00  0.00    +0.000 HD
ENDBRANCH  12  16
ENDBRANCH   8   9
ENDBRANCH   4   7
BRANCH   1  18
ATOM     18  O3  UNL     1      27.567 -10.644 -36.951  0.00  0.00    +0.000 OA
BRANCH  18  19
ATOM     19  S1  UNL     1      26.987  -9.344 -36.000  0.00  0.00    +0.000 S 
ATOM     20  O1  UNL     1      25.753  -9.767 -35.255  0.00  0.00    +0.000 OA
ATOM     21  O2  UNL     1      26.666  -8.183 -36.900  0.00  0.00    +0.000 OA
BRANCH  19  26
ATOM     22  C1  UNL     1      31.301  -7.708 -32.058  0.00  0.00    +0.000 C 
ATOM     23  C2  UNL     1      30.210  -8.106 -33.007  0.00  0.00    +0.000 A 
ATOM     24  C3  UNL     1      29.635  -7.153 -33.863  0.00  0.00    +0.000 A 
ATOM     25  C4  UNL     1      28.644  -7.531 -34.775  0.00  0.00    +0.000 A 
ATOM     26  C5  UNL     1      28.225  -8.866 -34.847  0.00  0.00    +0.000 A 
ATOM     27  C16 UNL     1      28.814  -9.823 -34.011  0.00  0.00    +0.000 A 
ATOM     28  C17 UNL     1      29.804  -9.447 -33.098  0.00  0.00    +0.000 A 
ENDBRANCH  19  26
ENDBRANCH  18  19
ENDBRANCH   1  18
TORSDOF 6
ENDMDL
MODEL 5
REMARK VINA RESULT:    -5.893      6.365     10.103
REMARK INTER + INTRA:          -8.346
REMARK INTER:                  -7.716
REMARK INTRA:                  -0.630
REMARK UNBOUND:                -0.558
REMARK  Name = resultss/4CJN/ligands/lig_392_t1.pdb
REMARK  7 active torsions:
REMARK  status: ('A' for Active; 'I' for Inactive)
REMARK    1  A    between atoms: C1_1  and  C2_2
REMARK    2  A    between atoms: C5_5  and  S1_6
REMARK    3  A    between atoms: S1_6  and  O3_9
REMARK    4  A    between atoms: O3_9  and  C6_10
REMARK    5  A    between atoms: C9_13  and  C10_14
REMARK    6  A    between atoms: N1_15  and  N2_16
REMARK    7  A    between atoms: C12_19  and  O4_20
REMARK                            x       y       z     vdW  Elec       q    Type
REMARK                         _______ _______ _______ _____ _____    ______ ____
ROOT
ATOM      1  C6  UNL     1      29.239  -8.475 -33.360  0.00  0.00    +0.000 A 
ATOM      2  C7  UNL     1      28.382  -7.436 -33.769  0.00  0.00    +0.000 A 
ATOM      3  C8  UNL     1      27.363  -7.685 -34.694  0.00  0.00    +0.000 A 
ATOM      4  C9  UNL     1      27.184  -8.974 -35.227  0.00  0.00    +0.000 A 
ATOM      5  C14 UNL     1      28.041 -10.006 -34.818  0.00  0.00    +0.000 A 
ATOM      6  C15 UNL     1      29.058  -9.756 -33.893  0.00  0.00    +0.000 A 
ENDROOT
BRANCH   4   7
ATOM      7  C10 UNL     1      26.118  -9.262 -36.207  0.00  0.00    +0.000 C 
ATOM      8  N1  UNL     1      25.937  -8.500 -37.244  0.00  0.00    +0.000 NA
BRANCH   8   9
ATOM      9  N2  UNL     1      24.947  -8.747 -38.214  0.00  0.00    +0.000 NA
ATOM     10  C11 UNL     1      25.190  -9.103 -39.442  0.00  0.00    +0.000 A 
ATOM     11  N3  UNL     1      24.208  -9.362 -40.330  0.00  0.00    +0.000 N 
ATOM     12  C12 UNL     1      24.700  -9.671 -41.560  0.00  0.00    +0.000 A 
ATOM     13  C13 UNL     1      26.086  -9.652 -41.668  0.00  0.00    +0.000 A 
ATOM     14  S2  UNL     1      26.712  -9.229 -40.162  0.00  0.00    +0.000 S 
ATOM     15  H9  UNL     1      23.189  -9.328 -40.102  0.00  0.00    +0.000 HD
BRANCH  12  16
ATOM     16  O4  UNL     1      23.873  -9.979 -42.636  0.00  0.00    +0.000 OA
ATOM     17  H10 UNL     1      23.154 -10.688 -42.552  0.00  0.00    +0.000 HD
ENDBRANCH  12  16
ENDBRANCH   8   9
ENDBRANCH   4   7
BRANCH   1  18
ATOM     18  O3  UNL     1      30.276  -8.283 -32.437  0.00  0.00    +0.000 OA
BRANCH  18  19
ATOM     19  S1  UNL     1      31.944  -8.390 -32.803  0.00  0.00    +0.000 S 
ATOM     20  O1  UNL     1      32.688  -7.272 -32.130  0.00  0.00    +0.000 OA
ATOM     21  O2  UNL     1      32.127  -8.299 -34.293  0.00  0.00    +0.000 OA
BRANCH  19  26
ATOM     22  C1  UNL     1      34.086 -13.730 -30.872  0.00  0.00    +0.000 C 
ATOM     23  C2  UNL     1      33.568 -12.395 -31.319  0.00  0.00    +0.000 A 
ATOM     24  C3  UNL     1      34.368 -11.558 -32.113  0.00  0.00    +0.000 A 
ATOM     25  C4  UNL     1      33.873 -10.329 -32.562  0.00  0.00    +0.000 A 
ATOM     26  C5  UNL     1      32.571  -9.929 -32.230  0.00  0.00    +0.000 A 
ATOM     27  C16 UNL     1      31.764 -10.774 -31.458  0.00  0.00    +0.000 A 
ATOM     28  C17 UNL     1      32.257 -12.003 -31.009  0.00  0.00    +0.000 A 
ENDBRANCH  19  26
ENDBRANCH  18  19
ENDBRANCH   1  18
TORSDOF 6
ENDMDL
MODEL 6
REMARK VINA RESULT:    -5.805      2.277      3.046
REMARK INTER + INTRA:          -8.229
REMARK INTER:                  -7.764
REMARK INTRA:                  -0.466
REMARK UNBOUND:                -0.558
REMARK  Name = resultss/4CJN/ligands/lig_392_t1.pdb
REMARK  7 active torsions:
REMARK  status: ('A' for Active; 'I' for Inactive)
REMARK    1  A    between atoms: C1_1  and  C2_2
REMARK    2  A    between atoms: C5_5  and  S1_6
REMARK    3  A    between atoms: S1_6  and  O3_9
REMARK    4  A    between atoms: O3_9  and  C6_10
REMARK    5  A    between atoms: C9_13  and  C10_14
REMARK    6  A    between atoms: N1_15  and  N2_16
REMARK    7  A    between atoms: C12_19  and  O4_20
REMARK                            x       y       z     vdW  Elec       q    Type
REMARK                         _______ _______ _______ _____ _____    ______ ____
ROOT
ATOM      1  C6  UNL     1      28.592 -10.522 -40.641  0.00  0.00    +0.000 A 
ATOM      2  C7  UNL     1      28.852 -10.368 -39.266  0.00  0.00    +0.000 A 
ATOM      3  C8  UNL     1      27.884  -9.815 -38.422  0.00  0.00    +0.000 A 
ATOM      4  C9  UNL     1      26.641  -9.406 -38.936  0.00  0.00    +0.000 A 
ATOM      5  C14 UNL     1      26.386  -9.559 -40.307  0.00  0.00    +0.000 A 
ATOM      6  C15 UNL     1      27.354 -10.113 -41.149  0.00  0.00    +0.000 A 
ENDROOT
BRANCH   4   7
ATOM      7  C10 UNL     1      25.603  -8.816 -38.067  0.00  0.00    +0.000 C 
ATOM      8  N1  UNL     1      25.910  -7.950 -37.149  0.00  0.00    +0.000 NA
BRANCH   8   9
ATOM      9  N2  UNL     1      24.953  -7.348 -36.311  0.00  0.00    +0.000 NA
ATOM     10  C11 UNL     1      24.715  -7.708 -35.083  0.00  0.00    +0.000 A 
ATOM     11  N3  UNL     1      23.809  -7.079 -34.305  0.00  0.00    +0.000 N 
ATOM     12  C12 UNL     1      23.700  -7.659 -33.079  0.00  0.00    +0.000 A 
ATOM     13  C13 UNL     1      24.515  -8.766 -32.870  0.00  0.00    +0.000 A 
ATOM     14  S2  UNL     1      25.401  -9.025 -34.280  0.00  0.00    +0.000 S 
ATOM     15  H9  UNL     1      23.255  -6.248 -34.608  0.00  0.00    +0.000 HD
BRANCH  12  16
ATOM     16  O4  UNL     1      22.831  -7.178 -32.105  0.00  0.00    +0.000 OA
ATOM     17  H10 UNL     1      23.026  -6.313 -31.616  0.00  0.00    +0.000 HD
ENDBRANCH  12  16
ENDBRANCH   8   9
ENDBRANCH   4   7
BRANCH   1  18
ATOM     18  O3  UNL     1      29.524 -11.070 -41.532  0.00  0.00    +0.000 OA
BRANCH  18  19
ATOM     19  S1  UNL     1      30.638 -10.162 -42.463  0.00  0.00    +0.000 S 
ATOM     20  O1  UNL     1      31.587  -9.433 -41.554  0.00  0.00    +0.000 OA
ATOM     21  O2  UNL     1      29.882  -9.174 -43.308  0.00  0.00    +0.000 OA
BRANCH  19  26
ATOM     22  C1  UNL     1      33.744 -13.902 -46.095  0.00  0.00    +0.000 C 
ATOM     23  C2  UNL     1      33.002 -12.980 -45.173  0.00  0.00    +0.000 A 
ATOM     24  C3  UNL     1      33.176 -11.590 -45.274  0.00  0.00    +0.000 A 
ATOM     25  C4  UNL     1      32.456 -10.728 -44.440  0.00  0.00    +0.000 A 
ATOM     26  C5  UNL     1      31.551 -11.245 -43.503  0.00  0.00    +0.000 A 
ATOM     27  C16 UNL     1      31.359 -12.630 -43.418  0.00  0.00    +0.000 A 
ATOM     28  C17 UNL     1      32.077 -13.493 -44.251  0.00  0.00    +0.000 A 
ENDBRANCH  19  26
ENDBRANCH  18  19
ENDBRANCH   1  18
TORSDOF 6
ENDMDL
MODEL 7
REMARK VINA RESULT:    -5.762      4.830      6.831
REMARK INTER + INTRA:          -8.173
REMARK INTER:                  -7.458
REMARK INTRA:                  -0.715
REMARK UNBOUND:                -0.558
REMARK  Name = resultss/4CJN/ligands/lig_392_t1.pdb
REMARK  7 active torsions:
REMARK  status: ('A' for Active; 'I' for Inactive)
REMARK    1  A    between atoms: C1_1  and  C2_2
REMARK    2  A    between atoms: C5_5  and  S1_6
REMARK    3  A    between atoms: S1_6  and  O3_9
REMARK    4  A    between atoms: O3_9  and  C6_10
REMARK    5  A    between atoms: C9_13  and  C10_14
REMARK    6  A    between atoms: N1_15  and  N2_16
REMARK    7  A    between atoms: C12_19  and  O4_20
REMARK                            x       y       z     vdW  Elec       q    Type
REMARK                         _______ _______ _______ _____ _____    ______ ____
ROOT
ATOM      1  C6  UNL     1      26.559  -8.265 -37.858  0.00  0.00    +0.000 A 
ATOM      2  C7  UNL     1      25.751  -8.812 -36.844  0.00  0.00    +0.000 A 
ATOM      3  C8  UNL     1      26.335  -9.385 -35.709  0.00  0.00    +0.000 A 
ATOM      4  C9  UNL     1      27.733  -9.424 -35.570  0.00  0.00    +0.000 A 
ATOM      5  C14 UNL     1      28.535  -8.879 -36.584  0.00  0.00    +0.000 A 
ATOM      6  C15 UNL     1      27.950  -8.305 -37.716  0.00  0.00    +0.000 A 
ENDROOT
BRANCH   4   7
ATOM      7  C10 UNL     1      28.374 -10.027 -34.384  0.00  0.00    +0.000 C 
ATOM      8  N1  UNL     1      29.520  -9.597 -33.951  0.00  0.00    +0.000 NA
BRANCH   8   9
ATOM      9  N2  UNL     1      30.158 -10.128 -32.814  0.00  0.00    +0.000 NA
ATOM     10  C11 UNL     1      31.444 -10.102 -32.610  0.00  0.00    +0.000 A 
ATOM     11  N3  UNL     1      32.011 -10.594 -31.489  0.00  0.00    +0.000 N 
ATOM     12  C12 UNL     1      33.367 -10.500 -31.519  0.00  0.00    +0.000 A 
ATOM     13  C13 UNL     1      33.899  -9.936 -32.674  0.00  0.00    +0.000 A 
ATOM     14  S2  UNL     1      32.615  -9.548 -33.692  0.00  0.00    +0.000 S 
ATOM     15  H9  UNL     1      31.473 -11.003 -30.692  0.00  0.00    +0.000 HD
BRANCH  12  16
ATOM     16  O4  UNL     1      34.166 -10.940 -30.468  0.00  0.00    +0.000 OA
ATOM     17  H10 UNL     1      34.841 -11.682 -30.604  0.00  0.00    +0.000 HD
ENDBRANCH  12  16
ENDBRANCH   8   9
ENDBRANCH   4   7
BRANCH   1  18
ATOM     18  O3  UNL     1      26.029  -7.677 -39.015  0.00  0.00    +0.000 OA
BRANCH  18  19
ATOM     19  S1  UNL     1      25.614  -8.528 -40.442  0.00  0.00    +0.000 S 
ATOM     20  O1  UNL     1      25.039  -7.577 -41.453  0.00  0.00    +0.000 OA
ATOM     21  O2  UNL     1      24.602  -9.588 -40.105  0.00  0.00    +0.000 OA
BRANCH  19  26
ATOM     22  C1  UNL     1      30.615 -11.104 -42.718  0.00  0.00    +0.000 C 
ATOM     23  C2  UNL     1      29.360 -10.486 -42.178  0.00  0.00    +0.000 A 
ATOM     24  C3  UNL     1      28.709 -11.059 -41.074  0.00  0.00    +0.000 A 
ATOM     25  C4  UNL     1      27.559 -10.463 -40.547  0.00  0.00    +0.000 A 
ATOM     26  C5  UNL     1      27.053  -9.284 -41.111  0.00  0.00    +0.000 A 
ATOM     27  C16 UNL     1      27.716  -8.697 -42.197  0.00  0.00    +0.000 A 
ATOM     28  C17 UNL     1      28.865  -9.292 -42.726  0.00  0.00    +0.000 A 
ENDBRANCH  19  26
ENDBRANCH  18  19
ENDBRANCH   1  18
TORSDOF 6
ENDMDL
MODEL 8
REMARK VINA RESULT:    -5.098      5.300      6.633
REMARK INTER + INTRA:          -7.296
REMARK INTER:                  -6.745
REMARK INTRA:                  -0.551
REMARK UNBOUND:                -0.558
REMARK  Name = resultss/4CJN/ligands/lig_392_t1.pdb
REMARK  7 active torsions:
REMARK  status: ('A' for Active; 'I' for Inactive)
REMARK    1  A    between atoms: C1_1  and  C2_2
REMARK    2  A    between atoms: C5_5  and  S1_6
REMARK    3  A    between atoms: S1_6  and  O3_9
REMARK    4  A    between atoms: O3_9  and  C6_10
REMARK    5  A    between atoms: C9_13  and  C10_14
REMARK    6  A    between atoms: N1_15  and  N2_16
REMARK    7  A    between atoms: C12_19  and  O4_20
REMARK                            x       y       z     vdW  Elec       q    Type
REMARK                         _______ _______ _______ _____ _____    ______ ____
ROOT
ATOM      1  C6  UNL     1      28.360 -10.269 -38.800  0.00  0.00    +0.000 A 
ATOM      2  C7  UNL     1      27.800 -10.233 -37.509  0.00  0.00    +0.000 A 
ATOM      3  C8  UNL     1      28.513  -9.668 -36.446  0.00  0.00    +0.000 A 
ATOM      4  C9  UNL     1      29.795  -9.132 -36.655  0.00  0.00    +0.000 A 
ATOM      5  C14 UNL     1      30.350  -9.171 -37.942  0.00  0.00    +0.000 A 
ATOM      6  C15 UNL     1      29.636  -9.735 -39.003  0.00  0.00    +0.000 A 
ENDROOT
BRANCH   4   7
ATOM      7  C10 UNL     1      30.570  -8.532 -35.550  0.00  0.00    +0.000 C 
ATOM      8  N1  UNL     1      30.176  -8.644 -34.317  0.00  0.00    +0.000 NA
BRANCH   8   9
ATOM      9  N2  UNL     1      30.892  -8.107 -33.231  0.00  0.00    +0.000 NA
ATOM     10  C11 UNL     1      31.619  -8.805 -32.408  0.00  0.00    +0.000 A 
ATOM     11  N3  UNL     1      32.316  -8.243 -31.398  0.00  0.00    +0.000 N 
ATOM     12  C12 UNL     1      32.963  -9.172 -30.645  0.00  0.00    +0.000 A 
ATOM     13  C13 UNL     1      32.781 -10.492 -31.043  0.00  0.00    +0.000 A 
ATOM     14  S2  UNL     1      31.767 -10.487 -32.388  0.00  0.00    +0.000 S 
ATOM     15  H9  UNL     1      32.353  -7.215 -31.214  0.00  0.00    +0.000 HD
BRANCH  12  16
ATOM     16  O4  UNL     1      33.750  -8.825 -29.551  0.00  0.00    +0.000 OA
ATOM     17  H10 UNL     1      34.758  -8.784 -29.628  0.00  0.00    +0.000 HD
ENDBRANCH  12  16
ENDBRANCH   8   9
ENDBRANCH   4   7
BRANCH   1  18
ATOM     18  O3  UNL     1      27.691 -10.823 -39.900  0.00  0.00    +0.000 OA
BRANCH  18  19
ATOM     19  S1  UNL     1      26.346 -10.113 -40.685  0.00  0.00    +0.000 S 
ATOM     20  O1  UNL     1      25.643  -9.175 -39.745  0.00  0.00    +0.000 OA
ATOM     21  O2  UNL     1      25.402 -11.199 -41.122  0.00  0.00    +0.000 OA
BRANCH  19  26
ATOM     22  C1  UNL     1      28.242  -7.063 -45.577  0.00  0.00    +0.000 C 
ATOM     23  C2  UNL     1      27.779  -7.787 -44.348  0.00  0.00    +0.000 A 
ATOM     24  C3  UNL     1      26.415  -7.812 -44.015  0.00  0.00    +0.000 A 
ATOM     25  C4  UNL     1      25.978  -8.518 -42.890  0.00  0.00    +0.000 A 
ATOM     26  C5  UNL     1      26.897  -9.215 -42.093  0.00  0.00    +0.000 A 
ATOM     27  C16 UNL     1      28.254  -9.211 -42.438  0.00  0.00    +0.000 A 
ATOM     28  C17 UNL     1      28.693  -8.506 -43.562  0.00  0.00    +0.000 A 
ENDBRANCH  19  26
ENDBRANCH  18  19
ENDBRANCH   1  18
TORSDOF 6
ENDMDL
