MODEL 1
REMARK VINA RESULT:    -6.904      0.000      0.000
REMARK INTER + INTRA:         -13.538
REMARK INTER:                 -11.546
REMARK INTRA:                  -1.992
REMARK UNBOUND:                -1.992
REMARK  Name = resultss/4CJN/ligands/lig_340_t2.pdb
REMARK  14 active torsions:
REMARK  status: ('A' for Active; 'I' for Inactive)
REMARK    1  A    between atoms: C1_1  and  O1_2
REMARK    2  A    between atoms: O1_2  and  C2_3
REMARK    3  A    between atoms: C5_6  and  N1_7
REMARK    4  A    between atoms: C6_8  and  C7_10
REMARK    5  A    between atoms: C7_10  and  N2_11
REMARK    6  A    between atoms: C9_13  and  C10_14
REMARK    7  A    between atoms: C10_14  and  O3_15
REMARK    8  A    between atoms: O3_15  and  C11_16
REMARK    9  A    between atoms: C14_19  and  C15_20
REMARK   10  A    between atoms: C22_28  and  O4_29
REMARK   11  A    between atoms: N4_30  and  N5_31
REMARK   12  A    between atoms: N5_31  and  C23_32
REMARK   13  A    between atoms: C30_39  and  O5_40
REMARK   14  A    between atoms: O5_40  and  C31_41
REMARK                            x       y       z     vdW  Elec       q    Type
REMARK                         _______ _______ _______ _____ _____    ______ ____
ROOT
ATOM      1  C11 UNL     1      27.093  -7.137 -39.492  0.00  0.00    +0.000 A 
ATOM      2  C12 UNL     1      28.334  -7.028 -38.837  0.00  0.00    +0.000 A 
ATOM      3  C13 UNL     1      28.411  -7.112 -37.447  0.00  0.00    +0.000 A 
ATOM      4  C14 UNL     1      27.253  -7.306 -36.680  0.00  0.00    +0.000 A 
ATOM      5  C29 UNL     1      26.013  -7.416 -37.330  0.00  0.00    +0.000 A 
ATOM      6  C30 UNL     1      25.927  -7.326 -38.734  0.00  0.00    +0.000 A 
ENDROOT
BRANCH   4   7
ATOM      7  C15 UNL     1      27.359  -7.472 -35.181  0.00  0.00    +0.000 C 
ATOM      8  N3  UNL     1      26.371  -6.631 -34.508  0.00  0.00    +0.000 NA
ATOM      9  C16 UNL     1      25.302  -7.077 -33.916  0.00  0.00    +0.000 A 
ATOM     10  C17 UNL     1      24.414  -6.147 -33.362  0.00  0.00    +0.000 A 
ATOM     11  C18 UNL     1      23.240  -6.572 -32.742  0.00  0.00    +0.000 A 
ATOM     12  C19 UNL     1      22.943  -7.930 -32.670  0.00  0.00    +0.000 A 
ATOM     13  C20 UNL     1      23.820  -8.874 -33.209  0.00  0.00    +0.000 A 
ATOM     14  C21 UNL     1      25.020  -8.468 -33.838  0.00  0.00    +0.000 A 
ATOM     15  C22 UNL     1      25.921  -9.357 -34.330  0.00  0.00    +0.000 C 
ATOM     16  N4  UNL     1      27.188  -8.881 -34.818  0.00  0.00    +0.000 N 
BRANCH  15  17
ATOM     17  O4  UNL     1      25.681 -10.736 -34.378  0.00  0.00    +0.000 OA
ATOM     18  H19 UNL     1      26.191 -11.433 -33.855  0.00  0.00    +0.000 HD
ENDBRANCH  15  17
BRANCH  16  19
ATOM     19  N5  UNL     1      28.208  -9.791 -35.156  0.00  0.00    +0.000 N 
ATOM     20  H20 UNL     1      28.026 -10.485 -35.917  0.00  0.00    +0.000 HD
BRANCH  19  21
ATOM     21  C23 UNL     1      29.552  -9.679 -34.656  0.00  0.00    +0.000 A 
ATOM     22  C24 UNL     1      30.607  -9.482 -35.562  0.00  0.00    +0.000 A 
ATOM     23  C25 UNL     1      31.918  -9.320 -35.100  0.00  0.00    +0.000 A 
ATOM     24  C26 UNL     1      32.185  -9.339 -33.728  0.00  0.00    +0.000 A 
ATOM     25  C27 UNL     1      31.146  -9.544 -32.820  0.00  0.00    +0.000 A 
ATOM     26  C28 UNL     1      29.832  -9.705 -33.277  0.00  0.00    +0.000 A 
ENDBRANCH  19  21
ENDBRANCH  16  19
ENDBRANCH   4   7
BRANCH   6  27
ATOM     27  O5  UNL     1      24.701  -7.429 -39.413  0.00  0.00    +0.000 OA
ATOM     28  C31 UNL     1      23.835  -6.333 -39.689  0.00  0.00    +0.000 C 
ENDBRANCH   6  27
BRANCH   1  29
ATOM     29  O3  UNL     1      26.972  -7.081 -40.892  0.00  0.00    +0.000 OA
BRANCH  29  30
ATOM     30  C10 UNL     1      26.957  -8.203 -41.772  0.00  0.00    +0.000 C 
BRANCH  30  33
ATOM     31  N2  UNL     1      25.305  -7.433 -44.910  0.00  0.00    +0.000 N 
ATOM     32  C8  UNL     1      26.428  -7.476 -44.175  0.00  0.00    +0.000 A 
ATOM     33  C9  UNL     1      26.053  -7.944 -42.936  0.00  0.00    +0.000 A 
ATOM     34  N6  UNL     1      24.725  -8.178 -42.953  0.00  0.00    +0.000 NA
ATOM     35  N7  UNL     1      24.296  -7.851 -44.164  0.00  0.00    +0.000 NA
BRANCH  31  36
ATOM     36  C7  UNL     1      25.175  -6.951 -46.280  0.00  0.00    +0.000 C 
BRANCH  36  38
ATOM     37  N1  UNL     1      22.685  -6.452 -46.392  0.00  0.00    +0.000 N 
ATOM     38  C6  UNL     1      23.805  -7.254 -46.804  0.00  0.00    +0.000 C 
ATOM     39  O2  UNL     1      23.641  -8.246 -47.564  0.00  0.00    +0.000 OA
ATOM     40  H6  UNL     1      22.821  -5.789 -45.596  0.00  0.00    +0.000 HD
BRANCH  37  44
ATOM     41  C2  UNL     1      18.738  -6.865 -47.930  0.00  0.00    +0.000 A 
ATOM     42  C3  UNL     1      19.802  -6.546 -48.797  0.00  0.00    +0.000 A 
ATOM     43  C4  UNL     1      21.102  -6.413 -48.297  0.00  0.00    +0.000 A 
ATOM     44  C5  UNL     1      21.360  -6.599 -46.928  0.00  0.00    +0.000 A 
ATOM     45  C32 UNL     1      20.294  -6.884 -46.063  0.00  0.00    +0.000 A 
ATOM     46  C33 UNL     1      18.996  -7.025 -46.562  0.00  0.00    +0.000 A 
BRANCH  41  48
ATOM     47  C1  UNL     1      16.293  -7.187 -47.529  0.00  0.00    +0.000 C 
ATOM     48  O1  UNL     1      17.421  -7.030 -48.384  0.00  0.00    +0.000 OA
ENDBRANCH  41  48
ENDBRANCH  37  44
ENDBRANCH  36  38
ENDBRANCH  31  36
ENDBRANCH  30  33
ENDBRANCH  29  30
ENDBRANCH   1  29
TORSDOF 12
ENDMDL
MODEL 2
REMARK VINA RESULT:    -6.770      1.455      1.979
REMARK INTER + INTRA:         -13.313
REMARK INTER:                 -11.174
REMARK INTRA:                  -2.138
REMARK UNBOUND:                -1.992
REMARK  Name = resultss/4CJN/ligands/lig_340_t2.pdb
REMARK  14 active torsions:
REMARK  status: ('A' for Active; 'I' for Inactive)
REMARK    1  A    between atoms: C1_1  and  O1_2
REMARK    2  A    between atoms: O1_2  and  C2_3
REMARK    3  A    between atoms: C5_6  and  N1_7
REMARK    4  A    between atoms: C6_8  and  C7_10
REMARK    5  A    between atoms: C7_10  and  N2_11
REMARK    6  A    between atoms: C9_13  and  C10_14
REMARK    7  A    between atoms: C10_14  and  O3_15
REMARK    8  A    between atoms: O3_15  and  C11_16
REMARK    9  A    between atoms: C14_19  and  C15_20
REMARK   10  A    between atoms: C22_28  and  O4_29
REMARK   11  A    between atoms: N4_30  and  N5_31
REMARK   12  A    between atoms: N5_31  and  C23_32
REMARK   13  A    between atoms: C30_39  and  O5_40
REMARK   14  A    between atoms: O5_40  and  C31_41
REMARK                            x       y       z     vdW  Elec       q    Type
REMARK                         _______ _______ _______ _____ _____    ______ ____
ROOT
ATOM      1  C11 UNL     1      26.988  -6.678 -39.801  0.00  0.00    +0.000 A 
ATOM      2  C12 UNL     1      28.146  -6.240 -39.130  0.00  0.00    +0.000 A 
ATOM      3  C13 UNL     1      28.266  -6.396 -37.750  0.00  0.00    +0.000 A 
ATOM      4  C14 UNL     1      27.236  -6.991 -37.008  0.00  0.00    +0.000 A 
ATOM      5  C29 UNL     1      26.079  -7.429 -37.674  0.00  0.00    +0.000 A 
ATOM      6  C30 UNL     1      25.948  -7.270 -39.068  0.00  0.00    +0.000 A 
ENDROOT
BRANCH   4   7
ATOM      7  C15 UNL     1      27.411  -7.224 -35.524  0.00  0.00    +0.000 C 
ATOM      8  N3  UNL     1      26.421  -6.455 -34.771  0.00  0.00    +0.000 NA
ATOM      9  C16 UNL     1      25.395  -6.971 -34.160  0.00  0.00    +0.000 A 
ATOM     10  C17 UNL     1      24.497  -6.104 -33.526  0.00  0.00    +0.000 A 
ATOM     11  C18 UNL     1      23.367  -6.605 -32.881  0.00  0.00    +0.000 A 
ATOM     12  C19 UNL     1      23.124  -7.975 -32.864  0.00  0.00    +0.000 A 
ATOM     13  C20 UNL     1      24.012  -8.857 -33.484  0.00  0.00    +0.000 A 
ATOM     14  C21 UNL     1      25.170  -8.375 -34.139  0.00  0.00    +0.000 A 
ATOM     15  C22 UNL     1      26.081  -9.203 -34.710  0.00  0.00    +0.000 C 
ATOM     16  N4  UNL     1      27.309  -8.654 -35.225  0.00  0.00    +0.000 N 
BRANCH  15  17
ATOM     17  O4  UNL     1      25.892 -10.586 -34.816  0.00  0.00    +0.000 OA
ATOM     18  H19 UNL     1      26.448 -11.207 -35.386  0.00  0.00    +0.000 HD
ENDBRANCH  15  17
BRANCH  16  19
ATOM     19  N5  UNL     1      28.347  -9.506 -35.648  0.00  0.00    +0.000 N 
ATOM     20  H20 UNL     1      28.825 -10.103 -34.935  0.00  0.00    +0.000 HD
BRANCH  19  21
ATOM     21  C23 UNL     1      28.639  -9.751 -37.035  0.00  0.00    +0.000 A 
ATOM     22  C24 UNL     1      27.643 -10.299 -37.859  0.00  0.00    +0.000 A 
ATOM     23  C25 UNL     1      27.883 -10.502 -39.223  0.00  0.00    +0.000 A 
ATOM     24  C26 UNL     1      29.116 -10.147 -39.778  0.00  0.00    +0.000 A 
ATOM     25  C27 UNL     1      30.116  -9.612 -38.966  0.00  0.00    +0.000 A 
ATOM     26  C28 UNL     1      29.880  -9.405 -37.601  0.00  0.00    +0.000 A 
ENDBRANCH  19  21
ENDBRANCH  16  19
ENDBRANCH   4   7
BRANCH   6  27
ATOM     27  O5  UNL     1      24.803  -7.695 -39.762  0.00  0.00    +0.000 OA
ATOM     28  C31 UNL     1      24.530  -9.046 -40.118  0.00  0.00    +0.000 C 
ENDBRANCH   6  27
BRANCH   1  29
ATOM     29  O3  UNL     1      26.835  -6.560 -41.194  0.00  0.00    +0.000 OA
BRANCH  29  30
ATOM     30  C10 UNL     1      27.215  -7.540 -42.159  0.00  0.00    +0.000 C 
BRANCH  30  33
ATOM     31  N2  UNL     1      25.487  -7.264 -45.337  0.00  0.00    +0.000 N 
ATOM     32  C8  UNL     1      26.601  -7.088 -44.608  0.00  0.00    +0.000 A 
ATOM     33  C9  UNL     1      26.290  -7.505 -43.334  0.00  0.00    +0.000 A 
ATOM     34  N6  UNL     1      25.008  -7.925 -43.324  0.00  0.00    +0.000 NA
ATOM     35  N7  UNL     1      24.543  -7.759 -44.554  0.00  0.00    +0.000 NA
BRANCH  31  36
ATOM     36  C7  UNL     1      25.297  -6.915 -46.740  0.00  0.00    +0.000 C 
BRANCH  36  38
ATOM     37  N1  UNL     1      22.818  -6.356 -46.805  0.00  0.00    +0.000 N 
ATOM     38  C6  UNL     1      23.897  -7.236 -47.165  0.00  0.00    +0.000 C 
ATOM     39  O2  UNL     1      23.672  -8.306 -47.793  0.00  0.00    +0.000 OA
ATOM     40  H6  UNL     1      23.008  -5.608 -46.101  0.00  0.00    +0.000 HD
BRANCH  37  44
ATOM     41  C2  UNL     1      18.795  -6.827 -48.112  0.00  0.00    +0.000 A 
ATOM     42  C3  UNL     1      19.827  -6.662 -49.056  0.00  0.00    +0.000 A 
ATOM     43  C4  UNL     1      21.152  -6.510 -48.633  0.00  0.00    +0.000 A 
ATOM     44  C5  UNL     1      21.467  -6.525 -47.263  0.00  0.00    +0.000 A 
ATOM     45  C32 UNL     1      20.433  -6.656 -46.324  0.00  0.00    +0.000 A 
ATOM     46  C33 UNL     1      19.110  -6.815 -46.747  0.00  0.00    +0.000 A 
BRANCH  41  48
ATOM     47  C1  UNL     1      16.444  -7.516 -47.625  0.00  0.00    +0.000 C 
ATOM     48  O1  UNL     1      17.454  -7.002 -48.486  0.00  0.00    +0.000 OA
ENDBRANCH  41  48
ENDBRANCH  37  44
ENDBRANCH  36  38
ENDBRANCH  31  36
ENDBRANCH  30  33
ENDBRANCH  29  30
ENDBRANCH   1  29
TORSDOF 12
ENDMDL
MODEL 3
REMARK VINA RESULT:    -6.551      2.291      3.804
REMARK INTER + INTRA:         -12.948
REMARK INTER:                 -10.775
REMARK INTRA:                  -2.173
REMARK UNBOUND:                -1.992
REMARK  Name = resultss/4CJN/ligands/lig_340_t2.pdb
REMARK  14 active torsions:
REMARK  status: ('A' for Active; 'I' for Inactive)
REMARK    1  A    between atoms: C1_1  and  O1_2
REMARK    2  A    between atoms: O1_2  and  C2_3
REMARK    3  A    between atoms: C5_6  and  N1_7
REMARK    4  A    between atoms: C6_8  and  C7_10
REMARK    5  A    between atoms: C7_10  and  N2_11
REMARK    6  A    between atoms: C9_13  and  C10_14
REMARK    7  A    between atoms: C10_14  and  O3_15
REMARK    8  A    between atoms: O3_15  and  C11_16
REMARK    9  A    between atoms: C14_19  and  C15_20
REMARK   10  A    between atoms: C22_28  and  O4_29
REMARK   11  A    between atoms: N4_30  and  N5_31
REMARK   12  A    between atoms: N5_31  and  C23_32
REMARK   13  A    between atoms: C30_39  and  O5_40
REMARK   14  A    between atoms: O5_40  and  C31_41
REMARK                            x       y       z     vdW  Elec       q    Type
REMARK                         _______ _______ _______ _____ _____    ______ ____
ROOT
ATOM      1  C11 UNL     1      28.108  -6.352 -41.660  0.00  0.00    +0.000 A 
ATOM      2  C12 UNL     1      29.484  -6.377 -41.364  0.00  0.00    +0.000 A 
ATOM      3  C13 UNL     1      29.937  -6.871 -40.141  0.00  0.00    +0.000 A 
ATOM      4  C14 UNL     1      29.028  -7.350 -39.187  0.00  0.00    +0.000 A 
ATOM      5  C29 UNL     1      27.655  -7.327 -39.478  0.00  0.00    +0.000 A 
ATOM      6  C30 UNL     1      27.190  -6.824 -40.709  0.00  0.00    +0.000 A 
ENDROOT
BRANCH   4   7
ATOM      7  C15 UNL     1      29.536  -7.953 -37.897  0.00  0.00    +0.000 C 
ATOM      8  N3  UNL     1      28.818  -7.387 -36.755  0.00  0.00    +0.000 NA
ATOM      9  C16 UNL     1      27.933  -8.026 -36.049  0.00  0.00    +0.000 A 
ATOM     10  C17 UNL     1      27.283  -7.336 -35.019  0.00  0.00    +0.000 A 
ATOM     11  C18 UNL     1      26.306  -7.967 -34.250  0.00  0.00    +0.000 A 
ATOM     12  C19 UNL     1      25.970  -9.294 -34.505  0.00  0.00    +0.000 A 
ATOM     13  C20 UNL     1      26.612 -10.002 -35.523  0.00  0.00    +0.000 A 
ATOM     14  C21 UNL     1      27.612  -9.386 -36.312  0.00  0.00    +0.000 A 
ATOM     15  C22 UNL     1      28.293 -10.055 -37.276  0.00  0.00    +0.000 C 
ATOM     16  N4  UNL     1      29.399  -9.411 -37.935  0.00  0.00    +0.000 N 
BRANCH  15  17
ATOM     17  O4  UNL     1      27.978 -11.364 -37.663  0.00  0.00    +0.000 OA
ATOM     18  H19 UNL     1      28.492 -12.189 -37.394  0.00  0.00    +0.000 HD
ENDBRANCH  15  17
BRANCH  16  19
ATOM     19  N5  UNL     1      30.236 -10.143 -38.800  0.00  0.00    +0.000 N 
ATOM     20  H20 UNL     1      30.937 -10.796 -38.381  0.00  0.00    +0.000 HD
BRANCH  19  21
ATOM     21  C23 UNL     1      30.035 -10.195 -40.223  0.00  0.00    +0.000 A 
ATOM     22  C24 UNL     1      28.732 -10.341 -40.726  0.00  0.00    +0.000 A 
ATOM     23  C25 UNL     1      28.500 -10.345 -42.106  0.00  0.00    +0.000 A 
ATOM     24  C26 UNL     1      29.567 -10.189 -42.996  0.00  0.00    +0.000 A 
ATOM     25  C27 UNL     1      30.866 -10.054 -42.507  0.00  0.00    +0.000 A 
ATOM     26  C28 UNL     1      31.103 -10.048 -41.127  0.00  0.00    +0.000 A 
ENDBRANCH  19  21
ENDBRANCH  16  19
ENDBRANCH   4   7
BRANCH   6  27
ATOM     27  O5  UNL     1      25.822  -6.784 -41.029  0.00  0.00    +0.000 OA
ATOM     28  C31 UNL     1      24.860  -7.734 -40.583  0.00  0.00    +0.000 C 
ENDBRANCH   6  27
BRANCH   1  29
ATOM     29  O3  UNL     1      27.610  -5.883 -42.889  0.00  0.00    +0.000 OA
BRANCH  29  30
ATOM     30  C10 UNL     1      27.920  -6.423 -44.172  0.00  0.00    +0.000 C 
BRANCH  30  33
ATOM     31  N2  UNL     1      25.209  -6.950 -46.526  0.00  0.00    +0.000 N 
ATOM     32  C8  UNL     1      26.449  -6.499 -46.272  0.00  0.00    +0.000 A 
ATOM     33  C9  UNL     1      26.666  -6.722 -44.932  0.00  0.00    +0.000 A 
ATOM     34  N6  UNL     1      25.565  -7.303 -44.411  0.00  0.00    +0.000 NA
ATOM     35  N7  UNL     1      24.693  -7.422 -45.403  0.00  0.00    +0.000 NA
BRANCH  31  36
ATOM     36  C7  UNL     1      24.499  -6.885 -47.798  0.00  0.00    +0.000 C 
BRANCH  36  38
ATOM     37  N1  UNL     1      22.093  -6.335 -47.188  0.00  0.00    +0.000 N 
ATOM     38  C6  UNL     1      23.071  -7.299 -47.612  0.00  0.00    +0.000 C 
ATOM     39  O2  UNL     1      22.753  -8.507 -47.780  0.00  0.00    +0.000 OA
ATOM     40  H6  UNL     1      22.433  -5.408 -46.844  0.00  0.00    +0.000 HD
BRANCH  37  44
ATOM     41  C2  UNL     1      17.926  -7.136 -46.855  0.00  0.00    +0.000 A 
ATOM     42  C3  UNL     1      18.515  -6.983 -48.125  0.00  0.00    +0.000 A 
ATOM     43  C4  UNL     1      19.884  -6.723 -48.241  0.00  0.00    +0.000 A 
ATOM     44  C5  UNL     1      20.688  -6.616 -47.093  0.00  0.00    +0.000 A 
ATOM     45  C32 UNL     1      20.093  -6.736 -45.828  0.00  0.00    +0.000 A 
ATOM     46  C33 UNL     1      18.725  -7.003 -45.712  0.00  0.00    +0.000 A 
BRANCH  41  48
ATOM     47  C1  UNL     1      15.676  -7.752 -47.748  0.00  0.00    +0.000 C 
ATOM     48  O1  UNL     1      16.562  -7.416 -46.686  0.00  0.00    +0.000 OA
ENDBRANCH  41  48
ENDBRANCH  37  44
ENDBRANCH  36  38
ENDBRANCH  31  36
ENDBRANCH  30  33
ENDBRANCH  29  30
ENDBRANCH   1  29
TORSDOF 12
ENDMDL
MODEL 4
REMARK VINA RESULT:    -6.431      2.300      3.034
REMARK INTER + INTRA:         -12.746
REMARK INTER:                 -10.162
REMARK INTRA:                  -2.585
REMARK UNBOUND:                -1.992
REMARK  Name = resultss/4CJN/ligands/lig_340_t2.pdb
REMARK  14 active torsions:
REMARK  status: ('A' for Active; 'I' for Inactive)
REMARK    1  A    between atoms: C1_1  and  O1_2
REMARK    2  A    between atoms: O1_2  and  C2_3
REMARK    3  A    between atoms: C5_6  and  N1_7
REMARK    4  A    between atoms: C6_8  and  C7_10
REMARK    5  A    between atoms: C7_10  and  N2_11
REMARK    6  A    between atoms: C9_13  and  C10_14
REMARK    7  A    between atoms: C10_14  and  O3_15
REMARK    8  A    between atoms: O3_15  and  C11_16
REMARK    9  A    between atoms: C14_19  and  C15_20
REMARK   10  A    between atoms: C22_28  and  O4_29
REMARK   11  A    between atoms: N4_30  and  N5_31
REMARK   12  A    between atoms: N5_31  and  C23_32
REMARK   13  A    between atoms: C30_39  and  O5_40
REMARK   14  A    between atoms: O5_40  and  C31_41
REMARK                            x       y       z     vdW  Elec       q    Type
REMARK                         _______ _______ _______ _____ _____    ______ ____
ROOT
ATOM      1  C11 UNL     1      28.737  -9.251 -38.824  0.00  0.00    +0.000 A 
ATOM      2  C12 UNL     1      27.930  -9.793 -37.806  0.00  0.00    +0.000 A 
ATOM      3  C13 UNL     1      27.331  -8.962 -36.860  0.00  0.00    +0.000 A 
ATOM      4  C14 UNL     1      27.522  -7.573 -36.908  0.00  0.00    +0.000 A 
ATOM      5  C29 UNL     1      28.326  -7.029 -37.923  0.00  0.00    +0.000 A 
ATOM      6  C30 UNL     1      28.940  -7.863 -38.879  0.00  0.00    +0.000 A 
ENDROOT
BRANCH   4   7
ATOM      7  C15 UNL     1      26.805  -6.678 -35.924  0.00  0.00    +0.000 C 
ATOM      8  N3  UNL     1      25.357  -6.799 -36.089  0.00  0.00    +0.000 NA
ATOM      9  C16 UNL     1      24.566  -7.404 -35.253  0.00  0.00    +0.000 A 
ATOM     10  C17 UNL     1      23.206  -7.493 -35.573  0.00  0.00    +0.000 A 
ATOM     11  C18 UNL     1      22.321  -8.155 -34.724  0.00  0.00    +0.000 A 
ATOM     12  C19 UNL     1      22.788  -8.738 -33.549  0.00  0.00    +0.000 A 
ATOM     13  C20 UNL     1      24.140  -8.655 -33.208  0.00  0.00    +0.000 A 
ATOM     14  C21 UNL     1      25.057  -7.981 -34.050  0.00  0.00    +0.000 A 
ATOM     15  C22 UNL     1      26.368  -7.836 -33.730  0.00  0.00    +0.000 C 
ATOM     16  N4  UNL     1      27.209  -7.010 -34.555  0.00  0.00    +0.000 N 
BRANCH  15  17
ATOM     17  O4  UNL     1      26.951  -8.450 -32.614  0.00  0.00    +0.000 OA
ATOM     18  H19 UNL     1      27.417  -7.965 -31.861  0.00  0.00    +0.000 HD
ENDBRANCH  15  17
BRANCH  16  19
ATOM     19  N5  UNL     1      28.518  -6.692 -34.144  0.00  0.00    +0.000 N 
ATOM     20  H20 UNL     1      28.645  -5.984 -33.386  0.00  0.00    +0.000 HD
BRANCH  19  21
ATOM     21  C23 UNL     1      29.672  -7.441 -34.564  0.00  0.00    +0.000 A 
ATOM     22  C24 UNL     1      29.743  -8.813 -34.271  0.00  0.00    +0.000 A 
ATOM     23  C25 UNL     1      30.830  -9.577 -34.711  0.00  0.00    +0.000 A 
ATOM     24  C26 UNL     1      31.850  -8.980 -35.459  0.00  0.00    +0.000 A 
ATOM     25  C27 UNL     1      31.793  -7.616 -35.746  0.00  0.00    +0.000 A 
ATOM     26  C28 UNL     1      30.707  -6.848 -35.310  0.00  0.00    +0.000 A 
ENDBRANCH  19  21
ENDBRANCH  16  19
ENDBRANCH   4   7
BRANCH   6  27
ATOM     27  O5  UNL     1      29.751  -7.350 -39.904  0.00  0.00    +0.000 OA
ATOM     28  C31 UNL     1      29.403  -6.247 -40.735  0.00  0.00    +0.000 C 
ENDBRANCH   6  27
BRANCH   1  29
ATOM     29  O3  UNL     1      29.341 -10.050 -39.811  0.00  0.00    +0.000 OA
BRANCH  29  30
ATOM     30  C10 UNL     1      28.654 -10.859 -40.763  0.00  0.00    +0.000 C 
BRANCH  30  33
ATOM     31  N2  UNL     1      26.869  -8.686 -43.057  0.00  0.00    +0.000 N 
ATOM     32  C8  UNL     1      28.031  -9.192 -42.611  0.00  0.00    +0.000 A 
ATOM     33  C9  UNL     1      27.704 -10.029 -41.569  0.00  0.00    +0.000 A 
ATOM     34  N6  UNL     1      26.364 -10.015 -41.414  0.00  0.00    +0.000 NA
ATOM     35  N7  UNL     1      25.884  -9.184 -42.328  0.00  0.00    +0.000 NA
BRANCH  31  36
ATOM     36  C7  UNL     1      26.695  -7.702 -44.119  0.00  0.00    +0.000 C 
BRANCH  36  38
ATOM     37  N1  UNL     1      24.190  -7.860 -44.519  0.00  0.00    +0.000 N 
ATOM     38  C6  UNL     1      25.322  -7.108 -44.050  0.00  0.00    +0.000 C 
ATOM     39  O2  UNL     1      25.180  -5.929 -43.628  0.00  0.00    +0.000 OA
ATOM     40  H6  UNL     1      24.371  -8.733 -45.063  0.00  0.00    +0.000 HD
BRANCH  37  44
ATOM     41  C2  UNL     1      20.171  -6.529 -44.075  0.00  0.00    +0.000 A 
ATOM     42  C3  UNL     1      20.823  -6.401 -45.318  0.00  0.00    +0.000 A 
ATOM     43  C4  UNL     1      22.142  -6.839 -45.470  0.00  0.00    +0.000 A 
ATOM     44  C5  UNL     1      22.830  -7.417 -44.388  0.00  0.00    +0.000 A 
ATOM     45  C32 UNL     1      22.190  -7.513 -43.144  0.00  0.00    +0.000 A 
ATOM     46  C33 UNL     1      20.868  -7.082 -42.993  0.00  0.00    +0.000 A 
BRANCH  41  48
ATOM     47  C1  UNL     1      17.707  -6.919 -44.195  0.00  0.00    +0.000 C 
ATOM     48  O1  UNL     1      18.844  -6.123 -43.876  0.00  0.00    +0.000 OA
ENDBRANCH  41  48
ENDBRANCH  37  44
ENDBRANCH  36  38
ENDBRANCH  31  36
ENDBRANCH  30  33
ENDBRANCH  29  30
ENDBRANCH   1  29
TORSDOF 12
ENDMDL
MODEL 5
REMARK VINA RESULT:    -6.400      3.332      6.472
REMARK INTER + INTRA:         -12.695
REMARK INTER:                 -10.893
REMARK INTRA:                  -1.802
REMARK UNBOUND:                -1.992
REMARK  Name = resultss/4CJN/ligands/lig_340_t2.pdb
REMARK  14 active torsions:
REMARK  status: ('A' for Active; 'I' for Inactive)
REMARK    1  A    between atoms: C1_1  and  O1_2
REMARK    2  A    between atoms: O1_2  and  C2_3
REMARK    3  A    between atoms: C5_6  and  N1_7
REMARK    4  A    between atoms: C6_8  and  C7_10
REMARK    5  A    between atoms: C7_10  and  N2_11
REMARK    6  A    between atoms: C9_13  and  C10_14
REMARK    7  A    between atoms: C10_14  and  O3_15
REMARK    8  A    between atoms: O3_15  and  C11_16
REMARK    9  A    between atoms: C14_19  and  C15_20
REMARK   10  A    between atoms: C22_28  and  O4_29
REMARK   11  A    between atoms: N4_30  and  N5_31
REMARK   12  A    between atoms: N5_31  and  C23_32
REMARK   13  A    between atoms: C30_39  and  O5_40
REMARK   14  A    between atoms: O5_40  and  C31_41
REMARK                            x       y       z     vdW  Elec       q    Type
REMARK                         _______ _______ _______ _____ _____    ______ ____
ROOT
ATOM      1  C11 UNL     1      24.474  -8.577 -40.440  0.00  0.00    +0.000 A 
ATOM      2  C12 UNL     1      23.930  -7.586 -39.602  0.00  0.00    +0.000 A 
ATOM      3  C13 UNL     1      24.490  -7.331 -38.350  0.00  0.00    +0.000 A 
ATOM      4  C14 UNL     1      25.603  -8.059 -37.907  0.00  0.00    +0.000 A 
ATOM      5  C29 UNL     1      26.149  -9.049 -38.740  0.00  0.00    +0.000 A 
ATOM      6  C30 UNL     1      25.585  -9.316 -40.004  0.00  0.00    +0.000 A 
ENDROOT
BRANCH   4   7
ATOM      7  C15 UNL     1      26.247  -7.721 -36.581  0.00  0.00    +0.000 C 
ATOM      8  N3  UNL     1      25.393  -6.809 -35.821  0.00  0.00    +0.000 NA
ATOM      9  C16 UNL     1      24.711  -7.144 -34.765  0.00  0.00    +0.000 A 
ATOM     10  C17 UNL     1      23.889  -6.178 -34.174  0.00  0.00    +0.000 A 
ATOM     11  C18 UNL     1      23.117  -6.494 -33.057  0.00  0.00    +0.000 A 
ATOM     12  C19 UNL     1      23.158  -7.779 -32.522  0.00  0.00    +0.000 A 
ATOM     13  C20 UNL     1      23.977  -8.755 -33.094  0.00  0.00    +0.000 A 
ATOM     14  C21 UNL     1      24.776  -8.457 -34.223  0.00  0.00    +0.000 A 
ATOM     15  C22 UNL     1      25.622  -9.363 -34.776  0.00  0.00    +0.000 C 
ATOM     16  N4  UNL     1      26.515  -8.947 -35.826  0.00  0.00    +0.000 N 
BRANCH  15  17
ATOM     17  O4  UNL     1      25.680 -10.700 -34.364  0.00  0.00    +0.000 OA
ATOM     18  H19 UNL     1      26.297 -11.401 -34.748  0.00  0.00    +0.000 HD
ENDBRANCH  15  17
BRANCH  16  19
ATOM     19  N5  UNL     1      27.527  -9.813 -36.283  0.00  0.00    +0.000 N 
ATOM     20  H20 UNL     1      27.292 -10.504 -37.032  0.00  0.00    +0.000 HD
BRANCH  19  21
ATOM     21  C23 UNL     1      28.911  -9.653 -35.926  0.00  0.00    +0.000 A 
ATOM     22  C24 UNL     1      29.275  -9.670 -34.570  0.00  0.00    +0.000 A 
ATOM     23  C25 UNL     1      30.619  -9.567 -34.194  0.00  0.00    +0.000 A 
ATOM     24  C26 UNL     1      31.613  -9.458 -35.171  0.00  0.00    +0.000 A 
ATOM     25  C27 UNL     1      31.261  -9.430 -36.521  0.00  0.00    +0.000 A 
ATOM     26  C28 UNL     1      29.918  -9.535 -36.901  0.00  0.00    +0.000 A 
ENDBRANCH  19  21
ENDBRANCH  16  19
ENDBRANCH   4   7
BRANCH   6  27
ATOM     27  O5  UNL     1      26.106 -10.301 -40.859  0.00  0.00    +0.000 OA
ATOM     28  C31 UNL     1      27.295 -11.042 -40.607  0.00  0.00    +0.000 C 
ENDBRANCH   6  27
BRANCH   1  29
ATOM     29  O3  UNL     1      23.955  -8.851 -41.718  0.00  0.00    +0.000 OA
BRANCH  29  30
ATOM     30  C10 UNL     1      23.285  -7.917 -42.562  0.00  0.00    +0.000 C 
BRANCH  30  33
ATOM     31  N2  UNL     1      25.930  -7.118 -44.913  0.00  0.00    +0.000 N 
ATOM     32  C8  UNL     1      25.552  -7.605 -43.720  0.00  0.00    +0.000 A 
ATOM     33  C9  UNL     1      24.183  -7.479 -43.676  0.00  0.00    +0.000 A 
ATOM     34  N6  UNL     1      23.767  -6.930 -44.836  0.00  0.00    +0.000 NA
ATOM     35  N7  UNL     1      24.853  -6.714 -45.565  0.00  0.00    +0.000 NA
BRANCH  31  36
ATOM     36  C7  UNL     1      27.295  -6.982 -45.409  0.00  0.00    +0.000 C 
BRANCH  36  38
ATOM     37  N1  UNL     1      28.447  -8.542 -43.765  0.00  0.00    +0.000 N 
ATOM     38  C6  UNL     1      28.272  -7.218 -44.298  0.00  0.00    +0.000 C 
ATOM     39  O2  UNL     1      28.895  -6.239 -43.805  0.00  0.00    +0.000 OA
ATOM     40  H6  UNL     1      27.758  -9.278 -44.041  0.00  0.00    +0.000 HD
BRANCH  37  44
ATOM     41  C2  UNL     1      31.344  -9.526 -40.806  0.00  0.00    +0.000 A 
ATOM     42  C3  UNL     1      31.268 -10.278 -41.995  0.00  0.00    +0.000 A 
ATOM     43  C4  UNL     1      30.320  -9.957 -42.973  0.00  0.00    +0.000 A 
ATOM     44  C5  UNL     1      29.437  -8.880 -42.781  0.00  0.00    +0.000 A 
ATOM     45  C32 UNL     1      29.493  -8.154 -41.582  0.00  0.00    +0.000 A 
ATOM     46  C33 UNL     1      30.445  -8.470 -40.608  0.00  0.00    +0.000 A 
BRANCH  41  48
ATOM     47  C1  UNL     1      33.606  -9.257 -39.783  0.00  0.00    +0.000 C 
ATOM     48  O1  UNL     1      32.288  -9.795 -39.805  0.00  0.00    +0.000 OA
ENDBRANCH  41  48
ENDBRANCH  37  44
ENDBRANCH  36  38
ENDBRANCH  31  36
ENDBRANCH  30  33
ENDBRANCH  29  30
ENDBRANCH   1  29
TORSDOF 12
ENDMDL
MODEL 6
REMARK VINA RESULT:    -6.339      3.206     11.195
REMARK INTER + INTRA:         -12.592
REMARK INTER:                  -9.643
REMARK INTRA:                  -2.949
REMARK UNBOUND:                -1.992
REMARK  Name = resultss/4CJN/ligands/lig_340_t2.pdb
REMARK  14 active torsions:
REMARK  status: ('A' for Active; 'I' for Inactive)
REMARK    1  A    between atoms: C1_1  and  O1_2
REMARK    2  A    between atoms: O1_2  and  C2_3
REMARK    3  A    between atoms: C5_6  and  N1_7
REMARK    4  A    between atoms: C6_8  and  C7_10
REMARK    5  A    between atoms: C7_10  and  N2_11
REMARK    6  A    between atoms: C9_13  and  C10_14
REMARK    7  A    between atoms: C10_14  and  O3_15
REMARK    8  A    between atoms: O3_15  and  C11_16
REMARK    9  A    between atoms: C14_19  and  C15_20
REMARK   10  A    between atoms: C22_28  and  O4_29
REMARK   11  A    between atoms: N4_30  and  N5_31
REMARK   12  A    between atoms: N5_31  and  C23_32
REMARK   13  A    between atoms: C30_39  and  O5_40
REMARK   14  A    between atoms: O5_40  and  C31_41
REMARK                            x       y       z     vdW  Elec       q    Type
REMARK                         _______ _______ _______ _____ _____    ______ ____
ROOT
ATOM      1  C11 UNL     1      24.072  -7.712 -36.023  0.00  0.00    +0.000 A 
ATOM      2  C12 UNL     1      25.054  -8.535 -36.606  0.00  0.00    +0.000 A 
ATOM      3  C13 UNL     1      25.427  -8.358 -37.938  0.00  0.00    +0.000 A 
ATOM      4  C14 UNL     1      24.829  -7.358 -38.718  0.00  0.00    +0.000 A 
ATOM      5  C29 UNL     1      23.848  -6.535 -38.140  0.00  0.00    +0.000 A 
ATOM      6  C30 UNL     1      23.463  -6.711 -36.796  0.00  0.00    +0.000 A 
ENDROOT
BRANCH   4   7
ATOM      7  C15 UNL     1      25.296  -7.127 -40.137  0.00  0.00    +0.000 C 
ATOM      8  N3  UNL     1      26.755  -7.043 -40.183  0.00  0.00    +0.000 NA
ATOM      9  C16 UNL     1      27.533  -7.962 -40.674  0.00  0.00    +0.000 A 
ATOM     10  C17 UNL     1      28.917  -7.769 -40.597  0.00  0.00    +0.000 A 
ATOM     11  C18 UNL     1      29.795  -8.737 -41.083  0.00  0.00    +0.000 A 
ATOM     12  C19 UNL     1      29.296  -9.907 -41.650  0.00  0.00    +0.000 A 
ATOM     13  C20 UNL     1      27.918 -10.115 -41.742  0.00  0.00    +0.000 A 
ATOM     14  C21 UNL     1      27.007  -9.145 -41.263  0.00  0.00    +0.000 A 
ATOM     15  C22 UNL     1      25.663  -9.288 -41.380  0.00  0.00    +0.000 C 
ATOM     16  N4  UNL     1      24.801  -8.196 -41.009  0.00  0.00    +0.000 N 
BRANCH  15  17
ATOM     17  O4  UNL     1      25.060 -10.457 -41.861  0.00  0.00    +0.000 OA
ATOM     18  H19 UNL     1      24.476 -10.515 -42.682  0.00  0.00    +0.000 HD
ENDBRANCH  15  17
BRANCH  16  19
ATOM     19  N5  UNL     1      23.423  -8.247 -41.296  0.00  0.00    +0.000 N 
ATOM     20  H20 UNL     1      22.772  -8.596 -40.557  0.00  0.00    +0.000 HD
BRANCH  19  21
ATOM     21  C23 UNL     1      22.849  -7.650 -42.472  0.00  0.00    +0.000 A 
ATOM     22  C24 UNL     1      23.597  -7.617 -43.660  0.00  0.00    +0.000 A 
ATOM     23  C25 UNL     1      23.045  -7.087 -44.831  0.00  0.00    +0.000 A 
ATOM     24  C26 UNL     1      21.735  -6.597 -44.830  0.00  0.00    +0.000 A 
ATOM     25  C27 UNL     1      20.987  -6.616 -43.653  0.00  0.00    +0.000 A 
ATOM     26  C28 UNL     1      21.534  -7.147 -42.478  0.00  0.00    +0.000 A 
ENDBRANCH  19  21
ENDBRANCH  16  19
ENDBRANCH   4   7
BRANCH   6  27
ATOM     27  O5  UNL     1      22.484  -5.906 -36.190  0.00  0.00    +0.000 OA
ATOM     28  C31 UNL     1      21.083  -6.151 -36.255  0.00  0.00    +0.000 C 
ENDBRANCH   6  27
BRANCH   1  29
ATOM     29  O3  UNL     1      23.683  -7.841 -34.678  0.00  0.00    +0.000 OA
BRANCH  29  30
ATOM     30  C10 UNL     1      23.987  -6.920 -33.631  0.00  0.00    +0.000 C 
BRANCH  30  33
ATOM     31  N2  UNL     1      27.425  -7.667 -32.741  0.00  0.00    +0.000 N 
ATOM     32  C8  UNL     1      26.153  -8.076 -32.888  0.00  0.00    +0.000 A 
ATOM     33  C9  UNL     1      25.445  -6.969 -33.298  0.00  0.00    +0.000 A 
ATOM     34  N6  UNL     1      26.297  -5.928 -33.394  0.00  0.00    +0.000 NA
ATOM     35  N7  UNL     1      27.493  -6.381 -33.042  0.00  0.00    +0.000 NA
BRANCH  31  36
ATOM     36  C7  UNL     1      28.550  -8.465 -32.268  0.00  0.00    +0.000 C 
BRANCH  36  38
ATOM     37  N1  UNL     1      29.302  -8.328 -34.692  0.00  0.00    +0.000 N 
ATOM     38  C6  UNL     1      29.313  -9.019 -33.432  0.00  0.00    +0.000 C 
ATOM     39  O2  UNL     1      29.917 -10.119 -33.307  0.00  0.00    +0.000 OA
ATOM     40  H6  UNL     1      28.616  -7.550 -34.821  0.00  0.00    +0.000 HD
BRANCH  37  44
ATOM     41  C2  UNL     1      31.694  -9.493 -38.015  0.00  0.00    +0.000 A 
ATOM     42  C3  UNL     1      30.443 -10.103 -37.799  0.00  0.00    +0.000 A 
ATOM     43  C4  UNL     1      29.651  -9.722 -36.711  0.00  0.00    +0.000 A 
ATOM     44  C5  UNL     1      30.093  -8.724 -35.825  0.00  0.00    +0.000 A 
ATOM     45  C32 UNL     1      31.353  -8.142 -36.023  0.00  0.00    +0.000 A 
ATOM     46  C33 UNL     1      32.142  -8.517 -37.115  0.00  0.00    +0.000 A 
BRANCH  41  48
ATOM     47  C1  UNL     1      33.349  -8.897 -39.789  0.00  0.00    +0.000 C 
ATOM     48  O1  UNL     1      32.517  -9.825 -39.101  0.00  0.00    +0.000 OA
ENDBRANCH  41  48
ENDBRANCH  37  44
ENDBRANCH  36  38
ENDBRANCH  31  36
ENDBRANCH  30  33
ENDBRANCH  29  30
ENDBRANCH   1  29
TORSDOF 12
ENDMDL
MODEL 7
REMARK VINA RESULT:    -6.324      6.166      8.794
REMARK INTER + INTRA:         -12.568
REMARK INTER:                 -10.444
REMARK INTRA:                  -2.124
REMARK UNBOUND:                -1.992
REMARK  Name = resultss/4CJN/ligands/lig_340_t2.pdb
REMARK  14 active torsions:
REMARK  status: ('A' for Active; 'I' for Inactive)
REMARK    1  A    between atoms: C1_1  and  O1_2
REMARK    2  A    between atoms: O1_2  and  C2_3
REMARK    3  A    between atoms: C5_6  and  N1_7
REMARK    4  A    between atoms: C6_8  and  C7_10
REMARK    5  A    between atoms: C7_10  and  N2_11
REMARK    6  A    between atoms: C9_13  and  C10_14
REMARK    7  A    between atoms: C10_14  and  O3_15
REMARK    8  A    between atoms: O3_15  and  C11_16
REMARK    9  A    between atoms: C14_19  and  C15_20
REMARK   10  A    between atoms: C22_28  and  O4_29
REMARK   11  A    between atoms: N4_30  and  N5_31
REMARK   12  A    between atoms: N5_31  and  C23_32
REMARK   13  A    between atoms: C30_39  and  O5_40
REMARK   14  A    between atoms: O5_40  and  C31_41
REMARK                            x       y       z     vdW  Elec       q    Type
REMARK                         _______ _______ _______ _____ _____    ______ ____
ROOT
ATOM      1  C11 UNL     1      27.644  -9.721 -35.868  0.00  0.00    +0.000 A 
ATOM      2  C12 UNL     1      27.094  -9.243 -34.664  0.00  0.00    +0.000 A 
ATOM      3  C13 UNL     1      27.913  -8.981 -33.567  0.00  0.00    +0.000 A 
ATOM      4  C14 UNL     1      29.297  -9.189 -33.645  0.00  0.00    +0.000 A 
ATOM      5  C29 UNL     1      29.850  -9.666 -34.844  0.00  0.00    +0.000 A 
ATOM      6  C30 UNL     1      29.028  -9.939 -35.956  0.00  0.00    +0.000 A 
ENDROOT
BRANCH   4   7
ATOM      7  C15 UNL     1      30.182  -8.829 -32.473  0.00  0.00    +0.000 C 
ATOM      8  N3  UNL     1      30.613 -10.038 -31.773  0.00  0.00    +0.000 NA
ATOM      9  C16 UNL     1      31.818 -10.525 -31.811  0.00  0.00    +0.000 A 
ATOM     10  C17 UNL     1      32.070 -11.725 -31.136  0.00  0.00    +0.000 A 
ATOM     11  C18 UNL     1      33.338 -12.302 -31.168  0.00  0.00    +0.000 A 
ATOM     12  C19 UNL     1      34.366 -11.686 -31.877  0.00  0.00    +0.000 A 
ATOM     13  C20 UNL     1      34.137 -10.484 -32.552  0.00  0.00    +0.000 A 
ATOM     14  C21 UNL     1      32.860  -9.875 -32.527  0.00  0.00    +0.000 A 
ATOM     15  C22 UNL     1      32.611  -8.684 -33.128  0.00  0.00    +0.000 C 
ATOM     16  N4  UNL     1      31.334  -8.049 -32.935  0.00  0.00    +0.000 N 
BRANCH  15  17
ATOM     17  O4  UNL     1      33.551  -8.024 -33.929  0.00  0.00    +0.000 OA
ATOM     18  H19 UNL     1      34.349  -8.459 -34.368  0.00  0.00    +0.000 HD
ENDBRANCH  15  17
BRANCH  16  19
ATOM     19  N5  UNL     1      31.117  -6.733 -33.387  0.00  0.00    +0.000 N 
ATOM     20  H20 UNL     1      31.443  -5.939 -32.791  0.00  0.00    +0.000 HD
BRANCH  19  21
ATOM     21  C23 UNL     1      30.661  -6.431 -34.718  0.00  0.00    +0.000 A 
ATOM     22  C24 UNL     1      31.571  -6.496 -35.786  0.00  0.00    +0.000 A 
ATOM     23  C25 UNL     1      31.145  -6.255 -37.097  0.00  0.00    +0.000 A 
ATOM     24  C26 UNL     1      29.803  -5.960 -37.355  0.00  0.00    +0.000 A 
ATOM     25  C27 UNL     1      28.894  -5.883 -36.300  0.00  0.00    +0.000 A 
ATOM     26  C28 UNL     1      29.314  -6.125 -34.986  0.00  0.00    +0.000 A 
ENDBRANCH  19  21
ENDBRANCH  16  19
ENDBRANCH   4   7
BRANCH   6  27
ATOM     27  O5  UNL     1      29.550 -10.419 -37.169  0.00  0.00    +0.000 OA
ATOM     28  C31 UNL     1      30.771  -9.979 -37.753  0.00  0.00    +0.000 C 
ENDBRANCH   6  27
BRANCH   1  29
ATOM     29  O3  UNL     1      26.859  -9.977 -37.006  0.00  0.00    +0.000 OA
BRANCH  29  30
ATOM     30  C10 UNL     1      26.274  -8.990 -37.854  0.00  0.00    +0.000 C 
BRANCH  30  33
ATOM     31  N2  UNL     1      28.227  -8.711 -40.899  0.00  0.00    +0.000 N 
ATOM     32  C8  UNL     1      28.013  -8.342 -39.625  0.00  0.00    +0.000 A 
ATOM     33  C9  UNL     1      26.895  -9.033 -39.215  0.00  0.00    +0.000 A 
ATOM     34  N6  UNL     1      26.467  -9.800 -40.238  0.00  0.00    +0.000 NA
ATOM     35  N7  UNL     1      27.293  -9.578 -41.252  0.00  0.00    +0.000 NA
BRANCH  31  36
ATOM     36  C7  UNL     1      29.266  -8.209 -41.791  0.00  0.00    +0.000 C 
BRANCH  36  38
ATOM     37  N1  UNL     1      30.291  -9.977 -43.303  0.00  0.00    +0.000 N 
ATOM     38  C6  UNL     1      30.285  -9.277 -42.047  0.00  0.00    +0.000 C 
ATOM     39  O2  UNL     1      31.096  -9.588 -41.134  0.00  0.00    +0.000 OA
ATOM     40  H6  UNL     1      29.472  -9.851 -43.940  0.00  0.00    +0.000 HD
BRANCH  37  44
ATOM     41  C2  UNL     1      33.309 -12.765 -44.413  0.00  0.00    +0.000 A 
ATOM     42  C3  UNL     1      32.280 -13.154 -43.533  0.00  0.00    +0.000 A 
ATOM     43  C4  UNL     1      31.284 -12.243 -43.167  0.00  0.00    +0.000 A 
ATOM     44  C5  UNL     1      31.296 -10.933 -43.677  0.00  0.00    +0.000 A 
ATOM     45  C32 UNL     1      32.339 -10.539 -44.527  0.00  0.00    +0.000 A 
ATOM     46  C33 UNL     1      33.332 -11.451 -44.898  0.00  0.00    +0.000 A 
BRANCH  41  48
ATOM     47  C1  UNL     1      34.246 -14.457 -45.993  0.00  0.00    +0.000 C 
ATOM     48  O1  UNL     1      34.320 -13.646 -44.826  0.00  0.00    +0.000 OA
ENDBRANCH  41  48
ENDBRANCH  37  44
ENDBRANCH  36  38
ENDBRANCH  31  36
ENDBRANCH  30  33
ENDBRANCH  29  30
ENDBRANCH   1  29
TORSDOF 12
ENDMDL
MODEL 8
REMARK VINA RESULT:    -6.279      2.837      4.099
REMARK INTER + INTRA:         -12.492
REMARK INTER:                 -10.463
REMARK INTRA:                  -2.029
REMARK UNBOUND:                -1.992
REMARK  Name = resultss/4CJN/ligands/lig_340_t2.pdb
REMARK  14 active torsions:
REMARK  status: ('A' for Active; 'I' for Inactive)
REMARK    1  A    between atoms: C1_1  and  O1_2
REMARK    2  A    between atoms: O1_2  and  C2_3
REMARK    3  A    between atoms: C5_6  and  N1_7
REMARK    4  A    between atoms: C6_8  and  C7_10
REMARK    5  A    between atoms: C7_10  and  N2_11
REMARK    6  A    between atoms: C9_13  and  C10_14
REMARK    7  A    between atoms: C10_14  and  O3_15
REMARK    8  A    between atoms: O3_15  and  C11_16
REMARK    9  A    between atoms: C14_19  and  C15_20
REMARK   10  A    between atoms: C22_28  and  O4_29
REMARK   11  A    between atoms: N4_30  and  N5_31
REMARK   12  A    between atoms: N5_31  and  C23_32
REMARK   13  A    between atoms: C30_39  and  O5_40
REMARK   14  A    between atoms: O5_40  and  C31_41
REMARK                            x       y       z     vdW  Elec       q    Type
REMARK                         _______ _______ _______ _____ _____    ______ ____
ROOT
ATOM      1  C11 UNL     1      29.626  -9.055 -37.733  0.00  0.00    +0.000 A 
ATOM      2  C12 UNL     1      30.056  -7.767 -37.364  0.00  0.00    +0.000 A 
ATOM      3  C13 UNL     1      29.206  -6.909 -36.666  0.00  0.00    +0.000 A 
ATOM      4  C14 UNL     1      27.909  -7.317 -36.322  0.00  0.00    +0.000 A 
ATOM      5  C29 UNL     1      27.476  -8.602 -36.689  0.00  0.00    +0.000 A 
ATOM      6  C30 UNL     1      28.328  -9.472 -37.399  0.00  0.00    +0.000 A 
ENDROOT
BRANCH   4   7
ATOM      7  C15 UNL     1      27.025  -6.407 -35.500  0.00  0.00    +0.000 C 
ATOM      8  N3  UNL     1      25.692  -6.322 -36.097  0.00  0.00    +0.000 NA
ATOM      9  C16 UNL     1      24.625  -6.875 -35.601  0.00  0.00    +0.000 A 
ATOM     10  C17 UNL     1      23.426  -6.758 -36.315  0.00  0.00    +0.000 A 
ATOM     11  C18 UNL     1      22.259  -7.356 -35.841  0.00  0.00    +0.000 A 
ATOM     12  C19 UNL     1      22.281  -8.079 -34.651  0.00  0.00    +0.000 A 
ATOM     13  C20 UNL     1      23.465  -8.202 -33.921  0.00  0.00    +0.000 A 
ATOM     14  C21 UNL     1      24.661  -7.598 -34.377  0.00  0.00    +0.000 A 
ATOM     15  C22 UNL     1      25.819  -7.653 -33.672  0.00  0.00    +0.000 C 
ATOM     16  N4  UNL     1      26.954  -6.889 -34.118  0.00  0.00    +0.000 N 
BRANCH  15  17
ATOM     17  O4  UNL     1      25.966  -8.417 -32.508  0.00  0.00    +0.000 OA
ATOM     18  H19 UNL     1      25.390  -8.337 -31.683  0.00  0.00    +0.000 HD
ENDBRANCH  15  17
BRANCH  16  19
ATOM     19  N5  UNL     1      28.101  -6.779 -33.308  0.00  0.00    +0.000 N 
ATOM     20  H20 UNL     1      28.078  -6.119 -32.498  0.00  0.00    +0.000 HD
BRANCH  19  21
ATOM     21  C23 UNL     1      29.220  -7.677 -33.413  0.00  0.00    +0.000 A 
ATOM     22  C24 UNL     1      30.523  -7.157 -33.367  0.00  0.00    +0.000 A 
ATOM     23  C25 UNL     1      31.630  -8.011 -33.417  0.00  0.00    +0.000 A 
ATOM     24  C26 UNL     1      31.445  -9.395 -33.501  0.00  0.00    +0.000 A 
ATOM     25  C27 UNL     1      30.154  -9.921 -33.558  0.00  0.00    +0.000 A 
ATOM     26  C28 UNL     1      29.043  -9.070 -33.506  0.00  0.00    +0.000 A 
ENDBRANCH  19  21
ENDBRANCH  16  19
ENDBRANCH   4   7
BRANCH   6  27
ATOM     27  O5  UNL     1      27.924 -10.761 -37.782  0.00  0.00    +0.000 OA
ATOM     28  C31 UNL     1      27.508 -11.121 -39.095  0.00  0.00    +0.000 C 
ENDBRANCH   6  27
BRANCH   1  29
ATOM     29  O3  UNL     1      30.458  -9.960 -38.417  0.00  0.00    +0.000 OA
BRANCH  29  30
ATOM     30  C10 UNL     1      31.301  -9.642 -39.522  0.00  0.00    +0.000 C 
BRANCH  30  33
ATOM     31  N2  UNL     1      29.395  -8.956 -42.533  0.00  0.00    +0.000 N 
ATOM     32  C8  UNL     1      29.983  -8.511 -41.410  0.00  0.00    +0.000 A 
ATOM     33  C9  UNL     1      30.513  -9.622 -40.794  0.00  0.00    +0.000 A 
ATOM     34  N6  UNL     1      30.241 -10.703 -41.555  0.00  0.00    +0.000 NA
ATOM     35  N7  UNL     1      29.554 -10.268 -42.602  0.00  0.00    +0.000 NA
BRANCH  31  36
ATOM     36  C7  UNL     1      28.644  -8.163 -43.499  0.00  0.00    +0.000 C 
BRANCH  36  38
ATOM     37  N1  UNL     1      26.297  -7.190 -43.416  0.00  0.00    +0.000 N 
ATOM     38  C6  UNL     1      27.174  -8.319 -43.261  0.00  0.00    +0.000 C 
ATOM     39  O2  UNL     1      26.726  -9.433 -42.874  0.00  0.00    +0.000 OA
ATOM     40  H6  UNL     1      26.728  -6.244 -43.515  0.00  0.00    +0.000 HD
BRANCH  37  44
ATOM     41  C2  UNL     1      22.057  -7.466 -43.177  0.00  0.00    +0.000 A 
ATOM     42  C3  UNL     1      22.834  -7.526 -42.004  0.00  0.00    +0.000 A 
ATOM     43  C4  UNL     1      24.228  -7.432 -42.075  0.00  0.00    +0.000 A 
ATOM     44  C5  UNL     1      24.867  -7.274 -43.317  0.00  0.00    +0.000 A 
ATOM     45  C32 UNL     1      24.093  -7.248 -44.487  0.00  0.00    +0.000 A 
ATOM     46  C33 UNL     1      22.699  -7.334 -44.415  0.00  0.00    +0.000 A 
BRANCH  41  48
ATOM     47  C1  UNL     1      19.796  -6.489 -43.598  0.00  0.00    +0.000 C 
ATOM     48  O1  UNL     1      20.656  -7.535 -43.157  0.00  0.00    +0.000 OA
ENDBRANCH  41  48
ENDBRANCH  37  44
ENDBRANCH  36  38
ENDBRANCH  31  36
ENDBRANCH  30  33
ENDBRANCH  29  30
ENDBRANCH   1  29
TORSDOF 12
ENDMDL
