MODEL 1
REMARK VINA RESULT:    -4.733      0.000      0.000
REMARK INTER + INTRA:          -6.240
REMARK INTER:                  -5.701
REMARK INTRA:                  -0.538
REMARK UNBOUND:                -0.538
REMARK  Name = resultss/4CJN/ligands/lig_219_t1.pdb
REMARK  5 active torsions:
REMARK  status: ('A' for Active; 'I' for Inactive)
REMARK    1  A    between atoms: O1_1  and  C1_2
REMARK    2  A    between atoms: C1_2  and  C2_3
REMARK    3  A    between atoms: C3_5  and  C4_6
REMARK    4  A    between atoms: C10_13  and  O3_14
REMARK    5  A    between atoms: C11_15  and  O4_16
REMARK                            x       y       z     vdW  Elec       q    Type
REMARK                         _______ _______ _______ _____ _____    ______ ____
ROOT
ATOM      1  C2  UNL     1      24.845  -7.859 -35.691  0.00  0.00    +0.000 C 
ATOM      2  N1  UNL     1      25.298  -9.253 -35.757  0.00  0.00    +0.000 NA
ATOM      3  C3  UNL     1      26.101  -9.537 -34.560  0.00  0.00    +0.000 C 
ATOM      4  C10 UNL     1      25.809  -8.439 -33.531  0.00  0.00    +0.000 C 
ATOM      5  C11 UNL     1      25.306  -7.259 -34.348  0.00  0.00    +0.000 C 
ATOM      6  H5  UNL     1      25.829  -9.428 -36.643  0.00  0.00    +0.000 HD
ENDROOT
BRANCH   3   7
ATOM      7  C4  UNL     1      27.593  -9.656 -34.852  0.00  0.00    +0.000 C 
ATOM      8  C5  UNL     1      28.538  -9.579 -33.713  0.00  0.00    +0.000 C 
ATOM      9  C6  UNL     1      29.857  -9.623 -33.893  0.00  0.00    +0.000 C 
ATOM     10  C7  UNL     1      30.423  -9.749 -35.241  0.00  0.00    +0.000 C 
ATOM     11  O2  UNL     1      31.674  -9.785 -35.390  0.00  0.00    +0.000 OA
ATOM     12  C8  UNL     1      29.531  -9.841 -36.446  0.00  0.00    +0.000 C 
ATOM     13  C9  UNL     1      28.062  -9.750 -36.112  0.00  0.00    +0.000 C 
ENDBRANCH   3   7
BRANCH   4  14
ATOM     14  O3  UNL     1      24.797  -8.859 -32.652  0.00  0.00    +0.000 OA
ATOM     15  H13 UNL     1      25.248  -9.141 -31.813  0.00  0.00    +0.000 HD
ENDBRANCH   4  14
BRANCH   5  16
ATOM     16  O4  UNL     1      26.355  -6.346 -34.553  0.00  0.00    +0.000 OA
ATOM     17  H15 UNL     1      27.104  -6.641 -33.971  0.00  0.00    +0.000 HD
ENDBRANCH   5  16
BRANCH   1  18
ATOM     18  C1  UNL     1      23.317  -7.813 -35.829  0.00  0.00    +0.000 C 
BRANCH  18  19
ATOM     19  O1  UNL     1      22.708  -8.548 -34.801  0.00  0.00    +0.000 OA
ATOM     20  H1  UNL     1      22.215  -7.896 -34.237  0.00  0.00    +0.000 HD
ENDBRANCH  18  19
ENDBRANCH   1  18
TORSDOF 5
ENDMDL
MODEL 2
REMARK VINA RESULT:    -4.723      1.842      2.792
REMARK INTER + INTRA:          -6.228
REMARK INTER:                  -5.908
REMARK INTRA:                  -0.320
REMARK UNBOUND:                -0.538
REMARK  Name = resultss/4CJN/ligands/lig_219_t1.pdb
REMARK  5 active torsions:
REMARK  status: ('A' for Active; 'I' for Inactive)
REMARK    1  A    between atoms: O1_1  and  C1_2
REMARK    2  A    between atoms: C1_2  and  C2_3
REMARK    3  A    between atoms: C3_5  and  C4_6
REMARK    4  A    between atoms: C10_13  and  O3_14
REMARK    5  A    between atoms: C11_15  and  O4_16
REMARK                            x       y       z     vdW  Elec       q    Type
REMARK                         _______ _______ _______ _____ _____    ______ ____
ROOT
ATOM      1  C2  UNL     1      25.020  -8.949 -33.273  0.00  0.00    +0.000 C 
ATOM      2  N1  UNL     1      26.045  -8.032 -32.763  0.00  0.00    +0.000 NA
ATOM      3  C3  UNL     1      26.971  -7.715 -33.857  0.00  0.00    +0.000 C 
ATOM      4  C10 UNL     1      26.290  -8.108 -35.173  0.00  0.00    +0.000 C 
ATOM      5  C11 UNL     1      25.255  -9.151 -34.783  0.00  0.00    +0.000 C 
ATOM      6  H5  UNL     1      26.535  -8.449 -31.935  0.00  0.00    +0.000 HD
ENDROOT
BRANCH   3   7
ATOM      7  C4  UNL     1      28.333  -8.384 -33.705  0.00  0.00    +0.000 C 
ATOM      8  C5  UNL     1      28.972  -8.956 -34.914  0.00  0.00    +0.000 C 
ATOM      9  C6  UNL     1      30.136  -9.601 -34.853  0.00  0.00    +0.000 C 
ATOM     10  C7  UNL     1      30.830  -9.769 -33.570  0.00  0.00    +0.000 C 
ATOM     11  O2  UNL     1      31.928 -10.385 -33.534  0.00  0.00    +0.000 OA
ATOM     12  C8  UNL     1      30.251  -9.209 -32.302  0.00  0.00    +0.000 C 
ATOM     13  C9  UNL     1      28.919  -8.530 -32.500  0.00  0.00    +0.000 C 
ENDBRANCH   3   7
BRANCH   4  14
ATOM     14  O3  UNL     1      25.639  -6.994 -35.730  0.00  0.00    +0.000 OA
ATOM     15  H13 UNL     1      25.467  -6.362 -34.983  0.00  0.00    +0.000 HD
ENDBRANCH   4  14
BRANCH   5  16
ATOM     16  O4  UNL     1      25.764 -10.437 -35.033  0.00  0.00    +0.000 OA
ATOM     17  H15 UNL     1      26.708 -10.317 -35.318  0.00  0.00    +0.000 HD
ENDBRANCH   5  16
BRANCH   1  18
ATOM     18  C1  UNL     1      23.629  -8.362 -32.997  0.00  0.00    +0.000 C 
BRANCH  18  19
ATOM     19  O1  UNL     1      23.099  -8.891 -31.811  0.00  0.00    +0.000 OA
ATOM     20  H1  UNL     1      23.162  -8.176 -31.125  0.00  0.00    +0.000 HD
ENDBRANCH  18  19
ENDBRANCH   1  18
TORSDOF 5
ENDMDL
MODEL 3
REMARK VINA RESULT:    -4.528      1.387      1.643
REMARK INTER + INTRA:          -5.993
REMARK INTER:                  -5.494
REMARK INTRA:                  -0.498
REMARK UNBOUND:                -0.538
REMARK  Name = resultss/4CJN/ligands/lig_219_t1.pdb
REMARK  5 active torsions:
REMARK  status: ('A' for Active; 'I' for Inactive)
REMARK    1  A    between atoms: O1_1  and  C1_2
REMARK    2  A    between atoms: C1_2  and  C2_3
REMARK    3  A    between atoms: C3_5  and  C4_6
REMARK    4  A    between atoms: C10_13  and  O3_14
REMARK    5  A    between atoms: C11_15  and  O4_16
REMARK                            x       y       z     vdW  Elec       q    Type
REMARK                         _______ _______ _______ _____ _____    ______ ____
ROOT
ATOM      1  C2  UNL     1      24.681  -8.462 -34.626  0.00  0.00    +0.000 C 
ATOM      2  N1  UNL     1      25.389  -9.741 -34.506  0.00  0.00    +0.000 NA
ATOM      3  C3  UNL     1      26.770  -9.470 -34.085  0.00  0.00    +0.000 C 
ATOM      4  C10 UNL     1      26.817  -8.039 -33.537  0.00  0.00    +0.000 C 
ATOM      5  C11 UNL     1      25.629  -7.335 -34.174  0.00  0.00    +0.000 C 
ATOM      6  H5  UNL     1      25.345 -10.274 -35.408  0.00  0.00    +0.000 HD
ENDROOT
BRANCH   3   7
ATOM      7  C4  UNL     1      27.790  -9.682 -35.199  0.00  0.00    +0.000 C 
ATOM      8  C5  UNL     1      29.225  -9.492 -34.880  0.00  0.00    +0.000 C 
ATOM      9  C6  UNL     1      30.171  -9.609 -35.811  0.00  0.00    +0.000 C 
ATOM     10  C7  UNL     1      29.817  -9.932 -37.198  0.00  0.00    +0.000 C 
ATOM     11  O2  UNL     1      30.727 -10.034 -38.064  0.00  0.00    +0.000 OA
ATOM     12  C8  UNL     1      28.385 -10.148 -37.598  0.00  0.00    +0.000 C 
ATOM     13  C9  UNL     1      27.411  -9.958 -36.463  0.00  0.00    +0.000 C 
ENDBRANCH   3   7
BRANCH   4  14
ATOM     14  O3  UNL     1      26.655  -8.052 -32.141  0.00  0.00    +0.000 OA
ATOM     15  H13 UNL     1      27.191  -8.815 -31.799  0.00  0.00    +0.000 HD
ENDBRANCH   4  14
BRANCH   5  16
ATOM     16  O4  UNL     1      26.064  -6.585 -35.280  0.00  0.00    +0.000 OA
ATOM     17  H15 UNL     1      26.905  -7.007 -35.596  0.00  0.00    +0.000 HD
ENDBRANCH   5  16
BRANCH   1  18
ATOM     18  C1  UNL     1      23.409  -8.502 -33.767  0.00  0.00    +0.000 C 
BRANCH  18  19
ATOM     19  O1  UNL     1      23.722  -8.830 -32.441  0.00  0.00    +0.000 OA
ATOM     20  H1  UNL     1      24.649  -9.184 -32.444  0.00  0.00    +0.000 HD
ENDBRANCH  18  19
ENDBRANCH   1  18
TORSDOF 5
ENDMDL
MODEL 4
REMARK VINA RESULT:    -4.527      6.103      6.899
REMARK INTER + INTRA:          -5.992
REMARK INTER:                  -5.494
REMARK INTRA:                  -0.498
REMARK UNBOUND:                -0.538
REMARK  Name = resultss/4CJN/ligands/lig_219_t1.pdb
REMARK  5 active torsions:
REMARK  status: ('A' for Active; 'I' for Inactive)
REMARK    1  A    between atoms: O1_1  and  C1_2
REMARK    2  A    between atoms: C1_2  and  C2_3
REMARK    3  A    between atoms: C3_5  and  C4_6
REMARK    4  A    between atoms: C10_13  and  O3_14
REMARK    5  A    between atoms: C11_15  and  O4_16
REMARK                            x       y       z     vdW  Elec       q    Type
REMARK                         _______ _______ _______ _____ _____    ______ ____
ROOT
ATOM      1  C2  UNL     1      24.851  -8.171 -42.863  0.00  0.00    +0.000 C 
ATOM      2  N1  UNL     1      25.377  -9.537 -42.956  0.00  0.00    +0.000 NA
ATOM      3  C3  UNL     1      25.921  -9.915 -41.645  0.00  0.00    +0.000 C 
ATOM      4  C10 UNL     1      25.362  -8.934 -40.607  0.00  0.00    +0.000 C 
ATOM      5  C11 UNL     1      24.985  -7.694 -41.403  0.00  0.00    +0.000 C 
ATOM      6  H5  UNL     1      26.093  -9.606 -43.718  0.00  0.00    +0.000 HD
ENDROOT
BRANCH   3   7
ATOM      7  C4  UNL     1      27.445  -9.959 -41.617  0.00  0.00    +0.000 C 
ATOM      8  C5  UNL     1      28.115 -10.208 -40.318  0.00  0.00    +0.000 C 
ATOM      9  C6  UNL     1      29.442 -10.210 -40.203  0.00  0.00    +0.000 C 
ATOM     10  C7  UNL     1      30.293  -9.962 -41.373  0.00  0.00    +0.000 C 
ATOM     11  O2  UNL     1      31.546  -9.965 -41.243  0.00  0.00    +0.000 OA
ATOM     12  C8  UNL     1      29.689  -9.711 -42.726  0.00  0.00    +0.000 C 
ATOM     13  C9  UNL     1      28.181  -9.704 -42.717  0.00  0.00    +0.000 C 
ENDBRANCH   3   7
BRANCH   4  14
ATOM     14  O3  UNL     1      24.209  -9.470 -40.010  0.00  0.00    +0.000 OA
ATOM     15  H13 UNL     1      24.124  -9.040 -39.119  0.00  0.00    +0.000 HD
ENDBRANCH   4  14
BRANCH   5  16
ATOM     16  O4  UNL     1      26.006  -6.735 -41.292  0.00  0.00    +0.000 OA
ATOM     17  H15 UNL     1      25.907  -6.318 -40.396  0.00  0.00    +0.000 HD
ENDBRANCH   5  16
BRANCH   1  18
ATOM     18  C1  UNL     1      23.386  -8.157 -43.324  0.00  0.00    +0.000 C 
BRANCH  18  19
ATOM     19  O1  UNL     1      22.702  -9.273 -42.820  0.00  0.00    +0.000 OA
ATOM     20  H1  UNL     1      22.512  -9.085 -41.864  0.00  0.00    +0.000 HD
ENDBRANCH  18  19
ENDBRANCH   1  18
TORSDOF 5
ENDMDL
MODEL 5
REMARK VINA RESULT:    -4.358      6.936      7.844
REMARK INTER + INTRA:          -5.788
REMARK INTER:                  -5.361
REMARK INTRA:                  -0.428
REMARK UNBOUND:                -0.538
REMARK  Name = resultss/4CJN/ligands/lig_219_t1.pdb
REMARK  5 active torsions:
REMARK  status: ('A' for Active; 'I' for Inactive)
REMARK    1  A    between atoms: O1_1  and  C1_2
REMARK    2  A    between atoms: C1_2  and  C2_3
REMARK    3  A    between atoms: C3_5  and  C4_6
REMARK    4  A    between atoms: C10_13  and  O3_14
REMARK    5  A    between atoms: C11_15  and  O4_16
REMARK                            x       y       z     vdW  Elec       q    Type
REMARK                         _______ _______ _______ _____ _____    ______ ____
ROOT
ATOM      1  C2  UNL     1      24.526  -7.505 -44.001  0.00  0.00    +0.000 C 
ATOM      2  N1  UNL     1      24.616  -8.945 -43.738  0.00  0.00    +0.000 NA
ATOM      3  C3  UNL     1      24.842  -9.141 -42.300  0.00  0.00    +0.000 C 
ATOM      4  C10 UNL     1      24.481  -7.832 -41.588  0.00  0.00    +0.000 C 
ATOM      5  C11 UNL     1      24.609  -6.756 -42.657  0.00  0.00    +0.000 C 
ATOM      6  H5  UNL     1      25.369  -9.381 -44.322  0.00  0.00    +0.000 HD
ENDROOT
BRANCH   3   7
ATOM      7  C4  UNL     1      26.262  -9.589 -41.971  0.00  0.00    +0.000 C 
ATOM      8  C5  UNL     1      27.331  -9.311 -42.960  0.00  0.00    +0.000 C 
ATOM      9  C6  UNL     1      28.586  -9.717 -42.767  0.00  0.00    +0.000 C 
ATOM     10  C7  UNL     1      28.952 -10.461 -41.557  0.00  0.00    +0.000 C 
ATOM     11  O2  UNL     1      30.143 -10.839 -41.396  0.00  0.00    +0.000 OA
ATOM     12  C8  UNL     1      27.928 -10.774 -40.504  0.00  0.00    +0.000 C 
ATOM     13  C9  UNL     1      26.543 -10.288 -40.853  0.00  0.00    +0.000 C 
ENDBRANCH   3   7
BRANCH   4  14
ATOM     14  O3  UNL     1      23.152  -7.880 -41.136  0.00  0.00    +0.000 OA
ATOM     15  H13 UNL     1      23.080  -7.227 -40.392  0.00  0.00    +0.000 HD
ENDBRANCH   4  14
BRANCH   5  16
ATOM     16  O4  UNL     1      25.851  -6.111 -42.529  0.00  0.00    +0.000 OA
ATOM     17  H15 UNL     1      25.816  -5.311 -43.116  0.00  0.00    +0.000 HD
ENDBRANCH   5  16
BRANCH   1  18
ATOM     18  C1  UNL     1      23.209  -7.202 -44.730  0.00  0.00    +0.000 C 
BRANCH  18  19
ATOM     19  O1  UNL     1      22.125  -7.761 -44.039  0.00  0.00    +0.000 OA
ATOM     20  H1  UNL     1      22.190  -8.745 -44.152  0.00  0.00    +0.000 HD
ENDBRANCH  18  19
ENDBRANCH   1  18
TORSDOF 5
ENDMDL
MODEL 6
REMARK VINA RESULT:    -4.246      2.110      2.716
REMARK INTER + INTRA:          -5.653
REMARK INTER:                  -5.107
REMARK INTRA:                  -0.546
REMARK UNBOUND:                -0.538
REMARK  Name = resultss/4CJN/ligands/lig_219_t1.pdb
REMARK  5 active torsions:
REMARK  status: ('A' for Active; 'I' for Inactive)
REMARK    1  A    between atoms: O1_1  and  C1_2
REMARK    2  A    between atoms: C1_2  and  C2_3
REMARK    3  A    between atoms: C3_5  and  C4_6
REMARK    4  A    between atoms: C10_13  and  O3_14
REMARK    5  A    between atoms: C11_15  and  O4_16
REMARK                            x       y       z     vdW  Elec       q    Type
REMARK                         _______ _______ _______ _____ _____    ______ ____
ROOT
ATOM      1  C2  UNL     1      25.689  -7.538 -34.297  0.00  0.00    +0.000 C 
ATOM      2  N1  UNL     1      25.290  -7.941 -35.650  0.00  0.00    +0.000 NA
ATOM      3  C3  UNL     1      25.897  -9.246 -35.945  0.00  0.00    +0.000 C 
ATOM      4  C10 UNL     1      26.346  -9.862 -34.614  0.00  0.00    +0.000 C 
ATOM      5  C11 UNL     1      26.512  -8.681 -33.671  0.00  0.00    +0.000 C 
ATOM      6  H5  UNL     1      25.562  -7.209 -36.349  0.00  0.00    +0.000 HD
ENDROOT
BRANCH   3   7
ATOM      7  C4  UNL     1      27.047  -9.161 -36.944  0.00  0.00    +0.000 C 
ATOM      8  C5  UNL     1      28.225 -10.035 -36.730  0.00  0.00    +0.000 C 
ATOM      9  C6  UNL     1      29.289  -9.982 -37.530  0.00  0.00    +0.000 C 
ATOM     10  C7  UNL     1      29.329  -9.046 -38.660  0.00  0.00    +0.000 C 
ATOM     11  O2  UNL     1      30.347  -9.009 -39.402  0.00  0.00    +0.000 OA
ATOM     12  C8  UNL     1      28.170  -8.134 -38.947  0.00  0.00    +0.000 C 
ATOM     13  C9  UNL     1      27.042  -8.269 -37.954  0.00  0.00    +0.000 C 
ENDBRANCH   3   7
BRANCH   4  14
ATOM     14  O3  UNL     1      25.346 -10.715 -34.117  0.00  0.00    +0.000 OA
ATOM     15  H13 UNL     1      25.125 -10.393 -33.204  0.00  0.00    +0.000 HD
ENDBRANCH   4  14
BRANCH   5  16
ATOM     16  O4  UNL     1      27.870  -8.324 -33.597  0.00  0.00    +0.000 OA
ATOM     17  H15 UNL     1      27.933  -7.580 -32.943  0.00  0.00    +0.000 HD
ENDBRANCH   5  16
BRANCH   1  18
ATOM     18  C1  UNL     1      24.434  -7.232 -33.467  0.00  0.00    +0.000 C 
BRANCH  18  19
ATOM     19  O1  UNL     1      24.085  -8.338 -32.679  0.00  0.00    +0.000 OA
ATOM     20  H1  UNL     1      23.601  -7.985 -31.887  0.00  0.00    +0.000 HD
ENDBRANCH  18  19
ENDBRANCH   1  18
TORSDOF 5
ENDMDL
MODEL 7
REMARK VINA RESULT:    -4.173      5.473      8.065
REMARK INTER + INTRA:          -5.565
REMARK INTER:                  -5.026
REMARK INTRA:                  -0.539
REMARK UNBOUND:                -0.538
REMARK  Name = resultss/4CJN/ligands/lig_219_t1.pdb
REMARK  5 active torsions:
REMARK  status: ('A' for Active; 'I' for Inactive)
REMARK    1  A    between atoms: O1_1  and  C1_2
REMARK    2  A    between atoms: C1_2  and  C2_3
REMARK    3  A    between atoms: C3_5  and  C4_6
REMARK    4  A    between atoms: C10_13  and  O3_14
REMARK    5  A    between atoms: C11_15  and  O4_16
REMARK                            x       y       z     vdW  Elec       q    Type
REMARK                         _______ _______ _______ _____ _____    ______ ____
ROOT
ATOM      1  C2  UNL     1      29.441  -9.473 -38.592  0.00  0.00    +0.000 C 
ATOM      2  N1  UNL     1      28.698 -10.583 -39.198  0.00  0.00    +0.000 NA
ATOM      3  C3  UNL     1      28.915 -10.550 -40.650  0.00  0.00    +0.000 C 
ATOM      4  C10 UNL     1      30.134  -9.661 -40.919  0.00  0.00    +0.000 C 
ATOM      5  C11 UNL     1      30.238  -8.757 -39.700  0.00  0.00    +0.000 C 
ATOM      6  H5  UNL     1      27.682 -10.529 -38.946  0.00  0.00    +0.000 HD
ENDROOT
BRANCH   3   7
ATOM      7  C4  UNL     1      27.690 -10.080 -41.429  0.00  0.00    +0.000 C 
ATOM      8  C5  UNL     1      27.908  -9.314 -42.680  0.00  0.00    +0.000 C 
ATOM      9  C6  UNL     1      26.890  -8.826 -43.388  0.00  0.00    +0.000 C 
ATOM     10  C7  UNL     1      25.506  -9.033 -42.946  0.00  0.00    +0.000 C 
ATOM     11  O2  UNL     1      24.559  -8.560 -43.628  0.00  0.00    +0.000 OA
ATOM     12  C8  UNL     1      25.204  -9.806 -41.694  0.00  0.00    +0.000 C 
ATOM     13  C9  UNL     1      26.440 -10.278 -40.969  0.00  0.00    +0.000 C 
ENDBRANCH   3   7
BRANCH   4  14
ATOM     14  O3  UNL     1      31.294 -10.449 -41.012  0.00  0.00    +0.000 OA
ATOM     15  H13 UNL     1      31.027 -11.376 -40.779  0.00  0.00    +0.000 HD
ENDBRANCH   4  14
BRANCH   5  16
ATOM     16  O4  UNL     1      29.663  -7.508 -39.990  0.00  0.00    +0.000 OA
ATOM     17  H15 UNL     1      29.040  -7.652 -40.750  0.00  0.00    +0.000 HD
ENDBRANCH   5  16
BRANCH   1  18
ATOM     18  C1  UNL     1      30.370 -10.018 -37.498  0.00  0.00    +0.000 C 
BRANCH  18  19
ATOM     19  O1  UNL     1      31.573 -10.474 -38.057  0.00  0.00    +0.000 OA
ATOM     20  H1  UNL     1      31.763 -11.357 -37.646  0.00  0.00    +0.000 HD
ENDBRANCH  18  19
ENDBRANCH   1  18
TORSDOF 5
ENDMDL
MODEL 8
REMARK VINA RESULT:    -4.160      3.334      5.624
REMARK INTER + INTRA:          -5.549
REMARK INTER:                  -5.042
REMARK INTRA:                  -0.507
REMARK UNBOUND:                -0.538
REMARK  Name = resultss/4CJN/ligands/lig_219_t1.pdb
REMARK  5 active torsions:
REMARK  status: ('A' for Active; 'I' for Inactive)
REMARK    1  A    between atoms: O1_1  and  C1_2
REMARK    2  A    between atoms: C1_2  and  C2_3
REMARK    3  A    between atoms: C3_5  and  C4_6
REMARK    4  A    between atoms: C10_13  and  O3_14
REMARK    5  A    between atoms: C11_15  and  O4_16
REMARK                            x       y       z     vdW  Elec       q    Type
REMARK                         _______ _______ _______ _____ _____    ______ ____
ROOT
ATOM      1  C2  UNL     1      29.798  -9.204 -39.072  0.00  0.00    +0.000 C 
ATOM      2  N1  UNL     1      29.847 -10.054 -37.878  0.00  0.00    +0.000 NA
ATOM      3  C3  UNL     1      28.494 -10.558 -37.610  0.00  0.00    +0.000 C 
ATOM      4  C10 UNL     1      27.662 -10.358 -38.882  0.00  0.00    +0.000 C 
ATOM      5  C11 UNL     1      28.365  -9.242 -39.640  0.00  0.00    +0.000 C 
ATOM      6  H5  UNL     1      30.244  -9.526 -37.064  0.00  0.00    +0.000 HD
ENDROOT
BRANCH   3   7
ATOM      7  C4  UNL     1      27.839  -9.905 -36.397  0.00  0.00    +0.000 C 
ATOM      8  C5  UNL     1      28.637  -9.779 -35.154  0.00  0.00    +0.000 C 
ATOM      9  C6  UNL     1      28.118  -9.267 -34.039  0.00  0.00    +0.000 C 
ATOM     10  C7  UNL     1      26.725  -8.807 -34.005  0.00  0.00    +0.000 C 
ATOM     11  O2  UNL     1      26.253  -8.329 -32.940  0.00  0.00    +0.000 OA
ATOM     12  C8  UNL     1      25.855  -8.892 -35.228  0.00  0.00    +0.000 C 
ATOM     13  C9  UNL     1      26.549  -9.517 -36.413  0.00  0.00    +0.000 C 
ENDBRANCH   3   7
BRANCH   4  14
ATOM     14  O3  UNL     1      27.678 -11.528 -39.658  0.00  0.00    +0.000 OA
ATOM     15  H13 UNL     1      28.602 -11.624 -40.009  0.00  0.00    +0.000 HD
ENDBRANCH   4  14
BRANCH   5  16
ATOM     16  O4  UNL     1      27.709  -8.023 -39.401  0.00  0.00    +0.000 OA
ATOM     17  H15 UNL     1      28.416  -7.358 -39.188  0.00  0.00    +0.000 HD
ENDBRANCH   5  16
BRANCH   1  18
ATOM     18  C1  UNL     1      30.821  -9.709 -40.100  0.00  0.00    +0.000 C 
BRANCH  18  19
ATOM     19  O1  UNL     1      30.297 -10.788 -40.826  0.00  0.00    +0.000 OA
ATOM     20  H1  UNL     1      30.814 -11.592 -40.559  0.00  0.00    +0.000 HD
ENDBRANCH  18  19
ENDBRANCH   1  18
TORSDOF 5
ENDMDL
MODEL 9
REMARK VINA RESULT:    -4.107      8.851      9.988
REMARK INTER + INTRA:          -5.486
REMARK INTER:                  -4.975
REMARK INTRA:                  -0.510
REMARK UNBOUND:                -0.538
REMARK  Name = resultss/4CJN/ligands/lig_219_t1.pdb
REMARK  5 active torsions:
REMARK  status: ('A' for Active; 'I' for Inactive)
REMARK    1  A    between atoms: O1_1  and  C1_2
REMARK    2  A    between atoms: C1_2  and  C2_3
REMARK    3  A    between atoms: C3_5  and  C4_6
REMARK    4  A    between atoms: C10_13  and  O3_14
REMARK    5  A    between atoms: C11_15  and  O4_16
REMARK                            x       y       z     vdW  Elec       q    Type
REMARK                         _______ _______ _______ _____ _____    ______ ____
ROOT
ATOM      1  C2  UNL     1      26.291  -9.634 -42.095  0.00  0.00    +0.000 C 
ATOM      2  N1  UNL     1      27.134  -8.520 -42.543  0.00  0.00    +0.000 NA
ATOM      3  C3  UNL     1      26.263  -7.455 -43.056  0.00  0.00    +0.000 C 
ATOM      4  C10 UNL     1      24.843  -7.729 -42.548  0.00  0.00    +0.000 C 
ATOM      5  C11 UNL     1      24.815  -9.220 -42.247  0.00  0.00    +0.000 C 
ATOM      6  H5  UNL     1      27.828  -8.846 -43.258  0.00  0.00    +0.000 HD
ENDROOT
BRANCH   3   7
ATOM      7  C4  UNL     1      26.304  -7.325 -44.575  0.00  0.00    +0.000 C 
ATOM      8  C5  UNL     1      27.628  -7.325 -45.242  0.00  0.00    +0.000 C 
ATOM      9  C6  UNL     1      27.749  -7.165 -46.559  0.00  0.00    +0.000 C 
ATOM     10  C7  UNL     1      26.560  -6.979 -47.401  0.00  0.00    +0.000 C 
ATOM     11  O2  UNL     1      26.697  -6.825 -48.644  0.00  0.00    +0.000 OA
ATOM     12  C8  UNL     1      25.183  -6.977 -46.800  0.00  0.00    +0.000 C 
ATOM     13  C9  UNL     1      25.184  -7.137 -45.300  0.00  0.00    +0.000 C 
ENDBRANCH   3   7
BRANCH   4  14
ATOM     14  O3  UNL     1      24.608  -7.013 -41.363  0.00  0.00    +0.000 OA
ATOM     15  H13 UNL     1      23.633  -6.829 -41.330  0.00  0.00    +0.000 HD
ENDBRANCH   4  14
BRANCH   5  16
ATOM     16  O4  UNL     1      24.221  -9.906 -43.320  0.00  0.00    +0.000 OA
ATOM     17  H15 UNL     1      23.249  -9.704 -43.283  0.00  0.00    +0.000 HD
ENDBRANCH   5  16
BRANCH   1  18
ATOM     18  C1  UNL     1      26.630  -9.974 -40.636  0.00  0.00    +0.000 C 
BRANCH  18  19
ATOM     19  O1  UNL     1      26.207  -8.946 -39.781  0.00  0.00    +0.000 OA
ATOM     20  H1  UNL     1      25.217  -9.003 -39.732  0.00  0.00    +0.000 HD
ENDBRANCH  18  19
ENDBRANCH   1  18
TORSDOF 5
ENDMDL
