MODEL 1
REMARK VINA RESULT:    -5.278      0.000      0.000
REMARK INTER + INTRA:          -6.222
REMARK INTER:                  -6.204
REMARK INTRA:                  -0.018
REMARK UNBOUND:                -0.018
REMARK  Name = resultss/4CJN/ligands/lig_303_t0.pdb
REMARK  6 active torsions:
REMARK  status: ('A' for Active; 'I' for Inactive)
REMARK    1  A    between atoms: C1_1  and  O1_2
REMARK    2  A    between atoms: O1_2  and  C2_3
REMARK    3  A    between atoms: C4_5  and  O2_6
REMARK    4  A    between atoms: C8_11  and  O4_12
REMARK    5  A    between atoms: O4_12  and  C9_13
REMARK    6  A    between atoms: C10_14  and  O5_15
REMARK                            x       y       z     vdW  Elec       q    Type
REMARK                         _______ _______ _______ _____ _____    ______ ____
ROOT
ATOM      1  C2  UNL     1      28.560  -9.802 -34.387  0.00  0.00    +0.000 A 
ATOM      2  C3  UNL     1      27.190  -9.522 -34.268  0.00  0.00    +0.000 A 
ATOM      3  C4  UNL     1      26.368  -9.434 -35.398  0.00  0.00    +0.000 A 
ATOM      4  C5  UNL     1      26.942  -9.551 -36.701  0.00  0.00    +0.000 A 
ATOM      5  C6  UNL     1      26.232  -9.344 -37.910  0.00  0.00    +0.000 A 
ATOM      6  O3  UNL     1      25.040  -8.939 -37.885  0.00  0.00    +0.000 OA
ATOM      7  C7  UNL     1      26.878  -9.549 -39.155  0.00  0.00    +0.000 A 
ATOM      8  C8  UNL     1      26.213  -9.409 -40.407  0.00  0.00    +0.000 A 
ATOM      9  C10 UNL     1      26.946  -9.626 -41.604  0.00  0.00    +0.000 A 
ATOM     10  C11 UNL     1      28.300  -9.975 -41.544  0.00  0.00    +0.000 A 
ATOM     11  C12 UNL     1      28.943 -10.111 -40.319  0.00  0.00    +0.000 A 
ATOM     12  C13 UNL     1      28.247  -9.901 -39.132  0.00  0.00    +0.000 A 
ATOM     13  O6  UNL     1      28.896 -10.026 -37.983  0.00  0.00    +0.000 OA
ATOM     14  C14 UNL     1      28.321  -9.860 -36.801  0.00  0.00    +0.000 A 
ATOM     15  C15 UNL     1      29.109  -9.985 -35.655  0.00  0.00    +0.000 A 
ENDROOT
BRANCH   1  17
ATOM     16  C1  UNL     1      30.828  -9.922 -33.337  0.00  0.00    +0.000 C 
ATOM     17  O1  UNL     1      29.406  -9.914 -33.273  0.00  0.00    +0.000 OA
ENDBRANCH   1  17
BRANCH   3  18
ATOM     18  O2  UNL     1      25.001  -9.262 -35.162  0.00  0.00    +0.000 OA
ATOM     19  H5  UNL     1      24.461  -9.808 -34.507  0.00  0.00    +0.000 HD
ENDBRANCH   3  18
BRANCH   8  20
ATOM     20  O4  UNL     1      24.846  -9.063 -40.409  0.00  0.00    +0.000 OA
ATOM     21  C9  UNL     1      24.267  -7.868 -40.920  0.00  0.00    +0.000 C 
ENDBRANCH   8  20
BRANCH   9  22
ATOM     22  O5  UNL     1      26.345  -9.501 -42.856  0.00  0.00    +0.000 OA
ATOM     23  H9  UNL     1      25.558  -8.881 -43.013  0.00  0.00    +0.000 HD
ENDBRANCH   9  22
TORSDOF 4
ENDMDL
MODEL 2
REMARK VINA RESULT:    -5.218      2.077      5.758
REMARK INTER + INTRA:          -6.151
REMARK INTER:                  -6.143
REMARK INTRA:                  -0.008
REMARK UNBOUND:                -0.018
REMARK  Name = resultss/4CJN/ligands/lig_303_t0.pdb
REMARK  6 active torsions:
REMARK  status: ('A' for Active; 'I' for Inactive)
REMARK    1  A    between atoms: C1_1  and  O1_2
REMARK    2  A    between atoms: O1_2  and  C2_3
REMARK    3  A    between atoms: C4_5  and  O2_6
REMARK    4  A    between atoms: C8_11  and  O4_12
REMARK    5  A    between atoms: O4_12  and  C9_13
REMARK    6  A    between atoms: C10_14  and  O5_15
REMARK                            x       y       z     vdW  Elec       q    Type
REMARK                         _______ _______ _______ _____ _____    ______ ____
ROOT
ATOM      1  C2  UNL     1      27.882 -10.403 -40.294  0.00  0.00    +0.000 A 
ATOM      2  C3  UNL     1      26.986  -9.456 -40.815  0.00  0.00    +0.000 A 
ATOM      3  C4  UNL     1      26.155  -8.707 -39.975  0.00  0.00    +0.000 A 
ATOM      4  C5  UNL     1      26.157  -8.959 -38.569  0.00  0.00    +0.000 A 
ATOM      5  C6  UNL     1      25.264  -8.359 -37.646  0.00  0.00    +0.000 A 
ATOM      6  O3  UNL     1      24.331  -7.619 -38.055  0.00  0.00    +0.000 OA
ATOM      7  C7  UNL     1      25.392  -8.627 -36.260  0.00  0.00    +0.000 A 
ATOM      8  C8  UNL     1      24.563  -8.021 -35.273  0.00  0.00    +0.000 A 
ATOM      9  C10 UNL     1      24.760  -8.359 -33.907  0.00  0.00    +0.000 A 
ATOM     10  C11 UNL     1      25.757  -9.273 -33.547  0.00  0.00    +0.000 A 
ATOM     11  C12 UNL     1      26.562  -9.861 -34.515  0.00  0.00    +0.000 A 
ATOM     12  C13 UNL     1      26.388  -9.548 -35.861  0.00  0.00    +0.000 A 
ATOM     13  O6  UNL     1      27.165 -10.138 -36.757  0.00  0.00    +0.000 OA
ATOM     14  C14 UNL     1      27.087  -9.899 -38.058  0.00  0.00    +0.000 A 
ATOM     15  C15 UNL     1      27.935 -10.601 -38.916  0.00  0.00    +0.000 A 
ENDROOT
BRANCH   1  17
ATOM     16  C1  UNL     1      29.958 -10.671 -41.664  0.00  0.00    +0.000 C 
ATOM     17  O1  UNL     1      28.741 -11.156 -41.109  0.00  0.00    +0.000 OA
ENDBRANCH   1  17
BRANCH   3  18
ATOM     18  O2  UNL     1      25.382  -7.715 -40.586  0.00  0.00    +0.000 OA
ATOM     19  H5  UNL     1      24.573  -7.281 -40.167  0.00  0.00    +0.000 HD
ENDBRANCH   3  18
BRANCH   8  20
ATOM     20  O4  UNL     1      23.580  -7.101 -35.690  0.00  0.00    +0.000 OA
ATOM     21  C9  UNL     1      22.169  -7.246 -35.576  0.00  0.00    +0.000 C 
ENDBRANCH   8  20
BRANCH   9  22
ATOM     22  O5  UNL     1      23.977  -7.797 -32.900  0.00  0.00    +0.000 OA
ATOM     23  H9  UNL     1      23.093  -8.206 -32.617  0.00  0.00    +0.000 HD
ENDBRANCH   9  22
TORSDOF 4
ENDMDL
MODEL 3
REMARK VINA RESULT:    -5.212      1.659      6.699
REMARK INTER + INTRA:          -6.145
REMARK INTER:                  -6.130
REMARK INTRA:                  -0.015
REMARK UNBOUND:                -0.018
REMARK  Name = resultss/4CJN/ligands/lig_303_t0.pdb
REMARK  6 active torsions:
REMARK  status: ('A' for Active; 'I' for Inactive)
REMARK    1  A    between atoms: C1_1  and  O1_2
REMARK    2  A    between atoms: O1_2  and  C2_3
REMARK    3  A    between atoms: C4_5  and  O2_6
REMARK    4  A    between atoms: C8_11  and  O4_12
REMARK    5  A    between atoms: O4_12  and  C9_13
REMARK    6  A    between atoms: C10_14  and  O5_15
REMARK                            x       y       z     vdW  Elec       q    Type
REMARK                         _______ _______ _______ _____ _____    ______ ____
ROOT
ATOM      1  C2  UNL     1      26.053  -9.228 -41.582  0.00  0.00    +0.000 A 
ATOM      2  C3  UNL     1      27.149 -10.014 -41.191  0.00  0.00    +0.000 A 
ATOM      3  C4  UNL     1      27.415 -10.264 -39.840  0.00  0.00    +0.000 A 
ATOM      4  C5  UNL     1      26.608  -9.649 -38.834  0.00  0.00    +0.000 A 
ATOM      5  C6  UNL     1      26.869  -9.723 -37.442  0.00  0.00    +0.000 A 
ATOM      6  O3  UNL     1      27.918 -10.277 -37.021  0.00  0.00    +0.000 OA
ATOM      7  C7  UNL     1      25.969  -9.132 -36.521  0.00  0.00    +0.000 A 
ATOM      8  C8  UNL     1      26.141  -9.210 -35.109  0.00  0.00    +0.000 A 
ATOM      9  C10 UNL     1      25.190  -8.577 -34.263  0.00  0.00    +0.000 A 
ATOM     10  C11 UNL     1      24.104  -7.892 -34.819  0.00  0.00    +0.000 A 
ATOM     11  C12 UNL     1      23.942  -7.818 -36.198  0.00  0.00    +0.000 A 
ATOM     12  C13 UNL     1      24.861  -8.428 -37.048  0.00  0.00    +0.000 A 
ATOM     13  O6  UNL     1      24.681  -8.327 -38.356  0.00  0.00    +0.000 OA
ATOM     14  C14 UNL     1      25.491  -8.882 -39.247  0.00  0.00    +0.000 A 
ATOM     15  C15 UNL     1      25.224  -8.684 -40.603  0.00  0.00    +0.000 A 
ENDROOT
BRANCH   1  17
ATOM     16  C1  UNL     1      24.562  -8.334 -43.381  0.00  0.00    +0.000 C 
ATOM     17  O1  UNL     1      25.750  -8.974 -42.928  0.00  0.00    +0.000 OA
ENDBRANCH   1  17
BRANCH   3  18
ATOM     18  O2  UNL     1      28.462 -11.148 -39.564  0.00  0.00    +0.000 OA
ATOM     19  H5  UNL     1      29.268 -10.921 -39.000  0.00  0.00    +0.000 HD
ENDBRANCH   3  18
BRANCH   8  20
ATOM     20  O4  UNL     1      27.248  -9.920 -34.604  0.00  0.00    +0.000 OA
ATOM     21  C9  UNL     1      28.386  -9.375 -33.945  0.00  0.00    +0.000 C 
ENDBRANCH   8  20
BRANCH   9  22
ATOM     22  O5  UNL     1      25.311  -8.621 -32.876  0.00  0.00    +0.000 OA
ATOM     23  H9  UNL     1      25.818  -9.362 -32.405  0.00  0.00    +0.000 HD
ENDBRANCH   9  22
TORSDOF 4
ENDMDL
MODEL 4
REMARK VINA RESULT:    -5.181      1.451      6.827
REMARK INTER + INTRA:          -6.108
REMARK INTER:                  -6.089
REMARK INTRA:                  -0.019
REMARK UNBOUND:                -0.018
REMARK  Name = resultss/4CJN/ligands/lig_303_t0.pdb
REMARK  6 active torsions:
REMARK  status: ('A' for Active; 'I' for Inactive)
REMARK    1  A    between atoms: C1_1  and  O1_2
REMARK    2  A    between atoms: O1_2  and  C2_3
REMARK    3  A    between atoms: C4_5  and  O2_6
REMARK    4  A    between atoms: C8_11  and  O4_12
REMARK    5  A    between atoms: O4_12  and  C9_13
REMARK    6  A    between atoms: C10_14  and  O5_15
REMARK                            x       y       z     vdW  Elec       q    Type
REMARK                         _______ _______ _______ _____ _____    ______ ____
ROOT
ATOM      1  C2  UNL     1      27.249  -9.851 -41.190  0.00  0.00    +0.000 A 
ATOM      2  C3  UNL     1      28.634 -10.023 -41.342  0.00  0.00    +0.000 A 
ATOM      3  C4  UNL     1      29.478 -10.122 -40.230  0.00  0.00    +0.000 A 
ATOM      4  C5  UNL     1      28.939  -9.967 -38.917  0.00  0.00    +0.000 A 
ATOM      5  C6  UNL     1      29.716  -9.912 -37.733  0.00  0.00    +0.000 A 
ATOM      6  O3  UNL     1      30.974  -9.903 -37.799  0.00  0.00    +0.000 OA
ATOM      7  C7  UNL     1      29.079  -9.822 -36.470  0.00  0.00    +0.000 A 
ATOM      8  C8  UNL     1      29.795  -9.814 -35.238  0.00  0.00    +0.000 A 
ATOM      9  C10 UNL     1      29.069  -9.711 -34.021  0.00  0.00    +0.000 A 
ATOM     10  C11 UNL     1      27.672  -9.622 -34.043  0.00  0.00    +0.000 A 
ATOM     11  C12 UNL     1      26.980  -9.630 -35.248  0.00  0.00    +0.000 A 
ATOM     12  C13 UNL     1      27.668  -9.727 -36.454  0.00  0.00    +0.000 A 
ATOM     13  O6  UNL     1      26.976  -9.720 -37.584  0.00  0.00    +0.000 OA
ATOM     14  C14 UNL     1      27.536  -9.820 -38.781  0.00  0.00    +0.000 A 
ATOM     15  C15 UNL     1      26.712  -9.769 -39.907  0.00  0.00    +0.000 A 
ENDROOT
BRANCH   1  17
ATOM     16  C1  UNL     1      24.957  -9.705 -42.182  0.00  0.00    +0.000 C 
ATOM     17  O1  UNL     1      26.376  -9.767 -42.285  0.00  0.00    +0.000 OA
ENDBRANCH   1  17
BRANCH   3  18
ATOM     18  O2  UNL     1      30.822 -10.403 -40.491  0.00  0.00    +0.000 OA
ATOM     19  H5  UNL     1      31.210 -10.537 -41.413  0.00  0.00    +0.000 HD
ENDBRANCH   3  18
BRANCH   8  20
ATOM     20  O4  UNL     1      31.200  -9.915 -35.275  0.00  0.00    +0.000 OA
ATOM     21  C9  UNL     1      32.139  -8.929 -34.859  0.00  0.00    +0.000 C 
ENDBRANCH   8  20
BRANCH   9  22
ATOM     22  O5  UNL     1      29.718  -9.697 -32.788  0.00  0.00    +0.000 OA
ATOM     23  H9  UNL     1      30.474 -10.337 -32.573  0.00  0.00    +0.000 HD
ENDBRANCH   9  22
TORSDOF 4
ENDMDL
MODEL 5
REMARK VINA RESULT:    -4.964      1.639      6.088
REMARK INTER + INTRA:          -5.853
REMARK INTER:                  -5.795
REMARK INTRA:                  -0.057
REMARK UNBOUND:                -0.018
REMARK  Name = resultss/4CJN/ligands/lig_303_t0.pdb
REMARK  6 active torsions:
REMARK  status: ('A' for Active; 'I' for Inactive)
REMARK    1  A    between atoms: C1_1  and  O1_2
REMARK    2  A    between atoms: O1_2  and  C2_3
REMARK    3  A    between atoms: C4_5  and  O2_6
REMARK    4  A    between atoms: C8_11  and  O4_12
REMARK    5  A    between atoms: O4_12  and  C9_13
REMARK    6  A    between atoms: C10_14  and  O5_15
REMARK                            x       y       z     vdW  Elec       q    Type
REMARK                         _______ _______ _______ _____ _____    ______ ____
ROOT
ATOM      1  C2  UNL     1      29.077 -10.032 -41.395  0.00  0.00    +0.000 A 
ATOM      2  C3  UNL     1      27.705  -9.998 -41.101  0.00  0.00    +0.000 A 
ATOM      3  C4  UNL     1      27.250  -9.872 -39.784  0.00  0.00    +0.000 A 
ATOM      4  C5  UNL     1      28.190  -9.856 -38.709  0.00  0.00    +0.000 A 
ATOM      5  C6  UNL     1      27.837  -9.869 -37.336  0.00  0.00    +0.000 A 
ATOM      6  O3  UNL     1      26.632  -9.996 -36.991  0.00  0.00    +0.000 OA
ATOM      7  C7  UNL     1      28.846  -9.786 -36.345  0.00  0.00    +0.000 A 
ATOM      8  C8  UNL     1      28.561  -9.743 -34.949  0.00  0.00    +0.000 A 
ATOM      9  C10 UNL     1      29.640  -9.668 -34.028  0.00  0.00    +0.000 A 
ATOM     10  C11 UNL     1      30.959  -9.635 -34.495  0.00  0.00    +0.000 A 
ATOM     11  C12 UNL     1      31.231  -9.678 -35.857  0.00  0.00    +0.000 A 
ATOM     12  C13 UNL     1      30.191  -9.753 -36.780  0.00  0.00    +0.000 A 
ATOM     13  O6  UNL     1      30.487  -9.805 -38.070  0.00  0.00    +0.000 OA
ATOM     14  C14 UNL     1      29.571  -9.865 -39.026  0.00  0.00    +0.000 A 
ATOM     15  C15 UNL     1      29.998  -9.947 -40.352  0.00  0.00    +0.000 A 
ENDROOT
BRANCH   1  17
ATOM     16  C1  UNL     1      30.874 -10.583 -43.046  0.00  0.00    +0.000 C 
ATOM     17  O1  UNL     1      29.565 -10.140 -42.707  0.00  0.00    +0.000 OA
ENDBRANCH   1  17
BRANCH   3  18
ATOM     18  O2  UNL     1      25.869  -9.736 -39.612  0.00  0.00    +0.000 OA
ATOM     19  H5  UNL     1      25.434  -9.139 -38.925  0.00  0.00    +0.000 HD
ENDBRANCH   3  18
BRANCH   8  20
ATOM     20  O4  UNL     1      27.214  -9.771 -34.535  0.00  0.00    +0.000 OA
ATOM     21  C9  UNL     1      26.477  -8.703 -33.951  0.00  0.00    +0.000 C 
ENDBRANCH   8  20
BRANCH   9  22
ATOM     22  O5  UNL     1      29.419  -9.626 -32.653  0.00  0.00    +0.000 OA
ATOM     23  H9  UNL     1      29.881 -10.264 -32.015  0.00  0.00    +0.000 HD
ENDBRANCH   9  22
TORSDOF 4
ENDMDL
MODEL 6
REMARK VINA RESULT:    -4.830      2.676      6.252
REMARK INTER + INTRA:          -5.695
REMARK INTER:                  -5.646
REMARK INTRA:                  -0.048
REMARK UNBOUND:                -0.018
REMARK  Name = resultss/4CJN/ligands/lig_303_t0.pdb
REMARK  6 active torsions:
REMARK  status: ('A' for Active; 'I' for Inactive)
REMARK    1  A    between atoms: C1_1  and  O1_2
REMARK    2  A    between atoms: O1_2  and  C2_3
REMARK    3  A    between atoms: C4_5  and  O2_6
REMARK    4  A    between atoms: C8_11  and  O4_12
REMARK    5  A    between atoms: O4_12  and  C9_13
REMARK    6  A    between atoms: C10_14  and  O5_15
REMARK                            x       y       z     vdW  Elec       q    Type
REMARK                         _______ _______ _______ _____ _____    ______ ____
ROOT
ATOM      1  C2  UNL     1      31.596 -10.501 -43.119  0.00  0.00    +0.000 A 
ATOM      2  C3  UNL     1      32.144 -10.278 -41.847  0.00  0.00    +0.000 A 
ATOM      3  C4  UNL     1      31.327 -10.007 -40.743  0.00  0.00    +0.000 A 
ATOM      4  C5  UNL     1      29.917  -9.877 -40.922  0.00  0.00    +0.000 A 
ATOM      5  C6  UNL     1      29.014  -9.472 -39.907  0.00  0.00    +0.000 A 
ATOM      6  O3  UNL     1      29.446  -9.104 -38.782  0.00  0.00    +0.000 OA
ATOM      7  C7  UNL     1      27.622  -9.437 -40.169  0.00  0.00    +0.000 A 
ATOM      8  C8  UNL     1      26.654  -9.089 -39.183  0.00  0.00    +0.000 A 
ATOM      9  C10 UNL     1      25.280  -9.072 -39.542  0.00  0.00    +0.000 A 
ATOM     10  C11 UNL     1      24.892  -9.396 -40.847  0.00  0.00    +0.000 A 
ATOM     11  C12 UNL     1      25.841  -9.734 -41.805  0.00  0.00    +0.000 A 
ATOM     12  C13 UNL     1      27.194  -9.756 -41.479  0.00  0.00    +0.000 A 
ATOM     13  O6  UNL     1      28.071 -10.070 -42.421  0.00  0.00    +0.000 OA
ATOM     14  C14 UNL     1      29.378 -10.131 -42.208  0.00  0.00    +0.000 A 
ATOM     15  C15 UNL     1      30.213 -10.442 -43.282  0.00  0.00    +0.000 A 
ENDROOT
BRANCH   1  17
ATOM     16  C1  UNL     1      33.807 -10.889 -44.222  0.00  0.00    +0.000 C 
ATOM     17  O1  UNL     1      32.387 -10.792 -44.241  0.00  0.00    +0.000 OA
ENDBRANCH   1  17
BRANCH   3  18
ATOM     18  O2  UNL     1      31.966  -9.911 -39.503  0.00  0.00    +0.000 OA
ATOM     19  H5  UNL     1      31.536  -9.551 -38.665  0.00  0.00    +0.000 HD
ENDBRANCH   3  18
BRANCH   8  20
ATOM     20  O4  UNL     1      27.100  -8.780 -37.882  0.00  0.00    +0.000 OA
ATOM     21  C9  UNL     1      26.922  -9.564 -36.708  0.00  0.00    +0.000 C 
ENDBRANCH   8  20
BRANCH   9  22
ATOM     22  O5  UNL     1      24.292  -8.738 -38.617  0.00  0.00    +0.000 OA
ATOM     23  H9  UNL     1      23.306  -8.869 -38.815  0.00  0.00    +0.000 HD
ENDBRANCH   9  22
TORSDOF 4
ENDMDL
MODEL 7
REMARK VINA RESULT:    -4.817      2.289      2.997
REMARK INTER + INTRA:          -5.680
REMARK INTER:                  -5.642
REMARK INTRA:                  -0.039
REMARK UNBOUND:                -0.018
REMARK  Name = resultss/4CJN/ligands/lig_303_t0.pdb
REMARK  6 active torsions:
REMARK  status: ('A' for Active; 'I' for Inactive)
REMARK    1  A    between atoms: C1_1  and  O1_2
REMARK    2  A    between atoms: O1_2  and  C2_3
REMARK    3  A    between atoms: C4_5  and  O2_6
REMARK    4  A    between atoms: C8_11  and  O4_12
REMARK    5  A    between atoms: O4_12  and  C9_13
REMARK    6  A    between atoms: C10_14  and  O5_15
REMARK                            x       y       z     vdW  Elec       q    Type
REMARK                         _______ _______ _______ _____ _____    ______ ____
ROOT
ATOM      1  C2  UNL     1      24.808  -8.544 -34.619  0.00  0.00    +0.000 A 
ATOM      2  C3  UNL     1      23.940  -7.739 -35.374  0.00  0.00    +0.000 A 
ATOM      3  C4  UNL     1      24.046  -7.668 -36.768  0.00  0.00    +0.000 A 
ATOM      4  C5  UNL     1      25.102  -8.363 -37.432  0.00  0.00    +0.000 A 
ATOM      5  C6  UNL     1      25.385  -8.253 -38.817  0.00  0.00    +0.000 A 
ATOM      6  O3  UNL     1      24.751  -7.433 -39.532  0.00  0.00    +0.000 OA
ATOM      7  C7  UNL     1      26.416  -9.037 -39.393  0.00  0.00    +0.000 A 
ATOM      8  C8  UNL     1      26.722  -9.015 -40.785  0.00  0.00    +0.000 A 
ATOM      9  C10 UNL     1      27.780  -9.829 -41.270  0.00  0.00    +0.000 A 
ATOM     10  C11 UNL     1      28.504 -10.638 -40.386  0.00  0.00    +0.000 A 
ATOM     11  C12 UNL     1      28.202 -10.654 -39.030  0.00  0.00    +0.000 A 
ATOM     12  C13 UNL     1      27.170  -9.864 -38.530  0.00  0.00    +0.000 A 
ATOM     13  O6  UNL     1      26.918  -9.895 -37.229  0.00  0.00    +0.000 OA
ATOM     14  C14 UNL     1      25.952  -9.191 -36.658  0.00  0.00    +0.000 A 
ATOM     15  C15 UNL     1      25.795  -9.277 -35.273  0.00  0.00    +0.000 A 
ENDROOT
BRANCH   1  17
ATOM     16  C1  UNL     1      23.504  -8.882 -32.511  0.00  0.00    +0.000 C 
ATOM     17  O1  UNL     1      24.715  -8.649 -33.223  0.00  0.00    +0.000 OA
ENDBRANCH   1  17
BRANCH   3  18
ATOM     18  O2  UNL     1      23.064  -6.926 -37.430  0.00  0.00    +0.000 OA
ATOM     19  H5  UNL     1      23.185  -6.499 -38.337  0.00  0.00    +0.000 HD
ENDBRANCH   3  18
BRANCH   8  20
ATOM     20  O4  UNL     1      25.955  -8.189 -41.630  0.00  0.00    +0.000 OA
ATOM     21  C9  UNL     1      25.084  -8.607 -42.675  0.00  0.00    +0.000 C 
ENDBRANCH   8  20
BRANCH   9  22
ATOM     22  O5  UNL     1      28.123  -9.846 -42.621  0.00  0.00    +0.000 OA
ATOM     23  H9  UNL     1      27.467 -10.139 -43.337  0.00  0.00    +0.000 HD
ENDBRANCH   9  22
TORSDOF 4
ENDMDL
MODEL 8
REMARK VINA RESULT:    -4.742      1.506      6.739
REMARK INTER + INTRA:          -5.592
REMARK INTER:                  -5.575
REMARK INTRA:                  -0.017
REMARK UNBOUND:                -0.018
REMARK  Name = resultss/4CJN/ligands/lig_303_t0.pdb
REMARK  6 active torsions:
REMARK  status: ('A' for Active; 'I' for Inactive)
REMARK    1  A    between atoms: C1_1  and  O1_2
REMARK    2  A    between atoms: O1_2  and  C2_3
REMARK    3  A    between atoms: C4_5  and  O2_6
REMARK    4  A    between atoms: C8_11  and  O4_12
REMARK    5  A    between atoms: O4_12  and  C9_13
REMARK    6  A    between atoms: C10_14  and  O5_15
REMARK                            x       y       z     vdW  Elec       q    Type
REMARK                         _______ _______ _______ _____ _____    ______ ____
ROOT
ATOM      1  C2  UNL     1      24.895  -8.835 -41.979  0.00  0.00    +0.000 A 
ATOM      2  C3  UNL     1      26.157  -9.279 -42.407  0.00  0.00    +0.000 A 
ATOM      3  C4  UNL     1      27.142  -9.656 -41.487  0.00  0.00    +0.000 A 
ATOM      4  C5  UNL     1      26.894  -9.516 -40.088  0.00  0.00    +0.000 A 
ATOM      5  C6  UNL     1      27.863  -9.738 -39.077  0.00  0.00    +0.000 A 
ATOM      6  O3  UNL     1      29.058  -9.986 -39.386  0.00  0.00    +0.000 OA
ATOM      7  C7  UNL     1      27.497  -9.636 -37.712  0.00  0.00    +0.000 A 
ATOM      8  C8  UNL     1      28.405  -9.894 -36.644  0.00  0.00    +0.000 A 
ATOM      9  C10 UNL     1      27.950  -9.757 -35.305  0.00  0.00    +0.000 A 
ATOM     10  C11 UNL     1      26.628  -9.375 -35.049  0.00  0.00    +0.000 A 
ATOM     11  C12 UNL     1      25.748  -9.124 -36.095  0.00  0.00    +0.000 A 
ATOM     12  C13 UNL     1      26.170  -9.250 -37.416  0.00  0.00    +0.000 A 
ATOM     13  O6  UNL     1      25.307  -8.990 -38.387  0.00  0.00    +0.000 OA
ATOM     14  C14 UNL     1      25.607  -9.093 -39.674  0.00  0.00    +0.000 A 
ATOM     15  C15 UNL     1      24.628  -8.764 -40.614  0.00  0.00    +0.000 A 
ENDROOT
BRANCH   1  17
ATOM     16  C1  UNL     1      22.775  -7.636 -42.546  0.00  0.00    +0.000 C 
ATOM     17  O1  UNL     1      23.882  -8.467 -42.877  0.00  0.00    +0.000 OA
ENDBRANCH   1  17
BRANCH   3  18
ATOM     18  O2  UNL     1      28.321 -10.187 -42.020  0.00  0.00    +0.000 OA
ATOM     19  H5  UNL     1      28.776 -11.021 -41.681  0.00  0.00    +0.000 HD
ENDBRANCH   3  18
BRANCH   8  20
ATOM     20  O4  UNL     1      29.723 -10.283 -36.959  0.00  0.00    +0.000 OA
ATOM     21  C9  UNL     1      30.909  -9.520 -36.767  0.00  0.00    +0.000 C 
ENDBRANCH   8  20
BRANCH   9  22
ATOM     22  O5  UNL     1      28.796  -9.995 -34.223  0.00  0.00    +0.000 OA
ATOM     23  H9  UNL     1      28.642 -10.765 -33.581  0.00  0.00    +0.000 HD
ENDBRANCH   9  22
TORSDOF 4
ENDMDL
MODEL 9
REMARK VINA RESULT:    -4.674      1.241      6.025
REMARK INTER + INTRA:          -5.512
REMARK INTER:                  -5.468
REMARK INTRA:                  -0.044
REMARK UNBOUND:                -0.018
REMARK  Name = resultss/4CJN/ligands/lig_303_t0.pdb
REMARK  6 active torsions:
REMARK  status: ('A' for Active; 'I' for Inactive)
REMARK    1  A    between atoms: C1_1  and  O1_2
REMARK    2  A    between atoms: O1_2  and  C2_3
REMARK    3  A    between atoms: C4_5  and  O2_6
REMARK    4  A    between atoms: C8_11  and  O4_12
REMARK    5  A    between atoms: O4_12  and  C9_13
REMARK    6  A    between atoms: C10_14  and  O5_15
REMARK                            x       y       z     vdW  Elec       q    Type
REMARK                         _______ _______ _______ _____ _____    ______ ____
ROOT
ATOM      1  C2  UNL     1      26.274  -9.173 -40.931  0.00  0.00    +0.000 A 
ATOM      2  C3  UNL     1      25.134  -8.924 -40.151  0.00  0.00    +0.000 A 
ATOM      3  C4  UNL     1      25.215  -8.841 -38.756  0.00  0.00    +0.000 A 
ATOM      4  C5  UNL     1      26.461  -9.090 -38.104  0.00  0.00    +0.000 A 
ATOM      5  C6  UNL     1      26.628  -9.166 -36.698  0.00  0.00    +0.000 A 
ATOM      6  O3  UNL     1      25.628  -9.109 -35.936  0.00  0.00    +0.000 OA
ATOM      7  C7  UNL     1      27.921  -9.353 -36.148  0.00  0.00    +0.000 A 
ATOM      8  C8  UNL     1      28.170  -9.389 -34.745  0.00  0.00    +0.000 A 
ATOM      9  C10 UNL     1      29.499  -9.590 -34.287  0.00  0.00    +0.000 A 
ATOM     10  C11 UNL     1      30.542  -9.747 -35.207  0.00  0.00    +0.000 A 
ATOM     11  C12 UNL     1      30.293  -9.712 -36.574  0.00  0.00    +0.000 A 
ATOM     12  C13 UNL     1      28.999  -9.518 -37.048  0.00  0.00    +0.000 A 
ATOM     13  O6  UNL     1      28.796  -9.503 -38.358  0.00  0.00    +0.000 OA
ATOM     14  C14 UNL     1      27.606  -9.313 -38.908  0.00  0.00    +0.000 A 
ATOM     15  C15 UNL     1      27.504  -9.347 -40.300  0.00  0.00    +0.000 A 
ENDROOT
BRANCH   1  17
ATOM     16  C1  UNL     1      26.343  -8.122 -43.200  0.00  0.00    +0.000 C 
ATOM     17  O1  UNL     1      26.227  -9.244 -42.332  0.00  0.00    +0.000 OA
ENDBRANCH   1  17
BRANCH   3  18
ATOM     18  O2  UNL     1      24.044  -8.480 -38.084  0.00  0.00    +0.000 OA
ATOM     19  H5  UNL     1      23.460  -9.122 -37.568  0.00  0.00    +0.000 HD
ENDBRANCH   3  18
BRANCH   8  20
ATOM     20  O4  UNL     1      27.084  -9.216 -33.864  0.00  0.00    +0.000 OA
ATOM     21  C9  UNL     1      26.837  -8.098 -33.019  0.00  0.00    +0.000 C 
ENDBRANCH   8  20
BRANCH   9  22
ATOM     22  O5  UNL     1      29.799  -9.635 -32.926  0.00  0.00    +0.000 OA
ATOM     23  H9  UNL     1      30.628  -9.194 -32.545  0.00  0.00    +0.000 HD
ENDBRANCH   9  22
TORSDOF 4
ENDMDL
