MODEL 1
REMARK VINA RESULT:    -6.222      0.000      0.000
REMARK INTER + INTRA:          -9.638
REMARK INTER:                  -8.587
REMARK INTRA:                  -1.051
REMARK UNBOUND:                -1.051
REMARK  Name = resultss/4CJN/ligands/lig_298_t0.pdb
REMARK  10 active torsions:
REMARK  status: ('A' for Active; 'I' for Inactive)
REMARK    1  A    between atoms: C3_4  and  O2_5
REMARK    2  A    between atoms: O2_5  and  C4_6
REMARK    3  A    between atoms: C5_8  and  C6_9
REMARK    4  A    between atoms: C6_9  and  O4_10
REMARK    5  A    between atoms: C7_11  and  O5_12
REMARK    6  A    between atoms: C8_13  and  O6_14
REMARK    7  A    between atoms: C9_15  and  O7_16
REMARK    8  A    between atoms: C11_18  and  O8_19
REMARK    9  A    between atoms: C17_26  and  O10_27
REMARK   10  A    between atoms: C18_28  and  O11_29
REMARK                            x       y       z     vdW  Elec       q    Type
REMARK                         _______ _______ _______ _____ _____    ______ ____
ROOT
ATOM      1  O1  UNL     1      28.193  -8.704 -37.596  0.00  0.00    +0.000 OA
ATOM      2  C1  UNL     1      27.812  -8.772 -36.395  0.00  0.00    +0.000 A 
ATOM      3  C2  UNL     1      26.454  -8.551 -36.065  0.00  0.00    +0.000 A 
ATOM      4  C3  UNL     1      25.461  -8.246 -37.035  0.00  0.00    +0.000 A 
ATOM      5  C10 UNL     1      24.132  -8.036 -36.612  0.00  0.00    +0.000 A 
ATOM      6  C11 UNL     1      23.785  -8.134 -35.260  0.00  0.00    +0.000 A 
ATOM      7  C12 UNL     1      24.759  -8.436 -34.312  0.00  0.00    +0.000 A 
ATOM      8  C13 UNL     1      26.084  -8.643 -34.701  0.00  0.00    +0.000 A 
ATOM      9  O9  UNL     1      26.986  -8.927 -33.771  0.00  0.00    +0.000 OA
ATOM     10  C14 UNL     1      28.266  -9.140 -34.044  0.00  0.00    +0.000 A 
ATOM     11  C15 UNL     1      29.141  -9.433 -32.996  0.00  0.00    +0.000 A 
ATOM     12  C16 UNL     1      30.492  -9.662 -33.249  0.00  0.00    +0.000 A 
ATOM     13  C17 UNL     1      30.986  -9.601 -34.557  0.00  0.00    +0.000 A 
ATOM     14  C18 UNL     1      30.119  -9.306 -35.626  0.00  0.00    +0.000 A 
ATOM     15  C19 UNL     1      28.743  -9.072 -35.374  0.00  0.00    +0.000 A 
ENDROOT
BRANCH   6  16
ATOM     16  O8  UNL     1      22.469  -7.931 -34.848  0.00  0.00    +0.000 OA
ATOM     17  H13 UNL     1      22.177  -7.064 -34.413  0.00  0.00    +0.000 HD
ENDBRANCH   6  16
BRANCH  13  18
ATOM     18  O10 UNL     1      32.339  -9.832 -34.799  0.00  0.00    +0.000 OA
ATOM     19  H17 UNL     1      32.999  -9.972 -34.042  0.00  0.00    +0.000 HD
ENDBRANCH  13  18
BRANCH  14  20
ATOM     20  O11 UNL     1      30.622  -9.248 -36.928  0.00  0.00    +0.000 OA
ATOM     21  H18 UNL     1      31.596  -9.423 -37.144  0.00  0.00    +0.000 HD
ENDBRANCH  14  20
BRANCH   4  22
ATOM     22  O2  UNL     1      25.831  -8.147 -38.391  0.00  0.00    +0.000 OA
BRANCH  22  23
ATOM     23  C4  UNL     1      25.289  -8.880 -39.493  0.00  0.00    +0.000 C 
ATOM     24  O3  UNL     1      24.564  -7.966 -40.298  0.00  0.00    +0.000 OA
ATOM     25  C5  UNL     1      23.891  -8.638 -41.351  0.00  0.00    +0.000 C 
ATOM     26  C7  UNL     1      24.923  -9.273 -42.319  0.00  0.00    +0.000 C 
ATOM     27  C8  UNL     1      25.860 -10.227 -41.555  0.00  0.00    +0.000 C 
ATOM     28  C9  UNL     1      26.435  -9.503 -40.321  0.00  0.00    +0.000 C 
BRANCH  26  29
ATOM     29  O5  UNL     1      24.301  -9.938 -43.393  0.00  0.00    +0.000 OA
ATOM     30  H7  UNL     1      24.195  -9.288 -44.135  0.00  0.00    +0.000 HD
ENDBRANCH  26  29
BRANCH  27  31
ATOM     31  O6  UNL     1      25.155 -11.378 -41.159  0.00  0.00    +0.000 OA
ATOM     32  H9  UNL     1      24.368 -11.070 -40.636  0.00  0.00    +0.000 HD
ENDBRANCH  27  31
BRANCH  28  33
ATOM     33  O7  UNL     1      27.178 -10.400 -39.536  0.00  0.00    +0.000 OA
ATOM     34  H11 UNL     1      28.133 -10.146 -39.638  0.00  0.00    +0.000 HD
ENDBRANCH  28  33
BRANCH  25  35
ATOM     35  C6  UNL     1      23.006  -7.625 -42.091  0.00  0.00    +0.000 C 
BRANCH  35  36
ATOM     36  O4  UNL     1      22.180  -8.281 -43.015  0.00  0.00    +0.000 OA
ATOM     37  H5  UNL     1      22.738  -8.469 -43.816  0.00  0.00    +0.000 HD
ENDBRANCH  35  36
ENDBRANCH  25  35
ENDBRANCH  22  23
ENDBRANCH   4  22
TORSDOF 10
ENDMDL
MODEL 2
REMARK VINA RESULT:    -6.158      2.023      7.456
REMARK INTER + INTRA:          -9.549
REMARK INTER:                  -8.601
REMARK INTRA:                  -0.948
REMARK UNBOUND:                -1.051
REMARK  Name = resultss/4CJN/ligands/lig_298_t0.pdb
REMARK  10 active torsions:
REMARK  status: ('A' for Active; 'I' for Inactive)
REMARK    1  A    between atoms: C3_4  and  O2_5
REMARK    2  A    between atoms: O2_5  and  C4_6
REMARK    3  A    between atoms: C5_8  and  C6_9
REMARK    4  A    between atoms: C6_9  and  O4_10
REMARK    5  A    between atoms: C7_11  and  O5_12
REMARK    6  A    between atoms: C8_13  and  O6_14
REMARK    7  A    between atoms: C9_15  and  O7_16
REMARK    8  A    between atoms: C11_18  and  O8_19
REMARK    9  A    between atoms: C17_26  and  O10_27
REMARK   10  A    between atoms: C18_28  and  O11_29
REMARK                            x       y       z     vdW  Elec       q    Type
REMARK                         _______ _______ _______ _____ _____    ______ ____
ROOT
ATOM      1  O1  UNL     1      24.875  -9.223 -38.918  0.00  0.00    +0.000 OA
ATOM      2  C1  UNL     1      25.989  -9.248 -39.510  0.00  0.00    +0.000 A 
ATOM      3  C2  UNL     1      27.182  -9.449 -38.776  0.00  0.00    +0.000 A 
ATOM      4  C3  UNL     1      27.201  -9.631 -37.367  0.00  0.00    +0.000 A 
ATOM      5  C10 UNL     1      28.439  -9.821 -36.718  0.00  0.00    +0.000 A 
ATOM      6  C11 UNL     1      29.635  -9.841 -37.445  0.00  0.00    +0.000 A 
ATOM      7  C12 UNL     1      29.612  -9.666 -38.826  0.00  0.00    +0.000 A 
ATOM      8  C13 UNL     1      28.402  -9.470 -39.494  0.00  0.00    +0.000 A 
ATOM      9  O9  UNL     1      28.418  -9.306 -40.810  0.00  0.00    +0.000 OA
ATOM     10  C14 UNL     1      27.321  -9.114 -41.530  0.00  0.00    +0.000 A 
ATOM     11  C15 UNL     1      27.439  -8.951 -42.911  0.00  0.00    +0.000 A 
ATOM     12  C16 UNL     1      26.306  -8.748 -43.697  0.00  0.00    +0.000 A 
ATOM     13  C17 UNL     1      25.037  -8.706 -43.108  0.00  0.00    +0.000 A 
ATOM     14  C18 UNL     1      24.898  -8.869 -41.716  0.00  0.00    +0.000 A 
ATOM     15  C19 UNL     1      26.048  -9.076 -40.913  0.00  0.00    +0.000 A 
ENDROOT
BRANCH   6  16
ATOM     16  O8  UNL     1      30.855 -10.034 -36.799  0.00  0.00    +0.000 OA
ATOM     17  H13 UNL     1      31.304 -10.942 -36.774  0.00  0.00    +0.000 HD
ENDBRANCH   6  16
BRANCH  13  18
ATOM     18  O10 UNL     1      23.910  -8.504 -43.902  0.00  0.00    +0.000 OA
ATOM     19  H17 UNL     1      23.698  -7.598 -44.305  0.00  0.00    +0.000 HD
ENDBRANCH  13  18
BRANCH  14  20
ATOM     20  O11 UNL     1      23.627  -8.827 -41.139  0.00  0.00    +0.000 OA
ATOM     21  H18 UNL     1      23.465  -8.466 -40.206  0.00  0.00    +0.000 HD
ENDBRANCH  14  20
BRANCH   4  22
ATOM     22  O2  UNL     1      25.987  -9.602 -36.652  0.00  0.00    +0.000 OA
BRANCH  22  23
ATOM     23  C4  UNL     1      25.689  -8.835 -35.482  0.00  0.00    +0.000 C 
ATOM     24  O3  UNL     1      24.712  -7.873 -35.842  0.00  0.00    +0.000 OA
ATOM     25  C5  UNL     1      24.448  -6.988 -34.764  0.00  0.00    +0.000 C 
ATOM     26  C7  UNL     1      23.809  -7.766 -33.584  0.00  0.00    +0.000 C 
ATOM     27  C8  UNL     1      24.725  -8.925 -33.146  0.00  0.00    +0.000 C 
ATOM     28  C9  UNL     1      25.124  -9.760 -34.380  0.00  0.00    +0.000 C 
BRANCH  26  29
ATOM     29  O5  UNL     1      23.513  -6.925 -32.495  0.00  0.00    +0.000 OA
ATOM     30  H7  UNL     1      22.986  -6.157 -32.837  0.00  0.00    +0.000 HD
ENDBRANCH  26  29
BRANCH  27  31
ATOM     31  O6  UNL     1      25.873  -8.416 -32.512  0.00  0.00    +0.000 OA
ATOM     32  H9  UNL     1      26.140  -9.077 -31.821  0.00  0.00    +0.000 HD
ENDBRANCH  27  31
BRANCH  28  33
ATOM     33  O7  UNL     1      26.071 -10.733 -34.022  0.00  0.00    +0.000 OA
ATOM     34  H11 UNL     1      26.112 -10.740 -33.029  0.00  0.00    +0.000 HD
ENDBRANCH  28  33
BRANCH  25  35
ATOM     35  C6  UNL     1      23.504  -5.883 -35.259  0.00  0.00    +0.000 C 
BRANCH  35  36
ATOM     36  O4  UNL     1      22.167  -6.273 -35.091  0.00  0.00    +0.000 OA
ATOM     37  H5  UNL     1      21.867  -6.651 -35.959  0.00  0.00    +0.000 HD
ENDBRANCH  35  36
ENDBRANCH  25  35
ENDBRANCH  22  23
ENDBRANCH   4  22
TORSDOF 10
ENDMDL
MODEL 3
REMARK VINA RESULT:    -6.055      2.452      6.606
REMARK INTER + INTRA:          -9.407
REMARK INTER:                  -8.532
REMARK INTRA:                  -0.876
REMARK UNBOUND:                -1.051
REMARK  Name = resultss/4CJN/ligands/lig_298_t0.pdb
REMARK  10 active torsions:
REMARK  status: ('A' for Active; 'I' for Inactive)
REMARK    1  A    between atoms: C3_4  and  O2_5
REMARK    2  A    between atoms: O2_5  and  C4_6
REMARK    3  A    between atoms: C5_8  and  C6_9
REMARK    4  A    between atoms: C6_9  and  O4_10
REMARK    5  A    between atoms: C7_11  and  O5_12
REMARK    6  A    between atoms: C8_13  and  O6_14
REMARK    7  A    between atoms: C9_15  and  O7_16
REMARK    8  A    between atoms: C11_18  and  O8_19
REMARK    9  A    between atoms: C17_26  and  O10_27
REMARK   10  A    between atoms: C18_28  and  O11_29
REMARK                            x       y       z     vdW  Elec       q    Type
REMARK                         _______ _______ _______ _____ _____    ______ ____
ROOT
ATOM      1  O1  UNL     1      28.041  -8.170 -39.244  0.00  0.00    +0.000 OA
ATOM      2  C1  UNL     1      27.890  -8.721 -40.370  0.00  0.00    +0.000 A 
ATOM      3  C2  UNL     1      26.614  -8.756 -40.980  0.00  0.00    +0.000 A 
ATOM      4  C3  UNL     1      25.456  -8.190 -40.384  0.00  0.00    +0.000 A 
ATOM      5  C10 UNL     1      24.223  -8.277 -41.065  0.00  0.00    +0.000 A 
ATOM      6  C11 UNL     1      24.136  -8.901 -42.314  0.00  0.00    +0.000 A 
ATOM      7  C12 UNL     1      25.274  -9.452 -42.897  0.00  0.00    +0.000 A 
ATOM      8  C13 UNL     1      26.506  -9.386 -42.244  0.00  0.00    +0.000 A 
ATOM      9  O9  UNL     1      27.568  -9.922 -42.828  0.00  0.00    +0.000 OA
ATOM     10  C14 UNL     1      28.779  -9.909 -42.286  0.00  0.00    +0.000 A 
ATOM     11  C15 UNL     1      29.836 -10.501 -42.979  0.00  0.00    +0.000 A 
ATOM     12  C16 UNL     1      31.120 -10.503 -42.436  0.00  0.00    +0.000 A 
ATOM     13  C17 UNL     1      31.362  -9.912 -41.191  0.00  0.00    +0.000 A 
ATOM     14  C18 UNL     1      30.307  -9.310 -40.478  0.00  0.00    +0.000 A 
ATOM     15  C19 UNL     1      28.999  -9.305 -41.026  0.00  0.00    +0.000 A 
ENDROOT
BRANCH   6  16
ATOM     16  O8  UNL     1      22.917  -8.979 -42.985  0.00  0.00    +0.000 OA
ATOM     17  H13 UNL     1      22.812  -9.522 -43.834  0.00  0.00    +0.000 HD
ENDBRANCH   6  16
BRANCH  13  18
ATOM     18  O10 UNL     1      32.649  -9.919 -40.658  0.00  0.00    +0.000 OA
ATOM     19  H17 UNL     1      32.896 -10.509 -39.871  0.00  0.00    +0.000 HD
ENDBRANCH  13  18
BRANCH  14  20
ATOM     20  O11 UNL     1      30.559  -8.723 -39.236  0.00  0.00    +0.000 OA
ATOM     21  H18 UNL     1      31.203  -7.950 -39.120  0.00  0.00    +0.000 HD
ENDBRANCH  14  20
BRANCH   4  22
ATOM     22  O2  UNL     1      25.563  -7.570 -39.123  0.00  0.00    +0.000 OA
BRANCH  22  23
ATOM     23  C4  UNL     1      24.837  -7.894 -37.934  0.00  0.00    +0.000 C 
ATOM     24  O3  UNL     1      25.766  -8.404 -36.993  0.00  0.00    +0.000 OA
ATOM     25  C5  UNL     1      25.106  -8.865 -35.825  0.00  0.00    +0.000 C 
ATOM     26  C7  UNL     1      24.430  -7.676 -35.094  0.00  0.00    +0.000 C 
ATOM     27  C8  UNL     1      23.454  -6.951 -36.040  0.00  0.00    +0.000 C 
ATOM     28  C9  UNL     1      24.170  -6.622 -37.365  0.00  0.00    +0.000 C 
BRANCH  26  29
ATOM     29  O5  UNL     1      23.776  -8.082 -33.916  0.00  0.00    +0.000 OA
ATOM     30  H7  UNL     1      24.425  -8.592 -33.366  0.00  0.00    +0.000 HD
ENDBRANCH  26  29
BRANCH  27  31
ATOM     31  O6  UNL     1      22.330  -7.761 -36.283  0.00  0.00    +0.000 OA
ATOM     32  H9  UNL     1      21.788  -7.304 -36.979  0.00  0.00    +0.000 HD
ENDBRANCH  27  31
BRANCH  28  33
ATOM     33  O7  UNL     1      23.257  -6.089 -38.290  0.00  0.00    +0.000 OA
ATOM     34  H11 UNL     1      23.004  -5.189 -37.956  0.00  0.00    +0.000 HD
ENDBRANCH  28  33
BRANCH  25  35
ATOM     35  C6  UNL     1      26.141  -9.542 -34.914  0.00  0.00    +0.000 C 
BRANCH  35  36
ATOM     36  O4  UNL     1      25.574 -10.655 -34.275  0.00  0.00    +0.000 OA
ATOM     37  H5  UNL     1      24.605 -10.464 -34.171  0.00  0.00    +0.000 HD
ENDBRANCH  35  36
ENDBRANCH  25  35
ENDBRANCH  22  23
ENDBRANCH   4  22
TORSDOF 10
ENDMDL
MODEL 4
REMARK VINA RESULT:    -6.044      2.415      5.091
REMARK INTER + INTRA:          -9.391
REMARK INTER:                  -8.495
REMARK INTRA:                  -0.896
REMARK UNBOUND:                -1.051
REMARK  Name = resultss/4CJN/ligands/lig_298_t0.pdb
REMARK  10 active torsions:
REMARK  status: ('A' for Active; 'I' for Inactive)
REMARK    1  A    between atoms: C3_4  and  O2_5
REMARK    2  A    between atoms: O2_5  and  C4_6
REMARK    3  A    between atoms: C5_8  and  C6_9
REMARK    4  A    between atoms: C6_9  and  O4_10
REMARK    5  A    between atoms: C7_11  and  O5_12
REMARK    6  A    between atoms: C8_13  and  O6_14
REMARK    7  A    between atoms: C9_15  and  O7_16
REMARK    8  A    between atoms: C11_18  and  O8_19
REMARK    9  A    between atoms: C17_26  and  O10_27
REMARK   10  A    between atoms: C18_28  and  O11_29
REMARK                            x       y       z     vdW  Elec       q    Type
REMARK                         _______ _______ _______ _____ _____    ______ ____
ROOT
ATOM      1  O1  UNL     1      26.594  -9.858 -38.973  0.00  0.00    +0.000 OA
ATOM      2  C1  UNL     1      27.856  -9.856 -38.981  0.00  0.00    +0.000 A 
ATOM      3  C2  UNL     1      28.561  -9.890 -40.208  0.00  0.00    +0.000 A 
ATOM      4  C3  UNL     1      27.912  -9.928 -41.471  0.00  0.00    +0.000 A 
ATOM      5  C10 UNL     1      28.697  -9.965 -42.643  0.00  0.00    +0.000 A 
ATOM      6  C11 UNL     1      30.094  -9.956 -42.571  0.00  0.00    +0.000 A 
ATOM      7  C12 UNL     1      30.727  -9.916 -41.332  0.00  0.00    +0.000 A 
ATOM      8  C13 UNL     1      29.976  -9.884 -40.155  0.00  0.00    +0.000 A 
ATOM      9  O9  UNL     1      30.612  -9.847 -38.992  0.00  0.00    +0.000 OA
ATOM     10  C14 UNL     1      29.985  -9.816 -37.824  0.00  0.00    +0.000 A 
ATOM     11  C15 UNL     1      30.742  -9.778 -36.651  0.00  0.00    +0.000 A 
ATOM     12  C16 UNL     1      30.114  -9.744 -35.408  0.00  0.00    +0.000 A 
ATOM     13  C17 UNL     1      28.717  -9.745 -35.321  0.00  0.00    +0.000 A 
ATOM     14  C18 UNL     1      27.937  -9.782 -36.493  0.00  0.00    +0.000 A 
ATOM     15  C19 UNL     1      28.572  -9.818 -37.762  0.00  0.00    +0.000 A 
ENDROOT
BRANCH   6  16
ATOM     16  O8  UNL     1      30.865  -9.988 -43.732  0.00  0.00    +0.000 OA
ATOM     17  H13 UNL     1      31.139  -9.138 -44.210  0.00  0.00    +0.000 HD
ENDBRANCH   6  16
BRANCH  13  18
ATOM     18  O10 UNL     1      28.099  -9.710 -34.073  0.00  0.00    +0.000 OA
ATOM     19  H17 UNL     1      27.269 -10.258 -33.875  0.00  0.00    +0.000 HD
ENDBRANCH  13  18
BRANCH  14  20
ATOM     20  O11 UNL     1      26.544  -9.784 -36.397  0.00  0.00    +0.000 OA
ATOM     21  H18 UNL     1      26.036 -10.482 -35.867  0.00  0.00    +0.000 HD
ENDBRANCH  14  20
BRANCH   4  22
ATOM     22  O2  UNL     1      26.504  -9.942 -41.523  0.00  0.00    +0.000 OA
BRANCH  22  23
ATOM     23  C4  UNL     1      25.639  -8.855 -41.862  0.00  0.00    +0.000 C 
ATOM     24  O3  UNL     1      25.664  -8.714 -43.272  0.00  0.00    +0.000 OA
ATOM     25  C5  UNL     1      24.924  -7.575 -43.683  0.00  0.00    +0.000 C 
ATOM     26  C7  UNL     1      23.423  -7.768 -43.341  0.00  0.00    +0.000 C 
ATOM     27  C8  UNL     1      23.247  -8.036 -41.835  0.00  0.00    +0.000 C 
ATOM     28  C9  UNL     1      24.198  -9.169 -41.399  0.00  0.00    +0.000 C 
BRANCH  26  29
ATOM     29  O5  UNL     1      22.644  -6.668 -43.747  0.00  0.00    +0.000 OA
ATOM     30  H7  UNL     1      21.933  -6.530 -43.068  0.00  0.00    +0.000 HD
ENDBRANCH  26  29
BRANCH  27  31
ATOM     31  O6  UNL     1      23.518  -6.866 -41.103  0.00  0.00    +0.000 OA
ATOM     32  H9  UNL     1      22.957  -6.899 -40.284  0.00  0.00    +0.000 HD
ENDBRANCH  27  31
BRANCH  28  33
ATOM     33  O7  UNL     1      24.154  -9.331 -40.005  0.00  0.00    +0.000 OA
ATOM     34  H11 UNL     1      23.935 -10.284 -39.835  0.00  0.00    +0.000 HD
ENDBRANCH  28  33
BRANCH  25  35
ATOM     35  C6  UNL     1      25.115  -7.388 -45.196  0.00  0.00    +0.000 C 
BRANCH  35  36
ATOM     36  O4  UNL     1      24.019  -7.915 -45.895  0.00  0.00    +0.000 OA
ATOM     37  H5  UNL     1      24.367  -8.249 -46.764  0.00  0.00    +0.000 HD
ENDBRANCH  35  36
ENDBRANCH  25  35
ENDBRANCH  22  23
ENDBRANCH   4  22
TORSDOF 10
ENDMDL
MODEL 5
REMARK VINA RESULT:    -6.006      1.847      7.738
REMARK INTER + INTRA:          -9.339
REMARK INTER:                  -8.813
REMARK INTRA:                  -0.526
REMARK UNBOUND:                -1.051
REMARK  Name = resultss/4CJN/ligands/lig_298_t0.pdb
REMARK  10 active torsions:
REMARK  status: ('A' for Active; 'I' for Inactive)
REMARK    1  A    between atoms: C3_4  and  O2_5
REMARK    2  A    between atoms: O2_5  and  C4_6
REMARK    3  A    between atoms: C5_8  and  C6_9
REMARK    4  A    between atoms: C6_9  and  O4_10
REMARK    5  A    between atoms: C7_11  and  O5_12
REMARK    6  A    between atoms: C8_13  and  O6_14
REMARK    7  A    between atoms: C9_15  and  O7_16
REMARK    8  A    between atoms: C11_18  and  O8_19
REMARK    9  A    between atoms: C17_26  and  O10_27
REMARK   10  A    between atoms: C18_28  and  O11_29
REMARK                            x       y       z     vdW  Elec       q    Type
REMARK                         _______ _______ _______ _____ _____    ______ ____
ROOT
ATOM      1  O1  UNL     1      25.040  -9.411 -38.481  0.00  0.00    +0.000 OA
ATOM      2  C1  UNL     1      26.183  -9.365 -39.013  0.00  0.00    +0.000 A 
ATOM      3  C2  UNL     1      27.346  -9.480 -38.215  0.00  0.00    +0.000 A 
ATOM      4  C3  UNL     1      27.303  -9.650 -36.805  0.00  0.00    +0.000 A 
ATOM      5  C10 UNL     1      28.515  -9.751 -36.090  0.00  0.00    +0.000 A 
ATOM      6  C11 UNL     1      29.746  -9.695 -36.753  0.00  0.00    +0.000 A 
ATOM      7  C12 UNL     1      29.784  -9.532 -38.135  0.00  0.00    +0.000 A 
ATOM      8  C13 UNL     1      28.601  -9.424 -38.868  0.00  0.00    +0.000 A 
ATOM      9  O9  UNL     1      28.676  -9.268 -40.183  0.00  0.00    +0.000 OA
ATOM     10  C14 UNL     1      27.608  -9.156 -40.962  0.00  0.00    +0.000 A 
ATOM     11  C15 UNL     1      27.788  -8.995 -42.337  0.00  0.00    +0.000 A 
ATOM     12  C16 UNL     1      26.687  -8.875 -43.182  0.00  0.00    +0.000 A 
ATOM     13  C17 UNL     1      25.389  -8.915 -42.662  0.00  0.00    +0.000 A 
ATOM     14  C18 UNL     1      25.188  -9.078 -41.277  0.00  0.00    +0.000 A 
ATOM     15  C19 UNL     1      26.305  -9.200 -40.412  0.00  0.00    +0.000 A 
ENDROOT
BRANCH   6  16
ATOM     16  O8  UNL     1      30.940  -9.801 -36.042  0.00  0.00    +0.000 OA
ATOM     17  H13 UNL     1      31.101  -9.272 -35.194  0.00  0.00    +0.000 HD
ENDBRANCH   6  16
BRANCH  13  18
ATOM     18  O10 UNL     1      24.294  -8.795 -43.516  0.00  0.00    +0.000 OA
ATOM     19  H17 UNL     1      23.812  -7.912 -43.642  0.00  0.00    +0.000 HD
ENDBRANCH  13  18
BRANCH  14  20
ATOM     20  O11 UNL     1      23.888  -9.116 -40.768  0.00  0.00    +0.000 OA
ATOM     21  H18 UNL     1      23.240  -9.864 -40.985  0.00  0.00    +0.000 HD
ENDBRANCH  14  20
BRANCH   4  22
ATOM     22  O2  UNL     1      26.053  -9.698 -36.155  0.00  0.00    +0.000 OA
BRANCH  22  23
ATOM     23  C4  UNL     1      25.661  -8.986 -34.978  0.00  0.00    +0.000 C 
ATOM     24  O3  UNL     1      26.843  -8.534 -34.340  0.00  0.00    +0.000 OA
ATOM     25  C5  UNL     1      26.546  -7.919 -33.096  0.00  0.00    +0.000 C 
ATOM     26  C7  UNL     1      25.714  -6.631 -33.326  0.00  0.00    +0.000 C 
ATOM     27  C8  UNL     1      24.429  -6.955 -34.111  0.00  0.00    +0.000 C 
ATOM     28  C9  UNL     1      24.787  -7.773 -35.369  0.00  0.00    +0.000 C 
BRANCH  26  29
ATOM     29  O5  UNL     1      25.410  -5.976 -32.119  0.00  0.00    +0.000 OA
ATOM     30  H7  UNL     1      25.353  -6.662 -31.404  0.00  0.00    +0.000 HD
ENDBRANCH  26  29
BRANCH  27  31
ATOM     31  O6  UNL     1      23.540  -7.680 -33.297  0.00  0.00    +0.000 OA
ATOM     32  H9  UNL     1      23.109  -8.363 -33.875  0.00  0.00    +0.000 HD
ENDBRANCH  27  31
BRANCH  28  33
ATOM     33  O7  UNL     1      23.618  -8.198 -36.020  0.00  0.00    +0.000 OA
ATOM     34  H11 UNL     1      23.032  -8.596 -35.324  0.00  0.00    +0.000 HD
ENDBRANCH  28  33
BRANCH  25  35
ATOM     35  C6  UNL     1      27.868  -7.591 -32.386  0.00  0.00    +0.000 C 
BRANCH  35  36
ATOM     36  O4  UNL     1      27.663  -7.476 -31.003  0.00  0.00    +0.000 OA
ATOM     37  H5  UNL     1      28.190  -8.200 -30.573  0.00  0.00    +0.000 HD
ENDBRANCH  35  36
ENDBRANCH  25  35
ENDBRANCH  22  23
ENDBRANCH   4  22
TORSDOF 10
ENDMDL
MODEL 6
REMARK VINA RESULT:    -5.757      2.542      4.716
REMARK INTER + INTRA:          -8.996
REMARK INTER:                  -8.452
REMARK INTRA:                  -0.544
REMARK UNBOUND:                -1.051
REMARK  Name = resultss/4CJN/ligands/lig_298_t0.pdb
REMARK  10 active torsions:
REMARK  status: ('A' for Active; 'I' for Inactive)
REMARK    1  A    between atoms: C3_4  and  O2_5
REMARK    2  A    between atoms: O2_5  and  C4_6
REMARK    3  A    between atoms: C5_8  and  C6_9
REMARK    4  A    between atoms: C6_9  and  O4_10
REMARK    5  A    between atoms: C7_11  and  O5_12
REMARK    6  A    between atoms: C8_13  and  O6_14
REMARK    7  A    between atoms: C9_15  and  O7_16
REMARK    8  A    between atoms: C11_18  and  O8_19
REMARK    9  A    between atoms: C17_26  and  O10_27
REMARK   10  A    between atoms: C18_28  and  O11_29
REMARK                            x       y       z     vdW  Elec       q    Type
REMARK                         _______ _______ _______ _____ _____    ______ ____
ROOT
ATOM      1  O1  UNL     1      24.743  -6.955 -37.750  0.00  0.00    +0.000 OA
ATOM      2  C1  UNL     1      25.384  -7.923 -37.256  0.00  0.00    +0.000 A 
ATOM      3  C2  UNL     1      26.355  -8.604 -38.029  0.00  0.00    +0.000 A 
ATOM      4  C3  UNL     1      26.662  -8.250 -39.371  0.00  0.00    +0.000 A 
ATOM      5  C10 UNL     1      27.643  -8.989 -40.066  0.00  0.00    +0.000 A 
ATOM      6  C11 UNL     1      28.315 -10.049 -39.447  0.00  0.00    +0.000 A 
ATOM      7  C12 UNL     1      28.014 -10.390 -38.132  0.00  0.00    +0.000 A 
ATOM      8  C13 UNL     1      27.044  -9.681 -37.421  0.00  0.00    +0.000 A 
ATOM      9  O9  UNL     1      26.782 -10.034 -36.170  0.00  0.00    +0.000 OA
ATOM     10  C14 UNL     1      25.879  -9.421 -35.417  0.00  0.00    +0.000 A 
ATOM     11  C15 UNL     1      25.674  -9.866 -34.110  0.00  0.00    +0.000 A 
ATOM     12  C16 UNL     1      24.733  -9.243 -33.293  0.00  0.00    +0.000 A 
ATOM     13  C17 UNL     1      23.984  -8.163 -33.774  0.00  0.00    +0.000 A 
ATOM     14  C18 UNL     1      24.177  -7.700 -35.090  0.00  0.00    +0.000 A 
ATOM     15  C19 UNL     1      25.134  -8.331 -35.926  0.00  0.00    +0.000 A 
ENDROOT
BRANCH   6  16
ATOM     16  O8  UNL     1      29.287 -10.772 -40.137  0.00  0.00    +0.000 OA
ATOM     17  H13 UNL     1      30.213 -10.916 -39.753  0.00  0.00    +0.000 HD
ENDBRANCH   6  16
BRANCH  13  18
ATOM     18  O10 UNL     1      23.046  -7.546 -32.949  0.00  0.00    +0.000 OA
ATOM     19  H17 UNL     1      22.205  -8.026 -32.647  0.00  0.00    +0.000 HD
ENDBRANCH  13  18
BRANCH  14  20
ATOM     20  O11 UNL     1      23.425  -6.622 -35.561  0.00  0.00    +0.000 OA
ATOM     21  H18 UNL     1      23.837  -5.721 -35.770  0.00  0.00    +0.000 HD
ENDBRANCH  14  20
BRANCH   4  22
ATOM     22  O2  UNL     1      25.971  -7.183 -39.978  0.00  0.00    +0.000 OA
BRANCH  22  23
ATOM     23  C4  UNL     1      25.163  -7.233 -41.157  0.00  0.00    +0.000 C 
ATOM     24  O3  UNL     1      25.976  -6.832 -42.247  0.00  0.00    +0.000 OA
ATOM     25  C5  UNL     1      25.215  -6.737 -43.441  0.00  0.00    +0.000 C 
ATOM     26  C7  UNL     1      24.689  -8.138 -43.846  0.00  0.00    +0.000 C 
ATOM     27  C8  UNL     1      23.861  -8.752 -42.702  0.00  0.00    +0.000 C 
ATOM     28  C9  UNL     1      24.664  -8.677 -41.388  0.00  0.00    +0.000 C 
BRANCH  26  29
ATOM     29  O5  UNL     1      23.942  -8.098 -45.038  0.00  0.00    +0.000 OA
ATOM     30  H7  UNL     1      22.980  -8.153 -44.798  0.00  0.00    +0.000 HD
ENDBRANCH  26  29
BRANCH  27  31
ATOM     31  O6  UNL     1      22.643  -8.062 -42.567  0.00  0.00    +0.000 OA
ATOM     32  H9  UNL     1      22.011  -8.458 -43.222  0.00  0.00    +0.000 HD
ENDBRANCH  27  31
BRANCH  28  33
ATOM     33  O7  UNL     1      23.871  -9.102 -40.310  0.00  0.00    +0.000 OA
ATOM     34  H11 UNL     1      23.159  -8.419 -40.193  0.00  0.00    +0.000 HD
ENDBRANCH  28  33
BRANCH  25  35
ATOM     35  C6  UNL     1      26.110  -6.153 -44.545  0.00  0.00    +0.000 C 
BRANCH  35  36
ATOM     36  O4  UNL     1      26.728  -7.184 -45.267  0.00  0.00    +0.000 OA
ATOM     37  H5  UNL     1      26.191  -8.006 -45.112  0.00  0.00    +0.000 HD
ENDBRANCH  35  36
ENDBRANCH  25  35
ENDBRANCH  22  23
ENDBRANCH   4  22
TORSDOF 10
ENDMDL
MODEL 7
REMARK VINA RESULT:    -5.526      2.284      8.015
REMARK INTER + INTRA:          -8.677
REMARK INTER:                  -8.058
REMARK INTRA:                  -0.619
REMARK UNBOUND:                -1.051
REMARK  Name = resultss/4CJN/ligands/lig_298_t0.pdb
REMARK  10 active torsions:
REMARK  status: ('A' for Active; 'I' for Inactive)
REMARK    1  A    between atoms: C3_4  and  O2_5
REMARK    2  A    between atoms: O2_5  and  C4_6
REMARK    3  A    between atoms: C5_8  and  C6_9
REMARK    4  A    between atoms: C6_9  and  O4_10
REMARK    5  A    between atoms: C7_11  and  O5_12
REMARK    6  A    between atoms: C8_13  and  O6_14
REMARK    7  A    between atoms: C9_15  and  O7_16
REMARK    8  A    between atoms: C11_18  and  O8_19
REMARK    9  A    between atoms: C17_26  and  O10_27
REMARK   10  A    between atoms: C18_28  and  O11_29
REMARK                            x       y       z     vdW  Elec       q    Type
REMARK                         _______ _______ _______ _____ _____    ______ ____
ROOT
ATOM      1  O1  UNL     1      29.071 -10.216 -36.917  0.00  0.00    +0.000 OA
ATOM      2  C1  UNL     1      27.907  -9.762 -37.092  0.00  0.00    +0.000 A 
ATOM      3  C2  UNL     1      27.110  -9.397 -35.981  0.00  0.00    +0.000 A 
ATOM      4  C3  UNL     1      27.556  -9.516 -34.637  0.00  0.00    +0.000 A 
ATOM      5  C10 UNL     1      26.690  -9.132 -33.591  0.00  0.00    +0.000 A 
ATOM      6  C11 UNL     1      25.412  -8.632 -33.865  0.00  0.00    +0.000 A 
ATOM      7  C12 UNL     1      24.979  -8.514 -35.183  0.00  0.00    +0.000 A 
ATOM      8  C13 UNL     1      25.812  -8.892 -36.238  0.00  0.00    +0.000 A 
ATOM      9  O9  UNL     1      25.367  -8.766 -37.481  0.00  0.00    +0.000 OA
ATOM     10  C14 UNL     1      26.085  -9.098 -38.545  0.00  0.00    +0.000 A 
ATOM     11  C15 UNL     1      25.529  -8.930 -39.815  0.00  0.00    +0.000 A 
ATOM     12  C16 UNL     1      26.257  -9.269 -40.953  0.00  0.00    +0.000 A 
ATOM     13  C17 UNL     1      27.555  -9.781 -40.836  0.00  0.00    +0.000 A 
ATOM     14  C18 UNL     1      28.132  -9.956 -39.564  0.00  0.00    +0.000 A 
ATOM     15  C19 UNL     1      27.395  -9.614 -38.401  0.00  0.00    +0.000 A 
ENDROOT
BRANCH   6  16
ATOM     16  O8  UNL     1      24.563  -8.249 -32.829  0.00  0.00    +0.000 OA
ATOM     17  H13 UNL     1      24.212  -8.920 -32.155  0.00  0.00    +0.000 HD
ENDBRANCH   6  16
BRANCH  13  18
ATOM     18  O10 UNL     1      28.275 -10.115 -41.981  0.00  0.00    +0.000 OA
ATOM     19  H17 UNL     1      28.333  -9.489 -42.776  0.00  0.00    +0.000 HD
ENDBRANCH  13  18
BRANCH  14  20
ATOM     20  O11 UNL     1      29.427 -10.468 -39.457  0.00  0.00    +0.000 OA
ATOM     21  H18 UNL     1      30.251  -9.896 -39.600  0.00  0.00    +0.000 HD
ENDBRANCH  14  20
BRANCH   4  22
ATOM     22  O2  UNL     1      28.844 -10.027 -34.381  0.00  0.00    +0.000 OA
BRANCH  22  23
ATOM     23  C4  UNL     1      29.794  -9.545 -33.426  0.00  0.00    +0.000 C 
ATOM     24  O3  UNL     1      30.613 -10.639 -33.050  0.00  0.00    +0.000 OA
ATOM     25  C5  UNL     1      31.506 -10.271 -32.011  0.00  0.00    +0.000 C 
ATOM     26  C7  UNL     1      32.504  -9.200 -32.524  0.00  0.00    +0.000 C 
ATOM     27  C8  UNL     1      31.743  -7.976 -33.067  0.00  0.00    +0.000 C 
ATOM     28  C9  UNL     1      30.665  -8.441 -34.067  0.00  0.00    +0.000 C 
BRANCH  26  29
ATOM     29  O5  UNL     1      33.424  -8.816 -31.531  0.00  0.00    +0.000 OA
ATOM     30  H7  UNL     1      34.054  -9.569 -31.390  0.00  0.00    +0.000 HD
ENDBRANCH  26  29
BRANCH  27  31
ATOM     31  O6  UNL     1      31.148  -7.270 -32.005  0.00  0.00    +0.000 OA
ATOM     32  H9  UNL     1      30.663  -7.935 -31.451  0.00  0.00    +0.000 HD
ENDBRANCH  27  31
BRANCH  28  33
ATOM     33  O7  UNL     1      29.870  -7.354 -34.463  0.00  0.00    +0.000 OA
ATOM     34  H11 UNL     1      30.441  -6.775 -35.034  0.00  0.00    +0.000 HD
ENDBRANCH  28  33
BRANCH  25  35
ATOM     35  C6  UNL     1      32.255 -11.528 -31.543  0.00  0.00    +0.000 C 
BRANCH  35  36
ATOM     36  O4  UNL     1      31.775 -11.945 -30.293  0.00  0.00    +0.000 OA
ATOM     37  H5  UNL     1      32.551 -11.944 -29.673  0.00  0.00    +0.000 HD
ENDBRANCH  35  36
ENDBRANCH  25  35
ENDBRANCH  22  23
ENDBRANCH   4  22
TORSDOF 10
ENDMDL
MODEL 8
REMARK VINA RESULT:    -5.438      2.473      5.718
REMARK INTER + INTRA:          -8.555
REMARK INTER:                  -7.544
REMARK INTRA:                  -1.011
REMARK UNBOUND:                -1.051
REMARK  Name = resultss/4CJN/ligands/lig_298_t0.pdb
REMARK  10 active torsions:
REMARK  status: ('A' for Active; 'I' for Inactive)
REMARK    1  A    between atoms: C3_4  and  O2_5
REMARK    2  A    between atoms: O2_5  and  C4_6
REMARK    3  A    between atoms: C5_8  and  C6_9
REMARK    4  A    between atoms: C6_9  and  O4_10
REMARK    5  A    between atoms: C7_11  and  O5_12
REMARK    6  A    between atoms: C8_13  and  O6_14
REMARK    7  A    between atoms: C9_15  and  O7_16
REMARK    8  A    between atoms: C11_18  and  O8_19
REMARK    9  A    between atoms: C17_26  and  O10_27
REMARK   10  A    between atoms: C18_28  and  O11_29
REMARK                            x       y       z     vdW  Elec       q    Type
REMARK                         _______ _______ _______ _____ _____    ______ ____
ROOT
ATOM      1  O1  UNL     1      26.019  -7.575 -37.603  0.00  0.00    +0.000 OA
ATOM      2  C1  UNL     1      26.213  -8.099 -36.471  0.00  0.00    +0.000 A 
ATOM      3  C2  UNL     1      27.505  -8.543 -36.103  0.00  0.00    +0.000 A 
ATOM      4  C3  UNL     1      28.635  -8.429 -36.958  0.00  0.00    +0.000 A 
ATOM      5  C10 UNL     1      29.885  -8.903 -36.508  0.00  0.00    +0.000 A 
ATOM      6  C11 UNL     1      30.022  -9.470 -35.236  0.00  0.00    +0.000 A 
ATOM      7  C12 UNL     1      28.914  -9.577 -34.400  0.00  0.00    +0.000 A 
ATOM      8  C13 UNL     1      27.663  -9.122 -34.820  0.00  0.00    +0.000 A 
ATOM      9  O9  UNL     1      26.629  -9.240 -33.998  0.00  0.00    +0.000 OA
ATOM     10  C14 UNL     1      25.405  -8.837 -34.309  0.00  0.00    +0.000 A 
ATOM     11  C15 UNL     1      24.380  -9.005 -33.376  0.00  0.00    +0.000 A 
ATOM     12  C16 UNL     1      23.083  -8.592 -33.672  0.00  0.00    +0.000 A 
ATOM     13  C17 UNL     1      22.793  -8.003 -34.908  0.00  0.00    +0.000 A 
ATOM     14  C18 UNL     1      23.814  -7.825 -35.862  0.00  0.00    +0.000 A 
ATOM     15  C19 UNL     1      25.137  -8.245 -35.566  0.00  0.00    +0.000 A 
ENDROOT
BRANCH   6  16
ATOM     16  O8  UNL     1      31.260  -9.932 -34.794  0.00  0.00    +0.000 OA
ATOM     17  H13 UNL     1      31.385 -10.307 -33.862  0.00  0.00    +0.000 HD
ENDBRANCH   6  16
BRANCH  13  18
ATOM     18  O10 UNL     1      21.493  -7.593 -35.194  0.00  0.00    +0.000 OA
ATOM     19  H17 UNL     1      20.686  -8.099 -34.847  0.00  0.00    +0.000 HD
ENDBRANCH  13  18
BRANCH  14  20
ATOM     20  O11 UNL     1      23.515  -7.237 -37.092  0.00  0.00    +0.000 OA
ATOM     21  H18 UNL     1      24.156  -6.612 -37.567  0.00  0.00    +0.000 HD
ENDBRANCH  14  20
BRANCH   4  22
ATOM     22  O2  UNL     1      28.476  -7.860 -38.238  0.00  0.00    +0.000 OA
BRANCH  22  23
ATOM     23  C4  UNL     1      28.770  -8.468 -39.498  0.00  0.00    +0.000 C 
ATOM     24  O3  UNL     1      30.174  -8.645 -39.569  0.00  0.00    +0.000 OA
ATOM     25  C5  UNL     1      30.562  -9.133 -40.843  0.00  0.00    +0.000 C 
ATOM     26  C7  UNL     1      29.982 -10.554 -41.066  0.00  0.00    +0.000 C 
ATOM     27  C8  UNL     1      28.449 -10.537 -40.916  0.00  0.00    +0.000 C 
ATOM     28  C9  UNL     1      28.069  -9.842 -39.592  0.00  0.00    +0.000 C 
BRANCH  26  29
ATOM     29  O5  UNL     1      30.356 -11.088 -42.313  0.00  0.00    +0.000 OA
ATOM     30  H7  UNL     1      31.007 -11.819 -42.150  0.00  0.00    +0.000 HD
ENDBRANCH  26  29
BRANCH  27  31
ATOM     31  O6  UNL     1      27.868  -9.860 -42.004  0.00  0.00    +0.000 OA
ATOM     32  H9  UNL     1      28.126 -10.356 -42.825  0.00  0.00    +0.000 HD
ENDBRANCH  27  31
BRANCH  28  33
ATOM     33  O7  UNL     1      26.676  -9.691 -39.506  0.00  0.00    +0.000 OA
ATOM     34  H11 UNL     1      26.451  -8.842 -39.970  0.00  0.00    +0.000 HD
ENDBRANCH  28  33
BRANCH  25  35
ATOM     35  C6  UNL     1      32.097  -9.157 -40.911  0.00  0.00    +0.000 C 
BRANCH  35  36
ATOM     36  O4  UNL     1      32.591 -10.339 -40.340  0.00  0.00    +0.000 OA
ATOM     37  H5  UNL     1      31.825 -10.783 -39.889  0.00  0.00    +0.000 HD
ENDBRANCH  35  36
ENDBRANCH  25  35
ENDBRANCH  22  23
ENDBRANCH   4  22
TORSDOF 10
ENDMDL
MODEL 9
REMARK VINA RESULT:    -5.257      1.649      2.366
REMARK INTER + INTRA:          -8.306
REMARK INTER:                  -7.507
REMARK INTRA:                  -0.799
REMARK UNBOUND:                -1.051
REMARK  Name = resultss/4CJN/ligands/lig_298_t0.pdb
REMARK  10 active torsions:
REMARK  status: ('A' for Active; 'I' for Inactive)
REMARK    1  A    between atoms: C3_4  and  O2_5
REMARK    2  A    between atoms: O2_5  and  C4_6
REMARK    3  A    between atoms: C5_8  and  C6_9
REMARK    4  A    between atoms: C6_9  and  O4_10
REMARK    5  A    between atoms: C7_11  and  O5_12
REMARK    6  A    between atoms: C8_13  and  O6_14
REMARK    7  A    between atoms: C9_15  and  O7_16
REMARK    8  A    between atoms: C11_18  and  O8_19
REMARK    9  A    between atoms: C17_26  and  O10_27
REMARK   10  A    between atoms: C18_28  and  O11_29
REMARK                            x       y       z     vdW  Elec       q    Type
REMARK                         _______ _______ _______ _____ _____    ______ ____
ROOT
ATOM      1  O1  UNL     1      28.768  -9.602 -37.293  0.00  0.00    +0.000 OA
ATOM      2  C1  UNL     1      28.281  -9.266 -36.178  0.00  0.00    +0.000 A 
ATOM      3  C2  UNL     1      26.926  -8.869 -36.084  0.00  0.00    +0.000 A 
ATOM      4  C3  UNL     1      26.053  -8.825 -37.204  0.00  0.00    +0.000 A 
ATOM      5  C10 UNL     1      24.717  -8.412 -37.015  0.00  0.00    +0.000 A 
ATOM      6  C11 UNL     1      24.248  -8.058 -35.745  0.00  0.00    +0.000 A 
ATOM      7  C12 UNL     1      25.105  -8.105 -34.649  0.00  0.00    +0.000 A 
ATOM      8  C13 UNL     1      26.434  -8.504 -34.807  0.00  0.00    +0.000 A 
ATOM      9  O9  UNL     1      27.222  -8.537 -33.741  0.00  0.00    +0.000 OA
ATOM     10  C14 UNL     1      28.496  -8.902 -33.792  0.00  0.00    +0.000 A 
ATOM     11  C15 UNL     1      29.246  -8.904 -32.615  0.00  0.00    +0.000 A 
ATOM     12  C16 UNL     1      30.587  -9.283 -32.635  0.00  0.00    +0.000 A 
ATOM     13  C17 UNL     1      31.196  -9.666 -33.835  0.00  0.00    +0.000 A 
ATOM     14  C18 UNL     1      30.454  -9.671 -35.032  0.00  0.00    +0.000 A 
ATOM     15  C19 UNL     1      29.089  -9.286 -35.018  0.00  0.00    +0.000 A 
ENDROOT
BRANCH   6  16
ATOM     16  O8  UNL     1      22.926  -7.655 -35.564  0.00  0.00    +0.000 OA
ATOM     17  H13 UNL     1      22.287  -7.565 -36.344  0.00  0.00    +0.000 HD
ENDBRANCH   6  16
BRANCH  13  18
ATOM     18  O10 UNL     1      32.537 -10.044 -33.844  0.00  0.00    +0.000 OA
ATOM     19  H17 UNL     1      32.918 -10.636 -34.574  0.00  0.00    +0.000 HD
ENDBRANCH  13  18
BRANCH  14  20
ATOM     20  O11 UNL     1      31.070 -10.056 -36.225  0.00  0.00    +0.000 OA
ATOM     21  H18 UNL     1      31.129  -9.443 -37.030  0.00  0.00    +0.000 HD
ENDBRANCH  14  20
BRANCH   4  22
ATOM     22  O2  UNL     1      26.545  -9.180 -38.476  0.00  0.00    +0.000 OA
BRANCH  22  23
ATOM     23  C4  UNL     1      26.339  -8.486 -39.709  0.00  0.00    +0.000 C 
ATOM     24  O3  UNL     1      27.606  -8.330 -40.327  0.00  0.00    +0.000 OA
ATOM     25  C5  UNL     1      27.505  -7.542 -41.502  0.00  0.00    +0.000 C 
ATOM     26  C7  UNL     1      26.645  -8.278 -42.562  0.00  0.00    +0.000 C 
ATOM     27  C8  UNL     1      25.254  -8.610 -41.989  0.00  0.00    +0.000 C 
ATOM     28  C9  UNL     1      25.414  -9.315 -40.627  0.00  0.00    +0.000 C 
BRANCH  26  29
ATOM     29  O5  UNL     1      26.531  -7.541 -43.755  0.00  0.00    +0.000 OA
ATOM     30  H7  UNL     1      26.109  -6.669 -43.537  0.00  0.00    +0.000 HD
ENDBRANCH  26  29
BRANCH  27  31
ATOM     31  O6  UNL     1      24.503  -7.430 -41.840  0.00  0.00    +0.000 OA
ATOM     32  H9  UNL     1      25.079  -6.679 -42.141  0.00  0.00    +0.000 HD
ENDBRANCH  27  31
BRANCH  28  33
ATOM     33  O7  UNL     1      24.158  -9.497 -40.025  0.00  0.00    +0.000 OA
ATOM     34  H11 UNL     1      23.706 -10.228 -40.522  0.00  0.00    +0.000 HD
ENDBRANCH  28  33
BRANCH  25  35
ATOM     35  C6  UNL     1      28.920  -7.281 -42.038  0.00  0.00    +0.000 C 
BRANCH  35  36
ATOM     36  O4  UNL     1      29.261  -8.241 -43.002  0.00  0.00    +0.000 OA
ATOM     37  H5  UNL     1      29.744  -7.762 -43.727  0.00  0.00    +0.000 HD
ENDBRANCH  35  36
ENDBRANCH  25  35
ENDBRANCH  22  23
ENDBRANCH   4  22
TORSDOF 10
ENDMDL
