MODEL 1
REMARK VINA RESULT:    -6.522      0.000      0.000
REMARK INTER + INTRA:          -9.154
REMARK INTER:                  -9.001
REMARK INTRA:                  -0.154
REMARK UNBOUND:                -0.154
REMARK  Name = resultss/4CJN/ligands/lig_373_t2.pdb
REMARK  9 active torsions:
REMARK  status: ('A' for Active; 'I' for Inactive)
REMARK    1  A    between atoms: C1_1  and  C2_2
REMARK    2  A    between atoms: C2_2  and  O1_3
REMARK    3  A    between atoms: O1_3  and  C3_4
REMARK    4  A    between atoms: C5_6  and  C6_7
REMARK    5  A    between atoms: C6_7  and  C7_8
REMARK    6  A    between atoms: C6_7  and  C16_21
REMARK    7  A    between atoms: C15_19  and  O4_20
REMARK    8  A    between atoms: C24_32  and  O7_33
REMARK    9  A    between atoms: C27_36  and  O8_37
REMARK                            x       y       z     vdW  Elec       q    Type
REMARK                         _______ _______ _______ _____ _____    ______ ____
ROOT
ATOM      1  C6  UNL     1      29.017  -7.791 -35.590  0.00  0.00    +0.000 C 
ENDROOT
BRANCH   1   2
ATOM      2  C7  UNL     1      30.215  -8.273 -34.763  0.00  0.00    +0.000 A 
ATOM      3  C8  UNL     1      30.148  -9.394 -33.904  0.00  0.00    +0.000 A 
ATOM      4  O2  UNL     1      29.073 -10.043 -33.780  0.00  0.00    +0.000 OA
ATOM      5  C9  UNL     1      31.281  -9.777 -33.167  0.00  0.00    +0.000 A 
ATOM      6  C10 UNL     1      31.277 -10.895 -32.312  0.00  0.00    +0.000 A 
ATOM      7  C11 UNL     1      32.431 -11.238 -31.599  0.00  0.00    +0.000 A 
ATOM      8 CL1  UNL     1      32.422 -12.633 -30.535  0.00  0.00    +0.000 Cl
ATOM      9  C12 UNL     1      33.592 -10.470 -31.731  0.00  0.00    +0.000 A 
ATOM     10  C13 UNL     1      33.604  -9.358 -32.576  0.00  0.00    +0.000 A 
ATOM     11  C14 UNL     1      32.455  -9.006 -33.293  0.00  0.00    +0.000 A 
ATOM     12  O3  UNL     1      32.477  -7.942 -34.084  0.00  0.00    +0.000 OA
ATOM     13  C15 UNL     1      31.428  -7.549 -34.799  0.00  0.00    +0.000 A 
BRANCH  13  14
ATOM     14  O4  UNL     1      31.545  -6.404 -35.583  0.00  0.00    +0.000 OA
ATOM     15  H11 UNL     1      31.117  -5.533 -35.294  0.00  0.00    +0.000 HD
ENDBRANCH  13  14
ENDBRANCH   1   2
BRANCH   1  16
ATOM     16  C16 UNL     1      28.685  -8.729 -36.759  0.00  0.00    +0.000 A 
ATOM     17  C17 UNL     1      29.342  -8.543 -37.996  0.00  0.00    +0.000 A 
ATOM     18  O5  UNL     1      30.187  -7.614 -38.132  0.00  0.00    +0.000 OA
ATOM     19  C18 UNL     1      29.057  -9.393 -39.077  0.00  0.00    +0.000 A 
ATOM     20  C19 UNL     1      29.672  -9.242 -40.334  0.00  0.00    +0.000 A 
ATOM     21  C20 UNL     1      29.355 -10.113 -41.381  0.00  0.00    +0.000 A 
ATOM     22 CL2  UNL     1      30.123  -9.921 -42.947  0.00  0.00    +0.000 Cl
ATOM     23  C21 UNL     1      28.424 -11.139 -41.182  0.00  0.00    +0.000 A 
ATOM     24  C22 UNL     1      27.810 -11.298 -39.937  0.00  0.00    +0.000 A 
ATOM     25  C23 UNL     1      28.123 -10.431 -38.884  0.00  0.00    +0.000 A 
ATOM     26  O6  UNL     1      27.539 -10.597 -37.705  0.00  0.00    +0.000 OA
ATOM     27  C24 UNL     1      27.781  -9.816 -36.656  0.00  0.00    +0.000 A 
BRANCH  27  28
ATOM     28  O7  UNL     1      27.136 -10.107 -35.459  0.00  0.00    +0.000 OA
ATOM     29  H15 UNL     1      26.938  -9.378 -34.784  0.00  0.00    +0.000 HD
ENDBRANCH  27  28
ENDBRANCH   1  16
BRANCH   1  32
ATOM     30  C3  UNL     1      25.454  -6.773 -34.501  0.00  0.00    +0.000 A 
ATOM     31  C4  UNL     1      26.534  -7.176 -35.297  0.00  0.00    +0.000 A 
ATOM     32  C5  UNL     1      27.816  -7.378 -34.747  0.00  0.00    +0.000 A 
ATOM     33  C25 UNL     1      28.000  -7.153 -33.374  0.00  0.00    +0.000 A 
ATOM     34  C26 UNL     1      26.935  -6.752 -32.570  0.00  0.00    +0.000 A 
ATOM     35  C27 UNL     1      25.660  -6.560 -33.118  0.00  0.00    +0.000 A 
BRANCH  35  36
ATOM     36  O8  UNL     1      24.618  -6.161 -32.282  0.00  0.00    +0.000 OA
ATOM     37  H18 UNL     1      24.789  -5.783 -31.357  0.00  0.00    +0.000 HD
ENDBRANCH  35  36
BRANCH  30  38
ATOM     38  O1  UNL     1      24.217  -6.602 -35.148  0.00  0.00    +0.000 OA
BRANCH  38  40
ATOM     39  C1  UNL     1      22.605  -8.258 -34.491  0.00  0.00    +0.000 C 
ATOM     40  C2  UNL     1      23.376  -7.638 -35.646  0.00  0.00    +0.000 C 
ENDBRANCH  38  40
ENDBRANCH  30  38
ENDBRANCH   1  32
TORSDOF 8
ENDMDL
MODEL 2
REMARK VINA RESULT:    -6.144      3.888      6.948
REMARK INTER + INTRA:          -8.633
REMARK INTER:                  -9.601
REMARK INTRA:                   0.968
REMARK UNBOUND:                -0.154
REMARK  Name = resultss/4CJN/ligands/lig_373_t2.pdb
REMARK  9 active torsions:
REMARK  status: ('A' for Active; 'I' for Inactive)
REMARK    1  A    between atoms: C1_1  and  C2_2
REMARK    2  A    between atoms: C2_2  and  O1_3
REMARK    3  A    between atoms: O1_3  and  C3_4
REMARK    4  A    between atoms: C5_6  and  C6_7
REMARK    5  A    between atoms: C6_7  and  C7_8
REMARK    6  A    between atoms: C6_7  and  C16_21
REMARK    7  A    between atoms: C15_19  and  O4_20
REMARK    8  A    between atoms: C24_32  and  O7_33
REMARK    9  A    between atoms: C27_36  and  O8_37
REMARK                            x       y       z     vdW  Elec       q    Type
REMARK                         _______ _______ _______ _____ _____    ______ ____
ROOT
ATOM      1  C6  UNL     1      28.306  -8.280 -40.168  0.00  0.00    +0.000 C 
ENDROOT
BRANCH   1   2
ATOM      2  C7  UNL     1      27.918  -8.680 -38.740  0.00  0.00    +0.000 A 
ATOM      3  C8  UNL     1      27.625  -7.729 -37.734  0.00  0.00    +0.000 A 
ATOM      4  O2  UNL     1      27.685  -6.494 -37.982  0.00  0.00    +0.000 OA
ATOM      5  C9  UNL     1      27.285  -8.163 -36.442  0.00  0.00    +0.000 A 
ATOM      6  C10 UNL     1      26.966  -7.263 -35.407  0.00  0.00    +0.000 A 
ATOM      7  C11 UNL     1      26.633  -7.743 -34.136  0.00  0.00    +0.000 A 
ATOM      8 CL1  UNL     1      26.234  -6.618 -32.851  0.00  0.00    +0.000 Cl
ATOM      9  C12 UNL     1      26.617  -9.119 -33.888  0.00  0.00    +0.000 A 
ATOM     10  C13 UNL     1      26.935 -10.019 -34.907  0.00  0.00    +0.000 A 
ATOM     11  C14 UNL     1      27.271  -9.550 -36.181  0.00  0.00    +0.000 A 
ATOM     12  O3  UNL     1      27.580 -10.414 -37.138  0.00  0.00    +0.000 OA
ATOM     13  C15 UNL     1      27.903 -10.045 -38.373  0.00  0.00    +0.000 A 
BRANCH  13  14
ATOM     14  O4  UNL     1      28.234 -11.029 -39.300  0.00  0.00    +0.000 OA
ATOM     15  H11 UNL     1      28.155 -12.010 -39.064  0.00  0.00    +0.000 HD
ENDBRANCH  13  14
ENDBRANCH   1   2
BRANCH   1  16
ATOM     16  C16 UNL     1      29.633  -8.904 -40.620  0.00  0.00    +0.000 A 
ATOM     17  C17 UNL     1      29.614  -9.941 -41.579  0.00  0.00    +0.000 A 
ATOM     18  O5  UNL     1      28.514 -10.347 -42.051  0.00  0.00    +0.000 OA
ATOM     19  C18 UNL     1      30.818 -10.522 -42.010  0.00  0.00    +0.000 A 
ATOM     20  C19 UNL     1      30.852 -11.568 -42.952  0.00  0.00    +0.000 A 
ATOM     21  C20 UNL     1      32.076 -12.115 -43.350  0.00  0.00    +0.000 A 
ATOM     22 CL2  UNL     1      32.115 -13.419 -44.523  0.00  0.00    +0.000 Cl
ATOM     23  C21 UNL     1      33.271 -11.624 -42.813  0.00  0.00    +0.000 A 
ATOM     24  C22 UNL     1      33.247 -10.585 -41.879  0.00  0.00    +0.000 A 
ATOM     25  C23 UNL     1      32.026 -10.031 -41.476  0.00  0.00    +0.000 A 
ATOM     26  O6  UNL     1      32.017  -9.040 -40.596  0.00  0.00    +0.000 OA
ATOM     27  C24 UNL     1      30.900  -8.462 -40.161  0.00  0.00    +0.000 A 
BRANCH  27  28
ATOM     28  O7  UNL     1      31.014  -7.407 -39.263  0.00  0.00    +0.000 OA
ATOM     29  H15 UNL     1      31.057  -7.576 -38.265  0.00  0.00    +0.000 HD
ENDBRANCH  27  28
ENDBRANCH   1  16
BRANCH   1  32
ATOM     30  C3  UNL     1      26.109  -7.893 -43.321  0.00  0.00    +0.000 A 
ATOM     31  C4  UNL     1      27.182  -7.771 -42.428  0.00  0.00    +0.000 A 
ATOM     32  C5  UNL     1      27.167  -8.413 -41.173  0.00  0.00    +0.000 A 
ATOM     33  C25 UNL     1      26.042  -9.175 -40.822  0.00  0.00    +0.000 A 
ATOM     34  C26 UNL     1      24.968  -9.305 -41.701  0.00  0.00    +0.000 A 
ATOM     35  C27 UNL     1      24.988  -8.672 -42.951  0.00  0.00    +0.000 A 
BRANCH  35  36
ATOM     36  O8  UNL     1      23.897  -8.826 -43.804  0.00  0.00    +0.000 OA
ATOM     37  H18 UNL     1      22.977  -9.069 -43.456  0.00  0.00    +0.000 HD
ENDBRANCH  35  36
BRANCH  30  38
ATOM     38  O1  UNL     1      26.224  -7.213 -44.547  0.00  0.00    +0.000 OA
BRANCH  38  40
ATOM     39  C1  UNL     1      28.055  -7.160 -46.103  0.00  0.00    +0.000 C 
ATOM     40  C2  UNL     1      27.336  -6.433 -44.978  0.00  0.00    +0.000 C 
ENDBRANCH  38  40
ENDBRANCH  30  38
ENDBRANCH   1  32
TORSDOF 8
ENDMDL
MODEL 3
REMARK VINA RESULT:    -6.140      2.657      7.526
REMARK INTER + INTRA:          -8.627
REMARK INTER:                  -8.398
REMARK INTRA:                  -0.230
REMARK UNBOUND:                -0.154
REMARK  Name = resultss/4CJN/ligands/lig_373_t2.pdb
REMARK  9 active torsions:
REMARK  status: ('A' for Active; 'I' for Inactive)
REMARK    1  A    between atoms: C1_1  and  C2_2
REMARK    2  A    between atoms: C2_2  and  O1_3
REMARK    3  A    between atoms: O1_3  and  C3_4
REMARK    4  A    between atoms: C5_6  and  C6_7
REMARK    5  A    between atoms: C6_7  and  C7_8
REMARK    6  A    between atoms: C6_7  and  C16_21
REMARK    7  A    between atoms: C15_19  and  O4_20
REMARK    8  A    between atoms: C24_32  and  O7_33
REMARK    9  A    between atoms: C27_36  and  O8_37
REMARK                            x       y       z     vdW  Elec       q    Type
REMARK                         _______ _______ _______ _____ _____    ______ ____
ROOT
ATOM      1  C6  UNL     1      29.075  -7.737 -36.741  0.00  0.00    +0.000 C 
ENDROOT
BRANCH   1   2
ATOM      2  C7  UNL     1      29.000  -8.045 -38.241  0.00  0.00    +0.000 A 
ATOM      3  C8  UNL     1      29.693  -9.126 -38.834  0.00  0.00    +0.000 A 
ATOM      4  O2  UNL     1      30.419  -9.883 -38.134  0.00  0.00    +0.000 OA
ATOM      5  C9  UNL     1      29.588  -9.347 -40.218  0.00  0.00    +0.000 A 
ATOM      6  C10 UNL     1      30.239 -10.418 -40.858  0.00  0.00    +0.000 A 
ATOM      7  C11 UNL     1      30.104 -10.597 -42.239  0.00  0.00    +0.000 A 
ATOM      8 CL1  UNL     1      30.916 -11.934 -43.033  0.00  0.00    +0.000 Cl
ATOM      9  C12 UNL     1      29.323  -9.713 -42.989  0.00  0.00    +0.000 A 
ATOM     10  C13 UNL     1      28.675  -8.646 -42.362  0.00  0.00    +0.000 A 
ATOM     11  C14 UNL     1      28.804  -8.457 -40.982  0.00  0.00    +0.000 A 
ATOM     12  O3  UNL     1      28.192  -7.435 -40.400  0.00  0.00    +0.000 OA
ATOM     13  C15 UNL     1      28.263  -7.193 -39.095  0.00  0.00    +0.000 A 
BRANCH  13  14
ATOM     14  O4  UNL     1      27.602  -6.080 -38.584  0.00  0.00    +0.000 OA
ATOM     15  H11 UNL     1      26.873  -6.185 -37.889  0.00  0.00    +0.000 HD
ENDBRANCH  13  14
ENDBRANCH   1   2
BRANCH   1  16
ATOM     16  C16 UNL     1      27.850  -8.244 -35.968  0.00  0.00    +0.000 A 
ATOM     17  C17 UNL     1      27.009  -7.309 -35.325  0.00  0.00    +0.000 A 
ATOM     18  O5  UNL     1      27.270  -6.074 -35.387  0.00  0.00    +0.000 OA
ATOM     19  C18 UNL     1      25.880  -7.751 -34.616  0.00  0.00    +0.000 A 
ATOM     20  C19 UNL     1      25.018  -6.862 -33.946  0.00  0.00    +0.000 A 
ATOM     21  C20 UNL     1      23.906  -7.350 -33.252  0.00  0.00    +0.000 A 
ATOM     22 CL2  UNL     1      22.835  -6.239 -32.417  0.00  0.00    +0.000 Cl
ATOM     23  C21 UNL     1      23.646  -8.724 -33.223  0.00  0.00    +0.000 A 
ATOM     24  C22 UNL     1      24.494  -9.614 -33.887  0.00  0.00    +0.000 A 
ATOM     25  C23 UNL     1      25.609  -9.134 -34.584  0.00  0.00    +0.000 A 
ATOM     26  O6  UNL     1      26.402  -9.987 -35.217  0.00  0.00    +0.000 OA
ATOM     27  C24 UNL     1      27.480  -9.611 -35.899  0.00  0.00    +0.000 A 
BRANCH  27  28
ATOM     28  O7  UNL     1      28.218 -10.591 -36.553  0.00  0.00    +0.000 OA
ATOM     29  H15 UNL     1      28.964 -10.342 -37.191  0.00  0.00    +0.000 HD
ENDBRANCH  27  28
ENDBRANCH   1  16
BRANCH   1  32
ATOM     30  C3  UNL     1      31.791  -9.360 -34.526  0.00  0.00    +0.000 A 
ATOM     31  C4  UNL     1      30.548  -9.074 -35.106  0.00  0.00    +0.000 A 
ATOM     32  C5  UNL     1      30.417  -8.092 -36.108  0.00  0.00    +0.000 A 
ATOM     33  C25 UNL     1      31.561  -7.387 -36.513  0.00  0.00    +0.000 A 
ATOM     34  C26 UNL     1      32.804  -7.663 -35.945  0.00  0.00    +0.000 A 
ATOM     35  C27 UNL     1      32.933  -8.645 -34.954  0.00  0.00    +0.000 A 
BRANCH  35  36
ATOM     36  O8  UNL     1      34.192  -8.894 -34.410  0.00  0.00    +0.000 OA
ATOM     37  H18 UNL     1      34.980  -8.280 -34.582  0.00  0.00    +0.000 HD
ENDBRANCH  35  36
BRANCH  30  38
ATOM     38  O1  UNL     1      31.813 -10.358 -33.535  0.00  0.00    +0.000 OA
BRANCH  38  40
ATOM     39  C1  UNL     1      32.187 -11.416 -31.410  0.00  0.00    +0.000 C 
ATOM     40  C2  UNL     1      31.747 -10.150 -32.127  0.00  0.00    +0.000 C 
ENDBRANCH  38  40
ENDBRANCH  30  38
ENDBRANCH   1  32
TORSDOF 8
ENDMDL
MODEL 4
REMARK VINA RESULT:    -5.692      4.073      7.080
REMARK INTER + INTRA:          -8.009
REMARK INTER:                  -8.983
REMARK INTRA:                   0.974
REMARK UNBOUND:                -0.154
REMARK  Name = resultss/4CJN/ligands/lig_373_t2.pdb
REMARK  9 active torsions:
REMARK  status: ('A' for Active; 'I' for Inactive)
REMARK    1  A    between atoms: C1_1  and  C2_2
REMARK    2  A    between atoms: C2_2  and  O1_3
REMARK    3  A    between atoms: O1_3  and  C3_4
REMARK    4  A    between atoms: C5_6  and  C6_7
REMARK    5  A    between atoms: C6_7  and  C7_8
REMARK    6  A    between atoms: C6_7  and  C16_21
REMARK    7  A    between atoms: C15_19  and  O4_20
REMARK    8  A    between atoms: C24_32  and  O7_33
REMARK    9  A    between atoms: C27_36  and  O8_37
REMARK                            x       y       z     vdW  Elec       q    Type
REMARK                         _______ _______ _______ _____ _____    ______ ____
ROOT
ATOM      1  C6  UNL     1      29.440  -8.291 -40.885  0.00  0.00    +0.000 C 
ENDROOT
BRANCH   1   2
ATOM      2  C7  UNL     1      28.843  -8.701 -39.534  0.00  0.00    +0.000 A 
ATOM      3  C8  UNL     1      28.621  -7.778 -38.486  0.00  0.00    +0.000 A 
ATOM      4  O2  UNL     1      28.923  -6.561 -38.628  0.00  0.00    +0.000 OA
ATOM      5  C9  UNL     1      28.079  -8.222 -37.268  0.00  0.00    +0.000 A 
ATOM      6  C10 UNL     1      27.819  -7.345 -36.198  0.00  0.00    +0.000 A 
ATOM      7  C11 UNL     1      27.277  -7.835 -35.004  0.00  0.00    +0.000 A 
ATOM      8 CL1  UNL     1      26.953  -6.737 -33.674  0.00  0.00    +0.000 Cl
ATOM      9  C12 UNL     1      26.994  -9.197 -34.869  0.00  0.00    +0.000 A 
ATOM     10  C13 UNL     1      27.251 -10.075 -35.924  0.00  0.00    +0.000 A 
ATOM     11  C14 UNL     1      27.793  -9.596 -37.122  0.00  0.00    +0.000 A 
ATOM     12  O3  UNL     1      28.042 -10.441 -38.113  0.00  0.00    +0.000 OA
ATOM     13  C15 UNL     1      28.550 -10.060 -39.281  0.00  0.00    +0.000 A 
BRANCH  13  14
ATOM     14  O4  UNL     1      28.796 -11.029 -40.250  0.00  0.00    +0.000 OA
ATOM     15  H11 UNL     1      28.446 -11.973 -40.139  0.00  0.00    +0.000 HD
ENDBRANCH  13  14
ENDBRANCH   1   2
BRANCH   1  16
ATOM     16  C16 UNL     1      30.631  -9.166 -41.299  0.00  0.00    +0.000 A 
ATOM     17  C17 UNL     1      30.469 -10.097 -42.349  0.00  0.00    +0.000 A 
ATOM     18  O5  UNL     1      29.353 -10.205 -42.933  0.00  0.00    +0.000 OA
ATOM     19  C18 UNL     1      31.548 -10.903 -42.746  0.00  0.00    +0.000 A 
ATOM     20  C19 UNL     1      31.433 -11.856 -43.776  0.00  0.00    +0.000 A 
ATOM     21  C20 UNL     1      32.537 -12.637 -44.136  0.00  0.00    +0.000 A 
ATOM     22 CL2  UNL     1      32.390 -13.824 -45.420  0.00  0.00    +0.000 Cl
ATOM     23  C21 UNL     1      33.758 -12.473 -43.474  0.00  0.00    +0.000 A 
ATOM     24  C22 UNL     1      33.880 -11.528 -42.452  0.00  0.00    +0.000 A 
ATOM     25  C23 UNL     1      32.782 -10.742 -42.086  0.00  0.00    +0.000 A 
ATOM     26  O6  UNL     1      32.914  -9.844 -41.120  0.00  0.00    +0.000 OA
ATOM     27  C24 UNL     1      31.918  -9.060 -40.713  0.00  0.00    +0.000 A 
BRANCH  27  28
ATOM     28  O7  UNL     1      32.182  -8.129 -39.715  0.00  0.00    +0.000 OA
ATOM     29  H15 UNL     1      32.798  -7.344 -39.886  0.00  0.00    +0.000 HD
ENDBRANCH  27  28
ENDBRANCH   1  16
BRANCH   1  32
ATOM     30  C3  UNL     1      26.207  -8.513 -42.986  0.00  0.00    +0.000 A 
ATOM     31  C4  UNL     1      27.135  -8.707 -41.955  0.00  0.00    +0.000 A 
ATOM     32  C5  UNL     1      28.397  -8.080 -41.978  0.00  0.00    +0.000 A 
ATOM     33  C25 UNL     1      28.720  -7.258 -43.068  0.00  0.00    +0.000 A 
ATOM     34  C26 UNL     1      27.805  -7.056 -44.101  0.00  0.00    +0.000 A 
ATOM     35  C27 UNL     1      26.549  -7.674 -44.073  0.00  0.00    +0.000 A 
BRANCH  35  36
ATOM     36  O8  UNL     1      25.660  -7.446 -45.122  0.00  0.00    +0.000 OA
ATOM     37  H18 UNL     1      25.829  -7.806 -46.054  0.00  0.00    +0.000 HD
ENDBRANCH  35  36
BRANCH  30  38
ATOM     38  O1  UNL     1      24.976  -9.184 -42.867  0.00  0.00    +0.000 OA
BRANCH  38  40
ATOM     39  C1  UNL     1      22.770  -8.245 -42.704  0.00  0.00    +0.000 C 
ATOM     40  C2  UNL     1      23.932  -8.872 -41.950  0.00  0.00    +0.000 C 
ENDBRANCH  38  40
ENDBRANCH  30  38
ENDBRANCH   1  32
TORSDOF 8
ENDMDL
MODEL 5
REMARK VINA RESULT:    -5.495      4.139      9.289
REMARK INTER + INTRA:          -7.736
REMARK INTER:                  -8.117
REMARK INTRA:                   0.381
REMARK UNBOUND:                -0.154
REMARK  Name = resultss/4CJN/ligands/lig_373_t2.pdb
REMARK  9 active torsions:
REMARK  status: ('A' for Active; 'I' for Inactive)
REMARK    1  A    between atoms: C1_1  and  C2_2
REMARK    2  A    between atoms: C2_2  and  O1_3
REMARK    3  A    between atoms: O1_3  and  C3_4
REMARK    4  A    between atoms: C5_6  and  C6_7
REMARK    5  A    between atoms: C6_7  and  C7_8
REMARK    6  A    between atoms: C6_7  and  C16_21
REMARK    7  A    between atoms: C15_19  and  O4_20
REMARK    8  A    between atoms: C24_32  and  O7_33
REMARK    9  A    between atoms: C27_36  and  O8_37
REMARK                            x       y       z     vdW  Elec       q    Type
REMARK                         _______ _______ _______ _____ _____    ______ ____
ROOT
ATOM      1  C6  UNL     1      28.332  -8.212 -39.101  0.00  0.00    +0.000 C 
ENDROOT
BRANCH   1   2
ATOM      2  C7  UNL     1      27.397  -8.464 -40.290  0.00  0.00    +0.000 A 
ATOM      3  C8  UNL     1      26.994  -7.438 -41.175  0.00  0.00    +0.000 A 
ATOM      4  O2  UNL     1      27.392  -6.253 -41.007  0.00  0.00    +0.000 OA
ATOM      5  C9  UNL     1      26.127  -7.736 -42.240  0.00  0.00    +0.000 A 
ATOM      6  C10 UNL     1      25.709  -6.759 -43.163  0.00  0.00    +0.000 A 
ATOM      7  C11 UNL     1      24.844  -7.104 -44.208  0.00  0.00    +0.000 A 
ATOM      8 CL1  UNL     1      24.327  -5.883 -45.357  0.00  0.00    +0.000 Cl
ATOM      9  C12 UNL     1      24.392  -8.420 -44.338  0.00  0.00    +0.000 A 
ATOM     10  C13 UNL     1      24.799  -9.395 -43.426  0.00  0.00    +0.000 A 
ATOM     11  C14 UNL     1      25.662  -9.061 -42.377  0.00  0.00    +0.000 A 
ATOM     12  O3  UNL     1      26.035  -9.994 -41.511  0.00  0.00    +0.000 OA
ATOM     13  C15 UNL     1      26.855  -9.754 -40.494  0.00  0.00    +0.000 A 
BRANCH  13  14
ATOM     14  O4  UNL     1      27.168 -10.797 -39.627  0.00  0.00    +0.000 OA
ATOM     15  H11 UNL     1      26.745 -10.852 -38.708  0.00  0.00    +0.000 HD
ENDBRANCH  13  14
ENDBRANCH   1   2
BRANCH   1  16
ATOM     16  C16 UNL     1      27.746  -8.700 -37.769  0.00  0.00    +0.000 A 
ATOM     17  C17 UNL     1      26.733  -7.940 -37.144  0.00  0.00    +0.000 A 
ATOM     18  O5  UNL     1      26.323  -6.870 -37.678  0.00  0.00    +0.000 OA
ATOM     19  C18 UNL     1      26.180  -8.372 -35.928  0.00  0.00    +0.000 A 
ATOM     20  C19 UNL     1      25.180  -7.642 -35.257  0.00  0.00    +0.000 A 
ATOM     21  C20 UNL     1      24.660  -8.113 -34.046  0.00  0.00    +0.000 A 
ATOM     22 CL2  UNL     1      23.414  -7.201 -33.212  0.00  0.00    +0.000 Cl
ATOM     23  C21 UNL     1      25.132  -9.310 -33.498  0.00  0.00    +0.000 A 
ATOM     24  C22 UNL     1      26.123 -10.041 -34.159  0.00  0.00    +0.000 A 
ATOM     25  C23 UNL     1      26.648  -9.578 -35.371  0.00  0.00    +0.000 A 
ATOM     26  O6  UNL     1      27.582 -10.285 -35.991  0.00  0.00    +0.000 OA
ATOM     27  C24 UNL     1      28.132  -9.913 -37.144  0.00  0.00    +0.000 A 
BRANCH  27  28
ATOM     28  O7  UNL     1      29.078 -10.753 -37.721  0.00  0.00    +0.000 OA
ATOM     29  H15 UNL     1      28.799 -11.604 -38.192  0.00  0.00    +0.000 HD
ENDBRANCH  27  28
ENDBRANCH   1  16
BRANCH   1  32
ATOM     30  C3  UNL     1      31.485  -9.800 -40.667  0.00  0.00    +0.000 A 
ATOM     31  C4  UNL     1      30.155  -9.404 -40.474  0.00  0.00    +0.000 A 
ATOM     32  C5  UNL     1      29.774  -8.637 -39.354  0.00  0.00    +0.000 A 
ATOM     33  C25 UNL     1      30.757  -8.282 -38.417  0.00  0.00    +0.000 A 
ATOM     34  C26 UNL     1      32.084  -8.668 -38.598  0.00  0.00    +0.000 A 
ATOM     35  C27 UNL     1      32.461  -9.425 -39.715  0.00  0.00    +0.000 A 
BRANCH  35  36
ATOM     36  O8  UNL     1      33.798  -9.791 -39.862  0.00  0.00    +0.000 OA
ATOM     37  H18 UNL     1      34.394  -9.972 -39.063  0.00  0.00    +0.000 HD
ENDBRANCH  35  36
BRANCH  30  38
ATOM     38  O1  UNL     1      31.760 -10.562 -41.817  0.00  0.00    +0.000 OA
BRANCH  38  40
ATOM     39  C1  UNL     1      31.475 -12.394 -43.346  0.00  0.00    +0.000 C 
ATOM     40  C2  UNL     1      30.803 -11.232 -42.633  0.00  0.00    +0.000 C 
ENDBRANCH  38  40
ENDBRANCH  30  38
ENDBRANCH   1  32
TORSDOF 8
ENDMDL
MODEL 6
REMARK VINA RESULT:    -5.339      3.775      6.548
REMARK INTER + INTRA:          -7.522
REMARK INTER:                  -8.028
REMARK INTRA:                   0.506
REMARK UNBOUND:                -0.154
REMARK  Name = resultss/4CJN/ligands/lig_373_t2.pdb
REMARK  9 active torsions:
REMARK  status: ('A' for Active; 'I' for Inactive)
REMARK    1  A    between atoms: C1_1  and  C2_2
REMARK    2  A    between atoms: C2_2  and  O1_3
REMARK    3  A    between atoms: O1_3  and  C3_4
REMARK    4  A    between atoms: C5_6  and  C6_7
REMARK    5  A    between atoms: C6_7  and  C7_8
REMARK    6  A    between atoms: C6_7  and  C16_21
REMARK    7  A    between atoms: C15_19  and  O4_20
REMARK    8  A    between atoms: C24_32  and  O7_33
REMARK    9  A    between atoms: C27_36  and  O8_37
REMARK                            x       y       z     vdW  Elec       q    Type
REMARK                         _______ _______ _______ _____ _____    ______ ____
ROOT
ATOM      1  C6  UNL     1      28.737  -8.373 -39.719  0.00  0.00    +0.000 C 
ENDROOT
BRANCH   1   2
ATOM      2  C7  UNL     1      29.966  -8.951 -40.429  0.00  0.00    +0.000 A 
ATOM      3  C8  UNL     1      29.890 -10.058 -41.307  0.00  0.00    +0.000 A 
ATOM      4  O2  UNL     1      28.785 -10.623 -41.532  0.00  0.00    +0.000 OA
ATOM      5  C9  UNL     1      31.058 -10.544 -41.919  0.00  0.00    +0.000 A 
ATOM      6  C10 UNL     1      31.039 -11.629 -42.815  0.00  0.00    +0.000 A 
ATOM      7  C11 UNL     1      32.228 -12.078 -43.400  0.00  0.00    +0.000 A 
ATOM      8 CL1  UNL     1      32.199 -13.429 -44.518  0.00  0.00    +0.000 Cl
ATOM      9  C12 UNL     1      33.440 -11.451 -43.095  0.00  0.00    +0.000 A 
ATOM     10  C13 UNL     1      33.469 -10.376 -42.204  0.00  0.00    +0.000 A 
ATOM     11  C14 UNL     1      32.285  -9.920 -41.613  0.00  0.00    +0.000 A 
ATOM     12  O3  UNL     1      32.327  -8.904 -40.762  0.00  0.00    +0.000 OA
ATOM     13  C15 UNL     1      31.246  -8.412 -40.166  0.00  0.00    +0.000 A 
BRANCH  13  14
ATOM     14  O4  UNL     1      31.398  -7.357 -39.270  0.00  0.00    +0.000 OA
ATOM     15  H11 UNL     1      31.868  -6.505 -39.549  0.00  0.00    +0.000 HD
ENDBRANCH  13  14
ENDBRANCH   1   2
BRANCH   1  16
ATOM     16  C16 UNL     1      27.442  -8.560 -40.522  0.00  0.00    +0.000 A 
ATOM     17  C17 UNL     1      27.104  -7.611 -41.512  0.00  0.00    +0.000 A 
ATOM     18  O5  UNL     1      27.861  -6.621 -41.726  0.00  0.00    +0.000 OA
ATOM     19  C18 UNL     1      25.928  -7.767 -42.262  0.00  0.00    +0.000 A 
ATOM     20  C19 UNL     1      25.538  -6.841 -43.249  0.00  0.00    +0.000 A 
ATOM     21  C20 UNL     1      24.355  -7.039 -43.970  0.00  0.00    +0.000 A 
ATOM     22 CL2  UNL     1      23.873  -5.883 -45.199  0.00  0.00    +0.000 Cl
ATOM     23  C21 UNL     1      23.556  -8.157 -43.712  0.00  0.00    +0.000 A 
ATOM     24  C22 UNL     1      23.936  -9.082 -42.736  0.00  0.00    +0.000 A 
ATOM     25  C23 UNL     1      25.118  -8.892 -42.010  0.00  0.00    +0.000 A 
ATOM     26  O6  UNL     1      25.471  -9.781 -41.092  0.00  0.00    +0.000 OA
ATOM     27  C24 UNL     1      26.577  -9.671 -40.361  0.00  0.00    +0.000 A 
BRANCH  27  28
ATOM     28  O7  UNL     1      26.865 -10.683 -39.451  0.00  0.00    +0.000 OA
ATOM     29  H15 UNL     1      27.814 -10.849 -39.141  0.00  0.00    +0.000 HD
ENDBRANCH  27  28
ENDBRANCH   1  16
BRANCH   1  32
ATOM     30  C3  UNL     1      27.615  -8.584 -36.029  0.00  0.00    +0.000 A 
ATOM     31  C4  UNL     1      27.669  -8.220 -37.381  0.00  0.00    +0.000 A 
ATOM     32  C5  UNL     1      28.635  -8.767 -38.250  0.00  0.00    +0.000 A 
ATOM     33  C25 UNL     1      29.563  -9.682 -37.730  0.00  0.00    +0.000 A 
ATOM     34  C26 UNL     1      29.521 -10.054 -36.388  0.00  0.00    +0.000 A 
ATOM     35  C27 UNL     1      28.555  -9.515 -35.528  0.00  0.00    +0.000 A 
BRANCH  35  36
ATOM     36  O8  UNL     1      28.542  -9.911 -34.192  0.00  0.00    +0.000 OA
ATOM     37  H18 UNL     1      27.720  -9.800 -33.609  0.00  0.00    +0.000 HD
ENDBRANCH  35  36
BRANCH  30  38
ATOM     38  O1  UNL     1      26.611  -7.981 -35.249  0.00  0.00    +0.000 OA
BRANCH  38  40
ATOM     39  C1  UNL     1      25.115  -8.950 -33.638  0.00  0.00    +0.000 C 
ATOM     40  C2  UNL     1      25.282  -8.462 -35.068  0.00  0.00    +0.000 C 
ENDBRANCH  38  40
ENDBRANCH  30  38
ENDBRANCH   1  32
TORSDOF 8
ENDMDL
MODEL 7
REMARK VINA RESULT:    -5.330      4.707      8.493
REMARK INTER + INTRA:          -7.508
REMARK INTER:                  -8.304
REMARK INTRA:                   0.795
REMARK UNBOUND:                -0.154
REMARK  Name = resultss/4CJN/ligands/lig_373_t2.pdb
REMARK  9 active torsions:
REMARK  status: ('A' for Active; 'I' for Inactive)
REMARK    1  A    between atoms: C1_1  and  C2_2
REMARK    2  A    between atoms: C2_2  and  O1_3
REMARK    3  A    between atoms: O1_3  and  C3_4
REMARK    4  A    between atoms: C5_6  and  C6_7
REMARK    5  A    between atoms: C6_7  and  C7_8
REMARK    6  A    between atoms: C6_7  and  C16_21
REMARK    7  A    between atoms: C15_19  and  O4_20
REMARK    8  A    between atoms: C24_32  and  O7_33
REMARK    9  A    between atoms: C27_36  and  O8_37
REMARK                            x       y       z     vdW  Elec       q    Type
REMARK                         _______ _______ _______ _____ _____    ______ ____
ROOT
ATOM      1  C6  UNL     1      27.869  -9.160 -41.460  0.00  0.00    +0.000 C 
ENDROOT
BRANCH   1   2
ATOM      2  C7  UNL     1      27.470  -8.608 -40.087  0.00  0.00    +0.000 A 
ATOM      3  C8  UNL     1      27.153  -9.444 -38.990  0.00  0.00    +0.000 A 
ATOM      4  O2  UNL     1      27.178 -10.699 -39.113  0.00  0.00    +0.000 OA
ATOM      5  C9  UNL     1      26.786  -8.872 -37.761  0.00  0.00    +0.000 A 
ATOM      6  C10 UNL     1      26.479  -9.654 -36.631  0.00  0.00    +0.000 A 
ATOM      7  C11 UNL     1      26.119  -9.038 -35.427  0.00  0.00    +0.000 A 
ATOM      8 CL1  UNL     1      25.739 -10.017 -34.022  0.00  0.00    +0.000 Cl
ATOM      9  C12 UNL     1      26.062  -7.644 -35.342  0.00  0.00    +0.000 A 
ATOM     10  C13 UNL     1      26.363  -6.860 -36.458  0.00  0.00    +0.000 A 
ATOM     11  C14 UNL     1      26.723  -7.466 -37.667  0.00  0.00    +0.000 A 
ATOM     12  O3  UNL     1      26.997  -6.710 -38.722  0.00  0.00    +0.000 OA
ATOM     13  C15 UNL     1      27.351  -7.212 -39.901  0.00  0.00    +0.000 A 
BRANCH  13  14
ATOM     14  O4  UNL     1      27.596  -6.335 -40.953  0.00  0.00    +0.000 OA
ATOM     15  H11 UNL     1      26.903  -6.187 -41.676  0.00  0.00    +0.000 HD
ENDBRANCH  13  14
ENDBRANCH   1   2
BRANCH   1  16
ATOM     16  C16 UNL     1      27.363  -8.291 -42.620  0.00  0.00    +0.000 A 
ATOM     17  C17 UNL     1      26.038  -8.462 -43.079  0.00  0.00    +0.000 A 
ATOM     18  O5  UNL     1      25.286  -9.322 -42.539  0.00  0.00    +0.000 OA
ATOM     19  C18 UNL     1      25.554  -7.673 -44.135  0.00  0.00    +0.000 A 
ATOM     20  C19 UNL     1      24.247  -7.814 -44.639  0.00  0.00    +0.000 A 
ATOM     21  C20 UNL     1      23.810  -7.006 -45.694  0.00  0.00    +0.000 A 
ATOM     22 CL2  UNL     1      22.181  -7.185 -46.321  0.00  0.00    +0.000 Cl
ATOM     23  C21 UNL     1      24.671  -6.055 -46.252  0.00  0.00    +0.000 A 
ATOM     24  C22 UNL     1      25.969  -5.907 -45.756  0.00  0.00    +0.000 A 
ATOM     25  C23 UNL     1      26.414  -6.711 -44.700  0.00  0.00    +0.000 A 
ATOM     26  O6  UNL     1      27.645  -6.555 -44.234  0.00  0.00    +0.000 OA
ATOM     27  C24 UNL     1      28.143  -7.280 -43.236  0.00  0.00    +0.000 A 
BRANCH  27  28
ATOM     28  O7  UNL     1      29.436  -7.004 -42.806  0.00  0.00    +0.000 OA
ATOM     29  H15 UNL     1      30.231  -7.489 -43.205  0.00  0.00    +0.000 HD
ENDBRANCH  27  28
ENDBRANCH   1  16
BRANCH   1  32
ATOM     30  C3  UNL     1      31.192 -10.716 -42.665  0.00  0.00    +0.000 A 
ATOM     31  C4  UNL     1      29.842 -10.346 -42.614  0.00  0.00    +0.000 A 
ATOM     32  C5  UNL     1      29.337  -9.559 -41.558  0.00  0.00    +0.000 A 
ATOM     33  C25 UNL     1      30.215  -9.159 -40.540  0.00  0.00    +0.000 A 
ATOM     34  C26 UNL     1      31.561  -9.520 -40.578  0.00  0.00    +0.000 A 
ATOM     35  C27 UNL     1      32.062 -10.296 -41.632  0.00  0.00    +0.000 A 
BRANCH  35  36
ATOM     36  O8  UNL     1      33.414 -10.636 -41.637  0.00  0.00    +0.000 OA
ATOM     37  H18 UNL     1      33.820 -11.224 -40.919  0.00  0.00    +0.000 HD
ENDBRANCH  35  36
BRANCH  30  38
ATOM     38  O1  UNL     1      31.594 -11.501 -43.761  0.00  0.00    +0.000 OA
BRANCH  38  40
ATOM     39  C1  UNL     1      32.565 -13.303 -45.020  0.00  0.00    +0.000 C 
ATOM     40  C2  UNL     1      31.829 -12.906 -43.750  0.00  0.00    +0.000 C 
ENDBRANCH  38  40
ENDBRANCH  30  38
ENDBRANCH   1  32
TORSDOF 8
ENDMDL
MODEL 8
REMARK VINA RESULT:    -5.310      3.808      7.648
REMARK INTER + INTRA:          -7.481
REMARK INTER:                  -8.390
REMARK INTRA:                   0.909
REMARK UNBOUND:                -0.154
REMARK  Name = resultss/4CJN/ligands/lig_373_t2.pdb
REMARK  9 active torsions:
REMARK  status: ('A' for Active; 'I' for Inactive)
REMARK    1  A    between atoms: C1_1  and  C2_2
REMARK    2  A    between atoms: C2_2  and  O1_3
REMARK    3  A    between atoms: O1_3  and  C3_4
REMARK    4  A    between atoms: C5_6  and  C6_7
REMARK    5  A    between atoms: C6_7  and  C7_8
REMARK    6  A    between atoms: C6_7  and  C16_21
REMARK    7  A    between atoms: C15_19  and  O4_20
REMARK    8  A    between atoms: C24_32  and  O7_33
REMARK    9  A    between atoms: C27_36  and  O8_37
REMARK                            x       y       z     vdW  Elec       q    Type
REMARK                         _______ _______ _______ _____ _____    ______ ____
ROOT
ATOM      1  C6  UNL     1      28.621 -10.028 -40.892  0.00  0.00    +0.000 C 
ENDROOT
BRANCH   1   2
ATOM      2  C7  UNL     1      28.763  -9.228 -39.592  0.00  0.00    +0.000 A 
ATOM      3  C8  UNL     1      28.492  -9.784 -38.320  0.00  0.00    +0.000 A 
ATOM      4  O2  UNL     1      28.108 -10.981 -38.212  0.00  0.00    +0.000 OA
ATOM      5  C9  UNL     1      28.634  -8.992 -37.168  0.00  0.00    +0.000 A 
ATOM      6  C10 UNL     1      28.397  -9.498 -35.876  0.00  0.00    +0.000 A 
ATOM      7  C11 UNL     1      28.551  -8.671 -34.758  0.00  0.00    +0.000 A 
ATOM      8 CL1  UNL     1      28.256  -9.307 -33.150  0.00  0.00    +0.000 Cl
ATOM      9  C12 UNL     1      28.940  -7.338 -34.920  0.00  0.00    +0.000 A 
ATOM     10  C13 UNL     1      29.175  -6.827 -36.199  0.00  0.00    +0.000 A 
ATOM     11  C14 UNL     1      29.022  -7.645 -37.323  0.00  0.00    +0.000 A 
ATOM     12  O3  UNL     1      29.239  -7.145 -38.532  0.00  0.00    +0.000 OA
ATOM     13  C15 UNL     1      29.120  -7.861 -39.645  0.00  0.00    +0.000 A 
BRANCH  13  14
ATOM     14  O4  UNL     1      29.348  -7.237 -40.869  0.00  0.00    +0.000 OA
ATOM     15  H11 UNL     1      30.238  -6.798 -41.068  0.00  0.00    +0.000 HD
ENDBRANCH  13  14
ENDBRANCH   1   2
BRANCH   1  16
ATOM     16  C16 UNL     1      27.670  -9.364 -41.898  0.00  0.00    +0.000 A 
ATOM     17  C17 UNL     1      28.213  -8.694 -43.017  0.00  0.00    +0.000 A 
ATOM     18  O5  UNL     1      29.465  -8.644 -43.180  0.00  0.00    +0.000 OA
ATOM     19  C18 UNL     1      27.360  -8.085 -43.952  0.00  0.00    +0.000 A 
ATOM     20  C19 UNL     1      27.850  -7.393 -45.076  0.00  0.00    +0.000 A 
ATOM     21  C20 UNL     1      26.961  -6.801 -45.979  0.00  0.00    +0.000 A 
ATOM     22 CL2  UNL     1      27.576  -5.938 -47.378  0.00  0.00    +0.000 Cl
ATOM     23  C21 UNL     1      25.581  -6.895 -45.769  0.00  0.00    +0.000 A 
ATOM     24  C22 UNL     1      25.086  -7.583 -44.657  0.00  0.00    +0.000 A 
ATOM     25  C23 UNL     1      25.969  -8.178 -43.749  0.00  0.00    +0.000 A 
ATOM     26  O6  UNL     1      25.486  -8.834 -42.703  0.00  0.00    +0.000 OA
ATOM     27  C24 UNL     1      26.258  -9.425 -41.794  0.00  0.00    +0.000 A 
BRANCH  27  28
ATOM     28  O7  UNL     1      25.640 -10.115 -40.757  0.00  0.00    +0.000 OA
ATOM     29  H15 UNL     1      26.186 -10.569 -40.036  0.00  0.00    +0.000 HD
ENDBRANCH  27  28
ENDBRANCH   1  16
BRANCH   1  32
ATOM     30  C3  UNL     1      32.387 -10.314 -41.703  0.00  0.00    +0.000 A 
ATOM     31  C4  UNL     1      31.182  -9.891 -41.126  0.00  0.00    +0.000 A 
ATOM     32  C5  UNL     1      29.952 -10.482 -41.481  0.00  0.00    +0.000 A 
ATOM     33  C25 UNL     1      29.951 -11.504 -42.443  0.00  0.00    +0.000 A 
ATOM     34  C26 UNL     1      31.142 -11.936 -43.024  0.00  0.00    +0.000 A 
ATOM     35  C27 UNL     1      32.364 -11.352 -42.664  0.00  0.00    +0.000 A 
BRANCH  35  36
ATOM     36  O8  UNL     1      33.535 -11.810 -43.265  0.00  0.00    +0.000 OA
ATOM     37  H18 UNL     1      34.272 -12.256 -42.730  0.00  0.00    +0.000 HD
ENDBRANCH  35  36
BRANCH  30  38
ATOM     38  O1  UNL     1      33.558  -9.660 -41.279  0.00  0.00    +0.000 OA
BRANCH  38  40
ATOM     39  C1  UNL     1      34.336  -9.980 -39.028  0.00  0.00    +0.000 C 
ATOM     40  C2  UNL     1      33.749  -8.999 -40.031  0.00  0.00    +0.000 C 
ENDBRANCH  38  40
ENDBRANCH  30  38
ENDBRANCH   1  32
TORSDOF 8
ENDMDL
MODEL 9
REMARK VINA RESULT:    -5.221      4.001      7.891
REMARK INTER + INTRA:          -7.359
REMARK INTER:                  -7.842
REMARK INTRA:                   0.483
REMARK UNBOUND:                -0.154
REMARK  Name = resultss/4CJN/ligands/lig_373_t2.pdb
REMARK  9 active torsions:
REMARK  status: ('A' for Active; 'I' for Inactive)
REMARK    1  A    between atoms: C1_1  and  C2_2
REMARK    2  A    between atoms: C2_2  and  O1_3
REMARK    3  A    between atoms: O1_3  and  C3_4
REMARK    4  A    between atoms: C5_6  and  C6_7
REMARK    5  A    between atoms: C6_7  and  C7_8
REMARK    6  A    between atoms: C6_7  and  C16_21
REMARK    7  A    between atoms: C15_19  and  O4_20
REMARK    8  A    between atoms: C24_32  and  O7_33
REMARK    9  A    between atoms: C27_36  and  O8_37
REMARK                            x       y       z     vdW  Elec       q    Type
REMARK                         _______ _______ _______ _____ _____    ______ ____
ROOT
ATOM      1  C6  UNL     1      28.627  -9.992 -40.920  0.00  0.00    +0.000 C 
ENDROOT
BRANCH   1   2
ATOM      2  C7  UNL     1      28.824  -9.179 -39.635  0.00  0.00    +0.000 A 
ATOM      3  C8  UNL     1      28.570  -9.710 -38.349  0.00  0.00    +0.000 A 
ATOM      4  O2  UNL     1      28.155 -10.894 -38.215  0.00  0.00    +0.000 OA
ATOM      5  C9  UNL     1      28.763  -8.907 -37.212  0.00  0.00    +0.000 A 
ATOM      6  C10 UNL     1      28.545  -9.389 -35.907  0.00  0.00    +0.000 A 
ATOM      7  C11 UNL     1      28.750  -8.551 -34.806  0.00  0.00    +0.000 A 
ATOM      8 CL1  UNL     1      28.479  -9.157 -33.182  0.00  0.00    +0.000 Cl
ATOM      9  C12 UNL     1      29.172  -7.232 -34.996  0.00  0.00    +0.000 A 
ATOM     10  C13 UNL     1      29.388  -6.745 -36.287  0.00  0.00    +0.000 A 
ATOM     11  C14 UNL     1      29.184  -7.574 -37.396  0.00  0.00    +0.000 A 
ATOM     12  O3  UNL     1      29.384  -7.096 -38.617  0.00  0.00    +0.000 OA
ATOM     13  C15 UNL     1      29.217  -7.824 -39.716  0.00  0.00    +0.000 A 
BRANCH  13  14
ATOM     14  O4  UNL     1      29.431  -7.223 -40.954  0.00  0.00    +0.000 OA
ATOM     15  H11 UNL     1      28.656  -6.848 -41.488  0.00  0.00    +0.000 HD
ENDBRANCH  13  14
ENDBRANCH   1   2
BRANCH   1  16
ATOM     16  C16 UNL     1      27.693  -9.301 -41.923  0.00  0.00    +0.000 A 
ATOM     17  C17 UNL     1      26.315  -9.211 -41.629  0.00  0.00    +0.000 A 
ATOM     18  O5  UNL     1      25.863  -9.698 -40.553  0.00  0.00    +0.000 OA
ATOM     19  C18 UNL     1      25.444  -8.579 -42.531  0.00  0.00    +0.000 A 
ATOM     20  C19 UNL     1      24.060  -8.476 -42.292  0.00  0.00    +0.000 A 
ATOM     21  C20 UNL     1      23.232  -7.837 -43.221  0.00  0.00    +0.000 A 
ATOM     22 CL2  UNL     1      21.508  -7.712 -42.920  0.00  0.00    +0.000 Cl
ATOM     23  C21 UNL     1      23.777  -7.298 -44.391  0.00  0.00    +0.000 A 
ATOM     24  C22 UNL     1      25.149  -7.394 -44.635  0.00  0.00    +0.000 A 
ATOM     25  C23 UNL     1      25.985  -8.030 -43.711  0.00  0.00    +0.000 A 
ATOM     26  O6  UNL     1      27.286  -8.107 -43.950  0.00  0.00    +0.000 OA
ATOM     27  C24 UNL     1      28.146  -8.697 -43.123  0.00  0.00    +0.000 A 
BRANCH  27  28
ATOM     28  O7  UNL     1      29.494  -8.686 -43.462  0.00  0.00    +0.000 OA
ATOM     29  H15 UNL     1      29.811  -9.059 -44.348  0.00  0.00    +0.000 HD
ENDBRANCH  27  28
ENDBRANCH   1  16
BRANCH   1  32
ATOM     30  C3  UNL     1      32.358 -10.430 -41.817  0.00  0.00    +0.000 A 
ATOM     31  C4  UNL     1      31.183  -9.942 -41.232  0.00  0.00    +0.000 A 
ATOM     32  C5  UNL     1      29.927 -10.516 -41.519  0.00  0.00    +0.000 A 
ATOM     33  C25 UNL     1      29.870 -11.588 -42.422  0.00  0.00    +0.000 A 
ATOM     34  C26 UNL     1      31.032 -12.085 -43.011  0.00  0.00    +0.000 A 
ATOM     35  C27 UNL     1      32.279 -11.518 -42.719  0.00  0.00    +0.000 A 
BRANCH  35  36
ATOM     36  O8  UNL     1      33.419 -12.042 -43.326  0.00  0.00    +0.000 OA
ATOM     37  H18 UNL     1      33.436 -12.979 -43.713  0.00  0.00    +0.000 HD
ENDBRANCH  35  36
BRANCH  30  38
ATOM     38  O1  UNL     1      33.558  -9.788 -41.463  0.00  0.00    +0.000 OA
BRANCH  38  40
ATOM     39  C1  UNL     1      34.297  -7.862 -40.231  0.00  0.00    +0.000 C 
ATOM     40  C2  UNL     1      33.918  -9.332 -40.162  0.00  0.00    +0.000 C 
ENDBRANCH  38  40
ENDBRANCH  30  38
ENDBRANCH   1  32
TORSDOF 8
ENDMDL
