MODEL 1
REMARK VINA RESULT:    -5.964      0.000      0.000
REMARK INTER + INTRA:          -8.800
REMARK INTER:                  -7.882
REMARK INTRA:                  -0.918
REMARK UNBOUND:                -0.918
REMARK  Name = resultss/4CJN/ligands/lig_392_t0.pdb
REMARK  7 active torsions:
REMARK  status: ('A' for Active; 'I' for Inactive)
REMARK    1  A    between atoms: C1_1  and  C2_2
REMARK    2  A    between atoms: C5_5  and  S1_6
REMARK    3  A    between atoms: S1_6  and  O3_9
REMARK    4  A    between atoms: O3_9  and  C6_10
REMARK    5  A    between atoms: C9_13  and  C10_14
REMARK    6  A    between atoms: N1_15  and  N2_16
REMARK    7  A    between atoms: C12_19  and  O4_20
REMARK                            x       y       z     vdW  Elec       q    Type
REMARK                         _______ _______ _______ _____ _____    ______ ____
ROOT
ATOM      1  C6  UNL     1      28.698  -8.831 -36.741  0.00  0.00    +0.000 A 
ATOM      2  C7  UNL     1      27.947  -7.757 -37.252  0.00  0.00    +0.000 A 
ATOM      3  C8  UNL     1      27.084  -7.950 -38.335  0.00  0.00    +0.000 A 
ATOM      4  C9  UNL     1      26.957  -9.220 -38.925  0.00  0.00    +0.000 A 
ATOM      5  C14 UNL     1      27.706 -10.288 -38.414  0.00  0.00    +0.000 A 
ATOM      6  C15 UNL     1      28.568 -10.093 -37.331  0.00  0.00    +0.000 A 
ENDROOT
BRANCH   4   7
ATOM      7  C10 UNL     1      26.052  -9.451 -40.070  0.00  0.00    +0.000 C 
ATOM      8  N1  UNL     1      24.805  -9.094 -40.022  0.00  0.00    +0.000 NA
BRANCH   8   9
ATOM      9  N2  UNL     1      23.901  -9.310 -41.078  0.00  0.00    +0.000 N 
ATOM     10  C11 UNL     1      23.625  -8.338 -42.097  0.00  0.00    +0.000 A 
ATOM     11  N3  UNL     1      22.610  -8.475 -42.977  0.00  0.00    +0.000 NA
ATOM     12  C12 UNL     1      22.602  -7.465 -43.888  0.00  0.00    +0.000 A 
ATOM     13  C13 UNL     1      23.617  -6.526 -43.756  0.00  0.00    +0.000 A 
ATOM     14  S2  UNL     1      24.565  -6.982 -42.443  0.00  0.00    +0.000 S 
ATOM     15  H9  UNL     1      23.510 -10.270 -41.201  0.00  0.00    +0.000 HD
BRANCH  12  16
ATOM     16  O4  UNL     1      21.641  -7.386 -44.890  0.00  0.00    +0.000 OA
ATOM     17  H10 UNL     1      21.777  -6.782 -45.691  0.00  0.00    +0.000 HD
ENDBRANCH  12  16
ENDBRANCH   8   9
ENDBRANCH   4   7
BRANCH   1  18
ATOM     18  O3  UNL     1      29.578  -8.696 -35.659  0.00  0.00    +0.000 OA
BRANCH  18  19
ATOM     19  S1  UNL     1      29.157  -8.954 -34.019  0.00  0.00    +0.000 S 
ATOM     20  O1  UNL     1      29.641 -10.305 -33.573  0.00  0.00    +0.000 OA
ATOM     21  O2  UNL     1      29.790  -7.883 -33.175  0.00  0.00    +0.000 OA
BRANCH  19  26
ATOM     22  C1  UNL     1      23.118  -8.679 -33.488  0.00  0.00    +0.000 C 
ATOM     23  C2  UNL     1      24.612  -8.757 -33.587  0.00  0.00    +0.000 A 
ATOM     24  C3  UNL     1      25.402  -7.632 -33.301  0.00  0.00    +0.000 A 
ATOM     25  C4  UNL     1      26.793  -7.696 -33.428  0.00  0.00    +0.000 A 
ATOM     26  C5  UNL     1      27.408  -8.880 -33.852  0.00  0.00    +0.000 A 
ATOM     27  C16 UNL     1      26.621  -9.997 -34.163  0.00  0.00    +0.000 A 
ATOM     28  C17 UNL     1      25.230  -9.935 -34.036  0.00  0.00    +0.000 A 
ENDBRANCH  19  26
ENDBRANCH  18  19
ENDBRANCH   1  18
TORSDOF 6
ENDMDL
MODEL 2
REMARK VINA RESULT:    -5.778      4.884      9.936
REMARK INTER + INTRA:          -8.554
REMARK INTER:                  -7.881
REMARK INTRA:                  -0.673
REMARK UNBOUND:                -0.918
REMARK  Name = resultss/4CJN/ligands/lig_392_t0.pdb
REMARK  7 active torsions:
REMARK  status: ('A' for Active; 'I' for Inactive)
REMARK    1  A    between atoms: C1_1  and  C2_2
REMARK    2  A    between atoms: C5_5  and  S1_6
REMARK    3  A    between atoms: S1_6  and  O3_9
REMARK    4  A    between atoms: O3_9  and  C6_10
REMARK    5  A    between atoms: C9_13  and  C10_14
REMARK    6  A    between atoms: N1_15  and  N2_16
REMARK    7  A    between atoms: C12_19  and  O4_20
REMARK                            x       y       z     vdW  Elec       q    Type
REMARK                         _______ _______ _______ _____ _____    ______ ____
ROOT
ATOM      1  C6  UNL     1      26.781  -8.404 -38.435  0.00  0.00    +0.000 A 
ATOM      2  C7  UNL     1      25.852  -8.804 -37.456  0.00  0.00    +0.000 A 
ATOM      3  C8  UNL     1      26.292  -9.319 -36.233  0.00  0.00    +0.000 A 
ATOM      4  C9  UNL     1      27.668  -9.442 -35.967  0.00  0.00    +0.000 A 
ATOM      5  C14 UNL     1      28.590  -9.041 -36.943  0.00  0.00    +0.000 A 
ATOM      6  C15 UNL     1      28.148  -8.527 -38.165  0.00  0.00    +0.000 A 
ENDROOT
BRANCH   4   7
ATOM      7  C10 UNL     1      28.160  -9.981 -34.683  0.00  0.00    +0.000 C 
ATOM      8  N1  UNL     1      29.278  -9.571 -34.168  0.00  0.00    +0.000 NA
BRANCH   8   9
ATOM      9  N2  UNL     1      29.798 -10.068 -32.959  0.00  0.00    +0.000 N 
ATOM     10  C11 UNL     1      31.200 -10.249 -32.713  0.00  0.00    +0.000 A 
ATOM     11  N3  UNL     1      31.669 -10.917 -31.637  0.00  0.00    +0.000 NA
ATOM     12  C12 UNL     1      33.028 -10.887 -31.586  0.00  0.00    +0.000 A 
ATOM     13  C13 UNL     1      33.654 -10.183 -32.608  0.00  0.00    +0.000 A 
ATOM     14  S2  UNL     1      32.452  -9.570 -33.614  0.00  0.00    +0.000 S 
ATOM     15  H9  UNL     1      29.142 -10.187 -32.155  0.00  0.00    +0.000 HD
BRANCH  12  16
ATOM     16  O4  UNL     1      33.741 -11.517 -30.572  0.00  0.00    +0.000 OA
ATOM     17  H10 UNL     1      34.543 -11.067 -30.147  0.00  0.00    +0.000 HD
ENDBRANCH  12  16
ENDBRANCH   8   9
ENDBRANCH   4   7
BRANCH   1  18
ATOM     18  O3  UNL     1      26.397  -7.883 -39.677  0.00  0.00    +0.000 OA
BRANCH  18  19
ATOM     19  S1  UNL     1      26.123  -8.816 -41.087  0.00  0.00    +0.000 S 
ATOM     20  O1  UNL     1      25.231  -9.981 -40.765  0.00  0.00    +0.000 OA
ATOM     21  O2  UNL     1      25.473  -7.950 -42.130  0.00  0.00    +0.000 OA
BRANCH  19  26
ATOM     22  C1  UNL     1      31.411 -10.910 -43.204  0.00  0.00    +0.000 C 
ATOM     23  C2  UNL     1      30.121 -10.373 -42.660  0.00  0.00    +0.000 A 
ATOM     24  C3  UNL     1      29.480 -11.017 -41.589  0.00  0.00    +0.000 A 
ATOM     25  C4  UNL     1      28.260 -10.535 -41.106  0.00  0.00    +0.000 A 
ATOM     26  C5  UNL     1      27.662  -9.413 -41.693  0.00  0.00    +0.000 A 
ATOM     27  C16 UNL     1      28.287  -8.783 -42.778  0.00  0.00    +0.000 A 
ATOM     28  C17 UNL     1      29.508  -9.263 -43.262  0.00  0.00    +0.000 A 
ENDBRANCH  19  26
ENDBRANCH  18  19
ENDBRANCH   1  18
TORSDOF 6
ENDMDL
MODEL 3
REMARK VINA RESULT:    -5.477      3.537      4.571
REMARK INTER + INTRA:          -8.156
REMARK INTER:                  -7.626
REMARK INTRA:                  -0.530
REMARK UNBOUND:                -0.918
REMARK  Name = resultss/4CJN/ligands/lig_392_t0.pdb
REMARK  7 active torsions:
REMARK  status: ('A' for Active; 'I' for Inactive)
REMARK    1  A    between atoms: C1_1  and  C2_2
REMARK    2  A    between atoms: C5_5  and  S1_6
REMARK    3  A    between atoms: S1_6  and  O3_9
REMARK    4  A    between atoms: O3_9  and  C6_10
REMARK    5  A    between atoms: C9_13  and  C10_14
REMARK    6  A    between atoms: N1_15  and  N2_16
REMARK    7  A    between atoms: C12_19  and  O4_20
REMARK                            x       y       z     vdW  Elec       q    Type
REMARK                         _______ _______ _______ _____ _____    ______ ____
ROOT
ATOM      1  C6  UNL     1      28.322 -10.183 -41.033  0.00  0.00    +0.000 A 
ATOM      2  C7  UNL     1      27.099 -10.467 -40.397  0.00  0.00    +0.000 A 
ATOM      3  C8  UNL     1      25.888 -10.173 -41.031  0.00  0.00    +0.000 A 
ATOM      4  C9  UNL     1      25.879  -9.589 -42.311  0.00  0.00    +0.000 A 
ATOM      5  C14 UNL     1      27.099  -9.309 -42.942  0.00  0.00    +0.000 A 
ATOM      6  C15 UNL     1      28.308  -9.604 -42.306  0.00  0.00    +0.000 A 
ENDROOT
BRANCH   4   7
ATOM      7  C10 UNL     1      24.614  -9.269 -43.003  0.00  0.00    +0.000 C 
ATOM      8  N1  UNL     1      24.475  -8.161 -43.666  0.00  0.00    +0.000 NA
BRANCH   8   9
ATOM      9  N2  UNL     1      23.285  -7.803 -44.325  0.00  0.00    +0.000 N 
ATOM     10  C11 UNL     1      22.113  -7.331 -43.644  0.00  0.00    +0.000 A 
ATOM     11  N3  UNL     1      20.920  -7.191 -44.262  0.00  0.00    +0.000 NA
ATOM     12  C12 UNL     1      19.987  -6.657 -43.428  0.00  0.00    +0.000 A 
ATOM     13  C13 UNL     1      20.429  -6.351 -42.147  0.00  0.00    +0.000 A 
ATOM     14  S2  UNL     1      22.058  -6.764 -42.058  0.00  0.00    +0.000 S 
ATOM     15  H9  UNL     1      23.296  -7.752 -45.368  0.00  0.00    +0.000 HD
BRANCH  12  16
ATOM     16  O4  UNL     1      18.679  -6.429 -43.838  0.00  0.00    +0.000 OA
ATOM     17  H10 UNL     1      18.430  -5.576 -44.325  0.00  0.00    +0.000 HD
ENDBRANCH  12  16
ENDBRANCH   8   9
ENDBRANCH   4   7
BRANCH   1  18
ATOM     18  O3  UNL     1      29.564 -10.456 -40.445  0.00  0.00    +0.000 OA
BRANCH  18  19
ATOM     19  S1  UNL     1      30.508  -9.319 -39.580  0.00  0.00    +0.000 S 
ATOM     20  O1  UNL     1      31.969  -9.605 -39.782  0.00  0.00    +0.000 OA
ATOM     21  O2  UNL     1      30.186  -7.936 -40.075  0.00  0.00    +0.000 OA
BRANCH  19  26
ATOM     22  C1  UNL     1      29.194  -9.670 -33.665  0.00  0.00    +0.000 C 
ATOM     23  C2  UNL     1      29.519  -9.617 -35.128  0.00  0.00    +0.000 A 
ATOM     24  C3  UNL     1      30.855  -9.579 -35.558  0.00  0.00    +0.000 A 
ATOM     25  C4  UNL     1      31.156  -9.494 -36.920  0.00  0.00    +0.000 A 
ATOM     26  C5  UNL     1      30.125  -9.435 -37.866  0.00  0.00    +0.000 A 
ATOM     27  C16 UNL     1      28.790  -9.447 -37.440  0.00  0.00    +0.000 A 
ATOM     28  C17 UNL     1      28.488  -9.533 -36.078  0.00  0.00    +0.000 A 
ENDBRANCH  19  26
ENDBRANCH  18  19
ENDBRANCH   1  18
TORSDOF 6
ENDMDL
MODEL 4
REMARK VINA RESULT:    -5.466      2.528      3.779
REMARK INTER + INTRA:          -8.142
REMARK INTER:                  -7.539
REMARK INTRA:                  -0.603
REMARK UNBOUND:                -0.918
REMARK  Name = resultss/4CJN/ligands/lig_392_t0.pdb
REMARK  7 active torsions:
REMARK  status: ('A' for Active; 'I' for Inactive)
REMARK    1  A    between atoms: C1_1  and  C2_2
REMARK    2  A    between atoms: C5_5  and  S1_6
REMARK    3  A    between atoms: S1_6  and  O3_9
REMARK    4  A    between atoms: O3_9  and  C6_10
REMARK    5  A    between atoms: C9_13  and  C10_14
REMARK    6  A    between atoms: N1_15  and  N2_16
REMARK    7  A    between atoms: C12_19  and  O4_20
REMARK                            x       y       z     vdW  Elec       q    Type
REMARK                         _______ _______ _______ _____ _____    ______ ____
ROOT
ATOM      1  C6  UNL     1      27.435 -10.075 -40.518  0.00  0.00    +0.000 A 
ATOM      2  C7  UNL     1      26.034 -10.041 -40.390  0.00  0.00    +0.000 A 
ATOM      3  C8  UNL     1      25.238  -9.600 -41.452  0.00  0.00    +0.000 A 
ATOM      4  C9  UNL     1      25.828  -9.186 -42.659  0.00  0.00    +0.000 A 
ATOM      5  C14 UNL     1      27.224  -9.222 -42.784  0.00  0.00    +0.000 A 
ATOM      6  C15 UNL     1      28.017  -9.663 -41.722  0.00  0.00    +0.000 A 
ENDROOT
BRANCH   4   7
ATOM      7  C10 UNL     1      25.011  -8.717 -43.796  0.00  0.00    +0.000 C 
ATOM      8  N1  UNL     1      24.018  -7.899 -43.616  0.00  0.00    +0.000 NA
BRANCH   8   9
ATOM      9  N2  UNL     1      23.200  -7.440 -44.664  0.00  0.00    +0.000 N 
ATOM     10  C11 UNL     1      21.795  -7.183 -44.518  0.00  0.00    +0.000 A 
ATOM     11  N3  UNL     1      20.986  -6.946 -45.574  0.00  0.00    +0.000 NA
ATOM     12  C12 UNL     1      19.719  -6.656 -45.173  0.00  0.00    +0.000 A 
ATOM     13  C13 UNL     1      19.508  -6.643 -43.800  0.00  0.00    +0.000 A 
ATOM     14  S2  UNL     1      20.974  -7.007 -43.057  0.00  0.00    +0.000 S 
ATOM     15  H9  UNL     1      23.659  -7.146 -45.554  0.00  0.00    +0.000 HD
BRANCH  12  16
ATOM     16  O4  UNL     1      18.704  -6.386 -46.084  0.00  0.00    +0.000 OA
ATOM     17  H10 UNL     1      18.170  -5.527 -46.024  0.00  0.00    +0.000 HD
ENDBRANCH  12  16
ENDBRANCH   8   9
ENDBRANCH   4   7
BRANCH   1  18
ATOM     18  O3  UNL     1      28.281 -10.507 -39.489  0.00  0.00    +0.000 OA
BRANCH  18  19
ATOM     19  S1  UNL     1      28.905  -9.502 -38.250  0.00  0.00    +0.000 S 
ATOM     20  O1  UNL     1      30.213 -10.051 -37.755  0.00  0.00    +0.000 OA
ATOM     21  O2  UNL     1      29.109  -8.117 -38.798  0.00  0.00    +0.000 OA
BRANCH  19  26
ATOM     22  C1  UNL     1      24.967  -9.270 -33.638  0.00  0.00    +0.000 C 
ATOM     23  C2  UNL     1      25.928  -9.357 -34.786  0.00  0.00    +0.000 A 
ATOM     24  C3  UNL     1      27.199  -9.925 -34.606  0.00  0.00    +0.000 A 
ATOM     25  C4  UNL     1      28.106  -9.974 -35.669  0.00  0.00    +0.000 A 
ATOM     26  C5  UNL     1      27.757  -9.446 -36.918  0.00  0.00    +0.000 A 
ATOM     27  C16 UNL     1      26.499  -8.856 -37.094  0.00  0.00    +0.000 A 
ATOM     28  C17 UNL     1      25.590  -8.807 -36.033  0.00  0.00    +0.000 A 
ENDBRANCH  19  26
ENDBRANCH  18  19
ENDBRANCH   1  18
TORSDOF 6
ENDMDL
MODEL 5
REMARK VINA RESULT:    -5.456      5.011      8.639
REMARK INTER + INTRA:          -8.129
REMARK INTER:                  -7.795
REMARK INTRA:                  -0.334
REMARK UNBOUND:                -0.918
REMARK  Name = resultss/4CJN/ligands/lig_392_t0.pdb
REMARK  7 active torsions:
REMARK  status: ('A' for Active; 'I' for Inactive)
REMARK    1  A    between atoms: C1_1  and  C2_2
REMARK    2  A    between atoms: C5_5  and  S1_6
REMARK    3  A    between atoms: S1_6  and  O3_9
REMARK    4  A    between atoms: O3_9  and  C6_10
REMARK    5  A    between atoms: C9_13  and  C10_14
REMARK    6  A    between atoms: N1_15  and  N2_16
REMARK    7  A    between atoms: C12_19  and  O4_20
REMARK                            x       y       z     vdW  Elec       q    Type
REMARK                         _______ _______ _______ _____ _____    ______ ____
ROOT
ATOM      1  C6  UNL     1      30.356  -9.930 -37.961  0.00  0.00    +0.000 A 
ATOM      2  C7  UNL     1      29.009 -10.180 -38.284  0.00  0.00    +0.000 A 
ATOM      3  C8  UNL     1      28.010 -10.026 -37.319  0.00  0.00    +0.000 A 
ATOM      4  C9  UNL     1      28.339  -9.619 -36.013  0.00  0.00    +0.000 A 
ATOM      5  C14 UNL     1      29.681  -9.369 -35.695  0.00  0.00    +0.000 A 
ATOM      6  C15 UNL     1      30.678  -9.524 -36.662  0.00  0.00    +0.000 A 
ENDROOT
BRANCH   4   7
ATOM      7  C10 UNL     1      27.304  -9.449 -34.974  0.00  0.00    +0.000 C 
ATOM      8  N1  UNL     1      26.052  -9.676 -35.232  0.00  0.00    +0.000 NA
BRANCH   8   9
ATOM      9  N2  UNL     1      25.028  -9.509 -34.281  0.00  0.00    +0.000 N 
ATOM     10  C11 UNL     1      24.457  -8.235 -33.947  0.00  0.00    +0.000 A 
ATOM     11  N3  UNL     1      23.630  -8.064 -32.892  0.00  0.00    +0.000 NA
ATOM     12  C12 UNL     1      23.162  -6.788 -32.830  0.00  0.00    +0.000 A 
ATOM     13  C13 UNL     1      23.596  -5.937 -33.838  0.00  0.00    +0.000 A 
ATOM     14  S2  UNL     1      24.606  -6.822 -34.853  0.00  0.00    +0.000 S 
ATOM     15  H9  UNL     1      24.570 -10.365 -33.897  0.00  0.00    +0.000 HD
BRANCH  12  16
ATOM     16  O4  UNL     1      22.301  -6.369 -31.822  0.00  0.00    +0.000 OA
ATOM     17  H10 UNL     1      21.298  -6.373 -31.964  0.00  0.00    +0.000 HD
ENDBRANCH  12  16
ENDBRANCH   8   9
ENDBRANCH   4   7
BRANCH   1  18
ATOM     18  O3  UNL     1      31.397 -10.068 -38.888  0.00  0.00    +0.000 OA
BRANCH  18  19
ATOM     19  S1  UNL     1      31.523  -9.193 -40.355  0.00  0.00    +0.000 S 
ATOM     20  O1  UNL     1      30.253  -8.430 -40.607  0.00  0.00    +0.000 OA
ATOM     21  O2  UNL     1      32.681  -8.239 -40.261  0.00  0.00    +0.000 OA
BRANCH  19  26
ATOM     22  C1  UNL     1      32.467 -13.117 -44.888  0.00  0.00    +0.000 C 
ATOM     23  C2  UNL     1      32.232 -12.123 -43.790  0.00  0.00    +0.000 A 
ATOM     24  C3  UNL     1      33.315 -11.477 -43.173  0.00  0.00    +0.000 A 
ATOM     25  C4  UNL     1      33.096 -10.577 -42.126  0.00  0.00    +0.000 A 
ATOM     26  C5  UNL     1      31.794 -10.320 -41.678  0.00  0.00    +0.000 A 
ATOM     27  C16 UNL     1      30.712 -10.982 -42.275  0.00  0.00    +0.000 A 
ATOM     28  C17 UNL     1      30.930 -11.882 -43.323  0.00  0.00    +0.000 A 
ENDBRANCH  19  26
ENDBRANCH  18  19
ENDBRANCH   1  18
TORSDOF 6
ENDMDL
MODEL 6
REMARK VINA RESULT:    -5.420      2.690      3.427
REMARK INTER + INTRA:          -8.081
REMARK INTER:                  -7.601
REMARK INTRA:                  -0.481
REMARK UNBOUND:                -0.918
REMARK  Name = resultss/4CJN/ligands/lig_392_t0.pdb
REMARK  7 active torsions:
REMARK  status: ('A' for Active; 'I' for Inactive)
REMARK    1  A    between atoms: C1_1  and  C2_2
REMARK    2  A    between atoms: C5_5  and  S1_6
REMARK    3  A    between atoms: S1_6  and  O3_9
REMARK    4  A    between atoms: O3_9  and  C6_10
REMARK    5  A    between atoms: C9_13  and  C10_14
REMARK    6  A    between atoms: N1_15  and  N2_16
REMARK    7  A    between atoms: C12_19  and  O4_20
REMARK                            x       y       z     vdW  Elec       q    Type
REMARK                         _______ _______ _______ _____ _____    ______ ____
ROOT
ATOM      1  C6  UNL     1      27.866  -8.601 -39.548  0.00  0.00    +0.000 A 
ATOM      2  C7  UNL     1      28.378  -9.503 -40.499  0.00  0.00    +0.000 A 
ATOM      3  C8  UNL     1      27.910  -9.483 -41.816  0.00  0.00    +0.000 A 
ATOM      4  C9  UNL     1      26.922  -8.561 -42.205  0.00  0.00    +0.000 A 
ATOM      5  C14 UNL     1      26.414  -7.663 -41.256  0.00  0.00    +0.000 A 
ATOM      6  C15 UNL     1      26.884  -7.685 -39.940  0.00  0.00    +0.000 A 
ENDROOT
BRANCH   4   7
ATOM      7  C10 UNL     1      26.410  -8.517 -43.590  0.00  0.00    +0.000 C 
ATOM      8  N1  UNL     1      26.420  -7.414 -44.274  0.00  0.00    +0.000 NA
BRANCH   8   9
ATOM      9  N2  UNL     1      25.926  -7.319 -45.588  0.00  0.00    +0.000 N 
ATOM     10  C11 UNL     1      24.527  -7.293 -45.909  0.00  0.00    +0.000 A 
ATOM     11  N3  UNL     1      24.070  -7.412 -47.175  0.00  0.00    +0.000 NA
ATOM     12  C12 UNL     1      22.717  -7.281 -47.229  0.00  0.00    +0.000 A 
ATOM     13  C13 UNL     1      22.086  -7.041 -46.015  0.00  0.00    +0.000 A 
ATOM     14  S2  UNL     1      23.274  -6.987 -44.824  0.00  0.00    +0.000 S 
ATOM     15  H9  UNL     1      26.606  -7.125 -46.356  0.00  0.00    +0.000 HD
BRANCH  12  16
ATOM     16  O4  UNL     1      22.016  -7.377 -48.425  0.00  0.00    +0.000 OA
ATOM     17  H10 UNL     1      21.171  -7.933 -48.487  0.00  0.00    +0.000 HD
ENDBRANCH  12  16
ENDBRANCH   8   9
ENDBRANCH   4   7
BRANCH   1  18
ATOM     18  O3  UNL     1      28.298  -8.577 -38.215  0.00  0.00    +0.000 OA
BRANCH  18  19
ATOM     19  S1  UNL     1      27.990  -9.808 -37.065  0.00  0.00    +0.000 S 
ATOM     20  O1  UNL     1      27.681 -11.100 -37.767  0.00  0.00    +0.000 OA
ATOM     21  O2  UNL     1      29.203  -9.980 -36.194  0.00  0.00    +0.000 OA
BRANCH  19  26
ATOM     22  C1  UNL     1      23.216  -8.237 -33.663  0.00  0.00    +0.000 C 
ATOM     23  C2  UNL     1      24.411  -8.598 -34.494  0.00  0.00    +0.000 A 
ATOM     24  C3  UNL     1      24.493  -8.189 -35.835  0.00  0.00    +0.000 A 
ATOM     25  C4  UNL     1      25.591  -8.555 -36.618  0.00  0.00    +0.000 A 
ATOM     26  C5  UNL     1      26.614  -9.342 -36.074  0.00  0.00    +0.000 A 
ATOM     27  C16 UNL     1      26.523  -9.773 -34.743  0.00  0.00    +0.000 A 
ATOM     28  C17 UNL     1      25.426  -9.406 -33.959  0.00  0.00    +0.000 A 
ENDBRANCH  19  26
ENDBRANCH  18  19
ENDBRANCH   1  18
TORSDOF 6
ENDMDL
MODEL 7
REMARK VINA RESULT:    -5.403      3.202      3.582
REMARK INTER + INTRA:          -8.059
REMARK INTER:                  -7.442
REMARK INTRA:                  -0.617
REMARK UNBOUND:                -0.918
REMARK  Name = resultss/4CJN/ligands/lig_392_t0.pdb
REMARK  7 active torsions:
REMARK  status: ('A' for Active; 'I' for Inactive)
REMARK    1  A    between atoms: C1_1  and  C2_2
REMARK    2  A    between atoms: C5_5  and  S1_6
REMARK    3  A    between atoms: S1_6  and  O3_9
REMARK    4  A    between atoms: O3_9  and  C6_10
REMARK    5  A    between atoms: C9_13  and  C10_14
REMARK    6  A    between atoms: N1_15  and  N2_16
REMARK    7  A    between atoms: C12_19  and  O4_20
REMARK                            x       y       z     vdW  Elec       q    Type
REMARK                         _______ _______ _______ _____ _____    ______ ____
ROOT
ATOM      1  C6  UNL     1      27.750 -10.169 -38.808  0.00  0.00    +0.000 A 
ATOM      2  C7  UNL     1      26.654  -9.628 -39.506  0.00  0.00    +0.000 A 
ATOM      3  C8  UNL     1      26.774  -9.286 -40.856  0.00  0.00    +0.000 A 
ATOM      4  C9  UNL     1      27.992  -9.479 -41.532  0.00  0.00    +0.000 A 
ATOM      5  C14 UNL     1      29.082 -10.018 -40.835  0.00  0.00    +0.000 A 
ATOM      6  C15 UNL     1      28.959 -10.360 -39.485  0.00  0.00    +0.000 A 
ENDROOT
BRANCH   4   7
ATOM      7  C10 UNL     1      28.147  -9.126 -42.958  0.00  0.00    +0.000 C 
ATOM      8  N1  UNL     1      28.163  -7.887 -43.345  0.00  0.00    +0.000 NA
BRANCH   8   9
ATOM      9  N2  UNL     1      28.288  -7.503 -44.692  0.00  0.00    +0.000 N 
ATOM     10  C11 UNL     1      27.170  -7.331 -45.575  0.00  0.00    +0.000 A 
ATOM     11  N3  UNL     1      27.315  -7.168 -46.908  0.00  0.00    +0.000 NA
ATOM     12  C12 UNL     1      26.117  -6.949 -47.515  0.00  0.00    +0.000 A 
ATOM     13  C13 UNL     1      25.011  -6.919 -46.674  0.00  0.00    +0.000 A 
ATOM     14  S2  UNL     1      25.559  -7.174 -45.104  0.00  0.00    +0.000 S 
ATOM     15  H9  UNL     1      29.228  -7.201 -45.032  0.00  0.00    +0.000 HD
BRANCH  12  16
ATOM     16  O4  UNL     1      26.011  -6.763 -48.889  0.00  0.00    +0.000 OA
ATOM     17  H10 UNL     1      26.223  -7.517 -49.531  0.00  0.00    +0.000 HD
ENDBRANCH  12  16
ENDBRANCH   8   9
ENDBRANCH   4   7
BRANCH   1  18
ATOM     18  O3  UNL     1      27.686 -10.529 -37.456  0.00  0.00    +0.000 OA
BRANCH  18  19
ATOM     19  S1  UNL     1      27.801  -9.432 -36.146  0.00  0.00    +0.000 S 
ATOM     20  O1  UNL     1      28.510 -10.084 -34.992  0.00  0.00    +0.000 OA
ATOM     21  O2  UNL     1      28.564  -8.215 -36.590  0.00  0.00    +0.000 OA
BRANCH  19  26
ATOM     22  C1  UNL     1      22.236  -7.771 -34.385  0.00  0.00    +0.000 C 
ATOM     23  C2  UNL     1      23.599  -8.211 -34.830  0.00  0.00    +0.000 A 
ATOM     24  C3  UNL     1      24.466  -8.850 -33.930  0.00  0.00    +0.000 A 
ATOM     25  C4  UNL     1      25.749  -9.229 -34.336  0.00  0.00    +0.000 A 
ATOM     26  C5  UNL     1      26.183  -8.962 -35.641  0.00  0.00    +0.000 A 
ATOM     27  C16 UNL     1      25.328  -8.301 -36.534  0.00  0.00    +0.000 A 
ATOM     28  C17 UNL     1      24.045  -7.924 -36.130  0.00  0.00    +0.000 A 
ENDBRANCH  19  26
ENDBRANCH  18  19
ENDBRANCH   1  18
TORSDOF 6
ENDMDL
MODEL 8
REMARK VINA RESULT:    -5.117      2.992      3.854
REMARK INTER + INTRA:          -7.681
REMARK INTER:                  -7.130
REMARK INTRA:                  -0.551
REMARK UNBOUND:                -0.918
REMARK  Name = resultss/4CJN/ligands/lig_392_t0.pdb
REMARK  7 active torsions:
REMARK  status: ('A' for Active; 'I' for Inactive)
REMARK    1  A    between atoms: C1_1  and  C2_2
REMARK    2  A    between atoms: C5_5  and  S1_6
REMARK    3  A    between atoms: S1_6  and  O3_9
REMARK    4  A    between atoms: O3_9  and  C6_10
REMARK    5  A    between atoms: C9_13  and  C10_14
REMARK    6  A    between atoms: N1_15  and  N2_16
REMARK    7  A    between atoms: C12_19  and  O4_20
REMARK                            x       y       z     vdW  Elec       q    Type
REMARK                         _______ _______ _______ _____ _____    ______ ____
ROOT
ATOM      1  C6  UNL     1      26.086  -9.225 -37.482  0.00  0.00    +0.000 A 
ATOM      2  C7  UNL     1      25.217  -8.417 -38.237  0.00  0.00    +0.000 A 
ATOM      3  C8  UNL     1      25.553  -8.043 -39.542  0.00  0.00    +0.000 A 
ATOM      4  C9  UNL     1      26.765  -8.471 -40.114  0.00  0.00    +0.000 A 
ATOM      5  C14 UNL     1      27.628  -9.277 -39.360  0.00  0.00    +0.000 A 
ATOM      6  C15 UNL     1      27.290  -9.650 -38.056  0.00  0.00    +0.000 A 
ENDROOT
BRANCH   4   7
ATOM      7  C10 UNL     1      27.144  -8.092 -41.490  0.00  0.00    +0.000 C 
ATOM      8  N1  UNL     1      26.350  -7.384 -42.233  0.00  0.00    +0.000 NA
BRANCH   8   9
ATOM      9  N2  UNL     1      26.659  -7.014 -43.555  0.00  0.00    +0.000 N 
ATOM     10  C11 UNL     1      25.750  -7.169 -44.655  0.00  0.00    +0.000 A 
ATOM     11  N3  UNL     1      26.130  -7.007 -45.941  0.00  0.00    +0.000 NA
ATOM     12  C12 UNL     1      25.075  -7.132 -46.791  0.00  0.00    +0.000 A 
ATOM     13  C13 UNL     1      23.845  -7.377 -46.193  0.00  0.00    +0.000 A 
ATOM     14  S2  UNL     1      24.090  -7.436 -44.529  0.00  0.00    +0.000 S 
ATOM     15  H9  UNL     1      27.540  -6.480 -43.723  0.00  0.00    +0.000 HD
BRANCH  12  16
ATOM     16  O4  UNL     1      25.222  -7.015 -48.168  0.00  0.00    +0.000 OA
ATOM     17  H10 UNL     1      24.508  -7.363 -48.796  0.00  0.00    +0.000 HD
ENDBRANCH  12  16
ENDBRANCH   8   9
ENDBRANCH   4   7
BRANCH   1  18
ATOM     18  O3  UNL     1      25.801  -9.630 -36.172  0.00  0.00    +0.000 OA
BRANCH  18  19
ATOM     19  S1  UNL     1      25.930  -8.627 -34.789  0.00  0.00    +0.000 S 
ATOM     20  O1  UNL     1      25.801  -7.184 -35.188  0.00  0.00    +0.000 OA
ATOM     21  O2  UNL     1      24.840  -8.987 -33.818  0.00  0.00    +0.000 OA
BRANCH  19  26
ATOM     22  C1  UNL     1      31.362  -9.479 -32.220  0.00  0.00    +0.000 C 
ATOM     23  C2  UNL     1      30.007  -9.292 -32.834  0.00  0.00    +0.000 A 
ATOM     24  C3  UNL     1      29.631 -10.038 -33.963  0.00  0.00    +0.000 A 
ATOM     25  C4  UNL     1      28.381  -9.838 -34.556  0.00  0.00    +0.000 A 
ATOM     26  C5  UNL     1      27.499  -8.883 -34.035  0.00  0.00    +0.000 A 
ATOM     27  C16 UNL     1      27.882  -8.118 -32.925  0.00  0.00    +0.000 A 
ATOM     28  C17 UNL     1      29.131  -8.318 -32.330  0.00  0.00    +0.000 A 
ENDBRANCH  19  26
ENDBRANCH  18  19
ENDBRANCH   1  18
TORSDOF 6
ENDMDL
MODEL 9
REMARK VINA RESULT:    -4.991      2.775      3.688
REMARK INTER + INTRA:          -7.514
REMARK INTER:                  -7.001
REMARK INTRA:                  -0.513
REMARK UNBOUND:                -0.918
REMARK  Name = resultss/4CJN/ligands/lig_392_t0.pdb
REMARK  7 active torsions:
REMARK  status: ('A' for Active; 'I' for Inactive)
REMARK    1  A    between atoms: C1_1  and  C2_2
REMARK    2  A    between atoms: C5_5  and  S1_6
REMARK    3  A    between atoms: S1_6  and  O3_9
REMARK    4  A    between atoms: O3_9  and  C6_10
REMARK    5  A    between atoms: C9_13  and  C10_14
REMARK    6  A    between atoms: N1_15  and  N2_16
REMARK    7  A    between atoms: C12_19  and  O4_20
REMARK                            x       y       z     vdW  Elec       q    Type
REMARK                         _______ _______ _______ _____ _____    ______ ____
ROOT
ATOM      1  C6  UNL     1      27.374  -8.426 -39.596  0.00  0.00    +0.000 A 
ATOM      2  C7  UNL     1      26.161  -7.714 -39.551  0.00  0.00    +0.000 A 
ATOM      3  C8  UNL     1      25.249  -7.803 -40.607  0.00  0.00    +0.000 A 
ATOM      4  C9  UNL     1      25.534  -8.606 -41.727  0.00  0.00    +0.000 A 
ATOM      5  C14 UNL     1      26.743  -9.315 -41.768  0.00  0.00    +0.000 A 
ATOM      6  C15 UNL     1      27.652  -9.224 -40.711  0.00  0.00    +0.000 A 
ENDROOT
BRANCH   4   7
ATOM      7  C10 UNL     1      24.589  -8.719 -42.856  0.00  0.00    +0.000 C 
ATOM      8  N1  UNL     1      23.874  -7.704 -43.236  0.00  0.00    +0.000 NA
BRANCH   8   9
ATOM      9  N2  UNL     1      22.947  -7.767 -44.292  0.00  0.00    +0.000 N 
ATOM     10  C11 UNL     1      23.243  -7.348 -45.632  0.00  0.00    +0.000 A 
ATOM     11  N3  UNL     1      22.289  -7.219 -46.580  0.00  0.00    +0.000 NA
ATOM     12  C12 UNL     1      22.828  -6.884 -47.784  0.00  0.00    +0.000 A 
ATOM     13  C13 UNL     1      24.211  -6.760 -47.812  0.00  0.00    +0.000 A 
ATOM     14  S2  UNL     1      24.783  -7.087 -46.264  0.00  0.00    +0.000 S 
ATOM     15  H9  UNL     1      22.044  -8.264 -44.125  0.00  0.00    +0.000 HD
BRANCH  12  16
ATOM     16  O4  UNL     1      22.040  -6.685 -48.912  0.00  0.00    +0.000 OA
ATOM     17  H10 UNL     1      21.343  -5.951 -48.934  0.00  0.00    +0.000 HD
ENDBRANCH  12  16
ENDBRANCH   8   9
ENDBRANCH   4   7
BRANCH   1  18
ATOM     18  O3  UNL     1      28.323  -8.373 -38.568  0.00  0.00    +0.000 OA
BRANCH  18  19
ATOM     19  S1  UNL     1      28.676  -9.661 -37.496  0.00  0.00    +0.000 S 
ATOM     20  O1  UNL     1      27.745 -10.812 -37.754  0.00  0.00    +0.000 OA
ATOM     21  O2  UNL     1      30.099 -10.100 -37.707  0.00  0.00    +0.000 OA
BRANCH  19  26
ATOM     22  C1  UNL     1      28.006  -7.725 -31.784  0.00  0.00    +0.000 C 
ATOM     23  C2  UNL     1      28.145  -8.224 -33.191  0.00  0.00    +0.000 A 
ATOM     24  C3  UNL     1      28.983  -9.315 -33.477  0.00  0.00    +0.000 A 
ATOM     25  C4  UNL     1      29.139  -9.757 -34.794  0.00  0.00    +0.000 A 
ATOM     26  C5  UNL     1      28.470  -9.108 -35.839  0.00  0.00    +0.000 A 
ATOM     27  C16 UNL     1      27.654  -8.003 -35.560  0.00  0.00    +0.000 A 
ATOM     28  C17 UNL     1      27.495  -7.561 -34.243  0.00  0.00    +0.000 A 
ENDBRANCH  19  26
ENDBRANCH  18  19
ENDBRANCH   1  18
TORSDOF 6
ENDMDL
