MODEL 1
REMARK VINA RESULT:    -6.865      0.000      0.000
REMARK INTER + INTRA:          -9.541
REMARK INTER:                  -8.872
REMARK INTRA:                  -0.669
REMARK UNBOUND:                -0.669
REMARK  Name = resultss/4CJN/ligands/lig_167_t1.pdb
REMARK  6 active torsions:
REMARK  status: ('A' for Active; 'I' for Inactive)
REMARK    1  A    between atoms: O1_1  and  C1_2
REMARK    2  A    between atoms: C1_2  and  C9_13
REMARK    3  A    between atoms: N1_3  and  N2_4
REMARK    4  A    between atoms: C2_5  and  C3_6
REMARK    5  A    between atoms: C8_11  and  O2_12
REMARK    6  A    between atoms: C12_16  and  C13_17
REMARK                            x       y       z     vdW  Elec       q    Type
REMARK                         _______ _______ _______ _____ _____    ______ ____
ROOT
ATOM      1  C9  UNL     1      29.773  -8.638 -40.751  0.00  0.00    +0.000 A 
ATOM      2  C10 UNL     1      29.205  -8.869 -42.013  0.00  0.00    +0.000 A 
ATOM      3  C11 UNL     1      29.860  -9.673 -42.949  0.00  0.00    +0.000 A 
ATOM      4  C12 UNL     1      31.090 -10.278 -42.638  0.00  0.00    +0.000 A 
ATOM      5  C20 UNL     1      31.646 -10.067 -41.363  0.00  0.00    +0.000 A 
ATOM      6  C21 UNL     1      30.991  -9.260 -40.428  0.00  0.00    +0.000 A 
ENDROOT
BRANCH   4   7
ATOM      7  C13 UNL     1      31.776 -11.128 -43.637  0.00  0.00    +0.000 A 
ATOM      8  N3  UNL     1      32.565 -10.626 -44.622  0.00  0.00    +0.000 NA
ATOM      9  C14 UNL     1      33.075 -11.613 -45.402  0.00  0.00    +0.000 A 
ATOM     10  C15 UNL     1      33.920 -11.401 -46.493  0.00  0.00    +0.000 A 
ATOM     11  C16 UNL     1      34.378 -12.514 -47.220  0.00  0.00    +0.000 A 
ATOM     12  C17 UNL     1      33.990 -13.817 -46.849  0.00  0.00    +0.000 A 
ATOM     13  C18 UNL     1      33.140 -14.019 -45.749  0.00  0.00    +0.000 A 
ATOM     14  C19 UNL     1      32.701 -12.900 -45.048  0.00  0.00    +0.000 A 
ATOM     15  S1  UNL     1      31.693 -12.825 -43.710  0.00  0.00    +0.000 S 
ENDBRANCH   4   7
BRANCH   1  16
ATOM     16  C1  UNL     1      29.047  -7.803 -39.767  0.00  0.00    +0.000 C 
ATOM     17  N1  UNL     1      28.012  -8.237 -39.109  0.00  0.00    +0.000 NA
BRANCH  16  18
ATOM     18  O1  UNL     1      29.509  -6.513 -39.522  0.00  0.00    +0.000 OA
ATOM     19  H1  UNL     1      30.342  -6.159 -39.977  0.00  0.00    +0.000 HD
ENDBRANCH  16  18
BRANCH  17  20
ATOM     20  N2  UNL     1      27.517  -9.545 -39.231  0.00  0.00    +0.000 NA
ATOM     21  C2  UNL     1      27.520 -10.391 -38.246  0.00  0.00    +0.000 C 
BRANCH  21  22
ATOM     22  C3  UNL     1      28.050 -10.063 -36.905  0.00  0.00    +0.000 A 
ATOM     23  C4  UNL     1      29.440 -10.005 -36.723  0.00  0.00    +0.000 A 
ATOM     24  C5  UNL     1      29.977  -9.692 -35.473  0.00  0.00    +0.000 A 
ATOM     25  C6  UNL     1      29.131  -9.417 -34.396  0.00  0.00    +0.000 A 
ATOM     26  C7  UNL     1      27.745  -9.441 -34.572  0.00  0.00    +0.000 A 
ATOM     27  C8  UNL     1      27.196  -9.748 -35.825  0.00  0.00    +0.000 A 
BRANCH  27  28
ATOM     28  O2  UNL     1      25.813  -9.714 -36.005  0.00  0.00    +0.000 OA
ATOM     29  H7  UNL     1      25.316  -8.841 -36.140  0.00  0.00    +0.000 HD
ENDBRANCH  27  28
ENDBRANCH  21  22
ENDBRANCH  17  20
ENDBRANCH   1  16
TORSDOF 6
ENDMDL
MODEL 2
REMARK VINA RESULT:    -6.781      2.636      3.936
REMARK INTER + INTRA:          -9.433
REMARK INTER:                  -8.806
REMARK INTRA:                  -0.627
REMARK UNBOUND:                -0.669
REMARK  Name = resultss/4CJN/ligands/lig_167_t1.pdb
REMARK  6 active torsions:
REMARK  status: ('A' for Active; 'I' for Inactive)
REMARK    1  A    between atoms: O1_1  and  C1_2
REMARK    2  A    between atoms: C1_2  and  C9_13
REMARK    3  A    between atoms: N1_3  and  N2_4
REMARK    4  A    between atoms: C2_5  and  C3_6
REMARK    5  A    between atoms: C8_11  and  O2_12
REMARK    6  A    between atoms: C12_16  and  C13_17
REMARK                            x       y       z     vdW  Elec       q    Type
REMARK                         _______ _______ _______ _____ _____    ______ ____
ROOT
ATOM      1  C9  UNL     1      26.756  -9.252 -39.314  0.00  0.00    +0.000 A 
ATOM      2  C10 UNL     1      27.132 -10.603 -39.343  0.00  0.00    +0.000 A 
ATOM      3  C11 UNL     1      28.261 -11.011 -40.058  0.00  0.00    +0.000 A 
ATOM      4  C12 UNL     1      29.049 -10.072 -40.747  0.00  0.00    +0.000 A 
ATOM      5  C20 UNL     1      28.686  -8.714 -40.696  0.00  0.00    +0.000 A 
ATOM      6  C21 UNL     1      27.555  -8.308 -39.981  0.00  0.00    +0.000 A 
ENDROOT
BRANCH   4   7
ATOM      7  C13 UNL     1      30.244 -10.514 -41.502  0.00  0.00    +0.000 A 
ATOM      8  N3  UNL     1      30.229 -11.560 -42.368  0.00  0.00    +0.000 NA
ATOM      9  C14 UNL     1      31.449 -11.757 -42.930  0.00  0.00    +0.000 A 
ATOM     10  C15 UNL     1      31.738 -12.759 -43.858  0.00  0.00    +0.000 A 
ATOM     11  C16 UNL     1      33.047 -12.854 -44.363  0.00  0.00    +0.000 A 
ATOM     12  C17 UNL     1      34.043 -11.952 -43.938  0.00  0.00    +0.000 A 
ATOM     13  C18 UNL     1      33.741 -10.948 -43.005  0.00  0.00    +0.000 A 
ATOM     14  C19 UNL     1      32.438 -10.877 -42.521  0.00  0.00    +0.000 A 
ATOM     15  S1  UNL     1      31.785  -9.801 -41.413  0.00  0.00    +0.000 S 
ENDBRANCH   4   7
BRANCH   1  16
ATOM     16  C1  UNL     1      25.570  -8.843 -38.528  0.00  0.00    +0.000 C 
ATOM     17  N1  UNL     1      25.650  -8.462 -37.286  0.00  0.00    +0.000 NA
BRANCH  16  18
ATOM     18  O1  UNL     1      24.326  -8.842 -39.153  0.00  0.00    +0.000 OA
ATOM     19  H1  UNL     1      24.246  -8.760 -40.160  0.00  0.00    +0.000 HD
ENDBRANCH  16  18
BRANCH  17  20
ATOM     20  N2  UNL     1      26.866  -8.358 -36.592  0.00  0.00    +0.000 NA
ATOM     21  C2  UNL     1      26.926  -8.202 -35.304  0.00  0.00    +0.000 C 
BRANCH  21  22
ATOM     22  C3  UNL     1      25.726  -8.111 -34.446  0.00  0.00    +0.000 A 
ATOM     23  C4  UNL     1      25.208  -6.843 -34.142  0.00  0.00    +0.000 A 
ATOM     24  C5  UNL     1      24.070  -6.718 -33.340  0.00  0.00    +0.000 A 
ATOM     25  C6  UNL     1      23.431  -7.857 -32.849  0.00  0.00    +0.000 A 
ATOM     26  C7  UNL     1      23.919  -9.126 -33.170  0.00  0.00    +0.000 A 
ATOM     27  C8  UNL     1      25.057  -9.263 -33.980  0.00  0.00    +0.000 A 
BRANCH  27  28
ATOM     28  O2  UNL     1      25.503 -10.534 -34.342  0.00  0.00    +0.000 OA
ATOM     29  H7  UNL     1      25.567 -10.818 -35.313  0.00  0.00    +0.000 HD
ENDBRANCH  27  28
ENDBRANCH  21  22
ENDBRANCH  17  20
ENDBRANCH   1  16
TORSDOF 6
ENDMDL
MODEL 3
REMARK VINA RESULT:    -6.596      2.196      3.256
REMARK INTER + INTRA:          -9.192
REMARK INTER:                  -8.050
REMARK INTRA:                  -1.143
REMARK UNBOUND:                -0.669
REMARK  Name = resultss/4CJN/ligands/lig_167_t1.pdb
REMARK  6 active torsions:
REMARK  status: ('A' for Active; 'I' for Inactive)
REMARK    1  A    between atoms: O1_1  and  C1_2
REMARK    2  A    between atoms: C1_2  and  C9_13
REMARK    3  A    between atoms: N1_3  and  N2_4
REMARK    4  A    between atoms: C2_5  and  C3_6
REMARK    5  A    between atoms: C8_11  and  O2_12
REMARK    6  A    between atoms: C12_16  and  C13_17
REMARK                            x       y       z     vdW  Elec       q    Type
REMARK                         _______ _______ _______ _____ _____    ______ ____
ROOT
ATOM      1  C9  UNL     1      30.303  -8.863 -40.926  0.00  0.00    +0.000 A 
ATOM      2  C10 UNL     1      29.641  -9.129 -42.133  0.00  0.00    +0.000 A 
ATOM      3  C11 UNL     1      30.253  -9.901 -43.123  0.00  0.00    +0.000 A 
ATOM      4  C12 UNL     1      31.535 -10.439 -42.920  0.00  0.00    +0.000 A 
ATOM      5  C20 UNL     1      32.188 -10.194 -41.698  0.00  0.00    +0.000 A 
ATOM      6  C21 UNL     1      31.575  -9.419 -40.709  0.00  0.00    +0.000 A 
ENDROOT
BRANCH   4   7
ATOM      7  C13 UNL     1      32.176 -11.257 -43.975  0.00  0.00    +0.000 A 
ATOM      8  N3  UNL     1      31.765 -12.511 -44.295  0.00  0.00    +0.000 NA
ATOM      9  C14 UNL     1      32.517 -13.041 -45.293  0.00  0.00    +0.000 A 
ATOM     10  C15 UNL     1      32.329 -14.315 -45.832  0.00  0.00    +0.000 A 
ATOM     11  C16 UNL     1      33.180 -14.744 -46.866  0.00  0.00    +0.000 A 
ATOM     12  C17 UNL     1      34.200 -13.899 -47.347  0.00  0.00    +0.000 A 
ATOM     13  C18 UNL     1      34.380 -12.619 -46.798  0.00  0.00    +0.000 A 
ATOM     14  C19 UNL     1      33.524 -12.220 -45.775  0.00  0.00    +0.000 A 
ATOM     15  S1  UNL     1      33.493 -10.770 -44.934  0.00  0.00    +0.000 S 
ENDBRANCH   4   7
BRANCH   1  16
ATOM     16  C1  UNL     1      29.621  -8.063 -39.882  0.00  0.00    +0.000 C 
ATOM     17  N1  UNL     1      28.871  -8.601 -38.965  0.00  0.00    +0.000 NA
BRANCH  16  18
ATOM     18  O1  UNL     1      29.815  -6.684 -39.870  0.00  0.00    +0.000 OA
ATOM     19  H1  UNL     1      29.433  -6.108 -39.130  0.00  0.00    +0.000 HD
ENDBRANCH  16  18
BRANCH  17  20
ATOM     20  N2  UNL     1      28.676  -9.986 -38.848  0.00  0.00    +0.000 NA
ATOM     21  C2  UNL     1      27.616 -10.585 -39.303  0.00  0.00    +0.000 C 
BRANCH  21  22
ATOM     22  C3  UNL     1      26.513  -9.869 -39.978  0.00  0.00    +0.000 A 
ATOM     23  C4  UNL     1      26.233 -10.173 -41.319  0.00  0.00    +0.000 A 
ATOM     24  C5  UNL     1      25.194  -9.522 -41.989  0.00  0.00    +0.000 A 
ATOM     25  C6  UNL     1      24.415  -8.575 -41.321  0.00  0.00    +0.000 A 
ATOM     26  C7  UNL     1      24.664  -8.288 -39.976  0.00  0.00    +0.000 A 
ATOM     27  C8  UNL     1      25.701  -8.940 -39.293  0.00  0.00    +0.000 A 
BRANCH  27  28
ATOM     28  O2  UNL     1      25.906  -8.688 -37.937  0.00  0.00    +0.000 OA
ATOM     29  H7  UNL     1      26.531  -9.259 -37.379  0.00  0.00    +0.000 HD
ENDBRANCH  27  28
ENDBRANCH  21  22
ENDBRANCH  17  20
ENDBRANCH   1  16
TORSDOF 6
ENDMDL
MODEL 4
REMARK VINA RESULT:    -6.533      1.715      2.149
REMARK INTER + INTRA:          -9.111
REMARK INTER:                  -8.198
REMARK INTRA:                  -0.913
REMARK UNBOUND:                -0.669
REMARK  Name = resultss/4CJN/ligands/lig_167_t1.pdb
REMARK  6 active torsions:
REMARK  status: ('A' for Active; 'I' for Inactive)
REMARK    1  A    between atoms: O1_1  and  C1_2
REMARK    2  A    between atoms: C1_2  and  C9_13
REMARK    3  A    between atoms: N1_3  and  N2_4
REMARK    4  A    between atoms: C2_5  and  C3_6
REMARK    5  A    between atoms: C8_11  and  O2_12
REMARK    6  A    between atoms: C12_16  and  C13_17
REMARK                            x       y       z     vdW  Elec       q    Type
REMARK                         _______ _______ _______ _____ _____    ______ ____
ROOT
ATOM      1  C9  UNL     1      27.999  -9.343 -40.829  0.00  0.00    +0.000 A 
ATOM      2  C10 UNL     1      28.380 -10.683 -40.661  0.00  0.00    +0.000 A 
ATOM      3  C11 UNL     1      29.360 -11.250 -41.479  0.00  0.00    +0.000 A 
ATOM      4  C12 UNL     1      29.994 -10.484 -42.473  0.00  0.00    +0.000 A 
ATOM      5  C20 UNL     1      29.629  -9.133 -42.623  0.00  0.00    +0.000 A 
ATOM      6  C21 UNL     1      28.647  -8.568 -41.805  0.00  0.00    +0.000 A 
ENDROOT
BRANCH   4   7
ATOM      7  C13 UNL     1      31.031 -11.094 -43.336  0.00  0.00    +0.000 A 
ATOM      8  N3  UNL     1      31.753 -10.385 -44.242  0.00  0.00    +0.000 NA
ATOM      9  C14 UNL     1      32.637 -11.177 -44.902  0.00  0.00    +0.000 A 
ATOM     10  C15 UNL     1      33.514 -10.728 -45.891  0.00  0.00    +0.000 A 
ATOM     11  C16 UNL     1      34.380 -11.655 -46.498  0.00  0.00    +0.000 A 
ATOM     12  C17 UNL     1      34.360 -13.010 -46.110  0.00  0.00    +0.000 A 
ATOM     13  C18 UNL     1      33.474 -13.450 -45.113  0.00  0.00    +0.000 A 
ATOM     14  C19 UNL     1      32.627 -12.511 -44.530  0.00  0.00    +0.000 A 
ATOM     15  S1  UNL     1      31.477 -12.734 -43.331  0.00  0.00    +0.000 S 
ENDBRANCH   4   7
BRANCH   1  16
ATOM     16  C1  UNL     1      26.976  -8.759 -39.932  0.00  0.00    +0.000 C 
ATOM     17  N1  UNL     1      27.283  -8.141 -38.828  0.00  0.00    +0.000 NA
BRANCH  16  18
ATOM     18  O1  UNL     1      25.637  -8.855 -40.300  0.00  0.00    +0.000 OA
ATOM     19  H1  UNL     1      25.365  -8.939 -41.272  0.00  0.00    +0.000 HD
ENDBRANCH  16  18
BRANCH  17  20
ATOM     20  N2  UNL     1      28.606  -7.927 -38.410  0.00  0.00    +0.000 NA
ATOM     21  C2  UNL     1      28.975  -8.037 -37.169  0.00  0.00    +0.000 C 
BRANCH  21  22
ATOM     22  C3  UNL     1      28.040  -8.388 -36.079  0.00  0.00    +0.000 A 
ATOM     23  C4  UNL     1      27.723  -7.413 -35.121  0.00  0.00    +0.000 A 
ATOM     24  C5  UNL     1      26.839  -7.705 -34.080  0.00  0.00    +0.000 A 
ATOM     25  C6  UNL     1      26.251  -8.969 -33.996  0.00  0.00    +0.000 A 
ATOM     26  C7  UNL     1      26.534  -9.938 -34.961  0.00  0.00    +0.000 A 
ATOM     27  C8  UNL     1      27.416  -9.652 -36.014  0.00  0.00    +0.000 A 
BRANCH  27  28
ATOM     28  O2  UNL     1      27.650 -10.607 -37.004  0.00  0.00    +0.000 OA
ATOM     29  H7  UNL     1      26.894 -11.148 -37.408  0.00  0.00    +0.000 HD
ENDBRANCH  27  28
ENDBRANCH  21  22
ENDBRANCH  17  20
ENDBRANCH   1  16
TORSDOF 6
ENDMDL
MODEL 5
REMARK VINA RESULT:    -6.501      3.066      9.503
REMARK INTER + INTRA:          -9.070
REMARK INTER:                  -8.182
REMARK INTRA:                  -0.887
REMARK UNBOUND:                -0.669
REMARK  Name = resultss/4CJN/ligands/lig_167_t1.pdb
REMARK  6 active torsions:
REMARK  status: ('A' for Active; 'I' for Inactive)
REMARK    1  A    between atoms: O1_1  and  C1_2
REMARK    2  A    between atoms: C1_2  and  C9_13
REMARK    3  A    between atoms: N1_3  and  N2_4
REMARK    4  A    between atoms: C2_5  and  C3_6
REMARK    5  A    between atoms: C8_11  and  O2_12
REMARK    6  A    between atoms: C12_16  and  C13_17
REMARK                            x       y       z     vdW  Elec       q    Type
REMARK                         _______ _______ _______ _____ _____    ______ ____
ROOT
ATOM      1  C9  UNL     1      30.107 -10.062 -41.431  0.00  0.00    +0.000 A 
ATOM      2  C10 UNL     1      28.889 -10.292 -40.774  0.00  0.00    +0.000 A 
ATOM      3  C11 UNL     1      28.796 -10.165 -39.386  0.00  0.00    +0.000 A 
ATOM      4  C12 UNL     1      29.917  -9.788 -38.626  0.00  0.00    +0.000 A 
ATOM      5  C20 UNL     1      31.132  -9.533 -39.288  0.00  0.00    +0.000 A 
ATOM      6  C21 UNL     1      31.223  -9.662 -40.677  0.00  0.00    +0.000 A 
ENDROOT
BRANCH   4   7
ATOM      7  C13 UNL     1      29.809  -9.656 -37.155  0.00  0.00    +0.000 A 
ATOM      8  N3  UNL     1      30.886  -9.683 -36.327  0.00  0.00    +0.000 NA
ATOM      9  C14 UNL     1      30.516  -9.541 -35.028  0.00  0.00    +0.000 A 
ATOM     10  C15 UNL     1      31.405  -9.531 -33.951  0.00  0.00    +0.000 A 
ATOM     11  C16 UNL     1      30.891  -9.376 -32.652  0.00  0.00    +0.000 A 
ATOM     12  C17 UNL     1      29.504  -9.234 -32.446  0.00  0.00    +0.000 A 
ATOM     13  C18 UNL     1      28.619  -9.245 -33.537  0.00  0.00    +0.000 A 
ATOM     14  C19 UNL     1      29.155  -9.401 -34.812  0.00  0.00    +0.000 A 
ATOM     15  S1  UNL     1      28.361  -9.452 -36.287  0.00  0.00    +0.000 S 
ENDBRANCH   4   7
BRANCH   1  16
ATOM     16  C1  UNL     1      30.172 -10.179 -42.906  0.00  0.00    +0.000 C 
ATOM     17  N1  UNL     1      30.674 -11.220 -43.505  0.00  0.00    +0.000 NA
BRANCH  16  18
ATOM     18  O1  UNL     1      29.653  -9.144 -43.678  0.00  0.00    +0.000 OA
ATOM     19  H1  UNL     1      28.781  -8.691 -43.430  0.00  0.00    +0.000 HD
ENDBRANCH  16  18
BRANCH  17  20
ATOM     20  N2  UNL     1      31.153 -12.345 -42.816  0.00  0.00    +0.000 NA
ATOM     21  C2  UNL     1      32.180 -13.030 -43.220  0.00  0.00    +0.000 C 
BRANCH  21  22
ATOM     22  C3  UNL     1      32.939 -12.697 -44.444  0.00  0.00    +0.000 A 
ATOM     23  C4  UNL     1      32.879 -13.577 -45.536  0.00  0.00    +0.000 A 
ATOM     24  C5  UNL     1      33.577 -13.292 -46.712  0.00  0.00    +0.000 A 
ATOM     25  C6  UNL     1      34.326 -12.119 -46.815  0.00  0.00    +0.000 A 
ATOM     26  C7  UNL     1      34.368 -11.219 -45.747  0.00  0.00    +0.000 A 
ATOM     27  C8  UNL     1      33.666 -11.493 -44.564  0.00  0.00    +0.000 A 
BRANCH  27  28
ATOM     28  O2  UNL     1      33.668 -10.563 -43.524  0.00  0.00    +0.000 OA
ATOM     29  H7  UNL     1      33.091  -9.730 -43.555  0.00  0.00    +0.000 HD
ENDBRANCH  27  28
ENDBRANCH  21  22
ENDBRANCH  17  20
ENDBRANCH   1  16
TORSDOF 6
ENDMDL
MODEL 6
REMARK VINA RESULT:    -6.381      2.995      9.767
REMARK INTER + INTRA:          -8.915
REMARK INTER:                  -8.132
REMARK INTRA:                  -0.783
REMARK UNBOUND:                -0.669
REMARK  Name = resultss/4CJN/ligands/lig_167_t1.pdb
REMARK  6 active torsions:
REMARK  status: ('A' for Active; 'I' for Inactive)
REMARK    1  A    between atoms: O1_1  and  C1_2
REMARK    2  A    between atoms: C1_2  and  C9_13
REMARK    3  A    between atoms: N1_3  and  N2_4
REMARK    4  A    between atoms: C2_5  and  C3_6
REMARK    5  A    between atoms: C8_11  and  O2_12
REMARK    6  A    between atoms: C12_16  and  C13_17
REMARK                            x       y       z     vdW  Elec       q    Type
REMARK                         _______ _______ _______ _____ _____    ______ ____
ROOT
ATOM      1  C9  UNL     1      29.268  -9.571 -41.828  0.00  0.00    +0.000 A 
ATOM      2  C10 UNL     1      28.101 -10.300 -41.559  0.00  0.00    +0.000 A 
ATOM      3  C11 UNL     1      27.490 -10.224 -40.304  0.00  0.00    +0.000 A 
ATOM      4  C12 UNL     1      28.025  -9.403 -39.297  0.00  0.00    +0.000 A 
ATOM      5  C20 UNL     1      29.181  -8.652 -39.576  0.00  0.00    +0.000 A 
ATOM      6  C21 UNL     1      29.793  -8.731 -40.831  0.00  0.00    +0.000 A 
ENDROOT
BRANCH   4   7
ATOM      7  C13 UNL     1      27.370  -9.329 -37.970  0.00  0.00    +0.000 A 
ATOM      8  N3  UNL     1      26.181  -8.706 -37.764  0.00  0.00    +0.000 NA
ATOM      9  C14 UNL     1      25.801  -8.781 -36.462  0.00  0.00    +0.000 A 
ATOM     10  C15 UNL     1      24.623  -8.233 -35.951  0.00  0.00    +0.000 A 
ATOM     11  C16 UNL     1      24.348  -8.382 -34.581  0.00  0.00    +0.000 A 
ATOM     12  C17 UNL     1      25.246  -9.075 -33.744  0.00  0.00    +0.000 A 
ATOM     13  C18 UNL     1      26.427  -9.622 -34.269  0.00  0.00    +0.000 A 
ATOM     14  C19 UNL     1      26.675  -9.459 -35.629  0.00  0.00    +0.000 A 
ATOM     15  S1  UNL     1      27.983  -9.995 -36.531  0.00  0.00    +0.000 S 
ENDBRANCH   4   7
BRANCH   1  16
ATOM     16  C1  UNL     1      29.882  -9.650 -43.173  0.00  0.00    +0.000 C 
ATOM     17  N1  UNL     1      30.736 -10.576 -43.501  0.00  0.00    +0.000 NA
BRANCH  16  18
ATOM     18  O1  UNL     1      29.508  -8.710 -44.130  0.00  0.00    +0.000 OA
ATOM     19  H1  UNL     1      29.116  -7.816 -43.861  0.00  0.00    +0.000 HD
ENDBRANCH  16  18
BRANCH  17  20
ATOM     20  N2  UNL     1      31.118 -11.610 -42.632  0.00  0.00    +0.000 NA
ATOM     21  C2  UNL     1      32.024 -12.488 -42.943  0.00  0.00    +0.000 C 
BRANCH  21  22
ATOM     22  C3  UNL     1      32.733 -12.489 -44.240  0.00  0.00    +0.000 A 
ATOM     23  C4  UNL     1      32.473 -13.523 -45.151  0.00  0.00    +0.000 A 
ATOM     24  C5  UNL     1      33.118 -13.554 -46.389  0.00  0.00    +0.000 A 
ATOM     25  C6  UNL     1      34.017 -12.544 -46.735  0.00  0.00    +0.000 A 
ATOM     26  C7  UNL     1      34.262 -11.491 -45.849  0.00  0.00    +0.000 A 
ATOM     27  C8  UNL     1      33.614 -11.448 -44.606  0.00  0.00    +0.000 A 
BRANCH  27  28
ATOM     28  O2  UNL     1      33.821 -10.365 -43.752  0.00  0.00    +0.000 OA
ATOM     29  H7  UNL     1      33.551 -10.400 -42.775  0.00  0.00    +0.000 HD
ENDBRANCH  27  28
ENDBRANCH  21  22
ENDBRANCH  17  20
ENDBRANCH   1  16
TORSDOF 6
ENDMDL
MODEL 7
REMARK VINA RESULT:    -6.301      5.361      9.395
REMARK INTER + INTRA:          -8.812
REMARK INTER:                  -7.872
REMARK INTRA:                  -0.940
REMARK UNBOUND:                -0.669
REMARK  Name = resultss/4CJN/ligands/lig_167_t1.pdb
REMARK  6 active torsions:
REMARK  status: ('A' for Active; 'I' for Inactive)
REMARK    1  A    between atoms: O1_1  and  C1_2
REMARK    2  A    between atoms: C1_2  and  C9_13
REMARK    3  A    between atoms: N1_3  and  N2_4
REMARK    4  A    between atoms: C2_5  and  C3_6
REMARK    5  A    between atoms: C8_11  and  O2_12
REMARK    6  A    between atoms: C12_16  and  C13_17
REMARK                            x       y       z     vdW  Elec       q    Type
REMARK                         _______ _______ _______ _____ _____    ______ ____
ROOT
ATOM      1  C9  UNL     1      25.312  -9.101 -41.371  0.00  0.00    +0.000 A 
ATOM      2  C10 UNL     1      24.792  -8.834 -40.096  0.00  0.00    +0.000 A 
ATOM      3  C11 UNL     1      25.604  -8.931 -38.963  0.00  0.00    +0.000 A 
ATOM      4  C12 UNL     1      26.961  -9.280 -39.084  0.00  0.00    +0.000 A 
ATOM      5  C20 UNL     1      27.487  -9.522 -40.365  0.00  0.00    +0.000 A 
ATOM      6  C21 UNL     1      26.673  -9.428 -41.497  0.00  0.00    +0.000 A 
ENDROOT
BRANCH   4   7
ATOM      7  C13 UNL     1      27.814  -9.380 -37.878  0.00  0.00    +0.000 A 
ATOM      8  N3  UNL     1      27.312  -9.469 -36.619  0.00  0.00    +0.000 NA
ATOM      9  C14 UNL     1      28.302  -9.550 -35.694  0.00  0.00    +0.000 A 
ATOM     10  C15 UNL     1      28.091  -9.651 -34.318  0.00  0.00    +0.000 A 
ATOM     11  C16 UNL     1      29.207  -9.728 -33.466  0.00  0.00    +0.000 A 
ATOM     12  C17 UNL     1      30.512  -9.704 -33.997  0.00  0.00    +0.000 A 
ATOM     13  C18 UNL     1      30.713  -9.602 -35.383  0.00  0.00    +0.000 A 
ATOM     14  C19 UNL     1      29.591  -9.527 -36.203  0.00  0.00    +0.000 A 
ATOM     15  S1  UNL     1      29.514  -9.401 -37.873  0.00  0.00    +0.000 S 
ENDBRANCH   4   7
BRANCH   1  16
ATOM     16  C1  UNL     1      24.436  -8.967 -42.557  0.00  0.00    +0.000 C 
ATOM     17  N1  UNL     1      24.238  -7.830 -43.158  0.00  0.00    +0.000 NA
BRANCH  16  18
ATOM     18  O1  UNL     1      23.822 -10.110 -43.063  0.00  0.00    +0.000 OA
ATOM     19  H1  UNL     1      23.444 -10.131 -44.002  0.00  0.00    +0.000 HD
ENDBRANCH  16  18
BRANCH  17  20
ATOM     20  N2  UNL     1      24.870  -6.638 -42.770  0.00  0.00    +0.000 NA
ATOM     21  C2  UNL     1      25.660  -5.974 -43.559  0.00  0.00    +0.000 C 
BRANCH  21  22
ATOM     22  C3  UNL     1      25.976  -6.411 -44.936  0.00  0.00    +0.000 A 
ATOM     23  C4  UNL     1      27.288  -6.811 -45.233  0.00  0.00    +0.000 A 
ATOM     24  C5  UNL     1      27.623  -7.236 -46.520  0.00  0.00    +0.000 A 
ATOM     25  C6  UNL     1      26.648  -7.283 -47.518  0.00  0.00    +0.000 A 
ATOM     26  C7  UNL     1      25.331  -6.918 -47.227  0.00  0.00    +0.000 A 
ATOM     27  C8  UNL     1      24.983  -6.495 -45.935  0.00  0.00    +0.000 A 
BRANCH  27  28
ATOM     28  O2  UNL     1      23.656  -6.186 -45.639  0.00  0.00    +0.000 OA
ATOM     29  H7  UNL     1      23.201  -6.539 -44.805  0.00  0.00    +0.000 HD
ENDBRANCH  27  28
ENDBRANCH  21  22
ENDBRANCH  17  20
ENDBRANCH   1  16
TORSDOF 6
ENDMDL
MODEL 8
REMARK VINA RESULT:    -6.278      4.789      6.390
REMARK INTER + INTRA:          -8.782
REMARK INTER:                  -7.650
REMARK INTRA:                  -1.132
REMARK UNBOUND:                -0.669
REMARK  Name = resultss/4CJN/ligands/lig_167_t1.pdb
REMARK  6 active torsions:
REMARK  status: ('A' for Active; 'I' for Inactive)
REMARK    1  A    between atoms: O1_1  and  C1_2
REMARK    2  A    between atoms: C1_2  and  C9_13
REMARK    3  A    between atoms: N1_3  and  N2_4
REMARK    4  A    between atoms: C2_5  and  C3_6
REMARK    5  A    between atoms: C8_11  and  O2_12
REMARK    6  A    between atoms: C12_16  and  C13_17
REMARK                            x       y       z     vdW  Elec       q    Type
REMARK                         _______ _______ _______ _____ _____    ______ ____
ROOT
ATOM      1  C9  UNL     1      25.975  -9.212 -36.209  0.00  0.00    +0.000 A 
ATOM      2  C10 UNL     1      27.139  -9.593 -36.892  0.00  0.00    +0.000 A 
ATOM      3  C11 UNL     1      27.288  -9.313 -38.252  0.00  0.00    +0.000 A 
ATOM      4  C12 UNL     1      26.282  -8.628 -38.956  0.00  0.00    +0.000 A 
ATOM      5  C20 UNL     1      25.126  -8.223 -38.264  0.00  0.00    +0.000 A 
ATOM      6  C21 UNL     1      24.978  -8.507 -36.903  0.00  0.00    +0.000 A 
ENDROOT
BRANCH   4   7
ATOM      7  C13 UNL     1      26.448  -8.336 -40.398  0.00  0.00    +0.000 A 
ATOM      8  N3  UNL     1      27.641  -8.427 -41.040  0.00  0.00    +0.000 NA
ATOM      9  C14 UNL     1      27.523  -8.107 -42.355  0.00  0.00    +0.000 A 
ATOM     10  C15 UNL     1      28.581  -8.111 -43.266  0.00  0.00    +0.000 A 
ATOM     11  C16 UNL     1      28.322  -7.758 -44.602  0.00  0.00    +0.000 A 
ATOM     12  C17 UNL     1      27.018  -7.411 -45.009  0.00  0.00    +0.000 A 
ATOM     13  C18 UNL     1      25.962  -7.411 -44.084  0.00  0.00    +0.000 A 
ATOM     14  C19 UNL     1      26.246  -7.763 -42.768  0.00  0.00    +0.000 A 
ATOM     15  S1  UNL     1      25.207  -7.854 -41.455  0.00  0.00    +0.000 S 
ENDBRANCH   4   7
BRANCH   1  16
ATOM     16  C1  UNL     1      25.854  -9.498 -34.761  0.00  0.00    +0.000 C 
ATOM     17  N1  UNL     1      26.155  -8.623 -33.845  0.00  0.00    +0.000 NA
BRANCH  16  18
ATOM     18  O1  UNL     1      25.373 -10.745 -34.368  0.00  0.00    +0.000 OA
ATOM     19  H1  UNL     1      24.500 -10.834 -33.863  0.00  0.00    +0.000 HD
ENDBRANCH  16  18
BRANCH  17  20
ATOM     20  N2  UNL     1      26.575  -7.317 -34.141  0.00  0.00    +0.000 NA
ATOM     21  C2  UNL     1      27.828  -6.983 -34.211  0.00  0.00    +0.000 C 
BRANCH  21  22
ATOM     22  C3  UNL     1      28.931  -7.940 -33.981  0.00  0.00    +0.000 A 
ATOM     23  C4  UNL     1      29.804  -8.232 -35.040  0.00  0.00    +0.000 A 
ATOM     24  C5  UNL     1      30.862  -9.125 -34.858  0.00  0.00    +0.000 A 
ATOM     25  C6  UNL     1      31.068  -9.723 -33.613  0.00  0.00    +0.000 A 
ATOM     26  C7  UNL     1      30.224  -9.417 -32.542  0.00  0.00    +0.000 A 
ATOM     27  C8  UNL     1      29.163  -8.516 -32.713  0.00  0.00    +0.000 A 
BRANCH  27  28
ATOM     28  O2  UNL     1      28.360  -8.173 -31.625  0.00  0.00    +0.000 OA
ATOM     29  H7  UNL     1      28.164  -8.833 -30.881  0.00  0.00    +0.000 HD
ENDBRANCH  27  28
ENDBRANCH  21  22
ENDBRANCH  17  20
ENDBRANCH   1  16
TORSDOF 6
ENDMDL
MODEL 9
REMARK VINA RESULT:    -6.059      5.205      7.475
REMARK INTER + INTRA:          -8.499
REMARK INTER:                  -7.407
REMARK INTRA:                  -1.092
REMARK UNBOUND:                -0.669
REMARK  Name = resultss/4CJN/ligands/lig_167_t1.pdb
REMARK  6 active torsions:
REMARK  status: ('A' for Active; 'I' for Inactive)
REMARK    1  A    between atoms: O1_1  and  C1_2
REMARK    2  A    between atoms: C1_2  and  C9_13
REMARK    3  A    between atoms: N1_3  and  N2_4
REMARK    4  A    between atoms: C2_5  and  C3_6
REMARK    5  A    between atoms: C8_11  and  O2_12
REMARK    6  A    between atoms: C12_16  and  C13_17
REMARK                            x       y       z     vdW  Elec       q    Type
REMARK                         _______ _______ _______ _____ _____    ______ ____
ROOT
ATOM      1  C9  UNL     1      26.830  -9.993 -40.777  0.00  0.00    +0.000 A 
ATOM      2  C10 UNL     1      25.516  -9.677 -40.401  0.00  0.00    +0.000 A 
ATOM      3  C11 UNL     1      24.654  -9.044 -41.299  0.00  0.00    +0.000 A 
ATOM      4  C12 UNL     1      25.082  -8.728 -42.600  0.00  0.00    +0.000 A 
ATOM      5  C20 UNL     1      26.392  -9.068 -42.985  0.00  0.00    +0.000 A 
ATOM      6  C21 UNL     1      27.255  -9.700 -42.084  0.00  0.00    +0.000 A 
ENDROOT
BRANCH   4   7
ATOM      7  C13 UNL     1      24.161  -8.056 -43.545  0.00  0.00    +0.000 A 
ATOM      8  N3  UNL     1      24.496  -7.769 -44.830  0.00  0.00    +0.000 NA
ATOM      9  C14 UNL     1      23.477  -7.154 -45.483  0.00  0.00    +0.000 A 
ATOM     10  C15 UNL     1      23.529  -6.740 -46.816  0.00  0.00    +0.000 A 
ATOM     11  C16 UNL     1      22.400  -6.114 -47.373  0.00  0.00    +0.000 A 
ATOM     12  C17 UNL     1      21.240  -5.912 -46.597  0.00  0.00    +0.000 A 
ATOM     13  C18 UNL     1      21.199  -6.333 -45.259  0.00  0.00    +0.000 A 
ATOM     14  C19 UNL     1      22.331  -6.950 -44.732  0.00  0.00    +0.000 A 
ATOM     15  S1  UNL     1      22.578  -7.552 -43.187  0.00  0.00    +0.000 S 
ENDBRANCH   4   7
BRANCH   1  16
ATOM     16  C1  UNL     1      27.717 -10.687 -39.814  0.00  0.00    +0.000 C 
ATOM     17  N1  UNL     1      28.511 -10.047 -39.006  0.00  0.00    +0.000 NA
BRANCH  16  18
ATOM     18  O1  UNL     1      27.675 -12.078 -39.757  0.00  0.00    +0.000 OA
ATOM     19  H1  UNL     1      26.794 -12.576 -39.740  0.00  0.00    +0.000 HD
ENDBRANCH  16  18
BRANCH  17  20
ATOM     20  N2  UNL     1      28.569  -8.646 -38.937  0.00  0.00    +0.000 NA
ATOM     21  C2  UNL     1      28.143  -7.978 -37.908  0.00  0.00    +0.000 C 
BRANCH  21  22
ATOM     22  C3  UNL     1      27.551  -8.623 -36.717  0.00  0.00    +0.000 A 
ATOM     23  C4  UNL     1      26.176  -8.476 -36.483  0.00  0.00    +0.000 A 
ATOM     24  C5  UNL     1      25.579  -9.076 -35.372  0.00  0.00    +0.000 A 
ATOM     25  C6  UNL     1      26.347  -9.843 -34.494  0.00  0.00    +0.000 A 
ATOM     26  C7  UNL     1      27.712 -10.023 -34.733  0.00  0.00    +0.000 A 
ATOM     27  C8  UNL     1      28.319  -9.429 -35.849  0.00  0.00    +0.000 A 
BRANCH  27  28
ATOM     28  O2  UNL     1      29.670  -9.660 -36.111  0.00  0.00    +0.000 OA
ATOM     29  H7  UNL     1      29.968 -10.343 -36.799  0.00  0.00    +0.000 HD
ENDBRANCH  27  28
ENDBRANCH  21  22
ENDBRANCH  17  20
ENDBRANCH   1  16
TORSDOF 6
ENDMDL
