MODEL 1
REMARK VINA RESULT:    -6.831      0.000      0.000
REMARK INTER + INTRA:         -10.489
REMARK INTER:                  -9.427
REMARK INTRA:                  -1.062
REMARK UNBOUND:                -1.062
REMARK  Name = resultss/4CJN/ligands/lig_437_t1.pdb
REMARK  9 active torsions:
REMARK  status: ('A' for Active; 'I' for Inactive)
REMARK    1  A    between atoms: C1_1  and  O1_2
REMARK    2  A    between atoms: O1_2  and  C2_3
REMARK    3  A    between atoms: C5_6  and  N1_7
REMARK    4  A    between atoms: C6_8  and  S1_9
REMARK    5  A    between atoms: N2_10  and  N3_11
REMARK    6  A    between atoms: C7_12  and  C8_14
REMARK    7  A    between atoms: C18_25  and  C19_26
REMARK    8  A    between atoms: C25_33  and  O3_34
REMARK    9  A    between atoms: O3_34  and  C26_35
REMARK                            x       y       z     vdW  Elec       q    Type
REMARK                         _______ _______ _______ _____ _____    ______ ____
ROOT
ATOM      1  N3  UNL     1      28.039  -9.574 -39.534  0.00  0.00    +0.000 N 
ATOM      2  C7  UNL     1      27.010  -9.145 -38.627  0.00  0.00    +0.000 C 
ATOM      3  O2  UNL     1      25.861  -8.875 -39.071  0.00  0.00    +0.000 OA
ATOM      4  H8  UNL     1      28.809 -10.181 -39.176  0.00  0.00    +0.000 HD
ENDROOT
BRANCH   2   5
ATOM      5  C8  UNL     1      27.288  -9.025 -37.182  0.00  0.00    +0.000 A 
ATOM      6  C9  UNL     1      28.580  -9.276 -36.674  0.00  0.00    +0.000 A 
ATOM      7  C10 UNL     1      28.757  -9.157 -35.301  0.00  0.00    +0.000 A 
ATOM      8  C11 UNL     1      27.724  -8.813 -34.456  0.00  0.00    +0.000 A 
ATOM      9  N4  UNL     1      28.152  -8.702 -33.175  0.00  0.00    +0.000 N 
ATOM     10  C12 UNL     1      29.467  -9.004 -33.224  0.00  0.00    +0.000 A 
ATOM     11  C13 UNL     1      30.366  -9.026 -32.158  0.00  0.00    +0.000 A 
ATOM     12  C14 UNL     1      31.707  -9.356 -32.433  0.00  0.00    +0.000 A 
ATOM     13  C15 UNL     1      32.119  -9.650 -33.753  0.00  0.00    +0.000 A 
ATOM     14  C16 UNL     1      31.195  -9.615 -34.813  0.00  0.00    +0.000 A 
ATOM     15  C17 UNL     1      29.875  -9.289 -34.511  0.00  0.00    +0.000 A 
ATOM     16  C18 UNL     1      26.442  -8.583 -34.970  0.00  0.00    +0.000 A 
ATOM     17  N5  UNL     1      26.272  -8.692 -36.323  0.00  0.00    +0.000 NA
ATOM     18  H10 UNL     1      27.606  -8.417 -32.333  0.00  0.00    +0.000 HD
BRANCH  16  19
ATOM     19  C19 UNL     1      25.284  -8.238 -34.119  0.00  0.00    +0.000 A 
ATOM     20  C20 UNL     1      24.942  -6.890 -33.919  0.00  0.00    +0.000 A 
ATOM     21  C21 UNL     1      23.832  -6.553 -33.137  0.00  0.00    +0.000 A 
ATOM     22  C22 UNL     1      23.048  -7.556 -32.563  0.00  0.00    +0.000 A 
ATOM     23  C23 UNL     1      23.367  -8.900 -32.776  0.00  0.00    +0.000 A 
ATOM     24  C24 UNL     1      24.477  -9.241 -33.556  0.00  0.00    +0.000 A 
ENDBRANCH  16  19
ENDBRANCH   2   5
BRANCH   1  27
ATOM     25  N1  UNL     1      29.930 -10.545 -41.417  0.00  0.00    +0.000 NA
ATOM     26  C6  UNL     1      28.979  -9.758 -41.832  0.00  0.00    +0.000 C 
ATOM     27  N2  UNL     1      27.949  -9.352 -40.921  0.00  0.00    +0.000 N 
ATOM     28  H7  UNL     1      27.048  -9.000 -41.314  0.00  0.00    +0.000 HD
BRANCH  25  32
ATOM     29  C2  UNL     1      33.249 -12.118 -43.555  0.00  0.00    +0.000 A 
ATOM     30  C3  UNL     1      31.976 -12.696 -43.709  0.00  0.00    +0.000 A 
ATOM     31  C4  UNL     1      30.881 -12.180 -43.013  0.00  0.00    +0.000 A 
ATOM     32  C5  UNL     1      31.032 -11.063 -42.177  0.00  0.00    +0.000 A 
ATOM     33  C25 UNL     1      32.306 -10.504 -41.985  0.00  0.00    +0.000 A 
ATOM     34  C27 UNL     1      33.406 -11.030 -42.690  0.00  0.00    +0.000 A 
BRANCH  29  36
ATOM     35  C1  UNL     1      34.337 -13.542 -45.299  0.00  0.00    +0.000 C 
ATOM     36  O1  UNL     1      34.379 -12.598 -44.235  0.00  0.00    +0.000 OA
ENDBRANCH  29  36
BRANCH  33  37
ATOM     37  O3  UNL     1      32.436  -9.427 -41.095  0.00  0.00    +0.000 OA
ATOM     38  C26 UNL     1      33.266  -9.429 -39.938  0.00  0.00    +0.000 C 
ENDBRANCH  33  37
ENDBRANCH  25  32
BRANCH  26  39
ATOM     39  S1  UNL     1      28.949  -9.086 -43.501  0.00  0.00    +0.000 S 
ATOM     40  H6  UNL     1      27.766  -8.368 -43.254  0.00  0.00    +0.000 HD
ENDBRANCH  26  39
ENDBRANCH   1  27
TORSDOF 7
ENDMDL
MODEL 2
REMARK VINA RESULT:    -6.775      3.674      9.762
REMARK INTER + INTRA:         -10.412
REMARK INTER:                  -9.145
REMARK INTRA:                  -1.267
REMARK UNBOUND:                -1.062
REMARK  Name = resultss/4CJN/ligands/lig_437_t1.pdb
REMARK  9 active torsions:
REMARK  status: ('A' for Active; 'I' for Inactive)
REMARK    1  A    between atoms: C1_1  and  O1_2
REMARK    2  A    between atoms: O1_2  and  C2_3
REMARK    3  A    between atoms: C5_6  and  N1_7
REMARK    4  A    between atoms: C6_8  and  S1_9
REMARK    5  A    between atoms: N2_10  and  N3_11
REMARK    6  A    between atoms: C7_12  and  C8_14
REMARK    7  A    between atoms: C18_25  and  C19_26
REMARK    8  A    between atoms: C25_33  and  O3_34
REMARK    9  A    between atoms: O3_34  and  C26_35
REMARK                            x       y       z     vdW  Elec       q    Type
REMARK                         _______ _______ _______ _____ _____    ______ ____
ROOT
ATOM      1  N3  UNL     1      24.615  -7.032 -39.101  0.00  0.00    +0.000 N 
ATOM      2  C7  UNL     1      24.871  -8.184 -39.920  0.00  0.00    +0.000 C 
ATOM      3  O2  UNL     1      24.268  -9.265 -39.683  0.00  0.00    +0.000 OA
ATOM      4  H8  UNL     1      24.750  -6.080 -39.509  0.00  0.00    +0.000 HD
ENDROOT
BRANCH   2   5
ATOM      5  C8  UNL     1      25.831  -8.108 -41.041  0.00  0.00    +0.000 A 
ATOM      6  C9  UNL     1      25.406  -7.714 -42.327  0.00  0.00    +0.000 A 
ATOM      7  C10 UNL     1      26.365  -7.683 -43.332  0.00  0.00    +0.000 A 
ATOM      8  C11 UNL     1      27.681  -8.022 -43.099  0.00  0.00    +0.000 A 
ATOM      9  N4  UNL     1      28.436  -7.858 -44.212  0.00  0.00    +0.000 N 
ATOM     10  C12 UNL     1      27.570  -7.430 -45.156  0.00  0.00    +0.000 A 
ATOM     11  C13 UNL     1      27.859  -7.111 -46.482  0.00  0.00    +0.000 A 
ATOM     12  C14 UNL     1      26.802  -6.668 -47.300  0.00  0.00    +0.000 A 
ATOM     13  C15 UNL     1      25.493  -6.551 -46.780  0.00  0.00    +0.000 A 
ATOM     14  C16 UNL     1      25.226  -6.873 -45.438  0.00  0.00    +0.000 A 
ATOM     15  C17 UNL     1      26.290  -7.312 -44.654  0.00  0.00    +0.000 A 
ATOM     16  C18 UNL     1      28.088  -8.428 -41.821  0.00  0.00    +0.000 A 
ATOM     17  N5  UNL     1      27.143  -8.449 -40.832  0.00  0.00    +0.000 NA
ATOM     18  H10 UNL     1      29.464  -7.996 -44.322  0.00  0.00    +0.000 HD
BRANCH  16  19
ATOM     19  C19 UNL     1      29.474  -8.831 -41.508  0.00  0.00    +0.000 A 
ATOM     20  C20 UNL     1      30.243  -8.057 -40.624  0.00  0.00    +0.000 A 
ATOM     21  C21 UNL     1      31.548  -8.444 -40.300  0.00  0.00    +0.000 A 
ATOM     22  C22 UNL     1      32.088  -9.612 -40.844  0.00  0.00    +0.000 A 
ATOM     23  C23 UNL     1      31.322 -10.400 -41.707  0.00  0.00    +0.000 A 
ATOM     24  C24 UNL     1      30.018 -10.016 -42.034  0.00  0.00    +0.000 A 
ENDBRANCH  16  19
ENDBRANCH   2   5
BRANCH   1  27
ATOM     25  N1  UNL     1      26.024  -7.771 -36.748  0.00  0.00    +0.000 NA
ATOM     26  C6  UNL     1      24.731  -7.624 -36.686  0.00  0.00    +0.000 C 
ATOM     27  N2  UNL     1      24.019  -7.139 -37.831  0.00  0.00    +0.000 N 
ATOM     28  H7  UNL     1      23.068  -6.730 -37.688  0.00  0.00    +0.000 HD
BRANCH  25  32
ATOM     29  C2  UNL     1      28.730  -9.131 -33.767  0.00  0.00    +0.000 A 
ATOM     30  C3  UNL     1      28.166  -7.846 -33.671  0.00  0.00    +0.000 A 
ATOM     31  C4  UNL     1      27.272  -7.395 -34.645  0.00  0.00    +0.000 A 
ATOM     32  C5  UNL     1      26.905  -8.230 -35.712  0.00  0.00    +0.000 A 
ATOM     33  C25 UNL     1      27.493  -9.499 -35.838  0.00  0.00    +0.000 A 
ATOM     34  C27 UNL     1      28.394  -9.946 -34.852  0.00  0.00    +0.000 A 
BRANCH  29  36
ATOM     35  C1  UNL     1      30.978  -9.988 -33.087  0.00  0.00    +0.000 C 
ATOM     36  O1  UNL     1      29.629  -9.629 -32.811  0.00  0.00    +0.000 OA
ENDBRANCH  29  36
BRANCH  33  37
ATOM     37  O3  UNL     1      27.152 -10.285 -36.950  0.00  0.00    +0.000 OA
ATOM     38  C26 UNL     1      27.978 -10.468 -38.096  0.00  0.00    +0.000 C 
ENDBRANCH  33  37
ENDBRANCH  25  32
BRANCH  26  39
ATOM     39  S1  UNL     1      23.783  -8.088 -35.229  0.00  0.00    +0.000 S 
ATOM     40  H6  UNL     1      24.803  -7.664 -34.358  0.00  0.00    +0.000 HD
ENDBRANCH  26  39
ENDBRANCH   1  27
TORSDOF 7
ENDMDL
MODEL 3
REMARK VINA RESULT:    -6.663      3.029     10.627
REMARK INTER + INTRA:         -10.256
REMARK INTER:                  -9.218
REMARK INTRA:                  -1.038
REMARK UNBOUND:                -1.062
REMARK  Name = resultss/4CJN/ligands/lig_437_t1.pdb
REMARK  9 active torsions:
REMARK  status: ('A' for Active; 'I' for Inactive)
REMARK    1  A    between atoms: C1_1  and  O1_2
REMARK    2  A    between atoms: O1_2  and  C2_3
REMARK    3  A    between atoms: C5_6  and  N1_7
REMARK    4  A    between atoms: C6_8  and  S1_9
REMARK    5  A    between atoms: N2_10  and  N3_11
REMARK    6  A    between atoms: C7_12  and  C8_14
REMARK    7  A    between atoms: C18_25  and  C19_26
REMARK    8  A    between atoms: C25_33  and  O3_34
REMARK    9  A    between atoms: O3_34  and  C26_35
REMARK                            x       y       z     vdW  Elec       q    Type
REMARK                         _______ _______ _______ _____ _____    ______ ____
ROOT
ATOM      1  N3  UNL     1      29.724 -10.211 -37.405  0.00  0.00    +0.000 N 
ATOM      2  C7  UNL     1      30.661  -9.734 -38.384  0.00  0.00    +0.000 C 
ATOM      3  O2  UNL     1      31.840  -9.456 -38.034  0.00  0.00    +0.000 OA
ATOM      4  H8  UNL     1      28.935 -10.821 -37.715  0.00  0.00    +0.000 HD
ENDROOT
BRANCH   2   5
ATOM      5  C8  UNL     1      30.255  -9.573 -39.795  0.00  0.00    +0.000 A 
ATOM      6  C9  UNL     1      29.178  -8.730 -40.142  0.00  0.00    +0.000 A 
ATOM      7  C10 UNL     1      28.847  -8.645 -41.489  0.00  0.00    +0.000 A 
ATOM      8  C11 UNL     1      29.529  -9.349 -42.457  0.00  0.00    +0.000 A 
ATOM      9  N4  UNL     1      29.065  -9.059 -43.696  0.00  0.00    +0.000 N 
ATOM     10  C12 UNL     1      28.064  -8.176 -43.491  0.00  0.00    +0.000 A 
ATOM     11  C13 UNL     1      27.268  -7.565 -44.459  0.00  0.00    +0.000 A 
ATOM     12  C14 UNL     1      26.282  -6.658 -44.027  0.00  0.00    +0.000 A 
ATOM     13  C15 UNL     1      26.117  -6.379 -42.651  0.00  0.00    +0.000 A 
ATOM     14  C16 UNL     1      26.937  -7.002 -41.692  0.00  0.00    +0.000 A 
ATOM     15  C17 UNL     1      27.900  -7.898 -42.150  0.00  0.00    +0.000 A 
ATOM     16  C18 UNL     1      30.586 -10.197 -42.098  0.00  0.00    +0.000 A 
ATOM     17  N5  UNL     1      30.915 -10.272 -40.772  0.00  0.00    +0.000 NA
ATOM     18  H10 UNL     1      29.414  -9.407 -44.616  0.00  0.00    +0.000 HD
BRANCH  16  19
ATOM     19  C19 UNL     1      31.341 -11.002 -43.080  0.00  0.00    +0.000 A 
ATOM     20  C20 UNL     1      32.179 -10.363 -44.009  0.00  0.00    +0.000 A 
ATOM     21  C21 UNL     1      32.920 -11.116 -44.926  0.00  0.00    +0.000 A 
ATOM     22  C22 UNL     1      32.840 -12.511 -44.913  0.00  0.00    +0.000 A 
ATOM     23  C23 UNL     1      32.026 -13.156 -43.978  0.00  0.00    +0.000 A 
ATOM     24  C24 UNL     1      31.284 -12.406 -43.061  0.00  0.00    +0.000 A 
ENDBRANCH  16  19
ENDBRANCH   2   5
BRANCH   1  27
ATOM     25  N1  UNL     1      27.699  -9.384 -35.594  0.00  0.00    +0.000 NA
ATOM     26  C6  UNL     1      28.920  -9.504 -35.157  0.00  0.00    +0.000 C 
ATOM     27  N2  UNL     1      29.932 -10.032 -36.025  0.00  0.00    +0.000 N 
ATOM     28  H7  UNL     1      30.803 -10.416 -35.596  0.00  0.00    +0.000 HD
BRANCH  25  32
ATOM     29  C2  UNL     1      24.258  -7.904 -33.586  0.00  0.00    +0.000 A 
ATOM     30  C3  UNL     1      24.615  -9.259 -33.462  0.00  0.00    +0.000 A 
ATOM     31  C4  UNL     1      25.748  -9.750 -34.115  0.00  0.00    +0.000 A 
ATOM     32  C5  UNL     1      26.557  -8.892 -34.876  0.00  0.00    +0.000 A 
ATOM     33  C25 UNL     1      26.186  -7.547 -35.039  0.00  0.00    +0.000 A 
ATOM     34  C27 UNL     1      25.042  -7.059 -34.377  0.00  0.00    +0.000 A 
BRANCH  29  36
ATOM     35  C1  UNL     1      22.827  -5.974 -32.893  0.00  0.00    +0.000 C 
ATOM     36  O1  UNL     1      23.132  -7.363 -32.945  0.00  0.00    +0.000 OA
ENDBRANCH  29  36
BRANCH  33  37
ATOM     37  O3  UNL     1      26.981  -6.729 -35.857  0.00  0.00    +0.000 OA
ATOM     38  C26 UNL     1      26.689  -6.415 -37.215  0.00  0.00    +0.000 C 
ENDBRANCH  33  37
ENDBRANCH  25  32
BRANCH  26  39
ATOM     39  S1  UNL     1      29.410  -8.954 -33.516  0.00  0.00    +0.000 S 
ATOM     40  H6  UNL     1      28.450  -7.926 -33.510  0.00  0.00    +0.000 HD
ENDBRANCH  26  39
ENDBRANCH   1  27
TORSDOF 7
ENDMDL
MODEL 4
REMARK VINA RESULT:    -6.464      3.006      9.437
REMARK INTER + INTRA:          -9.982
REMARK INTER:                  -8.826
REMARK INTRA:                  -1.156
REMARK UNBOUND:                -1.062
REMARK  Name = resultss/4CJN/ligands/lig_437_t1.pdb
REMARK  9 active torsions:
REMARK  status: ('A' for Active; 'I' for Inactive)
REMARK    1  A    between atoms: C1_1  and  O1_2
REMARK    2  A    between atoms: O1_2  and  C2_3
REMARK    3  A    between atoms: C5_6  and  N1_7
REMARK    4  A    between atoms: C6_8  and  S1_9
REMARK    5  A    between atoms: N2_10  and  N3_11
REMARK    6  A    between atoms: C7_12  and  C8_14
REMARK    7  A    between atoms: C18_25  and  C19_26
REMARK    8  A    between atoms: C25_33  and  O3_34
REMARK    9  A    between atoms: O3_34  and  C26_35
REMARK                            x       y       z     vdW  Elec       q    Type
REMARK                         _______ _______ _______ _____ _____    ______ ____
ROOT
ATOM      1  N3  UNL     1      30.280  -9.978 -36.550  0.00  0.00    +0.000 N 
ATOM      2  C7  UNL     1      30.825  -9.120 -37.565  0.00  0.00    +0.000 C 
ATOM      3  O2  UNL     1      31.453  -8.079 -37.230  0.00  0.00    +0.000 OA
ATOM      4  H8  UNL     1      30.150 -10.992 -36.760  0.00  0.00    +0.000 HD
ENDROOT
BRANCH   2   5
ATOM      5  C8  UNL     1      30.661  -9.453 -38.995  0.00  0.00    +0.000 A 
ATOM      6  C9  UNL     1      31.783  -9.730 -39.803  0.00  0.00    +0.000 A 
ATOM      7  C10 UNL     1      31.547 -10.019 -41.142  0.00  0.00    +0.000 A 
ATOM      8  C11 UNL     1      30.276 -10.034 -41.675  0.00  0.00    +0.000 A 
ATOM      9  N4  UNL     1      30.294 -10.398 -42.979  0.00  0.00    +0.000 N 
ATOM     10  C12 UNL     1      31.600 -10.591 -43.266  0.00  0.00    +0.000 A 
ATOM     11  C13 UNL     1      32.145 -10.984 -44.487  0.00  0.00    +0.000 A 
ATOM     12  C14 UNL     1      33.542 -11.140 -44.567  0.00  0.00    +0.000 A 
ATOM     13  C15 UNL     1      34.356 -10.907 -43.435  0.00  0.00    +0.000 A 
ATOM     14  C16 UNL     1      33.783 -10.517 -42.211  0.00  0.00    +0.000 A 
ATOM     15  C17 UNL     1      32.399 -10.366 -42.164  0.00  0.00    +0.000 A 
ATOM     16  C18 UNL     1      29.171  -9.740 -40.866  0.00  0.00    +0.000 A 
ATOM     17  N5  UNL     1      29.405  -9.465 -39.546  0.00  0.00    +0.000 NA
ATOM     18  H10 UNL     1      29.485 -10.535 -43.624  0.00  0.00    +0.000 HD
BRANCH  16  19
ATOM     19  C19 UNL     1      27.785  -9.711 -41.377  0.00  0.00    +0.000 A 
ATOM     20  C20 UNL     1      26.778 -10.422 -40.704  0.00  0.00    +0.000 A 
ATOM     21  C21 UNL     1      25.457 -10.380 -41.163  0.00  0.00    +0.000 A 
ATOM     22  C22 UNL     1      25.130  -9.619 -42.288  0.00  0.00    +0.000 A 
ATOM     23  C23 UNL     1      26.121  -8.892 -42.951  0.00  0.00    +0.000 A 
ATOM     24  C24 UNL     1      27.443  -8.931 -42.496  0.00  0.00    +0.000 A 
ENDBRANCH  16  19
ENDBRANCH   2   5
BRANCH   1  27
ATOM     25  N1  UNL     1      27.748  -9.253 -35.487  0.00  0.00    +0.000 NA
ATOM     26  C6  UNL     1      28.811  -9.069 -34.757  0.00  0.00    +0.000 C 
ATOM     27  N2  UNL     1      30.081  -9.536 -35.229  0.00  0.00    +0.000 N 
ATOM     28  H7  UNL     1      30.849  -9.674 -34.535  0.00  0.00    +0.000 HD
BRANCH  25  32
ATOM     29  C2  UNL     1      23.715  -8.165 -34.700  0.00  0.00    +0.000 A 
ATOM     30  C3  UNL     1      24.340  -9.159 -33.925  0.00  0.00    +0.000 A 
ATOM     31  C4  UNL     1      25.666  -9.517 -34.175  0.00  0.00    +0.000 A 
ATOM     32  C5  UNL     1      26.399  -8.869 -35.182  0.00  0.00    +0.000 A 
ATOM     33  C25 UNL     1      25.772  -7.904 -35.988  0.00  0.00    +0.000 A 
ATOM     34  C27 UNL     1      24.434  -7.549 -35.729  0.00  0.00    +0.000 A 
BRANCH  29  36
ATOM     35  C1  UNL     1      21.666  -6.878 -35.327  0.00  0.00    +0.000 C 
ATOM     36  O1  UNL     1      22.387  -7.768 -34.484  0.00  0.00    +0.000 OA
ENDBRANCH  29  36
BRANCH  33  37
ATOM     37  O3  UNL     1      26.512  -7.319 -37.027  0.00  0.00    +0.000 OA
ATOM     38  C26 UNL     1      26.330  -7.603 -38.410  0.00  0.00    +0.000 C 
ENDBRANCH  33  37
ENDBRANCH  25  32
BRANCH  26  39
ATOM     39  S1  UNL     1      28.760  -8.171 -33.199  0.00  0.00    +0.000 S 
ATOM     40  H6  UNL     1      29.206  -6.981 -33.802  0.00  0.00    +0.000 HD
ENDBRANCH  26  39
ENDBRANCH   1  27
TORSDOF 7
ENDMDL
MODEL 5
REMARK VINA RESULT:    -6.377      2.709      4.773
REMARK INTER + INTRA:          -9.862
REMARK INTER:                  -8.960
REMARK INTRA:                  -0.902
REMARK UNBOUND:                -1.062
REMARK  Name = resultss/4CJN/ligands/lig_437_t1.pdb
REMARK  9 active torsions:
REMARK  status: ('A' for Active; 'I' for Inactive)
REMARK    1  A    between atoms: C1_1  and  O1_2
REMARK    2  A    between atoms: O1_2  and  C2_3
REMARK    3  A    between atoms: C5_6  and  N1_7
REMARK    4  A    between atoms: C6_8  and  S1_9
REMARK    5  A    between atoms: N2_10  and  N3_11
REMARK    6  A    between atoms: C7_12  and  C8_14
REMARK    7  A    between atoms: C18_25  and  C19_26
REMARK    8  A    between atoms: C25_33  and  O3_34
REMARK    9  A    between atoms: O3_34  and  C26_35
REMARK                            x       y       z     vdW  Elec       q    Type
REMARK                         _______ _______ _______ _____ _____    ______ ____
ROOT
ATOM      1  N3  UNL     1      30.435 -10.231 -39.127  0.00  0.00    +0.000 N 
ATOM      2  C7  UNL     1      30.901  -9.180 -38.267  0.00  0.00    +0.000 C 
ATOM      3  O2  UNL     1      31.460  -8.167 -38.768  0.00  0.00    +0.000 OA
ATOM      4  H8  UNL     1      29.638 -10.828 -38.811  0.00  0.00    +0.000 HD
ENDROOT
BRANCH   2   5
ATOM      5  C8  UNL     1      30.725  -9.274 -36.804  0.00  0.00    +0.000 A 
ATOM      6  C9  UNL     1      31.830  -9.516 -35.960  0.00  0.00    +0.000 A 
ATOM      7  C10 UNL     1      31.580  -9.607 -34.596  0.00  0.00    +0.000 A 
ATOM      8  C11 UNL     1      30.312  -9.473 -34.073  0.00  0.00    +0.000 A 
ATOM      9  N4  UNL     1      30.327  -9.541 -32.720  0.00  0.00    +0.000 N 
ATOM     10  C12 UNL     1      31.624  -9.742 -32.400  0.00  0.00    +0.000 A 
ATOM     11  C13 UNL     1      32.165  -9.874 -31.122  0.00  0.00    +0.000 A 
ATOM     12  C14 UNL     1      33.556 -10.066 -31.011  0.00  0.00    +0.000 A 
ATOM     13  C15 UNL     1      34.368 -10.116 -32.167  0.00  0.00    +0.000 A 
ATOM     14  C16 UNL     1      33.801  -9.973 -33.446  0.00  0.00    +0.000 A 
ATOM     15  C17 UNL     1      32.422  -9.790 -33.525  0.00  0.00    +0.000 A 
ATOM     16  C18 UNL     1      29.220  -9.250 -34.923  0.00  0.00    +0.000 A 
ATOM     17  N5  UNL     1      29.470  -9.152 -36.264  0.00  0.00    +0.000 NA
ATOM     18  H10 UNL     1      29.529  -9.431 -32.058  0.00  0.00    +0.000 HD
BRANCH  16  19
ATOM     19  C19 UNL     1      27.832  -9.124 -34.433  0.00  0.00    +0.000 A 
ATOM     20  C20 UNL     1      27.453  -7.992 -33.693  0.00  0.00    +0.000 A 
ATOM     21  C21 UNL     1      26.135  -7.849 -33.246  0.00  0.00    +0.000 A 
ATOM     22  C22 UNL     1      25.184  -8.827 -33.547  0.00  0.00    +0.000 A 
ATOM     23  C23 UNL     1      25.546  -9.946 -34.302  0.00  0.00    +0.000 A 
ATOM     24  C24 UNL     1      26.863 -10.092 -34.749  0.00  0.00    +0.000 A 
ENDBRANCH  16  19
ENDBRANCH   2   5
BRANCH   1  27
ATOM     25  N1  UNL     1      29.087  -9.173 -41.392  0.00  0.00    +0.000 NA
ATOM     26  C6  UNL     1      30.134  -9.926 -41.579  0.00  0.00    +0.000 C 
ATOM     27  N2  UNL     1      30.894 -10.372 -40.449  0.00  0.00    +0.000 N 
ATOM     28  H7  UNL     1      31.876 -10.692 -40.606  0.00  0.00    +0.000 HD
BRANCH  25  32
ATOM     29  C2  UNL     1      26.436  -7.482 -44.251  0.00  0.00    +0.000 A 
ATOM     30  C3  UNL     1      27.797  -7.126 -44.257  0.00  0.00    +0.000 A 
ATOM     31  C4  UNL     1      28.674  -7.682 -43.324  0.00  0.00    +0.000 A 
ATOM     32  C5  UNL     1      28.214  -8.623 -42.390  0.00  0.00    +0.000 A 
ATOM     33  C25 UNL     1      26.850  -8.955 -42.349  0.00  0.00    +0.000 A 
ATOM     34  C27 UNL     1      25.971  -8.389 -43.294  0.00  0.00    +0.000 A 
BRANCH  29  36
ATOM     35  C1  UNL     1      24.199  -7.452 -45.368  0.00  0.00    +0.000 C 
ATOM     36  O1  UNL     1      25.518  -6.953 -45.171  0.00  0.00    +0.000 OA
ENDBRANCH  29  36
BRANCH  33  37
ATOM     37  O3  UNL     1      26.409  -9.851 -41.363  0.00  0.00    +0.000 OA
ATOM     38  C26 UNL     1      25.571  -9.500 -40.267  0.00  0.00    +0.000 C 
ENDBRANCH  33  37
ENDBRANCH  25  32
BRANCH  26  39
ATOM     39  S1  UNL     1      30.621 -10.500 -43.213  0.00  0.00    +0.000 S 
ATOM     40  H6  UNL     1      30.328 -11.838 -42.894  0.00  0.00    +0.000 HD
ENDBRANCH  26  39
ENDBRANCH   1  27
TORSDOF 7
ENDMDL
MODEL 6
REMARK VINA RESULT:    -6.377      5.293      9.521
REMARK INTER + INTRA:          -9.862
REMARK INTER:                  -9.161
REMARK INTRA:                  -0.701
REMARK UNBOUND:                -1.062
REMARK  Name = resultss/4CJN/ligands/lig_437_t1.pdb
REMARK  9 active torsions:
REMARK  status: ('A' for Active; 'I' for Inactive)
REMARK    1  A    between atoms: C1_1  and  O1_2
REMARK    2  A    between atoms: O1_2  and  C2_3
REMARK    3  A    between atoms: C5_6  and  N1_7
REMARK    4  A    between atoms: C6_8  and  S1_9
REMARK    5  A    between atoms: N2_10  and  N3_11
REMARK    6  A    between atoms: C7_12  and  C8_14
REMARK    7  A    between atoms: C18_25  and  C19_26
REMARK    8  A    between atoms: C25_33  and  O3_34
REMARK    9  A    between atoms: O3_34  and  C26_35
REMARK                            x       y       z     vdW  Elec       q    Type
REMARK                         _______ _______ _______ _____ _____    ______ ____
ROOT
ATOM      1  N3  UNL     1      27.733  -7.760 -44.844  0.00  0.00    +0.000 N 
ATOM      2  C7  UNL     1      27.776  -7.300 -43.484  0.00  0.00    +0.000 C 
ATOM      3  O2  UNL     1      27.212  -6.215 -43.175  0.00  0.00    +0.000 OA
ATOM      4  H8  UNL     1      27.800  -8.784 -45.035  0.00  0.00    +0.000 HD
ENDROOT
BRANCH   2   5
ATOM      5  C8  UNL     1      28.470  -8.091 -42.447  0.00  0.00    +0.000 A 
ATOM      6  C9  UNL     1      28.193  -7.884 -41.079  0.00  0.00    +0.000 A 
ATOM      7  C10 UNL     1      28.899  -8.656 -40.164  0.00  0.00    +0.000 A 
ATOM      8  C11 UNL     1      29.835  -9.586 -40.559  0.00  0.00    +0.000 A 
ATOM      9  N4  UNL     1      30.345 -10.254 -39.496  0.00  0.00    +0.000 N 
ATOM     10  C12 UNL     1      29.731  -9.712 -38.423  0.00  0.00    +0.000 A 
ATOM     11  C13 UNL     1      29.908 -10.063 -37.085  0.00  0.00    +0.000 A 
ATOM     12  C14 UNL     1      29.152  -9.376 -36.117  0.00  0.00    +0.000 A 
ATOM     13  C15 UNL     1      28.239  -8.367 -36.501  0.00  0.00    +0.000 A 
ATOM     14  C16 UNL     1      28.072  -8.034 -37.858  0.00  0.00    +0.000 A 
ATOM     15  C17 UNL     1      28.838  -8.728 -38.793  0.00  0.00    +0.000 A 
ATOM     16  C18 UNL     1      30.113  -9.771 -41.920  0.00  0.00    +0.000 A 
ATOM     17  N5  UNL     1      29.411  -9.016 -42.819  0.00  0.00    +0.000 NA
ATOM     18  H10 UNL     1      31.036 -11.036 -39.494  0.00  0.00    +0.000 HD
BRANCH  16  19
ATOM     19  C19 UNL     1      31.124 -10.731 -42.412  0.00  0.00    +0.000 A 
ATOM     20  C20 UNL     1      32.490 -10.456 -42.238  0.00  0.00    +0.000 A 
ATOM     21  C21 UNL     1      33.455 -11.369 -42.675  0.00  0.00    +0.000 A 
ATOM     22  C22 UNL     1      33.063 -12.568 -43.276  0.00  0.00    +0.000 A 
ATOM     23  C23 UNL     1      31.706 -12.860 -43.433  0.00  0.00    +0.000 A 
ATOM     24  C24 UNL     1      30.739 -11.949 -42.998  0.00  0.00    +0.000 A 
ENDBRANCH  16  19
ENDBRANCH   2   5
BRANCH   1  27
ATOM     25  N1  UNL     1      25.089  -7.211 -45.725  0.00  0.00    +0.000 NA
ATOM     26  C6  UNL     1      26.090  -6.730 -46.406  0.00  0.00    +0.000 C 
ATOM     27  N2  UNL     1      27.425  -6.898 -45.913  0.00  0.00    +0.000 N 
ATOM     28  H7  UNL     1      28.171  -6.262 -46.273  0.00  0.00    +0.000 HD
BRANCH  25  32
ATOM     29  C2  UNL     1      20.967  -6.854 -46.695  0.00  0.00    +0.000 A 
ATOM     30  C3  UNL     1      21.841  -7.516 -47.575  0.00  0.00    +0.000 A 
ATOM     31  C4  UNL     1      23.196  -7.641 -47.259  0.00  0.00    +0.000 A 
ATOM     32  C5  UNL     1      23.692  -7.134 -46.048  0.00  0.00    +0.000 A 
ATOM     33  C25 UNL     1      22.836  -6.436 -45.182  0.00  0.00    +0.000 A 
ATOM     34  C27 UNL     1      21.471  -6.313 -45.508  0.00  0.00    +0.000 A 
BRANCH  29  36
ATOM     35  C1  UNL     1      18.708  -7.787 -47.222  0.00  0.00    +0.000 C 
ATOM     36  O1  UNL     1      19.598  -6.707 -46.966  0.00  0.00    +0.000 OA
ENDBRANCH  29  36
BRANCH  33  37
ATOM     37  O3  UNL     1      23.375  -5.886 -44.009  0.00  0.00    +0.000 OA
ATOM     38  C26 UNL     1      23.182  -6.418 -42.702  0.00  0.00    +0.000 C 
ENDBRANCH  33  37
ENDBRANCH  25  32
BRANCH  26  39
ATOM     39  S1  UNL     1      25.867  -5.926 -47.999  0.00  0.00    +0.000 S 
ATOM     40  H6  UNL     1      27.238  -5.630 -48.109  0.00  0.00    +0.000 HD
ENDBRANCH  26  39
ENDBRANCH   1  27
TORSDOF 7
ENDMDL
MODEL 7
REMARK VINA RESULT:    -6.185      2.657      5.451
REMARK INTER + INTRA:          -9.597
REMARK INTER:                  -8.726
REMARK INTRA:                  -0.871
REMARK UNBOUND:                -1.062
REMARK  Name = resultss/4CJN/ligands/lig_437_t1.pdb
REMARK  9 active torsions:
REMARK  status: ('A' for Active; 'I' for Inactive)
REMARK    1  A    between atoms: C1_1  and  O1_2
REMARK    2  A    between atoms: O1_2  and  C2_3
REMARK    3  A    between atoms: C5_6  and  N1_7
REMARK    4  A    between atoms: C6_8  and  S1_9
REMARK    5  A    between atoms: N2_10  and  N3_11
REMARK    6  A    between atoms: C7_12  and  C8_14
REMARK    7  A    between atoms: C18_25  and  C19_26
REMARK    8  A    between atoms: C25_33  and  O3_34
REMARK    9  A    between atoms: O3_34  and  C26_35
REMARK                            x       y       z     vdW  Elec       q    Type
REMARK                         _______ _______ _______ _____ _____    ______ ____
ROOT
ATOM      1  N3  UNL     1      30.757  -8.288 -37.953  0.00  0.00    +0.000 N 
ATOM      2  C7  UNL     1      29.826  -8.918 -37.058  0.00  0.00    +0.000 C 
ATOM      3  O2  UNL     1      30.257  -9.635 -36.115  0.00  0.00    +0.000 OA
ATOM      4  H8  UNL     1      30.478  -7.405 -38.434  0.00  0.00    +0.000 HD
ENDROOT
BRANCH   2   5
ATOM      5  C8  UNL     1      28.372  -8.726 -37.232  0.00  0.00    +0.000 A 
ATOM      6  C9  UNL     1      27.526  -8.580 -36.112  0.00  0.00    +0.000 A 
ATOM      7  C10 UNL     1      26.168  -8.420 -36.358  0.00  0.00    +0.000 A 
ATOM      8  C11 UNL     1      25.652  -8.405 -37.635  0.00  0.00    +0.000 A 
ATOM      9  N4  UNL     1      24.317  -8.177 -37.624  0.00  0.00    +0.000 N 
ATOM     10  C12 UNL     1      23.996  -8.070 -36.316  0.00  0.00    +0.000 A 
ATOM     11  C13 UNL     1      22.734  -7.826 -35.776  0.00  0.00    +0.000 A 
ATOM     12  C14 UNL     1      22.623  -7.738 -34.375  0.00  0.00    +0.000 A 
ATOM     13  C15 UNL     1      23.763  -7.889 -33.553  0.00  0.00    +0.000 A 
ATOM     14  C16 UNL     1      25.027  -8.128 -34.121  0.00  0.00    +0.000 A 
ATOM     15  C17 UNL     1      25.106  -8.215 -35.509  0.00  0.00    +0.000 A 
ATOM     16  C18 UNL     1      26.500  -8.568 -38.739  0.00  0.00    +0.000 A 
ATOM     17  N5  UNL     1      27.837  -8.717 -38.495  0.00  0.00    +0.000 NA
ATOM     18  H10 UNL     1      23.671  -8.072 -38.437  0.00  0.00    +0.000 HD
BRANCH  16  19
ATOM     19  C19 UNL     1      26.010  -8.590 -40.133  0.00  0.00    +0.000 A 
ATOM     20  C20 UNL     1      26.207  -7.471 -40.959  0.00  0.00    +0.000 A 
ATOM     21  C21 UNL     1      25.771  -7.490 -42.288  0.00  0.00    +0.000 A 
ATOM     22  C22 UNL     1      25.151  -8.630 -42.806  0.00  0.00    +0.000 A 
ATOM     23  C23 UNL     1      24.972  -9.755 -41.998  0.00  0.00    +0.000 A 
ATOM     24  C24 UNL     1      25.404  -9.739 -40.669  0.00  0.00    +0.000 A 
ENDBRANCH  16  19
ENDBRANCH   2   5
BRANCH   1  27
ATOM     25  N1  UNL     1      31.825  -9.528 -40.274  0.00  0.00    +0.000 NA
ATOM     26  C6  UNL     1      32.569  -9.446 -39.207  0.00  0.00    +0.000 C 
ATOM     27  N2  UNL     1      32.090  -8.722 -38.067  0.00  0.00    +0.000 N 
ATOM     28  H7  UNL     1      32.785  -8.393 -37.360  0.00  0.00    +0.000 HD
BRANCH  25  32
ATOM     29  C2  UNL     1      32.663 -11.414 -43.989  0.00  0.00    +0.000 A 
ATOM     30  C3  UNL     1      33.690 -10.761 -43.285  0.00  0.00    +0.000 A 
ATOM     31  C4  UNL     1      33.422 -10.144 -42.062  0.00  0.00    +0.000 A 
ATOM     32  C5  UNL     1      32.134 -10.195 -41.507  0.00  0.00    +0.000 A 
ATOM     33  C25 UNL     1      31.093 -10.810 -42.221  0.00  0.00    +0.000 A 
ATOM     34  C27 UNL     1      31.371 -11.429 -43.455  0.00  0.00    +0.000 A 
BRANCH  29  36
ATOM     35  C1  UNL     1      32.869 -13.462 -45.409  0.00  0.00    +0.000 C 
ATOM     36  O1  UNL     1      32.884 -12.052 -45.220  0.00  0.00    +0.000 OA
ENDBRANCH  29  36
BRANCH  33  37
ATOM     37  O3  UNL     1      29.802 -10.790 -41.670  0.00  0.00    +0.000 OA
ATOM     38  C26 UNL     1      28.721 -10.009 -42.169  0.00  0.00    +0.000 C 
ENDBRANCH  33  37
ENDBRANCH  25  32
BRANCH  26  39
ATOM     39  S1  UNL     1      34.156 -10.282 -39.079  0.00  0.00    +0.000 S 
ATOM     40  H6  UNL     1      34.706  -9.247 -38.302  0.00  0.00    +0.000 HD
ENDBRANCH  26  39
ENDBRANCH   1  27
TORSDOF 7
ENDMDL
MODEL 8
REMARK VINA RESULT:    -6.073      4.541     10.113
REMARK INTER + INTRA:          -9.442
REMARK INTER:                  -8.706
REMARK INTRA:                  -0.736
REMARK UNBOUND:                -1.062
REMARK  Name = resultss/4CJN/ligands/lig_437_t1.pdb
REMARK  9 active torsions:
REMARK  status: ('A' for Active; 'I' for Inactive)
REMARK    1  A    between atoms: C1_1  and  O1_2
REMARK    2  A    between atoms: O1_2  and  C2_3
REMARK    3  A    between atoms: C5_6  and  N1_7
REMARK    4  A    between atoms: C6_8  and  S1_9
REMARK    5  A    between atoms: N2_10  and  N3_11
REMARK    6  A    between atoms: C7_12  and  C8_14
REMARK    7  A    between atoms: C18_25  and  C19_26
REMARK    8  A    between atoms: C25_33  and  O3_34
REMARK    9  A    between atoms: O3_34  and  C26_35
REMARK                            x       y       z     vdW  Elec       q    Type
REMARK                         _______ _______ _______ _____ _____    ______ ____
ROOT
ATOM      1  N3  UNL     1      25.023  -6.870 -37.633  0.00  0.00    +0.000 N 
ATOM      2  C7  UNL     1      24.127  -6.529 -38.703  0.00  0.00    +0.000 C 
ATOM      3  O2  UNL     1      23.073  -5.885 -38.451  0.00  0.00    +0.000 OA
ATOM      4  H8  UNL     1      26.037  -7.003 -37.844  0.00  0.00    +0.000 HD
ENDROOT
BRANCH   2   5
ATOM      5  C8  UNL     1      24.436  -6.922 -40.093  0.00  0.00    +0.000 A 
ATOM      6  C9  UNL     1      23.531  -6.641 -41.138  0.00  0.00    +0.000 A 
ATOM      7  C10 UNL     1      23.886  -7.056 -42.415  0.00  0.00    +0.000 A 
ATOM      8  C11 UNL     1      25.067  -7.720 -42.668  0.00  0.00    +0.000 A 
ATOM      9  N4  UNL     1      25.219  -7.969 -43.990  0.00  0.00    +0.000 N 
ATOM     10  C12 UNL     1      24.104  -7.471 -44.565  0.00  0.00    +0.000 A 
ATOM     11  C13 UNL     1      23.782  -7.473 -45.922  0.00  0.00    +0.000 A 
ATOM     12  C14 UNL     1      22.565  -6.884 -46.313  0.00  0.00    +0.000 A 
ATOM     13  C15 UNL     1      21.705  -6.306 -45.350  0.00  0.00    +0.000 A 
ATOM     14  C16 UNL     1      22.053  -6.310 -43.988  0.00  0.00    +0.000 A 
ATOM     15  C17 UNL     1      23.262  -6.904 -43.631  0.00  0.00    +0.000 A 
ATOM     16  C18 UNL     1      25.950  -8.009 -41.618  0.00  0.00    +0.000 A 
ATOM     17  N5  UNL     1      25.602  -7.591 -40.363  0.00  0.00    +0.000 NA
ATOM     18  H10 UNL     1      26.028  -8.416 -44.476  0.00  0.00    +0.000 HD
BRANCH  16  19
ATOM     19  C19 UNL     1      27.219  -8.741 -41.813  0.00  0.00    +0.000 A 
ATOM     20  C20 UNL     1      27.468  -9.913 -41.080  0.00  0.00    +0.000 A 
ATOM     21  C21 UNL     1      28.654 -10.629 -41.275  0.00  0.00    +0.000 A 
ATOM     22  C22 UNL     1      29.592 -10.189 -42.212  0.00  0.00    +0.000 A 
ATOM     23  C23 UNL     1      29.342  -9.037 -42.962  0.00  0.00    +0.000 A 
ATOM     24  C24 UNL     1      28.158  -8.318 -42.769  0.00  0.00    +0.000 A 
ENDBRANCH  16  19
ENDBRANCH   2   5
BRANCH   1  27
ATOM     25  N1  UNL     1      26.661  -7.718 -35.473  0.00  0.00    +0.000 NA
ATOM     26  C6  UNL     1      25.422  -7.397 -35.232  0.00  0.00    +0.000 C 
ATOM     27  N2  UNL     1      24.615  -6.856 -36.286  0.00  0.00    +0.000 N 
ATOM     28  H7  UNL     1      23.757  -6.319 -36.029  0.00  0.00    +0.000 HD
BRANCH  25  32
ATOM     29  C2  UNL     1      29.595  -9.304 -32.839  0.00  0.00    +0.000 A 
ATOM     30  C3  UNL     1      28.985  -8.070 -32.551  0.00  0.00    +0.000 A 
ATOM     31  C4  UNL     1      28.016  -7.546 -33.410  0.00  0.00    +0.000 A 
ATOM     32  C5  UNL     1      27.621  -8.258 -34.553  0.00  0.00    +0.000 A 
ATOM     33  C25 UNL     1      28.253  -9.471 -34.871  0.00  0.00    +0.000 A 
ATOM     34  C27 UNL     1      29.230  -9.992 -34.000  0.00  0.00    +0.000 A 
BRANCH  29  36
ATOM     35  C1  UNL     1      31.597 -10.751 -32.451  0.00  0.00    +0.000 C 
ATOM     36  O1  UNL     1      30.570  -9.872 -32.005  0.00  0.00    +0.000 OA
ENDBRANCH  29  36
BRANCH  33  37
ATOM     37  O3  UNL     1      27.881 -10.128 -36.054  0.00  0.00    +0.000 OA
ATOM     38  C26 UNL     1      28.702 -10.239 -37.212  0.00  0.00    +0.000 C 
ENDBRANCH  33  37
ENDBRANCH  25  32
BRANCH  26  39
ATOM     39  S1  UNL     1      24.651  -7.683 -33.633  0.00  0.00    +0.000 S 
ATOM     40  H6  UNL     1      23.654  -6.721 -33.875  0.00  0.00    +0.000 HD
ENDBRANCH  26  39
ENDBRANCH   1  27
TORSDOF 7
ENDMDL
MODEL 9
REMARK VINA RESULT:    -5.760      3.805      8.297
REMARK INTER + INTRA:          -9.011
REMARK INTER:                  -8.283
REMARK INTRA:                  -0.728
REMARK UNBOUND:                -1.062
REMARK  Name = resultss/4CJN/ligands/lig_437_t1.pdb
REMARK  9 active torsions:
REMARK  status: ('A' for Active; 'I' for Inactive)
REMARK    1  A    between atoms: C1_1  and  O1_2
REMARK    2  A    between atoms: O1_2  and  C2_3
REMARK    3  A    between atoms: C5_6  and  N1_7
REMARK    4  A    between atoms: C6_8  and  S1_9
REMARK    5  A    between atoms: N2_10  and  N3_11
REMARK    6  A    between atoms: C7_12  and  C8_14
REMARK    7  A    between atoms: C18_25  and  C19_26
REMARK    8  A    between atoms: C25_33  and  O3_34
REMARK    9  A    between atoms: O3_34  and  C26_35
REMARK                            x       y       z     vdW  Elec       q    Type
REMARK                         _______ _______ _______ _____ _____    ______ ____
ROOT
ATOM      1  N3  UNL     1      30.767 -10.384 -37.816  0.00  0.00    +0.000 N 
ATOM      2  C7  UNL     1      30.222  -9.646 -38.921  0.00  0.00    +0.000 C 
ATOM      3  O2  UNL     1      30.993  -9.203 -39.815  0.00  0.00    +0.000 OA
ATOM      4  H8  UNL     1      30.167 -11.087 -37.331  0.00  0.00    +0.000 HD
ENDROOT
BRANCH   2   5
ATOM      5  C8  UNL     1      28.768  -9.407 -39.018  0.00  0.00    +0.000 A 
ATOM      6  C9  UNL     1      28.150  -9.231 -40.274  0.00  0.00    +0.000 A 
ATOM      7  C10 UNL     1      26.780  -8.996 -40.281  0.00  0.00    +0.000 A 
ATOM      8  C11 UNL     1      26.042  -8.930 -39.120  0.00  0.00    +0.000 A 
ATOM      9  N4  UNL     1      24.726  -8.751 -39.382  0.00  0.00    +0.000 N 
ATOM     10  C12 UNL     1      24.649  -8.683 -40.729  0.00  0.00    +0.000 A 
ATOM     11  C13 UNL     1      23.500  -8.510 -41.499  0.00  0.00    +0.000 A 
ATOM     12  C14 UNL     1      23.643  -8.481 -42.900  0.00  0.00    +0.000 A 
ATOM     13  C15 UNL     1      24.916  -8.628 -43.495  0.00  0.00    +0.000 A 
ATOM     14  C16 UNL     1      26.061  -8.807 -42.697  0.00  0.00    +0.000 A 
ATOM     15  C17 UNL     1      25.889  -8.828 -41.315  0.00  0.00    +0.000 A 
ATOM     16  C18 UNL     1      26.670  -9.089 -37.877  0.00  0.00    +0.000 A 
ATOM     17  N5  UNL     1      28.017  -9.330 -37.873  0.00  0.00    +0.000 NA
ATOM     18  H10 UNL     1      23.931  -8.706 -38.707  0.00  0.00    +0.000 HD
BRANCH  16  19
ATOM     19  C19 UNL     1      25.945  -9.003 -36.592  0.00  0.00    +0.000 A 
ATOM     20  C20 UNL     1      26.419  -9.711 -35.475  0.00  0.00    +0.000 A 
ATOM     21  C21 UNL     1      25.756  -9.615 -34.247  0.00  0.00    +0.000 A 
ATOM     22  C22 UNL     1      24.626  -8.804 -34.122  0.00  0.00    +0.000 A 
ATOM     23  C23 UNL     1      24.161  -8.079 -35.222  0.00  0.00    +0.000 A 
ATOM     24  C24 UNL     1      24.820  -8.173 -36.452  0.00  0.00    +0.000 A 
ENDBRANCH  16  19
ENDBRANCH   2   5
BRANCH   1  27
ATOM     25  N1  UNL     1      31.756  -9.215 -35.423  0.00  0.00    +0.000 NA
ATOM     26  C6  UNL     1      32.607  -9.625 -36.320  0.00  0.00    +0.000 C 
ATOM     27  N2  UNL     1      32.132 -10.322 -37.479  0.00  0.00    +0.000 N 
ATOM     28  H7  UNL     1      32.807 -10.910 -38.017  0.00  0.00    +0.000 HD
BRANCH  25  32
ATOM     29  C2  UNL     1      32.710  -7.206 -31.802  0.00  0.00    +0.000 A 
ATOM     30  C3  UNL     1      32.586  -6.477 -32.999  0.00  0.00    +0.000 A 
ATOM     31  C4  UNL     1      32.267  -7.131 -34.191  0.00  0.00    +0.000 A 
ATOM     32  C5  UNL     1      32.039  -8.516 -34.202  0.00  0.00    +0.000 A 
ATOM     33  C25 UNL     1      32.201  -9.258 -33.021  0.00  0.00    +0.000 A 
ATOM     34  C27 UNL     1      32.523  -8.592 -31.823  0.00  0.00    +0.000 A 
BRANCH  29  36
ATOM     35  C1  UNL     1      33.692  -7.242 -29.503  0.00  0.00    +0.000 C 
ATOM     36  O1  UNL     1      33.025  -6.594 -30.579  0.00  0.00    +0.000 OA
ENDBRANCH  29  36
BRANCH  33  37
ATOM     37  O3  UNL     1      32.027 -10.650 -33.077  0.00  0.00    +0.000 OA
ATOM     38  C26 UNL     1      32.149 -11.527 -31.962  0.00  0.00    +0.000 C 
ENDBRANCH  33  37
ENDBRANCH  25  32
BRANCH  26  39
ATOM     39  S1  UNL     1      34.368  -9.276 -36.200  0.00  0.00    +0.000 S 
ATOM     40  H6  UNL     1      34.191  -8.470 -35.062  0.00  0.00    +0.000 HD
ENDBRANCH  26  39
ENDBRANCH   1  27
TORSDOF 7
ENDMDL
