MODEL 1
REMARK VINA RESULT:    -6.324      0.000      0.000
REMARK INTER + INTRA:          -8.570
REMARK INTER:                  -7.802
REMARK INTRA:                  -0.768
REMARK UNBOUND:                -0.768
REMARK  Name = resultss/4CJN/ligands/lig_248_t0.pdb
REMARK  6 active torsions:
REMARK  status: ('A' for Active; 'I' for Inactive)
REMARK    1  A    between atoms: C1_1  and  C2_2
REMARK    2  A    between atoms: C5_5  and  N1_6
REMARK    3  A    between atoms: C6_7  and  C7_9
REMARK    4  A    between atoms: C7_9  and  N2_10
REMARK    5  A    between atoms: C9_13  and  C10_14
REMARK    6  A    between atoms: C17_22  and  N4_23
REMARK                            x       y       z     vdW  Elec       q    Type
REMARK                         _______ _______ _______ _____ _____    ______ ____
ROOT
ATOM      1  N1  UNL     1      27.601 -10.265 -37.569  0.00  0.00    +0.000 N 
ATOM      2  C6  UNL     1      27.228  -9.272 -38.535  0.00  0.00    +0.000 C 
ATOM      3  O1  UNL     1      27.549  -8.064 -38.363  0.00  0.00    +0.000 OA
ATOM      4  H6  UNL     1      27.126 -11.196 -37.609  0.00  0.00    +0.000 HD
ENDROOT
BRANCH   1   9
ATOM      5  C1  UNL     1      30.794  -9.200 -32.908  0.00  0.00    +0.000 C 
ATOM      6  C2  UNL     1      29.949  -9.483 -34.115  0.00  0.00    +0.000 A 
ATOM      7  C3  UNL     1      30.539  -9.577 -35.381  0.00  0.00    +0.000 A 
ATOM      8  C4  UNL     1      29.750  -9.812 -36.508  0.00  0.00    +0.000 A 
ATOM      9  C5  UNL     1      28.360  -9.950 -36.392  0.00  0.00    +0.000 A 
ATOM     10  C17 UNL     1      27.746  -9.791 -35.123  0.00  0.00    +0.000 A 
ATOM     11  C18 UNL     1      28.555  -9.573 -33.995  0.00  0.00    +0.000 A 
BRANCH  10  12
ATOM     12  N4  UNL     1      26.316  -9.793 -34.971  0.00  0.00    +0.000 N 
ATOM     13  O3  UNL     1      25.751 -10.681 -34.299  0.00  0.00    +0.000 OA
ATOM     14  O4  UNL     1      25.541  -8.925 -35.704  0.00  0.00    +0.000 OA
ENDBRANCH  10  12
ENDBRANCH   1   9
BRANCH   2  15
ATOM     15  C7  UNL     1      26.428  -9.650 -39.748  0.00  0.00    +0.000 C 
BRANCH  15  16
ATOM     16  N2  UNL     1      26.997  -9.018 -40.960  0.00  0.00    +0.000 N 
ATOM     17  C8  UNL     1      26.415  -7.867 -41.445  0.00  0.00    +0.000 A 
ATOM     18  O2  UNL     1      25.419  -7.354 -40.860  0.00  0.00    +0.000 OA
ATOM     19  C9  UNL     1      26.923  -7.245 -42.596  0.00  0.00    +0.000 A 
ATOM     20  C10 UNL     1      26.299  -5.998 -43.147  0.00  0.00    +0.000 C 
ATOM     21  N3  UNL     1      28.005  -7.772 -43.215  0.00  0.00    +0.000 NA
ATOM     22  C11 UNL     1      28.615  -8.886 -42.750  0.00  0.00    +0.000 A 
ATOM     23  C12 UNL     1      29.740  -9.382 -43.418  0.00  0.00    +0.000 A 
ATOM     24  C13 UNL     1      30.395 -10.517 -42.942  0.00  0.00    +0.000 A 
ATOM     25  C14 UNL     1      29.931 -11.160 -41.796  0.00  0.00    +0.000 A 
ATOM     26  C15 UNL     1      28.805 -10.678 -41.121  0.00  0.00    +0.000 A 
ATOM     27  C16 UNL     1      28.117  -9.532 -41.590  0.00  0.00    +0.000 A 
ENDBRANCH  15  16
ENDBRANCH   2  15
TORSDOF 4
ENDMDL
MODEL 2
REMARK VINA RESULT:    -6.081      0.942      2.775
REMARK INTER + INTRA:          -8.271
REMARK INTER:                  -7.391
REMARK INTRA:                  -0.880
REMARK UNBOUND:                -0.768
REMARK  Name = resultss/4CJN/ligands/lig_248_t0.pdb
REMARK  6 active torsions:
REMARK  status: ('A' for Active; 'I' for Inactive)
REMARK    1  A    between atoms: C1_1  and  C2_2
REMARK    2  A    between atoms: C5_5  and  N1_6
REMARK    3  A    between atoms: C6_7  and  C7_9
REMARK    4  A    between atoms: C7_9  and  N2_10
REMARK    5  A    between atoms: C9_13  and  C10_14
REMARK    6  A    between atoms: C17_22  and  N4_23
REMARK                            x       y       z     vdW  Elec       q    Type
REMARK                         _______ _______ _______ _____ _____    ______ ____
ROOT
ATOM      1  N1  UNL     1      27.507 -10.073 -37.572  0.00  0.00    +0.000 N 
ATOM      2  C6  UNL     1      27.150  -9.020 -38.478  0.00  0.00    +0.000 C 
ATOM      3  O1  UNL     1      27.517  -7.834 -38.252  0.00  0.00    +0.000 OA
ATOM      4  H6  UNL     1      26.999 -10.984 -37.648  0.00  0.00    +0.000 HD
ENDROOT
BRANCH   1   9
ATOM      5  C1  UNL     1      30.830  -9.355 -32.936  0.00  0.00    +0.000 C 
ATOM      6  C2  UNL     1      29.951  -9.548 -34.136  0.00  0.00    +0.000 A 
ATOM      7  C3  UNL     1      30.509  -9.579 -35.419  0.00  0.00    +0.000 A 
ATOM      8  C4  UNL     1      29.689  -9.729 -36.538  0.00  0.00    +0.000 A 
ATOM      9  C5  UNL     1      28.299  -9.845 -36.397  0.00  0.00    +0.000 A 
ATOM     10  C17 UNL     1      27.719  -9.749 -35.106  0.00  0.00    +0.000 A 
ATOM     11  C18 UNL     1      28.559  -9.615 -33.987  0.00  0.00    +0.000 A 
BRANCH  10  12
ATOM     12  N4  UNL     1      26.293  -9.730 -34.920  0.00  0.00    +0.000 N 
ATOM     13  O3  UNL     1      25.717 -10.676 -34.343  0.00  0.00    +0.000 OA
ATOM     14  O4  UNL     1      25.529  -8.760 -35.526  0.00  0.00    +0.000 OA
ENDBRANCH  10  12
ENDBRANCH   1   9
BRANCH   2  15
ATOM     15  C7  UNL     1      26.313  -9.308 -39.691  0.00  0.00    +0.000 C 
BRANCH  15  16
ATOM     16  N2  UNL     1      27.112  -9.128 -40.924  0.00  0.00    +0.000 N 
ATOM     17  C8  UNL     1      28.144 -10.004 -41.182  0.00  0.00    +0.000 A 
ATOM     18  O2  UNL     1      28.400 -10.950 -40.385  0.00  0.00    +0.000 OA
ATOM     19  C9  UNL     1      28.926  -9.859 -42.339  0.00  0.00    +0.000 A 
ATOM     20  C10 UNL     1      30.061 -10.794 -42.633  0.00  0.00    +0.000 C 
ATOM     21  N3  UNL     1      28.645  -8.864 -43.212  0.00  0.00    +0.000 NA
ATOM     22  C11 UNL     1      27.622  -8.003 -43.001  0.00  0.00    +0.000 A 
ATOM     23  C12 UNL     1      27.364  -7.002 -43.944  0.00  0.00    +0.000 A 
ATOM     24  C13 UNL     1      26.302  -6.118 -43.755  0.00  0.00    +0.000 A 
ATOM     25  C14 UNL     1      25.492  -6.233 -42.625  0.00  0.00    +0.000 A 
ATOM     26  C15 UNL     1      25.742  -7.226 -41.674  0.00  0.00    +0.000 A 
ATOM     27  C16 UNL     1      26.821  -8.131 -41.839  0.00  0.00    +0.000 A 
ENDBRANCH  15  16
ENDBRANCH   2  15
TORSDOF 4
ENDMDL
MODEL 3
REMARK VINA RESULT:    -5.941      2.935      4.700
REMARK INTER + INTRA:          -8.098
REMARK INTER:                  -7.236
REMARK INTRA:                  -0.861
REMARK UNBOUND:                -0.768
REMARK  Name = resultss/4CJN/ligands/lig_248_t0.pdb
REMARK  6 active torsions:
REMARK  status: ('A' for Active; 'I' for Inactive)
REMARK    1  A    between atoms: C1_1  and  C2_2
REMARK    2  A    between atoms: C5_5  and  N1_6
REMARK    3  A    between atoms: C6_7  and  C7_9
REMARK    4  A    between atoms: C7_9  and  N2_10
REMARK    5  A    between atoms: C9_13  and  C10_14
REMARK    6  A    between atoms: C17_22  and  N4_23
REMARK                            x       y       z     vdW  Elec       q    Type
REMARK                         _______ _______ _______ _____ _____    ______ ____
ROOT
ATOM      1  N1  UNL     1      25.178  -7.970 -37.445  0.00  0.00    +0.000 N 
ATOM      2  C6  UNL     1      25.976  -6.808 -37.713  0.00  0.00    +0.000 C 
ATOM      3  O1  UNL     1      26.280  -6.015 -36.779  0.00  0.00    +0.000 OA
ATOM      4  H6  UNL     1      24.744  -8.469 -38.255  0.00  0.00    +0.000 HD
ENDROOT
BRANCH   1   9
ATOM      5  C1  UNL     1      23.237  -9.032 -32.139  0.00  0.00    +0.000 C 
ATOM      6  C2  UNL     1      23.758  -8.757 -33.518  0.00  0.00    +0.000 A 
ATOM      7  C3  UNL     1      22.957  -8.093 -34.454  0.00  0.00    +0.000 A 
ATOM      8  C4  UNL     1      23.431  -7.863 -35.747  0.00  0.00    +0.000 A 
ATOM      9  C5  UNL     1      24.708  -8.296 -36.129  0.00  0.00    +0.000 A 
ATOM     10  C17 UNL     1      25.501  -9.028 -35.208  0.00  0.00    +0.000 A 
ATOM     11  C18 UNL     1      25.018  -9.236 -33.904  0.00  0.00    +0.000 A 
BRANCH  10  12
ATOM     12  N4  UNL     1      26.761  -9.606 -35.591  0.00  0.00    +0.000 N 
ATOM     13  O3  UNL     1      26.902 -10.132 -36.713  0.00  0.00    +0.000 OA
ATOM     14  O4  UNL     1      27.768  -9.742 -34.664  0.00  0.00    +0.000 OA
ENDBRANCH  10  12
ENDBRANCH   1   9
BRANCH   2  15
ATOM     15  C7  UNL     1      26.438  -6.505 -39.109  0.00  0.00    +0.000 C 
BRANCH  15  16
ATOM     16  N2  UNL     1      26.354  -7.717 -39.955  0.00  0.00    +0.000 N 
ATOM     17  C8  UNL     1      27.372  -8.643 -39.893  0.00  0.00    +0.000 A 
ATOM     18  O2  UNL     1      28.356  -8.467 -39.120  0.00  0.00    +0.000 OA
ATOM     19  C9  UNL     1      27.329  -9.800 -40.687  0.00  0.00    +0.000 A 
ATOM     20  C10 UNL     1      28.431 -10.816 -40.643  0.00  0.00    +0.000 C 
ATOM     21  N3  UNL     1      26.267 -10.010 -41.500  0.00  0.00    +0.000 NA
ATOM     22  C11 UNL     1      25.239  -9.133 -41.565  0.00  0.00    +0.000 A 
ATOM     23  C12 UNL     1      24.158  -9.406 -42.410  0.00  0.00    +0.000 A 
ATOM     24  C13 UNL     1      23.080  -8.524 -42.476  0.00  0.00    +0.000 A 
ATOM     25  C14 UNL     1      23.076  -7.368 -41.696  0.00  0.00    +0.000 A 
ATOM     26  C15 UNL     1      24.152  -7.082 -40.851  0.00  0.00    +0.000 A 
ATOM     27  C16 UNL     1      25.264  -7.957 -40.773  0.00  0.00    +0.000 A 
ENDBRANCH  15  16
ENDBRANCH   2  15
TORSDOF 4
ENDMDL
MODEL 4
REMARK VINA RESULT:    -5.913      2.931      7.350
REMARK INTER + INTRA:          -8.064
REMARK INTER:                  -6.860
REMARK INTRA:                  -1.204
REMARK UNBOUND:                -0.768
REMARK  Name = resultss/4CJN/ligands/lig_248_t0.pdb
REMARK  6 active torsions:
REMARK  status: ('A' for Active; 'I' for Inactive)
REMARK    1  A    between atoms: C1_1  and  C2_2
REMARK    2  A    between atoms: C5_5  and  N1_6
REMARK    3  A    between atoms: C6_7  and  C7_9
REMARK    4  A    between atoms: C7_9  and  N2_10
REMARK    5  A    between atoms: C9_13  and  C10_14
REMARK    6  A    between atoms: C17_22  and  N4_23
REMARK                            x       y       z     vdW  Elec       q    Type
REMARK                         _______ _______ _______ _____ _____    ______ ____
ROOT
ATOM      1  N1  UNL     1      28.055  -7.367 -38.379  0.00  0.00    +0.000 N 
ATOM      2  C6  UNL     1      26.672  -7.359 -37.998  0.00  0.00    +0.000 C 
ATOM      3  O1  UNL     1      25.837  -8.076 -38.616  0.00  0.00    +0.000 OA
ATOM      4  H6  UNL     1      28.671  -6.601 -38.022  0.00  0.00    +0.000 HD
ENDROOT
BRANCH   1   9
ATOM      5  C1  UNL     1      29.877 -10.558 -42.801  0.00  0.00    +0.000 C 
ATOM      6  C2  UNL     1      29.396  -9.739 -41.640  0.00  0.00    +0.000 A 
ATOM      7  C3  UNL     1      29.208  -8.359 -41.781  0.00  0.00    +0.000 A 
ATOM      8  C4  UNL     1      28.790  -7.592 -40.694  0.00  0.00    +0.000 A 
ATOM      9  C5  UNL     1      28.557  -8.186 -39.446  0.00  0.00    +0.000 A 
ATOM     10  C17 UNL     1      28.808  -9.572 -39.275  0.00  0.00    +0.000 A 
ATOM     11  C18 UNL     1      29.213 -10.335 -40.385  0.00  0.00    +0.000 A 
BRANCH  10  12
ATOM     12  N4  UNL     1      28.711 -10.203 -37.987  0.00  0.00    +0.000 N 
ATOM     13  O3  UNL     1      27.781 -10.998 -37.739  0.00  0.00    +0.000 OA
ATOM     14  O4  UNL     1      29.537  -9.809 -36.960  0.00  0.00    +0.000 OA
ENDBRANCH  10  12
ENDBRANCH   1   9
BRANCH   2  15
ATOM     15  C7  UNL     1      26.194  -6.480 -36.879  0.00  0.00    +0.000 C 
BRANCH  15  16
ATOM     16  N2  UNL     1      26.144  -7.240 -35.609  0.00  0.00    +0.000 N 
ATOM     17  C8  UNL     1      27.317  -7.463 -34.922  0.00  0.00    +0.000 A 
ATOM     18  O2  UNL     1      28.415  -7.020 -35.361  0.00  0.00    +0.000 OA
ATOM     19  C9  UNL     1      27.308  -8.186 -33.718  0.00  0.00    +0.000 A 
ATOM     20  C10 UNL     1      28.573  -8.450 -32.959  0.00  0.00    +0.000 C 
ATOM     21  N3  UNL     1      26.133  -8.644 -33.225  0.00  0.00    +0.000 NA
ATOM     22  C11 UNL     1      24.961  -8.419 -33.863  0.00  0.00    +0.000 A 
ATOM     23  C12 UNL     1      23.772  -8.900 -33.303  0.00  0.00    +0.000 A 
ATOM     24  C13 UNL     1      22.553  -8.661 -33.935  0.00  0.00    +0.000 A 
ATOM     25  C14 UNL     1      22.514  -7.938 -35.126  0.00  0.00    +0.000 A 
ATOM     26  C15 UNL     1      23.695  -7.456 -35.698  0.00  0.00    +0.000 A 
ATOM     27  C16 UNL     1      24.948  -7.693 -35.081  0.00  0.00    +0.000 A 
ENDBRANCH  15  16
ENDBRANCH   2  15
TORSDOF 4
ENDMDL
MODEL 5
REMARK VINA RESULT:    -5.843      2.810      3.788
REMARK INTER + INTRA:          -7.978
REMARK INTER:                  -7.030
REMARK INTRA:                  -0.947
REMARK UNBOUND:                -0.768
REMARK  Name = resultss/4CJN/ligands/lig_248_t0.pdb
REMARK  6 active torsions:
REMARK  status: ('A' for Active; 'I' for Inactive)
REMARK    1  A    between atoms: C1_1  and  C2_2
REMARK    2  A    between atoms: C5_5  and  N1_6
REMARK    3  A    between atoms: C6_7  and  C7_9
REMARK    4  A    between atoms: C7_9  and  N2_10
REMARK    5  A    between atoms: C9_13  and  C10_14
REMARK    6  A    between atoms: C17_22  and  N4_23
REMARK                            x       y       z     vdW  Elec       q    Type
REMARK                         _______ _______ _______ _____ _____    ______ ____
ROOT
ATOM      1  N1  UNL     1      25.315  -7.917 -37.302  0.00  0.00    +0.000 N 
ATOM      2  C6  UNL     1      26.149  -6.767 -37.503  0.00  0.00    +0.000 C 
ATOM      3  O1  UNL     1      26.434  -6.009 -36.535  0.00  0.00    +0.000 OA
ATOM      4  H6  UNL     1      24.903  -8.382 -38.143  0.00  0.00    +0.000 HD
ENDROOT
BRANCH   1   9
ATOM      5  C1  UNL     1      23.144  -9.085 -32.108  0.00  0.00    +0.000 C 
ATOM      6  C2  UNL     1      23.725  -8.783 -33.458  0.00  0.00    +0.000 A 
ATOM      7  C3  UNL     1      22.984  -8.058 -34.397  0.00  0.00    +0.000 A 
ATOM      8  C4  UNL     1      23.512  -7.802 -35.663  0.00  0.00    +0.000 A 
ATOM      9  C5  UNL     1      24.786  -8.270 -36.015  0.00  0.00    +0.000 A 
ATOM     10  C17 UNL     1      25.517  -9.062 -35.093  0.00  0.00    +0.000 A 
ATOM     11  C18 UNL     1      24.979  -9.296 -33.815  0.00  0.00    +0.000 A 
BRANCH  10  12
ATOM     12  N4  UNL     1      26.768  -9.675 -35.451  0.00  0.00    +0.000 N 
ATOM     13  O3  UNL     1      26.959 -10.096 -36.610  0.00  0.00    +0.000 OA
ATOM     14  O4  UNL     1      27.700  -9.961 -34.481  0.00  0.00    +0.000 OA
ENDBRANCH  10  12
ENDBRANCH   1   9
BRANCH   2  15
ATOM     15  C7  UNL     1      26.674  -6.436 -38.870  0.00  0.00    +0.000 C 
BRANCH  15  16
ATOM     16  N2  UNL     1      26.481  -7.580 -39.790  0.00  0.00    +0.000 N 
ATOM     17  C8  UNL     1      25.273  -7.716 -40.438  0.00  0.00    +0.000 A 
ATOM     18  O2  UNL     1      24.348  -6.874 -40.259  0.00  0.00    +0.000 OA
ATOM     19  C9  UNL     1      25.053  -8.792 -41.311  0.00  0.00    +0.000 A 
ATOM     20  C10 UNL     1      23.743  -8.966 -42.019  0.00  0.00    +0.000 C 
ATOM     21  N3  UNL     1      26.046  -9.686 -41.530  0.00  0.00    +0.000 NA
ATOM     22  C11 UNL     1      27.253  -9.566 -40.929  0.00  0.00    +0.000 A 
ATOM     23  C12 UNL     1      28.251 -10.509 -41.201  0.00  0.00    +0.000 A 
ATOM     24  C13 UNL     1      29.507 -10.391 -40.607  0.00  0.00    +0.000 A 
ATOM     25  C14 UNL     1      29.772  -9.331 -39.742  0.00  0.00    +0.000 A 
ATOM     26  C15 UNL     1      28.782  -8.385 -39.458  0.00  0.00    +0.000 A 
ATOM     27  C16 UNL     1      27.495  -8.487 -40.042  0.00  0.00    +0.000 A 
ENDBRANCH  15  16
ENDBRANCH   2  15
TORSDOF 4
ENDMDL
MODEL 6
REMARK VINA RESULT:    -5.781      2.344      7.433
REMARK INTER + INTRA:          -7.901
REMARK INTER:                  -7.197
REMARK INTRA:                  -0.704
REMARK UNBOUND:                -0.768
REMARK  Name = resultss/4CJN/ligands/lig_248_t0.pdb
REMARK  6 active torsions:
REMARK  status: ('A' for Active; 'I' for Inactive)
REMARK    1  A    between atoms: C1_1  and  C2_2
REMARK    2  A    between atoms: C5_5  and  N1_6
REMARK    3  A    between atoms: C6_7  and  C7_9
REMARK    4  A    between atoms: C7_9  and  N2_10
REMARK    5  A    between atoms: C9_13  and  C10_14
REMARK    6  A    between atoms: C17_22  and  N4_23
REMARK                            x       y       z     vdW  Elec       q    Type
REMARK                         _______ _______ _______ _____ _____    ______ ____
ROOT
ATOM      1  N1  UNL     1      27.576 -10.055 -39.852  0.00  0.00    +0.000 N 
ATOM      2  C6  UNL     1      28.017  -9.519 -38.596  0.00  0.00    +0.000 C 
ATOM      3  O1  UNL     1      28.621  -8.412 -38.552  0.00  0.00    +0.000 OA
ATOM      4  H6  UNL     1      27.302 -11.063 -39.890  0.00  0.00    +0.000 HD
ENDROOT
BRANCH   1   9
ATOM      5  C1  UNL     1      28.141  -7.375 -44.907  0.00  0.00    +0.000 C 
ATOM      6  C2  UNL     1      28.004  -8.086 -43.593  0.00  0.00    +0.000 A 
ATOM      7  C3  UNL     1      26.916  -7.814 -42.756  0.00  0.00    +0.000 A 
ATOM      8  C4  UNL     1      26.803  -8.452 -41.520  0.00  0.00    +0.000 A 
ATOM      9  C5  UNL     1      27.776  -9.368 -41.097  0.00  0.00    +0.000 A 
ATOM     10  C17 UNL     1      28.916  -9.600 -41.908  0.00  0.00    +0.000 A 
ATOM     11  C18 UNL     1      29.007  -8.963 -43.158  0.00  0.00    +0.000 A 
BRANCH  10  12
ATOM     12  N4  UNL     1      30.004 -10.429 -41.462  0.00  0.00    +0.000 N 
ATOM     13  O3  UNL     1      30.738 -10.060 -40.522  0.00  0.00    +0.000 OA
ATOM     14  O4  UNL     1      30.356 -11.551 -42.175  0.00  0.00    +0.000 OA
ENDBRANCH  10  12
ENDBRANCH   1   9
BRANCH   2  15
ATOM     15  C7  UNL     1      27.790 -10.279 -37.321  0.00  0.00    +0.000 C 
BRANCH  15  16
ATOM     16  N2  UNL     1      27.070  -9.437 -36.339  0.00  0.00    +0.000 N 
ATOM     17  C8  UNL     1      25.817  -8.963 -36.661  0.00  0.00    +0.000 A 
ATOM     18  O2  UNL     1      25.287  -9.249 -37.771  0.00  0.00    +0.000 OA
ATOM     19  C9  UNL     1      25.108  -8.157 -35.756  0.00  0.00    +0.000 A 
ATOM     20  C10 UNL     1      23.748  -7.622 -36.090  0.00  0.00    +0.000 C 
ATOM     21  N3  UNL     1      25.656  -7.866 -34.553  0.00  0.00    +0.000 NA
ATOM     22  C11 UNL     1      26.874  -8.337 -34.196  0.00  0.00    +0.000 A 
ATOM     23  C12 UNL     1      27.388  -8.019 -32.934  0.00  0.00    +0.000 A 
ATOM     24  C13 UNL     1      28.632  -8.512 -32.540  0.00  0.00    +0.000 A 
ATOM     25  C14 UNL     1      29.365  -9.325 -33.403  0.00  0.00    +0.000 A 
ATOM     26  C15 UNL     1      28.864  -9.646 -34.668  0.00  0.00    +0.000 A 
ATOM     27  C16 UNL     1      27.607  -9.151 -35.096  0.00  0.00    +0.000 A 
ENDBRANCH  15  16
ENDBRANCH   2  15
TORSDOF 4
ENDMDL
MODEL 7
REMARK VINA RESULT:    -5.774      2.720      4.261
REMARK INTER + INTRA:          -7.892
REMARK INTER:                  -6.750
REMARK INTRA:                  -1.143
REMARK UNBOUND:                -0.768
REMARK  Name = resultss/4CJN/ligands/lig_248_t0.pdb
REMARK  6 active torsions:
REMARK  status: ('A' for Active; 'I' for Inactive)
REMARK    1  A    between atoms: C1_1  and  C2_2
REMARK    2  A    between atoms: C5_5  and  N1_6
REMARK    3  A    between atoms: C6_7  and  C7_9
REMARK    4  A    between atoms: C7_9  and  N2_10
REMARK    5  A    between atoms: C9_13  and  C10_14
REMARK    6  A    between atoms: C17_22  and  N4_23
REMARK                            x       y       z     vdW  Elec       q    Type
REMARK                         _______ _______ _______ _____ _____    ______ ____
ROOT
ATOM      1  N1  UNL     1      26.745  -7.244 -36.273  0.00  0.00    +0.000 N 
ATOM      2  C6  UNL     1      26.573  -7.439 -37.684  0.00  0.00    +0.000 C 
ATOM      3  O1  UNL     1      25.592  -8.101 -38.121  0.00  0.00    +0.000 OA
ATOM      4  H6  UNL     1      27.674  -6.908 -35.930  0.00  0.00    +0.000 HD
ENDROOT
BRANCH   1   9
ATOM      5  C1  UNL     1      23.058  -9.103 -32.273  0.00  0.00    +0.000 C 
ATOM      6  C2  UNL     1      24.032  -8.627 -33.310  0.00  0.00    +0.000 A 
ATOM      7  C3  UNL     1      23.783  -7.447 -34.020  0.00  0.00    +0.000 A 
ATOM      8  C4  UNL     1      24.673  -7.020 -35.006  0.00  0.00    +0.000 A 
ATOM      9  C5  UNL     1      25.822  -7.765 -35.304  0.00  0.00    +0.000 A 
ATOM     10  C17 UNL     1      26.049  -8.996 -34.637  0.00  0.00    +0.000 A 
ATOM     11  C18 UNL     1      25.152  -9.404 -33.634  0.00  0.00    +0.000 A 
BRANCH  10  12
ATOM     12  N4  UNL     1      27.140  -9.860 -34.997  0.00  0.00    +0.000 N 
ATOM     13  O3  UNL     1      28.102 -10.024 -34.219  0.00  0.00    +0.000 OA
ATOM     14  O4  UNL     1      27.222 -10.377 -36.269  0.00  0.00    +0.000 OA
ENDBRANCH  10  12
ENDBRANCH   1   9
BRANCH   2  15
ATOM     15  C7  UNL     1      27.570  -6.880 -38.658  0.00  0.00    +0.000 C 
BRANCH  15  16
ATOM     16  N2  UNL     1      28.476  -7.946 -39.140  0.00  0.00    +0.000 N 
ATOM     17  C8  UNL     1      29.444  -8.431 -38.289  0.00  0.00    +0.000 A 
ATOM     18  O2  UNL     1      29.552  -7.981 -37.114  0.00  0.00    +0.000 OA
ATOM     19  C9  UNL     1      30.325  -9.437 -38.716  0.00  0.00    +0.000 A 
ATOM     20  C10 UNL     1      31.394  -9.972 -37.809  0.00  0.00    +0.000 C 
ATOM     21  N3  UNL     1      30.203  -9.944 -39.965  0.00  0.00    +0.000 NA
ATOM     22  C11 UNL     1      29.246  -9.507 -40.816  0.00  0.00    +0.000 A 
ATOM     23  C12 UNL     1      29.152 -10.076 -42.091  0.00  0.00    +0.000 A 
ATOM     24  C13 UNL     1      28.160  -9.654 -42.976  0.00  0.00    +0.000 A 
ATOM     25  C14 UNL     1      27.257  -8.665 -42.589  0.00  0.00    +0.000 A 
ATOM     26  C15 UNL     1      27.343  -8.086 -41.320  0.00  0.00    +0.000 A 
ATOM     27  C16 UNL     1      28.347  -8.491 -40.406  0.00  0.00    +0.000 A 
ENDBRANCH  15  16
ENDBRANCH   2  15
TORSDOF 4
ENDMDL
MODEL 8
REMARK VINA RESULT:    -5.762      1.720      7.003
REMARK INTER + INTRA:          -7.877
REMARK INTER:                  -7.272
REMARK INTRA:                  -0.605
REMARK UNBOUND:                -0.768
REMARK  Name = resultss/4CJN/ligands/lig_248_t0.pdb
REMARK  6 active torsions:
REMARK  status: ('A' for Active; 'I' for Inactive)
REMARK    1  A    between atoms: C1_1  and  C2_2
REMARK    2  A    between atoms: C5_5  and  N1_6
REMARK    3  A    between atoms: C6_7  and  C7_9
REMARK    4  A    between atoms: C7_9  and  N2_10
REMARK    5  A    between atoms: C9_13  and  C10_14
REMARK    6  A    between atoms: C17_22  and  N4_23
REMARK                            x       y       z     vdW  Elec       q    Type
REMARK                         _______ _______ _______ _____ _____    ______ ____
ROOT
ATOM      1  N1  UNL     1      27.859 -10.512 -40.467  0.00  0.00    +0.000 N 
ATOM      2  C6  UNL     1      27.880  -9.925 -39.158  0.00  0.00    +0.000 C 
ATOM      3  O1  UNL     1      27.915  -8.671 -39.022  0.00  0.00    +0.000 OA
ATOM      4  H6  UNL     1      28.071 -11.532 -40.555  0.00  0.00    +0.000 HD
ENDROOT
BRANCH   1   9
ATOM      5  C1  UNL     1      28.033  -7.196 -45.160  0.00  0.00    +0.000 C 
ATOM      6  C2  UNL     1      27.973  -8.056 -43.932  0.00  0.00    +0.000 A 
ATOM      7  C3  UNL     1      29.147  -8.583 -43.384  0.00  0.00    +0.000 A 
ATOM      8  C4  UNL     1      29.090  -9.407 -42.259  0.00  0.00    +0.000 A 
ATOM      9  C5  UNL     1      27.860  -9.723 -41.666  0.00  0.00    +0.000 A 
ATOM     10  C17 UNL     1      26.659  -9.247 -42.253  0.00  0.00    +0.000 A 
ATOM     11  C18 UNL     1      26.734  -8.404 -43.376  0.00  0.00    +0.000 A 
BRANCH  10  12
ATOM     12  N4  UNL     1      25.369  -9.649 -41.762  0.00  0.00    +0.000 N 
ATOM     13  O3  UNL     1      24.563 -10.243 -42.507  0.00  0.00    +0.000 OA
ATOM     14  O4  UNL     1      24.940  -9.230 -40.524  0.00  0.00    +0.000 OA
ENDBRANCH  10  12
ENDBRANCH   1   9
BRANCH   2  15
ATOM     15  C7  UNL     1      27.885 -10.793 -37.933  0.00  0.00    +0.000 C 
BRANCH  15  16
ATOM     16  N2  UNL     1      28.349 -10.025 -36.756  0.00  0.00    +0.000 N 
ATOM     17  C8  UNL     1      27.428  -9.643 -35.805  0.00  0.00    +0.000 A 
ATOM     18  O2  UNL     1      26.209  -9.949 -35.931  0.00  0.00    +0.000 OA
ATOM     19  C9  UNL     1      27.832  -8.907 -34.680  0.00  0.00    +0.000 A 
ATOM     20  C10 UNL     1      26.845  -8.471 -33.639  0.00  0.00    +0.000 C 
ATOM     21  N3  UNL     1      29.140  -8.595 -34.523  0.00  0.00    +0.000 NA
ATOM     22  C11 UNL     1      30.073  -8.978 -35.425  0.00  0.00    +0.000 A 
ATOM     23  C12 UNL     1      31.414  -8.642 -35.207  0.00  0.00    +0.000 A 
ATOM     24  C13 UNL     1      32.393  -9.045 -36.115  0.00  0.00    +0.000 A 
ATOM     25  C14 UNL     1      32.038  -9.787 -37.241  0.00  0.00    +0.000 A 
ATOM     26  C15 UNL     1      30.701 -10.124 -37.472  0.00  0.00    +0.000 A 
ATOM     27  C16 UNL     1      29.686  -9.719 -36.570  0.00  0.00    +0.000 A 
ENDBRANCH  15  16
ENDBRANCH   2  15
TORSDOF 4
ENDMDL
MODEL 9
REMARK VINA RESULT:    -5.715      2.496      7.509
REMARK INTER + INTRA:          -7.820
REMARK INTER:                  -7.251
REMARK INTRA:                  -0.568
REMARK UNBOUND:                -0.768
REMARK  Name = resultss/4CJN/ligands/lig_248_t0.pdb
REMARK  6 active torsions:
REMARK  status: ('A' for Active; 'I' for Inactive)
REMARK    1  A    between atoms: C1_1  and  C2_2
REMARK    2  A    between atoms: C5_5  and  N1_6
REMARK    3  A    between atoms: C6_7  and  C7_9
REMARK    4  A    between atoms: C7_9  and  N2_10
REMARK    5  A    between atoms: C9_13  and  C10_14
REMARK    6  A    between atoms: C17_22  and  N4_23
REMARK                            x       y       z     vdW  Elec       q    Type
REMARK                         _______ _______ _______ _____ _____    ______ ____
ROOT
ATOM      1  N1  UNL     1      28.047  -8.011 -39.574  0.00  0.00    +0.000 N 
ATOM      2  C6  UNL     1      26.951  -8.449 -38.758  0.00  0.00    +0.000 C 
ATOM      3  O1  UNL     1      26.509  -9.626 -38.863  0.00  0.00    +0.000 OA
ATOM      4  H6  UNL     1      28.233  -6.985 -39.642  0.00  0.00    +0.000 HD
ENDROOT
BRANCH   1   9
ATOM      5  C1  UNL     1      30.864 -11.329 -43.330  0.00  0.00    +0.000 C 
ATOM      6  C2  UNL     1      30.121 -10.457 -42.362  0.00  0.00    +0.000 A 
ATOM      7  C3  UNL     1      30.621 -10.252 -41.071  0.00  0.00    +0.000 A 
ATOM      8  C4  UNL     1      29.916  -9.465 -40.161  0.00  0.00    +0.000 A 
ATOM      9  C5  UNL     1      28.696  -8.873 -40.521  0.00  0.00    +0.000 A 
ATOM     10  C17 UNL     1      28.149  -9.129 -41.803  0.00  0.00    +0.000 A 
ATOM     11  C18 UNL     1      28.880  -9.910 -42.716  0.00  0.00    +0.000 A 
BRANCH  10  12
ATOM     12  N4  UNL     1      26.843  -8.655 -42.174  0.00  0.00    +0.000 N 
ATOM     13  O3  UNL     1      26.005  -9.431 -42.679  0.00  0.00    +0.000 OA
ATOM     14  O4  UNL     1      26.560  -7.309 -42.140  0.00  0.00    +0.000 OA
ENDBRANCH  10  12
ENDBRANCH   1   9
BRANCH   2  15
ATOM     15  C7  UNL     1      26.301  -7.507 -37.786  0.00  0.00    +0.000 C 
BRANCH  15  16
ATOM     16  N2  UNL     1      26.271  -8.101 -36.430  0.00  0.00    +0.000 N 
ATOM     17  C8  UNL     1      27.454  -8.528 -35.866  0.00  0.00    +0.000 A 
ATOM     18  O2  UNL     1      28.545  -8.407 -36.490  0.00  0.00    +0.000 OA
ATOM     19  C9  UNL     1      27.462  -9.102 -34.585  0.00  0.00    +0.000 A 
ATOM     20  C10 UNL     1      28.735  -9.583 -33.956  0.00  0.00    +0.000 C 
ATOM     21  N3  UNL     1      26.301  -9.213 -33.897  0.00  0.00    +0.000 NA
ATOM     22  C11 UNL     1      25.128  -8.780 -34.413  0.00  0.00    +0.000 A 
ATOM     23  C12 UNL     1      23.958  -8.904 -33.654  0.00  0.00    +0.000 A 
ATOM     24  C13 UNL     1      22.743  -8.445 -34.160  0.00  0.00    +0.000 A 
ATOM     25  C14 UNL     1      22.690  -7.858 -35.423  0.00  0.00    +0.000 A 
ATOM     26  C15 UNL     1      23.850  -7.732 -36.193  0.00  0.00    +0.000 A 
ATOM     27  C16 UNL     1      25.097  -8.199 -35.706  0.00  0.00    +0.000 A 
ENDBRANCH  15  16
ENDBRANCH   2  15
TORSDOF 4
ENDMDL
