MODEL 1
REMARK VINA RESULT:    -4.651      0.000      0.000
REMARK INTER + INTRA:          -7.671
REMARK INTER:                  -6.826
REMARK INTRA:                  -0.845
REMARK UNBOUND:                -0.845
REMARK  Name = resultss/4CJN/ligands/lig_65_t0.pdb
REMARK  11 active torsions:
REMARK  status: ('A' for Active; 'I' for Inactive)
REMARK    1  A    between atoms: O1_1  and  C1_2
REMARK    2  A    between atoms: C1_2  and  C2_3
REMARK    3  A    between atoms: C4_5  and  N1_6
REMARK    4  A    between atoms: N1_6  and  C5_7
REMARK    5  A    between atoms: C5_7  and  C6_8
REMARK    6  A    between atoms: C5_7  and  C7_10
REMARK    7  A    between atoms: C6_8  and  O2_9
REMARK    8  A    between atoms: C7_10  and  O3_11
REMARK    9  A    between atoms: C8_12  and  O4_13
REMARK   10  A    between atoms: C9_14  and  O5_15
REMARK   11  A    between atoms: C10_16  and  O6_17
REMARK                            x       y       z     vdW  Elec       q    Type
REMARK                         _______ _______ _______ _____ _____    ______ ____
ROOT
ATOM      1  C2  UNL     1      26.851 -10.052 -39.980  0.00  0.00    +0.000 C 
ATOM      2  C3  UNL     1      27.034  -9.334 -38.850  0.00  0.00    +0.000 C 
ATOM      3  C4  UNL     1      25.984  -8.404 -38.273  0.00  0.00    +0.000 C 
ATOM      4  C8  UNL     1      25.021  -7.900 -39.368  0.00  0.00    +0.000 C 
ATOM      5  C9  UNL     1      24.479  -9.090 -40.179  0.00  0.00    +0.000 C 
ATOM      6  C10 UNL     1      25.634  -9.847 -40.875  0.00  0.00    +0.000 C 
ENDROOT
BRANCH   3   7
ATOM      7  N1  UNL     1      25.213  -9.082 -37.207  0.00  0.00    +0.000 NA
ATOM      8  H6  UNL     1      25.309 -10.125 -37.255  0.00  0.00    +0.000 HD
BRANCH   7   9
ATOM      9  C5  UNL     1      25.508  -8.590 -35.847  0.00  0.00    +0.000 C 
BRANCH   9  10
ATOM     10  C6  UNL     1      24.203  -8.152 -35.169  0.00  0.00    +0.000 C 
BRANCH  10  11
ATOM     11  O2  UNL     1      23.170  -8.113 -36.116  0.00  0.00    +0.000 OA
ATOM     12  H10 UNL     1      22.346  -7.877 -35.614  0.00  0.00    +0.000 HD
ENDBRANCH  10  11
ENDBRANCH   9  10
BRANCH   9  13
ATOM     13  C7  UNL     1      26.252  -9.641 -34.992  0.00  0.00    +0.000 C 
BRANCH  13  14
ATOM     14  O3  UNL     1      25.357 -10.538 -34.388  0.00  0.00    +0.000 OA
ATOM     15  H13 UNL     1      25.705 -10.722 -33.477  0.00  0.00    +0.000 HD
ENDBRANCH  13  14
ENDBRANCH   9  13
ENDBRANCH   7   9
ENDBRANCH   3   7
BRANCH   4  16
ATOM     16  O4  UNL     1      23.951  -7.196 -38.790  0.00  0.00    +0.000 OA
ATOM     17  H15 UNL     1      23.275  -7.873 -38.525  0.00  0.00    +0.000 HD
ENDBRANCH   4  16
BRANCH   5  18
ATOM     18  O5  UNL     1      23.527  -8.664 -41.123  0.00  0.00    +0.000 OA
ATOM     19  H17 UNL     1      22.775  -8.246 -40.627  0.00  0.00    +0.000 HD
ENDBRANCH   5  18
BRANCH   6  20
ATOM     20  O6  UNL     1      25.169 -11.076 -41.374  0.00  0.00    +0.000 OA
ATOM     21  H19 UNL     1      25.001 -11.670 -40.596  0.00  0.00    +0.000 HD
ENDBRANCH   6  20
BRANCH   1  22
ATOM     22  C1  UNL     1      27.963 -10.958 -40.448  0.00  0.00    +0.000 C 
BRANCH  22  23
ATOM     23  O1  UNL     1      27.680 -12.277 -40.075  0.00  0.00    +0.000 OA
ATOM     24  H1  UNL     1      26.776 -12.475 -40.431  0.00  0.00    +0.000 HD
ENDBRANCH  22  23
ENDBRANCH   1  22
TORSDOF 11
ENDMDL
MODEL 2
REMARK VINA RESULT:    -4.304      5.182      6.744
REMARK INTER + INTRA:          -7.162
REMARK INTER:                  -6.141
REMARK INTRA:                  -1.021
REMARK UNBOUND:                -0.845
REMARK  Name = resultss/4CJN/ligands/lig_65_t0.pdb
REMARK  11 active torsions:
REMARK  status: ('A' for Active; 'I' for Inactive)
REMARK    1  A    between atoms: O1_1  and  C1_2
REMARK    2  A    between atoms: C1_2  and  C2_3
REMARK    3  A    between atoms: C4_5  and  N1_6
REMARK    4  A    between atoms: N1_6  and  C5_7
REMARK    5  A    between atoms: C5_7  and  C6_8
REMARK    6  A    between atoms: C5_7  and  C7_10
REMARK    7  A    between atoms: C6_8  and  O2_9
REMARK    8  A    between atoms: C7_10  and  O3_11
REMARK    9  A    between atoms: C8_12  and  O4_13
REMARK   10  A    between atoms: C9_14  and  O5_15
REMARK   11  A    between atoms: C10_16  and  O6_17
REMARK                            x       y       z     vdW  Elec       q    Type
REMARK                         _______ _______ _______ _____ _____    ______ ____
ROOT
ATOM      1  C2  UNL     1      25.389  -6.855 -46.518  0.00  0.00    +0.000 C 
ATOM      2  C3  UNL     1      25.674  -6.687 -45.208  0.00  0.00    +0.000 C 
ATOM      3  C4  UNL     1      24.664  -6.910 -44.099  0.00  0.00    +0.000 C 
ATOM      4  C8  UNL     1      23.221  -6.722 -44.611  0.00  0.00    +0.000 C 
ATOM      5  C9  UNL     1      23.002  -7.558 -45.884  0.00  0.00    +0.000 C 
ATOM      6  C10 UNL     1      23.967  -7.106 -47.006  0.00  0.00    +0.000 C 
ENDROOT
BRANCH   3   7
ATOM      7  N1  UNL     1      24.813  -8.263 -43.518  0.00  0.00    +0.000 NA
ATOM      8  H6  UNL     1      25.231  -8.940 -44.201  0.00  0.00    +0.000 HD
BRANCH   7   9
ATOM      9  C5  UNL     1      25.546  -8.289 -42.238  0.00  0.00    +0.000 C 
BRANCH   9  10
ATOM     10  C6  UNL     1      24.715  -7.582 -41.160  0.00  0.00    +0.000 C 
BRANCH  10  11
ATOM     11  O2  UNL     1      23.443  -8.165 -41.087  0.00  0.00    +0.000 OA
ATOM     12  H10 UNL     1      22.864  -7.506 -40.620  0.00  0.00    +0.000 HD
ENDBRANCH  10  11
ENDBRANCH   9  10
BRANCH   9  13
ATOM     13  C7  UNL     1      25.912  -9.726 -41.802  0.00  0.00    +0.000 C 
BRANCH  13  14
ATOM     14  O3  UNL     1      24.778 -10.551 -41.745  0.00  0.00    +0.000 OA
ATOM     15  H13 UNL     1      24.729 -10.912 -40.823  0.00  0.00    +0.000 HD
ENDBRANCH  13  14
ENDBRANCH   9  13
ENDBRANCH   7   9
ENDBRANCH   3   7
BRANCH   4  16
ATOM     16  O4  UNL     1      22.299  -7.113 -43.626  0.00  0.00    +0.000 OA
ATOM     17  H15 UNL     1      22.825  -7.512 -42.885  0.00  0.00    +0.000 HD
ENDBRANCH   4  16
BRANCH   5  18
ATOM     18  O5  UNL     1      21.667  -7.477 -46.318  0.00  0.00    +0.000 OA
ATOM     19  H17 UNL     1      21.210  -8.319 -46.052  0.00  0.00    +0.000 HD
ENDBRANCH   5  18
BRANCH   6  20
ATOM     20  O6  UNL     1      23.956  -8.044 -48.053  0.00  0.00    +0.000 OA
ATOM     21  H19 UNL     1      24.720  -7.832 -48.651  0.00  0.00    +0.000 HD
ENDBRANCH   6  20
BRANCH   1  22
ATOM     22  C1  UNL     1      26.482  -6.620 -47.531  0.00  0.00    +0.000 C 
BRANCH  22  23
ATOM     23  O1  UNL     1      26.822  -7.834 -48.141  0.00  0.00    +0.000 OA
ATOM     24  H1  UNL     1      26.533  -8.547 -47.515  0.00  0.00    +0.000 HD
ENDBRANCH  22  23
ENDBRANCH   1  22
TORSDOF 11
ENDMDL
MODEL 3
REMARK VINA RESULT:    -4.189      4.917      7.669
REMARK INTER + INTRA:          -6.993
REMARK INTER:                  -6.377
REMARK INTRA:                  -0.616
REMARK UNBOUND:                -0.845
REMARK  Name = resultss/4CJN/ligands/lig_65_t0.pdb
REMARK  11 active torsions:
REMARK  status: ('A' for Active; 'I' for Inactive)
REMARK    1  A    between atoms: O1_1  and  C1_2
REMARK    2  A    between atoms: C1_2  and  C2_3
REMARK    3  A    between atoms: C4_5  and  N1_6
REMARK    4  A    between atoms: N1_6  and  C5_7
REMARK    5  A    between atoms: C5_7  and  C6_8
REMARK    6  A    between atoms: C5_7  and  C7_10
REMARK    7  A    between atoms: C6_8  and  O2_9
REMARK    8  A    between atoms: C7_10  and  O3_11
REMARK    9  A    between atoms: C8_12  and  O4_13
REMARK   10  A    between atoms: C9_14  and  O5_15
REMARK   11  A    between atoms: C10_16  and  O6_17
REMARK                            x       y       z     vdW  Elec       q    Type
REMARK                         _______ _______ _______ _____ _____    ______ ____
ROOT
ATOM      1  C2  UNL     1      27.156  -9.033 -34.209  0.00  0.00    +0.000 C 
ATOM      2  C3  UNL     1      28.470  -9.258 -34.432  0.00  0.00    +0.000 C 
ATOM      3  C4  UNL     1      29.574  -8.671 -33.573  0.00  0.00    +0.000 C 
ATOM      4  C8  UNL     1      29.114  -7.372 -32.881  0.00  0.00    +0.000 C 
ATOM      5  C9  UNL     1      27.772  -7.605 -32.165  0.00  0.00    +0.000 C 
ATOM      6  C10 UNL     1      26.678  -8.016 -33.179  0.00  0.00    +0.000 C 
ENDROOT
BRANCH   3   7
ATOM      7  N1  UNL     1      30.019  -9.647 -32.554  0.00  0.00    +0.000 NA
ATOM      8  H6  UNL     1      29.264 -10.331 -32.308  0.00  0.00    +0.000 HD
BRANCH   7   9
ATOM      9  C5  UNL     1      31.271 -10.349 -32.899  0.00  0.00    +0.000 C 
BRANCH   9  10
ATOM     10  C6  UNL     1      32.261  -9.351 -33.513  0.00  0.00    +0.000 C 
BRANCH  10  11
ATOM     11  O2  UNL     1      32.689  -9.819 -34.763  0.00  0.00    +0.000 OA
ATOM     12  H10 UNL     1      32.421 -10.775 -34.805  0.00  0.00    +0.000 HD
ENDBRANCH  10  11
ENDBRANCH   9  10
BRANCH   9  13
ATOM     13  C7  UNL     1      31.892 -11.071 -31.683  0.00  0.00    +0.000 C 
BRANCH  13  14
ATOM     14  O3  UNL     1      31.913 -12.462 -31.866  0.00  0.00    +0.000 OA
ATOM     15  H13 UNL     1      32.289 -12.857 -31.037  0.00  0.00    +0.000 HD
ENDBRANCH  13  14
ENDBRANCH   9  13
ENDBRANCH   7   9
ENDBRANCH   3   7
BRANCH   4  16
ATOM     16  O4  UNL     1      30.077  -6.947 -31.950  0.00  0.00    +0.000 OA
ATOM     17  H15 UNL     1      30.886  -7.501 -32.104  0.00  0.00    +0.000 HD
ENDBRANCH   4  16
BRANCH   5  18
ATOM     18  O5  UNL     1      27.377  -6.460 -31.449  0.00  0.00    +0.000 OA
ATOM     19  H17 UNL     1      27.998  -6.355 -30.681  0.00  0.00    +0.000 HD
ENDBRANCH   5  18
BRANCH   6  20
ATOM     20  O6  UNL     1      25.546  -8.492 -32.495  0.00  0.00    +0.000 OA
ATOM     21  H19 UNL     1      25.864  -9.117 -31.791  0.00  0.00    +0.000 HD
ENDBRANCH   6  20
BRANCH   1  22
ATOM     22  C1  UNL     1      26.147  -9.685 -35.121  0.00  0.00    +0.000 C 
BRANCH  22  23
ATOM     23  O1  UNL     1      25.428 -10.652 -34.406  0.00  0.00    +0.000 OA
ATOM     24  H1  UNL     1      25.639 -11.522 -34.833  0.00  0.00    +0.000 HD
ENDBRANCH  22  23
ENDBRANCH   1  22
TORSDOF 11
ENDMDL
MODEL 4
REMARK VINA RESULT:    -4.058      2.592      4.495
REMARK INTER + INTRA:          -6.800
REMARK INTER:                  -6.014
REMARK INTRA:                  -0.786
REMARK UNBOUND:                -0.845
REMARK  Name = resultss/4CJN/ligands/lig_65_t0.pdb
REMARK  11 active torsions:
REMARK  status: ('A' for Active; 'I' for Inactive)
REMARK    1  A    between atoms: O1_1  and  C1_2
REMARK    2  A    between atoms: C1_2  and  C2_3
REMARK    3  A    between atoms: C4_5  and  N1_6
REMARK    4  A    between atoms: N1_6  and  C5_7
REMARK    5  A    between atoms: C5_7  and  C6_8
REMARK    6  A    between atoms: C5_7  and  C7_10
REMARK    7  A    between atoms: C6_8  and  O2_9
REMARK    8  A    between atoms: C7_10  and  O3_11
REMARK    9  A    between atoms: C8_12  and  O4_13
REMARK   10  A    between atoms: C9_14  and  O5_15
REMARK   11  A    between atoms: C10_16  and  O6_17
REMARK                            x       y       z     vdW  Elec       q    Type
REMARK                         _______ _______ _______ _____ _____    ______ ____
ROOT
ATOM      1  C2  UNL     1      26.045  -9.647 -41.745  0.00  0.00    +0.000 C 
ATOM      2  C3  UNL     1      26.256 -10.336 -40.602  0.00  0.00    +0.000 C 
ATOM      3  C4  UNL     1      27.637 -10.650 -40.059  0.00  0.00    +0.000 C 
ATOM      4  C8  UNL     1      28.689 -10.674 -41.187  0.00  0.00    +0.000 C 
ATOM      5  C9  UNL     1      28.584  -9.392 -42.031  0.00  0.00    +0.000 C 
ATOM      6  C10 UNL     1      27.187  -9.284 -42.687  0.00  0.00    +0.000 C 
ENDROOT
BRANCH   3   7
ATOM      7  N1  UNL     1      28.033  -9.661 -39.032  0.00  0.00    +0.000 NA
ATOM      8  H6  UNL     1      27.588  -8.725 -39.194  0.00  0.00    +0.000 HD
BRANCH   7   9
ATOM      9  C5  UNL     1      27.811 -10.113 -37.645  0.00  0.00    +0.000 C 
BRANCH   9  10
ATOM     10  C6  UNL     1      29.133 -10.045 -36.869  0.00  0.00    +0.000 C 
BRANCH  10  11
ATOM     11  O2  UNL     1      30.189 -10.439 -37.701  0.00  0.00    +0.000 OA
ATOM     12  H10 UNL     1      29.780 -10.979 -38.428  0.00  0.00    +0.000 HD
ENDBRANCH  10  11
ENDBRANCH   9  10
BRANCH   9  13
ATOM     13  C7  UNL     1      26.707  -9.300 -36.933  0.00  0.00    +0.000 C 
BRANCH  13  14
ATOM     14  O3  UNL     1      26.101 -10.042 -35.908  0.00  0.00    +0.000 OA
ATOM     15  H13 UNL     1      25.153  -9.755 -35.865  0.00  0.00    +0.000 HD
ENDBRANCH  13  14
ENDBRANCH   9  13
ENDBRANCH   7   9
ENDBRANCH   3   7
BRANCH   4  16
ATOM     16  O4  UNL     1      29.982 -10.779 -40.647  0.00  0.00    +0.000 OA
ATOM     17  H15 UNL     1      29.885 -10.715 -39.661  0.00  0.00    +0.000 HD
ENDBRANCH   4  16
BRANCH   5  18
ATOM     18  O5  UNL     1      29.594  -9.348 -43.009  0.00  0.00    +0.000 OA
ATOM     19  H17 UNL     1      30.214  -8.609 -42.771  0.00  0.00    +0.000 HD
ENDBRANCH   5  18
BRANCH   6  20
ATOM     20  O6  UNL     1      27.006  -7.994 -43.217  0.00  0.00    +0.000 OA
ATOM     21  H19 UNL     1      26.150  -7.997 -43.722  0.00  0.00    +0.000 HD
ENDBRANCH   6  20
BRANCH   1  22
ATOM     22  C1  UNL     1      24.624  -9.381 -42.177  0.00  0.00    +0.000 C 
BRANCH  22  23
ATOM     23  O1  UNL     1      24.489  -9.667 -43.541  0.00  0.00    +0.000 OA
ATOM     24  H1  UNL     1      23.628 -10.149 -43.637  0.00  0.00    +0.000 HD
ENDBRANCH  22  23
ENDBRANCH   1  22
TORSDOF 11
ENDMDL
MODEL 5
REMARK VINA RESULT:    -4.047      2.277      5.176
REMARK INTER + INTRA:          -6.785
REMARK INTER:                  -5.821
REMARK INTRA:                  -0.965
REMARK UNBOUND:                -0.845
REMARK  Name = resultss/4CJN/ligands/lig_65_t0.pdb
REMARK  11 active torsions:
REMARK  status: ('A' for Active; 'I' for Inactive)
REMARK    1  A    between atoms: O1_1  and  C1_2
REMARK    2  A    between atoms: C1_2  and  C2_3
REMARK    3  A    between atoms: C4_5  and  N1_6
REMARK    4  A    between atoms: N1_6  and  C5_7
REMARK    5  A    between atoms: C5_7  and  C6_8
REMARK    6  A    between atoms: C5_7  and  C7_10
REMARK    7  A    between atoms: C6_8  and  O2_9
REMARK    8  A    between atoms: C7_10  and  O3_11
REMARK    9  A    between atoms: C8_12  and  O4_13
REMARK   10  A    between atoms: C9_14  and  O5_15
REMARK   11  A    between atoms: C10_16  and  O6_17
REMARK                            x       y       z     vdW  Elec       q    Type
REMARK                         _______ _______ _______ _____ _____    ______ ____
ROOT
ATOM      1  C2  UNL     1      27.051  -9.287 -38.012  0.00  0.00    +0.000 C 
ATOM      2  C3  UNL     1      26.366  -8.381 -38.744  0.00  0.00    +0.000 C 
ATOM      3  C4  UNL     1      26.285  -8.420 -40.258  0.00  0.00    +0.000 C 
ATOM      4  C8  UNL     1      27.501  -9.149 -40.864  0.00  0.00    +0.000 C 
ATOM      5  C9  UNL     1      27.693 -10.512 -40.176  0.00  0.00    +0.000 C 
ATOM      6  C10 UNL     1      27.957 -10.326 -38.663  0.00  0.00    +0.000 C 
ENDROOT
BRANCH   3   7
ATOM      7  N1  UNL     1      25.037  -9.082 -40.699  0.00  0.00    +0.000 NA
ATOM      8  H6  UNL     1      24.582  -9.620 -39.922  0.00  0.00    +0.000 HD
BRANCH   7   9
ATOM      9  C5  UNL     1      24.070  -8.173 -41.345  0.00  0.00    +0.000 C 
BRANCH   9  10
ATOM     10  C6  UNL     1      24.820  -6.980 -41.952  0.00  0.00    +0.000 C 
BRANCH  10  11
ATOM     11  O2  UNL     1      25.216  -7.288 -43.260  0.00  0.00    +0.000 OA
ATOM     12  H10 UNL     1      25.173  -6.436 -43.769  0.00  0.00    +0.000 HD
ENDBRANCH  10  11
ENDBRANCH   9  10
BRANCH   9  13
ATOM     13  C7  UNL     1      23.215  -8.892 -42.412  0.00  0.00    +0.000 C 
BRANCH  13  14
ATOM     14  O3  UNL     1      23.855 -10.044 -42.894  0.00  0.00    +0.000 OA
ATOM     15  H13 UNL     1      23.142 -10.688 -43.142  0.00  0.00    +0.000 HD
ENDBRANCH  13  14
ENDBRANCH   9  13
ENDBRANCH   7   9
ENDBRANCH   3   7
BRANCH   4  16
ATOM     16  O4  UNL     1      27.318  -9.340 -42.244  0.00  0.00    +0.000 OA
ATOM     17  H15 UNL     1      27.745  -8.567 -42.698  0.00  0.00    +0.000 HD
ENDBRANCH   4  16
BRANCH   5  18
ATOM     18  O5  UNL     1      28.740 -11.236 -40.775  0.00  0.00    +0.000 OA
ATOM     19  H17 UNL     1      29.597 -10.846 -40.458  0.00  0.00    +0.000 HD
ENDBRANCH   5  18
BRANCH   6  20
ATOM     20  O6  UNL     1      27.853 -11.563 -38.004  0.00  0.00    +0.000 OA
ATOM     21  H19 UNL     1      28.720 -11.732 -37.548  0.00  0.00    +0.000 HD
ENDBRANCH   6  20
BRANCH   1  22
ATOM     22  C1  UNL     1      27.046  -9.156 -36.509  0.00  0.00    +0.000 C 
BRANCH  22  23
ATOM     23  O1  UNL     1      26.078 -10.011 -35.969  0.00  0.00    +0.000 OA
ATOM     24  H1  UNL     1      26.514 -10.897 -35.878  0.00  0.00    +0.000 HD
ENDBRANCH  22  23
ENDBRANCH   1  22
TORSDOF 11
ENDMDL
MODEL 6
REMARK VINA RESULT:    -4.005      3.412      5.188
REMARK INTER + INTRA:          -6.724
REMARK INTER:                  -5.958
REMARK INTRA:                  -0.765
REMARK UNBOUND:                -0.845
REMARK  Name = resultss/4CJN/ligands/lig_65_t0.pdb
REMARK  11 active torsions:
REMARK  status: ('A' for Active; 'I' for Inactive)
REMARK    1  A    between atoms: O1_1  and  C1_2
REMARK    2  A    between atoms: C1_2  and  C2_3
REMARK    3  A    between atoms: C4_5  and  N1_6
REMARK    4  A    between atoms: N1_6  and  C5_7
REMARK    5  A    between atoms: C5_7  and  C6_8
REMARK    6  A    between atoms: C5_7  and  C7_10
REMARK    7  A    between atoms: C6_8  and  O2_9
REMARK    8  A    between atoms: C7_10  and  O3_11
REMARK    9  A    between atoms: C8_12  and  O4_13
REMARK   10  A    between atoms: C9_14  and  O5_15
REMARK   11  A    between atoms: C10_16  and  O6_17
REMARK                            x       y       z     vdW  Elec       q    Type
REMARK                         _______ _______ _______ _____ _____    ______ ____
ROOT
ATOM      1  C2  UNL     1      25.732  -7.217 -43.513  0.00  0.00    +0.000 C 
ATOM      2  C3  UNL     1      26.427  -7.409 -42.370  0.00  0.00    +0.000 C 
ATOM      3  C4  UNL     1      25.993  -8.373 -41.282  0.00  0.00    +0.000 C 
ATOM      4  C8  UNL     1      24.468  -8.601 -41.313  0.00  0.00    +0.000 C 
ATOM      5  C9  UNL     1      24.020  -8.967 -42.738  0.00  0.00    +0.000 C 
ATOM      6  C10 UNL     1      24.348  -7.821 -43.724  0.00  0.00    +0.000 C 
ENDROOT
BRANCH   3   7
ATOM      7  N1  UNL     1      26.693  -9.669 -41.421  0.00  0.00    +0.000 NA
ATOM      8  H6  UNL     1      26.898  -9.900 -42.423  0.00  0.00    +0.000 HD
BRANCH   7   9
ATOM      9  C5  UNL     1      27.911  -9.785 -40.596  0.00  0.00    +0.000 C 
BRANCH   9  10
ATOM     10  C6  UNL     1      27.638 -10.724 -39.413  0.00  0.00    +0.000 C 
BRANCH  10  11
ATOM     11  O2  UNL     1      27.663 -12.055 -39.852  0.00  0.00    +0.000 OA
ATOM     12  H10 UNL     1      27.783 -12.611 -39.038  0.00  0.00    +0.000 HD
ENDBRANCH  10  11
ENDBRANCH   9  10
BRANCH   9  13
ATOM     13  C7  UNL     1      29.130 -10.266 -41.415  0.00  0.00    +0.000 C 
BRANCH  13  14
ATOM     14  O3  UNL     1      30.195 -10.640 -40.582  0.00  0.00    +0.000 OA
ATOM     15  H13 UNL     1      30.388 -11.595 -40.770  0.00  0.00    +0.000 HD
ENDBRANCH  13  14
ENDBRANCH   9  13
ENDBRANCH   7   9
ENDBRANCH   3   7
BRANCH   4  16
ATOM     16  O4  UNL     1      24.111  -9.632 -40.427  0.00  0.00    +0.000 OA
ATOM     17  H15 UNL     1      24.633  -9.487 -39.595  0.00  0.00    +0.000 HD
ENDBRANCH   4  16
BRANCH   5  18
ATOM     18  O5  UNL     1      22.647  -9.271 -42.773  0.00  0.00    +0.000 OA
ATOM     19  H17 UNL     1      22.234  -8.897 -41.951  0.00  0.00    +0.000 HD
ENDBRANCH   5  18
BRANCH   6  20
ATOM     20  O6  UNL     1      24.196  -8.270 -45.047  0.00  0.00    +0.000 OA
ATOM     21  H19 UNL     1      24.830  -7.755 -45.613  0.00  0.00    +0.000 HD
ENDBRANCH   6  20
BRANCH   1  22
ATOM     22  C1  UNL     1      26.271  -6.243 -44.532  0.00  0.00    +0.000 C 
BRANCH  22  23
ATOM     23  O1  UNL     1      26.715  -6.945 -45.659  0.00  0.00    +0.000 OA
ATOM     24  H1  UNL     1      26.232  -7.812 -45.651  0.00  0.00    +0.000 HD
ENDBRANCH  22  23
ENDBRANCH   1  22
TORSDOF 11
ENDMDL
MODEL 7
REMARK VINA RESULT:    -3.953      1.958      5.549
REMARK INTER + INTRA:          -6.647
REMARK INTER:                  -5.909
REMARK INTRA:                  -0.737
REMARK UNBOUND:                -0.845
REMARK  Name = resultss/4CJN/ligands/lig_65_t0.pdb
REMARK  11 active torsions:
REMARK  status: ('A' for Active; 'I' for Inactive)
REMARK    1  A    between atoms: O1_1  and  C1_2
REMARK    2  A    between atoms: C1_2  and  C2_3
REMARK    3  A    between atoms: C4_5  and  N1_6
REMARK    4  A    between atoms: N1_6  and  C5_7
REMARK    5  A    between atoms: C5_7  and  C6_8
REMARK    6  A    between atoms: C5_7  and  C7_10
REMARK    7  A    between atoms: C6_8  and  O2_9
REMARK    8  A    between atoms: C7_10  and  O3_11
REMARK    9  A    between atoms: C8_12  and  O4_13
REMARK   10  A    between atoms: C9_14  and  O5_15
REMARK   11  A    between atoms: C10_16  and  O6_17
REMARK                            x       y       z     vdW  Elec       q    Type
REMARK                         _______ _______ _______ _____ _____    ______ ____
ROOT
ATOM      1  C2  UNL     1      24.876  -8.246 -36.196  0.00  0.00    +0.000 C 
ATOM      2  C3  UNL     1      24.621  -7.717 -37.412  0.00  0.00    +0.000 C 
ATOM      3  C4  UNL     1      25.361  -8.126 -38.673  0.00  0.00    +0.000 C 
ATOM      4  C8  UNL     1      26.763  -8.678 -38.343  0.00  0.00    +0.000 C 
ATOM      5  C9  UNL     1      26.659  -9.761 -37.256  0.00  0.00    +0.000 C 
ATOM      6  C10 UNL     1      26.063  -9.172 -35.955  0.00  0.00    +0.000 C 
ENDROOT
BRANCH   3   7
ATOM      7  N1  UNL     1      24.591  -9.140 -39.426  0.00  0.00    +0.000 NA
ATOM      8  H6  UNL     1      23.737  -9.453 -38.904  0.00  0.00    +0.000 HD
BRANCH   7   9
ATOM      9  C5  UNL     1      24.245  -8.733 -40.802  0.00  0.00    +0.000 C 
BRANCH   9  10
ATOM     10  C6  UNL     1      24.750  -7.306 -41.052  0.00  0.00    +0.000 C 
BRANCH  10  11
ATOM     11  O2  UNL     1      25.289  -7.216 -42.343  0.00  0.00    +0.000 OA
ATOM     12  H10 UNL     1      25.661  -8.114 -42.548  0.00  0.00    +0.000 HD
ENDBRANCH  10  11
ENDBRANCH   9  10
BRANCH   9  13
ATOM     13  C7  UNL     1      24.802  -9.712 -41.859  0.00  0.00    +0.000 C 
BRANCH  13  14
ATOM     14  O3  UNL     1      23.855  -9.981 -42.860  0.00  0.00    +0.000 OA
ATOM     15  H13 UNL     1      23.544  -9.106 -43.206  0.00  0.00    +0.000 HD
ENDBRANCH  13  14
ENDBRANCH   9  13
ENDBRANCH   7   9
ENDBRANCH   3   7
BRANCH   4  16
ATOM     16  O4  UNL     1      27.356  -9.221 -39.495  0.00  0.00    +0.000 OA
ATOM     17  H15 UNL     1      26.620  -9.396 -40.139  0.00  0.00    +0.000 HD
ENDBRANCH   4  16
BRANCH   5  18
ATOM     18  O5  UNL     1      27.914 -10.345 -37.005  0.00  0.00    +0.000 OA
ATOM     19  H17 UNL     1      28.401 -10.398 -37.869  0.00  0.00    +0.000 HD
ENDBRANCH   5  18
BRANCH   6  20
ATOM     20  O6  UNL     1      25.716 -10.212 -35.075  0.00  0.00    +0.000 OA
ATOM     21  H19 UNL     1      26.478 -10.341 -34.450  0.00  0.00    +0.000 HD
ENDBRANCH   6  20
BRANCH   1  22
ATOM     22  C1  UNL     1      24.063  -7.773 -35.016  0.00  0.00    +0.000 C 
BRANCH  22  23
ATOM     23  O1  UNL     1      23.278  -8.829 -34.537  0.00  0.00    +0.000 OA
ATOM     24  H1  UNL     1      22.349  -8.484 -34.495  0.00  0.00    +0.000 HD
ENDBRANCH  22  23
ENDBRANCH   1  22
TORSDOF 11
ENDMDL
MODEL 8
REMARK VINA RESULT:    -3.861      3.029      5.672
REMARK INTER + INTRA:          -6.511
REMARK INTER:                  -5.571
REMARK INTRA:                  -0.940
REMARK UNBOUND:                -0.845
REMARK  Name = resultss/4CJN/ligands/lig_65_t0.pdb
REMARK  11 active torsions:
REMARK  status: ('A' for Active; 'I' for Inactive)
REMARK    1  A    between atoms: O1_1  and  C1_2
REMARK    2  A    between atoms: C1_2  and  C2_3
REMARK    3  A    between atoms: C4_5  and  N1_6
REMARK    4  A    between atoms: N1_6  and  C5_7
REMARK    5  A    between atoms: C5_7  and  C6_8
REMARK    6  A    between atoms: C5_7  and  C7_10
REMARK    7  A    between atoms: C6_8  and  O2_9
REMARK    8  A    between atoms: C7_10  and  O3_11
REMARK    9  A    between atoms: C8_12  and  O4_13
REMARK   10  A    between atoms: C9_14  and  O5_15
REMARK   11  A    between atoms: C10_16  and  O6_17
REMARK                            x       y       z     vdW  Elec       q    Type
REMARK                         _______ _______ _______ _____ _____    ______ ____
ROOT
ATOM      1  C2  UNL     1      25.472  -8.712 -41.855  0.00  0.00    +0.000 C 
ATOM      2  C3  UNL     1      26.751  -8.532 -42.251  0.00  0.00    +0.000 C 
ATOM      3  C4  UNL     1      27.921  -8.451 -41.288  0.00  0.00    +0.000 C 
ATOM      4  C8  UNL     1      27.464  -7.974 -39.894  0.00  0.00    +0.000 C 
ATOM      5  C9  UNL     1      26.269  -8.817 -39.416  0.00  0.00    +0.000 C 
ATOM      6  C10 UNL     1      25.072  -8.665 -40.385  0.00  0.00    +0.000 C 
ENDROOT
BRANCH   3   7
ATOM      7  N1  UNL     1      28.593  -9.764 -41.170  0.00  0.00    +0.000 NA
ATOM      8  H6  UNL     1      27.988 -10.548 -41.514  0.00  0.00    +0.000 HD
BRANCH   7   9
ATOM      9  C5  UNL     1      29.927  -9.815 -41.798  0.00  0.00    +0.000 C 
BRANCH   9  10
ATOM     10  C6  UNL     1      31.003  -9.596 -40.727  0.00  0.00    +0.000 C 
BRANCH  10  11
ATOM     11  O2  UNL     1      30.644 -10.269 -39.553  0.00  0.00    +0.000 OA
ATOM     12  H10 UNL     1      30.970  -9.706 -38.802  0.00  0.00    +0.000 HD
ENDBRANCH  10  11
ENDBRANCH   9  10
BRANCH   9  13
ATOM     13  C7  UNL     1      30.165 -11.138 -42.561  0.00  0.00    +0.000 C 
BRANCH  13  14
ATOM     14  O3  UNL     1      31.407 -11.703 -42.236  0.00  0.00    +0.000 OA
ATOM     15  H13 UNL     1      32.021 -11.504 -42.989  0.00  0.00    +0.000 HD
ENDBRANCH  13  14
ENDBRANCH   9  13
ENDBRANCH   7   9
ENDBRANCH   3   7
BRANCH   4  16
ATOM     16  O4  UNL     1      28.518  -8.085 -38.971  0.00  0.00    +0.000 OA
ATOM     17  H15 UNL     1      29.279  -7.568 -39.344  0.00  0.00    +0.000 HD
ENDBRANCH   4  16
BRANCH   5  18
ATOM     18  O5  UNL     1      25.893  -8.463 -38.107  0.00  0.00    +0.000 OA
ATOM     19  H17 UNL     1      26.691  -8.570 -37.524  0.00  0.00    +0.000 HD
ENDBRANCH   5  18
BRANCH   6  20
ATOM     20  O6  UNL     1      24.100  -9.639 -40.100  0.00  0.00    +0.000 OA
ATOM     21  H19 UNL     1      24.293 -10.430 -40.671  0.00  0.00    +0.000 HD
ENDBRANCH   6  20
BRANCH   1  22
ATOM     22  C1  UNL     1      24.394  -8.793 -42.907  0.00  0.00    +0.000 C 
BRANCH  22  23
ATOM     23  O1  UNL     1      23.807 -10.064 -42.877  0.00  0.00    +0.000 OA
ATOM     24  H1  UNL     1      23.990 -10.430 -41.974  0.00  0.00    +0.000 HD
ENDBRANCH  22  23
ENDBRANCH   1  22
TORSDOF 11
ENDMDL
MODEL 9
REMARK VINA RESULT:    -3.828      3.024      6.425
REMARK INTER + INTRA:          -6.463
REMARK INTER:                  -5.489
REMARK INTRA:                  -0.973
REMARK UNBOUND:                -0.845
REMARK  Name = resultss/4CJN/ligands/lig_65_t0.pdb
REMARK  11 active torsions:
REMARK  status: ('A' for Active; 'I' for Inactive)
REMARK    1  A    between atoms: O1_1  and  C1_2
REMARK    2  A    between atoms: C1_2  and  C2_3
REMARK    3  A    between atoms: C4_5  and  N1_6
REMARK    4  A    between atoms: N1_6  and  C5_7
REMARK    5  A    between atoms: C5_7  and  C6_8
REMARK    6  A    between atoms: C5_7  and  C7_10
REMARK    7  A    between atoms: C6_8  and  O2_9
REMARK    8  A    between atoms: C7_10  and  O3_11
REMARK    9  A    between atoms: C8_12  and  O4_13
REMARK   10  A    between atoms: C9_14  and  O5_15
REMARK   11  A    between atoms: C10_16  and  O6_17
REMARK                            x       y       z     vdW  Elec       q    Type
REMARK                         _______ _______ _______ _____ _____    ______ ____
ROOT
ATOM      1  C2  UNL     1      27.339  -9.214 -35.335  0.00  0.00    +0.000 C 
ATOM      2  C3  UNL     1      27.201  -8.899 -36.642  0.00  0.00    +0.000 C 
ATOM      3  C4  UNL     1      28.370  -8.784 -37.601  0.00  0.00    +0.000 C 
ATOM      4  C8  UNL     1      29.675  -8.442 -36.853  0.00  0.00    +0.000 C 
ATOM      5  C9  UNL     1      29.876  -9.414 -35.677  0.00  0.00    +0.000 C 
ATOM      6  C10 UNL     1      28.708  -9.300 -34.670  0.00  0.00    +0.000 C 
ENDROOT
BRANCH   3   7
ATOM      7  N1  UNL     1      28.548 -10.040 -38.363  0.00  0.00    +0.000 NA
ATOM      8  H6  UNL     1      28.089 -10.855 -37.891  0.00  0.00    +0.000 HD
BRANCH   7   9
ATOM      9  C5  UNL     1      28.131  -9.949 -39.776  0.00  0.00    +0.000 C 
BRANCH   9  10
ATOM     10  C6  UNL     1      29.376  -9.866 -40.670  0.00  0.00    +0.000 C 
BRANCH  10  11
ATOM     11  O2  UNL     1      30.470 -10.439 -40.009  0.00  0.00    +0.000 OA
ATOM     12  H10 UNL     1      30.468 -11.401 -40.255  0.00  0.00    +0.000 HD
ENDBRANCH  10  11
ENDBRANCH   9  10
BRANCH   9  13
ATOM     13  C7  UNL     1      27.224 -11.127 -40.196  0.00  0.00    +0.000 C 
BRANCH  13  14
ATOM     14  O3  UNL     1      27.932 -12.339 -40.215  0.00  0.00    +0.000 OA
ATOM     15  H13 UNL     1      28.314 -12.465 -39.309  0.00  0.00    +0.000 HD
ENDBRANCH  13  14
ENDBRANCH   9  13
ENDBRANCH   7   9
ENDBRANCH   3   7
BRANCH   4  16
ATOM     16  O4  UNL     1      30.774  -8.524 -37.725  0.00  0.00    +0.000 OA
ATOM     17  H15 UNL     1      31.264  -9.355 -37.490  0.00  0.00    +0.000 HD
ENDBRANCH   4  16
BRANCH   5  18
ATOM     18  O5  UNL     1      31.107  -9.181 -35.036  0.00  0.00    +0.000 OA
ATOM     19  H17 UNL     1      31.369  -8.240 -35.217  0.00  0.00    +0.000 HD
ENDBRANCH   5  18
BRANCH   6  20
ATOM     20  O6  UNL     1      28.755 -10.370 -33.760  0.00  0.00    +0.000 OA
ATOM     21  H19 UNL     1      28.794  -9.983 -32.845  0.00  0.00    +0.000 HD
ENDBRANCH   6  20
BRANCH   1  22
ATOM     22  C1  UNL     1      26.100  -9.316 -34.481  0.00  0.00    +0.000 C 
BRANCH  22  23
ATOM     23  O1  UNL     1      25.719 -10.659 -34.369  0.00  0.00    +0.000 OA
ATOM     24  H1  UNL     1      25.734 -10.869 -33.400  0.00  0.00    +0.000 HD
ENDBRANCH  22  23
ENDBRANCH   1  22
TORSDOF 11
ENDMDL
