MODEL 1
REMARK VINA RESULT:    -7.498      0.000      0.000
REMARK INTER + INTRA:         -10.169
REMARK INTER:                  -9.470
REMARK INTRA:                  -0.699
REMARK UNBOUND:                -0.699
REMARK  Name = resultss/4CJN/ligands/lig_409_t2.pdb
REMARK  5 active torsions:
REMARK  status: ('A' for Active; 'I' for Inactive)
REMARK    1  A    between atoms: C1_2  and  C9_15
REMARK    2  A    between atoms: N1_3  and  N2_4
REMARK    3  A    between atoms: C2_5  and  S1_6
REMARK    4  A    between atoms: N3_7  and  C3_8
REMARK    5  A    between atoms: C19_26  and  C20_27
REMARK                            x       y       z     vdW  Elec       q    Type
REMARK                         _______ _______ _______ _____ _____    ______ ____
ROOT
ATOM      1  C9  UNL     1      28.543  -9.361 -38.657  0.00  0.00    +0.000 A 
ATOM      2  C10 UNL     1      27.966  -9.186 -37.382  0.00  0.00    +0.000 A 
ATOM      3  C11 UNL     1      26.636  -8.782 -37.336  0.00  0.00    +0.000 A 
ATOM      4  C12 UNL     1      25.900  -8.551 -38.477  0.00  0.00    +0.000 A 
ATOM      5  N4  UNL     1      24.618  -8.232 -38.181  0.00  0.00    +0.000 N 
ATOM      6  C13 UNL     1      24.561  -8.247 -36.831  0.00  0.00    +0.000 A 
ATOM      7  C14 UNL     1      23.447  -7.993 -36.033  0.00  0.00    +0.000 A 
ATOM      8  C15 UNL     1      23.604  -8.081 -34.636  0.00  0.00    +0.000 A 
ATOM      9  C16 UNL     1      24.854  -8.422 -34.073  0.00  0.00    +0.000 A 
ATOM     10  C17 UNL     1      25.963  -8.679 -34.900  0.00  0.00    +0.000 A 
ATOM     11  C18 UNL     1      25.780  -8.578 -36.277  0.00  0.00    +0.000 A 
ATOM     12  C19 UNL     1      26.490  -8.711 -39.739  0.00  0.00    +0.000 A 
ATOM     13  N5  UNL     1      27.794  -9.120 -39.782  0.00  0.00    +0.000 NA
ATOM     14  H9  UNL     1      23.827  -8.049 -38.838  0.00  0.00    +0.000 HD
ENDROOT
BRANCH  12  15
ATOM     15  C20 UNL     1      25.767  -8.461 -41.003  0.00  0.00    +0.000 A 
ATOM     16  C21 UNL     1      25.605  -7.154 -41.499  0.00  0.00    +0.000 A 
ATOM     17  C22 UNL     1      24.942  -6.937 -42.711  0.00  0.00    +0.000 A 
ATOM     18  C23 UNL     1      24.448  -8.019 -43.443  0.00  0.00    +0.000 A 
ATOM     19  C24 UNL     1      24.624  -9.321 -42.969  0.00  0.00    +0.000 A 
ATOM     20  C25 UNL     1      25.287  -9.543 -41.758  0.00  0.00    +0.000 A 
ENDBRANCH  12  15
BRANCH   1  22
ATOM     21  O1  UNL     1      30.571 -10.242 -37.798  0.00  0.00    +0.000 OA
ATOM     22  C1  UNL     1      29.949  -9.793 -38.800  0.00  0.00    +0.000 C 
ATOM     23  N1  UNL     1      30.605  -9.727 -40.076  0.00  0.00    +0.000 N 
ATOM     24  H1  UNL     1      30.019  -9.705 -40.941  0.00  0.00    +0.000 HD
BRANCH  23  25
ATOM     25  N2  UNL     1      31.990  -9.922 -40.218  0.00  0.00    +0.000 N 
ATOM     26  C2  UNL     1      32.582 -10.427 -41.423  0.00  0.00    +0.000 C 
ATOM     27  N3  UNL     1      31.820 -10.856 -42.388  0.00  0.00    +0.000 NA
ATOM     28  H2  UNL     1      32.593  -9.847 -39.368  0.00  0.00    +0.000 HD
BRANCH  27  29
ATOM     29  C3  UNL     1      32.247 -11.436 -43.629  0.00  0.00    +0.000 A 
ATOM     30  C4  UNL     1      32.829 -10.655 -44.643  0.00  0.00    +0.000 A 
ATOM     31  C5  UNL     1      33.281 -11.258 -45.821  0.00  0.00    +0.000 A 
ATOM     32  C6  UNL     1      33.178 -12.642 -45.985  0.00  0.00    +0.000 A 
ATOM     33  F1  UNL     1      33.619 -13.225 -47.126  0.00  0.00    +0.000 F 
ATOM     34  C7  UNL     1      32.632 -13.427 -44.965  0.00  0.00    +0.000 A 
ATOM     35  C8  UNL     1      32.179 -12.827 -43.785  0.00  0.00    +0.000 A 
ENDBRANCH  27  29
BRANCH  26  36
ATOM     36  S1  UNL     1      34.375 -10.391 -41.567  0.00  0.00    +0.000 S 
ATOM     37  H3  UNL     1      34.376  -9.012 -41.848  0.00  0.00    +0.000 HD
ENDBRANCH  26  36
ENDBRANCH  23  25
ENDBRANCH   1  22
TORSDOF 5
ENDMDL
MODEL 2
REMARK VINA RESULT:    -7.059      1.023      4.442
REMARK INTER + INTRA:          -9.615
REMARK INTER:                  -9.461
REMARK INTRA:                  -0.154
REMARK UNBOUND:                -0.699
REMARK  Name = resultss/4CJN/ligands/lig_409_t2.pdb
REMARK  5 active torsions:
REMARK  status: ('A' for Active; 'I' for Inactive)
REMARK    1  A    between atoms: C1_2  and  C9_15
REMARK    2  A    between atoms: N1_3  and  N2_4
REMARK    3  A    between atoms: C2_5  and  S1_6
REMARK    4  A    between atoms: N3_7  and  C3_8
REMARK    5  A    between atoms: C19_26  and  C20_27
REMARK                            x       y       z     vdW  Elec       q    Type
REMARK                         _______ _______ _______ _____ _____    ______ ____
ROOT
ATOM      1  C9  UNL     1      28.481  -8.701 -39.688  0.00  0.00    +0.000 A 
ATOM      2  C10 UNL     1      27.782  -8.610 -40.910  0.00  0.00    +0.000 A 
ATOM      3  C11 UNL     1      26.396  -8.515 -40.844  0.00  0.00    +0.000 A 
ATOM      4  C12 UNL     1      25.718  -8.515 -39.645  0.00  0.00    +0.000 A 
ATOM      5  N4  UNL     1      24.387  -8.348 -39.831  0.00  0.00    +0.000 N 
ATOM      6  C13 UNL     1      24.234  -8.262 -41.170  0.00  0.00    +0.000 A 
ATOM      7  C14 UNL     1      23.044  -8.074 -41.871  0.00  0.00    +0.000 A 
ATOM      8  C15 UNL     1      23.112  -7.993 -43.275  0.00  0.00    +0.000 A 
ATOM      9  C16 UNL     1      24.353  -8.095 -43.942  0.00  0.00    +0.000 A 
ATOM     10  C17 UNL     1      25.543  -8.279 -43.213  0.00  0.00    +0.000 A 
ATOM     11  C18 UNL     1      25.444  -8.362 -41.825  0.00  0.00    +0.000 A 
ATOM     12  C19 UNL     1      26.423  -8.624 -38.438  0.00  0.00    +0.000 A 
ATOM     13  N5  UNL     1      27.786  -8.704 -38.505  0.00  0.00    +0.000 NA
ATOM     14  H9  UNL     1      23.637  -8.264 -39.110  0.00  0.00    +0.000 HD
ENDROOT
BRANCH  12  15
ATOM     15  C20 UNL     1      25.760  -8.651 -37.118  0.00  0.00    +0.000 A 
ATOM     16  C21 UNL     1      26.309  -9.378 -36.046  0.00  0.00    +0.000 A 
ATOM     17  C22 UNL     1      25.683  -9.370 -34.795  0.00  0.00    +0.000 A 
ATOM     18  C23 UNL     1      24.514  -8.629 -34.600  0.00  0.00    +0.000 A 
ATOM     19  C24 UNL     1      23.975  -7.887 -35.654  0.00  0.00    +0.000 A 
ATOM     20  C25 UNL     1      24.598  -7.890 -36.906  0.00  0.00    +0.000 A 
ENDBRANCH  12  15
BRANCH   1  22
ATOM     21  O1  UNL     1      30.638  -7.876 -39.141  0.00  0.00    +0.000 OA
ATOM     22  C1  UNL     1      29.956  -8.800 -39.665  0.00  0.00    +0.000 C 
ATOM     23  N1  UNL     1      30.616  -9.951 -40.214  0.00  0.00    +0.000 N 
ATOM     24  H1  UNL     1      30.077 -10.840 -40.312  0.00  0.00    +0.000 HD
BRANCH  23  25
ATOM     25  N2  UNL     1      32.008  -9.995 -40.407  0.00  0.00    +0.000 N 
ATOM     26  C2  UNL     1      32.607 -10.456 -41.626  0.00  0.00    +0.000 C 
ATOM     27  N3  UNL     1      31.862 -10.985 -42.554  0.00  0.00    +0.000 NA
ATOM     28  H2  UNL     1      32.630  -9.838 -39.582  0.00  0.00    +0.000 HD
BRANCH  27  29
ATOM     29  C3  UNL     1      32.305 -11.539 -43.801  0.00  0.00    +0.000 A 
ATOM     30  C4  UNL     1      32.869 -10.732 -44.804  0.00  0.00    +0.000 A 
ATOM     31  C5  UNL     1      33.337 -11.308 -45.989  0.00  0.00    +0.000 A 
ATOM     32  C6  UNL     1      33.266 -12.692 -46.171  0.00  0.00    +0.000 A 
ATOM     33  F1  UNL     1      33.722 -13.250 -47.319  0.00  0.00    +0.000 F 
ATOM     34  C7  UNL     1      32.737 -13.503 -45.163  0.00  0.00    +0.000 A 
ATOM     35  C8  UNL     1      32.269 -12.929 -43.976  0.00  0.00    +0.000 A 
ENDBRANCH  27  29
BRANCH  26  36
ATOM     36  S1  UNL     1      34.379 -10.226 -41.841  0.00  0.00    +0.000 S 
ATOM     37  H3  UNL     1      34.236 -10.025 -43.226  0.00  0.00    +0.000 HD
ENDBRANCH  26  36
ENDBRANCH  23  25
ENDBRANCH   1  22
TORSDOF 5
ENDMDL
MODEL 3
REMARK VINA RESULT:    -6.794      4.322      9.099
REMARK INTER + INTRA:          -9.281
REMARK INTER:                  -8.466
REMARK INTRA:                  -0.815
REMARK UNBOUND:                -0.699
REMARK  Name = resultss/4CJN/ligands/lig_409_t2.pdb
REMARK  5 active torsions:
REMARK  status: ('A' for Active; 'I' for Inactive)
REMARK    1  A    between atoms: C1_2  and  C9_15
REMARK    2  A    between atoms: N1_3  and  N2_4
REMARK    3  A    between atoms: C2_5  and  S1_6
REMARK    4  A    between atoms: N3_7  and  C3_8
REMARK    5  A    between atoms: C19_26  and  C20_27
REMARK                            x       y       z     vdW  Elec       q    Type
REMARK                         _______ _______ _______ _____ _____    ______ ____
ROOT
ATOM      1  C9  UNL     1      30.480  -9.169 -39.417  0.00  0.00    +0.000 A 
ATOM      2  C10 UNL     1      29.494  -8.289 -39.912  0.00  0.00    +0.000 A 
ATOM      3  C11 UNL     1      29.239  -8.324 -41.278  0.00  0.00    +0.000 A 
ATOM      4  C12 UNL     1      29.916  -9.170 -42.129  0.00  0.00    +0.000 A 
ATOM      5  N4  UNL     1      29.451  -9.069 -43.397  0.00  0.00    +0.000 N 
ATOM      6  C13 UNL     1      28.481  -8.130 -43.336  0.00  0.00    +0.000 A 
ATOM      7  C14 UNL     1      27.686  -7.672 -44.385  0.00  0.00    +0.000 A 
ATOM      8  C15 UNL     1      26.714  -6.695 -44.096  0.00  0.00    +0.000 A 
ATOM      9  C16 UNL     1      26.555  -6.205 -42.781  0.00  0.00    +0.000 A 
ATOM     10  C17 UNL     1      27.366  -6.687 -41.737  0.00  0.00    +0.000 A 
ATOM     11  C18 UNL     1      28.324  -7.648 -42.053  0.00  0.00    +0.000 A 
ATOM     12  C19 UNL     1      30.906 -10.026 -41.628  0.00  0.00    +0.000 A 
ATOM     13  N5  UNL     1      31.146 -10.000 -40.282  0.00  0.00    +0.000 NA
ATOM     14  H9  UNL     1      29.740  -9.615 -44.239  0.00  0.00    +0.000 HD
ENDROOT
BRANCH  12  15
ATOM     15  C20 UNL     1      31.684 -10.944 -42.486  0.00  0.00    +0.000 A 
ATOM     16  C21 UNL     1      33.048 -10.713 -42.743  0.00  0.00    +0.000 A 
ATOM     17  C22 UNL     1      33.777 -11.606 -43.534  0.00  0.00    +0.000 A 
ATOM     18  C23 UNL     1      33.158 -12.742 -44.063  0.00  0.00    +0.000 A 
ATOM     19  C24 UNL     1      31.810 -12.990 -43.793  0.00  0.00    +0.000 A 
ATOM     20  C25 UNL     1      31.077 -12.100 -43.002  0.00  0.00    +0.000 A 
ENDBRANCH  12  15
BRANCH   1  22
ATOM     21  O1  UNL     1      31.641 -10.050 -37.545  0.00  0.00    +0.000 OA
ATOM     22  C1  UNL     1      30.811  -9.204 -37.977  0.00  0.00    +0.000 C 
ATOM     23  N1  UNL     1      30.212  -8.265 -37.070  0.00  0.00    +0.000 N 
ATOM     24  H1  UNL     1      29.827  -7.372 -37.453  0.00  0.00    +0.000 HD
BRANCH  23  25
ATOM     25  N2  UNL     1      30.329  -8.392 -35.675  0.00  0.00    +0.000 N 
ATOM     26  C2  UNL     1      29.191  -8.511 -34.809  0.00  0.00    +0.000 C 
ATOM     27  N3  UNL     1      27.991  -8.363 -35.294  0.00  0.00    +0.000 NA
ATOM     28  H2  UNL     1      31.265  -8.236 -35.237  0.00  0.00    +0.000 HD
BRANCH  27  29
ATOM     29  C3  UNL     1      26.757  -8.398 -34.562  0.00  0.00    +0.000 A 
ATOM     30  C4  UNL     1      26.160  -7.224 -34.072  0.00  0.00    +0.000 A 
ATOM     31  C5  UNL     1      24.932  -7.285 -33.406  0.00  0.00    +0.000 A 
ATOM     32  C6  UNL     1      24.282  -8.512 -33.246  0.00  0.00    +0.000 A 
ATOM     33  F1  UNL     1      23.091  -8.570 -32.602  0.00  0.00    +0.000 F 
ATOM     34  C7  UNL     1      24.855  -9.678 -33.761  0.00  0.00    +0.000 A 
ATOM     35  C8  UNL     1      26.084  -9.620 -34.429  0.00  0.00    +0.000 A 
ENDBRANCH  27  29
BRANCH  26  36
ATOM     36  S1  UNL     1      29.478  -8.920 -33.081  0.00  0.00    +0.000 S 
ATOM     37  H3  UNL     1      30.193 -10.083 -33.422  0.00  0.00    +0.000 HD
ENDBRANCH  26  36
ENDBRANCH  23  25
ENDBRANCH   1  22
TORSDOF 5
ENDMDL
MODEL 4
REMARK VINA RESULT:    -6.792      4.550      9.187
REMARK INTER + INTRA:          -9.277
REMARK INTER:                  -8.395
REMARK INTRA:                  -0.882
REMARK UNBOUND:                -0.699
REMARK  Name = resultss/4CJN/ligands/lig_409_t2.pdb
REMARK  5 active torsions:
REMARK  status: ('A' for Active; 'I' for Inactive)
REMARK    1  A    between atoms: C1_2  and  C9_15
REMARK    2  A    between atoms: N1_3  and  N2_4
REMARK    3  A    between atoms: C2_5  and  S1_6
REMARK    4  A    between atoms: N3_7  and  C3_8
REMARK    5  A    between atoms: C19_26  and  C20_27
REMARK                            x       y       z     vdW  Elec       q    Type
REMARK                         _______ _______ _______ _____ _____    ______ ____
ROOT
ATOM      1  C9  UNL     1      25.848  -7.624 -41.167  0.00  0.00    +0.000 A 
ATOM      2  C10 UNL     1      25.439  -7.046 -42.387  0.00  0.00    +0.000 A 
ATOM      3  C11 UNL     1      26.295  -7.184 -43.474  0.00  0.00    +0.000 A 
ATOM      4  C12 UNL     1      27.498  -7.847 -43.379  0.00  0.00    +0.000 A 
ATOM      5  N4  UNL     1      28.124  -7.907 -44.579  0.00  0.00    +0.000 N 
ATOM      6  C13 UNL     1      27.303  -7.252 -45.430  0.00  0.00    +0.000 A 
ATOM      7  C14 UNL     1      27.495  -7.047 -46.795  0.00  0.00    +0.000 A 
ATOM      8  C15 UNL     1      26.497  -6.351 -47.503  0.00  0.00    +0.000 A 
ATOM      9  C16 UNL     1      25.340  -5.883 -46.842  0.00  0.00    +0.000 A 
ATOM     10  C17 UNL     1      25.165  -6.107 -45.464  0.00  0.00    +0.000 A 
ATOM     11  C18 UNL     1      26.171  -6.793 -44.788  0.00  0.00    +0.000 A 
ATOM     12  C19 UNL     1      27.902  -8.401 -42.157  0.00  0.00    +0.000 A 
ATOM     13  N5  UNL     1      27.053  -8.276 -41.093  0.00  0.00    +0.000 NA
ATOM     14  H9  UNL     1      29.023  -8.381 -44.819  0.00  0.00    +0.000 HD
ENDROOT
BRANCH  12  15
ATOM     15  C20 UNL     1      29.188  -9.107 -41.979  0.00  0.00    +0.000 A 
ATOM     16  C21 UNL     1      30.180  -8.600 -41.120  0.00  0.00    +0.000 A 
ATOM     17  C22 UNL     1      31.381  -9.294 -40.941  0.00  0.00    +0.000 A 
ATOM     18  C23 UNL     1      31.596 -10.504 -41.606  0.00  0.00    +0.000 A 
ATOM     19  C24 UNL     1      30.608 -11.025 -42.444  0.00  0.00    +0.000 A 
ATOM     20  C25 UNL     1      29.405 -10.335 -42.625  0.00  0.00    +0.000 A 
ENDBRANCH  12  15
BRANCH   1  22
ATOM     21  O1  UNL     1      24.399  -6.452 -39.698  0.00  0.00    +0.000 OA
ATOM     22  C1  UNL     1      24.998  -7.531 -39.962  0.00  0.00    +0.000 C 
ATOM     23  N1  UNL     1      24.829  -8.668 -39.100  0.00  0.00    +0.000 N 
ATOM     24  H1  UNL     1      25.013  -9.621 -39.485  0.00  0.00    +0.000 HD
BRANCH  23  25
ATOM     25  N2  UNL     1      24.211  -8.570 -37.841  0.00  0.00    +0.000 N 
ATOM     26  C2  UNL     1      24.954  -8.483 -36.617  0.00  0.00    +0.000 C 
ATOM     27  N3  UNL     1      26.247  -8.635 -36.633  0.00  0.00    +0.000 NA
ATOM     28  H2  UNL     1      23.180  -8.723 -37.780  0.00  0.00    +0.000 HD
BRANCH  27  29
ATOM     29  C3  UNL     1      27.128  -8.630 -35.500  0.00  0.00    +0.000 A 
ATOM     30  C4  UNL     1      27.556  -9.826 -34.898  0.00  0.00    +0.000 A 
ATOM     31  C5  UNL     1      28.454  -9.791 -33.826  0.00  0.00    +0.000 A 
ATOM     32  C6  UNL     1      28.948  -8.567 -33.366  0.00  0.00    +0.000 A 
ATOM     33  F1  UNL     1      29.821  -8.534 -32.329  0.00  0.00    +0.000 F 
ATOM     34  C7  UNL     1      28.552  -7.377 -33.984  0.00  0.00    +0.000 A 
ATOM     35  C8  UNL     1      27.654  -7.410 -35.056  0.00  0.00    +0.000 A 
ENDBRANCH  27  29
BRANCH  26  36
ATOM     36  S1  UNL     1      24.056  -8.108 -35.104  0.00  0.00    +0.000 S 
ATOM     37  H3  UNL     1      23.911  -9.472 -34.791  0.00  0.00    +0.000 HD
ENDBRANCH  26  36
ENDBRANCH  23  25
ENDBRANCH   1  22
TORSDOF 5
ENDMDL
MODEL 5
REMARK VINA RESULT:    -6.776      4.357      9.481
REMARK INTER + INTRA:          -9.257
REMARK INTER:                  -8.595
REMARK INTRA:                  -0.663
REMARK UNBOUND:                -0.699
REMARK  Name = resultss/4CJN/ligands/lig_409_t2.pdb
REMARK  5 active torsions:
REMARK  status: ('A' for Active; 'I' for Inactive)
REMARK    1  A    between atoms: C1_2  and  C9_15
REMARK    2  A    between atoms: N1_3  and  N2_4
REMARK    3  A    between atoms: C2_5  and  S1_6
REMARK    4  A    between atoms: N3_7  and  C3_8
REMARK    5  A    between atoms: C19_26  and  C20_27
REMARK                            x       y       z     vdW  Elec       q    Type
REMARK                         _______ _______ _______ _____ _____    ______ ____
ROOT
ATOM      1  C9  UNL     1      30.652  -9.257 -39.058  0.00  0.00    +0.000 A 
ATOM      2  C10 UNL     1      31.774  -9.630 -39.830  0.00  0.00    +0.000 A 
ATOM      3  C11 UNL     1      31.542 -10.005 -41.148  0.00  0.00    +0.000 A 
ATOM      4  C12 UNL     1      30.277 -10.026 -41.692  0.00  0.00    +0.000 A 
ATOM      5  N4  UNL     1      30.310 -10.361 -43.004  0.00  0.00    +0.000 N 
ATOM      6  C13 UNL     1      31.617 -10.572 -43.274  0.00  0.00    +0.000 A 
ATOM      7  C14 UNL     1      32.177 -10.931 -44.499  0.00  0.00    +0.000 A 
ATOM      8  C15 UNL     1      33.575 -11.081 -44.565  0.00  0.00    +0.000 A 
ATOM      9  C16 UNL     1      34.377 -10.867 -43.422  0.00  0.00    +0.000 A 
ATOM     10  C17 UNL     1      33.790 -10.500 -42.197  0.00  0.00    +0.000 A 
ATOM     11  C18 UNL     1      32.403 -10.365 -42.159  0.00  0.00    +0.000 A 
ATOM     12  C19 UNL     1      29.169  -9.671 -40.911  0.00  0.00    +0.000 A 
ATOM     13  N5  UNL     1      29.400  -9.289 -39.619  0.00  0.00    +0.000 NA
ATOM     14  H9  UNL     1      29.517 -10.414 -43.681  0.00  0.00    +0.000 HD
ENDROOT
BRANCH  12  15
ATOM     15  C20 UNL     1      27.783  -9.690 -41.424  0.00  0.00    +0.000 A 
ATOM     16  C21 UNL     1      26.770 -10.397 -40.750  0.00  0.00    +0.000 A 
ATOM     17  C22 UNL     1      25.459 -10.381 -41.234  0.00  0.00    +0.000 A 
ATOM     18  C23 UNL     1      25.143  -9.652 -42.383  0.00  0.00    +0.000 A 
ATOM     19  C24 UNL     1      26.138  -8.930 -43.046  0.00  0.00    +0.000 A 
ATOM     20  C25 UNL     1      27.452  -8.941 -42.565  0.00  0.00    +0.000 A 
ENDBRANCH  12  15
BRANCH   1  22
ATOM     21  O1  UNL     1      31.926  -8.425 -37.238  0.00  0.00    +0.000 OA
ATOM     22  C1  UNL     1      30.807  -8.838 -37.650  0.00  0.00    +0.000 C 
ATOM     23  N1  UNL     1      29.687  -8.877 -36.752  0.00  0.00    +0.000 N 
ATOM     24  H1  UNL     1      28.722  -8.867 -37.152  0.00  0.00    +0.000 HD
BRANCH  23  25
ATOM     25  N2  UNL     1      29.830  -8.695 -35.365  0.00  0.00    +0.000 N 
ATOM     26  C2  UNL     1      28.711  -8.504 -34.488  0.00  0.00    +0.000 C 
ATOM     27  N3  UNL     1      27.517  -8.353 -34.986  0.00  0.00    +0.000 NA
ATOM     28  H2  UNL     1      30.789  -8.536 -34.981  0.00  0.00    +0.000 HD
BRANCH  27  29
ATOM     29  C3  UNL     1      26.307  -8.102 -34.258  0.00  0.00    +0.000 A 
ATOM     30  C4  UNL     1      25.909  -6.796 -33.924  0.00  0.00    +0.000 A 
ATOM     31  C5  UNL     1      24.699  -6.579 -33.257  0.00  0.00    +0.000 A 
ATOM     32  C6  UNL     1      23.869  -7.659 -32.941  0.00  0.00    +0.000 A 
ATOM     33  F1  UNL     1      22.696  -7.448 -32.297  0.00  0.00    +0.000 F 
ATOM     34  C7  UNL     1      24.245  -8.956 -33.301  0.00  0.00    +0.000 A 
ATOM     35  C8  UNL     1      25.455  -9.176 -33.969  0.00  0.00    +0.000 A 
ENDBRANCH  27  29
BRANCH  26  36
ATOM     36  S1  UNL     1      29.008  -8.537 -32.714  0.00  0.00    +0.000 S 
ATOM     37  H3  UNL     1      27.633  -8.441 -32.431  0.00  0.00    +0.000 HD
ENDBRANCH  26  36
ENDBRANCH  23  25
ENDBRANCH   1  22
TORSDOF 5
ENDMDL
MODEL 6
REMARK VINA RESULT:    -6.752      3.737      5.949
REMARK INTER + INTRA:          -9.227
REMARK INTER:                  -8.369
REMARK INTRA:                  -0.857
REMARK UNBOUND:                -0.699
REMARK  Name = resultss/4CJN/ligands/lig_409_t2.pdb
REMARK  5 active torsions:
REMARK  status: ('A' for Active; 'I' for Inactive)
REMARK    1  A    between atoms: C1_2  and  C9_15
REMARK    2  A    between atoms: N1_3  and  N2_4
REMARK    3  A    between atoms: C2_5  and  S1_6
REMARK    4  A    between atoms: N3_7  and  C3_8
REMARK    5  A    between atoms: C19_26  and  C20_27
REMARK                            x       y       z     vdW  Elec       q    Type
REMARK                         _______ _______ _______ _____ _____    ______ ____
ROOT
ATOM      1  C9  UNL     1      30.037  -8.775 -36.900  0.00  0.00    +0.000 A 
ATOM      2  C10 UNL     1      31.200  -9.087 -36.164  0.00  0.00    +0.000 A 
ATOM      3  C11 UNL     1      31.040  -9.368 -34.812  0.00  0.00    +0.000 A 
ATOM      4  C12 UNL     1      29.807  -9.341 -34.198  0.00  0.00    +0.000 A 
ATOM      5  N4  UNL     1      29.895  -9.711 -32.898  0.00  0.00    +0.000 N 
ATOM      6  C13 UNL     1      31.209  -9.953 -32.696  0.00  0.00    +0.000 A 
ATOM      7  C14 UNL     1      31.815 -10.376 -31.515  0.00  0.00    +0.000 A 
ATOM      8  C15 UNL     1      33.207 -10.590 -31.528  0.00  0.00    +0.000 A 
ATOM      9  C16 UNL     1      33.955 -10.384 -32.708  0.00  0.00    +0.000 A 
ATOM     10  C17 UNL     1      33.320  -9.962 -33.891  0.00  0.00    +0.000 A 
ATOM     11  C18 UNL     1      31.943  -9.752 -33.847  0.00  0.00    +0.000 A 
ATOM     12  C19 UNL     1      28.662  -9.012 -34.936  0.00  0.00    +0.000 A 
ATOM     13  N5  UNL     1      28.819  -8.749 -36.268  0.00  0.00    +0.000 NA
ATOM     14  H9  UNL     1      29.125  -9.824 -32.203  0.00  0.00    +0.000 HD
ENDROOT
BRANCH  12  15
ATOM     15  C20 UNL     1      27.312  -8.943 -34.338  0.00  0.00    +0.000 A 
ATOM     16  C21 UNL     1      26.879  -7.791 -33.657  0.00  0.00    +0.000 A 
ATOM     17  C22 UNL     1      25.588  -7.732 -33.122  0.00  0.00    +0.000 A 
ATOM     18  C23 UNL     1      24.717  -8.814 -33.271  0.00  0.00    +0.000 A 
ATOM     19  C24 UNL     1      25.132  -9.953 -33.964  0.00  0.00    +0.000 A 
ATOM     20  C25 UNL     1      26.421 -10.017 -34.503  0.00  0.00    +0.000 A 
ENDBRANCH  12  15
BRANCH   1  22
ATOM     21  O1  UNL     1      30.941  -7.612 -38.760  0.00  0.00    +0.000 OA
ATOM     22  C1  UNL     1      30.113  -8.469 -38.343  0.00  0.00    +0.000 C 
ATOM     23  N1  UNL     1      29.267  -9.156 -39.279  0.00  0.00    +0.000 N 
ATOM     24  H1  UNL     1      28.862 -10.079 -39.005  0.00  0.00    +0.000 HD
BRANCH  23  25
ATOM     25  N2  UNL     1      29.151  -8.754 -40.621  0.00  0.00    +0.000 N 
ATOM     26  C2  UNL     1      29.846  -9.410 -41.690  0.00  0.00    +0.000 C 
ATOM     27  N3  UNL     1      30.729 -10.329 -41.421  0.00  0.00    +0.000 NA
ATOM     28  H2  UNL     1      28.669  -7.851 -40.829  0.00  0.00    +0.000 HD
BRANCH  27  29
ATOM     29  C3  UNL     1      31.545 -11.041 -42.362  0.00  0.00    +0.000 A 
ATOM     30  C4  UNL     1      32.878 -10.669 -42.607  0.00  0.00    +0.000 A 
ATOM     31  C5  UNL     1      33.663 -11.414 -43.493  0.00  0.00    +0.000 A 
ATOM     32  C6  UNL     1      33.132 -12.544 -44.121  0.00  0.00    +0.000 A 
ATOM     33  F1  UNL     1      33.895 -13.266 -44.978  0.00  0.00    +0.000 F 
ATOM     34  C7  UNL     1      31.817 -12.937 -43.854  0.00  0.00    +0.000 A 
ATOM     35  C8  UNL     1      31.030 -12.195 -42.968  0.00  0.00    +0.000 A 
ENDBRANCH  27  29
BRANCH  26  36
ATOM     36  S1  UNL     1      29.418  -8.965 -43.380  0.00  0.00    +0.000 S 
ATOM     37  H3  UNL     1      30.687  -9.346 -43.855  0.00  0.00    +0.000 HD
ENDBRANCH  26  36
ENDBRANCH  23  25
ENDBRANCH   1  22
TORSDOF 5
ENDMDL
MODEL 7
REMARK VINA RESULT:    -6.740      4.671      8.566
REMARK INTER + INTRA:          -9.212
REMARK INTER:                  -8.483
REMARK INTRA:                  -0.729
REMARK UNBOUND:                -0.699
REMARK  Name = resultss/4CJN/ligands/lig_409_t2.pdb
REMARK  5 active torsions:
REMARK  status: ('A' for Active; 'I' for Inactive)
REMARK    1  A    between atoms: C1_2  and  C9_15
REMARK    2  A    between atoms: N1_3  and  N2_4
REMARK    3  A    between atoms: C2_5  and  S1_6
REMARK    4  A    between atoms: N3_7  and  C3_8
REMARK    5  A    between atoms: C19_26  and  C20_27
REMARK                            x       y       z     vdW  Elec       q    Type
REMARK                         _______ _______ _______ _____ _____    ______ ____
ROOT
ATOM      1  C9  UNL     1      24.836  -7.621 -39.762  0.00  0.00    +0.000 A 
ATOM      2  C10 UNL     1      23.997  -7.096 -40.769  0.00  0.00    +0.000 A 
ATOM      3  C11 UNL     1      24.368  -7.327 -42.088  0.00  0.00    +0.000 A 
ATOM      4  C12 UNL     1      25.507  -8.030 -42.418  0.00  0.00    +0.000 A 
ATOM      5  N4  UNL     1      25.622  -8.180 -43.759  0.00  0.00    +0.000 N 
ATOM      6  C13 UNL     1      24.547  -7.544 -44.272  0.00  0.00    +0.000 A 
ATOM      7  C14 UNL     1      24.203  -7.423 -45.617  0.00  0.00    +0.000 A 
ATOM      8  C15 UNL     1      23.020  -6.729 -45.935  0.00  0.00    +0.000 A 
ATOM      9  C16 UNL     1      22.211  -6.181 -44.914  0.00  0.00    +0.000 A 
ATOM     10  C17 UNL     1      22.576  -6.320 -43.562  0.00  0.00    +0.000 A 
ATOM     11  C18 UNL     1      23.755  -7.006 -43.278  0.00  0.00    +0.000 A 
ATOM     12  C19 UNL     1      26.341  -8.530 -41.409  0.00  0.00    +0.000 A 
ATOM     13  N5  UNL     1      25.968  -8.313 -40.112  0.00  0.00    +0.000 NA
ATOM     14  H9  UNL     1      26.353  -8.701 -44.292  0.00  0.00    +0.000 HD
ENDROOT
BRANCH  12  15
ATOM     15  C20 UNL     1      27.587  -9.273 -41.690  0.00  0.00    +0.000 A 
ATOM     16  C21 UNL     1      28.494  -8.824 -42.667  0.00  0.00    +0.000 A 
ATOM     17  C22 UNL     1      29.681  -9.524 -42.902  0.00  0.00    +0.000 A 
ATOM     18  C23 UNL     1      29.980 -10.668 -42.156  0.00  0.00    +0.000 A 
ATOM     19  C24 UNL     1      29.096 -11.107 -41.168  0.00  0.00    +0.000 A 
ATOM     20  C25 UNL     1      27.907 -10.410 -40.929  0.00  0.00    +0.000 A 
ENDBRANCH  12  15
BRANCH   1  22
ATOM     21  O1  UNL     1      24.433  -6.260 -37.860  0.00  0.00    +0.000 OA
ATOM     22  C1  UNL     1      24.515  -7.427 -38.332  0.00  0.00    +0.000 C 
ATOM     23  N1  UNL     1      24.274  -8.559 -37.481  0.00  0.00    +0.000 N 
ATOM     24  H1  UNL     1      23.991  -9.465 -37.918  0.00  0.00    +0.000 HD
BRANCH  23  25
ATOM     25  N2  UNL     1      24.177  -8.439 -36.084  0.00  0.00    +0.000 N 
ATOM     26  C2  UNL     1      25.328  -8.387 -35.229  0.00  0.00    +0.000 C 
ATOM     27  N3  UNL     1      26.514  -8.593 -35.727  0.00  0.00    +0.000 NA
ATOM     28  H2  UNL     1      23.239  -8.551 -35.639  0.00  0.00    +0.000 HD
BRANCH  27  29
ATOM     29  C3  UNL     1      27.755  -8.628 -35.007  0.00  0.00    +0.000 A 
ATOM     30  C4  UNL     1      28.228  -9.813 -34.418  0.00  0.00    +0.000 A 
ATOM     31  C5  UNL     1      29.465  -9.827 -33.766  0.00  0.00    +0.000 A 
ATOM     32  C6  UNL     1      30.246  -8.669 -33.718  0.00  0.00    +0.000 A 
ATOM     33  F1  UNL     1      31.446  -8.684 -33.088  0.00  0.00    +0.000 F 
ATOM     34  C7  UNL     1      29.795  -7.497 -34.332  0.00  0.00    +0.000 A 
ATOM     35  C8  UNL     1      28.558  -7.480 -34.986  0.00  0.00    +0.000 A 
ENDBRANCH  27  29
BRANCH  26  36
ATOM     36  S1  UNL     1      25.079  -7.980 -33.494  0.00  0.00    +0.000 S 
ATOM     37  H3  UNL     1      23.848  -8.660 -33.459  0.00  0.00    +0.000 HD
ENDBRANCH  26  36
ENDBRANCH  23  25
ENDBRANCH   1  22
TORSDOF 5
ENDMDL
MODEL 8
REMARK VINA RESULT:    -6.698      3.098      5.738
REMARK INTER + INTRA:          -9.159
REMARK INTER:                  -8.480
REMARK INTRA:                  -0.680
REMARK UNBOUND:                -0.699
REMARK  Name = resultss/4CJN/ligands/lig_409_t2.pdb
REMARK  5 active torsions:
REMARK  status: ('A' for Active; 'I' for Inactive)
REMARK    1  A    between atoms: C1_2  and  C9_15
REMARK    2  A    between atoms: N1_3  and  N2_4
REMARK    3  A    between atoms: C2_5  and  S1_6
REMARK    4  A    between atoms: N3_7  and  C3_8
REMARK    5  A    between atoms: C19_26  and  C20_27
REMARK                            x       y       z     vdW  Elec       q    Type
REMARK                         _______ _______ _______ _____ _____    ______ ____
ROOT
ATOM      1  C9  UNL     1      27.570  -8.490 -37.303  0.00  0.00    +0.000 A 
ATOM      2  C10 UNL     1      28.833  -8.797 -36.754  0.00  0.00    +0.000 A 
ATOM      3  C11 UNL     1      28.918  -8.894 -35.370  0.00  0.00    +0.000 A 
ATOM      4  C12 UNL     1      27.827  -8.695 -34.553  0.00  0.00    +0.000 A 
ATOM      5  N4  UNL     1      28.140  -8.905 -33.252  0.00  0.00    +0.000 N 
ATOM      6  C13 UNL     1      29.453  -9.223 -33.260  0.00  0.00    +0.000 A 
ATOM      7  C14 UNL     1      30.249  -9.541 -32.160  0.00  0.00    +0.000 A 
ATOM      8  C15 UNL     1      31.599  -9.863 -32.396  0.00  0.00    +0.000 A 
ATOM      9  C16 UNL     1      32.120  -9.864 -33.709  0.00  0.00    +0.000 A 
ATOM     10  C17 UNL     1      31.296  -9.545 -34.804  0.00  0.00    +0.000 A 
ATOM     11  C18 UNL     1      29.966  -9.224 -34.541  0.00  0.00    +0.000 A 
ATOM     12  C19 UNL     1      26.582  -8.372 -35.109  0.00  0.00    +0.000 A 
ATOM     13  N5  UNL     1      26.497  -8.290 -36.471  0.00  0.00    +0.000 NA
ATOM     14  H9  UNL     1      27.510  -8.871 -32.420  0.00  0.00    +0.000 HD
ENDROOT
BRANCH  12  15
ATOM     15  C20 UNL     1      25.375  -8.125 -34.292  0.00  0.00    +0.000 A 
ATOM     16  C21 UNL     1      24.678  -9.188 -33.689  0.00  0.00    +0.000 A 
ATOM     17  C22 UNL     1      23.554  -8.934 -32.897  0.00  0.00    +0.000 A 
ATOM     18  C23 UNL     1      23.125  -7.620 -32.688  0.00  0.00    +0.000 A 
ATOM     19  C24 UNL     1      23.826  -6.558 -33.264  0.00  0.00    +0.000 A 
ATOM     20  C25 UNL     1      24.950  -6.807 -34.057  0.00  0.00    +0.000 A 
ENDBRANCH  12  15
BRANCH   1  22
ATOM     21  O1  UNL     1      26.428  -8.969 -39.326  0.00  0.00    +0.000 OA
ATOM     22  C1  UNL     1      27.388  -8.373 -38.765  0.00  0.00    +0.000 C 
ATOM     23  N1  UNL     1      28.282  -7.566 -39.548  0.00  0.00    +0.000 N 
ATOM     24  H1  UNL     1      28.828  -6.814 -39.070  0.00  0.00    +0.000 HD
BRANCH  23  25
ATOM     25  N2  UNL     1      28.280  -7.594 -40.953  0.00  0.00    +0.000 N 
ATOM     26  C2  UNL     1      29.058  -8.530 -41.711  0.00  0.00    +0.000 C 
ATOM     27  N3  UNL     1      29.911  -9.305 -41.104  0.00  0.00    +0.000 NA
ATOM     28  H2  UNL     1      27.822  -6.807 -41.465  0.00  0.00    +0.000 HD
BRANCH  27  29
ATOM     29  C3  UNL     1      30.798 -10.253 -41.714  0.00  0.00    +0.000 A 
ATOM     30  C4  UNL     1      30.312 -11.403 -42.360  0.00  0.00    +0.000 A 
ATOM     31  C5  UNL     1      31.199 -12.283 -42.989  0.00  0.00    +0.000 A 
ATOM     32  C6  UNL     1      32.570 -12.010 -42.997  0.00  0.00    +0.000 A 
ATOM     33  F1  UNL     1      33.428 -12.862 -43.608  0.00  0.00    +0.000 F 
ATOM     34  C7  UNL     1      33.054 -10.850 -42.385  0.00  0.00    +0.000 A 
ATOM     35  C8  UNL     1      32.169  -9.968 -41.756  0.00  0.00    +0.000 A 
ENDBRANCH  27  29
BRANCH  26  36
ATOM     36  S1  UNL     1      28.776  -8.628 -43.486  0.00  0.00    +0.000 S 
ATOM     37  H3  UNL     1      29.381  -9.896 -43.563  0.00  0.00    +0.000 HD
ENDBRANCH  26  36
ENDBRANCH  23  25
ENDBRANCH   1  22
TORSDOF 5
ENDMDL
MODEL 9
REMARK VINA RESULT:    -6.620      4.497      7.554
REMARK INTER + INTRA:          -9.061
REMARK INTER:                  -8.133
REMARK INTRA:                  -0.928
REMARK UNBOUND:                -0.699
REMARK  Name = resultss/4CJN/ligands/lig_409_t2.pdb
REMARK  5 active torsions:
REMARK  status: ('A' for Active; 'I' for Inactive)
REMARK    1  A    between atoms: C1_2  and  C9_15
REMARK    2  A    between atoms: N1_3  and  N2_4
REMARK    3  A    between atoms: C2_5  and  S1_6
REMARK    4  A    between atoms: N3_7  and  C3_8
REMARK    5  A    between atoms: C19_26  and  C20_27
REMARK                            x       y       z     vdW  Elec       q    Type
REMARK                         _______ _______ _______ _____ _____    ______ ____
ROOT
ATOM      1  C9  UNL     1      30.502  -9.335 -36.735  0.00  0.00    +0.000 A 
ATOM      2  C10 UNL     1      31.629  -9.534 -35.909  0.00  0.00    +0.000 A 
ATOM      3  C11 UNL     1      31.408  -9.605 -34.539  0.00  0.00    +0.000 A 
ATOM      4  C12 UNL     1      30.150  -9.481 -33.992  0.00  0.00    +0.000 A 
ATOM      5  N4  UNL     1      30.177  -9.648 -32.648  0.00  0.00    +0.000 N 
ATOM      6  C13 UNL     1      31.479  -9.861 -32.353  0.00  0.00    +0.000 A 
ATOM      7  C14 UNL     1      32.029 -10.101 -31.095  0.00  0.00    +0.000 A 
ATOM      8  C15 UNL     1      33.417 -10.318 -31.014  0.00  0.00    +0.000 A 
ATOM      9  C16 UNL     1      34.218 -10.297 -32.178  0.00  0.00    +0.000 A 
ATOM     10  C17 UNL     1      33.640 -10.058 -33.438  0.00  0.00    +0.000 A 
ATOM     11  C18 UNL     1      32.264  -9.840 -33.487  0.00  0.00    +0.000 A 
ATOM     12  C19 UNL     1      29.040  -9.265 -34.821  0.00  0.00    +0.000 A 
ATOM     13  N5  UNL     1      29.258  -9.209 -36.169  0.00  0.00    +0.000 NA
ATOM     14  H9  UNL     1      29.377  -9.652 -31.978  0.00  0.00    +0.000 HD
ENDROOT
BRANCH  12  15
ATOM     15  C20 UNL     1      27.667  -9.102 -34.301  0.00  0.00    +0.000 A 
ATOM     16  C21 UNL     1      27.272  -7.916 -33.654  0.00  0.00    +0.000 A 
ATOM     17  C22 UNL     1      25.961  -7.768 -33.192  0.00  0.00    +0.000 A 
ATOM     18  C23 UNL     1      25.030  -8.792 -33.383  0.00  0.00    +0.000 A 
ATOM     19  C24 UNL     1      25.407  -9.963 -34.045  0.00  0.00    +0.000 A 
ATOM     20  C25 UNL     1      26.717 -10.116 -34.509  0.00  0.00    +0.000 A 
ENDBRANCH  12  15
BRANCH   1  22
ATOM     21  O1  UNL     1      31.131  -8.215 -38.730  0.00  0.00    +0.000 OA
ATOM     22  C1  UNL     1      30.643  -9.253 -38.204  0.00  0.00    +0.000 C 
ATOM     23  N1  UNL     1      30.252 -10.357 -39.035  0.00  0.00    +0.000 N 
ATOM     24  H1  UNL     1      30.196 -11.310 -38.611  0.00  0.00    +0.000 HD
BRANCH  23  25
ATOM     25  N2  UNL     1      30.168 -10.248 -40.435  0.00  0.00    +0.000 N 
ATOM     26  C2  UNL     1      28.995  -9.765 -41.105  0.00  0.00    +0.000 C 
ATOM     27  N3  UNL     1      27.907  -9.540 -40.426  0.00  0.00    +0.000 NA
ATOM     28  H2  UNL     1      30.922 -10.681 -41.013  0.00  0.00    +0.000 HD
BRANCH  27  29
ATOM     29  C3  UNL     1      26.642  -9.109 -40.946  0.00  0.00    +0.000 A 
ATOM     30  C4  UNL     1      25.794  -9.991 -41.638  0.00  0.00    +0.000 A 
ATOM     31  C5  UNL     1      24.544  -9.554 -42.090  0.00  0.00    +0.000 A 
ATOM     32  C6  UNL     1      24.124  -8.246 -41.834  0.00  0.00    +0.000 A 
ATOM     33  F1  UNL     1      22.912  -7.825 -42.270  0.00  0.00    +0.000 F 
ATOM     34  C7  UNL     1      24.949  -7.376 -41.116  0.00  0.00    +0.000 A 
ATOM     35  C8  UNL     1      26.200  -7.810 -40.662  0.00  0.00    +0.000 A 
ENDBRANCH  27  29
BRANCH  26  36
ATOM     36  S1  UNL     1      29.102  -9.436 -42.871  0.00  0.00    +0.000 S 
ATOM     37  H3  UNL     1      30.179 -10.329 -43.023  0.00  0.00    +0.000 HD
ENDBRANCH  26  36
ENDBRANCH  23  25
ENDBRANCH   1  22
TORSDOF 5
ENDMDL
