MODEL 1
REMARK VINA RESULT:    -8.178      0.000      0.000
REMARK INTER + INTRA:         -11.684
REMARK INTER:                 -10.808
REMARK INTRA:                  -0.876
REMARK UNBOUND:                -0.876
REMARK  Name = resultss/4CJN/ligands/lig_421_t1.pdb
REMARK  6 active torsions:
REMARK  status: ('A' for Active; 'I' for Inactive)
REMARK    1  A    between atoms: C1_2  and  C10_18
REMARK    2  A    between atoms: N1_3  and  N2_4
REMARK    3  A    between atoms: C2_5  and  S1_6
REMARK    4  A    between atoms: N3_7  and  C3_8
REMARK    5  A    between atoms: C6_11  and  C7_12
REMARK    6  A    between atoms: C20_29  and  C21_30
REMARK                            x       y       z     vdW  Elec       q    Type
REMARK                         _______ _______ _______ _____ _____    ______ ____
ROOT
ATOM      1  O1  UNL     1      29.181 -10.775 -42.066  0.00  0.00    +0.000 OA
ATOM      2  C1  UNL     1      29.449 -10.175 -40.989  0.00  0.00    +0.000 C 
ATOM      3  N1  UNL     1      30.819  -9.933 -40.634  0.00  0.00    +0.000 N 
ATOM      4  H1  UNL     1      31.055  -9.738 -39.636  0.00  0.00    +0.000 HD
ENDROOT
BRANCH   2   5
ATOM      5  C10 UNL     1      28.355  -9.738 -40.096  0.00  0.00    +0.000 A 
ATOM      6  C11 UNL     1      28.475  -9.861 -38.694  0.00  0.00    +0.000 A 
ATOM      7  C12 UNL     1      27.394  -9.446 -37.925  0.00  0.00    +0.000 A 
ATOM      8  C13 UNL     1      26.247  -8.929 -38.491  0.00  0.00    +0.000 A 
ATOM      9  N4  UNL     1      25.313  -8.658 -37.549  0.00  0.00    +0.000 N 
ATOM     10  C14 UNL     1      25.895  -8.995 -36.378  0.00  0.00    +0.000 A 
ATOM     11  C15 UNL     1      25.333  -8.913 -35.105  0.00  0.00    +0.000 A 
ATOM     12  C16 UNL     1      26.112  -9.338 -34.012  0.00  0.00    +0.000 A 
ATOM     13  C17 UNL     1      27.419  -9.836 -34.212  0.00  0.00    +0.000 A 
ATOM     14  C18 UNL     1      27.964  -9.914 -35.507  0.00  0.00    +0.000 A 
ATOM     15  C19 UNL     1      27.171  -9.480 -36.569  0.00  0.00    +0.000 A 
ATOM     16  C20 UNL     1      26.147  -8.798 -39.883  0.00  0.00    +0.000 A 
ATOM     17  N5  UNL     1      27.207  -9.220 -40.638  0.00  0.00    +0.000 NA
ATOM     18  H9  UNL     1      24.340  -8.304 -37.685  0.00  0.00    +0.000 HD
BRANCH  16  19
ATOM     19  C21 UNL     1      24.957  -8.237 -40.555  0.00  0.00    +0.000 A 
ATOM     20  C22 UNL     1      24.264  -9.006 -41.504  0.00  0.00    +0.000 A 
ATOM     21  C23 UNL     1      23.151  -8.478 -42.165  0.00  0.00    +0.000 A 
ATOM     22  C24 UNL     1      22.730  -7.173 -41.897  0.00  0.00    +0.000 A 
ATOM     23  C25 UNL     1      23.426  -6.392 -40.971  0.00  0.00    +0.000 A 
ATOM     24  C26 UNL     1      24.540  -6.917 -40.305  0.00  0.00    +0.000 A 
ENDBRANCH  16  19
ENDBRANCH   2   5
BRANCH   3  25
ATOM     25  N2  UNL     1      31.870 -10.267 -41.503  0.00  0.00    +0.000 NA
ATOM     26  C2  UNL     1      33.103  -9.898 -41.313  0.00  0.00    +0.000 C 
ATOM     27  N3  UNL     1      34.117 -10.235 -42.272  0.00  0.00    +0.000 N 
ATOM     28  H3  UNL     1      35.011  -9.695 -42.234  0.00  0.00    +0.000 HD
BRANCH  27  29
ATOM     29  C3  UNL     1      33.942 -11.174 -43.347  0.00  0.00    +0.000 A 
ATOM     30  C4  UNL     1      34.274 -12.520 -43.143  0.00  0.00    +0.000 A 
ATOM     31  C5  UNL     1      34.092 -13.458 -44.164  0.00  0.00    +0.000 A 
ATOM     32  C6  UNL     1      33.540 -13.072 -45.397  0.00  0.00    +0.000 A 
ATOM     33  C8  UNL     1      33.208 -11.720 -45.601  0.00  0.00    +0.000 A 
ATOM     34  C9  UNL     1      33.392 -10.784 -44.580  0.00  0.00    +0.000 A 
BRANCH  32  35
ATOM     35  C7  UNL     1      33.389 -14.072 -46.515  0.00  0.00    +0.000 C 
ATOM     36  F1  UNL     1      34.044 -13.601 -47.638  0.00  0.00    +0.000 F 
ATOM     37  F2  UNL     1      33.933 -15.293 -46.155  0.00  0.00    +0.000 F 
ATOM     38  F3  UNL     1      32.053 -14.268 -46.820  0.00  0.00    +0.000 F 
ENDBRANCH  32  35
ENDBRANCH  27  29
BRANCH  26  39
ATOM     39  S1  UNL     1      33.583  -8.965 -39.853  0.00  0.00    +0.000 S 
ATOM     40  H2  UNL     1      32.755  -9.734 -39.015  0.00  0.00    +0.000 HD
ENDBRANCH  26  39
ENDBRANCH   3  25
TORSDOF 6
ENDMDL
MODEL 2
REMARK VINA RESULT:    -7.560      5.717      9.503
REMARK INTER + INTRA:         -10.866
REMARK INTER:                 -10.310
REMARK INTRA:                  -0.557
REMARK UNBOUND:                -0.876
REMARK  Name = resultss/4CJN/ligands/lig_421_t1.pdb
REMARK  6 active torsions:
REMARK  status: ('A' for Active; 'I' for Inactive)
REMARK    1  A    between atoms: C1_2  and  C10_18
REMARK    2  A    between atoms: N1_3  and  N2_4
REMARK    3  A    between atoms: C2_5  and  S1_6
REMARK    4  A    between atoms: N3_7  and  C3_8
REMARK    5  A    between atoms: C6_11  and  C7_12
REMARK    6  A    between atoms: C20_29  and  C21_30
REMARK                            x       y       z     vdW  Elec       q    Type
REMARK                         _______ _______ _______ _____ _____    ______ ____
ROOT
ATOM      1  O1  UNL     1      24.644  -9.667 -43.060  0.00  0.00    +0.000 OA
ATOM      2  C1  UNL     1      25.697  -8.993 -42.894  0.00  0.00    +0.000 C 
ATOM      3  N1  UNL     1      25.954  -7.858 -43.736  0.00  0.00    +0.000 N 
ATOM      4  H1  UNL     1      26.932  -7.504 -43.822  0.00  0.00    +0.000 HD
ENDROOT
BRANCH   2   5
ATOM      5  C10 UNL     1      26.665  -9.382 -41.846  0.00  0.00    +0.000 A 
ATOM      6  C11 UNL     1      26.321  -9.301 -40.479  0.00  0.00    +0.000 A 
ATOM      7  C12 UNL     1      27.294  -9.665 -39.556  0.00  0.00    +0.000 A 
ATOM      8  C13 UNL     1      28.545 -10.095 -39.942  0.00  0.00    +0.000 A 
ATOM      9  N4  UNL     1      29.337 -10.330 -38.869  0.00  0.00    +0.000 N 
ATOM     10  C14 UNL     1      28.558 -10.059 -37.799  0.00  0.00    +0.000 A 
ATOM     11  C15 UNL     1      28.920 -10.136 -36.455  0.00  0.00    +0.000 A 
ATOM     12  C16 UNL     1      27.953  -9.787 -35.492  0.00  0.00    +0.000 A 
ATOM     13  C17 UNL     1      26.663  -9.367 -35.888  0.00  0.00    +0.000 A 
ATOM     14  C18 UNL     1      26.324  -9.292 -37.252  0.00  0.00    +0.000 A 
ATOM     15  C19 UNL     1      27.299  -9.650 -38.181  0.00  0.00    +0.000 A 
ATOM     16  C20 UNL     1      28.869 -10.186 -41.303  0.00  0.00    +0.000 A 
ATOM     17  N5  UNL     1      27.915  -9.813 -42.209  0.00  0.00    +0.000 NA
ATOM     18  H9  UNL     1      30.341 -10.618 -38.855  0.00  0.00    +0.000 HD
BRANCH  16  19
ATOM     19  C21 UNL     1      30.184 -10.655 -41.787  0.00  0.00    +0.000 A 
ATOM     20  C22 UNL     1      31.345  -9.930 -41.468  0.00  0.00    +0.000 A 
ATOM     21  C23 UNL     1      32.592 -10.350 -41.941  0.00  0.00    +0.000 A 
ATOM     22  C24 UNL     1      32.690 -11.485 -42.748  0.00  0.00    +0.000 A 
ATOM     23  C25 UNL     1      31.539 -12.200 -43.090  0.00  0.00    +0.000 A 
ATOM     24  C26 UNL     1      30.289 -11.785 -42.618  0.00  0.00    +0.000 A 
ENDBRANCH  16  19
ENDBRANCH   2   5
BRANCH   3  25
ATOM     25  N2  UNL     1      25.014  -7.423 -44.684  0.00  0.00    +0.000 NA
ATOM     26  C2  UNL     1      25.337  -6.986 -45.867  0.00  0.00    +0.000 C 
ATOM     27  N3  UNL     1      24.323  -6.510 -46.766  0.00  0.00    +0.000 N 
ATOM     28  H3  UNL     1      24.635  -5.920 -47.569  0.00  0.00    +0.000 HD
BRANCH  27  29
ATOM     29  C3  UNL     1      22.910  -6.690 -46.568  0.00  0.00    +0.000 A 
ATOM     30  C4  UNL     1      22.308  -6.176 -45.412  0.00  0.00    +0.000 A 
ATOM     31  C5  UNL     1      20.932  -6.317 -45.205  0.00  0.00    +0.000 A 
ATOM     32  C6  UNL     1      20.127  -6.945 -46.171  0.00  0.00    +0.000 A 
ATOM     33  C8  UNL     1      20.733  -7.461 -47.331  0.00  0.00    +0.000 A 
ATOM     34  C9  UNL     1      22.108  -7.320 -47.535  0.00  0.00    +0.000 A 
BRANCH  32  35
ATOM     35  C7  UNL     1      18.653  -7.142 -45.927  0.00  0.00    +0.000 C 
ATOM     36  F1  UNL     1      18.207  -8.216 -46.675  0.00  0.00    +0.000 F 
ATOM     37  F2  UNL     1      18.408  -7.392 -44.588  0.00  0.00    +0.000 F 
ATOM     38  F3  UNL     1      17.941  -6.011 -46.292  0.00  0.00    +0.000 F 
ENDBRANCH  32  35
ENDBRANCH  27  29
BRANCH  26  39
ATOM     39  S1  UNL     1      27.047  -6.969 -46.420  0.00  0.00    +0.000 S 
ATOM     40  H2  UNL     1      27.440  -7.891 -45.432  0.00  0.00    +0.000 HD
ENDBRANCH  26  39
ENDBRANCH   3  25
TORSDOF 6
ENDMDL
MODEL 3
REMARK VINA RESULT:    -7.137      6.309      9.545
REMARK INTER + INTRA:         -10.308
REMARK INTER:                  -9.986
REMARK INTRA:                  -0.322
REMARK UNBOUND:                -0.876
REMARK  Name = resultss/4CJN/ligands/lig_421_t1.pdb
REMARK  6 active torsions:
REMARK  status: ('A' for Active; 'I' for Inactive)
REMARK    1  A    between atoms: C1_2  and  C10_18
REMARK    2  A    between atoms: N1_3  and  N2_4
REMARK    3  A    between atoms: C2_5  and  S1_6
REMARK    4  A    between atoms: N3_7  and  C3_8
REMARK    5  A    between atoms: C6_11  and  C7_12
REMARK    6  A    between atoms: C20_29  and  C21_30
REMARK                            x       y       z     vdW  Elec       q    Type
REMARK                         _______ _______ _______ _____ _____    ______ ____
ROOT
ATOM      1  O1  UNL     1      24.582  -9.387 -40.003  0.00  0.00    +0.000 OA
ATOM      2  C1  UNL     1      25.288  -8.704 -40.795  0.00  0.00    +0.000 C 
ATOM      3  N1  UNL     1      26.670  -8.466 -40.489  0.00  0.00    +0.000 N 
ATOM      4  H1  UNL     1      27.159  -7.666 -40.948  0.00  0.00    +0.000 HD
ENDROOT
BRANCH   2   5
ATOM      5  C10 UNL     1      24.686  -8.144 -42.023  0.00  0.00    +0.000 A 
ATOM      6  C11 UNL     1      23.304  -7.862 -42.087  0.00  0.00    +0.000 A 
ATOM      7  C12 UNL     1      22.812  -7.355 -43.284  0.00  0.00    +0.000 A 
ATOM      8  C13 UNL     1      23.628  -7.128 -44.373  0.00  0.00    +0.000 A 
ATOM      9  N4  UNL     1      22.914  -6.697 -45.440  0.00  0.00    +0.000 N 
ATOM     10  C14 UNL     1      21.637  -6.639 -45.001  0.00  0.00    +0.000 A 
ATOM     11  C15 UNL     1      20.513  -6.263 -45.734  0.00  0.00    +0.000 A 
ATOM     12  C16 UNL     1      19.263  -6.292 -45.085  0.00  0.00    +0.000 A 
ATOM     13  C17 UNL     1      19.165  -6.699 -43.736  0.00  0.00    +0.000 A 
ATOM     14  C18 UNL     1      20.313  -7.080 -43.018  0.00  0.00    +0.000 A 
ATOM     15  C19 UNL     1      21.537  -7.035 -43.685  0.00  0.00    +0.000 A 
ATOM     16  C20 UNL     1      25.000  -7.397 -44.292  0.00  0.00    +0.000 A 
ATOM     17  N5  UNL     1      25.479  -7.908 -43.117  0.00  0.00    +0.000 NA
ATOM     18  H9  UNL     1      23.253  -6.489 -46.405  0.00  0.00    +0.000 HD
BRANCH  16  19
ATOM     19  C21 UNL     1      25.934  -7.160 -45.412  0.00  0.00    +0.000 A 
ATOM     20  C22 UNL     1      27.305  -6.991 -45.155  0.00  0.00    +0.000 A 
ATOM     21  C23 UNL     1      28.195  -6.742 -46.203  0.00  0.00    +0.000 A 
ATOM     22  C24 UNL     1      27.724  -6.642 -47.514  0.00  0.00    +0.000 A 
ATOM     23  C25 UNL     1      26.360  -6.786 -47.778  0.00  0.00    +0.000 A 
ATOM     24  C26 UNL     1      25.465  -7.037 -46.733  0.00  0.00    +0.000 A 
ENDBRANCH  16  19
ENDBRANCH   2   5
BRANCH   3  25
ATOM     25  N2  UNL     1      27.283  -9.053 -39.370  0.00  0.00    +0.000 NA
ATOM     26  C2  UNL     1      28.095 -10.068 -39.448  0.00  0.00    +0.000 C 
ATOM     27  N3  UNL     1      28.646 -10.649 -38.255  0.00  0.00    +0.000 N 
ATOM     28  H3  UNL     1      29.051 -11.608 -38.333  0.00  0.00    +0.000 HD
BRANCH  27  29
ATOM     29  C3  UNL     1      28.569 -10.052 -36.949  0.00  0.00    +0.000 A 
ATOM     30  C4  UNL     1      27.329  -9.976 -36.301  0.00  0.00    +0.000 A 
ATOM     31  C5  UNL     1      27.230  -9.422 -35.021  0.00  0.00    +0.000 A 
ATOM     32  C6  UNL     1      28.378  -8.964 -34.352  0.00  0.00    +0.000 A 
ATOM     33  C8  UNL     1      29.622  -9.040 -35.004  0.00  0.00    +0.000 A 
ATOM     34  C9  UNL     1      29.718  -9.594 -36.284  0.00  0.00    +0.000 A 
BRANCH  32  35
ATOM     35  C7  UNL     1      28.266  -8.321 -32.993  0.00  0.00    +0.000 C 
ATOM     36  F1  UNL     1      28.713  -7.015 -33.070  0.00  0.00    +0.000 F 
ATOM     37  F2  UNL     1      26.952  -8.322 -32.559  0.00  0.00    +0.000 F 
ATOM     38  F3  UNL     1      29.029  -9.006 -32.063  0.00  0.00    +0.000 F 
ENDBRANCH  32  35
ENDBRANCH  27  29
BRANCH  26  39
ATOM     39  S1  UNL     1      28.559 -10.772 -41.035  0.00  0.00    +0.000 S 
ATOM     40  H2  UNL     1      29.751 -10.025 -41.087  0.00  0.00    +0.000 HD
ENDBRANCH  26  39
ENDBRANCH   3  25
TORSDOF 6
ENDMDL
MODEL 4
REMARK VINA RESULT:    -7.072      6.030     10.654
REMARK INTER + INTRA:         -10.222
REMARK INTER:                  -9.338
REMARK INTRA:                  -0.884
REMARK UNBOUND:                -0.876
REMARK  Name = resultss/4CJN/ligands/lig_421_t1.pdb
REMARK  6 active torsions:
REMARK  status: ('A' for Active; 'I' for Inactive)
REMARK    1  A    between atoms: C1_2  and  C10_18
REMARK    2  A    between atoms: N1_3  and  N2_4
REMARK    3  A    between atoms: C2_5  and  S1_6
REMARK    4  A    between atoms: N3_7  and  C3_8
REMARK    5  A    between atoms: C6_11  and  C7_12
REMARK    6  A    between atoms: C20_29  and  C21_30
REMARK                            x       y       z     vdW  Elec       q    Type
REMARK                         _______ _______ _______ _____ _____    ______ ____
ROOT
ATOM      1  O1  UNL     1      26.513  -9.212 -38.929  0.00  0.00    +0.000 OA
ATOM      2  C1  UNL     1      27.730  -9.021 -39.198  0.00  0.00    +0.000 C 
ATOM      3  N1  UNL     1      28.682  -8.896 -38.131  0.00  0.00    +0.000 N 
ATOM      4  H1  UNL     1      29.598  -8.433 -38.322  0.00  0.00    +0.000 HD
ENDROOT
BRANCH   2   5
ATOM      5  C10 UNL     1      28.166  -8.914 -40.607  0.00  0.00    +0.000 A 
ATOM      6  C11 UNL     1      27.501  -8.053 -41.506  0.00  0.00    +0.000 A 
ATOM      7  C12 UNL     1      27.960  -8.025 -42.818  0.00  0.00    +0.000 A 
ATOM      8  C13 UNL     1      29.022  -8.797 -43.238  0.00  0.00    +0.000 A 
ATOM      9  N4  UNL     1      29.241  -8.650 -44.567  0.00  0.00    +0.000 N 
ATOM     10  C14 UNL     1      28.312  -7.758 -44.973  0.00  0.00    +0.000 A 
ATOM     11  C15 UNL     1      28.113  -7.282 -46.269  0.00  0.00    +0.000 A 
ATOM     12  C16 UNL     1      27.066  -6.364 -46.480  0.00  0.00    +0.000 A 
ATOM     13  C17 UNL     1      26.245  -5.952 -45.406  0.00  0.00    +0.000 A 
ATOM     14  C18 UNL     1      26.461  -6.451 -44.108  0.00  0.00    +0.000 A 
ATOM     15  C19 UNL     1      27.509  -7.352 -43.929  0.00  0.00    +0.000 A 
ATOM     16  C20 UNL     1      29.684  -9.636 -42.333  0.00  0.00    +0.000 A 
ATOM     17  N5  UNL     1      29.222  -9.672 -41.046  0.00  0.00    +0.000 NA
ATOM     18  H9  UNL     1      29.943  -9.138 -45.166  0.00  0.00    +0.000 HD
BRANCH  16  19
ATOM     19  C21 UNL     1      30.840 -10.476 -42.710  0.00  0.00    +0.000 A 
ATOM     20  C22 UNL     1      30.630 -11.690 -43.386  0.00  0.00    +0.000 A 
ATOM     21  C23 UNL     1      31.713 -12.506 -43.726  0.00  0.00    +0.000 A 
ATOM     22  C24 UNL     1      33.012 -12.125 -43.383  0.00  0.00    +0.000 A 
ATOM     23  C25 UNL     1      33.230 -10.930 -42.692  0.00  0.00    +0.000 A 
ATOM     24  C26 UNL     1      32.149 -10.110 -42.350  0.00  0.00    +0.000 A 
ENDBRANCH  16  19
ENDBRANCH   2   5
BRANCH   3  25
ATOM     25  N2  UNL     1      28.304  -9.073 -36.790  0.00  0.00    +0.000 NA
ATOM     26  C2  UNL     1      29.156  -9.263 -35.824  0.00  0.00    +0.000 C 
ATOM     27  N3  UNL     1      28.693  -9.487 -34.483  0.00  0.00    +0.000 N 
ATOM     28  H3  UNL     1      29.370  -9.908 -33.807  0.00  0.00    +0.000 HD
BRANCH  27  29
ATOM     29  C3  UNL     1      27.339  -9.285 -34.045  0.00  0.00    +0.000 A 
ATOM     30  C4  UNL     1      27.019  -8.137 -33.308  0.00  0.00    +0.000 A 
ATOM     31  C5  UNL     1      25.706  -7.905 -32.889  0.00  0.00    +0.000 A 
ATOM     32  C6  UNL     1      24.680  -8.802 -33.230  0.00  0.00    +0.000 A 
ATOM     33  C8  UNL     1      25.001  -9.955 -33.968  0.00  0.00    +0.000 A 
ATOM     34  C9  UNL     1      26.315 -10.185 -34.386  0.00  0.00    +0.000 A 
BRANCH  32  35
ATOM     35  C7  UNL     1      23.273  -8.578 -32.736  0.00  0.00    +0.000 C 
ATOM     36  F1  UNL     1      22.379  -9.037 -33.687  0.00  0.00    +0.000 F 
ATOM     37  F2  UNL     1      23.057  -9.258 -31.550  0.00  0.00    +0.000 F 
ATOM     38  F3  UNL     1      23.041  -7.232 -32.511  0.00  0.00    +0.000 F 
ENDBRANCH  32  35
ENDBRANCH  27  29
BRANCH  26  39
ATOM     39  S1  UNL     1      30.928  -9.246 -36.126  0.00  0.00    +0.000 S 
ATOM     40  H2  UNL     1      30.927 -10.581 -36.570  0.00  0.00    +0.000 HD
ENDBRANCH  26  39
ENDBRANCH   3  25
TORSDOF 6
ENDMDL
MODEL 5
REMARK VINA RESULT:    -6.697      6.479      9.631
REMARK INTER + INTRA:          -9.726
REMARK INTER:                  -9.214
REMARK INTRA:                  -0.512
REMARK UNBOUND:                -0.876
REMARK  Name = resultss/4CJN/ligands/lig_421_t1.pdb
REMARK  6 active torsions:
REMARK  status: ('A' for Active; 'I' for Inactive)
REMARK    1  A    between atoms: C1_2  and  C10_18
REMARK    2  A    between atoms: N1_3  and  N2_4
REMARK    3  A    between atoms: C2_5  and  S1_6
REMARK    4  A    between atoms: N3_7  and  C3_8
REMARK    5  A    between atoms: C6_11  and  C7_12
REMARK    6  A    between atoms: C20_29  and  C21_30
REMARK                            x       y       z     vdW  Elec       q    Type
REMARK                         _______ _______ _______ _____ _____    ______ ____
ROOT
ATOM      1  O1  UNL     1      24.609  -9.377 -40.285  0.00  0.00    +0.000 OA
ATOM      2  C1  UNL     1      25.423  -8.695 -40.966  0.00  0.00    +0.000 C 
ATOM      3  N1  UNL     1      26.745  -8.455 -40.460  0.00  0.00    +0.000 N 
ATOM      4  H1  UNL     1      27.297  -7.656 -40.845  0.00  0.00    +0.000 HD
ENDROOT
BRANCH   2   5
ATOM      5  C10 UNL     1      25.008  -8.137 -42.271  0.00  0.00    +0.000 A 
ATOM      6  C11 UNL     1      25.946  -7.957 -43.311  0.00  0.00    +0.000 A 
ATOM      7  C12 UNL     1      25.479  -7.408 -44.499  0.00  0.00    +0.000 A 
ATOM      8  C13 UNL     1      24.158  -7.052 -44.673  0.00  0.00    +0.000 A 
ATOM      9  N4  UNL     1      23.959  -6.480 -45.884  0.00  0.00    +0.000 N 
ATOM     10  C14 UNL     1      25.171  -6.498 -46.479  0.00  0.00    +0.000 A 
ATOM     11  C15 UNL     1      25.495  -6.007 -47.743  0.00  0.00    +0.000 A 
ATOM     12  C16 UNL     1      26.835  -6.108 -48.166  0.00  0.00    +0.000 A 
ATOM     13  C17 UNL     1      27.812  -6.684 -47.323  0.00  0.00    +0.000 A 
ATOM     14  C18 UNL     1      27.462  -7.167 -46.049  0.00  0.00    +0.000 A 
ATOM     15  C19 UNL     1      26.128  -7.060 -45.661  0.00  0.00    +0.000 A 
ATOM     16  C20 UNL     1      23.235  -7.250 -43.638  0.00  0.00    +0.000 A 
ATOM     17  N5  UNL     1      23.699  -7.778 -42.465  0.00  0.00    +0.000 NA
ATOM     18  H9  UNL     1      23.078  -6.075 -46.272  0.00  0.00    +0.000 HD
BRANCH  16  19
ATOM     19  C21 UNL     1      21.802  -6.909 -43.762  0.00  0.00    +0.000 A 
ATOM     20  C22 UNL     1      21.029  -6.710 -42.606  0.00  0.00    +0.000 A 
ATOM     21  C23 UNL     1      19.667  -6.412 -42.709  0.00  0.00    +0.000 A 
ATOM     22  C24 UNL     1      19.062  -6.324 -43.965  0.00  0.00    +0.000 A 
ATOM     23  C25 UNL     1      19.817  -6.541 -45.120  0.00  0.00    +0.000 A 
ATOM     24  C26 UNL     1      21.181  -6.839 -45.022  0.00  0.00    +0.000 A 
ENDBRANCH  16  19
ENDBRANCH   2   5
BRANCH   3  25
ATOM     25  N2  UNL     1      27.188  -9.041 -39.263  0.00  0.00    +0.000 NA
ATOM     26  C2  UNL     1      27.825 -10.175 -39.211  0.00  0.00    +0.000 C 
ATOM     27  N3  UNL     1      28.203 -10.737 -37.945  0.00  0.00    +0.000 N 
ATOM     28  H3  UNL     1      28.450 -11.752 -37.927  0.00  0.00    +0.000 HD
BRANCH  27  29
ATOM     29  C3  UNL     1      28.148 -10.033 -36.693  0.00  0.00    +0.000 A 
ATOM     30  C4  UNL     1      29.281  -9.341 -36.244  0.00  0.00    +0.000 A 
ATOM     31  C5  UNL     1      29.248  -8.630 -35.041  0.00  0.00    +0.000 A 
ATOM     32  C6  UNL     1      28.068  -8.569 -34.281  0.00  0.00    +0.000 A 
ATOM     33  C8  UNL     1      26.932  -9.265 -34.731  0.00  0.00    +0.000 A 
ATOM     34  C9  UNL     1      26.967  -9.976 -35.934  0.00  0.00    +0.000 A 
BRANCH  32  35
ATOM     35  C7  UNL     1      28.046  -7.844 -32.959  0.00  0.00    +0.000 C 
ATOM     36  F1  UNL     1      28.738  -6.653 -33.082  0.00  0.00    +0.000 F 
ATOM     37  F2  UNL     1      26.745  -7.571 -32.572  0.00  0.00    +0.000 F 
ATOM     38  F3  UNL     1      28.639  -8.611 -31.970  0.00  0.00    +0.000 F 
ENDBRANCH  32  35
ENDBRANCH  27  29
BRANCH  26  39
ATOM     39  S1  UNL     1      28.261 -11.069 -40.709  0.00  0.00    +0.000 S 
ATOM     40  H2  UNL     1      27.150 -10.562 -41.408  0.00  0.00    +0.000 HD
ENDBRANCH  26  39
ENDBRANCH   3  25
TORSDOF 6
ENDMDL
MODEL 6
REMARK VINA RESULT:    -6.563      7.101     10.627
REMARK INTER + INTRA:          -9.549
REMARK INTER:                  -9.316
REMARK INTRA:                  -0.233
REMARK UNBOUND:                -0.876
REMARK  Name = resultss/4CJN/ligands/lig_421_t1.pdb
REMARK  6 active torsions:
REMARK  status: ('A' for Active; 'I' for Inactive)
REMARK    1  A    between atoms: C1_2  and  C10_18
REMARK    2  A    between atoms: N1_3  and  N2_4
REMARK    3  A    between atoms: C2_5  and  S1_6
REMARK    4  A    between atoms: N3_7  and  C3_8
REMARK    5  A    between atoms: C6_11  and  C7_12
REMARK    6  A    between atoms: C20_29  and  C21_30
REMARK                            x       y       z     vdW  Elec       q    Type
REMARK                         _______ _______ _______ _____ _____    ______ ____
ROOT
ATOM      1  O1  UNL     1      24.236  -9.006 -40.940  0.00  0.00    +0.000 OA
ATOM      2  C1  UNL     1      24.724  -7.964 -41.457  0.00  0.00    +0.000 C 
ATOM      3  N1  UNL     1      25.558  -7.103 -40.666  0.00  0.00    +0.000 N 
ATOM      4  H1  UNL     1      25.696  -6.114 -40.971  0.00  0.00    +0.000 HD
ENDROOT
BRANCH   2   5
ATOM      5  C10 UNL     1      24.425  -7.629 -42.865  0.00  0.00    +0.000 A 
ATOM      6  C11 UNL     1      25.462  -7.516 -43.817  0.00  0.00    +0.000 A 
ATOM      7  C12 UNL     1      25.099  -7.178 -45.115  0.00  0.00    +0.000 A 
ATOM      8  C13 UNL     1      23.786  -6.964 -45.477  0.00  0.00    +0.000 A 
ATOM      9  N4  UNL     1      23.688  -6.585 -46.773  0.00  0.00    +0.000 N 
ATOM     10  C14 UNL     1      24.960  -6.581 -47.229  0.00  0.00    +0.000 A 
ATOM     11  C15 UNL     1      25.393  -6.244 -48.511  0.00  0.00    +0.000 A 
ATOM     12  C16 UNL     1      26.776  -6.287 -48.771  0.00  0.00    +0.000 A 
ATOM     13  C17 UNL     1      27.687  -6.655 -47.755  0.00  0.00    +0.000 A 
ATOM     14  C18 UNL     1      27.226  -6.985 -46.467  0.00  0.00    +0.000 A 
ATOM     15  C19 UNL     1      25.852  -6.940 -46.241  0.00  0.00    +0.000 A 
ATOM     16  C20 UNL     1      22.764  -7.096 -44.527  0.00  0.00    +0.000 A 
ATOM     17  N5  UNL     1      23.125  -7.414 -43.247  0.00  0.00    +0.000 NA
ATOM     18  H9  UNL     1      22.832  -6.315 -47.307  0.00  0.00    +0.000 HD
BRANCH  16  19
ATOM     19  C21 UNL     1      21.335  -6.899 -44.849  0.00  0.00    +0.000 A 
ATOM     20  C22 UNL     1      20.922  -6.851 -46.191  0.00  0.00    +0.000 A 
ATOM     21  C23 UNL     1      19.577  -6.641 -46.509  0.00  0.00    +0.000 A 
ATOM     22  C24 UNL     1      18.636  -6.462 -45.492  0.00  0.00    +0.000 A 
ATOM     23  C25 UNL     1      19.040  -6.487 -44.155  0.00  0.00    +0.000 A 
ATOM     24  C26 UNL     1      20.385  -6.698 -43.832  0.00  0.00    +0.000 A 
ENDBRANCH  16  19
ENDBRANCH   2   5
BRANCH   3  25
ATOM     25  N2  UNL     1      25.920  -7.441 -39.352  0.00  0.00    +0.000 NA
ATOM     26  C2  UNL     1      27.152  -7.479 -38.935  0.00  0.00    +0.000 C 
ATOM     27  N3  UNL     1      27.450  -7.882 -37.589  0.00  0.00    +0.000 N 
ATOM     28  H3  UNL     1      28.434  -8.168 -37.382  0.00  0.00    +0.000 HD
BRANCH  27  29
ATOM     29  C3  UNL     1      26.470  -8.032 -36.548  0.00  0.00    +0.000 A 
ATOM     30  C4  UNL     1      26.400  -9.239 -35.840  0.00  0.00    +0.000 A 
ATOM     31  C5  UNL     1      25.471  -9.403 -34.808  0.00  0.00    +0.000 A 
ATOM     32  C6  UNL     1      24.617  -8.348 -34.443  0.00  0.00    +0.000 A 
ATOM     33  C8  UNL     1      24.687  -7.138 -35.156  0.00  0.00    +0.000 A 
ATOM     34  C9  UNL     1      25.616  -6.976 -36.187  0.00  0.00    +0.000 A 
BRANCH  32  35
ATOM     35  C7  UNL     1      23.581  -8.541 -33.364  0.00  0.00    +0.000 C 
ATOM     36  F1  UNL     1      22.401  -8.973 -33.940  0.00  0.00    +0.000 F 
ATOM     37  F2  UNL     1      24.004  -9.483 -32.443  0.00  0.00    +0.000 F 
ATOM     38  F3  UNL     1      23.348  -7.354 -32.692  0.00  0.00    +0.000 F 
ENDBRANCH  32  35
ENDBRANCH  27  29
BRANCH  26  39
ATOM     39  S1  UNL     1      28.517  -7.024 -40.014  0.00  0.00    +0.000 S 
ATOM     40  H2  UNL     1      29.303  -6.580 -38.935  0.00  0.00    +0.000 HD
ENDBRANCH  26  39
ENDBRANCH   3  25
TORSDOF 6
ENDMDL
MODEL 7
REMARK VINA RESULT:    -6.561      6.349      9.526
REMARK INTER + INTRA:          -9.547
REMARK INTER:                  -9.088
REMARK INTRA:                  -0.460
REMARK UNBOUND:                -0.876
REMARK  Name = resultss/4CJN/ligands/lig_421_t1.pdb
REMARK  6 active torsions:
REMARK  status: ('A' for Active; 'I' for Inactive)
REMARK    1  A    between atoms: C1_2  and  C10_18
REMARK    2  A    between atoms: N1_3  and  N2_4
REMARK    3  A    between atoms: C2_5  and  S1_6
REMARK    4  A    between atoms: N3_7  and  C3_8
REMARK    5  A    between atoms: C6_11  and  C7_12
REMARK    6  A    between atoms: C20_29  and  C21_30
REMARK                            x       y       z     vdW  Elec       q    Type
REMARK                         _______ _______ _______ _____ _____    ______ ____
ROOT
ATOM      1  O1  UNL     1      25.832  -9.511 -38.611  0.00  0.00    +0.000 OA
ATOM      2  C1  UNL     1      25.477  -8.335 -38.897  0.00  0.00    +0.000 C 
ATOM      3  N1  UNL     1      25.374  -7.352 -37.855  0.00  0.00    +0.000 N 
ATOM      4  H1  UNL     1      24.794  -6.500 -38.020  0.00  0.00    +0.000 HD
ENDROOT
BRANCH   2   5
ATOM      5  C10 UNL     1      25.157  -7.980 -40.295  0.00  0.00    +0.000 A 
ATOM      6  C11 UNL     1      26.159  -7.987 -41.290  0.00  0.00    +0.000 A 
ATOM      7  C12 UNL     1      25.781  -7.621 -42.576  0.00  0.00    +0.000 A 
ATOM      8  C13 UNL     1      24.484  -7.268 -42.886  0.00  0.00    +0.000 A 
ATOM      9  N4  UNL     1      24.374  -6.889 -44.182  0.00  0.00    +0.000 N 
ATOM     10  C14 UNL     1      25.619  -7.028 -44.689  0.00  0.00    +0.000 A 
ATOM     11  C15 UNL     1      26.031  -6.750 -45.992  0.00  0.00    +0.000 A 
ATOM     12  C16 UNL     1      27.390  -6.946 -46.308  0.00  0.00    +0.000 A 
ATOM     13  C17 UNL     1      28.297  -7.404 -45.326  0.00  0.00    +0.000 A 
ATOM     14  C18 UNL     1      27.858  -7.672 -44.017  0.00  0.00    +0.000 A 
ATOM     15  C19 UNL     1      26.507  -7.475 -43.735  0.00  0.00    +0.000 A 
ATOM     16  C20 UNL     1      23.496  -7.280 -41.893  0.00  0.00    +0.000 A 
ATOM     17  N5  UNL     1      23.874  -7.627 -40.625  0.00  0.00    +0.000 NA
ATOM     18  H9  UNL     1      23.531  -6.531 -44.682  0.00  0.00    +0.000 HD
BRANCH  16  19
ATOM     19  C21 UNL     1      22.084  -6.930 -42.159  0.00  0.00    +0.000 A 
ATOM     20  C22 UNL     1      21.509  -7.246 -43.401  0.00  0.00    +0.000 A 
ATOM     21  C23 UNL     1      20.182  -6.898 -43.673  0.00  0.00    +0.000 A 
ATOM     22  C24 UNL     1      19.425  -6.221 -42.715  0.00  0.00    +0.000 A 
ATOM     23  C25 UNL     1      19.994  -5.883 -41.486  0.00  0.00    +0.000 A 
ATOM     24  C26 UNL     1      21.321  -6.229 -41.208  0.00  0.00    +0.000 A 
ENDBRANCH  16  19
ENDBRANCH   2   5
BRANCH   3  25
ATOM     25  N2  UNL     1      25.749  -7.644 -36.534  0.00  0.00    +0.000 NA
ATOM     26  C2  UNL     1      24.897  -7.777 -35.559  0.00  0.00    +0.000 C 
ATOM     27  N3  UNL     1      25.358  -8.027 -34.222  0.00  0.00    +0.000 N 
ATOM     28  H3  UNL     1      24.686  -7.849 -33.443  0.00  0.00    +0.000 HD
BRANCH  27  29
ATOM     29  C3  UNL     1      26.708  -8.388 -33.880  0.00  0.00    +0.000 A 
ATOM     30  C4  UNL     1      27.270  -9.546 -34.434  0.00  0.00    +0.000 A 
ATOM     31  C5  UNL     1      28.587  -9.907 -34.136  0.00  0.00    +0.000 A 
ATOM     32  C6  UNL     1      29.378  -9.096 -33.304  0.00  0.00    +0.000 A 
ATOM     33  C8  UNL     1      28.812  -7.935 -32.748  0.00  0.00    +0.000 A 
ATOM     34  C9  UNL     1      27.495  -7.576 -33.047  0.00  0.00    +0.000 A 
BRANCH  32  35
ATOM     35  C7  UNL     1      30.782  -9.510 -32.942  0.00  0.00    +0.000 C 
ATOM     36  F1  UNL     1      31.462  -8.418 -32.436  0.00  0.00    +0.000 F 
ATOM     37  F2  UNL     1      30.765 -10.513 -31.988  0.00  0.00    +0.000 F 
ATOM     38  F3  UNL     1      31.455  -9.985 -34.056  0.00  0.00    +0.000 F 
ENDBRANCH  32  35
ENDBRANCH  27  29
BRANCH  26  39
ATOM     39  S1  UNL     1      23.126  -7.663 -35.846  0.00  0.00    +0.000 S 
ATOM     40  H2  UNL     1      23.260  -8.027 -37.199  0.00  0.00    +0.000 HD
ENDBRANCH  26  39
ENDBRANCH   3  25
TORSDOF 6
ENDMDL
MODEL 8
REMARK VINA RESULT:    -6.483      5.033      6.989
REMARK INTER + INTRA:          -9.444
REMARK INTER:                  -8.722
REMARK INTRA:                  -0.721
REMARK UNBOUND:                -0.876
REMARK  Name = resultss/4CJN/ligands/lig_421_t1.pdb
REMARK  6 active torsions:
REMARK  status: ('A' for Active; 'I' for Inactive)
REMARK    1  A    between atoms: C1_2  and  C10_18
REMARK    2  A    between atoms: N1_3  and  N2_4
REMARK    3  A    between atoms: C2_5  and  S1_6
REMARK    4  A    between atoms: N3_7  and  C3_8
REMARK    5  A    between atoms: C6_11  and  C7_12
REMARK    6  A    between atoms: C20_29  and  C21_30
REMARK                            x       y       z     vdW  Elec       q    Type
REMARK                         _______ _______ _______ _____ _____    ______ ____
ROOT
ATOM      1  O1  UNL     1      27.045  -9.738 -39.181  0.00  0.00    +0.000 OA
ATOM      2  C1  UNL     1      27.943  -9.013 -38.671  0.00  0.00    +0.000 C 
ATOM      3  N1  UNL     1      28.817  -8.260 -39.526  0.00  0.00    +0.000 N 
ATOM      4  H1  UNL     1      29.731  -7.928 -39.147  0.00  0.00    +0.000 HD
ENDROOT
BRANCH   2   5
ATOM      5  C10 UNL     1      28.099  -8.955 -37.203  0.00  0.00    +0.000 A 
ATOM      6  C11 UNL     1      29.358  -9.168 -36.600  0.00  0.00    +0.000 A 
ATOM      7  C12 UNL     1      29.416  -9.115 -35.213  0.00  0.00    +0.000 A 
ATOM      8  C13 UNL     1      28.302  -8.863 -34.442  0.00  0.00    +0.000 A 
ATOM      9  N4  UNL     1      28.593  -8.927 -33.121  0.00  0.00    +0.000 N 
ATOM     10  C14 UNL     1      29.914  -9.206 -33.071  0.00  0.00    +0.000 A 
ATOM     11  C15 UNL     1      30.693  -9.386 -31.929  0.00  0.00    +0.000 A 
ATOM     12  C16 UNL     1      32.056  -9.693 -32.104  0.00  0.00    +0.000 A 
ATOM     13  C17 UNL     1      32.604  -9.817 -33.400  0.00  0.00    +0.000 A 
ATOM     14  C18 UNL     1      31.797  -9.636 -34.538  0.00  0.00    +0.000 A 
ATOM     15  C19 UNL     1      30.453  -9.328 -34.334  0.00  0.00    +0.000 A 
ATOM     16  C20 UNL     1      27.061  -8.638 -35.052  0.00  0.00    +0.000 A 
ATOM     17  N5  UNL     1      27.003  -8.703 -36.417  0.00  0.00    +0.000 NA
ATOM     18  H9  UNL     1      27.945  -8.825 -32.309  0.00  0.00    +0.000 HD
BRANCH  16  19
ATOM     19  C21 UNL     1      25.830  -8.344 -34.288  0.00  0.00    +0.000 A 
ATOM     20  C22 UNL     1      25.019  -9.400 -33.838  0.00  0.00    +0.000 A 
ATOM     21  C23 UNL     1      23.839  -9.134 -33.137  0.00  0.00    +0.000 A 
ATOM     22  C24 UNL     1      23.451  -7.815 -32.892  0.00  0.00    +0.000 A 
ATOM     23  C25 UNL     1      24.239  -6.758 -33.355  0.00  0.00    +0.000 A 
ATOM     24  C26 UNL     1      25.421  -7.018 -34.056  0.00  0.00    +0.000 A 
ENDBRANCH  16  19
ENDBRANCH   2   5
BRANCH   3  25
ATOM     25  N2  UNL     1      28.637  -8.238 -40.919  0.00  0.00    +0.000 NA
ATOM     26  C2  UNL     1      29.458  -8.800 -41.757  0.00  0.00    +0.000 C 
ATOM     27  N3  UNL     1      29.237  -8.693 -43.172  0.00  0.00    +0.000 N 
ATOM     28  H3  UNL     1      30.044  -8.904 -43.801  0.00  0.00    +0.000 HD
BRANCH  27  29
ATOM     29  C3  UNL     1      28.024  -8.204 -43.771  0.00  0.00    +0.000 A 
ATOM     30  C4  UNL     1      28.102  -7.337 -44.870  0.00  0.00    +0.000 A 
ATOM     31  C5  UNL     1      26.939  -6.865 -45.485  0.00  0.00    +0.000 A 
ATOM     32  C6  UNL     1      25.675  -7.280 -45.033  0.00  0.00    +0.000 A 
ATOM     33  C8  UNL     1      25.597  -8.148 -43.930  0.00  0.00    +0.000 A 
ATOM     34  C9  UNL     1      26.761  -8.619 -43.316  0.00  0.00    +0.000 A 
BRANCH  32  35
ATOM     35  C7  UNL     1      24.419  -6.732 -45.664  0.00  0.00    +0.000 C 
ATOM     36  F1  UNL     1      24.754  -6.031 -46.807  0.00  0.00    +0.000 F 
ATOM     37  F2  UNL     1      23.554  -7.758 -46.002  0.00  0.00    +0.000 F 
ATOM     38  F3  UNL     1      23.762  -5.883 -44.789  0.00  0.00    +0.000 F 
ENDBRANCH  32  35
ENDBRANCH  27  29
BRANCH  26  39
ATOM     39  S1  UNL     1      30.886  -9.730 -41.183  0.00  0.00    +0.000 S 
ATOM     40  H2  UNL     1      31.584  -8.559 -40.833  0.00  0.00    +0.000 HD
ENDBRANCH  26  39
ENDBRANCH   3  25
TORSDOF 6
ENDMDL
MODEL 9
REMARK VINA RESULT:    -6.038      6.578     10.857
REMARK INTER + INTRA:          -8.855
REMARK INTER:                  -8.566
REMARK INTRA:                  -0.289
REMARK UNBOUND:                -0.876
REMARK  Name = resultss/4CJN/ligands/lig_421_t1.pdb
REMARK  6 active torsions:
REMARK  status: ('A' for Active; 'I' for Inactive)
REMARK    1  A    between atoms: C1_2  and  C10_18
REMARK    2  A    between atoms: N1_3  and  N2_4
REMARK    3  A    between atoms: C2_5  and  S1_6
REMARK    4  A    between atoms: N3_7  and  C3_8
REMARK    5  A    between atoms: C6_11  and  C7_12
REMARK    6  A    between atoms: C20_29  and  C21_30
REMARK                            x       y       z     vdW  Elec       q    Type
REMARK                         _______ _______ _______ _____ _____    ______ ____
ROOT
ATOM      1  O1  UNL     1      23.330  -9.494 -42.435  0.00  0.00    +0.000 OA
ATOM      2  C1  UNL     1      24.001  -8.594 -41.860  0.00  0.00    +0.000 C 
ATOM      3  N1  UNL     1      23.611  -7.219 -42.000  0.00  0.00    +0.000 N 
ATOM      4  H1  UNL     1      24.315  -6.472 -41.807  0.00  0.00    +0.000 HD
ENDROOT
BRANCH   2   5
ATOM      5  C10 UNL     1      25.188  -8.957 -41.057  0.00  0.00    +0.000 A 
ATOM      6  C11 UNL     1      25.135  -8.956 -39.646  0.00  0.00    +0.000 A 
ATOM      7  C12 UNL     1      26.300  -9.290 -38.966  0.00  0.00    +0.000 A 
ATOM      8  C13 UNL     1      27.466  -9.616 -39.626  0.00  0.00    +0.000 A 
ATOM      9  N4  UNL     1      28.478  -9.839 -38.754  0.00  0.00    +0.000 N 
ATOM     10  C14 UNL     1      27.927  -9.666 -37.533  0.00  0.00    +0.000 A 
ATOM     11  C15 UNL     1      28.567  -9.773 -36.299  0.00  0.00    +0.000 A 
ATOM     12  C16 UNL     1      27.805  -9.531 -35.139  0.00  0.00    +0.000 A 
ATOM     13  C17 UNL     1      26.439  -9.186 -35.237  0.00  0.00    +0.000 A 
ATOM     14  C18 UNL     1      25.816  -9.079 -36.494  0.00  0.00    +0.000 A 
ATOM     15  C19 UNL     1      26.593  -9.330 -37.623  0.00  0.00    +0.000 A 
ATOM     16  C20 UNL     1      27.502  -9.629 -41.026  0.00  0.00    +0.000 A 
ATOM     17  N5  UNL     1      26.358  -9.286 -41.694  0.00  0.00    +0.000 NA
ATOM     18  H9  UNL     1      29.477 -10.058 -38.964  0.00  0.00    +0.000 HD
BRANCH  16  19
ATOM     19  C21 UNL     1      28.711  -9.986 -41.798  0.00  0.00    +0.000 A 
ATOM     20  C22 UNL     1      29.080  -9.215 -42.913  0.00  0.00    +0.000 A 
ATOM     21  C23 UNL     1      30.208  -9.558 -43.665  0.00  0.00    +0.000 A 
ATOM     22  C24 UNL     1      30.966 -10.679 -43.321  0.00  0.00    +0.000 A 
ATOM     23  C25 UNL     1      30.594 -11.465 -42.228  0.00  0.00    +0.000 A 
ATOM     24  C26 UNL     1      29.467 -11.126 -41.471  0.00  0.00    +0.000 A 
ENDBRANCH  16  19
ENDBRANCH   2   5
BRANCH   3  25
ATOM     25  N2  UNL     1      22.443  -6.857 -42.690  0.00  0.00    +0.000 NA
ATOM     26  C2  UNL     1      22.426  -6.534 -43.951  0.00  0.00    +0.000 C 
ATOM     27  N3  UNL     1      21.200  -6.125 -44.578  0.00  0.00    +0.000 N 
ATOM     28  H3  UNL     1      21.274  -5.614 -45.486  0.00  0.00    +0.000 HD
BRANCH  27  29
ATOM     29  C3  UNL     1      19.897  -6.264 -43.986  0.00  0.00    +0.000 A 
ATOM     30  C4  UNL     1      18.862  -6.844 -44.732  0.00  0.00    +0.000 A 
ATOM     31  C5  UNL     1      17.592  -7.012 -44.173  0.00  0.00    +0.000 A 
ATOM     32  C6  UNL     1      17.343  -6.633 -42.842  0.00  0.00    +0.000 A 
ATOM     33  C8  UNL     1      18.382  -6.050 -42.095  0.00  0.00    +0.000 A 
ATOM     34  C9  UNL     1      19.651  -5.883 -42.656  0.00  0.00    +0.000 A 
BRANCH  32  35
ATOM     35  C7  UNL     1      15.961  -6.768 -42.255  0.00  0.00    +0.000 C 
ATOM     36  F1  UNL     1      15.935  -6.164 -41.011  0.00  0.00    +0.000 F 
ATOM     37  F2  UNL     1      15.022  -6.161 -43.070  0.00  0.00    +0.000 F 
ATOM     38  F3  UNL     1      15.616  -8.102 -42.116  0.00  0.00    +0.000 F 
ENDBRANCH  32  35
ENDBRANCH  27  29
BRANCH  26  39
ATOM     39  S1  UNL     1      23.919  -6.593 -44.950  0.00  0.00    +0.000 S 
ATOM     40  H2  UNL     1      23.420  -7.641 -45.745  0.00  0.00    +0.000 HD
ENDBRANCH  26  39
ENDBRANCH   3  25
TORSDOF 6
ENDMDL
