MODEL 1
REMARK VINA RESULT:    -5.537      0.000      0.000
REMARK INTER + INTRA:          -6.709
REMARK INTER:                  -6.185
REMARK INTRA:                  -0.525
REMARK UNBOUND:                -0.525
REMARK  Name = resultss/4CJN/ligands/lig_396_t1.pdb
REMARK  2 active torsions:
REMARK  status: ('A' for Active; 'I' for Inactive)
REMARK    1  A    between atoms: N2_5  and  C3_6
REMARK    2  A    between atoms: C7_13  and  C8_14
REMARK                            x       y       z     vdW  Elec       q    Type
REMARK                         _______ _______ _______ _____ _____    ______ ____
ROOT
ATOM      1  O1  UNL     1      32.756  -9.275 -40.143  0.00  0.00    +0.000 OA
ATOM      2  C1  UNL     1      31.779  -9.754 -40.778  0.00  0.00    +0.000 C 
ATOM      3  N1  UNL     1      30.453  -9.673 -40.289  0.00  0.00    +0.000 N 
ATOM      4  C2  UNL     1      29.549 -10.297 -41.199  0.00  0.00    +0.000 C 
ATOM      5  N2  UNL     1      28.263 -10.355 -41.014  0.00  0.00    +0.000 NA
ATOM      6  S2  UNL     1      30.286 -10.917 -42.716  0.00  0.00    +0.000 S 
ATOM      7  C6  UNL     1      31.897 -10.427 -42.070  0.00  0.00    +0.000 C 
ATOM      8  C7  UNL     1      33.075 -10.745 -42.627  0.00  0.00    +0.000 C 
ATOM      9  H1  UNL     1      30.191  -9.101 -39.458  0.00  0.00    +0.000 HD
ENDROOT
BRANCH   8  10
ATOM     10  C8  UNL     1      33.220 -11.451 -43.916  0.00  0.00    +0.000 A 
ATOM     11  C9  UNL     1      33.159 -12.853 -43.939  0.00  0.00    +0.000 A 
ATOM     12  C10 UNL     1      33.327 -13.548 -45.140  0.00  0.00    +0.000 A 
ATOM     13  C11 UNL     1      33.576 -12.850 -46.325  0.00  0.00    +0.000 A 
ATOM     14  F1  UNL     1      33.741 -13.526 -47.489  0.00  0.00    +0.000 F 
ATOM     15  C12 UNL     1      33.668 -11.456 -46.307  0.00  0.00    +0.000 A 
ATOM     16  C13 UNL     1      33.500 -10.757 -45.108  0.00  0.00    +0.000 A 
ENDBRANCH   8  10
BRANCH   5  17
ATOM     17  C3  UNL     1      27.544  -9.978 -39.833  0.00  0.00    +0.000 A 
ATOM     18  N3  UNL     1      28.006 -10.248 -38.594  0.00  0.00    +0.000 NA
ATOM     19  C4  UNL     1      27.238  -9.671 -37.631  0.00  0.00    +0.000 A 
ATOM     20  C5  UNL     1      26.176  -8.907 -38.099  0.00  0.00    +0.000 A 
ATOM     21  S1  UNL     1      26.205  -8.954 -39.780  0.00  0.00    +0.000 S 
ENDBRANCH   5  17
TORSDOF 2
ENDMDL
MODEL 2
REMARK VINA RESULT:    -5.292      1.309      1.359
REMARK INTER + INTRA:          -6.436
REMARK INTER:                  -5.888
REMARK INTRA:                  -0.548
REMARK UNBOUND:                -0.525
REMARK  Name = resultss/4CJN/ligands/lig_396_t1.pdb
REMARK  2 active torsions:
REMARK  status: ('A' for Active; 'I' for Inactive)
REMARK    1  A    between atoms: N2_5  and  C3_6
REMARK    2  A    between atoms: C7_13  and  C8_14
REMARK                            x       y       z     vdW  Elec       q    Type
REMARK                         _______ _______ _______ _____ _____    ______ ____
ROOT
ATOM      1  O1  UNL     1      31.819  -9.577 -39.680  0.00  0.00    +0.000 OA
ATOM      2  C1  UNL     1      30.948  -9.693 -40.583  0.00  0.00    +0.000 C 
ATOM      3  N1  UNL     1      29.609  -9.275 -40.393  0.00  0.00    +0.000 N 
ATOM      4  C2  UNL     1      28.839  -9.524 -41.567  0.00  0.00    +0.000 C 
ATOM      5  N2  UNL     1      27.579  -9.222 -41.684  0.00  0.00    +0.000 NA
ATOM      6  S2  UNL     1      29.754 -10.193 -42.963  0.00  0.00    +0.000 S 
ATOM      7  C6  UNL     1      31.215 -10.251 -41.906  0.00  0.00    +0.000 C 
ATOM      8  C7  UNL     1      32.372 -10.847 -42.231  0.00  0.00    +0.000 C 
ATOM      9  H1  UNL     1      29.300  -8.728 -39.561  0.00  0.00    +0.000 HD
ENDROOT
BRANCH   8  10
ATOM     10  C8  UNL     1      32.655 -11.446 -43.552  0.00  0.00    +0.000 A 
ATOM     11  C9  UNL     1      32.401 -12.812 -43.753  0.00  0.00    +0.000 A 
ATOM     12  C10 UNL     1      32.692 -13.411 -44.982  0.00  0.00    +0.000 A 
ATOM     13  C11 UNL     1      33.255 -12.657 -46.014  0.00  0.00    +0.000 A 
ATOM     14  F1  UNL     1      33.538 -13.241 -47.204  0.00  0.00    +0.000 F 
ATOM     15  C12 UNL     1      33.539 -11.304 -45.814  0.00  0.00    +0.000 A 
ATOM     16  C13 UNL     1      33.250 -10.700 -44.587  0.00  0.00    +0.000 A 
ENDBRANCH   8  10
BRANCH   5  17
ATOM     17  C3  UNL     1      26.704  -8.761 -40.646  0.00  0.00    +0.000 A 
ATOM     18  N3  UNL     1      27.022  -7.718 -39.851  0.00  0.00    +0.000 NA
ATOM     19  C4  UNL     1      25.987  -7.365 -39.042  0.00  0.00    +0.000 A 
ATOM     20  C5  UNL     1      24.823  -8.106 -39.213  0.00  0.00    +0.000 A 
ATOM     21  S1  UNL     1      25.102  -9.237 -40.425  0.00  0.00    +0.000 S 
ENDBRANCH   5  17
TORSDOF 2
ENDMDL
MODEL 3
REMARK VINA RESULT:    -5.149      5.764     10.554
REMARK INTER + INTRA:          -6.276
REMARK INTER:                  -5.733
REMARK INTRA:                  -0.542
REMARK UNBOUND:                -0.525
REMARK  Name = resultss/4CJN/ligands/lig_396_t1.pdb
REMARK  2 active torsions:
REMARK  status: ('A' for Active; 'I' for Inactive)
REMARK    1  A    between atoms: N2_5  and  C3_6
REMARK    2  A    between atoms: C7_13  and  C8_14
REMARK                            x       y       z     vdW  Elec       q    Type
REMARK                         _______ _______ _______ _____ _____    ______ ____
ROOT
ATOM      1  O1  UNL     1      29.532 -10.020 -35.613  0.00  0.00    +0.000 OA
ATOM      2  C1  UNL     1      28.551  -9.692 -36.330  0.00  0.00    +0.000 C 
ATOM      3  N1  UNL     1      28.584  -9.795 -37.741  0.00  0.00    +0.000 N 
ATOM      4  C2  UNL     1      27.348  -9.354 -38.302  0.00  0.00    +0.000 C 
ATOM      5  N2  UNL     1      27.091  -9.358 -39.577  0.00  0.00    +0.000 NA
ATOM      6  S2  UNL     1      26.085  -8.888 -37.112  0.00  0.00    +0.000 S 
ATOM      7  C6  UNL     1      27.287  -9.184 -35.801  0.00  0.00    +0.000 C 
ATOM      8  C7  UNL     1      27.108  -8.863 -34.510  0.00  0.00    +0.000 C 
ATOM      9  H1  UNL     1      29.355 -10.272 -38.256  0.00  0.00    +0.000 HD
ENDROOT
BRANCH   8  10
ATOM     10  C8  UNL     1      25.851  -8.321 -33.957  0.00  0.00    +0.000 A 
ATOM     11  C9  UNL     1      25.735  -6.937 -33.750  0.00  0.00    +0.000 A 
ATOM     12  C10 UNL     1      24.569  -6.401 -33.195  0.00  0.00    +0.000 A 
ATOM     13  C11 UNL     1      23.517  -7.243 -32.825  0.00  0.00    +0.000 A 
ATOM     14  F1  UNL     1      22.389  -6.721 -32.285  0.00  0.00    +0.000 F 
ATOM     15  C12 UNL     1      23.635  -8.624 -32.999  0.00  0.00    +0.000 A 
ATOM     16  C13 UNL     1      24.799  -9.165 -33.554  0.00  0.00    +0.000 A 
ENDBRANCH   8  10
BRANCH   5  17
ATOM     17  C3  UNL     1      28.012  -9.626 -40.642  0.00  0.00    +0.000 A 
ATOM     18  N3  UNL     1      28.837 -10.694 -40.624  0.00  0.00    +0.000 NA
ATOM     19  C4  UNL     1      29.513 -10.830 -41.797  0.00  0.00    +0.000 A 
ATOM     20  C5  UNL     1      29.202  -9.888 -42.772  0.00  0.00    +0.000 A 
ATOM     21  S1  UNL     1      28.036  -8.854 -42.140  0.00  0.00    +0.000 S 
ENDBRANCH   5  17
TORSDOF 2
ENDMDL
MODEL 4
REMARK VINA RESULT:    -5.107      4.195      6.079
REMARK INTER + INTRA:          -6.229
REMARK INTER:                  -6.314
REMARK INTRA:                   0.085
REMARK UNBOUND:                -0.525
REMARK  Name = resultss/4CJN/ligands/lig_396_t1.pdb
REMARK  2 active torsions:
REMARK  status: ('A' for Active; 'I' for Inactive)
REMARK    1  A    between atoms: N2_5  and  C3_6
REMARK    2  A    between atoms: C7_13  and  C8_14
REMARK                            x       y       z     vdW  Elec       q    Type
REMARK                         _______ _______ _______ _____ _____    ______ ____
ROOT
ATOM      1  O1  UNL     1      23.808  -8.727 -40.778  0.00  0.00    +0.000 OA
ATOM      2  C1  UNL     1      24.718  -8.878 -39.921  0.00  0.00    +0.000 C 
ATOM      3  N1  UNL     1      24.486  -8.695 -38.537  0.00  0.00    +0.000 N 
ATOM      4  C2  UNL     1      25.683  -8.924 -37.796  0.00  0.00    +0.000 C 
ATOM      5  N2  UNL     1      25.757  -8.844 -36.500  0.00  0.00    +0.000 NA
ATOM      6  S2  UNL     1      27.099  -9.457 -38.765  0.00  0.00    +0.000 S 
ATOM      7  C6  UNL     1      26.090  -9.262 -40.247  0.00  0.00    +0.000 C 
ATOM      8  C7  UNL     1      26.554  -9.328 -41.505  0.00  0.00    +0.000 C 
ATOM      9  H1  UNL     1      23.532  -8.562 -38.136  0.00  0.00    +0.000 HD
ENDROOT
BRANCH   8  10
ATOM     10  C8  UNL     1      27.943  -9.685 -41.858  0.00  0.00    +0.000 A 
ATOM     11  C9  UNL     1      28.589  -8.982 -42.888  0.00  0.00    +0.000 A 
ATOM     12  C10 UNL     1      29.891  -9.321 -43.267  0.00  0.00    +0.000 A 
ATOM     13  C11 UNL     1      30.552 -10.377 -42.635  0.00  0.00    +0.000 A 
ATOM     14  F1  UNL     1      31.814 -10.706 -43.005  0.00  0.00    +0.000 F 
ATOM     15  C12 UNL     1      29.907 -11.103 -41.630  0.00  0.00    +0.000 A 
ATOM     16  C13 UNL     1      28.605 -10.766 -41.247  0.00  0.00    +0.000 A 
ENDBRANCH   8  10
BRANCH   5  17
ATOM     17  C3  UNL     1      24.746  -8.363 -35.606  0.00  0.00    +0.000 A 
ATOM     18  N3  UNL     1      23.573  -7.865 -36.051  0.00  0.00    +0.000 NA
ATOM     19  C4  UNL     1      22.713  -7.607 -35.029  0.00  0.00    +0.000 A 
ATOM     20  C5  UNL     1      23.185  -7.932 -33.762  0.00  0.00    +0.000 A 
ATOM     21  S1  UNL     1      24.731  -8.569 -33.933  0.00  0.00    +0.000 S 
ENDBRANCH   5  17
TORSDOF 2
ENDMDL
MODEL 5
REMARK VINA RESULT:    -4.986      8.143     10.009
REMARK INTER + INTRA:          -6.093
REMARK INTER:                  -5.959
REMARK INTRA:                  -0.135
REMARK UNBOUND:                -0.525
REMARK  Name = resultss/4CJN/ligands/lig_396_t1.pdb
REMARK  2 active torsions:
REMARK  status: ('A' for Active; 'I' for Inactive)
REMARK    1  A    between atoms: N2_5  and  C3_6
REMARK    2  A    between atoms: C7_13  and  C8_14
REMARK                            x       y       z     vdW  Elec       q    Type
REMARK                         _______ _______ _______ _____ _____    ______ ____
ROOT
ATOM      1  O1  UNL     1      23.196  -7.954 -35.645  0.00  0.00    +0.000 OA
ATOM      2  C1  UNL     1      24.239  -8.145 -36.326  0.00  0.00    +0.000 C 
ATOM      3  N1  UNL     1      24.214  -8.193 -37.740  0.00  0.00    +0.000 N 
ATOM      4  C2  UNL     1      25.525  -8.426 -38.253  0.00  0.00    +0.000 C 
ATOM      5  N2  UNL     1      25.802  -8.498 -39.522  0.00  0.00    +0.000 NA
ATOM      6  S2  UNL     1      26.833  -8.501 -37.023  0.00  0.00    +0.000 S 
ATOM      7  C6  UNL     1      25.569  -8.327 -35.748  0.00  0.00    +0.000 C 
ATOM      8  C7  UNL     1      25.783  -8.473 -34.431  0.00  0.00    +0.000 C 
ATOM      9  H1  UNL     1      23.372  -7.939 -38.300  0.00  0.00    +0.000 HD
ENDROOT
BRANCH   8  10
ATOM     10  C8  UNL     1      27.113  -8.687 -33.826  0.00  0.00    +0.000 A 
ATOM     11  C9  UNL     1      27.567  -7.795 -32.841  0.00  0.00    +0.000 A 
ATOM     12  C10 UNL     1      28.836  -7.954 -32.276  0.00  0.00    +0.000 A 
ATOM     13  C11 UNL     1      29.669  -8.991 -32.703  0.00  0.00    +0.000 A 
ATOM     14  F1  UNL     1      30.900  -9.141 -32.156  0.00  0.00    +0.000 F 
ATOM     15  C12 UNL     1      29.238  -9.865 -33.704  0.00  0.00    +0.000 A 
ATOM     16  C13 UNL     1      27.969  -9.711 -34.271  0.00  0.00    +0.000 A 
ENDBRANCH   8  10
BRANCH   5  17
ATOM     17  C3  UNL     1      24.868  -8.533 -40.608  0.00  0.00    +0.000 A 
ATOM     18  N3  UNL     1      23.925  -7.582 -40.775  0.00  0.00    +0.000 NA
ATOM     19  C4  UNL     1      23.251  -7.738 -41.946  0.00  0.00    +0.000 A 
ATOM     20  C5  UNL     1      23.678  -8.797 -42.738  0.00  0.00    +0.000 A 
ATOM     21  S1  UNL     1      24.948  -9.560 -41.943  0.00  0.00    +0.000 S 
ENDBRANCH   5  17
TORSDOF 2
ENDMDL
MODEL 6
REMARK VINA RESULT:    -4.903      6.800     10.758
REMARK INTER + INTRA:          -6.002
REMARK INTER:                  -5.532
REMARK INTRA:                  -0.470
REMARK UNBOUND:                -0.525
REMARK  Name = resultss/4CJN/ligands/lig_396_t1.pdb
REMARK  2 active torsions:
REMARK  status: ('A' for Active; 'I' for Inactive)
REMARK    1  A    between atoms: N2_5  and  C3_6
REMARK    2  A    between atoms: C7_13  and  C8_14
REMARK                            x       y       z     vdW  Elec       q    Type
REMARK                         _______ _______ _______ _____ _____    ______ ____
ROOT
ATOM      1  O1  UNL     1      27.919 -10.520 -37.002  0.00  0.00    +0.000 OA
ATOM      2  C1  UNL     1      27.075  -9.691 -37.434  0.00  0.00    +0.000 C 
ATOM      3  N1  UNL     1      26.976  -9.367 -38.809  0.00  0.00    +0.000 N 
ATOM      4  C2  UNL     1      25.946  -8.403 -39.020  0.00  0.00    +0.000 C 
ATOM      5  N2  UNL     1      25.621  -7.937 -40.190  0.00  0.00    +0.000 NA
ATOM      6  S2  UNL     1      25.012  -7.939 -37.556  0.00  0.00    +0.000 S 
ATOM      7  C6  UNL     1      26.112  -8.990 -36.588  0.00  0.00    +0.000 C 
ATOM      8  C7  UNL     1      26.145  -9.036 -35.247  0.00  0.00    +0.000 C 
ATOM      9  H1  UNL     1      27.492  -9.886 -39.551  0.00  0.00    +0.000 HD
ENDROOT
BRANCH   8  10
ATOM     10  C8  UNL     1      25.202  -8.313 -34.369  0.00  0.00    +0.000 A 
ATOM     11  C9  UNL     1      24.089  -8.995 -33.852  0.00  0.00    +0.000 A 
ATOM     12  C10 UNL     1      23.162  -8.326 -33.047  0.00  0.00    +0.000 A 
ATOM     13  C11 UNL     1      23.328  -6.967 -32.768  0.00  0.00    +0.000 A 
ATOM     14  F1  UNL     1      22.427  -6.320 -31.989  0.00  0.00    +0.000 F 
ATOM     15  C12 UNL     1      24.416  -6.273 -33.302  0.00  0.00    +0.000 A 
ATOM     16  C13 UNL     1      25.346  -6.938 -34.108  0.00  0.00    +0.000 A 
ENDBRANCH   8  10
BRANCH   5  17
ATOM     17  C3  UNL     1      26.314  -8.151 -41.426  0.00  0.00    +0.000 A 
ATOM     18  N3  UNL     1      26.769  -9.367 -41.793  0.00  0.00    +0.000 NA
ATOM     19  C4  UNL     1      27.261  -9.362 -43.061  0.00  0.00    +0.000 A 
ATOM     20  C5  UNL     1      27.168  -8.146 -43.727  0.00  0.00    +0.000 A 
ATOM     21  S1  UNL     1      26.440  -7.041 -42.689  0.00  0.00    +0.000 S 
ENDBRANCH   5  17
TORSDOF 2
ENDMDL
MODEL 7
REMARK VINA RESULT:    -4.891      4.851      6.086
REMARK INTER + INTRA:          -5.988
REMARK INTER:                  -5.472
REMARK INTRA:                  -0.516
REMARK UNBOUND:                -0.525
REMARK  Name = resultss/4CJN/ligands/lig_396_t1.pdb
REMARK  2 active torsions:
REMARK  status: ('A' for Active; 'I' for Inactive)
REMARK    1  A    between atoms: N2_5  and  C3_6
REMARK    2  A    between atoms: C7_13  and  C8_14
REMARK                            x       y       z     vdW  Elec       q    Type
REMARK                         _______ _______ _______ _____ _____    ______ ____
ROOT
ATOM      1  O1  UNL     1      25.394 -10.399 -40.759  0.00  0.00    +0.000 OA
ATOM      2  C1  UNL     1      25.917  -9.724 -41.684  0.00  0.00    +0.000 C 
ATOM      3  N1  UNL     1      25.140  -8.977 -42.601  0.00  0.00    +0.000 N 
ATOM      4  C2  UNL     1      25.981  -8.314 -43.543  0.00  0.00    +0.000 C 
ATOM      5  N2  UNL     1      25.538  -7.541 -44.491  0.00  0.00    +0.000 NA
ATOM      6  S2  UNL     1      27.747  -8.515 -43.275  0.00  0.00    +0.000 S 
ATOM      7  C6  UNL     1      27.358  -9.627 -41.909  0.00  0.00    +0.000 C 
ATOM      8  C7  UNL     1      28.255 -10.380 -41.254  0.00  0.00    +0.000 C 
ATOM      9  H1  UNL     1      24.114  -8.830 -42.485  0.00  0.00    +0.000 HD
ENDROOT
BRANCH   8  10
ATOM     10  C8  UNL     1      29.712 -10.322 -41.484  0.00  0.00    +0.000 A 
ATOM     11  C9  UNL     1      30.277 -11.112 -42.498  0.00  0.00    +0.000 A 
ATOM     12  C10 UNL     1      31.658 -11.102 -42.715  0.00  0.00    +0.000 A 
ATOM     13  C11 UNL     1      32.489 -10.319 -41.909  0.00  0.00    +0.000 A 
ATOM     14  F1  UNL     1      33.828 -10.313 -42.119  0.00  0.00    +0.000 F 
ATOM     15  C12 UNL     1      31.939  -9.552 -40.878  0.00  0.00    +0.000 A 
ATOM     16  C13 UNL     1      30.559  -9.559 -40.658  0.00  0.00    +0.000 A 
ENDBRANCH   8  10
BRANCH   5  17
ATOM     17  C3  UNL     1      24.171  -7.345 -44.874  0.00  0.00    +0.000 A 
ATOM     18  N3  UNL     1      23.199  -7.102 -43.970  0.00  0.00    +0.000 NA
ATOM     19  C4  UNL     1      22.015  -6.805 -44.568  0.00  0.00    +0.000 A 
ATOM     20  C5  UNL     1      22.045  -6.773 -45.957  0.00  0.00    +0.000 A 
ATOM     21  S1  UNL     1      23.613  -7.127 -46.450  0.00  0.00    +0.000 S 
ENDBRANCH   5  17
TORSDOF 2
ENDMDL
MODEL 8
REMARK VINA RESULT:    -4.789      7.236      9.499
REMARK INTER + INTRA:          -5.874
REMARK INTER:                  -5.340
REMARK INTRA:                  -0.534
REMARK UNBOUND:                -0.525
REMARK  Name = resultss/4CJN/ligands/lig_396_t1.pdb
REMARK  2 active torsions:
REMARK  status: ('A' for Active; 'I' for Inactive)
REMARK    1  A    between atoms: N2_5  and  C3_6
REMARK    2  A    between atoms: C7_13  and  C8_14
REMARK                            x       y       z     vdW  Elec       q    Type
REMARK                         _______ _______ _______ _____ _____    ______ ____
ROOT
ATOM      1  O1  UNL     1      25.840 -10.397 -34.422  0.00  0.00    +0.000 OA
ATOM      2  C1  UNL     1      26.689  -9.874 -35.191  0.00  0.00    +0.000 C 
ATOM      3  N1  UNL     1      26.435  -9.680 -36.570  0.00  0.00    +0.000 N 
ATOM      4  C2  UNL     1      27.561  -9.075 -37.204  0.00  0.00    +0.000 C 
ATOM      5  N2  UNL     1      27.599  -8.763 -38.466  0.00  0.00    +0.000 NA
ATOM      6  S2  UNL     1      28.922  -8.647 -36.112  0.00  0.00    +0.000 S 
ATOM      7  C6  UNL     1      28.004  -9.407 -34.758  0.00  0.00    +0.000 C 
ATOM      8  C7  UNL     1      28.499  -9.642 -33.533  0.00  0.00    +0.000 C 
ATOM      9  H1  UNL     1      25.496  -9.827 -36.998  0.00  0.00    +0.000 HD
ENDROOT
BRANCH   8  10
ATOM     10  C8  UNL     1      29.836  -9.207 -33.082  0.00  0.00    +0.000 A 
ATOM     11  C9  UNL     1      29.990  -7.921 -32.538  0.00  0.00    +0.000 A 
ATOM     12  C10 UNL     1      31.250  -7.471 -32.134  0.00  0.00    +0.000 A 
ATOM     13  C11 UNL     1      32.370  -8.291 -32.288  0.00  0.00    +0.000 A 
ATOM     14  F1  UNL     1      33.592  -7.851 -31.898  0.00  0.00    +0.000 F 
ATOM     15  C12 UNL     1      32.233  -9.560 -32.856  0.00  0.00    +0.000 A 
ATOM     16  C13 UNL     1      30.974 -10.015 -33.260  0.00  0.00    +0.000 A 
ENDBRANCH   8  10
BRANCH   5  17
ATOM     17  C3  UNL     1      26.633  -9.106 -39.468  0.00  0.00    +0.000 A 
ATOM     18  N3  UNL     1      25.344  -8.718 -39.385  0.00  0.00    +0.000 NA
ATOM     19  C4  UNL     1      24.648  -9.029 -40.512  0.00  0.00    +0.000 A 
ATOM     20  C5  UNL     1      25.391  -9.637 -41.517  0.00  0.00    +0.000 A 
ATOM     21  S1  UNL     1      26.975  -9.785 -40.974  0.00  0.00    +0.000 S 
ENDBRANCH   5  17
TORSDOF 2
ENDMDL
MODEL 9
REMARK VINA RESULT:    -4.775      5.355      6.592
REMARK INTER + INTRA:          -5.858
REMARK INTER:                  -5.432
REMARK INTRA:                  -0.426
REMARK UNBOUND:                -0.525
REMARK  Name = resultss/4CJN/ligands/lig_396_t1.pdb
REMARK  2 active torsions:
REMARK  status: ('A' for Active; 'I' for Inactive)
REMARK    1  A    between atoms: N2_5  and  C3_6
REMARK    2  A    between atoms: C7_13  and  C8_14
REMARK                            x       y       z     vdW  Elec       q    Type
REMARK                         _______ _______ _______ _____ _____    ______ ____
ROOT
ATOM      1  O1  UNL     1      28.054 -10.945 -37.717  0.00  0.00    +0.000 OA
ATOM      2  C1  UNL     1      27.237 -10.012 -37.935  0.00  0.00    +0.000 C 
ATOM      3  N1  UNL     1      26.374  -9.517 -36.928  0.00  0.00    +0.000 N 
ATOM      4  C2  UNL     1      25.554  -8.471 -37.444  0.00  0.00    +0.000 C 
ATOM      5  N2  UNL     1      24.680  -7.820 -36.733  0.00  0.00    +0.000 NA
ATOM      6  S2  UNL     1      25.881  -8.004 -39.148  0.00  0.00    +0.000 S 
ATOM      7  C6  UNL     1      27.092  -9.338 -39.224  0.00  0.00    +0.000 C 
ATOM      8  C7  UNL     1      27.700  -9.760 -40.344  0.00  0.00    +0.000 C 
ATOM      9  H1  UNL     1      26.458  -9.794 -35.926  0.00  0.00    +0.000 HD
ENDROOT
BRANCH   8  10
ATOM     10  C8  UNL     1      27.547  -9.115 -41.663  0.00  0.00    +0.000 A 
ATOM     11  C9  UNL     1      28.554  -8.253 -42.124  0.00  0.00    +0.000 A 
ATOM     12  C10 UNL     1      28.420  -7.602 -43.354  0.00  0.00    +0.000 A 
ATOM     13  C11 UNL     1      27.269  -7.790 -44.125  0.00  0.00    +0.000 A 
ATOM     14  F1  UNL     1      27.140  -7.156 -45.315  0.00  0.00    +0.000 F 
ATOM     15  C12 UNL     1      26.248  -8.622 -43.660  0.00  0.00    +0.000 A 
ATOM     16  C13 UNL     1      26.379  -9.276 -42.431  0.00  0.00    +0.000 A 
ENDBRANCH   8  10
BRANCH   5  17
ATOM     17  C3  UNL     1      24.257  -8.122 -35.398  0.00  0.00    +0.000 A 
ATOM     18  N3  UNL     1      25.118  -8.556 -34.453  0.00  0.00    +0.000 NA
ATOM     19  C4  UNL     1      24.528  -8.638 -33.230  0.00  0.00    +0.000 A 
ATOM     20  C5  UNL     1      23.199  -8.233 -33.187  0.00  0.00    +0.000 A 
ATOM     21  S1  UNL     1      22.752  -7.754 -34.735  0.00  0.00    +0.000 S 
ENDBRANCH   5  17
TORSDOF 2
ENDMDL
