MODEL 1
REMARK VINA RESULT:    -5.408      0.000      0.000
REMARK INTER + INTRA:          -5.930
REMARK INTER:                  -5.882
REMARK INTRA:                  -0.048
REMARK UNBOUND:                -0.048
REMARK  Name = resultss/4CJN/ligands/lig_289_t1.pdb
REMARK  3 active torsions:
REMARK  status: ('A' for Active; 'I' for Inactive)
REMARK    1  A    between atoms: C1_1  and  O1_2
REMARK    2  A    between atoms: O1_2  and  C2_3
REMARK    3  A    between atoms: C4_5  and  O2_6
REMARK                            x       y       z     vdW  Elec       q    Type
REMARK                         _______ _______ _______ _____ _____    ______ ____
ROOT
ATOM      1  C2  UNL     1      27.150  -9.764 -41.255  0.00  0.00    +0.000 A 
ATOM      2  C3  UNL     1      28.518  -9.991 -41.407  0.00  0.00    +0.000 A 
ATOM      3  C4  UNL     1      29.364 -10.128 -40.299  0.00  0.00    +0.000 A 
ATOM      4  C5  UNL     1      28.835  -9.963 -38.985  0.00  0.00    +0.000 A 
ATOM      5  C6  UNL     1      29.612  -9.959 -37.800  0.00  0.00    +0.000 A 
ATOM      6  O3  UNL     1      30.869 -10.029 -37.842  0.00  0.00    +0.000 OA
ATOM      7  C7  UNL     1      28.983  -9.838 -36.549  0.00  0.00    +0.000 A 
ATOM      8  C8  UNL     1      29.805  -9.849 -35.276  0.00  0.00    +0.000 C 
ATOM      9  C9  UNL     1      28.980  -9.759 -34.020  0.00  0.00    +0.000 C 
ATOM     10  O4  UNL     1      29.554  -9.816 -32.900  0.00  0.00    +0.000 OA
ATOM     11  C10 UNL     1      27.520  -9.592 -34.070  0.00  0.00    +0.000 C 
ATOM     12  C11 UNL     1      26.873  -9.551 -35.234  0.00  0.00    +0.000 C 
ATOM     13  C12 UNL     1      27.586  -9.679 -36.513  0.00  0.00    +0.000 A 
ATOM     14  O5  UNL     1      26.888  -9.634 -37.639  0.00  0.00    +0.000 OA
ATOM     15  C13 UNL     1      27.439  -9.754 -38.841  0.00  0.00    +0.000 A 
ATOM     16  C14 UNL     1      26.613  -9.662 -39.964  0.00  0.00    +0.000 A 
ENDROOT
BRANCH   1  18
ATOM     17  C1  UNL     1      24.993  -9.260 -42.417  0.00  0.00    +0.000 C 
ATOM     18  O1  UNL     1      26.361  -9.655 -42.410  0.00  0.00    +0.000 OA
ENDBRANCH   1  18
BRANCH   3  19
ATOM     19  O2  UNL     1      30.697 -10.450 -40.570  0.00  0.00    +0.000 OA
ATOM     20  H5  UNL     1      31.491 -10.080 -40.070  0.00  0.00    +0.000 HD
ENDBRANCH   3  19
TORSDOF 2
ENDMDL
MODEL 2
REMARK VINA RESULT:    -5.312      1.387      6.619
REMARK INTER + INTRA:          -5.826
REMARK INTER:                  -5.787
REMARK INTRA:                  -0.039
REMARK UNBOUND:                -0.048
REMARK  Name = resultss/4CJN/ligands/lig_289_t1.pdb
REMARK  3 active torsions:
REMARK  status: ('A' for Active; 'I' for Inactive)
REMARK    1  A    between atoms: C1_1  and  O1_2
REMARK    2  A    between atoms: O1_2  and  C2_3
REMARK    3  A    between atoms: C4_5  and  O2_6
REMARK                            x       y       z     vdW  Elec       q    Type
REMARK                         _______ _______ _______ _____ _____    ______ ____
ROOT
ATOM      1  C2  UNL     1      28.256  -9.873 -34.756  0.00  0.00    +0.000 A 
ATOM      2  C3  UNL     1      26.926  -9.487 -34.593  0.00  0.00    +0.000 A 
ATOM      3  C4  UNL     1      26.086  -9.273 -35.693  0.00  0.00    +0.000 A 
ATOM      4  C5  UNL     1      26.614  -9.382 -37.014  0.00  0.00    +0.000 A 
ATOM      5  C6  UNL     1      25.896  -9.071 -38.195  0.00  0.00    +0.000 A 
ATOM      6  O3  UNL     1      24.731  -8.594 -38.146  0.00  0.00    +0.000 OA
ATOM      7  C7  UNL     1      26.496  -9.261 -39.451  0.00  0.00    +0.000 A 
ATOM      8  C8  UNL     1      25.730  -8.946 -40.720  0.00  0.00    +0.000 C 
ATOM      9  C9  UNL     1      26.494  -9.248 -41.982  0.00  0.00    +0.000 C 
ATOM     10  O4  UNL     1      25.934  -9.079 -43.097  0.00  0.00    +0.000 OA
ATOM     11  C10 UNL     1      27.885  -9.723 -41.942  0.00  0.00    +0.000 C 
ATOM     12  C11 UNL     1      28.505  -9.937 -40.783  0.00  0.00    +0.000 C 
ATOM     13  C12 UNL     1      27.826  -9.717 -39.497  0.00  0.00    +0.000 A 
ATOM     14  O5  UNL     1      28.494  -9.950 -38.375  0.00  0.00    +0.000 OA
ATOM     15  C13 UNL     1      27.963  -9.795 -37.168  0.00  0.00    +0.000 A 
ATOM     16  C14 UNL     1      28.766 -10.040 -36.052  0.00  0.00    +0.000 A 
ENDROOT
BRANCH   1  18
ATOM     17  C1  UNL     1      29.529  -9.050 -32.766  0.00  0.00    +0.000 C 
ATOM     18  O1  UNL     1      29.034 -10.086 -33.608  0.00  0.00    +0.000 OA
ENDBRANCH   1  18
BRANCH   3  19
ATOM     19  O2  UNL     1      24.748  -8.987 -35.408  0.00  0.00    +0.000 OA
ATOM     20  H5  UNL     1      24.188  -9.477 -34.726  0.00  0.00    +0.000 HD
ENDBRANCH   3  19
TORSDOF 2
ENDMDL
MODEL 3
REMARK VINA RESULT:    -5.235      4.114      7.070
REMARK INTER + INTRA:          -5.743
REMARK INTER:                  -5.701
REMARK INTRA:                  -0.042
REMARK UNBOUND:                -0.048
REMARK  Name = resultss/4CJN/ligands/lig_289_t1.pdb
REMARK  3 active torsions:
REMARK  status: ('A' for Active; 'I' for Inactive)
REMARK    1  A    between atoms: C1_1  and  O1_2
REMARK    2  A    between atoms: O1_2  and  C2_3
REMARK    3  A    between atoms: C4_5  and  O2_6
REMARK                            x       y       z     vdW  Elec       q    Type
REMARK                         _______ _______ _______ _____ _____    ______ ____
ROOT
ATOM      1  C2  UNL     1      30.086 -10.051 -42.164  0.00  0.00    +0.000 A 
ATOM      2  C3  UNL     1      29.518 -10.754 -41.102  0.00  0.00    +0.000 A 
ATOM      3  C4  UNL     1      28.137 -10.739 -40.871  0.00  0.00    +0.000 A 
ATOM      4  C5  UNL     1      27.294  -9.934 -41.694  0.00  0.00    +0.000 A 
ATOM      5  C6  UNL     1      25.906  -9.745 -41.481  0.00  0.00    +0.000 A 
ATOM      6  O3  UNL     1      25.324 -10.235 -40.476  0.00  0.00    +0.000 OA
ATOM      7  C7  UNL     1      25.157  -8.969 -42.382  0.00  0.00    +0.000 A 
ATOM      8  C8  UNL     1      23.669  -8.775 -42.171  0.00  0.00    +0.000 C 
ATOM      9  C9  UNL     1      23.005  -7.958 -43.248  0.00  0.00    +0.000 C 
ATOM     10  O4  UNL     1      21.759  -7.781 -43.206  0.00  0.00    +0.000 OA
ATOM     11  C10 UNL     1      23.780  -7.352 -44.341  0.00  0.00    +0.000 C 
ATOM     12  C11 UNL     1      25.096  -7.536 -44.434  0.00  0.00    +0.000 C 
ATOM     13  C12 UNL     1      25.826  -8.358 -43.457  0.00  0.00    +0.000 A 
ATOM     14  O5  UNL     1      27.136  -8.507 -43.604  0.00  0.00    +0.000 OA
ATOM     15  C13 UNL     1      27.880  -9.240 -42.784  0.00  0.00    +0.000 A 
ATOM     16  C14 UNL     1      29.256  -9.305 -43.013  0.00  0.00    +0.000 A 
ENDROOT
BRANCH   1  18
ATOM     17  C1  UNL     1      32.121 -10.972 -43.292  0.00  0.00    +0.000 C 
ATOM     18  O1  UNL     1      31.475 -10.126 -42.345  0.00  0.00    +0.000 OA
ENDBRANCH   1  18
BRANCH   3  19
ATOM     19  O2  UNL     1      27.669 -11.559 -39.839  0.00  0.00    +0.000 OA
ATOM     20  H5  UNL     1      27.755 -11.350 -38.856  0.00  0.00    +0.000 HD
ENDBRANCH   3  19
TORSDOF 2
ENDMDL
MODEL 4
REMARK VINA RESULT:    -5.183      2.773      3.685
REMARK INTER + INTRA:          -5.686
REMARK INTER:                  -5.642
REMARK INTRA:                  -0.044
REMARK UNBOUND:                -0.048
REMARK  Name = resultss/4CJN/ligands/lig_289_t1.pdb
REMARK  3 active torsions:
REMARK  status: ('A' for Active; 'I' for Inactive)
REMARK    1  A    between atoms: C1_1  and  O1_2
REMARK    2  A    between atoms: O1_2  and  C2_3
REMARK    3  A    between atoms: C4_5  and  O2_6
REMARK                            x       y       z     vdW  Elec       q    Type
REMARK                         _______ _______ _______ _____ _____    ______ ____
ROOT
ATOM      1  C2  UNL     1      26.991  -8.751 -40.370  0.00  0.00    +0.000 A 
ATOM      2  C3  UNL     1      27.898  -9.552 -39.679  0.00  0.00    +0.000 A 
ATOM      3  C4  UNL     1      27.707  -9.878 -38.330  0.00  0.00    +0.000 A 
ATOM      4  C5  UNL     1      26.600  -9.323 -37.622  0.00  0.00    +0.000 A 
ATOM      5  C6  UNL     1      26.373  -9.482 -36.232  0.00  0.00    +0.000 A 
ATOM      6  O3  UNL     1      27.203 -10.082 -35.498  0.00  0.00    +0.000 OA
ATOM      7  C7  UNL     1      25.222  -8.934 -35.642  0.00  0.00    +0.000 A 
ATOM      8  C8  UNL     1      24.963  -9.113 -34.159  0.00  0.00    +0.000 C 
ATOM      9  C9  UNL     1      23.666  -8.508 -33.692  0.00  0.00    +0.000 C 
ATOM     10  O4  UNL     1      23.320  -8.645 -32.489  0.00  0.00    +0.000 OA
ATOM     11  C10 UNL     1      22.799  -7.749 -34.606  0.00  0.00    +0.000 C 
ATOM     12  C11 UNL     1      23.117  -7.601 -35.891  0.00  0.00    +0.000 C 
ATOM     13  C12 UNL     1      24.339  -8.196 -36.452  0.00  0.00    +0.000 A 
ATOM     14  O5  UNL     1      24.602  -8.018 -37.739  0.00  0.00    +0.000 OA
ATOM     15  C13 UNL     1      25.671  -8.527 -38.340  0.00  0.00    +0.000 A 
ATOM     16  C14 UNL     1      25.867  -8.251 -39.695  0.00  0.00    +0.000 A 
ENDROOT
BRANCH   1  18
ATOM     17  C1  UNL     1      27.797  -9.415 -42.643  0.00  0.00    +0.000 C 
ATOM     18  O1  UNL     1      27.237  -8.481 -41.724  0.00  0.00    +0.000 OA
ENDBRANCH   1  18
BRANCH   3  19
ATOM     19  O2  UNL     1      28.627 -10.768 -37.768  0.00  0.00    +0.000 OA
ATOM     20  H5  UNL     1      29.331 -11.271 -38.287  0.00  0.00    +0.000 HD
ENDBRANCH   3  19
TORSDOF 2
ENDMDL
MODEL 5
REMARK VINA RESULT:    -5.159      2.397      3.973
REMARK INTER + INTRA:          -5.659
REMARK INTER:                  -5.619
REMARK INTRA:                  -0.040
REMARK UNBOUND:                -0.048
REMARK  Name = resultss/4CJN/ligands/lig_289_t1.pdb
REMARK  3 active torsions:
REMARK  status: ('A' for Active; 'I' for Inactive)
REMARK    1  A    between atoms: C1_1  and  O1_2
REMARK    2  A    between atoms: O1_2  and  C2_3
REMARK    3  A    between atoms: C4_5  and  O2_6
REMARK                            x       y       z     vdW  Elec       q    Type
REMARK                         _______ _______ _______ _____ _____    ______ ____
ROOT
ATOM      1  C2  UNL     1      28.001 -10.403 -40.191  0.00  0.00    +0.000 A 
ATOM      2  C3  UNL     1      27.181  -9.454 -40.800  0.00  0.00    +0.000 A 
ATOM      3  C4  UNL     1      26.283  -8.678 -40.056  0.00  0.00    +0.000 A 
ATOM      4  C5  UNL     1      26.149  -8.906 -38.655  0.00  0.00    +0.000 A 
ATOM      5  C6  UNL     1      25.192  -8.270 -37.825  0.00  0.00    +0.000 A 
ATOM      6  O3  UNL     1      24.324  -7.492 -38.303  0.00  0.00    +0.000 OA
ATOM      7  C7  UNL     1      25.178  -8.532 -36.444  0.00  0.00    +0.000 A 
ATOM      8  C8  UNL     1      24.168  -7.844 -35.546  0.00  0.00    +0.000 C 
ATOM      9  C9  UNL     1      24.314  -8.194 -34.089  0.00  0.00    +0.000 C 
ATOM     10  O4  UNL     1      23.565  -7.637 -33.244  0.00  0.00    +0.000 OA
ATOM     11  C10 UNL     1      25.304  -9.181 -33.632  0.00  0.00    +0.000 C 
ATOM     12  C11 UNL     1      26.131  -9.775 -34.491  0.00  0.00    +0.000 C 
ATOM     13  C12 UNL     1      26.097  -9.463 -35.928  0.00  0.00    +0.000 A 
ATOM     14  O5  UNL     1      26.947 -10.083 -36.735  0.00  0.00    +0.000 OA
ATOM     15  C13 UNL     1      27.003  -9.859 -38.042  0.00  0.00    +0.000 A 
ATOM     16  C14 UNL     1      27.917 -10.591 -38.804  0.00  0.00    +0.000 A 
ENDROOT
BRANCH   1  18
ATOM     17  C1  UNL     1      29.975 -10.561 -41.720  0.00  0.00    +0.000 C 
ATOM     18  O1  UNL     1      28.889 -11.132 -40.997  0.00  0.00    +0.000 OA
ENDBRANCH   1  18
BRANCH   3  19
ATOM     19  O2  UNL     1      25.585  -7.690 -40.758  0.00  0.00    +0.000 OA
ATOM     20  H5  UNL     1      24.880  -7.872 -41.456  0.00  0.00    +0.000 HD
ENDBRANCH   3  19
TORSDOF 2
ENDMDL
MODEL 6
REMARK VINA RESULT:    -5.083      2.579      6.400
REMARK INTER + INTRA:          -5.577
REMARK INTER:                  -5.533
REMARK INTRA:                  -0.044
REMARK UNBOUND:                -0.048
REMARK  Name = resultss/4CJN/ligands/lig_289_t1.pdb
REMARK  3 active torsions:
REMARK  status: ('A' for Active; 'I' for Inactive)
REMARK    1  A    between atoms: C1_1  and  O1_2
REMARK    2  A    between atoms: O1_2  and  C2_3
REMARK    3  A    between atoms: C4_5  and  O2_6
REMARK                            x       y       z     vdW  Elec       q    Type
REMARK                         _______ _______ _______ _____ _____    ______ ____
ROOT
ATOM      1  C2  UNL     1      24.385  -8.349 -34.086  0.00  0.00    +0.000 A 
ATOM      2  C3  UNL     1      25.548  -9.056 -33.781  0.00  0.00    +0.000 A 
ATOM      3  C4  UNL     1      26.437  -9.468 -34.781  0.00  0.00    +0.000 A 
ATOM      4  C5  UNL     1      26.120  -9.224 -36.150  0.00  0.00    +0.000 A 
ATOM      5  C6  UNL     1      26.879  -9.698 -37.248  0.00  0.00    +0.000 A 
ATOM      6  O3  UNL     1      27.874 -10.452 -37.080  0.00  0.00    +0.000 OA
ATOM      7  C7  UNL     1      26.503  -9.358 -38.559  0.00  0.00    +0.000 A 
ATOM      8  C8  UNL     1      27.319  -9.848 -39.740  0.00  0.00    +0.000 C 
ATOM      9  C9  UNL     1      26.814  -9.358 -41.071  0.00  0.00    +0.000 C 
ATOM     10  O4  UNL     1      27.448  -9.656 -42.117  0.00  0.00    +0.000 OA
ATOM     11  C10 UNL     1      25.590  -8.549 -41.178  0.00  0.00    +0.000 C 
ATOM     12  C11 UNL     1      24.905  -8.193 -40.093  0.00  0.00    +0.000 C 
ATOM     13  C12 UNL     1      25.345  -8.583 -38.745  0.00  0.00    +0.000 A 
ATOM     14  O5  UNL     1      24.623  -8.196 -37.703  0.00  0.00    +0.000 OA
ATOM     15  C13 UNL     1      24.946  -8.485 -36.448  0.00  0.00    +0.000 A 
ATOM     16  C14 UNL     1      24.097  -8.053 -35.426  0.00  0.00    +0.000 A 
ENDROOT
BRANCH   1  18
ATOM     17  C1  UNL     1      23.080  -6.624 -32.829  0.00  0.00    +0.000 C 
ATOM     18  O1  UNL     1      23.550  -7.953 -33.031  0.00  0.00    +0.000 OA
ENDBRANCH   1  18
BRANCH   3  19
ATOM     19  O2  UNL     1      27.617 -10.082 -34.350  0.00  0.00    +0.000 OA
ATOM     20  H5  UNL     1      28.206 -10.664 -34.927  0.00  0.00    +0.000 HD
ENDBRANCH   3  19
TORSDOF 2
ENDMDL
MODEL 7
REMARK VINA RESULT:    -4.995      1.640      5.789
REMARK INTER + INTRA:          -5.481
REMARK INTER:                  -5.433
REMARK INTRA:                  -0.048
REMARK UNBOUND:                -0.048
REMARK  Name = resultss/4CJN/ligands/lig_289_t1.pdb
REMARK  3 active torsions:
REMARK  status: ('A' for Active; 'I' for Inactive)
REMARK    1  A    between atoms: C1_1  and  O1_2
REMARK    2  A    between atoms: O1_2  and  C2_3
REMARK    3  A    between atoms: C4_5  and  O2_6
REMARK                            x       y       z     vdW  Elec       q    Type
REMARK                         _______ _______ _______ _____ _____    ______ ____
ROOT
ATOM      1  C2  UNL     1      26.215  -9.115 -34.356  0.00  0.00    +0.000 A 
ATOM      2  C3  UNL     1      27.558  -9.396 -34.106  0.00  0.00    +0.000 A 
ATOM      3  C4  UNL     1      28.465  -9.620 -35.149  0.00  0.00    +0.000 A 
ATOM      4  C5  UNL     1      27.999  -9.633 -36.497  0.00  0.00    +0.000 A 
ATOM      5  C6  UNL     1      28.796  -9.967 -37.620  0.00  0.00    +0.000 A 
ATOM      6  O3  UNL     1      29.986 -10.357 -37.486  0.00  0.00    +0.000 OA
ATOM      7  C7  UNL     1      28.248  -9.900 -38.913  0.00  0.00    +0.000 A 
ATOM      8  C8  UNL     1      29.098 -10.240 -40.122  0.00  0.00    +0.000 C 
ATOM      9  C9  UNL     1      28.380 -10.073 -41.434  0.00  0.00    +0.000 C 
ATOM     10  O4  UNL     1      29.006 -10.273 -42.509  0.00  0.00    +0.000 OA
ATOM     11  C10 UNL     1      26.960  -9.695 -41.491  0.00  0.00    +0.000 C 
ATOM     12  C11 UNL     1      26.269  -9.451 -40.379  0.00  0.00    +0.000 C 
ATOM     13  C12 UNL     1      26.895  -9.541 -39.051  0.00  0.00    +0.000 A 
ATOM     14  O5  UNL     1      26.157  -9.285 -37.980  0.00  0.00    +0.000 OA
ATOM     15  C13 UNL     1      26.635  -9.325 -36.742  0.00  0.00    +0.000 A 
ATOM     16  C14 UNL     1      25.762  -9.067 -35.683  0.00  0.00    +0.000 A 
ENDROOT
BRANCH   1  18
ATOM     17  C1  UNL     1      23.945  -8.907 -33.325  0.00  0.00    +0.000 C 
ATOM     18  O1  UNL     1      25.368  -8.884 -33.262  0.00  0.00    +0.000 OA
ENDBRANCH   1  18
BRANCH   3  19
ATOM     19  O2  UNL     1      29.803  -9.794 -34.784  0.00  0.00    +0.000 OA
ATOM     20  H5  UNL     1      30.125  -9.965 -33.843  0.00  0.00    +0.000 HD
ENDBRANCH   3  19
TORSDOF 2
ENDMDL
MODEL 8
REMARK VINA RESULT:    -4.964      1.482      3.045
REMARK INTER + INTRA:          -5.447
REMARK INTER:                  -5.403
REMARK INTRA:                  -0.044
REMARK UNBOUND:                -0.048
REMARK  Name = resultss/4CJN/ligands/lig_289_t1.pdb
REMARK  3 active torsions:
REMARK  status: ('A' for Active; 'I' for Inactive)
REMARK    1  A    between atoms: C1_1  and  O1_2
REMARK    2  A    between atoms: O1_2  and  C2_3
REMARK    3  A    between atoms: C4_5  and  O2_6
REMARK                            x       y       z     vdW  Elec       q    Type
REMARK                         _______ _______ _______ _____ _____    ______ ____
ROOT
ATOM      1  C2  UNL     1      26.734  -8.654 -40.720  0.00  0.00    +0.000 A 
ATOM      2  C3  UNL     1      25.536  -8.663 -40.006  0.00  0.00    +0.000 A 
ATOM      3  C4  UNL     1      25.516  -8.803 -38.613  0.00  0.00    +0.000 A 
ATOM      4  C5  UNL     1      26.738  -9.013 -37.909  0.00  0.00    +0.000 A 
ATOM      5  C6  UNL     1      26.830  -9.289 -36.522  0.00  0.00    +0.000 A 
ATOM      6  O3  UNL     1      25.799  -9.442 -35.815  0.00  0.00    +0.000 OA
ATOM      7  C7  UNL     1      28.091  -9.431 -35.917  0.00  0.00    +0.000 A 
ATOM      8  C8  UNL     1      28.199  -9.709 -34.431  0.00  0.00    +0.000 C 
ATOM      9  C9  UNL     1      29.617  -9.787 -33.930  0.00  0.00    +0.000 C 
ATOM     10  O4  UNL     1      29.827  -9.958 -32.700  0.00  0.00    +0.000 OA
ATOM     11  C10 UNL     1      30.762  -9.681 -34.846  0.00  0.00    +0.000 C 
ATOM     12  C11 UNL     1      30.583  -9.476 -36.150  0.00  0.00    +0.000 C 
ATOM     13  C12 UNL     1      29.237  -9.338 -36.727  0.00  0.00    +0.000 A 
ATOM     14  O5  UNL     1      29.122  -9.133 -38.031  0.00  0.00    +0.000 OA
ATOM     15  C13 UNL     1      27.952  -8.982 -38.642  0.00  0.00    +0.000 A 
ATOM     16  C14 UNL     1      27.944  -8.800 -40.027  0.00  0.00    +0.000 A 
ENDROOT
BRANCH   1  18
ATOM     17  C1  UNL     1      25.686  -9.073 -42.953  0.00  0.00    +0.000 C 
ATOM     18  O1  UNL     1      26.678  -8.491 -42.112  0.00  0.00    +0.000 OA
ENDBRANCH   1  18
BRANCH   3  19
ATOM     19  O2  UNL     1      24.266  -8.698 -37.994  0.00  0.00    +0.000 OA
ATOM     20  H5  UNL     1      23.827  -9.432 -37.459  0.00  0.00    +0.000 HD
ENDBRANCH   3  19
TORSDOF 2
ENDMDL
MODEL 9
REMARK VINA RESULT:    -4.790      1.785      6.445
REMARK INTER + INTRA:          -5.259
REMARK INTER:                  -5.211
REMARK INTRA:                  -0.048
REMARK UNBOUND:                -0.048
REMARK  Name = resultss/4CJN/ligands/lig_289_t1.pdb
REMARK  3 active torsions:
REMARK  status: ('A' for Active; 'I' for Inactive)
REMARK    1  A    between atoms: C1_1  and  O1_2
REMARK    2  A    between atoms: O1_2  and  C2_3
REMARK    3  A    between atoms: C4_5  and  O2_6
REMARK                            x       y       z     vdW  Elec       q    Type
REMARK                         _______ _______ _______ _____ _____    ______ ____
ROOT
ATOM      1  C2  UNL     1      27.237  -9.867 -36.947  0.00  0.00    +0.000 A 
ATOM      2  C3  UNL     1      28.322 -10.289 -37.715  0.00  0.00    +0.000 A 
ATOM      3  C4  UNL     1      28.351 -10.107 -39.103  0.00  0.00    +0.000 A 
ATOM      4  C5  UNL     1      27.219  -9.543 -39.763  0.00  0.00    +0.000 A 
ATOM      5  C6  UNL     1      27.084  -9.424 -41.169  0.00  0.00    +0.000 A 
ATOM      6  O3  UNL     1      27.954  -9.890 -41.952  0.00  0.00    +0.000 OA
ATOM      7  C7  UNL     1      25.946  -8.806 -41.714  0.00  0.00    +0.000 A 
ATOM      8  C8  UNL     1      25.801  -8.659 -43.216  0.00  0.00    +0.000 C 
ATOM      9  C9  UNL     1      24.550  -7.934 -43.637  0.00  0.00    +0.000 C 
ATOM     10  O4  UNL     1      24.354  -7.705 -44.859  0.00  0.00    +0.000 OA
ATOM     11  C10 UNL     1      23.546  -7.500 -42.654  0.00  0.00    +0.000 C 
ATOM     12  C11 UNL     1      23.728  -7.703 -41.350  0.00  0.00    +0.000 C 
ATOM     13  C12 UNL     1      24.940  -8.359 -40.838  0.00  0.00    +0.000 A 
ATOM     14  O5  UNL     1      25.067  -8.531 -39.529  0.00  0.00    +0.000 OA
ATOM     15  C13 UNL     1      26.129  -9.099 -38.970  0.00  0.00    +0.000 A 
ATOM     16  C14 UNL     1      26.146  -9.257 -37.583  0.00  0.00    +0.000 A 
ENDROOT
BRANCH   1  18
ATOM     17  C1  UNL     1      26.207  -9.798 -34.669  0.00  0.00    +0.000 C 
ATOM     18  O1  UNL     1      27.286 -10.066 -35.560  0.00  0.00    +0.000 OA
ENDBRANCH   1  18
BRANCH   3  19
ATOM     19  O2  UNL     1      29.530 -10.478 -39.756  0.00  0.00    +0.000 OA
ATOM     20  H5  UNL     1      30.258  -9.838 -40.036  0.00  0.00    +0.000 HD
ENDBRANCH   3  19
TORSDOF 2
ENDMDL
