MODEL 1
REMARK VINA RESULT:    -6.617      0.000      0.000
REMARK INTER + INTRA:          -9.102
REMARK INTER:                  -8.938
REMARK INTRA:                  -0.164
REMARK UNBOUND:                -0.164
REMARK  Name = resultss/4CJN/ligands/lig_375_t0.pdb
REMARK  9 active torsions:
REMARK  status: ('A' for Active; 'I' for Inactive)
REMARK    1  A    between atoms: C1_1  and  O1_2
REMARK    2  A    between atoms: O1_2  and  C2_3
REMARK    3  A    between atoms: C5_6  and  C6_7
REMARK    4  A    between atoms: C6_7  and  C7_8
REMARK    5  A    between atoms: C6_7  and  C16_21
REMARK    6  A    between atoms: C8_9  and  O2_10
REMARK    7  A    between atoms: C17_22  and  O5_23
REMARK    8  A    between atoms: C26_35  and  O8_36
REMARK    9  A    between atoms: O8_36  and  C27_37
REMARK                            x       y       z     vdW  Elec       q    Type
REMARK                         _______ _______ _______ _____ _____    ______ ____
ROOT
ATOM      1  C6  UNL     1      29.102 -10.171 -40.767  0.00  0.00    +0.000 C 
ENDROOT
BRANCH   1   2
ATOM      2  C7  UNL     1      27.949  -9.628 -41.622  0.00  0.00    +0.000 A 
ATOM      3  C8  UNL     1      28.165  -8.787 -42.740  0.00  0.00    +0.000 A 
ATOM      4  C9  UNL     1      27.054  -8.312 -43.477  0.00  0.00    +0.000 A 
ATOM      5  C10 UNL     1      27.170  -7.429 -44.573  0.00  0.00    +0.000 A 
ATOM      6  C11 UNL     1      26.029  -7.004 -45.265  0.00  0.00    +0.000 A 
ATOM      7 CL1  UNL     1      26.187  -5.904 -46.624  0.00  0.00    +0.000 Cl
ATOM      8  C12 UNL     1      24.765  -7.448 -44.876  0.00  0.00    +0.000 A 
ATOM      9  C13 UNL     1      24.633  -8.314 -43.791  0.00  0.00    +0.000 A 
ATOM     10  C14 UNL     1      25.764  -8.747 -43.091  0.00  0.00    +0.000 A 
ATOM     11  O3  UNL     1      25.609  -9.570 -42.064  0.00  0.00    +0.000 OA
ATOM     12  C15 UNL     1      26.622 -10.020 -41.337  0.00  0.00    +0.000 A 
ATOM     13  O4  UNL     1      26.375 -10.812 -40.388  0.00  0.00    +0.000 OA
BRANCH   3  14
ATOM     14  O2  UNL     1      29.479  -8.471 -43.100  0.00  0.00    +0.000 OA
ATOM     15  H7  UNL     1      30.245  -8.354 -42.453  0.00  0.00    +0.000 HD
ENDBRANCH   3  14
ENDBRANCH   1   2
BRANCH   1  16
ATOM     16  C16 UNL     1      29.389  -9.308 -39.528  0.00  0.00    +0.000 A 
ATOM     17  C17 UNL     1      29.080  -9.833 -38.253  0.00  0.00    +0.000 A 
ATOM     18  C18 UNL     1      29.335  -9.058 -37.096  0.00  0.00    +0.000 A 
ATOM     19  C19 UNL     1      29.079  -9.513 -35.784  0.00  0.00    +0.000 A 
ATOM     20  C20 UNL     1      29.355  -8.693 -34.683  0.00  0.00    +0.000 A 
ATOM     21 CL2  UNL     1      29.033  -9.270 -33.057  0.00  0.00    +0.000 Cl
ATOM     22  C21 UNL     1      29.888  -7.417 -34.873  0.00  0.00    +0.000 A 
ATOM     23  C22 UNL     1      30.148  -6.954 -36.163  0.00  0.00    +0.000 A 
ATOM     24  C23 UNL     1      29.877  -7.764 -37.271  0.00  0.00    +0.000 A 
ATOM     25  O6  UNL     1      30.131  -7.297 -38.484  0.00  0.00    +0.000 OA
ATOM     26  C24 UNL     1      29.911  -7.992 -39.592  0.00  0.00    +0.000 A 
ATOM     27  O7  UNL     1      30.165  -7.442 -40.696  0.00  0.00    +0.000 OA
BRANCH  17  28
ATOM     28  O5  UNL     1      28.520 -11.115 -38.182  0.00  0.00    +0.000 OA
ATOM     29  H11 UNL     1      28.952 -11.955 -38.538  0.00  0.00    +0.000 HD
ENDBRANCH  17  28
ENDBRANCH   1  16
BRANCH   1  33
ATOM     30  C2  UNL     1      32.563 -11.380 -43.112  0.00  0.00    +0.000 A 
ATOM     31  C3  UNL     1      31.285 -11.903 -43.377  0.00  0.00    +0.000 A 
ATOM     32  C4  UNL     1      30.185 -11.499 -42.620  0.00  0.00    +0.000 A 
ATOM     33  C5  UNL     1      30.330 -10.560 -41.586  0.00  0.00    +0.000 A 
ATOM     34  C25 UNL     1      31.614 -10.048 -41.314  0.00  0.00    +0.000 A 
ATOM     35  C26 UNL     1      32.729 -10.451 -42.075  0.00  0.00    +0.000 A 
BRANCH  30  37
ATOM     36  C1  UNL     1      33.887 -13.053 -44.419  0.00  0.00    +0.000 C 
ATOM     37  O1  UNL     1      33.693 -11.762 -43.853  0.00  0.00    +0.000 OA
ENDBRANCH  30  37
BRANCH  35  38
ATOM     38  O8  UNL     1      34.018  -9.952 -41.828  0.00  0.00    +0.000 OA
ATOM     39  C27 UNL     1      34.377  -9.163 -40.698  0.00  0.00    +0.000 C 
ENDBRANCH  35  38
ENDBRANCH   1  33
TORSDOF 7
ENDMDL
MODEL 2
REMARK VINA RESULT:    -6.146      2.585      6.111
REMARK INTER + INTRA:          -8.466
REMARK INTER:                  -8.600
REMARK INTRA:                   0.135
REMARK UNBOUND:                -0.164
REMARK  Name = resultss/4CJN/ligands/lig_375_t0.pdb
REMARK  9 active torsions:
REMARK  status: ('A' for Active; 'I' for Inactive)
REMARK    1  A    between atoms: C1_1  and  O1_2
REMARK    2  A    between atoms: O1_2  and  C2_3
REMARK    3  A    between atoms: C5_6  and  C6_7
REMARK    4  A    between atoms: C6_7  and  C7_8
REMARK    5  A    between atoms: C6_7  and  C16_21
REMARK    6  A    between atoms: C8_9  and  O2_10
REMARK    7  A    between atoms: C17_22  and  O5_23
REMARK    8  A    between atoms: C26_35  and  O8_36
REMARK    9  A    between atoms: O8_36  and  C27_37
REMARK                            x       y       z     vdW  Elec       q    Type
REMARK                         _______ _______ _______ _____ _____    ______ ____
ROOT
ATOM      1  C6  UNL     1      28.305  -8.056 -40.166  0.00  0.00    +0.000 C 
ENDROOT
BRANCH   1   2
ATOM      2  C7  UNL     1      29.595  -8.742 -40.638  0.00  0.00    +0.000 A 
ATOM      3  C8  UNL     1      29.589  -9.807 -41.571  0.00  0.00    +0.000 A 
ATOM      4  C9  UNL     1      30.816 -10.402 -41.953  0.00  0.00    +0.000 A 
ATOM      5  C10 UNL     1      30.903 -11.501 -42.837  0.00  0.00    +0.000 A 
ATOM      6  C11 UNL     1      32.150 -12.037 -43.180  0.00  0.00    +0.000 A 
ATOM      7 CL1  UNL     1      32.245 -13.404 -44.278  0.00  0.00    +0.000 Cl
ATOM      8  C12 UNL     1      33.320 -11.491 -42.650  0.00  0.00    +0.000 A 
ATOM      9  C13 UNL     1      33.250 -10.411 -41.770  0.00  0.00    +0.000 A 
ATOM     10  C14 UNL     1      32.011  -9.866 -41.419  0.00  0.00    +0.000 A 
ATOM     11  O3  UNL     1      31.974  -8.840 -40.581  0.00  0.00    +0.000 OA
ATOM     12  C15 UNL     1      30.846  -8.269 -40.184  0.00  0.00    +0.000 A 
ATOM     13  O4  UNL     1      30.914  -7.288 -39.395  0.00  0.00    +0.000 OA
BRANCH   3  14
ATOM     14  O2  UNL     1      28.367 -10.222 -42.111  0.00  0.00    +0.000 OA
ATOM     15  H7  UNL     1      28.214 -11.095 -42.593  0.00  0.00    +0.000 HD
ENDBRANCH   3  14
ENDBRANCH   1   2
BRANCH   1  16
ATOM     16  C16 UNL     1      27.829  -8.555 -38.792  0.00  0.00    +0.000 A 
ATOM     17  C17 UNL     1      27.567  -7.603 -37.781  0.00  0.00    +0.000 A 
ATOM     18  C18 UNL     1      27.126  -8.036 -36.509  0.00  0.00    +0.000 A 
ATOM     19  C19 UNL     1      26.820  -7.153 -35.450  0.00  0.00    +0.000 A 
ATOM     20  C20 UNL     1      26.389  -7.650 -34.214  0.00  0.00    +0.000 A 
ATOM     21 CL2  UNL     1      26.011  -6.541 -32.907  0.00  0.00    +0.000 Cl
ATOM     22  C21 UNL     1      26.257  -9.025 -34.017  0.00  0.00    +0.000 A 
ATOM     23  C22 UNL     1      26.554  -9.910 -35.053  0.00  0.00    +0.000 A 
ATOM     24  C23 UNL     1      26.985  -9.425 -36.293  0.00  0.00    +0.000 A 
ATOM     25  O6  UNL     1      27.263 -10.289 -37.258  0.00  0.00    +0.000 OA
ATOM     26  C24 UNL     1      27.673  -9.926 -38.465  0.00  0.00    +0.000 A 
ATOM     27  O7  UNL     1      27.934 -10.830 -39.300  0.00  0.00    +0.000 OA
BRANCH  17  28
ATOM     28  O5  UNL     1      27.762  -6.248 -38.081  0.00  0.00    +0.000 OA
ATOM     29  H11 UNL     1      28.097  -5.893 -38.965  0.00  0.00    +0.000 HD
ENDBRANCH  17  28
ENDBRANCH   1  16
BRANCH   1  33
ATOM     30  C2  UNL     1      25.193  -7.970 -43.206  0.00  0.00    +0.000 A 
ATOM     31  C3  UNL     1      24.972  -8.571 -41.954  0.00  0.00    +0.000 A 
ATOM     32  C4  UNL     1      25.978  -8.584 -40.989  0.00  0.00    +0.000 A 
ATOM     33  C5  UNL     1      27.226  -7.992 -41.243  0.00  0.00    +0.000 A 
ATOM     34  C25 UNL     1      27.449  -7.402 -42.503  0.00  0.00    +0.000 A 
ATOM     35  C26 UNL     1      26.437  -7.386 -43.483  0.00  0.00    +0.000 A 
BRANCH  30  37
ATOM     36  C1  UNL     1      22.959  -7.260 -44.080  0.00  0.00    +0.000 C 
ATOM     37  O1  UNL     1      24.204  -7.938 -44.202  0.00  0.00    +0.000 OA
ENDBRANCH  30  37
BRANCH  35  38
ATOM     38  O8  UNL     1      26.632  -6.801 -44.745  0.00  0.00    +0.000 OA
ATOM     39  C27 UNL     1      27.697  -7.127 -45.631  0.00  0.00    +0.000 C 
ENDBRANCH  35  38
ENDBRANCH   1  33
TORSDOF 7
ENDMDL
MODEL 3
REMARK VINA RESULT:    -5.580      1.260      1.971
REMARK INTER + INTRA:          -7.701
REMARK INTER:                  -8.483
REMARK INTRA:                   0.782
REMARK UNBOUND:                -0.164
REMARK  Name = resultss/4CJN/ligands/lig_375_t0.pdb
REMARK  9 active torsions:
REMARK  status: ('A' for Active; 'I' for Inactive)
REMARK    1  A    between atoms: C1_1  and  O1_2
REMARK    2  A    between atoms: O1_2  and  C2_3
REMARK    3  A    between atoms: C5_6  and  C6_7
REMARK    4  A    between atoms: C6_7  and  C7_8
REMARK    5  A    between atoms: C6_7  and  C16_21
REMARK    6  A    between atoms: C8_9  and  O2_10
REMARK    7  A    between atoms: C17_22  and  O5_23
REMARK    8  A    between atoms: C26_35  and  O8_36
REMARK    9  A    between atoms: O8_36  and  C27_37
REMARK                            x       y       z     vdW  Elec       q    Type
REMARK                         _______ _______ _______ _____ _____    ______ ____
ROOT
ATOM      1  C6  UNL     1      28.734  -9.909 -40.805  0.00  0.00    +0.000 C 
ENDROOT
BRANCH   1   2
ATOM      2  C7  UNL     1      27.738  -9.252 -41.770  0.00  0.00    +0.000 A 
ATOM      3  C8  UNL     1      26.355  -9.155 -41.483  0.00  0.00    +0.000 A 
ATOM      4  C9  UNL     1      25.490  -8.547 -42.426  0.00  0.00    +0.000 A 
ATOM      5  C10 UNL     1      24.092  -8.453 -42.248  0.00  0.00    +0.000 A 
ATOM      6  C11 UNL     1      23.295  -7.831 -43.217  0.00  0.00    +0.000 A 
ATOM      7 CL1  UNL     1      21.559  -7.723 -42.985  0.00  0.00    +0.000 Cl
ATOM      8  C12 UNL     1      23.876  -7.298 -44.369  0.00  0.00    +0.000 A 
ATOM      9  C13 UNL     1      25.254  -7.389 -44.562  0.00  0.00    +0.000 A 
ATOM     10  C14 UNL     1      26.062  -8.009 -43.602  0.00  0.00    +0.000 A 
ATOM     11  O3  UNL     1      27.368  -8.082 -43.812  0.00  0.00    +0.000 OA
ATOM     12  C15 UNL     1      28.207  -8.660 -42.965  0.00  0.00    +0.000 A 
ATOM     13  O4  UNL     1      29.436  -8.667 -43.246  0.00  0.00    +0.000 OA
BRANCH   3  14
ATOM     14  O2  UNL     1      25.886  -9.643 -40.259  0.00  0.00    +0.000 OA
ATOM     15  H7  UNL     1      26.470  -9.962 -39.501  0.00  0.00    +0.000 HD
ENDBRANCH   3  14
ENDBRANCH   1   2
BRANCH   1  16
ATOM     16  C16 UNL     1      28.980  -9.075 -39.537  0.00  0.00    +0.000 A 
ATOM     17  C17 UNL     1      28.858  -9.707 -38.279  0.00  0.00    +0.000 A 
ATOM     18  C18 UNL     1      29.081  -8.962 -37.097  0.00  0.00    +0.000 A 
ATOM     19  C19 UNL     1      29.004  -9.517 -35.801  0.00  0.00    +0.000 A 
ATOM     20  C20 UNL     1      29.235  -8.721 -34.673  0.00  0.00    +0.000 A 
ATOM     21 CL2  UNL     1      29.137  -9.425 -33.068  0.00  0.00    +0.000 Cl
ATOM     22  C21 UNL     1      29.546  -7.369 -34.819  0.00  0.00    +0.000 A 
ATOM     23  C22 UNL     1      29.628  -6.805 -36.092  0.00  0.00    +0.000 A 
ATOM     24  C23 UNL     1      29.399  -7.591 -37.227  0.00  0.00    +0.000 A 
ATOM     25  O6  UNL     1      29.480  -7.028 -38.424  0.00  0.00    +0.000 OA
ATOM     26  C24 UNL     1      29.284  -7.691 -39.555  0.00  0.00    +0.000 A 
ATOM     27  O7  UNL     1      29.361  -7.052 -40.637  0.00  0.00    +0.000 OA
BRANCH  17  28
ATOM     28  O5  UNL     1      28.513 -11.064 -38.250  0.00  0.00    +0.000 OA
ATOM     29  H11 UNL     1      27.616 -11.427 -37.961  0.00  0.00    +0.000 HD
ENDBRANCH  17  28
ENDBRANCH   1  16
BRANCH   1  33
ATOM     30  C2  UNL     1      32.281 -11.487 -42.771  0.00  0.00    +0.000 A 
ATOM     31  C3  UNL     1      31.010 -12.039 -43.009  0.00  0.00    +0.000 A 
ATOM     32  C4  UNL     1      29.883 -11.517 -42.375  0.00  0.00    +0.000 A 
ATOM     33  C5  UNL     1      29.992 -10.427 -41.496  0.00  0.00    +0.000 A 
ATOM     34  C25 UNL     1      31.269  -9.884 -41.250  0.00  0.00    +0.000 A 
ATOM     35  C26 UNL     1      32.412 -10.407 -41.886  0.00  0.00    +0.000 A 
BRANCH  30  37
ATOM     36  C1  UNL     1      33.447 -13.019 -44.369  0.00  0.00    +0.000 C 
ATOM     37  O1  UNL     1      33.438 -11.986 -43.390  0.00  0.00    +0.000 OA
ENDBRANCH  30  37
BRANCH  35  38
ATOM     38  O8  UNL     1      33.695  -9.881 -41.662  0.00  0.00    +0.000 OA
ATOM     39  C27 UNL     1      34.018  -8.947 -40.637  0.00  0.00    +0.000 C 
ENDBRANCH  35  38
ENDBRANCH   1  33
TORSDOF 7
ENDMDL
MODEL 4
REMARK VINA RESULT:    -5.210      3.386      7.612
REMARK INTER + INTRA:          -7.201
REMARK INTER:                  -8.245
REMARK INTRA:                   1.043
REMARK UNBOUND:                -0.164
REMARK  Name = resultss/4CJN/ligands/lig_375_t0.pdb
REMARK  9 active torsions:
REMARK  status: ('A' for Active; 'I' for Inactive)
REMARK    1  A    between atoms: C1_1  and  O1_2
REMARK    2  A    between atoms: O1_2  and  C2_3
REMARK    3  A    between atoms: C5_6  and  C6_7
REMARK    4  A    between atoms: C6_7  and  C7_8
REMARK    5  A    between atoms: C6_7  and  C16_21
REMARK    6  A    between atoms: C8_9  and  O2_10
REMARK    7  A    between atoms: C17_22  and  O5_23
REMARK    8  A    between atoms: C26_35  and  O8_36
REMARK    9  A    between atoms: O8_36  and  C27_37
REMARK                            x       y       z     vdW  Elec       q    Type
REMARK                         _______ _______ _______ _____ _____    ______ ____
ROOT
ATOM      1  C6  UNL     1      27.942  -8.094 -37.659  0.00  0.00    +0.000 C 
ENDROOT
BRANCH   1   2
ATOM      2  C7  UNL     1      26.967  -8.354 -36.503  0.00  0.00    +0.000 A 
ATOM      3  C8  UNL     1      26.108  -7.349 -35.996  0.00  0.00    +0.000 A 
ATOM      4  C9  UNL     1      25.242  -7.654 -34.918  0.00  0.00    +0.000 A 
ATOM      5  C10 UNL     1      24.389  -6.704 -34.314  0.00  0.00    +0.000 A 
ATOM      6  C11 UNL     1      23.551  -7.074 -33.256  0.00  0.00    +0.000 A 
ATOM      7 CL1  UNL     1      22.497  -5.883 -32.513  0.00  0.00    +0.000 Cl
ATOM      8  C12 UNL     1      23.552  -8.388 -32.786  0.00  0.00    +0.000 A 
ATOM      9  C13 UNL     1      24.393  -9.337 -33.367  0.00  0.00    +0.000 A 
ATOM     10  C14 UNL     1      25.236  -8.980 -34.424  0.00  0.00    +0.000 A 
ATOM     11  O3  UNL     1      26.025  -9.901 -34.957  0.00  0.00    +0.000 OA
ATOM     12  C15 UNL     1      26.864  -9.651 -35.952  0.00  0.00    +0.000 A 
ATOM     13  O4  UNL     1      27.565 -10.597 -36.401  0.00  0.00    +0.000 OA
BRANCH   3  14
ATOM     14  O2  UNL     1      26.122  -6.086 -36.596  0.00  0.00    +0.000 OA
ATOM     15  H7  UNL     1      25.302  -5.562 -36.863  0.00  0.00    +0.000 HD
ENDBRANCH   3  14
ENDBRANCH   1   2
BRANCH   1  16
ATOM     16  C16 UNL     1      27.353  -8.454 -39.033  0.00  0.00    +0.000 A 
ATOM     17  C17 UNL     1      26.843  -7.414 -39.842  0.00  0.00    +0.000 A 
ATOM     18  C18 UNL     1      26.297  -7.718 -41.111  0.00  0.00    +0.000 A 
ATOM     19  C19 UNL     1      25.787  -6.740 -41.993  0.00  0.00    +0.000 A 
ATOM     20  C20 UNL     1      25.258  -7.111 -43.235  0.00  0.00    +0.000 A 
ATOM     21 CL2  UNL     1      24.629  -5.885 -44.322  0.00  0.00    +0.000 Cl
ATOM     22  C21 UNL     1      25.232  -8.454 -43.614  0.00  0.00    +0.000 A 
ATOM     23  C22 UNL     1      25.733  -9.431 -42.755  0.00  0.00    +0.000 A 
ATOM     24  C23 UNL     1      26.263  -9.073 -41.512  0.00  0.00    +0.000 A 
ATOM     25  O6  UNL     1      26.729 -10.023 -40.715  0.00  0.00    +0.000 OA
ATOM     26  C24 UNL     1      27.254  -9.781 -39.522  0.00  0.00    +0.000 A 
ATOM     27  O7  UNL     1      27.644 -10.761 -38.835  0.00  0.00    +0.000 OA
BRANCH  17  28
ATOM     28  O5  UNL     1      26.895  -6.104 -39.347  0.00  0.00    +0.000 OA
ATOM     29  H11 UNL     1      27.419  -5.348 -39.764  0.00  0.00    +0.000 HD
ENDBRANCH  17  28
ENDBRANCH   1  16
BRANCH   1  33
ATOM     30  C2  UNL     1      31.954  -9.556 -36.818  0.00  0.00    +0.000 A 
ATOM     31  C3  UNL     1      31.052  -9.265 -35.779  0.00  0.00    +0.000 A 
ATOM     32  C4  UNL     1      29.768  -8.803 -36.067  0.00  0.00    +0.000 A 
ATOM     33  C5  UNL     1      29.348  -8.629 -37.396  0.00  0.00    +0.000 A 
ATOM     34  C25 UNL     1      30.258  -8.909 -38.434  0.00  0.00    +0.000 A 
ATOM     35  C26 UNL     1      31.557  -9.376 -38.151  0.00  0.00    +0.000 A 
BRANCH  30  37
ATOM     36  C1  UNL     1      34.269  -9.268 -35.914  0.00  0.00    +0.000 C 
ATOM     37  O1  UNL     1      33.255 -10.023 -36.567  0.00  0.00    +0.000 OA
ENDBRANCH  30  37
BRANCH  35  38
ATOM     38  O8  UNL     1      32.481  -9.667 -39.166  0.00  0.00    +0.000 OA
ATOM     39  C27 UNL     1      32.620  -8.922 -40.371  0.00  0.00    +0.000 C 
ENDBRANCH  35  38
ENDBRANCH   1  33
TORSDOF 7
ENDMDL
MODEL 5
REMARK VINA RESULT:    -5.169      1.510      6.786
REMARK INTER + INTRA:          -7.146
REMARK INTER:                  -7.303
REMARK INTRA:                   0.157
REMARK UNBOUND:                -0.164
REMARK  Name = resultss/4CJN/ligands/lig_375_t0.pdb
REMARK  9 active torsions:
REMARK  status: ('A' for Active; 'I' for Inactive)
REMARK    1  A    between atoms: C1_1  and  O1_2
REMARK    2  A    between atoms: O1_2  and  C2_3
REMARK    3  A    between atoms: C5_6  and  C6_7
REMARK    4  A    between atoms: C6_7  and  C7_8
REMARK    5  A    between atoms: C6_7  and  C16_21
REMARK    6  A    between atoms: C8_9  and  O2_10
REMARK    7  A    between atoms: C17_22  and  O5_23
REMARK    8  A    between atoms: C26_35  and  O8_36
REMARK    9  A    between atoms: O8_36  and  C27_37
REMARK                            x       y       z     vdW  Elec       q    Type
REMARK                         _______ _______ _______ _____ _____    ______ ____
ROOT
ATOM      1  C6  UNL     1      29.248  -8.505 -41.066  0.00  0.00    +0.000 C 
ENDROOT
BRANCH   1   2
ATOM      2  C7  UNL     1      29.496  -8.164 -39.590  0.00  0.00    +0.000 A 
ATOM      3  C8  UNL     1      29.682  -9.161 -38.602  0.00  0.00    +0.000 A 
ATOM      4  C9  UNL     1      29.894  -8.774 -37.256  0.00  0.00    +0.000 A 
ATOM      5  C10 UNL     1      30.038  -9.698 -36.197  0.00  0.00    +0.000 A 
ATOM      6  C11 UNL     1      30.254  -9.248 -34.889  0.00  0.00    +0.000 A 
ATOM      7 CL1  UNL     1      30.429 -10.406 -33.581  0.00  0.00    +0.000 Cl
ATOM      8  C12 UNL     1      30.326  -7.881 -34.619  0.00  0.00    +0.000 A 
ATOM      9  C13 UNL     1      30.180  -6.956 -35.652  0.00  0.00    +0.000 A 
ATOM     10  C14 UNL     1      29.963  -7.392 -36.964  0.00  0.00    +0.000 A 
ATOM     11  O3  UNL     1      29.827  -6.491 -37.926  0.00  0.00    +0.000 OA
ATOM     12  C15 UNL     1      29.607  -6.812 -39.193  0.00  0.00    +0.000 A 
ATOM     13  O4  UNL     1      29.505  -5.884 -40.039  0.00  0.00    +0.000 OA
BRANCH   3  14
ATOM     14  O2  UNL     1      29.679 -10.504 -38.992  0.00  0.00    +0.000 OA
ATOM     15  H7  UNL     1      28.910 -10.972 -39.448  0.00  0.00    +0.000 HD
ENDBRANCH   3  14
ENDBRANCH   1   2
BRANCH   1  16
ATOM     16  C16 UNL     1      27.767  -8.771 -41.379  0.00  0.00    +0.000 A 
ATOM     17  C17 UNL     1      27.016  -7.751 -42.005  0.00  0.00    +0.000 A 
ATOM     18  C18 UNL     1      25.651  -7.971 -42.306  0.00  0.00    +0.000 A 
ATOM     19  C19 UNL     1      24.833  -7.017 -42.951  0.00  0.00    +0.000 A 
ATOM     20  C20 UNL     1      23.488  -7.300 -43.217  0.00  0.00    +0.000 A 
ATOM     21 CL2  UNL     1      22.483  -6.106 -44.020  0.00  0.00    +0.000 Cl
ATOM     22  C21 UNL     1      22.943  -8.531 -42.849  0.00  0.00    +0.000 A 
ATOM     23  C22 UNL     1      23.738  -9.484 -42.214  0.00  0.00    +0.000 A 
ATOM     24  C23 UNL     1      25.083  -9.213 -41.942  0.00  0.00    +0.000 A 
ATOM     25  O6  UNL     1      25.814 -10.136 -41.334  0.00  0.00    +0.000 OA
ATOM     26  C24 UNL     1      27.096  -9.973 -41.039  0.00  0.00    +0.000 A 
ATOM     27  O7  UNL     1      27.689 -10.905 -40.438  0.00  0.00    +0.000 OA
BRANCH  17  28
ATOM     28  O5  UNL     1      27.659  -6.543 -42.304  0.00  0.00    +0.000 OA
ATOM     29  H11 UNL     1      27.310  -5.626 -42.065  0.00  0.00    +0.000 HD
ENDBRANCH  17  28
ENDBRANCH   1  16
BRANCH   1  33
ATOM     30  C2  UNL     1      31.954 -11.531 -42.634  0.00  0.00    +0.000 A 
ATOM     31  C3  UNL     1      30.583 -11.550 -42.943  0.00  0.00    +0.000 A 
ATOM     32  C4  UNL     1      29.731 -10.568 -42.437  0.00  0.00    +0.000 A 
ATOM     33  C5  UNL     1      30.225  -9.540 -41.618  0.00  0.00    +0.000 A 
ATOM     34  C25 UNL     1      31.597  -9.531 -41.300  0.00  0.00    +0.000 A 
ATOM     35  C26 UNL     1      32.464 -10.519 -41.807  0.00  0.00    +0.000 A 
BRANCH  30  37
ATOM     36  C1  UNL     1      32.753 -13.098 -44.414  0.00  0.00    +0.000 C 
ATOM     37  O1  UNL     1      32.843 -12.501 -43.125  0.00  0.00    +0.000 OA
ENDBRANCH  30  37
BRANCH  35  38
ATOM     38  O8  UNL     1      33.836 -10.530 -41.510  0.00  0.00    +0.000 OA
ATOM     39  C27 UNL     1      34.380 -10.409 -40.199  0.00  0.00    +0.000 C 
ENDBRANCH  35  38
ENDBRANCH   1  33
TORSDOF 7
ENDMDL
MODEL 6
REMARK VINA RESULT:    -5.082      4.033      6.998
REMARK INTER + INTRA:          -7.028
REMARK INTER:                  -7.710
REMARK INTRA:                   0.682
REMARK UNBOUND:                -0.164
REMARK  Name = resultss/4CJN/ligands/lig_375_t0.pdb
REMARK  9 active torsions:
REMARK  status: ('A' for Active; 'I' for Inactive)
REMARK    1  A    between atoms: C1_1  and  O1_2
REMARK    2  A    between atoms: O1_2  and  C2_3
REMARK    3  A    between atoms: C5_6  and  C6_7
REMARK    4  A    between atoms: C6_7  and  C7_8
REMARK    5  A    between atoms: C6_7  and  C16_21
REMARK    6  A    between atoms: C8_9  and  O2_10
REMARK    7  A    between atoms: C17_22  and  O5_23
REMARK    8  A    between atoms: C26_35  and  O8_36
REMARK    9  A    between atoms: O8_36  and  C27_37
REMARK                            x       y       z     vdW  Elec       q    Type
REMARK                         _______ _______ _______ _____ _____    ______ ____
ROOT
ATOM      1  C6  UNL     1      26.560  -8.831 -38.779  0.00  0.00    +0.000 C 
ENDROOT
BRANCH   1   2
ATOM      2  C7  UNL     1      25.610  -8.283 -37.705  0.00  0.00    +0.000 A 
ATOM      3  C8  UNL     1      25.465  -8.896 -36.437  0.00  0.00    +0.000 A 
ATOM      4  C9  UNL     1      24.560  -8.344 -35.498  0.00  0.00    +0.000 A 
ATOM      5  C10 UNL     1      24.312  -8.916 -34.231  0.00  0.00    +0.000 A 
ATOM      6  C11 UNL     1      23.410  -8.314 -33.346  0.00  0.00    +0.000 A 
ATOM      7 CL1  UNL     1      23.108  -9.037 -31.775  0.00  0.00    +0.000 Cl
ATOM      8  C12 UNL     1      22.746  -7.141 -33.709  0.00  0.00    +0.000 A 
ATOM      9  C13 UNL     1      22.975  -6.568 -34.959  0.00  0.00    +0.000 A 
ATOM     10  C14 UNL     1      23.873  -7.160 -35.853  0.00  0.00    +0.000 A 
ATOM     11  O3  UNL     1      24.071  -6.593 -37.035  0.00  0.00    +0.000 OA
ATOM     12  C15 UNL     1      24.893  -7.090 -37.948  0.00  0.00    +0.000 A 
ATOM     13  O4  UNL     1      25.026  -6.471 -39.038  0.00  0.00    +0.000 OA
BRANCH   3  14
ATOM     14  O2  UNL     1      26.243 -10.019 -36.140  0.00  0.00    +0.000 OA
ATOM     15  H7  UNL     1      27.074 -10.297 -36.641  0.00  0.00    +0.000 HD
ENDBRANCH   3  14
ENDBRANCH   1   2
BRANCH   1  16
ATOM     16  C16 UNL     1      28.024  -8.425 -38.548  0.00  0.00    +0.000 A 
ATOM     17  C17 UNL     1      28.981  -9.442 -38.331  0.00  0.00    +0.000 A 
ATOM     18  C18 UNL     1      30.336  -9.095 -38.118  0.00  0.00    +0.000 A 
ATOM     19  C19 UNL     1      31.360 -10.046 -37.916  0.00  0.00    +0.000 A 
ATOM     20  C20 UNL     1      32.682  -9.633 -37.709  0.00  0.00    +0.000 A 
ATOM     21 CL2  UNL     1      33.945 -10.826 -37.461  0.00  0.00    +0.000 Cl
ATOM     22  C21 UNL     1      33.000  -8.274 -37.701  0.00  0.00    +0.000 A 
ATOM     23  C22 UNL     1      32.000  -7.322 -37.900  0.00  0.00    +0.000 A 
ATOM     24  C23 UNL     1      30.676  -7.723 -38.108  0.00  0.00    +0.000 A 
ATOM     25  O6  UNL     1      29.747  -6.797 -38.292  0.00  0.00    +0.000 OA
ATOM     26  C24 UNL     1      28.468  -7.079 -38.500  0.00  0.00    +0.000 A 
ATOM     27  O7  UNL     1      27.664  -6.121 -38.637  0.00  0.00    +0.000 OA
BRANCH  17  28
ATOM     28  O5  UNL     1      28.544 -10.773 -38.332  0.00  0.00    +0.000 OA
ATOM     29  H11 UNL     1      29.099 -11.565 -38.623  0.00  0.00    +0.000 HD
ENDBRANCH  17  28
ENDBRANCH   1  16
BRANCH   1  33
ATOM     30  C2  UNL     1      25.046  -8.344 -42.830  0.00  0.00    +0.000 A 
ATOM     31  C3  UNL     1      24.301  -9.025 -41.850  0.00  0.00    +0.000 A 
ATOM     32  C4  UNL     1      24.799  -9.166 -40.555  0.00  0.00    +0.000 A 
ATOM     33  C5  UNL     1      26.046  -8.626 -40.202  0.00  0.00    +0.000 A 
ATOM     34  C25 UNL     1      26.796  -7.956 -41.189  0.00  0.00    +0.000 A 
ATOM     35  C26 UNL     1      26.300  -7.810 -42.499  0.00  0.00    +0.000 A 
BRANCH  30  37
ATOM     36  C1  UNL     1      23.581  -7.245 -44.535  0.00  0.00    +0.000 C 
ATOM     37  O1  UNL     1      24.578  -8.183 -44.144  0.00  0.00    +0.000 OA
ENDBRANCH  30  37
BRANCH  35  38
ATOM     38  O8  UNL     1      27.025  -7.143 -43.499  0.00  0.00    +0.000 OA
ATOM     39  C27 UNL     1      28.188  -7.662 -44.137  0.00  0.00    +0.000 C 
ENDBRANCH  35  38
ENDBRANCH   1  33
TORSDOF 7
ENDMDL
MODEL 7
REMARK VINA RESULT:    -5.014      2.072      2.772
REMARK INTER + INTRA:          -6.936
REMARK INTER:                  -7.778
REMARK INTRA:                   0.842
REMARK UNBOUND:                -0.164
REMARK  Name = resultss/4CJN/ligands/lig_375_t0.pdb
REMARK  9 active torsions:
REMARK  status: ('A' for Active; 'I' for Inactive)
REMARK    1  A    between atoms: C1_1  and  O1_2
REMARK    2  A    between atoms: O1_2  and  C2_3
REMARK    3  A    between atoms: C5_6  and  C6_7
REMARK    4  A    between atoms: C6_7  and  C7_8
REMARK    5  A    between atoms: C6_7  and  C16_21
REMARK    6  A    between atoms: C8_9  and  O2_10
REMARK    7  A    between atoms: C17_22  and  O5_23
REMARK    8  A    between atoms: C26_35  and  O8_36
REMARK    9  A    between atoms: O8_36  and  C27_37
REMARK                            x       y       z     vdW  Elec       q    Type
REMARK                         _______ _______ _______ _____ _____    ______ ____
ROOT
ATOM      1  C6  UNL     1      27.808  -9.205 -41.542  0.00  0.00    +0.000 C 
ENDROOT
BRANCH   1   2
ATOM      2  C7  UNL     1      27.207  -8.418 -42.715  0.00  0.00    +0.000 A 
ATOM      3  C8  UNL     1      25.840  -8.511 -43.069  0.00  0.00    +0.000 A 
ATOM      4  C9  UNL     1      25.356  -7.765 -44.171  0.00  0.00    +0.000 A 
ATOM      5  C10 UNL     1      24.021  -7.835 -44.629  0.00  0.00    +0.000 A 
ATOM      6  C11 UNL     1      23.605  -7.064 -45.721  0.00  0.00    +0.000 A 
ATOM      7 CL1  UNL     1      21.944  -7.161 -46.281  0.00  0.00    +0.000 Cl
ATOM      8  C12 UNL     1      24.507  -6.220 -46.370  0.00  0.00    +0.000 A 
ATOM      9  C13 UNL     1      25.830  -6.145 -45.934  0.00  0.00    +0.000 A 
ATOM     10  C14 UNL     1      26.259  -6.910 -44.845  0.00  0.00    +0.000 A 
ATOM     11  O3  UNL     1      27.522  -6.820 -44.453  0.00  0.00    +0.000 OA
ATOM     12  C15 UNL     1      28.018  -7.515 -43.440  0.00  0.00    +0.000 A 
ATOM     13  O4  UNL     1      29.229  -7.351 -43.133  0.00  0.00    +0.000 OA
BRANCH   3  14
ATOM     14  O2  UNL     1      24.999  -9.320 -42.299  0.00  0.00    +0.000 OA
ATOM     15  H7  UNL     1      24.880  -9.247 -41.299  0.00  0.00    +0.000 HD
ENDBRANCH   3  14
ENDBRANCH   1   2
BRANCH   1  16
ATOM     16  C16 UNL     1      27.526  -8.556 -40.177  0.00  0.00    +0.000 A 
ATOM     17  C17 UNL     1      27.132  -9.385 -39.103  0.00  0.00    +0.000 A 
ATOM     18  C18 UNL     1      26.868  -8.813 -37.836  0.00  0.00    +0.000 A 
ATOM     19  C19 UNL     1      26.491  -9.569 -36.704  0.00  0.00    +0.000 A 
ATOM     20  C20 UNL     1      26.244  -8.937 -35.480  0.00  0.00    +0.000 A 
ATOM     21 CL2  UNL     1      25.778  -9.888 -34.081  0.00  0.00    +0.000 Cl
ATOM     22  C21 UNL     1      26.368  -7.552 -35.366  0.00  0.00    +0.000 A 
ATOM     23  C22 UNL     1      26.741  -6.791 -36.474  0.00  0.00    +0.000 A 
ATOM     24  C23 UNL     1      26.991  -7.411 -37.704  0.00  0.00    +0.000 A 
ATOM     25  O6  UNL     1      27.340  -6.663 -38.740  0.00  0.00    +0.000 OA
ATOM     26  C24 UNL     1      27.601  -7.160 -39.941  0.00  0.00    +0.000 A 
ATOM     27  O7  UNL     1      27.899  -6.357 -40.863  0.00  0.00    +0.000 OA
BRANCH  17  28
ATOM     28  O5  UNL     1      27.010 -10.761 -39.339  0.00  0.00    +0.000 OA
ATOM     29  H11 UNL     1      27.026 -11.196 -40.250  0.00  0.00    +0.000 HD
ENDBRANCH  17  28
ENDBRANCH   1  16
BRANCH   1  33
ATOM     30  C2  UNL     1      31.903 -10.496 -42.245  0.00  0.00    +0.000 A 
ATOM     31  C3  UNL     1      30.861 -10.875 -43.110  0.00  0.00    +0.000 A 
ATOM     32  C4  UNL     1      29.555 -10.447 -42.873  0.00  0.00    +0.000 A 
ATOM     33  C5  UNL     1      29.257  -9.625 -41.775  0.00  0.00    +0.000 A 
ATOM     34  C25 UNL     1      30.301  -9.257 -40.902  0.00  0.00    +0.000 A 
ATOM     35  C26 UNL     1      31.622  -9.687 -41.136  0.00  0.00    +0.000 A 
BRANCH  30  37
ATOM     36  C1  UNL     1      33.622 -12.241 -42.760  0.00  0.00    +0.000 C 
ATOM     37  O1  UNL     1      33.230 -10.908 -42.452  0.00  0.00    +0.000 OA
ENDBRANCH  30  37
BRANCH  35  38
ATOM     38  O8  UNL     1      32.681  -9.331 -40.285  0.00  0.00    +0.000 OA
ATOM     39  C27 UNL     1      32.596  -9.285 -38.864  0.00  0.00    +0.000 C 
ENDBRANCH  35  38
ENDBRANCH   1  33
TORSDOF 7
ENDMDL
MODEL 8
REMARK VINA RESULT:    -4.938      1.947      7.087
REMARK INTER + INTRA:          -6.833
REMARK INTER:                  -8.327
REMARK INTRA:                   1.494
REMARK UNBOUND:                -0.164
REMARK  Name = resultss/4CJN/ligands/lig_375_t0.pdb
REMARK  9 active torsions:
REMARK  status: ('A' for Active; 'I' for Inactive)
REMARK    1  A    between atoms: C1_1  and  O1_2
REMARK    2  A    between atoms: O1_2  and  C2_3
REMARK    3  A    between atoms: C5_6  and  C6_7
REMARK    4  A    between atoms: C6_7  and  C7_8
REMARK    5  A    between atoms: C6_7  and  C16_21
REMARK    6  A    between atoms: C8_9  and  O2_10
REMARK    7  A    between atoms: C17_22  and  O5_23
REMARK    8  A    between atoms: C26_35  and  O8_36
REMARK    9  A    between atoms: O8_36  and  C27_37
REMARK                            x       y       z     vdW  Elec       q    Type
REMARK                         _______ _______ _______ _____ _____    ______ ____
ROOT
ATOM      1  C6  UNL     1      27.889  -8.324 -40.204  0.00  0.00    +0.000 C 
ENDROOT
BRANCH   1   2
ATOM      2  C7  UNL     1      27.730  -8.686 -38.721  0.00  0.00    +0.000 A 
ATOM      3  C8  UNL     1      27.483  -7.710 -37.725  0.00  0.00    +0.000 A 
ATOM      4  C9  UNL     1      27.359  -8.113 -36.373  0.00  0.00    +0.000 A 
ATOM      5  C10 UNL     1      27.165  -7.206 -35.308  0.00  0.00    +0.000 A 
ATOM      6  C11 UNL     1      27.041  -7.673 -33.993  0.00  0.00    +0.000 A 
ATOM      7 CL1  UNL     1      26.803  -6.535 -32.678  0.00  0.00    +0.000 Cl
ATOM      8  C12 UNL     1      27.112  -9.040 -33.723  0.00  0.00    +0.000 A 
ATOM      9  C13 UNL     1      27.310  -9.948 -34.764  0.00  0.00    +0.000 A 
ATOM     10  C14 UNL     1      27.435  -9.495 -36.081  0.00  0.00    +0.000 A 
ATOM     11  O3  UNL     1      27.624 -10.379 -37.050  0.00  0.00    +0.000 OA
ATOM     12  C15 UNL     1      27.765 -10.041 -38.323  0.00  0.00    +0.000 A 
ATOM     13  O4  UNL     1      27.926 -10.957 -39.174  0.00  0.00    +0.000 OA
BRANCH   3  14
ATOM     14  O2  UNL     1      27.343  -6.373 -38.113  0.00  0.00    +0.000 OA
ATOM     15  H7  UNL     1      27.335  -5.585 -37.483  0.00  0.00    +0.000 HD
ENDBRANCH   3  14
ENDBRANCH   1   2
BRANCH   1  16
ATOM     16  C16 UNL     1      26.549  -8.257 -40.953  0.00  0.00    +0.000 A 
ATOM     17  C17 UNL     1      26.487  -7.531 -42.163  0.00  0.00    +0.000 A 
ATOM     18  C18 UNL     1      25.265  -7.455 -42.873  0.00  0.00    +0.000 A 
ATOM     19  C19 UNL     1      25.119  -6.771 -44.100  0.00  0.00    +0.000 A 
ATOM     20  C20 UNL     1      23.879  -6.735 -44.748  0.00  0.00    +0.000 A 
ATOM     21 CL2  UNL     1      23.711  -5.883 -46.273  0.00  0.00    +0.000 Cl
ATOM     22  C21 UNL     1      22.774  -7.377 -44.188  0.00  0.00    +0.000 A 
ATOM     23  C22 UNL     1      22.902  -8.058 -42.977  0.00  0.00    +0.000 A 
ATOM     24  C23 UNL     1      24.136  -8.101 -42.319  0.00  0.00    +0.000 A 
ATOM     25  O6  UNL     1      24.227  -8.753 -41.170  0.00  0.00    +0.000 OA
ATOM     26  C24 UNL     1      25.353  -8.852 -40.477  0.00  0.00    +0.000 A 
ATOM     27  O7  UNL     1      25.323  -9.473 -39.383  0.00  0.00    +0.000 OA
BRANCH  17  28
ATOM     28  O5  UNL     1      27.653  -6.901 -42.618  0.00  0.00    +0.000 OA
ATOM     29  H11 UNL     1      27.748  -5.910 -42.786  0.00  0.00    +0.000 HD
ENDBRANCH  17  28
ENDBRANCH   1  16
BRANCH   1  33
ATOM     30  C2  UNL     1      30.946 -10.679 -42.217  0.00  0.00    +0.000 A 
ATOM     31  C3  UNL     1      29.594 -10.763 -42.596  0.00  0.00    +0.000 A 
ATOM     32  C4  UNL     1      28.629  -9.996 -41.944  0.00  0.00    +0.000 A 
ATOM     33  C5  UNL     1      28.986  -9.121 -40.905  0.00  0.00    +0.000 A 
ATOM     34  C25 UNL     1      30.339  -9.048 -40.519  0.00  0.00    +0.000 A 
ATOM     35  C26 UNL     1      31.320  -9.820 -41.173  0.00  0.00    +0.000 A 
BRANCH  30  37
ATOM     36  C1  UNL     1      31.754 -12.743 -43.378  0.00  0.00    +0.000 C 
ATOM     37  O1  UNL     1      31.945 -11.435 -42.850  0.00  0.00    +0.000 OA
ENDBRANCH  30  37
BRANCH  35  38
ATOM     38  O8  UNL     1      32.675  -9.763 -40.812  0.00  0.00    +0.000 OA
ATOM     39  C27 UNL     1      33.249  -8.758 -39.982  0.00  0.00    +0.000 C 
ENDBRANCH  35  38
ENDBRANCH   1  33
TORSDOF 7
ENDMDL
MODEL 9
REMARK VINA RESULT:    -4.855      3.272      4.427
REMARK INTER + INTRA:          -6.722
REMARK INTER:                  -6.754
REMARK INTRA:                   0.032
REMARK UNBOUND:                -0.164
REMARK  Name = resultss/4CJN/ligands/lig_375_t0.pdb
REMARK  9 active torsions:
REMARK  status: ('A' for Active; 'I' for Inactive)
REMARK    1  A    between atoms: C1_1  and  O1_2
REMARK    2  A    between atoms: O1_2  and  C2_3
REMARK    3  A    between atoms: C5_6  and  C6_7
REMARK    4  A    between atoms: C6_7  and  C7_8
REMARK    5  A    between atoms: C6_7  and  C16_21
REMARK    6  A    between atoms: C8_9  and  O2_10
REMARK    7  A    between atoms: C17_22  and  O5_23
REMARK    8  A    between atoms: C26_35  and  O8_36
REMARK    9  A    between atoms: O8_36  and  C27_37
REMARK                            x       y       z     vdW  Elec       q    Type
REMARK                         _______ _______ _______ _____ _____    ______ ____
ROOT
ATOM      1  C6  UNL     1      28.361  -8.769 -37.865  0.00  0.00    +0.000 C 
ENDROOT
BRANCH   1   2
ATOM      2  C7  UNL     1      27.576  -8.910 -39.176  0.00  0.00    +0.000 A 
ATOM      3  C8  UNL     1      27.179  -7.790 -39.947  0.00  0.00    +0.000 A 
ATOM      4  C9  UNL     1      26.446  -7.992 -41.141  0.00  0.00    +0.000 A 
ATOM      5  C10 UNL     1      25.964  -6.935 -41.944  0.00  0.00    +0.000 A 
ATOM      6  C11 UNL     1      25.252  -7.206 -43.119  0.00  0.00    +0.000 A 
ATOM      7 CL1  UNL     1      24.657  -5.883 -44.108  0.00  0.00    +0.000 Cl
ATOM      8  C12 UNL     1      25.009  -8.525 -43.505  0.00  0.00    +0.000 A 
ATOM      9  C13 UNL     1      25.471  -9.579 -42.719  0.00  0.00    +0.000 A 
ATOM     10  C14 UNL     1      26.184  -9.323 -41.543  0.00  0.00    +0.000 A 
ATOM     11  O3  UNL     1      26.612 -10.344 -40.815  0.00  0.00    +0.000 OA
ATOM     12  C15 UNL     1      27.283 -10.196 -39.682  0.00  0.00    +0.000 A 
ATOM     13  O4  UNL     1      27.660 -11.230 -39.067  0.00  0.00    +0.000 OA
BRANCH   3  14
ATOM     14  O2  UNL     1      27.549  -6.512 -39.516  0.00  0.00    +0.000 OA
ATOM     15  H7  UNL     1      26.971  -5.688 -39.582  0.00  0.00    +0.000 HD
ENDBRANCH   3  14
ENDBRANCH   1   2
BRANCH   1  16
ATOM     16  C16 UNL     1      27.566  -8.049 -36.764  0.00  0.00    +0.000 A 
ATOM     17  C17 UNL     1      26.632  -8.792 -36.009  0.00  0.00    +0.000 A 
ATOM     18  C18 UNL     1      25.888  -8.153 -34.989  0.00  0.00    +0.000 A 
ATOM     19  C19 UNL     1      24.952  -8.824 -34.171  0.00  0.00    +0.000 A 
ATOM     20  C20 UNL     1      24.249  -8.130 -33.180  0.00  0.00    +0.000 A 
ATOM     21 CL2  UNL     1      23.090  -8.976 -32.171  0.00  0.00    +0.000 Cl
ATOM     22  C21 UNL     1      24.468  -6.765 -32.989  0.00  0.00    +0.000 A 
ATOM     23  C22 UNL     1      25.390  -6.088 -33.787  0.00  0.00    +0.000 A 
ATOM     24  C23 UNL     1      26.099  -6.771 -34.781  0.00  0.00    +0.000 A 
ATOM     25  O6  UNL     1      26.966  -6.102 -35.526  0.00  0.00    +0.000 OA
ATOM     26  C24 UNL     1      27.687  -6.663 -36.487  0.00  0.00    +0.000 A 
ATOM     27  O7  UNL     1      28.463  -5.929 -37.152  0.00  0.00    +0.000 OA
BRANCH  17  28
ATOM     28  O5  UNL     1      26.473 -10.152 -36.306  0.00  0.00    +0.000 OA
ATOM     29  H11 UNL     1      25.589 -10.605 -36.491  0.00  0.00    +0.000 HD
ENDBRANCH  17  28
ENDBRANCH   1  16
BRANCH   1  33
ATOM     30  C2  UNL     1      32.436  -7.397 -38.536  0.00  0.00    +0.000 A 
ATOM     31  C3  UNL     1      31.528  -7.535 -39.602  0.00  0.00    +0.000 A 
ATOM     32  C4  UNL     1      30.224  -7.970 -39.368  0.00  0.00    +0.000 A 
ATOM     33  C5  UNL     1      29.789  -8.269 -38.067  0.00  0.00    +0.000 A 
ATOM     34  C25 UNL     1      30.704  -8.142 -37.003  0.00  0.00    +0.000 A 
ATOM     35  C26 UNL     1      32.023  -7.704 -37.232  0.00  0.00    +0.000 A 
BRANCH  30  37
ATOM     36  C1  UNL     1      34.236  -6.359 -39.930  0.00  0.00    +0.000 C 
ATOM     37  O1  UNL     1      33.756  -6.961 -38.734  0.00  0.00    +0.000 OA
ENDBRANCH  30  37
BRANCH  35  38
ATOM     38  O8  UNL     1      32.953  -7.564 -36.189  0.00  0.00    +0.000 OA
ATOM     39  C27 UNL     1      32.792  -8.110 -34.884  0.00  0.00    +0.000 C 
ENDBRANCH  35  38
ENDBRANCH   1  33
TORSDOF 7
ENDMDL
