MODEL 1
REMARK VINA RESULT:    -5.535      0.000      0.000
REMARK INTER + INTRA:         -10.383
REMARK INTER:                  -8.124
REMARK INTRA:                  -2.259
REMARK UNBOUND:                -2.259
REMARK  Name = resultss/4CJN/ligands/lig_227_t1.pdb
REMARK  11 active torsions:
REMARK  status: ('A' for Active; 'I' for Inactive)
REMARK    1  A    between atoms: C6_8  and  C7_9
REMARK    2  A    between atoms: C11_13  and  C12_14
REMARK    3  A    between atoms: C14_16  and  O3_17
REMARK    4  A    between atoms: O3_17  and  C15_18
REMARK    5  A    between atoms: C15_18  and  C16_20
REMARK    6  A    between atoms: C16_20  and  C21_27
REMARK    7  A    between atoms: C17_21  and  C18_22
REMARK    8  A    between atoms: C18_22  and  O5_23
REMARK    9  A    between atoms: O5_23  and  C19_24
REMARK   10  A    between atoms: C19_24  and  O6_26
REMARK   11  A    between atoms: C21_27  and  O7_28
REMARK                            x       y       z     vdW  Elec       q    Type
REMARK                         _______ _______ _______ _____ _____    ______ ____
ROOT
ATOM      1  C1  UNL     1      26.610  -6.455 -39.415  0.00  0.00    +0.000 C 
ATOM      2  C2  UNL     1      26.012  -7.177 -38.469  0.00  0.00    +0.000 C 
ATOM      3  C3  UNL     1      24.632  -7.042 -38.058  0.00  0.00    +0.000 C 
ATOM      4  O1  UNL     1      23.789  -6.257 -38.567  0.00  0.00    +0.000 OA
ATOM      5  O2  UNL     1      24.357  -7.868 -36.988  0.00  0.00    +0.000 OA
ATOM      6  C4  UNL     1      25.464  -8.724 -36.733  0.00  0.00    +0.000 C 
ATOM      7  C5  UNL     1      25.701  -8.946 -35.257  0.00  0.00    +0.000 C 
ATOM      8  C6  UNL     1      26.201  -8.045 -34.374  0.00  0.00    +0.000 C 
ATOM      9  C7  UNL     1      26.223  -6.557 -34.619  0.00  0.00    +0.000 C 
ATOM     10  C8  UNL     1      26.927  -8.574 -33.149  0.00  0.00    +0.000 C 
ATOM     11  C9  UNL     1      28.380  -9.005 -33.468  0.00  0.00    +0.000 C 
ATOM     12  C10 UNL     1      28.440  -9.876 -34.706  0.00  0.00    +0.000 C 
ATOM     13  C11 UNL     1      28.853  -9.436 -35.919  0.00  0.00    +0.000 C 
ATOM     14  C12 UNL     1      29.830  -8.292 -36.048  0.00  0.00    +0.000 C 
ATOM     15  C13 UNL     1      28.326 -10.116 -37.175  0.00  0.00    +0.000 C 
ATOM     16  C14 UNL     1      27.626  -9.148 -38.172  0.00  0.00    +0.000 C 
ATOM     17  C22 UNL     1      26.684  -8.110 -37.500  0.00  0.00    +0.000 C 
ENDROOT
BRANCH  16  18
ATOM     18  O3  UNL     1      26.888  -9.905 -39.133  0.00  0.00    +0.000 OA
BRANCH  18  19
ATOM     19  C15 UNL     1      27.481 -10.630 -40.173  0.00  0.00    +0.000 C 
ATOM     20  O4  UNL     1      27.395 -11.889 -40.198  0.00  0.00    +0.000 OA
BRANCH  19  21
ATOM     21  C16 UNL     1      28.173  -9.889 -41.255  0.00  0.00    +0.000 C 
ATOM     22  C17 UNL     1      27.540  -9.397 -42.338  0.00  0.00    +0.000 C 
BRANCH  22  23
ATOM     23  C18 UNL     1      26.077  -9.576 -42.632  0.00  0.00    +0.000 C 
BRANCH  23  24
ATOM     24  O5  UNL     1      25.344  -8.456 -42.142  0.00  0.00    +0.000 OA
BRANCH  24  25
ATOM     25  C19 UNL     1      24.157  -8.542 -41.396  0.00  0.00    +0.000 C 
ATOM     26  C20 UNL     1      23.102  -7.757 -41.627  0.00  0.00    +0.000 C 
BRANCH  25  27
ATOM     27  O6  UNL     1      24.075  -9.485 -40.376  0.00  0.00    +0.000 OA
ATOM     28  H24 UNL     1      23.222  -9.596 -39.841  0.00  0.00    +0.000 HD
ENDBRANCH  25  27
ENDBRANCH  24  25
ENDBRANCH  23  24
ENDBRANCH  22  23
BRANCH  21  29
ATOM     29  C21 UNL     1      29.671  -9.737 -41.146  0.00  0.00    +0.000 C 
BRANCH  29  30
ATOM     30  O7  UNL     1      30.174 -10.586 -40.150  0.00  0.00    +0.000 OA
ATOM     31  H27 UNL     1      30.861 -11.155 -40.585  0.00  0.00    +0.000 HD
ENDBRANCH  29  30
ENDBRANCH  21  29
ENDBRANCH  19  21
ENDBRANCH  18  19
ENDBRANCH  16  18
TORSDOF 9
ENDMDL
MODEL 2
REMARK VINA RESULT:    -5.298      1.318      3.168
REMARK INTER + INTRA:         -10.034
REMARK INTER:                  -7.962
REMARK INTRA:                  -2.072
REMARK UNBOUND:                -2.259
REMARK  Name = resultss/4CJN/ligands/lig_227_t1.pdb
REMARK  11 active torsions:
REMARK  status: ('A' for Active; 'I' for Inactive)
REMARK    1  A    between atoms: C6_8  and  C7_9
REMARK    2  A    between atoms: C11_13  and  C12_14
REMARK    3  A    between atoms: C14_16  and  O3_17
REMARK    4  A    between atoms: O3_17  and  C15_18
REMARK    5  A    between atoms: C15_18  and  C16_20
REMARK    6  A    between atoms: C16_20  and  C21_27
REMARK    7  A    between atoms: C17_21  and  C18_22
REMARK    8  A    between atoms: C18_22  and  O5_23
REMARK    9  A    between atoms: O5_23  and  C19_24
REMARK   10  A    between atoms: C19_24  and  O6_26
REMARK   11  A    between atoms: C21_27  and  O7_28
REMARK                            x       y       z     vdW  Elec       q    Type
REMARK                         _______ _______ _______ _____ _____    ______ ____
ROOT
ATOM      1  C1  UNL     1      25.537  -6.840 -38.150  0.00  0.00    +0.000 C 
ATOM      2  C2  UNL     1      25.625  -7.764 -37.195  0.00  0.00    +0.000 C 
ATOM      3  C3  UNL     1      24.576  -8.104 -36.259  0.00  0.00    +0.000 C 
ATOM      4  O1  UNL     1      23.418  -7.610 -36.245  0.00  0.00    +0.000 OA
ATOM      5  O2  UNL     1      25.023  -9.028 -35.338  0.00  0.00    +0.000 OA
ATOM      6  C4  UNL     1      26.320  -9.491 -35.698  0.00  0.00    +0.000 C 
ATOM      7  C5  UNL     1      27.218  -9.698 -34.500  0.00  0.00    +0.000 C 
ATOM      8  C6  UNL     1      27.782  -8.730 -33.734  0.00  0.00    +0.000 C 
ATOM      9  C7  UNL     1      27.290  -7.305 -33.692  0.00  0.00    +0.000 C 
ATOM     10  C8  UNL     1      29.077  -9.057 -33.011  0.00  0.00    +0.000 C 
ATOM     11  C9  UNL     1      30.309  -8.977 -33.946  0.00  0.00    +0.000 C 
ATOM     12  C10 UNL     1      30.067  -9.718 -35.246  0.00  0.00    +0.000 C 
ATOM     13  C11 UNL     1      29.782  -9.106 -36.420  0.00  0.00    +0.000 C 
ATOM     14  C12 UNL     1      30.256  -7.702 -36.711  0.00  0.00    +0.000 C 
ATOM     15  C13 UNL     1      28.974  -9.855 -37.471  0.00  0.00    +0.000 C 
ATOM     16  C14 UNL     1      27.680  -9.117 -37.919  0.00  0.00    +0.000 C 
ATOM     17  C22 UNL     1      26.874  -8.477 -36.754  0.00  0.00    +0.000 C 
ENDROOT
BRANCH  16  18
ATOM     18  O3  UNL     1      26.837 -10.023 -38.636  0.00  0.00    +0.000 OA
BRANCH  18  19
ATOM     19  C15 UNL     1      26.959 -10.277 -40.007  0.00  0.00    +0.000 C 
ATOM     20  O4  UNL     1      27.409 -11.386 -40.408  0.00  0.00    +0.000 OA
BRANCH  19  21
ATOM     21  C16 UNL     1      26.515  -9.239 -40.967  0.00  0.00    +0.000 C 
ATOM     22  C17 UNL     1      27.359  -8.376 -41.568  0.00  0.00    +0.000 C 
BRANCH  22  23
ATOM     23  C18 UNL     1      28.837  -8.303 -41.311  0.00  0.00    +0.000 C 
BRANCH  23  24
ATOM     24  O5  UNL     1      29.539  -9.045 -42.306  0.00  0.00    +0.000 OA
BRANCH  24  25
ATOM     25  C19 UNL     1      30.177 -10.276 -42.083  0.00  0.00    +0.000 C 
ATOM     26  C20 UNL     1      30.651 -11.033 -43.076  0.00  0.00    +0.000 C 
BRANCH  25  27
ATOM     27  O6  UNL     1      30.323 -10.726 -40.775  0.00  0.00    +0.000 OA
ATOM     28  H24 UNL     1      29.951 -11.625 -40.491  0.00  0.00    +0.000 HD
ENDBRANCH  25  27
ENDBRANCH  24  25
ENDBRANCH  23  24
ENDBRANCH  22  23
BRANCH  21  29
ATOM     29  C21 UNL     1      25.033  -9.123 -41.230  0.00  0.00    +0.000 C 
BRANCH  29  30
ATOM     30  O7  UNL     1      24.307  -9.528 -40.102  0.00  0.00    +0.000 OA
ATOM     31  H27 UNL     1      23.348  -9.487 -40.353  0.00  0.00    +0.000 HD
ENDBRANCH  29  30
ENDBRANCH  21  29
ENDBRANCH  19  21
ENDBRANCH  18  19
ENDBRANCH  16  18
TORSDOF 9
ENDMDL
MODEL 3
REMARK VINA RESULT:    -5.293      2.229      6.555
REMARK INTER + INTRA:         -10.027
REMARK INTER:                  -8.096
REMARK INTRA:                  -1.931
REMARK UNBOUND:                -2.259
REMARK  Name = resultss/4CJN/ligands/lig_227_t1.pdb
REMARK  11 active torsions:
REMARK  status: ('A' for Active; 'I' for Inactive)
REMARK    1  A    between atoms: C6_8  and  C7_9
REMARK    2  A    between atoms: C11_13  and  C12_14
REMARK    3  A    between atoms: C14_16  and  O3_17
REMARK    4  A    between atoms: O3_17  and  C15_18
REMARK    5  A    between atoms: C15_18  and  C16_20
REMARK    6  A    between atoms: C16_20  and  C21_27
REMARK    7  A    between atoms: C17_21  and  C18_22
REMARK    8  A    between atoms: C18_22  and  O5_23
REMARK    9  A    between atoms: O5_23  and  C19_24
REMARK   10  A    between atoms: C19_24  and  O6_26
REMARK   11  A    between atoms: C21_27  and  O7_28
REMARK                            x       y       z     vdW  Elec       q    Type
REMARK                         _______ _______ _______ _____ _____    ______ ____
ROOT
ATOM      1  C1  UNL     1      29.809  -7.617 -37.213  0.00  0.00    +0.000 C 
ATOM      2  C2  UNL     1      29.389  -8.631 -37.969  0.00  0.00    +0.000 C 
ATOM      3  C3  UNL     1      30.244  -9.589 -38.636  0.00  0.00    +0.000 C 
ATOM      4  O1  UNL     1      31.500  -9.629 -38.558  0.00  0.00    +0.000 OA
ATOM      5  O2  UNL     1      29.499 -10.448 -39.417  0.00  0.00    +0.000 OA
ATOM      6  C4  UNL     1      28.111 -10.238 -39.188  0.00  0.00    +0.000 C 
ATOM      7  C5  UNL     1      27.289 -10.353 -40.452  0.00  0.00    +0.000 C 
ATOM      8  C6  UNL     1      27.250  -9.462 -41.475  0.00  0.00    +0.000 C 
ATOM      9  C7  UNL     1      28.313  -8.419 -41.717  0.00  0.00    +0.000 C 
ATOM     10  C8  UNL     1      25.990  -9.402 -42.321  0.00  0.00    +0.000 C 
ATOM     11  C9  UNL     1      24.858  -8.600 -41.634  0.00  0.00    +0.000 C 
ATOM     12  C10 UNL     1      24.673  -9.026 -40.191  0.00  0.00    +0.000 C 
ATOM     13  C11 UNL     1      25.120  -8.314 -39.131  0.00  0.00    +0.000 C 
ATOM     14  C12 UNL     1      25.284  -6.814 -39.204  0.00  0.00    +0.000 C 
ATOM     15  C13 UNL     1      25.455  -9.040 -37.835  0.00  0.00    +0.000 C 
ATOM     16  C14 UNL     1      26.910  -8.806 -37.337  0.00  0.00    +0.000 C 
ATOM     17  C22 UNL     1      27.985  -8.860 -38.458  0.00  0.00    +0.000 C 
ENDROOT
BRANCH  16  18
ATOM     18  O3  UNL     1      27.229  -9.767 -36.328  0.00  0.00    +0.000 OA
BRANCH  18  19
ATOM     19  C15 UNL     1      26.815  -9.662 -34.996  0.00  0.00    +0.000 C 
ATOM     20  O4  UNL     1      25.964 -10.470 -34.530  0.00  0.00    +0.000 OA
BRANCH  19  21
ATOM     21  C16 UNL     1      27.421  -8.614 -34.140  0.00  0.00    +0.000 C 
ATOM     22  C17 UNL     1      26.856  -7.407 -33.935  0.00  0.00    +0.000 C 
BRANCH  22  23
ATOM     23  C18 UNL     1      25.584  -6.934 -34.578  0.00  0.00    +0.000 C 
BRANCH  23  24
ATOM     24  O5  UNL     1      24.505  -7.038 -33.652  0.00  0.00    +0.000 OA
BRANCH  24  25
ATOM     25  C19 UNL     1      23.659  -8.154 -33.532  0.00  0.00    +0.000 C 
ATOM     26  C20 UNL     1      22.611  -8.353 -34.334  0.00  0.00    +0.000 C 
BRANCH  25  27
ATOM     27  O6  UNL     1      23.926  -9.090 -32.538  0.00  0.00    +0.000 OA
ATOM     28  H24 UNL     1      24.848  -9.500 -32.446  0.00  0.00    +0.000 HD
ENDBRANCH  25  27
ENDBRANCH  24  25
ENDBRANCH  23  24
ENDBRANCH  22  23
BRANCH  21  29
ATOM     29  C21 UNL     1      28.766  -8.912 -33.522  0.00  0.00    +0.000 C 
BRANCH  29  30
ATOM     30  O7  UNL     1      29.118 -10.249 -33.750  0.00  0.00    +0.000 OA
ATOM     31  H27 UNL     1      29.388 -10.312 -34.703  0.00  0.00    +0.000 HD
ENDBRANCH  29  30
ENDBRANCH  21  29
ENDBRANCH  19  21
ENDBRANCH  18  19
ENDBRANCH  16  18
TORSDOF 9
ENDMDL
MODEL 4
REMARK VINA RESULT:    -5.091      2.732      7.485
REMARK INTER + INTRA:          -9.731
REMARK INTER:                  -8.304
REMARK INTRA:                  -1.427
REMARK UNBOUND:                -2.259
REMARK  Name = resultss/4CJN/ligands/lig_227_t1.pdb
REMARK  11 active torsions:
REMARK  status: ('A' for Active; 'I' for Inactive)
REMARK    1  A    between atoms: C6_8  and  C7_9
REMARK    2  A    between atoms: C11_13  and  C12_14
REMARK    3  A    between atoms: C14_16  and  O3_17
REMARK    4  A    between atoms: O3_17  and  C15_18
REMARK    5  A    between atoms: C15_18  and  C16_20
REMARK    6  A    between atoms: C16_20  and  C21_27
REMARK    7  A    between atoms: C17_21  and  C18_22
REMARK    8  A    between atoms: C18_22  and  O5_23
REMARK    9  A    between atoms: O5_23  and  C19_24
REMARK   10  A    between atoms: C19_24  and  O6_26
REMARK   11  A    between atoms: C21_27  and  O7_28
REMARK                            x       y       z     vdW  Elec       q    Type
REMARK                         _______ _______ _______ _____ _____    ______ ____
ROOT
ATOM      1  C1  UNL     1      29.804  -7.673 -36.991  0.00  0.00    +0.000 C 
ATOM      2  C2  UNL     1      29.381  -8.656 -37.783  0.00  0.00    +0.000 C 
ATOM      3  C3  UNL     1      30.231  -9.599 -38.476  0.00  0.00    +0.000 C 
ATOM      4  O1  UNL     1      31.486  -9.654 -38.392  0.00  0.00    +0.000 OA
ATOM      5  O2  UNL     1      29.484 -10.424 -39.291  0.00  0.00    +0.000 OA
ATOM      6  C4  UNL     1      28.096 -10.209 -39.066  0.00  0.00    +0.000 C 
ATOM      7  C5  UNL     1      27.282 -10.272 -40.338  0.00  0.00    +0.000 C 
ATOM      8  C6  UNL     1      27.259  -9.347 -41.331  0.00  0.00    +0.000 C 
ATOM      9  C7  UNL     1      28.333  -8.307 -41.529  0.00  0.00    +0.000 C 
ATOM     10  C8  UNL     1      26.006  -9.246 -42.183  0.00  0.00    +0.000 C 
ATOM     11  C9  UNL     1      24.877  -8.457 -41.476  0.00  0.00    +0.000 C 
ATOM     12  C10 UNL     1      24.677  -8.930 -40.051  0.00  0.00    +0.000 C 
ATOM     13  C11 UNL     1      25.123  -8.258 -38.963  0.00  0.00    +0.000 C 
ATOM     14  C12 UNL     1      25.302  -6.759 -38.985  0.00  0.00    +0.000 C 
ATOM     15  C13 UNL     1      25.442  -9.031 -37.691  0.00  0.00    +0.000 C 
ATOM     16  C14 UNL     1      26.895  -8.828 -37.175  0.00  0.00    +0.000 C 
ATOM     17  C22 UNL     1      27.978  -8.854 -38.289  0.00  0.00    +0.000 C 
ENDROOT
BRANCH  16  18
ATOM     18  O3  UNL     1      27.198  -9.826 -36.197  0.00  0.00    +0.000 OA
BRANCH  18  19
ATOM     19  C15 UNL     1      26.762  -9.770 -34.869  0.00  0.00    +0.000 C 
ATOM     20  O4  UNL     1      25.938 -10.622 -34.435  0.00  0.00    +0.000 OA
BRANCH  19  21
ATOM     21  C16 UNL     1      27.313  -8.719 -33.980  0.00  0.00    +0.000 C 
ATOM     22  C17 UNL     1      28.597  -8.696 -33.567  0.00  0.00    +0.000 C 
BRANCH  22  23
ATOM     23  C18 UNL     1      29.621  -9.746 -33.892  0.00  0.00    +0.000 C 
BRANCH  23  24
ATOM     24  O5  UNL     1      30.203 -10.243 -32.689  0.00  0.00    +0.000 OA
BRANCH  24  25
ATOM     25  C19 UNL     1      31.574 -10.490 -32.508  0.00  0.00    +0.000 C 
ATOM     26  C20 UNL     1      32.079 -10.939 -31.356  0.00  0.00    +0.000 C 
BRANCH  25  27
ATOM     27  O6  UNL     1      32.441 -10.260 -33.571  0.00  0.00    +0.000 OA
ATOM     28  H24 UNL     1      32.145  -9.712 -34.371  0.00  0.00    +0.000 HD
ENDBRANCH  25  27
ENDBRANCH  24  25
ENDBRANCH  23  24
ENDBRANCH  22  23
BRANCH  21  29
ATOM     29  C21 UNL     1      26.360  -7.661 -33.479  0.00  0.00    +0.000 C 
BRANCH  29  30
ATOM     30  O7  UNL     1      25.247  -8.259 -32.871  0.00  0.00    +0.000 OA
ATOM     31  H27 UNL     1      25.576  -8.685 -32.038  0.00  0.00    +0.000 HD
ENDBRANCH  29  30
ENDBRANCH  21  29
ENDBRANCH  19  21
ENDBRANCH  18  19
ENDBRANCH  16  18
TORSDOF 9
ENDMDL
MODEL 5
REMARK VINA RESULT:    -5.057      2.221      3.566
REMARK INTER + INTRA:          -9.681
REMARK INTER:                  -8.386
REMARK INTRA:                  -1.294
REMARK UNBOUND:                -2.259
REMARK  Name = resultss/4CJN/ligands/lig_227_t1.pdb
REMARK  11 active torsions:
REMARK  status: ('A' for Active; 'I' for Inactive)
REMARK    1  A    between atoms: C6_8  and  C7_9
REMARK    2  A    between atoms: C11_13  and  C12_14
REMARK    3  A    between atoms: C14_16  and  O3_17
REMARK    4  A    between atoms: O3_17  and  C15_18
REMARK    5  A    between atoms: C15_18  and  C16_20
REMARK    6  A    between atoms: C16_20  and  C21_27
REMARK    7  A    between atoms: C17_21  and  C18_22
REMARK    8  A    between atoms: C18_22  and  O5_23
REMARK    9  A    between atoms: O5_23  and  C19_24
REMARK   10  A    between atoms: C19_24  and  O6_26
REMARK   11  A    between atoms: C21_27  and  O7_28
REMARK                            x       y       z     vdW  Elec       q    Type
REMARK                         _______ _______ _______ _____ _____    ______ ____
ROOT
ATOM      1  C1  UNL     1      26.163  -6.484 -36.634  0.00  0.00    +0.000 C 
ATOM      2  C2  UNL     1      26.428  -7.597 -35.952  0.00  0.00    +0.000 C 
ATOM      3  C3  UNL     1      25.529  -8.243 -35.020  0.00  0.00    +0.000 C 
ATOM      4  O1  UNL     1      24.355  -7.871 -34.758  0.00  0.00    +0.000 OA
ATOM      5  O2  UNL     1      26.144  -9.316 -34.410  0.00  0.00    +0.000 OA
ATOM      6  C4  UNL     1      27.409  -9.562 -35.013  0.00  0.00    +0.000 C 
ATOM      7  C5  UNL     1      28.464  -9.968 -34.009  0.00  0.00    +0.000 C 
ATOM      8  C6  UNL     1      29.062  -9.164 -33.094  0.00  0.00    +0.000 C 
ATOM      9  C7  UNL     1      28.495  -7.839 -32.648  0.00  0.00    +0.000 C 
ATOM     10  C8  UNL     1      30.456  -9.537 -32.620  0.00  0.00    +0.000 C 
ATOM     11  C9  UNL     1      31.552  -9.128 -33.635  0.00  0.00    +0.000 C 
ATOM     12  C10 UNL     1      31.190  -9.556 -35.043  0.00  0.00    +0.000 C 
ATOM     13  C11 UNL     1      30.722  -8.711 -35.992  0.00  0.00    +0.000 C 
ATOM     14  C12 UNL     1      31.070  -7.242 -35.976  0.00  0.00    +0.000 C 
ATOM     15  C13 UNL     1      29.832  -9.257 -37.100  0.00  0.00    +0.000 C 
ATOM     16  C14 UNL     1      28.450  -8.552 -37.208  0.00  0.00    +0.000 C 
ATOM     17  C22 UNL     1      27.763  -8.281 -35.840  0.00  0.00    +0.000 C 
ENDROOT
BRANCH  16  18
ATOM     18  O3  UNL     1      27.579  -9.332 -38.029  0.00  0.00    +0.000 OA
BRANCH  18  19
ATOM     19  C15 UNL     1      27.425  -9.133 -39.406  0.00  0.00    +0.000 C 
ATOM     20  O4  UNL     1      26.556  -8.326 -39.838  0.00  0.00    +0.000 OA
BRANCH  19  21
ATOM     21  C16 UNL     1      28.325  -9.857 -40.336  0.00  0.00    +0.000 C 
ATOM     22  C17 UNL     1      28.140 -11.143 -40.696  0.00  0.00    +0.000 C 
BRANCH  22  23
ATOM     23  C18 UNL     1      27.050 -12.032 -40.169  0.00  0.00    +0.000 C 
BRANCH  23  24
ATOM     24  O5  UNL     1      27.457 -13.396 -40.249  0.00  0.00    +0.000 OA
BRANCH  24  25
ATOM     25  C19 UNL     1      26.663 -14.491 -39.869  0.00  0.00    +0.000 C 
ATOM     26  C20 UNL     1      25.513 -14.793 -40.476  0.00  0.00    +0.000 C 
BRANCH  25  27
ATOM     27  O6  UNL     1      27.093 -15.295 -38.818  0.00  0.00    +0.000 OA
ATOM     28  H24 UNL     1      26.757 -15.138 -37.874  0.00  0.00    +0.000 HD
ENDBRANCH  25  27
ENDBRANCH  24  25
ENDBRANCH  23  24
ENDBRANCH  22  23
BRANCH  21  29
ATOM     29  C21 UNL     1      29.535  -9.115 -40.852  0.00  0.00    +0.000 C 
BRANCH  29  30
ATOM     30  O7  UNL     1      29.281  -7.737 -40.886  0.00  0.00    +0.000 OA
ATOM     31  H27 UNL     1      28.473  -7.585 -40.330  0.00  0.00    +0.000 HD
ENDBRANCH  29  30
ENDBRANCH  21  29
ENDBRANCH  19  21
ENDBRANCH  18  19
ENDBRANCH  16  18
TORSDOF 9
ENDMDL
MODEL 6
REMARK VINA RESULT:    -4.735      1.866      4.275
REMARK INTER + INTRA:          -9.208
REMARK INTER:                  -7.535
REMARK INTRA:                  -1.672
REMARK UNBOUND:                -2.259
REMARK  Name = resultss/4CJN/ligands/lig_227_t1.pdb
REMARK  11 active torsions:
REMARK  status: ('A' for Active; 'I' for Inactive)
REMARK    1  A    between atoms: C6_8  and  C7_9
REMARK    2  A    between atoms: C11_13  and  C12_14
REMARK    3  A    between atoms: C14_16  and  O3_17
REMARK    4  A    between atoms: O3_17  and  C15_18
REMARK    5  A    between atoms: C15_18  and  C16_20
REMARK    6  A    between atoms: C16_20  and  C21_27
REMARK    7  A    between atoms: C17_21  and  C18_22
REMARK    8  A    between atoms: C18_22  and  O5_23
REMARK    9  A    between atoms: O5_23  and  C19_24
REMARK   10  A    between atoms: C19_24  and  O6_26
REMARK   11  A    between atoms: C21_27  and  O7_28
REMARK                            x       y       z     vdW  Elec       q    Type
REMARK                         _______ _______ _______ _____ _____    ______ ____
ROOT
ATOM      1  C1  UNL     1      30.031 -10.005 -37.310  0.00  0.00    +0.000 C 
ATOM      2  C2  UNL     1      29.507  -8.791 -37.149  0.00  0.00    +0.000 C 
ATOM      3  C3  UNL     1      30.233  -7.544 -37.258  0.00  0.00    +0.000 C 
ATOM      4  O1  UNL     1      31.448  -7.428 -37.567  0.00  0.00    +0.000 OA
ATOM      5  O2  UNL     1      29.422  -6.477 -36.936  0.00  0.00    +0.000 OA
ATOM      6  C4  UNL     1      28.079  -6.915 -36.766  0.00  0.00    +0.000 C 
ATOM      7  C5  UNL     1      27.373  -6.204 -35.634  0.00  0.00    +0.000 C 
ATOM      8  C6  UNL     1      27.593  -6.380 -34.306  0.00  0.00    +0.000 C 
ATOM      9  C7  UNL     1      28.845  -7.003 -33.741  0.00  0.00    +0.000 C 
ATOM     10  C8  UNL     1      26.449  -6.088 -33.349  0.00  0.00    +0.000 C 
ATOM     11  C9  UNL     1      25.422  -7.246 -33.291  0.00  0.00    +0.000 C 
ATOM     12  C10 UNL     1      25.028  -7.708 -34.679  0.00  0.00    +0.000 C 
ATOM     13  C11 UNL     1      25.495  -8.839 -35.258  0.00  0.00    +0.000 C 
ATOM     14  C12 UNL     1      25.934 -10.023 -34.430  0.00  0.00    +0.000 C 
ATOM     15  C13 UNL     1      25.569  -8.920 -36.777  0.00  0.00    +0.000 C 
ATOM     16  C14 UNL     1      26.989  -9.244 -37.324  0.00  0.00    +0.000 C 
ATOM     17  C22 UNL     1      28.138  -8.472 -36.616  0.00  0.00    +0.000 C 
ENDROOT
BRANCH  16  18
ATOM     18  O3  UNL     1      27.033  -8.974 -38.727  0.00  0.00    +0.000 OA
BRANCH  18  19
ATOM     19  C15 UNL     1      27.067  -9.971 -39.709  0.00  0.00    +0.000 C 
ATOM     20  O4  UNL     1      27.583 -11.095 -39.454  0.00  0.00    +0.000 OA
BRANCH  19  21
ATOM     21  C16 UNL     1      26.455  -9.693 -41.030  0.00  0.00    +0.000 C 
ATOM     22  C17 UNL     1      27.152  -9.229 -42.086  0.00  0.00    +0.000 C 
BRANCH  22  23
ATOM     23  C18 UNL     1      28.611  -8.874 -42.062  0.00  0.00    +0.000 C 
BRANCH  23  24
ATOM     24  O5  UNL     1      29.362  -9.867 -42.758  0.00  0.00    +0.000 OA
BRANCH  24  25
ATOM     25  C19 UNL     1      30.173 -10.834 -42.141  0.00  0.00    +0.000 C 
ATOM     26  C20 UNL     1      30.875 -11.735 -42.833  0.00  0.00    +0.000 C 
BRANCH  25  27
ATOM     27  O6  UNL     1      30.251 -10.853 -40.752  0.00  0.00    +0.000 OA
ATOM     28  H24 UNL     1      31.140 -10.991 -40.285  0.00  0.00    +0.000 HD
ENDBRANCH  25  27
ENDBRANCH  24  25
ENDBRANCH  23  24
ENDBRANCH  22  23
BRANCH  21  29
ATOM     29  C21 UNL     1      24.964  -9.894 -41.162  0.00  0.00    +0.000 C 
BRANCH  29  30
ATOM     30  O7  UNL     1      24.310  -9.444 -40.007  0.00  0.00    +0.000 OA
ATOM     31  H27 UNL     1      23.707  -8.709 -40.292  0.00  0.00    +0.000 HD
ENDBRANCH  29  30
ENDBRANCH  21  29
ENDBRANCH  19  21
ENDBRANCH  18  19
ENDBRANCH  16  18
TORSDOF 9
ENDMDL
MODEL 7
REMARK VINA RESULT:    -4.588      1.626      2.439
REMARK INTER + INTRA:          -8.993
REMARK INTER:                  -7.683
REMARK INTRA:                  -1.310
REMARK UNBOUND:                -2.259
REMARK  Name = resultss/4CJN/ligands/lig_227_t1.pdb
REMARK  11 active torsions:
REMARK  status: ('A' for Active; 'I' for Inactive)
REMARK    1  A    between atoms: C6_8  and  C7_9
REMARK    2  A    between atoms: C11_13  and  C12_14
REMARK    3  A    between atoms: C14_16  and  O3_17
REMARK    4  A    between atoms: O3_17  and  C15_18
REMARK    5  A    between atoms: C15_18  and  C16_20
REMARK    6  A    between atoms: C16_20  and  C21_27
REMARK    7  A    between atoms: C17_21  and  C18_22
REMARK    8  A    between atoms: C18_22  and  O5_23
REMARK    9  A    between atoms: O5_23  and  C19_24
REMARK   10  A    between atoms: C19_24  and  O6_26
REMARK   11  A    between atoms: C21_27  and  O7_28
REMARK                            x       y       z     vdW  Elec       q    Type
REMARK                         _______ _______ _______ _____ _____    ______ ____
ROOT
ATOM      1  C1  UNL     1      26.116  -6.480 -36.989  0.00  0.00    +0.000 C 
ATOM      2  C2  UNL     1      26.404  -7.625 -36.372  0.00  0.00    +0.000 C 
ATOM      3  C3  UNL     1      25.477  -8.410 -35.587  0.00  0.00    +0.000 C 
ATOM      4  O1  UNL     1      24.257  -8.147 -35.414  0.00  0.00    +0.000 OA
ATOM      5  O2  UNL     1      26.116  -9.483 -35.003  0.00  0.00    +0.000 OA
ATOM      6  C4  UNL     1      27.448  -9.586 -35.495  0.00  0.00    +0.000 C 
ATOM      7  C5  UNL     1      28.433  -9.999 -34.426  0.00  0.00    +0.000 C 
ATOM      8  C6  UNL     1      28.878  -9.234 -33.397  0.00  0.00    +0.000 C 
ATOM      9  C7  UNL     1      28.169  -7.996 -32.908  0.00  0.00    +0.000 C 
ATOM     10  C8  UNL     1      30.247  -9.545 -32.817  0.00  0.00    +0.000 C 
ATOM     11  C9  UNL     1      31.396  -8.974 -33.684  0.00  0.00    +0.000 C 
ATOM     12  C10 UNL     1      31.202  -9.306 -35.150  0.00  0.00    +0.000 C 
ATOM     13  C11 UNL     1      30.758  -8.420 -36.072  0.00  0.00    +0.000 C 
ATOM     14  C12 UNL     1      30.985  -6.936 -35.909  0.00  0.00    +0.000 C 
ATOM     15  C13 UNL     1      30.022  -8.933 -37.302  0.00  0.00    +0.000 C 
ATOM     16  C14 UNL     1      28.604  -8.322 -37.492  0.00  0.00    +0.000 C 
ATOM     17  C22 UNL     1      27.773  -8.218 -36.182  0.00  0.00    +0.000 C 
ENDROOT
BRANCH  16  18
ATOM     18  O3  UNL     1      27.877  -9.090 -38.453  0.00  0.00    +0.000 OA
BRANCH  18  19
ATOM     19  C15 UNL     1      27.655  -8.675 -39.771  0.00  0.00    +0.000 C 
ATOM     20  O4  UNL     1      27.707  -7.449 -40.068  0.00  0.00    +0.000 OA
BRANCH  19  21
ATOM     21  C16 UNL     1      27.399  -9.703 -40.809  0.00  0.00    +0.000 C 
ATOM     22  C17 UNL     1      26.164 -10.038 -41.230  0.00  0.00    +0.000 C 
BRANCH  22  23
ATOM     23  C18 UNL     1      24.886  -9.474 -40.677  0.00  0.00    +0.000 C 
BRANCH  23  24
ATOM     24  O5  UNL     1      24.462  -8.368 -41.470  0.00  0.00    +0.000 OA
BRANCH  24  25
ATOM     25  C19 UNL     1      23.217  -8.279 -42.115  0.00  0.00    +0.000 C 
ATOM     26  C20 UNL     1      22.457  -7.181 -42.065  0.00  0.00    +0.000 C 
BRANCH  25  27
ATOM     27  O6  UNL     1      22.757  -9.376 -42.836  0.00  0.00    +0.000 OA
ATOM     28  H24 UNL     1      21.840  -9.768 -42.654  0.00  0.00    +0.000 HD
ENDBRANCH  25  27
ENDBRANCH  24  25
ENDBRANCH  23  24
ENDBRANCH  22  23
BRANCH  21  29
ATOM     29  C21 UNL     1      28.593 -10.437 -41.370  0.00  0.00    +0.000 C 
BRANCH  29  30
ATOM     30  O7  UNL     1      29.499 -10.746 -40.345  0.00  0.00    +0.000 OA
ATOM     31  H27 UNL     1      30.405 -10.554 -40.702  0.00  0.00    +0.000 HD
ENDBRANCH  29  30
ENDBRANCH  21  29
ENDBRANCH  19  21
ENDBRANCH  18  19
ENDBRANCH  16  18
TORSDOF 9
ENDMDL
MODEL 8
REMARK VINA RESULT:    -4.542      1.657      4.593
REMARK INTER + INTRA:          -8.925
REMARK INTER:                  -7.019
REMARK INTRA:                  -1.905
REMARK UNBOUND:                -2.259
REMARK  Name = resultss/4CJN/ligands/lig_227_t1.pdb
REMARK  11 active torsions:
REMARK  status: ('A' for Active; 'I' for Inactive)
REMARK    1  A    between atoms: C6_8  and  C7_9
REMARK    2  A    between atoms: C11_13  and  C12_14
REMARK    3  A    between atoms: C14_16  and  O3_17
REMARK    4  A    between atoms: O3_17  and  C15_18
REMARK    5  A    between atoms: C15_18  and  C16_20
REMARK    6  A    between atoms: C16_20  and  C21_27
REMARK    7  A    between atoms: C17_21  and  C18_22
REMARK    8  A    between atoms: C18_22  and  O5_23
REMARK    9  A    between atoms: O5_23  and  C19_24
REMARK   10  A    between atoms: C19_24  and  O6_26
REMARK   11  A    between atoms: C21_27  and  O7_28
REMARK                            x       y       z     vdW  Elec       q    Type
REMARK                         _______ _______ _______ _____ _____    ______ ____
ROOT
ATOM      1  C1  UNL     1      28.040 -10.708 -38.146  0.00  0.00    +0.000 C 
ATOM      2  C2  UNL     1      28.659  -9.735 -37.480  0.00  0.00    +0.000 C 
ATOM      3  C3  UNL     1      30.088  -9.504 -37.470  0.00  0.00    +0.000 C 
ATOM      4  O1  UNL     1      30.941 -10.159 -38.125  0.00  0.00    +0.000 OA
ATOM      5  O2  UNL     1      30.412  -8.481 -36.604  0.00  0.00    +0.000 OA
ATOM      6  C4  UNL     1      29.228  -7.854 -36.123  0.00  0.00    +0.000 C 
ATOM      7  C5  UNL     1      29.330  -7.460 -34.667  0.00  0.00    +0.000 C 
ATOM      8  C6  UNL     1      29.315  -8.297 -33.599  0.00  0.00    +0.000 C 
ATOM      9  C7  UNL     1      29.603  -9.775 -33.691  0.00  0.00    +0.000 C 
ATOM     10  C8  UNL     1      28.817  -7.751 -32.271  0.00  0.00    +0.000 C 
ATOM     11  C9  UNL     1      27.271  -7.698 -32.199  0.00  0.00    +0.000 C 
ATOM     12  C10 UNL     1      26.680  -7.066 -33.443  0.00  0.00    +0.000 C 
ATOM     13  C11 UNL     1      26.095  -7.769 -34.442  0.00  0.00    +0.000 C 
ATOM     14  C12 UNL     1      25.435  -9.102 -34.181  0.00  0.00    +0.000 C 
ATOM     15  C13 UNL     1      26.095  -7.197 -35.853  0.00  0.00    +0.000 C 
ATOM     16  C14 UNL     1      26.736  -8.136 -36.915  0.00  0.00    +0.000 C 
ATOM     17  C22 UNL     1      28.047  -8.828 -36.449  0.00  0.00    +0.000 C 
ENDROOT
BRANCH  16  18
ATOM     18  O3  UNL     1      26.990  -7.399 -38.113  0.00  0.00    +0.000 OA
BRANCH  18  19
ATOM     19  C15 UNL     1      26.070  -7.277 -39.160  0.00  0.00    +0.000 C 
ATOM     20  O4  UNL     1      25.428  -6.202 -39.320  0.00  0.00    +0.000 OA
BRANCH  19  21
ATOM     21  C16 UNL     1      25.897  -8.416 -40.093  0.00  0.00    +0.000 C 
ATOM     22  C17 UNL     1      26.794  -8.736 -41.047  0.00  0.00    +0.000 C 
BRANCH  22  23
ATOM     23  C18 UNL     1      28.048  -7.962 -41.339  0.00  0.00    +0.000 C 
BRANCH  23  24
ATOM     24  O5  UNL     1      29.185  -8.694 -40.887  0.00  0.00    +0.000 OA
BRANCH  24  25
ATOM     25  C19 UNL     1      29.747  -9.792 -41.560  0.00  0.00    +0.000 C 
ATOM     26  C20 UNL     1      29.816  -9.863 -42.892  0.00  0.00    +0.000 C 
BRANCH  25  27
ATOM     27  O6  UNL     1      30.254 -10.848 -40.809  0.00  0.00    +0.000 OA
ATOM     28  H24 UNL     1      29.832 -11.768 -40.859  0.00  0.00    +0.000 HD
ENDBRANCH  25  27
ENDBRANCH  24  25
ENDBRANCH  23  24
ENDBRANCH  22  23
BRANCH  21  29
ATOM     29  C21 UNL     1      24.618  -9.213 -39.989  0.00  0.00    +0.000 C 
BRANCH  29  30
ATOM     30  O7  UNL     1      23.721  -8.824 -40.993  0.00  0.00    +0.000 OA
ATOM     31  H27 UNL     1      23.536  -7.860 -40.849  0.00  0.00    +0.000 HD
ENDBRANCH  29  30
ENDBRANCH  21  29
ENDBRANCH  19  21
ENDBRANCH  18  19
ENDBRANCH  16  18
TORSDOF 9
ENDMDL
MODEL 9
REMARK VINA RESULT:    -4.387      2.201      6.284
REMARK INTER + INTRA:          -8.697
REMARK INTER:                  -6.632
REMARK INTRA:                  -2.065
REMARK UNBOUND:                -2.259
REMARK  Name = resultss/4CJN/ligands/lig_227_t1.pdb
REMARK  11 active torsions:
REMARK  status: ('A' for Active; 'I' for Inactive)
REMARK    1  A    between atoms: C6_8  and  C7_9
REMARK    2  A    between atoms: C11_13  and  C12_14
REMARK    3  A    between atoms: C14_16  and  O3_17
REMARK    4  A    between atoms: O3_17  and  C15_18
REMARK    5  A    between atoms: C15_18  and  C16_20
REMARK    6  A    between atoms: C16_20  and  C21_27
REMARK    7  A    between atoms: C17_21  and  C18_22
REMARK    8  A    between atoms: C18_22  and  O5_23
REMARK    9  A    between atoms: O5_23  and  C19_24
REMARK   10  A    between atoms: C19_24  and  O6_26
REMARK   11  A    between atoms: C21_27  and  O7_28
REMARK                            x       y       z     vdW  Elec       q    Type
REMARK                         _______ _______ _______ _____ _____    ______ ____
ROOT
ATOM      1  C1  UNL     1      27.228 -10.324 -38.511  0.00  0.00    +0.000 C 
ATOM      2  C2  UNL     1      26.809  -9.202 -39.093  0.00  0.00    +0.000 C 
ATOM      3  C3  UNL     1      25.554  -8.535 -38.823  0.00  0.00    +0.000 C 
ATOM      4  O1  UNL     1      24.703  -8.894 -37.966  0.00  0.00    +0.000 OA
ATOM      5  O2  UNL     1      25.380  -7.457 -39.665  0.00  0.00    +0.000 OA
ATOM      6  C4  UNL     1      26.566  -7.230 -40.419  0.00  0.00    +0.000 C 
ATOM      7  C5  UNL     1      26.278  -6.816 -41.845  0.00  0.00    +0.000 C 
ATOM      8  C6  UNL     1      25.805  -7.610 -42.838  0.00  0.00    +0.000 C 
ATOM      9  C7  UNL     1      25.104  -8.923 -42.596  0.00  0.00    +0.000 C 
ATOM     10  C8  UNL     1      26.147  -7.240 -44.271  0.00  0.00    +0.000 C 
ATOM     11  C9  UNL     1      27.581  -7.673 -44.664  0.00  0.00    +0.000 C 
ATOM     12  C10 UNL     1      28.591  -7.265 -43.611  0.00  0.00    +0.000 C 
ATOM     13  C11 UNL     1      29.134  -8.121 -42.714  0.00  0.00    +0.000 C 
ATOM     14  C12 UNL     1      29.279  -9.593 -43.021  0.00  0.00    +0.000 C 
ATOM     15  C13 UNL     1      29.613  -7.586 -41.371  0.00  0.00    +0.000 C 
ATOM     16  C14 UNL     1      28.961  -8.283 -40.143  0.00  0.00    +0.000 C 
ATOM     17  C22 UNL     1      27.432  -8.526 -40.284  0.00  0.00    +0.000 C 
ENDROOT
BRANCH  16  18
ATOM     18  O3  UNL     1      29.210  -7.509 -38.967  0.00  0.00    +0.000 OA
BRANCH  18  19
ATOM     19  C15 UNL     1      30.299  -7.722 -38.114  0.00  0.00    +0.000 C 
ATOM     20  O4  UNL     1      31.260  -6.903 -38.097  0.00  0.00    +0.000 OA
BRANCH  19  21
ATOM     21  C16 UNL     1      30.280  -8.898 -37.213  0.00  0.00    +0.000 C 
ATOM     22  C17 UNL     1      29.533  -8.961 -36.093  0.00  0.00    +0.000 C 
BRANCH  22  23
ATOM     23  C18 UNL     1      28.672  -7.846 -35.572  0.00  0.00    +0.000 C 
BRANCH  23  24
ATOM     24  O5  UNL     1      27.296  -8.159 -35.778  0.00  0.00    +0.000 OA
BRANCH  24  25
ATOM     25  C19 UNL     1      26.503  -8.899 -34.885  0.00  0.00    +0.000 C 
ATOM     26  C20 UNL     1      26.384  -8.581 -33.593  0.00  0.00    +0.000 C 
BRANCH  25  27
ATOM     27  O6  UNL     1      25.811 -10.006 -35.366  0.00  0.00    +0.000 OA
ATOM     28  H24 UNL     1      25.906 -10.296 -36.332  0.00  0.00    +0.000 HD
ENDBRANCH  25  27
ENDBRANCH  24  25
ENDBRANCH  23  24
ENDBRANCH  22  23
BRANCH  21  29
ATOM     29  C21 UNL     1      31.193 -10.051 -37.554  0.00  0.00    +0.000 C 
BRANCH  29  30
ATOM     30  O7  UNL     1      31.646  -9.936 -38.876  0.00  0.00    +0.000 OA
ATOM     31  H27 UNL     1      30.883 -10.186 -39.459  0.00  0.00    +0.000 HD
ENDBRANCH  29  30
ENDBRANCH  21  29
ENDBRANCH  19  21
ENDBRANCH  18  19
ENDBRANCH  16  18
TORSDOF 9
ENDMDL
