MODEL 1
REMARK VINA RESULT:    -7.762      0.000      0.000
REMARK INTER + INTRA:         -10.442
REMARK INTER:                  -9.804
REMARK INTRA:                  -0.638
REMARK UNBOUND:                -0.638
REMARK  Name = resultss/4CJN/ligands/lig_433_t2.pdb
REMARK  5 active torsions:
REMARK  status: ('A' for Active; 'I' for Inactive)
REMARK    1  A    between atoms: C1_2  and  C9_16
REMARK    2  A    between atoms: N1_3  and  N2_4
REMARK    3  A    between atoms: C2_5  and  S1_6
REMARK    4  A    between atoms: N3_7  and  C3_8
REMARK    5  A    between atoms: C19_27  and  C20_28
REMARK                            x       y       z     vdW  Elec       q    Type
REMARK                         _______ _______ _______ _____ _____    ______ ____
ROOT
ATOM      1  C9  UNL     1      28.570  -9.280 -38.696  0.00  0.00    +0.000 A 
ATOM      2  C10 UNL     1      27.999  -9.125 -37.414  0.00  0.00    +0.000 A 
ATOM      3  C11 UNL     1      26.666  -8.738 -37.355  0.00  0.00    +0.000 A 
ATOM      4  C12 UNL     1      25.920  -8.505 -38.490  0.00  0.00    +0.000 A 
ATOM      5  N4  UNL     1      24.635  -8.204 -38.181  0.00  0.00    +0.000 N 
ATOM      6  C13 UNL     1      24.589  -8.234 -36.831  0.00  0.00    +0.000 A 
ATOM      7  C14 UNL     1      23.477  -8.004 -36.022  0.00  0.00    +0.000 A 
ATOM      8  C15 UNL     1      23.643  -8.105 -34.628  0.00  0.00    +0.000 A 
ATOM      9  C16 UNL     1      24.903  -8.436 -34.078  0.00  0.00    +0.000 A 
ATOM     10  C17 UNL     1      26.009  -8.668 -34.914  0.00  0.00    +0.000 A 
ATOM     11  C18 UNL     1      25.816  -8.556 -36.289  0.00  0.00    +0.000 A 
ATOM     12  C19 UNL     1      26.502  -8.647 -39.756  0.00  0.00    +0.000 A 
ATOM     13  N5  UNL     1      27.810  -9.039 -39.812  0.00  0.00    +0.000 NA
ATOM     14  H8  UNL     1      23.838  -8.025 -38.831  0.00  0.00    +0.000 HD
ENDROOT
BRANCH  12  15
ATOM     15  C20 UNL     1      25.766  -8.395 -41.012  0.00  0.00    +0.000 A 
ATOM     16  C21 UNL     1      25.345  -9.477 -41.803  0.00  0.00    +0.000 A 
ATOM     17  C22 UNL     1      24.670  -9.251 -43.006  0.00  0.00    +0.000 A 
ATOM     18  C23 UNL     1      24.423  -7.944 -43.436  0.00  0.00    +0.000 A 
ATOM     19  C24 UNL     1      24.857  -6.862 -42.667  0.00  0.00    +0.000 A 
ATOM     20  C25 UNL     1      25.531  -7.083 -41.463  0.00  0.00    +0.000 A 
ENDBRANCH  12  15
BRANCH   1  22
ATOM     21  O1  UNL     1      30.628 -10.107 -37.850  0.00  0.00    +0.000 OA
ATOM     22  C1  UNL     1      29.981  -9.691 -38.850  0.00  0.00    +0.000 C 
ATOM     23  N1  UNL     1      30.614  -9.644 -40.139  0.00  0.00    +0.000 N 
ATOM     24  H1  UNL     1      30.015  -9.655 -40.995  0.00  0.00    +0.000 HD
BRANCH  23  25
ATOM     25  N2  UNL     1      32.003  -9.800 -40.302  0.00  0.00    +0.000 N 
ATOM     26  C2  UNL     1      32.585 -10.363 -41.485  0.00  0.00    +0.000 C 
ATOM     27  N3  UNL     1      31.825 -10.960 -42.358  0.00  0.00    +0.000 NA
ATOM     28  H2  UNL     1      32.621  -9.639 -39.476  0.00  0.00    +0.000 HD
BRANCH  27  29
ATOM     29  C3  UNL     1      32.240 -11.544 -43.602  0.00  0.00    +0.000 A 
ATOM     30  C4  UNL     1      32.202 -12.934 -43.808  0.00  0.00    +0.000 A 
ATOM     31  C5  UNL     1      32.662 -13.480 -45.011  0.00  0.00    +0.000 A 
ATOM     32  C6  UNL     1      33.183 -12.645 -46.004  0.00  0.00    +0.000 A 
ATOM     33  F1  UNL     1      33.632 -13.177 -47.167  0.00  0.00    +0.000 F 
ATOM     34  C7  UNL     1      33.256 -11.265 -45.791  0.00  0.00    +0.000 A 
ATOM     35  F2  UNL     1      33.779 -10.455 -46.744  0.00  0.00    +0.000 F 
ATOM     36  C8  UNL     1      32.796 -10.718 -44.587  0.00  0.00    +0.000 A 
ENDBRANCH  27  29
BRANCH  26  37
ATOM     37  S1  UNL     1      34.380 -10.366 -41.630  0.00  0.00    +0.000 S 
ATOM     38  H3  UNL     1      34.355  -9.334 -42.587  0.00  0.00    +0.000 HD
ENDBRANCH  26  37
ENDBRANCH  23  25
ENDBRANCH   1  22
TORSDOF 5
ENDMDL
MODEL 2
REMARK VINA RESULT:    -6.986      5.147      9.457
REMARK INTER + INTRA:          -9.461
REMARK INTER:                  -8.600
REMARK INTRA:                  -0.862
REMARK UNBOUND:                -0.638
REMARK  Name = resultss/4CJN/ligands/lig_433_t2.pdb
REMARK  5 active torsions:
REMARK  status: ('A' for Active; 'I' for Inactive)
REMARK    1  A    between atoms: C1_2  and  C9_16
REMARK    2  A    between atoms: N1_3  and  N2_4
REMARK    3  A    between atoms: C2_5  and  S1_6
REMARK    4  A    between atoms: N3_7  and  C3_8
REMARK    5  A    between atoms: C19_27  and  C20_28
REMARK                            x       y       z     vdW  Elec       q    Type
REMARK                         _______ _______ _______ _____ _____    ______ ____
ROOT
ATOM      1  C9  UNL     1      30.472  -9.191 -39.458  0.00  0.00    +0.000 A 
ATOM      2  C10 UNL     1      29.472  -8.317 -39.935  0.00  0.00    +0.000 A 
ATOM      3  C11 UNL     1      29.200  -8.347 -41.297  0.00  0.00    +0.000 A 
ATOM      4  C12 UNL     1      29.874  -9.182 -42.161  0.00  0.00    +0.000 A 
ATOM      5  N4  UNL     1      29.391  -9.078 -43.423  0.00  0.00    +0.000 N 
ATOM      6  C13 UNL     1      28.412  -8.150 -43.343  0.00  0.00    +0.000 A 
ATOM      7  C14 UNL     1      27.597  -7.696 -44.378  0.00  0.00    +0.000 A 
ATOM      8  C15 UNL     1      26.618  -6.732 -44.073  0.00  0.00    +0.000 A 
ATOM      9  C16 UNL     1      26.473  -6.251 -42.751  0.00  0.00    +0.000 A 
ATOM     10  C17 UNL     1      27.304  -6.727 -41.722  0.00  0.00    +0.000 A 
ATOM     11  C18 UNL     1      28.267  -7.677 -42.055  0.00  0.00    +0.000 A 
ATOM     12  C19 UNL     1      30.877 -10.032 -41.678  0.00  0.00    +0.000 A 
ATOM     13  N5  UNL     1      31.135 -10.011 -40.336  0.00  0.00    +0.000 NA
ATOM     14  H8  UNL     1      29.675  -9.617 -44.271  0.00  0.00    +0.000 HD
ENDROOT
BRANCH  12  15
ATOM     15  C20 UNL     1      31.651 -10.938 -42.551  0.00  0.00    +0.000 A 
ATOM     16  C21 UNL     1      32.930 -10.558 -42.992  0.00  0.00    +0.000 A 
ATOM     17  C22 UNL     1      33.662 -11.395 -43.840  0.00  0.00    +0.000 A 
ATOM     18  C23 UNL     1      33.118 -12.611 -44.263  0.00  0.00    +0.000 A 
ATOM     19  C24 UNL     1      31.839 -12.987 -43.847  0.00  0.00    +0.000 A 
ATOM     20  C25 UNL     1      31.104 -12.154 -43.000  0.00  0.00    +0.000 A 
ENDBRANCH  12  15
BRANCH   1  22
ATOM     21  O1  UNL     1      31.708 -10.026 -37.611  0.00  0.00    +0.000 OA
ATOM     22  C1  UNL     1      30.824  -9.226 -38.022  0.00  0.00    +0.000 C 
ATOM     23  N1  UNL     1      30.181  -8.336 -37.096  0.00  0.00    +0.000 N 
ATOM     24  H1  UNL     1      29.741  -7.462 -37.460  0.00  0.00    +0.000 HD
BRANCH  23  25
ATOM     25  N2  UNL     1      30.305  -8.482 -35.702  0.00  0.00    +0.000 N 
ATOM     26  C2  UNL     1      29.173  -8.599 -34.831  0.00  0.00    +0.000 C 
ATOM     27  N3  UNL     1      27.979  -8.344 -35.287  0.00  0.00    +0.000 NA
ATOM     28  H2  UNL     1      31.248  -8.352 -35.271  0.00  0.00    +0.000 HD
BRANCH  27  29
ATOM     29  C3  UNL     1      26.744  -8.443 -34.564  0.00  0.00    +0.000 A 
ATOM     30  C4  UNL     1      26.062  -9.666 -34.442  0.00  0.00    +0.000 A 
ATOM     31  C5  UNL     1      24.833  -9.724 -33.777  0.00  0.00    +0.000 A 
ATOM     32  C6  UNL     1      24.267  -8.559 -33.249  0.00  0.00    +0.000 A 
ATOM     33  F1  UNL     1      23.074  -8.617 -32.608  0.00  0.00    +0.000 F 
ATOM     34  C7  UNL     1      24.924  -7.333 -33.398  0.00  0.00    +0.000 A 
ATOM     35  F2  UNL     1      24.368  -6.199 -32.905  0.00  0.00    +0.000 F 
ATOM     36  C8  UNL     1      26.154  -7.275 -34.064  0.00  0.00    +0.000 A 
ENDBRANCH  27  29
BRANCH  26  37
ATOM     37  S1  UNL     1      29.471  -8.934 -33.088  0.00  0.00    +0.000 S 
ATOM     38  H3  UNL     1      28.190  -8.476 -32.729  0.00  0.00    +0.000 HD
ENDBRANCH  26  37
ENDBRANCH  23  25
ENDBRANCH   1  22
TORSDOF 5
ENDMDL
MODEL 3
REMARK VINA RESULT:    -6.942      4.601      7.776
REMARK INTER + INTRA:          -9.406
REMARK INTER:                  -9.122
REMARK INTRA:                  -0.284
REMARK UNBOUND:                -0.638
REMARK  Name = resultss/4CJN/ligands/lig_433_t2.pdb
REMARK  5 active torsions:
REMARK  status: ('A' for Active; 'I' for Inactive)
REMARK    1  A    between atoms: C1_2  and  C9_16
REMARK    2  A    between atoms: N1_3  and  N2_4
REMARK    3  A    between atoms: C2_5  and  S1_6
REMARK    4  A    between atoms: N3_7  and  C3_8
REMARK    5  A    between atoms: C19_27  and  C20_28
REMARK                            x       y       z     vdW  Elec       q    Type
REMARK                         _______ _______ _______ _____ _____    ______ ____
ROOT
ATOM      1  C9  UNL     1      23.179  -7.297 -42.598  0.00  0.00    +0.000 A 
ATOM      2  C10 UNL     1      21.790  -7.139 -42.793  0.00  0.00    +0.000 A 
ATOM      3  C11 UNL     1      21.350  -6.941 -44.097  0.00  0.00    +0.000 A 
ATOM      4  C12 UNL     1      22.220  -6.890 -45.163  0.00  0.00    +0.000 A 
ATOM      5  N4  UNL     1      21.554  -6.753 -46.336  0.00  0.00    +0.000 N 
ATOM      6  C13 UNL     1      20.250  -6.700 -45.987  0.00  0.00    +0.000 A 
ATOM      7  C14 UNL     1      19.155  -6.576 -46.841  0.00  0.00    +0.000 A 
ATOM      8  C15 UNL     1      17.870  -6.561 -46.268  0.00  0.00    +0.000 A 
ATOM      9  C16 UNL     1      17.707  -6.675 -44.869  0.00  0.00    +0.000 A 
ATOM     10  C17 UNL     1      18.826  -6.804 -44.027  0.00  0.00    +0.000 A 
ATOM     11  C18 UNL     1      20.085  -6.810 -44.622  0.00  0.00    +0.000 A 
ATOM     12  C19 UNL     1      23.598  -7.030 -44.955  0.00  0.00    +0.000 A 
ATOM     13  N5  UNL     1      24.028  -7.238 -43.674  0.00  0.00    +0.000 NA
ATOM     14  H8  UNL     1      21.945  -6.730 -47.303  0.00  0.00    +0.000 HD
ENDROOT
BRANCH  12  15
ATOM     15  C20 UNL     1      24.587  -6.967 -46.050  0.00  0.00    +0.000 A 
ATOM     16  C21 UNL     1      25.959  -7.037 -45.756  0.00  0.00    +0.000 A 
ATOM     17  C22 UNL     1      26.906  -6.952 -46.782  0.00  0.00    +0.000 A 
ATOM     18  C23 UNL     1      26.491  -6.783 -48.105  0.00  0.00    +0.000 A 
ATOM     19  C24 UNL     1      25.130  -6.690 -48.405  0.00  0.00    +0.000 A 
ATOM     20  C25 UNL     1      24.180  -6.776 -47.383  0.00  0.00    +0.000 A 
ENDBRANCH  12  15
BRANCH   1  22
ATOM     21  O1  UNL     1      24.019  -6.526 -40.516  0.00  0.00    +0.000 OA
ATOM     22  C1  UNL     1      23.732  -7.515 -41.245  0.00  0.00    +0.000 C 
ATOM     23  N1  UNL     1      23.920  -8.848 -40.744  0.00  0.00    +0.000 N 
ATOM     24  H1  UNL     1      23.370  -9.628 -41.168  0.00  0.00    +0.000 HD
BRANCH  23  25
ATOM     25  N2  UNL     1      24.649  -9.116 -39.571  0.00  0.00    +0.000 N 
ATOM     26  C2  UNL     1      26.075  -9.260 -39.560  0.00  0.00    +0.000 C 
ATOM     27  N3  UNL     1      26.721  -9.374 -40.686  0.00  0.00    +0.000 NA
ATOM     28  H2  UNL     1      24.121  -9.364 -38.704  0.00  0.00    +0.000 HD
BRANCH  27  29
ATOM     29  C3  UNL     1      28.141  -9.492 -40.854  0.00  0.00    +0.000 A 
ATOM     30  C4  UNL     1      29.006  -8.423 -40.563  0.00  0.00    +0.000 A 
ATOM     31  C5  UNL     1      30.381  -8.549 -40.786  0.00  0.00    +0.000 A 
ATOM     32  C6  UNL     1      30.897  -9.732 -41.322  0.00  0.00    +0.000 A 
ATOM     33  F1  UNL     1      32.230  -9.850 -41.541  0.00  0.00    +0.000 F 
ATOM     34  C7  UNL     1      30.038 -10.786 -41.648  0.00  0.00    +0.000 A 
ATOM     35  F2  UNL     1      30.534 -11.928 -42.186  0.00  0.00    +0.000 F 
ATOM     36  C8  UNL     1      28.662 -10.662 -41.424  0.00  0.00    +0.000 A 
ENDBRANCH  27  29
BRANCH  26  37
ATOM     37  S1  UNL     1      26.899  -9.449 -37.971  0.00  0.00    +0.000 S 
ATOM     38  H3  UNL     1      27.026 -10.840 -38.145  0.00  0.00    +0.000 HD
ENDBRANCH  26  37
ENDBRANCH  23  25
ENDBRANCH   1  22
TORSDOF 5
ENDMDL
MODEL 4
REMARK VINA RESULT:    -6.879      5.018      9.408
REMARK INTER + INTRA:          -9.327
REMARK INTER:                  -8.570
REMARK INTRA:                  -0.757
REMARK UNBOUND:                -0.638
REMARK  Name = resultss/4CJN/ligands/lig_433_t2.pdb
REMARK  5 active torsions:
REMARK  status: ('A' for Active; 'I' for Inactive)
REMARK    1  A    between atoms: C1_2  and  C9_16
REMARK    2  A    between atoms: N1_3  and  N2_4
REMARK    3  A    between atoms: C2_5  and  S1_6
REMARK    4  A    between atoms: N3_7  and  C3_8
REMARK    5  A    between atoms: C19_27  and  C20_28
REMARK                            x       y       z     vdW  Elec       q    Type
REMARK                         _______ _______ _______ _____ _____    ______ ____
ROOT
ATOM      1  C9  UNL     1      30.799  -9.249 -39.051  0.00  0.00    +0.000 A 
ATOM      2  C10 UNL     1      31.886  -9.643 -39.861  0.00  0.00    +0.000 A 
ATOM      3  C11 UNL     1      31.601 -10.008 -41.171  0.00  0.00    +0.000 A 
ATOM      4  C12 UNL     1      30.318 -10.000 -41.671  0.00  0.00    +0.000 A 
ATOM      5  N4  UNL     1      30.300 -10.331 -42.985  0.00  0.00    +0.000 N 
ATOM      6  C13 UNL     1      31.593 -10.566 -43.300  0.00  0.00    +0.000 A 
ATOM      7  C14 UNL     1      32.103 -10.929 -44.545  0.00  0.00    +0.000 A 
ATOM      8  C15 UNL     1      33.494 -11.107 -44.661  0.00  0.00    +0.000 A 
ATOM      9  C16 UNL     1      34.338 -10.914 -43.543  0.00  0.00    +0.000 A 
ATOM     10  C17 UNL     1      33.801 -10.543 -42.298  0.00  0.00    +0.000 A 
ATOM     11  C18 UNL     1      32.420 -10.380 -42.212  0.00  0.00    +0.000 A 
ATOM     12  C19 UNL     1      29.245  -9.624 -40.852  0.00  0.00    +0.000 A 
ATOM     13  N5  UNL     1      29.528  -9.252 -39.568  0.00  0.00    +0.000 NA
ATOM     14  H8  UNL     1      29.482 -10.365 -43.633  0.00  0.00    +0.000 HD
ENDROOT
BRANCH  12  15
ATOM     15  C20 UNL     1      27.844  -9.611 -41.319  0.00  0.00    +0.000 A 
ATOM     16  C21 UNL     1      26.888 -10.418 -40.680  0.00  0.00    +0.000 A 
ATOM     17  C22 UNL     1      25.564 -10.434 -41.129  0.00  0.00    +0.000 A 
ATOM     18  C23 UNL     1      25.187  -9.655 -42.226  0.00  0.00    +0.000 A 
ATOM     19  C24 UNL     1      26.136  -8.866 -42.882  0.00  0.00    +0.000 A 
ATOM     20  C25 UNL     1      27.460  -8.847 -42.436  0.00  0.00    +0.000 A 
ENDBRANCH  12  15
BRANCH   1  22
ATOM     21  O1  UNL     1      31.691  -9.575 -36.875  0.00  0.00    +0.000 OA
ATOM     22  C1  UNL     1      31.012  -8.842 -37.645  0.00  0.00    +0.000 C 
ATOM     23  N1  UNL     1      30.471  -7.603 -37.159  0.00  0.00    +0.000 N 
ATOM     24  H1  UNL     1      30.237  -6.852 -37.845  0.00  0.00    +0.000 HD
BRANCH  23  25
ATOM     25  N2  UNL     1      30.445  -7.280 -35.790  0.00  0.00    +0.000 N 
ATOM     26  C2  UNL     1      29.325  -7.574 -34.946  0.00  0.00    +0.000 C 
ATOM     27  N3  UNL     1      28.197  -7.951 -35.477  0.00  0.00    +0.000 NA
ATOM     28  H2  UNL     1      31.204  -6.672 -35.409  0.00  0.00    +0.000 HD
BRANCH  27  29
ATOM     29  C3  UNL     1      26.997  -8.313 -34.780  0.00  0.00    +0.000 A 
ATOM     30  C4  UNL     1      26.600  -9.655 -34.651  0.00  0.00    +0.000 A 
ATOM     31  C5  UNL     1      25.398  -9.976 -34.012  0.00  0.00    +0.000 A 
ATOM     32  C6  UNL     1      24.575  -8.959 -33.518  0.00  0.00    +0.000 A 
ATOM     33  F1  UNL     1      23.408  -9.273 -32.903  0.00  0.00    +0.000 F 
ATOM     34  C7  UNL     1      24.947  -7.621 -33.675  0.00  0.00    +0.000 A 
ATOM     35  F2  UNL     1      24.141  -6.632 -33.214  0.00  0.00    +0.000 F 
ATOM     36  C8  UNL     1      26.150  -7.299 -34.314  0.00  0.00    +0.000 A 
ENDBRANCH  27  29
BRANCH  26  37
ATOM     37  S1  UNL     1      29.480  -7.246 -33.182  0.00  0.00    +0.000 S 
ATOM     38  H3  UNL     1      30.885  -7.276 -33.249  0.00  0.00    +0.000 HD
ENDBRANCH  26  37
ENDBRANCH  23  25
ENDBRANCH   1  22
TORSDOF 5
ENDMDL
MODEL 5
REMARK VINA RESULT:    -6.858      5.064      9.503
REMARK INTER + INTRA:          -9.300
REMARK INTER:                  -8.640
REMARK INTRA:                  -0.661
REMARK UNBOUND:                -0.638
REMARK  Name = resultss/4CJN/ligands/lig_433_t2.pdb
REMARK  5 active torsions:
REMARK  status: ('A' for Active; 'I' for Inactive)
REMARK    1  A    between atoms: C1_2  and  C9_16
REMARK    2  A    between atoms: N1_3  and  N2_4
REMARK    3  A    between atoms: C2_5  and  S1_6
REMARK    4  A    between atoms: N3_7  and  C3_8
REMARK    5  A    between atoms: C19_27  and  C20_28
REMARK                            x       y       z     vdW  Elec       q    Type
REMARK                         _______ _______ _______ _____ _____    ______ ____
ROOT
ATOM      1  C9  UNL     1      25.682  -7.730 -41.360  0.00  0.00    +0.000 A 
ATOM      2  C10 UNL     1      25.327  -7.143 -42.593  0.00  0.00    +0.000 A 
ATOM      3  C11 UNL     1      26.249  -7.236 -43.629  0.00  0.00    +0.000 A 
ATOM      4  C12 UNL     1      27.465  -7.863 -43.473  0.00  0.00    +0.000 A 
ATOM      5  N4  UNL     1      28.162  -7.882 -44.635  0.00  0.00    +0.000 N 
ATOM      6  C13 UNL     1      27.371  -7.240 -45.522  0.00  0.00    +0.000 A 
ATOM      7  C14 UNL     1      27.636  -7.007 -46.871  0.00  0.00    +0.000 A 
ATOM      8  C15 UNL     1      26.660  -6.331 -47.627  0.00  0.00    +0.000 A 
ATOM      9  C16 UNL     1      25.451  -5.911 -47.027  0.00  0.00    +0.000 A 
ATOM     10  C17 UNL     1      25.204  -6.160 -45.666  0.00  0.00    +0.000 A 
ATOM     11  C18 UNL     1      26.190  -6.827 -44.941  0.00  0.00    +0.000 A 
ATOM     12  C19 UNL     1      27.814  -8.427 -42.239  0.00  0.00    +0.000 A 
ATOM     13  N5  UNL     1      26.901  -8.346 -41.225  0.00  0.00    +0.000 NA
ATOM     14  H8  UNL     1      29.088  -8.324 -44.828  0.00  0.00    +0.000 HD
ENDROOT
BRANCH  12  15
ATOM     15  C20 UNL     1      29.107  -9.097 -41.997  0.00  0.00    +0.000 A 
ATOM     16  C21 UNL     1      29.387 -10.323 -42.625  0.00  0.00    +0.000 A 
ATOM     17  C22 UNL     1      30.597 -10.979 -42.384  0.00  0.00    +0.000 A 
ATOM     18  C23 UNL     1      31.532 -10.425 -41.506  0.00  0.00    +0.000 A 
ATOM     19  C24 UNL     1      31.254  -9.218 -40.860  0.00  0.00    +0.000 A 
ATOM     20  C25 UNL     1      30.046  -8.558 -41.098  0.00  0.00    +0.000 A 
ENDBRANCH  12  15
BRANCH   1  22
ATOM     21  O1  UNL     1      23.860  -6.798 -40.158  0.00  0.00    +0.000 OA
ATOM     22  C1  UNL     1      24.760  -7.680 -40.206  0.00  0.00    +0.000 C 
ATOM     23  N1  UNL     1      24.866  -8.649 -39.150  0.00  0.00    +0.000 N 
ATOM     24  H1  UNL     1      25.338  -9.559 -39.347  0.00  0.00    +0.000 HD
BRANCH  23  25
ATOM     25  N2  UNL     1      24.175  -8.512 -37.932  0.00  0.00    +0.000 N 
ATOM     26  C2  UNL     1      24.846  -8.368 -36.673  0.00  0.00    +0.000 C 
ATOM     27  N3  UNL     1      26.128  -8.588 -36.595  0.00  0.00    +0.000 NA
ATOM     28  H2  UNL     1      23.142  -8.671 -37.925  0.00  0.00    +0.000 HD
BRANCH  27  29
ATOM     29  C3  UNL     1      26.952  -8.458 -35.429  0.00  0.00    +0.000 A 
ATOM     30  C4  UNL     1      27.081  -7.231 -34.755  0.00  0.00    +0.000 A 
ATOM     31  C5  UNL     1      27.934  -7.119 -33.652  0.00  0.00    +0.000 A 
ATOM     32  C6  UNL     1      28.679  -8.224 -33.229  0.00  0.00    +0.000 A 
ATOM     33  F1  UNL     1      29.508  -8.112 -32.162  0.00  0.00    +0.000 F 
ATOM     34  C7  UNL     1      28.583  -9.438 -33.917  0.00  0.00    +0.000 A 
ATOM     35  F2  UNL     1      29.319 -10.505 -33.522  0.00  0.00    +0.000 F 
ATOM     36  C8  UNL     1      27.729  -9.550 -35.021  0.00  0.00    +0.000 A 
ENDBRANCH  27  29
BRANCH  26  37
ATOM     37  S1  UNL     1      23.847  -8.050 -35.209  0.00  0.00    +0.000 S 
ATOM     38  H3  UNL     1      23.729  -9.424 -34.929  0.00  0.00    +0.000 HD
ENDBRANCH  26  37
ENDBRANCH  23  25
ENDBRANCH   1  22
TORSDOF 5
ENDMDL
MODEL 6
REMARK VINA RESULT:    -6.784      3.139      5.612
REMARK INTER + INTRA:          -9.206
REMARK INTER:                  -8.485
REMARK INTRA:                  -0.721
REMARK UNBOUND:                -0.638
REMARK  Name = resultss/4CJN/ligands/lig_433_t2.pdb
REMARK  5 active torsions:
REMARK  status: ('A' for Active; 'I' for Inactive)
REMARK    1  A    between atoms: C1_2  and  C9_16
REMARK    2  A    between atoms: N1_3  and  N2_4
REMARK    3  A    between atoms: C2_5  and  S1_6
REMARK    4  A    between atoms: N3_7  and  C3_8
REMARK    5  A    between atoms: C19_27  and  C20_28
REMARK                            x       y       z     vdW  Elec       q    Type
REMARK                         _______ _______ _______ _____ _____    ______ ____
ROOT
ATOM      1  C9  UNL     1      27.532  -8.397 -37.338  0.00  0.00    +0.000 A 
ATOM      2  C10 UNL     1      28.812  -8.717 -36.835  0.00  0.00    +0.000 A 
ATOM      3  C11 UNL     1      28.935  -8.861 -35.459  0.00  0.00    +0.000 A 
ATOM      4  C12 UNL     1      27.866  -8.694 -34.607  0.00  0.00    +0.000 A 
ATOM      5  N4  UNL     1      28.216  -8.948 -33.322  0.00  0.00    +0.000 N 
ATOM      6  C13 UNL     1      29.529  -9.260 -33.377  0.00  0.00    +0.000 A 
ATOM      7  C14 UNL     1      30.355  -9.615 -32.312  0.00  0.00    +0.000 A 
ATOM      8  C15 UNL     1      31.699  -9.924 -32.595  0.00  0.00    +0.000 A 
ATOM      9  C16 UNL     1      32.183  -9.877 -33.922  0.00  0.00    +0.000 A 
ATOM     10  C17 UNL     1      31.329  -9.521 -34.982  0.00  0.00    +0.000 A 
ATOM     11  C18 UNL     1      30.006  -9.215 -34.671  0.00  0.00    +0.000 A 
ATOM     12  C19 UNL     1      26.604  -8.360 -35.116  0.00  0.00    +0.000 A 
ATOM     13  N5  UNL     1      26.482  -8.231 -36.471  0.00  0.00    +0.000 NA
ATOM     14  H8  UNL     1      27.609  -8.944 -32.473  0.00  0.00    +0.000 HD
ENDROOT
BRANCH  12  15
ATOM     15  C20 UNL     1      25.421  -8.148 -34.258  0.00  0.00    +0.000 A 
ATOM     16  C21 UNL     1      24.768  -9.252 -33.685  0.00  0.00    +0.000 A 
ATOM     17  C22 UNL     1      23.632  -9.066 -32.891  0.00  0.00    +0.000 A 
ATOM     18  C23 UNL     1      23.130  -7.780 -32.677  0.00  0.00    +0.000 A 
ATOM     19  C24 UNL     1      23.759  -6.678 -33.262  0.00  0.00    +0.000 A 
ATOM     20  C25 UNL     1      24.896  -6.859 -34.054  0.00  0.00    +0.000 A 
ENDBRANCH  12  15
BRANCH   1  22
ATOM     21  O1  UNL     1      26.239  -8.635 -39.314  0.00  0.00    +0.000 OA
ATOM     22  C1  UNL     1      27.312  -8.229 -38.791  0.00  0.00    +0.000 C 
ATOM     23  N1  UNL     1      28.302  -7.580 -39.604  0.00  0.00    +0.000 N 
ATOM     24  H1  UNL     1      28.990  -6.942 -39.147  0.00  0.00    +0.000 HD
BRANCH  23  25
ATOM     25  N2  UNL     1      28.250  -7.598 -41.010  0.00  0.00    +0.000 N 
ATOM     26  C2  UNL     1      29.013  -8.518 -41.802  0.00  0.00    +0.000 C 
ATOM     27  N3  UNL     1      29.958  -9.221 -41.244  0.00  0.00    +0.000 NA
ATOM     28  H2  UNL     1      27.754  -6.819 -41.499  0.00  0.00    +0.000 HD
BRANCH  27  29
ATOM     29  C3  UNL     1      30.787 -10.203 -41.881  0.00  0.00    +0.000 A 
ATOM     30  C4  UNL     1      30.244 -11.377 -42.430  0.00  0.00    +0.000 A 
ATOM     31  C5  UNL     1      31.082 -12.343 -42.997  0.00  0.00    +0.000 A 
ATOM     32  C6  UNL     1      32.467 -12.153 -42.999  0.00  0.00    +0.000 A 
ATOM     33  F1  UNL     1      33.277 -13.092 -43.546  0.00  0.00    +0.000 F 
ATOM     34  C7  UNL     1      33.016 -11.004 -42.422  0.00  0.00    +0.000 A 
ATOM     35  F2  UNL     1      34.360 -10.826 -42.405  0.00  0.00    +0.000 F 
ATOM     36  C8  UNL     1      32.178 -10.037 -41.854  0.00  0.00    +0.000 A 
ENDBRANCH  27  29
BRANCH  26  37
ATOM     37  S1  UNL     1      28.740  -8.538 -43.581  0.00  0.00    +0.000 S 
ATOM     38  H3  UNL     1      29.374  -7.292 -43.743  0.00  0.00    +0.000 HD
ENDBRANCH  26  37
ENDBRANCH  23  25
ENDBRANCH   1  22
TORSDOF 5
ENDMDL
MODEL 7
REMARK VINA RESULT:    -6.760      4.758      7.627
REMARK INTER + INTRA:          -9.176
REMARK INTER:                  -8.212
REMARK INTRA:                  -0.964
REMARK UNBOUND:                -0.638
REMARK  Name = resultss/4CJN/ligands/lig_433_t2.pdb
REMARK  5 active torsions:
REMARK  status: ('A' for Active; 'I' for Inactive)
REMARK    1  A    between atoms: C1_2  and  C9_16
REMARK    2  A    between atoms: N1_3  and  N2_4
REMARK    3  A    between atoms: C2_5  and  S1_6
REMARK    4  A    between atoms: N3_7  and  C3_8
REMARK    5  A    between atoms: C19_27  and  C20_28
REMARK                            x       y       z     vdW  Elec       q    Type
REMARK                         _______ _______ _______ _____ _____    ______ ____
ROOT
ATOM      1  C9  UNL     1      30.504  -9.338 -36.748  0.00  0.00    +0.000 A 
ATOM      2  C10 UNL     1      31.632  -9.535 -35.923  0.00  0.00    +0.000 A 
ATOM      3  C11 UNL     1      31.411  -9.620 -34.554  0.00  0.00    +0.000 A 
ATOM      4  C12 UNL     1      30.151  -9.510 -34.008  0.00  0.00    +0.000 A 
ATOM      5  N4  UNL     1      30.180  -9.689 -32.665  0.00  0.00    +0.000 N 
ATOM      6  C13 UNL     1      31.482  -9.895 -32.372  0.00  0.00    +0.000 A 
ATOM      7  C14 UNL     1      32.033 -10.144 -31.116  0.00  0.00    +0.000 A 
ATOM      8  C15 UNL     1      33.423 -10.353 -31.034  0.00  0.00    +0.000 A 
ATOM      9  C16 UNL     1      34.224 -10.314 -32.199  0.00  0.00    +0.000 A 
ATOM     10  C17 UNL     1      33.645 -10.066 -33.456  0.00  0.00    +0.000 A 
ATOM     11  C18 UNL     1      32.268  -9.858 -33.505  0.00  0.00    +0.000 A 
ATOM     12  C19 UNL     1      29.041  -9.297 -34.835  0.00  0.00    +0.000 A 
ATOM     13  N5  UNL     1      29.259  -9.227 -36.183  0.00  0.00    +0.000 NA
ATOM     14  H8  UNL     1      29.378  -9.704 -31.997  0.00  0.00    +0.000 HD
ENDROOT
BRANCH  12  15
ATOM     15  C20 UNL     1      27.666  -9.152 -34.315  0.00  0.00    +0.000 A 
ATOM     16  C21 UNL     1      26.729 -10.177 -34.524  0.00  0.00    +0.000 A 
ATOM     17  C22 UNL     1      25.417 -10.040 -34.058  0.00  0.00    +0.000 A 
ATOM     18  C23 UNL     1      25.029  -8.874 -33.393  0.00  0.00    +0.000 A 
ATOM     19  C24 UNL     1      25.948  -7.840 -33.200  0.00  0.00    +0.000 A 
ATOM     20  C25 UNL     1      27.260  -7.973 -33.663  0.00  0.00    +0.000 A 
ENDBRANCH  12  15
BRANCH   1  22
ATOM     21  O1  UNL     1      31.098  -8.180 -38.734  0.00  0.00    +0.000 OA
ATOM     22  C1  UNL     1      30.648  -9.239 -38.216  0.00  0.00    +0.000 C 
ATOM     23  N1  UNL     1      30.305 -10.353 -39.055  0.00  0.00    +0.000 N 
ATOM     24  H1  UNL     1      30.286 -11.311 -38.639  0.00  0.00    +0.000 HD
BRANCH  23  25
ATOM     25  N2  UNL     1      30.203 -10.239 -40.454  0.00  0.00    +0.000 N 
ATOM     26  C2  UNL     1      29.016  -9.775 -41.109  0.00  0.00    +0.000 C 
ATOM     27  N3  UNL     1      27.908  -9.660 -40.433  0.00  0.00    +0.000 NA
ATOM     28  H2  UNL     1      30.965 -10.645 -41.042  0.00  0.00    +0.000 HD
BRANCH  27  29
ATOM     29  C3  UNL     1      26.647  -9.184 -40.925  0.00  0.00    +0.000 A 
ATOM     30  C4  UNL     1      25.751 -10.036 -41.592  0.00  0.00    +0.000 A 
ATOM     31  C5  UNL     1      24.552  -9.533 -42.108  0.00  0.00    +0.000 A 
ATOM     32  C6  UNL     1      24.252  -8.173 -41.980  0.00  0.00    +0.000 A 
ATOM     33  F1  UNL     1      23.091  -7.688 -42.485  0.00  0.00    +0.000 F 
ATOM     34  C7  UNL     1      25.156  -7.313 -41.350  0.00  0.00    +0.000 A 
ATOM     35  F2  UNL     1      24.877  -5.991 -41.242  0.00  0.00    +0.000 F 
ATOM     36  C8  UNL     1      26.356  -7.816 -40.833  0.00  0.00    +0.000 A 
ENDBRANCH  27  29
BRANCH  26  37
ATOM     37  S1  UNL     1      29.069  -9.531 -42.892  0.00  0.00    +0.000 S 
ATOM     38  H3  UNL     1      29.479 -10.859 -43.113  0.00  0.00    +0.000 HD
ENDBRANCH  26  37
ENDBRANCH  23  25
ENDBRANCH   1  22
TORSDOF 5
ENDMDL
MODEL 8
REMARK VINA RESULT:    -6.677      3.047      5.510
REMARK INTER + INTRA:          -9.071
REMARK INTER:                  -8.159
REMARK INTRA:                  -0.912
REMARK UNBOUND:                -0.638
REMARK  Name = resultss/4CJN/ligands/lig_433_t2.pdb
REMARK  5 active torsions:
REMARK  status: ('A' for Active; 'I' for Inactive)
REMARK    1  A    between atoms: C1_2  and  C9_16
REMARK    2  A    between atoms: N1_3  and  N2_4
REMARK    3  A    between atoms: C2_5  and  S1_6
REMARK    4  A    between atoms: N3_7  and  C3_8
REMARK    5  A    between atoms: C19_27  and  C20_28
REMARK                            x       y       z     vdW  Elec       q    Type
REMARK                         _______ _______ _______ _____ _____    ______ ____
ROOT
ATOM      1  C9  UNL     1      27.849  -8.011 -37.356  0.00  0.00    +0.000 A 
ATOM      2  C10 UNL     1      26.470  -8.027 -37.058  0.00  0.00    +0.000 A 
ATOM      3  C11 UNL     1      26.109  -8.216 -35.729  0.00  0.00    +0.000 A 
ATOM      4  C12 UNL     1      27.045  -8.389 -34.734  0.00  0.00    +0.000 A 
ATOM      5  N4  UNL     1      26.457  -8.489 -33.517  0.00  0.00    +0.000 N 
ATOM      6  C13 UNL     1      25.132  -8.394 -33.765  0.00  0.00    +0.000 A 
ATOM      7  C14 UNL     1      24.097  -8.426 -32.832  0.00  0.00    +0.000 A 
ATOM      8  C15 UNL     1      22.779  -8.289 -33.305  0.00  0.00    +0.000 A 
ATOM      9  C16 UNL     1      22.525  -8.118 -34.686  0.00  0.00    +0.000 A 
ATOM     10  C17 UNL     1      23.586  -8.083 -35.608  0.00  0.00    +0.000 A 
ATOM     11  C18 UNL     1      24.880  -8.227 -35.111  0.00  0.00    +0.000 A 
ATOM     12  C19 UNL     1      28.411  -8.388 -35.044  0.00  0.00    +0.000 A 
ATOM     13  N5  UNL     1      28.765  -8.190 -36.349  0.00  0.00    +0.000 NA
ATOM     14  H8  UNL     1      26.914  -8.581 -32.583  0.00  0.00    +0.000 HD
ENDROOT
BRANCH  12  15
ATOM     15  C20 UNL     1      29.466  -8.587 -34.030  0.00  0.00    +0.000 A 
ATOM     16  C21 UNL     1      29.975  -7.483 -33.326  0.00  0.00    +0.000 A 
ATOM     17  C22 UNL     1      30.991  -7.655 -32.381  0.00  0.00    +0.000 A 
ATOM     18  C23 UNL     1      31.517  -8.927 -32.143  0.00  0.00    +0.000 A 
ATOM     19  C24 UNL     1      31.034 -10.028 -32.854  0.00  0.00    +0.000 A 
ATOM     20  C25 UNL     1      30.017  -9.861 -33.798  0.00  0.00    +0.000 A 
ENDBRANCH  12  15
BRANCH   1  22
ATOM     21  O1  UNL     1      29.262  -7.006 -38.978  0.00  0.00    +0.000 OA
ATOM     22  C1  UNL     1      28.321  -7.813 -38.743  0.00  0.00    +0.000 C 
ATOM     23  N1  UNL     1      27.732  -8.556 -39.822  0.00  0.00    +0.000 N 
ATOM     24  H1  UNL     1      27.236  -9.449 -39.607  0.00  0.00    +0.000 HD
BRANCH  23  25
ATOM     25  N2  UNL     1      27.977  -8.244 -41.172  0.00  0.00    +0.000 N 
ATOM     26  C2  UNL     1      28.929  -8.958 -41.971  0.00  0.00    +0.000 C 
ATOM     27  N3  UNL     1      29.766  -9.778 -41.401  0.00  0.00    +0.000 NA
ATOM     28  H2  UNL     1      27.561  -7.369 -41.563  0.00  0.00    +0.000 HD
BRANCH  27  29
ATOM     29  C3  UNL     1      30.753 -10.589 -42.053  0.00  0.00    +0.000 A 
ATOM     30  C4  UNL     1      30.423 -11.834 -42.617  0.00  0.00    +0.000 A 
ATOM     31  C5  UNL     1      31.416 -12.628 -43.199  0.00  0.00    +0.000 A 
ATOM     32  C6  UNL     1      32.746 -12.196 -43.202  0.00  0.00    +0.000 A 
ATOM     33  F1  UNL     1      33.707 -12.970 -43.764  0.00  0.00    +0.000 F 
ATOM     34  C7  UNL     1      33.086 -10.975 -42.611  0.00  0.00    +0.000 A 
ATOM     35  F2  UNL     1      34.377 -10.563 -42.595  0.00  0.00    +0.000 F 
ATOM     36  C8  UNL     1      32.093 -10.180 -42.028  0.00  0.00    +0.000 A 
ENDBRANCH  27  29
BRANCH  26  37
ATOM     37  S1  UNL     1      29.037  -8.560 -43.724  0.00  0.00    +0.000 S 
ATOM     38  H3  UNL     1      27.820  -7.853 -43.689  0.00  0.00    +0.000 HD
ENDBRANCH  26  37
ENDBRANCH  23  25
ENDBRANCH   1  22
TORSDOF 5
ENDMDL
MODEL 9
REMARK VINA RESULT:    -6.311      5.634      8.697
REMARK INTER + INTRA:          -8.609
REMARK INTER:                  -7.816
REMARK INTRA:                  -0.793
REMARK UNBOUND:                -0.638
REMARK  Name = resultss/4CJN/ligands/lig_433_t2.pdb
REMARK  5 active torsions:
REMARK  status: ('A' for Active; 'I' for Inactive)
REMARK    1  A    between atoms: C1_2  and  C9_16
REMARK    2  A    between atoms: N1_3  and  N2_4
REMARK    3  A    between atoms: C2_5  and  S1_6
REMARK    4  A    between atoms: N3_7  and  C3_8
REMARK    5  A    between atoms: C19_27  and  C20_28
REMARK                            x       y       z     vdW  Elec       q    Type
REMARK                         _______ _______ _______ _____ _____    ______ ____
ROOT
ATOM      1  C9  UNL     1      27.090  -9.036 -38.070  0.00  0.00    +0.000 A 
ATOM      2  C10 UNL     1      28.237  -9.513 -38.740  0.00  0.00    +0.000 A 
ATOM      3  C11 UNL     1      28.228  -9.462 -40.128  0.00  0.00    +0.000 A 
ATOM      4  C12 UNL     1      27.151  -8.977 -40.836  0.00  0.00    +0.000 A 
ATOM      5  N4  UNL     1      27.401  -8.968 -42.168  0.00  0.00    +0.000 N 
ATOM      6  C13 UNL     1      28.648  -9.473 -42.289  0.00  0.00    +0.000 A 
ATOM      7  C14 UNL     1      29.372  -9.658 -43.466  0.00  0.00    +0.000 A 
ATOM      8  C15 UNL     1      30.673 -10.184 -43.365  0.00  0.00    +0.000 A 
ATOM      9  C16 UNL     1      31.221 -10.507 -42.102  0.00  0.00    +0.000 A 
ATOM     10  C17 UNL     1      30.474 -10.307 -40.927  0.00  0.00    +0.000 A 
ATOM     11  C18 UNL     1      29.187  -9.790 -41.059  0.00  0.00    +0.000 A 
ATOM     12  C19 UNL     1      26.011  -8.521 -40.161  0.00  0.00    +0.000 A 
ATOM     13  N5  UNL     1      26.027  -8.561 -38.795  0.00  0.00    +0.000 NA
ATOM     14  H8  UNL     1      26.792  -8.616 -42.939  0.00  0.00    +0.000 HD
ENDROOT
BRANCH  12  15
ATOM     15  C20 UNL     1      24.816  -8.006 -40.858  0.00  0.00    +0.000 A 
ATOM     16  C21 UNL     1      24.026  -8.878 -41.627  0.00  0.00    +0.000 A 
ATOM     17  C22 UNL     1      22.906  -8.398 -42.312  0.00  0.00    +0.000 A 
ATOM     18  C23 UNL     1      22.574  -7.042 -42.247  0.00  0.00    +0.000 A 
ATOM     19  C24 UNL     1      23.366  -6.163 -41.504  0.00  0.00    +0.000 A 
ATOM     20  C25 UNL     1      24.485  -6.640 -40.816  0.00  0.00    +0.000 A 
ENDBRANCH  12  15
BRANCH   1  22
ATOM     21  O1  UNL     1      26.486 -10.030 -36.000  0.00  0.00    +0.000 OA
ATOM     22  C1  UNL     1      27.016  -9.051 -36.593  0.00  0.00    +0.000 C 
ATOM     23  N1  UNL     1      27.568  -7.968 -35.828  0.00  0.00    +0.000 N 
ATOM     24  H1  UNL     1      28.299  -7.363 -36.265  0.00  0.00    +0.000 HD
BRANCH  23  25
ATOM     25  N2  UNL     1      27.324  -7.818 -34.450  0.00  0.00    +0.000 N 
ATOM     26  C2  UNL     1      28.336  -8.028 -33.457  0.00  0.00    +0.000 C 
ATOM     27  N3  UNL     1      29.463  -8.589 -33.792  0.00  0.00    +0.000 NA
ATOM     28  H2  UNL     1      26.337  -7.695 -34.131  0.00  0.00    +0.000 HD
BRANCH  27  29
ATOM     29  C3  UNL     1      30.586  -8.841 -32.935  0.00  0.00    +0.000 A 
ATOM     30  C4  UNL     1      31.486  -7.819 -32.586  0.00  0.00    +0.000 A 
ATOM     31  C5  UNL     1      32.602  -8.105 -31.793  0.00  0.00    +0.000 A 
ATOM     32  C6  UNL     1      32.838  -9.414 -31.361  0.00  0.00    +0.000 A 
ATOM     33  F1  UNL     1      33.922  -9.688 -30.595  0.00  0.00    +0.000 F 
ATOM     34  C7  UNL     1      31.965 -10.441 -31.734  0.00  0.00    +0.000 A 
ATOM     35  F2  UNL     1      32.202 -11.714 -31.334  0.00  0.00    +0.000 F 
ATOM     36  C8  UNL     1      30.848 -10.156 -32.529  0.00  0.00    +0.000 A 
ENDBRANCH  27  29
BRANCH  26  37
ATOM     37  S1  UNL     1      27.935  -7.655 -31.742  0.00  0.00    +0.000 S 
ATOM     38  H3  UNL     1      28.726  -8.720 -31.273  0.00  0.00    +0.000 HD
ENDBRANCH  26  37
ENDBRANCH  23  25
ENDBRANCH   1  22
TORSDOF 5
ENDMDL
