MODEL 1
REMARK VINA RESULT:    -6.946      0.000      0.000
REMARK INTER + INTRA:         -12.852
REMARK INTER:                 -10.803
REMARK INTRA:                  -2.049
REMARK UNBOUND:                -2.049
REMARK  Name = resultss/4CJN/ligands/lig_348_t2.pdb
REMARK  10 active torsions:
REMARK  status: ('A' for Active; 'I' for Inactive)
REMARK    1  A    between atoms: C1_2  and  C2_3
REMARK    2  A    between atoms: C2_3  and  N1_4
REMARK    3  A    between atoms: C4_6  and  C5_7
REMARK    4  A    between atoms: C5_7  and  O2_8
REMARK    5  A    between atoms: O2_8  and  C6_9
REMARK    6  A    between atoms: C9_12  and  C10_13
REMARK    7  A    between atoms: C17_21  and  O3_22
REMARK    8  A    between atoms: N3_23  and  N4_24
REMARK    9  A    between atoms: N4_24  and  C18_25
REMARK   10  A    between atoms: N7_35  and  C26_36
REMARK                            x       y       z     vdW  Elec       q    Type
REMARK                         _______ _______ _______ _____ _____    ______ ____
ROOT
ATOM      1  C6  UNL     1      25.586  -8.498 -38.369  0.00  0.00    +0.000 A 
ATOM      2  C7  UNL     1      25.752  -7.101 -38.444  0.00  0.00    +0.000 A 
ATOM      3  C8  UNL     1      26.466  -6.420 -37.453  0.00  0.00    +0.000 A 
ATOM      4  C9  UNL     1      27.028  -7.122 -36.371  0.00  0.00    +0.000 A 
ATOM      5  C24 UNL     1      26.861  -8.518 -36.302  0.00  0.00    +0.000 A 
ATOM      6  C25 UNL     1      26.159  -9.198 -37.301  0.00  0.00    +0.000 A 
ENDROOT
BRANCH   4   7
ATOM      7  C10 UNL     1      27.715  -6.361 -35.259  0.00  0.00    +0.000 C 
ATOM      8  N2  UNL     1      29.135  -6.719 -35.195  0.00  0.00    +0.000 NA
ATOM      9  C11 UNL     1      29.650  -7.511 -34.298  0.00  0.00    +0.000 A 
ATOM     10  C12 UNL     1      31.003  -7.862 -34.402  0.00  0.00    +0.000 A 
ATOM     11  C13 UNL     1      31.569  -8.764 -33.497  0.00  0.00    +0.000 A 
ATOM     12  C14 UNL     1      30.789  -9.320 -32.482  0.00  0.00    +0.000 A 
ATOM     13  C15 UNL     1      29.446  -8.959 -32.349  0.00  0.00    +0.000 A 
ATOM     14  C16 UNL     1      28.862  -8.035 -33.240  0.00  0.00    +0.000 A 
ATOM     15  C17 UNL     1      27.588  -7.626 -33.086  0.00  0.00    +0.000 C 
ATOM     16  N3  UNL     1      27.044  -6.633 -33.982  0.00  0.00    +0.000 N 
BRANCH  15  17
ATOM     17  O3  UNL     1      26.801  -8.151 -32.053  0.00  0.00    +0.000 OA
ATOM     18  H13 UNL     1      26.256  -7.556 -31.444  0.00  0.00    +0.000 HD
ENDBRANCH  15  17
BRANCH  16  19
ATOM     19  N4  UNL     1      25.774  -6.071 -33.757  0.00  0.00    +0.000 N 
ATOM     20  H14 UNL     1      25.684  -5.335 -33.021  0.00  0.00    +0.000 HD
BRANCH  19  21
ATOM     21  C18 UNL     1      24.567  -6.638 -34.296  0.00  0.00    +0.000 A 
ATOM     22  C19 UNL     1      24.094  -7.897 -33.881  0.00  0.00    +0.000 A 
ATOM     23  C20 UNL     1      22.911  -8.417 -34.419  0.00  0.00    +0.000 A 
ATOM     24  C21 UNL     1      22.179  -7.677 -35.353  0.00  0.00    +0.000 A 
ATOM     25  C22 UNL     1      22.631  -6.417 -35.754  0.00  0.00    +0.000 A 
ATOM     26  C23 UNL     1      23.820  -5.900 -35.230  0.00  0.00    +0.000 A 
ENDBRANCH  19  21
ENDBRANCH  16  19
ENDBRANCH   4   7
BRANCH   1  27
ATOM     27  O2  UNL     1      24.852  -9.220 -39.320  0.00  0.00    +0.000 OA
BRANCH  27  28
ATOM     28  C5  UNL     1      25.320  -9.525 -40.632  0.00  0.00    +0.000 C 
BRANCH  28  31
ATOM     29  N1  UNL     1      28.945  -9.423 -40.694  0.00  0.00    +0.000 N 
ATOM     30  C3  UNL     1      27.769  -8.776 -40.772  0.00  0.00    +0.000 A 
ATOM     31  C4  UNL     1      26.797  -9.733 -40.593  0.00  0.00    +0.000 A 
ATOM     32  N5  UNL     1      27.399 -10.929 -40.422  0.00  0.00    +0.000 NA
ATOM     33  N6  UNL     1      28.705 -10.706 -40.478  0.00  0.00    +0.000 NA
BRANCH  29  34
ATOM     34  C2  UNL     1      30.274  -8.824 -40.741  0.00  0.00    +0.000 C 
BRANCH  34  36
ATOM     35  O1  UNL     1      32.315 -10.021 -41.025  0.00  0.00    +0.000 OA
ATOM     36  C1  UNL     1      31.199  -9.704 -41.522  0.00  0.00    +0.000 C 
ATOM     37  N7  UNL     1      30.862 -10.077 -42.867  0.00  0.00    +0.000 N 
ATOM     38  H22 UNL     1      30.102  -9.536 -43.340  0.00  0.00    +0.000 HD
BRANCH  37  39
ATOM     39  C26 UNL     1      31.569 -11.063 -43.643  0.00  0.00    +0.000 A 
ATOM     40  C27 UNL     1      31.337 -12.442 -43.474  0.00  0.00    +0.000 A 
ATOM     41  C28 UNL     1      32.027 -13.374 -44.255  0.00  0.00    +0.000 A 
ATOM     42  C29 UNL     1      32.942 -12.942 -45.221  0.00  0.00    +0.000 A 
ATOM     43 BR1  UNL     1      33.881 -14.219 -46.286  0.00  0.00    +0.000 Br
ATOM     44  C30 UNL     1      33.159 -11.573 -45.413  0.00  0.00    +0.000 A 
ATOM     45  C31 UNL     1      32.471 -10.640 -44.632  0.00  0.00    +0.000 A 
ENDBRANCH  37  39
ENDBRANCH  34  36
ENDBRANCH  29  34
ENDBRANCH  28  31
ENDBRANCH  27  28
ENDBRANCH   1  27
TORSDOF 10
ENDMDL
MODEL 2
REMARK VINA RESULT:    -6.758      1.756      2.412
REMARK INTER + INTRA:         -12.561
REMARK INTER:                 -10.400
REMARK INTRA:                  -2.161
REMARK UNBOUND:                -2.049
REMARK  Name = resultss/4CJN/ligands/lig_348_t2.pdb
REMARK  10 active torsions:
REMARK  status: ('A' for Active; 'I' for Inactive)
REMARK    1  A    between atoms: C1_2  and  C2_3
REMARK    2  A    between atoms: C2_3  and  N1_4
REMARK    3  A    between atoms: C4_6  and  C5_7
REMARK    4  A    between atoms: C5_7  and  O2_8
REMARK    5  A    between atoms: O2_8  and  C6_9
REMARK    6  A    between atoms: C9_12  and  C10_13
REMARK    7  A    between atoms: C17_21  and  O3_22
REMARK    8  A    between atoms: N3_23  and  N4_24
REMARK    9  A    between atoms: N4_24  and  C18_25
REMARK   10  A    between atoms: N7_35  and  C26_36
REMARK                            x       y       z     vdW  Elec       q    Type
REMARK                         _______ _______ _______ _____ _____    ______ ____
ROOT
ATOM      1  C6  UNL     1      27.872  -9.224 -38.507  0.00  0.00    +0.000 A 
ATOM      2  C7  UNL     1      28.242  -7.869 -38.605  0.00  0.00    +0.000 A 
ATOM      3  C8  UNL     1      28.950  -7.252 -37.569  0.00  0.00    +0.000 A 
ATOM      4  C9  UNL     1      29.303  -7.979 -36.418  0.00  0.00    +0.000 A 
ATOM      5  C24 UNL     1      28.933  -9.335 -36.325  0.00  0.00    +0.000 A 
ATOM      6  C25 UNL     1      28.238  -9.951 -37.368  0.00  0.00    +0.000 A 
ENDROOT
BRANCH   4   7
ATOM      7  C10 UNL     1      29.985  -7.275 -35.266  0.00  0.00    +0.000 C 
ATOM      8  N2  UNL     1      31.355  -7.770 -35.101  0.00  0.00    +0.000 NA
ATOM      9  C11 UNL     1      31.726  -8.596 -34.165  0.00  0.00    +0.000 A 
ATOM     10  C12 UNL     1      33.041  -9.081 -34.173  0.00  0.00    +0.000 A 
ATOM     11  C13 UNL     1      33.451 -10.022 -33.225  0.00  0.00    +0.000 A 
ATOM     12  C14 UNL     1      32.552 -10.484 -32.263  0.00  0.00    +0.000 A 
ATOM     13  C15 UNL     1      31.246  -9.990 -32.225  0.00  0.00    +0.000 A 
ATOM     14  C16 UNL     1      30.819  -9.026 -33.162  0.00  0.00    +0.000 A 
ATOM     15  C17 UNL     1      29.585  -8.491 -33.098  0.00  0.00    +0.000 C 
ATOM     16  N3  UNL     1      29.204  -7.462 -34.037  0.00  0.00    +0.000 N 
BRANCH  15  17
ATOM     17  O3  UNL     1      28.681  -8.921 -32.119  0.00  0.00    +0.000 OA
ATOM     18  H13 UNL     1      28.985  -9.423 -31.296  0.00  0.00    +0.000 HD
ENDBRANCH  15  17
BRANCH  16  19
ATOM     19  N4  UNL     1      27.984  -6.774 -33.904  0.00  0.00    +0.000 N 
ATOM     20  H14 UNL     1      27.911  -6.037 -33.167  0.00  0.00    +0.000 HD
BRANCH  19  21
ATOM     21  C18 UNL     1      26.773  -7.211 -34.544  0.00  0.00    +0.000 A 
ATOM     22  C19 UNL     1      26.126  -8.402 -34.164  0.00  0.00    +0.000 A 
ATOM     23  C20 UNL     1      24.943  -8.795 -34.802  0.00  0.00    +0.000 A 
ATOM     24  C21 UNL     1      24.384  -7.993 -35.803  0.00  0.00    +0.000 A 
ATOM     25  C22 UNL     1      25.010  -6.799 -36.171  0.00  0.00    +0.000 A 
ATOM     26  C23 UNL     1      26.199  -6.410 -35.547  0.00  0.00    +0.000 A 
ENDBRANCH  19  21
ENDBRANCH  16  19
ENDBRANCH   4   7
BRANCH   1  27
ATOM     27  O2  UNL     1      27.135  -9.877 -39.505  0.00  0.00    +0.000 OA
BRANCH  27  28
ATOM     28  C5  UNL     1      27.627 -10.964 -40.285  0.00  0.00    +0.000 C 
BRANCH  28  31
ATOM     29  N1  UNL     1      30.824  -9.948 -41.664  0.00  0.00    +0.000 N 
ATOM     30  C3  UNL     1      30.115 -10.451 -40.639  0.00  0.00    +0.000 A 
ATOM     31  C4  UNL     1      28.811 -10.510 -41.072  0.00  0.00    +0.000 A 
ATOM     32  N5  UNL     1      28.757 -10.038 -42.335  0.00  0.00    +0.000 NA
ATOM     33  N6  UNL     1      29.998  -9.713 -42.670  0.00  0.00    +0.000 NA
BRANCH  29  34
ATOM     34  C2  UNL     1      32.270  -9.769 -41.719  0.00  0.00    +0.000 C 
BRANCH  34  36
ATOM     35  O1  UNL     1      33.734 -11.593 -42.177  0.00  0.00    +0.000 OA
ATOM     36  C1  UNL     1      32.873 -10.791 -42.632  0.00  0.00    +0.000 C 
ATOM     37  N7  UNL     1      32.557 -10.770 -44.033  0.00  0.00    +0.000 N 
ATOM     38  H22 UNL     1      32.105  -9.905 -44.410  0.00  0.00    +0.000 HD
BRANCH  37  39
ATOM     39  C26 UNL     1      32.918 -11.804 -44.967  0.00  0.00    +0.000 A 
ATOM     40  C27 UNL     1      33.964 -11.632 -45.894  0.00  0.00    +0.000 A 
ATOM     41  C28 UNL     1      34.301 -12.662 -46.777  0.00  0.00    +0.000 A 
ATOM     42  C29 UNL     1      33.611 -13.878 -46.735  0.00  0.00    +0.000 A 
ATOM     43 BR1  UNL     1      34.076 -15.283 -47.943  0.00  0.00    +0.000 Br
ATOM     44  C30 UNL     1      32.587 -14.066 -45.801  0.00  0.00    +0.000 A 
ATOM     45  C31 UNL     1      32.247 -13.037 -44.918  0.00  0.00    +0.000 A 
ENDBRANCH  37  39
ENDBRANCH  34  36
ENDBRANCH  29  34
ENDBRANCH  28  31
ENDBRANCH  27  28
ENDBRANCH   1  27
TORSDOF 10
ENDMDL
MODEL 3
REMARK VINA RESULT:    -6.751      3.770      7.772
REMARK INTER + INTRA:         -12.550
REMARK INTER:                  -9.725
REMARK INTRA:                  -2.825
REMARK UNBOUND:                -2.049
REMARK  Name = resultss/4CJN/ligands/lig_348_t2.pdb
REMARK  10 active torsions:
REMARK  status: ('A' for Active; 'I' for Inactive)
REMARK    1  A    between atoms: C1_2  and  C2_3
REMARK    2  A    between atoms: C2_3  and  N1_4
REMARK    3  A    between atoms: C4_6  and  C5_7
REMARK    4  A    between atoms: C5_7  and  O2_8
REMARK    5  A    between atoms: O2_8  and  C6_9
REMARK    6  A    between atoms: C9_12  and  C10_13
REMARK    7  A    between atoms: C17_21  and  O3_22
REMARK    8  A    between atoms: N3_23  and  N4_24
REMARK    9  A    between atoms: N4_24  and  C18_25
REMARK   10  A    between atoms: N7_35  and  C26_36
REMARK                            x       y       z     vdW  Elec       q    Type
REMARK                         _______ _______ _______ _____ _____    ______ ____
ROOT
ATOM      1  C6  UNL     1      29.946 -10.464 -42.288  0.00  0.00    +0.000 A 
ATOM      2  C7  UNL     1      29.042 -10.637 -41.222  0.00  0.00    +0.000 A 
ATOM      3  C8  UNL     1      27.985  -9.740 -41.040  0.00  0.00    +0.000 A 
ATOM      4  C9  UNL     1      27.811  -8.656 -41.919  0.00  0.00    +0.000 A 
ATOM      5  C24 UNL     1      28.717  -8.488 -42.984  0.00  0.00    +0.000 A 
ATOM      6  C25 UNL     1      29.764  -9.394 -43.172  0.00  0.00    +0.000 A 
ENDROOT
BRANCH   4   7
ATOM      7  C10 UNL     1      26.721  -7.641 -41.654  0.00  0.00    +0.000 C 
ATOM      8  N2  UNL     1      27.041  -6.845 -40.465  0.00  0.00    +0.000 NA
ATOM      9  C11 UNL     1      26.481  -7.012 -39.301  0.00  0.00    +0.000 A 
ATOM     10  C12 UNL     1      26.945  -6.261 -38.212  0.00  0.00    +0.000 A 
ATOM     11  C13 UNL     1      26.414  -6.465 -36.937  0.00  0.00    +0.000 A 
ATOM     12  C14 UNL     1      25.416  -7.421 -36.739  0.00  0.00    +0.000 A 
ATOM     13  C15 UNL     1      24.924  -8.159 -37.818  0.00  0.00    +0.000 A 
ATOM     14  C16 UNL     1      25.434  -7.952 -39.116  0.00  0.00    +0.000 A 
ATOM     15  C17 UNL     1      24.925  -8.607 -40.178  0.00  0.00    +0.000 C 
ATOM     16  N3  UNL     1      25.431  -8.325 -41.500  0.00  0.00    +0.000 N 
BRANCH  15  17
ATOM     17  O3  UNL     1      23.901  -9.547 -40.000  0.00  0.00    +0.000 OA
ATOM     18  H13 UNL     1      23.382  -9.612 -39.136  0.00  0.00    +0.000 HD
ENDBRANCH  15  17
BRANCH  16  19
ATOM     19  N4  UNL     1      24.821  -8.873 -42.643  0.00  0.00    +0.000 N 
ATOM     20  H14 UNL     1      25.102  -9.835 -42.939  0.00  0.00    +0.000 HD
BRANCH  19  21
ATOM     21  C18 UNL     1      24.040  -8.086 -43.559  0.00  0.00    +0.000 A 
ATOM     22  C19 UNL     1      22.723  -7.694 -43.258  0.00  0.00    +0.000 A 
ATOM     23  C20 UNL     1      21.992  -6.920 -44.167  0.00  0.00    +0.000 A 
ATOM     24  C21 UNL     1      22.577  -6.512 -45.370  0.00  0.00    +0.000 A 
ATOM     25  C22 UNL     1      23.892  -6.879 -45.668  0.00  0.00    +0.000 A 
ATOM     26  C23 UNL     1      24.621  -7.664 -44.768  0.00  0.00    +0.000 A 
ENDBRANCH  19  21
ENDBRANCH  16  19
ENDBRANCH   4   7
BRANCH   1  27
ATOM     27  O2  UNL     1      31.039 -11.318 -42.493  0.00  0.00    +0.000 OA
BRANCH  27  28
ATOM     28  C5  UNL     1      32.363 -10.873 -42.778  0.00  0.00    +0.000 C 
BRANCH  28  31
ATOM     29  N1  UNL     1      33.567  -9.289 -39.746  0.00  0.00    +0.000 N 
ATOM     30  C3  UNL     1      32.694  -9.315 -40.767  0.00  0.00    +0.000 A 
ATOM     31  C4  UNL     1      33.016 -10.425 -41.514  0.00  0.00    +0.000 A 
ATOM     32  N5  UNL     1      34.073 -11.035 -40.939  0.00  0.00    +0.000 NA
ATOM     33  N6  UNL     1      34.379 -10.327 -39.861  0.00  0.00    +0.000 NA
BRANCH  29  34
ATOM     34  C2  UNL     1      33.579  -8.344 -38.635  0.00  0.00    +0.000 C 
BRANCH  34  36
ATOM     35  O1  UNL     1      31.459  -7.331 -38.237  0.00  0.00    +0.000 OA
ATOM     36  C1  UNL     1      32.228  -8.301 -37.991  0.00  0.00    +0.000 C 
ATOM     37  N7  UNL     1      31.871  -9.291 -37.014  0.00  0.00    +0.000 N 
ATOM     38  H22 UNL     1      32.644  -9.870 -36.612  0.00  0.00    +0.000 HD
BRANCH  37  39
ATOM     39  C26 UNL     1      30.549  -9.466 -36.474  0.00  0.00    +0.000 A 
ATOM     40  C27 UNL     1      29.449  -9.776 -37.297  0.00  0.00    +0.000 A 
ATOM     41  C28 UNL     1      28.179  -9.957 -36.740  0.00  0.00    +0.000 A 
ATOM     42  C29 UNL     1      27.996  -9.846 -35.358  0.00  0.00    +0.000 A 
ATOM     43 BR1  UNL     1      26.260 -10.094 -34.601  0.00  0.00    +0.000 Br
ATOM     44  C30 UNL     1      29.088  -9.563 -34.531  0.00  0.00    +0.000 A 
ATOM     45  C31 UNL     1      30.358  -9.381 -35.086  0.00  0.00    +0.000 A 
ENDBRANCH  37  39
ENDBRANCH  34  36
ENDBRANCH  29  34
ENDBRANCH  28  31
ENDBRANCH  27  28
ENDBRANCH   1  27
TORSDOF 10
ENDMDL
MODEL 4
REMARK VINA RESULT:    -6.544      1.750      2.444
REMARK INTER + INTRA:         -12.227
REMARK INTER:                 -11.013
REMARK INTRA:                  -1.214
REMARK UNBOUND:                -2.049
REMARK  Name = resultss/4CJN/ligands/lig_348_t2.pdb
REMARK  10 active torsions:
REMARK  status: ('A' for Active; 'I' for Inactive)
REMARK    1  A    between atoms: C1_2  and  C2_3
REMARK    2  A    between atoms: C2_3  and  N1_4
REMARK    3  A    between atoms: C4_6  and  C5_7
REMARK    4  A    between atoms: C5_7  and  O2_8
REMARK    5  A    between atoms: O2_8  and  C6_9
REMARK    6  A    between atoms: C9_12  and  C10_13
REMARK    7  A    between atoms: C17_21  and  O3_22
REMARK    8  A    between atoms: N3_23  and  N4_24
REMARK    9  A    between atoms: N4_24  and  C18_25
REMARK   10  A    between atoms: N7_35  and  C26_36
REMARK                            x       y       z     vdW  Elec       q    Type
REMARK                         _______ _______ _______ _____ _____    ______ ____
ROOT
ATOM      1  C6  UNL     1      26.543  -7.787 -40.754  0.00  0.00    +0.000 A 
ATOM      2  C7  UNL     1      26.238  -8.827 -39.854  0.00  0.00    +0.000 A 
ATOM      3  C8  UNL     1      26.228  -8.588 -38.477  0.00  0.00    +0.000 A 
ATOM      4  C9  UNL     1      26.519  -7.308 -37.973  0.00  0.00    +0.000 A 
ATOM      5  C24 UNL     1      26.821  -6.271 -38.877  0.00  0.00    +0.000 A 
ATOM      6  C25 UNL     1      26.817  -6.509 -40.254  0.00  0.00    +0.000 A 
ENDROOT
BRANCH   4   7
ATOM      7  C10 UNL     1      26.597  -7.089 -36.479  0.00  0.00    +0.000 C 
ATOM      8  N2  UNL     1      27.966  -6.744 -36.082  0.00  0.00    +0.000 NA
ATOM      9  C11 UNL     1      28.789  -7.570 -35.503  0.00  0.00    +0.000 A 
ATOM     10  C12 UNL     1      30.108  -7.157 -35.267  0.00  0.00    +0.000 A 
ATOM     11  C13 UNL     1      31.035  -8.041 -34.711  0.00  0.00    +0.000 A 
ATOM     12  C14 UNL     1      30.652  -9.344 -34.385  0.00  0.00    +0.000 A 
ATOM     13  C15 UNL     1      29.335  -9.762 -34.589  0.00  0.00    +0.000 A 
ATOM     14  C16 UNL     1      28.381  -8.877 -35.131  0.00  0.00    +0.000 A 
ATOM     15  C17 UNL     1      27.092  -9.242 -35.273  0.00  0.00    +0.000 C 
ATOM     16  N3  UNL     1      26.130  -8.289 -35.774  0.00  0.00    +0.000 N 
BRANCH  15  17
ATOM     17  O3  UNL     1      26.685 -10.536 -34.921  0.00  0.00    +0.000 OA
ATOM     18  H13 UNL     1      26.735 -11.306 -35.574  0.00  0.00    +0.000 HD
ENDBRANCH  15  17
BRANCH  16  19
ATOM     19  N4  UNL     1      24.755  -8.585 -35.789  0.00  0.00    +0.000 N 
ATOM     20  H14 UNL     1      24.435  -9.417 -36.334  0.00  0.00    +0.000 HD
BRANCH  19  21
ATOM     21  C18 UNL     1      23.758  -7.662 -35.319  0.00  0.00    +0.000 A 
ATOM     22  C19 UNL     1      22.772  -7.140 -36.177  0.00  0.00    +0.000 A 
ATOM     23  C20 UNL     1      21.809  -6.249 -35.686  0.00  0.00    +0.000 A 
ATOM     24  C21 UNL     1      21.808  -5.893 -34.334  0.00  0.00    +0.000 A 
ATOM     25  C22 UNL     1      22.770  -6.424 -33.471  0.00  0.00    +0.000 A 
ATOM     26  C23 UNL     1      23.742  -7.302 -33.960  0.00  0.00    +0.000 A 
ENDBRANCH  19  21
ENDBRANCH  16  19
ENDBRANCH   4   7
BRANCH   1  27
ATOM     27  O2  UNL     1      26.597  -7.984 -42.141  0.00  0.00    +0.000 OA
BRANCH  27  28
ATOM     28  C5  UNL     1      26.904  -9.230 -42.762  0.00  0.00    +0.000 C 
BRANCH  28  31
ATOM     29  N1  UNL     1      30.356  -9.961 -41.925  0.00  0.00    +0.000 N 
ATOM     30  C3  UNL     1      29.460  -9.178 -42.549  0.00  0.00    +0.000 A 
ATOM     31  C4  UNL     1      28.225  -9.716 -42.267  0.00  0.00    +0.000 A 
ATOM     32  N5  UNL     1      28.400 -10.808 -41.495  0.00  0.00    +0.000 NA
ATOM     33  N6  UNL     1      29.706 -10.926 -41.296  0.00  0.00    +0.000 NA
BRANCH  29  34
ATOM     34  C2  UNL     1      31.798  -9.752 -41.858  0.00  0.00    +0.000 C 
BRANCH  34  36
ATOM     35  O1  UNL     1      33.291 -11.586 -42.153  0.00  0.00    +0.000 OA
ATOM     36  C1  UNL     1      32.497 -10.773 -42.702  0.00  0.00    +0.000 C 
ATOM     37  N7  UNL     1      32.353 -10.737 -44.130  0.00  0.00    +0.000 N 
ATOM     38  H22 UNL     1      31.957  -9.866 -44.552  0.00  0.00    +0.000 HD
BRANCH  37  39
ATOM     39  C26 UNL     1      32.815 -11.768 -45.023  0.00  0.00    +0.000 A 
ATOM     40  C27 UNL     1      33.872 -11.545 -45.927  0.00  0.00    +0.000 A 
ATOM     41  C28 UNL     1      34.308 -12.572 -46.769  0.00  0.00    +0.000 A 
ATOM     42  C29 UNL     1      33.708 -13.834 -46.708  0.00  0.00    +0.000 A 
ATOM     43 BR1  UNL     1      34.308 -15.234 -47.861  0.00  0.00    +0.000 Br
ATOM     44  C30 UNL     1      32.675 -14.071 -45.796  0.00  0.00    +0.000 A 
ATOM     45  C31 UNL     1      32.236 -13.045 -44.953  0.00  0.00    +0.000 A 
ENDBRANCH  37  39
ENDBRANCH  34  36
ENDBRANCH  29  34
ENDBRANCH  28  31
ENDBRANCH  27  28
ENDBRANCH   1  27
TORSDOF 10
ENDMDL
MODEL 5
REMARK VINA RESULT:    -6.305      3.192      8.993
REMARK INTER + INTRA:         -11.856
REMARK INTER:                  -9.068
REMARK INTRA:                  -2.788
REMARK UNBOUND:                -2.049
REMARK  Name = resultss/4CJN/ligands/lig_348_t2.pdb
REMARK  10 active torsions:
REMARK  status: ('A' for Active; 'I' for Inactive)
REMARK    1  A    between atoms: C1_2  and  C2_3
REMARK    2  A    between atoms: C2_3  and  N1_4
REMARK    3  A    between atoms: C4_6  and  C5_7
REMARK    4  A    between atoms: C5_7  and  O2_8
REMARK    5  A    between atoms: O2_8  and  C6_9
REMARK    6  A    between atoms: C9_12  and  C10_13
REMARK    7  A    between atoms: C17_21  and  O3_22
REMARK    8  A    between atoms: N3_23  and  N4_24
REMARK    9  A    between atoms: N4_24  and  C18_25
REMARK   10  A    between atoms: N7_35  and  C26_36
REMARK                            x       y       z     vdW  Elec       q    Type
REMARK                         _______ _______ _______ _____ _____    ______ ____
ROOT
ATOM      1  C6  UNL     1      26.948  -7.604 -39.862  0.00  0.00    +0.000 A 
ATOM      2  C7  UNL     1      26.988  -8.946 -40.291  0.00  0.00    +0.000 A 
ATOM      3  C8  UNL     1      28.136  -9.718 -40.089  0.00  0.00    +0.000 A 
ATOM      4  C9  UNL     1      29.264  -9.165 -39.455  0.00  0.00    +0.000 A 
ATOM      5  C24 UNL     1      29.218  -7.824 -39.027  0.00  0.00    +0.000 A 
ATOM      6  C25 UNL     1      28.064  -7.060 -39.217  0.00  0.00    +0.000 A 
ENDROOT
BRANCH   4   7
ATOM      7  C10 UNL     1      30.530  -9.982 -39.330  0.00  0.00    +0.000 C 
ATOM      8  N2  UNL     1      30.965 -10.042 -37.931  0.00  0.00    +0.000 NA
ATOM      9  C11 UNL     1      31.954  -9.351 -37.443  0.00  0.00    +0.000 A 
ATOM     10  C12 UNL     1      32.209  -9.413 -36.066  0.00  0.00    +0.000 A 
ATOM     11  C13 UNL     1      33.217  -8.631 -35.499  0.00  0.00    +0.000 A 
ATOM     12  C14 UNL     1      33.980  -7.781 -36.302  0.00  0.00    +0.000 A 
ATOM     13  C15 UNL     1      33.756  -7.728 -37.681  0.00  0.00    +0.000 A 
ATOM     14  C16 UNL     1      32.755  -8.525 -38.273  0.00  0.00    +0.000 A 
ATOM     15  C17 UNL     1      32.571  -8.535 -39.608  0.00  0.00    +0.000 C 
ATOM     16  N3  UNL     1      31.578  -9.410 -40.184  0.00  0.00    +0.000 N 
BRANCH  15  17
ATOM     17  O3  UNL     1      33.349  -7.712 -40.432  0.00  0.00    +0.000 OA
ATOM     18  H13 UNL     1      33.456  -7.895 -41.420  0.00  0.00    +0.000 HD
ENDBRANCH  15  17
BRANCH  16  19
ATOM     19  N4  UNL     1      31.465  -9.561 -41.579  0.00  0.00    +0.000 N 
ATOM     20  H14 UNL     1      30.839  -8.904 -42.097  0.00  0.00    +0.000 HD
BRANCH  19  21
ATOM     21  C18 UNL     1      31.954 -10.720 -42.276  0.00  0.00    +0.000 A 
ATOM     22  C19 UNL     1      31.078 -11.665 -42.841  0.00  0.00    +0.000 A 
ATOM     23  C20 UNL     1      31.586 -12.778 -43.522  0.00  0.00    +0.000 A 
ATOM     24  C21 UNL     1      32.967 -12.943 -43.665  0.00  0.00    +0.000 A 
ATOM     25  C22 UNL     1      33.843 -11.998 -43.125  0.00  0.00    +0.000 A 
ATOM     26  C23 UNL     1      33.341 -10.892 -42.432  0.00  0.00    +0.000 A 
ENDBRANCH  19  21
ENDBRANCH  16  19
ENDBRANCH   4   7
BRANCH   1  27
ATOM     27  O2  UNL     1      25.832  -6.782 -40.070  0.00  0.00    +0.000 OA
BRANCH  27  28
ATOM     28  C5  UNL     1      24.515  -7.087 -39.619  0.00  0.00    +0.000 C 
BRANCH  28  31
ATOM     29  N1  UNL     1      24.017  -7.247 -36.030  0.00  0.00    +0.000 N 
ATOM     30  C3  UNL     1      23.861  -7.803 -37.244  0.00  0.00    +0.000 A 
ATOM     31  C4  UNL     1      24.454  -6.938 -38.135  0.00  0.00    +0.000 A 
ATOM     32  N5  UNL     1      24.941  -5.884 -37.450  0.00  0.00    +0.000 NA
ATOM     33  N6  UNL     1      24.669  -6.105 -36.171  0.00  0.00    +0.000 NA
BRANCH  29  34
ATOM     34  C2  UNL     1      23.626  -7.827 -34.750  0.00  0.00    +0.000 C 
BRANCH  34  36
ATOM     35  O1  UNL     1      24.673  -9.312 -33.208  0.00  0.00    +0.000 OA
ATOM     36  C1  UNL     1      24.828  -8.399 -34.065  0.00  0.00    +0.000 C 
ATOM     37  N7  UNL     1      26.123  -7.823 -34.298  0.00  0.00    +0.000 N 
ATOM     38  H22 UNL     1      26.155  -6.882 -34.754  0.00  0.00    +0.000 HD
BRANCH  37  39
ATOM     39  C26 UNL     1      27.365  -8.398 -33.853  0.00  0.00    +0.000 A 
ATOM     40  C27 UNL     1      28.018  -9.407 -34.587  0.00  0.00    +0.000 A 
ATOM     41  C28 UNL     1      29.232  -9.934 -34.136  0.00  0.00    +0.000 A 
ATOM     42  C29 UNL     1      29.815  -9.450 -32.961  0.00  0.00    +0.000 A 
ATOM     43 BR1  UNL     1      31.475 -10.172 -32.350  0.00  0.00    +0.000 Br
ATOM     44  C30 UNL     1      29.186  -8.430 -32.239  0.00  0.00    +0.000 A 
ATOM     45  C31 UNL     1      27.971  -7.903 -32.687  0.00  0.00    +0.000 A 
ENDBRANCH  37  39
ENDBRANCH  34  36
ENDBRANCH  29  34
ENDBRANCH  28  31
ENDBRANCH  27  28
ENDBRANCH   1  27
TORSDOF 10
ENDMDL
MODEL 6
REMARK VINA RESULT:    -6.297      5.211      8.668
REMARK INTER + INTRA:         -11.844
REMARK INTER:                 -10.793
REMARK INTRA:                  -1.051
REMARK UNBOUND:                -2.049
REMARK  Name = resultss/4CJN/ligands/lig_348_t2.pdb
REMARK  10 active torsions:
REMARK  status: ('A' for Active; 'I' for Inactive)
REMARK    1  A    between atoms: C1_2  and  C2_3
REMARK    2  A    between atoms: C2_3  and  N1_4
REMARK    3  A    between atoms: C4_6  and  C5_7
REMARK    4  A    between atoms: C5_7  and  O2_8
REMARK    5  A    between atoms: O2_8  and  C6_9
REMARK    6  A    between atoms: C9_12  and  C10_13
REMARK    7  A    between atoms: C17_21  and  O3_22
REMARK    8  A    between atoms: N3_23  and  N4_24
REMARK    9  A    between atoms: N4_24  and  C18_25
REMARK   10  A    between atoms: N7_35  and  C26_36
REMARK                            x       y       z     vdW  Elec       q    Type
REMARK                         _______ _______ _______ _____ _____    ______ ____
ROOT
ATOM      1  C6  UNL     1      27.416  -9.328 -39.457  0.00  0.00    +0.000 A 
ATOM      2  C7  UNL     1      28.297 -10.237 -38.839  0.00  0.00    +0.000 A 
ATOM      3  C8  UNL     1      28.291 -10.393 -37.450  0.00  0.00    +0.000 A 
ATOM      4  C9  UNL     1      27.405  -9.645 -36.653  0.00  0.00    +0.000 A 
ATOM      5  C24 UNL     1      26.525  -8.738 -37.277  0.00  0.00    +0.000 A 
ATOM      6  C25 UNL     1      26.524  -8.596 -38.666  0.00  0.00    +0.000 A 
ENDROOT
BRANCH   4   7
ATOM      7  C10 UNL     1      27.476  -9.753 -35.146  0.00  0.00    +0.000 C 
ATOM      8  N2  UNL     1      26.145 -10.013 -34.588  0.00  0.00    +0.000 NA
ATOM      9  C11 UNL     1      25.414  -9.115 -33.992  0.00  0.00    +0.000 A 
ATOM     10  C12 UNL     1      24.115  -9.457 -33.593  0.00  0.00    +0.000 A 
ATOM     11  C13 UNL     1      23.279  -8.499 -33.015  0.00  0.00    +0.000 A 
ATOM     12  C14 UNL     1      23.736  -7.193 -32.829  0.00  0.00    +0.000 A 
ATOM     13  C15 UNL     1      25.038  -6.843 -33.196  0.00  0.00    +0.000 A 
ATOM     14  C16 UNL     1      25.901  -7.802 -33.764  0.00  0.00    +0.000 A 
ATOM     15  C17 UNL     1      27.180  -7.500 -34.063  0.00  0.00    +0.000 C 
ATOM     16  N3  UNL     1      28.052  -8.524 -34.586  0.00  0.00    +0.000 N 
BRANCH  15  17
ATOM     17  O3  UNL     1      27.663  -6.202 -33.853  0.00  0.00    +0.000 OA
ATOM     18  H13 UNL     1      27.922  -5.599 -34.622  0.00  0.00    +0.000 HD
ENDBRANCH  15  17
BRANCH  16  19
ATOM     19  N4  UNL     1      29.427  -8.286 -34.762  0.00  0.00    +0.000 N 
ATOM     20  H14 UNL     1      29.767  -8.046 -35.721  0.00  0.00    +0.000 HD
BRANCH  19  21
ATOM     21  C18 UNL     1      30.406  -8.610 -33.760  0.00  0.00    +0.000 A 
ATOM     22  C19 UNL     1      31.089  -7.609 -33.044  0.00  0.00    +0.000 A 
ATOM     23  C20 UNL     1      32.030  -7.959 -32.068  0.00  0.00    +0.000 A 
ATOM     24  C21 UNL     1      32.279  -9.305 -31.782  0.00  0.00    +0.000 A 
ATOM     25  C22 UNL     1      31.590 -10.304 -32.474  0.00  0.00    +0.000 A 
ATOM     26  C23 UNL     1      30.659  -9.961 -33.460  0.00  0.00    +0.000 A 
ENDBRANCH  19  21
ENDBRANCH  16  19
ENDBRANCH   4   7
BRANCH   1  27
ATOM     27  O2  UNL     1      27.407  -9.115 -40.843  0.00  0.00    +0.000 OA
BRANCH  27  28
ATOM     28  C5  UNL     1      26.643  -9.885 -41.768  0.00  0.00    +0.000 C 
BRANCH  28  31
ATOM     29  N1  UNL     1      23.939  -7.558 -42.424  0.00  0.00    +0.000 N 
ATOM     30  C3  UNL     1      25.201  -7.778 -42.015  0.00  0.00    +0.000 A 
ATOM     31  C4  UNL     1      25.407  -9.133 -42.134  0.00  0.00    +0.000 A 
ATOM     32  N5  UNL     1      24.274  -9.700 -42.599  0.00  0.00    +0.000 NA
ATOM     33  N6  UNL     1      23.403  -8.715 -42.775  0.00  0.00    +0.000 NA
BRANCH  29  34
ATOM     34  C2  UNL     1      23.280  -6.264 -42.557  0.00  0.00    +0.000 C 
BRANCH  34  36
ATOM     35  O1  UNL     1      21.340  -6.388 -41.179  0.00  0.00    +0.000 OA
ATOM     36  C1  UNL     1      21.806  -6.423 -42.351  0.00  0.00    +0.000 C 
ATOM     37  N7  UNL     1      20.959  -6.733 -43.469  0.00  0.00    +0.000 N 
ATOM     38  H22 UNL     1      21.423  -7.067 -44.345  0.00  0.00    +0.000 HD
BRANCH  37  39
ATOM     39  C26 UNL     1      19.520  -6.720 -43.431  0.00  0.00    +0.000 A 
ATOM     40  C27 UNL     1      18.814  -6.261 -42.302  0.00  0.00    +0.000 A 
ATOM     41  C28 UNL     1      17.416  -6.246 -42.304  0.00  0.00    +0.000 A 
ATOM     42  C29 UNL     1      16.708  -6.670 -43.433  0.00  0.00    +0.000 A 
ATOM     43 BR1  UNL     1      14.799  -6.646 -43.430  0.00  0.00    +0.000 Br
ATOM     44  C30 UNL     1      17.403  -7.103 -44.567  0.00  0.00    +0.000 A 
ATOM     45  C31 UNL     1      18.801  -7.121 -44.568  0.00  0.00    +0.000 A 
ENDBRANCH  37  39
ENDBRANCH  34  36
ENDBRANCH  29  34
ENDBRANCH  28  31
ENDBRANCH  27  28
ENDBRANCH   1  27
TORSDOF 10
ENDMDL
MODEL 7
REMARK VINA RESULT:    -6.253      2.595      3.048
REMARK INTER + INTRA:         -11.776
REMARK INTER:                  -8.891
REMARK INTRA:                  -2.885
REMARK UNBOUND:                -2.049
REMARK  Name = resultss/4CJN/ligands/lig_348_t2.pdb
REMARK  10 active torsions:
REMARK  status: ('A' for Active; 'I' for Inactive)
REMARK    1  A    between atoms: C1_2  and  C2_3
REMARK    2  A    between atoms: C2_3  and  N1_4
REMARK    3  A    between atoms: C4_6  and  C5_7
REMARK    4  A    between atoms: C5_7  and  O2_8
REMARK    5  A    between atoms: O2_8  and  C6_9
REMARK    6  A    between atoms: C9_12  and  C10_13
REMARK    7  A    between atoms: C17_21  and  O3_22
REMARK    8  A    between atoms: N3_23  and  N4_24
REMARK    9  A    between atoms: N4_24  and  C18_25
REMARK   10  A    between atoms: N7_35  and  C26_36
REMARK                            x       y       z     vdW  Elec       q    Type
REMARK                         _______ _______ _______ _____ _____    ______ ____
ROOT
ATOM      1  C6  UNL     1      25.487  -8.494 -38.079  0.00  0.00    +0.000 A 
ATOM      2  C7  UNL     1      25.599  -7.090 -38.059  0.00  0.00    +0.000 A 
ATOM      3  C8  UNL     1      26.407  -6.459 -37.109  0.00  0.00    +0.000 A 
ATOM      4  C9  UNL     1      27.120  -7.218 -36.164  0.00  0.00    +0.000 A 
ATOM      5  C24 UNL     1      27.006  -8.622 -36.189  0.00  0.00    +0.000 A 
ATOM      6  C25 UNL     1      26.209  -9.250 -37.149  0.00  0.00    +0.000 A 
ENDROOT
BRANCH   4   7
ATOM      7  C10 UNL     1      27.914  -6.518 -35.084  0.00  0.00    +0.000 C 
ATOM      8  N2  UNL     1      29.324  -6.917 -35.145  0.00  0.00    +0.000 NA
ATOM      9  C11 UNL     1      29.883  -7.755 -34.320  0.00  0.00    +0.000 A 
ATOM     10  C12 UNL     1      31.213  -8.138 -34.543  0.00  0.00    +0.000 A 
ATOM     11  C13 UNL     1      31.821  -9.088 -33.719  0.00  0.00    +0.000 A 
ATOM     12  C14 UNL     1      31.106  -9.660 -32.665  0.00  0.00    +0.000 A 
ATOM     13  C15 UNL     1      29.789  -9.268 -32.413  0.00  0.00    +0.000 A 
ATOM     14  C16 UNL     1      29.166  -8.297 -33.222  0.00  0.00    +0.000 A 
ATOM     15  C17 UNL     1      27.920  -7.859 -32.953  0.00  0.00    +0.000 C 
ATOM     16  N3  UNL     1      27.337  -6.820 -33.767  0.00  0.00    +0.000 N 
BRANCH  15  17
ATOM     17  O3  UNL     1      27.201  -8.401 -31.879  0.00  0.00    +0.000 OA
ATOM     18  H13 UNL     1      27.662  -8.877 -31.116  0.00  0.00    +0.000 HD
ENDBRANCH  15  17
BRANCH  16  19
ATOM     19  N4  UNL     1      26.106  -6.232 -33.423  0.00  0.00    +0.000 N 
ATOM     20  H14 UNL     1      26.097  -5.518 -32.660  0.00  0.00    +0.000 HD
BRANCH  19  21
ATOM     21  C18 UNL     1      24.844  -6.750 -33.879  0.00  0.00    +0.000 A 
ATOM     22  C19 UNL     1      24.432  -8.061 -33.576  0.00  0.00    +0.000 A 
ATOM     23  C20 UNL     1      23.193  -8.531 -34.028  0.00  0.00    +0.000 A 
ATOM     24  C21 UNL     1      22.348  -7.693 -34.762  0.00  0.00    +0.000 A 
ATOM     25  C22 UNL     1      22.742  -6.383 -35.049  0.00  0.00    +0.000 A 
ATOM     26  C23 UNL     1      23.984  -5.913 -34.612  0.00  0.00    +0.000 A 
ENDBRANCH  19  21
ENDBRANCH  16  19
ENDBRANCH   4   7
BRANCH   1  27
ATOM     27  O2  UNL     1      24.664  -9.170 -38.992  0.00  0.00    +0.000 OA
BRANCH  27  28
ATOM     28  C5  UNL     1      24.195  -8.610 -40.216  0.00  0.00    +0.000 C 
BRANCH  28  31
ATOM     29  N1  UNL     1      26.859  -8.813 -42.667  0.00  0.00    +0.000 N 
ATOM     30  C3  UNL     1      26.323  -8.213 -41.591  0.00  0.00    +0.000 A 
ATOM     31  C4  UNL     1      25.171  -8.909 -41.303  0.00  0.00    +0.000 A 
ATOM     32  N5  UNL     1      25.032  -9.899 -42.208  0.00  0.00    +0.000 NA
ATOM     33  N6  UNL     1      26.079  -9.822 -43.019  0.00  0.00    +0.000 NA
BRANCH  29  34
ATOM     34  C2  UNL     1      28.131  -8.488 -43.302  0.00  0.00    +0.000 C 
BRANCH  34  36
ATOM     35  O1  UNL     1      29.630  -7.221 -41.950  0.00  0.00    +0.000 OA
ATOM     36  C1  UNL     1      29.200  -8.366 -42.261  0.00  0.00    +0.000 C 
ATOM     37  N7  UNL     1      29.807  -9.549 -41.720  0.00  0.00    +0.000 N 
ATOM     38  H22 UNL     1      29.652 -10.447 -42.234  0.00  0.00    +0.000 HD
BRANCH  37  39
ATOM     39  C26 UNL     1      30.698  -9.566 -40.589  0.00  0.00    +0.000 A 
ATOM     40  C27 UNL     1      30.216  -9.652 -39.269  0.00  0.00    +0.000 A 
ATOM     41  C28 UNL     1      31.108  -9.683 -38.193  0.00  0.00    +0.000 A 
ATOM     42  C29 UNL     1      32.488  -9.647 -38.422  0.00  0.00    +0.000 A 
ATOM     43 BR1  UNL     1      33.702  -9.692 -36.948  0.00  0.00    +0.000 Br
ATOM     44  C30 UNL     1      32.975  -9.588 -39.731  0.00  0.00    +0.000 A 
ATOM     45  C31 UNL     1      32.085  -9.555 -40.809  0.00  0.00    +0.000 A 
ENDBRANCH  37  39
ENDBRANCH  34  36
ENDBRANCH  29  34
ENDBRANCH  28  31
ENDBRANCH  27  28
ENDBRANCH   1  27
TORSDOF 10
ENDMDL
MODEL 8
REMARK VINA RESULT:    -5.968      5.020      7.954
REMARK INTER + INTRA:         -11.332
REMARK INTER:                  -9.884
REMARK INTRA:                  -1.448
REMARK UNBOUND:                -2.049
REMARK  Name = resultss/4CJN/ligands/lig_348_t2.pdb
REMARK  10 active torsions:
REMARK  status: ('A' for Active; 'I' for Inactive)
REMARK    1  A    between atoms: C1_2  and  C2_3
REMARK    2  A    between atoms: C2_3  and  N1_4
REMARK    3  A    between atoms: C4_6  and  C5_7
REMARK    4  A    between atoms: C5_7  and  O2_8
REMARK    5  A    between atoms: O2_8  and  C6_9
REMARK    6  A    between atoms: C9_12  and  C10_13
REMARK    7  A    between atoms: C17_21  and  O3_22
REMARK    8  A    between atoms: N3_23  and  N4_24
REMARK    9  A    between atoms: N4_24  and  C18_25
REMARK   10  A    between atoms: N7_35  and  C26_36
REMARK                            x       y       z     vdW  Elec       q    Type
REMARK                         _______ _______ _______ _____ _____    ______ ____
ROOT
ATOM      1  C6  UNL     1      27.770  -9.094 -39.067  0.00  0.00    +0.000 A 
ATOM      2  C7  UNL     1      28.293 -10.231 -38.419  0.00  0.00    +0.000 A 
ATOM      3  C8  UNL     1      28.069 -10.431 -37.054  0.00  0.00    +0.000 A 
ATOM      4  C9  UNL     1      27.318  -9.501 -36.311  0.00  0.00    +0.000 A 
ATOM      5  C24 UNL     1      26.796  -8.368 -36.964  0.00  0.00    +0.000 A 
ATOM      6  C25 UNL     1      27.010  -8.178 -38.332  0.00  0.00    +0.000 A 
ENDROOT
BRANCH   4   7
ATOM      7  C10 UNL     1      27.165  -9.682 -34.817  0.00  0.00    +0.000 C 
ATOM      8  N2  UNL     1      25.746  -9.713 -34.448  0.00  0.00    +0.000 NA
ATOM      9  C11 UNL     1      25.114  -8.720 -33.892  0.00  0.00    +0.000 A 
ATOM     10  C12 UNL     1      23.733  -8.830 -33.681  0.00  0.00    +0.000 A 
ATOM     11  C13 UNL     1      23.012  -7.757 -33.151  0.00  0.00    +0.000 A 
ATOM     12  C14 UNL     1      23.666  -6.567 -32.826  0.00  0.00    +0.000 A 
ATOM     13  C15 UNL     1      25.046  -6.451 -33.004  0.00  0.00    +0.000 A 
ATOM     14  C16 UNL     1      25.793  -7.530 -33.520  0.00  0.00    +0.000 A 
ATOM     15  C17 UNL     1      27.133  -7.459 -33.636  0.00  0.00    +0.000 C 
ATOM     16  N3  UNL     1      27.871  -8.605 -34.111  0.00  0.00    +0.000 N 
BRANCH  15  17
ATOM     17  O3  UNL     1      27.808  -6.283 -33.285  0.00  0.00    +0.000 OA
ATOM     18  H13 UNL     1      27.804  -5.467 -33.882  0.00  0.00    +0.000 HD
ENDBRANCH  15  17
BRANCH  16  19
ATOM     19  N4  UNL     1      29.278  -8.620 -34.099  0.00  0.00    +0.000 N 
ATOM     20  H14 UNL     1      29.762  -8.627 -33.173  0.00  0.00    +0.000 HD
BRANCH  19  21
ATOM     21  C18 UNL     1      30.067  -8.362 -35.273  0.00  0.00    +0.000 A 
ATOM     22  C19 UNL     1      30.969  -9.316 -35.780  0.00  0.00    +0.000 A 
ATOM     23  C20 UNL     1      31.716  -9.038 -36.931  0.00  0.00    +0.000 A 
ATOM     24  C21 UNL     1      31.553  -7.819 -37.597  0.00  0.00    +0.000 A 
ATOM     25  C22 UNL     1      30.644  -6.875 -37.112  0.00  0.00    +0.000 A 
ATOM     26  C23 UNL     1      29.905  -7.143 -35.955  0.00  0.00    +0.000 A 
ENDBRANCH  19  21
ENDBRANCH  16  19
ENDBRANCH   4   7
BRANCH   1  27
ATOM     27  O2  UNL     1      27.995  -8.834 -40.426  0.00  0.00    +0.000 OA
BRANCH  27  28
ATOM     28  C5  UNL     1      27.569  -9.686 -41.487  0.00  0.00    +0.000 C 
BRANCH  28  31
ATOM     29  N1  UNL     1      24.645  -7.843 -42.587  0.00  0.00    +0.000 N 
ATOM     30  C3  UNL     1      25.723  -7.930 -41.789  0.00  0.00    +0.000 A 
ATOM     31  C4  UNL     1      26.344  -9.113 -42.119  0.00  0.00    +0.000 A 
ATOM     32  N5  UNL     1      25.631  -9.714 -43.093  0.00  0.00    +0.000 NA
ATOM     33  N6  UNL     1      24.609  -8.913 -43.363  0.00  0.00    +0.000 NA
BRANCH  29  34
ATOM     34  C2  UNL     1      23.711  -6.725 -42.670  0.00  0.00    +0.000 C 
BRANCH  34  36
ATOM     35  O1  UNL     1      21.826  -8.141 -43.021  0.00  0.00    +0.000 OA
ATOM     36  C1  UNL     1      22.487  -7.144 -43.424  0.00  0.00    +0.000 C 
ATOM     37  N7  UNL     1      22.149  -6.488 -44.656  0.00  0.00    +0.000 N 
ATOM     38  H22 UNL     1      22.889  -5.902 -45.107  0.00  0.00    +0.000 HD
BRANCH  37  39
ATOM     39  C26 UNL     1      20.909  -6.668 -45.363  0.00  0.00    +0.000 A 
ATOM     40  C27 UNL     1      20.877  -7.110 -46.700  0.00  0.00    +0.000 A 
ATOM     41  C28 UNL     1      19.655  -7.292 -47.354  0.00  0.00    +0.000 A 
ATOM     42  C29 UNL     1      18.453  -7.052 -46.680  0.00  0.00    +0.000 A 
ATOM     43 BR1  UNL     1      16.786  -7.302 -47.578  0.00  0.00    +0.000 Br
ATOM     44  C30 UNL     1      18.476  -6.637 -45.344  0.00  0.00    +0.000 A 
ATOM     45  C31 UNL     1      19.696  -6.454 -44.688  0.00  0.00    +0.000 A 
ENDBRANCH  37  39
ENDBRANCH  34  36
ENDBRANCH  29  34
ENDBRANCH  28  31
ENDBRANCH  27  28
ENDBRANCH   1  27
TORSDOF 10
ENDMDL
MODEL 9
REMARK VINA RESULT:    -5.937      2.678      3.880
REMARK INTER + INTRA:         -11.283
REMARK INTER:                  -8.235
REMARK INTRA:                  -3.048
REMARK UNBOUND:                -2.049
REMARK  Name = resultss/4CJN/ligands/lig_348_t2.pdb
REMARK  10 active torsions:
REMARK  status: ('A' for Active; 'I' for Inactive)
REMARK    1  A    between atoms: C1_2  and  C2_3
REMARK    2  A    between atoms: C2_3  and  N1_4
REMARK    3  A    between atoms: C4_6  and  C5_7
REMARK    4  A    between atoms: C5_7  and  O2_8
REMARK    5  A    between atoms: O2_8  and  C6_9
REMARK    6  A    between atoms: C9_12  and  C10_13
REMARK    7  A    between atoms: C17_21  and  O3_22
REMARK    8  A    between atoms: N3_23  and  N4_24
REMARK    9  A    between atoms: N4_24  and  C18_25
REMARK   10  A    between atoms: N7_35  and  C26_36
REMARK                            x       y       z     vdW  Elec       q    Type
REMARK                         _______ _______ _______ _____ _____    ______ ____
ROOT
ATOM      1  C6  UNL     1      26.578  -7.180 -37.787  0.00  0.00    +0.000 A 
ATOM      2  C7  UNL     1      26.755  -6.073 -36.935  0.00  0.00    +0.000 A 
ATOM      3  C8  UNL     1      27.967  -5.885 -36.264  0.00  0.00    +0.000 A 
ATOM      4  C9  UNL     1      29.024  -6.797 -36.433  0.00  0.00    +0.000 A 
ATOM      5  C24 UNL     1      28.843  -7.901 -37.288  0.00  0.00    +0.000 A 
ATOM      6  C25 UNL     1      27.636  -8.079 -37.968  0.00  0.00    +0.000 A 
ENDROOT
BRANCH   4   7
ATOM      7  C10 UNL     1      30.294  -6.633 -35.628  0.00  0.00    +0.000 C 
ATOM      8  N2  UNL     1      31.441  -6.428 -36.517  0.00  0.00    +0.000 NA
ATOM      9  C11 UNL     1      32.325  -7.344 -36.793  0.00  0.00    +0.000 A 
ATOM     10  C12 UNL     1      33.319  -7.062 -37.740  0.00  0.00    +0.000 A 
ATOM     11  C13 UNL     1      34.240  -8.045 -38.111  0.00  0.00    +0.000 A 
ATOM     12  C14 UNL     1      34.175  -9.316 -37.538  0.00  0.00    +0.000 A 
ATOM     13  C15 UNL     1      33.207  -9.605 -36.573  0.00  0.00    +0.000 A 
ATOM     14  C16 UNL     1      32.282  -8.619 -36.172  0.00  0.00    +0.000 A 
ATOM     15  C17 UNL     1      31.385  -8.860 -35.196  0.00  0.00    +0.000 C 
ATOM     16  N3  UNL     1      30.494  -7.807 -34.770  0.00  0.00    +0.000 N 
BRANCH  15  17
ATOM     17  O3  UNL     1      31.328 -10.121 -34.588  0.00  0.00    +0.000 OA
ATOM     18  H13 UNL     1      31.507 -10.971 -35.106  0.00  0.00    +0.000 HD
ENDBRANCH  15  17
BRANCH  16  19
ATOM     19  N4  UNL     1      29.654  -7.974 -33.653  0.00  0.00    +0.000 N 
ATOM     20  H14 UNL     1      30.091  -7.977 -32.704  0.00  0.00    +0.000 HD
BRANCH  19  21
ATOM     21  C18 UNL     1      28.285  -8.400 -33.768  0.00  0.00    +0.000 A 
ATOM     22  C19 UNL     1      27.225  -7.612 -33.284  0.00  0.00    +0.000 A 
ATOM     23  C20 UNL     1      25.902  -8.050 -33.419  0.00  0.00    +0.000 A 
ATOM     24  C21 UNL     1      25.626  -9.263 -34.058  0.00  0.00    +0.000 A 
ATOM     25  C22 UNL     1      26.673 -10.042 -34.560  0.00  0.00    +0.000 A 
ATOM     26  C23 UNL     1      27.996  -9.614 -34.415  0.00  0.00    +0.000 A 
ENDBRANCH  19  21
ENDBRANCH  16  19
ENDBRANCH   4   7
BRANCH   1  27
ATOM     27  O2  UNL     1      25.371  -7.428 -38.457  0.00  0.00    +0.000 OA
BRANCH  27  28
ATOM     28  C5  UNL     1      24.901  -8.727 -38.808  0.00  0.00    +0.000 C 
BRANCH  28  31
ATOM     29  N1  UNL     1      25.831  -8.765 -42.313  0.00  0.00    +0.000 N 
ATOM     30  C3  UNL     1      25.862  -8.155 -41.117  0.00  0.00    +0.000 A 
ATOM     31  C4  UNL     1      25.179  -8.979 -40.252  0.00  0.00    +0.000 A 
ATOM     32  N5  UNL     1      24.745 -10.055 -40.940  0.00  0.00    +0.000 NA
ATOM     33  N6  UNL     1      25.166  -9.901 -42.188  0.00  0.00    +0.000 NA
BRANCH  29  34
ATOM     34  C2  UNL     1      26.491  -8.320 -43.536  0.00  0.00    +0.000 C 
BRANCH  34  36
ATOM     35  O1  UNL     1      28.757  -7.825 -44.083  0.00  0.00    +0.000 OA
ATOM     36  C1  UNL     1      27.965  -8.562 -43.433  0.00  0.00    +0.000 C 
ATOM     37  N7  UNL     1      28.452  -9.696 -42.699  0.00  0.00    +0.000 N 
ATOM     38  H22 UNL     1      27.762 -10.444 -42.457  0.00  0.00    +0.000 HD
BRANCH  37  39
ATOM     39  C26 UNL     1      29.835  -9.923 -42.371  0.00  0.00    +0.000 A 
ATOM     40  C27 UNL     1      30.671 -10.702 -43.194  0.00  0.00    +0.000 A 
ATOM     41  C28 UNL     1      32.015 -10.890 -42.856  0.00  0.00    +0.000 A 
ATOM     42  C29 UNL     1      32.542 -10.293 -41.707  0.00  0.00    +0.000 A 
ATOM     43 BR1  UNL     1      34.379 -10.552 -41.251  0.00  0.00    +0.000 Br
ATOM     44  C30 UNL     1      31.724  -9.497 -40.898  0.00  0.00    +0.000 A 
ATOM     45  C31 UNL     1      30.380  -9.308 -41.232  0.00  0.00    +0.000 A 
ENDBRANCH  37  39
ENDBRANCH  34  36
ENDBRANCH  29  34
ENDBRANCH  28  31
ENDBRANCH  27  28
ENDBRANCH   1  27
TORSDOF 10
ENDMDL
