MODEL 1
REMARK VINA RESULT:    -7.485      0.000      0.000
REMARK INTER + INTRA:          -9.632
REMARK INTER:                  -9.236
REMARK INTRA:                  -0.396
REMARK UNBOUND:                -0.396
REMARK  Name = resultss/4CJN/ligands/lig_179_t2.pdb
REMARK  4 active torsions:
REMARK  status: ('A' for Active; 'I' for Inactive)
REMARK    1  A    between atoms: C1_2  and  C9_14
REMARK    2  A    between atoms: N1_3  and  N2_4
REMARK    3  A    between atoms: C2_5  and  C3_6
REMARK    4  A    between atoms: C12_17  and  C13_18
REMARK                            x       y       z     vdW  Elec       q    Type
REMARK                         _______ _______ _______ _____ _____    ______ ____
ROOT
ATOM      1  C9  UNL     1      29.922  -9.554 -40.550  0.00  0.00    +0.000 A 
ATOM      2  C10 UNL     1      31.327  -9.594 -40.574  0.00  0.00    +0.000 A 
ATOM      3  C11 UNL     1      32.004 -10.216 -41.626  0.00  0.00    +0.000 A 
ATOM      4  C12 UNL     1      31.293 -10.808 -42.683  0.00  0.00    +0.000 A 
ATOM      5  C20 UNL     1      29.888 -10.761 -42.665  0.00  0.00    +0.000 A 
ATOM      6  C21 UNL     1      29.211 -10.139 -41.612  0.00  0.00    +0.000 A 
ENDROOT
BRANCH   4   7
ATOM      7  C13 UNL     1      32.021 -11.465 -43.794  0.00  0.00    +0.000 A 
ATOM      8  N3  UNL     1      31.734 -12.717 -44.232  0.00  0.00    +0.000 NA
ATOM      9  C14 UNL     1      32.544 -13.084 -45.257  0.00  0.00    +0.000 A 
ATOM     10  C15 UNL     1      32.482 -14.316 -45.910  0.00  0.00    +0.000 A 
ATOM     11  C16 UNL     1      33.384 -14.569 -46.960  0.00  0.00    +0.000 A 
ATOM     12  C17 UNL     1      34.328 -13.595 -47.341  0.00  0.00    +0.000 A 
ATOM     13  C18 UNL     1      34.380 -12.359 -46.677  0.00  0.00    +0.000 A 
ATOM     14  C19 UNL     1      33.477 -12.134 -45.642  0.00  0.00    +0.000 A 
ATOM     15  S1  UNL     1      33.301 -10.775 -44.676  0.00  0.00    +0.000 S 
ENDBRANCH   4   7
BRANCH   1  17
ATOM     16  O1  UNL     1      29.226  -7.628 -39.350  0.00  0.00    +0.000 OA
ATOM     17  C1  UNL     1      29.212  -8.887 -39.432  0.00  0.00    +0.000 C 
ATOM     18  N1  UNL     1      28.549  -9.657 -38.415  0.00  0.00    +0.000 N 
ATOM     19  H1  UNL     1      28.919 -10.608 -38.193  0.00  0.00    +0.000 HD
BRANCH  18  20
ATOM     20  N2  UNL     1      27.576  -9.121 -37.550  0.00  0.00    +0.000 NA
ATOM     21  C2  UNL     1      27.234  -9.674 -36.424  0.00  0.00    +0.000 C 
BRANCH  21  22
ATOM     22  C3  UNL     1      26.192  -9.079 -35.560  0.00  0.00    +0.000 C 
ATOM     23  C4  UNL     1      25.844  -9.777 -34.302  0.00  0.00    +0.000 C 
ATOM     24  C5  UNL     1      24.958  -9.269 -33.446  0.00  0.00    +0.000 C 
ATOM     25  C6  UNL     1      24.281  -8.000 -33.739  0.00  0.00    +0.000 C 
ATOM     26  O2  UNL     1      23.513  -7.493 -32.879  0.00  0.00    +0.000 OA
ATOM     27  C7  UNL     1      24.473  -7.314 -35.065  0.00  0.00    +0.000 C 
ATOM     28 BR1  UNL     1      22.819  -7.390 -36.072  0.00  0.00    +0.000 Br
ATOM     29  C8  UNL     1      25.574  -7.928 -35.894  0.00  0.00    +0.000 C 
ENDBRANCH  21  22
ENDBRANCH  18  20
ENDBRANCH   1  17
TORSDOF 4
ENDMDL
MODEL 2
REMARK VINA RESULT:    -5.933      6.805      8.624
REMARK INTER + INTRA:          -7.717
REMARK INTER:                  -7.294
REMARK INTRA:                  -0.423
REMARK UNBOUND:                -0.396
REMARK  Name = resultss/4CJN/ligands/lig_179_t2.pdb
REMARK  4 active torsions:
REMARK  status: ('A' for Active; 'I' for Inactive)
REMARK    1  A    between atoms: C1_2  and  C9_14
REMARK    2  A    between atoms: N1_3  and  N2_4
REMARK    3  A    between atoms: C2_5  and  C3_6
REMARK    4  A    between atoms: C12_17  and  C13_18
REMARK                            x       y       z     vdW  Elec       q    Type
REMARK                         _______ _______ _______ _____ _____    ______ ____
ROOT
ATOM      1  C9  UNL     1      26.147  -8.478 -42.237  0.00  0.00    +0.000 A 
ATOM      2  C10 UNL     1      26.555  -7.820 -43.410  0.00  0.00    +0.000 A 
ATOM      3  C11 UNL     1      25.625  -7.479 -44.396  0.00  0.00    +0.000 A 
ATOM      4  C12 UNL     1      24.263  -7.783 -44.229  0.00  0.00    +0.000 A 
ATOM      5  C20 UNL     1      23.854  -8.434 -43.053  0.00  0.00    +0.000 A 
ATOM      6  C21 UNL     1      24.784  -8.774 -42.067  0.00  0.00    +0.000 A 
ENDROOT
BRANCH   4   7
ATOM      7  C13 UNL     1      23.285  -7.417 -45.281  0.00  0.00    +0.000 A 
ATOM      8  N3  UNL     1      21.987  -7.121 -45.017  0.00  0.00    +0.000 NA
ATOM      9  C14 UNL     1      21.305  -6.821 -46.150  0.00  0.00    +0.000 A 
ATOM     10  C15 UNL     1      19.953  -6.476 -46.190  0.00  0.00    +0.000 A 
ATOM     11  C16 UNL     1      19.367  -6.186 -47.436  0.00  0.00    +0.000 A 
ATOM     12  C17 UNL     1      20.134  -6.245 -48.617  0.00  0.00    +0.000 A 
ATOM     13  C18 UNL     1      21.493  -6.592 -48.564  0.00  0.00    +0.000 A 
ATOM     14  C19 UNL     1      22.048  -6.874 -47.319  0.00  0.00    +0.000 A 
ATOM     15  S1  UNL     1      23.622  -7.313 -46.944  0.00  0.00    +0.000 S 
ENDBRANCH   4   7
BRANCH   1  17
ATOM     16  O1  UNL     1      28.361  -8.568 -41.384  0.00  0.00    +0.000 OA
ATOM     17  C1  UNL     1      27.141  -8.831 -41.195  0.00  0.00    +0.000 C 
ATOM     18  N1  UNL     1      26.740  -9.512 -39.993  0.00  0.00    +0.000 N 
ATOM     19  H1  UNL     1      25.908 -10.140 -40.033  0.00  0.00    +0.000 HD
BRANCH  18  20
ATOM     20  N2  UNL     1      27.531  -9.558 -38.829  0.00  0.00    +0.000 NA
ATOM     21  C2  UNL     1      27.038  -9.658 -37.630  0.00  0.00    +0.000 C 
BRANCH  21  22
ATOM     22  C3  UNL     1      27.914  -9.684 -36.439  0.00  0.00    +0.000 C 
ATOM     23  C4  UNL     1      27.276  -9.738 -35.105  0.00  0.00    +0.000 C 
ATOM     24  C5  UNL     1      28.000  -9.824 -33.989  0.00  0.00    +0.000 C 
ATOM     25  C6  UNL     1      29.467  -9.847 -34.053  0.00  0.00    +0.000 C 
ATOM     26  O2  UNL     1      30.132 -10.016 -32.997  0.00  0.00    +0.000 OA
ATOM     27  C7  UNL     1      30.183  -9.644 -35.361  0.00  0.00    +0.000 C 
ATOM     28 BR1  UNL     1      31.111  -7.943 -35.328  0.00  0.00    +0.000 Br
ATOM     29  C8  UNL     1      29.257  -9.668 -36.552  0.00  0.00    +0.000 C 
ENDBRANCH  21  22
ENDBRANCH  18  20
ENDBRANCH   1  17
TORSDOF 4
ENDMDL
MODEL 3
REMARK VINA RESULT:    -5.803      6.161      7.940
REMARK INTER + INTRA:          -7.556
REMARK INTER:                  -7.117
REMARK INTRA:                  -0.439
REMARK UNBOUND:                -0.396
REMARK  Name = resultss/4CJN/ligands/lig_179_t2.pdb
REMARK  4 active torsions:
REMARK  status: ('A' for Active; 'I' for Inactive)
REMARK    1  A    between atoms: C1_2  and  C9_14
REMARK    2  A    between atoms: N1_3  and  N2_4
REMARK    3  A    between atoms: C2_5  and  C3_6
REMARK    4  A    between atoms: C12_17  and  C13_18
REMARK                            x       y       z     vdW  Elec       q    Type
REMARK                         _______ _______ _______ _____ _____    ______ ____
ROOT
ATOM      1  C9  UNL     1      26.879  -9.382 -40.651  0.00  0.00    +0.000 A 
ATOM      2  C10 UNL     1      27.246  -9.562 -41.996  0.00  0.00    +0.000 A 
ATOM      3  C11 UNL     1      26.432  -9.086 -43.027  0.00  0.00    +0.000 A 
ATOM      4  C12 UNL     1      25.233  -8.413 -42.737  0.00  0.00    +0.000 A 
ATOM      5  C20 UNL     1      24.869  -8.225 -41.392  0.00  0.00    +0.000 A 
ATOM      6  C21 UNL     1      25.684  -8.701 -40.362  0.00  0.00    +0.000 A 
ENDROOT
BRANCH   4   7
ATOM      7  C13 UNL     1      24.376  -7.913 -43.838  0.00  0.00    +0.000 A 
ATOM      8  N3  UNL     1      24.805  -7.802 -45.121  0.00  0.00    +0.000 NA
ATOM      9  C14 UNL     1      23.830  -7.319 -45.931  0.00  0.00    +0.000 A 
ATOM     10  C15 UNL     1      23.979  -7.099 -47.301  0.00  0.00    +0.000 A 
ATOM     11  C16 UNL     1      22.885  -6.594 -48.027  0.00  0.00    +0.000 A 
ATOM     12  C17 UNL     1      21.664  -6.318 -47.379  0.00  0.00    +0.000 A 
ATOM     13  C18 UNL     1      21.526  -6.545 -46.001  0.00  0.00    +0.000 A 
ATOM     14  C19 UNL     1      22.624  -7.044 -45.306  0.00  0.00    +0.000 A 
ATOM     15  S1  UNL     1      22.760  -7.411 -43.676  0.00  0.00    +0.000 S 
ENDBRANCH   4   7
BRANCH   1  17
ATOM     16  O1  UNL     1      28.942 -10.219 -39.826  0.00  0.00    +0.000 OA
ATOM     17  C1  UNL     1      27.752  -9.886 -39.564  0.00  0.00    +0.000 C 
ATOM     18  N1  UNL     1      27.249 -10.046 -38.226  0.00  0.00    +0.000 N 
ATOM     19  H1  UNL     1      26.233 -10.249 -38.100  0.00  0.00    +0.000 HD
BRANCH  18  20
ATOM     20  N2  UNL     1      28.080 -10.167 -37.096  0.00  0.00    +0.000 NA
ATOM     21  C2  UNL     1      28.605  -9.150 -36.479  0.00  0.00    +0.000 C 
BRANCH  21  22
ATOM     22  C3  UNL     1      29.486  -9.334 -35.305  0.00  0.00    +0.000 C 
ATOM     23  C4  UNL     1      28.862  -9.376 -33.964  0.00  0.00    +0.000 C 
ATOM     24  C5  UNL     1      29.585  -9.598 -32.867  0.00  0.00    +0.000 C 
ATOM     25  C6  UNL     1      31.038  -9.790 -32.957  0.00  0.00    +0.000 C 
ATOM     26  O2  UNL     1      31.691 -10.086 -31.922  0.00  0.00    +0.000 OA
ATOM     27  C7  UNL     1      31.757  -9.612 -34.267  0.00  0.00    +0.000 C 
ATOM     28 BR1  UNL     1      32.879  -8.035 -34.173  0.00  0.00    +0.000 Br
ATOM     29  C8  UNL     1      30.820  -9.471 -35.442  0.00  0.00    +0.000 C 
ENDBRANCH  21  22
ENDBRANCH  18  20
ENDBRANCH   1  17
TORSDOF 4
ENDMDL
MODEL 4
REMARK VINA RESULT:    -5.503      5.643      6.888
REMARK INTER + INTRA:          -7.186
REMARK INTER:                  -6.762
REMARK INTRA:                  -0.424
REMARK UNBOUND:                -0.396
REMARK  Name = resultss/4CJN/ligands/lig_179_t2.pdb
REMARK  4 active torsions:
REMARK  status: ('A' for Active; 'I' for Inactive)
REMARK    1  A    between atoms: C1_2  and  C9_14
REMARK    2  A    between atoms: N1_3  and  N2_4
REMARK    3  A    between atoms: C2_5  and  C3_6
REMARK    4  A    between atoms: C12_17  and  C13_18
REMARK                            x       y       z     vdW  Elec       q    Type
REMARK                         _______ _______ _______ _____ _____    ______ ____
ROOT
ATOM      1  C9  UNL     1      29.076  -8.722 -41.091  0.00  0.00    +0.000 A 
ATOM      2  C10 UNL     1      29.577  -9.093 -42.351  0.00  0.00    +0.000 A 
ATOM      3  C11 UNL     1      28.944  -8.669 -43.523  0.00  0.00    +0.000 A 
ATOM      4  C12 UNL     1      27.798  -7.859 -43.463  0.00  0.00    +0.000 A 
ATOM      5  C20 UNL     1      27.301  -7.480 -42.203  0.00  0.00    +0.000 A 
ATOM      6  C21 UNL     1      27.935  -7.903 -41.032  0.00  0.00    +0.000 A 
ENDROOT
BRANCH   4   7
ATOM      7  C13 UNL     1      27.134  -7.415 -44.711  0.00  0.00    +0.000 A 
ATOM      8  N3  UNL     1      27.800  -7.220 -45.878  0.00  0.00    +0.000 NA
ATOM      9  C14 UNL     1      26.964  -6.816 -46.866  0.00  0.00    +0.000 A 
ATOM     10  C15 UNL     1      27.364  -6.539 -48.175  0.00  0.00    +0.000 A 
ATOM     11  C16 UNL     1      26.392  -6.127 -49.105  0.00  0.00    +0.000 A 
ATOM     12  C17 UNL     1      25.043  -5.998 -48.719  0.00  0.00    +0.000 A 
ATOM     13  C18 UNL     1      24.653  -6.281 -47.400  0.00  0.00    +0.000 A 
ATOM     14  C19 UNL     1      25.634  -6.686 -46.500  0.00  0.00    +0.000 A 
ATOM     15  S1  UNL     1      25.474  -7.087 -44.879  0.00  0.00    +0.000 S 
ENDBRANCH   4   7
BRANCH   1  17
ATOM     16  O1  UNL     1      30.867  -9.769 -39.937  0.00  0.00    +0.000 OA
ATOM     17  C1  UNL     1      29.757  -9.172 -39.854  0.00  0.00    +0.000 C 
ATOM     18  N1  UNL     1      29.150  -8.980 -38.565  0.00  0.00    +0.000 N 
ATOM     19  H1  UNL     1      28.108  -8.958 -38.506  0.00  0.00    +0.000 HD
BRANCH  18  20
ATOM     20  N2  UNL     1      29.866  -9.045 -37.355  0.00  0.00    +0.000 NA
ATOM     21  C2  UNL     1      29.353  -9.472 -36.239  0.00  0.00    +0.000 C 
BRANCH  21  22
ATOM     22  C3  UNL     1      30.145  -9.503 -34.990  0.00  0.00    +0.000 C 
ATOM     23  C4  UNL     1      29.417  -9.570 -33.703  0.00  0.00    +0.000 C 
ATOM     24  C5  UNL     1      30.064  -9.660 -32.542  0.00  0.00    +0.000 C 
ATOM     25  C6  UNL     1      31.531  -9.675 -32.504  0.00  0.00    +0.000 C 
ATOM     26  O2  UNL     1      32.123  -9.849 -31.406  0.00  0.00    +0.000 OA
ATOM     27  C7  UNL     1      32.335  -9.460 -33.759  0.00  0.00    +0.000 C 
ATOM     28 BR1  UNL     1      33.248  -7.754 -33.649  0.00  0.00    +0.000 Br
ATOM     29  C8  UNL     1      31.492  -9.479 -35.011  0.00  0.00    +0.000 C 
ENDBRANCH  21  22
ENDBRANCH  18  20
ENDBRANCH   1  17
TORSDOF 4
ENDMDL
MODEL 5
REMARK VINA RESULT:    -5.452      5.940      7.612
REMARK INTER + INTRA:          -7.123
REMARK INTER:                  -6.707
REMARK INTRA:                  -0.416
REMARK UNBOUND:                -0.396
REMARK  Name = resultss/4CJN/ligands/lig_179_t2.pdb
REMARK  4 active torsions:
REMARK  status: ('A' for Active; 'I' for Inactive)
REMARK    1  A    between atoms: C1_2  and  C9_14
REMARK    2  A    between atoms: N1_3  and  N2_4
REMARK    3  A    between atoms: C2_5  and  C3_6
REMARK    4  A    between atoms: C12_17  and  C13_18
REMARK                            x       y       z     vdW  Elec       q    Type
REMARK                         _______ _______ _______ _____ _____    ______ ____
ROOT
ATOM      1  C9  UNL     1      27.585  -8.741 -41.009  0.00  0.00    +0.000 A 
ATOM      2  C10 UNL     1      27.405  -7.378 -41.305  0.00  0.00    +0.000 A 
ATOM      3  C11 UNL     1      26.694  -6.985 -42.442  0.00  0.00    +0.000 A 
ATOM      4  C12 UNL     1      26.139  -7.944 -43.306  0.00  0.00    +0.000 A 
ATOM      5  C20 UNL     1      26.311  -9.307 -43.005  0.00  0.00    +0.000 A 
ATOM      6  C21 UNL     1      27.022  -9.700 -41.868  0.00  0.00    +0.000 A 
ENDROOT
BRANCH   4   7
ATOM      7  C13 UNL     1      25.387  -7.516 -44.509  0.00  0.00    +0.000 A 
ATOM      8  N3  UNL     1      24.035  -7.589 -44.604  0.00  0.00    +0.000 NA
ATOM      9  C14 UNL     1      23.596  -7.136 -45.805  0.00  0.00    +0.000 A 
ATOM     10  C15 UNL     1      22.254  -7.090 -46.189  0.00  0.00    +0.000 A 
ATOM     11  C16 UNL     1      21.934  -6.596 -47.466  0.00  0.00    +0.000 A 
ATOM     12  C17 UNL     1      22.951  -6.156 -48.337  0.00  0.00    +0.000 A 
ATOM     13  C18 UNL     1      24.296  -6.206 -47.939  0.00  0.00    +0.000 A 
ATOM     14  C19 UNL     1      24.586  -6.700 -46.670  0.00  0.00    +0.000 A 
ATOM     15  S1  UNL     1      26.078  -6.881 -45.926  0.00  0.00    +0.000 S 
ENDBRANCH   4   7
BRANCH   1  17
ATOM     16  O1  UNL     1      29.284  -9.976 -39.903  0.00  0.00    +0.000 OA
ATOM     17  C1  UNL     1      28.337  -9.149 -39.797  0.00  0.00    +0.000 C 
ATOM     18  N1  UNL     1      27.971  -8.651 -38.499  0.00  0.00    +0.000 N 
ATOM     19  H1  UNL     1      26.972  -8.397 -38.329  0.00  0.00    +0.000 HD
BRANCH  18  20
ATOM     20  N2  UNL     1      28.827  -8.698 -37.383  0.00  0.00    +0.000 NA
ATOM     21  C2  UNL     1      28.683  -9.539 -36.402  0.00  0.00    +0.000 C 
BRANCH  21  22
ATOM     22  C3  UNL     1      29.601  -9.533 -35.243  0.00  0.00    +0.000 C 
ATOM     23  C4  UNL     1      29.014  -9.600 -33.886  0.00  0.00    +0.000 C 
ATOM     24  C5  UNL     1      29.780  -9.659 -32.798  0.00  0.00    +0.000 C 
ATOM     25  C6  UNL     1      31.244  -9.638 -32.914  0.00  0.00    +0.000 C 
ATOM     26  O2  UNL     1      31.951  -9.783 -31.882  0.00  0.00    +0.000 OA
ATOM     27  C7  UNL     1      31.906  -9.420 -34.248  0.00  0.00    +0.000 C 
ATOM     28 BR1  UNL     1      32.782  -7.692 -34.253  0.00  0.00    +0.000 Br
ATOM     29  C8  UNL     1      30.938  -9.477 -35.405  0.00  0.00    +0.000 C 
ENDBRANCH  21  22
ENDBRANCH  18  20
ENDBRANCH   1  17
TORSDOF 4
ENDMDL
MODEL 6
REMARK VINA RESULT:    -5.127      2.135      2.322
REMARK INTER + INTRA:          -6.722
REMARK INTER:                  -6.302
REMARK INTRA:                  -0.420
REMARK UNBOUND:                -0.396
REMARK  Name = resultss/4CJN/ligands/lig_179_t2.pdb
REMARK  4 active torsions:
REMARK  status: ('A' for Active; 'I' for Inactive)
REMARK    1  A    between atoms: C1_2  and  C9_14
REMARK    2  A    between atoms: N1_3  and  N2_4
REMARK    3  A    between atoms: C2_5  and  C3_6
REMARK    4  A    between atoms: C12_17  and  C13_18
REMARK                            x       y       z     vdW  Elec       q    Type
REMARK                         _______ _______ _______ _____ _____    ______ ____
ROOT
ATOM      1  C9  UNL     1      29.493  -9.701 -40.268  0.00  0.00    +0.000 A 
ATOM      2  C10 UNL     1      28.944  -9.801 -41.559  0.00  0.00    +0.000 A 
ATOM      3  C11 UNL     1      29.704 -10.304 -42.618  0.00  0.00    +0.000 A 
ATOM      4  C12 UNL     1      31.028 -10.725 -42.412  0.00  0.00    +0.000 A 
ATOM      5  C20 UNL     1      31.574 -10.634 -41.120  0.00  0.00    +0.000 A 
ATOM      6  C21 UNL     1      30.815 -10.130 -40.060  0.00  0.00    +0.000 A 
ENDROOT
BRANCH   4   7
ATOM      7  C13 UNL     1      31.825 -11.257 -43.542  0.00  0.00    +0.000 A 
ATOM      8  N3  UNL     1      31.654 -12.505 -44.048  0.00  0.00    +0.000 NA
ATOM      9  C14 UNL     1      32.506 -12.745 -45.077  0.00  0.00    +0.000 A 
ATOM     10  C15 UNL     1      32.561 -13.942 -45.793  0.00  0.00    +0.000 A 
ATOM     11  C16 UNL     1      33.494 -14.060 -46.840  0.00  0.00    +0.000 A 
ATOM     12  C17 UNL     1      34.353 -12.988 -47.155  0.00  0.00    +0.000 A 
ATOM     13  C18 UNL     1      34.287 -11.789 -46.428  0.00  0.00    +0.000 A 
ATOM     14  C19 UNL     1      33.355 -11.699 -45.398  0.00  0.00    +0.000 A 
ATOM     15  S1  UNL     1      33.048 -10.413 -44.367  0.00  0.00    +0.000 S 
ENDBRANCH   4   7
BRANCH   1  17
ATOM     16  O1  UNL     1      27.690  -9.835 -38.730  0.00  0.00    +0.000 OA
ATOM     17  C1  UNL     1      28.678  -9.170 -39.149  0.00  0.00    +0.000 C 
ATOM     18  N1  UNL     1      28.968  -7.888 -38.567  0.00  0.00    +0.000 N 
ATOM     19  H1  UNL     1      29.411  -7.159 -39.169  0.00  0.00    +0.000 HD
BRANCH  18  20
ATOM     20  N2  UNL     1      28.491  -7.485 -37.306  0.00  0.00    +0.000 NA
ATOM     21  C2  UNL     1      29.057  -7.817 -36.183  0.00  0.00    +0.000 C 
BRANCH  21  22
ATOM     22  C3  UNL     1      28.503  -7.380 -34.884  0.00  0.00    +0.000 C 
ATOM     23  C4  UNL     1      28.904  -8.124 -33.669  0.00  0.00    +0.000 C 
ATOM     24  C5  UNL     1      28.492  -7.751 -32.457  0.00  0.00    +0.000 C 
ATOM     25  C6  UNL     1      27.605  -6.593 -32.294  0.00  0.00    +0.000 C 
ATOM     26  O2  UNL     1      27.298  -6.204 -31.136  0.00  0.00    +0.000 OA
ATOM     27  C7  UNL     1      27.039  -5.883 -33.494  0.00  0.00    +0.000 C 
ATOM     28 BR1  UNL     1      25.129  -6.195 -33.582  0.00  0.00    +0.000 Br
ATOM     29  C8  UNL     1      27.663  -6.329 -34.794  0.00  0.00    +0.000 C 
ENDBRANCH  21  22
ENDBRANCH  18  20
ENDBRANCH   1  17
TORSDOF 4
ENDMDL
MODEL 7
REMARK VINA RESULT:    -4.942      6.537     10.372
REMARK INTER + INTRA:          -6.494
REMARK INTER:                  -6.076
REMARK INTRA:                  -0.418
REMARK UNBOUND:                -0.396
REMARK  Name = resultss/4CJN/ligands/lig_179_t2.pdb
REMARK  4 active torsions:
REMARK  status: ('A' for Active; 'I' for Inactive)
REMARK    1  A    between atoms: C1_2  and  C9_14
REMARK    2  A    between atoms: N1_3  and  N2_4
REMARK    3  A    between atoms: C2_5  and  C3_6
REMARK    4  A    between atoms: C12_17  and  C13_18
REMARK                            x       y       z     vdW  Elec       q    Type
REMARK                         _______ _______ _______ _____ _____    ______ ____
ROOT
ATOM      1  C9  UNL     1      27.627  -8.797 -38.083  0.00  0.00    +0.000 A 
ATOM      2  C10 UNL     1      27.980 -10.018 -37.483  0.00  0.00    +0.000 A 
ATOM      3  C11 UNL     1      28.817 -10.045 -36.363  0.00  0.00    +0.000 A 
ATOM      4  C12 UNL     1      29.315  -8.852 -35.814  0.00  0.00    +0.000 A 
ATOM      5  C20 UNL     1      28.954  -7.630 -36.409  0.00  0.00    +0.000 A 
ATOM      6  C21 UNL     1      28.118  -7.603 -37.528  0.00  0.00    +0.000 A 
ENDROOT
BRANCH   4   7
ATOM      7  C13 UNL     1      30.201  -8.892 -34.627  0.00  0.00    +0.000 A 
ATOM      8  N3  UNL     1      30.500 -10.037 -33.962  0.00  0.00    +0.000 NA
ATOM      9  C14 UNL     1      31.330  -9.801 -32.915  0.00  0.00    +0.000 A 
ATOM     10  C15 UNL     1      31.809 -10.787 -32.050  0.00  0.00    +0.000 A 
ATOM     11  C16 UNL     1      32.665 -10.406 -31.001  0.00  0.00    +0.000 A 
ATOM     12  C17 UNL     1      33.030  -9.055 -30.831  0.00  0.00    +0.000 A 
ATOM     13  C18 UNL     1      32.543  -8.074 -31.709  0.00  0.00    +0.000 A 
ATOM     14  C19 UNL     1      31.697  -8.477 -32.738  0.00  0.00    +0.000 A 
ATOM     15  S1  UNL     1      30.966  -7.546 -33.925  0.00  0.00    +0.000 S 
ENDBRANCH   4   7
BRANCH   1  17
ATOM     16  O1  UNL     1      25.484  -8.735 -39.103  0.00  0.00    +0.000 OA
ATOM     17  C1  UNL     1      26.735  -8.778 -39.268  0.00  0.00    +0.000 C 
ATOM     18  N1  UNL     1      27.273  -8.855 -40.599  0.00  0.00    +0.000 N 
ATOM     19  H1  UNL     1      28.176  -9.360 -40.740  0.00  0.00    +0.000 HD
BRANCH  18  20
ATOM     20  N2  UNL     1      26.549  -8.488 -41.749  0.00  0.00    +0.000 NA
ATOM     21  C2  UNL     1      27.039  -7.750 -42.701  0.00  0.00    +0.000 C 
BRANCH  21  22
ATOM     22  C3  UNL     1      26.228  -7.379 -43.880  0.00  0.00    +0.000 C 
ATOM     23  C4  UNL     1      24.857  -7.926 -43.985  0.00  0.00    +0.000 C 
ATOM     24  C5  UNL     1      24.047  -7.588 -44.989  0.00  0.00    +0.000 C 
ATOM     25  C6  UNL     1      24.504  -6.670 -46.039  0.00  0.00    +0.000 C 
ATOM     26  O2  UNL     1      23.697  -6.294 -46.930  0.00  0.00    +0.000 OA
ATOM     27  C7  UNL     1      25.932  -6.194 -46.077  0.00  0.00    +0.000 C 
ATOM     28 BR1  UNL     1      26.823  -6.963 -47.616  0.00  0.00    +0.000 Br
ATOM     29  C8  UNL     1      26.709  -6.558 -44.835  0.00  0.00    +0.000 C 
ENDBRANCH  21  22
ENDBRANCH  18  20
ENDBRANCH   1  17
TORSDOF 4
ENDMDL
MODEL 8
REMARK VINA RESULT:    -4.761      6.638      8.878
REMARK INTER + INTRA:          -6.271
REMARK INTER:                  -6.232
REMARK INTRA:                  -0.038
REMARK UNBOUND:                -0.396
REMARK  Name = resultss/4CJN/ligands/lig_179_t2.pdb
REMARK  4 active torsions:
REMARK  status: ('A' for Active; 'I' for Inactive)
REMARK    1  A    between atoms: C1_2  and  C9_14
REMARK    2  A    between atoms: N1_3  and  N2_4
REMARK    3  A    between atoms: C2_5  and  C3_6
REMARK    4  A    between atoms: C12_17  and  C13_18
REMARK                            x       y       z     vdW  Elec       q    Type
REMARK                         _______ _______ _______ _____ _____    ______ ____
ROOT
ATOM      1  C9  UNL     1      26.200  -8.572 -39.719  0.00  0.00    +0.000 A 
ATOM      2  C10 UNL     1      25.122  -7.714 -39.439  0.00  0.00    +0.000 A 
ATOM      3  C11 UNL     1      24.196  -7.386 -40.433  0.00  0.00    +0.000 A 
ATOM      4  C12 UNL     1      24.321  -7.913 -41.729  0.00  0.00    +0.000 A 
ATOM      5  C20 UNL     1      25.393  -8.779 -42.007  0.00  0.00    +0.000 A 
ATOM      6  C21 UNL     1      26.320  -9.107 -41.013  0.00  0.00    +0.000 A 
ENDROOT
BRANCH   4   7
ATOM      7  C13 UNL     1      23.334  -7.559 -42.775  0.00  0.00    +0.000 A 
ATOM      8  N3  UNL     1      22.018  -7.350 -42.514  0.00  0.00    +0.000 NA
ATOM      9  C14 UNL     1      21.331  -7.040 -43.642  0.00  0.00    +0.000 A 
ATOM     10  C15 UNL     1      19.961  -6.772 -43.683  0.00  0.00    +0.000 A 
ATOM     11  C16 UNL     1      19.371  -6.463 -44.922  0.00  0.00    +0.000 A 
ATOM     12  C17 UNL     1      20.151  -6.425 -46.095  0.00  0.00    +0.000 A 
ATOM     13  C18 UNL     1      21.527  -6.696 -46.040  0.00  0.00    +0.000 A 
ATOM     14  C19 UNL     1      22.086  -6.999 -44.802  0.00  0.00    +0.000 A 
ATOM     15  S1  UNL     1      23.680  -7.363 -44.428  0.00  0.00    +0.000 S 
ENDBRANCH   4   7
BRANCH   1  17
ATOM     16  O1  UNL     1      28.315  -9.354 -38.978  0.00  0.00    +0.000 OA
ATOM     17  C1  UNL     1      27.175  -8.918 -38.657  0.00  0.00    +0.000 C 
ATOM     18  N1  UNL     1      26.822  -8.810 -37.267  0.00  0.00    +0.000 N 
ATOM     19  H1  UNL     1      25.821  -8.934 -36.999  0.00  0.00    +0.000 HD
BRANCH  18  20
ATOM     20  N2  UNL     1      27.771  -8.770 -36.229  0.00  0.00    +0.000 NA
ATOM     21  C2  UNL     1      28.729  -9.639 -36.097  0.00  0.00    +0.000 C 
BRANCH  21  22
ATOM     22  C3  UNL     1      29.690  -9.561 -34.975  0.00  0.00    +0.000 C 
ATOM     23  C4  UNL     1      29.151  -9.458 -33.601  0.00  0.00    +0.000 C 
ATOM     24  C5  UNL     1      29.954  -9.443 -32.538  0.00  0.00    +0.000 C 
ATOM     25  C6  UNL     1      31.412  -9.510 -32.703  0.00  0.00    +0.000 C 
ATOM     26  O2  UNL     1      32.149  -9.584 -31.685  0.00  0.00    +0.000 OA
ATOM     27  C7  UNL     1      32.033  -9.466 -34.073  0.00  0.00    +0.000 C 
ATOM     28 BR1  UNL     1      32.990  -7.795 -34.288  0.00  0.00    +0.000 Br
ATOM     29  C8  UNL     1      31.021  -9.591 -35.186  0.00  0.00    +0.000 C 
ENDBRANCH  21  22
ENDBRANCH  18  20
ENDBRANCH   1  17
TORSDOF 4
ENDMDL
MODEL 9
REMARK VINA RESULT:    -4.600      6.176      9.968
REMARK INTER + INTRA:          -6.072
REMARK INTER:                  -5.631
REMARK INTRA:                  -0.441
REMARK UNBOUND:                -0.396
REMARK  Name = resultss/4CJN/ligands/lig_179_t2.pdb
REMARK  4 active torsions:
REMARK  status: ('A' for Active; 'I' for Inactive)
REMARK    1  A    between atoms: C1_2  and  C9_14
REMARK    2  A    between atoms: N1_3  and  N2_4
REMARK    3  A    between atoms: C2_5  and  C3_6
REMARK    4  A    between atoms: C12_17  and  C13_18
REMARK                            x       y       z     vdW  Elec       q    Type
REMARK                         _______ _______ _______ _____ _____    ______ ____
ROOT
ATOM      1  C9  UNL     1      28.570  -7.931 -38.082  0.00  0.00    +0.000 A 
ATOM      2  C10 UNL     1      29.069  -7.015 -37.140  0.00  0.00    +0.000 A 
ATOM      3  C11 UNL     1      29.906  -7.442 -36.105  0.00  0.00    +0.000 A 
ATOM      4  C12 UNL     1      30.269  -8.794 -35.992  0.00  0.00    +0.000 A 
ATOM      5  C20 UNL     1      29.778  -9.709 -36.940  0.00  0.00    +0.000 A 
ATOM      6  C21 UNL     1      28.941  -9.282 -37.974  0.00  0.00    +0.000 A 
ENDROOT
BRANCH   4   7
ATOM      7  C13 UNL     1      31.157  -9.237 -34.891  0.00  0.00    +0.000 A 
ATOM      8  N3  UNL     1      30.705  -9.890 -33.790  0.00  0.00    +0.000 NA
ATOM      9  C14 UNL     1      31.717 -10.183 -32.936  0.00  0.00    +0.000 A 
ATOM     10  C15 UNL     1      31.557 -10.851 -31.721  0.00  0.00    +0.000 A 
ATOM     11  C16 UNL     1      32.693 -11.092 -30.928  0.00  0.00    +0.000 A 
ATOM     12  C17 UNL     1      33.966 -10.665 -31.355  0.00  0.00    +0.000 A 
ATOM     13  C18 UNL     1      34.115  -9.995 -32.579  0.00  0.00    +0.000 A 
ATOM     14  C19 UNL     1      32.975  -9.769 -33.345  0.00  0.00    +0.000 A 
ATOM     15  S1  UNL     1      32.840  -9.004 -34.831  0.00  0.00    +0.000 S 
ENDBRANCH   4   7
BRANCH   1  17
ATOM     16  O1  UNL     1      27.528  -6.229 -39.369  0.00  0.00    +0.000 OA
ATOM     17  C1  UNL     1      27.687  -7.467 -39.180  0.00  0.00    +0.000 C 
ATOM     18  N1  UNL     1      26.974  -8.407 -40.001  0.00  0.00    +0.000 N 
ATOM     19  H1  UNL     1      26.707  -9.327 -39.584  0.00  0.00    +0.000 HD
BRANCH  18  20
ATOM     20  N2  UNL     1      26.420  -8.078 -41.253  0.00  0.00    +0.000 NA
ATOM     21  C2  UNL     1      27.084  -8.136 -42.369  0.00  0.00    +0.000 C 
BRANCH  21  22
ATOM     22  C3  UNL     1      26.459  -7.762 -43.656  0.00  0.00    +0.000 C 
ATOM     23  C4  UNL     1      27.337  -7.279 -44.745  0.00  0.00    +0.000 C 
ATOM     24  C5  UNL     1      26.852  -6.980 -45.949  0.00  0.00    +0.000 C 
ATOM     25  C6  UNL     1      25.416  -7.104 -46.227  0.00  0.00    +0.000 C 
ATOM     26  O2  UNL     1      24.990  -6.901 -47.395  0.00  0.00    +0.000 OA
ATOM     27  C7  UNL     1      24.447  -7.443 -45.127  0.00  0.00    +0.000 C 
ATOM     28 BR1  UNL     1      23.326  -5.905 -44.763  0.00  0.00    +0.000 Br
ATOM     29  C8  UNL     1      25.128  -7.861 -43.847  0.00  0.00    +0.000 C 
ENDBRANCH  21  22
ENDBRANCH  18  20
ENDBRANCH   1  17
TORSDOF 4
ENDMDL
