MODEL 1
REMARK VINA RESULT:    -6.769      0.000      0.000
REMARK INTER + INTRA:         -11.307
REMARK INTER:                  -9.539
REMARK INTRA:                  -1.768
REMARK UNBOUND:                -1.768
REMARK  Name = resultss/4CJN/ligands/lig_271_t0.pdb
REMARK  8 active torsions:
REMARK  status: ('A' for Active; 'I' for Inactive)
REMARK    1  A    between atoms: C1_1  and  O1_2
REMARK    2  A    between atoms: O1_2  and  C2_3
REMARK    3  A    between atoms: C2_3  and  C3_5
REMARK    4  A    between atoms: C6_8  and  C7_9
REMARK    5  A    between atoms: C7_9  and  N1_10
REMARK    6  A    between atoms: C8_11  and  C9_13
REMARK    7  A    between atoms: C10_14  and  N2_15
REMARK    8  A    between atoms: C11_16  and  C12_18
REMARK                            x       y       z     vdW  Elec       q    Type
REMARK                         _______ _______ _______ _____ _____    ______ ____
ROOT
ATOM      1  C9  UNL     1      25.945  -8.922 -40.588  0.00  0.00    +0.000 A 
ATOM      2  C10 UNL     1      24.858  -8.402 -39.879  0.00  0.00    +0.000 A 
ATOM      3  S1  UNL     1      24.014  -7.315 -40.846  0.00  0.00    +0.000 S 
ATOM      4  C17 UNL     1      24.986  -7.523 -42.201  0.00  0.00    +0.000 A 
ATOM      5  C18 UNL     1      26.022  -8.407 -41.900  0.00  0.00    +0.000 A 
ATOM      6  C19 UNL     1      27.082  -8.750 -42.917  0.00  0.00    +0.000 C 
ATOM      7  C20 UNL     1      27.163  -7.692 -44.030  0.00  0.00    +0.000 C 
ATOM      8  C21 UNL     1      25.766  -7.346 -44.570  0.00  0.00    +0.000 C 
ATOM      9  C22 UNL     1      24.885  -6.734 -43.471  0.00  0.00    +0.000 C 
ENDROOT
BRANCH   1  11
ATOM     10  N1  UNL     1      27.927  -9.292 -39.061  0.00  0.00    +0.000 N 
ATOM     11  C8  UNL     1      26.957  -9.808 -39.981  0.00  0.00    +0.000 C 
ATOM     12  O3  UNL     1      26.983 -11.025 -40.311  0.00  0.00    +0.000 OA
ATOM     13  H8  UNL     1      27.930  -8.271 -38.841  0.00  0.00    +0.000 HD
BRANCH  10  14
ATOM     14  C7  UNL     1      29.066 -10.087 -38.610  0.00  0.00    +0.000 C 
BRANCH  14  18
ATOM     15  C3  UNL     1      29.483  -9.574 -34.338  0.00  0.00    +0.000 A 
ATOM     16  C4  UNL     1      30.607  -9.487 -35.178  0.00  0.00    +0.000 A 
ATOM     17  C5  UNL     1      30.478  -9.670 -36.557  0.00  0.00    +0.000 A 
ATOM     18  C6  UNL     1      29.225  -9.952 -37.121  0.00  0.00    +0.000 A 
ATOM     19  C23 UNL     1      28.099 -10.033 -36.288  0.00  0.00    +0.000 A 
ATOM     20  C24 UNL     1      28.227  -9.850 -34.908  0.00  0.00    +0.000 A 
BRANCH  15  21
ATOM     21  C2  UNL     1      29.620  -9.367 -32.880  0.00  0.00    +0.000 C 
ATOM     22  O2  UNL     1      30.407 -10.092 -32.210  0.00  0.00    +0.000 OA
BRANCH  21  24
ATOM     23  C1  UNL     1      29.096  -6.982 -32.480  0.00  0.00    +0.000 C 
ATOM     24  O1  UNL     1      28.875  -8.367 -32.245  0.00  0.00    +0.000 OA
ENDBRANCH  21  24
ENDBRANCH  15  21
ENDBRANCH  14  18
ENDBRANCH  10  14
ENDBRANCH   1  11
BRANCH   2  25
ATOM     25  N2  UNL     1      24.498  -8.706 -38.526  0.00  0.00    +0.000 N 
ATOM     26  C11 UNL     1      25.022  -7.981 -37.403  0.00  0.00    +0.000 C 
ATOM     27  O4  UNL     1      26.057  -7.270 -37.542  0.00  0.00    +0.000 OA
ATOM     28  H9  UNL     1      24.004  -9.608 -38.345  0.00  0.00    +0.000 HD
BRANCH  26  29
ATOM     29  C12 UNL     1      24.393  -8.107 -36.071  0.00  0.00    +0.000 A 
ATOM     30  C13 UNL     1      25.135  -8.561 -34.966  0.00  0.00    +0.000 A 
ATOM     31  C14 UNL     1      24.527  -8.682 -33.716  0.00  0.00    +0.000 A 
ATOM     32  C15 UNL     1      23.183  -8.334 -33.573  0.00  0.00    +0.000 A 
ATOM     33  N3  UNL     1      22.477  -7.890 -34.646  0.00  0.00    +0.000 NA
ATOM     34  C16 UNL     1      23.043  -7.771 -35.877  0.00  0.00    +0.000 A 
ENDBRANCH  26  29
ENDBRANCH   2  25
TORSDOF 7
ENDMDL
MODEL 2
REMARK VINA RESULT:    -6.644      4.605      7.390
REMARK INTER + INTRA:         -11.130
REMARK INTER:                  -9.808
REMARK INTRA:                  -1.322
REMARK UNBOUND:                -1.768
REMARK  Name = resultss/4CJN/ligands/lig_271_t0.pdb
REMARK  8 active torsions:
REMARK  status: ('A' for Active; 'I' for Inactive)
REMARK    1  A    between atoms: C1_1  and  O1_2
REMARK    2  A    between atoms: O1_2  and  C2_3
REMARK    3  A    between atoms: C2_3  and  C3_5
REMARK    4  A    between atoms: C6_8  and  C7_9
REMARK    5  A    between atoms: C7_9  and  N1_10
REMARK    6  A    between atoms: C8_11  and  C9_13
REMARK    7  A    between atoms: C10_14  and  N2_15
REMARK    8  A    between atoms: C11_16  and  C12_18
REMARK                            x       y       z     vdW  Elec       q    Type
REMARK                         _______ _______ _______ _____ _____    ______ ____
ROOT
ATOM      1  C9  UNL     1      27.890  -7.909 -42.435  0.00  0.00    +0.000 A 
ATOM      2  C10 UNL     1      26.943  -7.467 -41.505  0.00  0.00    +0.000 A 
ATOM      3  S1  UNL     1      25.723  -6.618 -42.292  0.00  0.00    +0.000 S 
ATOM      4  C17 UNL     1      26.349  -6.839 -43.836  0.00  0.00    +0.000 A 
ATOM      5  C18 UNL     1      27.555  -7.535 -43.755  0.00  0.00    +0.000 A 
ATOM      6  C19 UNL     1      28.370  -7.840 -44.987  0.00  0.00    +0.000 C 
ATOM      7  C20 UNL     1      28.002  -6.910 -46.155  0.00  0.00    +0.000 C 
ATOM      8  C21 UNL     1      26.478  -6.819 -46.333  0.00  0.00    +0.000 C 
ATOM      9  C22 UNL     1      25.811  -6.216 -45.087  0.00  0.00    +0.000 C 
ENDROOT
BRANCH   1  11
ATOM     10  N1  UNL     1      29.338  -9.978 -42.295  0.00  0.00    +0.000 N 
ATOM     11  C8  UNL     1      29.148  -8.577 -42.053  0.00  0.00    +0.000 C 
ATOM     12  O3  UNL     1      30.048  -7.909 -41.475  0.00  0.00    +0.000 OA
ATOM     13  H8  UNL     1      28.563 -10.531 -42.722  0.00  0.00    +0.000 HD
BRANCH  10  14
ATOM     14  C7  UNL     1      30.473 -10.712 -41.742  0.00  0.00    +0.000 C 
BRANCH  14  18
ATOM     15  C3  UNL     1      32.750 -12.347 -45.032  0.00  0.00    +0.000 A 
ATOM     16  C4  UNL     1      32.092 -13.200 -44.130  0.00  0.00    +0.000 A 
ATOM     17  C5  UNL     1      31.369 -12.675 -43.056  0.00  0.00    +0.000 A 
ATOM     18  C6  UNL     1      31.300 -11.287 -42.858  0.00  0.00    +0.000 A 
ATOM     19  C23 UNL     1      31.950 -10.432 -43.760  0.00  0.00    +0.000 A 
ATOM     20  C24 UNL     1      32.673 -10.956 -44.835  0.00  0.00    +0.000 A 
BRANCH  15  21
ATOM     21  C2  UNL     1      33.503 -12.905 -46.176  0.00  0.00    +0.000 C 
ATOM     22  O2  UNL     1      33.791 -12.171 -47.163  0.00  0.00    +0.000 OA
BRANCH  21  24
ATOM     23  C1  UNL     1      33.365 -15.206 -47.075  0.00  0.00    +0.000 C 
ATOM     24  O1  UNL     1      33.893 -14.249 -46.165  0.00  0.00    +0.000 OA
ENDBRANCH  21  24
ENDBRANCH  15  21
ENDBRANCH  14  18
ENDBRANCH  10  14
ENDBRANCH   1  11
BRANCH   2  25
ATOM     25  N2  UNL     1      26.985  -7.667 -40.087  0.00  0.00    +0.000 N 
ATOM     26  C11 UNL     1      26.457  -8.843 -39.455  0.00  0.00    +0.000 C 
ATOM     27  O4  UNL     1      25.654  -9.587 -40.084  0.00  0.00    +0.000 OA
ATOM     28  H9  UNL     1      27.219  -6.845 -39.486  0.00  0.00    +0.000 HD
BRANCH  26  29
ATOM     29  C12 UNL     1      26.801  -9.158 -38.052  0.00  0.00    +0.000 A 
ATOM     30  C13 UNL     1      28.141  -9.333 -37.663  0.00  0.00    +0.000 A 
ATOM     31  C14 UNL     1      28.452  -9.637 -36.337  0.00  0.00    +0.000 A 
ATOM     32  C15 UNL     1      27.422  -9.752 -35.403  0.00  0.00    +0.000 A 
ATOM     33  N3  UNL     1      26.130  -9.574 -35.788  0.00  0.00    +0.000 NA
ATOM     34  C16 UNL     1      25.800  -9.285 -37.075  0.00  0.00    +0.000 A 
ENDBRANCH  26  29
ENDBRANCH   2  25
TORSDOF 7
ENDMDL
MODEL 3
REMARK VINA RESULT:    -6.533      4.432      7.486
REMARK INTER + INTRA:         -10.975
REMARK INTER:                  -9.799
REMARK INTRA:                  -1.176
REMARK UNBOUND:                -1.768
REMARK  Name = resultss/4CJN/ligands/lig_271_t0.pdb
REMARK  8 active torsions:
REMARK  status: ('A' for Active; 'I' for Inactive)
REMARK    1  A    between atoms: C1_1  and  O1_2
REMARK    2  A    between atoms: O1_2  and  C2_3
REMARK    3  A    between atoms: C2_3  and  C3_5
REMARK    4  A    between atoms: C6_8  and  C7_9
REMARK    5  A    between atoms: C7_9  and  N1_10
REMARK    6  A    between atoms: C8_11  and  C9_13
REMARK    7  A    between atoms: C10_14  and  N2_15
REMARK    8  A    between atoms: C11_16  and  C12_18
REMARK                            x       y       z     vdW  Elec       q    Type
REMARK                         _______ _______ _______ _____ _____    ______ ____
ROOT
ATOM      1  C9  UNL     1      27.910  -8.755 -40.026  0.00  0.00    +0.000 A 
ATOM      2  C10 UNL     1      27.330  -8.635 -38.759  0.00  0.00    +0.000 A 
ATOM      3  S1  UNL     1      25.656  -8.565 -38.902  0.00  0.00    +0.000 S 
ATOM      4  C17 UNL     1      25.634  -8.736 -40.573  0.00  0.00    +0.000 A 
ATOM      5  C18 UNL     1      26.942  -8.795 -41.053  0.00  0.00    +0.000 A 
ATOM      6  C19 UNL     1      27.233  -8.903 -42.529  0.00  0.00    +0.000 C 
ATOM      7  C20 UNL     1      26.037  -8.444 -43.379  0.00  0.00    +0.000 C 
ATOM      8  C21 UNL     1      24.727  -9.075 -42.879  0.00  0.00    +0.000 C 
ATOM      9  C22 UNL     1      24.416  -8.637 -41.440  0.00  0.00    +0.000 C 
ENDROOT
BRANCH   1  11
ATOM     10  N1  UNL     1      30.052  -9.846 -40.812  0.00  0.00    +0.000 N 
ATOM     11  C8  UNL     1      29.367  -8.716 -40.256  0.00  0.00    +0.000 C 
ATOM     12  O3  UNL     1      30.013  -7.686 -39.922  0.00  0.00    +0.000 OA
ATOM     13  H8  UNL     1      29.513 -10.713 -41.030  0.00  0.00    +0.000 HD
BRANCH  10  14
ATOM     14  C7  UNL     1      31.510  -9.923 -40.853  0.00  0.00    +0.000 C 
BRANCH  14  18
ATOM     15  C3  UNL     1      32.742 -12.020 -44.427  0.00  0.00    +0.000 A 
ATOM     16  C4  UNL     1      31.428 -12.149 -43.944  0.00  0.00    +0.000 A 
ATOM     17  C5  UNL     1      31.032 -11.486 -42.780  0.00  0.00    +0.000 A 
ATOM     18  C6  UNL     1      31.945 -10.690 -42.071  0.00  0.00    +0.000 A 
ATOM     19  C23 UNL     1      33.255 -10.553 -42.553  0.00  0.00    +0.000 A 
ATOM     20  C24 UNL     1      33.652 -11.215 -43.718  0.00  0.00    +0.000 A 
BRANCH  15  21
ATOM     21  C2  UNL     1      33.155 -12.712 -45.667  0.00  0.00    +0.000 C 
ATOM     22  O2  UNL     1      33.294 -12.060 -46.739  0.00  0.00    +0.000 OA
BRANCH  21  24
ATOM     23  C1  UNL     1      33.020 -14.942 -46.730  0.00  0.00    +0.000 C 
ATOM     24  O1  UNL     1      33.388 -14.092 -45.651  0.00  0.00    +0.000 OA
ENDBRANCH  21  24
ENDBRANCH  15  21
ENDBRANCH  14  18
ENDBRANCH  10  14
ENDBRANCH   1  11
BRANCH   2  25
ATOM     25  N2  UNL     1      28.024  -8.557 -37.508  0.00  0.00    +0.000 N 
ATOM     26  C11 UNL     1      28.307  -9.713 -36.705  0.00  0.00    +0.000 C 
ATOM     27  O4  UNL     1      27.676 -10.789 -36.909  0.00  0.00    +0.000 OA
ATOM     28  H9  UNL     1      28.144  -7.614 -37.076  0.00  0.00    +0.000 HD
BRANCH  26  29
ATOM     29  C12 UNL     1      29.290  -9.638 -35.603  0.00  0.00    +0.000 A 
ATOM     30  C13 UNL     1      28.864  -9.592 -34.264  0.00  0.00    +0.000 A 
ATOM     31  C14 UNL     1      29.802  -9.513 -33.234  0.00  0.00    +0.000 A 
ATOM     32  C15 UNL     1      31.162  -9.496 -33.547  0.00  0.00    +0.000 A 
ATOM     33  N3  UNL     1      31.563  -9.548 -34.845  0.00  0.00    +0.000 NA
ATOM     34  C16 UNL     1      30.669  -9.616 -35.868  0.00  0.00    +0.000 A 
ENDBRANCH  26  29
ENDBRANCH   2  25
TORSDOF 7
ENDMDL
MODEL 4
REMARK VINA RESULT:    -6.331      2.843      7.762
REMARK INTER + INTRA:         -10.690
REMARK INTER:                  -7.855
REMARK INTRA:                  -2.835
REMARK UNBOUND:                -1.768
REMARK  Name = resultss/4CJN/ligands/lig_271_t0.pdb
REMARK  8 active torsions:
REMARK  status: ('A' for Active; 'I' for Inactive)
REMARK    1  A    between atoms: C1_1  and  O1_2
REMARK    2  A    between atoms: O1_2  and  C2_3
REMARK    3  A    between atoms: C2_3  and  C3_5
REMARK    4  A    between atoms: C6_8  and  C7_9
REMARK    5  A    between atoms: C7_9  and  N1_10
REMARK    6  A    between atoms: C8_11  and  C9_13
REMARK    7  A    between atoms: C10_14  and  N2_15
REMARK    8  A    between atoms: C11_16  and  C12_18
REMARK                            x       y       z     vdW  Elec       q    Type
REMARK                         _______ _______ _______ _____ _____    ______ ____
ROOT
ATOM      1  C9  UNL     1      25.607  -8.026 -36.586  0.00  0.00    +0.000 A 
ATOM      2  C10 UNL     1      26.900  -8.085 -36.055  0.00  0.00    +0.000 A 
ATOM      3  S1  UNL     1      26.824  -8.253 -34.384  0.00  0.00    +0.000 S 
ATOM      4  C17 UNL     1      25.146  -8.304 -34.307  0.00  0.00    +0.000 A 
ATOM      5  C18 UNL     1      24.615  -8.134 -35.586  0.00  0.00    +0.000 A 
ATOM      6  C19 UNL     1      23.126  -8.091 -35.819  0.00  0.00    +0.000 C 
ATOM      7  C20 UNL     1      22.359  -7.753 -34.530  0.00  0.00    +0.000 C 
ATOM      8  C21 UNL     1      22.856  -8.605 -33.350  0.00  0.00    +0.000 C 
ATOM      9  C22 UNL     1      24.335  -8.322 -33.048  0.00  0.00    +0.000 C 
ENDROOT
BRANCH   1  11
ATOM     10  N1  UNL     1      24.789  -8.779 -38.857  0.00  0.00    +0.000 N 
ATOM     11  C8  UNL     1      25.328  -7.756 -38.009  0.00  0.00    +0.000 C 
ATOM     12  O3  UNL     1      25.604  -6.621 -38.484  0.00  0.00    +0.000 OA
ATOM     13  H8  UNL     1      24.619  -9.731 -38.465  0.00  0.00    +0.000 HD
BRANCH  10  14
ATOM     14  C7  UNL     1      24.702  -8.616 -40.306  0.00  0.00    +0.000 C 
BRANCH  14  18
ATOM     15  C3  UNL     1      28.431  -9.926 -42.056  0.00  0.00    +0.000 A 
ATOM     16  C4  UNL     1      27.811  -8.746 -42.504  0.00  0.00    +0.000 A 
ATOM     17  C5  UNL     1      26.597  -8.330 -41.952  0.00  0.00    +0.000 A 
ATOM     18  C6  UNL     1      25.975  -9.090 -40.949  0.00  0.00    +0.000 A 
ATOM     19  C23 UNL     1      26.594 -10.263 -40.495  0.00  0.00    +0.000 A 
ATOM     20  C24 UNL     1      27.809 -10.681 -41.046  0.00  0.00    +0.000 A 
BRANCH  15  21
ATOM     21  C2  UNL     1      29.723 -10.357 -42.632  0.00  0.00    +0.000 C 
ATOM     22  O2  UNL     1      30.263  -9.681 -43.552  0.00  0.00    +0.000 OA
BRANCH  21  24
ATOM     23  C1  UNL     1      31.340 -12.210 -42.903  0.00  0.00    +0.000 C 
ATOM     24  O1  UNL     1      30.344 -11.518 -42.159  0.00  0.00    +0.000 OA
ENDBRANCH  21  24
ENDBRANCH  15  21
ENDBRANCH  14  18
ENDBRANCH  10  14
ENDBRANCH   1  11
BRANCH   2  25
ATOM     25  N2  UNL     1      28.126  -7.996 -36.790  0.00  0.00    +0.000 N 
ATOM     26  C11 UNL     1      28.651  -9.090 -37.558  0.00  0.00    +0.000 C 
ATOM     27  O4  UNL     1      28.225 -10.262 -37.354  0.00  0.00    +0.000 OA
ATOM     28  H9  UNL     1      28.754  -7.185 -36.593  0.00  0.00    +0.000 HD
BRANCH  26  29
ATOM     29  C12 UNL     1      29.728  -8.864 -38.545  0.00  0.00    +0.000 A 
ATOM     30  C13 UNL     1      29.705  -7.739 -39.387  0.00  0.00    +0.000 A 
ATOM     31  C14 UNL     1      30.724  -7.541 -40.320  0.00  0.00    +0.000 A 
ATOM     32  C15 UNL     1      31.768  -8.464 -40.398  0.00  0.00    +0.000 A 
ATOM     33  N3  UNL     1      31.784  -9.546 -39.575  0.00  0.00    +0.000 NA
ATOM     34  C16 UNL     1      30.799  -9.766 -38.662  0.00  0.00    +0.000 A 
ENDBRANCH  26  29
ENDBRANCH   2  25
TORSDOF 7
ENDMDL
MODEL 5
REMARK VINA RESULT:    -6.262      3.625      6.841
REMARK INTER + INTRA:         -10.592
REMARK INTER:                  -8.993
REMARK INTRA:                  -1.599
REMARK UNBOUND:                -1.768
REMARK  Name = resultss/4CJN/ligands/lig_271_t0.pdb
REMARK  8 active torsions:
REMARK  status: ('A' for Active; 'I' for Inactive)
REMARK    1  A    between atoms: C1_1  and  O1_2
REMARK    2  A    between atoms: O1_2  and  C2_3
REMARK    3  A    between atoms: C2_3  and  C3_5
REMARK    4  A    between atoms: C6_8  and  C7_9
REMARK    5  A    between atoms: C7_9  and  N1_10
REMARK    6  A    between atoms: C8_11  and  C9_13
REMARK    7  A    between atoms: C10_14  and  N2_15
REMARK    8  A    between atoms: C11_16  and  C12_18
REMARK                            x       y       z     vdW  Elec       q    Type
REMARK                         _______ _______ _______ _____ _____    ______ ____
ROOT
ATOM      1  C9  UNL     1      28.341  -8.777 -40.965  0.00  0.00    +0.000 A 
ATOM      2  C10 UNL     1      28.756  -9.159 -42.245  0.00  0.00    +0.000 A 
ATOM      3  S1  UNL     1      27.473  -9.032 -43.324  0.00  0.00    +0.000 S 
ATOM      4  C17 UNL     1      26.377  -8.441 -42.195  0.00  0.00    +0.000 A 
ATOM      5  C18 UNL     1      26.984  -8.386 -40.940  0.00  0.00    +0.000 A 
ATOM      6  C19 UNL     1      26.223  -7.936 -39.719  0.00  0.00    +0.000 C 
ATOM      7  C20 UNL     1      24.703  -8.049 -39.923  0.00  0.00    +0.000 C 
ATOM      8  C21 UNL     1      24.278  -7.444 -41.271  0.00  0.00    +0.000 C 
ATOM      9  C22 UNL     1      24.919  -8.202 -42.443  0.00  0.00    +0.000 C 
ENDROOT
BRANCH   1  11
ATOM     10  N1  UNL     1      29.261 -10.122 -39.031  0.00  0.00    +0.000 N 
ATOM     11  C8  UNL     1      29.195  -8.894 -39.768  0.00  0.00    +0.000 C 
ATOM     12  O3  UNL     1      29.843  -7.886 -39.376  0.00  0.00    +0.000 OA
ATOM     13  H8  UNL     1      28.675 -10.931 -39.334  0.00  0.00    +0.000 HD
BRANCH  10  14
ATOM     14  C7  UNL     1      29.922 -10.210 -37.732  0.00  0.00    +0.000 C 
BRANCH  14  18
ATOM     15  C3  UNL     1      27.079  -9.219 -34.629  0.00  0.00    +0.000 A 
ATOM     16  C4  UNL     1      28.457  -9.234 -34.353  0.00  0.00    +0.000 A 
ATOM     17  C5  UNL     1      29.377  -9.571 -35.349  0.00  0.00    +0.000 A 
ATOM     18  C6  UNL     1      28.936  -9.908 -36.638  0.00  0.00    +0.000 A 
ATOM     19  C23 UNL     1      27.562  -9.888 -36.920  0.00  0.00    +0.000 A 
ATOM     20  C24 UNL     1      26.641  -9.551 -35.924  0.00  0.00    +0.000 A 
BRANCH  15  21
ATOM     21  C2  UNL     1      26.109  -8.849 -33.577  0.00  0.00    +0.000 C 
ATOM     22  O2  UNL     1      26.391  -7.940 -32.748  0.00  0.00    +0.000 OA
BRANCH  21  24
ATOM     23  C1  UNL     1      23.689  -8.865 -33.060  0.00  0.00    +0.000 C 
ATOM     24  O1  UNL     1      24.878  -9.510 -33.499  0.00  0.00    +0.000 OA
ENDBRANCH  21  24
ENDBRANCH  15  21
ENDBRANCH  14  18
ENDBRANCH  10  14
ENDBRANCH   1  11
BRANCH   2  25
ATOM     25  N2  UNL     1      30.062  -9.617 -42.615  0.00  0.00    +0.000 N 
ATOM     26  C11 UNL     1      30.470 -10.987 -42.481  0.00  0.00    +0.000 C 
ATOM     27  O4  UNL     1      29.813 -11.768 -41.738  0.00  0.00    +0.000 OA
ATOM     28  H9  UNL     1      30.799  -8.897 -42.792  0.00  0.00    +0.000 HD
BRANCH  26  29
ATOM     29  C12 UNL     1      31.689 -11.476 -43.162  0.00  0.00    +0.000 A 
ATOM     30  C13 UNL     1      31.668 -12.675 -43.896  0.00  0.00    +0.000 A 
ATOM     31  C14 UNL     1      32.827 -13.129 -44.528  0.00  0.00    +0.000 A 
ATOM     32  C15 UNL     1      33.997 -12.375 -44.433  0.00  0.00    +0.000 A 
ATOM     33  N3  UNL     1      34.004 -11.214 -43.726  0.00  0.00    +0.000 NA
ATOM     34  C16 UNL     1      32.891 -10.753 -43.095  0.00  0.00    +0.000 A 
ENDBRANCH  26  29
ENDBRANCH   2  25
TORSDOF 7
ENDMDL
MODEL 6
REMARK VINA RESULT:    -6.131      4.224      8.688
REMARK INTER + INTRA:         -10.407
REMARK INTER:                  -8.877
REMARK INTRA:                  -1.530
REMARK UNBOUND:                -1.768
REMARK  Name = resultss/4CJN/ligands/lig_271_t0.pdb
REMARK  8 active torsions:
REMARK  status: ('A' for Active; 'I' for Inactive)
REMARK    1  A    between atoms: C1_1  and  O1_2
REMARK    2  A    between atoms: O1_2  and  C2_3
REMARK    3  A    between atoms: C2_3  and  C3_5
REMARK    4  A    between atoms: C6_8  and  C7_9
REMARK    5  A    between atoms: C7_9  and  N1_10
REMARK    6  A    between atoms: C8_11  and  C9_13
REMARK    7  A    between atoms: C10_14  and  N2_15
REMARK    8  A    between atoms: C11_16  and  C12_18
REMARK                            x       y       z     vdW  Elec       q    Type
REMARK                         _______ _______ _______ _____ _____    ______ ____
ROOT
ATOM      1  C9  UNL     1      28.457  -8.247 -38.704  0.00  0.00    +0.000 A 
ATOM      2  C10 UNL     1      27.381  -7.987 -39.560  0.00  0.00    +0.000 A 
ATOM      3  S1  UNL     1      25.933  -8.325 -38.775  0.00  0.00    +0.000 S 
ATOM      4  C17 UNL     1      26.643  -8.760 -37.316  0.00  0.00    +0.000 A 
ATOM      5  C18 UNL     1      28.031  -8.702 -37.437  0.00  0.00    +0.000 A 
ATOM      6  C19 UNL     1      28.936  -9.085 -36.293  0.00  0.00    +0.000 C 
ATOM      7  C20 UNL     1      28.209  -9.970 -35.266  0.00  0.00    +0.000 C 
ATOM      8  C21 UNL     1      26.836  -9.382 -34.902  0.00  0.00    +0.000 C 
ATOM      9  C22 UNL     1      25.917  -9.321 -36.131  0.00  0.00    +0.000 C 
ENDROOT
BRANCH   1  11
ATOM     10  N1  UNL     1      30.461  -9.231 -39.891  0.00  0.00    +0.000 N 
ATOM     11  C8  UNL     1      29.867  -8.171 -39.131  0.00  0.00    +0.000 C 
ATOM     12  O3  UNL     1      30.560  -7.176 -38.786  0.00  0.00    +0.000 OA
ATOM     13  H8  UNL     1      29.893 -10.076 -40.120  0.00  0.00    +0.000 HD
BRANCH  10  14
ATOM     14  C7  UNL     1      31.898  -9.290 -40.145  0.00  0.00    +0.000 C 
BRANCH  14  18
ATOM     15  C3  UNL     1      32.672 -11.274 -43.907  0.00  0.00    +0.000 A 
ATOM     16  C4  UNL     1      31.353 -11.000 -43.505  0.00  0.00    +0.000 A 
ATOM     17  C5  UNL     1      31.099 -10.375 -42.281  0.00  0.00    +0.000 A 
ATOM     18  C6  UNL     1      32.159 -10.020 -41.433  0.00  0.00    +0.000 A 
ATOM     19  C23 UNL     1      33.477 -10.285 -41.833  0.00  0.00    +0.000 A 
ATOM     20  C24 UNL     1      33.732 -10.910 -43.057  0.00  0.00    +0.000 A 
BRANCH  15  21
ATOM     21  C2  UNL     1      32.938 -11.924 -45.208  0.00  0.00    +0.000 C 
ATOM     22  O2  UNL     1      32.989 -11.231 -46.263  0.00  0.00    +0.000 OA
BRANCH  21  24
ATOM     23  C1  UNL     1      32.625 -14.105 -46.333  0.00  0.00    +0.000 C 
ATOM     24  O1  UNL     1      33.132 -13.308 -45.269  0.00  0.00    +0.000 OA
ENDBRANCH  21  24
ENDBRANCH  15  21
ENDBRANCH  14  18
ENDBRANCH  10  14
ENDBRANCH   1  11
BRANCH   2  25
ATOM     25  N2  UNL     1      27.463  -7.525 -40.913  0.00  0.00    +0.000 N 
ATOM     26  C11 UNL     1      27.514  -8.418 -42.036  0.00  0.00    +0.000 C 
ATOM     27  O4  UNL     1      27.815  -9.632 -41.859  0.00  0.00    +0.000 OA
ATOM     28  H9  UNL     1      27.697  -6.519 -41.071  0.00  0.00    +0.000 HD
BRANCH  26  29
ATOM     29  C12 UNL     1      27.274  -7.915 -43.406  0.00  0.00    +0.000 A 
ATOM     30  C13 UNL     1      28.337  -7.771 -44.314  0.00  0.00    +0.000 A 
ATOM     31  C14 UNL     1      28.097  -7.288 -45.601  0.00  0.00    +0.000 A 
ATOM     32  C15 UNL     1      26.793  -6.965 -45.979  0.00  0.00    +0.000 A 
ATOM     33  N3  UNL     1      25.772  -7.114 -45.095  0.00  0.00    +0.000 NA
ATOM     34  C16 UNL     1      25.979  -7.575 -43.831  0.00  0.00    +0.000 A 
ENDBRANCH  26  29
ENDBRANCH   2  25
TORSDOF 7
ENDMDL
MODEL 7
REMARK VINA RESULT:    -5.914      3.512      5.142
REMARK INTER + INTRA:         -10.103
REMARK INTER:                  -7.771
REMARK INTRA:                  -2.332
REMARK UNBOUND:                -1.768
REMARK  Name = resultss/4CJN/ligands/lig_271_t0.pdb
REMARK  8 active torsions:
REMARK  status: ('A' for Active; 'I' for Inactive)
REMARK    1  A    between atoms: C1_1  and  O1_2
REMARK    2  A    between atoms: O1_2  and  C2_3
REMARK    3  A    between atoms: C2_3  and  C3_5
REMARK    4  A    between atoms: C6_8  and  C7_9
REMARK    5  A    between atoms: C7_9  and  N1_10
REMARK    6  A    between atoms: C8_11  and  C9_13
REMARK    7  A    between atoms: C10_14  and  N2_15
REMARK    8  A    between atoms: C11_16  and  C12_18
REMARK                            x       y       z     vdW  Elec       q    Type
REMARK                         _______ _______ _______ _____ _____    ______ ____
ROOT
ATOM      1  C9  UNL     1      31.221  -9.685 -41.128  0.00  0.00    +0.000 A 
ATOM      2  C10 UNL     1      30.000  -9.377 -41.736  0.00  0.00    +0.000 A 
ATOM      3  S1  UNL     1      30.019  -9.882 -43.340  0.00  0.00    +0.000 S 
ATOM      4  C17 UNL     1      31.560 -10.547 -43.277  0.00  0.00    +0.000 A 
ATOM      5  C18 UNL     1      32.109 -10.334 -42.013  0.00  0.00    +0.000 A 
ATOM      6  C19 UNL     1      33.509 -10.785 -41.678  0.00  0.00    +0.000 C 
ATOM      7  C20 UNL     1      34.353 -11.003 -42.944  0.00  0.00    +0.000 C 
ATOM      8  C21 UNL     1      33.585 -11.831 -43.988  0.00  0.00    +0.000 C 
ATOM      9  C22 UNL     1      32.315 -11.100 -44.448  0.00  0.00    +0.000 C 
ENDROOT
BRANCH   1  11
ATOM     10  N1  UNL     1      31.343 -10.131 -38.641  0.00  0.00    +0.000 N 
ATOM     11  C8  UNL     1      31.572  -9.262 -39.758  0.00  0.00    +0.000 C 
ATOM     12  O3  UNL     1      32.044  -8.108 -39.574  0.00  0.00    +0.000 OA
ATOM     13  H8  UNL     1      30.898 -11.062 -38.801  0.00  0.00    +0.000 HD
BRANCH  10  14
ATOM     14  C7  UNL     1      31.476  -9.670 -37.262  0.00  0.00    +0.000 C 
BRANCH  14  18
ATOM     15  C3  UNL     1      27.616  -9.538 -35.321  0.00  0.00    +0.000 A 
ATOM     16  C4  UNL     1      27.808 -10.327 -36.468  0.00  0.00    +0.000 A 
ATOM     17  C5  UNL     1      29.050 -10.358 -37.108  0.00  0.00    +0.000 A 
ATOM     18  C6  UNL     1      30.120  -9.594 -36.617  0.00  0.00    +0.000 A 
ATOM     19  C23 UNL     1      29.934  -8.810 -35.469  0.00  0.00    +0.000 A 
ATOM     20  C24 UNL     1      28.692  -8.778 -34.828  0.00  0.00    +0.000 A 
BRANCH  15  21
ATOM     21  C2  UNL     1      26.304  -9.518 -34.638  0.00  0.00    +0.000 C 
ATOM     22  O2  UNL     1      25.735 -10.601 -34.328  0.00  0.00    +0.000 OA
BRANCH  21  24
ATOM     23  C1  UNL     1      24.701  -8.163 -33.327  0.00  0.00    +0.000 C 
ATOM     24  O1  UNL     1      25.693  -8.295 -34.338  0.00  0.00    +0.000 OA
ENDBRANCH  21  24
ENDBRANCH  15  21
ENDBRANCH  14  18
ENDBRANCH  10  14
ENDBRANCH   1  11
BRANCH   2  25
ATOM     25  N2  UNL     1      28.888  -8.712 -41.126  0.00  0.00    +0.000 N 
ATOM     26  C11 UNL     1      27.881  -9.413 -40.380  0.00  0.00    +0.000 C 
ATOM     27  O4  UNL     1      27.761 -10.663 -40.507  0.00  0.00    +0.000 OA
ATOM     28  H9  UNL     1      28.698  -7.724 -41.405  0.00  0.00    +0.000 HD
BRANCH  26  29
ATOM     29  C12 UNL     1      26.944  -8.673 -39.507  0.00  0.00    +0.000 A 
ATOM     30  C13 UNL     1      27.396  -7.606 -38.710  0.00  0.00    +0.000 A 
ATOM     31  C14 UNL     1      26.503  -6.921 -37.885  0.00  0.00    +0.000 A 
ATOM     32  C15 UNL     1      25.159  -7.297 -37.871  0.00  0.00    +0.000 A 
ATOM     33  N3  UNL     1      24.731  -8.326 -38.650  0.00  0.00    +0.000 NA
ATOM     34  C16 UNL     1      25.583  -9.015 -39.457  0.00  0.00    +0.000 A 
ENDBRANCH  26  29
ENDBRANCH   2  25
TORSDOF 7
ENDMDL
MODEL 8
REMARK VINA RESULT:    -5.861      2.515      7.177
REMARK INTER + INTRA:         -10.028
REMARK INTER:                  -8.229
REMARK INTRA:                  -1.799
REMARK UNBOUND:                -1.768
REMARK  Name = resultss/4CJN/ligands/lig_271_t0.pdb
REMARK  8 active torsions:
REMARK  status: ('A' for Active; 'I' for Inactive)
REMARK    1  A    between atoms: C1_1  and  O1_2
REMARK    2  A    between atoms: O1_2  and  C2_3
REMARK    3  A    between atoms: C2_3  and  C3_5
REMARK    4  A    between atoms: C6_8  and  C7_9
REMARK    5  A    between atoms: C7_9  and  N1_10
REMARK    6  A    between atoms: C8_11  and  C9_13
REMARK    7  A    between atoms: C10_14  and  N2_15
REMARK    8  A    between atoms: C11_16  and  C12_18
REMARK                            x       y       z     vdW  Elec       q    Type
REMARK                         _______ _______ _______ _____ _____    ______ ____
ROOT
ATOM      1  C9  UNL     1      25.465  -7.890 -36.054  0.00  0.00    +0.000 A 
ATOM      2  C10 UNL     1      25.138  -7.186 -37.218  0.00  0.00    +0.000 A 
ATOM      3  S1  UNL     1      23.828  -6.173 -36.923  0.00  0.00    +0.000 S 
ATOM      4  C17 UNL     1      23.685  -6.572 -35.298  0.00  0.00    +0.000 A 
ATOM      5  C18 UNL     1      24.626  -7.548 -34.972  0.00  0.00    +0.000 A 
ATOM      6  C19 UNL     1      24.701  -8.135 -33.584  0.00  0.00    +0.000 C 
ATOM      7  C20 UNL     1      23.390  -7.926 -32.808  0.00  0.00    +0.000 C 
ATOM      8  C21 UNL     1      22.902  -6.473 -32.925  0.00  0.00    +0.000 C 
ATOM      9  C22 UNL     1      22.590  -6.110 -34.384  0.00  0.00    +0.000 C 
ENDROOT
BRANCH   1  11
ATOM     10  N1  UNL     1      27.868  -8.651 -36.259  0.00  0.00    +0.000 N 
ATOM     11  C8  UNL     1      26.488  -8.952 -36.012  0.00  0.00    +0.000 C 
ATOM     12  O3  UNL     1      26.130 -10.140 -35.791  0.00  0.00    +0.000 OA
ATOM     13  H8  UNL     1      28.143  -7.672 -36.498  0.00  0.00    +0.000 HD
BRANCH  10  14
ATOM     14  C7  UNL     1      28.869  -9.700 -36.436  0.00  0.00    +0.000 C 
BRANCH  14  18
ATOM     15  C3  UNL     1      29.818 -10.274 -40.614  0.00  0.00    +0.000 A 
ATOM     16  C4  UNL     1      30.776  -9.744 -39.734  0.00  0.00    +0.000 A 
ATOM     17  C5  UNL     1      30.467  -9.541 -38.387  0.00  0.00    +0.000 A 
ATOM     18  C6  UNL     1      29.190  -9.856 -37.897  0.00  0.00    +0.000 A 
ATOM     19  C23 UNL     1      28.233 -10.392 -38.770  0.00  0.00    +0.000 A 
ATOM     20  C24 UNL     1      28.541 -10.595 -40.119  0.00  0.00    +0.000 A 
BRANCH  15  21
ATOM     21  C2  UNL     1      30.152 -10.501 -42.037  0.00  0.00    +0.000 C 
ATOM     22  O2  UNL     1      29.372 -10.095 -42.943  0.00  0.00    +0.000 OA
BRANCH  21  24
ATOM     23  C1  UNL     1      31.339 -12.425 -43.043  0.00  0.00    +0.000 C 
ATOM     24  O1  UNL     1      31.334 -11.168 -42.378  0.00  0.00    +0.000 OA
ENDBRANCH  21  24
ENDBRANCH  15  21
ENDBRANCH  14  18
ENDBRANCH  10  14
ENDBRANCH   1  11
BRANCH   2  25
ATOM     25  N2  UNL     1      25.782  -7.301 -38.493  0.00  0.00    +0.000 N 
ATOM     26  C11 UNL     1      25.344  -8.224 -39.502  0.00  0.00    +0.000 C 
ATOM     27  O4  UNL     1      24.588  -9.186 -39.188  0.00  0.00    +0.000 OA
ATOM     28  H9  UNL     1      26.716  -6.849 -38.609  0.00  0.00    +0.000 HD
BRANCH  26  29
ATOM     29  C12 UNL     1      25.818  -8.090 -40.896  0.00  0.00    +0.000 A 
ATOM     30  C13 UNL     1      25.639  -9.136 -41.819  0.00  0.00    +0.000 A 
ATOM     31  C14 UNL     1      26.098  -9.000 -43.130  0.00  0.00    +0.000 A 
ATOM     32  C15 UNL     1      26.722  -7.812 -43.515  0.00  0.00    +0.000 A 
ATOM     33  N3  UNL     1      26.884  -6.805 -42.617  0.00  0.00    +0.000 NA
ATOM     34  C16 UNL     1      26.453  -6.915 -41.331  0.00  0.00    +0.000 A 
ENDBRANCH  26  29
ENDBRANCH   2  25
TORSDOF 7
ENDMDL
MODEL 9
REMARK VINA RESULT:    -5.805      2.169      6.179
REMARK INTER + INTRA:          -9.948
REMARK INTER:                  -8.746
REMARK INTRA:                  -1.202
REMARK UNBOUND:                -1.768
REMARK  Name = resultss/4CJN/ligands/lig_271_t0.pdb
REMARK  8 active torsions:
REMARK  status: ('A' for Active; 'I' for Inactive)
REMARK    1  A    between atoms: C1_1  and  O1_2
REMARK    2  A    between atoms: O1_2  and  C2_3
REMARK    3  A    between atoms: C2_3  and  C3_5
REMARK    4  A    between atoms: C6_8  and  C7_9
REMARK    5  A    between atoms: C7_9  and  N1_10
REMARK    6  A    between atoms: C8_11  and  C9_13
REMARK    7  A    between atoms: C10_14  and  N2_15
REMARK    8  A    between atoms: C11_16  and  C12_18
REMARK                            x       y       z     vdW  Elec       q    Type
REMARK                         _______ _______ _______ _____ _____    ______ ____
ROOT
ATOM      1  C9  UNL     1      25.887  -8.434 -36.332  0.00  0.00    +0.000 A 
ATOM      2  C10 UNL     1      25.316  -7.815 -37.450  0.00  0.00    +0.000 A 
ATOM      3  S1  UNL     1      23.773  -7.264 -37.071  0.00  0.00    +0.000 S 
ATOM      4  C17 UNL     1      23.820  -7.756 -35.466  0.00  0.00    +0.000 A 
ATOM      5  C18 UNL     1      25.025  -8.411 -35.214  0.00  0.00    +0.000 A 
ATOM      6  C19 UNL     1      25.329  -9.005 -33.861  0.00  0.00    +0.000 C 
ATOM      7  C20 UNL     1      24.048  -9.240 -33.044  0.00  0.00    +0.000 C 
ATOM      8  C21 UNL     1      23.137  -8.001 -33.073  0.00  0.00    +0.000 C 
ATOM      9  C22 UNL     1      22.673  -7.690 -34.504  0.00  0.00    +0.000 C 
ENDROOT
BRANCH   1  11
ATOM     10  N1  UNL     1      28.400  -8.442 -36.047  0.00  0.00    +0.000 N 
ATOM     11  C8  UNL     1      27.185  -9.133 -36.369  0.00  0.00    +0.000 C 
ATOM     12  O3  UNL     1      27.222 -10.342 -36.726  0.00  0.00    +0.000 OA
ATOM     13  H8  UNL     1      28.362  -7.426 -35.810  0.00  0.00    +0.000 HD
BRANCH  10  14
ATOM     14  C7  UNL     1      29.713  -9.037 -36.279  0.00  0.00    +0.000 C 
BRANCH  14  18
ATOM     15  C3  UNL     1      31.594 -10.115 -32.539  0.00  0.00    +0.000 A 
ATOM     16  C4  UNL     1      30.194 -10.098 -32.651  0.00  0.00    +0.000 A 
ATOM     17  C5  UNL     1      29.582  -9.733 -33.854  0.00  0.00    +0.000 A 
ATOM     18  C6  UNL     1      30.361  -9.370 -34.963  0.00  0.00    +0.000 A 
ATOM     19  C23 UNL     1      31.759  -9.391 -34.857  0.00  0.00    +0.000 A 
ATOM     20  C24 UNL     1      32.372  -9.756 -33.655  0.00  0.00    +0.000 A 
BRANCH  15  21
ATOM     21  C2  UNL     1      32.239 -10.514 -31.269  0.00  0.00    +0.000 C 
ATOM     22  O2  UNL     1      33.134  -9.786 -30.757  0.00  0.00    +0.000 OA
BRANCH  21  24
ATOM     23  C1  UNL     1      32.405 -12.967 -30.989  0.00  0.00    +0.000 C 
ATOM     24  O1  UNL     1      31.856 -11.703 -30.637  0.00  0.00    +0.000 OA
ENDBRANCH  21  24
ENDBRANCH  15  21
ENDBRANCH  14  18
ENDBRANCH  10  14
ENDBRANCH   1  11
BRANCH   2  25
ATOM     25  N2  UNL     1      25.915  -7.674 -38.743  0.00  0.00    +0.000 N 
ATOM     26  C11 UNL     1      25.532  -8.481 -39.867  0.00  0.00    +0.000 C 
ATOM     27  O4  UNL     1      24.891  -9.554 -39.681  0.00  0.00    +0.000 OA
ATOM     28  H9  UNL     1      26.793  -7.113 -38.815  0.00  0.00    +0.000 HD
BRANCH  26  29
ATOM     29  C12 UNL     1      25.932  -8.096 -41.238  0.00  0.00    +0.000 A 
ATOM     30  C13 UNL     1      26.577  -9.016 -42.083  0.00  0.00    +0.000 A 
ATOM     31  C14 UNL     1      26.956  -8.637 -43.371  0.00  0.00    +0.000 A 
ATOM     32  C15 UNL     1      26.675  -7.344 -43.814  0.00  0.00    +0.000 A 
ATOM     33  N3  UNL     1      26.044  -6.464 -42.991  0.00  0.00    +0.000 NA
ATOM     34  C16 UNL     1      25.672  -6.806 -41.728  0.00  0.00    +0.000 A 
ENDBRANCH  26  29
ENDBRANCH   2  25
TORSDOF 7
ENDMDL
