MODEL 1
REMARK VINA RESULT:    -3.873      0.000      0.000
REMARK INTER + INTRA:          -4.801
REMARK INTER:                  -4.553
REMARK INTRA:                  -0.248
REMARK UNBOUND:                -0.248
REMARK  Name = resultss/4CJN/ligands/lig_110_t0.pdb
REMARK  5 active torsions:
REMARK  status: ('A' for Active; 'I' for Inactive)
REMARK    1  A    between atoms: O1_1  and  C1_2
REMARK    2  A    between atoms: C1_2  and  C2_3
REMARK    3  A    between atoms: C4_6  and  O2_7
REMARK    4  A    between atoms: C5_8  and  O3_9
REMARK    5  A    between atoms: C6_10  and  O4_11
REMARK                            x       y       z     vdW  Elec       q    Type
REMARK                         _______ _______ _______ _____ _____    ______ ____
ROOT
ATOM      1  C2  UNL     1      25.607  -8.121 -33.885  0.00  0.00    +0.000 C 
ATOM      2  N1  UNL     1      26.505  -8.295 -32.729  0.00  0.00    +0.000 NA
ATOM      3  C3  UNL     1      27.914  -8.255 -33.147  0.00  0.00    +0.000 C 
ATOM      4  C4  UNL     1      28.221  -9.396 -34.133  0.00  0.00    +0.000 C 
ATOM      5  C5  UNL     1      27.272  -9.321 -35.352  0.00  0.00    +0.000 C 
ATOM      6  C6  UNL     1      25.799  -9.277 -34.899  0.00  0.00    +0.000 C 
ATOM      7  H5  UNL     1      26.358  -7.491 -32.074  0.00  0.00    +0.000 HD
ENDROOT
BRANCH   4   8
ATOM      8  O2  UNL     1      29.566  -9.354 -34.539  0.00  0.00    +0.000 OA
ATOM      9  H9  UNL     1      30.076  -8.862 -33.843  0.00  0.00    +0.000 HD
ENDBRANCH   4   8
BRANCH   5  10
ATOM     10  O3  UNL     1      27.496 -10.387 -36.243  0.00  0.00    +0.000 OA
ATOM     11  H11 UNL     1      27.477 -11.232 -35.721  0.00  0.00    +0.000 HD
ENDBRANCH   5  10
BRANCH   6  12
ATOM     12  O4  UNL     1      25.447 -10.507 -34.311  0.00  0.00    +0.000 OA
ATOM     13  H13 UNL     1      24.465 -10.609 -34.406  0.00  0.00    +0.000 HD
ENDBRANCH   6  12
BRANCH   1  14
ATOM     14  C1  UNL     1      24.141  -8.000 -33.421  0.00  0.00    +0.000 C 
BRANCH  14  15
ATOM     15  O1  UNL     1      23.846  -8.914 -32.399  0.00  0.00    +0.000 OA
ATOM     16  H1  UNL     1      23.342  -8.417 -31.703  0.00  0.00    +0.000 HD
ENDBRANCH  14  15
ENDBRANCH   1  14
TORSDOF 5
ENDMDL
MODEL 2
REMARK VINA RESULT:    -3.850      2.201      4.827
REMARK INTER + INTRA:          -4.772
REMARK INTER:                  -4.546
REMARK INTRA:                  -0.226
REMARK UNBOUND:                -0.248
REMARK  Name = resultss/4CJN/ligands/lig_110_t0.pdb
REMARK  5 active torsions:
REMARK  status: ('A' for Active; 'I' for Inactive)
REMARK    1  A    between atoms: O1_1  and  C1_2
REMARK    2  A    between atoms: C1_2  and  C2_3
REMARK    3  A    between atoms: C4_6  and  O2_7
REMARK    4  A    between atoms: C5_8  and  O3_9
REMARK    5  A    between atoms: C6_10  and  O4_11
REMARK                            x       y       z     vdW  Elec       q    Type
REMARK                         _______ _______ _______ _____ _____    ______ ____
ROOT
ATOM      1  C2  UNL     1      25.279  -8.297 -34.691  0.00  0.00    +0.000 C 
ATOM      2  N1  UNL     1      24.236  -8.542 -35.705  0.00  0.00    +0.000 NA
ATOM      3  C3  UNL     1      23.370  -7.364 -35.863  0.00  0.00    +0.000 C 
ATOM      4  C4  UNL     1      22.649  -7.039 -34.543  0.00  0.00    +0.000 C 
ATOM      5  C5  UNL     1      23.677  -6.830 -33.408  0.00  0.00    +0.000 C 
ATOM      6  C6  UNL     1      24.635  -8.034 -33.307  0.00  0.00    +0.000 C 
ATOM      7  H5  UNL     1      24.705  -8.702 -36.628  0.00  0.00    +0.000 HD
ENDROOT
BRANCH   4   8
ATOM      8  O2  UNL     1      21.827  -5.909 -34.692  0.00  0.00    +0.000 OA
ATOM      9  H9  UNL     1      21.156  -5.925 -33.959  0.00  0.00    +0.000 HD
ENDBRANCH   4   8
BRANCH   5  10
ATOM     10  O3  UNL     1      23.041  -6.585 -32.177  0.00  0.00    +0.000 OA
ATOM     11  H11 UNL     1      22.381  -5.855 -32.313  0.00  0.00    +0.000 HD
ENDBRANCH   5  10
BRANCH   6  12
ATOM     12  O4  UNL     1      23.925  -9.169 -32.872  0.00  0.00    +0.000 OA
ATOM     13  H13 UNL     1      24.559  -9.933 -32.873  0.00  0.00    +0.000 HD
ENDBRANCH   6  12
BRANCH   1  14
ATOM     14  C1  UNL     1      26.279  -9.471 -34.648  0.00  0.00    +0.000 C 
BRANCH  14  15
ATOM     15  O1  UNL     1      25.629 -10.696 -34.440  0.00  0.00    +0.000 OA
ATOM     16  H1  UNL     1      25.852 -10.988 -33.517  0.00  0.00    +0.000 HD
ENDBRANCH  14  15
ENDBRANCH   1  14
TORSDOF 5
ENDMDL
MODEL 3
REMARK VINA RESULT:    -3.786      1.873      4.395
REMARK INTER + INTRA:          -4.698
REMARK INTER:                  -4.451
REMARK INTRA:                  -0.247
REMARK UNBOUND:                -0.248
REMARK  Name = resultss/4CJN/ligands/lig_110_t0.pdb
REMARK  5 active torsions:
REMARK  status: ('A' for Active; 'I' for Inactive)
REMARK    1  A    between atoms: O1_1  and  C1_2
REMARK    2  A    between atoms: C1_2  and  C2_3
REMARK    3  A    between atoms: C4_6  and  O2_7
REMARK    4  A    between atoms: C5_8  and  O3_9
REMARK    5  A    between atoms: C6_10  and  O4_11
REMARK                            x       y       z     vdW  Elec       q    Type
REMARK                         _______ _______ _______ _____ _____    ______ ____
ROOT
ATOM      1  C2  UNL     1      26.319  -8.582 -35.363  0.00  0.00    +0.000 C 
ATOM      2  N1  UNL     1      25.297  -8.559 -36.426  0.00  0.00    +0.000 NA
ATOM      3  C3  UNL     1      24.148  -7.728 -36.032  0.00  0.00    +0.000 C 
ATOM      4  C4  UNL     1      23.475  -8.296 -34.771  0.00  0.00    +0.000 C 
ATOM      5  C5  UNL     1      24.502  -8.413 -33.621  0.00  0.00    +0.000 C 
ATOM      6  C6  UNL     1      25.741  -9.212 -34.071  0.00  0.00    +0.000 C 
ATOM      7  H5  UNL     1      25.717  -8.115 -37.276  0.00  0.00    +0.000 HD
ENDROOT
BRANCH   4   8
ATOM      8  O2  UNL     1      22.381  -7.500 -34.390  0.00  0.00    +0.000 OA
ATOM      9  H9  UNL     1      22.740  -6.641 -34.042  0.00  0.00    +0.000 HD
ENDBRANCH   4   8
BRANCH   5  10
ATOM     10  O3  UNL     1      23.923  -8.981 -32.471  0.00  0.00    +0.000 OA
ATOM     11  H11 UNL     1      23.740  -9.939 -32.661  0.00  0.00    +0.000 HD
ENDBRANCH   5  10
BRANCH   6  12
ATOM     12  O4  UNL     1      25.382 -10.554 -34.298  0.00  0.00    +0.000 OA
ATOM     13  H13 UNL     1      24.430 -10.561 -34.578  0.00  0.00    +0.000 HD
ENDBRANCH   6  12
BRANCH   1  14
ATOM     14  C1  UNL     1      27.586  -9.316 -35.845  0.00  0.00    +0.000 C 
BRANCH  14  15
ATOM     15  O1  UNL     1      27.269 -10.451 -36.606  0.00  0.00    +0.000 OA
ATOM     16  H1  UNL     1      26.402 -10.793 -36.265  0.00  0.00    +0.000 HD
ENDBRANCH  14  15
ENDBRANCH   1  14
TORSDOF 5
ENDMDL
MODEL 4
REMARK VINA RESULT:    -3.720      2.476      4.391
REMARK INTER + INTRA:          -4.620
REMARK INTER:                  -4.571
REMARK INTRA:                  -0.049
REMARK UNBOUND:                -0.248
REMARK  Name = resultss/4CJN/ligands/lig_110_t0.pdb
REMARK  5 active torsions:
REMARK  status: ('A' for Active; 'I' for Inactive)
REMARK    1  A    between atoms: O1_1  and  C1_2
REMARK    2  A    between atoms: C1_2  and  C2_3
REMARK    3  A    between atoms: C4_6  and  O2_7
REMARK    4  A    between atoms: C5_8  and  O3_9
REMARK    5  A    between atoms: C6_10  and  O4_11
REMARK                            x       y       z     vdW  Elec       q    Type
REMARK                         _______ _______ _______ _____ _____    ______ ____
ROOT
ATOM      1  C2  UNL     1      24.826  -7.900 -36.251  0.00  0.00    +0.000 C 
ATOM      2  N1  UNL     1      23.389  -8.153 -36.037  0.00  0.00    +0.000 NA
ATOM      3  C3  UNL     1      22.920  -7.505 -34.802  0.00  0.00    +0.000 C 
ATOM      4  C4  UNL     1      23.665  -8.065 -33.578  0.00  0.00    +0.000 C 
ATOM      5  C5  UNL     1      25.192  -7.895 -33.755  0.00  0.00    +0.000 C 
ATOM      6  C6  UNL     1      25.660  -8.502 -35.093  0.00  0.00    +0.000 C 
ATOM      7  H5  UNL     1      22.857  -7.722 -36.829  0.00  0.00    +0.000 HD
ENDROOT
BRANCH   4   8
ATOM      8  O2  UNL     1      23.223  -7.442 -32.399  0.00  0.00    +0.000 OA
ATOM      9  H9  UNL     1      22.704  -6.636 -32.660  0.00  0.00    +0.000 HD
ENDBRANCH   4   8
BRANCH   5  10
ATOM     10  O3  UNL     1      25.899  -8.449 -32.673  0.00  0.00    +0.000 OA
ATOM     11  H11 UNL     1      26.317  -9.296 -32.981  0.00  0.00    +0.000 HD
ENDBRANCH   5  10
BRANCH   6  12
ATOM     12  O4  UNL     1      25.510  -9.901 -35.056  0.00  0.00    +0.000 OA
ATOM     13  H13 UNL     1      24.559 -10.101 -35.260  0.00  0.00    +0.000 HD
ENDBRANCH   6  12
BRANCH   1  14
ATOM     14  C1  UNL     1      25.272  -8.441 -37.625  0.00  0.00    +0.000 C 
BRANCH  14  15
ATOM     15  O1  UNL     1      24.176  -8.700 -38.460  0.00  0.00    +0.000 OA
ATOM     16  H1  UNL     1      24.401  -9.509 -38.989  0.00  0.00    +0.000 HD
ENDBRANCH  14  15
ENDBRANCH   1  14
TORSDOF 5
ENDMDL
MODEL 5
REMARK VINA RESULT:    -3.684     12.590     13.359
REMARK INTER + INTRA:          -4.578
REMARK INTER:                  -4.330
REMARK INTRA:                  -0.248
REMARK UNBOUND:                -0.248
REMARK  Name = resultss/4CJN/ligands/lig_110_t0.pdb
REMARK  5 active torsions:
REMARK  status: ('A' for Active; 'I' for Inactive)
REMARK    1  A    between atoms: O1_1  and  C1_2
REMARK    2  A    between atoms: C1_2  and  C2_3
REMARK    3  A    between atoms: C4_6  and  O2_7
REMARK    4  A    between atoms: C5_8  and  O3_9
REMARK    5  A    between atoms: C6_10  and  O4_11
REMARK                            x       y       z     vdW  Elec       q    Type
REMARK                         _______ _______ _______ _____ _____    ______ ____
ROOT
ATOM      1  C2  UNL     1      21.488  -6.350 -45.314  0.00  0.00    +0.000 C 
ATOM      2  N1  UNL     1      22.418  -7.436 -44.952  0.00  0.00    +0.000 NA
ATOM      3  C3  UNL     1      23.568  -7.470 -45.869  0.00  0.00    +0.000 C 
ATOM      4  C4  UNL     1      23.104  -7.735 -47.312  0.00  0.00    +0.000 C 
ATOM      5  C5  UNL     1      22.072  -6.669 -47.747  0.00  0.00    +0.000 C 
ATOM      6  C6  UNL     1      20.913  -6.581 -46.734  0.00  0.00    +0.000 C 
ATOM      7  H5  UNL     1      22.796  -7.240 -43.995  0.00  0.00    +0.000 HD
ENDROOT
BRANCH   4   8
ATOM      8  O2  UNL     1      24.202  -7.761 -48.189  0.00  0.00    +0.000 OA
ATOM      9  H9  UNL     1      24.768  -8.538 -47.941  0.00  0.00    +0.000 HD
ENDBRANCH   4   8
BRANCH   5  10
ATOM     10  O3  UNL     1      21.591  -6.921 -49.046  0.00  0.00    +0.000 OA
ATOM     11  H11 UNL     1      21.518  -7.905 -49.160  0.00  0.00    +0.000 HD
ENDBRANCH   5  10
BRANCH   6  12
ATOM     12  O4  UNL     1      20.161  -7.770 -46.771  0.00  0.00    +0.000 OA
ATOM     13  H13 UNL     1      19.240  -7.546 -46.476  0.00  0.00    +0.000 HD
ENDBRANCH   6  12
BRANCH   1  14
ATOM     14  C1  UNL     1      20.374  -6.216 -44.256  0.00  0.00    +0.000 C 
BRANCH  14  15
ATOM     15  O1  UNL     1      19.894  -7.469 -43.849  0.00  0.00    +0.000 OA
ATOM     16  H1  UNL     1      19.982  -8.079 -44.627  0.00  0.00    +0.000 HD
ENDBRANCH  14  15
ENDBRANCH   1  14
TORSDOF 5
ENDMDL
MODEL 6
REMARK VINA RESULT:    -3.660     12.249     13.219
REMARK INTER + INTRA:          -4.550
REMARK INTER:                  -4.304
REMARK INTRA:                  -0.246
REMARK UNBOUND:                -0.248
REMARK  Name = resultss/4CJN/ligands/lig_110_t0.pdb
REMARK  5 active torsions:
REMARK  status: ('A' for Active; 'I' for Inactive)
REMARK    1  A    between atoms: O1_1  and  C1_2
REMARK    2  A    between atoms: C1_2  and  C2_3
REMARK    3  A    between atoms: C4_6  and  O2_7
REMARK    4  A    between atoms: C5_8  and  O3_9
REMARK    5  A    between atoms: C6_10  and  O4_11
REMARK                            x       y       z     vdW  Elec       q    Type
REMARK                         _______ _______ _______ _____ _____    ______ ____
ROOT
ATOM      1  C2  UNL     1      22.105  -6.687 -46.841  0.00  0.00    +0.000 C 
ATOM      2  N1  UNL     1      21.947  -7.361 -45.539  0.00  0.00    +0.000 NA
ATOM      3  C3  UNL     1      23.044  -7.003 -44.626  0.00  0.00    +0.000 C 
ATOM      4  C4  UNL     1      24.399  -7.449 -45.204  0.00  0.00    +0.000 C 
ATOM      5  C5  UNL     1      24.613  -6.832 -46.605  0.00  0.00    +0.000 C 
ATOM      6  C6  UNL     1      23.417  -7.140 -47.529  0.00  0.00    +0.000 C 
ATOM      7  H5  UNL     1      21.060  -7.021 -45.098  0.00  0.00    +0.000 HD
ENDROOT
BRANCH   4   8
ATOM      8  O2  UNL     1      25.448  -7.101 -44.335  0.00  0.00    +0.000 OA
ATOM      9  H9  UNL     1      25.052  -6.919 -43.442  0.00  0.00    +0.000 HD
ENDBRANCH   4   8
BRANCH   5  10
ATOM     10  O3  UNL     1      25.821  -7.268 -47.179  0.00  0.00    +0.000 OA
ATOM     11  H11 UNL     1      26.124  -8.072 -46.681  0.00  0.00    +0.000 HD
ENDBRANCH   5  10
BRANCH   6  12
ATOM     12  O4  UNL     1      23.375  -8.520 -47.805  0.00  0.00    +0.000 OA
ATOM     13  H13 UNL     1      23.517  -8.997 -46.946  0.00  0.00    +0.000 HD
ENDBRANCH   6  12
BRANCH   1  14
ATOM     14  C1  UNL     1      20.872  -6.935 -47.733  0.00  0.00    +0.000 C 
BRANCH  14  15
ATOM     15  O1  UNL     1      21.213  -6.954 -49.093  0.00  0.00    +0.000 OA
ATOM     16  H1  UNL     1      20.696  -7.693 -49.510  0.00  0.00    +0.000 HD
ENDBRANCH  14  15
ENDBRANCH   1  14
TORSDOF 5
ENDMDL
MODEL 7
REMARK VINA RESULT:    -3.647      8.535      9.576
REMARK INTER + INTRA:          -4.535
REMARK INTER:                  -4.289
REMARK INTRA:                  -0.246
REMARK UNBOUND:                -0.248
REMARK  Name = resultss/4CJN/ligands/lig_110_t0.pdb
REMARK  5 active torsions:
REMARK  status: ('A' for Active; 'I' for Inactive)
REMARK    1  A    between atoms: O1_1  and  C1_2
REMARK    2  A    between atoms: C1_2  and  C2_3
REMARK    3  A    between atoms: C4_6  and  O2_7
REMARK    4  A    between atoms: C5_8  and  O3_9
REMARK    5  A    between atoms: C6_10  and  O4_11
REMARK                            x       y       z     vdW  Elec       q    Type
REMARK                         _______ _______ _______ _____ _____    ______ ____
ROOT
ATOM      1  C2  UNL     1      25.098  -8.303 -41.846  0.00  0.00    +0.000 C 
ATOM      2  N1  UNL     1      26.142  -8.549 -42.858  0.00  0.00    +0.000 NA
ATOM      3  C3  UNL     1      26.029  -7.594 -43.971  0.00  0.00    +0.000 C 
ATOM      4  C4  UNL     1      24.670  -7.743 -44.678  0.00  0.00    +0.000 C 
ATOM      5  C5  UNL     1      23.516  -7.562 -43.666  0.00  0.00    +0.000 C 
ATOM      6  C6  UNL     1      23.690  -8.507 -42.461  0.00  0.00    +0.000 C 
ATOM      7  H5  UNL     1      27.076  -8.388 -42.412  0.00  0.00    +0.000 HD
ENDROOT
BRANCH   4   8
ATOM      8  O2  UNL     1      24.559  -6.826 -45.738  0.00  0.00    +0.000 OA
ATOM      9  H9  UNL     1      24.840  -5.936 -45.398  0.00  0.00    +0.000 HD
ENDBRANCH   4   8
BRANCH   5  10
ATOM     10  O3  UNL     1      22.263  -7.748 -44.278  0.00  0.00    +0.000 OA
ATOM     11  H11 UNL     1      21.613  -8.011 -43.574  0.00  0.00    +0.000 HD
ENDBRANCH   5  10
BRANCH   6  12
ATOM     12  O4  UNL     1      23.526  -9.842 -42.878  0.00  0.00    +0.000 OA
ATOM     13  H13 UNL     1      24.181 -10.391 -42.373  0.00  0.00    +0.000 HD
ENDBRANCH   6  12
BRANCH   1  14
ATOM     14  C1  UNL     1      25.321  -9.197 -40.609  0.00  0.00    +0.000 C 
BRANCH  14  15
ATOM     15  O1  UNL     1      24.108  -9.542 -39.994  0.00  0.00    +0.000 OA
ATOM     16  H1  UNL     1      23.658  -8.693 -39.747  0.00  0.00    +0.000 HD
ENDBRANCH  14  15
ENDBRANCH   1  14
TORSDOF 5
ENDMDL
MODEL 8
REMARK VINA RESULT:    -3.508      2.118      4.028
REMARK INTER + INTRA:          -4.371
REMARK INTER:                  -4.130
REMARK INTRA:                  -0.241
REMARK UNBOUND:                -0.248
REMARK  Name = resultss/4CJN/ligands/lig_110_t0.pdb
REMARK  5 active torsions:
REMARK  status: ('A' for Active; 'I' for Inactive)
REMARK    1  A    between atoms: O1_1  and  C1_2
REMARK    2  A    between atoms: C1_2  and  C2_3
REMARK    3  A    between atoms: C4_6  and  O2_7
REMARK    4  A    between atoms: C5_8  and  O3_9
REMARK    5  A    between atoms: C6_10  and  O4_11
REMARK                            x       y       z     vdW  Elec       q    Type
REMARK                         _______ _______ _______ _____ _____    ______ ____
ROOT
ATOM      1  C2  UNL     1      26.525  -8.264 -34.281  0.00  0.00    +0.000 C 
ATOM      2  N1  UNL     1      26.602  -8.133 -35.748  0.00  0.00    +0.000 NA
ATOM      3  C3  UNL     1      25.441  -7.398 -36.271  0.00  0.00    +0.000 C 
ATOM      4  C4  UNL     1      24.135  -8.148 -35.954  0.00  0.00    +0.000 C 
ATOM      5  C5  UNL     1      24.009  -8.384 -34.431  0.00  0.00    +0.000 C 
ATOM      6  C6  UNL     1      25.269  -9.078 -33.877  0.00  0.00    +0.000 C 
ATOM      7  H5  UNL     1      27.452  -7.567 -35.982  0.00  0.00    +0.000 HD
ENDROOT
BRANCH   4   8
ATOM      8  O2  UNL     1      23.024  -7.444 -36.448  0.00  0.00    +0.000 OA
ATOM      9  H9  UNL     1      22.590  -6.988 -35.680  0.00  0.00    +0.000 HD
ENDBRANCH   4   8
BRANCH   5  10
ATOM     10  O3  UNL     1      22.849  -9.118 -34.120  0.00  0.00    +0.000 OA
ATOM     11  H11 UNL     1      22.677  -9.751 -34.865  0.00  0.00    +0.000 HD
ENDBRANCH   5  10
BRANCH   6  12
ATOM     12  O4  UNL     1      25.351 -10.389 -34.384  0.00  0.00    +0.000 OA
ATOM     13  H13 UNL     1      25.856 -10.344 -35.238  0.00  0.00    +0.000 HD
ENDBRANCH   6  12
BRANCH   1  14
ATOM     14  C1  UNL     1      27.820  -8.889 -33.723  0.00  0.00    +0.000 C 
BRANCH  14  15
ATOM     15  O1  UNL     1      28.176 -10.052 -34.422  0.00  0.00    +0.000 OA
ATOM     16  H1  UNL     1      27.331 -10.476 -34.726  0.00  0.00    +0.000 HD
ENDBRANCH  14  15
ENDBRANCH   1  14
TORSDOF 5
ENDMDL
MODEL 9
REMARK VINA RESULT:    -3.501     12.050     12.974
REMARK INTER + INTRA:          -4.363
REMARK INTER:                  -4.119
REMARK INTRA:                  -0.244
REMARK UNBOUND:                -0.248
REMARK  Name = resultss/4CJN/ligands/lig_110_t0.pdb
REMARK  5 active torsions:
REMARK  status: ('A' for Active; 'I' for Inactive)
REMARK    1  A    between atoms: O1_1  and  C1_2
REMARK    2  A    between atoms: C1_2  and  C2_3
REMARK    3  A    between atoms: C4_6  and  O2_7
REMARK    4  A    between atoms: C5_8  and  O3_9
REMARK    5  A    between atoms: C6_10  and  O4_11
REMARK                            x       y       z     vdW  Elec       q    Type
REMARK                         _______ _______ _______ _____ _____    ______ ____
ROOT
ATOM      1  C2  UNL     1      23.964  -6.285 -46.221  0.00  0.00    +0.000 C 
ATOM      2  N1  UNL     1      24.643  -7.136 -45.226  0.00  0.00    +0.000 NA
ATOM      3  C3  UNL     1      26.104  -6.985 -45.316  0.00  0.00    +0.000 C 
ATOM      4  C4  UNL     1      26.610  -7.421 -46.702  0.00  0.00    +0.000 C 
ATOM      5  C5  UNL     1      25.894  -6.617 -47.811  0.00  0.00    +0.000 C 
ATOM      6  C6  UNL     1      24.363  -6.710 -47.657  0.00  0.00    +0.000 C 
ATOM      7  H5  UNL     1      24.361  -6.812 -44.270  0.00  0.00    +0.000 HD
ENDROOT
BRANCH   4   8
ATOM      8  O2  UNL     1      28.004  -7.272 -46.791  0.00  0.00    +0.000 OA
ATOM      9  H9  UNL     1      28.187  -6.433 -47.291  0.00  0.00    +0.000 HD
ENDBRANCH   4   8
BRANCH   5  10
ATOM     10  O3  UNL     1      26.300  -7.035 -49.092  0.00  0.00    +0.000 OA
ATOM     11  H11 UNL     1      25.680  -6.634 -49.756  0.00  0.00    +0.000 HD
ENDBRANCH   5  10
BRANCH   6  12
ATOM     12  O4  UNL     1      23.941  -8.029 -47.913  0.00  0.00    +0.000 OA
ATOM     13  H13 UNL     1      23.754  -8.454 -47.036  0.00  0.00    +0.000 HD
ENDBRANCH   6  12
BRANCH   1  14
ATOM     14  C1  UNL     1      22.436  -6.322 -46.013  0.00  0.00    +0.000 C 
BRANCH  14  15
ATOM     15  O1  UNL     1      21.965  -7.636 -45.869  0.00  0.00    +0.000 OA
ATOM     16  H1  UNL     1      22.600  -8.225 -46.355  0.00  0.00    +0.000 HD
ENDBRANCH  14  15
ENDBRANCH   1  14
TORSDOF 5
ENDMDL
