MODEL 1
REMARK VINA RESULT:    -5.361      0.000      0.000
REMARK INTER + INTRA:          -7.238
REMARK INTER:                  -6.928
REMARK INTRA:                  -0.310
REMARK UNBOUND:                -0.310
REMARK  Name = resultss/4CJN/ligands/lig_218_t0.pdb
REMARK  8 active torsions:
REMARK  status: ('A' for Active; 'I' for Inactive)
REMARK    1  A    between atoms: C1_1  and  O1_2
REMARK    2  A    between atoms: O1_2  and  C2_3
REMARK    3  A    between atoms: C5_6  and  C6_7
REMARK    4  A    between atoms: C7_9  and  C8_10
REMARK    5  A    between atoms: C8_10  and  O2_11
REMARK    6  A    between atoms: C9_12  and  O3_13
REMARK    7  A    between atoms: C10_14  and  O4_15
REMARK    8  A    between atoms: C12_17  and  O5_18
REMARK                            x       y       z     vdW  Elec       q    Type
REMARK                         _______ _______ _______ _____ _____    ______ ____
ROOT
ATOM      1  C6  UNL     1      30.451 -10.139 -42.230  0.00  0.00    +0.000 C 
ATOM      2  N1  UNL     1      30.185 -10.750 -40.917  0.00  0.00    +0.000 NA
ATOM      3  C7  UNL     1      28.746 -10.626 -40.660  0.00  0.00    +0.000 C 
ATOM      4  C9  UNL     1      28.200  -9.581 -41.634  0.00  0.00    +0.000 C 
ATOM      5  C10 UNL     1      29.109  -9.719 -42.839  0.00  0.00    +0.000 C 
ATOM      6  H7  UNL     1      30.452 -11.762 -40.887  0.00  0.00    +0.000 HD
ENDROOT
BRANCH   1  10
ATOM      7  C2  UNL     1      32.680 -12.744 -44.901  0.00  0.00    +0.000 A 
ATOM      8  C3  UNL     1      32.067 -13.266 -43.745  0.00  0.00    +0.000 A 
ATOM      9  C4  UNL     1      31.352 -12.431 -42.885  0.00  0.00    +0.000 A 
ATOM     10  C5  UNL     1      31.238 -11.057 -43.155  0.00  0.00    +0.000 A 
ATOM     11  C11 UNL     1      31.845 -10.538 -44.309  0.00  0.00    +0.000 A 
ATOM     12  C12 UNL     1      32.562 -11.371 -45.177  0.00  0.00    +0.000 A 
BRANCH   7  14
ATOM     13  C1  UNL     1      32.846 -14.616 -46.555  0.00  0.00    +0.000 C 
ATOM     14  O1  UNL     1      33.406 -13.555 -45.787  0.00  0.00    +0.000 OA
ENDBRANCH   7  14
BRANCH  12  15
ATOM     15  O5  UNL     1      33.151 -10.812 -46.311  0.00  0.00    +0.000 OA
ATOM     16  H17 UNL     1      34.084 -11.063 -46.614  0.00  0.00    +0.000 HD
ENDBRANCH  12  15
ENDBRANCH   1  10
BRANCH   4  17
ATOM     17  O3  UNL     1      26.869  -9.853 -41.988  0.00  0.00    +0.000 OA
ATOM     18  H13 UNL     1      26.763  -9.562 -42.931  0.00  0.00    +0.000 HD
ENDBRANCH   4  17
BRANCH   5  19
ATOM     19  O4  UNL     1      29.235  -8.502 -43.526  0.00  0.00    +0.000 OA
ATOM     20  H15 UNL     1      29.579  -8.723 -44.431  0.00  0.00    +0.000 HD
ENDBRANCH   5  19
BRANCH   3  21
ATOM     21  C8  UNL     1      28.500 -10.229 -39.197  0.00  0.00    +0.000 C 
BRANCH  21  22
ATOM     22  O2  UNL     1      27.930 -11.298 -38.490  0.00  0.00    +0.000 OA
ATOM     23  H11 UNL     1      27.941 -12.082 -39.099  0.00  0.00    +0.000 HD
ENDBRANCH  21  22
ENDBRANCH   3  21
TORSDOF 7
ENDMDL
MODEL 2
REMARK VINA RESULT:    -5.082      5.033      8.465
REMARK INTER + INTRA:          -6.878
REMARK INTER:                  -6.342
REMARK INTRA:                  -0.536
REMARK UNBOUND:                -0.310
REMARK  Name = resultss/4CJN/ligands/lig_218_t0.pdb
REMARK  8 active torsions:
REMARK  status: ('A' for Active; 'I' for Inactive)
REMARK    1  A    between atoms: C1_1  and  O1_2
REMARK    2  A    between atoms: O1_2  and  C2_3
REMARK    3  A    between atoms: C5_6  and  C6_7
REMARK    4  A    between atoms: C7_9  and  C8_10
REMARK    5  A    between atoms: C8_10  and  O2_11
REMARK    6  A    between atoms: C9_12  and  O3_13
REMARK    7  A    between atoms: C10_14  and  O4_15
REMARK    8  A    between atoms: C12_17  and  O5_18
REMARK                            x       y       z     vdW  Elec       q    Type
REMARK                         _______ _______ _______ _____ _____    ______ ____
ROOT
ATOM      1  C6  UNL     1      25.470  -8.865 -35.891  0.00  0.00    +0.000 C 
ATOM      2  N1  UNL     1      25.140  -7.439 -35.724  0.00  0.00    +0.000 NA
ATOM      3  C7  UNL     1      25.372  -7.097 -34.317  0.00  0.00    +0.000 C 
ATOM      4  C9  UNL     1      25.456  -8.411 -33.539  0.00  0.00    +0.000 C 
ATOM      5  C10 UNL     1      26.018  -9.383 -34.557  0.00  0.00    +0.000 C 
ATOM      6  H7  UNL     1      25.731  -6.821 -36.328  0.00  0.00    +0.000 HD
ENDROOT
BRANCH   1  10
ATOM      7  C2  UNL     1      28.246  -9.562 -39.160  0.00  0.00    +0.000 A 
ATOM      8  C3  UNL     1      27.013  -8.924 -39.397  0.00  0.00    +0.000 A 
ATOM      9  C4  UNL     1      26.119  -8.701 -38.349  0.00  0.00    +0.000 A 
ATOM     10  C5  UNL     1      26.432  -9.114 -37.043  0.00  0.00    +0.000 A 
ATOM     11  C11 UNL     1      27.663  -9.746 -36.806  0.00  0.00    +0.000 A 
ATOM     12  C12 UNL     1      28.564  -9.971 -37.853  0.00  0.00    +0.000 A 
BRANCH   7  14
ATOM     13  C1  UNL     1      29.030 -10.822 -41.177  0.00  0.00    +0.000 C 
ATOM     14  O1  UNL     1      29.168  -9.803 -40.191  0.00  0.00    +0.000 OA
ENDBRANCH   7  14
BRANCH  12  15
ATOM     15  O5  UNL     1      29.775 -10.605 -37.573  0.00  0.00    +0.000 OA
ATOM     16  H17 UNL     1      29.891 -11.607 -37.655  0.00  0.00    +0.000 HD
ENDBRANCH  12  15
ENDBRANCH   1  10
BRANCH   4  17
ATOM     17  O3  UNL     1      26.316  -8.302 -32.436  0.00  0.00    +0.000 OA
ATOM     18  H13 UNL     1      27.238  -8.252 -32.802  0.00  0.00    +0.000 HD
ENDBRANCH   4  17
BRANCH   5  19
ATOM     19  O4  UNL     1      25.574 -10.692 -34.313  0.00  0.00    +0.000 OA
ATOM     20  H15 UNL     1      24.933 -10.636 -33.557  0.00  0.00    +0.000 HD
ENDBRANCH   5  19
BRANCH   3  21
ATOM     21  C8  UNL     1      24.243  -6.195 -33.797  0.00  0.00    +0.000 C 
BRANCH  21  22
ATOM     22  O2  UNL     1      23.982  -6.471 -32.447  0.00  0.00    +0.000 OA
ATOM     23  H11 UNL     1      23.017  -6.696 -32.382  0.00  0.00    +0.000 HD
ENDBRANCH  21  22
ENDBRANCH   3  21
TORSDOF 7
ENDMDL
MODEL 3
REMARK VINA RESULT:    -4.912      5.260      8.630
REMARK INTER + INTRA:          -6.658
REMARK INTER:                  -6.151
REMARK INTRA:                  -0.507
REMARK UNBOUND:                -0.310
REMARK  Name = resultss/4CJN/ligands/lig_218_t0.pdb
REMARK  8 active torsions:
REMARK  status: ('A' for Active; 'I' for Inactive)
REMARK    1  A    between atoms: C1_1  and  O1_2
REMARK    2  A    between atoms: O1_2  and  C2_3
REMARK    3  A    between atoms: C5_6  and  C6_7
REMARK    4  A    between atoms: C7_9  and  C8_10
REMARK    5  A    between atoms: C8_10  and  O2_11
REMARK    6  A    between atoms: C9_12  and  O3_13
REMARK    7  A    between atoms: C10_14  and  O4_15
REMARK    8  A    between atoms: C12_17  and  O5_18
REMARK                            x       y       z     vdW  Elec       q    Type
REMARK                         _______ _______ _______ _____ _____    ______ ____
ROOT
ATOM      1  C6  UNL     1      26.648  -9.634 -34.726  0.00  0.00    +0.000 C 
ATOM      2  N1  UNL     1      25.176  -9.593 -34.689  0.00  0.00    +0.000 NA
ATOM      3  C7  UNL     1      24.790  -8.484 -33.811  0.00  0.00    +0.000 C 
ATOM      4  C9  UNL     1      26.026  -8.103 -32.992  0.00  0.00    +0.000 C 
ATOM      5  C10 UNL     1      27.175  -8.443 -33.919  0.00  0.00    +0.000 C 
ATOM      6  H7  UNL     1      24.759  -9.439 -35.637  0.00  0.00    +0.000 HD
ENDROOT
BRANCH   1  10
ATOM      7  C2  UNL     1      28.253  -9.679 -38.764  0.00  0.00    +0.000 A 
ATOM      8  C3  UNL     1      26.920  -9.289 -38.532  0.00  0.00    +0.000 A 
ATOM      9  C4  UNL     1      26.402  -9.276 -37.237  0.00  0.00    +0.000 A 
ATOM     10  C5  UNL     1      27.199  -9.656 -36.144  0.00  0.00    +0.000 A 
ATOM     11  C11 UNL     1      28.529 -10.041 -36.374  0.00  0.00    +0.000 A 
ATOM     12  C12 UNL     1      29.055 -10.054 -37.672  0.00  0.00    +0.000 A 
BRANCH   7  14
ATOM     13  C1  UNL     1      28.680 -10.791 -40.966  0.00  0.00    +0.000 C 
ATOM     14  O1  UNL     1      28.807  -9.704 -40.054  0.00  0.00    +0.000 OA
ENDBRANCH   7  14
BRANCH  12  15
ATOM     15  O5  UNL     1      30.382 -10.447 -37.855  0.00  0.00    +0.000 OA
ATOM     16  H17 UNL     1      31.108 -10.223 -37.186  0.00  0.00    +0.000 HD
ENDBRANCH  12  15
ENDBRANCH   1  10
BRANCH   4  17
ATOM     17  O3  UNL     1      26.034  -6.735 -32.679  0.00  0.00    +0.000 OA
ATOM     18  H13 UNL     1      26.645  -6.301 -33.330  0.00  0.00    +0.000 HD
ENDBRANCH   4  17
BRANCH   5  19
ATOM     19  O4  UNL     1      28.324  -8.802 -33.197  0.00  0.00    +0.000 OA
ATOM     20  H15 UNL     1      28.970  -8.056 -33.305  0.00  0.00    +0.000 HD
ENDBRANCH   5  19
BRANCH   3  21
ATOM     21  C8  UNL     1      23.616  -8.900 -32.915  0.00  0.00    +0.000 C 
BRANCH  21  22
ATOM     22  O2  UNL     1      23.196  -7.818 -32.126  0.00  0.00    +0.000 OA
ATOM     23  H11 UNL     1      23.238  -8.119 -31.182  0.00  0.00    +0.000 HD
ENDBRANCH  21  22
ENDBRANCH   3  21
TORSDOF 7
ENDMDL
MODEL 4
REMARK VINA RESULT:    -4.857      9.418     11.024
REMARK INTER + INTRA:          -6.587
REMARK INTER:                  -6.274
REMARK INTRA:                  -0.313
REMARK UNBOUND:                -0.310
REMARK  Name = resultss/4CJN/ligands/lig_218_t0.pdb
REMARK  8 active torsions:
REMARK  status: ('A' for Active; 'I' for Inactive)
REMARK    1  A    between atoms: C1_1  and  O1_2
REMARK    2  A    between atoms: O1_2  and  C2_3
REMARK    3  A    between atoms: C5_6  and  C6_7
REMARK    4  A    between atoms: C7_9  and  C8_10
REMARK    5  A    between atoms: C8_10  and  O2_11
REMARK    6  A    between atoms: C9_12  and  O3_13
REMARK    7  A    between atoms: C10_14  and  O4_15
REMARK    8  A    between atoms: C12_17  and  O5_18
REMARK                            x       y       z     vdW  Elec       q    Type
REMARK                         _______ _______ _______ _____ _____    ______ ____
ROOT
ATOM      1  C6  UNL     1      28.095  -8.388 -34.079  0.00  0.00    +0.000 C 
ATOM      2  N1  UNL     1      27.070  -7.756 -33.230  0.00  0.00    +0.000 NA
ATOM      3  C7  UNL     1      25.868  -8.592 -33.300  0.00  0.00    +0.000 C 
ATOM      4  C9  UNL     1      26.026  -9.515 -34.510  0.00  0.00    +0.000 C 
ATOM      5  C10 UNL     1      27.526  -9.710 -34.604  0.00  0.00    +0.000 C 
ATOM      6  H7  UNL     1      27.374  -7.678 -32.231  0.00  0.00    +0.000 HD
ENDROOT
BRANCH   1  10
ATOM      7  C2  UNL     1      31.863  -8.965 -31.992  0.00  0.00    +0.000 A 
ATOM      8  C3  UNL     1      31.310  -7.676 -32.118  0.00  0.00    +0.000 A 
ATOM      9  C4  UNL     1      30.101  -7.488 -32.790  0.00  0.00    +0.000 A 
ATOM     10  C5  UNL     1      29.420  -8.580 -33.355  0.00  0.00    +0.000 A 
ATOM     11  C11 UNL     1      29.969  -9.865 -33.224  0.00  0.00    +0.000 A 
ATOM     12  C12 UNL     1      31.180 -10.060 -32.551  0.00  0.00    +0.000 A 
BRANCH   7  14
ATOM     13  C1  UNL     1      33.569  -8.392 -30.252  0.00  0.00    +0.000 C 
ATOM     14  O1  UNL     1      33.077  -9.190 -31.324  0.00  0.00    +0.000 OA
ENDBRANCH   7  14
BRANCH  12  15
ATOM     15  O5  UNL     1      31.691 -11.354 -32.448  0.00  0.00    +0.000 OA
ATOM     16  H17 UNL     1      32.613 -11.543 -32.075  0.00  0.00    +0.000 HD
ENDBRANCH  12  15
ENDBRANCH   1  10
BRANCH   4  17
ATOM     17  O3  UNL     1      25.382 -10.745 -34.307  0.00  0.00    +0.000 OA
ATOM     18  H13 UNL     1      25.785 -11.143 -33.492  0.00  0.00    +0.000 HD
ENDBRANCH   4  17
BRANCH   5  19
ATOM     19  O4  UNL     1      27.930  -9.932 -35.930  0.00  0.00    +0.000 OA
ATOM     20  H15 UNL     1      28.856 -10.287 -35.887  0.00  0.00    +0.000 HD
ENDBRANCH   5  19
BRANCH   3  21
ATOM     21  C8  UNL     1      24.615  -7.712 -33.412  0.00  0.00    +0.000 C 
BRANCH  21  22
ATOM     22  O2  UNL     1      23.626  -8.155 -32.521  0.00  0.00    +0.000 OA
ATOM     23  H11 UNL     1      23.694  -9.144 -32.487  0.00  0.00    +0.000 HD
ENDBRANCH  21  22
ENDBRANCH   3  21
TORSDOF 7
ENDMDL
MODEL 5
REMARK VINA RESULT:    -4.839      8.353      9.884
REMARK INTER + INTRA:          -6.563
REMARK INTER:                  -5.988
REMARK INTRA:                  -0.575
REMARK UNBOUND:                -0.310
REMARK  Name = resultss/4CJN/ligands/lig_218_t0.pdb
REMARK  8 active torsions:
REMARK  status: ('A' for Active; 'I' for Inactive)
REMARK    1  A    between atoms: C1_1  and  O1_2
REMARK    2  A    between atoms: O1_2  and  C2_3
REMARK    3  A    between atoms: C5_6  and  C6_7
REMARK    4  A    between atoms: C7_9  and  C8_10
REMARK    5  A    between atoms: C8_10  and  O2_11
REMARK    6  A    between atoms: C9_12  and  O3_13
REMARK    7  A    between atoms: C10_14  and  O4_15
REMARK    8  A    between atoms: C12_17  and  O5_18
REMARK                            x       y       z     vdW  Elec       q    Type
REMARK                         _______ _______ _______ _____ _____    ______ ____
ROOT
ATOM      1  C6  UNL     1      26.672  -8.974 -35.348  0.00  0.00    +0.000 C 
ATOM      2  N1  UNL     1      26.373  -7.555 -35.608  0.00  0.00    +0.000 NA
ATOM      3  C7  UNL     1      25.313  -7.153 -34.678  0.00  0.00    +0.000 C 
ATOM      4  C9  UNL     1      24.685  -8.434 -34.125  0.00  0.00    +0.000 C 
ATOM      5  C10 UNL     1      25.833  -9.422 -34.147  0.00  0.00    +0.000 C 
ATOM      6  H7  UNL     1      27.207  -6.939 -35.463  0.00  0.00    +0.000 HD
ENDROOT
BRANCH   1  10
ATOM      7  C2  UNL     1      30.913  -9.687 -34.723  0.00  0.00    +0.000 A 
ATOM      8  C3  UNL     1      30.424  -9.385 -36.009  0.00  0.00    +0.000 A 
ATOM      9  C4  UNL     1      29.062  -9.157 -36.212  0.00  0.00    +0.000 A 
ATOM     10  C5  UNL     1      28.157  -9.232 -35.139  0.00  0.00    +0.000 A 
ATOM     11  C11 UNL     1      28.645  -9.528 -33.857  0.00  0.00    +0.000 A 
ATOM     12  C12 UNL     1      30.011  -9.756 -33.647  0.00  0.00    +0.000 A 
BRANCH   7  14
ATOM     13  C1  UNL     1      33.253  -8.901 -34.307  0.00  0.00    +0.000 C 
ATOM     14  O1  UNL     1      32.276  -9.922 -34.483  0.00  0.00    +0.000 OA
ENDBRANCH   7  14
BRANCH  12  15
ATOM     15  O5  UNL     1      30.451 -10.051 -32.356  0.00  0.00    +0.000 OA
ATOM     16  H17 UNL     1      30.100 -10.843 -31.834  0.00  0.00    +0.000 HD
ENDBRANCH  12  15
ENDBRANCH   1  10
BRANCH   4  17
ATOM     17  O3  UNL     1      24.215  -8.253 -32.815  0.00  0.00    +0.000 OA
ATOM     18  H13 UNL     1      24.056  -9.160 -32.445  0.00  0.00    +0.000 HD
ENDBRANCH   4  17
BRANCH   5  19
ATOM     19  O4  UNL     1      25.373 -10.736 -34.326  0.00  0.00    +0.000 OA
ATOM     20  H15 UNL     1      25.407 -10.916 -35.301  0.00  0.00    +0.000 HD
ENDBRANCH   5  19
BRANCH   3  21
ATOM     21  C8  UNL     1      24.281  -6.273 -35.397  0.00  0.00    +0.000 C 
BRANCH  21  22
ATOM     22  O2  UNL     1      22.984  -6.597 -34.973  0.00  0.00    +0.000 OA
ATOM     23  H11 UNL     1      22.369  -6.329 -35.704  0.00  0.00    +0.000 HD
ENDBRANCH  21  22
ENDBRANCH   3  21
TORSDOF 7
ENDMDL
MODEL 6
REMARK VINA RESULT:    -4.837      6.115      8.503
REMARK INTER + INTRA:          -6.560
REMARK INTER:                  -6.007
REMARK INTRA:                  -0.554
REMARK UNBOUND:                -0.310
REMARK  Name = resultss/4CJN/ligands/lig_218_t0.pdb
REMARK  8 active torsions:
REMARK  status: ('A' for Active; 'I' for Inactive)
REMARK    1  A    between atoms: C1_1  and  O1_2
REMARK    2  A    between atoms: O1_2  and  C2_3
REMARK    3  A    between atoms: C5_6  and  C6_7
REMARK    4  A    between atoms: C7_9  and  C8_10
REMARK    5  A    between atoms: C8_10  and  O2_11
REMARK    6  A    between atoms: C9_12  and  O3_13
REMARK    7  A    between atoms: C10_14  and  O4_15
REMARK    8  A    between atoms: C12_17  and  O5_18
REMARK                            x       y       z     vdW  Elec       q    Type
REMARK                         _______ _______ _______ _____ _____    ______ ____
ROOT
ATOM      1  C6  UNL     1      25.908  -9.328 -35.984  0.00  0.00    +0.000 C 
ATOM      2  N1  UNL     1      25.357  -8.029 -36.405  0.00  0.00    +0.000 NA
ATOM      3  C7  UNL     1      24.785  -7.389 -35.216  0.00  0.00    +0.000 C 
ATOM      4  C9  UNL     1      24.627  -8.475 -34.149  0.00  0.00    +0.000 C 
ATOM      5  C10 UNL     1      25.755  -9.438 -34.464  0.00  0.00    +0.000 C 
ATOM      6  H7  UNL     1      26.088  -7.400 -36.813  0.00  0.00    +0.000 HD
ENDROOT
BRANCH   1  10
ATOM      7  C2  UNL     1      30.014  -9.929 -37.276  0.00  0.00    +0.000 A 
ATOM      8  C3  UNL     1      29.733  -9.562 -35.946  0.00  0.00    +0.000 A 
ATOM      9  C4  UNL     1      28.415  -9.367 -35.529  0.00  0.00    +0.000 A 
ATOM     10  C5  UNL     1      27.349  -9.527 -36.431  0.00  0.00    +0.000 A 
ATOM     11  C11 UNL     1      27.630  -9.896 -37.756  0.00  0.00    +0.000 A 
ATOM     12  C12 UNL     1      28.949 -10.095 -38.179  0.00  0.00    +0.000 A 
BRANCH   7  14
ATOM     13  C1  UNL     1      32.497  -9.734 -37.021  0.00  0.00    +0.000 C 
ATOM     14  O1  UNL     1      31.327 -10.133 -37.729  0.00  0.00    +0.000 OA
ENDBRANCH   7  14
BRANCH  12  15
ATOM     15  O5  UNL     1      29.181 -10.459 -39.506  0.00  0.00    +0.000 OA
ATOM     16  H17 UNL     1      29.790  -9.926 -40.113  0.00  0.00    +0.000 HD
ENDBRANCH  12  15
ENDBRANCH   1  10
BRANCH   4  17
ATOM     17  O3  UNL     1      24.775  -7.950 -32.856  0.00  0.00    +0.000 OA
ATOM     18  H13 UNL     1      24.175  -8.479 -32.268  0.00  0.00    +0.000 HD
ENDBRANCH   4  17
BRANCH   5  19
ATOM     19  O4  UNL     1      25.424 -10.750 -34.092  0.00  0.00    +0.000 OA
ATOM     20  H15 UNL     1      24.903 -10.682 -33.249  0.00  0.00    +0.000 HD
ENDBRANCH   5  19
BRANCH   3  21
ATOM     21  C8  UNL     1      23.443  -6.729 -35.562  0.00  0.00    +0.000 C 
BRANCH  21  22
ATOM     22  O2  UNL     1      22.426  -7.224 -34.732  0.00  0.00    +0.000 OA
ATOM     23  H11 UNL     1      22.632  -8.181 -34.568  0.00  0.00    +0.000 HD
ENDBRANCH  21  22
ENDBRANCH   3  21
TORSDOF 7
ENDMDL
MODEL 7
REMARK VINA RESULT:    -4.818      5.736      8.448
REMARK INTER + INTRA:          -6.536
REMARK INTER:                  -5.980
REMARK INTRA:                  -0.556
REMARK UNBOUND:                -0.310
REMARK  Name = resultss/4CJN/ligands/lig_218_t0.pdb
REMARK  8 active torsions:
REMARK  status: ('A' for Active; 'I' for Inactive)
REMARK    1  A    between atoms: C1_1  and  O1_2
REMARK    2  A    between atoms: O1_2  and  C2_3
REMARK    3  A    between atoms: C5_6  and  C6_7
REMARK    4  A    between atoms: C7_9  and  C8_10
REMARK    5  A    between atoms: C8_10  and  O2_11
REMARK    6  A    between atoms: C9_12  and  O3_13
REMARK    7  A    between atoms: C10_14  and  O4_15
REMARK    8  A    between atoms: C12_17  and  O5_18
REMARK                            x       y       z     vdW  Elec       q    Type
REMARK                         _______ _______ _______ _____ _____    ______ ____
ROOT
ATOM      1  C6  UNL     1      26.920  -9.042 -39.193  0.00  0.00    +0.000 C 
ATOM      2  N1  UNL     1      25.607  -8.377 -39.228  0.00  0.00    +0.000 NA
ATOM      3  C7  UNL     1      24.758  -9.133 -40.154  0.00  0.00    +0.000 C 
ATOM      4  C9  UNL     1      25.679 -10.022 -40.991  0.00  0.00    +0.000 C 
ATOM      5  C10 UNL     1      26.834 -10.307 -40.052  0.00  0.00    +0.000 C 
ATOM      6  H7  UNL     1      25.149  -8.351 -38.287  0.00  0.00    +0.000 HD
ENDROOT
BRANCH   1  10
ATOM      7  C2  UNL     1      28.232  -9.875 -35.134  0.00  0.00    +0.000 A 
ATOM      8  C3  UNL     1      29.164  -9.493 -36.119  0.00  0.00    +0.000 A 
ATOM      9  C4  UNL     1      28.745  -9.228 -37.424  0.00  0.00    +0.000 A 
ATOM     10  C5  UNL     1      27.389  -9.342 -37.776  0.00  0.00    +0.000 A 
ATOM     11  C11 UNL     1      26.461  -9.717 -36.793  0.00  0.00    +0.000 A 
ATOM     12  C12 UNL     1      26.875  -9.984 -35.483  0.00  0.00    +0.000 A 
BRANCH   7  14
ATOM     13  C1  UNL     1      29.361  -9.260 -32.986  0.00  0.00    +0.000 C 
ATOM     14  O1  UNL     1      28.619 -10.151 -33.813  0.00  0.00    +0.000 OA
ENDBRANCH   7  14
BRANCH  12  15
ATOM     15  O5  UNL     1      25.917 -10.358 -34.539  0.00  0.00    +0.000 OA
ATOM     16  H17 UNL     1      24.926 -10.355 -34.745  0.00  0.00    +0.000 HD
ENDBRANCH  12  15
ENDBRANCH   1  10
BRANCH   4  17
ATOM     17  O3  UNL     1      25.042 -11.215 -41.364  0.00  0.00    +0.000 OA
ATOM     18  H13 UNL     1      25.760 -11.889 -41.493  0.00  0.00    +0.000 HD
ENDBRANCH   4  17
BRANCH   5  19
ATOM     19  O4  UNL     1      28.029 -10.509 -40.760  0.00  0.00    +0.000 OA
ATOM     20  H15 UNL     1      28.520 -11.230 -40.286  0.00  0.00    +0.000 HD
ENDBRANCH   5  19
BRANCH   3  21
ATOM     21  C8  UNL     1      23.940  -8.172 -41.028  0.00  0.00    +0.000 C 
BRANCH  21  22
ATOM     22  O2  UNL     1      23.199  -8.890 -41.980  0.00  0.00    +0.000 OA
ATOM     23  H11 UNL     1      23.660  -9.759 -42.106  0.00  0.00    +0.000 HD
ENDBRANCH  21  22
ENDBRANCH   3  21
TORSDOF 7
ENDMDL
MODEL 8
REMARK VINA RESULT:    -4.762      5.333      9.543
REMARK INTER + INTRA:          -6.464
REMARK INTER:                  -6.099
REMARK INTRA:                  -0.366
REMARK UNBOUND:                -0.310
REMARK  Name = resultss/4CJN/ligands/lig_218_t0.pdb
REMARK  8 active torsions:
REMARK  status: ('A' for Active; 'I' for Inactive)
REMARK    1  A    between atoms: C1_1  and  O1_2
REMARK    2  A    between atoms: O1_2  and  C2_3
REMARK    3  A    between atoms: C5_6  and  C6_7
REMARK    4  A    between atoms: C7_9  and  C8_10
REMARK    5  A    between atoms: C8_10  and  O2_11
REMARK    6  A    between atoms: C9_12  and  O3_13
REMARK    7  A    between atoms: C10_14  and  O4_15
REMARK    8  A    between atoms: C12_17  and  O5_18
REMARK                            x       y       z     vdW  Elec       q    Type
REMARK                         _______ _______ _______ _____ _____    ______ ____
ROOT
ATOM      1  C6  UNL     1      27.434  -8.962 -38.485  0.00  0.00    +0.000 C 
ATOM      2  N1  UNL     1      26.477  -8.793 -39.591  0.00  0.00    +0.000 NA
ATOM      3  C7  UNL     1      26.515 -10.020 -40.394  0.00  0.00    +0.000 C 
ATOM      4  C9  UNL     1      27.789 -10.775 -40.008  0.00  0.00    +0.000 C 
ATOM      5  C10 UNL     1      28.000 -10.384 -38.559  0.00  0.00    +0.000 C 
ATOM      6  H7  UNL     1      25.499  -8.636 -39.252  0.00  0.00    +0.000 HD
ENDROOT
BRANCH   1  10
ATOM      7  C2  UNL     1      25.648  -8.125 -34.612  0.00  0.00    +0.000 A 
ATOM      8  C3  UNL     1      26.029  -7.069 -35.463  0.00  0.00    +0.000 A 
ATOM      9  C4  UNL     1      26.604  -7.336 -36.707  0.00  0.00    +0.000 A 
ATOM     10  C5  UNL     1      26.818  -8.660 -37.126  0.00  0.00    +0.000 A 
ATOM     11  C11 UNL     1      26.434  -9.712 -36.279  0.00  0.00    +0.000 A 
ATOM     12  C12 UNL     1      25.855  -9.450 -35.032  0.00  0.00    +0.000 A 
BRANCH   7  14
ATOM     13  C1  UNL     1      23.692  -7.588 -33.144  0.00  0.00    +0.000 C 
ATOM     14  O1  UNL     1      25.067  -7.893 -33.355  0.00  0.00    +0.000 OA
ENDBRANCH   7  14
BRANCH  12  15
ATOM     15  O5  UNL     1      25.492 -10.527 -34.221  0.00  0.00    +0.000 OA
ATOM     16  H17 UNL     1      26.105 -11.316 -34.065  0.00  0.00    +0.000 HD
ENDBRANCH  12  15
ENDBRANCH   1  10
BRANCH   4  17
ATOM     17  O3  UNL     1      27.619 -12.163 -40.123  0.00  0.00    +0.000 OA
ATOM     18  H13 UNL     1      28.522 -12.565 -40.039  0.00  0.00    +0.000 HD
ENDBRANCH   4  17
BRANCH   5  19
ATOM     19  O4  UNL     1      29.362 -10.394 -38.221  0.00  0.00    +0.000 OA
ATOM     20  H15 UNL     1      29.786  -9.658 -38.735  0.00  0.00    +0.000 HD
ENDBRANCH   5  19
BRANCH   3  21
ATOM     21  C8  UNL     1      26.484  -9.677 -41.890  0.00  0.00    +0.000 C 
BRANCH  21  22
ATOM     22  O2  UNL     1      25.231  -9.992 -42.437  0.00  0.00    +0.000 OA
ATOM     23  H11 UNL     1      24.964  -9.221 -43.003  0.00  0.00    +0.000 HD
ENDBRANCH  21  22
ENDBRANCH   3  21
TORSDOF 7
ENDMDL
MODEL 9
REMARK VINA RESULT:    -4.753      6.277     10.000
REMARK INTER + INTRA:          -6.452
REMARK INTER:                  -5.963
REMARK INTRA:                  -0.489
REMARK UNBOUND:                -0.310
REMARK  Name = resultss/4CJN/ligands/lig_218_t0.pdb
REMARK  8 active torsions:
REMARK  status: ('A' for Active; 'I' for Inactive)
REMARK    1  A    between atoms: C1_1  and  O1_2
REMARK    2  A    between atoms: O1_2  and  C2_3
REMARK    3  A    between atoms: C5_6  and  C6_7
REMARK    4  A    between atoms: C7_9  and  C8_10
REMARK    5  A    between atoms: C8_10  and  O2_11
REMARK    6  A    between atoms: C9_12  and  O3_13
REMARK    7  A    between atoms: C10_14  and  O4_15
REMARK    8  A    between atoms: C12_17  and  O5_18
REMARK                            x       y       z     vdW  Elec       q    Type
REMARK                         _______ _______ _______ _____ _____    ______ ____
ROOT
ATOM      1  C6  UNL     1      25.467  -8.022 -38.742  0.00  0.00    +0.000 C 
ATOM      2  N1  UNL     1      24.253  -8.273 -39.537  0.00  0.00    +0.000 NA
ATOM      3  C7  UNL     1      24.597  -9.267 -40.559  0.00  0.00    +0.000 C 
ATOM      4  C9  UNL     1      26.124  -9.322 -40.643  0.00  0.00    +0.000 C 
ATOM      5  C10 UNL     1      26.562  -8.973 -39.235  0.00  0.00    +0.000 C 
ATOM      6  H7  UNL     1      23.464  -8.640 -38.955  0.00  0.00    +0.000 HD
ENDROOT
BRANCH   1  10
ATOM      7  C2  UNL     1      24.764  -8.427 -34.473  0.00  0.00    +0.000 A 
ATOM      8  C3  UNL     1      24.268  -7.311 -35.173  0.00  0.00    +0.000 A 
ATOM      9  C4  UNL     1      24.494  -7.177 -36.544  0.00  0.00    +0.000 A 
ATOM     10  C5  UNL     1      25.225  -8.151 -37.245  0.00  0.00    +0.000 A 
ATOM     11  C11 UNL     1      25.716  -9.266 -36.548  0.00  0.00    +0.000 A 
ATOM     12  C12 UNL     1      25.491  -9.406 -35.173  0.00  0.00    +0.000 A 
BRANCH   7  14
ATOM     13  C1  UNL     1      23.303  -8.915 -32.500  0.00  0.00    +0.000 C 
ATOM     14  O1  UNL     1      24.556  -8.592 -33.094  0.00  0.00    +0.000 OA
ENDBRANCH   7  14
BRANCH  12  15
ATOM     15  O5  UNL     1      26.000 -10.529 -34.520  0.00  0.00    +0.000 OA
ATOM     16  H17 UNL     1      26.707 -10.460 -33.799  0.00  0.00    +0.000 HD
ENDBRANCH  12  15
ENDBRANCH   1  10
BRANCH   4  17
ATOM     17  O3  UNL     1      26.574 -10.604 -40.995  0.00  0.00    +0.000 OA
ATOM     18  H13 UNL     1      26.457 -11.174 -40.191  0.00  0.00    +0.000 HD
ENDBRANCH   4  17
BRANCH   5  19
ATOM     19  O4  UNL     1      27.812  -8.335 -39.233  0.00  0.00    +0.000 OA
ATOM     20  H15 UNL     1      27.861  -7.808 -40.073  0.00  0.00    +0.000 HD
ENDBRANCH   5  19
BRANCH   3  21
ATOM     21  C8  UNL     1      23.963  -8.887 -41.904  0.00  0.00    +0.000 C 
BRANCH  21  22
ATOM     22  O2  UNL     1      23.924 -10.001 -42.757  0.00  0.00    +0.000 OA
ATOM     23  H11 UNL     1      23.202 -10.593 -42.422  0.00  0.00    +0.000 HD
ENDBRANCH  21  22
ENDBRANCH   3  21
TORSDOF 7
ENDMDL
