MODEL 1
REMARK VINA RESULT:    -6.165      0.000      0.000
REMARK INTER + INTRA:          -9.648
REMARK INTER:                  -8.868
REMARK INTRA:                  -0.780
REMARK UNBOUND:                -0.780
REMARK  Name = resultss/4CJN/ligands/lig_296_t0.pdb
REMARK  12 active torsions:
REMARK  status: ('A' for Active; 'I' for Inactive)
REMARK    1  A    between atoms: C1_1  and  O1_2
REMARK    2  A    between atoms: O1_2  and  C2_3
REMARK    3  A    between atoms: C4_5  and  O2_6
REMARK    4  A    between atoms: O2_6  and  C5_7
REMARK    5  A    between atoms: C6_9  and  C7_10
REMARK    6  A    between atoms: C7_10  and  O4_11
REMARK    7  A    between atoms: C8_12  and  O5_13
REMARK    8  A    between atoms: C9_14  and  O6_15
REMARK    9  A    between atoms: C10_16  and  O7_17
REMARK   10  A    between atoms: C16_24  and  O9_25
REMARK   11  A    between atoms: C17_26  and  O10_27
REMARK   12  A    between atoms: O10_27  and  C18_28
REMARK                            x       y       z     vdW  Elec       q    Type
REMARK                         _______ _______ _______ _____ _____    ______ ____
ROOT
ATOM      1  C2  UNL     1      29.499  -9.653 -39.510  0.00  0.00    +0.000 A 
ATOM      2  C3  UNL     1      28.552  -8.800 -40.081  0.00  0.00    +0.000 A 
ATOM      3  C4  UNL     1      27.660  -8.057 -39.279  0.00  0.00    +0.000 A 
ATOM      4  C11 UNL     1      27.734  -8.180 -37.869  0.00  0.00    +0.000 A 
ATOM      5  C12 UNL     1      26.880  -7.475 -36.991  0.00  0.00    +0.000 A 
ATOM      6  O8  UNL     1      25.998  -6.689 -37.437  0.00  0.00    +0.000 OA
ATOM      7  C13 UNL     1      27.016  -7.652 -35.602  0.00  0.00    +0.000 A 
ATOM      8  C14 UNL     1      26.194  -6.978 -34.683  0.00  0.00    +0.000 A 
ATOM      9  C15 UNL     1      26.359  -7.181 -33.314  0.00  0.00    +0.000 A 
ATOM     10  C16 UNL     1      27.343  -8.055 -32.832  0.00  0.00    +0.000 A 
ATOM     11  C17 UNL     1      28.181  -8.743 -33.744  0.00  0.00    +0.000 A 
ATOM     12  C19 UNL     1      28.008  -8.535 -35.124  0.00  0.00    +0.000 A 
ATOM     13  O11 UNL     1      28.792  -9.181 -35.980  0.00  0.00    +0.000 OA
ATOM     14  C20 UNL     1      28.698  -9.045 -37.298  0.00  0.00    +0.000 A 
ATOM     15  C21 UNL     1      29.568  -9.770 -38.114  0.00  0.00    +0.000 A 
ENDROOT
BRANCH   1  17
ATOM     16  C1  UNL     1      30.013 -10.771 -41.689  0.00  0.00    +0.000 C 
ATOM     17  O1  UNL     1      30.353 -10.366 -40.367  0.00  0.00    +0.000 OA
ENDBRANCH   1  17
BRANCH  10  18
ATOM     18  O9  UNL     1      27.473  -8.229 -31.456  0.00  0.00    +0.000 OA
ATOM     19  H18 UNL     1      28.156  -8.863 -31.059  0.00  0.00    +0.000 HD
ENDBRANCH  10  18
BRANCH  11  20
ATOM     20  O10 UNL     1      29.195  -9.638 -33.352  0.00  0.00    +0.000 OA
ATOM     21  C18 UNL     1      30.483  -9.287 -32.859  0.00  0.00    +0.000 C 
ENDBRANCH  11  20
BRANCH   3  22
ATOM     22  O2  UNL     1      26.704  -7.200 -39.854  0.00  0.00    +0.000 OA
BRANCH  22  23
ATOM     23  C5  UNL     1      25.567  -7.611 -40.615  0.00  0.00    +0.000 C 
ATOM     24  O3  UNL     1      25.850  -7.408 -41.993  0.00  0.00    +0.000 OA
ATOM     25  C6  UNL     1      24.819  -7.951 -42.798  0.00  0.00    +0.000 C 
ATOM     26  C8  UNL     1      24.868  -9.506 -42.761  0.00  0.00    +0.000 C 
ATOM     27  C9  UNL     1      25.596  -9.997 -41.486  0.00  0.00    +0.000 C 
ATOM     28  C10 UNL     1      25.257  -9.098 -40.283  0.00  0.00    +0.000 C 
BRANCH  26  29
ATOM     29  O5  UNL     1      23.561 -10.022 -42.785  0.00  0.00    +0.000 OA
ATOM     30  H11 UNL     1      23.636 -11.007 -42.690  0.00  0.00    +0.000 HD
ENDBRANCH  26  29
BRANCH  27  31
ATOM     31  O6  UNL     1      25.269 -11.333 -41.201  0.00  0.00    +0.000 OA
ATOM     32  H13 UNL     1      25.479 -11.858 -42.017  0.00  0.00    +0.000 HD
ENDBRANCH  27  31
BRANCH  28  33
ATOM     33  O7  UNL     1      23.896  -9.226 -39.949  0.00  0.00    +0.000 OA
ATOM     34  H15 UNL     1      23.724  -8.618 -39.184  0.00  0.00    +0.000 HD
ENDBRANCH  28  33
BRANCH  25  35
ATOM     35  C7  UNL     1      24.987  -7.413 -44.227  0.00  0.00    +0.000 C 
BRANCH  35  36
ATOM     36  O4  UNL     1      24.207  -8.140 -45.136  0.00  0.00    +0.000 OA
ATOM     37  H9  UNL     1      24.253  -9.091 -44.855  0.00  0.00    +0.000 HD
ENDBRANCH  35  36
ENDBRANCH  25  35
ENDBRANCH  22  23
ENDBRANCH   3  22
TORSDOF 10
ENDMDL
MODEL 2
REMARK VINA RESULT:    -6.101      2.613      9.583
REMARK INTER + INTRA:          -9.555
REMARK INTER:                  -8.663
REMARK INTRA:                  -0.893
REMARK UNBOUND:                -0.780
REMARK  Name = resultss/4CJN/ligands/lig_296_t0.pdb
REMARK  12 active torsions:
REMARK  status: ('A' for Active; 'I' for Inactive)
REMARK    1  A    between atoms: C1_1  and  O1_2
REMARK    2  A    between atoms: O1_2  and  C2_3
REMARK    3  A    between atoms: C4_5  and  O2_6
REMARK    4  A    between atoms: O2_6  and  C5_7
REMARK    5  A    between atoms: C6_9  and  C7_10
REMARK    6  A    between atoms: C7_10  and  O4_11
REMARK    7  A    between atoms: C8_12  and  O5_13
REMARK    8  A    between atoms: C9_14  and  O6_15
REMARK    9  A    between atoms: C10_16  and  O7_17
REMARK   10  A    between atoms: C16_24  and  O9_25
REMARK   11  A    between atoms: C17_26  and  O10_27
REMARK   12  A    between atoms: O10_27  and  C18_28
REMARK                            x       y       z     vdW  Elec       q    Type
REMARK                         _______ _______ _______ _____ _____    ______ ____
ROOT
ATOM      1  C2  UNL     1      26.723  -9.340 -34.480  0.00  0.00    +0.000 A 
ATOM      2  C3  UNL     1      28.032  -9.511 -34.023  0.00  0.00    +0.000 A 
ATOM      3  C4  UNL     1      29.105  -9.669 -34.924  0.00  0.00    +0.000 A 
ATOM      4  C11 UNL     1      28.846  -9.650 -36.317  0.00  0.00    +0.000 A 
ATOM      5  C12 UNL     1      29.860  -9.801 -37.290  0.00  0.00    +0.000 A 
ATOM      6  O8  UNL     1      31.065  -9.964 -36.948  0.00  0.00    +0.000 OA
ATOM      7  C13 UNL     1      29.521  -9.772 -38.655  0.00  0.00    +0.000 A 
ATOM      8  C14 UNL     1      30.487  -9.919 -39.663  0.00  0.00    +0.000 A 
ATOM      9  C15 UNL     1      30.111  -9.884 -41.006  0.00  0.00    +0.000 A 
ATOM     10  C16 UNL     1      28.771  -9.703 -41.370  0.00  0.00    +0.000 A 
ATOM     11  C17 UNL     1      27.783  -9.552 -40.366  0.00  0.00    +0.000 A 
ATOM     12  C19 UNL     1      28.168  -9.589 -39.014  0.00  0.00    +0.000 A 
ATOM     13  O11 UNL     1      27.242  -9.450 -38.072  0.00  0.00    +0.000 OA
ATOM     14  C20 UNL     1      27.517  -9.473 -36.773  0.00  0.00    +0.000 A 
ATOM     15  C21 UNL     1      26.472  -9.321 -35.860  0.00  0.00    +0.000 A 
ENDROOT
BRANCH   1  17
ATOM     16  C1  UNL     1      24.739  -8.142 -33.536  0.00  0.00    +0.000 C 
ATOM     17  O1  UNL     1      25.701  -9.192 -33.529  0.00  0.00    +0.000 OA
ENDBRANCH   1  17
BRANCH  10  18
ATOM     18  O9  UNL     1      28.439  -9.674 -42.723  0.00  0.00    +0.000 OA
ATOM     19  H18 UNL     1      27.985 -10.456 -43.179  0.00  0.00    +0.000 HD
ENDBRANCH  10  18
BRANCH  11  20
ATOM     20  O10 UNL     1      26.414  -9.364 -40.638  0.00  0.00    +0.000 OA
ATOM     21  C18 UNL     1      25.506 -10.352 -41.112  0.00  0.00    +0.000 C 
ENDBRANCH  11  20
BRANCH   3  22
ATOM     22  O2  UNL     1      30.423  -9.844 -34.464  0.00  0.00    +0.000 OA
BRANCH  22  23
ATOM     23  C5  UNL     1      30.836  -9.841 -33.097  0.00  0.00    +0.000 C 
ATOM     24  O3  UNL     1      31.363 -11.123 -32.781  0.00  0.00    +0.000 OA
ATOM     25  C6  UNL     1      31.935 -11.122 -31.486  0.00  0.00    +0.000 C 
ATOM     26  C8  UNL     1      33.259 -10.303 -31.484  0.00  0.00    +0.000 C 
ATOM     27  C9  UNL     1      33.279  -9.298 -32.660  0.00  0.00    +0.000 C 
ATOM     28  C10 UNL     1      31.878  -8.704 -32.895  0.00  0.00    +0.000 C 
BRANCH  26  29
ATOM     29  O5  UNL     1      33.385  -9.609 -30.268  0.00  0.00    +0.000 OA
ATOM     30  H11 UNL     1      34.239  -9.106 -30.308  0.00  0.00    +0.000 HD
ENDBRANCH  26  29
BRANCH  27  31
ATOM     31  O6  UNL     1      34.209  -8.270 -32.429  0.00  0.00    +0.000 OA
ATOM     32  H13 UNL     1      34.649  -8.473 -31.563  0.00  0.00    +0.000 HD
ENDBRANCH  27  31
BRANCH  28  33
ATOM     33  O7  UNL     1      31.496  -7.912 -31.797  0.00  0.00    +0.000 OA
ATOM     34  H15 UNL     1      32.259  -7.905 -31.162  0.00  0.00    +0.000 HD
ENDBRANCH  28  33
BRANCH  25  35
ATOM     35  C7  UNL     1      32.169 -12.579 -31.060  0.00  0.00    +0.000 C 
BRANCH  35  36
ATOM     36  O4  UNL     1      32.924 -12.646 -29.881  0.00  0.00    +0.000 OA
ATOM     37  H9  UNL     1      32.296 -12.480 -29.130  0.00  0.00    +0.000 HD
ENDBRANCH  35  36
ENDBRANCH  25  35
ENDBRANCH  22  23
ENDBRANCH   3  22
TORSDOF 10
ENDMDL
MODEL 3
REMARK VINA RESULT:    -6.078      2.188      3.130
REMARK INTER + INTRA:          -9.523
REMARK INTER:                  -8.682
REMARK INTRA:                  -0.841
REMARK UNBOUND:                -0.780
REMARK  Name = resultss/4CJN/ligands/lig_296_t0.pdb
REMARK  12 active torsions:
REMARK  status: ('A' for Active; 'I' for Inactive)
REMARK    1  A    between atoms: C1_1  and  O1_2
REMARK    2  A    between atoms: O1_2  and  C2_3
REMARK    3  A    between atoms: C4_5  and  O2_6
REMARK    4  A    between atoms: O2_6  and  C5_7
REMARK    5  A    between atoms: C6_9  and  C7_10
REMARK    6  A    between atoms: C7_10  and  O4_11
REMARK    7  A    between atoms: C8_12  and  O5_13
REMARK    8  A    between atoms: C9_14  and  O6_15
REMARK    9  A    between atoms: C10_16  and  O7_17
REMARK   10  A    between atoms: C16_24  and  O9_25
REMARK   11  A    between atoms: C17_26  and  O10_27
REMARK   12  A    between atoms: O10_27  and  C18_28
REMARK                            x       y       z     vdW  Elec       q    Type
REMARK                         _______ _______ _______ _____ _____    ______ ____
ROOT
ATOM      1  C2  UNL     1      27.902 -10.211 -40.690  0.00  0.00    +0.000 A 
ATOM      2  C3  UNL     1      27.033  -9.334 -41.343  0.00  0.00    +0.000 A 
ATOM      3  C4  UNL     1      26.070  -8.592 -40.628  0.00  0.00    +0.000 A 
ATOM      4  C11 UNL     1      25.989  -8.741 -39.220  0.00  0.00    +0.000 A 
ATOM      5  C12 UNL     1      25.055  -8.039 -38.425  0.00  0.00    +0.000 A 
ATOM      6  O8  UNL     1      24.237  -7.232 -38.949  0.00  0.00    +0.000 OA
ATOM      7  C13 UNL     1      25.038  -8.243 -37.033  0.00  0.00    +0.000 A 
ATOM      8  C14 UNL     1      24.131  -7.574 -36.196  0.00  0.00    +0.000 A 
ATOM      9  C15 UNL     1      24.145  -7.804 -34.821  0.00  0.00    +0.000 A 
ATOM     10  C16 UNL     1      25.059  -8.701 -34.253  0.00  0.00    +0.000 A 
ATOM     11  C17 UNL     1      25.981  -9.385 -35.083  0.00  0.00    +0.000 A 
ATOM     12  C19 UNL     1      25.961  -9.149 -36.469  0.00  0.00    +0.000 A 
ATOM     13  O11 UNL     1      26.824  -9.792 -37.248  0.00  0.00    +0.000 OA
ATOM     14  C20 UNL     1      26.875  -9.631 -38.565  0.00  0.00    +0.000 A 
ATOM     15  C21 UNL     1      27.818 -10.354 -39.297  0.00  0.00    +0.000 A 
ENDROOT
BRANCH   1  17
ATOM     16  C1  UNL     1      29.679 -10.333 -42.448  0.00  0.00    +0.000 C 
ATOM     17  O1  UNL     1      28.834 -10.921 -41.464  0.00  0.00    +0.000 OA
ENDBRANCH   1  17
BRANCH  10  18
ATOM     18  O9  UNL     1      25.038  -8.901 -32.875  0.00  0.00    +0.000 OA
ATOM     19  H18 UNL     1      25.883  -8.869 -32.317  0.00  0.00    +0.000 HD
ENDBRANCH  10  18
BRANCH  11  20
ATOM     20  O10 UNL     1      26.935 -10.302 -34.602  0.00  0.00    +0.000 OA
ATOM     21  C18 UNL     1      28.259  -9.995 -34.178  0.00  0.00    +0.000 C 
ENDBRANCH  11  20
BRANCH   3  22
ATOM     22  O2  UNL     1      25.193  -7.711 -41.285  0.00  0.00    +0.000 OA
BRANCH  22  23
ATOM     23  C5  UNL     1      24.246  -8.073 -42.290  0.00  0.00    +0.000 C 
ATOM     24  O3  UNL     1      23.052  -7.331 -42.074  0.00  0.00    +0.000 OA
ATOM     25  C6  UNL     1      22.140  -7.532 -43.139  0.00  0.00    +0.000 C 
ATOM     26  C8  UNL     1      22.648  -6.817 -44.425  0.00  0.00    +0.000 C 
ATOM     27  C9  UNL     1      24.178  -6.599 -44.358  0.00  0.00    +0.000 C 
ATOM     28  C10 UNL     1      24.872  -7.797 -43.687  0.00  0.00    +0.000 C 
BRANCH  26  29
ATOM     29  O5  UNL     1      22.330  -7.591 -45.555  0.00  0.00    +0.000 OA
ATOM     30  H11 UNL     1      22.517  -8.537 -45.319  0.00  0.00    +0.000 HD
ENDBRANCH  26  29
BRANCH  27  31
ATOM     31  O6  UNL     1      24.713  -6.383 -45.639  0.00  0.00    +0.000 OA
ATOM     32  H13 UNL     1      24.561  -7.218 -46.156  0.00  0.00    +0.000 HD
ENDBRANCH  27  31
BRANCH  28  33
ATOM     33  O7  UNL     1      24.743  -8.946 -44.490  0.00  0.00    +0.000 OA
ATOM     34  H15 UNL     1      23.771  -9.122 -44.592  0.00  0.00    +0.000 HD
ENDBRANCH  28  33
BRANCH  25  35
ATOM     35  C7  UNL     1      20.765  -7.007 -42.703  0.00  0.00    +0.000 C 
BRANCH  35  36
ATOM     36  O4  UNL     1      19.767  -7.384 -43.613  0.00  0.00    +0.000 OA
ATOM     37  H9  UNL     1      19.193  -8.047 -43.147  0.00  0.00    +0.000 HD
ENDBRANCH  35  36
ENDBRANCH  25  35
ENDBRANCH  22  23
ENDBRANCH   3  22
TORSDOF 10
ENDMDL
MODEL 4
REMARK VINA RESULT:    -6.005      2.689      7.075
REMARK INTER + INTRA:          -9.418
REMARK INTER:                  -8.700
REMARK INTRA:                  -0.718
REMARK UNBOUND:                -0.780
REMARK  Name = resultss/4CJN/ligands/lig_296_t0.pdb
REMARK  12 active torsions:
REMARK  status: ('A' for Active; 'I' for Inactive)
REMARK    1  A    between atoms: C1_1  and  O1_2
REMARK    2  A    between atoms: O1_2  and  C2_3
REMARK    3  A    between atoms: C4_5  and  O2_6
REMARK    4  A    between atoms: O2_6  and  C5_7
REMARK    5  A    between atoms: C6_9  and  C7_10
REMARK    6  A    between atoms: C7_10  and  O4_11
REMARK    7  A    between atoms: C8_12  and  O5_13
REMARK    8  A    between atoms: C9_14  and  O6_15
REMARK    9  A    between atoms: C10_16  and  O7_17
REMARK   10  A    between atoms: C16_24  and  O9_25
REMARK   11  A    between atoms: C17_26  and  O10_27
REMARK   12  A    between atoms: O10_27  and  C18_28
REMARK                            x       y       z     vdW  Elec       q    Type
REMARK                         _______ _______ _______ _____ _____    ______ ____
ROOT
ATOM      1  C2  UNL     1      29.683  -9.732 -34.657  0.00  0.00    +0.000 A 
ATOM      2  C3  UNL     1      28.301  -9.593 -34.505  0.00  0.00    +0.000 A 
ATOM      3  C4  UNL     1      27.445  -9.539 -35.625  0.00  0.00    +0.000 A 
ATOM      4  C11 UNL     1      28.002  -9.632 -36.925  0.00  0.00    +0.000 A 
ATOM      5  C12 UNL     1      27.220  -9.586 -38.101  0.00  0.00    +0.000 A 
ATOM      6  O8  UNL     1      25.966  -9.457 -38.039  0.00  0.00    +0.000 OA
ATOM      7  C13 UNL     1      27.849  -9.683 -39.356  0.00  0.00    +0.000 A 
ATOM      8  C14 UNL     1      27.122  -9.642 -40.557  0.00  0.00    +0.000 A 
ATOM      9  C15 UNL     1      27.782  -9.742 -41.781  0.00  0.00    +0.000 A 
ATOM     10  C16 UNL     1      29.175  -9.885 -41.834  0.00  0.00    +0.000 A 
ATOM     11  C17 UNL     1      29.924  -9.929 -40.633  0.00  0.00    +0.000 A 
ATOM     12  C19 UNL     1      29.253  -9.827 -39.402  0.00  0.00    +0.000 A 
ATOM     13  O11 UNL     1      29.955  -9.866 -38.275  0.00  0.00    +0.000 OA
ATOM     14  C20 UNL     1      29.403  -9.776 -37.070  0.00  0.00    +0.000 A 
ATOM     15  C21 UNL     1      30.228  -9.825 -35.946  0.00  0.00    +0.000 A 
ENDROOT
BRANCH   1  17
ATOM     16  C1  UNL     1      30.709  -8.665 -32.639  0.00  0.00    +0.000 C 
ATOM     17  O1  UNL     1      30.477  -9.776 -33.500  0.00  0.00    +0.000 OA
ENDBRANCH   1  17
BRANCH  10  18
ATOM     18  O9  UNL     1      29.794  -9.982 -43.078  0.00  0.00    +0.000 OA
ATOM     19  H18 UNL     1      30.799  -9.909 -43.183  0.00  0.00    +0.000 HD
ENDBRANCH  10  18
BRANCH  11  20
ATOM     20  O10 UNL     1      31.325 -10.072 -40.590  0.00  0.00    +0.000 OA
ATOM     21  C18 UNL     1      32.279  -9.017 -40.603  0.00  0.00    +0.000 C 
ENDBRANCH  11  20
BRANCH   3  22
ATOM     22  O2  UNL     1      26.055  -9.395 -35.473  0.00  0.00    +0.000 OA
BRANCH  22  23
ATOM     23  C5  UNL     1      25.393  -8.285 -34.864  0.00  0.00    +0.000 C 
ATOM     24  O3  UNL     1      24.192  -8.028 -35.580  0.00  0.00    +0.000 OA
ATOM     25  C6  UNL     1      23.419  -7.043 -34.918  0.00  0.00    +0.000 C 
ATOM     26  C8  UNL     1      22.808  -7.626 -33.611  0.00  0.00    +0.000 C 
ATOM     27  C9  UNL     1      23.629  -8.843 -33.123  0.00  0.00    +0.000 C 
ATOM     28  C10 UNL     1      25.133  -8.621 -33.368  0.00  0.00    +0.000 C 
BRANCH  26  29
ATOM     29  O5  UNL     1      22.791  -6.637 -32.613  0.00  0.00    +0.000 OA
ATOM     30  H11 UNL     1      21.920  -6.166 -32.686  0.00  0.00    +0.000 HD
ENDBRANCH  26  29
BRANCH  27  31
ATOM     31  O6  UNL     1      23.392  -9.098 -31.761  0.00  0.00    +0.000 OA
ATOM     32  H13 UNL     1      22.520  -9.570 -31.707  0.00  0.00    +0.000 HD
ENDBRANCH  27  31
BRANCH  28  33
ATOM     33  O7  UNL     1      25.605  -7.567 -32.565  0.00  0.00    +0.000 OA
ATOM     34  H15 UNL     1      26.136  -7.974 -31.831  0.00  0.00    +0.000 HD
ENDBRANCH  28  33
BRANCH  25  35
ATOM     35  C7  UNL     1      22.329  -6.554 -35.884  0.00  0.00    +0.000 C 
BRANCH  35  36
ATOM     36  O4  UNL     1      22.756  -6.645 -37.216  0.00  0.00    +0.000 OA
ATOM     37  H9  UNL     1      22.004  -7.039 -37.730  0.00  0.00    +0.000 HD
ENDBRANCH  35  36
ENDBRANCH  25  35
ENDBRANCH  22  23
ENDBRANCH   3  22
TORSDOF 10
ENDMDL
MODEL 5
REMARK VINA RESULT:    -5.974      2.051      2.690
REMARK INTER + INTRA:          -9.372
REMARK INTER:                  -8.746
REMARK INTRA:                  -0.627
REMARK UNBOUND:                -0.780
REMARK  Name = resultss/4CJN/ligands/lig_296_t0.pdb
REMARK  12 active torsions:
REMARK  status: ('A' for Active; 'I' for Inactive)
REMARK    1  A    between atoms: C1_1  and  O1_2
REMARK    2  A    between atoms: O1_2  and  C2_3
REMARK    3  A    between atoms: C4_5  and  O2_6
REMARK    4  A    between atoms: O2_6  and  C5_7
REMARK    5  A    between atoms: C6_9  and  C7_10
REMARK    6  A    between atoms: C7_10  and  O4_11
REMARK    7  A    between atoms: C8_12  and  O5_13
REMARK    8  A    between atoms: C9_14  and  O6_15
REMARK    9  A    between atoms: C10_16  and  O7_17
REMARK   10  A    between atoms: C16_24  and  O9_25
REMARK   11  A    between atoms: C17_26  and  O10_27
REMARK   12  A    between atoms: O10_27  and  C18_28
REMARK                            x       y       z     vdW  Elec       q    Type
REMARK                         _______ _______ _______ _____ _____    ______ ____
ROOT
ATOM      1  C2  UNL     1      30.804  -9.980 -40.671  0.00  0.00    +0.000 A 
ATOM      2  C3  UNL     1      29.416 -10.093 -40.776  0.00  0.00    +0.000 A 
ATOM      3  C4  UNL     1      28.594 -10.089 -39.631  0.00  0.00    +0.000 A 
ATOM      4  C11 UNL     1      29.192  -9.962 -38.352  0.00  0.00    +0.000 A 
ATOM      5  C12 UNL     1      28.446  -9.949 -37.152  0.00  0.00    +0.000 A 
ATOM      6  O8  UNL     1      27.187 -10.052 -37.172  0.00  0.00    +0.000 OA
ATOM      7  C13 UNL     1      29.114  -9.821 -35.921  0.00  0.00    +0.000 A 
ATOM      8  C14 UNL     1      28.423  -9.803 -34.698  0.00  0.00    +0.000 A 
ATOM      9  C15 UNL     1      29.122  -9.675 -33.499  0.00  0.00    +0.000 A 
ATOM     10  C16 UNL     1      30.519  -9.561 -33.492  0.00  0.00    +0.000 A 
ATOM     11  C17 UNL     1      31.232  -9.576 -34.716  0.00  0.00    +0.000 A 
ATOM     12  C19 UNL     1      30.521  -9.707 -35.922  0.00  0.00    +0.000 A 
ATOM     13  O11 UNL     1      31.190  -9.724 -37.070  0.00  0.00    +0.000 OA
ATOM     14  C20 UNL     1      30.599  -9.844 -38.253  0.00  0.00    +0.000 A 
ATOM     15  C21 UNL     1      31.391  -9.854 -39.403  0.00  0.00    +0.000 A 
ENDROOT
BRANCH   1  17
ATOM     16  C1  UNL     1      31.286 -10.823 -42.977  0.00  0.00    +0.000 C 
ATOM     17  O1  UNL     1      31.563  -9.995 -41.852  0.00  0.00    +0.000 OA
ENDBRANCH   1  17
BRANCH  10  18
ATOM     18  O9  UNL     1      31.178  -9.434 -32.271  0.00  0.00    +0.000 OA
ATOM     19  H18 UNL     1      31.231  -8.550 -31.781  0.00  0.00    +0.000 HD
ENDBRANCH  10  18
BRANCH  11  20
ATOM     20  O10 UNL     1      32.633  -9.466 -34.806  0.00  0.00    +0.000 OA
ATOM     21  C18 UNL     1      33.388  -8.260 -34.760  0.00  0.00    +0.000 C 
ENDBRANCH  11  20
BRANCH   3  22
ATOM     22  O2  UNL     1      27.196 -10.207 -39.736  0.00  0.00    +0.000 OA
BRANCH  22  23
ATOM     23  C5  UNL     1      26.299  -9.168 -40.131  0.00  0.00    +0.000 C 
ATOM     24  O3  UNL     1      26.982  -8.298 -41.025  0.00  0.00    +0.000 OA
ATOM     25  C6  UNL     1      26.089  -7.345 -41.572  0.00  0.00    +0.000 C 
ATOM     26  C8  UNL     1      25.123  -8.030 -42.582  0.00  0.00    +0.000 C 
ATOM     27  C9  UNL     1      25.017  -9.546 -42.291  0.00  0.00    +0.000 C 
ATOM     28  C10 UNL     1      25.041  -9.815 -40.775  0.00  0.00    +0.000 C 
BRANCH  26  29
ATOM     29  O5  UNL     1      23.849  -7.443 -42.491  0.00  0.00    +0.000 OA
ATOM     30  H11 UNL     1      23.197  -8.182 -42.371  0.00  0.00    +0.000 HD
ENDBRANCH  26  29
BRANCH  27  31
ATOM     31  O6  UNL     1      23.854 -10.090 -42.862  0.00  0.00    +0.000 OA
ATOM     32  H13 UNL     1      23.424  -9.361 -43.381  0.00  0.00    +0.000 HD
ENDBRANCH  27  31
BRANCH  28  33
ATOM     33  O7  UNL     1      23.885  -9.287 -40.171  0.00  0.00    +0.000 OA
ATOM     34  H15 UNL     1      23.129  -9.448 -40.794  0.00  0.00    +0.000 HD
ENDBRANCH  28  33
BRANCH  25  35
ATOM     35  C7  UNL     1      26.915  -6.237 -42.242  0.00  0.00    +0.000 C 
BRANCH  35  36
ATOM     36  O4  UNL     1      26.408  -5.924 -43.510  0.00  0.00    +0.000 OA
ATOM     37  H9  UNL     1      25.510  -5.526 -43.368  0.00  0.00    +0.000 HD
ENDBRANCH  35  36
ENDBRANCH  25  35
ENDBRANCH  22  23
ENDBRANCH   3  22
TORSDOF 10
ENDMDL
MODEL 6
REMARK VINA RESULT:    -5.875      1.897      7.883
REMARK INTER + INTRA:          -9.231
REMARK INTER:                  -8.880
REMARK INTRA:                  -0.351
REMARK UNBOUND:                -0.780
REMARK  Name = resultss/4CJN/ligands/lig_296_t0.pdb
REMARK  12 active torsions:
REMARK  status: ('A' for Active; 'I' for Inactive)
REMARK    1  A    between atoms: C1_1  and  O1_2
REMARK    2  A    between atoms: O1_2  and  C2_3
REMARK    3  A    between atoms: C4_5  and  O2_6
REMARK    4  A    between atoms: O2_6  and  C5_7
REMARK    5  A    between atoms: C6_9  and  C7_10
REMARK    6  A    between atoms: C7_10  and  O4_11
REMARK    7  A    between atoms: C8_12  and  O5_13
REMARK    8  A    between atoms: C9_14  and  O6_15
REMARK    9  A    between atoms: C10_16  and  O7_17
REMARK   10  A    between atoms: C16_24  and  O9_25
REMARK   11  A    between atoms: C17_26  and  O10_27
REMARK   12  A    between atoms: O10_27  and  C18_28
REMARK                            x       y       z     vdW  Elec       q    Type
REMARK                         _______ _______ _______ _____ _____    ______ ____
ROOT
ATOM      1  C2  UNL     1      29.210 -10.199 -41.704  0.00  0.00    +0.000 A 
ATOM      2  C3  UNL     1      28.711 -10.366 -40.410  0.00  0.00    +0.000 A 
ATOM      3  C4  UNL     1      27.397  -9.979 -40.078  0.00  0.00    +0.000 A 
ATOM      4  C11 UNL     1      26.569  -9.415 -41.081  0.00  0.00    +0.000 A 
ATOM      5  C12 UNL     1      25.241  -8.998 -40.837  0.00  0.00    +0.000 A 
ATOM      6  O8  UNL     1      24.726  -9.116 -39.690  0.00  0.00    +0.000 OA
ATOM      7  C13 UNL     1      24.483  -8.446 -41.886  0.00  0.00    +0.000 A 
ATOM      8  C14 UNL     1      23.160  -8.015 -41.700  0.00  0.00    +0.000 A 
ATOM      9  C15 UNL     1      22.442  -7.472 -42.765  0.00  0.00    +0.000 A 
ATOM     10  C16 UNL     1      23.025  -7.349 -44.033  0.00  0.00    +0.000 A 
ATOM     11  C17 UNL     1      24.359  -7.779 -44.239  0.00  0.00    +0.000 A 
ATOM     12  C19 UNL     1      25.078  -8.324 -43.161  0.00  0.00    +0.000 A 
ATOM     13  O11 UNL     1      26.329  -8.726 -43.352  0.00  0.00    +0.000 OA
ATOM     14  C20 UNL     1      27.080  -9.252 -42.391  0.00  0.00    +0.000 A 
ATOM     15  C21 UNL     1      28.386  -9.641 -42.693  0.00  0.00    +0.000 A 
ENDROOT
BRANCH   1  17
ATOM     16  C1  UNL     1      30.915 -11.446 -43.046  0.00  0.00    +0.000 C 
ATOM     17  O1  UNL     1      30.529 -10.603 -41.965  0.00  0.00    +0.000 OA
ENDBRANCH   1  17
BRANCH  10  18
ATOM     18  O9  UNL     1      22.273  -6.801 -45.070  0.00  0.00    +0.000 OA
ATOM     19  H18 UNL     1      21.262  -6.857 -45.084  0.00  0.00    +0.000 HD
ENDBRANCH  10  18
BRANCH  11  20
ATOM     20  O10 UNL     1      25.026  -7.696 -45.477  0.00  0.00    +0.000 OA
ATOM     21  C18 UNL     1      25.713  -6.559 -45.988  0.00  0.00    +0.000 C 
ENDBRANCH  11  20
BRANCH   3  22
ATOM     22  O2  UNL     1      26.895 -10.143 -38.775  0.00  0.00    +0.000 OA
BRANCH  22  23
ATOM     23  C5  UNL     1      27.131  -9.264 -37.674  0.00  0.00    +0.000 C 
ATOM     24  O3  UNL     1      26.459  -9.781 -36.532  0.00  0.00    +0.000 OA
ATOM     25  C6  UNL     1      26.795  -9.035 -35.376  0.00  0.00    +0.000 C 
ATOM     26  C8  UNL     1      28.264  -9.329 -34.953  0.00  0.00    +0.000 C 
ATOM     27  C9  UNL     1      29.081  -9.857 -36.156  0.00  0.00    +0.000 C 
ATOM     28  C10 UNL     1      28.666  -9.141 -37.455  0.00  0.00    +0.000 C 
BRANCH  26  29
ATOM     29  O5  UNL     1      28.858  -8.155 -34.458  0.00  0.00    +0.000 OA
ATOM     30  H11 UNL     1      28.740  -8.165 -33.472  0.00  0.00    +0.000 HD
ENDBRANCH  26  29
BRANCH  27  31
ATOM     31  O6  UNL     1      30.460  -9.701 -35.937  0.00  0.00    +0.000 OA
ATOM     32  H13 UNL     1      30.567  -9.398 -34.997  0.00  0.00    +0.000 HD
ENDBRANCH  27  31
BRANCH  28  33
ATOM     33  O7  UNL     1      29.020  -7.781 -37.394  0.00  0.00    +0.000 OA
ATOM     34  H15 UNL     1      28.826  -7.470 -36.471  0.00  0.00    +0.000 HD
ENDBRANCH  28  33
BRANCH  25  35
ATOM     35  C7  UNL     1      25.801  -9.396 -34.262  0.00  0.00    +0.000 C 
BRANCH  35  36
ATOM     36  O4  UNL     1      25.404 -10.737 -34.354  0.00  0.00    +0.000 OA
ATOM     37  H9  UNL     1      25.490 -10.995 -35.309  0.00  0.00    +0.000 HD
ENDBRANCH  35  36
ENDBRANCH  25  35
ENDBRANCH  22  23
ENDBRANCH   3  22
TORSDOF 10
ENDMDL
MODEL 7
REMARK VINA RESULT:    -5.819      2.213      5.616
REMARK INTER + INTRA:          -9.150
REMARK INTER:                  -8.345
REMARK INTRA:                  -0.804
REMARK UNBOUND:                -0.780
REMARK  Name = resultss/4CJN/ligands/lig_296_t0.pdb
REMARK  12 active torsions:
REMARK  status: ('A' for Active; 'I' for Inactive)
REMARK    1  A    between atoms: C1_1  and  O1_2
REMARK    2  A    between atoms: O1_2  and  C2_3
REMARK    3  A    between atoms: C4_5  and  O2_6
REMARK    4  A    between atoms: O2_6  and  C5_7
REMARK    5  A    between atoms: C6_9  and  C7_10
REMARK    6  A    between atoms: C7_10  and  O4_11
REMARK    7  A    between atoms: C8_12  and  O5_13
REMARK    8  A    between atoms: C9_14  and  O6_15
REMARK    9  A    between atoms: C10_16  and  O7_17
REMARK   10  A    between atoms: C16_24  and  O9_25
REMARK   11  A    between atoms: C17_26  and  O10_27
REMARK   12  A    between atoms: O10_27  and  C18_28
REMARK                            x       y       z     vdW  Elec       q    Type
REMARK                         _______ _______ _______ _____ _____    ______ ____
ROOT
ATOM      1  C2  UNL     1      25.470  -8.885 -41.319  0.00  0.00    +0.000 A 
ATOM      2  C3  UNL     1      26.716  -9.500 -41.464  0.00  0.00    +0.000 A 
ATOM      3  C4  UNL     1      27.496  -9.844 -40.340  0.00  0.00    +0.000 A 
ATOM      4  C11 UNL     1      27.000  -9.561 -39.043  0.00  0.00    +0.000 A 
ATOM      5  C12 UNL     1      27.714  -9.870 -37.863  0.00  0.00    +0.000 A 
ATOM      6  O8  UNL     1      28.848 -10.422 -37.919  0.00  0.00    +0.000 OA
ATOM      7  C13 UNL     1      27.153  -9.556 -36.611  0.00  0.00    +0.000 A 
ATOM      8  C14 UNL     1      27.819  -9.839 -35.407  0.00  0.00    +0.000 A 
ATOM      9  C15 UNL     1      27.230  -9.512 -34.187  0.00  0.00    +0.000 A 
ATOM     10  C16 UNL     1      25.971  -8.900 -34.139  0.00  0.00    +0.000 A 
ATOM     11  C17 UNL     1      25.285  -8.608 -35.344  0.00  0.00    +0.000 A 
ATOM     12  C19 UNL     1      25.885  -8.939 -36.572  0.00  0.00    +0.000 A 
ATOM     13  O11 UNL     1      25.243  -8.663 -37.702  0.00  0.00    +0.000 OA
ATOM     14  C20 UNL     1      25.735  -8.941 -38.904  0.00  0.00    +0.000 A 
ATOM     15  C21 UNL     1      24.984  -8.609 -40.032  0.00  0.00    +0.000 A 
ENDROOT
BRANCH   1  17
ATOM     16  C1  UNL     1      23.338  -8.717 -42.618  0.00  0.00    +0.000 C 
ATOM     17  O1  UNL     1      24.747  -8.567 -42.480  0.00  0.00    +0.000 OA
ENDBRANCH   1  17
BRANCH  10  18
ATOM     18  O9  UNL     1      25.419  -8.591 -32.898  0.00  0.00    +0.000 OA
ATOM     19  H18 UNL     1      25.672  -7.749 -32.395  0.00  0.00    +0.000 HD
ENDBRANCH  10  18
BRANCH  11  20
ATOM     20  O10 UNL     1      24.017  -7.997 -35.393  0.00  0.00    +0.000 OA
ATOM     21  C18 UNL     1      23.748  -6.605 -35.266  0.00  0.00    +0.000 C 
ENDBRANCH  11  20
BRANCH   3  22
ATOM     22  O2  UNL     1      28.752 -10.459 -40.486  0.00  0.00    +0.000 OA
BRANCH  22  23
ATOM     23  C5  UNL     1      29.861  -9.929 -41.211  0.00  0.00    +0.000 C 
ATOM     24  O3  UNL     1      31.031 -10.072 -40.416  0.00  0.00    +0.000 OA
ATOM     25  C6  UNL     1      32.184  -9.711 -41.155  0.00  0.00    +0.000 C 
ATOM     26  C8  UNL     1      32.488 -10.786 -42.239  0.00  0.00    +0.000 C 
ATOM     27  C9  UNL     1      31.210 -11.590 -42.581  0.00  0.00    +0.000 C 
ATOM     28  C10 UNL     1      29.971 -10.677 -42.571  0.00  0.00    +0.000 C 
BRANCH  26  29
ATOM     29  O5  UNL     1      32.978 -10.163 -43.400  0.00  0.00    +0.000 OA
ATOM     30  H11 UNL     1      33.660  -9.504 -43.109  0.00  0.00    +0.000 HD
ENDBRANCH  26  29
BRANCH  27  31
ATOM     31  O6  UNL     1      31.333 -12.226 -43.827  0.00  0.00    +0.000 OA
ATOM     32  H13 UNL     1      31.465 -13.193 -43.642  0.00  0.00    +0.000 HD
ENDBRANCH  27  31
BRANCH  28  33
ATOM     33  O7  UNL     1      30.052  -9.737 -43.614  0.00  0.00    +0.000 OA
ATOM     34  H15 UNL     1      30.600 -10.145 -44.334  0.00  0.00    +0.000 HD
ENDBRANCH  28  33
BRANCH  25  35
ATOM     35  C7  UNL     1      33.355  -9.548 -40.175  0.00  0.00    +0.000 C 
BRANCH  35  36
ATOM     36  O4  UNL     1      33.213 -10.401 -39.072  0.00  0.00    +0.000 OA
ATOM     37  H9  UNL     1      33.903 -10.129 -38.411  0.00  0.00    +0.000 HD
ENDBRANCH  35  36
ENDBRANCH  25  35
ENDBRANCH  22  23
ENDBRANCH   3  22
TORSDOF 10
ENDMDL
MODEL 8
REMARK VINA RESULT:    -5.751      2.174      8.650
REMARK INTER + INTRA:          -9.052
REMARK INTER:                  -7.990
REMARK INTRA:                  -1.061
REMARK UNBOUND:                -0.780
REMARK  Name = resultss/4CJN/ligands/lig_296_t0.pdb
REMARK  12 active torsions:
REMARK  status: ('A' for Active; 'I' for Inactive)
REMARK    1  A    between atoms: C1_1  and  O1_2
REMARK    2  A    between atoms: O1_2  and  C2_3
REMARK    3  A    between atoms: C4_5  and  O2_6
REMARK    4  A    between atoms: O2_6  and  C5_7
REMARK    5  A    between atoms: C6_9  and  C7_10
REMARK    6  A    between atoms: C7_10  and  O4_11
REMARK    7  A    between atoms: C8_12  and  O5_13
REMARK    8  A    between atoms: C9_14  and  O6_15
REMARK    9  A    between atoms: C10_16  and  O7_17
REMARK   10  A    between atoms: C16_24  and  O9_25
REMARK   11  A    between atoms: C17_26  and  O10_27
REMARK   12  A    between atoms: O10_27  and  C18_28
REMARK                            x       y       z     vdW  Elec       q    Type
REMARK                         _______ _______ _______ _____ _____    ______ ____
ROOT
ATOM      1  C2  UNL     1      24.539  -8.216 -35.049  0.00  0.00    +0.000 A 
ATOM      2  C3  UNL     1      25.627  -8.844 -34.439  0.00  0.00    +0.000 A 
ATOM      3  C4  UNL     1      26.665  -9.415 -35.204  0.00  0.00    +0.000 A 
ATOM      4  C11 UNL     1      26.600  -9.343 -36.618  0.00  0.00    +0.000 A 
ATOM      5  C12 UNL     1      27.595  -9.888 -37.461  0.00  0.00    +0.000 A 
ATOM      6  O8  UNL     1      28.603 -10.473 -36.977  0.00  0.00    +0.000 OA
ATOM      7  C13 UNL     1      27.457  -9.777 -38.857  0.00  0.00    +0.000 A 
ATOM      8  C14 UNL     1      28.413 -10.301 -39.742  0.00  0.00    +0.000 A 
ATOM      9  C15 UNL     1      28.241 -10.170 -41.119  0.00  0.00    +0.000 A 
ATOM     10  C16 UNL     1      27.117  -9.517 -41.642  0.00  0.00    +0.000 A 
ATOM     11  C17 UNL     1      26.142  -8.982 -40.764  0.00  0.00    +0.000 A 
ATOM     12  C19 UNL     1      26.321  -9.118 -39.376  0.00  0.00    +0.000 A 
ATOM     13  O11 UNL     1      25.407  -8.619 -38.552  0.00  0.00    +0.000 OA
ATOM     14  C20 UNL     1      25.496  -8.702 -37.230  0.00  0.00    +0.000 A 
ATOM     15  C21 UNL     1      24.480  -8.147 -36.449  0.00  0.00    +0.000 A 
ENDROOT
BRANCH   1  17
ATOM     16  C1  UNL     1      22.843  -6.460 -34.501  0.00  0.00    +0.000 C 
ATOM     17  O1  UNL     1      23.538  -7.672 -34.228  0.00  0.00    +0.000 OA
ENDBRANCH   1  17
BRANCH  10  18
ATOM     18  O9  UNL     1      26.984  -9.409 -43.025  0.00  0.00    +0.000 OA
ATOM     19  H18 UNL     1      27.548  -8.768 -43.568  0.00  0.00    +0.000 HD
ENDBRANCH  10  18
BRANCH  11  20
ATOM     20  O10 UNL     1      24.983  -8.310 -41.198  0.00  0.00    +0.000 OA
ATOM     21  C18 UNL     1      23.818  -8.912 -41.750  0.00  0.00    +0.000 C 
ENDBRANCH  11  20
BRANCH   3  22
ATOM     22  O2  UNL     1      27.758 -10.050 -34.589  0.00  0.00    +0.000 OA
BRANCH  22  23
ATOM     23  C5  UNL     1      28.714  -9.422 -33.732  0.00  0.00    +0.000 C 
ATOM     24  O3  UNL     1      29.753 -10.353 -33.456  0.00  0.00    +0.000 OA
ATOM     25  C6  UNL     1      30.805  -9.728 -32.745  0.00  0.00    +0.000 C 
ATOM     26  C8  UNL     1      31.584  -8.757 -33.679  0.00  0.00    +0.000 C 
ATOM     27  C9  UNL     1      30.700  -8.325 -34.873  0.00  0.00    +0.000 C 
ATOM     28  C10 UNL     1      29.238  -8.135 -34.430  0.00  0.00    +0.000 C 
BRANCH  26  29
ATOM     29  O5  UNL     1      31.985  -7.622 -32.953  0.00  0.00    +0.000 OA
ATOM     30  H11 UNL     1      32.406  -6.998 -33.601  0.00  0.00    +0.000 HD
ENDBRANCH  26  29
BRANCH  27  31
ATOM     31  O6  UNL     1      31.186  -7.144 -35.459  0.00  0.00    +0.000 OA
ATOM     32  H13 UNL     1      32.173  -7.154 -35.345  0.00  0.00    +0.000 HD
ENDBRANCH  27  31
BRANCH  28  33
ATOM     33  O7  UNL     1      29.137  -7.050 -33.541  0.00  0.00    +0.000 OA
ATOM     34  H15 UNL     1      28.977  -6.237 -34.089  0.00  0.00    +0.000 HD
ENDBRANCH  28  33
BRANCH  25  35
ATOM     35  C7  UNL     1      31.720 -10.823 -32.175  0.00  0.00    +0.000 C 
BRANCH  35  36
ATOM     36  O4  UNL     1      32.992 -10.774 -32.762  0.00  0.00    +0.000 OA
ATOM     37  H9  UNL     1      33.460 -11.610 -32.499  0.00  0.00    +0.000 HD
ENDBRANCH  35  36
ENDBRANCH  25  35
ENDBRANCH  22  23
ENDBRANCH   3  22
TORSDOF 10
ENDMDL
MODEL 9
REMARK VINA RESULT:    -5.459      1.956      8.147
REMARK INTER + INTRA:          -8.632
REMARK INTER:                  -7.709
REMARK INTRA:                  -0.923
REMARK UNBOUND:                -0.780
REMARK  Name = resultss/4CJN/ligands/lig_296_t0.pdb
REMARK  12 active torsions:
REMARK  status: ('A' for Active; 'I' for Inactive)
REMARK    1  A    between atoms: C1_1  and  O1_2
REMARK    2  A    between atoms: O1_2  and  C2_3
REMARK    3  A    between atoms: C4_5  and  O2_6
REMARK    4  A    between atoms: O2_6  and  C5_7
REMARK    5  A    between atoms: C6_9  and  C7_10
REMARK    6  A    between atoms: C7_10  and  O4_11
REMARK    7  A    between atoms: C8_12  and  O5_13
REMARK    8  A    between atoms: C9_14  and  O6_15
REMARK    9  A    between atoms: C10_16  and  O7_17
REMARK   10  A    between atoms: C16_24  and  O9_25
REMARK   11  A    between atoms: C17_26  and  O10_27
REMARK   12  A    between atoms: O10_27  and  C18_28
REMARK                            x       y       z     vdW  Elec       q    Type
REMARK                         _______ _______ _______ _____ _____    ______ ____
ROOT
ATOM      1  C2  UNL     1      28.637  -9.151 -41.925  0.00  0.00    +0.000 A 
ATOM      2  C3  UNL     1      28.189  -8.948 -40.617  0.00  0.00    +0.000 A 
ATOM      3  C4  UNL     1      26.887  -8.474 -40.356  0.00  0.00    +0.000 A 
ATOM      4  C11 UNL     1      26.019  -8.204 -41.444  0.00  0.00    +0.000 A 
ATOM      5  C12 UNL     1      24.700  -7.727 -41.275  0.00  0.00    +0.000 A 
ATOM      6  O8  UNL     1      24.231  -7.517 -40.122  0.00  0.00    +0.000 OA
ATOM      7  C13 UNL     1      23.901  -7.482 -42.407  0.00  0.00    +0.000 A 
ATOM      8  C14 UNL     1      22.584  -7.006 -42.298  0.00  0.00    +0.000 A 
ATOM      9  C15 UNL     1      21.825  -6.775 -43.444  0.00  0.00    +0.000 A 
ATOM     10  C16 UNL     1      22.358  -7.014 -44.718  0.00  0.00    +0.000 A 
ATOM     11  C17 UNL     1      23.684  -7.494 -44.846  0.00  0.00    +0.000 A 
ATOM     12  C19 UNL     1      24.446  -7.724 -43.687  0.00  0.00    +0.000 A 
ATOM     13  O11 UNL     1      25.690  -8.172 -43.807  0.00  0.00    +0.000 OA
ATOM     14  C20 UNL     1      26.479  -8.415 -42.767  0.00  0.00    +0.000 A 
ATOM     15  C21 UNL     1      27.774  -8.883 -42.998  0.00  0.00    +0.000 A 
ENDROOT
BRANCH   1  17
ATOM     16  C1  UNL     1      30.305 -10.997 -42.192  0.00  0.00    +0.000 C 
ATOM     17  O1  UNL     1      29.947  -9.621 -42.113  0.00  0.00    +0.000 OA
ENDBRANCH   1  17
BRANCH  10  18
ATOM     18  O9  UNL     1      21.564  -6.770 -45.836  0.00  0.00    +0.000 OA
ATOM     19  H18 UNL     1      21.675  -7.293 -46.696  0.00  0.00    +0.000 HD
ENDBRANCH  10  18
BRANCH  11  20
ATOM     20  O10 UNL     1      24.302  -7.763 -46.083  0.00  0.00    +0.000 OA
ATOM     21  C18 UNL     1      24.877  -6.804 -46.963  0.00  0.00    +0.000 C 
ENDBRANCH  11  20
BRANCH   3  22
ATOM     22  O2  UNL     1      26.437  -8.266 -39.040  0.00  0.00    +0.000 OA
BRANCH  22  23
ATOM     23  C5  UNL     1      27.228  -8.399 -37.858  0.00  0.00    +0.000 C 
ATOM     24  O3  UNL     1      27.102  -7.206 -37.095  0.00  0.00    +0.000 OA
ATOM     25  C6  UNL     1      27.736  -7.351 -35.836  0.00  0.00    +0.000 C 
ATOM     26  C8  UNL     1      26.916  -8.313 -34.929  0.00  0.00    +0.000 C 
ATOM     27  C9  UNL     1      26.023  -9.241 -35.786  0.00  0.00    +0.000 C 
ATOM     28  C10 UNL     1      26.749  -9.657 -37.079  0.00  0.00    +0.000 C 
BRANCH  26  29
ATOM     29  O5  UNL     1      27.791  -9.089 -34.149  0.00  0.00    +0.000 OA
ATOM     30  H11 UNL     1      28.289  -9.679 -34.772  0.00  0.00    +0.000 HD
ENDBRANCH  26  29
BRANCH  27  31
ATOM     31  O6  UNL     1      25.636 -10.380 -35.060  0.00  0.00    +0.000 OA
ATOM     32  H13 UNL     1      26.470 -10.803 -34.727  0.00  0.00    +0.000 HD
ENDBRANCH  27  31
BRANCH  28  33
ATOM     33  O7  UNL     1      27.860 -10.465 -36.773  0.00  0.00    +0.000 OA
ATOM     34  H15 UNL     1      27.554 -11.145 -36.117  0.00  0.00    +0.000 HD
ENDBRANCH  28  33
BRANCH  25  35
ATOM     35  C7  UNL     1      27.877  -5.958 -35.204  0.00  0.00    +0.000 C 
BRANCH  35  36
ATOM     36  O4  UNL     1      27.927  -6.041 -33.806  0.00  0.00    +0.000 OA
ATOM     37  H9  UNL     1      27.050  -6.399 -33.510  0.00  0.00    +0.000 HD
ENDBRANCH  35  36
ENDBRANCH  25  35
ENDBRANCH  22  23
ENDBRANCH   3  22
TORSDOF 10
ENDMDL
