MODEL 1
REMARK VINA RESULT:    -6.420      0.000      0.000
REMARK INTER + INTRA:          -9.206
REMARK INTER:                  -8.672
REMARK INTRA:                  -0.534
REMARK UNBOUND:                -0.534
REMARK  Name = resultss/4CJN/ligands/lig_184_t1.pdb
REMARK  8 active torsions:
REMARK  status: ('A' for Active; 'I' for Inactive)
REMARK    1  A    between atoms: C1_1  and  O1_2
REMARK    2  A    between atoms: O1_2  and  C2_3
REMARK    3  A    between atoms: C5_6  and  C6_7
REMARK    4  A    between atoms: N1_8  and  N2_9
REMARK    5  A    between atoms: C7_10  and  O2_11
REMARK    6  A    between atoms: C7_10  and  C8_12
REMARK    7  A    between atoms: C11_15  and  C12_16
REMARK    8  A    between atoms: C22_29  and  O3_30
REMARK                            x       y       z     vdW  Elec       q    Type
REMARK                         _______ _______ _______ _____ _____    ______ ____
ROOT
ATOM      1  N2  UNL     1      23.212  -7.908 -42.500  0.00  0.00    +0.000 NA
ATOM      2  C7  UNL     1      23.800  -9.036 -42.229  0.00  0.00    +0.000 C 
ENDROOT
BRANCH   2   3
ATOM      3  C8  UNL     1      24.762  -9.117 -41.104  0.00  0.00    +0.000 A 
ATOM      4  C9  UNL     1      24.609  -8.314 -39.959  0.00  0.00    +0.000 A 
ATOM      5  C10 UNL     1      25.522  -8.401 -38.903  0.00  0.00    +0.000 A 
ATOM      6  C11 UNL     1      26.606  -9.291 -38.966  0.00  0.00    +0.000 A 
ATOM      7  C19 UNL     1      26.759 -10.093 -40.110  0.00  0.00    +0.000 A 
ATOM      8  C20 UNL     1      25.847 -10.008 -41.165  0.00  0.00    +0.000 A 
BRANCH   6   9
ATOM      9  C12 UNL     1      27.567  -9.373 -37.841  0.00  0.00    +0.000 A 
ATOM     10  N3  UNL     1      27.184  -9.508 -36.545  0.00  0.00    +0.000 NA
ATOM     11  C13 UNL     1      28.255  -9.559 -35.713  0.00  0.00    +0.000 A 
ATOM     12  C14 UNL     1      28.171  -9.695 -34.326  0.00  0.00    +0.000 A 
ATOM     13  C15 UNL     1      29.361  -9.734 -33.578  0.00  0.00    +0.000 A 
ATOM     14  C16 UNL     1      30.612  -9.639 -34.221  0.00  0.00    +0.000 A 
ATOM     15  C17 UNL     1      30.683  -9.503 -35.617  0.00  0.00    +0.000 A 
ATOM     16  C18 UNL     1      29.490  -9.467 -36.333  0.00  0.00    +0.000 A 
ATOM     17  S1  UNL     1      29.260  -9.314 -37.986  0.00  0.00    +0.000 S 
ENDBRANCH   6   9
ENDBRANCH   2   3
BRANCH   1  19
ATOM     18  C6  UNL     1      22.524  -6.958 -44.531  0.00  0.00    +0.000 C 
ATOM     19  N1  UNL     1      22.296  -7.776 -43.553  0.00  0.00    +0.000 NA
BRANCH  18  23
ATOM     20  C2  UNL     1      19.661  -6.534 -47.726  0.00  0.00    +0.000 A 
ATOM     21  C3  UNL     1      19.257  -6.493 -46.384  0.00  0.00    +0.000 A 
ATOM     22  C4  UNL     1      20.192  -6.631 -45.361  0.00  0.00    +0.000 A 
ATOM     23  C5  UNL     1      21.556  -6.815 -45.649  0.00  0.00    +0.000 A 
ATOM     24  C21 UNL     1      21.975  -6.859 -47.004  0.00  0.00    +0.000 A 
ATOM     25  I1  UNL     1      24.036  -7.136 -47.510  0.00  0.00    +0.000 I 
ATOM     26  C22 UNL     1      21.016  -6.716 -48.035  0.00  0.00    +0.000 A 
BRANCH  20  28
ATOM     27  C1  UNL     1      17.346  -6.621 -48.672  0.00  0.00    +0.000 C 
ATOM     28  O1  UNL     1      18.748  -6.398 -48.783  0.00  0.00    +0.000 OA
ENDBRANCH  20  28
BRANCH  26  29
ATOM     29  O3  UNL     1      21.375  -6.752 -49.385  0.00  0.00    +0.000 OA
ATOM     30  H16 UNL     1      22.148  -6.231 -49.776  0.00  0.00    +0.000 HD
ENDBRANCH  26  29
ENDBRANCH  18  23
ENDBRANCH   1  19
BRANCH   2  31
ATOM     31  O2  UNL     1      23.538 -10.179 -42.991  0.00  0.00    +0.000 OA
ATOM     32  H7  UNL     1      22.695 -10.729 -42.881  0.00  0.00    +0.000 HD
ENDBRANCH   2  31
TORSDOF 7
ENDMDL
MODEL 2
REMARK VINA RESULT:    -6.246      1.894      2.938
REMARK INTER + INTRA:          -8.970
REMARK INTER:                  -8.465
REMARK INTRA:                  -0.505
REMARK UNBOUND:                -0.534
REMARK  Name = resultss/4CJN/ligands/lig_184_t1.pdb
REMARK  8 active torsions:
REMARK  status: ('A' for Active; 'I' for Inactive)
REMARK    1  A    between atoms: C1_1  and  O1_2
REMARK    2  A    between atoms: O1_2  and  C2_3
REMARK    3  A    between atoms: C5_6  and  C6_7
REMARK    4  A    between atoms: N1_8  and  N2_9
REMARK    5  A    between atoms: C7_10  and  O2_11
REMARK    6  A    between atoms: C7_10  and  C8_12
REMARK    7  A    between atoms: C11_15  and  C12_16
REMARK    8  A    between atoms: C22_29  and  O3_30
REMARK                            x       y       z     vdW  Elec       q    Type
REMARK                         _______ _______ _______ _____ _____    ______ ____
ROOT
ATOM      1  N2  UNL     1      25.791  -8.451 -41.898  0.00  0.00    +0.000 NA
ATOM      2  C7  UNL     1      25.763  -9.509 -41.141  0.00  0.00    +0.000 C 
ENDROOT
BRANCH   2   3
ATOM      3  C8  UNL     1      26.534  -9.534 -39.875  0.00  0.00    +0.000 A 
ATOM      4  C9  UNL     1      27.655 -10.372 -39.724  0.00  0.00    +0.000 A 
ATOM      5  C10 UNL     1      28.375 -10.386 -38.526  0.00  0.00    +0.000 A 
ATOM      6  C11 UNL     1      27.994  -9.565 -37.453  0.00  0.00    +0.000 A 
ATOM      7  C19 UNL     1      26.875  -8.728 -37.603  0.00  0.00    +0.000 A 
ATOM      8  C20 UNL     1      26.155  -8.713 -38.800  0.00  0.00    +0.000 A 
BRANCH   6   9
ATOM      9  C12 UNL     1      28.765  -9.589 -36.188  0.00  0.00    +0.000 A 
ATOM     10  N3  UNL     1      30.122  -9.578 -36.144  0.00  0.00    +0.000 NA
ATOM     11  C13 UNL     1      30.579  -9.606 -34.867  0.00  0.00    +0.000 A 
ATOM     12  C14 UNL     1      31.929  -9.602 -34.511  0.00  0.00    +0.000 A 
ATOM     13  C15 UNL     1      32.268  -9.634 -33.146  0.00  0.00    +0.000 A 
ATOM     14  C16 UNL     1      31.260  -9.666 -32.161  0.00  0.00    +0.000 A 
ATOM     15  C17 UNL     1      29.906  -9.669 -32.532  0.00  0.00    +0.000 A 
ATOM     16  C18 UNL     1      29.598  -9.638 -33.889  0.00  0.00    +0.000 A 
ATOM     17  S1  UNL     1      28.094  -9.634 -34.626  0.00  0.00    +0.000 S 
ENDBRANCH   6   9
ENDBRANCH   2   3
BRANCH   1  19
ATOM     18  C6  UNL     1      25.046  -7.273 -43.784  0.00  0.00    +0.000 C 
ATOM     19  N1  UNL     1      25.083  -8.375 -43.104  0.00  0.00    +0.000 NA
BRANCH  18  23
ATOM     20  C2  UNL     1      22.806  -7.029 -47.459  0.00  0.00    +0.000 A 
ATOM     21  C3  UNL     1      22.155  -7.165 -46.223  0.00  0.00    +0.000 A 
ATOM     22  C4  UNL     1      22.891  -7.242 -45.044  0.00  0.00    +0.000 A 
ATOM     23  C5  UNL     1      24.296  -7.188 -45.063  0.00  0.00    +0.000 A 
ATOM     24  C21 UNL     1      24.963  -7.051 -46.307  0.00  0.00    +0.000 A 
ATOM     25  I1  UNL     1      27.099  -6.962 -46.407  0.00  0.00    +0.000 I 
ATOM     26  C22 UNL     1      24.206  -6.973 -47.501  0.00  0.00    +0.000 A 
BRANCH  20  28
ATOM     27  C1  UNL     1      20.716  -6.620 -48.774  0.00  0.00    +0.000 C 
ATOM     28  O1  UNL     1      22.097  -6.948 -48.667  0.00  0.00    +0.000 OA
ENDBRANCH  20  28
BRANCH  26  29
ATOM     29  O3  UNL     1      24.813  -6.838 -48.752  0.00  0.00    +0.000 OA
ATOM     30  H16 UNL     1      25.799  -6.982 -48.917  0.00  0.00    +0.000 HD
ENDBRANCH  26  29
ENDBRANCH  18  23
ENDBRANCH   1  19
BRANCH   2  31
ATOM     31  O2  UNL     1      25.011 -10.629 -41.508  0.00  0.00    +0.000 OA
ATOM     32  H7  UNL     1      24.103 -10.559 -41.951  0.00  0.00    +0.000 HD
ENDBRANCH   2  31
TORSDOF 7
ENDMDL
MODEL 3
REMARK VINA RESULT:    -6.210      2.034      2.886
REMARK INTER + INTRA:          -8.922
REMARK INTER:                  -8.417
REMARK INTRA:                  -0.505
REMARK UNBOUND:                -0.534
REMARK  Name = resultss/4CJN/ligands/lig_184_t1.pdb
REMARK  8 active torsions:
REMARK  status: ('A' for Active; 'I' for Inactive)
REMARK    1  A    between atoms: C1_1  and  O1_2
REMARK    2  A    between atoms: O1_2  and  C2_3
REMARK    3  A    between atoms: C5_6  and  C6_7
REMARK    4  A    between atoms: N1_8  and  N2_9
REMARK    5  A    between atoms: C7_10  and  O2_11
REMARK    6  A    between atoms: C7_10  and  C8_12
REMARK    7  A    between atoms: C11_15  and  C12_16
REMARK    8  A    between atoms: C22_29  and  O3_30
REMARK                            x       y       z     vdW  Elec       q    Type
REMARK                         _______ _______ _______ _____ _____    ______ ____
ROOT
ATOM      1  N2  UNL     1      25.630  -8.544 -42.002  0.00  0.00    +0.000 NA
ATOM      2  C7  UNL     1      25.654  -9.607 -41.252  0.00  0.00    +0.000 C 
ENDROOT
BRANCH   2   3
ATOM      3  C8  UNL     1      26.449  -9.612 -40.000  0.00  0.00    +0.000 A 
ATOM      4  C9  UNL     1      26.391  -8.534 -39.099  0.00  0.00    +0.000 A 
ATOM      5  C10 UNL     1      27.145  -8.551 -37.921  0.00  0.00    +0.000 A 
ATOM      6  C11 UNL     1      27.972  -9.644 -37.617  0.00  0.00    +0.000 A 
ATOM      7  C19 UNL     1      28.030 -10.722 -38.518  0.00  0.00    +0.000 A 
ATOM      8  C20 UNL     1      27.277 -10.706 -39.695  0.00  0.00    +0.000 A 
BRANCH   6   9
ATOM      9  C12 UNL     1      28.766  -9.651 -36.366  0.00  0.00    +0.000 A 
ATOM     10  N3  UNL     1      30.120  -9.550 -36.345  0.00  0.00    +0.000 NA
ATOM     11  C13 UNL     1      30.602  -9.580 -35.077  0.00  0.00    +0.000 A 
ATOM     12  C14 UNL     1      31.955  -9.496 -34.744  0.00  0.00    +0.000 A 
ATOM     13  C15 UNL     1      32.320  -9.541 -33.386  0.00  0.00    +0.000 A 
ATOM     14  C16 UNL     1      31.335  -9.667 -32.386  0.00  0.00    +0.000 A 
ATOM     15  C17 UNL     1      29.977  -9.751 -32.734  0.00  0.00    +0.000 A 
ATOM     16  C18 UNL     1      29.644  -9.704 -34.084  0.00  0.00    +0.000 A 
ATOM     17  S1  UNL     1      28.129  -9.782 -34.796  0.00  0.00    +0.000 S 
ENDBRANCH   6   9
ENDBRANCH   2   3
BRANCH   1  19
ATOM     18  C6  UNL     1      24.505  -7.350 -43.678  0.00  0.00    +0.000 C 
ATOM     19  N1  UNL     1      24.897  -8.486 -43.194  0.00  0.00    +0.000 NA
BRANCH  18  23
ATOM     20  C2  UNL     1      22.313  -7.168 -47.385  0.00  0.00    +0.000 A 
ATOM     21  C3  UNL     1      23.706  -7.332 -47.376  0.00  0.00    +0.000 A 
ATOM     22  C4  UNL     1      24.402  -7.389 -46.172  0.00  0.00    +0.000 A 
ATOM     23  C5  UNL     1      23.728  -7.284 -44.942  0.00  0.00    +0.000 A 
ATOM     24  C21 UNL     1      22.320  -7.117 -44.940  0.00  0.00    +0.000 A 
ATOM     25  I1  UNL     1      21.234  -6.951 -43.103  0.00  0.00    +0.000 I 
ATOM     26  C22 UNL     1      21.622  -7.061 -46.170  0.00  0.00    +0.000 A 
BRANCH  20  28
ATOM     27  C1  UNL     1      21.360  -5.917 -49.332  0.00  0.00    +0.000 C 
ATOM     28  O1  UNL     1      21.579  -7.106 -48.579  0.00  0.00    +0.000 OA
ENDBRANCH  20  28
BRANCH  26  29
ATOM     29  O3  UNL     1      20.235  -6.898 -46.225  0.00  0.00    +0.000 OA
ATOM     30  H16 UNL     1      19.779  -6.014 -46.400  0.00  0.00    +0.000 HD
ENDBRANCH  26  29
ENDBRANCH  18  23
ENDBRANCH   1  19
BRANCH   2  31
ATOM     31  O2  UNL     1      24.936 -10.752 -41.613  0.00  0.00    +0.000 OA
ATOM     32  H7  UNL     1      24.952 -11.136 -42.549  0.00  0.00    +0.000 HD
ENDBRANCH   2  31
TORSDOF 7
ENDMDL
MODEL 4
REMARK VINA RESULT:    -6.033      1.819      2.484
REMARK INTER + INTRA:          -8.683
REMARK INTER:                  -8.478
REMARK INTRA:                  -0.205
REMARK UNBOUND:                -0.534
REMARK  Name = resultss/4CJN/ligands/lig_184_t1.pdb
REMARK  8 active torsions:
REMARK  status: ('A' for Active; 'I' for Inactive)
REMARK    1  A    between atoms: C1_1  and  O1_2
REMARK    2  A    between atoms: O1_2  and  C2_3
REMARK    3  A    between atoms: C5_6  and  C6_7
REMARK    4  A    between atoms: N1_8  and  N2_9
REMARK    5  A    between atoms: C7_10  and  O2_11
REMARK    6  A    between atoms: C7_10  and  C8_12
REMARK    7  A    between atoms: C11_15  and  C12_16
REMARK    8  A    between atoms: C22_29  and  O3_30
REMARK                            x       y       z     vdW  Elec       q    Type
REMARK                         _______ _______ _______ _____ _____    ______ ____
ROOT
ATOM      1  N2  UNL     1      25.579  -8.485 -42.344  0.00  0.00    +0.000 NA
ATOM      2  C7  UNL     1      25.584  -9.511 -41.545  0.00  0.00    +0.000 C 
ENDROOT
BRANCH   2   3
ATOM      3  C8  UNL     1      26.463  -9.515 -40.351  0.00  0.00    +0.000 A 
ATOM      4  C9  UNL     1      26.586  -8.375 -39.536  0.00  0.00    +0.000 A 
ATOM      5  C10 UNL     1      27.417  -8.391 -38.411  0.00  0.00    +0.000 A 
ATOM      6  C11 UNL     1      28.143  -9.546 -38.075  0.00  0.00    +0.000 A 
ATOM      7  C19 UNL     1      28.021 -10.685 -38.889  0.00  0.00    +0.000 A 
ATOM      8  C20 UNL     1      27.190 -10.669 -40.013  0.00  0.00    +0.000 A 
BRANCH   6   9
ATOM      9  C12 UNL     1      29.020  -9.550 -36.881  0.00  0.00    +0.000 A 
ATOM     10  N3  UNL     1      28.545  -9.566 -35.609  0.00  0.00    +0.000 NA
ATOM     11  C13 UNL     1      29.553  -9.567 -34.701  0.00  0.00    +0.000 A 
ATOM     12  C14 UNL     1      29.370  -9.581 -33.317  0.00  0.00    +0.000 A 
ATOM     13  C15 UNL     1      30.504  -9.580 -32.486  0.00  0.00    +0.000 A 
ATOM     14  C16 UNL     1      31.798  -9.567 -33.043  0.00  0.00    +0.000 A 
ATOM     15  C17 UNL     1      31.970  -9.553 -34.437  0.00  0.00    +0.000 A 
ATOM     16  C18 UNL     1      30.831  -9.553 -35.237  0.00  0.00    +0.000 A 
ATOM     17  S1  UNL     1      30.720  -9.538 -36.909  0.00  0.00    +0.000 S 
ENDBRANCH   6   9
ENDBRANCH   2   3
BRANCH   1  19
ATOM     18  C6  UNL     1      24.629  -7.325 -44.147  0.00  0.00    +0.000 C 
ATOM     19  N1  UNL     1      24.770  -8.430 -43.486  0.00  0.00    +0.000 NA
BRANCH  18  23
ATOM     20  C2  UNL     1      22.203  -7.154 -47.707  0.00  0.00    +0.000 A 
ATOM     21  C3  UNL     1      23.592  -7.336 -47.786  0.00  0.00    +0.000 A 
ATOM     22  C4  UNL     1      24.364  -7.389 -46.629  0.00  0.00    +0.000 A 
ATOM     23  C5  UNL     1      23.772  -7.262 -45.359  0.00  0.00    +0.000 A 
ATOM     24  C21 UNL     1      22.369  -7.078 -45.268  0.00  0.00    +0.000 A 
ATOM     25  I1  UNL     1      21.406  -6.878 -43.367  0.00  0.00    +0.000 I 
ATOM     26  C22 UNL     1      21.594  -7.026 -46.451  0.00  0.00    +0.000 A 
BRANCH  20  28
ATOM     27  C1  UNL     1      20.728  -5.924 -49.311  0.00  0.00    +0.000 C 
ATOM     28  O1  UNL     1      21.394  -7.096 -48.851  0.00  0.00    +0.000 OA
ENDBRANCH  20  28
BRANCH  26  29
ATOM     29  O3  UNL     1      20.208  -6.846 -46.417  0.00  0.00    +0.000 OA
ATOM     30  H16 UNL     1      19.742  -6.007 -46.733  0.00  0.00    +0.000 HD
ENDBRANCH  26  29
ENDBRANCH  18  23
ENDBRANCH   1  19
BRANCH   2  31
ATOM     31  O2  UNL     1      24.769 -10.618 -41.799  0.00  0.00    +0.000 OA
ATOM     32  H7  UNL     1      23.925 -10.809 -41.272  0.00  0.00    +0.000 HD
ENDBRANCH   2  31
TORSDOF 7
ENDMDL
MODEL 5
REMARK VINA RESULT:    -5.711      4.964     12.857
REMARK INTER + INTRA:          -8.248
REMARK INTER:                  -7.738
REMARK INTRA:                  -0.509
REMARK UNBOUND:                -0.534
REMARK  Name = resultss/4CJN/ligands/lig_184_t1.pdb
REMARK  8 active torsions:
REMARK  status: ('A' for Active; 'I' for Inactive)
REMARK    1  A    between atoms: C1_1  and  O1_2
REMARK    2  A    between atoms: O1_2  and  C2_3
REMARK    3  A    between atoms: C5_6  and  C6_7
REMARK    4  A    between atoms: N1_8  and  N2_9
REMARK    5  A    between atoms: C7_10  and  O2_11
REMARK    6  A    between atoms: C7_10  and  C8_12
REMARK    7  A    between atoms: C11_15  and  C12_16
REMARK    8  A    between atoms: C22_29  and  O3_30
REMARK                            x       y       z     vdW  Elec       q    Type
REMARK                         _______ _______ _______ _____ _____    ______ ____
ROOT
ATOM      1  N2  UNL     1      27.673  -9.097 -38.030  0.00  0.00    +0.000 NA
ATOM      2  C7  UNL     1      27.455  -9.886 -39.041  0.00  0.00    +0.000 C 
ENDROOT
BRANCH   2   3
ATOM      3  C8  UNL     1      26.662  -9.406 -40.198  0.00  0.00    +0.000 A 
ATOM      4  C9  UNL     1      27.071  -9.668 -41.518  0.00  0.00    +0.000 A 
ATOM      5  C10 UNL     1      26.315  -9.210 -42.601  0.00  0.00    +0.000 A 
ATOM      6  C11 UNL     1      25.133  -8.482 -42.391  0.00  0.00    +0.000 A 
ATOM      7  C19 UNL     1      24.723  -8.220 -41.072  0.00  0.00    +0.000 A 
ATOM      8  C20 UNL     1      25.479  -8.677 -39.989  0.00  0.00    +0.000 A 
BRANCH   6   9
ATOM      9  C12 UNL     1      24.339  -8.002 -43.547  0.00  0.00    +0.000 A 
ATOM     10  N3  UNL     1      24.842  -7.905 -44.804  0.00  0.00    +0.000 NA
ATOM     11  C13 UNL     1      23.913  -7.440 -45.677  0.00  0.00    +0.000 A 
ATOM     12  C14 UNL     1      24.141  -7.236 -47.039  0.00  0.00    +0.000 A 
ATOM     13  C15 UNL     1      23.089  -6.748 -47.835  0.00  0.00    +0.000 A 
ATOM     14  C16 UNL     1      21.831  -6.473 -47.263  0.00  0.00    +0.000 A 
ATOM     15  C17 UNL     1      21.613  -6.682 -45.892  0.00  0.00    +0.000 A 
ATOM     16  C18 UNL     1      22.671  -7.165 -45.127  0.00  0.00    +0.000 A 
ATOM     17  S1  UNL     1      22.713  -7.508 -43.488  0.00  0.00    +0.000 S 
ENDBRANCH   6   9
ENDBRANCH   2   3
BRANCH   1  19
ATOM     18  C6  UNL     1      29.039  -8.633 -36.181  0.00  0.00    +0.000 C 
ATOM     19  N1  UNL     1      28.414  -9.501 -36.912  0.00  0.00    +0.000 NA
BRANCH  18  23
ATOM     20  C2  UNL     1      31.259  -9.858 -32.695  0.00  0.00    +0.000 A 
ATOM     21  C3  UNL     1      29.892  -9.555 -32.612  0.00  0.00    +0.000 A 
ATOM     22  C4  UNL     1      29.187  -9.160 -33.746  0.00  0.00    +0.000 A 
ATOM     23  C5  UNL     1      29.825  -9.056 -34.995  0.00  0.00    +0.000 A 
ATOM     24  C21 UNL     1      31.208  -9.360 -35.089  0.00  0.00    +0.000 A 
ATOM     25  I1  UNL     1      32.239  -9.222 -36.959  0.00  0.00    +0.000 I 
ATOM     26  C22 UNL     1      31.915  -9.761 -33.931  0.00  0.00    +0.000 A 
BRANCH  20  28
ATOM     27  C1  UNL     1      32.038 -11.587 -31.062  0.00  0.00    +0.000 C 
ATOM     28  O1  UNL     1      32.002 -10.259 -31.574  0.00  0.00    +0.000 OA
ENDBRANCH  20  28
BRANCH  26  29
ATOM     29  O3  UNL     1      33.277 -10.071 -33.969  0.00  0.00    +0.000 OA
ATOM     30  H16 UNL     1      33.947  -9.590 -34.552  0.00  0.00    +0.000 HD
ENDBRANCH  26  29
ENDBRANCH  18  23
ENDBRANCH   1  19
BRANCH   2  31
ATOM     31  O2  UNL     1      27.960 -11.190 -39.051  0.00  0.00    +0.000 OA
ATOM     32  H7  UNL     1      27.365 -12.008 -39.080  0.00  0.00    +0.000 HD
ENDBRANCH   2  31
TORSDOF 7
ENDMDL
MODEL 6
REMARK VINA RESULT:    -5.657      5.878     13.282
REMARK INTER + INTRA:          -8.175
REMARK INTER:                  -7.676
REMARK INTRA:                  -0.498
REMARK UNBOUND:                -0.534
REMARK  Name = resultss/4CJN/ligands/lig_184_t1.pdb
REMARK  8 active torsions:
REMARK  status: ('A' for Active; 'I' for Inactive)
REMARK    1  A    between atoms: C1_1  and  O1_2
REMARK    2  A    between atoms: O1_2  and  C2_3
REMARK    3  A    between atoms: C5_6  and  C6_7
REMARK    4  A    between atoms: N1_8  and  N2_9
REMARK    5  A    between atoms: C7_10  and  O2_11
REMARK    6  A    between atoms: C7_10  and  C8_12
REMARK    7  A    between atoms: C11_15  and  C12_16
REMARK    8  A    between atoms: C22_29  and  O3_30
REMARK                            x       y       z     vdW  Elec       q    Type
REMARK                         _______ _______ _______ _____ _____    ______ ____
ROOT
ATOM      1  N2  UNL     1      30.216  -9.050 -39.005  0.00  0.00    +0.000 NA
ATOM      2  C7  UNL     1      29.159  -9.605 -39.521  0.00  0.00    +0.000 C 
ENDROOT
BRANCH   2   3
ATOM      3  C8  UNL     1      28.611  -9.105 -40.805  0.00  0.00    +0.000 A 
ATOM      4  C9  UNL     1      29.230  -8.046 -41.495  0.00  0.00    +0.000 A 
ATOM      5  C10 UNL     1      28.706  -7.584 -42.705  0.00  0.00    +0.000 A 
ATOM      6  C11 UNL     1      27.553  -8.168 -43.254  0.00  0.00    +0.000 A 
ATOM      7  C19 UNL     1      26.934  -9.225 -42.566  0.00  0.00    +0.000 A 
ATOM      8  C20 UNL     1      27.458  -9.688 -41.356  0.00  0.00    +0.000 A 
BRANCH   6   9
ATOM      9  C12 UNL     1      27.006  -7.668 -44.538  0.00  0.00    +0.000 A 
ATOM     10  N3  UNL     1      27.783  -7.371 -45.611  0.00  0.00    +0.000 NA
ATOM     11  C13 UNL     1      27.038  -6.935 -46.658  0.00  0.00    +0.000 A 
ATOM     12  C14 UNL     1      27.562  -6.555 -47.896  0.00  0.00    +0.000 A 
ATOM     13  C15 UNL     1      26.677  -6.120 -48.899  0.00  0.00    +0.000 A 
ATOM     14  C16 UNL     1      25.290  -6.072 -48.655  0.00  0.00    +0.000 A 
ATOM     15  C17 UNL     1      24.775  -6.456 -47.406  0.00  0.00    +0.000 A 
ATOM     16  C18 UNL     1      25.673  -6.882 -46.431  0.00  0.00    +0.000 A 
ATOM     17  S1  UNL     1      25.360  -7.394 -44.867  0.00  0.00    +0.000 S 
ENDBRANCH   6   9
ENDBRANCH   2   3
BRANCH   1  19
ATOM     18  C6  UNL     1      30.849  -8.686 -36.777  0.00  0.00    +0.000 C 
ATOM     19  N1  UNL     1      30.773  -9.483 -37.795  0.00  0.00    +0.000 NA
BRANCH  18  23
ATOM     20  C2  UNL     1      32.628  -9.992 -33.074  0.00  0.00    +0.000 A 
ATOM     21  C3  UNL     1      33.424  -9.597 -34.158  0.00  0.00    +0.000 A 
ATOM     22  C4  UNL     1      32.837  -9.177 -35.349  0.00  0.00    +0.000 A 
ATOM     23  C5  UNL     1      31.438  -9.140 -35.491  0.00  0.00    +0.000 A 
ATOM     24  C21 UNL     1      30.624  -9.539 -34.400  0.00  0.00    +0.000 A 
ATOM     25  I1  UNL     1      28.489  -9.506 -34.551  0.00  0.00    +0.000 I 
ATOM     26  C22 UNL     1      31.231  -9.963 -33.194  0.00  0.00    +0.000 A 
BRANCH  20  28
ATOM     27  C1  UNL     1      33.435 -11.781 -31.521  0.00  0.00    +0.000 C 
ATOM     28  O1  UNL     1      33.184 -10.421 -31.859  0.00  0.00    +0.000 OA
ENDBRANCH  20  28
BRANCH  26  29
ATOM     29  O3  UNL     1      30.476 -10.365 -32.090  0.00  0.00    +0.000 OA
ATOM     30  H16 UNL     1      29.697  -9.839 -31.719  0.00  0.00    +0.000 HD
ENDBRANCH  26  29
ENDBRANCH  18  23
ENDBRANCH   1  19
BRANCH   2  31
ATOM     31  O2  UNL     1      28.526 -10.673 -38.876  0.00  0.00    +0.000 OA
ATOM     32  H7  UNL     1      28.901 -11.109 -38.043  0.00  0.00    +0.000 HD
ENDBRANCH   2  31
TORSDOF 7
ENDMDL
MODEL 7
REMARK VINA RESULT:    -5.616      5.725     13.084
REMARK INTER + INTRA:          -8.119
REMARK INTER:                  -7.660
REMARK INTRA:                  -0.459
REMARK UNBOUND:                -0.534
REMARK  Name = resultss/4CJN/ligands/lig_184_t1.pdb
REMARK  8 active torsions:
REMARK  status: ('A' for Active; 'I' for Inactive)
REMARK    1  A    between atoms: C1_1  and  O1_2
REMARK    2  A    between atoms: O1_2  and  C2_3
REMARK    3  A    between atoms: C5_6  and  C6_7
REMARK    4  A    between atoms: N1_8  and  N2_9
REMARK    5  A    between atoms: C7_10  and  O2_11
REMARK    6  A    between atoms: C7_10  and  C8_12
REMARK    7  A    between atoms: C11_15  and  C12_16
REMARK    8  A    between atoms: C22_29  and  O3_30
REMARK                            x       y       z     vdW  Elec       q    Type
REMARK                         _______ _______ _______ _____ _____    ______ ____
ROOT
ATOM      1  N2  UNL     1      29.132  -9.106 -38.519  0.00  0.00    +0.000 NA
ATOM      2  C7  UNL     1      28.368  -9.825 -39.289  0.00  0.00    +0.000 C 
ENDROOT
BRANCH   2   3
ATOM      3  C8  UNL     1      27.908  -9.282 -40.590  0.00  0.00    +0.000 A 
ATOM      4  C9  UNL     1      26.964  -8.241 -40.649  0.00  0.00    +0.000 A 
ATOM      5  C10 UNL     1      26.538  -7.737 -41.882  0.00  0.00    +0.000 A 
ATOM      6  C11 UNL     1      27.046  -8.260 -43.082  0.00  0.00    +0.000 A 
ATOM      7  C19 UNL     1      27.989  -9.300 -43.023  0.00  0.00    +0.000 A 
ATOM      8  C20 UNL     1      28.415  -9.804 -41.792  0.00  0.00    +0.000 A 
BRANCH   6   9
ATOM      9  C12 UNL     1      26.587  -7.718 -44.382  0.00  0.00    +0.000 A 
ATOM     10  N3  UNL     1      27.432  -7.418 -45.403  0.00  0.00    +0.000 NA
ATOM     11  C13 UNL     1      26.760  -6.939 -46.480  0.00  0.00    +0.000 A 
ATOM     12  C14 UNL     1      27.364  -6.547 -47.676  0.00  0.00    +0.000 A 
ATOM     13  C15 UNL     1      26.550  -6.066 -48.717  0.00  0.00    +0.000 A 
ATOM     14  C16 UNL     1      25.153  -5.983 -48.551  0.00  0.00    +0.000 A 
ATOM     15  C17 UNL     1      24.557  -6.380 -47.343  0.00  0.00    +0.000 A 
ATOM     16  C18 UNL     1      25.386  -6.852 -46.329  0.00  0.00    +0.000 A 
ATOM     17  S1  UNL     1      24.971  -7.391 -44.798  0.00  0.00    +0.000 S 
ENDBRANCH   6   9
ENDBRANCH   2   3
BRANCH   1  19
ATOM     18  C6  UNL     1      30.079  -8.749 -36.403  0.00  0.00    +0.000 C 
ATOM     19  N1  UNL     1      29.594  -9.570 -37.280  0.00  0.00    +0.000 NA
BRANCH  18  23
ATOM     20  C2  UNL     1      31.431 -10.162 -32.562  0.00  0.00    +0.000 A 
ATOM     21  C3  UNL     1      30.075  -9.892 -32.796  0.00  0.00    +0.000 A 
ATOM     22  C4  UNL     1      29.651  -9.436 -34.042  0.00  0.00    +0.000 A 
ATOM     23  C5  UNL     1      30.569  -9.236 -35.089  0.00  0.00    +0.000 A 
ATOM     24  C21 UNL     1      31.943  -9.506 -34.862  0.00  0.00    +0.000 A 
ATOM     25  I1  UNL     1      33.391  -9.222 -36.412  0.00  0.00    +0.000 I 
ATOM     26  C22 UNL     1      32.363  -9.970 -33.592  0.00  0.00    +0.000 A 
BRANCH  20  28
ATOM     27  C1  UNL     1      32.044 -11.996 -30.972  0.00  0.00    +0.000 C 
ATOM     28  O1  UNL     1      31.894 -10.623 -31.320  0.00  0.00    +0.000 OA
ENDBRANCH  20  28
BRANCH  26  29
ATOM     29  O3  UNL     1      33.703 -10.250 -33.315  0.00  0.00    +0.000 OA
ATOM     30  H16 UNL     1      34.473  -9.672 -33.621  0.00  0.00    +0.000 HD
ENDBRANCH  26  29
ENDBRANCH  18  23
ENDBRANCH   1  19
BRANCH   2  31
ATOM     31  O2  UNL     1      27.972 -11.109 -38.903  0.00  0.00    +0.000 OA
ATOM     32  H7  UNL     1      28.465 -11.945 -39.192  0.00  0.00    +0.000 HD
ENDBRANCH   2  31
TORSDOF 7
ENDMDL
MODEL 8
REMARK VINA RESULT:    -5.564      4.609     12.438
REMARK INTER + INTRA:          -8.049
REMARK INTER:                  -7.522
REMARK INTRA:                  -0.528
REMARK UNBOUND:                -0.534
REMARK  Name = resultss/4CJN/ligands/lig_184_t1.pdb
REMARK  8 active torsions:
REMARK  status: ('A' for Active; 'I' for Inactive)
REMARK    1  A    between atoms: C1_1  and  O1_2
REMARK    2  A    between atoms: O1_2  and  C2_3
REMARK    3  A    between atoms: C5_6  and  C6_7
REMARK    4  A    between atoms: N1_8  and  N2_9
REMARK    5  A    between atoms: C7_10  and  O2_11
REMARK    6  A    between atoms: C7_10  and  C8_12
REMARK    7  A    between atoms: C11_15  and  C12_16
REMARK    8  A    between atoms: C22_29  and  O3_30
REMARK                            x       y       z     vdW  Elec       q    Type
REMARK                         _______ _______ _______ _____ _____    ______ ____
ROOT
ATOM      1  N2  UNL     1      25.491  -8.244 -39.779  0.00  0.00    +0.000 NA
ATOM      2  C7  UNL     1      25.996  -8.187 -40.976  0.00  0.00    +0.000 C 
ENDROOT
BRANCH   2   3
ATOM      3  C8  UNL     1      25.114  -7.936 -42.141  0.00  0.00    +0.000 A 
ATOM      4  C9  UNL     1      25.649  -7.625 -43.404  0.00  0.00    +0.000 A 
ATOM      5  C10 UNL     1      24.807  -7.391 -44.496  0.00  0.00    +0.000 A 
ATOM      6  C11 UNL     1      23.412  -7.464 -44.351  0.00  0.00    +0.000 A 
ATOM      7  C19 UNL     1      22.877  -7.775 -43.089  0.00  0.00    +0.000 A 
ATOM      8  C20 UNL     1      23.718  -8.009 -41.998  0.00  0.00    +0.000 A 
BRANCH   6   9
ATOM      9  C12 UNL     1      22.530  -7.214 -45.515  0.00  0.00    +0.000 A 
ATOM     10  N3  UNL     1      21.190  -7.023 -45.404  0.00  0.00    +0.000 NA
ATOM     11  C13 UNL     1      20.616  -6.814 -46.616  0.00  0.00    +0.000 A 
ATOM     12  C14 UNL     1      19.253  -6.589 -46.815  0.00  0.00    +0.000 A 
ATOM     13  C15 UNL     1      18.786  -6.387 -48.127  0.00  0.00    +0.000 A 
ATOM     14  C16 UNL     1      19.682  -6.412 -49.215  0.00  0.00    +0.000 A 
ATOM     15  C17 UNL     1      21.051  -6.640 -49.001  0.00  0.00    +0.000 A 
ATOM     16  C18 UNL     1      21.486  -6.837 -47.694  0.00  0.00    +0.000 A 
ATOM     17  S1  UNL     1      23.038  -7.127 -47.135  0.00  0.00    +0.000 S 
ENDBRANCH   6   9
ENDBRANCH   2   3
BRANCH   1  19
ATOM     18  C6  UNL     1      25.736  -8.621 -37.477  0.00  0.00    +0.000 C 
ATOM     19  N1  UNL     1      26.279  -8.480 -38.645  0.00  0.00    +0.000 NA
BRANCH  18  23
ATOM     20  C2  UNL     1      28.198  -9.385 -34.022  0.00  0.00    +0.000 A 
ATOM     21  C3  UNL     1      28.553  -9.877 -35.286  0.00  0.00    +0.000 A 
ATOM     22  C4  UNL     1      27.749  -9.624 -36.394  0.00  0.00    +0.000 A 
ATOM     23  C5  UNL     1      26.567  -8.871 -36.272  0.00  0.00    +0.000 A 
ATOM     24  C21 UNL     1      26.199  -8.369 -34.998  0.00  0.00    +0.000 A 
ATOM     25  I1  UNL     1      24.413  -7.217 -34.744  0.00  0.00    +0.000 I 
ATOM     26  C22 UNL     1      27.024  -8.632 -33.878  0.00  0.00    +0.000 A 
BRANCH  20  28
ATOM     27  C1  UNL     1      30.345  -9.228 -32.747  0.00  0.00    +0.000 C 
ATOM     28  O1  UNL     1      28.983  -9.620 -32.884  0.00  0.00    +0.000 OA
ENDBRANCH  20  28
BRANCH  26  29
ATOM     29  O3  UNL     1      26.707  -8.161 -32.602  0.00  0.00    +0.000 OA
ATOM     30  H16 UNL     1      27.310  -7.560 -32.059  0.00  0.00    +0.000 HD
ENDBRANCH  26  29
ENDBRANCH  18  23
ENDBRANCH   1  19
BRANCH   2  31
ATOM     31  O2  UNL     1      27.369  -8.361 -41.181  0.00  0.00    +0.000 OA
ATOM     32  H7  UNL     1      27.766  -8.557 -42.092  0.00  0.00    +0.000 HD
ENDBRANCH   2  31
TORSDOF 7
ENDMDL
MODEL 9
REMARK VINA RESULT:    -5.525      4.390     12.341
REMARK INTER + INTRA:          -7.996
REMARK INTER:                  -7.517
REMARK INTRA:                  -0.479
REMARK UNBOUND:                -0.534
REMARK  Name = resultss/4CJN/ligands/lig_184_t1.pdb
REMARK  8 active torsions:
REMARK  status: ('A' for Active; 'I' for Inactive)
REMARK    1  A    between atoms: C1_1  and  O1_2
REMARK    2  A    between atoms: O1_2  and  C2_3
REMARK    3  A    between atoms: C5_6  and  C6_7
REMARK    4  A    between atoms: N1_8  and  N2_9
REMARK    5  A    between atoms: C7_10  and  O2_11
REMARK    6  A    between atoms: C7_10  and  C8_12
REMARK    7  A    between atoms: C11_15  and  C12_16
REMARK    8  A    between atoms: C22_29  and  O3_30
REMARK                            x       y       z     vdW  Elec       q    Type
REMARK                         _______ _______ _______ _____ _____    ______ ____
ROOT
ATOM      1  N2  UNL     1      25.059  -8.419 -39.628  0.00  0.00    +0.000 NA
ATOM      2  C7  UNL     1      25.155  -7.347 -40.359  0.00  0.00    +0.000 C 
ENDROOT
BRANCH   2   3
ATOM      3  C8  UNL     1      24.399  -7.248 -41.631  0.00  0.00    +0.000 A 
ATOM      4  C9  UNL     1      23.067  -7.691 -41.720  0.00  0.00    +0.000 A 
ATOM      5  C10 UNL     1      22.364  -7.591 -42.925  0.00  0.00    +0.000 A 
ATOM      6  C11 UNL     1      22.976  -7.048 -44.067  0.00  0.00    +0.000 A 
ATOM      7  C19 UNL     1      24.307  -6.606 -43.978  0.00  0.00    +0.000 A 
ATOM      8  C20 UNL     1      25.009  -6.704 -42.774  0.00  0.00    +0.000 A 
BRANCH   6   9
ATOM      9  C12 UNL     1      22.221  -6.948 -45.338  0.00  0.00    +0.000 A 
ATOM     10  N3  UNL     1      20.867  -7.022 -45.406  0.00  0.00    +0.000 NA
ATOM     11  C13 UNL     1      20.426  -6.903 -46.684  0.00  0.00    +0.000 A 
ATOM     12  C14 UNL     1      19.083  -6.941 -47.062  0.00  0.00    +0.000 A 
ATOM     13  C15 UNL     1      18.761  -6.806 -48.425  0.00  0.00    +0.000 A 
ATOM     14  C16 UNL     1      19.778  -6.634 -49.384  0.00  0.00    +0.000 A 
ATOM     15  C17 UNL     1      21.126  -6.597 -48.992  0.00  0.00    +0.000 A 
ATOM     16  C18 UNL     1      21.416  -6.734 -47.637  0.00  0.00    +0.000 A 
ATOM     17  S1  UNL     1      22.909  -6.731 -46.877  0.00  0.00    +0.000 S 
ENDBRANCH   6   9
ENDBRANCH   2   3
BRANCH   1  19
ATOM     18  C6  UNL     1      26.683  -9.455 -38.291  0.00  0.00    +0.000 C 
ATOM     19  N1  UNL     1      25.752  -8.564 -38.419  0.00  0.00    +0.000 NA
BRANCH  18  23
ATOM     20  C2  UNL     1      28.758  -9.922 -34.541  0.00  0.00    +0.000 A 
ATOM     21  C3  UNL     1      27.358  -9.978 -34.604  0.00  0.00    +0.000 A 
ATOM     22  C4  UNL     1      26.700  -9.826 -35.822  0.00  0.00    +0.000 A 
ATOM     23  C5  UNL     1      27.420  -9.613 -37.011  0.00  0.00    +0.000 A 
ATOM     24  C21 UNL     1      28.837  -9.554 -36.958  0.00  0.00    +0.000 A 
ATOM     25  I1  UNL     1      29.992  -9.233 -38.730  0.00  0.00    +0.000 I 
ATOM     26  C22 UNL     1      29.495  -9.711 -35.714  0.00  0.00    +0.000 A 
BRANCH  20  28
ATOM     27  C1  UNL     1      29.886  -8.993 -32.510  0.00  0.00    +0.000 C 
ATOM     28  O1  UNL     1      29.455 -10.072 -33.332  0.00  0.00    +0.000 OA
ENDBRANCH  20  28
BRANCH  26  29
ATOM     29  O3  UNL     1      30.888  -9.662 -35.606  0.00  0.00    +0.000 OA
ATOM     30  H16 UNL     1      31.383  -9.642 -34.726  0.00  0.00    +0.000 HD
ENDBRANCH  26  29
ENDBRANCH  18  23
ENDBRANCH   1  19
BRANCH   2  31
ATOM     31  O2  UNL     1      25.966  -6.280 -39.959  0.00  0.00    +0.000 OA
ATOM     32  H7  UNL     1      26.101  -6.028 -38.988  0.00  0.00    +0.000 HD
ENDBRANCH   2  31
TORSDOF 7
ENDMDL
