MODEL 1
REMARK VINA RESULT:    -7.010      0.000      0.000
REMARK INTER + INTRA:         -10.393
REMARK INTER:                  -9.469
REMARK INTRA:                  -0.924
REMARK UNBOUND:                -0.924
REMARK  Name = resultss/4CJN/ligands/lig_93_t0.pdb
REMARK  10 active torsions:
REMARK  status: ('A' for Active; 'I' for Inactive)
REMARK    1  A    between atoms: C6_6  and  C7_7
REMARK    2  A    between atoms: C6_6  and  C8_8
REMARK    3  A    between atoms: C8_8  and  O1_9
REMARK    4  A    between atoms: C9_10  and  O2_11
REMARK    5  A    between atoms: C12_14  and  C13_15
REMARK    6  A    between atoms: C14_16  and  C15_17
REMARK    7  A    between atoms: C16_18  and  C17_19
REMARK    8  A    between atoms: C20_22  and  C21_23
REMARK    9  A    between atoms: C24_26  and  O3_27
REMARK   10  A    between atoms: O3_27  and  C25_28
REMARK                            x       y       z     vdW  Elec       q    Type
REMARK                         _______ _______ _______ _____ _____    ______ ____
ROOT
ATOM      1  C1  UNL     1      30.320  -8.280 -34.268  0.00  0.00    +0.000 C 
ATOM      2  C2  UNL     1      28.979  -8.151 -34.256  0.00  0.00    +0.000 C 
ATOM      3  C3  UNL     1      28.345  -7.648 -32.975  0.00  0.00    +0.000 C 
ATOM      4  C4  UNL     1      26.868  -8.022 -32.843  0.00  0.00    +0.000 C 
ATOM      5  C5  UNL     1      26.079  -7.690 -34.136  0.00  0.00    +0.000 C 
ATOM      6  C6  UNL     1      24.494  -7.604 -33.975  0.00  0.00    +0.000 C 
ATOM      7  C7  UNL     1      24.145  -6.390 -33.064  0.00  0.00    +0.000 C 
ATOM      8  C9  UNL     1      23.871  -7.297 -35.380  0.00  0.00    +0.000 C 
ATOM      9  C10 UNL     1      24.355  -8.260 -36.478  0.00  0.00    +0.000 C 
ATOM     10  C11 UNL     1      25.869  -8.166 -36.645  0.00  0.00    +0.000 C 
ATOM     11  C12 UNL     1      26.651  -8.528 -35.348  0.00  0.00    +0.000 C 
ATOM     12  C13 UNL     1      26.565 -10.063 -35.104  0.00  0.00    +0.000 C 
ATOM     13  C14 UNL     1      28.163  -8.113 -35.557  0.00  0.00    +0.000 C 
ENDROOT
BRANCH   8  14
ATOM     14  O2  UNL     1      22.463  -7.247 -35.338  0.00  0.00    +0.000 OA
ATOM     15  H15 UNL     1      22.194  -6.460 -34.797  0.00  0.00    +0.000 HD
ENDBRANCH   8  14
BRANCH  13  16
ATOM     16  C15 UNL     1      28.810  -8.828 -36.738  0.00  0.00    +0.000 C 
ATOM     17  C16 UNL     1      29.233  -8.199 -37.842  0.00  0.00    +0.000 C 
BRANCH  17  18
ATOM     18  C17 UNL     1      29.888  -8.893 -38.968  0.00  0.00    +0.000 C 
ATOM     19  C18 UNL     1      29.231  -9.547 -39.921  0.00  0.00    +0.000 C 
ATOM     20  C19 UNL     1      30.215 -10.063 -40.875  0.00  0.00    +0.000 C 
ATOM     21  C20 UNL     1      29.929 -10.800 -41.954  0.00  0.00    +0.000 C 
ATOM     22  O4  UNL     1      31.491  -9.695 -40.469  0.00  0.00    +0.000 OA
ATOM     23  C28 UNL     1      31.315  -8.968 -39.304  0.00  0.00    +0.000 C 
ATOM     24  O5  UNL     1      32.260  -8.428 -38.672  0.00  0.00    +0.000 OA
BRANCH  21  25
ATOM     25  C21 UNL     1      30.948 -11.301 -42.904  0.00  0.00    +0.000 A 
ATOM     26  C22 UNL     1      31.648 -10.441 -43.769  0.00  0.00    +0.000 A 
ATOM     27  C23 UNL     1      32.584 -10.955 -44.674  0.00  0.00    +0.000 A 
ATOM     28  C24 UNL     1      32.824 -12.341 -44.736  0.00  0.00    +0.000 A 
ATOM     29  C26 UNL     1      32.112 -13.194 -43.889  0.00  0.00    +0.000 A 
ATOM     30  C27 UNL     1      31.175 -12.683 -42.986  0.00  0.00    +0.000 A 
BRANCH  28  31
ATOM     31  O3  UNL     1      33.751 -12.903 -45.626  0.00  0.00    +0.000 OA
ATOM     32  C25 UNL     1      33.493 -14.039 -46.445  0.00  0.00    +0.000 C 
ENDBRANCH  28  31
ENDBRANCH  21  25
ENDBRANCH  17  18
ENDBRANCH  13  16
BRANCH   6  33
ATOM     33  C8  UNL     1      23.794  -8.859 -33.349  0.00  0.00    +0.000 C 
BRANCH  33  34
ATOM     34  O1  UNL     1      23.288  -8.621 -32.063  0.00  0.00    +0.000 OA
ATOM     35  H13 UNL     1      23.608  -7.725 -31.783  0.00  0.00    +0.000 HD
ENDBRANCH  33  34
ENDBRANCH   6  33
TORSDOF 7
ENDMDL
MODEL 2
REMARK VINA RESULT:    -6.131      4.187      6.308
REMARK INTER + INTRA:          -9.206
REMARK INTER:                  -8.255
REMARK INTRA:                  -0.951
REMARK UNBOUND:                -0.924
REMARK  Name = resultss/4CJN/ligands/lig_93_t0.pdb
REMARK  10 active torsions:
REMARK  status: ('A' for Active; 'I' for Inactive)
REMARK    1  A    between atoms: C6_6  and  C7_7
REMARK    2  A    between atoms: C6_6  and  C8_8
REMARK    3  A    between atoms: C8_8  and  O1_9
REMARK    4  A    between atoms: C9_10  and  O2_11
REMARK    5  A    between atoms: C12_14  and  C13_15
REMARK    6  A    between atoms: C14_16  and  C15_17
REMARK    7  A    between atoms: C16_18  and  C17_19
REMARK    8  A    between atoms: C20_22  and  C21_23
REMARK    9  A    between atoms: C24_26  and  O3_27
REMARK   10  A    between atoms: O3_27  and  C25_28
REMARK                            x       y       z     vdW  Elec       q    Type
REMARK                         _______ _______ _______ _____ _____    ______ ____
ROOT
ATOM      1  C1  UNL     1      26.133  -9.629 -35.945  0.00  0.00    +0.000 C 
ATOM      2  C2  UNL     1      27.369  -9.541 -35.415  0.00  0.00    +0.000 C 
ATOM      3  C3  UNL     1      27.498  -9.773 -33.924  0.00  0.00    +0.000 C 
ATOM      4  C4  UNL     1      28.762  -9.156 -33.322  0.00  0.00    +0.000 C 
ATOM      5  C5  UNL     1      30.021  -9.518 -34.151  0.00  0.00    +0.000 C 
ATOM      6  C6  UNL     1      31.418  -9.331 -33.402  0.00  0.00    +0.000 C 
ATOM      7  C7  UNL     1      31.501 -10.351 -32.228  0.00  0.00    +0.000 C 
ATOM      8  C9  UNL     1      32.567  -9.709 -34.399  0.00  0.00    +0.000 C 
ATOM      9  C10 UNL     1      32.458  -8.980 -35.749  0.00  0.00    +0.000 C 
ATOM     10  C11 UNL     1      31.147  -9.333 -36.445  0.00  0.00    +0.000 C 
ATOM     11  C12 UNL     1      29.889  -8.940 -35.616  0.00  0.00    +0.000 C 
ATOM     12  C13 UNL     1      29.722  -7.392 -35.632  0.00  0.00    +0.000 C 
ATOM     13  C14 UNL     1      28.628  -9.613 -36.292  0.00  0.00    +0.000 C 
ENDROOT
BRANCH   8  14
ATOM     14  O2  UNL     1      33.844  -9.530 -33.830  0.00  0.00    +0.000 OA
ATOM     15  H15 UNL     1      33.903 -10.086 -33.010  0.00  0.00    +0.000 HD
ENDBRANCH   8  14
BRANCH  13  16
ATOM     16  C15 UNL     1      28.426  -9.163 -37.735  0.00  0.00    +0.000 C 
ATOM     17  C16 UNL     1      28.281 -10.010 -38.762  0.00  0.00    +0.000 C 
BRANCH  17  18
ATOM     18  C17 UNL     1      28.055  -9.569 -40.151  0.00  0.00    +0.000 C 
ATOM     19  C18 UNL     1      27.377  -8.474 -40.482  0.00  0.00    +0.000 C 
ATOM     20  C19 UNL     1      27.401  -8.352 -41.941  0.00  0.00    +0.000 C 
ATOM     21  C20 UNL     1      26.798  -7.387 -42.644  0.00  0.00    +0.000 C 
ATOM     22  O4  UNL     1      28.120  -9.409 -42.483  0.00  0.00    +0.000 OA
ATOM     23  C28 UNL     1      28.539 -10.165 -41.402  0.00  0.00    +0.000 C 
ATOM     24  O5  UNL     1      29.265 -11.189 -41.509  0.00  0.00    +0.000 OA
BRANCH  21  25
ATOM     25  C21 UNL     1      26.847  -7.287 -44.120  0.00  0.00    +0.000 A 
ATOM     26  C22 UNL     1      28.063  -7.283 -44.827  0.00  0.00    +0.000 A 
ATOM     27  C23 UNL     1      28.070  -7.159 -46.221  0.00  0.00    +0.000 A 
ATOM     28  C24 UNL     1      26.861  -7.023 -46.929  0.00  0.00    +0.000 A 
ATOM     29  C26 UNL     1      25.656  -7.007 -46.220  0.00  0.00    +0.000 A 
ATOM     30  C27 UNL     1      25.646  -7.129 -44.828  0.00  0.00    +0.000 A 
BRANCH  28  31
ATOM     31  O3  UNL     1      26.818  -6.894 -48.325  0.00  0.00    +0.000 OA
ATOM     32  C25 UNL     1      25.961  -5.998 -49.024  0.00  0.00    +0.000 C 
ENDBRANCH  28  31
ENDBRANCH  21  25
ENDBRANCH  17  18
ENDBRANCH  13  16
BRANCH   6  33
ATOM     33  C8  UNL     1      31.690  -7.912 -32.793  0.00  0.00    +0.000 C 
BRANCH  33  34
ATOM     34  O1  UNL     1      32.482  -7.953 -31.637  0.00  0.00    +0.000 OA
ATOM     35  H13 UNL     1      32.001  -8.510 -30.971  0.00  0.00    +0.000 HD
ENDBRANCH  33  34
ENDBRANCH   6  33
TORSDOF 7
ENDMDL
MODEL 3
REMARK VINA RESULT:    -5.523      6.501      8.817
REMARK INTER + INTRA:          -8.384
REMARK INTER:                  -8.266
REMARK INTRA:                  -0.117
REMARK UNBOUND:                -0.924
REMARK  Name = resultss/4CJN/ligands/lig_93_t0.pdb
REMARK  10 active torsions:
REMARK  status: ('A' for Active; 'I' for Inactive)
REMARK    1  A    between atoms: C6_6  and  C7_7
REMARK    2  A    between atoms: C6_6  and  C8_8
REMARK    3  A    between atoms: C8_8  and  O1_9
REMARK    4  A    between atoms: C9_10  and  O2_11
REMARK    5  A    between atoms: C12_14  and  C13_15
REMARK    6  A    between atoms: C14_16  and  C15_17
REMARK    7  A    between atoms: C16_18  and  C17_19
REMARK    8  A    between atoms: C20_22  and  C21_23
REMARK    9  A    between atoms: C24_26  and  O3_27
REMARK   10  A    between atoms: O3_27  and  C25_28
REMARK                            x       y       z     vdW  Elec       q    Type
REMARK                         _______ _______ _______ _____ _____    ______ ____
ROOT
ATOM      1  C1  UNL     1      27.574  -6.050 -39.850  0.00  0.00    +0.000 C 
ATOM      2  C2  UNL     1      27.243  -6.561 -38.647  0.00  0.00    +0.000 C 
ATOM      3  C3  UNL     1      28.364  -6.753 -37.647  0.00  0.00    +0.000 C 
ATOM      4  C4  UNL     1      28.040  -7.784 -36.564  0.00  0.00    +0.000 C 
ATOM      5  C5  UNL     1      26.643  -7.533 -35.940  0.00  0.00    +0.000 C 
ATOM      6  C6  UNL     1      26.382  -8.230 -34.528  0.00  0.00    +0.000 C 
ATOM      7  C7  UNL     1      27.329  -7.591 -33.469  0.00  0.00    +0.000 C 
ATOM      8  C9  UNL     1      24.920  -7.895 -34.075  0.00  0.00    +0.000 C 
ATOM      9  C10 UNL     1      23.868  -8.210 -35.152  0.00  0.00    +0.000 C 
ATOM     10  C11 UNL     1      24.129  -7.392 -36.413  0.00  0.00    +0.000 C 
ATOM     11  C12 UNL     1      25.523  -7.672 -37.047  0.00  0.00    +0.000 C 
ATOM     12  C13 UNL     1      25.515  -9.079 -37.713  0.00  0.00    +0.000 C 
ATOM     13  C14 UNL     1      25.790  -6.570 -38.150  0.00  0.00    +0.000 C 
ENDROOT
BRANCH   8  14
ATOM     14  O2  UNL     1      24.589  -8.511 -32.851  0.00  0.00    +0.000 OA
ATOM     15  H15 UNL     1      25.370  -8.439 -32.243  0.00  0.00    +0.000 HD
ENDBRANCH   8  14
BRANCH  13  16
ATOM     16  C15 UNL     1      24.737  -6.578 -39.253  0.00  0.00    +0.000 C 
ATOM     17  C16 UNL     1      24.645  -7.538 -40.181  0.00  0.00    +0.000 C 
BRANCH  17  18
ATOM     18  C17 UNL     1      23.604  -7.557 -41.227  0.00  0.00    +0.000 C 
ATOM     19  C18 UNL     1      22.707  -6.591 -41.400  0.00  0.00    +0.000 C 
ATOM     20  C19 UNL     1      21.876  -6.949 -42.552  0.00  0.00    +0.000 C 
ATOM     21  C20 UNL     1      20.846  -6.230 -43.011  0.00  0.00    +0.000 C 
ATOM     22  O4  UNL     1      22.304  -8.162 -43.073  0.00  0.00    +0.000 OA
ATOM     23  C28 UNL     1      23.371  -8.551 -42.282  0.00  0.00    +0.000 C 
ATOM     24  O5  UNL     1      24.047  -9.593 -42.489  0.00  0.00    +0.000 OA
BRANCH  21  25
ATOM     25  C21 UNL     1      20.029  -6.616 -44.184  0.00  0.00    +0.000 A 
ATOM     26  C22 UNL     1      20.546  -6.596 -45.492  0.00  0.00    +0.000 A 
ATOM     27  C23 UNL     1      19.735  -6.940 -46.578  0.00  0.00    +0.000 A 
ATOM     28  C24 UNL     1      18.388  -7.295 -46.375  0.00  0.00    +0.000 A 
ATOM     29  C26 UNL     1      17.871  -7.293 -45.076  0.00  0.00    +0.000 A 
ATOM     30  C27 UNL     1      18.680  -6.948 -43.989  0.00  0.00    +0.000 A 
BRANCH  28  31
ATOM     31  O3  UNL     1      17.535  -7.646 -47.432  0.00  0.00    +0.000 OA
ATOM     32  C25 UNL     1      16.147  -7.334 -47.485  0.00  0.00    +0.000 C 
ENDBRANCH  28  31
ENDBRANCH  21  25
ENDBRANCH  17  18
ENDBRANCH  13  16
BRANCH   6  33
ATOM     33  C8  UNL     1      26.614  -9.779 -34.470  0.00  0.00    +0.000 C 
BRANCH  33  34
ATOM     34  O1  UNL     1      25.420 -10.514 -34.472  0.00  0.00    +0.000 OA
ATOM     35  H13 UNL     1      25.453 -11.127 -35.251  0.00  0.00    +0.000 HD
ENDBRANCH  33  34
ENDBRANCH   6  33
TORSDOF 7
ENDMDL
MODEL 4
REMARK VINA RESULT:    -5.494      5.938      7.713
REMARK INTER + INTRA:          -8.345
REMARK INTER:                  -7.835
REMARK INTRA:                  -0.511
REMARK UNBOUND:                -0.924
REMARK  Name = resultss/4CJN/ligands/lig_93_t0.pdb
REMARK  10 active torsions:
REMARK  status: ('A' for Active; 'I' for Inactive)
REMARK    1  A    between atoms: C6_6  and  C7_7
REMARK    2  A    between atoms: C6_6  and  C8_8
REMARK    3  A    between atoms: C8_8  and  O1_9
REMARK    4  A    between atoms: C9_10  and  O2_11
REMARK    5  A    between atoms: C12_14  and  C13_15
REMARK    6  A    between atoms: C14_16  and  C15_17
REMARK    7  A    between atoms: C16_18  and  C17_19
REMARK    8  A    between atoms: C20_22  and  C21_23
REMARK    9  A    between atoms: C24_26  and  O3_27
REMARK   10  A    between atoms: O3_27  and  C25_28
REMARK                            x       y       z     vdW  Elec       q    Type
REMARK                         _______ _______ _______ _____ _____    ______ ____
ROOT
ATOM      1  C1  UNL     1      30.535  -9.522 -41.000  0.00  0.00    +0.000 C 
ATOM      2  C2  UNL     1      30.255  -9.293 -39.702  0.00  0.00    +0.000 C 
ATOM      3  C3  UNL     1      31.267  -9.773 -38.683  0.00  0.00    +0.000 C 
ATOM      4  C4  UNL     1      30.675  -9.965 -37.285  0.00  0.00    +0.000 C 
ATOM      5  C5  UNL     1      29.840  -8.736 -36.847  0.00  0.00    +0.000 C 
ATOM      6  C6  UNL     1      29.558  -8.614 -35.281  0.00  0.00    +0.000 C 
ATOM      7  C7  UNL     1      30.908  -8.367 -34.544  0.00  0.00    +0.000 C 
ATOM      8  C9  UNL     1      28.679  -7.340 -35.034  0.00  0.00    +0.000 C 
ATOM      9  C10 UNL     1      27.422  -7.295 -35.919  0.00  0.00    +0.000 C 
ATOM     10  C11 UNL     1      27.805  -7.278 -37.396  0.00  0.00    +0.000 C 
ATOM     11  C12 UNL     1      28.620  -8.531 -37.831  0.00  0.00    +0.000 C 
ATOM     12  C13 UNL     1      27.678  -9.771 -37.877  0.00  0.00    +0.000 C 
ATOM     13  C14 UNL     1      29.201  -8.259 -39.277  0.00  0.00    +0.000 C 
ENDROOT
BRANCH   8  14
ATOM     14  O2  UNL     1      28.345  -7.181 -33.674  0.00  0.00    +0.000 OA
ATOM     15  H15 UNL     1      29.136  -6.817 -33.198  0.00  0.00    +0.000 HD
ENDBRANCH   8  14
BRANCH  13  16
ATOM     16  C15 UNL     1      28.109  -8.000 -40.309  0.00  0.00    +0.000 C 
ATOM     17  C16 UNL     1      27.589  -8.953 -41.092  0.00  0.00    +0.000 C 
BRANCH  17  18
ATOM     18  C17 UNL     1      26.510  -8.702 -42.067  0.00  0.00    +0.000 C 
ATOM     19  C18 UNL     1      26.497  -7.675 -42.912  0.00  0.00    +0.000 C 
ATOM     20  C19 UNL     1      25.292  -7.787 -43.738  0.00  0.00    +0.000 C 
ATOM     21  C20 UNL     1      24.923  -6.917 -44.684  0.00  0.00    +0.000 C 
ATOM     22  O4  UNL     1      24.579  -8.919 -43.366  0.00  0.00    +0.000 OA
ATOM     23  C28 UNL     1      25.312  -9.502 -42.347  0.00  0.00    +0.000 C 
ATOM     24  O5  UNL     1      24.990 -10.584 -41.790  0.00  0.00    +0.000 OA
BRANCH  21  25
ATOM     25  C21 UNL     1      23.702  -7.063 -45.508  0.00  0.00    +0.000 A 
ATOM     26  C22 UNL     1      23.748  -7.520 -46.837  0.00  0.00    +0.000 A 
ATOM     27  C23 UNL     1      22.575  -7.617 -47.593  0.00  0.00    +0.000 A 
ATOM     28  C24 UNL     1      21.337  -7.246 -47.036  0.00  0.00    +0.000 A 
ATOM     29  C26 UNL     1      21.297  -6.773 -45.721  0.00  0.00    +0.000 A 
ATOM     30  C27 UNL     1      22.468  -6.672 -44.964  0.00  0.00    +0.000 A 
BRANCH  28  31
ATOM     31  O3  UNL     1      20.135  -7.325 -47.754  0.00  0.00    +0.000 OA
ATOM     32  C25 UNL     1      18.861  -7.570 -47.167  0.00  0.00    +0.000 C 
ENDBRANCH  28  31
ENDBRANCH  21  25
ENDBRANCH  17  18
ENDBRANCH  13  16
BRANCH   6  33
ATOM     33  C8  UNL     1      28.890  -9.859 -34.601  0.00  0.00    +0.000 C 
BRANCH  33  34
ATOM     34  O1  UNL     1      29.277 -10.028 -33.264  0.00  0.00    +0.000 OA
ATOM     35  H13 UNL     1      29.925 -10.779 -33.239  0.00  0.00    +0.000 HD
ENDBRANCH  33  34
ENDBRANCH   6  33
TORSDOF 7
ENDMDL
MODEL 5
REMARK VINA RESULT:    -5.475      5.550      6.558
REMARK INTER + INTRA:          -8.319
REMARK INTER:                  -8.305
REMARK INTRA:                  -0.014
REMARK UNBOUND:                -0.924
REMARK  Name = resultss/4CJN/ligands/lig_93_t0.pdb
REMARK  10 active torsions:
REMARK  status: ('A' for Active; 'I' for Inactive)
REMARK    1  A    between atoms: C6_6  and  C7_7
REMARK    2  A    between atoms: C6_6  and  C8_8
REMARK    3  A    between atoms: C8_8  and  O1_9
REMARK    4  A    between atoms: C9_10  and  O2_11
REMARK    5  A    between atoms: C12_14  and  C13_15
REMARK    6  A    between atoms: C14_16  and  C15_17
REMARK    7  A    between atoms: C16_18  and  C17_19
REMARK    8  A    between atoms: C20_22  and  C21_23
REMARK    9  A    between atoms: C24_26  and  O3_27
REMARK   10  A    between atoms: O3_27  and  C25_28
REMARK                            x       y       z     vdW  Elec       q    Type
REMARK                         _______ _______ _______ _____ _____    ______ ____
ROOT
ATOM      1  C1  UNL     1      29.505  -9.616 -38.567  0.00  0.00    +0.000 C 
ATOM      2  C2  UNL     1      28.816  -9.208 -37.483  0.00  0.00    +0.000 C 
ATOM      3  C3  UNL     1      29.342  -9.635 -36.129  0.00  0.00    +0.000 C 
ATOM      4  C4  UNL     1      28.279  -9.606 -35.030  0.00  0.00    +0.000 C 
ATOM      5  C5  UNL     1      27.492  -8.270 -35.033  0.00  0.00    +0.000 C 
ATOM      6  C6  UNL     1      26.695  -7.934 -33.692  0.00  0.00    +0.000 C 
ATOM      7  C7  UNL     1      27.719  -7.703 -32.542  0.00  0.00    +0.000 C 
ATOM      8  C9  UNL     1      25.940  -6.576 -33.894  0.00  0.00    +0.000 C 
ATOM      9  C10 UNL     1      25.088  -6.544 -35.174  0.00  0.00    +0.000 C 
ATOM     10  C11 UNL     1      25.965  -6.739 -36.407  0.00  0.00    +0.000 C 
ATOM     11  C12 UNL     1      26.729  -8.096 -36.406  0.00  0.00    +0.000 C 
ATOM     12  C13 UNL     1      25.725  -9.255 -36.681  0.00  0.00    +0.000 C 
ATOM     13  C14 UNL     1      27.808  -8.051 -37.561  0.00  0.00    +0.000 C 
ENDROOT
BRANCH   8  14
ATOM     14  O2  UNL     1      25.171  -6.223 -32.766  0.00  0.00    +0.000 OA
ATOM     15  H15 UNL     1      24.425  -6.873 -32.681  0.00  0.00    +0.000 HD
ENDBRANCH   8  14
BRANCH  13  16
ATOM     16  C15 UNL     1      27.186  -7.837 -38.937  0.00  0.00    +0.000 C 
ATOM     17  C16 UNL     1      26.499  -8.781 -39.593  0.00  0.00    +0.000 C 
BRANCH  17  18
ATOM     18  C17 UNL     1      25.872  -8.558 -40.910  0.00  0.00    +0.000 C 
ATOM     19  C18 UNL     1      25.853  -7.384 -41.535  0.00  0.00    +0.000 C 
ATOM     20  C19 UNL     1      25.180  -7.569 -42.823  0.00  0.00    +0.000 C 
ATOM     21  C20 UNL     1      24.947  -6.602 -43.716  0.00  0.00    +0.000 C 
ATOM     22  O4  UNL     1      24.798  -8.897 -42.959  0.00  0.00    +0.000 OA
ATOM     23  C28 UNL     1      25.220  -9.526 -41.800  0.00  0.00    +0.000 C 
ATOM     24  O5  UNL     1      25.085 -10.760 -41.590  0.00  0.00    +0.000 OA
BRANCH  21  25
ATOM     25  C21 UNL     1      24.270  -6.824 -45.014  0.00  0.00    +0.000 A 
ATOM     26  C22 UNL     1      24.989  -6.991 -46.211  0.00  0.00    +0.000 A 
ATOM     27  C23 UNL     1      24.314  -7.170 -47.423  0.00  0.00    +0.000 A 
ATOM     28  C24 UNL     1      22.907  -7.171 -47.459  0.00  0.00    +0.000 A 
ATOM     29  C26 UNL     1      22.195  -6.984 -46.270  0.00  0.00    +0.000 A 
ATOM     30  C27 UNL     1      22.868  -6.803 -45.059  0.00  0.00    +0.000 A 
BRANCH  28  31
ATOM     31  O3  UNL     1      22.186  -7.346 -48.649  0.00  0.00    +0.000 OA
ATOM     32  C25 UNL     1      21.026  -6.599 -49.005  0.00  0.00    +0.000 C 
ENDBRANCH  28  31
ENDBRANCH  21  25
ENDBRANCH  17  18
ENDBRANCH  13  16
BRANCH   6  33
ATOM     33  C8  UNL     1      25.690  -9.030 -33.194  0.00  0.00    +0.000 C 
BRANCH  33  34
ATOM     34  O1  UNL     1      24.587  -8.495 -32.515  0.00  0.00    +0.000 OA
ATOM     35  H13 UNL     1      24.115  -9.252 -32.080  0.00  0.00    +0.000 HD
ENDBRANCH  33  34
ENDBRANCH   6  33
TORSDOF 7
ENDMDL
MODEL 6
REMARK VINA RESULT:    -5.439      8.511     10.828
REMARK INTER + INTRA:          -8.271
REMARK INTER:                  -7.326
REMARK INTRA:                  -0.945
REMARK UNBOUND:                -0.924
REMARK  Name = resultss/4CJN/ligands/lig_93_t0.pdb
REMARK  10 active torsions:
REMARK  status: ('A' for Active; 'I' for Inactive)
REMARK    1  A    between atoms: C6_6  and  C7_7
REMARK    2  A    between atoms: C6_6  and  C8_8
REMARK    3  A    between atoms: C8_8  and  O1_9
REMARK    4  A    between atoms: C9_10  and  O2_11
REMARK    5  A    between atoms: C12_14  and  C13_15
REMARK    6  A    between atoms: C14_16  and  C15_17
REMARK    7  A    between atoms: C16_18  and  C17_19
REMARK    8  A    between atoms: C20_22  and  C21_23
REMARK    9  A    between atoms: C24_26  and  O3_27
REMARK   10  A    between atoms: O3_27  and  C25_28
REMARK                            x       y       z     vdW  Elec       q    Type
REMARK                         _______ _______ _______ _____ _____    ______ ____
ROOT
ATOM      1  C1  UNL     1      27.516  -7.748 -44.626  0.00  0.00    +0.000 C 
ATOM      2  C2  UNL     1      27.463  -8.007 -43.305  0.00  0.00    +0.000 C 
ATOM      3  C3  UNL     1      28.781  -8.220 -42.590  0.00  0.00    +0.000 C 
ATOM      4  C4  UNL     1      28.642  -9.006 -41.285  0.00  0.00    +0.000 C 
ATOM      5  C5  UNL     1      27.503  -8.441 -40.399  0.00  0.00    +0.000 C 
ATOM      6  C6  UNL     1      27.551  -8.860 -38.860  0.00  0.00    +0.000 C 
ATOM      7  C7  UNL     1      28.814  -8.227 -38.205  0.00  0.00    +0.000 C 
ATOM      8  C9  UNL     1      26.313  -8.229 -38.137  0.00  0.00    +0.000 C 
ATOM      9  C10 UNL     1      24.981  -8.533 -38.845  0.00  0.00    +0.000 C 
ATOM     10  C11 UNL     1      24.988  -7.971 -40.264  0.00  0.00    +0.000 C 
ATOM     11  C12 UNL     1      26.119  -8.566 -41.152  0.00  0.00    +0.000 C 
ATOM     12  C13 UNL     1      25.770 -10.040 -41.515  0.00  0.00    +0.000 C 
ATOM     13  C14 UNL     1      26.205  -7.705 -42.476  0.00  0.00    +0.000 C 
ENDROOT
BRANCH   8  14
ATOM     14  O2  UNL     1      26.253  -8.587 -36.775  0.00  0.00    +0.000 OA
ATOM     15  H15 UNL     1      26.801  -7.942 -36.257  0.00  0.00    +0.000 HD
ENDBRANCH   8  14
BRANCH  13  16
ATOM     16  C15 UNL     1      24.902  -7.714 -43.267  0.00  0.00    +0.000 C 
ATOM     17  C16 UNL     1      24.255  -6.602 -43.641  0.00  0.00    +0.000 C 
BRANCH  17  18
ATOM     18  C17 UNL     1      23.011  -6.616 -44.434  0.00  0.00    +0.000 C 
ATOM     19  C18 UNL     1      22.945  -7.002 -45.705  0.00  0.00    +0.000 C 
ATOM     20  C19 UNL     1      21.546  -6.913 -46.131  0.00  0.00    +0.000 C 
ATOM     21  C20 UNL     1      21.095  -7.194 -47.358  0.00  0.00    +0.000 C 
ATOM     22  O4  UNL     1      20.767  -6.465 -45.072  0.00  0.00    +0.000 OA
ATOM     23  C28 UNL     1      21.644  -6.284 -44.016  0.00  0.00    +0.000 C 
ATOM     24  O5  UNL     1      21.282  -5.925 -42.865  0.00  0.00    +0.000 OA
BRANCH  21  25
ATOM     25  C21 UNL     1      19.672  -7.101 -47.755  0.00  0.00    +0.000 A 
ATOM     26  C22 UNL     1      18.654  -7.758 -47.041  0.00  0.00    +0.000 A 
ATOM     27  C23 UNL     1      17.323  -7.670 -47.463  0.00  0.00    +0.000 A 
ATOM     28  C24 UNL     1      16.991  -6.935 -48.616  0.00  0.00    +0.000 A 
ATOM     29  C26 UNL     1      18.008  -6.300 -49.336  0.00  0.00    +0.000 A 
ATOM     30  C27 UNL     1      19.338  -6.388 -48.916  0.00  0.00    +0.000 A 
BRANCH  28  31
ATOM     31  O3  UNL     1      15.672  -6.819 -49.079  0.00  0.00    +0.000 OA
ATOM     32  C25 UNL     1      14.678  -7.829 -48.939  0.00  0.00    +0.000 C 
ENDBRANCH  28  31
ENDBRANCH  21  25
ENDBRANCH  17  18
ENDBRANCH  13  16
BRANCH   6  33
ATOM     33  C8  UNL     1      27.609 -10.399 -38.566  0.00  0.00    +0.000 C 
BRANCH  33  34
ATOM     34  O1  UNL     1      27.933 -10.692 -37.234  0.00  0.00    +0.000 OA
ATOM     35  H13 UNL     1      28.061  -9.827 -36.766  0.00  0.00    +0.000 HD
ENDBRANCH  33  34
ENDBRANCH   6  33
TORSDOF 7
ENDMDL
MODEL 7
REMARK VINA RESULT:    -5.351      4.876      7.195
REMARK INTER + INTRA:          -8.152
REMARK INTER:                  -7.156
REMARK INTRA:                  -0.996
REMARK UNBOUND:                -0.924
REMARK  Name = resultss/4CJN/ligands/lig_93_t0.pdb
REMARK  10 active torsions:
REMARK  status: ('A' for Active; 'I' for Inactive)
REMARK    1  A    between atoms: C6_6  and  C7_7
REMARK    2  A    between atoms: C6_6  and  C8_8
REMARK    3  A    between atoms: C8_8  and  O1_9
REMARK    4  A    between atoms: C9_10  and  O2_11
REMARK    5  A    between atoms: C12_14  and  C13_15
REMARK    6  A    between atoms: C14_16  and  C15_17
REMARK    7  A    between atoms: C16_18  and  C17_19
REMARK    8  A    between atoms: C20_22  and  C21_23
REMARK    9  A    between atoms: C24_26  and  O3_27
REMARK   10  A    between atoms: O3_27  and  C25_28
REMARK                            x       y       z     vdW  Elec       q    Type
REMARK                         _______ _______ _______ _____ _____    ______ ____
ROOT
ATOM      1  C1  UNL     1      25.085  -7.856 -34.476  0.00  0.00    +0.000 C 
ATOM      2  C2  UNL     1      26.402  -8.079 -34.296  0.00  0.00    +0.000 C 
ATOM      3  C3  UNL     1      26.900  -8.150 -32.867  0.00  0.00    +0.000 C 
ATOM      4  C4  UNL     1      28.399  -7.873 -32.734  0.00  0.00    +0.000 C 
ATOM      5  C5  UNL     1      29.223  -8.698 -33.755  0.00  0.00    +0.000 C 
ATOM      6  C6  UNL     1      30.778  -8.849 -33.427  0.00  0.00    +0.000 C 
ATOM      7  C7  UNL     1      30.939  -9.690 -32.126  0.00  0.00    +0.000 C 
ATOM      8  C9  UNL     1      31.447  -9.677 -34.576  0.00  0.00    +0.000 C 
ATOM      9  C10 UNL     1      31.135  -9.124 -35.978  0.00  0.00    +0.000 C 
ATOM     10  C11 UNL     1      29.633  -9.149 -36.243  0.00  0.00    +0.000 C 
ATOM     11  C12 UNL     1      28.818  -8.296 -35.228  0.00  0.00    +0.000 C 
ATOM     12  C13 UNL     1      29.053  -6.784 -35.519  0.00  0.00    +0.000 C 
ATOM     13  C14 UNL     1      27.286  -8.636 -35.422  0.00  0.00    +0.000 C 
ENDROOT
BRANCH   8  14
ATOM     14  O2  UNL     1      32.836  -9.821 -34.388  0.00  0.00    +0.000 OA
ATOM     15  H15 UNL     1      33.205  -8.946 -34.098  0.00  0.00    +0.000 HD
ENDBRANCH   8  14
BRANCH  13  16
ATOM     16  C15 UNL     1      26.791  -8.331 -36.832  0.00  0.00    +0.000 C 
ATOM     17  C16 UNL     1      26.352  -9.268 -37.681  0.00  0.00    +0.000 C 
BRANCH  17  18
ATOM     18  C17 UNL     1      25.844  -8.963 -39.033  0.00  0.00    +0.000 C 
ATOM     19  C18 UNL     1      25.073  -7.917 -39.318  0.00  0.00    +0.000 C 
ATOM     20  C19 UNL     1      24.810  -7.932 -40.759  0.00  0.00    +0.000 C 
ATOM     21  C20 UNL     1      24.046  -7.049 -41.411  0.00  0.00    +0.000 C 
ATOM     22  O4  UNL     1      25.451  -9.019 -41.336  0.00  0.00    +0.000 OA
ATOM     23  C28 UNL     1      26.100  -9.663 -40.297  0.00  0.00    +0.000 C 
ATOM     24  O5  UNL     1      26.830 -10.676 -40.454  0.00  0.00    +0.000 OA
BRANCH  21  25
ATOM     25  C21 UNL     1      23.805  -7.087 -42.871  0.00  0.00    +0.000 A 
ATOM     26  C22 UNL     1      24.860  -7.097 -43.802  0.00  0.00    +0.000 A 
ATOM     27  C23 UNL     1      24.592  -7.104 -45.175  0.00  0.00    +0.000 A 
ATOM     28  C24 UNL     1      23.264  -7.086 -45.640  0.00  0.00    +0.000 A 
ATOM     29  C26 UNL     1      22.218  -7.055 -44.713  0.00  0.00    +0.000 A 
ATOM     30  C27 UNL     1      22.483  -7.046 -43.340  0.00  0.00    +0.000 A 
BRANCH  28  31
ATOM     31  O3  UNL     1      22.946  -7.091 -47.006  0.00  0.00    +0.000 OA
ATOM     32  C25 UNL     1      21.665  -7.422 -47.533  0.00  0.00    +0.000 C 
ENDBRANCH  28  31
ENDBRANCH  21  25
ENDBRANCH  17  18
ENDBRANCH  13  16
BRANCH   6  33
ATOM     33  C8  UNL     1      31.569  -7.513 -33.206  0.00  0.00    +0.000 C 
BRANCH  33  34
ATOM     34  O1  UNL     1      32.696  -7.671 -32.388  0.00  0.00    +0.000 OA
ATOM     35  H13 UNL     1      32.676  -6.940 -31.717  0.00  0.00    +0.000 HD
ENDBRANCH  33  34
ENDBRANCH   6  33
TORSDOF 7
ENDMDL
MODEL 8
REMARK VINA RESULT:    -5.318      4.323      9.067
REMARK INTER + INTRA:          -8.107
REMARK INTER:                  -7.149
REMARK INTRA:                  -0.958
REMARK UNBOUND:                -0.924
REMARK  Name = resultss/4CJN/ligands/lig_93_t0.pdb
REMARK  10 active torsions:
REMARK  status: ('A' for Active; 'I' for Inactive)
REMARK    1  A    between atoms: C6_6  and  C7_7
REMARK    2  A    between atoms: C6_6  and  C8_8
REMARK    3  A    between atoms: C8_8  and  O1_9
REMARK    4  A    between atoms: C9_10  and  O2_11
REMARK    5  A    between atoms: C12_14  and  C13_15
REMARK    6  A    between atoms: C14_16  and  C15_17
REMARK    7  A    between atoms: C16_18  and  C17_19
REMARK    8  A    between atoms: C20_22  and  C21_23
REMARK    9  A    between atoms: C24_26  and  O3_27
REMARK   10  A    between atoms: O3_27  and  C25_28
REMARK                            x       y       z     vdW  Elec       q    Type
REMARK                         _______ _______ _______ _____ _____    ______ ____
ROOT
ATOM      1  C1  UNL     1      29.040 -10.753 -41.185  0.00  0.00    +0.000 C 
ATOM      2  C2  UNL     1      27.950  -9.974 -41.327  0.00  0.00    +0.000 C 
ATOM      3  C3  UNL     1      27.247 -10.008 -42.668  0.00  0.00    +0.000 C 
ATOM      4  C4  UNL     1      26.393  -8.768 -42.937  0.00  0.00    +0.000 C 
ATOM      5  C5  UNL     1      25.481  -8.433 -41.730  0.00  0.00    +0.000 C 
ATOM      6  C6  UNL     1      24.247  -7.471 -42.043  0.00  0.00    +0.000 C 
ATOM      7  C7  UNL     1      23.262  -8.208 -42.997  0.00  0.00    +0.000 C 
ATOM      8  C9  UNL     1      23.465  -7.220 -40.707  0.00  0.00    +0.000 C 
ATOM      9  C10 UNL     1      24.372  -6.750 -39.557  0.00  0.00    +0.000 C 
ATOM     10  C11 UNL     1      25.433  -7.802 -39.247  0.00  0.00    +0.000 C 
ATOM     11  C12 UNL     1      26.362  -8.110 -40.458  0.00  0.00    +0.000 C 
ATOM     12  C13 UNL     1      27.324  -6.907 -40.691  0.00  0.00    +0.000 C 
ATOM     13  C14 UNL     1      27.207  -9.400 -40.111  0.00  0.00    +0.000 C 
ENDROOT
BRANCH   8  14
ATOM     14  O2  UNL     1      22.379  -6.340 -40.885  0.00  0.00    +0.000 OA
ATOM     15  H15 UNL     1      22.220  -6.230 -41.859  0.00  0.00    +0.000 HD
ENDBRANCH   8  14
BRANCH  13  16
ATOM     16  C15 UNL     1      28.067  -9.219 -38.864  0.00  0.00    +0.000 C 
ATOM     17  C16 UNL     1      27.981 -10.008 -37.786  0.00  0.00    +0.000 C 
BRANCH  17  18
ATOM     18  C17 UNL     1      28.839  -9.848 -36.595  0.00  0.00    +0.000 C 
ATOM     19  C18 UNL     1      30.155  -9.661 -36.647  0.00  0.00    +0.000 C 
ATOM     20  C19 UNL     1      30.643  -9.509 -35.274  0.00  0.00    +0.000 C 
ATOM     21  C20 UNL     1      31.922  -9.333 -34.926  0.00  0.00    +0.000 C 
ATOM     22  O4  UNL     1      29.576  -9.606 -34.390  0.00  0.00    +0.000 OA
ATOM     23  C28 UNL     1      28.456  -9.805 -35.179  0.00  0.00    +0.000 C 
ATOM     24  O5  UNL     1      27.288  -9.893 -34.718  0.00  0.00    +0.000 OA
BRANCH  21  25
ATOM     25  C21 UNL     1      32.382  -9.175 -33.528  0.00  0.00    +0.000 A 
ATOM     26  C22 UNL     1      32.432 -10.257 -32.632  0.00  0.00    +0.000 A 
ATOM     27  C23 UNL     1      32.846 -10.063 -31.310  0.00  0.00    +0.000 A 
ATOM     28  C24 UNL     1      33.203  -8.779 -30.858  0.00  0.00    +0.000 A 
ATOM     29  C26 UNL     1      33.132  -7.701 -31.746  0.00  0.00    +0.000 A 
ATOM     30  C27 UNL     1      32.717  -7.892 -33.067  0.00  0.00    +0.000 A 
BRANCH  28  31
ATOM     31  O3  UNL     1      33.622  -8.534 -29.543  0.00  0.00    +0.000 OA
ATOM     32  C25 UNL     1      34.373  -7.395 -29.136  0.00  0.00    +0.000 C 
ENDBRANCH  28  31
ENDBRANCH  21  25
ENDBRANCH  17  18
ENDBRANCH  13  16
BRANCH   6  33
ATOM     33  C8  UNL     1      24.595  -6.100 -42.718  0.00  0.00    +0.000 C 
BRANCH  33  34
ATOM     34  O1  UNL     1      24.342  -6.086 -44.097  0.00  0.00    +0.000 OA
ATOM     35  H13 UNL     1      24.144  -7.020 -44.368  0.00  0.00    +0.000 HD
ENDBRANCH  33  34
ENDBRANCH   6  33
TORSDOF 7
ENDMDL
MODEL 9
REMARK VINA RESULT:    -5.130      1.706      2.286
REMARK INTER + INTRA:          -7.854
REMARK INTER:                  -8.268
REMARK INTRA:                   0.413
REMARK UNBOUND:                -0.924
REMARK  Name = resultss/4CJN/ligands/lig_93_t0.pdb
REMARK  10 active torsions:
REMARK  status: ('A' for Active; 'I' for Inactive)
REMARK    1  A    between atoms: C6_6  and  C7_7
REMARK    2  A    between atoms: C6_6  and  C8_8
REMARK    3  A    between atoms: C8_8  and  O1_9
REMARK    4  A    between atoms: C9_10  and  O2_11
REMARK    5  A    between atoms: C12_14  and  C13_15
REMARK    6  A    between atoms: C14_16  and  C15_17
REMARK    7  A    between atoms: C16_18  and  C17_19
REMARK    8  A    between atoms: C20_22  and  C21_23
REMARK    9  A    between atoms: C24_26  and  O3_27
REMARK   10  A    between atoms: O3_27  and  C25_28
REMARK                            x       y       z     vdW  Elec       q    Type
REMARK                         _______ _______ _______ _____ _____    ______ ____
ROOT
ATOM      1  C1  UNL     1      30.568  -7.528 -35.962  0.00  0.00    +0.000 C 
ATOM      2  C2  UNL     1      29.223  -7.459 -35.984  0.00  0.00    +0.000 C 
ATOM      3  C3  UNL     1      28.538  -6.952 -34.731  0.00  0.00    +0.000 C 
ATOM      4  C4  UNL     1      27.075  -7.387 -34.623  0.00  0.00    +0.000 C 
ATOM      5  C5  UNL     1      26.304  -7.123 -35.942  0.00  0.00    +0.000 C 
ATOM      6  C6  UNL     1      24.713  -7.103 -35.819  0.00  0.00    +0.000 C 
ATOM      7  C7  UNL     1      24.290  -5.883 -34.948  0.00  0.00    +0.000 C 
ATOM      8  C9  UNL     1      24.111  -6.858 -37.246  0.00  0.00    +0.000 C 
ATOM      9  C10 UNL     1      24.662  -7.827 -38.306  0.00  0.00    +0.000 C 
ATOM     10  C11 UNL     1      26.174  -7.670 -38.441  0.00  0.00    +0.000 C 
ATOM     11  C12 UNL     1      26.940  -7.964 -37.118  0.00  0.00    +0.000 C 
ATOM     12  C13 UNL     1      26.916  -9.496 -36.836  0.00  0.00    +0.000 C 
ATOM     13  C14 UNL     1      28.437  -7.488 -37.304  0.00  0.00    +0.000 C 
ENDROOT
BRANCH   8  14
ATOM     14  O2  UNL     1      22.701  -6.870 -37.236  0.00  0.00    +0.000 OA
ATOM     15  H15 UNL     1      22.380  -5.939 -37.358  0.00  0.00    +0.000 HD
ENDBRANCH   8  14
BRANCH  13  16
ATOM     16  C15 UNL     1      29.143  -8.204 -38.451  0.00  0.00    +0.000 C 
ATOM     17  C16 UNL     1      28.566  -9.156 -39.195  0.00  0.00    +0.000 C 
BRANCH  17  18
ATOM     18  C17 UNL     1      29.243  -9.822 -40.325  0.00  0.00    +0.000 C 
ATOM     19  C18 UNL     1      30.370  -9.383 -40.879  0.00  0.00    +0.000 C 
ATOM     20  C19 UNL     1      30.748 -10.324 -41.936  0.00  0.00    +0.000 C 
ATOM     21  C20 UNL     1      31.814 -10.197 -42.735  0.00  0.00    +0.000 C 
ATOM     22  O4  UNL     1      29.815 -11.350 -41.999  0.00  0.00    +0.000 OA
ATOM     23  C28 UNL     1      28.886 -11.068 -41.013  0.00  0.00    +0.000 C 
ATOM     24  O5  UNL     1      27.909 -11.815 -40.744  0.00  0.00    +0.000 OA
BRANCH  21  25
ATOM     25  C21 UNL     1      32.173 -11.170 -43.790  0.00  0.00    +0.000 A 
ATOM     26  C22 UNL     1      31.890 -12.542 -43.668  0.00  0.00    +0.000 A 
ATOM     27  C23 UNL     1      32.271 -13.436 -44.674  0.00  0.00    +0.000 A 
ATOM     28  C24 UNL     1      32.956 -12.974 -45.813  0.00  0.00    +0.000 A 
ATOM     29  C26 UNL     1      33.255 -11.613 -45.922  0.00  0.00    +0.000 A 
ATOM     30  C27 UNL     1      32.876 -10.718 -44.917  0.00  0.00    +0.000 A 
BRANCH  28  31
ATOM     31  O3  UNL     1      33.359 -13.831 -46.847  0.00  0.00    +0.000 OA
ATOM     32  C25 UNL     1      32.924 -15.179 -46.991  0.00  0.00    +0.000 C 
ENDBRANCH  28  31
ENDBRANCH  21  25
ENDBRANCH  17  18
ENDBRANCH  13  16
BRANCH   6  33
ATOM     33  C8  UNL     1      24.054  -8.371 -35.176  0.00  0.00    +0.000 C 
BRANCH  33  34
ATOM     34  O1  UNL     1      22.812  -8.105 -34.583  0.00  0.00    +0.000 OA
ATOM     35  H13 UNL     1      22.124  -8.581 -35.117  0.00  0.00    +0.000 HD
ENDBRANCH  33  34
ENDBRANCH   6  33
TORSDOF 7
ENDMDL
