MODEL 1
REMARK VINA RESULT:    -4.075      0.000      0.000
REMARK INTER + INTRA:          -4.997
REMARK INTER:                  -4.790
REMARK INTRA:                  -0.207
REMARK UNBOUND:                -0.207
REMARK  Name = resultss/4CJN/ligands/lig_222_t0.pdb
REMARK  5 active torsions:
REMARK  status: ('A' for Active; 'I' for Inactive)
REMARK    1  A    between atoms: O1_1  and  C1_2
REMARK    2  A    between atoms: C1_2  and  C2_3
REMARK    3  A    between atoms: C4_6  and  O2_7
REMARK    4  A    between atoms: C5_8  and  O3_9
REMARK    5  A    between atoms: C6_10  and  O4_11
REMARK                            x       y       z     vdW  Elec       q    Type
REMARK                         _______ _______ _______ _____ _____    ______ ____
ROOT
ATOM      1  C2  UNL     1      27.003  -8.906 -34.137  0.00  0.00    +0.000 C 
ATOM      2  N1  UNL     1      27.096  -7.435 -34.183  0.00  0.00    +0.000 NA
ATOM      3  C3  UNL     1      26.221  -6.816 -33.175  0.00  0.00    +0.000 C 
ATOM      4  C4  UNL     1      24.745  -7.193 -33.409  0.00  0.00    +0.000 C 
ATOM      5  C5  UNL     1      24.574  -8.726 -33.411  0.00  0.00    +0.000 C 
ATOM      6  C6  UNL     1      25.549  -9.380 -34.414  0.00  0.00    +0.000 C 
ATOM      7  H5  UNL     1      26.804  -7.093 -35.130  0.00  0.00    +0.000 HD
ENDROOT
BRANCH   4   8
ATOM      8  O2  UNL     1      23.920  -6.596 -32.438  0.00  0.00    +0.000 OA
ATOM      9  H9  UNL     1      23.039  -7.053 -32.471  0.00  0.00    +0.000 HD
ENDBRANCH   4   8
BRANCH   5  10
ATOM     10  O3  UNL     1      23.244  -9.080 -33.704  0.00  0.00    +0.000 OA
ATOM     11  H11 UNL     1      23.170 -10.067 -33.629  0.00  0.00    +0.000 HD
ENDBRANCH   5  10
BRANCH   6  12
ATOM     12  O4  UNL     1      25.451 -10.782 -34.353  0.00  0.00    +0.000 OA
ATOM     13  H13 UNL     1      26.204 -11.160 -34.880  0.00  0.00    +0.000 HD
ENDBRANCH   6  12
BRANCH   1  14
ATOM     14  C1  UNL     1      28.007  -9.523 -35.125  0.00  0.00    +0.000 C 
BRANCH  14  15
ATOM     15  O1  UNL     1      27.340 -10.147 -36.188  0.00  0.00    +0.000 OA
ATOM     16  H1  UNL     1      28.003 -10.752 -36.612  0.00  0.00    +0.000 HD
ENDBRANCH  14  15
ENDBRANCH   1  14
TORSDOF 5
ENDMDL
MODEL 2
REMARK VINA RESULT:    -4.023      2.026      2.670
REMARK INTER + INTRA:          -4.935
REMARK INTER:                  -4.708
REMARK INTRA:                  -0.228
REMARK UNBOUND:                -0.207
REMARK  Name = resultss/4CJN/ligands/lig_222_t0.pdb
REMARK  5 active torsions:
REMARK  status: ('A' for Active; 'I' for Inactive)
REMARK    1  A    between atoms: O1_1  and  C1_2
REMARK    2  A    between atoms: C1_2  and  C2_3
REMARK    3  A    between atoms: C4_6  and  O2_7
REMARK    4  A    between atoms: C5_8  and  O3_9
REMARK    5  A    between atoms: C6_10  and  O4_11
REMARK                            x       y       z     vdW  Elec       q    Type
REMARK                         _______ _______ _______ _____ _____    ______ ____
ROOT
ATOM      1  C2  UNL     1      25.277  -8.381 -34.943  0.00  0.00    +0.000 C 
ATOM      2  N1  UNL     1      24.231  -8.396 -35.982  0.00  0.00    +0.000 NA
ATOM      3  C3  UNL     1      23.406  -7.180 -35.924  0.00  0.00    +0.000 C 
ATOM      4  C4  UNL     1      22.699  -7.050 -34.560  0.00  0.00    +0.000 C 
ATOM      5  C5  UNL     1      23.733  -7.064 -33.413  0.00  0.00    +0.000 C 
ATOM      6  C6  UNL     1      24.649  -8.302 -33.524  0.00  0.00    +0.000 C 
ATOM      7  H5  UNL     1      23.607  -9.228 -35.843  0.00  0.00    +0.000 HD
ENDROOT
BRANCH   4   8
ATOM      8  O2  UNL     1      21.915  -5.883 -34.516  0.00  0.00    +0.000 OA
ATOM      9  H9  UNL     1      22.533  -5.109 -34.433  0.00  0.00    +0.000 HD
ENDBRANCH   4   8
BRANCH   5  10
ATOM     10  O3  UNL     1      23.091  -7.027 -32.162  0.00  0.00    +0.000 OA
ATOM     11  H11 UNL     1      23.154  -6.098 -31.818  0.00  0.00    +0.000 HD
ENDBRANCH   5  10
BRANCH   6  12
ATOM     12  O4  UNL     1      25.643  -8.269 -32.529  0.00  0.00    +0.000 OA
ATOM     13  H13 UNL     1      26.525  -8.322 -32.983  0.00  0.00    +0.000 HD
ENDBRANCH   6  12
BRANCH   1  14
ATOM     14  C1  UNL     1      26.187  -9.611 -35.101  0.00  0.00    +0.000 C 
BRANCH  14  15
ATOM     15  O1  UNL     1      25.660 -10.712 -34.414  0.00  0.00    +0.000 OA
ATOM     16  H1  UNL     1      24.829 -10.391 -33.975  0.00  0.00    +0.000 HD
ENDBRANCH  14  15
ENDBRANCH   1  14
TORSDOF 5
ENDMDL
MODEL 3
REMARK VINA RESULT:    -4.003      1.183      3.714
REMARK INTER + INTRA:          -4.912
REMARK INTER:                  -4.668
REMARK INTRA:                  -0.245
REMARK UNBOUND:                -0.207
REMARK  Name = resultss/4CJN/ligands/lig_222_t0.pdb
REMARK  5 active torsions:
REMARK  status: ('A' for Active; 'I' for Inactive)
REMARK    1  A    between atoms: O1_1  and  C1_2
REMARK    2  A    between atoms: C1_2  and  C2_3
REMARK    3  A    between atoms: C4_6  and  O2_7
REMARK    4  A    between atoms: C5_8  and  O3_9
REMARK    5  A    between atoms: C6_10  and  O4_11
REMARK                            x       y       z     vdW  Elec       q    Type
REMARK                         _______ _______ _______ _____ _____    ______ ____
ROOT
ATOM      1  C2  UNL     1      24.881  -7.066 -33.581  0.00  0.00    +0.000 C 
ATOM      2  N1  UNL     1      26.132  -6.816 -32.840  0.00  0.00    +0.000 NA
ATOM      3  C3  UNL     1      27.283  -7.433 -33.516  0.00  0.00    +0.000 C 
ATOM      4  C4  UNL     1      27.111  -8.960 -33.630  0.00  0.00    +0.000 C 
ATOM      5  C5  UNL     1      25.798  -9.302 -34.366  0.00  0.00    +0.000 C 
ATOM      6  C6  UNL     1      24.601  -8.589 -33.700  0.00  0.00    +0.000 C 
ATOM      7  H5  UNL     1      26.058  -7.221 -31.876  0.00  0.00    +0.000 HD
ENDROOT
BRANCH   4   8
ATOM      8  O2  UNL     1      28.217  -9.537 -34.280  0.00  0.00    +0.000 OA
ATOM      9  H9  UNL     1      28.320  -9.084 -35.158  0.00  0.00    +0.000 HD
ENDBRANCH   4   8
BRANCH   5  10
ATOM     10  O3  UNL     1      25.595 -10.693 -34.403  0.00  0.00    +0.000 OA
ATOM     11  H11 UNL     1      26.417 -11.109 -34.771  0.00  0.00    +0.000 HD
ENDBRANCH   5  10
BRANCH   6  12
ATOM     12  O4  UNL     1      23.419  -8.834 -34.422  0.00  0.00    +0.000 OA
ATOM     13  H13 UNL     1      23.462  -9.765 -34.763  0.00  0.00    +0.000 HD
ENDBRANCH   6  12
BRANCH   1  14
ATOM     14  C1  UNL     1      23.719  -6.317 -32.908  0.00  0.00    +0.000 C 
BRANCH  14  15
ATOM     15  O1  UNL     1      22.967  -7.186 -32.104  0.00  0.00    +0.000 OA
ATOM     16  H1  UNL     1      22.609  -6.633 -31.362  0.00  0.00    +0.000 HD
ENDBRANCH  14  15
ENDBRANCH   1  14
TORSDOF 5
ENDMDL
MODEL 4
REMARK VINA RESULT:    -3.871      1.737      3.774
REMARK INTER + INTRA:          -4.757
REMARK INTER:                  -4.517
REMARK INTRA:                  -0.240
REMARK UNBOUND:                -0.207
REMARK  Name = resultss/4CJN/ligands/lig_222_t0.pdb
REMARK  5 active torsions:
REMARK  status: ('A' for Active; 'I' for Inactive)
REMARK    1  A    between atoms: O1_1  and  C1_2
REMARK    2  A    between atoms: C1_2  and  C2_3
REMARK    3  A    between atoms: C4_6  and  O2_7
REMARK    4  A    between atoms: C5_8  and  O3_9
REMARK    5  A    between atoms: C6_10  and  O4_11
REMARK                            x       y       z     vdW  Elec       q    Type
REMARK                         _______ _______ _______ _____ _____    ______ ____
ROOT
ATOM      1  C2  UNL     1      27.474  -7.474 -33.430  0.00  0.00    +0.000 C 
ATOM      2  N1  UNL     1      28.774  -7.927 -33.961  0.00  0.00    +0.000 NA
ATOM      3  C3  UNL     1      28.616  -8.570 -35.274  0.00  0.00    +0.000 C 
ATOM      4  C4  UNL     1      27.698  -9.805 -35.184  0.00  0.00    +0.000 C 
ATOM      5  C5  UNL     1      26.324  -9.415 -34.599  0.00  0.00    +0.000 C 
ATOM      6  C6  UNL     1      26.497  -8.669 -33.258  0.00  0.00    +0.000 C 
ATOM      7  H5  UNL     1      29.202  -8.620 -33.301  0.00  0.00    +0.000 HD
ENDROOT
BRANCH   4   8
ATOM      8  O2  UNL     1      27.554 -10.410 -36.446  0.00  0.00    +0.000 OA
ATOM      9  H9  UNL     1      27.525  -9.686 -37.125  0.00  0.00    +0.000 HD
ENDBRANCH   4   8
BRANCH   5  10
ATOM     10  O3  UNL     1      25.509 -10.550 -34.439  0.00  0.00    +0.000 OA
ATOM     11  H11 UNL     1      25.085 -10.493 -33.544  0.00  0.00    +0.000 HD
ENDBRANCH   5  10
BRANCH   6  12
ATOM     12  O4  UNL     1      25.250  -8.240 -32.769  0.00  0.00    +0.000 OA
ATOM     13  H13 UNL     1      25.306  -7.261 -32.618  0.00  0.00    +0.000 HD
ENDBRANCH   6  12
BRANCH   1  14
ATOM     14  C1  UNL     1      27.687  -6.710 -32.112  0.00  0.00    +0.000 C 
BRANCH  14  15
ATOM     15  O1  UNL     1      27.623  -7.582 -31.016  0.00  0.00    +0.000 OA
ATOM     16  H1  UNL     1      26.662  -7.655 -30.778  0.00  0.00    +0.000 HD
ENDBRANCH  14  15
ENDBRANCH   1  14
TORSDOF 5
ENDMDL
MODEL 5
REMARK VINA RESULT:    -3.698      1.648      3.489
REMARK INTER + INTRA:          -4.554
REMARK INTER:                  -4.342
REMARK INTRA:                  -0.212
REMARK UNBOUND:                -0.207
REMARK  Name = resultss/4CJN/ligands/lig_222_t0.pdb
REMARK  5 active torsions:
REMARK  status: ('A' for Active; 'I' for Inactive)
REMARK    1  A    between atoms: O1_1  and  C1_2
REMARK    2  A    between atoms: C1_2  and  C2_3
REMARK    3  A    between atoms: C4_6  and  O2_7
REMARK    4  A    between atoms: C5_8  and  O3_9
REMARK    5  A    between atoms: C6_10  and  O4_11
REMARK                            x       y       z     vdW  Elec       q    Type
REMARK                         _______ _______ _______ _____ _____    ______ ____
ROOT
ATOM      1  C2  UNL     1      24.835  -8.332 -33.655  0.00  0.00    +0.000 C 
ATOM      2  N1  UNL     1      25.359  -7.195 -32.875  0.00  0.00    +0.000 NA
ATOM      3  C3  UNL     1      26.595  -6.667 -33.470  0.00  0.00    +0.000 C 
ATOM      4  C4  UNL     1      27.698  -7.743 -33.515  0.00  0.00    +0.000 C 
ATOM      5  C5  UNL     1      27.208  -8.986 -34.288  0.00  0.00    +0.000 C 
ATOM      6  C6  UNL     1      25.867  -9.492 -33.710  0.00  0.00    +0.000 C 
ATOM      7  H5  UNL     1      25.568  -7.506 -31.896  0.00  0.00    +0.000 HD
ENDROOT
BRANCH   4   8
ATOM      8  O2  UNL     1      28.874  -7.226 -34.088  0.00  0.00    +0.000 OA
ATOM      9  H9  UNL     1      29.640  -7.553 -33.546  0.00  0.00    +0.000 HD
ENDBRANCH   4   8
BRANCH   5  10
ATOM     10  O3  UNL     1      28.178 -10.004 -34.264  0.00  0.00    +0.000 OA
ATOM     11  H11 UNL     1      29.053  -9.582 -34.057  0.00  0.00    +0.000 HD
ENDBRANCH   5  10
BRANCH   6  12
ATOM     12  O4  UNL     1      25.380 -10.571 -34.468  0.00  0.00    +0.000 OA
ATOM     13  H13 UNL     1      25.459 -11.390 -33.912  0.00  0.00    +0.000 HD
ENDBRANCH   6  12
BRANCH   1  14
ATOM     14  C1  UNL     1      23.487  -8.789 -33.070  0.00  0.00    +0.000 C 
BRANCH  14  15
ATOM     15  O1  UNL     1      22.608  -9.174 -34.091  0.00  0.00    +0.000 OA
ATOM     16  H1  UNL     1      21.724  -9.306 -33.658  0.00  0.00    +0.000 HD
ENDBRANCH  14  15
ENDBRANCH   1  14
TORSDOF 5
ENDMDL
MODEL 6
REMARK VINA RESULT:    -3.533      7.292      8.328
REMARK INTER + INTRA:          -4.359
REMARK INTER:                  -4.121
REMARK INTRA:                  -0.239
REMARK UNBOUND:                -0.207
REMARK  Name = resultss/4CJN/ligands/lig_222_t0.pdb
REMARK  5 active torsions:
REMARK  status: ('A' for Active; 'I' for Inactive)
REMARK    1  A    between atoms: O1_1  and  C1_2
REMARK    2  A    between atoms: C1_2  and  C2_3
REMARK    3  A    between atoms: C4_6  and  O2_7
REMARK    4  A    between atoms: C5_8  and  O3_9
REMARK    5  A    between atoms: C6_10  and  O4_11
REMARK                            x       y       z     vdW  Elec       q    Type
REMARK                         _______ _______ _______ _____ _____    ______ ____
ROOT
ATOM      1  C2  UNL     1      26.558  -9.483 -42.365  0.00  0.00    +0.000 C 
ATOM      2  N1  UNL     1      27.659  -8.505 -42.287  0.00  0.00    +0.000 NA
ATOM      3  C3  UNL     1      28.940  -9.167 -41.999  0.00  0.00    +0.000 C 
ATOM      4  C4  UNL     1      28.892  -9.916 -40.653  0.00  0.00    +0.000 C 
ATOM      5  C5  UNL     1      27.735 -10.937 -40.644  0.00  0.00    +0.000 C 
ATOM      6  C6  UNL     1      26.403 -10.253 -41.024  0.00  0.00    +0.000 C 
ATOM      7  H5  UNL     1      27.464  -7.814 -41.523  0.00  0.00    +0.000 HD
ENDROOT
BRANCH   4   8
ATOM      8  O2  UNL     1      30.121 -10.546 -40.390  0.00  0.00    +0.000 OA
ATOM      9  H9  UNL     1      30.712 -10.391 -41.173  0.00  0.00    +0.000 HD
ENDBRANCH   4   8
BRANCH   5  10
ATOM     10  O3  UNL     1      27.633 -11.566 -39.390  0.00  0.00    +0.000 OA
ATOM     11  H11 UNL     1      27.282 -10.899 -38.745  0.00  0.00    +0.000 HD
ENDBRANCH   5  10
BRANCH   6  12
ATOM     12  O4  UNL     1      25.367 -11.201 -41.099  0.00  0.00    +0.000 OA
ATOM     13  H13 UNL     1      24.602 -10.774 -41.568  0.00  0.00    +0.000 HD
ENDBRANCH   6  12
BRANCH   1  14
ATOM     14  C1  UNL     1      25.257  -8.773 -42.774  0.00  0.00    +0.000 C 
BRANCH  14  15
ATOM     15  O1  UNL     1      24.339  -9.686 -43.310  0.00  0.00    +0.000 OA
ATOM     16  H1  UNL     1      23.989 -10.207 -42.542  0.00  0.00    +0.000 HD
ENDBRANCH  14  15
ENDBRANCH   1  14
TORSDOF 5
ENDMDL
MODEL 7
REMARK VINA RESULT:    -3.506      3.055      4.564
REMARK INTER + INTRA:          -4.328
REMARK INTER:                  -4.085
REMARK INTRA:                  -0.244
REMARK UNBOUND:                -0.207
REMARK  Name = resultss/4CJN/ligands/lig_222_t0.pdb
REMARK  5 active torsions:
REMARK  status: ('A' for Active; 'I' for Inactive)
REMARK    1  A    between atoms: O1_1  and  C1_2
REMARK    2  A    between atoms: C1_2  and  C2_3
REMARK    3  A    between atoms: C4_6  and  O2_7
REMARK    4  A    between atoms: C5_8  and  O3_9
REMARK    5  A    between atoms: C6_10  and  O4_11
REMARK                            x       y       z     vdW  Elec       q    Type
REMARK                         _______ _______ _______ _____ _____    ______ ____
ROOT
ATOM      1  C2  UNL     1      26.840  -9.332 -35.876  0.00  0.00    +0.000 C 
ATOM      2  N1  UNL     1      27.570 -10.265 -36.754  0.00  0.00    +0.000 NA
ATOM      3  C3  UNL     1      27.794  -9.679 -38.084  0.00  0.00    +0.000 C 
ATOM      4  C4  UNL     1      26.460  -9.340 -38.777  0.00  0.00    +0.000 C 
ATOM      5  C5  UNL     1      25.619  -8.392 -37.897  0.00  0.00    +0.000 C 
ATOM      6  C6  UNL     1      25.452  -8.974 -36.476  0.00  0.00    +0.000 C 
ATOM      7  H5  UNL     1      27.016 -11.147 -36.869  0.00  0.00    +0.000 HD
ENDROOT
BRANCH   4   8
ATOM      8  O2  UNL     1      26.688  -8.779 -40.047  0.00  0.00    +0.000 OA
ATOM      9  H9  UNL     1      26.129  -9.277 -40.700  0.00  0.00    +0.000 HD
ENDBRANCH   4   8
BRANCH   5  10
ATOM     10  O3  UNL     1      24.366  -8.143 -38.486  0.00  0.00    +0.000 OA
ATOM     11  H11 UNL     1      24.142  -8.922 -39.058  0.00  0.00    +0.000 HD
ENDBRANCH   5  10
BRANCH   6  12
ATOM     12  O4  UNL     1      24.759  -8.069 -35.652  0.00  0.00    +0.000 OA
ATOM     13  H13 UNL     1      25.425  -7.442 -35.267  0.00  0.00    +0.000 HD
ENDBRANCH   6  12
BRANCH   1  14
ATOM     14  C1  UNL     1      26.719  -9.930 -34.464  0.00  0.00    +0.000 C 
BRANCH  14  15
ATOM     15  O1  UNL     1      25.521 -10.645 -34.328  0.00  0.00    +0.000 OA
ATOM     16  H1  UNL     1      25.727 -11.580 -34.588  0.00  0.00    +0.000 HD
ENDBRANCH  14  15
ENDBRANCH   1  14
TORSDOF 5
ENDMDL
MODEL 8
REMARK VINA RESULT:    -3.466      1.916      4.399
REMARK INTER + INTRA:          -4.281
REMARK INTER:                  -4.039
REMARK INTRA:                  -0.241
REMARK UNBOUND:                -0.207
REMARK  Name = resultss/4CJN/ligands/lig_222_t0.pdb
REMARK  5 active torsions:
REMARK  status: ('A' for Active; 'I' for Inactive)
REMARK    1  A    between atoms: O1_1  and  C1_2
REMARK    2  A    between atoms: C1_2  and  C2_3
REMARK    3  A    between atoms: C4_6  and  O2_7
REMARK    4  A    between atoms: C5_8  and  O3_9
REMARK    5  A    between atoms: C6_10  and  O4_11
REMARK                            x       y       z     vdW  Elec       q    Type
REMARK                         _______ _______ _______ _____ _____    ______ ____
ROOT
ATOM      1  C2  UNL     1      24.786  -8.279 -33.380  0.00  0.00    +0.000 C 
ATOM      2  N1  UNL     1      24.876  -9.232 -34.502  0.00  0.00    +0.000 NA
ATOM      3  C3  UNL     1      26.072 -10.080 -34.384  0.00  0.00    +0.000 C 
ATOM      4  C4  UNL     1      27.360  -9.234 -34.392  0.00  0.00    +0.000 C 
ATOM      5  C5  UNL     1      27.322  -8.184 -33.262  0.00  0.00    +0.000 C 
ATOM      6  C6  UNL     1      26.027  -7.346 -33.341  0.00  0.00    +0.000 C 
ATOM      7  H5  UNL     1      24.930  -8.706 -35.407  0.00  0.00    +0.000 HD
ENDROOT
BRANCH   4   8
ATOM      8  O2  UNL     1      28.495 -10.056 -34.277  0.00  0.00    +0.000 OA
ATOM      9  H9  UNL     1      29.218  -9.648 -34.823  0.00  0.00    +0.000 HD
ENDBRANCH   4   8
BRANCH   5  10
ATOM     10  O3  UNL     1      28.458  -7.355 -33.313  0.00  0.00    +0.000 OA
ATOM     11  H11 UNL     1      29.204  -7.887 -33.693  0.00  0.00    +0.000 HD
ENDBRANCH   5  10
BRANCH   6  12
ATOM     12  O4  UNL     1      25.955  -6.448 -32.261  0.00  0.00    +0.000 OA
ATOM     13  H13 UNL     1      26.618  -6.740 -31.582  0.00  0.00    +0.000 HD
ENDBRANCH   6  12
BRANCH   1  14
ATOM     14  C1  UNL     1      23.472  -7.486 -33.474  0.00  0.00    +0.000 C 
BRANCH  14  15
ATOM     15  O1  UNL     1      23.098  -6.991 -32.217  0.00  0.00    +0.000 OA
ATOM     16  H1  UNL     1      22.379  -7.591 -31.887  0.00  0.00    +0.000 HD
ENDBRANCH  14  15
ENDBRANCH   1  14
TORSDOF 5
ENDMDL
MODEL 9
REMARK VINA RESULT:    -3.455      2.176      2.636
REMARK INTER + INTRA:          -4.268
REMARK INTER:                  -4.024
REMARK INTRA:                  -0.244
REMARK UNBOUND:                -0.207
REMARK  Name = resultss/4CJN/ligands/lig_222_t0.pdb
REMARK  5 active torsions:
REMARK  status: ('A' for Active; 'I' for Inactive)
REMARK    1  A    between atoms: O1_1  and  C1_2
REMARK    2  A    between atoms: C1_2  and  C2_3
REMARK    3  A    between atoms: C4_6  and  O2_7
REMARK    4  A    between atoms: C5_8  and  O3_9
REMARK    5  A    between atoms: C6_10  and  O4_11
REMARK                            x       y       z     vdW  Elec       q    Type
REMARK                         _______ _______ _______ _____ _____    ______ ____
ROOT
ATOM      1  C2  UNL     1      26.467  -7.831 -36.666  0.00  0.00    +0.000 C 
ATOM      2  N1  UNL     1      25.429  -6.915 -36.158  0.00  0.00    +0.000 NA
ATOM      3  C3  UNL     1      25.343  -6.970 -34.691  0.00  0.00    +0.000 C 
ATOM      4  C4  UNL     1      24.986  -8.388 -34.204  0.00  0.00    +0.000 C 
ATOM      5  C5  UNL     1      26.013  -9.413 -34.730  0.00  0.00    +0.000 C 
ATOM      6  C6  UNL     1      26.159  -9.299 -36.264  0.00  0.00    +0.000 C 
ATOM      7  H5  UNL     1      24.496  -7.184 -36.555  0.00  0.00    +0.000 HD
ENDROOT
BRANCH   4   8
ATOM      8  O2  UNL     1      24.909  -8.428 -32.801  0.00  0.00    +0.000 OA
ATOM      9  H9  UNL     1      24.311  -9.182 -32.554  0.00  0.00    +0.000 HD
ENDBRANCH   4   8
BRANCH   5  10
ATOM     10  O3  UNL     1      25.649 -10.720 -34.358  0.00  0.00    +0.000 OA
ATOM     11  H11 UNL     1      24.826 -10.659 -33.807  0.00  0.00    +0.000 HD
ENDBRANCH   5  10
BRANCH   6  12
ATOM     12  O4  UNL     1      27.156 -10.175 -36.729  0.00  0.00    +0.000 OA
ATOM     13  H13 UNL     1      27.913  -9.622 -37.055  0.00  0.00    +0.000 HD
ENDBRANCH   6  12
BRANCH   1  14
ATOM     14  C1  UNL     1      26.605  -7.669 -38.189  0.00  0.00    +0.000 C 
BRANCH  14  15
ATOM     15  O1  UNL     1      25.921  -8.690 -38.862  0.00  0.00    +0.000 OA
ATOM     16  H1  UNL     1      25.201  -8.990 -38.248  0.00  0.00    +0.000 HD
ENDBRANCH  14  15
ENDBRANCH   1  14
TORSDOF 5
ENDMDL
