MODEL 1
REMARK VINA RESULT:    -5.745      0.000      0.000
REMARK INTER + INTRA:          -7.494
REMARK INTER:                  -7.088
REMARK INTRA:                  -0.406
REMARK UNBOUND:                -0.406
REMARK  Name = resultss/4CJN/ligands/lig_379_t2.pdb
REMARK  5 active torsions:
REMARK  status: ('A' for Active; 'I' for Inactive)
REMARK    1  A    between atoms: N1_1  and  S1_2
REMARK    2  A    between atoms: S1_2  and  C1_5
REMARK    3  A    between atoms: C4_8  and  N2_9
REMARK    4  A    between atoms: C6_12  and  O3_13
REMARK    5  A    between atoms: C8_15  and  C9_16
REMARK                            x       y       z     vdW  Elec       q    Type
REMARK                         _______ _______ _______ _____ _____    ______ ____
ROOT
ATOM      1  N2  UNL     1      31.492  -8.815 -38.103  0.00  0.00    +0.000 NA
ATOM      2  C5  UNL     1      31.847  -9.138 -39.309  0.00  0.00    +0.000 C 
ATOM      3  N3  UNL     1      30.943  -9.683 -40.266  0.00  0.00    +0.000 NA
ATOM      4  C6  UNL     1      31.552 -10.109 -41.318  0.00  0.00    +0.000 C 
ATOM      5  C7  UNL     1      33.015  -9.968 -41.283  0.00  0.00    +0.000 C 
ATOM      6  C8  UNL     1      33.892 -10.390 -42.205  0.00  0.00    +0.000 C 
ATOM      7  S2  UNL     1      33.563  -9.098 -39.816  0.00  0.00    +0.000 S 
ENDROOT
BRANCH   6   8
ATOM      8  C9  UNL     1      33.548 -11.208 -43.383  0.00  0.00    +0.000 A 
ATOM      9  C10 UNL     1      33.531 -10.616 -44.654  0.00  0.00    +0.000 A 
ATOM     10  C11 UNL     1      33.258 -11.388 -45.788  0.00  0.00    +0.000 A 
ATOM     11  C12 UNL     1      33.020 -12.760 -45.660  0.00  0.00    +0.000 A 
ATOM     12  F1  UNL     1      32.757 -13.506 -46.760  0.00  0.00    +0.000 F 
ATOM     13  C13 UNL     1      33.066 -13.362 -44.400  0.00  0.00    +0.000 A 
ATOM     14  C14 UNL     1      33.340 -12.592 -43.265  0.00  0.00    +0.000 A 
ENDBRANCH   6   8
BRANCH   1  18
ATOM     15  C1  UNL     1      27.571  -8.852 -36.464  0.00  0.00    +0.000 A 
ATOM     16  C2  UNL     1      28.356 -10.011 -36.475  0.00  0.00    +0.000 A 
ATOM     17  C3  UNL     1      29.644  -9.985 -37.019  0.00  0.00    +0.000 A 
ATOM     18  C4  UNL     1      30.154  -8.807 -37.581  0.00  0.00    +0.000 A 
ATOM     19  C15 UNL     1      29.371  -7.637 -37.547  0.00  0.00    +0.000 A 
ATOM     20  C16 UNL     1      28.084  -7.665 -37.002  0.00  0.00    +0.000 A 
BRANCH  15  21
ATOM     21  S1  UNL     1      25.944  -8.886 -35.792  0.00  0.00    +0.000 S 
ATOM     22  O1  UNL     1      24.934  -8.808 -36.903  0.00  0.00    +0.000 OA
ATOM     23  O2  UNL     1      25.745  -7.709 -34.877  0.00  0.00    +0.000 OA
BRANCH  21  24
ATOM     24  N1  UNL     1      25.721 -10.351 -34.903  0.00  0.00    +0.000 NA
ATOM     25  H1  UNL     1      26.575 -10.486 -34.317  0.00  0.00    +0.000 HD
ATOM     26  H2  UNL     1      24.926 -10.190 -34.245  0.00  0.00    +0.000 HD
ENDBRANCH  21  24
ENDBRANCH  15  21
ENDBRANCH   1  18
BRANCH   4  27
ATOM     27  O3  UNL     1      30.845 -10.626 -42.399  0.00  0.00    +0.000 OA
ATOM     28  H5  UNL     1      30.200 -10.047 -42.925  0.00  0.00    +0.000 HD
ENDBRANCH   4  27
TORSDOF 5
ENDMDL
MODEL 2
REMARK VINA RESULT:    -5.716      2.717      3.397
REMARK INTER + INTRA:          -7.459
REMARK INTER:                  -7.011
REMARK INTRA:                  -0.448
REMARK UNBOUND:                -0.406
REMARK  Name = resultss/4CJN/ligands/lig_379_t2.pdb
REMARK  5 active torsions:
REMARK  status: ('A' for Active; 'I' for Inactive)
REMARK    1  A    between atoms: N1_1  and  S1_2
REMARK    2  A    between atoms: S1_2  and  C1_5
REMARK    3  A    between atoms: C4_8  and  N2_9
REMARK    4  A    between atoms: C6_12  and  O3_13
REMARK    5  A    between atoms: C8_15  and  C9_16
REMARK                            x       y       z     vdW  Elec       q    Type
REMARK                         _______ _______ _______ _____ _____    ______ ____
ROOT
ATOM      1  N2  UNL     1      26.810  -7.536 -40.101  0.00  0.00    +0.000 NA
ATOM      2  C5  UNL     1      27.582  -8.352 -40.754  0.00  0.00    +0.000 C 
ATOM      3  N3  UNL     1      28.207  -9.480 -40.150  0.00  0.00    +0.000 NA
ATOM      4  C6  UNL     1      29.075 -10.025 -40.930  0.00  0.00    +0.000 C 
ATOM      5  C7  UNL     1      29.245  -9.356 -42.228  0.00  0.00    +0.000 C 
ATOM      6  C8  UNL     1      30.123  -9.668 -43.191  0.00  0.00    +0.000 C 
ATOM      7  S2  UNL     1      28.075  -8.015 -42.441  0.00  0.00    +0.000 S 
ENDROOT
BRANCH   6   8
ATOM      8  C9  UNL     1      31.191 -10.677 -43.064  0.00  0.00    +0.000 A 
ATOM      9  C10 UNL     1      30.993 -11.963 -43.586  0.00  0.00    +0.000 A 
ATOM     10  C11 UNL     1      32.015 -12.916 -43.519  0.00  0.00    +0.000 A 
ATOM     11  C12 UNL     1      33.248 -12.583 -42.949  0.00  0.00    +0.000 A 
ATOM     12  F1  UNL     1      34.237 -13.507 -42.888  0.00  0.00    +0.000 F 
ATOM     13  C13 UNL     1      33.462 -11.293 -42.456  0.00  0.00    +0.000 A 
ATOM     14  C14 UNL     1      32.443 -10.338 -42.522  0.00  0.00    +0.000 A 
ENDBRANCH   6   8
BRANCH   1  18
ATOM     15  C1  UNL     1      25.406  -8.122 -36.133  0.00  0.00    +0.000 A 
ATOM     16  C2  UNL     1      24.630  -8.505 -37.235  0.00  0.00    +0.000 A 
ATOM     17  C3  UNL     1      25.104  -8.305 -38.534  0.00  0.00    +0.000 A 
ATOM     18  C4  UNL     1      26.347  -7.696 -38.751  0.00  0.00    +0.000 A 
ATOM     19  C15 UNL     1      27.135  -7.334 -37.643  0.00  0.00    +0.000 A 
ATOM     20  C16 UNL     1      26.660  -7.535 -36.343  0.00  0.00    +0.000 A 
BRANCH  15  21
ATOM     21  S1  UNL     1      24.805  -8.361 -34.496  0.00  0.00    +0.000 S 
ATOM     22  O1  UNL     1      23.349  -7.991 -34.430  0.00  0.00    +0.000 OA
ATOM     23  O2  UNL     1      25.568  -7.487 -33.540  0.00  0.00    +0.000 OA
BRANCH  21  24
ATOM     24  N1  UNL     1      25.005 -10.018 -34.047  0.00  0.00    +0.000 NA
ATOM     25  H1  UNL     1      26.031 -10.211 -34.042  0.00  0.00    +0.000 HD
ATOM     26  H2  UNL     1      24.676 -10.108 -33.060  0.00  0.00    +0.000 HD
ENDBRANCH  21  24
ENDBRANCH  15  21
ENDBRANCH   1  18
BRANCH   4  27
ATOM     27  O3  UNL     1      29.758 -11.178 -40.552  0.00  0.00    +0.000 OA
ATOM     28  H5  UNL     1      30.012 -11.881 -41.235  0.00  0.00    +0.000 HD
ENDBRANCH   4  27
TORSDOF 5
ENDMDL
MODEL 3
REMARK VINA RESULT:    -5.652      1.940      2.259
REMARK INTER + INTRA:          -7.379
REMARK INTER:                  -6.915
REMARK INTRA:                  -0.464
REMARK UNBOUND:                -0.406
REMARK  Name = resultss/4CJN/ligands/lig_379_t2.pdb
REMARK  5 active torsions:
REMARK  status: ('A' for Active; 'I' for Inactive)
REMARK    1  A    between atoms: N1_1  and  S1_2
REMARK    2  A    between atoms: S1_2  and  C1_5
REMARK    3  A    between atoms: C4_8  and  N2_9
REMARK    4  A    between atoms: C6_12  and  O3_13
REMARK    5  A    between atoms: C8_15  and  C9_16
REMARK                            x       y       z     vdW  Elec       q    Type
REMARK                         _______ _______ _______ _____ _____    ______ ____
ROOT
ATOM      1  N2  UNL     1      31.009  -9.131 -39.364  0.00  0.00    +0.000 NA
ATOM      2  C5  UNL     1      31.610  -9.476 -40.463  0.00  0.00    +0.000 C 
ATOM      3  N3  UNL     1      30.912  -9.887 -41.634  0.00  0.00    +0.000 NA
ATOM      4  C6  UNL     1      31.707 -10.367 -42.526  0.00  0.00    +0.000 C 
ATOM      5  C7  UNL     1      33.122 -10.411 -42.132  0.00  0.00    +0.000 C 
ATOM      6  C8  UNL     1      34.144 -10.923 -42.833  0.00  0.00    +0.000 C 
ATOM      7  S2  UNL     1      33.390  -9.641 -40.536  0.00  0.00    +0.000 S 
ENDROOT
BRANCH   6   8
ATOM      8  C9  UNL     1      34.007 -11.671 -44.097  0.00  0.00    +0.000 A 
ATOM      9  C10 UNL     1      34.217 -11.012 -45.316  0.00  0.00    +0.000 A 
ATOM     10  C11 UNL     1      34.141 -11.718 -46.521  0.00  0.00    +0.000 A 
ATOM     11  C12 UNL     1      33.878 -13.091 -46.513  0.00  0.00    +0.000 A 
ATOM     12  F1  UNL     1      33.808 -13.774 -47.682  0.00  0.00    +0.000 F 
ATOM     13  C13 UNL     1      33.699 -13.761 -45.299  0.00  0.00    +0.000 A 
ATOM     14  C14 UNL     1      33.774 -13.057 -44.093  0.00  0.00    +0.000 A 
ENDBRANCH   6   8
BRANCH   1  18
ATOM     15  C1  UNL     1      26.816  -8.588 -38.934  0.00  0.00    +0.000 A 
ATOM     16  C2  UNL     1      27.632  -7.546 -39.392  0.00  0.00    +0.000 A 
ATOM     17  C3  UNL     1      29.010  -7.739 -39.527  0.00  0.00    +0.000 A 
ATOM     18  C4  UNL     1      29.594  -8.965 -39.183  0.00  0.00    +0.000 A 
ATOM     19  C15 UNL     1      28.768 -10.018 -38.745  0.00  0.00    +0.000 A 
ATOM     20  C16 UNL     1      27.390  -9.824 -38.611  0.00  0.00    +0.000 A 
BRANCH  15  21
ATOM     21  S1  UNL     1      25.082  -8.344 -38.750  0.00  0.00    +0.000 S 
ATOM     22  O1  UNL     1      24.754  -6.886 -38.917  0.00  0.00    +0.000 OA
ATOM     23  O2  UNL     1      24.648  -8.781 -37.379  0.00  0.00    +0.000 OA
BRANCH  21  24
ATOM     24  N1  UNL     1      24.242  -9.269 -39.943  0.00  0.00    +0.000 NA
ATOM     25  H1  UNL     1      24.851  -9.299 -40.791  0.00  0.00    +0.000 HD
ATOM     26  H2  UNL     1      24.181 -10.248 -39.582  0.00  0.00    +0.000 HD
ENDBRANCH  21  24
ENDBRANCH  15  21
ENDBRANCH   1  18
BRANCH   4  27
ATOM     27  O3  UNL     1      31.232 -10.773 -43.770  0.00  0.00    +0.000 OA
ATOM     28  H5  UNL     1      30.271 -10.603 -44.042  0.00  0.00    +0.000 HD
ENDBRANCH   4  27
TORSDOF 5
ENDMDL
MODEL 4
REMARK VINA RESULT:    -5.433      5.336      6.056
REMARK INTER + INTRA:          -7.109
REMARK INTER:                  -6.658
REMARK INTRA:                  -0.450
REMARK UNBOUND:                -0.406
REMARK  Name = resultss/4CJN/ligands/lig_379_t2.pdb
REMARK  5 active torsions:
REMARK  status: ('A' for Active; 'I' for Inactive)
REMARK    1  A    between atoms: N1_1  and  S1_2
REMARK    2  A    between atoms: S1_2  and  C1_5
REMARK    3  A    between atoms: C4_8  and  N2_9
REMARK    4  A    between atoms: C6_12  and  O3_13
REMARK    5  A    between atoms: C8_15  and  C9_16
REMARK                            x       y       z     vdW  Elec       q    Type
REMARK                         _______ _______ _______ _____ _____    ______ ____
ROOT
ATOM      1  N2  UNL     1      27.633 -10.507 -37.394  0.00  0.00    +0.000 NA
ATOM      2  C5  UNL     1      27.608 -10.078 -38.620  0.00  0.00    +0.000 C 
ATOM      3  N3  UNL     1      27.393  -8.712 -38.961  0.00  0.00    +0.000 NA
ATOM      4  C6  UNL     1      27.212  -8.553 -40.227  0.00  0.00    +0.000 C 
ATOM      5  C7  UNL     1      27.237  -9.795 -41.014  0.00  0.00    +0.000 C 
ATOM      6  C8  UNL     1      27.008  -9.925 -42.328  0.00  0.00    +0.000 C 
ATOM      7  S2  UNL     1      27.659 -11.213 -40.003  0.00  0.00    +0.000 S 
ENDROOT
BRANCH   6   8
ATOM      8  C9  UNL     1      26.549  -8.841 -43.215  0.00  0.00    +0.000 A 
ATOM      9  C10 UNL     1      27.486  -8.125 -43.975  0.00  0.00    +0.000 A 
ATOM     10  C11 UNL     1      27.063  -7.128 -44.860  0.00  0.00    +0.000 A 
ATOM     11  C12 UNL     1      25.699  -6.855 -45.007  0.00  0.00    +0.000 A 
ATOM     12  F1  UNL     1      25.291  -5.890 -45.866  0.00  0.00    +0.000 F 
ATOM     13  C13 UNL     1      24.758  -7.586 -44.276  0.00  0.00    +0.000 A 
ATOM     14  C14 UNL     1      25.178  -8.584 -43.391  0.00  0.00    +0.000 A 
ENDBRANCH   6   8
BRANCH   1  18
ATOM     15  C1  UNL     1      27.615  -8.044 -33.931  0.00  0.00    +0.000 A 
ATOM     16  C2  UNL     1      28.820  -8.466 -34.507  0.00  0.00    +0.000 A 
ATOM     17  C3  UNL     1      28.810  -9.277 -35.645  0.00  0.00    +0.000 A 
ATOM     18  C4  UNL     1      27.598  -9.698 -36.208  0.00  0.00    +0.000 A 
ATOM     19  C15 UNL     1      26.389  -9.254 -35.641  0.00  0.00    +0.000 A 
ATOM     20  C16 UNL     1      26.399  -8.442 -34.503  0.00  0.00    +0.000 A 
BRANCH  15  21
ATOM     21  S1  UNL     1      27.624  -7.033 -32.489  0.00  0.00    +0.000 S 
ATOM     22  O1  UNL     1      28.668  -5.961 -32.628  0.00  0.00    +0.000 OA
ATOM     23  O2  UNL     1      27.949  -7.869 -31.282  0.00  0.00    +0.000 OA
BRANCH  21  24
ATOM     24  N1  UNL     1      26.068  -6.309 -32.287  0.00  0.00    +0.000 NA
ATOM     25  H1  UNL     1      25.447  -6.705 -33.027  0.00  0.00    +0.000 HD
ATOM     26  H2  UNL     1      25.694  -6.640 -31.369  0.00  0.00    +0.000 HD
ENDBRANCH  21  24
ENDBRANCH  15  21
ENDBRANCH   1  18
BRANCH   4  27
ATOM     27  O3  UNL     1      27.043  -7.286 -40.775  0.00  0.00    +0.000 OA
ATOM     28  H5  UNL     1      26.295  -6.677 -40.462  0.00  0.00    +0.000 HD
ENDBRANCH   4  27
TORSDOF 5
ENDMDL
MODEL 5
REMARK VINA RESULT:    -5.285      6.440      9.858
REMARK INTER + INTRA:          -6.927
REMARK INTER:                  -6.547
REMARK INTRA:                  -0.380
REMARK UNBOUND:                -0.406
REMARK  Name = resultss/4CJN/ligands/lig_379_t2.pdb
REMARK  5 active torsions:
REMARK  status: ('A' for Active; 'I' for Inactive)
REMARK    1  A    between atoms: N1_1  and  S1_2
REMARK    2  A    between atoms: S1_2  and  C1_5
REMARK    3  A    between atoms: C4_8  and  N2_9
REMARK    4  A    between atoms: C6_12  and  O3_13
REMARK    5  A    between atoms: C8_15  and  C9_16
REMARK                            x       y       z     vdW  Elec       q    Type
REMARK                         _______ _______ _______ _____ _____    ______ ____
ROOT
ATOM      1  N2  UNL     1      27.079  -9.907 -41.324  0.00  0.00    +0.000 NA
ATOM      2  C5  UNL     1      26.967  -9.785 -40.036  0.00  0.00    +0.000 C 
ATOM      3  N3  UNL     1      26.182  -8.769 -39.418  0.00  0.00    +0.000 NA
ATOM      4  C6  UNL     1      26.376  -8.718 -38.145  0.00  0.00    +0.000 C 
ATOM      5  C7  UNL     1      27.364  -9.677 -37.632  0.00  0.00    +0.000 C 
ATOM      6  C8  UNL     1      27.804  -9.790 -36.371  0.00  0.00    +0.000 C 
ATOM      7  S2  UNL     1      27.947 -10.780 -38.918  0.00  0.00    +0.000 S 
ENDROOT
BRANCH   6   8
ATOM      8  C9  UNL     1      27.468  -8.863 -35.275  0.00  0.00    +0.000 A 
ATOM      9  C10 UNL     1      26.451  -9.203 -34.371  0.00  0.00    +0.000 A 
ATOM     10  C11 UNL     1      26.154  -8.359 -33.295  0.00  0.00    +0.000 A 
ATOM     11  C12 UNL     1      26.886  -7.183 -33.104  0.00  0.00    +0.000 A 
ATOM     12  F1  UNL     1      26.597  -6.368 -32.060  0.00  0.00    +0.000 F 
ATOM     13  C13 UNL     1      27.921  -6.855 -33.984  0.00  0.00    +0.000 A 
ATOM     14  C14 UNL     1      28.221  -7.696 -35.060  0.00  0.00    +0.000 A 
ENDBRANCH   6   8
BRANCH   1  18
ATOM     15  C1  UNL     1      25.006  -7.752 -44.344  0.00  0.00    +0.000 A 
ATOM     16  C2  UNL     1      26.388  -7.600 -44.172  0.00  0.00    +0.000 A 
ATOM     17  C3  UNL     1      27.056  -8.314 -43.173  0.00  0.00    +0.000 A 
ATOM     18  C4  UNL     1      26.350  -9.169 -42.318  0.00  0.00    +0.000 A 
ATOM     19  C15 UNL     1      24.966  -9.339 -42.508  0.00  0.00    +0.000 A 
ATOM     20  C16 UNL     1      24.298  -8.624 -43.508  0.00  0.00    +0.000 A 
BRANCH  15  21
ATOM     21  S1  UNL     1      24.160  -6.843 -45.592  0.00  0.00    +0.000 S 
ATOM     22  O1  UNL     1      25.113  -5.891 -46.261  0.00  0.00    +0.000 OA
ATOM     23  O2  UNL     1      23.041  -6.050 -44.976  0.00  0.00    +0.000 OA
BRANCH  21  24
ATOM     24  N1  UNL     1      23.515  -7.939 -46.762  0.00  0.00    +0.000 NA
ATOM     25  H1  UNL     1      23.536  -7.449 -47.684  0.00  0.00    +0.000 HD
ATOM     26  H2  UNL     1      24.182  -8.740 -46.830  0.00  0.00    +0.000 HD
ENDBRANCH  21  24
ENDBRANCH  15  21
ENDBRANCH   1  18
BRANCH   4  27
ATOM     27  O3  UNL     1      25.661  -7.831 -37.345  0.00  0.00    +0.000 OA
ATOM     28  H5  UNL     1      26.044  -6.926 -37.099  0.00  0.00    +0.000 HD
ENDBRANCH   4  27
TORSDOF 5
ENDMDL
MODEL 6
REMARK VINA RESULT:    -5.229      5.958      7.066
REMARK INTER + INTRA:          -6.857
REMARK INTER:                  -6.478
REMARK INTRA:                  -0.380
REMARK UNBOUND:                -0.406
REMARK  Name = resultss/4CJN/ligands/lig_379_t2.pdb
REMARK  5 active torsions:
REMARK  status: ('A' for Active; 'I' for Inactive)
REMARK    1  A    between atoms: N1_1  and  S1_2
REMARK    2  A    between atoms: S1_2  and  C1_5
REMARK    3  A    between atoms: C4_8  and  N2_9
REMARK    4  A    between atoms: C6_12  and  O3_13
REMARK    5  A    between atoms: C8_15  and  C9_16
REMARK                            x       y       z     vdW  Elec       q    Type
REMARK                         _______ _______ _______ _____ _____    ______ ____
ROOT
ATOM      1  N2  UNL     1      27.988 -10.607 -37.732  0.00  0.00    +0.000 NA
ATOM      2  C5  UNL     1      27.497 -10.169 -38.852  0.00  0.00    +0.000 C 
ATOM      3  N3  UNL     1      26.976  -8.853 -39.010  0.00  0.00    +0.000 NA
ATOM      4  C6  UNL     1      26.369  -8.707 -40.137  0.00  0.00    +0.000 C 
ATOM      5  C7  UNL     1      26.323  -9.914 -40.975  0.00  0.00    +0.000 C 
ATOM      6  C8  UNL     1      25.699 -10.060 -42.152  0.00  0.00    +0.000 C 
ATOM      7  S2  UNL     1      27.265 -11.257 -40.254  0.00  0.00    +0.000 S 
ENDROOT
BRANCH   6   8
ATOM      8  C9  UNL     1      24.814  -9.053 -42.767  0.00  0.00    +0.000 A 
ATOM      9  C10 UNL     1      23.472  -8.975 -42.366  0.00  0.00    +0.000 A 
ATOM     10  C11 UNL     1      22.632  -7.993 -42.901  0.00  0.00    +0.000 A 
ATOM     11  C12 UNL     1      23.133  -7.070 -43.824  0.00  0.00    +0.000 A 
ATOM     12  F1  UNL     1      22.318  -6.118 -44.340  0.00  0.00    +0.000 F 
ATOM     13  C13 UNL     1      24.478  -7.123 -44.204  0.00  0.00    +0.000 A 
ATOM     14  C14 UNL     1      25.320  -8.103 -43.670  0.00  0.00    +0.000 A 
ENDBRANCH   6   8
BRANCH   1  18
ATOM     15  C1  UNL     1      28.629  -8.409 -34.152  0.00  0.00    +0.000 A 
ATOM     16  C2  UNL     1      27.393  -9.015 -34.412  0.00  0.00    +0.000 A 
ATOM     17  C3  UNL     1      27.196  -9.734 -35.595  0.00  0.00    +0.000 A 
ATOM     18  C4  UNL     1      28.222  -9.835 -36.544  0.00  0.00    +0.000 A 
ATOM     19  C15 UNL     1      29.470  -9.245 -36.269  0.00  0.00    +0.000 A 
ATOM     20  C16 UNL     1      29.666  -8.527 -35.085  0.00  0.00    +0.000 A 
BRANCH  15  21
ATOM     21  S1  UNL     1      28.875  -7.492 -32.669  0.00  0.00    +0.000 S 
ATOM     22  O1  UNL     1      28.808  -6.020 -32.966  0.00  0.00    +0.000 OA
ATOM     23  O2  UNL     1      30.228  -7.806 -32.093  0.00  0.00    +0.000 OA
BRANCH  21  24
ATOM     24  N1  UNL     1      27.649  -7.911 -31.525  0.00  0.00    +0.000 NA
ATOM     25  H1  UNL     1      28.010  -8.722 -30.974  0.00  0.00    +0.000 HD
ATOM     26  H2  UNL     1      27.565  -7.109 -30.861  0.00  0.00    +0.000 HD
ENDBRANCH  21  24
ENDBRANCH  15  21
ENDBRANCH   1  18
BRANCH   4  27
ATOM     27  O3  UNL     1      25.837  -7.477 -40.512  0.00  0.00    +0.000 OA
ATOM     28  H5  UNL     1      25.795  -7.202 -41.487  0.00  0.00    +0.000 HD
ENDBRANCH   4  27
TORSDOF 5
ENDMDL
MODEL 7
REMARK VINA RESULT:    -5.121      4.184      4.690
REMARK INTER + INTRA:          -6.724
REMARK INTER:                  -6.355
REMARK INTRA:                  -0.369
REMARK UNBOUND:                -0.406
REMARK  Name = resultss/4CJN/ligands/lig_379_t2.pdb
REMARK  5 active torsions:
REMARK  status: ('A' for Active; 'I' for Inactive)
REMARK    1  A    between atoms: N1_1  and  S1_2
REMARK    2  A    between atoms: S1_2  and  C1_5
REMARK    3  A    between atoms: C4_8  and  N2_9
REMARK    4  A    between atoms: C6_12  and  O3_13
REMARK    5  A    between atoms: C8_15  and  C9_16
REMARK                            x       y       z     vdW  Elec       q    Type
REMARK                         _______ _______ _______ _____ _____    ______ ____
ROOT
ATOM      1  N2  UNL     1      27.784  -8.831 -40.008  0.00  0.00    +0.000 NA
ATOM      2  C5  UNL     1      28.828  -9.150 -40.711  0.00  0.00    +0.000 C 
ATOM      3  N3  UNL     1      28.799  -9.282 -42.129  0.00  0.00    +0.000 NA
ATOM      4  C6  UNL     1      29.888  -9.795 -42.588  0.00  0.00    +0.000 C 
ATOM      5  C7  UNL     1      30.883 -10.149 -41.565  0.00  0.00    +0.000 C 
ATOM      6  C8  UNL     1      32.062 -10.756 -41.758  0.00  0.00    +0.000 C 
ATOM      7  S2  UNL     1      30.363  -9.635 -39.929  0.00  0.00    +0.000 S 
ENDROOT
BRANCH   6   8
ATOM      8  C9  UNL     1      32.524 -11.312 -43.043  0.00  0.00    +0.000 A 
ATOM      9  C10 UNL     1      32.060 -12.567 -43.461  0.00  0.00    +0.000 A 
ATOM     10  C11 UNL     1      32.447 -13.086 -44.701  0.00  0.00    +0.000 A 
ATOM     11  C12 UNL     1      33.283 -12.343 -45.540  0.00  0.00    +0.000 A 
ATOM     12  F1  UNL     1      33.656 -12.847 -46.742  0.00  0.00    +0.000 F 
ATOM     13  C13 UNL     1      33.724 -11.077 -45.144  0.00  0.00    +0.000 A 
ATOM     14  C14 UNL     1      33.338 -10.556 -43.905  0.00  0.00    +0.000 A 
ENDBRANCH   6   8
BRANCH   1  18
ATOM     15  C1  UNL     1      24.052  -7.563 -41.596  0.00  0.00    +0.000 A 
ATOM     16  C2  UNL     1      25.064  -6.637 -41.311  0.00  0.00    +0.000 A 
ATOM     17  C3  UNL     1      26.286  -7.069 -40.787  0.00  0.00    +0.000 A 
ATOM     18  C4  UNL     1      26.504  -8.426 -40.518  0.00  0.00    +0.000 A 
ATOM     19  C15 UNL     1      25.494  -9.357 -40.828  0.00  0.00    +0.000 A 
ATOM     20  C16 UNL     1      24.273  -8.924 -41.352  0.00  0.00    +0.000 A 
BRANCH  15  21
ATOM     21  S1  UNL     1      22.507  -7.020 -42.243  0.00  0.00    +0.000 S 
ATOM     22  O1  UNL     1      21.841  -8.149 -42.980  0.00  0.00    +0.000 OA
ATOM     23  O2  UNL     1      22.726  -5.883 -43.202  0.00  0.00    +0.000 OA
BRANCH  21  24
ATOM     24  N1  UNL     1      21.494  -6.494 -40.946  0.00  0.00    +0.000 NA
ATOM     25  H1  UNL     1      20.552  -6.299 -41.353  0.00  0.00    +0.000 HD
ATOM     26  H2  UNL     1      21.380  -7.306 -40.299  0.00  0.00    +0.000 HD
ENDBRANCH  21  24
ENDBRANCH  15  21
ENDBRANCH   1  18
BRANCH   4  27
ATOM     27  O3  UNL     1      30.086  -9.955 -43.956  0.00  0.00    +0.000 OA
ATOM     28  H5  UNL     1      29.314 -10.184 -44.572  0.00  0.00    +0.000 HD
ENDBRANCH   4  27
TORSDOF 5
ENDMDL
MODEL 8
REMARK VINA RESULT:    -5.096      4.471      9.527
REMARK INTER + INTRA:          -6.693
REMARK INTER:                  -6.314
REMARK INTRA:                  -0.379
REMARK UNBOUND:                -0.406
REMARK  Name = resultss/4CJN/ligands/lig_379_t2.pdb
REMARK  5 active torsions:
REMARK  status: ('A' for Active; 'I' for Inactive)
REMARK    1  A    between atoms: N1_1  and  S1_2
REMARK    2  A    between atoms: S1_2  and  C1_5
REMARK    3  A    between atoms: C4_8  and  N2_9
REMARK    4  A    between atoms: C6_12  and  O3_13
REMARK    5  A    between atoms: C8_15  and  C9_16
REMARK                            x       y       z     vdW  Elec       q    Type
REMARK                         _______ _______ _______ _____ _____    ______ ____
ROOT
ATOM      1  N2  UNL     1      28.743 -10.308 -41.761  0.00  0.00    +0.000 NA
ATOM      2  C5  UNL     1      28.727  -9.784 -40.572  0.00  0.00    +0.000 C 
ATOM      3  N3  UNL     1      29.867  -9.760 -39.719  0.00  0.00    +0.000 NA
ATOM      4  C6  UNL     1      29.568  -9.374 -38.526  0.00  0.00    +0.000 C 
ATOM      5  C7  UNL     1      28.144  -9.081 -38.311  0.00  0.00    +0.000 C 
ATOM      6  C8  UNL     1      27.553  -8.733 -37.159  0.00  0.00    +0.000 C 
ATOM      7  S2  UNL     1      27.204  -9.207 -39.832  0.00  0.00    +0.000 S 
ENDROOT
BRANCH   6   8
ATOM      8  C9  UNL     1      28.219  -8.712 -35.844  0.00  0.00    +0.000 A 
ATOM      9  C10 UNL     1      28.337  -9.901 -35.110  0.00  0.00    +0.000 A 
ATOM     10  C11 UNL     1      29.011  -9.909 -33.884  0.00  0.00    +0.000 A 
ATOM     11  C12 UNL     1      29.589  -8.733 -33.395  0.00  0.00    +0.000 A 
ATOM     12  F1  UNL     1      30.244  -8.743 -32.208  0.00  0.00    +0.000 F 
ATOM     13  C13 UNL     1      29.502  -7.551 -34.137  0.00  0.00    +0.000 A 
ATOM     14  C14 UNL     1      28.830  -7.541 -35.363  0.00  0.00    +0.000 A 
ENDBRANCH   6   8
BRANCH   1  18
ATOM     15  C1  UNL     1      32.094 -11.871 -43.856  0.00  0.00    +0.000 A 
ATOM     16  C2  UNL     1      31.351 -12.678 -42.984  0.00  0.00    +0.000 A 
ATOM     17  C3  UNL     1      30.252 -12.149 -42.301  0.00  0.00    +0.000 A 
ATOM     18  C4  UNL     1      29.897 -10.803 -42.459  0.00  0.00    +0.000 A 
ATOM     19  C15 UNL     1      30.631 -10.001 -43.353  0.00  0.00    +0.000 A 
ATOM     20  C16 UNL     1      31.729 -10.531 -44.037  0.00  0.00    +0.000 A 
BRANCH  15  21
ATOM     21  S1  UNL     1      33.487 -12.531 -44.707  0.00  0.00    +0.000 S 
ATOM     22  O1  UNL     1      34.363 -13.280 -43.742  0.00  0.00    +0.000 OA
ATOM     23  O2  UNL     1      34.288 -11.414 -45.318  0.00  0.00    +0.000 OA
BRANCH  21  24
ATOM     24  N1  UNL     1      32.945 -13.599 -45.952  0.00  0.00    +0.000 NA
ATOM     25  H1  UNL     1      32.177 -13.109 -46.463  0.00  0.00    +0.000 HD
ATOM     26  H2  UNL     1      33.735 -13.707 -46.627  0.00  0.00    +0.000 HD
ENDBRANCH  21  24
ENDBRANCH  15  21
ENDBRANCH   1  18
BRANCH   4  27
ATOM     27  O3  UNL     1      30.550  -9.226 -37.551  0.00  0.00    +0.000 OA
ATOM     28  H5  UNL     1      31.035 -10.032 -37.173  0.00  0.00    +0.000 HD
ENDBRANCH   4  27
TORSDOF 5
ENDMDL
MODEL 9
REMARK VINA RESULT:    -5.063      5.158      5.904
REMARK INTER + INTRA:          -6.652
REMARK INTER:                  -6.977
REMARK INTRA:                   0.325
REMARK UNBOUND:                -0.406
REMARK  Name = resultss/4CJN/ligands/lig_379_t2.pdb
REMARK  5 active torsions:
REMARK  status: ('A' for Active; 'I' for Inactive)
REMARK    1  A    between atoms: N1_1  and  S1_2
REMARK    2  A    between atoms: S1_2  and  C1_5
REMARK    3  A    between atoms: C4_8  and  N2_9
REMARK    4  A    between atoms: C6_12  and  O3_13
REMARK    5  A    between atoms: C8_15  and  C9_16
REMARK                            x       y       z     vdW  Elec       q    Type
REMARK                         _______ _______ _______ _____ _____    ______ ____
ROOT
ATOM      1  N2  UNL     1      26.838  -9.904 -37.546  0.00  0.00    +0.000 NA
ATOM      2  C5  UNL     1      27.115  -9.447 -38.730  0.00  0.00    +0.000 C 
ATOM      3  N3  UNL     1      26.628  -8.199 -39.214  0.00  0.00    +0.000 NA
ATOM      4  C6  UNL     1      26.863  -8.045 -40.471  0.00  0.00    +0.000 C 
ATOM      5  C7  UNL     1      27.539  -9.180 -41.116  0.00  0.00    +0.000 C 
ATOM      6  C8  UNL     1      27.837  -9.313 -42.416  0.00  0.00    +0.000 C 
ATOM      7  S2  UNL     1      27.991 -10.444 -39.930  0.00  0.00    +0.000 S 
ENDROOT
BRANCH   6   8
ATOM      8  C9  UNL     1      27.410  -8.383 -43.478  0.00  0.00    +0.000 A 
ATOM      9  C10 UNL     1      28.378  -7.699 -44.228  0.00  0.00    +0.000 A 
ATOM     10  C11 UNL     1      27.993  -6.853 -45.272  0.00  0.00    +0.000 A 
ATOM     11  C12 UNL     1      26.639  -6.702 -45.588  0.00  0.00    +0.000 A 
ATOM     12  F1  UNL     1      26.267  -5.883 -46.602  0.00  0.00    +0.000 F 
ATOM     13  C13 UNL     1      25.671  -7.405 -44.865  0.00  0.00    +0.000 A 
ATOM     14  C14 UNL     1      26.054  -8.253 -43.821  0.00  0.00    +0.000 A 
ENDBRANCH   6   8
BRANCH   1  18
ATOM     15  C1  UNL     1      24.684  -7.870 -34.498  0.00  0.00    +0.000 A 
ATOM     16  C2  UNL     1      24.252  -7.835 -35.830  0.00  0.00    +0.000 A 
ATOM     17  C3  UNL     1      24.971  -8.508 -36.822  0.00  0.00    +0.000 A 
ATOM     18  C4  UNL     1      26.145  -9.202 -36.501  0.00  0.00    +0.000 A 
ATOM     19  C15 UNL     1      26.565  -9.255 -35.159  0.00  0.00    +0.000 A 
ATOM     20  C16 UNL     1      25.844  -8.583 -34.167  0.00  0.00    +0.000 A 
BRANCH  15  21
ATOM     21  S1  UNL     1      23.788  -7.013 -33.249  0.00  0.00    +0.000 S 
ATOM     22  O1  UNL     1      22.675  -6.220 -33.876  0.00  0.00    +0.000 OA
ATOM     23  O2  UNL     1      24.702  -6.067 -32.521  0.00  0.00    +0.000 OA
BRANCH  21  24
ATOM     24  N1  UNL     1      23.130  -8.153 -32.130  0.00  0.00    +0.000 NA
ATOM     25  H1  UNL     1      22.745  -8.946 -32.691  0.00  0.00    +0.000 HD
ATOM     26  H2  UNL     1      23.930  -8.536 -31.578  0.00  0.00    +0.000 HD
ENDBRANCH  21  24
ENDBRANCH  15  21
ENDBRANCH   1  18
BRANCH   4  27
ATOM     27  O3  UNL     1      26.518  -6.868 -41.128  0.00  0.00    +0.000 OA
ATOM     28  H5  UNL     1      27.220  -6.172 -41.354  0.00  0.00    +0.000 HD
ENDBRANCH   4  27
TORSDOF 5
ENDMDL
