MODEL 1
REMARK VINA RESULT:    -4.214      0.000      0.000
REMARK INTER + INTRA:          -5.388
REMARK INTER:                  -5.322
REMARK INTRA:                  -0.066
REMARK UNBOUND:                -0.066
REMARK  Name = resultss/4CJN/ligands/lig_4_t0.pdb
REMARK  7 active torsions:
REMARK  status: ('A' for Active; 'I' for Inactive)
REMARK    1  A    between atoms: O1_1  and  C1_2
REMARK    2  A    between atoms: C1_2  and  C2_3
REMARK    3  A    between atoms: C3_5  and  C4_6
REMARK    4  A    between atoms: C4_6  and  O2_7
REMARK    5  A    between atoms: C5_8  and  O3_9
REMARK    6  A    between atoms: C6_10  and  O4_11
REMARK    7  A    between atoms: C7_12  and  O5_13
REMARK                            x       y       z     vdW  Elec       q    Type
REMARK                         _______ _______ _______ _____ _____    ______ ____
ROOT
ATOM      1  C2  UNL     1      26.900  -8.432 -32.825  0.00  0.00    +0.000 C 
ATOM      2  N1  UNL     1      25.798  -7.452 -32.906  0.00  0.00    +0.000 NA
ATOM      3  C3  UNL     1      24.607  -8.034 -33.550  0.00  0.00    +0.000 C 
ATOM      4  C5  UNL     1      24.933  -8.449 -35.004  0.00  0.00    +0.000 C 
ATOM      5  C6  UNL     1      26.096  -9.458 -35.022  0.00  0.00    +0.000 C 
ATOM      6  C7  UNL     1      27.308  -8.894 -34.249  0.00  0.00    +0.000 C 
ATOM      7  H5  UNL     1      25.531  -7.192 -31.927  0.00  0.00    +0.000 HD
ENDROOT
BRANCH   4   8
ATOM      8  O3  UNL     1      25.272  -7.313 -35.761  0.00  0.00    +0.000 OA
ATOM      9  H11 UNL     1      26.210  -7.084 -35.533  0.00  0.00    +0.000 HD
ENDBRANCH   4   8
BRANCH   5  10
ATOM     10  O4  UNL     1      25.664 -10.670 -34.453  0.00  0.00    +0.000 OA
ATOM     11  H13 UNL     1      25.777 -10.588 -33.470  0.00  0.00    +0.000 HD
ENDBRANCH   5  10
BRANCH   6  12
ATOM     12  O5  UNL     1      28.356  -9.833 -34.217  0.00  0.00    +0.000 OA
ATOM     13  H15 UNL     1      29.203  -9.352 -34.410  0.00  0.00    +0.000 HD
ENDBRANCH   6  12
BRANCH   1  14
ATOM     14  C1  UNL     1      28.109  -7.795 -32.107  0.00  0.00    +0.000 C 
BRANCH  14  15
ATOM     15  O1  UNL     1      27.699  -7.102 -30.958  0.00  0.00    +0.000 OA
ATOM     16  H1  UNL     1      28.087  -6.190 -31.023  0.00  0.00    +0.000 HD
ENDBRANCH  14  15
ENDBRANCH   1  14
BRANCH   3  17
ATOM     17  C4  UNL     1      23.444  -7.021 -33.506  0.00  0.00    +0.000 C 
BRANCH  17  18
ATOM     18  O2  UNL     1      23.162  -6.633 -32.188  0.00  0.00    +0.000 OA
ATOM     19  H9  UNL     1      24.031  -6.394 -31.771  0.00  0.00    +0.000 HD
ENDBRANCH  17  18
ENDBRANCH   3  17
TORSDOF 7
ENDMDL
MODEL 2
REMARK VINA RESULT:    -4.165      2.250      3.959
REMARK INTER + INTRA:          -5.327
REMARK INTER:                  -5.036
REMARK INTRA:                  -0.291
REMARK UNBOUND:                -0.066
REMARK  Name = resultss/4CJN/ligands/lig_4_t0.pdb
REMARK  7 active torsions:
REMARK  status: ('A' for Active; 'I' for Inactive)
REMARK    1  A    between atoms: O1_1  and  C1_2
REMARK    2  A    between atoms: C1_2  and  C2_3
REMARK    3  A    between atoms: C3_5  and  C4_6
REMARK    4  A    between atoms: C4_6  and  O2_7
REMARK    5  A    between atoms: C5_8  and  O3_9
REMARK    6  A    between atoms: C6_10  and  O4_11
REMARK    7  A    between atoms: C7_12  and  O5_13
REMARK                            x       y       z     vdW  Elec       q    Type
REMARK                         _______ _______ _______ _____ _____    ______ ____
ROOT
ATOM      1  C2  UNL     1      25.971  -8.351 -36.915  0.00  0.00    +0.000 C 
ATOM      2  N1  UNL     1      24.750  -8.522 -36.102  0.00  0.00    +0.000 NA
ATOM      3  C3  UNL     1      25.034  -8.365 -34.664  0.00  0.00    +0.000 C 
ATOM      4  C5  UNL     1      26.031  -9.452 -34.194  0.00  0.00    +0.000 C 
ATOM      5  C6  UNL     1      27.335  -9.367 -35.008  0.00  0.00    +0.000 C 
ATOM      6  C7  UNL     1      27.027  -9.417 -36.520  0.00  0.00    +0.000 C 
ATOM      7  H5  UNL     1      24.079  -7.766 -36.374  0.00  0.00    +0.000 HD
ENDROOT
BRANCH   4   8
ATOM      8  O3  UNL     1      25.454 -10.726 -34.342  0.00  0.00    +0.000 OA
ATOM      9  H11 UNL     1      25.696 -11.048 -35.250  0.00  0.00    +0.000 HD
ENDBRANCH   4   8
BRANCH   5  10
ATOM     10  O4  UNL     1      28.008  -8.177 -34.677  0.00  0.00    +0.000 OA
ATOM     11  H13 UNL     1      27.348  -7.439 -34.744  0.00  0.00    +0.000 HD
ENDBRANCH   5  10
BRANCH   6  12
ATOM     12  O5  UNL     1      28.211  -9.288 -37.271  0.00  0.00    +0.000 OA
ATOM     13  H15 UNL     1      28.497 -10.197 -37.550  0.00  0.00    +0.000 HD
ENDBRANCH   6  12
BRANCH   1  14
ATOM     14  C1  UNL     1      25.619  -8.480 -38.412  0.00  0.00    +0.000 C 
BRANCH  14  15
ATOM     15  O1  UNL     1      24.253  -8.748 -38.583  0.00  0.00    +0.000 OA
ATOM     16  H1  UNL     1      23.956  -8.218 -39.369  0.00  0.00    +0.000 HD
ENDBRANCH  14  15
ENDBRANCH   1  14
BRANCH   3  17
ATOM     17  C4  UNL     1      23.718  -8.431 -33.863  0.00  0.00    +0.000 C 
BRANCH  17  18
ATOM     18  O2  UNL     1      23.948  -8.867 -32.550  0.00  0.00    +0.000 OA
ATOM     19  H9  UNL     1      24.806  -8.460 -32.261  0.00  0.00    +0.000 HD
ENDBRANCH  17  18
ENDBRANCH   3  17
TORSDOF 7
ENDMDL
MODEL 3
REMARK VINA RESULT:    -4.149      2.089      3.663
REMARK INTER + INTRA:          -5.306
REMARK INTER:                  -5.054
REMARK INTRA:                  -0.251
REMARK UNBOUND:                -0.066
REMARK  Name = resultss/4CJN/ligands/lig_4_t0.pdb
REMARK  7 active torsions:
REMARK  status: ('A' for Active; 'I' for Inactive)
REMARK    1  A    between atoms: O1_1  and  C1_2
REMARK    2  A    between atoms: C1_2  and  C2_3
REMARK    3  A    between atoms: C3_5  and  C4_6
REMARK    4  A    between atoms: C4_6  and  O2_7
REMARK    5  A    between atoms: C5_8  and  O3_9
REMARK    6  A    between atoms: C6_10  and  O4_11
REMARK    7  A    between atoms: C7_12  and  O5_13
REMARK                            x       y       z     vdW  Elec       q    Type
REMARK                         _______ _______ _______ _____ _____    ______ ____
ROOT
ATOM      1  C2  UNL     1      24.442  -7.617 -34.491  0.00  0.00    +0.000 C 
ATOM      2  N1  UNL     1      24.642  -7.290 -35.917  0.00  0.00    +0.000 NA
ATOM      3  C3  UNL     1      25.037  -8.480 -36.692  0.00  0.00    +0.000 C 
ATOM      4  C5  UNL     1      26.387  -9.031 -36.175  0.00  0.00    +0.000 C 
ATOM      5  C6  UNL     1      26.283  -9.380 -34.679  0.00  0.00    +0.000 C 
ATOM      6  C7  UNL     1      25.760  -8.166 -33.881  0.00  0.00    +0.000 C 
ATOM      7  H5  UNL     1      23.725  -6.957 -36.299  0.00  0.00    +0.000 HD
ENDROOT
BRANCH   4   8
ATOM      8  O3  UNL     1      27.402  -8.079 -36.376  0.00  0.00    +0.000 OA
ATOM      9  H11 UNL     1      27.001  -7.188 -36.199  0.00  0.00    +0.000 HD
ENDBRANCH   4   8
BRANCH   5  10
ATOM     10  O4  UNL     1      25.426 -10.484 -34.521  0.00  0.00    +0.000 OA
ATOM     11  H13 UNL     1      25.943 -11.193 -34.057  0.00  0.00    +0.000 HD
ENDBRANCH   5  10
BRANCH   6  12
ATOM     12  O5  UNL     1      25.612  -8.494 -32.520  0.00  0.00    +0.000 OA
ATOM     13  H15 UNL     1      25.464  -7.651 -32.017  0.00  0.00    +0.000 HD
ENDBRANCH   6  12
BRANCH   1  14
ATOM     14  C1  UNL     1      23.989  -6.355 -33.728  0.00  0.00    +0.000 C 
BRANCH  14  15
ATOM     15  O1  UNL     1      23.531  -6.685 -32.443  0.00  0.00    +0.000 OA
ATOM     16  H1  UNL     1      22.940  -5.942 -32.153  0.00  0.00    +0.000 HD
ENDBRANCH  14  15
ENDBRANCH   1  14
BRANCH   3  17
ATOM     17  C4  UNL     1      25.118  -8.122 -38.191  0.00  0.00    +0.000 C 
BRANCH  17  18
ATOM     18  O2  UNL     1      24.235  -8.909 -38.945  0.00  0.00    +0.000 OA
ATOM     19  H9  UNL     1      23.395  -8.387 -39.034  0.00  0.00    +0.000 HD
ENDBRANCH  17  18
ENDBRANCH   3  17
TORSDOF 7
ENDMDL
MODEL 4
REMARK VINA RESULT:    -4.127      3.103      5.429
REMARK INTER + INTRA:          -5.278
REMARK INTER:                  -4.784
REMARK INTRA:                  -0.494
REMARK UNBOUND:                -0.066
REMARK  Name = resultss/4CJN/ligands/lig_4_t0.pdb
REMARK  7 active torsions:
REMARK  status: ('A' for Active; 'I' for Inactive)
REMARK    1  A    between atoms: O1_1  and  C1_2
REMARK    2  A    between atoms: C1_2  and  C2_3
REMARK    3  A    between atoms: C3_5  and  C4_6
REMARK    4  A    between atoms: C4_6  and  O2_7
REMARK    5  A    between atoms: C5_8  and  O3_9
REMARK    6  A    between atoms: C6_10  and  O4_11
REMARK    7  A    between atoms: C7_12  and  O5_13
REMARK                            x       y       z     vdW  Elec       q    Type
REMARK                         _______ _______ _______ _____ _____    ______ ____
ROOT
ATOM      1  C2  UNL     1      26.937  -9.038 -35.518  0.00  0.00    +0.000 C 
ATOM      2  N1  UNL     1      28.233  -9.735 -35.643  0.00  0.00    +0.000 NA
ATOM      3  C3  UNL     1      28.933  -9.352 -36.881  0.00  0.00    +0.000 C 
ATOM      4  C5  UNL     1      28.096  -9.757 -38.118  0.00  0.00    +0.000 C 
ATOM      5  C6  UNL     1      26.708  -9.093 -38.063  0.00  0.00    +0.000 C 
ATOM      6  C7  UNL     1      26.019  -9.402 -36.716  0.00  0.00    +0.000 C 
ATOM      7  H5  UNL     1      28.832  -9.438 -34.838  0.00  0.00    +0.000 HD
ENDROOT
BRANCH   4   8
ATOM      8  O3  UNL     1      27.957 -11.155 -38.165  0.00  0.00    +0.000 OA
ATOM      9  H11 UNL     1      27.621 -11.442 -37.275  0.00  0.00    +0.000 HD
ENDBRANCH   4   8
BRANCH   5  10
ATOM     10  O4  UNL     1      26.854  -7.704 -38.239  0.00  0.00    +0.000 OA
ATOM     11  H13 UNL     1      26.819  -7.527 -39.215  0.00  0.00    +0.000 HD
ENDBRANCH   5  10
BRANCH   6  12
ATOM     12  O5  UNL     1      24.772  -8.754 -36.638  0.00  0.00    +0.000 OA
ATOM     13  H15 UNL     1      24.449  -8.600 -37.565  0.00  0.00    +0.000 HD
ENDBRANCH   6  12
BRANCH   1  14
ATOM     14  C1  UNL     1      26.259  -9.436 -34.190  0.00  0.00    +0.000 C 
BRANCH  14  15
ATOM     15  O1  UNL     1      25.449 -10.569 -34.362  0.00  0.00    +0.000 OA
ATOM     16  H1  UNL     1      25.671 -11.191 -33.621  0.00  0.00    +0.000 HD
ENDBRANCH  14  15
ENDBRANCH   1  14
BRANCH   3  17
ATOM     17  C4  UNL     1      30.330 -10.006 -36.914  0.00  0.00    +0.000 C 
BRANCH  17  18
ATOM     18  O2  UNL     1      30.674 -10.395 -38.216  0.00  0.00    +0.000 OA
ATOM     19  H9  UNL     1      31.020 -11.324 -38.154  0.00  0.00    +0.000 HD
ENDBRANCH  17  18
ENDBRANCH   3  17
TORSDOF 7
ENDMDL
MODEL 5
REMARK VINA RESULT:    -4.116      1.626      3.637
REMARK INTER + INTRA:          -5.265
REMARK INTER:                  -4.777
REMARK INTRA:                  -0.487
REMARK UNBOUND:                -0.066
REMARK  Name = resultss/4CJN/ligands/lig_4_t0.pdb
REMARK  7 active torsions:
REMARK  status: ('A' for Active; 'I' for Inactive)
REMARK    1  A    between atoms: O1_1  and  C1_2
REMARK    2  A    between atoms: C1_2  and  C2_3
REMARK    3  A    between atoms: C3_5  and  C4_6
REMARK    4  A    between atoms: C4_6  and  O2_7
REMARK    5  A    between atoms: C5_8  and  O3_9
REMARK    6  A    between atoms: C6_10  and  O4_11
REMARK    7  A    between atoms: C7_12  and  O5_13
REMARK                            x       y       z     vdW  Elec       q    Type
REMARK                         _______ _______ _______ _____ _____    ______ ____
ROOT
ATOM      1  C2  UNL     1      25.361  -8.450 -33.577  0.00  0.00    +0.000 C 
ATOM      2  N1  UNL     1      26.052  -7.602 -32.585  0.00  0.00    +0.000 NA
ATOM      3  C3  UNL     1      27.305  -7.049 -33.129  0.00  0.00    +0.000 C 
ATOM      4  C5  UNL     1      28.284  -8.193 -33.487  0.00  0.00    +0.000 C 
ATOM      5  C6  UNL     1      27.637  -9.150 -34.505  0.00  0.00    +0.000 C 
ATOM      6  C7  UNL     1      26.269  -9.641 -33.984  0.00  0.00    +0.000 C 
ATOM      7  H5  UNL     1      25.423  -6.794 -32.364  0.00  0.00    +0.000 HD
ENDROOT
BRANCH   4   8
ATOM      8  O3  UNL     1      28.640  -8.899 -32.324  0.00  0.00    +0.000 OA
ATOM      9  H11 UNL     1      27.853  -8.874 -31.719  0.00  0.00    +0.000 HD
ENDBRANCH   4   8
BRANCH   5  10
ATOM     10  O4  UNL     1      27.490  -8.483 -35.735  0.00  0.00    +0.000 OA
ATOM     11  H13 UNL     1      27.396  -7.516 -35.535  0.00  0.00    +0.000 HD
ENDBRANCH   5  10
BRANCH   6  12
ATOM     12  O5  UNL     1      25.648 -10.475 -34.933  0.00  0.00    +0.000 OA
ATOM     13  H15 UNL     1      25.453 -11.344 -34.494  0.00  0.00    +0.000 HD
ENDBRANCH   6  12
BRANCH   1  14
ATOM     14  C1  UNL     1      24.036  -8.970 -32.982  0.00  0.00    +0.000 C 
BRANCH  14  15
ATOM     15  O1  UNL     1      23.076  -9.160 -33.987  0.00  0.00    +0.000 OA
ATOM     16  H1  UNL     1      22.900  -8.267 -34.384  0.00  0.00    +0.000 HD
ENDBRANCH  14  15
ENDBRANCH   1  14
BRANCH   3  17
ATOM     17  C4  UNL     1      27.932  -6.077 -32.109  0.00  0.00    +0.000 C 
BRANCH  17  18
ATOM     18  O2  UNL     1      27.658  -6.479 -30.794  0.00  0.00    +0.000 OA
ATOM     19  H9  UNL     1      26.716  -6.224 -30.609  0.00  0.00    +0.000 HD
ENDBRANCH  17  18
ENDBRANCH   3  17
TORSDOF 7
ENDMDL
MODEL 6
REMARK VINA RESULT:    -4.098      1.618      3.709
REMARK INTER + INTRA:          -5.242
REMARK INTER:                  -4.779
REMARK INTRA:                  -0.462
REMARK UNBOUND:                -0.066
REMARK  Name = resultss/4CJN/ligands/lig_4_t0.pdb
REMARK  7 active torsions:
REMARK  status: ('A' for Active; 'I' for Inactive)
REMARK    1  A    between atoms: O1_1  and  C1_2
REMARK    2  A    between atoms: C1_2  and  C2_3
REMARK    3  A    between atoms: C3_5  and  C4_6
REMARK    4  A    between atoms: C4_6  and  O2_7
REMARK    5  A    between atoms: C5_8  and  O3_9
REMARK    6  A    between atoms: C6_10  and  O4_11
REMARK    7  A    between atoms: C7_12  and  O5_13
REMARK                            x       y       z     vdW  Elec       q    Type
REMARK                         _______ _______ _______ _____ _____    ______ ____
ROOT
ATOM      1  C2  UNL     1      27.450  -7.834 -33.197  0.00  0.00    +0.000 C 
ATOM      2  N1  UNL     1      28.071  -8.949 -33.940  0.00  0.00    +0.000 NA
ATOM      3  C3  UNL     1      27.618  -8.979 -35.343  0.00  0.00    +0.000 C 
ATOM      4  C5  UNL     1      26.090  -9.207 -35.406  0.00  0.00    +0.000 C 
ATOM      5  C6  UNL     1      25.352  -8.100 -34.632  0.00  0.00    +0.000 C 
ATOM      6  C7  UNL     1      25.906  -7.992 -33.195  0.00  0.00    +0.000 C 
ATOM      7  H5  UNL     1      29.106  -8.788 -33.948  0.00  0.00    +0.000 HD
ENDROOT
BRANCH   4   8
ATOM      8  O3  UNL     1      25.770 -10.466 -34.866  0.00  0.00    +0.000 OA
ATOM      9  H11 UNL     1      24.934 -10.350 -34.343  0.00  0.00    +0.000 HD
ENDBRANCH   4   8
BRANCH   5  10
ATOM     10  O4  UNL     1      25.504  -6.879 -35.316  0.00  0.00    +0.000 OA
ATOM     11  H13 UNL     1      25.387  -7.069 -36.283  0.00  0.00    +0.000 HD
ENDBRANCH   5  10
BRANCH   6  12
ATOM     12  O5  UNL     1      25.272  -6.946 -32.497  0.00  0.00    +0.000 OA
ATOM     13  H15 UNL     1      25.801  -6.761 -31.677  0.00  0.00    +0.000 HD
ENDBRANCH   6  12
BRANCH   1  14
ATOM     14  C1  UNL     1      27.984  -7.815 -31.749  0.00  0.00    +0.000 C 
BRANCH  14  15
ATOM     15  O1  UNL     1      27.567  -6.656 -31.078  0.00  0.00    +0.000 OA
ATOM     16  H1  UNL     1      27.844  -5.886 -31.642  0.00  0.00    +0.000 HD
ENDBRANCH  14  15
ENDBRANCH   1  14
BRANCH   3  17
ATOM     17  C4  UNL     1      28.379 -10.078 -36.112  0.00  0.00    +0.000 C 
BRANCH  17  18
ATOM     18  O2  UNL     1      27.600 -10.594 -37.158  0.00  0.00    +0.000 OA
ATOM     19  H9  UNL     1      27.229  -9.814 -37.647  0.00  0.00    +0.000 HD
ENDBRANCH  17  18
ENDBRANCH   3  17
TORSDOF 7
ENDMDL
MODEL 7
REMARK VINA RESULT:    -4.079      2.213      4.801
REMARK INTER + INTRA:          -5.218
REMARK INTER:                  -4.748
REMARK INTRA:                  -0.470
REMARK UNBOUND:                -0.066
REMARK  Name = resultss/4CJN/ligands/lig_4_t0.pdb
REMARK  7 active torsions:
REMARK  status: ('A' for Active; 'I' for Inactive)
REMARK    1  A    between atoms: O1_1  and  C1_2
REMARK    2  A    between atoms: C1_2  and  C2_3
REMARK    3  A    between atoms: C3_5  and  C4_6
REMARK    4  A    between atoms: C4_6  and  O2_7
REMARK    5  A    between atoms: C5_8  and  O3_9
REMARK    6  A    between atoms: C6_10  and  O4_11
REMARK    7  A    between atoms: C7_12  and  O5_13
REMARK                            x       y       z     vdW  Elec       q    Type
REMARK                         _______ _______ _______ _____ _____    ______ ____
ROOT
ATOM      1  C2  UNL     1      25.833  -9.035 -36.524  0.00  0.00    +0.000 C 
ATOM      2  N1  UNL     1      27.284  -9.009 -36.251  0.00  0.00    +0.000 NA
ATOM      3  C3  UNL     1      27.609  -9.712 -34.998  0.00  0.00    +0.000 C 
ATOM      4  C5  UNL     1      26.925  -9.014 -33.799  0.00  0.00    +0.000 C 
ATOM      5  C6  UNL     1      25.400  -8.972 -34.005  0.00  0.00    +0.000 C 
ATOM      6  C7  UNL     1      25.062  -8.336 -35.372  0.00  0.00    +0.000 C 
ATOM      7  H5  UNL     1      27.763  -9.518 -37.031  0.00  0.00    +0.000 HD
ENDROOT
BRANCH   4   8
ATOM      8  O3  UNL     1      27.426  -7.708 -33.655  0.00  0.00    +0.000 OA
ATOM      9  H11 UNL     1      26.743  -7.191 -33.154  0.00  0.00    +0.000 HD
ENDBRANCH   4   8
BRANCH   5  10
ATOM     10  O4  UNL     1      24.887 -10.280 -33.926  0.00  0.00    +0.000 OA
ATOM     11  H13 UNL     1      25.625 -10.899 -34.167  0.00  0.00    +0.000 HD
ENDBRANCH   5  10
BRANCH   6  12
ATOM     12  O5  UNL     1      23.672  -8.342 -35.590  0.00  0.00    +0.000 OA
ATOM     13  H15 UNL     1      23.345  -7.408 -35.507  0.00  0.00    +0.000 HD
ENDBRANCH   6  12
BRANCH   1  14
ATOM     14  C1  UNL     1      25.543  -8.326 -37.863  0.00  0.00    +0.000 C 
BRANCH  14  15
ATOM     15  O1  UNL     1      24.305  -8.731 -38.386  0.00  0.00    +0.000 OA
ATOM     16  H1  UNL     1      23.691  -7.957 -38.293  0.00  0.00    +0.000 HD
ENDBRANCH  14  15
ENDBRANCH   1  14
BRANCH   3  17
ATOM     17  C4  UNL     1      29.140  -9.766 -34.813  0.00  0.00    +0.000 C 
BRANCH  17  18
ATOM     18  O2  UNL     1      29.478 -10.045 -33.481  0.00  0.00    +0.000 OA
ATOM     19  H9  UNL     1      28.623 -10.141 -32.985  0.00  0.00    +0.000 HD
ENDBRANCH  17  18
ENDBRANCH   3  17
TORSDOF 7
ENDMDL
MODEL 8
REMARK VINA RESULT:    -4.049      2.009      4.368
REMARK INTER + INTRA:          -5.180
REMARK INTER:                  -4.681
REMARK INTRA:                  -0.500
REMARK UNBOUND:                -0.066
REMARK  Name = resultss/4CJN/ligands/lig_4_t0.pdb
REMARK  7 active torsions:
REMARK  status: ('A' for Active; 'I' for Inactive)
REMARK    1  A    between atoms: O1_1  and  C1_2
REMARK    2  A    between atoms: C1_2  and  C2_3
REMARK    3  A    between atoms: C3_5  and  C4_6
REMARK    4  A    between atoms: C4_6  and  O2_7
REMARK    5  A    between atoms: C5_8  and  O3_9
REMARK    6  A    between atoms: C6_10  and  O4_11
REMARK    7  A    between atoms: C7_12  and  O5_13
REMARK                            x       y       z     vdW  Elec       q    Type
REMARK                         _______ _______ _______ _____ _____    ______ ____
ROOT
ATOM      1  C2  UNL     1      24.250  -7.715 -35.323  0.00  0.00    +0.000 C 
ATOM      2  N1  UNL     1      25.504  -6.944 -35.199  0.00  0.00    +0.000 NA
ATOM      3  C3  UNL     1      26.642  -7.819 -34.866  0.00  0.00    +0.000 C 
ATOM      4  C5  UNL     1      26.410  -8.502 -33.497  0.00  0.00    +0.000 C 
ATOM      5  C6  UNL     1      25.103  -9.315 -33.522  0.00  0.00    +0.000 C 
ATOM      6  C7  UNL     1      23.927  -8.425 -33.981  0.00  0.00    +0.000 C 
ATOM      7  H5  UNL     1      25.704  -6.511 -36.131  0.00  0.00    +0.000 HD
ENDROOT
BRANCH   4   8
ATOM      8  O3  UNL     1      26.352  -7.532 -32.481  0.00  0.00    +0.000 OA
ATOM      9  H11 UNL     1      26.674  -6.680 -32.878  0.00  0.00    +0.000 HD
ENDBRANCH   4   8
BRANCH   5  10
ATOM     10  O4  UNL     1      25.259 -10.415 -34.385  0.00  0.00    +0.000 OA
ATOM     11  H13 UNL     1      25.400 -11.216 -33.816  0.00  0.00    +0.000 HD
ENDBRANCH   5  10
BRANCH   6  12
ATOM     12  O5  UNL     1      22.738  -9.175 -34.057  0.00  0.00    +0.000 OA
ATOM     13  H15 UNL     1      22.983 -10.115 -34.262  0.00  0.00    +0.000 HD
ENDBRANCH   6  12
BRANCH   1  14
ATOM     14  C1  UNL     1      23.096  -6.768 -35.714  0.00  0.00    +0.000 C 
BRANCH  14  15
ATOM     15  O1  UNL     1      22.053  -7.477 -36.328  0.00  0.00    +0.000 OA
ATOM     16  H1  UNL     1      21.300  -7.490 -35.681  0.00  0.00    +0.000 HD
ENDBRANCH  14  15
ENDBRANCH   1  14
BRANCH   3  17
ATOM     17  C4  UNL     1      27.948  -6.998 -34.865  0.00  0.00    +0.000 C 
BRANCH  17  18
ATOM     18  O2  UNL     1      28.889  -7.547 -33.982  0.00  0.00    +0.000 OA
ATOM     19  H9  UNL     1      29.102  -6.841 -33.318  0.00  0.00    +0.000 HD
ENDBRANCH  17  18
ENDBRANCH   3  17
TORSDOF 7
ENDMDL
MODEL 9
REMARK VINA RESULT:    -3.977      6.399      7.861
REMARK INTER + INTRA:          -5.089
REMARK INTER:                  -4.619
REMARK INTRA:                  -0.470
REMARK UNBOUND:                -0.066
REMARK  Name = resultss/4CJN/ligands/lig_4_t0.pdb
REMARK  7 active torsions:
REMARK  status: ('A' for Active; 'I' for Inactive)
REMARK    1  A    between atoms: O1_1  and  C1_2
REMARK    2  A    between atoms: C1_2  and  C2_3
REMARK    3  A    between atoms: C3_5  and  C4_6
REMARK    4  A    between atoms: C4_6  and  O2_7
REMARK    5  A    between atoms: C5_8  and  O3_9
REMARK    6  A    between atoms: C6_10  and  O4_11
REMARK    7  A    between atoms: C7_12  and  O5_13
REMARK                            x       y       z     vdW  Elec       q    Type
REMARK                         _______ _______ _______ _____ _____    ______ ____
ROOT
ATOM      1  C2  UNL     1      27.557  -9.545 -40.955  0.00  0.00    +0.000 C 
ATOM      2  N1  UNL     1      26.416  -9.749 -41.871  0.00  0.00    +0.000 NA
ATOM      3  C3  UNL     1      25.516  -8.582 -41.877  0.00  0.00    +0.000 C 
ATOM      4  C5  UNL     1      24.914  -8.362 -40.468  0.00  0.00    +0.000 C 
ATOM      5  C6  UNL     1      26.037  -8.164 -39.434  0.00  0.00    +0.000 C 
ATOM      6  C7  UNL     1      27.044  -9.332 -39.505  0.00  0.00    +0.000 C 
ATOM      7  H5  UNL     1      26.801  -9.854 -42.839  0.00  0.00    +0.000 HD
ENDROOT
BRANCH   4   8
ATOM      8  O3  UNL     1      24.121  -9.466 -40.109  0.00  0.00    +0.000 OA
ATOM      9  H11 UNL     1      24.215  -9.582 -39.128  0.00  0.00    +0.000 HD
ENDBRANCH   4   8
BRANCH   5  10
ATOM     10  O4  UNL     1      26.681  -6.937 -39.681  0.00  0.00    +0.000 OA
ATOM     11  H13 UNL     1      27.655  -7.121 -39.725  0.00  0.00    +0.000 HD
ENDBRANCH   5  10
BRANCH   6  12
ATOM     12  O5  UNL     1      28.102  -9.130 -38.598  0.00  0.00    +0.000 OA
ATOM     13  H15 UNL     1      28.365  -8.174 -38.644  0.00  0.00    +0.000 HD
ENDBRANCH   6  12
BRANCH   1  14
ATOM     14  C1  UNL     1      28.493 -10.770 -41.012  0.00  0.00    +0.000 C 
BRANCH  14  15
ATOM     15  O1  UNL     1      28.038 -11.788 -40.161  0.00  0.00    +0.000 OA
ATOM     16  H1  UNL     1      27.982 -12.613 -40.709  0.00  0.00    +0.000 HD
ENDBRANCH  14  15
ENDBRANCH   1  14
BRANCH   3  17
ATOM     17  C4  UNL     1      24.408  -8.784 -42.931  0.00  0.00    +0.000 C 
BRANCH  17  18
ATOM     18  O2  UNL     1      23.833 -10.058 -42.821  0.00  0.00    +0.000 OA
ATOM     19  H9  UNL     1      22.852  -9.921 -42.750  0.00  0.00    +0.000 HD
ENDBRANCH  17  18
ENDBRANCH   3  17
TORSDOF 7
ENDMDL
