MODEL 1
REMARK VINA RESULT:    -7.499      0.000      0.000
REMARK INTER + INTRA:         -14.308
REMARK INTER:                 -12.102
REMARK INTRA:                  -2.206
REMARK UNBOUND:                -2.206
REMARK  Name = resultss/4CJN/ligands/lig_346_t2.pdb
REMARK  11 active torsions:
REMARK  status: ('A' for Active; 'I' for Inactive)
REMARK    1  A    between atoms: C1_2  and  C2_3
REMARK    2  A    between atoms: C2_3  and  N1_4
REMARK    3  A    between atoms: C4_6  and  C5_7
REMARK    4  A    between atoms: C5_7  and  O2_8
REMARK    5  A    between atoms: O2_8  and  C6_9
REMARK    6  A    between atoms: C9_12  and  C10_13
REMARK    7  A    between atoms: C17_21  and  O3_22
REMARK    8  A    between atoms: N3_23  and  N4_24
REMARK    9  A    between atoms: N4_24  and  C18_25
REMARK   10  A    between atoms: N7_35  and  C26_36
REMARK   11  A    between atoms: C26_36  and  C27_37
REMARK                            x       y       z     vdW  Elec       q    Type
REMARK                         _______ _______ _______ _____ _____    ______ ____
ROOT
ATOM      1  C6  UNL     1      25.414  -8.439 -38.005  0.00  0.00    +0.000 A 
ATOM      2  C7  UNL     1      25.675  -7.064 -37.961  0.00  0.00    +0.000 A 
ATOM      3  C8  UNL     1      26.553  -6.537 -37.011  0.00  0.00    +0.000 A 
ATOM      4  C9  UNL     1      27.185  -7.381 -36.082  0.00  0.00    +0.000 A 
ATOM      5  C24 UNL     1      26.934  -8.763 -36.131  0.00  0.00    +0.000 A 
ATOM      6  C25 UNL     1      26.053  -9.288 -37.082  0.00  0.00    +0.000 A 
ENDROOT
BRANCH   4   7
ATOM      7  C10 UNL     1      28.160  -6.817 -35.076  0.00  0.00    +0.000 C 
ATOM      8  N2  UNL     1      29.442  -7.515 -35.200  0.00  0.00    +0.000 NA
ATOM      9  C11 UNL     1      29.975  -8.264 -34.282  0.00  0.00    +0.000 A 
ATOM     10  C12 UNL     1      31.187  -8.909 -34.563  0.00  0.00    +0.000 A 
ATOM     11  C13 UNL     1      31.786  -9.737 -33.611  0.00  0.00    +0.000 A 
ATOM     12  C14 UNL     1      31.179  -9.921 -32.368  0.00  0.00    +0.000 A 
ATOM     13  C15 UNL     1      29.976  -9.278 -32.072  0.00  0.00    +0.000 A 
ATOM     14  C16 UNL     1      29.357  -8.439 -33.023  0.00  0.00    +0.000 A 
ATOM     15  C17 UNL     1      28.207  -7.800 -32.740  0.00  0.00    +0.000 C 
ATOM     16  N3  UNL     1      27.601  -6.933 -33.720  0.00  0.00    +0.000 N 
BRANCH  15  17
ATOM     17  O3  UNL     1      27.613  -7.955 -31.485  0.00  0.00    +0.000 OA
ATOM     18  H13 UNL     1      27.001  -8.730 -31.265  0.00  0.00    +0.000 HD
ENDBRANCH  15  17
BRANCH  16  19
ATOM     19  N4  UNL     1      26.347  -6.350 -33.449  0.00  0.00    +0.000 N 
ATOM     20  H14 UNL     1      26.317  -5.422 -32.973  0.00  0.00    +0.000 HD
BRANCH  19  21
ATOM     21  C18 UNL     1      25.117  -7.048 -33.688  0.00  0.00    +0.000 A 
ATOM     22  C19 UNL     1      24.915  -8.348 -33.189  0.00  0.00    +0.000 A 
ATOM     23  C20 UNL     1      23.719  -9.023 -33.447  0.00  0.00    +0.000 A 
ATOM     24  C21 UNL     1      22.720  -8.410 -34.207  0.00  0.00    +0.000 A 
ATOM     25  C22 UNL     1      22.919  -7.122 -34.716  0.00  0.00    +0.000 A 
ATOM     26  C23 UNL     1      24.115  -6.445 -34.462  0.00  0.00    +0.000 A 
ENDBRANCH  19  21
ENDBRANCH  16  19
ENDBRANCH   4   7
BRANCH   1  27
ATOM     27  O2  UNL     1      24.523  -8.912 -38.984  0.00  0.00    +0.000 OA
BRANCH  27  28
ATOM     28  C5  UNL     1      24.708  -8.793 -40.393  0.00  0.00    +0.000 C 
BRANCH  28  31
ATOM     29  N1  UNL     1      28.159  -9.169 -41.450  0.00  0.00    +0.000 N 
ATOM     30  C3  UNL     1      27.090  -8.376 -41.249  0.00  0.00    +0.000 A 
ATOM     31  C4  UNL     1      26.094  -9.200 -40.776  0.00  0.00    +0.000 A 
ATOM     32  N5  UNL     1      26.573 -10.462 -40.713  0.00  0.00    +0.000 NA
ATOM     33  N6  UNL     1      27.830 -10.413 -41.134  0.00  0.00    +0.000 NA
BRANCH  29  34
ATOM     34  C2  UNL     1      29.457  -8.765 -41.977  0.00  0.00    +0.000 C 
BRANCH  34  36
ATOM     35  O1  UNL     1      31.198 -10.057 -40.974  0.00  0.00    +0.000 OA
ATOM     36  C1  UNL     1      30.418  -9.917 -41.955  0.00  0.00    +0.000 C 
ATOM     37  N7  UNL     1      30.412 -10.882 -43.018  0.00  0.00    +0.000 N 
ATOM     38  H22 UNL     1      29.777 -10.736 -43.834  0.00  0.00    +0.000 HD
BRANCH  37  39
ATOM     39  C26 UNL     1      31.247 -12.080 -42.993  0.00  0.00    +0.000 C 
BRANCH  39  40
ATOM     40  C27 UNL     1      32.165 -12.102 -44.186  0.00  0.00    +0.000 A 
ATOM     41  C28 UNL     1      32.730 -10.906 -44.661  0.00  0.00    +0.000 A 
ATOM     42  C29 UNL     1      33.572 -10.918 -45.779  0.00  0.00    +0.000 A 
ATOM     43  C30 UNL     1      33.853 -12.124 -46.429  0.00  0.00    +0.000 A 
ATOM     44  C31 UNL     1      33.291 -13.317 -45.964  0.00  0.00    +0.000 A 
ATOM     45  C32 UNL     1      32.447 -13.308 -44.849  0.00  0.00    +0.000 A 
ENDBRANCH  39  40
ENDBRANCH  37  39
ENDBRANCH  34  36
ENDBRANCH  29  34
ENDBRANCH  28  31
ENDBRANCH  27  28
ENDBRANCH   1  27
TORSDOF 11
ENDMDL
MODEL 2
REMARK VINA RESULT:    -6.580      2.890      9.926
REMARK INTER + INTRA:         -12.825
REMARK INTER:                 -11.086
REMARK INTRA:                  -1.739
REMARK UNBOUND:                -2.206
REMARK  Name = resultss/4CJN/ligands/lig_346_t2.pdb
REMARK  11 active torsions:
REMARK  status: ('A' for Active; 'I' for Inactive)
REMARK    1  A    between atoms: C1_2  and  C2_3
REMARK    2  A    between atoms: C2_3  and  N1_4
REMARK    3  A    between atoms: C4_6  and  C5_7
REMARK    4  A    between atoms: C5_7  and  O2_8
REMARK    5  A    between atoms: O2_8  and  C6_9
REMARK    6  A    between atoms: C9_12  and  C10_13
REMARK    7  A    between atoms: C17_21  and  O3_22
REMARK    8  A    between atoms: N3_23  and  N4_24
REMARK    9  A    between atoms: N4_24  and  C18_25
REMARK   10  A    between atoms: N7_35  and  C26_36
REMARK   11  A    between atoms: C26_36  and  C27_37
REMARK                            x       y       z     vdW  Elec       q    Type
REMARK                         _______ _______ _______ _____ _____    ______ ____
ROOT
ATOM      1  C6  UNL     1      26.409  -9.026 -35.803  0.00  0.00    +0.000 A 
ATOM      2  C7  UNL     1      27.582  -8.970 -36.565  0.00  0.00    +0.000 A 
ATOM      3  C8  UNL     1      27.539  -8.598 -37.911  0.00  0.00    +0.000 A 
ATOM      4  C9  UNL     1      26.315  -8.278 -38.521  0.00  0.00    +0.000 A 
ATOM      5  C24 UNL     1      25.137  -8.322 -37.756  0.00  0.00    +0.000 A 
ATOM      6  C25 UNL     1      25.181  -8.696 -36.409  0.00  0.00    +0.000 A 
ENDROOT
BRANCH   4   7
ATOM      7  C10 UNL     1      26.272  -7.844 -39.967  0.00  0.00    +0.000 C 
ATOM      8  N2  UNL     1      25.245  -6.813 -40.132  0.00  0.00    +0.000 NA
ATOM      9  C11 UNL     1      24.167  -6.942 -40.845  0.00  0.00    +0.000 A 
ATOM     10  C12 UNL     1      23.248  -5.883 -40.870  0.00  0.00    +0.000 A 
ATOM     11  C13 UNL     1      22.068  -5.987 -41.609  0.00  0.00    +0.000 A 
ATOM     12  C14 UNL     1      21.799  -7.149 -42.333  0.00  0.00    +0.000 A 
ATOM     13  C15 UNL     1      22.710  -8.208 -42.324  0.00  0.00    +0.000 A 
ATOM     14  C16 UNL     1      23.906  -8.120 -41.582  0.00  0.00    +0.000 A 
ATOM     15  C17 UNL     1      24.799  -9.128 -41.582  0.00  0.00    +0.000 C 
ATOM     16  N3  UNL     1      26.023  -9.010 -40.830  0.00  0.00    +0.000 N 
BRANCH  15  17
ATOM     17  O3  UNL     1      24.549 -10.279 -42.332  0.00  0.00    +0.000 OA
ATOM     18  H13 UNL     1      23.644 -10.481 -42.735  0.00  0.00    +0.000 HD
ENDBRANCH  15  17
BRANCH  16  19
ATOM     19  N4  UNL     1      26.900 -10.110 -40.757  0.00  0.00    +0.000 N 
ATOM     20  H14 UNL     1      26.711 -10.857 -40.054  0.00  0.00    +0.000 HD
BRANCH  19  21
ATOM     21  C18 UNL     1      28.108 -10.171 -41.528  0.00  0.00    +0.000 A 
ATOM     22  C19 UNL     1      29.137 -11.067 -41.187  0.00  0.00    +0.000 A 
ATOM     23  C20 UNL     1      30.317 -11.102 -41.935  0.00  0.00    +0.000 A 
ATOM     24  C21 UNL     1      30.481 -10.241 -43.024  0.00  0.00    +0.000 A 
ATOM     25  C22 UNL     1      29.466  -9.340 -43.362  0.00  0.00    +0.000 A 
ATOM     26  C23 UNL     1      28.285  -9.301 -42.613  0.00  0.00    +0.000 A 
ENDBRANCH  19  21
ENDBRANCH  16  19
ENDBRANCH   4   7
BRANCH   1  27
ATOM     27  O2  UNL     1      26.513  -9.404 -34.454  0.00  0.00    +0.000 OA
BRANCH  27  28
ATOM     28  C5  UNL     1      26.876  -8.538 -33.381  0.00  0.00    +0.000 C 
BRANCH  28  31
ATOM     29  N1  UNL     1      30.390  -8.138 -32.568  0.00  0.00    +0.000 N 
ATOM     30  C3  UNL     1      29.160  -7.602 -32.681  0.00  0.00    +0.000 A 
ATOM     31  C4  UNL     1      28.344  -8.624 -33.111  0.00  0.00    +0.000 A 
ATOM     32  N5  UNL     1      29.091  -9.740 -33.258  0.00  0.00    +0.000 NA
ATOM     33  N6  UNL     1      30.332  -9.412 -32.924  0.00  0.00    +0.000 NA
BRANCH  29  34
ATOM     34  C2  UNL     1      31.609  -7.443 -32.171  0.00  0.00    +0.000 C 
BRANCH  34  36
ATOM     35  O1  UNL     1      33.774  -8.155 -32.886  0.00  0.00    +0.000 OA
ATOM     36  C1  UNL     1      32.774  -8.389 -32.155  0.00  0.00    +0.000 C 
ATOM     37  N7  UNL     1      32.770  -9.523 -31.276  0.00  0.00    +0.000 N 
ATOM     38  H22 UNL     1      31.923  -9.716 -30.697  0.00  0.00    +0.000 HD
BRANCH  37  39
ATOM     39  C26 UNL     1      33.921 -10.413 -31.140  0.00  0.00    +0.000 C 
BRANCH  39  40
ATOM     40  C27 UNL     1      33.488 -11.850 -31.261  0.00  0.00    +0.000 A 
ATOM     41  C28 UNL     1      34.371 -12.808 -31.788  0.00  0.00    +0.000 A 
ATOM     42  C29 UNL     1      33.969 -14.142 -31.917  0.00  0.00    +0.000 A 
ATOM     43  C30 UNL     1      32.683 -14.526 -31.524  0.00  0.00    +0.000 A 
ATOM     44  C31 UNL     1      31.799 -13.577 -31.003  0.00  0.00    +0.000 A 
ATOM     45  C32 UNL     1      32.197 -12.243 -30.874  0.00  0.00    +0.000 A 
ENDBRANCH  39  40
ENDBRANCH  37  39
ENDBRANCH  34  36
ENDBRANCH  29  34
ENDBRANCH  28  31
ENDBRANCH  27  28
ENDBRANCH   1  27
TORSDOF 11
ENDMDL
MODEL 3
REMARK VINA RESULT:    -6.410      4.162      6.741
REMARK INTER + INTRA:         -12.550
REMARK INTER:                 -10.782
REMARK INTRA:                  -1.768
REMARK UNBOUND:                -2.206
REMARK  Name = resultss/4CJN/ligands/lig_346_t2.pdb
REMARK  11 active torsions:
REMARK  status: ('A' for Active; 'I' for Inactive)
REMARK    1  A    between atoms: C1_2  and  C2_3
REMARK    2  A    between atoms: C2_3  and  N1_4
REMARK    3  A    between atoms: C4_6  and  C5_7
REMARK    4  A    between atoms: C5_7  and  O2_8
REMARK    5  A    between atoms: O2_8  and  C6_9
REMARK    6  A    between atoms: C9_12  and  C10_13
REMARK    7  A    between atoms: C17_21  and  O3_22
REMARK    8  A    between atoms: N3_23  and  N4_24
REMARK    9  A    between atoms: N4_24  and  C18_25
REMARK   10  A    between atoms: N7_35  and  C26_36
REMARK   11  A    between atoms: C26_36  and  C27_37
REMARK                            x       y       z     vdW  Elec       q    Type
REMARK                         _______ _______ _______ _____ _____    ______ ____
ROOT
ATOM      1  C6  UNL     1      25.448  -8.438 -38.473  0.00  0.00    +0.000 A 
ATOM      2  C7  UNL     1      25.763  -7.073 -38.479  0.00  0.00    +0.000 A 
ATOM      3  C8  UNL     1      26.583  -6.528 -37.488  0.00  0.00    +0.000 A 
ATOM      4  C9  UNL     1      27.102  -7.343 -36.468  0.00  0.00    +0.000 A 
ATOM      5  C24 UNL     1      26.798  -8.715 -36.466  0.00  0.00    +0.000 A 
ATOM      6  C25 UNL     1      25.975  -9.258 -37.458  0.00  0.00    +0.000 A 
ENDROOT
BRANCH   4   7
ATOM      7  C10 UNL     1      28.016  -6.762 -35.416  0.00  0.00    +0.000 C 
ATOM      8  N2  UNL     1      29.307  -7.453 -35.460  0.00  0.00    +0.000 NA
ATOM      9  C11 UNL     1      29.792  -8.188 -34.505  0.00  0.00    +0.000 A 
ATOM     10  C12 UNL     1      31.022  -8.828 -34.711  0.00  0.00    +0.000 A 
ATOM     11  C13 UNL     1      31.571  -9.642 -33.718  0.00  0.00    +0.000 A 
ATOM     12  C14 UNL     1      30.898  -9.817 -32.509  0.00  0.00    +0.000 A 
ATOM     13  C15 UNL     1      29.675  -9.178 -32.287  0.00  0.00    +0.000 A 
ATOM     14  C16 UNL     1      29.106  -8.354 -33.280  0.00  0.00    +0.000 A 
ATOM     15  C17 UNL     1      27.938  -7.719 -33.069  0.00  0.00    +0.000 C 
ATOM     16  N3  UNL     1      27.382  -6.867 -34.092  0.00  0.00    +0.000 N 
BRANCH  15  17
ATOM     17  O3  UNL     1      27.276  -7.865 -31.848  0.00  0.00    +0.000 OA
ATOM     18  H13 UNL     1      26.745  -7.116 -31.424  0.00  0.00    +0.000 HD
ENDBRANCH  15  17
BRANCH  16  19
ATOM     19  N4  UNL     1      26.112  -6.290 -33.897  0.00  0.00    +0.000 N 
ATOM     20  H14 UNL     1      26.054  -5.325 -33.503  0.00  0.00    +0.000 HD
BRANCH  19  21
ATOM     21  C18 UNL     1      24.901  -7.030 -34.103  0.00  0.00    +0.000 A 
ATOM     22  C19 UNL     1      23.958  -6.619 -35.062  0.00  0.00    +0.000 A 
ATOM     23  C20 UNL     1      22.773  -7.339 -35.238  0.00  0.00    +0.000 A 
ATOM     24  C21 UNL     1      22.519  -8.469 -34.456  0.00  0.00    +0.000 A 
ATOM     25  C22 UNL     1      23.448  -8.877 -33.493  0.00  0.00    +0.000 A 
ATOM     26  C23 UNL     1      24.633  -8.157 -33.312  0.00  0.00    +0.000 A 
ENDBRANCH  19  21
ENDBRANCH  16  19
ENDBRANCH   4   7
BRANCH   1  27
ATOM     27  O2  UNL     1      24.620  -8.930 -39.496  0.00  0.00    +0.000 OA
BRANCH  27  28
ATOM     28  C5  UNL     1      25.067  -9.646 -40.645  0.00  0.00    +0.000 C 
BRANCH  28  31
ATOM     29  N1  UNL     1      24.576  -7.952 -43.817  0.00  0.00    +0.000 N 
ATOM     30  C3  UNL     1      25.414  -8.457 -42.892  0.00  0.00    +0.000 A 
ATOM     31  C4  UNL     1      24.611  -8.967 -41.897  0.00  0.00    +0.000 A 
ATOM     32  N5  UNL     1      23.320  -8.751 -42.232  0.00  0.00    +0.000 NA
ATOM     33  N6  UNL     1      23.330  -8.128 -43.402  0.00  0.00    +0.000 NA
BRANCH  29  34
ATOM     34  C2  UNL     1      24.949  -7.273 -45.052  0.00  0.00    +0.000 C 
BRANCH  34  36
ATOM     35  O1  UNL     1      23.823  -7.889 -47.067  0.00  0.00    +0.000 OA
ATOM     36  C1  UNL     1      23.786  -7.220 -45.998  0.00  0.00    +0.000 C 
ATOM     37  N7  UNL     1      22.618  -6.456 -45.664  0.00  0.00    +0.000 N 
ATOM     38  H22 UNL     1      22.615  -5.889 -44.788  0.00  0.00    +0.000 HD
BRANCH  37  39
ATOM     39  C26 UNL     1      21.416  -6.459 -46.494  0.00  0.00    +0.000 C 
BRANCH  39  40
ATOM     40  C27 UNL     1      20.190  -6.633 -45.638  0.00  0.00    +0.000 A 
ATOM     41  C28 UNL     1      18.943  -6.880 -46.238  0.00  0.00    +0.000 A 
ATOM     42  C29 UNL     1      17.797  -7.028 -45.449  0.00  0.00    +0.000 A 
ATOM     43  C30 UNL     1      17.889  -6.927 -44.057  0.00  0.00    +0.000 A 
ATOM     44  C31 UNL     1      19.126  -6.677 -43.455  0.00  0.00    +0.000 A 
ATOM     45  C32 UNL     1      20.272  -6.527 -44.241  0.00  0.00    +0.000 A 
ENDBRANCH  39  40
ENDBRANCH  37  39
ENDBRANCH  34  36
ENDBRANCH  29  34
ENDBRANCH  28  31
ENDBRANCH  27  28
ENDBRANCH   1  27
TORSDOF 11
ENDMDL
MODEL 4
REMARK VINA RESULT:    -6.405      3.365     10.785
REMARK INTER + INTRA:         -12.541
REMARK INTER:                 -10.365
REMARK INTRA:                  -2.176
REMARK UNBOUND:                -2.206
REMARK  Name = resultss/4CJN/ligands/lig_346_t2.pdb
REMARK  11 active torsions:
REMARK  status: ('A' for Active; 'I' for Inactive)
REMARK    1  A    between atoms: C1_2  and  C2_3
REMARK    2  A    between atoms: C2_3  and  N1_4
REMARK    3  A    between atoms: C4_6  and  C5_7
REMARK    4  A    between atoms: C5_7  and  O2_8
REMARK    5  A    between atoms: O2_8  and  C6_9
REMARK    6  A    between atoms: C9_12  and  C10_13
REMARK    7  A    between atoms: C17_21  and  O3_22
REMARK    8  A    between atoms: N3_23  and  N4_24
REMARK    9  A    between atoms: N4_24  and  C18_25
REMARK   10  A    between atoms: N7_35  and  C26_36
REMARK   11  A    between atoms: C26_36  and  C27_37
REMARK                            x       y       z     vdW  Elec       q    Type
REMARK                         _______ _______ _______ _____ _____    ______ ____
ROOT
ATOM      1  C6  UNL     1      26.253  -8.874 -39.913  0.00  0.00    +0.000 A 
ATOM      2  C7  UNL     1      25.935  -9.315 -41.203  0.00  0.00    +0.000 A 
ATOM      3  C8  UNL     1      25.683  -8.397 -42.226  0.00  0.00    +0.000 A 
ATOM      4  C9  UNL     1      25.741  -7.016 -41.972  0.00  0.00    +0.000 A 
ATOM      5  C24 UNL     1      26.070  -6.571 -40.680  0.00  0.00    +0.000 A 
ATOM      6  C25 UNL     1      26.320  -7.491 -39.657  0.00  0.00    +0.000 A 
ENDROOT
BRANCH   4   7
ATOM      7  C10 UNL     1      25.501  -6.024 -43.085  0.00  0.00    +0.000 C 
ATOM      8  N2  UNL     1      24.167  -6.243 -43.649  0.00  0.00    +0.000 NA
ATOM      9  C11 UNL     1      23.926  -6.635 -44.863  0.00  0.00    +0.000 A 
ATOM     10  C12 UNL     1      22.595  -6.849 -45.248  0.00  0.00    +0.000 A 
ATOM     11  C13 UNL     1      22.293  -7.288 -46.539  0.00  0.00    +0.000 A 
ATOM     12  C14 UNL     1      23.319  -7.511 -47.457  0.00  0.00    +0.000 A 
ATOM     13  C15 UNL     1      24.649  -7.293 -47.090  0.00  0.00    +0.000 A 
ATOM     14  C16 UNL     1      24.972  -6.852 -45.790  0.00  0.00    +0.000 A 
ATOM     15  C17 UNL     1      26.249  -6.621 -45.432  0.00  0.00    +0.000 C 
ATOM     16  N3  UNL     1      26.555  -6.153 -44.104  0.00  0.00    +0.000 N 
BRANCH  15  17
ATOM     17  O3  UNL     1      27.277  -6.811 -46.359  0.00  0.00    +0.000 OA
ATOM     18  H13 UNL     1      27.170  -7.394 -47.178  0.00  0.00    +0.000 HD
ENDBRANCH  15  17
BRANCH  16  19
ATOM     19  N4  UNL     1      27.901  -6.012 -43.712  0.00  0.00    +0.000 N 
ATOM     20  H14 UNL     1      28.410  -5.137 -43.967  0.00  0.00    +0.000 HD
BRANCH  19  21
ATOM     21  C18 UNL     1      28.627  -7.082 -43.089  0.00  0.00    +0.000 A 
ATOM     22  C19 UNL     1      28.702  -8.350 -43.693  0.00  0.00    +0.000 A 
ATOM     23  C20 UNL     1      29.396  -9.388 -43.065  0.00  0.00    +0.000 A 
ATOM     24  C21 UNL     1      30.014  -9.170 -41.830  0.00  0.00    +0.000 A 
ATOM     25  C22 UNL     1      29.933  -7.914 -41.220  0.00  0.00    +0.000 A 
ATOM     26  C23 UNL     1      29.237  -6.874 -41.844  0.00  0.00    +0.000 A 
ENDBRANCH  19  21
ENDBRANCH  16  19
ENDBRANCH   4   7
BRANCH   1  27
ATOM     27  O2  UNL     1      26.499  -9.843 -38.925  0.00  0.00    +0.000 OA
BRANCH  27  28
ATOM     28  C5  UNL     1      27.668 -10.655 -38.839  0.00  0.00    +0.000 C 
BRANCH  28  31
ATOM     29  N1  UNL     1      29.125  -9.748 -35.642  0.00  0.00    +0.000 N 
ATOM     30  C3  UNL     1      28.040 -10.079 -36.367  0.00  0.00    +0.000 A 
ATOM     31  C4  UNL     1      28.492 -10.265 -37.654  0.00  0.00    +0.000 A 
ATOM     32  N5  UNL     1      29.823 -10.034 -37.681  0.00  0.00    +0.000 NA
ATOM     33  N6  UNL     1      30.179  -9.717 -36.444  0.00  0.00    +0.000 NA
BRANCH  29  34
ATOM     34  C2  UNL     1      29.156  -9.422 -34.220  0.00  0.00    +0.000 C 
BRANCH  34  36
ATOM     35  O1  UNL     1      28.713  -7.079 -34.363  0.00  0.00    +0.000 OA
ATOM     36  C1  UNL     1      28.327  -8.203 -33.940  0.00  0.00    +0.000 C 
ATOM     37  N7  UNL     1      27.080  -8.324 -33.242  0.00  0.00    +0.000 N 
ATOM     38  H22 UNL     1      26.789  -9.258 -32.877  0.00  0.00    +0.000 HD
BRANCH  37  39
ATOM     39  C26 UNL     1      26.182  -7.189 -33.039  0.00  0.00    +0.000 C 
BRANCH  39  40
ATOM     40  C27 UNL     1      24.855  -7.447 -33.703  0.00  0.00    +0.000 A 
ATOM     41  C28 UNL     1      24.027  -8.484 -33.240  0.00  0.00    +0.000 A 
ATOM     42  C29 UNL     1      22.800  -8.738 -33.861  0.00  0.00    +0.000 A 
ATOM     43  C30 UNL     1      22.394  -7.960 -34.951  0.00  0.00    +0.000 A 
ATOM     44  C31 UNL     1      23.215  -6.931 -35.419  0.00  0.00    +0.000 A 
ATOM     45  C32 UNL     1      24.443  -6.675 -34.801  0.00  0.00    +0.000 A 
ENDBRANCH  39  40
ENDBRANCH  37  39
ENDBRANCH  34  36
ENDBRANCH  29  34
ENDBRANCH  28  31
ENDBRANCH  27  28
ENDBRANCH   1  27
TORSDOF 11
ENDMDL
MODEL 5
REMARK VINA RESULT:    -6.324      3.506      4.837
REMARK INTER + INTRA:         -12.411
REMARK INTER:                 -10.918
REMARK INTRA:                  -1.493
REMARK UNBOUND:                -2.206
REMARK  Name = resultss/4CJN/ligands/lig_346_t2.pdb
REMARK  11 active torsions:
REMARK  status: ('A' for Active; 'I' for Inactive)
REMARK    1  A    between atoms: C1_2  and  C2_3
REMARK    2  A    between atoms: C2_3  and  N1_4
REMARK    3  A    between atoms: C4_6  and  C5_7
REMARK    4  A    between atoms: C5_7  and  O2_8
REMARK    5  A    between atoms: O2_8  and  C6_9
REMARK    6  A    between atoms: C9_12  and  C10_13
REMARK    7  A    between atoms: C17_21  and  O3_22
REMARK    8  A    between atoms: N3_23  and  N4_24
REMARK    9  A    between atoms: N4_24  and  C18_25
REMARK   10  A    between atoms: N7_35  and  C26_36
REMARK   11  A    between atoms: C26_36  and  C27_37
REMARK                            x       y       z     vdW  Elec       q    Type
REMARK                         _______ _______ _______ _____ _____    ______ ____
ROOT
ATOM      1  C6  UNL     1      27.852  -9.649 -38.830  0.00  0.00    +0.000 A 
ATOM      2  C7  UNL     1      27.941  -8.252 -38.837  0.00  0.00    +0.000 A 
ATOM      3  C8  UNL     1      28.573  -7.574 -37.791  0.00  0.00    +0.000 A 
ATOM      4  C9  UNL     1      29.127  -8.287 -36.715  0.00  0.00    +0.000 A 
ATOM      5  C24 UNL     1      29.050  -9.690 -36.711  0.00  0.00    +0.000 A 
ATOM      6  C25 UNL     1      28.415 -10.367 -37.758  0.00  0.00    +0.000 A 
ENDROOT
BRANCH   4   7
ATOM      7  C10 UNL     1      29.840  -7.558 -35.601  0.00  0.00    +0.000 C 
ATOM      8  N2  UNL     1      31.144  -8.183 -35.370  0.00  0.00    +0.000 NA
ATOM      9  C11 UNL     1      31.496  -8.793 -34.279  0.00  0.00    +0.000 A 
ATOM     10  C12 UNL     1      32.765  -9.387 -34.222  0.00  0.00    +0.000 A 
ATOM     11  C13 UNL     1      33.176 -10.068 -33.075  0.00  0.00    +0.000 A 
ATOM     12  C14 UNL     1      32.324 -10.157 -31.973  0.00  0.00    +0.000 A 
ATOM     13  C15 UNL     1      31.061  -9.563 -32.014  0.00  0.00    +0.000 A 
ATOM     14  C16 UNL     1      30.629  -8.872 -33.165  0.00  0.00    +0.000 A 
ATOM     15  C17 UNL     1      29.421  -8.280 -33.207  0.00  0.00    +0.000 C 
ATOM     16  N3  UNL     1      29.006  -7.564 -34.388  0.00  0.00    +0.000 N 
BRANCH  15  17
ATOM     17  O3  UNL     1      28.578  -8.338 -32.095  0.00  0.00    +0.000 OA
ATOM     18  H13 UNL     1      28.758  -8.944 -31.307  0.00  0.00    +0.000 HD
ENDBRANCH  15  17
BRANCH  16  19
ATOM     19  N4  UNL     1      27.702  -7.036 -34.456  0.00  0.00    +0.000 N 
ATOM     20  H14 UNL     1      27.580  -6.024 -34.681  0.00  0.00    +0.000 HD
BRANCH  19  21
ATOM     21  C18 UNL     1      26.549  -7.812 -34.102  0.00  0.00    +0.000 A 
ATOM     22  C19 UNL     1      26.476  -9.181 -34.418  0.00  0.00    +0.000 A 
ATOM     23  C20 UNL     1      25.338  -9.920 -34.085  0.00  0.00    +0.000 A 
ATOM     24  C21 UNL     1      24.264  -9.299 -33.440  0.00  0.00    +0.000 A 
ATOM     25  C22 UNL     1      24.326  -7.936 -33.134  0.00  0.00    +0.000 A 
ATOM     26  C23 UNL     1      25.462  -7.193 -33.469  0.00  0.00    +0.000 A 
ENDBRANCH  19  21
ENDBRANCH  16  19
ENDBRANCH   4   7
BRANCH   1  27
ATOM     27  O2  UNL     1      27.207 -10.277 -39.910  0.00  0.00    +0.000 OA
BRANCH  27  28
ATOM     28  C5  UNL     1      27.304  -9.876 -41.274  0.00  0.00    +0.000 C 
BRANCH  28  31
ATOM     29  N1  UNL     1      24.239  -8.298 -42.408  0.00  0.00    +0.000 N 
ATOM     30  C3  UNL     1      25.466  -8.186 -41.865  0.00  0.00    +0.000 A 
ATOM     31  C4  UNL     1      25.964  -9.467 -41.798  0.00  0.00    +0.000 A 
ATOM     32  N5  UNL     1      25.035 -10.318 -42.286  0.00  0.00    +0.000 NA
ATOM     33  N6  UNL     1      23.994  -9.578 -42.645  0.00  0.00    +0.000 NA
BRANCH  29  34
ATOM     34  C2  UNL     1      23.295  -7.215 -42.658  0.00  0.00    +0.000 C 
BRANCH  34  36
ATOM     35  O1  UNL     1      22.298  -6.135 -44.541  0.00  0.00    +0.000 OA
ATOM     36  C1  UNL     1      23.145  -6.974 -44.132  0.00  0.00    +0.000 C 
ATOM     37  N7  UNL     1      23.995  -7.657 -45.064  0.00  0.00    +0.000 N 
ATOM     38  H22 UNL     1      24.673  -8.368 -44.709  0.00  0.00    +0.000 HD
BRANCH  37  39
ATOM     39  C26 UNL     1      23.967  -7.380 -46.498  0.00  0.00    +0.000 C 
BRANCH  39  40
ATOM     40  C27 UNL     1      25.334  -6.970 -46.978  0.00  0.00    +0.000 A 
ATOM     41  C28 UNL     1      26.416  -6.945 -46.082  0.00  0.00    +0.000 A 
ATOM     42  C29 UNL     1      27.685  -6.550 -46.519  0.00  0.00    +0.000 A 
ATOM     43  C30 UNL     1      27.881  -6.176 -47.852  0.00  0.00    +0.000 A 
ATOM     44  C31 UNL     1      26.807  -6.195 -48.747  0.00  0.00    +0.000 A 
ATOM     45  C32 UNL     1      25.537  -6.587 -48.314  0.00  0.00    +0.000 A 
ENDBRANCH  39  40
ENDBRANCH  37  39
ENDBRANCH  34  36
ENDBRANCH  29  34
ENDBRANCH  28  31
ENDBRANCH  27  28
ENDBRANCH   1  27
TORSDOF 11
ENDMDL
MODEL 6
REMARK VINA RESULT:    -6.292      3.593     10.999
REMARK INTER + INTRA:         -12.359
REMARK INTER:                 -10.212
REMARK INTRA:                  -2.147
REMARK UNBOUND:                -2.206
REMARK  Name = resultss/4CJN/ligands/lig_346_t2.pdb
REMARK  11 active torsions:
REMARK  status: ('A' for Active; 'I' for Inactive)
REMARK    1  A    between atoms: C1_2  and  C2_3
REMARK    2  A    between atoms: C2_3  and  N1_4
REMARK    3  A    between atoms: C4_6  and  C5_7
REMARK    4  A    between atoms: C5_7  and  O2_8
REMARK    5  A    between atoms: O2_8  and  C6_9
REMARK    6  A    between atoms: C9_12  and  C10_13
REMARK    7  A    between atoms: C17_21  and  O3_22
REMARK    8  A    between atoms: N3_23  and  N4_24
REMARK    9  A    between atoms: N4_24  and  C18_25
REMARK   10  A    between atoms: N7_35  and  C26_36
REMARK   11  A    between atoms: C26_36  and  C27_37
REMARK                            x       y       z     vdW  Elec       q    Type
REMARK                         _______ _______ _______ _____ _____    ______ ____
ROOT
ATOM      1  C6  UNL     1      26.126  -9.326 -40.552  0.00  0.00    +0.000 A 
ATOM      2  C7  UNL     1      26.055  -7.988 -40.147  0.00  0.00    +0.000 A 
ATOM      3  C8  UNL     1      25.778  -6.979 -41.073  0.00  0.00    +0.000 A 
ATOM      4  C9  UNL     1      25.571  -7.294 -42.426  0.00  0.00    +0.000 A 
ATOM      5  C24 UNL     1      25.632  -8.637 -42.834  0.00  0.00    +0.000 A 
ATOM      6  C25 UNL     1      25.910  -9.646 -41.906  0.00  0.00    +0.000 A 
ENDROOT
BRANCH   4   7
ATOM      7  C10 UNL     1      25.240  -6.207 -43.422  0.00  0.00    +0.000 C 
ATOM      8  N2  UNL     1      23.939  -6.490 -44.032  0.00  0.00    +0.000 NA
ATOM      9  C11 UNL     1      23.747  -6.760 -45.288  0.00  0.00    +0.000 A 
ATOM     10  C12 UNL     1      22.447  -7.058 -45.719  0.00  0.00    +0.000 A 
ATOM     11  C13 UNL     1      22.199  -7.371 -47.057  0.00  0.00    +0.000 A 
ATOM     12  C14 UNL     1      23.248  -7.382 -47.976  0.00  0.00    +0.000 A 
ATOM     13  C15 UNL     1      24.547  -7.078 -47.562  0.00  0.00    +0.000 A 
ATOM     14  C16 UNL     1      24.815  -6.762 -46.214  0.00  0.00    +0.000 A 
ATOM     15  C17 UNL     1      26.060  -6.448 -45.808  0.00  0.00    +0.000 C 
ATOM     16  N3  UNL     1      26.309  -6.110 -44.429  0.00  0.00    +0.000 N 
BRANCH  15  17
ATOM     17  O3  UNL     1      27.108  -6.426 -46.731  0.00  0.00    +0.000 OA
ATOM     18  H13 UNL     1      27.234  -7.147 -47.429  0.00  0.00    +0.000 HD
ENDBRANCH  15  17
BRANCH  16  19
ATOM     19  N4  UNL     1      27.631  -5.884 -43.999  0.00  0.00    +0.000 N 
ATOM     20  H14 UNL     1      28.087  -4.975 -44.234  0.00  0.00    +0.000 HD
BRANCH  19  21
ATOM     21  C18 UNL     1      28.409  -6.907 -43.363  0.00  0.00    +0.000 A 
ATOM     22  C19 UNL     1      28.624  -8.146 -43.993  0.00  0.00    +0.000 A 
ATOM     23  C20 UNL     1      29.368  -9.142 -43.352  0.00  0.00    +0.000 A 
ATOM     24  C21 UNL     1      29.897  -8.910 -42.080  0.00  0.00    +0.000 A 
ATOM     25  C22 UNL     1      29.677  -7.684 -41.444  0.00  0.00    +0.000 A 
ATOM     26  C23 UNL     1      28.931  -6.687 -42.080  0.00  0.00    +0.000 A 
ENDBRANCH  19  21
ENDBRANCH  16  19
ENDBRANCH   4   7
BRANCH   1  27
ATOM     27  O2  UNL     1      26.405 -10.299 -39.577  0.00  0.00    +0.000 OA
BRANCH  27  28
ATOM     28  C5  UNL     1      27.709 -10.704 -39.165  0.00  0.00    +0.000 C 
BRANCH  28  31
ATOM     29  N1  UNL     1      28.976  -8.685 -36.429  0.00  0.00    +0.000 N 
ATOM     30  C3  UNL     1      28.942  -8.957 -37.747  0.00  0.00    +0.000 A 
ATOM     31  C4  UNL     1      28.089 -10.028 -37.887  0.00  0.00    +0.000 A 
ATOM     32  N5  UNL     1      27.639 -10.384 -36.663  0.00  0.00    +0.000 NA
ATOM     33  N6  UNL     1      28.200  -9.552 -35.796  0.00  0.00    +0.000 NA
BRANCH  29  34
ATOM     34  C2  UNL     1      29.767  -7.649 -35.774  0.00  0.00    +0.000 C 
BRANCH  34  36
ATOM     35  O1  UNL     1      29.674  -6.681 -33.592  0.00  0.00    +0.000 OA
ATOM     36  C1  UNL     1      29.027  -7.087 -34.596  0.00  0.00    +0.000 C 
ATOM     37  N7  UNL     1      27.598  -6.964 -34.632  0.00  0.00    +0.000 N 
ATOM     38  H22 UNL     1      27.077  -7.329 -35.461  0.00  0.00    +0.000 HD
BRANCH  37  39
ATOM     39  C26 UNL     1      26.838  -6.324 -33.561  0.00  0.00    +0.000 C 
BRANCH  39  40
ATOM     40  C27 UNL     1      25.546  -7.060 -33.325  0.00  0.00    +0.000 A 
ATOM     41  C28 UNL     1      25.509  -8.462 -33.409  0.00  0.00    +0.000 A 
ATOM     42  C29 UNL     1      24.308  -9.150 -33.206  0.00  0.00    +0.000 A 
ATOM     43  C30 UNL     1      23.137  -8.442 -32.921  0.00  0.00    +0.000 A 
ATOM     44  C31 UNL     1      23.165  -7.047 -32.840  0.00  0.00    +0.000 A 
ATOM     45  C32 UNL     1      24.364  -6.356 -33.044  0.00  0.00    +0.000 A 
ENDBRANCH  39  40
ENDBRANCH  37  39
ENDBRANCH  34  36
ENDBRANCH  29  34
ENDBRANCH  28  31
ENDBRANCH  27  28
ENDBRANCH   1  27
TORSDOF 11
ENDMDL
MODEL 7
REMARK VINA RESULT:    -6.212      2.273      3.498
REMARK INTER + INTRA:         -12.231
REMARK INTER:                  -9.071
REMARK INTRA:                  -3.160
REMARK UNBOUND:                -2.206
REMARK  Name = resultss/4CJN/ligands/lig_346_t2.pdb
REMARK  11 active torsions:
REMARK  status: ('A' for Active; 'I' for Inactive)
REMARK    1  A    between atoms: C1_2  and  C2_3
REMARK    2  A    between atoms: C2_3  and  N1_4
REMARK    3  A    between atoms: C4_6  and  C5_7
REMARK    4  A    between atoms: C5_7  and  O2_8
REMARK    5  A    between atoms: O2_8  and  C6_9
REMARK    6  A    between atoms: C9_12  and  C10_13
REMARK    7  A    between atoms: C17_21  and  O3_22
REMARK    8  A    between atoms: N3_23  and  N4_24
REMARK    9  A    between atoms: N4_24  and  C18_25
REMARK   10  A    between atoms: N7_35  and  C26_36
REMARK   11  A    between atoms: C26_36  and  C27_37
REMARK                            x       y       z     vdW  Elec       q    Type
REMARK                         _______ _______ _______ _____ _____    ______ ____
ROOT
ATOM      1  C6  UNL     1      25.371  -8.330 -37.974  0.00  0.00    +0.000 A 
ATOM      2  C7  UNL     1      26.024  -9.180 -37.074  0.00  0.00    +0.000 A 
ATOM      3  C8  UNL     1      26.940  -8.671 -36.150  0.00  0.00    +0.000 A 
ATOM      4  C9  UNL     1      27.223  -7.295 -36.115  0.00  0.00    +0.000 A 
ATOM      5  C24 UNL     1      26.561  -6.437 -37.010  0.00  0.00    +0.000 A 
ATOM      6  C25 UNL     1      25.645  -6.949 -37.934  0.00  0.00    +0.000 A 
ENDROOT
BRANCH   4   7
ATOM      7  C10 UNL     1      28.188  -6.739 -35.095  0.00  0.00    +0.000 C 
ATOM      8  N2  UNL     1      29.476  -7.424 -35.226  0.00  0.00    +0.000 NA
ATOM      9  C11 UNL     1      30.012  -8.184 -34.319  0.00  0.00    +0.000 A 
ATOM     10  C12 UNL     1      31.232  -8.813 -34.605  0.00  0.00    +0.000 A 
ATOM     11  C13 UNL     1      31.834  -9.652 -33.666  0.00  0.00    +0.000 A 
ATOM     12  C14 UNL     1      31.224  -9.864 -32.429  0.00  0.00    +0.000 A 
ATOM     13  C15 UNL     1      30.014  -9.236 -32.126  0.00  0.00    +0.000 A 
ATOM     14  C16 UNL     1      29.391  -8.387 -33.065  0.00  0.00    +0.000 A 
ATOM     15  C17 UNL     1      28.234  -7.762 -32.776  0.00  0.00    +0.000 C 
ATOM     16  N3  UNL     1      27.624  -6.885 -33.744  0.00  0.00    +0.000 N 
BRANCH  15  17
ATOM     17  O3  UNL     1      27.637  -7.946 -31.527  0.00  0.00    +0.000 OA
ATOM     18  H13 UNL     1      26.889  -8.608 -31.373  0.00  0.00    +0.000 HD
ENDBRANCH  15  17
BRANCH  16  19
ATOM     19  N4  UNL     1      26.364  -6.318 -33.467  0.00  0.00    +0.000 N 
ATOM     20  H14 UNL     1      26.324  -5.393 -32.985  0.00  0.00    +0.000 HD
BRANCH  19  21
ATOM     21  C18 UNL     1      25.142  -7.028 -33.712  0.00  0.00    +0.000 A 
ATOM     22  C19 UNL     1      24.974  -8.351 -33.266  0.00  0.00    +0.000 A 
ATOM     23  C20 UNL     1      23.785  -9.037 -33.529  0.00  0.00    +0.000 A 
ATOM     24  C21 UNL     1      22.759  -8.410 -34.241  0.00  0.00    +0.000 A 
ATOM     25  C22 UNL     1      22.924  -7.099 -34.696  0.00  0.00    +0.000 A 
ATOM     26  C23 UNL     1      24.113  -6.410 -34.438  0.00  0.00    +0.000 A 
ENDBRANCH  19  21
ENDBRANCH  16  19
ENDBRANCH   4   7
BRANCH   1  27
ATOM     27  O2  UNL     1      24.458  -8.898 -38.878  0.00  0.00    +0.000 OA
BRANCH  27  28
ATOM     28  C5  UNL     1      24.593  -8.895 -40.298  0.00  0.00    +0.000 C 
BRANCH  28  31
ATOM     29  N1  UNL     1      27.984  -9.949 -41.043  0.00  0.00    +0.000 N 
ATOM     30  C3  UNL     1      26.763 -10.238 -40.556  0.00  0.00    +0.000 A 
ATOM     31  C4  UNL     1      26.023  -9.085 -40.689  0.00  0.00    +0.000 A 
ATOM     32  N5  UNL     1      26.807  -8.131 -41.238  0.00  0.00    +0.000 NA
ATOM     33  N6  UNL     1      27.996  -8.685 -41.438  0.00  0.00    +0.000 NA
BRANCH  29  34
ATOM     34  C2  UNL     1      29.136 -10.842 -41.093  0.00  0.00    +0.000 C 
BRANCH  34  36
ATOM     35  O1  UNL     1      31.258 -10.174 -41.963  0.00  0.00    +0.000 OA
ATOM     36  C1  UNL     1      30.414 -10.059 -41.033  0.00  0.00    +0.000 C 
ATOM     37  N7  UNL     1      30.651  -9.147 -39.951  0.00  0.00    +0.000 N 
ATOM     38  H22 UNL     1      29.953  -9.083 -39.177  0.00  0.00    +0.000 HD
BRANCH  37  39
ATOM     39  C26 UNL     1      31.826  -8.280 -39.900  0.00  0.00    +0.000 C 
BRANCH  39  40
ATOM     40  C27 UNL     1      32.682  -8.628 -38.711  0.00  0.00    +0.000 A 
ATOM     41  C28 UNL     1      33.260  -7.607 -37.937  0.00  0.00    +0.000 A 
ATOM     42  C29 UNL     1      34.069  -7.925 -36.841  0.00  0.00    +0.000 A 
ATOM     43  C30 UNL     1      34.307  -9.263 -36.512  0.00  0.00    +0.000 A 
ATOM     44  C31 UNL     1      33.738 -10.283 -37.281  0.00  0.00    +0.000 A 
ATOM     45  C32 UNL     1      32.931  -9.969 -38.378  0.00  0.00    +0.000 A 
ENDBRANCH  39  40
ENDBRANCH  37  39
ENDBRANCH  34  36
ENDBRANCH  29  34
ENDBRANCH  28  31
ENDBRANCH  27  28
ENDBRANCH   1  27
TORSDOF 11
ENDMDL
MODEL 8
REMARK VINA RESULT:    -6.174      3.310      5.375
REMARK INTER + INTRA:         -12.170
REMARK INTER:                  -9.609
REMARK INTRA:                  -2.561
REMARK UNBOUND:                -2.206
REMARK  Name = resultss/4CJN/ligands/lig_346_t2.pdb
REMARK  11 active torsions:
REMARK  status: ('A' for Active; 'I' for Inactive)
REMARK    1  A    between atoms: C1_2  and  C2_3
REMARK    2  A    between atoms: C2_3  and  N1_4
REMARK    3  A    between atoms: C4_6  and  C5_7
REMARK    4  A    between atoms: C5_7  and  O2_8
REMARK    5  A    between atoms: O2_8  and  C6_9
REMARK    6  A    between atoms: C9_12  and  C10_13
REMARK    7  A    between atoms: C17_21  and  O3_22
REMARK    8  A    between atoms: N3_23  and  N4_24
REMARK    9  A    between atoms: N4_24  and  C18_25
REMARK   10  A    between atoms: N7_35  and  C26_36
REMARK   11  A    between atoms: C26_36  and  C27_37
REMARK                            x       y       z     vdW  Elec       q    Type
REMARK                         _______ _______ _______ _____ _____    ______ ____
ROOT
ATOM      1  C6  UNL     1      31.561  -8.864 -38.813  0.00  0.00    +0.000 A 
ATOM      2  C7  UNL     1      31.746  -7.545 -38.382  0.00  0.00    +0.000 A 
ATOM      3  C8  UNL     1      31.898  -7.255 -37.023  0.00  0.00    +0.000 A 
ATOM      4  C9  UNL     1      31.862  -8.286 -36.069  0.00  0.00    +0.000 A 
ATOM      5  C24 UNL     1      31.687  -9.612 -36.500  0.00  0.00    +0.000 A 
ATOM      6  C25 UNL     1      31.534  -9.900 -37.860  0.00  0.00    +0.000 A 
ENDROOT
BRANCH   4   7
ATOM      7  C10 UNL     1      32.059  -7.977 -34.604  0.00  0.00    +0.000 C 
ATOM      8  N2  UNL     1      33.194  -8.750 -34.095  0.00  0.00    +0.000 NA
ATOM      9  C11 UNL     1      33.118  -9.681 -33.193  0.00  0.00    +0.000 A 
ATOM     10  C12 UNL     1      34.287 -10.370 -32.839  0.00  0.00    +0.000 A 
ATOM     11  C13 UNL     1      34.247 -11.390 -31.886  0.00  0.00    +0.000 A 
ATOM     12  C14 UNL     1      33.039 -11.725 -31.275  0.00  0.00    +0.000 A 
ATOM     13  C15 UNL     1      31.868 -11.042 -31.611  0.00  0.00    +0.000 A 
ATOM     14  C16 UNL     1      31.891 -10.010 -32.573  0.00  0.00    +0.000 A 
ATOM     15  C17 UNL     1      30.772  -9.332 -32.890  0.00  0.00    +0.000 C 
ATOM     16  N3  UNL     1      30.821  -8.269 -33.863  0.00  0.00    +0.000 N 
BRANCH  15  17
ATOM     17  O3  UNL     1      29.566  -9.642 -32.257  0.00  0.00    +0.000 OA
ATOM     18  H13 UNL     1      28.718  -9.842 -32.769  0.00  0.00    +0.000 HD
ENDBRANCH  15  17
BRANCH  16  19
ATOM     19  N4  UNL     1      29.626  -7.636 -34.259  0.00  0.00    +0.000 N 
ATOM     20  H14 UNL     1      29.264  -6.842 -33.686  0.00  0.00    +0.000 HD
BRANCH  19  21
ATOM     21  C18 UNL     1      28.829  -8.130 -35.345  0.00  0.00    +0.000 A 
ATOM     22  C19 UNL     1      28.417  -7.276 -36.383  0.00  0.00    +0.000 A 
ATOM     23  C20 UNL     1      27.623  -7.766 -37.424  0.00  0.00    +0.000 A 
ATOM     24  C21 UNL     1      27.232  -9.107 -37.434  0.00  0.00    +0.000 A 
ATOM     25  C22 UNL     1      27.629  -9.959 -36.398  0.00  0.00    +0.000 A 
ATOM     26  C23 UNL     1      28.420  -9.471 -35.353  0.00  0.00    +0.000 A 
ENDBRANCH  19  21
ENDBRANCH  16  19
ENDBRANCH   4   7
BRANCH   1  27
ATOM     27  O2  UNL     1      31.417  -9.096 -40.192  0.00  0.00    +0.000 OA
BRANCH  27  28
ATOM     28  C5  UNL     1      30.552 -10.066 -40.779  0.00  0.00    +0.000 C 
BRANCH  28  31
ATOM     29  N1  UNL     1      26.991  -9.390 -40.960  0.00  0.00    +0.000 N 
ATOM     30  C3  UNL     1      27.997 -10.280 -40.875  0.00  0.00    +0.000 A 
ATOM     31  C4  UNL     1      29.156  -9.538 -40.868  0.00  0.00    +0.000 A 
ATOM     32  N5  UNL     1      28.830  -8.229 -40.959  0.00  0.00    +0.000 NA
ATOM     33  N6  UNL     1      27.506  -8.171 -41.018  0.00  0.00    +0.000 NA
BRANCH  29  34
ATOM     34  C2  UNL     1      25.565  -9.690 -41.030  0.00  0.00    +0.000 C 
BRANCH  34  36
ATOM     35  O1  UNL     1      24.262 -10.066 -42.996  0.00  0.00    +0.000 OA
ATOM     36  C1  UNL     1      25.003  -9.271 -42.356  0.00  0.00    +0.000 C 
ATOM     37  N7  UNL     1      25.264  -7.957 -42.868  0.00  0.00    +0.000 N 
ATOM     38  H22 UNL     1      25.901  -7.321 -42.338  0.00  0.00    +0.000 HD
BRANCH  37  39
ATOM     39  C26 UNL     1      24.654  -7.459 -44.099  0.00  0.00    +0.000 C 
BRANCH  39  40
ATOM     40  C27 UNL     1      25.705  -7.242 -45.154  0.00  0.00    +0.000 A 
ATOM     41  C28 UNL     1      25.326  -7.005 -46.486  0.00  0.00    +0.000 A 
ATOM     42  C29 UNL     1      26.298  -6.818 -47.475  0.00  0.00    +0.000 A 
ATOM     43  C30 UNL     1      27.655  -6.870 -47.139  0.00  0.00    +0.000 A 
ATOM     44  C31 UNL     1      28.039  -7.110 -45.816  0.00  0.00    +0.000 A 
ATOM     45  C32 UNL     1      27.069  -7.299 -44.827  0.00  0.00    +0.000 A 
ENDBRANCH  39  40
ENDBRANCH  37  39
ENDBRANCH  34  36
ENDBRANCH  29  34
ENDBRANCH  28  31
ENDBRANCH  27  28
ENDBRANCH   1  27
TORSDOF 11
ENDMDL
MODEL 9
REMARK VINA RESULT:    -5.811      3.522     10.712
REMARK INTER + INTRA:         -11.583
REMARK INTER:                  -9.455
REMARK INTRA:                  -2.128
REMARK UNBOUND:                -2.206
REMARK  Name = resultss/4CJN/ligands/lig_346_t2.pdb
REMARK  11 active torsions:
REMARK  status: ('A' for Active; 'I' for Inactive)
REMARK    1  A    between atoms: C1_2  and  C2_3
REMARK    2  A    between atoms: C2_3  and  N1_4
REMARK    3  A    between atoms: C4_6  and  C5_7
REMARK    4  A    between atoms: C5_7  and  O2_8
REMARK    5  A    between atoms: O2_8  and  C6_9
REMARK    6  A    between atoms: C9_12  and  C10_13
REMARK    7  A    between atoms: C17_21  and  O3_22
REMARK    8  A    between atoms: N3_23  and  N4_24
REMARK    9  A    between atoms: N4_24  and  C18_25
REMARK   10  A    between atoms: N7_35  and  C26_36
REMARK   11  A    between atoms: C26_36  and  C27_37
REMARK                            x       y       z     vdW  Elec       q    Type
REMARK                         _______ _______ _______ _____ _____    ______ ____
ROOT
ATOM      1  C6  UNL     1      25.999  -8.757 -40.172  0.00  0.00    +0.000 A 
ATOM      2  C7  UNL     1      25.665  -9.235 -41.445  0.00  0.00    +0.000 A 
ATOM      3  C8  UNL     1      25.405  -8.348 -42.492  0.00  0.00    +0.000 A 
ATOM      4  C9  UNL     1      25.472  -6.960 -42.281  0.00  0.00    +0.000 A 
ATOM      5  C24 UNL     1      25.817  -6.478 -41.007  0.00  0.00    +0.000 A 
ATOM      6  C25 UNL     1      26.075  -7.367 -39.959  0.00  0.00    +0.000 A 
ENDROOT
BRANCH   4   7
ATOM      7  C10 UNL     1      25.223  -6.001 -43.420  0.00  0.00    +0.000 C 
ATOM      8  N2  UNL     1      23.902  -6.264 -43.995  0.00  0.00    +0.000 NA
ATOM      9  C11 UNL     1      23.685  -6.691 -45.202  0.00  0.00    +0.000 A 
ATOM     10  C12 UNL     1      22.363  -6.945 -45.597  0.00  0.00    +0.000 A 
ATOM     11  C13 UNL     1      22.087  -7.422 -46.880  0.00  0.00    +0.000 A 
ATOM     12  C14 UNL     1      23.129  -7.643 -47.780  0.00  0.00    +0.000 A 
ATOM     13  C15 UNL     1      24.450  -7.387 -47.403  0.00  0.00    +0.000 A 
ATOM     14  C16 UNL     1      24.746  -6.906 -46.111  0.00  0.00    +0.000 A 
ATOM     15  C17 UNL     1      26.013  -6.638 -45.743  0.00  0.00    +0.000 C 
ATOM     16  N3  UNL     1      26.293  -6.131 -44.423  0.00  0.00    +0.000 N 
BRANCH  15  17
ATOM     17  O3  UNL     1      27.057  -6.827 -46.653  0.00  0.00    +0.000 OA
ATOM     18  H13 UNL     1      28.022  -6.913 -46.363  0.00  0.00    +0.000 HD
ENDBRANCH  15  17
BRANCH  16  19
ATOM     19  N4  UNL     1      27.630  -5.950 -44.019  0.00  0.00    +0.000 N 
ATOM     20  H14 UNL     1      28.127  -5.076 -44.301  0.00  0.00    +0.000 HD
BRANCH  19  21
ATOM     21  C18 UNL     1      28.366  -6.980 -43.345  0.00  0.00    +0.000 A 
ATOM     22  C19 UNL     1      28.468  -8.271 -43.894  0.00  0.00    +0.000 A 
ATOM     23  C20 UNL     1      29.171  -9.271 -43.216  0.00  0.00    +0.000 A 
ATOM     24  C21 UNL     1      29.772  -8.991 -41.985  0.00  0.00    +0.000 A 
ATOM     25  C22 UNL     1      29.665  -7.713 -41.429  0.00  0.00    +0.000 A 
ATOM     26  C23 UNL     1      28.959  -6.711 -42.103  0.00  0.00    +0.000 A 
ENDBRANCH  19  21
ENDBRANCH  16  19
ENDBRANCH   4   7
BRANCH   1  27
ATOM     27  O2  UNL     1      26.252  -9.696 -39.157  0.00  0.00    +0.000 OA
BRANCH  27  28
ATOM     28  C5  UNL     1      27.476  -9.820 -38.436  0.00  0.00    +0.000 C 
BRANCH  28  31
ATOM     29  N1  UNL     1      26.639  -8.624 -35.113  0.00  0.00    +0.000 N 
ATOM     30  C3  UNL     1      26.594  -8.458 -36.448  0.00  0.00    +0.000 A 
ATOM     31  C4  UNL     1      27.259  -9.538 -36.983  0.00  0.00    +0.000 A 
ATOM     32  N5  UNL     1      27.696 -10.319 -35.972  0.00  0.00    +0.000 NA
ATOM     33  N6  UNL     1      27.308  -9.735 -34.846  0.00  0.00    +0.000 NA
BRANCH  29  34
ATOM     34  C2  UNL     1      26.096  -7.721 -34.104  0.00  0.00    +0.000 C 
BRANCH  34  36
ATOM     35  O1  UNL     1      26.926  -6.516 -32.216  0.00  0.00    +0.000 OA
ATOM     36  C1  UNL     1      27.201  -7.106 -33.297  0.00  0.00    +0.000 C 
ATOM     37  N7  UNL     1      28.564  -7.233 -33.725  0.00  0.00    +0.000 N 
ATOM     38  H22 UNL     1      28.770  -7.702 -34.635  0.00  0.00    +0.000 HD
BRANCH  37  39
ATOM     39  C26 UNL     1      29.686  -6.750 -32.924  0.00  0.00    +0.000 C 
BRANCH  39  40
ATOM     40  C27 UNL     1      30.609  -7.888 -32.576  0.00  0.00    +0.000 A 
ATOM     41  C28 UNL     1      30.289  -9.198 -32.970  0.00  0.00    +0.000 A 
ATOM     42  C29 UNL     1      31.135 -10.262 -32.638  0.00  0.00    +0.000 A 
ATOM     43  C30 UNL     1      32.303 -10.023 -31.908  0.00  0.00    +0.000 A 
ATOM     44  C31 UNL     1      32.625  -8.723 -31.509  0.00  0.00    +0.000 A 
ATOM     45  C32 UNL     1      31.781  -7.658 -31.838  0.00  0.00    +0.000 A 
ENDBRANCH  39  40
ENDBRANCH  37  39
ENDBRANCH  34  36
ENDBRANCH  29  34
ENDBRANCH  28  31
ENDBRANCH  27  28
ENDBRANCH   1  27
TORSDOF 11
ENDMDL
