MODEL 1
REMARK VINA RESULT:    -8.122      0.000      0.000
REMARK INTER + INTRA:         -12.371
REMARK INTER:                 -11.445
REMARK INTRA:                  -0.926
REMARK UNBOUND:                -0.926
REMARK  Name = resultss/4CJN/ligands/lig_431_t0.pdb
REMARK  7 active torsions:
REMARK  status: ('A' for Active; 'I' for Inactive)
REMARK    1  A    between atoms: C1_2  and  C9_17
REMARK    2  A    between atoms: N1_3  and  N2_4
REMARK    3  A    between atoms: N2_4  and  C2_5
REMARK    4  A    between atoms: C2_5  and  N3_7
REMARK    5  A    between atoms: N3_7  and  C3_8
REMARK    6  A    between atoms: C7_12  and  N4_13
REMARK    7  A    between atoms: C19_28  and  C20_29
REMARK                            x       y       z     vdW  Elec       q    Type
REMARK                         _______ _______ _______ _____ _____    ______ ____
ROOT
ATOM      1  C9  UNL     1      27.728  -9.636 -37.367  0.00  0.00    +0.000 A 
ATOM      2  C10 UNL     1      28.997  -9.687 -36.751  0.00  0.00    +0.000 A 
ATOM      3  C11 UNL     1      29.063  -9.365 -35.401  0.00  0.00    +0.000 A 
ATOM      4  C12 UNL     1      27.948  -9.001 -34.680  0.00  0.00    +0.000 A 
ATOM      5  N5  UNL     1      28.249  -8.801 -33.374  0.00  0.00    +0.000 N 
ATOM      6  C13 UNL     1      29.579  -9.026 -33.288  0.00  0.00    +0.000 A 
ATOM      7  C14 UNL     1      30.370  -8.964 -32.143  0.00  0.00    +0.000 A 
ATOM      8  C15 UNL     1      31.739  -9.263 -32.271  0.00  0.00    +0.000 A 
ATOM      9  C16 UNL     1      32.282  -9.618 -33.525  0.00  0.00    +0.000 A 
ATOM     10  C17 UNL     1      31.463  -9.681 -34.668  0.00  0.00    +0.000 A 
ATOM     11  C18 UNL     1      30.112  -9.374 -34.511  0.00  0.00    +0.000 A 
ATOM     12  C19 UNL     1      26.695  -8.937 -35.306  0.00  0.00    +0.000 A 
ATOM     13  N6  UNL     1      26.632  -9.267 -36.631  0.00  0.00    +0.000 NA
ATOM     14  H9  UNL     1      27.603  -8.563 -32.590  0.00  0.00    +0.000 HD
ENDROOT
BRANCH  12  15
ATOM     15  C20 UNL     1      25.461  -8.536 -34.598  0.00  0.00    +0.000 A 
ATOM     16  C21 UNL     1      24.845  -9.397 -33.673  0.00  0.00    +0.000 A 
ATOM     17  C22 UNL     1      23.691  -8.991 -32.994  0.00  0.00    +0.000 A 
ATOM     18  C23 UNL     1      23.155  -7.722 -33.220  0.00  0.00    +0.000 A 
ATOM     19  C24 UNL     1      23.776  -6.851 -34.119  0.00  0.00    +0.000 A 
ATOM     20  C25 UNL     1      24.928  -7.252 -34.802  0.00  0.00    +0.000 A 
ENDBRANCH  12  15
BRANCH   1  22
ATOM     21  O1  UNL     1      26.543  -9.587 -39.422  0.00  0.00    +0.000 OA
ATOM     22  C1  UNL     1      27.565  -9.981 -38.796  0.00  0.00    +0.000 C 
ATOM     23  N1  UNL     1      28.559 -10.763 -39.476  0.00  0.00    +0.000 N 
ATOM     24  H1  UNL     1      29.394 -11.096 -38.945  0.00  0.00    +0.000 HD
BRANCH  23  25
ATOM     25  N2  UNL     1      28.450 -11.045 -40.851  0.00  0.00    +0.000 N 
ATOM     26  H2  UNL     1      27.841 -11.831 -41.168  0.00  0.00    +0.000 HD
BRANCH  25  27
ATOM     27  C2  UNL     1      29.107 -10.250 -41.850  0.00  0.00    +0.000 C 
ATOM     28  S1  UNL     1      28.271  -9.113 -42.686  0.00  0.00    +0.000 S 
BRANCH  27  29
ATOM     29  N3  UNL     1      30.536 -10.288 -41.979  0.00  0.00    +0.000 N 
ATOM     30  H3  UNL     1      31.104  -9.697 -41.328  0.00  0.00    +0.000 HD
BRANCH  29  31
ATOM     31  C3  UNL     1      31.233 -11.092 -42.946  0.00  0.00    +0.000 A 
ATOM     32  C4  UNL     1      31.142 -12.488 -42.872  0.00  0.00    +0.000 A 
ATOM     33  C5  UNL     1      31.832 -13.290 -43.783  0.00  0.00    +0.000 A 
ATOM     34  C6  UNL     1      32.628 -12.706 -44.771  0.00  0.00    +0.000 A 
ATOM     35  C7  UNL     1      32.751 -11.308 -44.851  0.00  0.00    +0.000 A 
ATOM     36  C8  UNL     1      32.054 -10.508 -43.928  0.00  0.00    +0.000 A 
BRANCH  35  37
ATOM     37  N4  UNL     1      33.584 -10.701 -45.857  0.00  0.00    +0.000 N 
ATOM     38  O2  UNL     1      34.378  -9.785 -45.560  0.00  0.00    +0.000 OA
ATOM     39  O3  UNL     1      33.520 -11.122 -47.166  0.00  0.00    +0.000 OA
ENDBRANCH  35  37
ENDBRANCH  29  31
ENDBRANCH  27  29
ENDBRANCH  25  27
ENDBRANCH  23  25
ENDBRANCH   1  22
TORSDOF 7
ENDMDL
MODEL 2
REMARK VINA RESULT:    -7.938      4.812      7.702
REMARK INTER + INTRA:         -12.112
REMARK INTER:                 -11.069
REMARK INTRA:                  -1.042
REMARK UNBOUND:                -0.926
REMARK  Name = resultss/4CJN/ligands/lig_431_t0.pdb
REMARK  7 active torsions:
REMARK  status: ('A' for Active; 'I' for Inactive)
REMARK    1  A    between atoms: C1_2  and  C9_17
REMARK    2  A    between atoms: N1_3  and  N2_4
REMARK    3  A    between atoms: N2_4  and  C2_5
REMARK    4  A    between atoms: C2_5  and  N3_7
REMARK    5  A    between atoms: N3_7  and  C3_8
REMARK    6  A    between atoms: C7_12  and  N4_13
REMARK    7  A    between atoms: C19_28  and  C20_29
REMARK                            x       y       z     vdW  Elec       q    Type
REMARK                         _______ _______ _______ _____ _____    ______ ____
ROOT
ATOM      1  C9  UNL     1      26.485  -9.722 -41.185  0.00  0.00    +0.000 A 
ATOM      2  C10 UNL     1      26.276  -9.618 -39.792  0.00  0.00    +0.000 A 
ATOM      3  C11 UNL     1      27.375  -9.820 -38.967  0.00  0.00    +0.000 A 
ATOM      4  C12 UNL     1      28.623 -10.118 -39.468  0.00  0.00    +0.000 A 
ATOM      5  N5  UNL     1      29.545 -10.202 -38.479  0.00  0.00    +0.000 N 
ATOM      6  C13 UNL     1      28.852  -9.973 -37.342  0.00  0.00    +0.000 A 
ATOM      7  C14 UNL     1      29.356  -9.934 -36.043  0.00  0.00    +0.000 A 
ATOM      8  C15 UNL     1      28.460  -9.649 -34.996  0.00  0.00    +0.000 A 
ATOM      9  C16 UNL     1      27.095  -9.407 -35.266  0.00  0.00    +0.000 A 
ATOM     10  C17 UNL     1      26.609  -9.443 -36.586  0.00  0.00    +0.000 A 
ATOM     11  C18 UNL     1      27.519  -9.734 -37.601  0.00  0.00    +0.000 A 
ATOM     12  C19 UNL     1      28.816 -10.235 -40.852  0.00  0.00    +0.000 A 
ATOM     13  N6  UNL     1      27.735 -10.023 -41.662  0.00  0.00    +0.000 NA
ATOM     14  H9  UNL     1      30.571 -10.369 -38.563  0.00  0.00    +0.000 HD
ENDROOT
BRANCH  12  15
ATOM     15  C20 UNL     1      30.121 -10.571 -41.457  0.00  0.00    +0.000 A 
ATOM     16  C21 UNL     1      30.239 -11.612 -42.394  0.00  0.00    +0.000 A 
ATOM     17  C22 UNL     1      31.478 -11.900 -42.976  0.00  0.00    +0.000 A 
ATOM     18  C23 UNL     1      32.602 -11.144 -42.639  0.00  0.00    +0.000 A 
ATOM     19  C24 UNL     1      32.489 -10.091 -41.727  0.00  0.00    +0.000 A 
ATOM     20  C25 UNL     1      31.253  -9.800 -41.142  0.00  0.00    +0.000 A 
ENDBRANCH  12  15
BRANCH   1  22
ATOM     21  O1  UNL     1      25.585  -9.594 -43.376  0.00  0.00    +0.000 OA
ATOM     22  C1  UNL     1      25.374  -9.504 -42.135  0.00  0.00    +0.000 C 
ATOM     23  N1  UNL     1      24.056  -9.189 -41.659  0.00  0.00    +0.000 N 
ATOM     24  H1  UNL     1      23.895  -9.103 -40.631  0.00  0.00    +0.000 HD
BRANCH  23  25
ATOM     25  N2  UNL     1      22.975  -9.042 -42.548  0.00  0.00    +0.000 N 
ATOM     26  H2  UNL     1      22.377  -9.867 -42.773  0.00  0.00    +0.000 HD
BRANCH  25  27
ATOM     27  C2  UNL     1      22.623  -7.773 -43.122  0.00  0.00    +0.000 C 
ATOM     28  S1  UNL     1      21.167  -7.092 -42.798  0.00  0.00    +0.000 S 
BRANCH  27  29
ATOM     29  N3  UNL     1      23.614  -6.990 -43.805  0.00  0.00    +0.000 N 
ATOM     30  H3  UNL     1      24.197  -6.332 -43.238  0.00  0.00    +0.000 HD
BRANCH  29  31
ATOM     31  C3  UNL     1      23.854  -7.059 -45.221  0.00  0.00    +0.000 A 
ATOM     32  C4  UNL     1      22.780  -7.306 -46.088  0.00  0.00    +0.000 A 
ATOM     33  C5  UNL     1      22.993  -7.405 -47.464  0.00  0.00    +0.000 A 
ATOM     34  C6  UNL     1      24.280  -7.268 -47.988  0.00  0.00    +0.000 A 
ATOM     35  C7  UNL     1      25.375  -7.041 -47.135  0.00  0.00    +0.000 A 
ATOM     36  C8  UNL     1      25.152  -6.945 -45.750  0.00  0.00    +0.000 A 
BRANCH  35  37
ATOM     37  N4  UNL     1      26.707  -6.917 -47.669  0.00  0.00    +0.000 N 
ATOM     38  O2  UNL     1      27.705  -7.072 -46.936  0.00  0.00    +0.000 OA
ATOM     39  O3  UNL     1      26.903  -6.624 -49.000  0.00  0.00    +0.000 OA
ENDBRANCH  35  37
ENDBRANCH  29  31
ENDBRANCH  27  29
ENDBRANCH  25  27
ENDBRANCH  23  25
ENDBRANCH   1  22
TORSDOF 7
ENDMDL
MODEL 3
REMARK VINA RESULT:    -7.757      2.150      4.885
REMARK INTER + INTRA:         -11.856
REMARK INTER:                 -11.071
REMARK INTRA:                  -0.785
REMARK UNBOUND:                -0.926
REMARK  Name = resultss/4CJN/ligands/lig_431_t0.pdb
REMARK  7 active torsions:
REMARK  status: ('A' for Active; 'I' for Inactive)
REMARK    1  A    between atoms: C1_2  and  C9_17
REMARK    2  A    between atoms: N1_3  and  N2_4
REMARK    3  A    between atoms: N2_4  and  C2_5
REMARK    4  A    between atoms: C2_5  and  N3_7
REMARK    5  A    between atoms: N3_7  and  C3_8
REMARK    6  A    between atoms: C7_12  and  N4_13
REMARK    7  A    between atoms: C19_28  and  C20_29
REMARK                            x       y       z     vdW  Elec       q    Type
REMARK                         _______ _______ _______ _____ _____    ______ ____
ROOT
ATOM      1  C9  UNL     1      30.593  -9.709 -36.891  0.00  0.00    +0.000 A 
ATOM      2  C10 UNL     1      29.197  -9.492 -36.880  0.00  0.00    +0.000 A 
ATOM      3  C11 UNL     1      28.596  -9.283 -35.645  0.00  0.00    +0.000 A 
ATOM      4  C12 UNL     1      29.314  -9.290 -34.470  0.00  0.00    +0.000 A 
ATOM      5  N5  UNL     1      28.524  -8.997 -33.409  0.00  0.00    +0.000 N 
ATOM      6  C13 UNL     1      27.291  -8.823 -33.933  0.00  0.00    +0.000 A 
ATOM      7  C14 UNL     1      26.126  -8.486 -33.247  0.00  0.00    +0.000 A 
ATOM      8  C15 UNL     1      24.944  -8.327 -33.995  0.00  0.00    +0.000 A 
ATOM      9  C16 UNL     1      24.953  -8.500 -35.397  0.00  0.00    +0.000 A 
ATOM     10  C17 UNL     1      26.143  -8.833 -36.069  0.00  0.00    +0.000 A 
ATOM     11  C18 UNL     1      27.296  -8.990 -35.301  0.00  0.00    +0.000 A 
ATOM     12  C19 UNL     1      30.696  -9.524 -34.491  0.00  0.00    +0.000 A 
ATOM     13  N6  UNL     1      31.286  -9.716 -35.708  0.00  0.00    +0.000 NA
ATOM     14  H9  UNL     1      28.800  -8.888 -32.408  0.00  0.00    +0.000 HD
ENDROOT
BRANCH  12  15
ATOM     15  C20 UNL     1      31.524  -9.565 -33.268  0.00  0.00    +0.000 A 
ATOM     16  C21 UNL     1      32.170  -8.411 -32.792  0.00  0.00    +0.000 A 
ATOM     17  C22 UNL     1      32.930  -8.463 -31.618  0.00  0.00    +0.000 A 
ATOM     18  C23 UNL     1      33.037  -9.659 -30.906  0.00  0.00    +0.000 A 
ATOM     19  C24 UNL     1      32.378 -10.804 -31.359  0.00  0.00    +0.000 A 
ATOM     20  C25 UNL     1      31.618 -10.758 -32.532  0.00  0.00    +0.000 A 
ENDBRANCH  12  15
BRANCH   1  22
ATOM     21  O1  UNL     1      32.574 -10.014 -38.160  0.00  0.00    +0.000 OA
ATOM     22  C1  UNL     1      31.316  -9.922 -38.163  0.00  0.00    +0.000 C 
ATOM     23  N1  UNL     1      30.598 -10.024 -39.403  0.00  0.00    +0.000 N 
ATOM     24  H1  UNL     1      29.558  -9.932 -39.397  0.00  0.00    +0.000 HD
BRANCH  23  25
ATOM     25  N2  UNL     1      31.266 -10.290 -40.613  0.00  0.00    +0.000 N 
ATOM     26  H2  UNL     1      32.304 -10.194 -40.660  0.00  0.00    +0.000 HD
BRANCH  25  27
ATOM     27  C2  UNL     1      30.574 -10.749 -41.785  0.00  0.00    +0.000 C 
ATOM     28  S1  UNL     1      29.439  -9.805 -42.498  0.00  0.00    +0.000 S 
BRANCH  27  29
ATOM     29  N3  UNL     1      31.012 -11.934 -42.465  0.00  0.00    +0.000 N 
ATOM     30  H3  UNL     1      30.604 -12.851 -42.168  0.00  0.00    +0.000 HD
BRANCH  29  31
ATOM     31  C3  UNL     1      31.978 -11.936 -43.530  0.00  0.00    +0.000 A 
ATOM     32  C4  UNL     1      32.737 -10.783 -43.771  0.00  0.00    +0.000 A 
ATOM     33  C5  UNL     1      33.660 -10.752 -44.817  0.00  0.00    +0.000 A 
ATOM     34  C6  UNL     1      33.829 -11.868 -45.640  0.00  0.00    +0.000 A 
ATOM     35  C7  UNL     1      33.064 -13.028 -45.430  0.00  0.00    +0.000 A 
ATOM     36  C8  UNL     1      32.135 -13.051 -44.375  0.00  0.00    +0.000 A 
BRANCH  35  37
ATOM     37  N4  UNL     1      33.222 -14.176 -46.286  0.00  0.00    +0.000 N 
ATOM     38  O2  UNL     1      32.347 -14.470 -47.126  0.00  0.00    +0.000 OA
ATOM     39  O3  UNL     1      34.343 -14.970 -46.192  0.00  0.00    +0.000 OA
ENDBRANCH  35  37
ENDBRANCH  29  31
ENDBRANCH  27  29
ENDBRANCH  25  27
ENDBRANCH  23  25
ENDBRANCH   1  22
TORSDOF 7
ENDMDL
MODEL 4
REMARK VINA RESULT:    -7.510      3.021      4.403
REMARK INTER + INTRA:         -11.509
REMARK INTER:                 -10.328
REMARK INTRA:                  -1.181
REMARK UNBOUND:                -0.926
REMARK  Name = resultss/4CJN/ligands/lig_431_t0.pdb
REMARK  7 active torsions:
REMARK  status: ('A' for Active; 'I' for Inactive)
REMARK    1  A    between atoms: C1_2  and  C9_17
REMARK    2  A    between atoms: N1_3  and  N2_4
REMARK    3  A    between atoms: N2_4  and  C2_5
REMARK    4  A    between atoms: C2_5  and  N3_7
REMARK    5  A    between atoms: N3_7  and  C3_8
REMARK    6  A    between atoms: C7_12  and  N4_13
REMARK    7  A    between atoms: C19_28  and  C20_29
REMARK                            x       y       z     vdW  Elec       q    Type
REMARK                         _______ _______ _______ _____ _____    ______ ____
ROOT
ATOM      1  C9  UNL     1      27.842  -9.989 -37.740  0.00  0.00    +0.000 A 
ATOM      2  C10 UNL     1      29.057  -9.936 -37.022  0.00  0.00    +0.000 A 
ATOM      3  C11 UNL     1      28.992  -9.541 -35.691  0.00  0.00    +0.000 A 
ATOM      4  C12 UNL     1      27.803  -9.205 -35.083  0.00  0.00    +0.000 A 
ATOM      5  N5  UNL     1      27.983  -8.921 -33.771  0.00  0.00    +0.000 N 
ATOM      6  C13 UNL     1      29.311  -9.064 -33.566  0.00  0.00    +0.000 A 
ATOM      7  C14 UNL     1      30.000  -8.899 -32.366  0.00  0.00    +0.000 A 
ATOM      8  C15 UNL     1      31.389  -9.125 -32.366  0.00  0.00    +0.000 A 
ATOM      9  C16 UNL     1      32.053  -9.512 -33.551  0.00  0.00    +0.000 A 
ATOM     10  C17 UNL     1      31.336  -9.681 -34.750  0.00  0.00    +0.000 A 
ATOM     11  C18 UNL     1      29.963  -9.444 -34.720  0.00  0.00    +0.000 A 
ATOM     12  C19 UNL     1      26.605  -9.245 -35.811  0.00  0.00    +0.000 A 
ATOM     13  N6  UNL     1      26.670  -9.646 -37.116  0.00  0.00    +0.000 NA
ATOM     14  H9  UNL     1      27.262  -8.681 -33.056  0.00  0.00    +0.000 HD
ENDROOT
BRANCH  12  15
ATOM     15  C20 UNL     1      25.297  -8.880 -35.228  0.00  0.00    +0.000 A 
ATOM     16  C21 UNL     1      24.350  -8.156 -35.972  0.00  0.00    +0.000 A 
ATOM     17  C22 UNL     1      23.107  -7.840 -35.414  0.00  0.00    +0.000 A 
ATOM     18  C23 UNL     1      22.796  -8.255 -34.117  0.00  0.00    +0.000 A 
ATOM     19  C24 UNL     1      23.723  -8.996 -33.379  0.00  0.00    +0.000 A 
ATOM     20  C25 UNL     1      24.967  -9.313 -33.933  0.00  0.00    +0.000 A 
ENDBRANCH  12  15
BRANCH   1  22
ATOM     21  O1  UNL     1      26.727 -10.419 -39.789  0.00  0.00    +0.000 OA
ATOM     22  C1  UNL     1      27.817 -10.416 -39.155  0.00  0.00    +0.000 C 
ATOM     23  N1  UNL     1      29.024 -10.829 -39.815  0.00  0.00    +0.000 N 
ATOM     24  H1  UNL     1      29.919 -10.836 -39.278  0.00  0.00    +0.000 HD
BRANCH  23  25
ATOM     25  N2  UNL     1      29.028 -11.177 -41.179  0.00  0.00    +0.000 N 
ATOM     26  H2  UNL     1      28.403 -11.940 -41.517  0.00  0.00    +0.000 HD
BRANCH  25  27
ATOM     27  C2  UNL     1      29.827 -10.475 -42.145  0.00  0.00    +0.000 C 
ATOM     28  S1  UNL     1      31.311 -11.038 -42.557  0.00  0.00    +0.000 S 
BRANCH  27  29
ATOM     29  N3  UNL     1      29.257  -9.406 -42.914  0.00  0.00    +0.000 N 
ATOM     30  H3  UNL     1      29.700  -9.170 -43.832  0.00  0.00    +0.000 HD
BRANCH  29  31
ATOM     31  C3  UNL     1      28.112  -8.642 -42.499  0.00  0.00    +0.000 A 
ATOM     32  C4  UNL     1      28.260  -7.671 -41.499  0.00  0.00    +0.000 A 
ATOM     33  C5  UNL     1      27.158  -6.937 -41.059  0.00  0.00    +0.000 A 
ATOM     34  C6  UNL     1      25.894  -7.170 -41.605  0.00  0.00    +0.000 A 
ATOM     35  C7  UNL     1      25.718  -8.153 -42.595  0.00  0.00    +0.000 A 
ATOM     36  C8  UNL     1      26.833  -8.890 -43.031  0.00  0.00    +0.000 A 
BRANCH  35  37
ATOM     37  N4  UNL     1      24.414  -8.410 -43.149  0.00  0.00    +0.000 N 
ATOM     38  O2  UNL     1      23.585  -9.111 -42.532  0.00  0.00    +0.000 OA
ATOM     39  O3  UNL     1      24.057  -7.886 -44.371  0.00  0.00    +0.000 OA
ENDBRANCH  35  37
ENDBRANCH  29  31
ENDBRANCH  27  29
ENDBRANCH  25  27
ENDBRANCH  23  25
ENDBRANCH   1  22
TORSDOF 7
ENDMDL
MODEL 5
REMARK VINA RESULT:    -7.501      5.485      8.548
REMARK INTER + INTRA:         -11.496
REMARK INTER:                 -10.514
REMARK INTRA:                  -0.982
REMARK UNBOUND:                -0.926
REMARK  Name = resultss/4CJN/ligands/lig_431_t0.pdb
REMARK  7 active torsions:
REMARK  status: ('A' for Active; 'I' for Inactive)
REMARK    1  A    between atoms: C1_2  and  C9_17
REMARK    2  A    between atoms: N1_3  and  N2_4
REMARK    3  A    between atoms: N2_4  and  C2_5
REMARK    4  A    between atoms: C2_5  and  N3_7
REMARK    5  A    between atoms: N3_7  and  C3_8
REMARK    6  A    between atoms: C7_12  and  N4_13
REMARK    7  A    between atoms: C19_28  and  C20_29
REMARK                            x       y       z     vdW  Elec       q    Type
REMARK                         _______ _______ _______ _____ _____    ______ ____
ROOT
ATOM      1  C9  UNL     1      26.441  -9.510 -40.918  0.00  0.00    +0.000 A 
ATOM      2  C10 UNL     1      26.289  -9.460 -39.515  0.00  0.00    +0.000 A 
ATOM      3  C11 UNL     1      27.416  -9.718 -38.744  0.00  0.00    +0.000 A 
ATOM      4  C12 UNL     1      28.636 -10.019 -39.307  0.00  0.00    +0.000 A 
ATOM      5  N5  UNL     1      29.594 -10.163 -38.360  0.00  0.00    +0.000 N 
ATOM      6  C13 UNL     1      28.952  -9.967 -37.187  0.00  0.00    +0.000 A 
ATOM      7  C14 UNL     1      29.508  -9.992 -35.910  0.00  0.00    +0.000 A 
ATOM      8  C15 UNL     1      28.660  -9.733 -34.816  0.00  0.00    +0.000 A 
ATOM      9  C16 UNL     1      27.291  -9.452 -35.021  0.00  0.00    +0.000 A 
ATOM     10  C17 UNL     1      26.752  -9.424 -36.321  0.00  0.00    +0.000 A 
ATOM     11  C18 UNL     1      27.615  -9.691 -37.383  0.00  0.00    +0.000 A 
ATOM     12  C19 UNL     1      28.771 -10.083 -40.701  0.00  0.00    +0.000 A 
ATOM     13  N6  UNL     1      27.664  -9.816 -41.457  0.00  0.00    +0.000 NA
ATOM     14  H9  UNL     1      30.612 -10.347 -38.492  0.00  0.00    +0.000 HD
ENDROOT
BRANCH  12  15
ATOM     15  C20 UNL     1      30.044 -10.420 -41.371  0.00  0.00    +0.000 A 
ATOM     16  C21 UNL     1      31.235  -9.750 -41.043  0.00  0.00    +0.000 A 
ATOM     17  C22 UNL     1      32.436 -10.099 -41.669  0.00  0.00    +0.000 A 
ATOM     18  C23 UNL     1      32.460 -11.125 -42.615  0.00  0.00    +0.000 A 
ATOM     19  C24 UNL     1      31.285 -11.813 -42.930  0.00  0.00    +0.000 A 
ATOM     20  C25 UNL     1      30.082 -11.468 -42.307  0.00  0.00    +0.000 A 
ENDBRANCH  12  15
BRANCH   1  22
ATOM     21  O1  UNL     1      25.470  -9.222 -43.063  0.00  0.00    +0.000 OA
ATOM     22  C1  UNL     1      25.298  -9.231 -41.814  0.00  0.00    +0.000 C 
ATOM     23  N1  UNL     1      23.994  -8.968 -41.273  0.00  0.00    +0.000 N 
ATOM     24  H1  UNL     1      23.865  -8.963 -40.237  0.00  0.00    +0.000 HD
BRANCH  23  25
ATOM     25  N2  UNL     1      22.883  -8.763 -42.114  0.00  0.00    +0.000 N 
ATOM     26  H2  UNL     1      22.252  -9.564 -42.337  0.00  0.00    +0.000 HD
BRANCH  25  27
ATOM     27  C2  UNL     1      22.549  -7.469 -42.639  0.00  0.00    +0.000 C 
ATOM     28  S1  UNL     1      21.351  -6.582 -41.954  0.00  0.00    +0.000 S 
BRANCH  27  29
ATOM     29  N3  UNL     1      23.391  -6.848 -43.621  0.00  0.00    +0.000 N 
ATOM     30  H3  UNL     1      24.147  -6.207 -43.286  0.00  0.00    +0.000 HD
BRANCH  29  31
ATOM     31  C3  UNL     1      23.258  -7.056 -45.037  0.00  0.00    +0.000 A 
ATOM     32  C4  UNL     1      24.412  -7.180 -45.824  0.00  0.00    +0.000 A 
ATOM     33  C5  UNL     1      24.308  -7.355 -47.205  0.00  0.00    +0.000 A 
ATOM     34  C6  UNL     1      23.054  -7.397 -47.817  0.00  0.00    +0.000 A 
ATOM     35  C7  UNL     1      21.884  -7.253 -47.050  0.00  0.00    +0.000 A 
ATOM     36  C8  UNL     1      21.997  -7.076 -45.660  0.00  0.00    +0.000 A 
BRANCH  35  37
ATOM     37  N4  UNL     1      20.588  -7.279 -47.678  0.00  0.00    +0.000 N 
ATOM     38  O2  UNL     1      19.619  -7.833 -47.119  0.00  0.00    +0.000 OA
ATOM     39  O3  UNL     1      20.395  -6.691 -48.908  0.00  0.00    +0.000 OA
ENDBRANCH  35  37
ENDBRANCH  29  31
ENDBRANCH  27  29
ENDBRANCH  25  27
ENDBRANCH  23  25
ENDBRANCH   1  22
TORSDOF 7
ENDMDL
MODEL 6
REMARK VINA RESULT:    -7.309      3.689      9.138
REMARK INTER + INTRA:         -11.226
REMARK INTER:                  -9.556
REMARK INTRA:                  -1.670
REMARK UNBOUND:                -0.926
REMARK  Name = resultss/4CJN/ligands/lig_431_t0.pdb
REMARK  7 active torsions:
REMARK  status: ('A' for Active; 'I' for Inactive)
REMARK    1  A    between atoms: C1_2  and  C9_17
REMARK    2  A    between atoms: N1_3  and  N2_4
REMARK    3  A    between atoms: N2_4  and  C2_5
REMARK    4  A    between atoms: C2_5  and  N3_7
REMARK    5  A    between atoms: N3_7  and  C3_8
REMARK    6  A    between atoms: C7_12  and  N4_13
REMARK    7  A    between atoms: C19_28  and  C20_29
REMARK                            x       y       z     vdW  Elec       q    Type
REMARK                         _______ _______ _______ _____ _____    ______ ____
ROOT
ATOM      1  C9  UNL     1      29.279 -10.440 -40.862  0.00  0.00    +0.000 A 
ATOM      2  C10 UNL     1      29.814 -11.211 -41.916  0.00  0.00    +0.000 A 
ATOM      3  C11 UNL     1      31.160 -11.037 -42.213  0.00  0.00    +0.000 A 
ATOM      4  C12 UNL     1      31.954 -10.148 -41.522  0.00  0.00    +0.000 A 
ATOM      5  N5  UNL     1      33.239 -10.204 -41.944  0.00  0.00    +0.000 N 
ATOM      6  C13 UNL     1      33.240 -11.130 -42.928  0.00  0.00    +0.000 A 
ATOM      7  C14 UNL     1      34.334 -11.565 -43.673  0.00  0.00    +0.000 A 
ATOM      8  C15 UNL     1      34.118 -12.566 -44.639  0.00  0.00    +0.000 A 
ATOM      9  C16 UNL     1      32.829 -13.108 -44.835  0.00  0.00    +0.000 A 
ATOM     10  C17 UNL     1      31.739 -12.659 -44.065  0.00  0.00    +0.000 A 
ATOM     11  C18 UNL     1      31.983 -11.663 -43.121  0.00  0.00    +0.000 A 
ATOM     12  C19 UNL     1      31.408  -9.375 -40.487  0.00  0.00    +0.000 A 
ATOM     13  N6  UNL     1      30.086  -9.558 -40.190  0.00  0.00    +0.000 NA
ATOM     14  H9  UNL     1      34.065  -9.682 -41.576  0.00  0.00    +0.000 HD
ENDROOT
BRANCH  12  15
ATOM     15  C20 UNL     1      32.195  -8.390 -39.718  0.00  0.00    +0.000 A 
ATOM     16  C21 UNL     1      32.190  -7.028 -40.066  0.00  0.00    +0.000 A 
ATOM     17  C22 UNL     1      32.922  -6.105 -39.312  0.00  0.00    +0.000 A 
ATOM     18  C23 UNL     1      33.649  -6.530 -38.199  0.00  0.00    +0.000 A 
ATOM     19  C24 UNL     1      33.640  -7.878 -37.831  0.00  0.00    +0.000 A 
ATOM     20  C25 UNL     1      32.911  -8.805 -38.582  0.00  0.00    +0.000 A 
ENDBRANCH  12  15
BRANCH   1  22
ATOM     21  O1  UNL     1      27.562 -11.171 -39.397  0.00  0.00    +0.000 OA
ATOM     22  C1  UNL     1      27.860 -10.576 -40.468  0.00  0.00    +0.000 C 
ATOM     23  N1  UNL     1      26.818 -10.037 -41.296  0.00  0.00    +0.000 N 
ATOM     24  H1  UNL     1      27.074  -9.558 -42.188  0.00  0.00    +0.000 HD
BRANCH  23  25
ATOM     25  N2  UNL     1      25.467 -10.101 -40.904  0.00  0.00    +0.000 N 
ATOM     26  H2  UNL     1      24.969 -11.018 -40.925  0.00  0.00    +0.000 HD
BRANCH  25  27
ATOM     27  C2  UNL     1      24.756  -8.952 -40.417  0.00  0.00    +0.000 C 
ATOM     28  S1  UNL     1      23.894  -8.013 -41.449  0.00  0.00    +0.000 S 
BRANCH  27  29
ATOM     29  N3  UNL     1      24.615  -8.736 -39.005  0.00  0.00    +0.000 N 
ATOM     30  H3  UNL     1      23.647  -8.695 -38.609  0.00  0.00    +0.000 HD
BRANCH  29  31
ATOM     31  C3  UNL     1      25.723  -8.572 -38.104  0.00  0.00    +0.000 A 
ATOM     32  C4  UNL     1      26.747  -7.672 -38.431  0.00  0.00    +0.000 A 
ATOM     33  C5  UNL     1      27.847  -7.517 -37.585  0.00  0.00    +0.000 A 
ATOM     34  C6  UNL     1      27.942  -8.267 -36.411  0.00  0.00    +0.000 A 
ATOM     35  C7  UNL     1      26.938  -9.192 -36.074  0.00  0.00    +0.000 A 
ATOM     36  C8  UNL     1      25.834  -9.343 -36.932  0.00  0.00    +0.000 A 
BRANCH  35  37
ATOM     37  N4  UNL     1      27.040  -9.980 -34.873  0.00  0.00    +0.000 N 
ATOM     38  O2  UNL     1      26.037 -10.556 -34.401  0.00  0.00    +0.000 OA
ATOM     39  O3  UNL     1      28.247 -10.113 -34.224  0.00  0.00    +0.000 OA
ENDBRANCH  35  37
ENDBRANCH  29  31
ENDBRANCH  27  29
ENDBRANCH  25  27
ENDBRANCH  23  25
ENDBRANCH   1  22
TORSDOF 7
ENDMDL
MODEL 7
REMARK VINA RESULT:    -7.236      3.872     10.420
REMARK INTER + INTRA:         -11.123
REMARK INTER:                 -10.038
REMARK INTRA:                  -1.085
REMARK UNBOUND:                -0.926
REMARK  Name = resultss/4CJN/ligands/lig_431_t0.pdb
REMARK  7 active torsions:
REMARK  status: ('A' for Active; 'I' for Inactive)
REMARK    1  A    between atoms: C1_2  and  C9_17
REMARK    2  A    between atoms: N1_3  and  N2_4
REMARK    3  A    between atoms: N2_4  and  C2_5
REMARK    4  A    between atoms: C2_5  and  N3_7
REMARK    5  A    between atoms: N3_7  and  C3_8
REMARK    6  A    between atoms: C7_12  and  N4_13
REMARK    7  A    between atoms: C19_28  and  C20_29
REMARK                            x       y       z     vdW  Elec       q    Type
REMARK                         _______ _______ _______ _____ _____    ______ ____
ROOT
ATOM      1  C9  UNL     1      28.506  -9.736 -38.262  0.00  0.00    +0.000 A 
ATOM      2  C10 UNL     1      27.233  -9.350 -38.734  0.00  0.00    +0.000 A 
ATOM      3  C11 UNL     1      27.033  -9.362 -40.109  0.00  0.00    +0.000 A 
ATOM      4  C12 UNL     1      28.027  -9.727 -40.991  0.00  0.00    +0.000 A 
ATOM      5  N5  UNL     1      27.577  -9.727 -42.268  0.00  0.00    +0.000 N 
ATOM      6  C13 UNL     1      26.286  -9.337 -42.180  0.00  0.00    +0.000 A 
ATOM      7  C14 UNL     1      25.377  -9.196 -43.226  0.00  0.00    +0.000 A 
ATOM      8  C15 UNL     1      24.063  -8.801 -42.909  0.00  0.00    +0.000 A 
ATOM      9  C16 UNL     1      23.690  -8.563 -41.568  0.00  0.00    +0.000 A 
ATOM     10  C17 UNL     1      24.623  -8.719 -40.527  0.00  0.00    +0.000 A 
ATOM     11  C18 UNL     1      25.917  -9.105 -40.872  0.00  0.00    +0.000 A 
ATOM     12  C19 UNL     1      29.293 -10.092 -40.511  0.00  0.00    +0.000 A 
ATOM     13  N6  UNL     1      29.482 -10.091 -39.158  0.00  0.00    +0.000 NA
ATOM     14  H9  UNL     1      28.089 -10.002 -43.135  0.00  0.00    +0.000 HD
ENDROOT
BRANCH  12  15
ATOM     15  C20 UNL     1      30.410 -10.475 -41.400  0.00  0.00    +0.000 A 
ATOM     16  C21 UNL     1      31.677  -9.881 -41.267  0.00  0.00    +0.000 A 
ATOM     17  C22 UNL     1      32.729 -10.274 -42.101  0.00  0.00    +0.000 A 
ATOM     18  C23 UNL     1      32.530 -11.269 -43.059  0.00  0.00    +0.000 A 
ATOM     19  C24 UNL     1      31.280 -11.882 -43.181  0.00  0.00    +0.000 A 
ATOM     20  C25 UNL     1      30.225 -11.492 -42.351  0.00  0.00    +0.000 A 
ENDBRANCH  12  15
BRANCH   1  22
ATOM     21  O1  UNL     1      29.980  -9.590 -36.409  0.00  0.00    +0.000 OA
ATOM     22  C1  UNL     1      28.798  -9.768 -36.813  0.00  0.00    +0.000 C 
ATOM     23  N1  UNL     1      27.749 -10.004 -35.861  0.00  0.00    +0.000 N 
ATOM     24  H1  UNL     1      26.777 -10.165 -36.207  0.00  0.00    +0.000 HD
BRANCH  23  25
ATOM     25  N2  UNL     1      28.000  -9.974 -34.476  0.00  0.00    +0.000 N 
ATOM     26  H2  UNL     1      28.317 -10.842 -33.992  0.00  0.00    +0.000 HD
BRANCH  25  27
ATOM     27  C2  UNL     1      27.888  -8.768 -33.704  0.00  0.00    +0.000 C 
ATOM     28  S1  UNL     1      28.967  -8.444 -32.513  0.00  0.00    +0.000 S 
BRANCH  27  29
ATOM     29  N3  UNL     1      26.971  -7.738 -34.103  0.00  0.00    +0.000 N 
ATOM     30  H3  UNL     1      27.365  -6.810 -34.382  0.00  0.00    +0.000 HD
BRANCH  29  31
ATOM     31  C3  UNL     1      25.544  -7.907 -34.141  0.00  0.00    +0.000 A 
ATOM     32  C4  UNL     1      24.927  -8.754 -33.211  0.00  0.00    +0.000 A 
ATOM     33  C5  UNL     1      23.546  -8.956 -33.247  0.00  0.00    +0.000 A 
ATOM     34  C6  UNL     1      22.768  -8.322 -34.218  0.00  0.00    +0.000 A 
ATOM     35  C7  UNL     1      23.368  -7.484 -35.174  0.00  0.00    +0.000 A 
ATOM     36  C8  UNL     1      24.760  -7.288 -35.132  0.00  0.00    +0.000 A 
BRANCH  35  37
ATOM     37  N4  UNL     1      22.572  -6.842 -36.188  0.00  0.00    +0.000 N 
ATOM     38  O2  UNL     1      21.330  -6.782 -36.081  0.00  0.00    +0.000 OA
ATOM     39  O3  UNL     1      23.169  -6.282 -37.296  0.00  0.00    +0.000 OA
ENDBRANCH  35  37
ENDBRANCH  29  31
ENDBRANCH  27  29
ENDBRANCH  25  27
ENDBRANCH  23  25
ENDBRANCH   1  22
TORSDOF 7
ENDMDL
MODEL 8
REMARK VINA RESULT:    -7.203      4.368      8.851
REMARK INTER + INTRA:         -11.076
REMARK INTER:                  -9.611
REMARK INTRA:                  -1.465
REMARK UNBOUND:                -0.926
REMARK  Name = resultss/4CJN/ligands/lig_431_t0.pdb
REMARK  7 active torsions:
REMARK  status: ('A' for Active; 'I' for Inactive)
REMARK    1  A    between atoms: C1_2  and  C9_17
REMARK    2  A    between atoms: N1_3  and  N2_4
REMARK    3  A    between atoms: N2_4  and  C2_5
REMARK    4  A    between atoms: C2_5  and  N3_7
REMARK    5  A    between atoms: N3_7  and  C3_8
REMARK    6  A    between atoms: C7_12  and  N4_13
REMARK    7  A    between atoms: C19_28  and  C20_29
REMARK                            x       y       z     vdW  Elec       q    Type
REMARK                         _______ _______ _______ _____ _____    ______ ____
ROOT
ATOM      1  C9  UNL     1      26.065  -9.170 -37.953  0.00  0.00    +0.000 A 
ATOM      2  C10 UNL     1      27.262  -9.622 -38.550  0.00  0.00    +0.000 A 
ATOM      3  C11 UNL     1      27.399  -9.438 -39.921  0.00  0.00    +0.000 A 
ATOM      4  C12 UNL     1      26.415  -8.849 -40.683  0.00  0.00    +0.000 A 
ATOM      5  N5  UNL     1      26.803  -8.719 -41.974  0.00  0.00    +0.000 N 
ATOM      6  C13 UNL     1      28.043  -9.255 -42.018  0.00  0.00    +0.000 A 
ATOM      7  C14 UNL     1      28.881  -9.346 -43.127  0.00  0.00    +0.000 A 
ATOM      8  C15 UNL     1      30.153  -9.921 -42.947  0.00  0.00    +0.000 A 
ATOM      9  C16 UNL     1      30.558 -10.384 -41.675  0.00  0.00    +0.000 A 
ATOM     10  C17 UNL     1      29.697 -10.275 -40.567  0.00  0.00    +0.000 A 
ATOM     11  C18 UNL     1      28.442  -9.706 -40.777  0.00  0.00    +0.000 A 
ATOM     12  C19 UNL     1      25.223  -8.419 -40.083  0.00  0.00    +0.000 A 
ATOM     13  N6  UNL     1      25.097  -8.589 -38.732  0.00  0.00    +0.000 NA
ATOM     14  H9  UNL     1      26.287  -8.272 -42.763  0.00  0.00    +0.000 HD
ENDROOT
BRANCH  12  15
ATOM     15  C20 UNL     1      24.118  -7.797 -40.842  0.00  0.00    +0.000 A 
ATOM     16  C21 UNL     1      23.721  -6.473 -40.589  0.00  0.00    +0.000 A 
ATOM     17  C22 UNL     1      22.690  -5.892 -41.334  0.00  0.00    +0.000 A 
ATOM     18  C23 UNL     1      22.060  -6.620 -42.345  0.00  0.00    +0.000 A 
ATOM     19  C24 UNL     1      22.465  -7.929 -42.619  0.00  0.00    +0.000 A 
ATOM     20  C25 UNL     1      23.495  -8.515 -41.876  0.00  0.00    +0.000 A 
ENDBRANCH  12  15
BRANCH   1  22
ATOM     21  O1  UNL     1      26.629 -10.019 -35.811  0.00  0.00    +0.000 OA
ATOM     22  C1  UNL     1      25.845  -9.309 -36.498  0.00  0.00    +0.000 C 
ATOM     23  N1  UNL     1      24.743  -8.644 -35.860  0.00  0.00    +0.000 N 
ATOM     24  H1  UNL     1      24.091  -8.071 -36.439  0.00  0.00    +0.000 HD
BRANCH  23  25
ATOM     25  N2  UNL     1      24.557  -8.715 -34.466  0.00  0.00    +0.000 N 
ATOM     26  H2  UNL     1      24.270  -9.618 -34.030  0.00  0.00    +0.000 HD
BRANCH  25  27
ATOM     27  C2  UNL     1      24.804  -7.593 -33.603  0.00  0.00    +0.000 C 
ATOM     28  S1  UNL     1      23.579  -6.590 -33.178  0.00  0.00    +0.000 S 
BRANCH  27  29
ATOM     29  N3  UNL     1      26.068  -7.460 -32.936  0.00  0.00    +0.000 N 
ATOM     30  H3  UNL     1      26.064  -7.305 -31.902  0.00  0.00    +0.000 HD
BRANCH  29  31
ATOM     31  C3  UNL     1      27.339  -7.530 -33.605  0.00  0.00    +0.000 A 
ATOM     32  C4  UNL     1      27.629  -6.613 -34.625  0.00  0.00    +0.000 A 
ATOM     33  C5  UNL     1      28.844  -6.678 -35.308  0.00  0.00    +0.000 A 
ATOM     34  C6  UNL     1      29.779  -7.665 -34.988  0.00  0.00    +0.000 A 
ATOM     35  C7  UNL     1      29.500  -8.609 -33.983  0.00  0.00    +0.000 A 
ATOM     36  C8  UNL     1      28.273  -8.537 -33.301  0.00  0.00    +0.000 A 
BRANCH  35  37
ATOM     37  N4  UNL     1      30.453  -9.639 -33.661  0.00  0.00    +0.000 N 
ATOM     38  O2  UNL     1      30.231 -10.447 -32.734  0.00  0.00    +0.000 OA
ATOM     39  O3  UNL     1      31.628  -9.753 -34.370  0.00  0.00    +0.000 OA
ENDBRANCH  35  37
ENDBRANCH  29  31
ENDBRANCH  27  29
ENDBRANCH  25  27
ENDBRANCH  23  25
ENDBRANCH   1  22
TORSDOF 7
ENDMDL
MODEL 9
REMARK VINA RESULT:    -7.088      2.999      3.968
REMARK INTER + INTRA:         -10.914
REMARK INTER:                  -9.045
REMARK INTRA:                  -1.869
REMARK UNBOUND:                -0.926
REMARK  Name = resultss/4CJN/ligands/lig_431_t0.pdb
REMARK  7 active torsions:
REMARK  status: ('A' for Active; 'I' for Inactive)
REMARK    1  A    between atoms: C1_2  and  C9_17
REMARK    2  A    between atoms: N1_3  and  N2_4
REMARK    3  A    between atoms: N2_4  and  C2_5
REMARK    4  A    between atoms: C2_5  and  N3_7
REMARK    5  A    between atoms: N3_7  and  C3_8
REMARK    6  A    between atoms: C7_12  and  N4_13
REMARK    7  A    between atoms: C19_28  and  C20_29
REMARK                            x       y       z     vdW  Elec       q    Type
REMARK                         _______ _______ _______ _____ _____    ______ ____
ROOT
ATOM      1  C9  UNL     1      25.398  -8.511 -38.484  0.00  0.00    +0.000 A 
ATOM      2  C10 UNL     1      26.786  -8.766 -38.476  0.00  0.00    +0.000 A 
ATOM      3  C11 UNL     1      27.416  -8.823 -37.238  0.00  0.00    +0.000 A 
ATOM      4  C12 UNL     1      26.731  -8.636 -36.058  0.00  0.00    +0.000 A 
ATOM      5  N5  UNL     1      27.541  -8.806 -34.986  0.00  0.00    +0.000 N 
ATOM      6  C13 UNL     1      28.754  -9.086 -35.510  0.00  0.00    +0.000 A 
ATOM      7  C14 UNL     1      29.929  -9.361 -34.813  0.00  0.00    +0.000 A 
ATOM      8  C15 UNL     1      31.085  -9.655 -35.559  0.00  0.00    +0.000 A 
ATOM      9  C16 UNL     1      31.043  -9.673 -36.971  0.00  0.00    +0.000 A 
ATOM     10  C17 UNL     1      29.843  -9.399 -37.654  0.00  0.00    +0.000 A 
ATOM     11  C18 UNL     1      28.716  -9.105 -36.889  0.00  0.00    +0.000 A 
ATOM     12  C19 UNL     1      25.355  -8.367 -36.079  0.00  0.00    +0.000 A 
ATOM     13  N6  UNL     1      24.737  -8.323 -37.297  0.00  0.00    +0.000 NA
ATOM     14  H9  UNL     1      27.290  -8.771 -33.973  0.00  0.00    +0.000 HD
ENDROOT
BRANCH  12  15
ATOM     15  C20 UNL     1      24.562  -8.135 -34.854  0.00  0.00    +0.000 A 
ATOM     16  C21 UNL     1      24.335  -9.172 -33.932  0.00  0.00    +0.000 A 
ATOM     17  C22 UNL     1      23.603  -8.929 -32.764  0.00  0.00    +0.000 A 
ATOM     18  C23 UNL     1      23.107  -7.651 -32.502  0.00  0.00    +0.000 A 
ATOM     19  C24 UNL     1      23.349  -6.609 -33.402  0.00  0.00    +0.000 A 
ATOM     20  C25 UNL     1      24.079  -6.847 -34.570  0.00  0.00    +0.000 A 
ENDBRANCH  12  15
BRANCH   1  22
ATOM     21  O1  UNL     1      24.115  -7.365 -40.118  0.00  0.00    +0.000 OA
ATOM     22  C1  UNL     1      24.646  -8.450 -39.755  0.00  0.00    +0.000 C 
ATOM     23  N1  UNL     1      24.513  -9.618 -40.581  0.00  0.00    +0.000 N 
ATOM     24  H1  UNL     1      24.943 -10.515 -40.265  0.00  0.00    +0.000 HD
BRANCH  23  25
ATOM     25  N2  UNL     1      23.855  -9.561 -41.825  0.00  0.00    +0.000 N 
ATOM     26  H2  UNL     1      22.886  -9.938 -41.912  0.00  0.00    +0.000 HD
BRANCH  25  27
ATOM     27  C2  UNL     1      24.452  -8.947 -42.978  0.00  0.00    +0.000 C 
ATOM     28  S1  UNL     1      23.713  -7.684 -43.719  0.00  0.00    +0.000 S 
BRANCH  27  29
ATOM     29  N3  UNL     1      25.792  -9.286 -43.364  0.00  0.00    +0.000 N 
ATOM     30  H3  UNL     1      25.924  -9.865 -44.225  0.00  0.00    +0.000 HD
BRANCH  29  31
ATOM     31  C3  UNL     1      26.963  -8.875 -42.638  0.00  0.00    +0.000 A 
ATOM     32  C4  UNL     1      27.072  -7.546 -42.206  0.00  0.00    +0.000 A 
ATOM     33  C5  UNL     1      28.213  -7.117 -41.525  0.00  0.00    +0.000 A 
ATOM     34  C6  UNL     1      29.260  -8.007 -41.277  0.00  0.00    +0.000 A 
ATOM     35  C7  UNL     1      29.181  -9.339 -41.719  0.00  0.00    +0.000 A 
ATOM     36  C8  UNL     1      28.030  -9.763 -42.407  0.00  0.00    +0.000 A 
BRANCH  35  37
ATOM     37  N4  UNL     1      30.266 -10.256 -41.481  0.00  0.00    +0.000 N 
ATOM     38  O2  UNL     1      31.285  -9.891 -40.859  0.00  0.00    +0.000 OA
ATOM     39  O3  UNL     1      30.198 -11.554 -41.936  0.00  0.00    +0.000 OA
ENDBRANCH  35  37
ENDBRANCH  29  31
ENDBRANCH  27  29
ENDBRANCH  25  27
ENDBRANCH  23  25
ENDBRANCH   1  22
TORSDOF 7
ENDMDL
