MODEL 1
REMARK VINA RESULT:    -6.279      0.000      0.000
REMARK INTER + INTRA:          -9.817
REMARK INTER:                  -8.665
REMARK INTRA:                  -1.152
REMARK UNBOUND:                -1.152
REMARK  Name = resultss/4CJN/ligands/lig_88_t0.pdb
REMARK  11 active torsions:
REMARK  status: ('A' for Active; 'I' for Inactive)
REMARK    1  A    between atoms: C6_6  and  C7_7
REMARK    2  A    between atoms: C6_6  and  C8_8
REMARK    3  A    between atoms: C8_8  and  O1_9
REMARK    4  A    between atoms: C9_10  and  O2_11
REMARK    5  A    between atoms: C12_14  and  C13_15
REMARK    6  A    between atoms: C14_16  and  C15_17
REMARK    7  A    between atoms: C16_18  and  C17_19
REMARK    8  A    between atoms: C19_21  and  C20_22
REMARK    9  A    between atoms: C21_23  and  C22_24
REMARK   10  A    between atoms: C22_24  and  C23_25
REMARK   11  A    between atoms: C24_27  and  O4_28
REMARK                            x       y       z     vdW  Elec       q    Type
REMARK                         _______ _______ _______ _____ _____    ______ ____
ROOT
ATOM      1  C1  UNL     1      27.035  -9.260 -42.541  0.00  0.00    +0.000 C 
ATOM      2  C2  UNL     1      27.131  -9.383 -41.201  0.00  0.00    +0.000 C 
ATOM      3  C3  UNL     1      25.871  -9.243 -40.378  0.00  0.00    +0.000 C 
ATOM      4  C4  UNL     1      26.143  -8.595 -39.017  0.00  0.00    +0.000 C 
ATOM      5  C5  UNL     1      27.308  -9.304 -38.279  0.00  0.00    +0.000 C 
ATOM      6  C6  UNL     1      27.408  -9.020 -36.711  0.00  0.00    +0.000 C 
ATOM      7  C7  UNL     1      26.152  -9.615 -36.010  0.00  0.00    +0.000 C 
ATOM      8  C9  UNL     1      28.645  -9.796 -36.140  0.00  0.00    +0.000 C 
ATOM      9  C10 UNL     1      29.930  -9.525 -36.929  0.00  0.00    +0.000 C 
ATOM     10  C11 UNL     1      29.778  -9.959 -38.385  0.00  0.00    +0.000 C 
ATOM     11  C12 UNL     1      28.638  -9.208 -39.128  0.00  0.00    +0.000 C 
ATOM     12  C13 UNL     1      29.079  -7.739 -39.404  0.00  0.00    +0.000 C 
ATOM     13  C14 UNL     1      28.385  -9.929 -40.508  0.00  0.00    +0.000 C 
ENDROOT
BRANCH   8  14
ATOM     14  O2  UNL     1      28.874  -9.466 -34.791  0.00  0.00    +0.000 OA
ATOM     15  H15 UNL     1      28.535  -8.544 -34.645  0.00  0.00    +0.000 HD
ENDBRANCH   8  14
BRANCH  13  16
ATOM     16  C15 UNL     1      29.617  -9.888 -41.399  0.00  0.00    +0.000 C 
ATOM     17  C16 UNL     1      30.184 -11.004 -41.874  0.00  0.00    +0.000 C 
BRANCH  17  18
ATOM     18  C17 UNL     1      31.399 -10.987 -42.715  0.00  0.00    +0.000 A 
ATOM     19  C18 UNL     1      31.493 -11.204 -44.079  0.00  0.00    +0.000 A 
ATOM     20  C19 UNL     1      32.834 -11.074 -44.393  0.00  0.00    +0.000 A 
ATOM     21  O3  UNL     1      33.524 -10.802 -43.308  0.00  0.00    +0.000 OA
ATOM     22  C24 UNL     1      32.696 -10.742 -42.294  0.00  0.00    +0.000 A 
BRANCH  20  23
ATOM     23  C20 UNL     1      33.391 -11.232 -45.752  0.00  0.00    +0.000 C 
ATOM     24  C21 UNL     1      33.669 -12.398 -46.355  0.00  0.00    +0.000 C 
BRANCH  24  25
ATOM     25  C22 UNL     1      33.500 -13.762 -45.745  0.00  0.00    +0.000 C 
ATOM     26  C23 UNL     1      32.876 -14.742 -46.737  0.00  0.00    +0.000 C 
ENDBRANCH  24  25
ENDBRANCH  20  23
BRANCH  22  27
ATOM     27  O4  UNL     1      33.109 -10.468 -40.992  0.00  0.00    +0.000 OA
ATOM     28  H34 UNL     1      33.712  -9.685 -40.774  0.00  0.00    +0.000 HD
ENDBRANCH  22  27
ENDBRANCH  17  18
ENDBRANCH  13  16
BRANCH   6  29
ATOM     29  C8  UNL     1      27.496  -7.514 -36.291  0.00  0.00    +0.000 C 
BRANCH  29  30
ATOM     30  O1  UNL     1      26.949  -7.266 -35.024  0.00  0.00    +0.000 OA
ATOM     31  H13 UNL     1      27.067  -6.299 -34.837  0.00  0.00    +0.000 HD
ENDBRANCH  29  30
ENDBRANCH   6  29
TORSDOF 8
ENDMDL
MODEL 2
REMARK VINA RESULT:    -5.517      2.724      5.341
REMARK INTER + INTRA:          -8.766
REMARK INTER:                  -8.146
REMARK INTRA:                  -0.620
REMARK UNBOUND:                -1.152
REMARK  Name = resultss/4CJN/ligands/lig_88_t0.pdb
REMARK  11 active torsions:
REMARK  status: ('A' for Active; 'I' for Inactive)
REMARK    1  A    between atoms: C6_6  and  C7_7
REMARK    2  A    between atoms: C6_6  and  C8_8
REMARK    3  A    between atoms: C8_8  and  O1_9
REMARK    4  A    between atoms: C9_10  and  O2_11
REMARK    5  A    between atoms: C12_14  and  C13_15
REMARK    6  A    between atoms: C14_16  and  C15_17
REMARK    7  A    between atoms: C16_18  and  C17_19
REMARK    8  A    between atoms: C19_21  and  C20_22
REMARK    9  A    between atoms: C21_23  and  C22_24
REMARK   10  A    between atoms: C22_24  and  C23_25
REMARK   11  A    between atoms: C24_27  and  O4_28
REMARK                            x       y       z     vdW  Elec       q    Type
REMARK                         _______ _______ _______ _____ _____    ______ ____
ROOT
ATOM      1  C1  UNL     1      30.271  -8.683 -34.984  0.00  0.00    +0.000 C 
ATOM      2  C2  UNL     1      29.004  -8.256 -34.805  0.00  0.00    +0.000 C 
ATOM      3  C3  UNL     1      28.636  -7.645 -33.472  0.00  0.00    +0.000 C 
ATOM      4  C4  UNL     1      27.190  -7.960 -33.075  0.00  0.00    +0.000 C 
ATOM      5  C5  UNL     1      26.205  -7.618 -34.223  0.00  0.00    +0.000 C 
ATOM      6  C6  UNL     1      24.671  -7.488 -33.802  0.00  0.00    +0.000 C 
ATOM      7  C7  UNL     1      24.512  -6.270 -32.846  0.00  0.00    +0.000 C 
ATOM      8  C9  UNL     1      23.826  -7.162 -35.082  0.00  0.00    +0.000 C 
ATOM      9  C10 UNL     1      24.100  -8.133 -36.235  0.00  0.00    +0.000 C 
ATOM     10  C11 UNL     1      25.566  -8.081 -36.656  0.00  0.00    +0.000 C 
ATOM     11  C12 UNL     1      26.543  -8.470 -35.511  0.00  0.00    +0.000 C 
ATOM     12  C13 UNL     1      26.463 -10.007 -35.263  0.00  0.00    +0.000 C 
ATOM     13  C14 UNL     1      28.010  -8.106 -35.963  0.00  0.00    +0.000 C 
ENDROOT
BRANCH   8  14
ATOM     14  O2  UNL     1      22.447  -7.184 -34.801  0.00  0.00    +0.000 OA
ATOM     15  H15 UNL     1      22.289  -7.896 -34.127  0.00  0.00    +0.000 HD
ENDBRANCH   8  14
BRANCH  13  16
ATOM     16  C15 UNL     1      28.426  -8.881 -37.203  0.00  0.00    +0.000 C 
ATOM     17  C16 UNL     1      28.165  -8.434 -38.438  0.00  0.00    +0.000 C 
BRANCH  17  18
ATOM     18  C17 UNL     1      28.533  -9.186 -39.655  0.00  0.00    +0.000 A 
ATOM     19  C18 UNL     1      29.165  -8.709 -40.792  0.00  0.00    +0.000 A 
ATOM     20  C19 UNL     1      29.292  -9.796 -41.638  0.00  0.00    +0.000 A 
ATOM     21  O3  UNL     1      28.777 -10.866 -41.076  0.00  0.00    +0.000 OA
ATOM     22  C24 UNL     1      28.319 -10.534 -39.894  0.00  0.00    +0.000 A 
BRANCH  20  23
ATOM     23  C20 UNL     1      29.911  -9.740 -42.979  0.00  0.00    +0.000 C 
ATOM     24  C21 UNL     1      30.903 -10.528 -43.418  0.00  0.00    +0.000 C 
BRANCH  24  25
ATOM     25  C22 UNL     1      31.596 -11.595 -42.616  0.00  0.00    +0.000 C 
ATOM     26  C23 UNL     1      31.700 -12.902 -43.399  0.00  0.00    +0.000 C 
ENDBRANCH  24  25
ENDBRANCH  20  23
BRANCH  22  27
ATOM     27  O4  UNL     1      27.709 -11.443 -39.032  0.00  0.00    +0.000 OA
ATOM     28  H34 UNL     1      26.712 -11.431 -38.858  0.00  0.00    +0.000 HD
ENDBRANCH  22  27
ENDBRANCH  17  18
ENDBRANCH  13  16
BRANCH   6  29
ATOM     29  C8  UNL     1      24.054  -8.728 -33.070  0.00  0.00    +0.000 C 
BRANCH  29  30
ATOM     30  O1  UNL     1      23.156  -8.372 -32.053  0.00  0.00    +0.000 OA
ATOM     31  H13 UNL     1      23.177  -7.383 -31.976  0.00  0.00    +0.000 HD
ENDBRANCH  29  30
ENDBRANCH   6  29
TORSDOF 8
ENDMDL
MODEL 3
REMARK VINA RESULT:    -5.482      4.169      8.567
REMARK INTER + INTRA:          -8.717
REMARK INTER:                  -7.584
REMARK INTRA:                  -1.133
REMARK UNBOUND:                -1.152
REMARK  Name = resultss/4CJN/ligands/lig_88_t0.pdb
REMARK  11 active torsions:
REMARK  status: ('A' for Active; 'I' for Inactive)
REMARK    1  A    between atoms: C6_6  and  C7_7
REMARK    2  A    between atoms: C6_6  and  C8_8
REMARK    3  A    between atoms: C8_8  and  O1_9
REMARK    4  A    between atoms: C9_10  and  O2_11
REMARK    5  A    between atoms: C12_14  and  C13_15
REMARK    6  A    between atoms: C14_16  and  C15_17
REMARK    7  A    between atoms: C16_18  and  C17_19
REMARK    8  A    between atoms: C19_21  and  C20_22
REMARK    9  A    between atoms: C21_23  and  C22_24
REMARK   10  A    between atoms: C22_24  and  C23_25
REMARK   11  A    between atoms: C24_27  and  O4_28
REMARK                            x       y       z     vdW  Elec       q    Type
REMARK                         _______ _______ _______ _____ _____    ______ ____
ROOT
ATOM      1  C1  UNL     1      30.129 -10.016 -40.356  0.00  0.00    +0.000 C 
ATOM      2  C2  UNL     1      28.900  -9.666 -40.787  0.00  0.00    +0.000 C 
ATOM      3  C3  UNL     1      28.626  -9.701 -42.274  0.00  0.00    +0.000 C 
ATOM      4  C4  UNL     1      27.651  -8.600 -42.703  0.00  0.00    +0.000 C 
ATOM      5  C5  UNL     1      26.374  -8.604 -41.822  0.00  0.00    +0.000 C 
ATOM      6  C6  UNL     1      25.119  -7.818 -42.419  0.00  0.00    +0.000 C 
ATOM      7  C7  UNL     1      24.640  -8.542 -43.711  0.00  0.00    +0.000 C 
ATOM      8  C9  UNL     1      23.937  -7.910 -41.394  0.00  0.00    +0.000 C 
ATOM      9  C10 UNL     1      24.347  -7.492 -39.978  0.00  0.00    +0.000 C 
ATOM     10  C11 UNL     1      25.458  -8.393 -39.444  0.00  0.00    +0.000 C 
ATOM     11  C12 UNL     1      26.749  -8.345 -40.308  0.00  0.00    +0.000 C 
ATOM     12  C13 UNL     1      27.473  -6.983 -40.084  0.00  0.00    +0.000 C 
ATOM     13  C14 UNL     1      27.705  -9.510 -39.840  0.00  0.00    +0.000 C 
ENDROOT
BRANCH   8  14
ATOM     14  O2  UNL     1      22.851  -7.110 -41.796  0.00  0.00    +0.000 OA
ATOM     15  H15 UNL     1      22.297  -6.930 -40.992  0.00  0.00    +0.000 HD
ENDBRANCH   8  14
BRANCH  13  16
ATOM     16  C15 UNL     1      28.121  -9.346 -38.386  0.00  0.00    +0.000 C 
ATOM     17  C16 UNL     1      27.658 -10.152 -37.422  0.00  0.00    +0.000 C 
BRANCH  17  18
ATOM     18  C17 UNL     1      28.025  -9.990 -36.000  0.00  0.00    +0.000 A 
ATOM     19  C18 UNL     1      29.267  -9.678 -35.472  0.00  0.00    +0.000 A 
ATOM     20  C19 UNL     1      29.095  -9.634 -34.100  0.00  0.00    +0.000 A 
ATOM     21  O3  UNL     1      27.845  -9.902 -33.796  0.00  0.00    +0.000 OA
ATOM     22  C24 UNL     1      27.184 -10.117 -34.907  0.00  0.00    +0.000 A 
BRANCH  20  23
ATOM     23  C20 UNL     1      30.173  -9.337 -33.135  0.00  0.00    +0.000 C 
ATOM     24  C21 UNL     1      30.316  -8.195 -32.445  0.00  0.00    +0.000 C 
BRANCH  24  25
ATOM     25  C22 UNL     1      29.424  -6.988 -32.553  0.00  0.00    +0.000 C 
ATOM     26  C23 UNL     1      28.208  -7.111 -31.637  0.00  0.00    +0.000 C 
ENDBRANCH  24  25
ENDBRANCH  20  23
BRANCH  22  27
ATOM     27  O4  UNL     1      25.826 -10.426 -34.935  0.00  0.00    +0.000 OA
ATOM     28  H34 UNL     1      25.463 -11.198 -35.481  0.00  0.00    +0.000 HD
ENDBRANCH  22  27
ENDBRANCH  17  18
ENDBRANCH  13  16
BRANCH   6  29
ATOM     29  C8  UNL     1      25.367  -6.319 -42.799  0.00  0.00    +0.000 C 
BRANCH  29  30
ATOM     30  O1  UNL     1      24.561  -5.883 -43.861  0.00  0.00    +0.000 OA
ATOM     31  H13 UNL     1      24.084  -5.069 -43.553  0.00  0.00    +0.000 HD
ENDBRANCH  29  30
ENDBRANCH   6  29
TORSDOF 8
ENDMDL
MODEL 4
REMARK VINA RESULT:    -5.435      4.361      8.244
REMARK INTER + INTRA:          -8.653
REMARK INTER:                  -7.494
REMARK INTRA:                  -1.158
REMARK UNBOUND:                -1.152
REMARK  Name = resultss/4CJN/ligands/lig_88_t0.pdb
REMARK  11 active torsions:
REMARK  status: ('A' for Active; 'I' for Inactive)
REMARK    1  A    between atoms: C6_6  and  C7_7
REMARK    2  A    between atoms: C6_6  and  C8_8
REMARK    3  A    between atoms: C8_8  and  O1_9
REMARK    4  A    between atoms: C9_10  and  O2_11
REMARK    5  A    between atoms: C12_14  and  C13_15
REMARK    6  A    between atoms: C14_16  and  C15_17
REMARK    7  A    between atoms: C16_18  and  C17_19
REMARK    8  A    between atoms: C19_21  and  C20_22
REMARK    9  A    between atoms: C21_23  and  C22_24
REMARK   10  A    between atoms: C22_24  and  C23_25
REMARK   11  A    between atoms: C24_27  and  O4_28
REMARK                            x       y       z     vdW  Elec       q    Type
REMARK                         _______ _______ _______ _____ _____    ______ ____
ROOT
ATOM      1  C1  UNL     1      26.118  -9.588 -34.755  0.00  0.00    +0.000 C 
ATOM      2  C2  UNL     1      26.427  -9.123 -35.982  0.00  0.00    +0.000 C 
ATOM      3  C3  UNL     1      25.309  -8.587 -36.848  0.00  0.00    +0.000 C 
ATOM      4  C4  UNL     1      25.549  -8.868 -38.335  0.00  0.00    +0.000 C 
ATOM      5  C5  UNL     1      26.965  -8.410 -38.772  0.00  0.00    +0.000 C 
ATOM      6  C6  UNL     1      27.184  -8.246 -40.345  0.00  0.00    +0.000 C 
ATOM      7  C7  UNL     1      26.281  -7.088 -40.861  0.00  0.00    +0.000 C 
ATOM      8  C9  UNL     1      28.665  -7.801 -40.600  0.00  0.00    +0.000 C 
ATOM      9  C10 UNL     1      29.684  -8.705 -39.897  0.00  0.00    +0.000 C 
ATOM     10  C11 UNL     1      29.478  -8.685 -38.385  0.00  0.00    +0.000 C 
ATOM     11  C12 UNL     1      28.072  -9.189 -37.955  0.00  0.00    +0.000 C 
ATOM     12  C13 UNL     1      27.996 -10.734 -38.145  0.00  0.00    +0.000 C 
ATOM     13  C14 UNL     1      27.870  -8.856 -36.426  0.00  0.00    +0.000 C 
ENDROOT
BRANCH   8  14
ATOM     14  O2  UNL     1      28.962  -7.785 -41.977  0.00  0.00    +0.000 OA
ATOM     15  H15 UNL     1      29.378  -8.657 -42.204  0.00  0.00    +0.000 HD
ENDBRANCH   8  14
BRANCH  13  16
ATOM     16  C15 UNL     1      28.897  -9.564 -35.556  0.00  0.00    +0.000 C 
ATOM     17  C16 UNL     1      29.692  -8.894 -34.713  0.00  0.00    +0.000 C 
BRANCH  17  18
ATOM     18  C17 UNL     1      30.717  -9.559 -33.881  0.00  0.00    +0.000 A 
ATOM     19  C18 UNL     1      30.595 -10.005 -32.576  0.00  0.00    +0.000 A 
ATOM     20  C19 UNL     1      31.820 -10.561 -32.249  0.00  0.00    +0.000 A 
ATOM     21  O3  UNL     1      32.642 -10.464 -33.269  0.00  0.00    +0.000 OA
ATOM     22  C24 UNL     1      32.013  -9.875 -34.256  0.00  0.00    +0.000 A 
BRANCH  20  23
ATOM     23  C20 UNL     1      32.139 -11.159 -30.937  0.00  0.00    +0.000 C 
ATOM     24  C21 UNL     1      32.292 -12.469 -30.689  0.00  0.00    +0.000 C 
BRANCH  24  25
ATOM     25  C22 UNL     1      32.131 -13.576 -31.694  0.00  0.00    +0.000 C 
ATOM     26  C23 UNL     1      33.392 -14.434 -31.785  0.00  0.00    +0.000 C 
ENDBRANCH  24  25
ENDBRANCH  20  23
BRANCH  22  27
ATOM     27  O4  UNL     1      32.606  -9.620 -35.491  0.00  0.00    +0.000 OA
ATOM     28  H34 UNL     1      33.551  -9.915 -35.703  0.00  0.00    +0.000 HD
ENDBRANCH  22  27
ENDBRANCH  17  18
ENDBRANCH  13  16
BRANCH   6  29
ATOM     29  C8  UNL     1      26.857  -9.505 -41.218  0.00  0.00    +0.000 C 
BRANCH  29  30
ATOM     30  O1  UNL     1      26.434  -9.177 -42.514  0.00  0.00    +0.000 OA
ATOM     31  H13 UNL     1      27.240  -9.167 -43.092  0.00  0.00    +0.000 HD
ENDBRANCH  29  30
ENDBRANCH   6  29
TORSDOF 8
ENDMDL
MODEL 5
REMARK VINA RESULT:    -5.350      2.170      3.600
REMARK INTER + INTRA:          -8.534
REMARK INTER:                  -7.404
REMARK INTRA:                  -1.131
REMARK UNBOUND:                -1.152
REMARK  Name = resultss/4CJN/ligands/lig_88_t0.pdb
REMARK  11 active torsions:
REMARK  status: ('A' for Active; 'I' for Inactive)
REMARK    1  A    between atoms: C6_6  and  C7_7
REMARK    2  A    between atoms: C6_6  and  C8_8
REMARK    3  A    between atoms: C8_8  and  O1_9
REMARK    4  A    between atoms: C9_10  and  O2_11
REMARK    5  A    between atoms: C12_14  and  C13_15
REMARK    6  A    between atoms: C14_16  and  C15_17
REMARK    7  A    between atoms: C16_18  and  C17_19
REMARK    8  A    between atoms: C19_21  and  C20_22
REMARK    9  A    between atoms: C21_23  and  C22_24
REMARK   10  A    between atoms: C22_24  and  C23_25
REMARK   11  A    between atoms: C24_27  and  O4_28
REMARK                            x       y       z     vdW  Elec       q    Type
REMARK                         _______ _______ _______ _____ _____    ______ ____
ROOT
ATOM      1  C1  UNL     1      24.871  -8.255 -39.594  0.00  0.00    +0.000 C 
ATOM      2  C2  UNL     1      25.071  -8.313 -38.262  0.00  0.00    +0.000 C 
ATOM      3  C3  UNL     1      23.883  -8.104 -37.350  0.00  0.00    +0.000 C 
ATOM      4  C4  UNL     1      24.274  -7.393 -36.051  0.00  0.00    +0.000 C 
ATOM      5  C5  UNL     1      25.482  -8.089 -35.370  0.00  0.00    +0.000 C 
ATOM      6  C6  UNL     1      25.711  -7.728 -33.832  0.00  0.00    +0.000 C 
ATOM      7  C7  UNL     1      24.505  -8.260 -33.005  0.00  0.00    +0.000 C 
ATOM      8  C9  UNL     1      26.976  -8.500 -33.320  0.00  0.00    +0.000 C 
ATOM      9  C10 UNL     1      28.198  -8.297 -34.221  0.00  0.00    +0.000 C 
ATOM     10  C11 UNL     1      27.923  -8.801 -35.635  0.00  0.00    +0.000 C 
ATOM     11  C12 UNL     1      26.741  -8.065 -36.325  0.00  0.00    +0.000 C 
ATOM     12  C13 UNL     1      27.185  -6.621 -36.712  0.00  0.00    +0.000 C 
ATOM     13  C14 UNL     1      26.366  -8.849 -37.642  0.00  0.00    +0.000 C 
ENDROOT
BRANCH   8  14
ATOM     14  O2  UNL     1      27.317  -8.107 -32.012  0.00  0.00    +0.000 OA
ATOM     15  H15 UNL     1      26.762  -8.639 -31.384  0.00  0.00    +0.000 HD
ENDBRANCH   8  14
BRANCH  13  16
ATOM     16  C15 UNL     1      27.525  -8.880 -38.627  0.00  0.00    +0.000 C 
ATOM     17  C16 UNL     1      27.934 -10.017 -39.202  0.00  0.00    +0.000 C 
BRANCH  17  18
ATOM     18  C17 UNL     1      29.076 -10.074 -40.138  0.00  0.00    +0.000 A 
ATOM     19  C18 UNL     1      29.046 -10.293 -41.505  0.00  0.00    +0.000 A 
ATOM     20  C19 UNL     1      30.363 -10.245 -41.926  0.00  0.00    +0.000 A 
ATOM     21  O3  UNL     1      31.153 -10.018 -40.901  0.00  0.00    +0.000 OA
ATOM     22  C24 UNL     1      30.415  -9.909 -39.824  0.00  0.00    +0.000 A 
BRANCH  20  23
ATOM     23  C20 UNL     1      30.798 -10.434 -43.325  0.00  0.00    +0.000 C 
ATOM     24  C21 UNL     1      31.353 -11.546 -43.830  0.00  0.00    +0.000 C 
BRANCH  24  25
ATOM     25  C22 UNL     1      31.670 -12.797 -43.057  0.00  0.00    +0.000 C 
ATOM     26  C23 UNL     1      33.177 -13.000 -42.917  0.00  0.00    +0.000 C 
ENDBRANCH  24  25
ENDBRANCH  20  23
BRANCH  22  27
ATOM     27  O4  UNL     1      30.948  -9.663 -38.560  0.00  0.00    +0.000 OA
ATOM     28  H34 UNL     1      31.066 -10.399 -37.875  0.00  0.00    +0.000 HD
ENDBRANCH  22  27
ENDBRANCH  17  18
ENDBRANCH  13  16
BRANCH   6  29
ATOM     29  C8  UNL     1      25.858  -6.204 -33.500  0.00  0.00    +0.000 C 
BRANCH  29  30
ATOM     30  O1  UNL     1      25.545  -5.902 -32.167  0.00  0.00    +0.000 OA
ATOM     31  H13 UNL     1      26.376  -6.015 -31.637  0.00  0.00    +0.000 HD
ENDBRANCH  29  30
ENDBRANCH   6  29
TORSDOF 8
ENDMDL
MODEL 6
REMARK VINA RESULT:    -5.338      3.928      5.746
REMARK INTER + INTRA:          -8.519
REMARK INTER:                  -7.462
REMARK INTRA:                  -1.057
REMARK UNBOUND:                -1.152
REMARK  Name = resultss/4CJN/ligands/lig_88_t0.pdb
REMARK  11 active torsions:
REMARK  status: ('A' for Active; 'I' for Inactive)
REMARK    1  A    between atoms: C6_6  and  C7_7
REMARK    2  A    between atoms: C6_6  and  C8_8
REMARK    3  A    between atoms: C8_8  and  O1_9
REMARK    4  A    between atoms: C9_10  and  O2_11
REMARK    5  A    between atoms: C12_14  and  C13_15
REMARK    6  A    between atoms: C14_16  and  C15_17
REMARK    7  A    between atoms: C16_18  and  C17_19
REMARK    8  A    between atoms: C19_21  and  C20_22
REMARK    9  A    between atoms: C21_23  and  C22_24
REMARK   10  A    between atoms: C22_24  and  C23_25
REMARK   11  A    between atoms: C24_27  and  O4_28
REMARK                            x       y       z     vdW  Elec       q    Type
REMARK                         _______ _______ _______ _____ _____    ______ ____
ROOT
ATOM      1  C1  UNL     1      25.790  -9.310 -35.797  0.00  0.00    +0.000 C 
ATOM      2  C2  UNL     1      27.024  -9.469 -35.277  0.00  0.00    +0.000 C 
ATOM      3  C3  UNL     1      27.157  -9.601 -33.777  0.00  0.00    +0.000 C 
ATOM      4  C4  UNL     1      28.452  -8.969 -33.257  0.00  0.00    +0.000 C 
ATOM      5  C5  UNL     1      29.684  -9.477 -34.051  0.00  0.00    +0.000 C 
ATOM      6  C6  UNL     1      31.101  -9.244 -33.353  0.00  0.00    +0.000 C 
ATOM      7  C7  UNL     1      31.166 -10.092 -32.049  0.00  0.00    +0.000 C 
ATOM      8  C9  UNL     1      32.222  -9.797 -34.299  0.00  0.00    +0.000 C 
ATOM      9  C10 UNL     1      32.109  -9.257 -35.729  0.00  0.00    +0.000 C 
ATOM     10  C11 UNL     1      30.776  -9.652 -36.357  0.00  0.00    +0.000 C 
ATOM     11  C12 UNL     1      29.549  -9.098 -35.580  0.00  0.00    +0.000 C 
ATOM     12  C13 UNL     1      29.434  -7.562 -35.819  0.00  0.00    +0.000 C 
ATOM     13  C14 UNL     1      28.249  -9.797 -36.139  0.00  0.00    +0.000 C 
ENDROOT
BRANCH   8  14
ATOM     14  O2  UNL     1      33.504  -9.485 -33.806  0.00  0.00    +0.000 OA
ATOM     15  H15 UNL     1      34.166  -9.789 -34.480  0.00  0.00    +0.000 HD
ENDBRANCH   8  14
BRANCH  13  16
ATOM     16  C15 UNL     1      28.035  -9.489 -37.613  0.00  0.00    +0.000 C 
ATOM     17  C16 UNL     1      27.873 -10.458 -38.522  0.00  0.00    +0.000 C 
BRANCH  17  18
ATOM     18  C17 UNL     1      27.694 -10.181 -39.962  0.00  0.00    +0.000 A 
ATOM     19  C18 UNL     1      26.575  -9.669 -40.598  0.00  0.00    +0.000 A 
ATOM     20  C19 UNL     1      26.905  -9.589 -41.939  0.00  0.00    +0.000 A 
ATOM     21  O3  UNL     1      28.132 -10.021 -42.126  0.00  0.00    +0.000 OA
ATOM     22  C24 UNL     1      28.627 -10.379 -40.967  0.00  0.00    +0.000 A 
BRANCH  20  23
ATOM     23  C20 UNL     1      25.995  -9.095 -42.993  0.00  0.00    +0.000 C 
ATOM     24  C21 UNL     1      26.247  -8.085 -43.839  0.00  0.00    +0.000 C 
BRANCH  24  25
ATOM     25  C22 UNL     1      27.493  -7.242 -43.849  0.00  0.00    +0.000 C 
ATOM     26  C23 UNL     1      28.146  -7.229 -45.230  0.00  0.00    +0.000 C 
ENDBRANCH  24  25
ENDBRANCH  20  23
BRANCH  22  27
ATOM     27  O4  UNL     1      29.917 -10.883 -40.815  0.00  0.00    +0.000 OA
ATOM     28  H34 UNL     1      30.186 -11.435 -40.011  0.00  0.00    +0.000 HD
ENDBRANCH  22  27
ENDBRANCH  17  18
ENDBRANCH  13  16
BRANCH   6  29
ATOM     29  C8  UNL     1      31.434  -7.766 -32.955  0.00  0.00    +0.000 C 
BRANCH  29  30
ATOM     30  O1  UNL     1      32.211  -7.675 -31.791  0.00  0.00    +0.000 OA
ATOM     31  H13 UNL     1      33.110  -8.034 -32.009  0.00  0.00    +0.000 HD
ENDBRANCH  29  30
ENDBRANCH   6  29
TORSDOF 8
ENDMDL
MODEL 7
REMARK VINA RESULT:    -5.081      5.400      8.817
REMARK INTER + INTRA:          -8.163
REMARK INTER:                  -8.192
REMARK INTRA:                   0.029
REMARK UNBOUND:                -1.152
REMARK  Name = resultss/4CJN/ligands/lig_88_t0.pdb
REMARK  11 active torsions:
REMARK  status: ('A' for Active; 'I' for Inactive)
REMARK    1  A    between atoms: C6_6  and  C7_7
REMARK    2  A    between atoms: C6_6  and  C8_8
REMARK    3  A    between atoms: C8_8  and  O1_9
REMARK    4  A    between atoms: C9_10  and  O2_11
REMARK    5  A    between atoms: C12_14  and  C13_15
REMARK    6  A    between atoms: C14_16  and  C15_17
REMARK    7  A    between atoms: C16_18  and  C17_19
REMARK    8  A    between atoms: C19_21  and  C20_22
REMARK    9  A    between atoms: C21_23  and  C22_24
REMARK   10  A    between atoms: C22_24  and  C23_25
REMARK   11  A    between atoms: C24_27  and  O4_28
REMARK                            x       y       z     vdW  Elec       q    Type
REMARK                         _______ _______ _______ _____ _____    ______ ____
ROOT
ATOM      1  C1  UNL     1      27.390  -7.359 -45.530  0.00  0.00    +0.000 C 
ATOM      2  C2  UNL     1      27.456  -7.648 -44.215  0.00  0.00    +0.000 C 
ATOM      3  C3  UNL     1      28.769  -8.150 -43.658  0.00  0.00    +0.000 C 
ATOM      4  C4  UNL     1      28.563  -9.161 -42.525  0.00  0.00    +0.000 C 
ATOM      5  C5  UNL     1      27.587  -8.612 -41.452  0.00  0.00    +0.000 C 
ATOM      6  C6  UNL     1      27.621  -9.357 -40.041  0.00  0.00    +0.000 C 
ATOM      7  C7  UNL     1      29.012  -9.126 -39.382  0.00  0.00    +0.000 C 
ATOM      8  C9  UNL     1      26.565  -8.687 -39.095  0.00  0.00    +0.000 C 
ATOM      9  C10 UNL     1      25.178  -8.583 -39.738  0.00  0.00    +0.000 C 
ATOM     10  C11 UNL     1      25.227  -7.735 -41.006  0.00  0.00    +0.000 C 
ATOM     11  C12 UNL     1      26.172  -8.319 -42.093  0.00  0.00    +0.000 C 
ATOM     12  C13 UNL     1      25.516  -9.584 -42.725  0.00  0.00    +0.000 C 
ATOM     13  C14 UNL     1      26.366  -7.233 -43.220  0.00  0.00    +0.000 C 
ENDROOT
BRANCH   8  14
ATOM     14  O2  UNL     1      26.442  -9.397 -37.886  0.00  0.00    +0.000 OA
ATOM     15  H15 UNL     1      27.274  -9.923 -37.760  0.00  0.00    +0.000 HD
ENDBRANCH   8  14
BRANCH  13  16
ATOM     16  C15 UNL     1      25.050  -6.883 -43.897  0.00  0.00    +0.000 C 
ATOM     17  C16 UNL     1      24.565  -7.604 -44.915  0.00  0.00    +0.000 C 
BRANCH  17  18
ATOM     18  C17 UNL     1      23.304  -7.263 -45.606  0.00  0.00    +0.000 A 
ATOM     19  C18 UNL     1      22.204  -6.597 -45.092  0.00  0.00    +0.000 A 
ATOM     20  C19 UNL     1      21.290  -6.517 -46.128  0.00  0.00    +0.000 A 
ATOM     21  O3  UNL     1      21.779  -7.093 -47.203  0.00  0.00    +0.000 OA
ATOM     22  C24 UNL     1      22.977  -7.544 -46.923  0.00  0.00    +0.000 A 
BRANCH  20  23
ATOM     23  C20 UNL     1      19.961  -5.883 -46.018  0.00  0.00    +0.000 C 
ATOM     24  C21 UNL     1      19.082  -6.069 -45.021  0.00  0.00    +0.000 C 
BRANCH  24  25
ATOM     25  C22 UNL     1      19.273  -6.987 -43.845  0.00  0.00    +0.000 C 
ATOM     26  C23 UNL     1      19.594  -6.204 -42.573  0.00  0.00    +0.000 C 
ENDBRANCH  24  25
ENDBRANCH  20  23
BRANCH  22  27
ATOM     27  O4  UNL     1      23.775  -8.209 -47.853  0.00  0.00    +0.000 OA
ATOM     28  H34 UNL     1      23.726  -8.006 -48.843  0.00  0.00    +0.000 HD
ENDBRANCH  22  27
ENDBRANCH  17  18
ENDBRANCH  13  16
BRANCH   6  29
ATOM     29  C8  UNL     1      27.384 -10.905 -40.077  0.00  0.00    +0.000 C 
BRANCH  29  30
ATOM     30  O1  UNL     1      27.778 -11.547 -38.893  0.00  0.00    +0.000 OA
ATOM     31  H13 UNL     1      26.958 -11.915 -38.472  0.00  0.00    +0.000 HD
ENDBRANCH  29  30
ENDBRANCH   6  29
TORSDOF 8
ENDMDL
MODEL 8
REMARK VINA RESULT:    -4.875      2.435      9.034
REMARK INTER + INTRA:          -7.880
REMARK INTER:                  -7.148
REMARK INTRA:                  -0.732
REMARK UNBOUND:                -1.152
REMARK  Name = resultss/4CJN/ligands/lig_88_t0.pdb
REMARK  11 active torsions:
REMARK  status: ('A' for Active; 'I' for Inactive)
REMARK    1  A    between atoms: C6_6  and  C7_7
REMARK    2  A    between atoms: C6_6  and  C8_8
REMARK    3  A    between atoms: C8_8  and  O1_9
REMARK    4  A    between atoms: C9_10  and  O2_11
REMARK    5  A    between atoms: C12_14  and  C13_15
REMARK    6  A    between atoms: C14_16  and  C15_17
REMARK    7  A    between atoms: C16_18  and  C17_19
REMARK    8  A    between atoms: C19_21  and  C20_22
REMARK    9  A    between atoms: C21_23  and  C22_24
REMARK   10  A    between atoms: C22_24  and  C23_25
REMARK   11  A    between atoms: C24_27  and  O4_28
REMARK                            x       y       z     vdW  Elec       q    Type
REMARK                         _______ _______ _______ _____ _____    ______ ____
ROOT
ATOM      1  C1  UNL     1      24.506  -8.813 -40.791  0.00  0.00    +0.000 C 
ATOM      2  C2  UNL     1      25.819  -8.962 -41.058  0.00  0.00    +0.000 C 
ATOM      3  C3  UNL     1      26.245  -9.103 -42.502  0.00  0.00    +0.000 C 
ATOM      4  C4  UNL     1      27.455 -10.029 -42.656  0.00  0.00    +0.000 C 
ATOM      5  C5  UNL     1      28.601  -9.622 -41.693  0.00  0.00    +0.000 C 
ATOM      6  C6  UNL     1      30.042 -10.213 -42.045  0.00  0.00    +0.000 C 
ATOM      7  C7  UNL     1      30.513  -9.615 -43.403  0.00  0.00    +0.000 C 
ATOM      8  C9  UNL     1      31.063  -9.717 -40.964  0.00  0.00    +0.000 C 
ATOM      9  C10 UNL     1      30.587  -9.986 -39.532  0.00  0.00    +0.000 C 
ATOM     10  C11 UNL     1      29.271  -9.265 -39.251  0.00  0.00    +0.000 C 
ATOM     11  C12 UNL     1      28.117  -9.715 -40.191  0.00  0.00    +0.000 C 
ATOM     12  C13 UNL     1      27.649 -11.146 -39.788  0.00  0.00    +0.000 C 
ATOM     13  C14 UNL     1      26.910  -8.716 -40.008  0.00  0.00    +0.000 C 
ENDROOT
BRANCH   8  14
ATOM     14  O2  UNL     1      32.321 -10.326 -41.135  0.00  0.00    +0.000 OA
ATOM     15  H15 UNL     1      32.716 -10.459 -40.233  0.00  0.00    +0.000 HD
ENDBRANCH   8  14
BRANCH  13  16
ATOM     16  C15 UNL     1      26.375  -8.735 -38.585  0.00  0.00    +0.000 C 
ATOM     17  C16 UNL     1      27.002  -8.103 -37.585  0.00  0.00    +0.000 C 
BRANCH  17  18
ATOM     18  C17 UNL     1      26.515  -8.134 -36.190  0.00  0.00    +0.000 A 
ATOM     19  C18 UNL     1      25.513  -7.366 -35.621  0.00  0.00    +0.000 A 
ATOM     20  C19 UNL     1      25.428  -7.772 -34.301  0.00  0.00    +0.000 A 
ATOM     21  O3  UNL     1      26.310  -8.716 -34.064  0.00  0.00    +0.000 OA
ATOM     22  C24 UNL     1      26.971  -8.954 -35.171  0.00  0.00    +0.000 A 
BRANCH  20  23
ATOM     23  C20 UNL     1      24.484  -7.207 -33.315  0.00  0.00    +0.000 C 
ATOM     24  C21 UNL     1      23.156  -7.396 -33.303  0.00  0.00    +0.000 C 
BRANCH  24  25
ATOM     25  C22 UNL     1      22.375  -8.191 -34.313  0.00  0.00    +0.000 C 
ATOM     26  C23 UNL     1      21.872  -7.305 -35.451  0.00  0.00    +0.000 C 
ENDBRANCH  24  25
ENDBRANCH  20  23
BRANCH  22  27
ATOM     27  O4  UNL     1      27.982  -9.908 -35.261  0.00  0.00    +0.000 OA
ATOM     28  H34 UNL     1      27.968 -10.759 -34.712  0.00  0.00    +0.000 HD
ENDBRANCH  22  27
ENDBRANCH  17  18
ENDBRANCH  13  16
BRANCH   6  29
ATOM     29  C8  UNL     1      30.132 -11.771 -42.175  0.00  0.00    +0.000 C 
BRANCH  29  30
ATOM     30  O1  UNL     1      31.317 -12.202 -42.787  0.00  0.00    +0.000 OA
ATOM     31  H13 UNL     1      32.040 -11.591 -42.490  0.00  0.00    +0.000 HD
ENDBRANCH  29  30
ENDBRANCH   6  29
TORSDOF 8
ENDMDL
MODEL 9
REMARK VINA RESULT:    -4.609      4.031      5.766
REMARK INTER + INTRA:          -7.512
REMARK INTER:                  -7.260
REMARK INTRA:                  -0.252
REMARK UNBOUND:                -1.152
REMARK  Name = resultss/4CJN/ligands/lig_88_t0.pdb
REMARK  11 active torsions:
REMARK  status: ('A' for Active; 'I' for Inactive)
REMARK    1  A    between atoms: C6_6  and  C7_7
REMARK    2  A    between atoms: C6_6  and  C8_8
REMARK    3  A    between atoms: C8_8  and  O1_9
REMARK    4  A    between atoms: C9_10  and  O2_11
REMARK    5  A    between atoms: C12_14  and  C13_15
REMARK    6  A    between atoms: C14_16  and  C15_17
REMARK    7  A    between atoms: C16_18  and  C17_19
REMARK    8  A    between atoms: C19_21  and  C20_22
REMARK    9  A    between atoms: C21_23  and  C22_24
REMARK   10  A    between atoms: C22_24  and  C23_25
REMARK   11  A    between atoms: C24_27  and  O4_28
REMARK                            x       y       z     vdW  Elec       q    Type
REMARK                         _______ _______ _______ _____ _____    ______ ____
ROOT
ATOM      1  C1  UNL     1      29.871 -10.027 -37.894  0.00  0.00    +0.000 C 
ATOM      2  C2  UNL     1      29.127  -9.374 -36.978  0.00  0.00    +0.000 C 
ATOM      3  C3  UNL     1      29.377  -9.663 -35.516  0.00  0.00    +0.000 C 
ATOM      4  C4  UNL     1      28.091  -9.583 -34.687  0.00  0.00    +0.000 C 
ATOM      5  C5  UNL     1      27.333  -8.256 -34.951  0.00  0.00    +0.000 C 
ATOM      6  C6  UNL     1      26.236  -7.857 -33.862  0.00  0.00    +0.000 C 
ATOM      7  C7  UNL     1      26.951  -7.573 -32.508  0.00  0.00    +0.000 C 
ATOM      8  C9  UNL     1      25.563  -6.510 -34.299  0.00  0.00    +0.000 C 
ATOM      9  C10 UNL     1      25.055  -6.545 -35.744  0.00  0.00    +0.000 C 
ATOM     10  C11 UNL     1      26.202  -6.795 -36.720  0.00  0.00    +0.000 C 
ATOM     11  C12 UNL     1      26.926  -8.149 -36.475  0.00  0.00    +0.000 C 
ATOM     12  C13 UNL     1      26.008  -9.318 -36.944  0.00  0.00    +0.000 C 
ATOM     13  C14 UNL     1      28.249  -8.168 -37.333  0.00  0.00    +0.000 C 
ENDROOT
BRANCH   8  14
ATOM     14  O2  UNL     1      24.483  -6.184 -33.457  0.00  0.00    +0.000 OA
ATOM     15  H15 UNL     1      23.981  -5.442 -33.886  0.00  0.00    +0.000 HD
ENDBRANCH   8  14
BRANCH  13  16
ATOM     16  C15 UNL     1      27.956  -8.068 -38.822  0.00  0.00    +0.000 C 
ATOM     17  C16 UNL     1      27.277  -9.018 -39.475  0.00  0.00    +0.000 C 
BRANCH  17  18
ATOM     18  C17 UNL     1      27.008  -8.954 -40.927  0.00  0.00    +0.000 A 
ATOM     19  C18 UNL     1      26.020  -8.235 -41.579  0.00  0.00    +0.000 A 
ATOM     20  C19 UNL     1      26.188  -8.497 -42.927  0.00  0.00    +0.000 A 
ATOM     21  O3  UNL     1      27.198  -9.318 -43.102  0.00  0.00    +0.000 OA
ATOM     22  C24 UNL     1      27.708  -9.606 -41.929  0.00  0.00    +0.000 A 
BRANCH  20  23
ATOM     23  C20 UNL     1      25.339  -7.934 -43.997  0.00  0.00    +0.000 C 
ATOM     24  C21 UNL     1      25.735  -7.064 -44.937  0.00  0.00    +0.000 C 
BRANCH  24  25
ATOM     25  C22 UNL     1      27.113  -6.470 -45.057  0.00  0.00    +0.000 C 
ATOM     26  C23 UNL     1      27.944  -7.200 -46.111  0.00  0.00    +0.000 C 
ENDBRANCH  24  25
ENDBRANCH  20  23
BRANCH  22  27
ATOM     27  O4  UNL     1      28.800 -10.456 -41.763  0.00  0.00    +0.000 OA
ATOM     28  H34 UNL     1      29.147 -10.710 -40.847  0.00  0.00    +0.000 HD
ENDBRANCH  22  27
ENDBRANCH  17  18
ENDBRANCH  13  16
BRANCH   6  29
ATOM     29  C8  UNL     1      25.129  -8.928 -33.579  0.00  0.00    +0.000 C 
BRANCH  29  30
ATOM     30  O1  UNL     1      24.415  -8.679 -32.398  0.00  0.00    +0.000 OA
ATOM     31  H13 UNL     1      24.984  -8.099 -31.828  0.00  0.00    +0.000 HD
ENDBRANCH  29  30
ENDBRANCH   6  29
TORSDOF 8
ENDMDL
