MODEL 1
REMARK VINA RESULT:    -6.220      0.000      0.000
REMARK INTER + INTRA:         -12.185
REMARK INTER:                 -10.038
REMARK INTRA:                  -2.148
REMARK UNBOUND:                -2.148
REMARK  Name = resultss/4CJN/ligands/lig_347_t1.pdb
REMARK  11 active torsions:
REMARK  status: ('A' for Active; 'I' for Inactive)
REMARK    1  A    between atoms: O1_1  and  C1_2
REMARK    2  A    between atoms: C1_2  and  C2_3
REMARK    3  A    between atoms: C2_3  and  N1_4
REMARK    4  A    between atoms: C4_6  and  C5_7
REMARK    5  A    between atoms: C5_7  and  O2_8
REMARK    6  A    between atoms: O2_8  and  C6_9
REMARK    7  A    between atoms: C9_12  and  C10_13
REMARK    8  A    between atoms: N3_23  and  N4_24
REMARK    9  A    between atoms: N4_24  and  C18_25
REMARK   10  A    between atoms: N7_35  and  C26_36
REMARK   11  A    between atoms: C29_39  and  N8_40
REMARK                            x       y       z     vdW  Elec       q    Type
REMARK                         _______ _______ _______ _____ _____    ______ ____
ROOT
ATOM      1  C6  UNL     1      26.741  -8.826 -38.007  0.00  0.00    +0.000 A 
ATOM      2  C7  UNL     1      26.940  -7.442 -38.052  0.00  0.00    +0.000 A 
ATOM      3  C8  UNL     1      27.694  -6.801 -37.065  0.00  0.00    +0.000 A 
ATOM      4  C9  UNL     1      28.262  -7.535 -36.013  0.00  0.00    +0.000 A 
ATOM      5  C24 UNL     1      28.056  -8.926 -35.964  0.00  0.00    +0.000 A 
ATOM      6  C25 UNL     1      27.309  -9.568 -36.955  0.00  0.00    +0.000 A 
ENDROOT
BRANCH   4   7
ATOM      7  C10 UNL     1      29.043  -6.826 -34.929  0.00  0.00    +0.000 C 
ATOM      8  N2  UNL     1      30.469  -7.164 -35.017  0.00  0.00    +0.000 N 
ATOM      9  C11 UNL     1      31.099  -8.139 -34.172  0.00  0.00    +0.000 A 
ATOM     10  C12 UNL     1      32.407  -8.569 -34.445  0.00  0.00    +0.000 A 
ATOM     11  C13 UNL     1      33.019  -9.525 -33.632  0.00  0.00    +0.000 A 
ATOM     12  C14 UNL     1      32.330 -10.060 -32.539  0.00  0.00    +0.000 A 
ATOM     13  C15 UNL     1      31.029  -9.632 -32.256  0.00  0.00    +0.000 A 
ATOM     14  C16 UNL     1      30.410  -8.667 -33.070  0.00  0.00    +0.000 A 
ATOM     15  C17 UNL     1      29.058  -8.166 -32.778  0.00  0.00    +0.000 C 
ATOM     16  O3  UNL     1      28.411  -8.617 -31.794  0.00  0.00    +0.000 OA
ATOM     17  N3  UNL     1      28.482  -7.144 -33.609  0.00  0.00    +0.000 N 
ATOM     18  H10 UNL     1      31.015  -6.756 -35.812  0.00  0.00    +0.000 HD
BRANCH  17  19
ATOM     19  N4  UNL     1      27.260  -6.554 -33.238  0.00  0.00    +0.000 N 
ATOM     20  H15 UNL     1      27.269  -5.792 -32.516  0.00  0.00    +0.000 HD
BRANCH  19  21
ATOM     21  C18 UNL     1      25.998  -7.042 -33.726  0.00  0.00    +0.000 A 
ATOM     22  C19 UNL     1      25.199  -6.267 -34.590  0.00  0.00    +0.000 A 
ATOM     23  C20 UNL     1      23.987  -6.775 -35.080  0.00  0.00    +0.000 A 
ATOM     24  C21 UNL     1      23.568  -8.059 -34.722  0.00  0.00    +0.000 A 
ATOM     25  C22 UNL     1      24.360  -8.837 -33.870  0.00  0.00    +0.000 A 
ATOM     26  C23 UNL     1      25.570  -8.333 -33.376  0.00  0.00    +0.000 A 
ENDBRANCH  19  21
ENDBRANCH  17  19
ENDBRANCH   4   7
BRANCH   1  27
ATOM     27  O2  UNL     1      25.974  -9.419 -39.021  0.00  0.00    +0.000 OA
BRANCH  27  28
ATOM     28  C5  UNL     1      26.497  -9.886 -40.261  0.00  0.00    +0.000 C 
BRANCH  28  31
ATOM     29  N1  UNL     1      24.553  -7.904 -42.594  0.00  0.00    +0.000 N 
ATOM     30  C3  UNL     1      25.134  -8.029 -41.390  0.00  0.00    +0.000 A 
ATOM     31  C4  UNL     1      25.729  -9.272 -41.383  0.00  0.00    +0.000 A 
ATOM     32  N5  UNL     1      25.505  -9.861 -42.577  0.00  0.00    +0.000 NA
ATOM     33  N6  UNL     1      24.793  -9.003 -43.294  0.00  0.00    +0.000 NA
BRANCH  29  34
ATOM     34  C2  UNL     1      23.840  -6.737 -43.102  0.00  0.00    +0.000 C 
BRANCH  34  35
ATOM     35  C1  UNL     1      22.554  -7.163 -43.736  0.00  0.00    +0.000 C 
ATOM     36  N7  UNL     1      21.981  -6.376 -44.600  0.00  0.00    +0.000 NA
BRANCH  36  37
ATOM     37  C26 UNL     1      20.793  -6.653 -45.352  0.00  0.00    +0.000 A 
ATOM     38  C27 UNL     1      19.544  -6.469 -44.749  0.00  0.00    +0.000 A 
ATOM     39  C28 UNL     1      18.368  -6.694 -45.470  0.00  0.00    +0.000 A 
ATOM     40  C29 UNL     1      18.423  -7.087 -46.820  0.00  0.00    +0.000 A 
ATOM     41  C30 UNL     1      19.678  -7.230 -47.434  0.00  0.00    +0.000 A 
ATOM     42  C31 UNL     1      20.853  -7.006 -46.710  0.00  0.00    +0.000 A 
BRANCH  40  43
ATOM     43  N8  UNL     1      17.216  -7.334 -47.563  0.00  0.00    +0.000 N 
ATOM     44  O4  UNL     1      16.243  -7.900 -47.025  0.00  0.00    +0.000 OA
ATOM     45  O5  UNL     1      17.133  -6.993 -48.894  0.00  0.00    +0.000 OA
ENDBRANCH  40  43
ENDBRANCH  36  37
BRANCH  35  46
ATOM     46  O1  UNL     1      21.971  -8.360 -43.317  0.00  0.00    +0.000 OA
ATOM     47  H1  UNL     1      21.341  -8.420 -42.528  0.00  0.00    +0.000 HD
ENDBRANCH  35  46
ENDBRANCH  34  35
ENDBRANCH  29  34
ENDBRANCH  28  31
ENDBRANCH  27  28
ENDBRANCH   1  27
TORSDOF 11
ENDMDL
MODEL 2
REMARK VINA RESULT:    -6.161      3.836     11.432
REMARK INTER + INTRA:         -12.090
REMARK INTER:                  -9.676
REMARK INTRA:                  -2.414
REMARK UNBOUND:                -2.148
REMARK  Name = resultss/4CJN/ligands/lig_347_t1.pdb
REMARK  11 active torsions:
REMARK  status: ('A' for Active; 'I' for Inactive)
REMARK    1  A    between atoms: O1_1  and  C1_2
REMARK    2  A    between atoms: C1_2  and  C2_3
REMARK    3  A    between atoms: C2_3  and  N1_4
REMARK    4  A    between atoms: C4_6  and  C5_7
REMARK    5  A    between atoms: C5_7  and  O2_8
REMARK    6  A    between atoms: O2_8  and  C6_9
REMARK    7  A    between atoms: C9_12  and  C10_13
REMARK    8  A    between atoms: N3_23  and  N4_24
REMARK    9  A    between atoms: N4_24  and  C18_25
REMARK   10  A    between atoms: N7_35  and  C26_36
REMARK   11  A    between atoms: C29_39  and  N8_40
REMARK                            x       y       z     vdW  Elec       q    Type
REMARK                         _______ _______ _______ _____ _____    ______ ____
ROOT
ATOM      1  C6  UNL     1      25.780  -8.966 -35.754  0.00  0.00    +0.000 A 
ATOM      2  C7  UNL     1      26.914  -9.462 -36.408  0.00  0.00    +0.000 A 
ATOM      3  C8  UNL     1      27.169  -9.126 -37.740  0.00  0.00    +0.000 A 
ATOM      4  C9  UNL     1      26.292  -8.287 -38.444  0.00  0.00    +0.000 A 
ATOM      5  C24 UNL     1      25.148  -7.794 -37.790  0.00  0.00    +0.000 A 
ATOM      6  C25 UNL     1      24.897  -8.124 -36.455  0.00  0.00    +0.000 A 
ENDROOT
BRANCH   4   7
ATOM      7  C10 UNL     1      26.557  -7.962 -39.897  0.00  0.00    +0.000 C 
ATOM      8  N2  UNL     1      25.716  -6.841 -40.336  0.00  0.00    +0.000 N 
ATOM      9  C11 UNL     1      24.506  -7.014 -41.088  0.00  0.00    +0.000 A 
ATOM     10  C12 UNL     1      23.641  -5.928 -41.293  0.00  0.00    +0.000 A 
ATOM     11  C13 UNL     1      22.457  -6.095 -42.016  0.00  0.00    +0.000 A 
ATOM     12  C14 UNL     1      22.128  -7.349 -42.540  0.00  0.00    +0.000 A 
ATOM     13  C15 UNL     1      22.988  -8.435 -42.347  0.00  0.00    +0.000 A 
ATOM     14  C16 UNL     1      24.182  -8.271 -41.623  0.00  0.00    +0.000 A 
ATOM     15  C17 UNL     1      25.127  -9.381 -41.434  0.00  0.00    +0.000 C 
ATOM     16  O3  UNL     1      24.869 -10.524 -41.903  0.00  0.00    +0.000 OA
ATOM     17  N3  UNL     1      26.359  -9.157 -40.728  0.00  0.00    +0.000 N 
ATOM     18  H10 UNL     1      25.957  -5.887 -39.978  0.00  0.00    +0.000 HD
BRANCH  17  19
ATOM     19  N4  UNL     1      27.331 -10.174 -40.686  0.00  0.00    +0.000 N 
ATOM     20  H15 UNL     1      27.283 -10.882 -39.913  0.00  0.00    +0.000 HD
BRANCH  19  21
ATOM     21  C18 UNL     1      28.445 -10.201 -41.595  0.00  0.00    +0.000 A 
ATOM     22  C19 UNL     1      28.575  -9.245 -42.622  0.00  0.00    +0.000 A 
ATOM     23  C20 UNL     1      29.685  -9.271 -43.478  0.00  0.00    +0.000 A 
ATOM     24  C21 UNL     1      30.678 -10.241 -43.310  0.00  0.00    +0.000 A 
ATOM     25  C22 UNL     1      30.559 -11.188 -42.288  0.00  0.00    +0.000 A 
ATOM     26  C23 UNL     1      29.450 -11.168 -41.433  0.00  0.00    +0.000 A 
ENDBRANCH  19  21
ENDBRANCH  17  19
ENDBRANCH   4   7
BRANCH   1  27
ATOM     27  O2  UNL     1      25.570  -9.336 -34.417  0.00  0.00    +0.000 OA
BRANCH  27  28
ATOM     28  C5  UNL     1      25.885  -8.519 -33.294  0.00  0.00    +0.000 C 
BRANCH  28  31
ATOM     29  N1  UNL     1      29.509  -8.374 -33.243  0.00  0.00    +0.000 N 
ATOM     30  C3  UNL     1      28.381  -9.102 -33.182  0.00  0.00    +0.000 A 
ATOM     31  C4  UNL     1      27.344  -8.203 -33.308  0.00  0.00    +0.000 A 
ATOM     32  N5  UNL     1      27.863  -6.966 -33.451  0.00  0.00    +0.000 NA
ATOM     33  N6  UNL     1      29.181  -7.102 -33.413  0.00  0.00    +0.000 NA
BRANCH  29  34
ATOM     34  C2  UNL     1      30.876  -8.880 -33.207  0.00  0.00    +0.000 C 
BRANCH  34  35
ATOM     35  C1  UNL     1      31.536  -8.655 -34.530  0.00  0.00    +0.000 C 
ATOM     36  N7  UNL     1      31.642  -9.649 -35.364  0.00  0.00    +0.000 NA
BRANCH  36  37
ATOM     37  C26 UNL     1      32.177  -9.596 -36.694  0.00  0.00    +0.000 A 
ATOM     38  C27 UNL     1      33.544  -9.816 -36.888  0.00  0.00    +0.000 A 
ATOM     39  C28 UNL     1      34.087  -9.808 -38.177  0.00  0.00    +0.000 A 
ATOM     40  C29 UNL     1      33.262  -9.603 -39.297  0.00  0.00    +0.000 A 
ATOM     41  C30 UNL     1      31.882  -9.425 -39.101  0.00  0.00    +0.000 A 
ATOM     42  C31 UNL     1      31.343  -9.431 -37.811  0.00  0.00    +0.000 A 
BRANCH  40  43
ATOM     43  N8  UNL     1      33.818  -9.581 -40.624  0.00  0.00    +0.000 N 
ATOM     44  O4  UNL     1      33.840 -10.614 -41.321  0.00  0.00    +0.000 OA
ATOM     45  O5  UNL     1      34.380  -8.428 -41.127  0.00  0.00    +0.000 OA
ENDBRANCH  40  43
ENDBRANCH  36  37
BRANCH  35  46
ATOM     46  O1  UNL     1      32.089  -7.400 -34.792  0.00  0.00    +0.000 OA
ATOM     47  H1  UNL     1      32.894  -7.266 -35.390  0.00  0.00    +0.000 HD
ENDBRANCH  35  46
ENDBRANCH  34  35
ENDBRANCH  29  34
ENDBRANCH  28  31
ENDBRANCH  27  28
ENDBRANCH   1  27
TORSDOF 11
ENDMDL
MODEL 3
REMARK VINA RESULT:    -6.133      4.575      7.287
REMARK INTER + INTRA:         -12.046
REMARK INTER:                  -9.140
REMARK INTRA:                  -2.906
REMARK UNBOUND:                -2.148
REMARK  Name = resultss/4CJN/ligands/lig_347_t1.pdb
REMARK  11 active torsions:
REMARK  status: ('A' for Active; 'I' for Inactive)
REMARK    1  A    between atoms: O1_1  and  C1_2
REMARK    2  A    between atoms: C1_2  and  C2_3
REMARK    3  A    between atoms: C2_3  and  N1_4
REMARK    4  A    between atoms: C4_6  and  C5_7
REMARK    5  A    between atoms: C5_7  and  O2_8
REMARK    6  A    between atoms: O2_8  and  C6_9
REMARK    7  A    between atoms: C9_12  and  C10_13
REMARK    8  A    between atoms: N3_23  and  N4_24
REMARK    9  A    between atoms: N4_24  and  C18_25
REMARK   10  A    between atoms: N7_35  and  C26_36
REMARK   11  A    between atoms: C29_39  and  N8_40
REMARK                            x       y       z     vdW  Elec       q    Type
REMARK                         _______ _______ _______ _____ _____    ______ ____
ROOT
ATOM      1  C6  UNL     1      27.836  -9.627 -36.286  0.00  0.00    +0.000 A 
ATOM      2  C7  UNL     1      28.309  -8.855 -35.220  0.00  0.00    +0.000 A 
ATOM      3  C8  UNL     1      29.680  -8.642 -35.051  0.00  0.00    +0.000 A 
ATOM      4  C9  UNL     1      30.603  -9.201 -35.947  0.00  0.00    +0.000 A 
ATOM      5  C24 UNL     1      30.129  -9.984 -37.015  0.00  0.00    +0.000 A 
ATOM      6  C25 UNL     1      28.757 -10.190 -37.188  0.00  0.00    +0.000 A 
ENDROOT
BRANCH   4   7
ATOM      7  C10 UNL     1      32.087  -8.997 -35.732  0.00  0.00    +0.000 C 
ATOM      8  N2  UNL     1      32.582  -9.889 -34.677  0.00  0.00    +0.000 N 
ATOM      9  C11 UNL     1      32.809  -9.459 -33.326  0.00  0.00    +0.000 A 
ATOM     10  C12 UNL     1      33.077 -10.402 -32.322  0.00  0.00    +0.000 A 
ATOM     11  C13 UNL     1      33.289  -9.988 -31.004  0.00  0.00    +0.000 A 
ATOM     12  C14 UNL     1      33.233  -8.629 -30.680  0.00  0.00    +0.000 A 
ATOM     13  C15 UNL     1      32.974  -7.682 -31.676  0.00  0.00    +0.000 A 
ATOM     14  C16 UNL     1      32.764  -8.094 -33.004  0.00  0.00    +0.000 A 
ATOM     15  C17 UNL     1      32.527  -7.123 -34.084  0.00  0.00    +0.000 C 
ATOM     16  O3  UNL     1      32.483  -5.888 -33.830  0.00  0.00    +0.000 OA
ATOM     17  N3  UNL     1      32.365  -7.585 -35.435  0.00  0.00    +0.000 N 
ATOM     18  H10 UNL     1      32.657 -10.909 -34.902  0.00  0.00    +0.000 HD
BRANCH  17  19
ATOM     19  N4  UNL     1      32.298  -6.651 -36.485  0.00  0.00    +0.000 N 
ATOM     20  H15 UNL     1      32.545  -5.650 -36.284  0.00  0.00    +0.000 HD
BRANCH  19  21
ATOM     21  C18 UNL     1      31.793  -7.001 -37.785  0.00  0.00    +0.000 A 
ATOM     22  C19 UNL     1      30.495  -6.632 -38.189  0.00  0.00    +0.000 A 
ATOM     23  C20 UNL     1      30.034  -6.956 -39.473  0.00  0.00    +0.000 A 
ATOM     24  C21 UNL     1      30.864  -7.640 -40.365  0.00  0.00    +0.000 A 
ATOM     25  C22 UNL     1      32.157  -8.003 -39.973  0.00  0.00    +0.000 A 
ATOM     26  C23 UNL     1      32.621  -7.684 -38.691  0.00  0.00    +0.000 A 
ENDBRANCH  19  21
ENDBRANCH  17  19
ENDBRANCH   4   7
BRANCH   1  27
ATOM     27  O2  UNL     1      26.450  -9.812 -36.408  0.00  0.00    +0.000 OA
BRANCH  27  28
ATOM     28  C5  UNL     1      25.477  -8.794 -36.192  0.00  0.00    +0.000 C 
BRANCH  28  31
ATOM     29  N1  UNL     1      24.729  -7.838 -39.609  0.00  0.00    +0.000 N 
ATOM     30  C3  UNL     1      25.086  -8.786 -38.727  0.00  0.00    +0.000 A 
ATOM     31  C4  UNL     1      25.124  -8.165 -37.497  0.00  0.00    +0.000 A 
ATOM     32  N5  UNL     1      24.782  -6.869 -37.661  0.00  0.00    +0.000 NA
ATOM     33  N6  UNL     1      24.542  -6.702 -38.954  0.00  0.00    +0.000 NA
BRANCH  29  34
ATOM     34  C2  UNL     1      24.503  -8.018 -41.039  0.00  0.00    +0.000 C 
BRANCH  34  35
ATOM     35  C1  UNL     1      25.569  -8.893 -41.616  0.00  0.00    +0.000 C 
ATOM     36  N7  UNL     1      26.818  -8.578 -41.432  0.00  0.00    +0.000 NA
BRANCH  36  37
ATOM     37  C26 UNL     1      27.962  -9.336 -41.850  0.00  0.00    +0.000 A 
ATOM     38  C27 UNL     1      28.689  -8.914 -42.968  0.00  0.00    +0.000 A 
ATOM     39  C28 UNL     1      29.830  -9.610 -43.376  0.00  0.00    +0.000 A 
ATOM     40  C29 UNL     1      30.277 -10.732 -42.654  0.00  0.00    +0.000 A 
ATOM     41  C30 UNL     1      29.568 -11.128 -41.507  0.00  0.00    +0.000 A 
ATOM     42  C31 UNL     1      28.427 -10.430 -41.103  0.00  0.00    +0.000 A 
BRANCH  40  43
ATOM     43  N8  UNL     1      31.443 -11.461 -43.077  0.00  0.00    +0.000 N 
ATOM     44  O4  UNL     1      32.422 -10.865 -43.568  0.00  0.00    +0.000 OA
ATOM     45  O5  UNL     1      31.477 -12.836 -42.992  0.00  0.00    +0.000 OA
ENDBRANCH  40  43
ENDBRANCH  36  37
BRANCH  35  46
ATOM     46  O1  UNL     1      25.182  -9.980 -42.403  0.00  0.00    +0.000 OA
ATOM     47  H1  UNL     1      24.745  -9.877 -43.309  0.00  0.00    +0.000 HD
ENDBRANCH  35  46
ENDBRANCH  34  35
ENDBRANCH  29  34
ENDBRANCH  28  31
ENDBRANCH  27  28
ENDBRANCH   1  27
TORSDOF 11
ENDMDL
MODEL 4
REMARK VINA RESULT:    -6.043      3.415     11.390
REMARK INTER + INTRA:         -11.900
REMARK INTER:                  -9.954
REMARK INTRA:                  -1.946
REMARK UNBOUND:                -2.148
REMARK  Name = resultss/4CJN/ligands/lig_347_t1.pdb
REMARK  11 active torsions:
REMARK  status: ('A' for Active; 'I' for Inactive)
REMARK    1  A    between atoms: O1_1  and  C1_2
REMARK    2  A    between atoms: C1_2  and  C2_3
REMARK    3  A    between atoms: C2_3  and  N1_4
REMARK    4  A    between atoms: C4_6  and  C5_7
REMARK    5  A    between atoms: C5_7  and  O2_8
REMARK    6  A    between atoms: O2_8  and  C6_9
REMARK    7  A    between atoms: C9_12  and  C10_13
REMARK    8  A    between atoms: N3_23  and  N4_24
REMARK    9  A    between atoms: N4_24  and  C18_25
REMARK   10  A    between atoms: N7_35  and  C26_36
REMARK   11  A    between atoms: C29_39  and  N8_40
REMARK                            x       y       z     vdW  Elec       q    Type
REMARK                         _______ _______ _______ _____ _____    ______ ____
ROOT
ATOM      1  C6  UNL     1      25.589  -9.494 -41.211  0.00  0.00    +0.000 A 
ATOM      2  C7  UNL     1      25.188  -9.684 -42.538  0.00  0.00    +0.000 A 
ATOM      3  C8  UNL     1      24.965  -8.589 -43.376  0.00  0.00    +0.000 A 
ATOM      4  C9  UNL     1      25.137  -7.280 -42.899  0.00  0.00    +0.000 A 
ATOM      5  C24 UNL     1      25.533  -7.088 -41.563  0.00  0.00    +0.000 A 
ATOM      6  C25 UNL     1      25.764  -8.185 -40.727  0.00  0.00    +0.000 A 
ENDROOT
BRANCH   4   7
ATOM      7  C10 UNL     1      24.855  -6.101 -43.804  0.00  0.00    +0.000 C 
ATOM      8  N2  UNL     1      23.421  -6.017 -44.108  0.00  0.00    +0.000 N 
ATOM      9  C11 UNL     1      22.849  -6.491 -45.337  0.00  0.00    +0.000 A 
ATOM     10  C12 UNL     1      21.456  -6.576 -45.479  0.00  0.00    +0.000 A 
ATOM     11  C13 UNL     1      20.896  -7.046 -46.670  0.00  0.00    +0.000 A 
ATOM     12  C14 UNL     1      21.724  -7.434 -47.727  0.00  0.00    +0.000 A 
ATOM     13  C15 UNL     1      23.113  -7.345 -47.597  0.00  0.00    +0.000 A 
ATOM     14  C16 UNL     1      23.681  -6.869 -46.402  0.00  0.00    +0.000 A 
ATOM     15  C17 UNL     1      25.136  -6.726 -46.244  0.00  0.00    +0.000 C 
ATOM     16  O3  UNL     1      25.914  -7.055 -47.182  0.00  0.00    +0.000 OA
ATOM     17  N3  UNL     1      25.672  -6.191 -45.022  0.00  0.00    +0.000 N 
ATOM     18  H10 UNL     1      22.781  -5.705 -43.341  0.00  0.00    +0.000 HD
BRANCH  17  19
ATOM     19  N4  UNL     1      27.047  -5.906 -44.932  0.00  0.00    +0.000 N 
ATOM     20  H15 UNL     1      27.462  -5.215 -45.605  0.00  0.00    +0.000 HD
BRANCH  19  21
ATOM     21  C18 UNL     1      27.915  -6.615 -44.031  0.00  0.00    +0.000 A 
ATOM     22  C19 UNL     1      28.443  -5.993 -42.882  0.00  0.00    +0.000 A 
ATOM     23  C20 UNL     1      29.262  -6.712 -42.001  0.00  0.00    +0.000 A 
ATOM     24  C21 UNL     1      29.552  -8.056 -42.250  0.00  0.00    +0.000 A 
ATOM     25  C22 UNL     1      29.025  -8.683 -43.384  0.00  0.00    +0.000 A 
ATOM     26  C23 UNL     1      28.209  -7.968 -44.270  0.00  0.00    +0.000 A 
ENDBRANCH  19  21
ENDBRANCH  17  19
ENDBRANCH   4   7
BRANCH   1  27
ATOM     27  O2  UNL     1      25.797 -10.628 -40.411  0.00  0.00    +0.000 OA
BRANCH  27  28
ATOM     28  C5  UNL     1      26.970 -11.435 -40.443  0.00  0.00    +0.000 C 
BRANCH  28  31
ATOM     29  N1  UNL     1      29.140  -9.947 -37.947  0.00  0.00    +0.000 N 
ATOM     30  C3  UNL     1      27.974 -10.535 -38.260  0.00  0.00    +0.000 A 
ATOM     31  C4  UNL     1      28.032 -10.794 -39.613  0.00  0.00    +0.000 A 
ATOM     32  N5  UNL     1      29.225 -10.370 -40.080  0.00  0.00    +0.000 NA
ATOM     33  N6  UNL     1      29.879  -9.865 -39.044  0.00  0.00    +0.000 NA
BRANCH  29  34
ATOM     34  C2  UNL     1      29.578  -9.529 -36.619  0.00  0.00    +0.000 C 
BRANCH  34  35
ATOM     35  C1  UNL     1      28.390  -9.188 -35.777  0.00  0.00    +0.000 C 
ATOM     36  N7  UNL     1      27.730  -8.094 -36.024  0.00  0.00    +0.000 NA
BRANCH  36  37
ATOM     37  C26 UNL     1      26.535  -7.650 -35.368  0.00  0.00    +0.000 A 
ATOM     38  C27 UNL     1      25.307  -7.776 -36.027  0.00  0.00    +0.000 A 
ATOM     39  C28 UNL     1      24.121  -7.386 -35.398  0.00  0.00    +0.000 A 
ATOM     40  C29 UNL     1      24.143  -6.884 -34.084  0.00  0.00    +0.000 A 
ATOM     41  C30 UNL     1      25.372  -6.798 -33.410  0.00  0.00    +0.000 A 
ATOM     42  C31 UNL     1      26.557  -7.187 -34.043  0.00  0.00    +0.000 A 
BRANCH  40  43
ATOM     43  N8  UNL     1      22.926  -6.469 -33.437  0.00  0.00    +0.000 N 
ATOM     44  O4  UNL     1      22.021  -5.909 -34.085  0.00  0.00    +0.000 OA
ATOM     45  O5  UNL     1      22.764  -6.638 -32.080  0.00  0.00    +0.000 OA
ENDBRANCH  40  43
ENDBRANCH  36  37
BRANCH  35  46
ATOM     46  O1  UNL     1      28.079 -10.020 -34.699  0.00  0.00    +0.000 OA
ATOM     47  H1  UNL     1      28.529  -9.944 -33.797  0.00  0.00    +0.000 HD
ENDBRANCH  35  46
ENDBRANCH  34  35
ENDBRANCH  29  34
ENDBRANCH  28  31
ENDBRANCH  27  28
ENDBRANCH   1  27
TORSDOF 11
ENDMDL
MODEL 5
REMARK VINA RESULT:    -5.994      3.737     13.151
REMARK INTER + INTRA:         -11.821
REMARK INTER:                  -9.744
REMARK INTRA:                  -2.077
REMARK UNBOUND:                -2.148
REMARK  Name = resultss/4CJN/ligands/lig_347_t1.pdb
REMARK  11 active torsions:
REMARK  status: ('A' for Active; 'I' for Inactive)
REMARK    1  A    between atoms: O1_1  and  C1_2
REMARK    2  A    between atoms: C1_2  and  C2_3
REMARK    3  A    between atoms: C2_3  and  N1_4
REMARK    4  A    between atoms: C4_6  and  C5_7
REMARK    5  A    between atoms: C5_7  and  O2_8
REMARK    6  A    between atoms: O2_8  and  C6_9
REMARK    7  A    between atoms: C9_12  and  C10_13
REMARK    8  A    between atoms: N3_23  and  N4_24
REMARK    9  A    between atoms: N4_24  and  C18_25
REMARK   10  A    between atoms: N7_35  and  C26_36
REMARK   11  A    between atoms: C29_39  and  N8_40
REMARK                            x       y       z     vdW  Elec       q    Type
REMARK                         _______ _______ _______ _____ _____    ______ ____
ROOT
ATOM      1  C6  UNL     1      25.212  -9.301 -41.390  0.00  0.00    +0.000 A 
ATOM      2  C7  UNL     1      25.174  -7.987 -40.912  0.00  0.00    +0.000 A 
ATOM      3  C8  UNL     1      24.849  -6.929 -41.765  0.00  0.00    +0.000 A 
ATOM      4  C9  UNL     1      24.557  -7.169 -43.117  0.00  0.00    +0.000 A 
ATOM      5  C24 UNL     1      24.601  -8.488 -43.600  0.00  0.00    +0.000 A 
ATOM      6  C25 UNL     1      24.919  -9.547 -42.744  0.00  0.00    +0.000 A 
ENDROOT
BRANCH   4   7
ATOM      7  C10 UNL     1      24.245  -6.012 -44.040  0.00  0.00    +0.000 C 
ATOM      8  N2  UNL     1      22.795  -5.883 -44.233  0.00  0.00    +0.000 N 
ATOM      9  C11 UNL     1      22.110  -6.377 -45.394  0.00  0.00    +0.000 A 
ATOM     10  C12 UNL     1      20.708  -6.414 -45.423  0.00  0.00    +0.000 A 
ATOM     11  C13 UNL     1      20.038  -6.904 -46.547  0.00  0.00    +0.000 A 
ATOM     12  C14 UNL     1      20.764  -7.359 -47.652  0.00  0.00    +0.000 A 
ATOM     13  C15 UNL     1      22.162  -7.319 -47.634  0.00  0.00    +0.000 A 
ATOM     14  C16 UNL     1      22.840  -6.824 -46.506  0.00  0.00    +0.000 A 
ATOM     15  C17 UNL     1      24.308  -6.731 -46.469  0.00  0.00    +0.000 C 
ATOM     16  O3  UNL     1      24.995  -7.122 -47.452  0.00  0.00    +0.000 OA
ATOM     17  N3  UNL     1      24.958  -6.175 -45.314  0.00  0.00    +0.000 N 
ATOM     18  H10 UNL     1      22.230  -5.520 -43.430  0.00  0.00    +0.000 HD
BRANCH  17  19
ATOM     19  N4  UNL     1      26.345  -5.939 -45.344  0.00  0.00    +0.000 N 
ATOM     20  H15 UNL     1      26.738  -5.347 -46.117  0.00  0.00    +0.000 HD
BRANCH  19  21
ATOM     21  C18 UNL     1      27.246  -6.577 -44.422  0.00  0.00    +0.000 A 
ATOM     22  C19 UNL     1      27.742  -7.874 -44.663  0.00  0.00    +0.000 A 
ATOM     23  C20 UNL     1      28.644  -8.465 -43.767  0.00  0.00    +0.000 A 
ATOM     24  C21 UNL     1      29.065  -7.767 -42.632  0.00  0.00    +0.000 A 
ATOM     25  C22 UNL     1      28.582  -6.476 -42.390  0.00  0.00    +0.000 A 
ATOM     26  C23 UNL     1      27.679  -5.883 -43.281  0.00  0.00    +0.000 A 
ENDBRANCH  19  21
ENDBRANCH  17  19
ENDBRANCH   4   7
BRANCH   1  27
ATOM     27  O2  UNL     1      25.546 -10.326 -40.492  0.00  0.00    +0.000 OA
BRANCH  27  28
ATOM     28  C5  UNL     1      26.537 -11.320 -40.734  0.00  0.00    +0.000 C 
BRANCH  28  31
ATOM     29  N1  UNL     1      29.526  -9.535 -39.719  0.00  0.00    +0.000 N 
ATOM     30  C3  UNL     1      28.205  -9.740 -39.592  0.00  0.00    +0.000 A 
ATOM     31  C4  UNL     1      27.889 -10.738 -40.488  0.00  0.00    +0.000 A 
ATOM     32  N5  UNL     1      29.018 -11.117 -41.123  0.00  0.00    +0.000 NA
ATOM     33  N6  UNL     1      29.997 -10.373 -40.630  0.00  0.00    +0.000 NA
BRANCH  29  34
ATOM     34  C2  UNL     1      30.343  -8.609 -38.943  0.00  0.00    +0.000 C 
BRANCH  34  35
ATOM     35  C1  UNL     1      30.848  -9.286 -37.709  0.00  0.00    +0.000 C 
ATOM     36  N7  UNL     1      30.796  -8.655 -36.572  0.00  0.00    +0.000 NA
BRANCH  36  37
ATOM     37  C26 UNL     1      31.166  -9.174 -35.287  0.00  0.00    +0.000 A 
ATOM     38  C27 UNL     1      32.507  -9.127 -34.893  0.00  0.00    +0.000 A 
ATOM     39  C28 UNL     1      32.893  -9.591 -33.632  0.00  0.00    +0.000 A 
ATOM     40  C29 UNL     1      31.933 -10.091 -32.733  0.00  0.00    +0.000 A 
ATOM     41  C30 UNL     1      30.581 -10.097 -33.116  0.00  0.00    +0.000 A 
ATOM     42  C31 UNL     1      30.200  -9.634 -34.379  0.00  0.00    +0.000 A 
BRANCH  40  43
ATOM     43  N8  UNL     1      32.325 -10.582 -31.438  0.00  0.00    +0.000 N 
ATOM     44  O4  UNL     1      31.755 -11.569 -30.934  0.00  0.00    +0.000 OA
ATOM     45  O5  UNL     1      33.305  -9.940 -30.715  0.00  0.00    +0.000 OA
ENDBRANCH  40  43
ENDBRANCH  36  37
BRANCH  35  46
ATOM     46  O1  UNL     1      31.433 -10.547 -37.835  0.00  0.00    +0.000 OA
ATOM     47  H1  UNL     1      32.384 -10.685 -38.153  0.00  0.00    +0.000 HD
ENDBRANCH  35  46
ENDBRANCH  34  35
ENDBRANCH  29  34
ENDBRANCH  28  31
ENDBRANCH  27  28
ENDBRANCH   1  27
TORSDOF 11
ENDMDL
MODEL 6
REMARK VINA RESULT:    -5.870      5.102     11.885
REMARK INTER + INTRA:         -11.621
REMARK INTER:                 -10.750
REMARK INTRA:                  -0.871
REMARK UNBOUND:                -2.148
REMARK  Name = resultss/4CJN/ligands/lig_347_t1.pdb
REMARK  11 active torsions:
REMARK  status: ('A' for Active; 'I' for Inactive)
REMARK    1  A    between atoms: O1_1  and  C1_2
REMARK    2  A    between atoms: C1_2  and  C2_3
REMARK    3  A    between atoms: C2_3  and  N1_4
REMARK    4  A    between atoms: C4_6  and  C5_7
REMARK    5  A    between atoms: C5_7  and  O2_8
REMARK    6  A    between atoms: O2_8  and  C6_9
REMARK    7  A    between atoms: C9_12  and  C10_13
REMARK    8  A    between atoms: N3_23  and  N4_24
REMARK    9  A    between atoms: N4_24  and  C18_25
REMARK   10  A    between atoms: N7_35  and  C26_36
REMARK   11  A    between atoms: C29_39  and  N8_40
REMARK                            x       y       z     vdW  Elec       q    Type
REMARK                         _______ _______ _______ _____ _____    ______ ____
ROOT
ATOM      1  C6  UNL     1      25.472  -9.223 -41.265  0.00  0.00    +0.000 A 
ATOM      2  C7  UNL     1      25.420  -7.900 -40.812  0.00  0.00    +0.000 A 
ATOM      3  C8  UNL     1      25.084  -6.863 -41.685  0.00  0.00    +0.000 A 
ATOM      4  C9  UNL     1      24.795  -7.131 -43.032  0.00  0.00    +0.000 A 
ATOM      5  C24 UNL     1      24.854  -8.460 -43.490  0.00  0.00    +0.000 A 
ATOM      6  C25 UNL     1      25.182  -9.498 -42.614  0.00  0.00    +0.000 A 
ENDROOT
BRANCH   4   7
ATOM      7  C10 UNL     1      24.471  -5.996 -43.978  0.00  0.00    +0.000 C 
ATOM      8  N2  UNL     1      23.022  -5.904 -44.195  0.00  0.00    +0.000 N 
ATOM      9  C11 UNL     1      22.367  -6.431 -45.359  0.00  0.00    +0.000 A 
ATOM     10  C12 UNL     1      20.966  -6.502 -45.409  0.00  0.00    +0.000 A 
ATOM     11  C13 UNL     1      20.326  -7.023 -46.536  0.00  0.00    +0.000 A 
ATOM     12  C14 UNL     1      21.080  -7.478 -47.622  0.00  0.00    +0.000 A 
ATOM     13  C15 UNL     1      22.476  -7.405 -47.584  0.00  0.00    +0.000 A 
ATOM     14  C16 UNL     1      23.125  -6.878 -46.453  0.00  0.00    +0.000 A 
ATOM     15  C17 UNL     1      24.589  -6.750 -46.395  0.00  0.00    +0.000 C 
ATOM     16  O3  UNL     1      25.300  -7.139 -47.361  0.00  0.00    +0.000 OA
ATOM     17  N3  UNL     1      25.208  -6.161 -45.238  0.00  0.00    +0.000 N 
ATOM     18  H10 UNL     1      22.436  -5.543 -43.407  0.00  0.00    +0.000 HD
BRANCH  17  19
ATOM     19  N4  UNL     1      26.589  -5.894 -45.250  0.00  0.00    +0.000 N 
ATOM     20  H15 UNL     1      26.974  -5.272 -46.003  0.00  0.00    +0.000 HD
BRANCH  19  21
ATOM     21  C18 UNL     1      27.497  -6.537 -44.339  0.00  0.00    +0.000 A 
ATOM     22  C19 UNL     1      27.955  -5.883 -43.178  0.00  0.00    +0.000 A 
ATOM     23  C20 UNL     1      28.816  -6.540 -42.288  0.00  0.00    +0.000 A 
ATOM     24  C21 UNL     1      29.218  -7.854 -42.541  0.00  0.00    +0.000 A 
ATOM     25  C22 UNL     1      28.761  -8.513 -43.688  0.00  0.00    +0.000 A 
ATOM     26  C23 UNL     1      27.904  -7.859 -44.582  0.00  0.00    +0.000 A 
ENDBRANCH  19  21
ENDBRANCH  17  19
ENDBRANCH   4   7
BRANCH   1  27
ATOM     27  O2  UNL     1      25.817 -10.226 -40.347  0.00  0.00    +0.000 OA
BRANCH  27  28
ATOM     28  C5  UNL     1      27.015 -10.994 -40.402  0.00  0.00    +0.000 C 
BRANCH  28  31
ATOM     29  N1  UNL     1      30.154  -9.411 -39.515  0.00  0.00    +0.000 N 
ATOM     30  C3  UNL     1      29.498 -10.414 -40.120  0.00  0.00    +0.000 A 
ATOM     31  C4  UNL     1      28.157 -10.161 -39.926  0.00  0.00    +0.000 A 
ATOM     32  N5  UNL     1      28.035  -9.015 -39.223  0.00  0.00    +0.000 NA
ATOM     33  N6  UNL     1      29.265  -8.579 -38.993  0.00  0.00    +0.000 NA
BRANCH  29  34
ATOM     34  C2  UNL     1      31.598  -9.205 -39.487  0.00  0.00    +0.000 C 
BRANCH  34  35
ATOM     35  C1  UNL     1      32.244  -9.977 -40.593  0.00  0.00    +0.000 C 
ATOM     36  N7  UNL     1      31.507 -10.424 -41.569  0.00  0.00    +0.000 NA
BRANCH  36  37
ATOM     37  C26 UNL     1      31.965 -11.117 -42.738  0.00  0.00    +0.000 A 
ATOM     38  C27 UNL     1      31.459 -12.390 -43.019  0.00  0.00    +0.000 A 
ATOM     39  C28 UNL     1      31.858 -13.073 -44.172  0.00  0.00    +0.000 A 
ATOM     40  C29 UNL     1      32.757 -12.480 -45.077  0.00  0.00    +0.000 A 
ATOM     41  C30 UNL     1      33.231 -11.184 -44.812  0.00  0.00    +0.000 A 
ATOM     42  C31 UNL     1      32.831 -10.504 -43.658  0.00  0.00    +0.000 A 
BRANCH  40  43
ATOM     43  N8  UNL     1      33.182 -13.184 -46.258  0.00  0.00    +0.000 N 
ATOM     44  O4  UNL     1      32.875 -14.380 -46.429  0.00  0.00    +0.000 OA
ATOM     45  O5  UNL     1      33.977 -12.561 -47.194  0.00  0.00    +0.000 OA
ENDBRANCH  40  43
ENDBRANCH  36  37
BRANCH  35  46
ATOM     46  O1  UNL     1      33.608 -10.260 -40.498  0.00  0.00    +0.000 OA
ATOM     47  H1  UNL     1      34.002 -11.159 -40.741  0.00  0.00    +0.000 HD
ENDBRANCH  35  46
ENDBRANCH  34  35
ENDBRANCH  29  34
ENDBRANCH  28  31
ENDBRANCH  27  28
ENDBRANCH   1  27
TORSDOF 11
ENDMDL
MODEL 7
REMARK VINA RESULT:    -5.759      2.109      2.949
REMARK INTER + INTRA:         -11.442
REMARK INTER:                  -9.403
REMARK INTRA:                  -2.039
REMARK UNBOUND:                -2.148
REMARK  Name = resultss/4CJN/ligands/lig_347_t1.pdb
REMARK  11 active torsions:
REMARK  status: ('A' for Active; 'I' for Inactive)
REMARK    1  A    between atoms: O1_1  and  C1_2
REMARK    2  A    between atoms: C1_2  and  C2_3
REMARK    3  A    between atoms: C2_3  and  N1_4
REMARK    4  A    between atoms: C4_6  and  C5_7
REMARK    5  A    between atoms: C5_7  and  O2_8
REMARK    6  A    between atoms: O2_8  and  C6_9
REMARK    7  A    between atoms: C9_12  and  C10_13
REMARK    8  A    between atoms: N3_23  and  N4_24
REMARK    9  A    between atoms: N4_24  and  C18_25
REMARK   10  A    between atoms: N7_35  and  C26_36
REMARK   11  A    between atoms: C29_39  and  N8_40
REMARK                            x       y       z     vdW  Elec       q    Type
REMARK                         _______ _______ _______ _____ _____    ______ ____
ROOT
ATOM      1  C6  UNL     1      27.948  -9.643 -38.216  0.00  0.00    +0.000 A 
ATOM      2  C7  UNL     1      28.188  -8.271 -38.341  0.00  0.00    +0.000 A 
ATOM      3  C8  UNL     1      28.890  -7.579 -37.350  0.00  0.00    +0.000 A 
ATOM      4  C9  UNL     1      29.364  -8.251 -36.213  0.00  0.00    +0.000 A 
ATOM      5  C24 UNL     1      29.118  -9.629 -36.083  0.00  0.00    +0.000 A 
ATOM      6  C25 UNL     1      28.423 -10.322 -37.079  0.00  0.00    +0.000 A 
ENDROOT
BRANCH   4   7
ATOM      7  C10 UNL     1      30.089  -7.484 -35.128  0.00  0.00    +0.000 C 
ATOM      8  N2  UNL     1      31.478  -7.944 -35.014  0.00  0.00    +0.000 N 
ATOM      9  C11 UNL     1      31.922  -8.861 -34.003  0.00  0.00    +0.000 A 
ATOM     10  C12 UNL     1      33.206  -9.423 -34.075  0.00  0.00    +0.000 A 
ATOM     11  C13 UNL     1      33.637 -10.325 -33.099  0.00  0.00    +0.000 A 
ATOM     12  C14 UNL     1      32.790 -10.671 -32.043  0.00  0.00    +0.000 A 
ATOM     13  C15 UNL     1      31.511 -10.110 -31.959  0.00  0.00    +0.000 A 
ATOM     14  C16 UNL     1      31.074  -9.200 -32.937  0.00  0.00    +0.000 A 
ATOM     15  C17 UNL     1      29.752  -8.561 -32.859  0.00  0.00    +0.000 C 
ATOM     16  O3  UNL     1      28.965  -8.841 -31.914  0.00  0.00    +0.000 OA
ATOM     17  N3  UNL     1      29.363  -7.601 -33.856  0.00  0.00    +0.000 N 
ATOM     18  H10 UNL     1      32.141  -7.677 -35.779  0.00  0.00    +0.000 HD
BRANCH  17  19
ATOM     19  N4  UNL     1      28.169  -6.876 -33.693  0.00  0.00    +0.000 N 
ATOM     20  H15 UNL     1      28.164  -6.058 -33.035  0.00  0.00    +0.000 HD
BRANCH  19  21
ATOM     21  C18 UNL     1      26.937  -7.290 -34.308  0.00  0.00    +0.000 A 
ATOM     22  C19 UNL     1      26.336  -8.523 -33.985  0.00  0.00    +0.000 A 
ATOM     23  C20 UNL     1      25.118  -8.893 -34.572  0.00  0.00    +0.000 A 
ATOM     24  C21 UNL     1      24.485  -8.035 -35.476  0.00  0.00    +0.000 A 
ATOM     25  C22 UNL     1      25.072  -6.806 -35.796  0.00  0.00    +0.000 A 
ATOM     26  C23 UNL     1      26.290  -6.434 -35.214  0.00  0.00    +0.000 A 
ENDBRANCH  19  21
ENDBRANCH  17  19
ENDBRANCH   4   7
BRANCH   1  27
ATOM     27  O2  UNL     1      27.236 -10.289 -39.238  0.00  0.00    +0.000 OA
BRANCH  27  28
ATOM     28  C5  UNL     1      27.828 -11.113 -40.238  0.00  0.00    +0.000 C 
BRANCH  28  31
ATOM     29  N1  UNL     1      28.206  -8.799 -43.005  0.00  0.00    +0.000 N 
ATOM     30  C3  UNL     1      27.464  -9.277 -41.993  0.00  0.00    +0.000 A 
ATOM     31  C4  UNL     1      28.219 -10.269 -41.405  0.00  0.00    +0.000 A 
ATOM     32  N5  UNL     1      29.393 -10.360 -42.063  0.00  0.00    +0.000 NA
ATOM     33  N6  UNL     1      29.359  -9.451 -43.026  0.00  0.00    +0.000 NA
BRANCH  29  34
ATOM     34  C2  UNL     1      27.859  -7.698 -43.896  0.00  0.00    +0.000 C 
BRANCH  34  35
ATOM     35  C1  UNL     1      26.450  -7.264 -43.645  0.00  0.00    +0.000 C 
ATOM     36  N7  UNL     1      25.476  -7.906 -44.222  0.00  0.00    +0.000 NA
BRANCH  36  37
ATOM     37  C26 UNL     1      24.072  -7.674 -44.039  0.00  0.00    +0.000 A 
ATOM     38  C27 UNL     1      23.466  -8.068 -42.842  0.00  0.00    +0.000 A 
ATOM     39  C28 UNL     1      22.108  -7.822 -42.621  0.00  0.00    +0.000 A 
ATOM     40  C29 UNL     1      21.337  -7.152 -43.590  0.00  0.00    +0.000 A 
ATOM     41  C30 UNL     1      21.960  -6.721 -44.773  0.00  0.00    +0.000 A 
ATOM     42  C31 UNL     1      23.318  -6.971 -44.992  0.00  0.00    +0.000 A 
BRANCH  40  43
ATOM     43  N8  UNL     1      19.936  -6.908 -43.373  0.00  0.00    +0.000 N 
ATOM     44  O4  UNL     1      19.551  -6.242 -42.392  0.00  0.00    +0.000 OA
ATOM     45  O5  UNL     1      18.993  -7.448 -44.219  0.00  0.00    +0.000 OA
ENDBRANCH  40  43
ENDBRANCH  36  37
BRANCH  35  46
ATOM     46  O1  UNL     1      26.234  -6.131 -42.858  0.00  0.00    +0.000 OA
ATOM     47  H1  UNL     1      25.815  -5.283 -43.217  0.00  0.00    +0.000 HD
ENDBRANCH  35  46
ENDBRANCH  34  35
ENDBRANCH  29  34
ENDBRANCH  28  31
ENDBRANCH  27  28
ENDBRANCH   1  27
TORSDOF 11
ENDMDL
MODEL 8
REMARK VINA RESULT:    -5.519      4.793      7.361
REMARK INTER + INTRA:         -11.054
REMARK INTER:                  -8.323
REMARK INTRA:                  -2.731
REMARK UNBOUND:                -2.148
REMARK  Name = resultss/4CJN/ligands/lig_347_t1.pdb
REMARK  11 active torsions:
REMARK  status: ('A' for Active; 'I' for Inactive)
REMARK    1  A    between atoms: O1_1  and  C1_2
REMARK    2  A    between atoms: C1_2  and  C2_3
REMARK    3  A    between atoms: C2_3  and  N1_4
REMARK    4  A    between atoms: C4_6  and  C5_7
REMARK    5  A    between atoms: C5_7  and  O2_8
REMARK    6  A    between atoms: O2_8  and  C6_9
REMARK    7  A    between atoms: C9_12  and  C10_13
REMARK    8  A    between atoms: N3_23  and  N4_24
REMARK    9  A    between atoms: N4_24  and  C18_25
REMARK   10  A    between atoms: N7_35  and  C26_36
REMARK   11  A    between atoms: C29_39  and  N8_40
REMARK                            x       y       z     vdW  Elec       q    Type
REMARK                         _______ _______ _______ _____ _____    ______ ____
ROOT
ATOM      1  C6  UNL     1      31.509  -9.622 -38.488  0.00  0.00    +0.000 A 
ATOM      2  C7  UNL     1      32.671  -8.843 -38.474  0.00  0.00    +0.000 A 
ATOM      3  C8  UNL     1      33.241  -8.441 -37.264  0.00  0.00    +0.000 A 
ATOM      4  C9  UNL     1      32.657  -8.811 -36.043  0.00  0.00    +0.000 A 
ATOM      5  C24 UNL     1      31.485  -9.588 -36.056  0.00  0.00    +0.000 A 
ATOM      6  C25 UNL     1      30.919  -9.997 -37.267  0.00  0.00    +0.000 A 
ENDROOT
BRANCH   4   7
ATOM      7  C10 UNL     1      33.261  -8.336 -34.739  0.00  0.00    +0.000 C 
ATOM      8  N2  UNL     1      34.014  -9.421 -34.097  0.00  0.00    +0.000 N 
ATOM      9  C11 UNL     1      33.490 -10.210 -33.018  0.00  0.00    +0.000 A 
ATOM     10  C12 UNL     1      34.170 -11.361 -32.592  0.00  0.00    +0.000 A 
ATOM     11  C13 UNL     1      33.657 -12.137 -31.549  0.00  0.00    +0.000 A 
ATOM     12  C14 UNL     1      32.462 -11.769 -30.924  0.00  0.00    +0.000 A 
ATOM     13  C15 UNL     1      31.782 -10.619 -31.338  0.00  0.00    +0.000 A 
ATOM     14  C16 UNL     1      32.296  -9.833 -32.385  0.00  0.00    +0.000 A 
ATOM     15  C17 UNL     1      31.628  -8.597 -32.820  0.00  0.00    +0.000 C 
ATOM     16  O3  UNL     1      30.553  -8.228 -32.271  0.00  0.00    +0.000 OA
ATOM     17  N3  UNL     1      32.213  -7.799 -33.862  0.00  0.00    +0.000 N 
ATOM     18  H10 UNL     1      34.926  -9.699 -34.530  0.00  0.00    +0.000 HD
BRANCH  17  19
ATOM     19  N4  UNL     1      31.661  -6.541 -34.166  0.00  0.00    +0.000 N 
ATOM     20  H15 UNL     1      31.966  -5.709 -33.603  0.00  0.00    +0.000 HD
BRANCH  19  21
ATOM     21  C18 UNL     1      30.613  -6.383 -35.138  0.00  0.00    +0.000 A 
ATOM     22  C19 UNL     1      30.897  -6.001 -36.464  0.00  0.00    +0.000 A 
ATOM     23  C20 UNL     1      29.863  -5.883 -37.404  0.00  0.00    +0.000 A 
ATOM     24  C21 UNL     1      28.544  -6.155 -37.034  0.00  0.00    +0.000 A 
ATOM     25  C22 UNL     1      28.255  -6.542 -35.720  0.00  0.00    +0.000 A 
ATOM     26  C23 UNL     1      29.284  -6.657 -34.777  0.00  0.00    +0.000 A 
ENDBRANCH  19  21
ENDBRANCH  17  19
ENDBRANCH   4   7
BRANCH   1  27
ATOM     27  O2  UNL     1      30.976  -9.997 -39.731  0.00  0.00    +0.000 OA
BRANCH  27  28
ATOM     28  C5  UNL     1      31.028  -9.196 -40.907  0.00  0.00    +0.000 C 
BRANCH  28  31
ATOM     29  N1  UNL     1      27.499  -8.709 -41.584  0.00  0.00    +0.000 N 
ATOM     30  C3  UNL     1      28.489  -9.491 -41.125  0.00  0.00    +0.000 A 
ATOM     31  C4  UNL     1      29.648  -8.759 -41.268  0.00  0.00    +0.000 A 
ATOM     32  N5  UNL     1      29.332  -7.558 -41.796  0.00  0.00    +0.000 NA
ATOM     33  N6  UNL     1      28.019  -7.554 -41.972  0.00  0.00    +0.000 NA
BRANCH  29  34
ATOM     34  C2  UNL     1      26.074  -9.022 -41.595  0.00  0.00    +0.000 C 
BRANCH  34  35
ATOM     35  C1  UNL     1      25.568  -9.138 -40.192  0.00  0.00    +0.000 C 
ATOM     36  N7  UNL     1      26.374  -8.878 -39.203  0.00  0.00    +0.000 NA
BRANCH  36  37
ATOM     37  C26 UNL     1      26.041  -8.869 -37.809  0.00  0.00    +0.000 A 
ATOM     38  C27 UNL     1      26.783  -9.658 -36.924  0.00  0.00    +0.000 A 
ATOM     39  C28 UNL     1      26.506  -9.641 -35.554  0.00  0.00    +0.000 A 
ATOM     40  C29 UNL     1      25.492  -8.811 -35.043  0.00  0.00    +0.000 A 
ATOM     41  C30 UNL     1      24.776  -7.988 -35.929  0.00  0.00    +0.000 A 
ATOM     42  C31 UNL     1      25.055  -8.009 -37.298  0.00  0.00    +0.000 A 
BRANCH  40  43
ATOM     43  N8  UNL     1      25.193  -8.799 -33.635  0.00  0.00    +0.000 N 
ATOM     44  O4  UNL     1      24.111  -9.249 -33.211  0.00  0.00    +0.000 OA
ATOM     45  O5  UNL     1      26.079  -8.244 -32.738  0.00  0.00    +0.000 OA
ENDBRANCH  40  43
ENDBRANCH  36  37
BRANCH  35  46
ATOM     46  O1  UNL     1      24.266  -9.600 -39.991  0.00  0.00    +0.000 OA
ATOM     47  H1  UNL     1      23.760 -10.140 -40.681  0.00  0.00    +0.000 HD
ENDBRANCH  35  46
ENDBRANCH  34  35
ENDBRANCH  29  34
ENDBRANCH  28  31
ENDBRANCH  27  28
ENDBRANCH   1  27
TORSDOF 11
ENDMDL
MODEL 9
REMARK VINA RESULT:    -5.453      2.538      3.267
REMARK INTER + INTRA:         -10.948
REMARK INTER:                 -10.307
REMARK INTRA:                  -0.641
REMARK UNBOUND:                -2.148
REMARK  Name = resultss/4CJN/ligands/lig_347_t1.pdb
REMARK  11 active torsions:
REMARK  status: ('A' for Active; 'I' for Inactive)
REMARK    1  A    between atoms: O1_1  and  C1_2
REMARK    2  A    between atoms: C1_2  and  C2_3
REMARK    3  A    between atoms: C2_3  and  N1_4
REMARK    4  A    between atoms: C4_6  and  C5_7
REMARK    5  A    between atoms: C5_7  and  O2_8
REMARK    6  A    between atoms: O2_8  and  C6_9
REMARK    7  A    between atoms: C9_12  and  C10_13
REMARK    8  A    between atoms: N3_23  and  N4_24
REMARK    9  A    between atoms: N4_24  and  C18_25
REMARK   10  A    between atoms: N7_35  and  C26_36
REMARK   11  A    between atoms: C29_39  and  N8_40
REMARK                            x       y       z     vdW  Elec       q    Type
REMARK                         _______ _______ _______ _____ _____    ______ ____
ROOT
ATOM      1  C6  UNL     1      27.555  -9.975 -38.548  0.00  0.00    +0.000 A 
ATOM      2  C7  UNL     1      26.842  -8.808 -38.256  0.00  0.00    +0.000 A 
ATOM      3  C8  UNL     1      27.139  -8.062 -37.112  0.00  0.00    +0.000 A 
ATOM      4  C9  UNL     1      28.156  -8.474 -36.237  0.00  0.00    +0.000 A 
ATOM      5  C24 UNL     1      28.869  -9.651 -36.527  0.00  0.00    +0.000 A 
ATOM      6  C25 UNL     1      28.577 -10.392 -37.676  0.00  0.00    +0.000 A 
ENDROOT
BRANCH   4   7
ATOM      7  C10 UNL     1      28.442  -7.680 -34.981  0.00  0.00    +0.000 C 
ATOM      8  N2  UNL     1      29.649  -6.862 -35.153  0.00  0.00    +0.000 N 
ATOM      9  C11 UNL     1      30.934  -7.241 -34.637  0.00  0.00    +0.000 A 
ATOM     10  C12 UNL     1      32.083  -6.528 -35.014  0.00  0.00    +0.000 A 
ATOM     11  C13 UNL     1      33.337  -6.899 -34.523  0.00  0.00    +0.000 A 
ATOM     12  C14 UNL     1      33.453  -7.986 -33.651  0.00  0.00    +0.000 A 
ATOM     13  C15 UNL     1      32.313  -8.697 -33.264  0.00  0.00    +0.000 A 
ATOM     14  C16 UNL     1      31.048  -8.325 -33.754  0.00  0.00    +0.000 A 
ATOM     15  C17 UNL     1      29.824  -9.026 -33.338  0.00  0.00    +0.000 C 
ATOM     16  O3  UNL     1      29.889 -10.003 -32.543  0.00  0.00    +0.000 OA
ATOM     17  N3  UNL     1      28.547  -8.582 -33.826  0.00  0.00    +0.000 N 
ATOM     18  H10 UNL     1      29.583  -6.027 -35.781  0.00  0.00    +0.000 HD
BRANCH  17  19
ATOM     19  N4  UNL     1      27.369  -9.148 -33.306  0.00  0.00    +0.000 N 
ATOM     20  H15 UNL     1      27.400 -10.138 -32.956  0.00  0.00    +0.000 HD
BRANCH  19  21
ATOM     21  C18 UNL     1      26.109  -8.458 -33.347  0.00  0.00    +0.000 A 
ATOM     22  C19 UNL     1      26.029  -7.066 -33.143  0.00  0.00    +0.000 A 
ATOM     23  C20 UNL     1      24.794  -6.408 -33.219  0.00  0.00    +0.000 A 
ATOM     24  C21 UNL     1      23.632  -7.128 -33.509  0.00  0.00    +0.000 A 
ATOM     25  C22 UNL     1      23.704  -8.509 -33.720  0.00  0.00    +0.000 A 
ATOM     26  C23 UNL     1      24.935  -9.171 -33.642  0.00  0.00    +0.000 A 
ENDBRANCH  19  21
ENDBRANCH  17  19
ENDBRANCH   4   7
BRANCH   1  27
ATOM     27  O2  UNL     1      27.216 -10.688 -39.708  0.00  0.00    +0.000 OA
BRANCH  27  28
ATOM     28  C5  UNL     1      28.103 -10.931 -40.795  0.00  0.00    +0.000 C 
BRANCH  28  31
ATOM     29  N1  UNL     1      28.804  -7.830 -42.540  0.00  0.00    +0.000 N 
ATOM     30  C3  UNL     1      28.050  -8.932 -42.403  0.00  0.00    +0.000 A 
ATOM     31  C4  UNL     1      28.585  -9.628 -41.340  0.00  0.00    +0.000 A 
ATOM     32  N5  UNL     1      29.635  -8.931 -40.857  0.00  0.00    +0.000 NA
ATOM     33  N6  UNL     1      29.740  -7.841 -41.602  0.00  0.00    +0.000 NA
BRANCH  29  34
ATOM     34  C2  UNL     1      28.604  -6.749 -43.499  0.00  0.00    +0.000 C 
BRANCH  34  35
ATOM     35  C1  UNL     1      27.175  -6.719 -43.940  0.00  0.00    +0.000 C 
ATOM     36  N7  UNL     1      26.895  -6.902 -45.198  0.00  0.00    +0.000 NA
BRANCH  36  37
ATOM     37  C26 UNL     1      25.587  -6.977 -45.781  0.00  0.00    +0.000 A 
ATOM     38  C27 UNL     1      25.461  -6.990 -47.174  0.00  0.00    +0.000 A 
ATOM     39  C28 UNL     1      24.202  -7.099 -47.771  0.00  0.00    +0.000 A 
ATOM     40  C29 UNL     1      23.045  -7.222 -46.979  0.00  0.00    +0.000 A 
ATOM     41  C30 UNL     1      23.180  -7.251 -45.580  0.00  0.00    +0.000 A 
ATOM     42  C31 UNL     1      24.441  -7.139 -44.987  0.00  0.00    +0.000 A 
BRANCH  40  43
ATOM     43  N8  UNL     1      21.745  -7.321 -47.587  0.00  0.00    +0.000 N 
ATOM     44  O4  UNL     1      20.769  -7.742 -46.936  0.00  0.00    +0.000 OA
ATOM     45  O5  UNL     1      21.569  -7.000 -48.915  0.00  0.00    +0.000 OA
ENDBRANCH  40  43
ENDBRANCH  36  37
BRANCH  35  46
ATOM     46  O1  UNL     1      26.194  -6.416 -42.994  0.00  0.00    +0.000 OA
ATOM     47  H1  UNL     1      25.842  -7.092 -42.329  0.00  0.00    +0.000 HD
ENDBRANCH  35  46
ENDBRANCH  34  35
ENDBRANCH  29  34
ENDBRANCH  28  31
ENDBRANCH  27  28
ENDBRANCH   1  27
TORSDOF 11
ENDMDL
