MODEL 1
REMARK VINA RESULT:    -5.434      0.000      0.000
REMARK INTER + INTRA:          -8.471
REMARK INTER:                  -7.658
REMARK INTRA:                  -0.813
REMARK UNBOUND:                -0.813
REMARK  Name = resultss/4CJN/ligands/lig_215_t1.pdb
REMARK  13 active torsions:
REMARK  status: ('A' for Active; 'I' for Inactive)
REMARK    1  A    between atoms: C1_1  and  C2_2
REMARK    2  A    between atoms: C3_3  and  C4_4
REMARK    3  A    between atoms: C4_4  and  C5_5
REMARK    4  A    between atoms: C7_7  and  C8_8
REMARK    5  A    between atoms: C10_11  and  C11_12
REMARK    6  A    between atoms: C11_12  and  C12_13
REMARK    7  A    between atoms: C11_12  and  C13_14
REMARK    8  A    between atoms: C11_12  and  C14_15
REMARK    9  A    between atoms: C14_15  and  C15_16
REMARK   10  A    between atoms: C16_17  and  O2_18
REMARK   11  A    between atoms: C18_20  and  O3_21
REMARK   12  A    between atoms: C23_28  and  O6_29
REMARK   13  A    between atoms: C24_30  and  O7_31
REMARK                            x       y       z     vdW  Elec       q    Type
REMARK                         _______ _______ _______ _____ _____    ______ ____
ROOT
ATOM      1  C8  UNL     1      25.268  -6.861 -38.011  0.00  0.00    +0.000 C 
ATOM      2  O1  UNL     1      26.570  -6.984 -37.438  0.00  0.00    +0.000 OA
ATOM      3  C9  UNL     1      26.941  -7.964 -36.508  0.00  0.00    +0.000 A 
ATOM      4  C10 UNL     1      28.322  -8.277 -36.323  0.00  0.00    +0.000 A 
ATOM      5  C16 UNL     1      28.624  -9.402 -35.504  0.00  0.00    +0.000 A 
ATOM      6  C17 UNL     1      27.609 -10.069 -34.812  0.00  0.00    +0.000 A 
ATOM      7  C18 UNL     1      26.278  -9.688 -34.913  0.00  0.00    +0.000 A 
ATOM      8  C19 UNL     1      25.927  -8.606 -35.755  0.00  0.00    +0.000 A 
ATOM      9  C20 UNL     1      24.544  -8.061 -35.869  0.00  0.00    +0.000 C 
ATOM     10  O4  UNL     1      23.663  -8.292 -34.997  0.00  0.00    +0.000 OA
ATOM     11  C21 UNL     1      24.217  -7.169 -36.987  0.00  0.00    +0.000 C 
ATOM     12  O5  UNL     1      23.051  -6.705 -37.115  0.00  0.00    +0.000 OA
ENDROOT
BRANCH   1  15
ATOM     13  C5  UNL     1      25.886  -9.614 -40.643  0.00  0.00    +0.000 A 
ATOM     14  C6  UNL     1      26.009  -8.836 -39.479  0.00  0.00    +0.000 A 
ATOM     15  C7  UNL     1      25.175  -7.723 -39.256  0.00  0.00    +0.000 A 
ATOM     16  C22 UNL     1      24.256  -7.360 -40.251  0.00  0.00    +0.000 A 
ATOM     17  C23 UNL     1      24.145  -8.098 -41.432  0.00  0.00    +0.000 A 
ATOM     18  C24 UNL     1      24.958  -9.224 -41.640  0.00  0.00    +0.000 A 
BRANCH  17  19
ATOM     19  O6  UNL     1      23.217  -7.688 -42.390  0.00  0.00    +0.000 OA
ATOM     20  H25 UNL     1      22.936  -6.719 -42.494  0.00  0.00    +0.000 HD
ENDBRANCH  17  19
BRANCH  18  21
ATOM     21  O7  UNL     1      24.834  -9.924 -42.844  0.00  0.00    +0.000 OA
ATOM     22  H26 UNL     1      25.601 -10.401 -43.295  0.00  0.00    +0.000 HD
ENDBRANCH  18  21
BRANCH  13  23
ATOM     23  C4  UNL     1      26.773 -10.824 -40.810  0.00  0.00    +0.000 C 
BRANCH  23  26
ATOM     24  C1  UNL     1      29.959  -9.517 -42.559  0.00  0.00    +0.000 C 
ATOM     25  C2  UNL     1      28.547  -9.932 -42.282  0.00  0.00    +0.000 C 
ATOM     26  C3  UNL     1      28.195 -10.420 -41.086  0.00  0.00    +0.000 C 
ENDBRANCH  23  26
ENDBRANCH  13  23
ENDBRANCH   1  15
BRANCH   4  27
ATOM     27  C11 UNL     1      29.417  -7.433 -37.065  0.00  0.00    +0.000 C 
ATOM     28  C12 UNL     1      29.019  -5.950 -37.324  0.00  0.00    +0.000 C 
ATOM     29  C13 UNL     1      30.688  -7.402 -36.186  0.00  0.00    +0.000 C 
BRANCH  27  30
ATOM     30  C14 UNL     1      29.784  -8.040 -38.467  0.00  0.00    +0.000 C 
ATOM     31  C15 UNL     1      29.353  -7.176 -39.657  0.00  0.00    +0.000 C 
ENDBRANCH  27  30
ENDBRANCH   4  27
BRANCH   5  32
ATOM     32  O2  UNL     1      29.921  -9.893 -35.363  0.00  0.00    +0.000 OA
ATOM     33  H21 UNL     1      30.581  -9.902 -36.132  0.00  0.00    +0.000 HD
ENDBRANCH   5  32
BRANCH   7  34
ATOM     34  O3  UNL     1      25.352 -10.442 -34.185  0.00  0.00    +0.000 OA
ATOM     35  H23 UNL     1      24.716 -11.126 -34.578  0.00  0.00    +0.000 HD
ENDBRANCH   7  34
TORSDOF 9
ENDMDL
MODEL 2
REMARK VINA RESULT:    -5.115      2.631      6.724
REMARK INTER + INTRA:          -8.020
REMARK INTER:                  -7.675
REMARK INTRA:                  -0.345
REMARK UNBOUND:                -0.813
REMARK  Name = resultss/4CJN/ligands/lig_215_t1.pdb
REMARK  13 active torsions:
REMARK  status: ('A' for Active; 'I' for Inactive)
REMARK    1  A    between atoms: C1_1  and  C2_2
REMARK    2  A    between atoms: C3_3  and  C4_4
REMARK    3  A    between atoms: C4_4  and  C5_5
REMARK    4  A    between atoms: C7_7  and  C8_8
REMARK    5  A    between atoms: C10_11  and  C11_12
REMARK    6  A    between atoms: C11_12  and  C12_13
REMARK    7  A    between atoms: C11_12  and  C13_14
REMARK    8  A    between atoms: C11_12  and  C14_15
REMARK    9  A    between atoms: C14_15  and  C15_16
REMARK   10  A    between atoms: C16_17  and  O2_18
REMARK   11  A    between atoms: C18_20  and  O3_21
REMARK   12  A    between atoms: C23_28  and  O6_29
REMARK   13  A    between atoms: C24_30  and  O7_31
REMARK                            x       y       z     vdW  Elec       q    Type
REMARK                         _______ _______ _______ _____ _____    ______ ____
ROOT
ATOM      1  C8  UNL     1      26.281  -9.769 -34.592  0.00  0.00    +0.000 C 
ATOM      2  O1  UNL     1      26.512  -9.759 -36.001  0.00  0.00    +0.000 OA
ATOM      3  C9  UNL     1      26.078  -8.750 -36.872  0.00  0.00    +0.000 A 
ATOM      4  C10 UNL     1      26.703  -8.599 -38.147  0.00  0.00    +0.000 A 
ATOM      5  C16 UNL     1      26.347  -7.449 -38.908  0.00  0.00    +0.000 A 
ATOM      6  C17 UNL     1      25.329  -6.596 -38.471  0.00  0.00    +0.000 A 
ATOM      7  C18 UNL     1      24.650  -6.814 -37.279  0.00  0.00    +0.000 A 
ATOM      8  C19 UNL     1      25.007  -7.917 -36.468  0.00  0.00    +0.000 A 
ATOM      9  C20 UNL     1      24.287  -8.290 -35.217  0.00  0.00    +0.000 C 
ATOM     10  O4  UNL     1      23.126  -7.868 -34.964  0.00  0.00    +0.000 OA
ATOM     11  C21 UNL     1      24.914  -9.235 -34.286  0.00  0.00    +0.000 C 
ATOM     12  O5  UNL     1      24.333  -9.557 -33.213  0.00  0.00    +0.000 OA
ENDROOT
BRANCH   1  15
ATOM     13  C5  UNL     1      29.764  -8.503 -33.517  0.00  0.00    +0.000 A 
ATOM     14  C6  UNL     1      28.759  -9.221 -34.190  0.00  0.00    +0.000 A 
ATOM     15  C7  UNL     1      27.398  -9.023 -33.887  0.00  0.00    +0.000 A 
ATOM     16  C22 UNL     1      27.059  -8.141 -32.851  0.00  0.00    +0.000 A 
ATOM     17  C23 UNL     1      28.046  -7.448 -32.145  0.00  0.00    +0.000 A 
ATOM     18  C24 UNL     1      29.402  -7.625 -32.467  0.00  0.00    +0.000 A 
BRANCH  17  19
ATOM     19  O6  UNL     1      27.652  -6.588 -31.119  0.00  0.00    +0.000 OA
ATOM     20  H25 UNL     1      27.067  -6.893 -30.349  0.00  0.00    +0.000 HD
ENDBRANCH  17  19
BRANCH  18  21
ATOM     21  O7  UNL     1      30.361  -6.931 -31.724  0.00  0.00    +0.000 OA
ATOM     22  H26 UNL     1      30.197  -6.578 -30.792  0.00  0.00    +0.000 HD
ENDBRANCH  18  21
BRANCH  13  23
ATOM     23  C4  UNL     1      31.205  -8.718 -33.914  0.00  0.00    +0.000 C 
BRANCH  23  26
ATOM     24  C1  UNL     1      32.281 -11.570 -31.542  0.00  0.00    +0.000 C 
ATOM     25  C2  UNL     1      31.777 -10.263 -32.071  0.00  0.00    +0.000 C 
ATOM     26  C3  UNL     1      31.722 -10.030 -33.388  0.00  0.00    +0.000 C 
ENDBRANCH  23  26
ENDBRANCH  13  23
ENDBRANCH   1  15
BRANCH   4  27
ATOM     27  C11 UNL     1      27.779  -9.641 -38.614  0.00  0.00    +0.000 C 
ATOM     28  C12 UNL     1      28.069 -10.771 -37.583  0.00  0.00    +0.000 C 
ATOM     29  C13 UNL     1      27.262 -10.335 -39.895  0.00  0.00    +0.000 C 
BRANCH  27  30
ATOM     30  C14 UNL     1      29.163  -8.966 -38.926  0.00  0.00    +0.000 C 
ATOM     31  C15 UNL     1      29.880  -8.407 -37.693  0.00  0.00    +0.000 C 
ENDBRANCH  27  30
ENDBRANCH   4  27
BRANCH   5  32
ATOM     32  O2  UNL     1      26.990  -7.116 -40.099  0.00  0.00    +0.000 OA
ATOM     33  H21 UNL     1      26.887  -6.205 -40.531  0.00  0.00    +0.000 HD
ENDBRANCH   5  32
BRANCH   7  34
ATOM     34  O3  UNL     1      23.662  -5.883 -36.940  0.00  0.00    +0.000 OA
ATOM     35  H23 UNL     1      23.452  -5.570 -36.000  0.00  0.00    +0.000 HD
ENDBRANCH   7  34
TORSDOF 9
ENDMDL
MODEL 3
REMARK VINA RESULT:    -5.038      2.062      3.210
REMARK INTER + INTRA:          -7.913
REMARK INTER:                  -7.697
REMARK INTRA:                  -0.216
REMARK UNBOUND:                -0.813
REMARK  Name = resultss/4CJN/ligands/lig_215_t1.pdb
REMARK  13 active torsions:
REMARK  status: ('A' for Active; 'I' for Inactive)
REMARK    1  A    between atoms: C1_1  and  C2_2
REMARK    2  A    between atoms: C3_3  and  C4_4
REMARK    3  A    between atoms: C4_4  and  C5_5
REMARK    4  A    between atoms: C7_7  and  C8_8
REMARK    5  A    between atoms: C10_11  and  C11_12
REMARK    6  A    between atoms: C11_12  and  C12_13
REMARK    7  A    between atoms: C11_12  and  C13_14
REMARK    8  A    between atoms: C11_12  and  C14_15
REMARK    9  A    between atoms: C14_15  and  C15_16
REMARK   10  A    between atoms: C16_17  and  O2_18
REMARK   11  A    between atoms: C18_20  and  O3_21
REMARK   12  A    between atoms: C23_28  and  O6_29
REMARK   13  A    between atoms: C24_30  and  O7_31
REMARK                            x       y       z     vdW  Elec       q    Type
REMARK                         _______ _______ _______ _____ _____    ______ ____
ROOT
ATOM      1  C8  UNL     1      27.541  -7.169 -38.198  0.00  0.00    +0.000 C 
ATOM      2  O1  UNL     1      28.351  -7.262 -37.026  0.00  0.00    +0.000 OA
ATOM      3  C9  UNL     1      28.142  -8.176 -35.985  0.00  0.00    +0.000 A 
ATOM      4  C10 UNL     1      29.212  -8.487 -35.092  0.00  0.00    +0.000 A 
ATOM      5  C16 UNL     1      28.995  -9.553 -34.172  0.00  0.00    +0.000 A 
ATOM      6  C17 UNL     1      27.739 -10.159 -34.072  0.00  0.00    +0.000 A 
ATOM      7  C18 UNL     1      26.671  -9.774 -34.872  0.00  0.00    +0.000 A 
ATOM      8  C19 UNL     1      26.857  -8.752 -35.833  0.00  0.00    +0.000 A 
ATOM      9  C20 UNL     1      25.759  -8.204 -36.679  0.00  0.00    +0.000 C 
ATOM     10  O4  UNL     1      24.544  -8.363 -36.381  0.00  0.00    +0.000 OA
ATOM     11  C21 UNL     1      26.099  -7.392 -37.854  0.00  0.00    +0.000 C 
ATOM     12  O5  UNL     1      25.190  -6.927 -38.595  0.00  0.00    +0.000 OA
ENDROOT
BRANCH   1  15
ATOM     13  C5  UNL     1      27.888  -9.286 -41.406  0.00  0.00    +0.000 A 
ATOM     14  C6  UNL     1      27.362  -8.406 -40.444  0.00  0.00    +0.000 A 
ATOM     15  C7  UNL     1      28.067  -8.118 -39.259  0.00  0.00    +0.000 A 
ATOM     16  C22 UNL     1      29.281  -8.777 -39.020  0.00  0.00    +0.000 A 
ATOM     17  C23 UNL     1      29.802  -9.684 -39.946  0.00  0.00    +0.000 A 
ATOM     18  C24 UNL     1      29.111  -9.950 -41.140  0.00  0.00    +0.000 A 
BRANCH  17  19
ATOM     19  O6  UNL     1      31.010 -10.316 -39.654  0.00  0.00    +0.000 OA
ATOM     20  H25 UNL     1      31.776 -10.358 -40.318  0.00  0.00    +0.000 HD
ENDBRANCH  17  19
BRANCH  18  21
ATOM     21  O7  UNL     1      29.652 -10.880 -42.032  0.00  0.00    +0.000 OA
ATOM     22  H26 UNL     1      29.873 -11.833 -41.780  0.00  0.00    +0.000 HD
ENDBRANCH  18  21
BRANCH  13  23
ATOM     23  C4  UNL     1      27.114  -9.523 -42.680  0.00  0.00    +0.000 C 
BRANCH  23  26
ATOM     24  C1  UNL     1      28.128  -6.611 -45.006  0.00  0.00    +0.000 C 
ATOM     25  C2  UNL     1      28.168  -7.841 -44.153  0.00  0.00    +0.000 C 
ATOM     26  C3  UNL     1      27.070  -8.280 -43.526  0.00  0.00    +0.000 C 
ENDBRANCH  23  26
ENDBRANCH  13  23
ENDBRANCH   1  15
BRANCH   4  27
ATOM     27  C11 UNL     1      30.570  -7.710 -35.204  0.00  0.00    +0.000 C 
ATOM     28  C12 UNL     1      30.465  -6.334 -35.925  0.00  0.00    +0.000 C 
ATOM     29  C13 UNL     1      31.086  -7.422 -33.775  0.00  0.00    +0.000 C 
BRANCH  27  30
ATOM     30  C14 UNL     1      31.661  -8.531 -35.981  0.00  0.00    +0.000 C 
ATOM     31  C15 UNL     1      32.286  -7.781 -37.162  0.00  0.00    +0.000 C 
ENDBRANCH  27  30
ENDBRANCH   4  27
BRANCH   5  32
ATOM     32  O2  UNL     1      30.008 -10.045 -33.350  0.00  0.00    +0.000 OA
ATOM     33  H21 UNL     1      29.868 -10.840 -32.738  0.00  0.00    +0.000 HD
ENDBRANCH   5  32
BRANCH   7  34
ATOM     34  O3  UNL     1      25.469 -10.464 -34.689  0.00  0.00    +0.000 OA
ATOM     35  H23 UNL     1      25.075 -10.725 -33.792  0.00  0.00    +0.000 HD
ENDBRANCH   7  34
TORSDOF 9
ENDMDL
MODEL 4
REMARK VINA RESULT:    -5.018      1.943      6.793
REMARK INTER + INTRA:          -7.884
REMARK INTER:                  -7.865
REMARK INTRA:                  -0.018
REMARK UNBOUND:                -0.813
REMARK  Name = resultss/4CJN/ligands/lig_215_t1.pdb
REMARK  13 active torsions:
REMARK  status: ('A' for Active; 'I' for Inactive)
REMARK    1  A    between atoms: C1_1  and  C2_2
REMARK    2  A    between atoms: C3_3  and  C4_4
REMARK    3  A    between atoms: C4_4  and  C5_5
REMARK    4  A    between atoms: C7_7  and  C8_8
REMARK    5  A    between atoms: C10_11  and  C11_12
REMARK    6  A    between atoms: C11_12  and  C12_13
REMARK    7  A    between atoms: C11_12  and  C13_14
REMARK    8  A    between atoms: C11_12  and  C14_15
REMARK    9  A    between atoms: C14_15  and  C15_16
REMARK   10  A    between atoms: C16_17  and  O2_18
REMARK   11  A    between atoms: C18_20  and  O3_21
REMARK   12  A    between atoms: C23_28  and  O6_29
REMARK   13  A    between atoms: C24_30  and  O7_31
REMARK                            x       y       z     vdW  Elec       q    Type
REMARK                         _______ _______ _______ _____ _____    ______ ____
ROOT
ATOM      1  C8  UNL     1      27.610  -7.296 -37.310  0.00  0.00    +0.000 C 
ATOM      2  O1  UNL     1      26.877  -7.249 -38.535  0.00  0.00    +0.000 OA
ATOM      3  C9  UNL     1      26.658  -8.351 -39.373  0.00  0.00    +0.000 A 
ATOM      4  C10 UNL     1      25.588  -8.319 -40.318  0.00  0.00    +0.000 A 
ATOM      5  C16 UNL     1      25.301  -9.530 -41.010  0.00  0.00    +0.000 A 
ATOM      6  C17 UNL     1      26.129 -10.646 -40.859  0.00  0.00    +0.000 A 
ATOM      7  C18 UNL     1      27.235 -10.632 -40.018  0.00  0.00    +0.000 A 
ATOM      8  C19 UNL     1      27.527  -9.465 -39.275  0.00  0.00    +0.000 A 
ATOM      9  C20 UNL     1      28.734  -9.314 -38.413  0.00  0.00    +0.000 C 
ATOM     10  O4  UNL     1      29.740 -10.065 -38.536  0.00  0.00    +0.000 OA
ATOM     11  C21 UNL     1      28.787  -8.214 -37.442  0.00  0.00    +0.000 C 
ATOM     12  O5  UNL     1      29.791  -8.072 -36.691  0.00  0.00    +0.000 OA
ENDROOT
BRANCH   1  15
ATOM     13  C5  UNL     1      25.072  -7.086 -34.411  0.00  0.00    +0.000 A 
ATOM     14  C6  UNL     1      25.932  -6.704 -35.456  0.00  0.00    +0.000 A 
ATOM     15  C7  UNL     1      26.677  -7.662 -36.171  0.00  0.00    +0.000 A 
ATOM     16  C22 UNL     1      26.600  -9.006 -35.780  0.00  0.00    +0.000 A 
ATOM     17  C23 UNL     1      25.781  -9.400 -34.719  0.00  0.00    +0.000 A 
ATOM     18  C24 UNL     1      25.016  -8.447 -34.025  0.00  0.00    +0.000 A 
BRANCH  17  19
ATOM     19  O6  UNL     1      25.746 -10.750 -34.368  0.00  0.00    +0.000 OA
ATOM     20  H25 UNL     1      25.211 -11.092 -33.577  0.00  0.00    +0.000 HD
ENDBRANCH  17  19
BRANCH  18  21
ATOM     21  O7  UNL     1      24.225  -8.877 -32.955  0.00  0.00    +0.000 OA
ATOM     22  H26 UNL     1      23.524  -9.600 -33.034  0.00  0.00    +0.000 HD
ENDBRANCH  18  21
BRANCH  13  23
ATOM     23  C4  UNL     1      24.259  -6.025 -33.710  0.00  0.00    +0.000 C 
BRANCH  23  26
ATOM     24  C1  UNL     1      21.246  -6.348 -36.105  0.00  0.00    +0.000 C 
ATOM     25  C2  UNL     1      22.614  -6.453 -35.504  0.00  0.00    +0.000 C 
ATOM     26  C3  UNL     1      22.886  -5.906 -34.313  0.00  0.00    +0.000 C 
ENDBRANCH  23  26
ENDBRANCH  13  23
ENDBRANCH   1  15
BRANCH   4  27
ATOM     27  C11 UNL     1      24.749  -7.005 -40.499  0.00  0.00    +0.000 C 
ATOM     28  C12 UNL     1      24.080  -6.486 -39.192  0.00  0.00    +0.000 C 
ATOM     29  C13 UNL     1      25.696  -5.885 -40.985  0.00  0.00    +0.000 C 
BRANCH  27  30
ATOM     30  C14 UNL     1      23.590  -7.180 -41.545  0.00  0.00    +0.000 C 
ATOM     31  C15 UNL     1      22.287  -6.469 -41.162  0.00  0.00    +0.000 C 
ENDBRANCH  27  30
ENDBRANCH   4  27
BRANCH   5  32
ATOM     32  O2  UNL     1      24.195  -9.666 -41.847  0.00  0.00    +0.000 OA
ATOM     33  H21 UNL     1      23.245  -9.590 -41.503  0.00  0.00    +0.000 HD
ENDBRANCH   5  32
BRANCH   7  34
ATOM     34  O3  UNL     1      27.978 -11.814 -39.940  0.00  0.00    +0.000 OA
ATOM     35  H23 UNL     1      28.979 -11.886 -40.081  0.00  0.00    +0.000 HD
ENDBRANCH   7  34
TORSDOF 9
ENDMDL
MODEL 5
REMARK VINA RESULT:    -5.013      3.038      5.498
REMARK INTER + INTRA:          -7.877
REMARK INTER:                  -7.955
REMARK INTRA:                   0.079
REMARK UNBOUND:                -0.813
REMARK  Name = resultss/4CJN/ligands/lig_215_t1.pdb
REMARK  13 active torsions:
REMARK  status: ('A' for Active; 'I' for Inactive)
REMARK    1  A    between atoms: C1_1  and  C2_2
REMARK    2  A    between atoms: C3_3  and  C4_4
REMARK    3  A    between atoms: C4_4  and  C5_5
REMARK    4  A    between atoms: C7_7  and  C8_8
REMARK    5  A    between atoms: C10_11  and  C11_12
REMARK    6  A    between atoms: C11_12  and  C12_13
REMARK    7  A    between atoms: C11_12  and  C13_14
REMARK    8  A    between atoms: C11_12  and  C14_15
REMARK    9  A    between atoms: C14_15  and  C15_16
REMARK   10  A    between atoms: C16_17  and  O2_18
REMARK   11  A    between atoms: C18_20  and  O3_21
REMARK   12  A    between atoms: C23_28  and  O6_29
REMARK   13  A    between atoms: C24_30  and  O7_31
REMARK                            x       y       z     vdW  Elec       q    Type
REMARK                         _______ _______ _______ _____ _____    ______ ____
ROOT
ATOM      1  C8  UNL     1      28.395 -10.608 -40.826  0.00  0.00    +0.000 C 
ATOM      2  O1  UNL     1      28.371 -10.034 -39.518  0.00  0.00    +0.000 OA
ATOM      3  C9  UNL     1      29.201  -8.987 -39.094  0.00  0.00    +0.000 A 
ATOM      4  C10 UNL     1      28.829  -8.207 -37.957  0.00  0.00    +0.000 A 
ATOM      5  C16 UNL     1      29.612  -7.049 -37.686  0.00  0.00    +0.000 A 
ATOM      6  C17 UNL     1      30.768  -6.785 -38.426  0.00  0.00    +0.000 A 
ATOM      7  C18 UNL     1      31.183  -7.613 -39.461  0.00  0.00    +0.000 A 
ATOM      8  C19 UNL     1      30.406  -8.747 -39.797  0.00  0.00    +0.000 A 
ATOM      9  C20 UNL     1      30.805  -9.746 -40.829  0.00  0.00    +0.000 C 
ATOM     10  O4  UNL     1      31.993  -9.843 -41.240  0.00  0.00    +0.000 OA
ATOM     11  C21 UNL     1      29.803 -10.694 -41.331  0.00  0.00    +0.000 C 
ATOM     12  O5  UNL     1      30.110 -11.540 -42.215  0.00  0.00    +0.000 OA
ENDROOT
BRANCH   1  15
ATOM     13  C5  UNL     1      27.002  -8.044 -43.350  0.00  0.00    +0.000 A 
ATOM     14  C6  UNL     1      27.894  -8.732 -42.508  0.00  0.00    +0.000 A 
ATOM     15  C7  UNL     1      27.466  -9.832 -41.741  0.00  0.00    +0.000 A 
ATOM     16  C22 UNL     1      26.112 -10.195 -41.778  0.00  0.00    +0.000 A 
ATOM     17  C23 UNL     1      25.203  -9.500 -42.579  0.00  0.00    +0.000 A 
ATOM     18  C24 UNL     1      25.637  -8.419 -43.366  0.00  0.00    +0.000 A 
BRANCH  17  19
ATOM     19  O6  UNL     1      23.867  -9.900 -42.574  0.00  0.00    +0.000 OA
ATOM     20  H25 UNL     1      23.305  -9.905 -41.730  0.00  0.00    +0.000 HD
ENDBRANCH  17  19
BRANCH  18  21
ATOM     21  O7  UNL     1      24.694  -7.734 -44.138  0.00  0.00    +0.000 OA
ATOM     22  H26 UNL     1      24.683  -6.730 -44.245  0.00  0.00    +0.000 HD
ENDBRANCH  18  21
BRANCH  13  23
ATOM     23  C4  UNL     1      27.524  -6.901 -44.188  0.00  0.00    +0.000 C 
BRANCH  23  26
ATOM     24  C1  UNL     1      26.989  -7.043 -48.011  0.00  0.00    +0.000 C 
ATOM     25  C2  UNL     1      26.887  -6.665 -46.565  0.00  0.00    +0.000 C 
ATOM     26  C3  UNL     1      27.622  -7.292 -45.637  0.00  0.00    +0.000 C 
ENDBRANCH  23  26
ENDBRANCH  13  23
ENDBRANCH   1  15
BRANCH   4  27
ATOM     27  C11 UNL     1      27.565  -8.607 -37.118  0.00  0.00    +0.000 C 
ATOM     28  C12 UNL     1      27.094  -7.519 -36.108  0.00  0.00    +0.000 C 
ATOM     29  C13 UNL     1      26.388  -8.843 -38.093  0.00  0.00    +0.000 C 
BRANCH  27  30
ATOM     30  C14 UNL     1      27.798  -9.914 -36.279  0.00  0.00    +0.000 C 
ATOM     31  C15 UNL     1      27.229  -9.856 -34.857  0.00  0.00    +0.000 C 
ENDBRANCH  27  30
ENDBRANCH   4  27
BRANCH   5  32
ATOM     32  O2  UNL     1      29.266  -6.131 -36.696  0.00  0.00    +0.000 OA
ATOM     33  H21 UNL     1      29.959  -5.687 -36.105  0.00  0.00    +0.000 HD
ENDBRANCH   5  32
BRANCH   7  34
ATOM     34  O3  UNL     1      32.348  -7.236 -40.138  0.00  0.00    +0.000 OA
ATOM     35  H23 UNL     1      32.382  -6.635 -40.953  0.00  0.00    +0.000 HD
ENDBRANCH   7  34
TORSDOF 9
ENDMDL
MODEL 6
REMARK VINA RESULT:    -4.968      2.367      6.507
REMARK INTER + INTRA:          -7.814
REMARK INTER:                  -7.529
REMARK INTRA:                  -0.285
REMARK UNBOUND:                -0.813
REMARK  Name = resultss/4CJN/ligands/lig_215_t1.pdb
REMARK  13 active torsions:
REMARK  status: ('A' for Active; 'I' for Inactive)
REMARK    1  A    between atoms: C1_1  and  C2_2
REMARK    2  A    between atoms: C3_3  and  C4_4
REMARK    3  A    between atoms: C4_4  and  C5_5
REMARK    4  A    between atoms: C7_7  and  C8_8
REMARK    5  A    between atoms: C10_11  and  C11_12
REMARK    6  A    between atoms: C11_12  and  C12_13
REMARK    7  A    between atoms: C11_12  and  C13_14
REMARK    8  A    between atoms: C11_12  and  C14_15
REMARK    9  A    between atoms: C14_15  and  C15_16
REMARK   10  A    between atoms: C16_17  and  O2_18
REMARK   11  A    between atoms: C18_20  and  O3_21
REMARK   12  A    between atoms: C23_28  and  O6_29
REMARK   13  A    between atoms: C24_30  and  O7_31
REMARK                            x       y       z     vdW  Elec       q    Type
REMARK                         _______ _______ _______ _____ _____    ______ ____
ROOT
ATOM      1  C8  UNL     1      28.839  -6.793 -37.959  0.00  0.00    +0.000 C 
ATOM      2  O1  UNL     1      28.689  -7.141 -39.335  0.00  0.00    +0.000 OA
ATOM      3  C9  UNL     1      29.475  -8.088 -40.006  0.00  0.00    +0.000 A 
ATOM      4  C10 UNL     1      28.996  -8.675 -41.217  0.00  0.00    +0.000 A 
ATOM      5  C16 UNL     1      29.750  -9.758 -41.751  0.00  0.00    +0.000 A 
ATOM      6  C17 UNL     1      30.972 -10.123 -41.179  0.00  0.00    +0.000 A 
ATOM      7  C18 UNL     1      31.483  -9.473 -40.063  0.00  0.00    +0.000 A 
ATOM      8  C19 UNL     1      30.743  -8.423 -39.471  0.00  0.00    +0.000 A 
ATOM      9  C20 UNL     1      31.238  -7.605 -38.328  0.00  0.00    +0.000 C 
ATOM     10  O4  UNL     1      32.460  -7.558 -38.021  0.00  0.00    +0.000 OA
ATOM     11  C21 UNL     1      30.289  -6.770 -37.582  0.00  0.00    +0.000 C 
ATOM     12  O5  UNL     1      30.679  -6.078 -36.601  0.00  0.00    +0.000 OA
ENDROOT
BRANCH   1  15
ATOM     13  C5  UNL     1      27.729  -9.323 -35.265  0.00  0.00    +0.000 A 
ATOM     14  C6  UNL     1      28.541  -8.475 -36.039  0.00  0.00    +0.000 A 
ATOM     15  C7  UNL     1      28.002  -7.725 -37.103  0.00  0.00    +0.000 A 
ATOM     16  C22 UNL     1      26.647  -7.887 -37.424  0.00  0.00    +0.000 A 
ATOM     17  C23 UNL     1      25.833  -8.754 -36.691  0.00  0.00    +0.000 A 
ATOM     18  C24 UNL     1      26.365  -9.480 -35.611  0.00  0.00    +0.000 A 
BRANCH  17  19
ATOM     19  O6  UNL     1      24.493  -8.881 -37.057  0.00  0.00    +0.000 OA
ATOM     20  H25 UNL     1      24.187  -9.515 -37.788  0.00  0.00    +0.000 HD
ENDBRANCH  17  19
BRANCH  18  21
ATOM     21  O7  UNL     1      25.524 -10.354 -34.916  0.00  0.00    +0.000 OA
ATOM     22  H26 UNL     1      24.676 -10.741 -35.304  0.00  0.00    +0.000 HD
ENDBRANCH  18  21
BRANCH  13  23
ATOM     23  C4  UNL     1      28.347 -10.067 -34.106  0.00  0.00    +0.000 C 
BRANCH  23  26
ATOM     24  C1  UNL     1      31.709  -9.063 -32.490  0.00  0.00    +0.000 C 
ATOM     25  C2  UNL     1      30.274  -9.446 -32.688  0.00  0.00    +0.000 C 
ATOM     26  C3  UNL     1      29.786  -9.672 -33.914  0.00  0.00    +0.000 C 
ENDBRANCH  23  26
ENDBRANCH  13  23
ENDBRANCH   1  15
BRANCH   4  27
ATOM     27  C11 UNL     1      27.657  -8.161 -41.854  0.00  0.00    +0.000 C 
ATOM     28  C12 UNL     1      27.565  -6.612 -41.992  0.00  0.00    +0.000 C 
ATOM     29  C13 UNL     1      27.543  -8.739 -43.283  0.00  0.00    +0.000 C 
BRANCH  27  30
ATOM     30  C14 UNL     1      26.398  -8.603 -41.025  0.00  0.00    +0.000 C 
ATOM     31  C15 UNL     1      26.157 -10.116 -41.011  0.00  0.00    +0.000 C 
ENDBRANCH  27  30
ENDBRANCH   4  27
BRANCH   5  32
ATOM     32  O2  UNL     1      29.310 -10.504 -42.844  0.00  0.00    +0.000 OA
ATOM     33  H21 UNL     1      28.735 -11.331 -42.737  0.00  0.00    +0.000 HD
ENDBRANCH   5  32
BRANCH   7  34
ATOM     34  O3  UNL     1      32.708  -9.938 -39.573  0.00  0.00    +0.000 OA
ATOM     35  H23 UNL     1      32.844 -10.392 -38.677  0.00  0.00    +0.000 HD
ENDBRANCH   7  34
TORSDOF 9
ENDMDL
MODEL 7
REMARK VINA RESULT:    -4.928      1.821      6.378
REMARK INTER + INTRA:          -7.757
REMARK INTER:                  -7.907
REMARK INTRA:                   0.150
REMARK UNBOUND:                -0.813
REMARK  Name = resultss/4CJN/ligands/lig_215_t1.pdb
REMARK  13 active torsions:
REMARK  status: ('A' for Active; 'I' for Inactive)
REMARK    1  A    between atoms: C1_1  and  C2_2
REMARK    2  A    between atoms: C3_3  and  C4_4
REMARK    3  A    between atoms: C4_4  and  C5_5
REMARK    4  A    between atoms: C7_7  and  C8_8
REMARK    5  A    between atoms: C10_11  and  C11_12
REMARK    6  A    between atoms: C11_12  and  C12_13
REMARK    7  A    between atoms: C11_12  and  C13_14
REMARK    8  A    between atoms: C11_12  and  C14_15
REMARK    9  A    between atoms: C14_15  and  C15_16
REMARK   10  A    between atoms: C16_17  and  O2_18
REMARK   11  A    between atoms: C18_20  and  O3_21
REMARK   12  A    between atoms: C23_28  and  O6_29
REMARK   13  A    between atoms: C24_30  and  O7_31
REMARK                            x       y       z     vdW  Elec       q    Type
REMARK                         _______ _______ _______ _____ _____    ______ ____
ROOT
ATOM      1  C8  UNL     1      26.454  -6.621 -38.254  0.00  0.00    +0.000 C 
ATOM      2  O1  UNL     1      25.869  -6.852 -39.536  0.00  0.00    +0.000 OA
ATOM      3  C9  UNL     1      26.047  -8.018 -40.294  0.00  0.00    +0.000 A 
ATOM      4  C10 UNL     1      25.113  -8.339 -41.326  0.00  0.00    +0.000 A 
ATOM      5  C16 UNL     1      25.240  -9.621 -41.934  0.00  0.00    +0.000 A 
ATOM      6  C17 UNL     1      26.319 -10.452 -41.619  0.00  0.00    +0.000 A 
ATOM      7  C18 UNL     1      27.285 -10.082 -40.691  0.00  0.00    +0.000 A 
ATOM      8  C19 UNL     1      27.170  -8.839 -40.027  0.00  0.00    +0.000 A 
ATOM      9  C20 UNL     1      28.193  -8.308 -39.082  0.00  0.00    +0.000 C 
ATOM     10  O4  UNL     1      29.372  -8.755 -39.055  0.00  0.00    +0.000 OA
ATOM     11  C21 UNL     1      27.843  -7.183 -38.207  0.00  0.00    +0.000 C 
ATOM     12  O5  UNL     1      28.686  -6.723 -37.388  0.00  0.00    +0.000 OA
ENDROOT
BRANCH   1  15
ATOM     13  C5  UNL     1      25.107  -8.531 -35.183  0.00  0.00    +0.000 A 
ATOM     14  C6  UNL     1      25.985  -8.055 -36.174  0.00  0.00    +0.000 A 
ATOM     15  C7  UNL     1      25.541  -7.166 -37.171  0.00  0.00    +0.000 A 
ATOM     16  C22 UNL     1      24.185  -6.809 -37.203  0.00  0.00    +0.000 A 
ATOM     17  C23 UNL     1      23.290  -7.302 -36.250  0.00  0.00    +0.000 A 
ATOM     18  C24 UNL     1      23.740  -8.167 -35.238  0.00  0.00    +0.000 A 
BRANCH  17  19
ATOM     19  O6  UNL     1      21.951  -6.919 -36.332  0.00  0.00    +0.000 OA
ATOM     20  H25 UNL     1      21.619  -6.026 -35.983  0.00  0.00    +0.000 HD
ENDBRANCH  17  19
BRANCH  18  21
ATOM     21  O7  UNL     1      22.810  -8.656 -34.316  0.00  0.00    +0.000 OA
ATOM     22  H26 UNL     1      21.945  -8.186 -34.092  0.00  0.00    +0.000 HD
ENDBRANCH  18  21
BRANCH  13  23
ATOM     23  C4  UNL     1      25.646  -9.445 -34.109  0.00  0.00    +0.000 C 
BRANCH  23  26
ATOM     24  C1  UNL     1      29.498  -9.716 -34.013  0.00  0.00    +0.000 C 
ATOM     25  C2  UNL     1      28.085  -9.307 -33.732  0.00  0.00    +0.000 C 
ATOM     26  C3  UNL     1      27.064  -9.852 -34.404  0.00  0.00    +0.000 C 
ENDBRANCH  23  26
ENDBRANCH  13  23
ENDBRANCH   1  15
BRANCH   4  27
ATOM     27  C11 UNL     1      23.973  -7.324 -41.688  0.00  0.00    +0.000 C 
ATOM     28  C12 UNL     1      23.448  -6.491 -40.481  0.00  0.00    +0.000 C 
ATOM     29  C13 UNL     1      24.531  -6.311 -42.713  0.00  0.00    +0.000 C 
BRANCH  27  30
ATOM     30  C14 UNL     1      22.718  -8.036 -42.309  0.00  0.00    +0.000 C 
ATOM     31  C15 UNL     1      22.178  -7.363 -43.574  0.00  0.00    +0.000 C 
ENDBRANCH  27  30
ENDBRANCH   4  27
BRANCH   5  32
ATOM     32  O2  UNL     1      24.307 -10.107 -42.848  0.00  0.00    +0.000 OA
ATOM     33  H21 UNL     1      23.309  -9.993 -42.712  0.00  0.00    +0.000 HD
ENDBRANCH   5  32
BRANCH   7  34
ATOM     34  O3  UNL     1      28.308 -11.004 -40.450  0.00  0.00    +0.000 OA
ATOM     35  H23 UNL     1      28.172 -11.964 -40.154  0.00  0.00    +0.000 HD
ENDBRANCH   7  34
TORSDOF 9
ENDMDL
MODEL 8
REMARK VINA RESULT:    -4.914      3.388      5.929
REMARK INTER + INTRA:          -7.737
REMARK INTER:                  -7.504
REMARK INTRA:                  -0.233
REMARK UNBOUND:                -0.813
REMARK  Name = resultss/4CJN/ligands/lig_215_t1.pdb
REMARK  13 active torsions:
REMARK  status: ('A' for Active; 'I' for Inactive)
REMARK    1  A    between atoms: C1_1  and  C2_2
REMARK    2  A    between atoms: C3_3  and  C4_4
REMARK    3  A    between atoms: C4_4  and  C5_5
REMARK    4  A    between atoms: C7_7  and  C8_8
REMARK    5  A    between atoms: C10_11  and  C11_12
REMARK    6  A    between atoms: C11_12  and  C12_13
REMARK    7  A    between atoms: C11_12  and  C13_14
REMARK    8  A    between atoms: C11_12  and  C14_15
REMARK    9  A    between atoms: C14_15  and  C15_16
REMARK   10  A    between atoms: C16_17  and  O2_18
REMARK   11  A    between atoms: C18_20  and  O3_21
REMARK   12  A    between atoms: C23_28  and  O6_29
REMARK   13  A    between atoms: C24_30  and  O7_31
REMARK                            x       y       z     vdW  Elec       q    Type
REMARK                         _______ _______ _______ _____ _____    ______ ____
ROOT
ATOM      1  C8  UNL     1      29.040 -10.698 -41.471  0.00  0.00    +0.000 C 
ATOM      2  O1  UNL     1      29.142 -10.407 -40.077  0.00  0.00    +0.000 OA
ATOM      3  C9  UNL     1      30.098  -9.552 -39.510  0.00  0.00    +0.000 A 
ATOM      4  C10 UNL     1      29.868  -8.994 -38.216  0.00  0.00    +0.000 A 
ATOM      5  C16 UNL     1      30.780  -7.994 -37.774  0.00  0.00    +0.000 A 
ATOM      6  C17 UNL     1      31.918  -7.689 -38.526  0.00  0.00    +0.000 A 
ATOM      7  C18 UNL     1      32.191  -8.319 -39.734  0.00  0.00    +0.000 A 
ATOM      8  C19 UNL     1      31.284  -9.283 -40.235  0.00  0.00    +0.000 A 
ATOM      9  C20 UNL     1      31.523 -10.078 -41.473  0.00  0.00    +0.000 C 
ATOM     10  O4  UNL     1      32.672 -10.196 -41.978  0.00  0.00    +0.000 OA
ATOM     11  C21 UNL     1      30.404 -10.805 -42.082  0.00  0.00    +0.000 C 
ATOM     12  O5  UNL     1      30.575 -11.474 -43.138  0.00  0.00    +0.000 OA
ENDROOT
BRANCH   1  15
ATOM     13  C5  UNL     1      27.774  -7.813 -43.699  0.00  0.00    +0.000 A 
ATOM     14  C6  UNL     1      28.633  -8.747 -43.094  0.00  0.00    +0.000 A 
ATOM     15  C7  UNL     1      28.151  -9.667 -42.142  0.00  0.00    +0.000 A 
ATOM     16  C22 UNL     1      26.806  -9.594 -41.754  0.00  0.00    +0.000 A 
ATOM     17  C23 UNL     1      25.946  -8.647 -42.316  0.00  0.00    +0.000 A 
ATOM     18  C24 UNL     1      26.421  -7.748 -43.286  0.00  0.00    +0.000 A 
BRANCH  17  19
ATOM     19  O6  UNL     1      24.618  -8.615 -41.889  0.00  0.00    +0.000 OA
ATOM     20  H25 UNL     1      23.978  -7.876 -42.161  0.00  0.00    +0.000 HD
ENDBRANCH  17  19
BRANCH  18  21
ATOM     21  O7  UNL     1      25.536  -6.800 -43.809  0.00  0.00    +0.000 OA
ATOM     22  H26 UNL     1      25.630  -5.806 -43.659  0.00  0.00    +0.000 HD
ENDBRANCH  18  21
BRANCH  13  23
ATOM     23  C4  UNL     1      28.332  -6.882 -44.748  0.00  0.00    +0.000 C 
BRANCH  23  26
ATOM     24  C1  UNL     1      26.715  -6.964 -48.256  0.00  0.00    +0.000 C 
ATOM     25  C2  UNL     1      27.118  -6.544 -46.875  0.00  0.00    +0.000 C 
ATOM     26  C3  UNL     1      27.921  -7.314 -46.130  0.00  0.00    +0.000 C 
ENDBRANCH  23  26
ENDBRANCH  13  23
ENDBRANCH   1  15
BRANCH   4  27
ATOM     27  C11 UNL     1      28.614  -9.442 -37.387  0.00  0.00    +0.000 C 
ATOM     28  C12 UNL     1      27.921 -10.732 -37.916  0.00  0.00    +0.000 C 
ATOM     29  C13 UNL     1      29.068  -9.747 -35.941  0.00  0.00    +0.000 C 
BRANCH  27  30
ATOM     30  C14 UNL     1      27.502  -8.333 -37.346  0.00  0.00    +0.000 C 
ATOM     31  C15 UNL     1      26.219  -8.702 -38.099  0.00  0.00    +0.000 C 
ENDBRANCH  27  30
ENDBRANCH   4  27
BRANCH   5  32
ATOM     32  O2  UNL     1      30.583  -7.274 -36.597  0.00  0.00    +0.000 OA
ATOM     33  H21 UNL     1      29.659  -7.111 -36.212  0.00  0.00    +0.000 HD
ENDBRANCH   5  32
BRANCH   7  34
ATOM     34  O3  UNL     1      33.352  -7.918 -40.403  0.00  0.00    +0.000 OA
ATOM     35  H23 UNL     1      34.137  -7.441 -39.975  0.00  0.00    +0.000 HD
ENDBRANCH   7  34
TORSDOF 9
ENDMDL
MODEL 9
REMARK VINA RESULT:    -4.842      2.187      5.318
REMARK INTER + INTRA:          -7.635
REMARK INTER:                  -7.204
REMARK INTRA:                  -0.431
REMARK UNBOUND:                -0.813
REMARK  Name = resultss/4CJN/ligands/lig_215_t1.pdb
REMARK  13 active torsions:
REMARK  status: ('A' for Active; 'I' for Inactive)
REMARK    1  A    between atoms: C1_1  and  C2_2
REMARK    2  A    between atoms: C3_3  and  C4_4
REMARK    3  A    between atoms: C4_4  and  C5_5
REMARK    4  A    between atoms: C7_7  and  C8_8
REMARK    5  A    between atoms: C10_11  and  C11_12
REMARK    6  A    between atoms: C11_12  and  C12_13
REMARK    7  A    between atoms: C11_12  and  C13_14
REMARK    8  A    between atoms: C11_12  and  C14_15
REMARK    9  A    between atoms: C14_15  and  C15_16
REMARK   10  A    between atoms: C16_17  and  O2_18
REMARK   11  A    between atoms: C18_20  and  O3_21
REMARK   12  A    between atoms: C23_28  and  O6_29
REMARK   13  A    between atoms: C24_30  and  O7_31
REMARK                            x       y       z     vdW  Elec       q    Type
REMARK                         _______ _______ _______ _____ _____    ______ ____
ROOT
ATOM      1  C8  UNL     1      27.992 -10.511 -39.473  0.00  0.00    +0.000 C 
ATOM      2  O1  UNL     1      28.393 -10.048 -38.183  0.00  0.00    +0.000 OA
ATOM      3  C9  UNL     1      29.236  -8.951 -37.957  0.00  0.00    +0.000 A 
ATOM      4  C10 UNL     1      29.236  -8.310 -36.681  0.00  0.00    +0.000 A 
ATOM      5  C16 UNL     1      29.971  -7.095 -36.569  0.00  0.00    +0.000 A 
ATOM      6  C17 UNL     1      30.760  -6.643 -37.631  0.00  0.00    +0.000 A 
ATOM      7  C18 UNL     1      30.839  -7.334 -38.834  0.00  0.00    +0.000 A 
ATOM      8  C19 UNL     1      30.086  -8.519 -39.004  0.00  0.00    +0.000 A 
ATOM      9  C20 UNL     1      30.164  -9.381 -40.218  0.00  0.00    +0.000 C 
ATOM     10  O4  UNL     1      31.130  -9.309 -41.026  0.00  0.00    +0.000 OA
ATOM     11  C21 UNL     1      29.127 -10.394 -40.444  0.00  0.00    +0.000 C 
ATOM     12  O5  UNL     1      29.162 -11.127 -41.470  0.00  0.00    +0.000 OA
ENDROOT
BRANCH   1  15
ATOM     13  C5  UNL     1      25.042  -8.028 -39.640  0.00  0.00    +0.000 A 
ATOM     14  C6  UNL     1      26.202  -8.687 -39.196  0.00  0.00    +0.000 A 
ATOM     15  C7  UNL     1      26.739  -9.776 -39.911  0.00  0.00    +0.000 A 
ATOM     16  C22 UNL     1      26.057 -10.239 -41.045  0.00  0.00    +0.000 A 
ATOM     17  C23 UNL     1      24.882  -9.622 -41.480  0.00  0.00    +0.000 A 
ATOM     18  C24 UNL     1      24.363  -8.518 -40.782  0.00  0.00    +0.000 A 
BRANCH  17  19
ATOM     19  O6  UNL     1      24.242 -10.128 -42.612  0.00  0.00    +0.000 OA
ATOM     20  H25 UNL     1      23.670  -9.549 -43.217  0.00  0.00    +0.000 HD
ENDBRANCH  17  19
BRANCH  18  21
ATOM     21  O7  UNL     1      23.173  -7.941 -41.235  0.00  0.00    +0.000 OA
ATOM     22  H26 UNL     1      23.094  -6.975 -41.518  0.00  0.00    +0.000 HD
ENDBRANCH  18  21
BRANCH  13  23
ATOM     23  C4  UNL     1      24.537  -6.837 -38.863  0.00  0.00    +0.000 C 
BRANCH  23  26
ATOM     24  C1  UNL     1      24.020  -7.941 -35.197  0.00  0.00    +0.000 C 
ATOM     25  C2  UNL     1      23.832  -7.730 -36.668  0.00  0.00    +0.000 C 
ATOM     26  C3  UNL     1      24.725  -7.035 -37.383  0.00  0.00    +0.000 C 
ENDBRANCH  23  26
ENDBRANCH  13  23
ENDBRANCH   1  15
BRANCH   4  27
ATOM     27  C11 UNL     1      28.393  -8.917 -35.505  0.00  0.00    +0.000 C 
ATOM     28  C12 UNL     1      27.317  -9.950 -35.954  0.00  0.00    +0.000 C 
ATOM     29  C13 UNL     1      29.353  -9.665 -34.552  0.00  0.00    +0.000 C 
BRANCH  27  30
ATOM     30  C14 UNL     1      27.628  -7.813 -34.691  0.00  0.00    +0.000 C 
ATOM     31  C15 UNL     1      27.376  -8.177 -33.224  0.00  0.00    +0.000 C 
ENDBRANCH  27  30
ENDBRANCH   4  27
BRANCH   5  32
ATOM     32  O2  UNL     1      29.932  -6.304 -35.422  0.00  0.00    +0.000 OA
ATOM     33  H21 UNL     1      30.686  -6.297 -34.746  0.00  0.00    +0.000 HD
ENDBRANCH   5  32
BRANCH   7  34
ATOM     34  O3  UNL     1      31.650  -6.774 -39.826  0.00  0.00    +0.000 OA
ATOM     35  H23 UNL     1      31.780  -5.782 -39.984  0.00  0.00    +0.000 HD
ENDBRANCH   7  34
TORSDOF 9
ENDMDL
