MODEL 1
REMARK VINA RESULT:    -7.511      0.000      0.000
REMARK INTER + INTRA:         -11.835
REMARK INTER:                 -10.804
REMARK INTRA:                  -1.031
REMARK UNBOUND:                -1.031
REMARK  Name = resultss/4CJN/ligands/lig_398_t2.pdb
REMARK  8 active torsions:
REMARK  status: ('A' for Active; 'I' for Inactive)
REMARK    1  A    between atoms: O1_1  and  C1_2
REMARK    2  A    between atoms: N2_11  and  N3_12
REMARK    3  A    between atoms: C9_13  and  C10_14
REMARK    4  A    between atoms: C13_17  and  O2_18
REMARK    5  A    between atoms: O2_18  and  C14_19
REMARK    6  A    between atoms: C14_19  and  C15_20
REMARK    7  A    between atoms: N4_22  and  C17_23
REMARK    8  A    between atoms: C17_23  and  C18_24
REMARK                            x       y       z     vdW  Elec       q    Type
REMARK                         _______ _______ _______ _____ _____    ______ ____
ROOT
ATOM      1  C10 UNL     1      23.650  -8.445 -42.003  0.00  0.00    +0.000 A 
ATOM      2  C11 UNL     1      23.954  -7.673 -40.871  0.00  0.00    +0.000 A 
ATOM      3  C12 UNL     1      24.987  -8.052 -40.009  0.00  0.00    +0.000 A 
ATOM      4  C13 UNL     1      25.723  -9.227 -40.257  0.00  0.00    +0.000 A 
ATOM      5  C24 UNL     1      25.401 -10.010 -41.370  0.00  0.00    +0.000 A 
ATOM      6  C25 UNL     1      24.368  -9.632 -42.232  0.00  0.00    +0.000 A 
ENDROOT
BRANCH   1   8
ATOM      7  N3  UNL     1      22.698  -7.411 -44.014  0.00  0.00    +0.000 NA
ATOM      8  C9  UNL     1      22.533  -8.022 -42.879  0.00  0.00    +0.000 C 
BRANCH   7  18
ATOM      9  C1  UNL     1      23.311  -7.407 -46.905  0.00  0.00    +0.000 C 
ATOM     10  N1  UNL     1      23.909  -7.317 -48.057  0.00  0.00    +0.000 NA
ATOM     11  C2  UNL     1      25.249  -6.911 -47.773  0.00  0.00    +0.000 A 
ATOM     12  C3  UNL     1      26.268  -6.684 -48.697  0.00  0.00    +0.000 A 
ATOM     13  C4  UNL     1      27.528  -6.288 -48.212  0.00  0.00    +0.000 A 
ATOM     14  C5  UNL     1      27.744  -6.127 -46.824  0.00  0.00    +0.000 A 
ATOM     15  C6  UNL     1      26.700  -6.362 -45.911  0.00  0.00    +0.000 A 
ATOM     16  C7  UNL     1      25.466  -6.752 -46.425  0.00  0.00    +0.000 A 
ATOM     17  C8  UNL     1      24.208  -7.070 -45.792  0.00  0.00    +0.000 C 
ATOM     18  N2  UNL     1      23.960  -7.068 -44.521  0.00  0.00    +0.000 NA
BRANCH   9  19
ATOM     19  O1  UNL     1      21.978  -7.780 -46.772  0.00  0.00    +0.000 OA
ATOM     20  H1  UNL     1      21.431  -7.475 -45.975  0.00  0.00    +0.000 HD
ENDBRANCH   9  19
ENDBRANCH   7  18
ENDBRANCH   1   8
BRANCH   4  21
ATOM     21  O2  UNL     1      26.774  -9.653 -39.426  0.00  0.00    +0.000 OA
BRANCH  21  22
ATOM     22  C14 UNL     1      27.659  -8.793 -38.710  0.00  0.00    +0.000 C 
BRANCH  22  23
ATOM     23  C15 UNL     1      27.642  -9.115 -37.249  0.00  0.00    +0.000 A 
ATOM     24  C16 UNL     1      27.442  -8.231 -36.213  0.00  0.00    +0.000 A 
ATOM     25  N4  UNL     1      27.467  -8.968 -35.090  0.00  0.00    +0.000 N 
ATOM     26  N5  UNL     1      27.648 -10.237 -35.421  0.00  0.00    +0.000 NA
ATOM     27  N6  UNL     1      27.760 -10.357 -36.736  0.00  0.00    +0.000 NA
BRANCH  25  28
ATOM     28  C17 UNL     1      27.229  -8.496 -33.730  0.00  0.00    +0.000 C 
BRANCH  28  29
ATOM     29  C18 UNL     1      25.797  -8.056 -33.586  0.00  0.00    +0.000 A 
ATOM     30  C19 UNL     1      25.496  -6.692 -33.433  0.00  0.00    +0.000 A 
ATOM     31  C20 UNL     1      24.172  -6.277 -33.260  0.00  0.00    +0.000 A 
ATOM     32  C21 UNL     1      23.141  -7.220 -33.223  0.00  0.00    +0.000 A 
ATOM     33  C22 UNL     1      23.432  -8.580 -33.360  0.00  0.00    +0.000 A 
ATOM     34  C23 UNL     1      24.756  -9.001 -33.535  0.00  0.00    +0.000 A 
ATOM     35  F1  UNL     1      25.018 -10.328 -33.653  0.00  0.00    +0.000 F 
ENDBRANCH  28  29
ENDBRANCH  25  28
ENDBRANCH  22  23
ENDBRANCH  21  22
ENDBRANCH   4  21
TORSDOF 8
ENDMDL
MODEL 2
REMARK VINA RESULT:    -7.004      4.021      7.046
REMARK INTER + INTRA:         -11.106
REMARK INTER:                  -8.314
REMARK INTRA:                  -2.792
REMARK UNBOUND:                -1.031
REMARK  Name = resultss/4CJN/ligands/lig_398_t2.pdb
REMARK  8 active torsions:
REMARK  status: ('A' for Active; 'I' for Inactive)
REMARK    1  A    between atoms: O1_1  and  C1_2
REMARK    2  A    between atoms: N2_11  and  N3_12
REMARK    3  A    between atoms: C9_13  and  C10_14
REMARK    4  A    between atoms: C13_17  and  O2_18
REMARK    5  A    between atoms: O2_18  and  C14_19
REMARK    6  A    between atoms: C14_19  and  C15_20
REMARK    7  A    between atoms: N4_22  and  C17_23
REMARK    8  A    between atoms: C17_23  and  C18_24
REMARK                            x       y       z     vdW  Elec       q    Type
REMARK                         _______ _______ _______ _____ _____    ______ ____
ROOT
ATOM      1  C10 UNL     1      26.035  -8.527 -36.625  0.00  0.00    +0.000 A 
ATOM      2  C11 UNL     1      26.519  -7.844 -35.499  0.00  0.00    +0.000 A 
ATOM      3  C12 UNL     1      27.728  -8.220 -34.906  0.00  0.00    +0.000 A 
ATOM      4  C13 UNL     1      28.465  -9.303 -35.422  0.00  0.00    +0.000 A 
ATOM      5  C24 UNL     1      27.966 -10.001 -36.528  0.00  0.00    +0.000 A 
ATOM      6  C25 UNL     1      26.758  -9.626 -37.120  0.00  0.00    +0.000 A 
ENDROOT
BRANCH   1   8
ATOM      7  N3  UNL     1      24.618  -7.564 -38.381  0.00  0.00    +0.000 NA
ATOM      8  C9  UNL     1      24.738  -8.113 -37.209  0.00  0.00    +0.000 C 
BRANCH   7  18
ATOM      9  C1  UNL     1      25.127  -9.028 -40.898  0.00  0.00    +0.000 C 
ATOM     10  N1  UNL     1      25.643  -9.460 -42.011  0.00  0.00    +0.000 NA
ATOM     11  C2  UNL     1      26.817  -8.675 -42.231  0.00  0.00    +0.000 A 
ATOM     12  C3  UNL     1      27.702  -8.776 -43.302  0.00  0.00    +0.000 A 
ATOM     13  C4  UNL     1      28.807  -7.906 -43.336  0.00  0.00    +0.000 A 
ATOM     14  C5  UNL     1      29.004  -6.958 -42.306  0.00  0.00    +0.000 A 
ATOM     15  C6  UNL     1      28.097  -6.874 -41.234  0.00  0.00    +0.000 A 
ATOM     16  C7  UNL     1      27.014  -7.751 -41.233  0.00  0.00    +0.000 A 
ATOM     17  C8  UNL     1      25.918  -7.938 -40.313  0.00  0.00    +0.000 C 
ATOM     18  N2  UNL     1      25.713  -7.287 -39.212  0.00  0.00    +0.000 NA
BRANCH   9  19
ATOM     19  O1  UNL     1      23.962  -9.553 -40.350  0.00  0.00    +0.000 OA
ATOM     20  H1  UNL     1      23.418  -9.022 -39.681  0.00  0.00    +0.000 HD
ENDBRANCH   9  19
ENDBRANCH   7  18
ENDBRANCH   1   8
BRANCH   4  21
ATOM     21  O2  UNL     1      29.687  -9.722 -34.868  0.00  0.00    +0.000 OA
BRANCH  21  22
ATOM     22  C14 UNL     1      30.936  -9.050 -35.027  0.00  0.00    +0.000 C 
BRANCH  22  23
ATOM     23  C15 UNL     1      31.463  -9.236 -36.416  0.00  0.00    +0.000 A 
ATOM     24  C16 UNL     1      31.088  -8.534 -37.539  0.00  0.00    +0.000 A 
ATOM     25  N4  UNL     1      31.849  -9.008 -38.540  0.00  0.00    +0.000 N 
ATOM     26  N5  UNL     1      32.662  -9.931 -38.052  0.00  0.00    +0.000 NA
ATOM     27  N6  UNL     1      32.447 -10.093 -36.754  0.00  0.00    +0.000 NA
BRANCH  25  28
ATOM     28  C17 UNL     1      31.876  -8.529 -39.918  0.00  0.00    +0.000 C 
BRANCH  28  29
ATOM     29  C18 UNL     1      31.463  -9.636 -40.851  0.00  0.00    +0.000 A 
ATOM     30  C19 UNL     1      32.366 -10.108 -41.819  0.00  0.00    +0.000 A 
ATOM     31  C20 UNL     1      31.978 -11.109 -42.716  0.00  0.00    +0.000 A 
ATOM     32  C21 UNL     1      30.684 -11.635 -42.662  0.00  0.00    +0.000 A 
ATOM     33  C22 UNL     1      29.775 -11.161 -41.712  0.00  0.00    +0.000 A 
ATOM     34  C23 UNL     1      30.158 -10.161 -40.811  0.00  0.00    +0.000 A 
ATOM     35  F1  UNL     1      29.256  -9.705 -39.905  0.00  0.00    +0.000 F 
ENDBRANCH  28  29
ENDBRANCH  25  28
ENDBRANCH  22  23
ENDBRANCH  21  22
ENDBRANCH   4  21
TORSDOF 8
ENDMDL
MODEL 3
REMARK VINA RESULT:    -6.709      5.431      8.374
REMARK INTER + INTRA:         -10.681
REMARK INTER:                  -7.297
REMARK INTRA:                  -3.385
REMARK UNBOUND:                -1.031
REMARK  Name = resultss/4CJN/ligands/lig_398_t2.pdb
REMARK  8 active torsions:
REMARK  status: ('A' for Active; 'I' for Inactive)
REMARK    1  A    between atoms: O1_1  and  C1_2
REMARK    2  A    between atoms: N2_11  and  N3_12
REMARK    3  A    between atoms: C9_13  and  C10_14
REMARK    4  A    between atoms: C13_17  and  O2_18
REMARK    5  A    between atoms: O2_18  and  C14_19
REMARK    6  A    between atoms: C14_19  and  C15_20
REMARK    7  A    between atoms: N4_22  and  C17_23
REMARK    8  A    between atoms: C17_23  and  C18_24
REMARK                            x       y       z     vdW  Elec       q    Type
REMARK                         _______ _______ _______ _____ _____    ______ ____
ROOT
ATOM      1  C10 UNL     1      29.362  -9.279 -34.079  0.00  0.00    +0.000 A 
ATOM      2  C11 UNL     1      29.102  -8.146 -33.294  0.00  0.00    +0.000 A 
ATOM      3  C12 UNL     1      27.787  -7.780 -32.990  0.00  0.00    +0.000 A 
ATOM      4  C13 UNL     1      26.707  -8.537 -33.484  0.00  0.00    +0.000 A 
ATOM      5  C24 UNL     1      26.968  -9.651 -34.290  0.00  0.00    +0.000 A 
ATOM      6  C25 UNL     1      28.282 -10.016 -34.595  0.00  0.00    +0.000 A 
ENDROOT
BRANCH   1   8
ATOM      7  N3  UNL     1      31.407  -9.151 -35.430  0.00  0.00    +0.000 NA
ATOM      8  C9  UNL     1      30.768  -9.620 -34.399  0.00  0.00    +0.000 C 
BRANCH   7  18
ATOM      9  C1  UNL     1      31.358  -9.723 -38.328  0.00  0.00    +0.000 C 
ATOM     10  N1  UNL     1      31.178  -9.651 -39.615  0.00  0.00    +0.000 NA
ATOM     11  C2  UNL     1      30.491  -8.419 -39.847  0.00  0.00    +0.000 A 
ATOM     12  C3  UNL     1      30.082  -7.908 -41.077  0.00  0.00    +0.000 A 
ATOM     13  C4  UNL     1      29.417  -6.669 -41.094  0.00  0.00    +0.000 A 
ATOM     14  C5  UNL     1      29.174  -5.970 -39.890  0.00  0.00    +0.000 A 
ATOM     15  C6  UNL     1      29.596  -6.505 -38.660  0.00  0.00    +0.000 A 
ATOM     16  C7  UNL     1      30.252  -7.734 -38.679  0.00  0.00    +0.000 A 
ATOM     17  C8  UNL     1      30.808  -8.554 -37.631  0.00  0.00    +0.000 C 
ATOM     18  N2  UNL     1      30.821  -8.285 -36.364  0.00  0.00    +0.000 NA
BRANCH   9  19
ATOM     19  O1  UNL     1      31.998 -10.793 -37.713  0.00  0.00    +0.000 OA
ATOM     20  H1  UNL     1      32.439 -11.520 -38.265  0.00  0.00    +0.000 HD
ENDBRANCH   9  19
ENDBRANCH   7  18
ENDBRANCH   1   8
BRANCH   4  21
ATOM     21  O2  UNL     1      25.367  -8.217 -33.206  0.00  0.00    +0.000 OA
BRANCH  21  22
ATOM     22  C14 UNL     1      24.631  -7.153 -33.808  0.00  0.00    +0.000 C 
BRANCH  22  23
ATOM     23  C15 UNL     1      24.600  -7.308 -35.297  0.00  0.00    +0.000 A 
ATOM     24  C16 UNL     1      25.561  -6.888 -36.188  0.00  0.00    +0.000 A 
ATOM     25  N4  UNL     1      25.132  -7.276 -37.401  0.00  0.00    +0.000 N 
ATOM     26  N5  UNL     1      23.983  -7.918 -37.258  0.00  0.00    +0.000 NA
ATOM     27  N6  UNL     1      23.633  -7.952 -35.980  0.00  0.00    +0.000 NA
BRANCH  25  28
ATOM     28  C17 UNL     1      25.841  -7.125 -38.667  0.00  0.00    +0.000 C 
BRANCH  28  29
ATOM     29  C18 UNL     1      26.454  -8.440 -39.069  0.00  0.00    +0.000 A 
ATOM     30  C19 UNL     1      27.065  -9.252 -38.099  0.00  0.00    +0.000 A 
ATOM     31  C20 UNL     1      27.672 -10.457 -38.469  0.00  0.00    +0.000 A 
ATOM     32  C21 UNL     1      27.684 -10.852 -39.810  0.00  0.00    +0.000 A 
ATOM     33  C22 UNL     1      27.091 -10.044 -40.783  0.00  0.00    +0.000 A 
ATOM     34  C23 UNL     1      26.482  -8.837 -40.418  0.00  0.00    +0.000 A 
ATOM     35  F1  UNL     1      25.922  -8.060 -41.381  0.00  0.00    +0.000 F 
ENDBRANCH  28  29
ENDBRANCH  25  28
ENDBRANCH  22  23
ENDBRANCH  21  22
ENDBRANCH   4  21
TORSDOF 8
ENDMDL
MODEL 4
REMARK VINA RESULT:    -6.656      1.756      2.721
REMARK INTER + INTRA:         -10.606
REMARK INTER:                  -9.766
REMARK INTRA:                  -0.840
REMARK UNBOUND:                -1.031
REMARK  Name = resultss/4CJN/ligands/lig_398_t2.pdb
REMARK  8 active torsions:
REMARK  status: ('A' for Active; 'I' for Inactive)
REMARK    1  A    between atoms: O1_1  and  C1_2
REMARK    2  A    between atoms: N2_11  and  N3_12
REMARK    3  A    between atoms: C9_13  and  C10_14
REMARK    4  A    between atoms: C13_17  and  O2_18
REMARK    5  A    between atoms: O2_18  and  C14_19
REMARK    6  A    between atoms: C14_19  and  C15_20
REMARK    7  A    between atoms: N4_22  and  C17_23
REMARK    8  A    between atoms: C17_23  and  C18_24
REMARK                            x       y       z     vdW  Elec       q    Type
REMARK                         _______ _______ _______ _____ _____    ______ ____
ROOT
ATOM      1  C10 UNL     1      24.326  -8.727 -41.713  0.00  0.00    +0.000 A 
ATOM      2  C11 UNL     1      24.737  -7.816 -40.728  0.00  0.00    +0.000 A 
ATOM      3  C12 UNL     1      25.842  -8.096 -39.918  0.00  0.00    +0.000 A 
ATOM      4  C13 UNL     1      26.545  -9.307 -40.070  0.00  0.00    +0.000 A 
ATOM      5  C24 UNL     1      26.117 -10.226 -41.035  0.00  0.00    +0.000 A 
ATOM      6  C25 UNL     1      25.012  -9.947 -41.843  0.00  0.00    +0.000 A 
ENDROOT
BRANCH   1   8
ATOM      7  N3  UNL     1      23.199  -7.837 -43.702  0.00  0.00    +0.000 NA
ATOM      8  C9  UNL     1      23.137  -8.404 -42.534  0.00  0.00    +0.000 C 
BRANCH   7  18
ATOM      9  C1  UNL     1      23.472  -7.404 -46.612  0.00  0.00    +0.000 C 
ATOM     10  N1  UNL     1      23.935  -7.152 -47.802  0.00  0.00    +0.000 NA
ATOM     11  C2  UNL     1      25.316  -6.827 -47.624  0.00  0.00    +0.000 A 
ATOM     12  C3  UNL     1      26.229  -6.485 -48.620  0.00  0.00    +0.000 A 
ATOM     13  C4  UNL     1      27.553  -6.199 -48.238  0.00  0.00    +0.000 A 
ATOM     14  C5  UNL     1      27.934  -6.259 -46.878  0.00  0.00    +0.000 A 
ATOM     15  C6  UNL     1      26.995  -6.606 -45.891  0.00  0.00    +0.000 A 
ATOM     16  C7  UNL     1      25.694  -6.883 -46.304  0.00  0.00    +0.000 A 
ATOM     17  C8  UNL     1      24.506  -7.263 -45.579  0.00  0.00    +0.000 C 
ATOM     18  N2  UNL     1      24.407  -7.450 -44.301  0.00  0.00    +0.000 NA
BRANCH   9  19
ATOM     19  O1  UNL     1      22.149  -7.760 -46.376  0.00  0.00    +0.000 OA
ATOM     20  H1  UNL     1      21.887  -8.731 -46.254  0.00  0.00    +0.000 HD
ENDBRANCH   9  19
ENDBRANCH   7  18
ENDBRANCH   1   8
BRANCH   4  21
ATOM     21  O2  UNL     1      27.664  -9.638 -39.287  0.00  0.00    +0.000 OA
BRANCH  21  22
ATOM     22  C14 UNL     1      28.316  -8.761 -38.369  0.00  0.00    +0.000 C 
BRANCH  22  23
ATOM     23  C15 UNL     1      27.906  -9.071 -36.963  0.00  0.00    +0.000 A 
ATOM     24  C16 UNL     1      28.134  -8.294 -35.849  0.00  0.00    +0.000 A 
ATOM     25  N4  UNL     1      27.557  -8.942 -34.824  0.00  0.00    +0.000 N 
ATOM     26  N5  UNL     1      26.987 -10.043 -35.287  0.00  0.00    +0.000 NA
ATOM     27  N6  UNL     1      27.186 -10.149 -36.593  0.00  0.00    +0.000 NA
BRANCH  25  28
ATOM     28  C17 UNL     1      27.463  -8.482 -33.443  0.00  0.00    +0.000 C 
BRANCH  28  29
ATOM     29  C18 UNL     1      28.835  -8.160 -32.916  0.00  0.00    +0.000 A 
ATOM     30  C19 UNL     1      29.136  -6.851 -32.503  0.00  0.00    +0.000 A 
ATOM     31  C20 UNL     1      30.420  -6.533 -32.049  0.00  0.00    +0.000 A 
ATOM     32  C21 UNL     1      31.415  -7.514 -32.017  0.00  0.00    +0.000 A 
ATOM     33  C22 UNL     1      31.128  -8.815 -32.439  0.00  0.00    +0.000 A 
ATOM     34  C23 UNL     1      29.845  -9.140 -32.894  0.00  0.00    +0.000 A 
ATOM     35  F1  UNL     1      29.591 -10.406 -33.312  0.00  0.00    +0.000 F 
ENDBRANCH  28  29
ENDBRANCH  25  28
ENDBRANCH  22  23
ENDBRANCH  21  22
ENDBRANCH   4  21
TORSDOF 8
ENDMDL
MODEL 5
REMARK VINA RESULT:    -6.607      4.333      7.057
REMARK INTER + INTRA:         -10.535
REMARK INTER:                  -7.731
REMARK INTRA:                  -2.805
REMARK UNBOUND:                -1.031
REMARK  Name = resultss/4CJN/ligands/lig_398_t2.pdb
REMARK  8 active torsions:
REMARK  status: ('A' for Active; 'I' for Inactive)
REMARK    1  A    between atoms: O1_1  and  C1_2
REMARK    2  A    between atoms: N2_11  and  N3_12
REMARK    3  A    between atoms: C9_13  and  C10_14
REMARK    4  A    between atoms: C13_17  and  O2_18
REMARK    5  A    between atoms: O2_18  and  C14_19
REMARK    6  A    between atoms: C14_19  and  C15_20
REMARK    7  A    between atoms: N4_22  and  C17_23
REMARK    8  A    between atoms: C17_23  and  C18_24
REMARK                            x       y       z     vdW  Elec       q    Type
REMARK                         _______ _______ _______ _____ _____    ______ ____
ROOT
ATOM      1  C10 UNL     1      30.449  -9.847 -37.133  0.00  0.00    +0.000 A 
ATOM      2  C11 UNL     1      30.645  -9.245 -35.880  0.00  0.00    +0.000 A 
ATOM      3  C12 UNL     1      29.571  -9.065 -35.003  0.00  0.00    +0.000 A 
ATOM      4  C13 UNL     1      28.275  -9.471 -35.376  0.00  0.00    +0.000 A 
ATOM      5  C24 UNL     1      28.078 -10.046 -36.637  0.00  0.00    +0.000 A 
ATOM      6  C25 UNL     1      29.150 -10.224 -37.514  0.00  0.00    +0.000 A 
ENDROOT
BRANCH   1   8
ATOM      7  N3  UNL     1      31.697  -9.415 -39.201  0.00  0.00    +0.000 NA
ATOM      8  C9  UNL     1      31.609  -9.997 -38.042  0.00  0.00    +0.000 C 
BRANCH   7  18
ATOM      9  C1  UNL     1      30.474  -9.875 -41.852  0.00  0.00    +0.000 C 
ATOM     10  N1  UNL     1      29.756  -9.776 -42.933  0.00  0.00    +0.000 NA
ATOM     11  C2  UNL     1      28.919  -8.633 -42.745  0.00  0.00    +0.000 A 
ATOM     12  C3  UNL     1      27.977  -8.131 -43.641  0.00  0.00    +0.000 A 
ATOM     13  C4  UNL     1      27.249  -6.986 -43.267  0.00  0.00    +0.000 A 
ATOM     14  C5  UNL     1      27.475  -6.371 -42.015  0.00  0.00    +0.000 A 
ATOM     15  C6  UNL     1      28.432  -6.896 -41.127  0.00  0.00    +0.000 A 
ATOM     16  C7  UNL     1      29.134  -8.030 -41.529  0.00  0.00    +0.000 A 
ATOM     17  C8  UNL     1      30.162  -8.813 -40.887  0.00  0.00    +0.000 C 
ATOM     18  N2  UNL     1      30.687  -8.594 -39.724  0.00  0.00    +0.000 NA
BRANCH   9  19
ATOM     19  O1  UNL     1      31.417 -10.878 -41.659  0.00  0.00    +0.000 OA
ATOM     20  H1  UNL     1      31.167 -11.853 -41.773  0.00  0.00    +0.000 HD
ENDBRANCH   9  19
ENDBRANCH   7  18
ENDBRANCH   1   8
BRANCH   4  21
ATOM     21  O2  UNL     1      27.161  -9.319 -34.533  0.00  0.00    +0.000 OA
BRANCH  21  22
ATOM     22  C14 UNL     1      26.427  -8.109 -34.347  0.00  0.00    +0.000 C 
BRANCH  22  23
ATOM     23  C15 UNL     1      25.540  -7.843 -35.523  0.00  0.00    +0.000 A 
ATOM     24  C16 UNL     1      25.899  -7.233 -36.704  0.00  0.00    +0.000 A 
ATOM     25  N4  UNL     1      24.799  -7.250 -37.475  0.00  0.00    +0.000 N 
ATOM     26  N5  UNL     1      23.827  -7.857 -36.814  0.00  0.00    +0.000 NA
ATOM     27  N6  UNL     1      24.252  -8.230 -35.614  0.00  0.00    +0.000 NA
BRANCH  25  28
ATOM     28  C17 UNL     1      24.693  -6.784 -38.854  0.00  0.00    +0.000 C 
BRANCH  28  29
ATOM     29  C18 UNL     1      24.942  -7.927 -39.800  0.00  0.00    +0.000 A 
ATOM     30  C19 UNL     1      25.957  -8.858 -39.522  0.00  0.00    +0.000 A 
ATOM     31  C20 UNL     1      26.221  -9.902 -40.415  0.00  0.00    +0.000 A 
ATOM     32  C21 UNL     1      25.484 -10.015 -41.597  0.00  0.00    +0.000 A 
ATOM     33  C22 UNL     1      24.482  -9.086 -41.889  0.00  0.00    +0.000 A 
ATOM     34  C23 UNL     1      24.213  -8.040 -40.999  0.00  0.00    +0.000 A 
ATOM     35  F1  UNL     1      23.244  -7.140 -41.307  0.00  0.00    +0.000 F 
ENDBRANCH  28  29
ENDBRANCH  25  28
ENDBRANCH  22  23
ENDBRANCH  21  22
ENDBRANCH   4  21
TORSDOF 8
ENDMDL
MODEL 6
REMARK VINA RESULT:    -6.515      5.759     10.714
REMARK INTER + INTRA:         -10.402
REMARK INTER:                  -9.710
REMARK INTRA:                  -0.692
REMARK UNBOUND:                -1.031
REMARK  Name = resultss/4CJN/ligands/lig_398_t2.pdb
REMARK  8 active torsions:
REMARK  status: ('A' for Active; 'I' for Inactive)
REMARK    1  A    between atoms: O1_1  and  C1_2
REMARK    2  A    between atoms: N2_11  and  N3_12
REMARK    3  A    between atoms: C9_13  and  C10_14
REMARK    4  A    between atoms: C13_17  and  O2_18
REMARK    5  A    between atoms: O2_18  and  C14_19
REMARK    6  A    between atoms: C14_19  and  C15_20
REMARK    7  A    between atoms: N4_22  and  C17_23
REMARK    8  A    between atoms: C17_23  and  C18_24
REMARK                            x       y       z     vdW  Elec       q    Type
REMARK                         _______ _______ _______ _____ _____    ______ ____
ROOT
ATOM      1  C10 UNL     1      25.014  -7.321 -40.478  0.00  0.00    +0.000 A 
ATOM      2  C11 UNL     1      24.613  -8.593 -40.914  0.00  0.00    +0.000 A 
ATOM      3  C12 UNL     1      25.554  -9.506 -41.398  0.00  0.00    +0.000 A 
ATOM      4  C13 UNL     1      26.915  -9.152 -41.471  0.00  0.00    +0.000 A 
ATOM      5  C24 UNL     1      27.308  -7.873 -41.061  0.00  0.00    +0.000 A 
ATOM      6  C25 UNL     1      26.368  -6.959 -40.578  0.00  0.00    +0.000 A 
ENDROOT
BRANCH   1   8
ATOM      7  N3  UNL     1      23.673  -6.222 -38.740  0.00  0.00    +0.000 NA
ATOM      8  C9  UNL     1      23.983  -6.373 -39.994  0.00  0.00    +0.000 C 
BRANCH   7  18
ATOM      9  C1  UNL     1      22.252  -6.936 -36.250  0.00  0.00    +0.000 C 
ATOM     10  N1  UNL     1      21.947  -7.393 -35.070  0.00  0.00    +0.000 NA
ATOM     11  C2  UNL     1      23.118  -8.058 -34.592  0.00  0.00    +0.000 A 
ATOM     12  C3  UNL     1      23.271  -8.706 -33.368  0.00  0.00    +0.000 A 
ATOM     13  C4  UNL     1      24.513  -9.304 -33.082  0.00  0.00    +0.000 A 
ATOM     14  C5  UNL     1      25.569  -9.243 -34.020  0.00  0.00    +0.000 A 
ATOM     15  C6  UNL     1      25.392  -8.583 -35.249  0.00  0.00    +0.000 A 
ATOM     16  C7  UNL     1      24.150  -8.003 -35.499  0.00  0.00    +0.000 A 
ATOM     17  C8  UNL     1      23.633  -7.266 -36.626  0.00  0.00    +0.000 C 
ATOM     18  N2  UNL     1      24.273  -6.961 -37.710  0.00  0.00    +0.000 NA
BRANCH   9  19
ATOM     19  O1  UNL     1      21.357  -6.224 -37.039  0.00  0.00    +0.000 OA
ATOM     20  H1  UNL     1      21.615  -5.917 -37.969  0.00  0.00    +0.000 HD
ENDBRANCH   9  19
ENDBRANCH   7  18
ENDBRANCH   1   8
BRANCH   4  21
ATOM     21  O2  UNL     1      27.904 -10.032 -41.944  0.00  0.00    +0.000 OA
BRANCH  21  22
ATOM     22  C14 UNL     1      28.823  -9.748 -42.997  0.00  0.00    +0.000 C 
BRANCH  22  23
ATOM     23  C15 UNL     1      30.226 -10.052 -42.570  0.00  0.00    +0.000 A 
ATOM     24  C16 UNL     1      31.158 -10.786 -43.268  0.00  0.00    +0.000 A 
ATOM     25  N4  UNL     1      32.278 -10.759 -42.527  0.00  0.00    +0.000 N 
ATOM     26  N5  UNL     1      32.051 -10.029 -41.446  0.00  0.00    +0.000 NA
ATOM     27  N6  UNL     1      30.803  -9.585 -41.445  0.00  0.00    +0.000 NA
BRANCH  25  28
ATOM     28  C17 UNL     1      33.571 -11.334 -42.879  0.00  0.00    +0.000 C 
BRANCH  28  29
ATOM     29  C18 UNL     1      33.512 -11.918 -44.265  0.00  0.00    +0.000 A 
ATOM     30  C19 UNL     1      33.088 -13.244 -44.448  0.00  0.00    +0.000 A 
ATOM     31  C20 UNL     1      33.066 -13.808 -45.728  0.00  0.00    +0.000 A 
ATOM     32  C21 UNL     1      33.479 -13.055 -46.831  0.00  0.00    +0.000 A 
ATOM     33  C22 UNL     1      33.916 -11.740 -46.656  0.00  0.00    +0.000 A 
ATOM     34  C23 UNL     1      33.939 -11.170 -45.378  0.00  0.00    +0.000 A 
ATOM     35  F1  UNL     1      34.379  -9.895 -45.228  0.00  0.00    +0.000 F 
ENDBRANCH  28  29
ENDBRANCH  25  28
ENDBRANCH  22  23
ENDBRANCH  21  22
ENDBRANCH   4  21
TORSDOF 8
ENDMDL
MODEL 7
REMARK VINA RESULT:    -6.270      3.345      9.992
REMARK INTER + INTRA:         -10.050
REMARK INTER:                  -8.456
REMARK INTRA:                  -1.594
REMARK UNBOUND:                -1.031
REMARK  Name = resultss/4CJN/ligands/lig_398_t2.pdb
REMARK  8 active torsions:
REMARK  status: ('A' for Active; 'I' for Inactive)
REMARK    1  A    between atoms: O1_1  and  C1_2
REMARK    2  A    between atoms: N2_11  and  N3_12
REMARK    3  A    between atoms: C9_13  and  C10_14
REMARK    4  A    between atoms: C13_17  and  O2_18
REMARK    5  A    between atoms: O2_18  and  C14_19
REMARK    6  A    between atoms: C14_19  and  C15_20
REMARK    7  A    between atoms: N4_22  and  C17_23
REMARK    8  A    between atoms: C17_23  and  C18_24
REMARK                            x       y       z     vdW  Elec       q    Type
REMARK                         _______ _______ _______ _____ _____    ______ ____
ROOT
ATOM      1  C10 UNL     1      27.182  -7.618 -38.304  0.00  0.00    +0.000 A 
ATOM      2  C11 UNL     1      26.907  -6.345 -38.825  0.00  0.00    +0.000 A 
ATOM      3  C12 UNL     1      25.771  -6.129 -39.611  0.00  0.00    +0.000 A 
ATOM      4  C13 UNL     1      24.899  -7.194 -39.905  0.00  0.00    +0.000 A 
ATOM      5  C24 UNL     1      25.190  -8.469 -39.408  0.00  0.00    +0.000 A 
ATOM      6  C25 UNL     1      26.325  -8.686 -38.623  0.00  0.00    +0.000 A 
ENDROOT
BRANCH   1   8
ATOM      7  N3  UNL     1      28.449  -7.674 -36.204  0.00  0.00    +0.000 NA
ATOM      8  C9  UNL     1      28.408  -7.811 -37.496  0.00  0.00    +0.000 C 
BRANCH   7  18
ATOM      9  C1  UNL     1      26.656  -9.655 -34.942  0.00  0.00    +0.000 C 
ATOM     10  N1  UNL     1      25.689 -10.229 -34.286  0.00  0.00    +0.000 NA
ATOM     11  C2  UNL     1      24.890  -9.169 -33.758  0.00  0.00    +0.000 A 
ATOM     12  C3  UNL     1      23.738  -9.296 -32.983  0.00  0.00    +0.000 A 
ATOM     13  C4  UNL     1      23.090  -8.122 -32.558  0.00  0.00    +0.000 A 
ATOM     14  C5  UNL     1      23.601  -6.853 -32.914  0.00  0.00    +0.000 A 
ATOM     15  C6  UNL     1      24.765  -6.749 -33.696  0.00  0.00    +0.000 A 
ATOM     16  C7  UNL     1      25.381  -7.931 -34.099  0.00  0.00    +0.000 A 
ATOM     17  C8  UNL     1      26.560  -8.191 -34.891  0.00  0.00    +0.000 C 
ATOM     18  N2  UNL     1      27.333  -7.307 -35.438  0.00  0.00    +0.000 NA
BRANCH   9  19
ATOM     19  O1  UNL     1      27.650 -10.369 -35.602  0.00  0.00    +0.000 OA
ATOM     20  H1  UNL     1      28.393 -10.823 -35.085  0.00  0.00    +0.000 HD
ENDBRANCH   9  19
ENDBRANCH   7  18
ENDBRANCH   1   8
BRANCH   4  21
ATOM     21  O2  UNL     1      23.741  -7.033 -40.686  0.00  0.00    +0.000 OA
BRANCH  21  22
ATOM     22  C14 UNL     1      23.708  -6.997 -42.112  0.00  0.00    +0.000 C 
BRANCH  22  23
ATOM     23  C15 UNL     1      24.878  -7.733 -42.686  0.00  0.00    +0.000 A 
ATOM     24  C16 UNL     1      26.096  -7.197 -43.038  0.00  0.00    +0.000 A 
ATOM     25  N4  UNL     1      26.843  -8.229 -43.464  0.00  0.00    +0.000 N 
ATOM     26  N5  UNL     1      26.131  -9.340 -43.356  0.00  0.00    +0.000 NA
ATOM     27  N6  UNL     1      24.923  -9.066 -42.884  0.00  0.00    +0.000 NA
BRANCH  25  28
ATOM     28  C17 UNL     1      28.241  -8.182 -43.877  0.00  0.00    +0.000 C 
BRANCH  28  29
ATOM     29  C18 UNL     1      29.111  -8.789 -42.809  0.00  0.00    +0.000 A 
ATOM     30  C19 UNL     1      29.585 -10.103 -42.956  0.00  0.00    +0.000 A 
ATOM     31  C20 UNL     1      30.361 -10.689 -41.951  0.00  0.00    +0.000 A 
ATOM     32  C21 UNL     1      30.658  -9.973 -40.788  0.00  0.00    +0.000 A 
ATOM     33  C22 UNL     1      30.179  -8.670 -40.627  0.00  0.00    +0.000 A 
ATOM     34  C23 UNL     1      29.402  -8.078 -41.630  0.00  0.00    +0.000 A 
ATOM     35  F1  UNL     1      28.936  -6.816 -41.449  0.00  0.00    +0.000 F 
ENDBRANCH  28  29
ENDBRANCH  25  28
ENDBRANCH  22  23
ENDBRANCH  21  22
ENDBRANCH   4  21
TORSDOF 8
ENDMDL
MODEL 8
REMARK VINA RESULT:    -6.240      3.337     10.576
REMARK INTER + INTRA:         -10.007
REMARK INTER:                  -8.832
REMARK INTRA:                  -1.175
REMARK UNBOUND:                -1.031
REMARK  Name = resultss/4CJN/ligands/lig_398_t2.pdb
REMARK  8 active torsions:
REMARK  status: ('A' for Active; 'I' for Inactive)
REMARK    1  A    between atoms: O1_1  and  C1_2
REMARK    2  A    between atoms: N2_11  and  N3_12
REMARK    3  A    between atoms: C9_13  and  C10_14
REMARK    4  A    between atoms: C13_17  and  O2_18
REMARK    5  A    between atoms: O2_18  and  C14_19
REMARK    6  A    between atoms: C14_19  and  C15_20
REMARK    7  A    between atoms: N4_22  and  C17_23
REMARK    8  A    between atoms: C17_23  and  C18_24
REMARK                            x       y       z     vdW  Elec       q    Type
REMARK                         _______ _______ _______ _____ _____    ______ ____
ROOT
ATOM      1  C10 UNL     1      28.915  -8.307 -36.933  0.00  0.00    +0.000 A 
ATOM      2  C11 UNL     1      28.380  -9.595 -36.785  0.00  0.00    +0.000 A 
ATOM      3  C12 UNL     1      27.984 -10.333 -37.905  0.00  0.00    +0.000 A 
ATOM      4  C13 UNL     1      28.101  -9.782 -39.195  0.00  0.00    +0.000 A 
ATOM      5  C24 UNL     1      28.609  -8.486 -39.339  0.00  0.00    +0.000 A 
ATOM      6  C25 UNL     1      29.004  -7.748 -38.220  0.00  0.00    +0.000 A 
ENDROOT
BRANCH   1   8
ATOM      7  N3  UNL     1      28.467  -6.846 -35.013  0.00  0.00    +0.000 NA
ATOM      8  C9  UNL     1      29.301  -7.549 -35.720  0.00  0.00    +0.000 C 
BRANCH   7  18
ATOM      9  C1  UNL     1      26.339  -8.366 -33.637  0.00  0.00    +0.000 C 
ATOM     10  N1  UNL     1      25.194  -8.863 -33.270  0.00  0.00    +0.000 NA
ATOM     11  C2  UNL     1      24.212  -8.238 -34.099  0.00  0.00    +0.000 A 
ATOM     12  C3  UNL     1      22.835  -8.455 -34.072  0.00  0.00    +0.000 A 
ATOM     13  C4  UNL     1      22.032  -7.737 -34.977  0.00  0.00    +0.000 A 
ATOM     14  C5  UNL     1      22.615  -6.822 -35.882  0.00  0.00    +0.000 A 
ATOM     15  C6  UNL     1      24.007  -6.619 -35.891  0.00  0.00    +0.000 A 
ATOM     16  C7  UNL     1      24.772  -7.347 -34.982  0.00  0.00    +0.000 A 
ATOM     17  C8  UNL     1      26.191  -7.388 -34.723  0.00  0.00    +0.000 C 
ATOM     18  N2  UNL     1      27.109  -6.715 -35.339  0.00  0.00    +0.000 NA
BRANCH   9  19
ATOM     19  O1  UNL     1      27.546  -8.734 -33.052  0.00  0.00    +0.000 OA
ATOM     20  H1  UNL     1      27.574  -9.097 -32.107  0.00  0.00    +0.000 HD
ENDBRANCH   9  19
ENDBRANCH   7  18
ENDBRANCH   1   8
BRANCH   4  21
ATOM     21  O2  UNL     1      27.722 -10.479 -40.356  0.00  0.00    +0.000 OA
BRANCH  21  22
ATOM     22  C14 UNL     1      27.915 -10.020 -41.693  0.00  0.00    +0.000 C 
BRANCH  22  23
ATOM     23  C15 UNL     1      26.672  -9.367 -42.211  0.00  0.00    +0.000 A 
ATOM     24  C16 UNL     1      26.538  -8.058 -42.617  0.00  0.00    +0.000 A 
ATOM     25  N4  UNL     1      25.269  -7.933 -43.040  0.00  0.00    +0.000 N 
ATOM     26  N5  UNL     1      24.667  -9.105 -42.924  0.00  0.00    +0.000 NA
ATOM     27  N6  UNL     1      25.501 -10.002 -42.417  0.00  0.00    +0.000 NA
BRANCH  25  28
ATOM     28  C17 UNL     1      24.661  -6.748 -43.636  0.00  0.00    +0.000 C 
BRANCH  28  29
ATOM     29  C18 UNL     1      24.442  -6.971 -45.108  0.00  0.00    +0.000 A 
ATOM     30  C19 UNL     1      25.524  -6.873 -45.999  0.00  0.00    +0.000 A 
ATOM     31  C20 UNL     1      25.323  -7.040 -47.373  0.00  0.00    +0.000 A 
ATOM     32  C21 UNL     1      24.040  -7.293 -47.868  0.00  0.00    +0.000 A 
ATOM     33  C22 UNL     1      22.956  -7.377 -46.990  0.00  0.00    +0.000 A 
ATOM     34  C23 UNL     1      23.151  -7.212 -45.614  0.00  0.00    +0.000 A 
ATOM     35  F1  UNL     1      22.083  -7.286 -44.780  0.00  0.00    +0.000 F 
ENDBRANCH  28  29
ENDBRANCH  25  28
ENDBRANCH  22  23
ENDBRANCH  21  22
ENDBRANCH   4  21
TORSDOF 8
ENDMDL
MODEL 9
REMARK VINA RESULT:    -6.168      5.142      9.518
REMARK INTER + INTRA:          -9.903
REMARK INTER:                  -6.902
REMARK INTRA:                  -3.002
REMARK UNBOUND:                -1.031
REMARK  Name = resultss/4CJN/ligands/lig_398_t2.pdb
REMARK  8 active torsions:
REMARK  status: ('A' for Active; 'I' for Inactive)
REMARK    1  A    between atoms: O1_1  and  C1_2
REMARK    2  A    between atoms: N2_11  and  N3_12
REMARK    3  A    between atoms: C9_13  and  C10_14
REMARK    4  A    between atoms: C13_17  and  O2_18
REMARK    5  A    between atoms: O2_18  and  C14_19
REMARK    6  A    between atoms: C14_19  and  C15_20
REMARK    7  A    between atoms: N4_22  and  C17_23
REMARK    8  A    between atoms: C17_23  and  C18_24
REMARK                            x       y       z     vdW  Elec       q    Type
REMARK                         _______ _______ _______ _____ _____    ______ ____
ROOT
ATOM      1  C10 UNL     1      29.082  -8.675 -33.100  0.00  0.00    +0.000 A 
ATOM      2  C11 UNL     1      28.126  -7.734 -32.689  0.00  0.00    +0.000 A 
ATOM      3  C12 UNL     1      26.806  -7.820 -33.142  0.00  0.00    +0.000 A 
ATOM      4  C13 UNL     1      26.425  -8.843 -34.032  0.00  0.00    +0.000 A 
ATOM      5  C24 UNL     1      27.387  -9.763 -34.462  0.00  0.00    +0.000 A 
ATOM      6  C25 UNL     1      28.707  -9.678 -34.011  0.00  0.00    +0.000 A 
ENDROOT
BRANCH   1   8
ATOM      7  N3  UNL     1      31.424  -7.969 -33.303  0.00  0.00    +0.000 NA
ATOM      8  C9  UNL     1      30.476  -8.536 -32.617  0.00  0.00    +0.000 C 
BRANCH   7  18
ATOM      9  C1  UNL     1      32.464  -9.279 -35.738  0.00  0.00    +0.000 C 
ATOM     10  N1  UNL     1      32.778  -9.566 -36.968  0.00  0.00    +0.000 NA
ATOM     11  C2  UNL     1      32.226  -8.518 -37.768  0.00  0.00    +0.000 A 
ATOM     12  C3  UNL     1      32.307  -8.393 -39.154  0.00  0.00    +0.000 A 
ATOM     13  C4  UNL     1      31.694  -7.280 -39.757  0.00  0.00    +0.000 A 
ATOM     14  C5  UNL     1      31.018  -6.320 -38.970  0.00  0.00    +0.000 A 
ATOM     15  C6  UNL     1      30.950  -6.467 -37.573  0.00  0.00    +0.000 A 
ATOM     16  C7  UNL     1      31.567  -7.581 -37.009  0.00  0.00    +0.000 A 
ATOM     17  C8  UNL     1      31.691  -8.034 -35.644  0.00  0.00    +0.000 C 
ATOM     18  N2  UNL     1      31.229  -7.444 -34.589  0.00  0.00    +0.000 NA
BRANCH   9  19
ATOM     19  O1  UNL     1      32.829 -10.077 -34.659  0.00  0.00    +0.000 OA
ATOM     20  H1  UNL     1      32.916 -11.081 -34.763  0.00  0.00    +0.000 HD
ENDBRANCH   9  19
ENDBRANCH   7  18
ENDBRANCH   1   8
BRANCH   4  21
ATOM     21  O2  UNL     1      25.112  -8.979 -34.515  0.00  0.00    +0.000 OA
BRANCH  21  22
ATOM     22  C14 UNL     1      24.432  -8.026 -35.330  0.00  0.00    +0.000 C 
BRANCH  22  23
ATOM     23  C15 UNL     1      25.024  -7.989 -36.705  0.00  0.00    +0.000 A 
ATOM     24  C16 UNL     1      26.103  -7.240 -37.116  0.00  0.00    +0.000 A 
ATOM     25  N4  UNL     1      26.300  -7.556 -38.407  0.00  0.00    +0.000 N 
ATOM     26  N5  UNL     1      25.407  -8.467 -38.760  0.00  0.00    +0.000 NA
ATOM     27  N6  UNL     1      24.611  -8.750 -37.738  0.00  0.00    +0.000 NA
BRANCH  25  28
ATOM     28  C17 UNL     1      27.376  -7.078 -39.268  0.00  0.00    +0.000 C 
BRANCH  28  29
ATOM     29  C18 UNL     1      27.994  -8.235 -40.005  0.00  0.00    +0.000 A 
ATOM     30  C19 UNL     1      27.811  -8.360 -41.392  0.00  0.00    +0.000 A 
ATOM     31  C20 UNL     1      28.349  -9.453 -42.080  0.00  0.00    +0.000 A 
ATOM     32  C21 UNL     1      29.062 -10.434 -41.385  0.00  0.00    +0.000 A 
ATOM     33  C22 UNL     1      29.237 -10.326 -40.003  0.00  0.00    +0.000 A 
ATOM     34  C23 UNL     1      28.702  -9.234 -39.310  0.00  0.00    +0.000 A 
ATOM     35  F1  UNL     1      28.872  -9.154 -37.966  0.00  0.00    +0.000 F 
ENDBRANCH  28  29
ENDBRANCH  25  28
ENDBRANCH  22  23
ENDBRANCH  21  22
ENDBRANCH   4  21
TORSDOF 8
ENDMDL
