MODEL 1
REMARK VINA RESULT:    -4.851      0.000      0.000
REMARK INTER + INTRA:          -6.672
REMARK INTER:                  -6.128
REMARK INTRA:                  -0.545
REMARK UNBOUND:                -0.545
REMARK  Name = resultss/4CJN/ligands/lig_218_t1.pdb
REMARK  7 active torsions:
REMARK  status: ('A' for Active; 'I' for Inactive)
REMARK    1  A    between atoms: C1_1  and  O1_2
REMARK    2  A    between atoms: O1_2  and  C2_3
REMARK    3  A    between atoms: C5_6  and  C6_7
REMARK    4  A    between atoms: C7_9  and  C8_10
REMARK    5  A    between atoms: C8_10  and  O2_11
REMARK    6  A    between atoms: C9_12  and  O3_13
REMARK    7  A    between atoms: C10_14  and  O4_15
REMARK                            x       y       z     vdW  Elec       q    Type
REMARK                         _______ _______ _______ _____ _____    ______ ____
ROOT
ATOM      1  C6  UNL     1      25.377  -8.867 -35.855  0.00  0.00    +0.000 C 
ATOM      2  N1  UNL     1      25.041  -7.443 -35.685  0.00  0.00    +0.000 NA
ATOM      3  C7  UNL     1      25.292  -7.100 -34.283  0.00  0.00    +0.000 C 
ATOM      4  C9  UNL     1      25.393  -8.412 -33.502  0.00  0.00    +0.000 C 
ATOM      5  C10 UNL     1      25.942  -9.383 -34.528  0.00  0.00    +0.000 C 
ATOM      6  H8  UNL     1      25.614  -6.820 -36.301  0.00  0.00    +0.000 HD
ENDROOT
BRANCH   1  10
ATOM      7  C2  UNL     1      28.096  -9.612 -39.321  0.00  0.00    +0.000 C 
ATOM      8  C3  UNL     1      26.781  -8.873 -39.427  0.00  0.00    +0.000 C 
ATOM      9  C4  UNL     1      25.973  -8.671 -38.382  0.00  0.00    +0.000 C 
ATOM     10  C5  UNL     1      26.337  -9.106 -37.012  0.00  0.00    +0.000 C 
ATOM     11  C11 UNL     1      27.538  -9.659 -36.788  0.00  0.00    +0.000 C 
ATOM     12  C12 UNL     1      28.486  -9.876 -37.891  0.00  0.00    +0.000 C 
ATOM     13  O5  UNL     1      29.637 -10.323 -37.636  0.00  0.00    +0.000 OA
BRANCH   7  15
ATOM     14  C1  UNL     1      28.856 -10.913 -41.094  0.00  0.00    +0.000 C 
ATOM     15  O1  UNL     1      27.983 -10.858 -39.986  0.00  0.00    +0.000 OA
ENDBRANCH   7  15
ENDBRANCH   1  10
BRANCH   4  16
ATOM     16  O3  UNL     1      26.272  -8.296 -32.414  0.00  0.00    +0.000 OA
ATOM     17  H14 UNL     1      26.044  -9.032 -31.789  0.00  0.00    +0.000 HD
ENDBRANCH   4  16
BRANCH   5  18
ATOM     18  O4  UNL     1      25.501 -10.693 -34.277  0.00  0.00    +0.000 OA
ATOM     19  H16 UNL     1      25.885 -10.956 -33.400  0.00  0.00    +0.000 HD
ENDBRANCH   5  18
BRANCH   3  20
ATOM     20  C8  UNL     1      24.185  -6.179 -33.754  0.00  0.00    +0.000 C 
BRANCH  20  21
ATOM     21  O2  UNL     1      23.912  -6.460 -32.409  0.00  0.00    +0.000 OA
ATOM     22  H12 UNL     1      24.549  -7.174 -32.142  0.00  0.00    +0.000 HD
ENDBRANCH  20  21
ENDBRANCH   3  20
TORSDOF 6
ENDMDL
MODEL 2
REMARK VINA RESULT:    -4.724      3.631      4.700
REMARK INTER + INTRA:          -6.511
REMARK INTER:                  -5.954
REMARK INTRA:                  -0.557
REMARK UNBOUND:                -0.545
REMARK  Name = resultss/4CJN/ligands/lig_218_t1.pdb
REMARK  7 active torsions:
REMARK  status: ('A' for Active; 'I' for Inactive)
REMARK    1  A    between atoms: C1_1  and  O1_2
REMARK    2  A    between atoms: O1_2  and  C2_3
REMARK    3  A    between atoms: C5_6  and  C6_7
REMARK    4  A    between atoms: C7_9  and  C8_10
REMARK    5  A    between atoms: C8_10  and  O2_11
REMARK    6  A    between atoms: C9_12  and  O3_13
REMARK    7  A    between atoms: C10_14  and  O4_15
REMARK                            x       y       z     vdW  Elec       q    Type
REMARK                         _______ _______ _______ _____ _____    ______ ____
ROOT
ATOM      1  C6  UNL     1      26.244  -8.347 -34.285  0.00  0.00    +0.000 C 
ATOM      2  N1  UNL     1      25.817  -6.952 -34.086  0.00  0.00    +0.000 NA
ATOM      3  C7  UNL     1      24.589  -6.981 -33.287  0.00  0.00    +0.000 C 
ATOM      4  C9  UNL     1      24.042  -8.409 -33.343  0.00  0.00    +0.000 C 
ATOM      5  C10 UNL     1      25.290  -9.253 -33.499  0.00  0.00    +0.000 C 
ATOM      6  H8  UNL     1      26.539  -6.380 -33.588  0.00  0.00    +0.000 HD
ENDROOT
BRANCH   1  10
ATOM      7  C2  UNL     1      30.484  -9.145 -33.124  0.00  0.00    +0.000 C 
ATOM      8  C3  UNL     1      29.753  -9.902 -34.209  0.00  0.00    +0.000 C 
ATOM      9  C4  UNL     1      28.479  -9.659 -34.534  0.00  0.00    +0.000 C 
ATOM     10  C5  UNL     1      27.697  -8.576 -33.892  0.00  0.00    +0.000 C 
ATOM     11  C11 UNL     1      28.291  -7.763 -33.006  0.00  0.00    +0.000 C 
ATOM     12  C12 UNL     1      29.700  -7.956 -32.632  0.00  0.00    +0.000 C 
ATOM     13  O5  UNL     1      30.253  -7.128 -31.860  0.00  0.00    +0.000 OA
BRANCH   7  15
ATOM     14  C1  UNL     1      31.925 -10.711 -32.185  0.00  0.00    +0.000 C 
ATOM     15  O1  UNL     1      30.710 -10.010 -32.025  0.00  0.00    +0.000 OA
ENDBRANCH   7  15
ENDBRANCH   1  10
BRANCH   4  16
ATOM     16  O3  UNL     1      23.364  -8.746 -32.161  0.00  0.00    +0.000 OA
ATOM     17  H14 UNL     1      22.833  -9.560 -32.363  0.00  0.00    +0.000 HD
ENDBRANCH   4  16
BRANCH   5  18
ATOM     18  O4  UNL     1      25.024 -10.432 -34.213  0.00  0.00    +0.000 OA
ATOM     19  H16 UNL     1      25.068 -10.194 -35.176  0.00  0.00    +0.000 HD
ENDBRANCH   5  18
BRANCH   3  20
ATOM     20  C8  UNL     1      23.590  -5.942 -33.809  0.00  0.00    +0.000 C 
BRANCH  20  21
ATOM     21  O2  UNL     1      22.389  -6.558 -34.185  0.00  0.00    +0.000 OA
ATOM     22  H12 UNL     1      21.698  -6.216 -33.560  0.00  0.00    +0.000 HD
ENDBRANCH  20  21
ENDBRANCH   3  20
TORSDOF 6
ENDMDL
MODEL 3
REMARK VINA RESULT:    -4.707      4.307      5.543
REMARK INTER + INTRA:          -6.490
REMARK INTER:                  -6.170
REMARK INTRA:                  -0.320
REMARK UNBOUND:                -0.545
REMARK  Name = resultss/4CJN/ligands/lig_218_t1.pdb
REMARK  7 active torsions:
REMARK  status: ('A' for Active; 'I' for Inactive)
REMARK    1  A    between atoms: C1_1  and  O1_2
REMARK    2  A    between atoms: O1_2  and  C2_3
REMARK    3  A    between atoms: C5_6  and  C6_7
REMARK    4  A    between atoms: C7_9  and  C8_10
REMARK    5  A    between atoms: C8_10  and  O2_11
REMARK    6  A    between atoms: C9_12  and  O3_13
REMARK    7  A    between atoms: C10_14  and  O4_15
REMARK                            x       y       z     vdW  Elec       q    Type
REMARK                         _______ _______ _______ _____ _____    ______ ____
ROOT
ATOM      1  C6  UNL     1      28.117  -8.412 -34.164  0.00  0.00    +0.000 C 
ATOM      2  N1  UNL     1      27.113  -7.721 -33.338  0.00  0.00    +0.000 NA
ATOM      3  C7  UNL     1      25.891  -8.530 -33.368  0.00  0.00    +0.000 C 
ATOM      4  C9  UNL     1      26.017  -9.504 -34.541  0.00  0.00    +0.000 C 
ATOM      5  C10 UNL     1      27.511  -9.737 -34.639  0.00  0.00    +0.000 C 
ATOM      6  H8  UNL     1      27.424  -7.604 -32.345  0.00  0.00    +0.000 HD
ENDROOT
BRANCH   1  10
ATOM      7  C2  UNL     1      32.030  -8.917 -32.069  0.00  0.00    +0.000 C 
ATOM      8  C3  UNL     1      31.263  -7.615 -32.115  0.00  0.00    +0.000 C 
ATOM      9  C4  UNL     1      30.099  -7.478 -32.759  0.00  0.00    +0.000 C 
ATOM     10  C5  UNL     1      29.434  -8.621 -33.431  0.00  0.00    +0.000 C 
ATOM     11  C11 UNL     1      29.968  -9.847 -33.341  0.00  0.00    +0.000 C 
ATOM     12  C12 UNL     1      31.229 -10.069 -32.617  0.00  0.00    +0.000 C 
ATOM     13  O5  UNL     1      31.664 -11.244 -32.481  0.00  0.00    +0.000 OA
BRANCH   7  15
ATOM     14  C1  UNL     1      34.356  -8.917 -32.031  0.00  0.00    +0.000 C 
ATOM     15  O1  UNL     1      33.209  -8.790 -32.844  0.00  0.00    +0.000 OA
ENDBRANCH   7  15
ENDBRANCH   1  10
BRANCH   4  16
ATOM     16  O3  UNL     1      25.346 -10.709 -34.282  0.00  0.00    +0.000 OA
ATOM     17  H14 UNL     1      24.385 -10.541 -34.463  0.00  0.00    +0.000 HD
ENDBRANCH   4  16
BRANCH   5  18
ATOM     18  O4  UNL     1      27.899 -10.016 -35.959  0.00  0.00    +0.000 OA
ATOM     19  H16 UNL     1      27.068 -10.014 -36.503  0.00  0.00    +0.000 HD
ENDBRANCH   5  18
BRANCH   3  20
ATOM     20  C8  UNL     1      24.657  -7.626 -33.477  0.00  0.00    +0.000 C 
BRANCH  20  21
ATOM     21  O2  UNL     1      23.696  -7.987 -32.524  0.00  0.00    +0.000 OA
ATOM     22  H12 UNL     1      24.056  -7.692 -31.646  0.00  0.00    +0.000 HD
ENDBRANCH  20  21
ENDBRANCH   3  20
TORSDOF 6
ENDMDL
MODEL 4
REMARK VINA RESULT:    -4.677      3.335      5.078
REMARK INTER + INTRA:          -6.453
REMARK INTER:                  -5.945
REMARK INTRA:                  -0.507
REMARK UNBOUND:                -0.545
REMARK  Name = resultss/4CJN/ligands/lig_218_t1.pdb
REMARK  7 active torsions:
REMARK  status: ('A' for Active; 'I' for Inactive)
REMARK    1  A    between atoms: C1_1  and  O1_2
REMARK    2  A    between atoms: O1_2  and  C2_3
REMARK    3  A    between atoms: C5_6  and  C6_7
REMARK    4  A    between atoms: C7_9  and  C8_10
REMARK    5  A    between atoms: C8_10  and  O2_11
REMARK    6  A    between atoms: C9_12  and  O3_13
REMARK    7  A    between atoms: C10_14  and  O4_15
REMARK                            x       y       z     vdW  Elec       q    Type
REMARK                         _______ _______ _______ _____ _____    ______ ____
ROOT
ATOM      1  C6  UNL     1      27.486  -9.890 -35.912  0.00  0.00    +0.000 C 
ATOM      2  N1  UNL     1      27.501  -9.159 -37.190  0.00  0.00    +0.000 NA
ATOM      3  C7  UNL     1      26.266  -8.374 -37.258  0.00  0.00    +0.000 C 
ATOM      4  C9  UNL     1      25.307  -8.940 -36.209  0.00  0.00    +0.000 C 
ATOM      5  C10 UNL     1      26.238  -9.460 -35.133  0.00  0.00    +0.000 C 
ATOM      6  H8  UNL     1      28.323  -8.516 -37.274  0.00  0.00    +0.000 HD
ENDROOT
BRANCH   1  10
ATOM      7  C2  UNL     1      31.164  -9.176 -33.478  0.00  0.00    +0.000 C 
ATOM      8  C3  UNL     1      29.776  -9.286 -32.890  0.00  0.00    +0.000 C 
ATOM      9  C4  UNL     1      28.684  -9.486 -33.635  0.00  0.00    +0.000 C 
ATOM     10  C5  UNL     1      28.759  -9.680 -35.104  0.00  0.00    +0.000 C 
ATOM     11  C11 UNL     1      29.955  -9.726 -35.707  0.00  0.00    +0.000 C 
ATOM     12  C12 UNL     1      31.196  -9.547 -34.937  0.00  0.00    +0.000 C 
ATOM     13  O5  UNL     1      32.307  -9.676 -35.518  0.00  0.00    +0.000 OA
BRANCH   7  15
ATOM     14  C1  UNL     1      31.320  -7.331 -32.069  0.00  0.00    +0.000 C 
ATOM     15  O1  UNL     1      31.617  -7.839 -33.352  0.00  0.00    +0.000 OA
ENDBRANCH   7  15
ENDBRANCH   1  10
BRANCH   4  16
ATOM     16  O3  UNL     1      24.466  -7.942 -35.691  0.00  0.00    +0.000 OA
ATOM     17  H14 UNL     1      24.152  -8.269 -34.808  0.00  0.00    +0.000 HD
ENDBRANCH   4  16
BRANCH   5  18
ATOM     18  O4  UNL     1      25.675 -10.553 -34.456  0.00  0.00    +0.000 OA
ATOM     19  H16 UNL     1      26.390 -11.238 -34.383  0.00  0.00    +0.000 HD
ENDBRANCH   5  18
BRANCH   3  20
ATOM     20  C8  UNL     1      25.685  -8.419 -38.677  0.00  0.00    +0.000 C 
BRANCH  20  21
ATOM     21  O2  UNL     1      24.326  -8.757 -38.643  0.00  0.00    +0.000 OA
ATOM     22  H12 UNL     1      23.884  -8.189 -39.327  0.00  0.00    +0.000 HD
ENDBRANCH  20  21
ENDBRANCH   3  20
TORSDOF 6
ENDMDL
MODEL 5
REMARK VINA RESULT:    -4.659      3.391      4.923
REMARK INTER + INTRA:          -6.430
REMARK INTER:                  -5.975
REMARK INTRA:                  -0.455
REMARK UNBOUND:                -0.545
REMARK  Name = resultss/4CJN/ligands/lig_218_t1.pdb
REMARK  7 active torsions:
REMARK  status: ('A' for Active; 'I' for Inactive)
REMARK    1  A    between atoms: C1_1  and  O1_2
REMARK    2  A    between atoms: O1_2  and  C2_3
REMARK    3  A    between atoms: C5_6  and  C6_7
REMARK    4  A    between atoms: C7_9  and  C8_10
REMARK    5  A    between atoms: C8_10  and  O2_11
REMARK    6  A    between atoms: C9_12  and  O3_13
REMARK    7  A    between atoms: C10_14  and  O4_15
REMARK                            x       y       z     vdW  Elec       q    Type
REMARK                         _______ _______ _______ _____ _____    ______ ____
ROOT
ATOM      1  C6  UNL     1      27.534  -9.825 -36.106  0.00  0.00    +0.000 C 
ATOM      2  N1  UNL     1      27.488  -9.107 -37.391  0.00  0.00    +0.000 NA
ATOM      3  C7  UNL     1      26.233  -8.351 -37.423  0.00  0.00    +0.000 C 
ATOM      4  C9  UNL     1      25.324  -8.927 -36.335  0.00  0.00    +0.000 C 
ATOM      5  C10 UNL     1      26.304  -9.416 -35.288  0.00  0.00    +0.000 C 
ATOM      6  H8  UNL     1      28.291  -8.446 -37.509  0.00  0.00    +0.000 HD
ENDROOT
BRANCH   1  10
ATOM      7  C2  UNL     1      31.401  -9.130 -33.980  0.00  0.00    +0.000 C 
ATOM      8  C3  UNL     1      31.073  -8.553 -35.338  0.00  0.00    +0.000 C 
ATOM      9  C4  UNL     1      29.916  -8.783 -35.966  0.00  0.00    +0.000 C 
ATOM     10  C5  UNL     1      28.829  -9.578 -35.345  0.00  0.00    +0.000 C 
ATOM     11  C11 UNL     1      28.970 -10.028 -34.090  0.00  0.00    +0.000 C 
ATOM     12  C12 UNL     1      30.206  -9.779 -33.333  0.00  0.00    +0.000 C 
ATOM     13  O5  UNL     1      30.276 -10.145 -32.129  0.00  0.00    +0.000 OA
BRANCH   7  15
ATOM     14  C1  UNL     1      33.644  -9.635 -33.622  0.00  0.00    +0.000 C 
ATOM     15  O1  UNL     1      32.413 -10.111 -34.123  0.00  0.00    +0.000 OA
ENDBRANCH   7  15
ENDBRANCH   1  10
BRANCH   4  16
ATOM     16  O3  UNL     1      24.479  -7.944 -35.798  0.00  0.00    +0.000 OA
ATOM     17  H14 UNL     1      23.855  -8.413 -35.185  0.00  0.00    +0.000 HD
ENDBRANCH   4  16
BRANCH   5  18
ATOM     18  O4  UNL     1      25.790 -10.515 -34.582  0.00  0.00    +0.000 OA
ATOM     19  H16 UNL     1      25.735 -10.236 -33.630  0.00  0.00    +0.000 HD
ENDBRANCH   5  18
BRANCH   3  20
ATOM     20  C8  UNL     1      25.604  -8.422 -38.820  0.00  0.00    +0.000 C 
BRANCH  20  21
ATOM     21  O2  UNL     1      24.254  -8.786 -38.735  0.00  0.00    +0.000 OA
ATOM     22  H12 UNL     1      24.222  -9.589 -38.150  0.00  0.00    +0.000 HD
ENDBRANCH  20  21
ENDBRANCH   3  20
TORSDOF 6
ENDMDL
MODEL 6
REMARK VINA RESULT:    -4.608      5.345      6.544
REMARK INTER + INTRA:          -6.365
REMARK INTER:                  -5.947
REMARK INTRA:                  -0.418
REMARK UNBOUND:                -0.545
REMARK  Name = resultss/4CJN/ligands/lig_218_t1.pdb
REMARK  7 active torsions:
REMARK  status: ('A' for Active; 'I' for Inactive)
REMARK    1  A    between atoms: C1_1  and  O1_2
REMARK    2  A    between atoms: O1_2  and  C2_3
REMARK    3  A    between atoms: C5_6  and  C6_7
REMARK    4  A    between atoms: C7_9  and  C8_10
REMARK    5  A    between atoms: C8_10  and  O2_11
REMARK    6  A    between atoms: C9_12  and  O3_13
REMARK    7  A    between atoms: C10_14  and  O4_15
REMARK                            x       y       z     vdW  Elec       q    Type
REMARK                         _______ _______ _______ _____ _____    ______ ____
ROOT
ATOM      1  C6  UNL     1      25.253  -9.422 -42.167  0.00  0.00    +0.000 C 
ATOM      2  N1  UNL     1      24.929  -8.660 -43.385  0.00  0.00    +0.000 NA
ATOM      3  C7  UNL     1      23.997  -7.598 -42.999  0.00  0.00    +0.000 C 
ATOM      4  C9  UNL     1      23.433  -7.961 -41.624  0.00  0.00    +0.000 C 
ATOM      5  C10 UNL     1      24.563  -8.739 -40.982  0.00  0.00    +0.000 C 
ATOM      6  H8  UNL     1      25.776  -8.232 -43.826  0.00  0.00    +0.000 HD
ENDROOT
BRANCH   1  10
ATOM      7  C2  UNL     1      29.663  -9.900 -41.633  0.00  0.00    +0.000 C 
ATOM      8  C3  UNL     1      29.018  -9.426 -42.915  0.00  0.00    +0.000 C 
ATOM      9  C4  UNL     1      27.695  -9.301 -43.062  0.00  0.00    +0.000 C 
ATOM     10  C5  UNL     1      26.753  -9.563 -41.947  0.00  0.00    +0.000 C 
ATOM     11  C11 UNL     1      27.230  -9.867 -40.732  0.00  0.00    +0.000 C 
ATOM     12  C12 UNL     1      28.677  -9.985 -40.497  0.00  0.00    +0.000 C 
ATOM     13  O5  UNL     1      29.098 -10.192 -39.328  0.00  0.00    +0.000 OA
BRANCH   7  15
ATOM     14  C1  UNL     1      30.908 -11.246 -43.065  0.00  0.00    +0.000 C 
ATOM     15  O1  UNL     1      30.211 -11.190 -41.839  0.00  0.00    +0.000 OA
ENDBRANCH   7  15
ENDBRANCH   1  10
BRANCH   4  16
ATOM     16  O3  UNL     1      23.135  -6.814 -40.872  0.00  0.00    +0.000 OA
ATOM     17  H14 UNL     1      23.972  -6.558 -40.405  0.00  0.00    +0.000 HD
ENDBRANCH   4  16
BRANCH   5  18
ATOM     18  O4  UNL     1      24.075  -9.693 -40.075  0.00  0.00    +0.000 OA
ATOM     19  H16 UNL     1      23.267 -10.091 -40.492  0.00  0.00    +0.000 HD
ENDBRANCH   5  18
BRANCH   3  20
ATOM     20  C8  UNL     1      22.905  -7.436 -44.064  0.00  0.00    +0.000 C 
BRANCH  20  21
ATOM     21  O2  UNL     1      21.647  -7.749 -43.531  0.00  0.00    +0.000 OA
ATOM     22  H12 UNL     1      21.195  -6.880 -43.366  0.00  0.00    +0.000 HD
ENDBRANCH  20  21
ENDBRANCH   3  20
TORSDOF 6
ENDMDL
MODEL 7
REMARK VINA RESULT:    -4.598      2.229      6.345
REMARK INTER + INTRA:          -6.352
REMARK INTER:                  -5.949
REMARK INTRA:                  -0.403
REMARK UNBOUND:                -0.545
REMARK  Name = resultss/4CJN/ligands/lig_218_t1.pdb
REMARK  7 active torsions:
REMARK  status: ('A' for Active; 'I' for Inactive)
REMARK    1  A    between atoms: C1_1  and  O1_2
REMARK    2  A    between atoms: O1_2  and  C2_3
REMARK    3  A    between atoms: C5_6  and  C6_7
REMARK    4  A    between atoms: C7_9  and  C8_10
REMARK    5  A    between atoms: C8_10  and  O2_11
REMARK    6  A    between atoms: C9_12  and  O3_13
REMARK    7  A    between atoms: C10_14  and  O4_15
REMARK                            x       y       z     vdW  Elec       q    Type
REMARK                         _______ _______ _______ _____ _____    ______ ____
ROOT
ATOM      1  C6  UNL     1      25.458  -8.166 -38.717  0.00  0.00    +0.000 C 
ATOM      2  N1  UNL     1      24.247  -8.395 -39.523  0.00  0.00    +0.000 NA
ATOM      3  C7  UNL     1      24.604  -9.338 -40.587  0.00  0.00    +0.000 C 
ATOM      4  C9  UNL     1      26.131  -9.369 -40.677  0.00  0.00    +0.000 C 
ATOM      5  C10 UNL     1      26.567  -9.075 -39.256  0.00  0.00    +0.000 C 
ATOM      6  H8  UNL     1      23.460  -8.793 -38.959  0.00  0.00    +0.000 HD
ENDROOT
BRANCH   1  10
ATOM      7  C2  UNL     1      24.742  -8.676 -34.336  0.00  0.00    +0.000 C 
ATOM      8  C3  UNL     1      23.861  -7.844 -35.241  0.00  0.00    +0.000 C 
ATOM      9  C4  UNL     1      24.098  -7.691 -36.548  0.00  0.00    +0.000 C 
ATOM     10  C5  UNL     1      25.219  -8.383 -37.229  0.00  0.00    +0.000 C 
ATOM     11  C11 UNL     1      25.983  -9.244 -36.543  0.00  0.00    +0.000 C 
ATOM     12  C12 UNL     1      25.751  -9.482 -35.110  0.00  0.00    +0.000 C 
ATOM     13  O5  UNL     1      26.434 -10.357 -34.511  0.00  0.00    +0.000 OA
BRANCH   7  15
ATOM     14  C1  UNL     1      24.686  -6.660 -33.177  0.00  0.00    +0.000 C 
ATOM     15  O1  UNL     1      25.444  -7.818 -33.454  0.00  0.00    +0.000 OA
ENDBRANCH   7  15
ENDBRANCH   1  10
BRANCH   4  16
ATOM     16  O3  UNL     1      26.595 -10.630 -41.084  0.00  0.00    +0.000 OA
ATOM     17  H14 UNL     1      27.078 -11.016 -40.308  0.00  0.00    +0.000 HD
ENDBRANCH   4  16
BRANCH   5  18
ATOM     18  O4  UNL     1      27.806  -8.416 -39.229  0.00  0.00    +0.000 OA
ATOM     19  H16 UNL     1      28.136  -8.398 -40.165  0.00  0.00    +0.000 HD
ENDBRANCH   5  18
BRANCH   3  20
ATOM     20  C8  UNL     1      23.940  -8.926 -41.907  0.00  0.00    +0.000 C 
BRANCH  20  21
ATOM     21  O2  UNL     1      23.907 -10.005 -42.799  0.00  0.00    +0.000 OA
ATOM     22  H12 UNL     1      23.101  -9.870 -43.364  0.00  0.00    +0.000 HD
ENDBRANCH  20  21
ENDBRANCH   3  20
TORSDOF 6
ENDMDL
MODEL 8
REMARK VINA RESULT:    -4.565      2.399      3.411
REMARK INTER + INTRA:          -6.310
REMARK INTER:                  -5.951
REMARK INTRA:                  -0.359
REMARK UNBOUND:                -0.545
REMARK  Name = resultss/4CJN/ligands/lig_218_t1.pdb
REMARK  7 active torsions:
REMARK  status: ('A' for Active; 'I' for Inactive)
REMARK    1  A    between atoms: C1_1  and  O1_2
REMARK    2  A    between atoms: O1_2  and  C2_3
REMARK    3  A    between atoms: C5_6  and  C6_7
REMARK    4  A    between atoms: C7_9  and  C8_10
REMARK    5  A    between atoms: C8_10  and  O2_11
REMARK    6  A    between atoms: C9_12  and  O3_13
REMARK    7  A    between atoms: C10_14  and  O4_15
REMARK                            x       y       z     vdW  Elec       q    Type
REMARK                         _______ _______ _______ _____ _____    ______ ____
ROOT
ATOM      1  C6  UNL     1      27.042  -8.749 -36.964  0.00  0.00    +0.000 C 
ATOM      2  N1  UNL     1      28.219  -9.052 -36.133  0.00  0.00    +0.000 NA
ATOM      3  C7  UNL     1      27.743  -9.775 -34.950  0.00  0.00    +0.000 C 
ATOM      4  C9  UNL     1      26.232  -9.555 -34.858  0.00  0.00    +0.000 C 
ATOM      5  C10 UNL     1      25.817  -9.392 -36.306  0.00  0.00    +0.000 C 
ATOM      6  H8  UNL     1      28.923  -9.641 -36.637  0.00  0.00    +0.000 HD
ENDROOT
BRANCH   1  10
ATOM      7  C2  UNL     1      27.661 -10.122 -41.170  0.00  0.00    +0.000 C 
ATOM      8  C3  UNL     1      27.897 -10.993 -39.958  0.00  0.00    +0.000 C 
ATOM      9  C4  UNL     1      27.720 -10.562 -38.705  0.00  0.00    +0.000 C 
ATOM     10  C5  UNL     1      27.213  -9.200 -38.408  0.00  0.00    +0.000 C 
ATOM     11  C11 UNL     1      26.852  -8.392 -39.414  0.00  0.00    +0.000 C 
ATOM     12  C12 UNL     1      26.991  -8.821 -40.814  0.00  0.00    +0.000 C 
ATOM     13  O5  UNL     1      26.568  -8.071 -41.734  0.00  0.00    +0.000 OA
BRANCH   7  15
ATOM     14  C1  UNL     1      29.759 -10.949 -41.741  0.00  0.00    +0.000 C 
ATOM     15  O1  UNL     1      28.905  -9.826 -41.780  0.00  0.00    +0.000 OA
ENDBRANCH   7  15
ENDBRANCH   1  10
BRANCH   4  16
ATOM     16  O3  UNL     1      25.586 -10.660 -34.282  0.00  0.00    +0.000 OA
ATOM     17  H14 UNL     1      25.408 -11.299 -35.020  0.00  0.00    +0.000 HD
ENDBRANCH   4  16
BRANCH   5  18
ATOM     18  O4  UNL     1      24.694  -8.557 -36.424  0.00  0.00    +0.000 OA
ATOM     19  H16 UNL     1      24.264  -8.784 -37.289  0.00  0.00    +0.000 HD
ENDBRANCH   5  18
BRANCH   3  20
ATOM     20  C8  UNL     1      28.490  -9.296 -33.699  0.00  0.00    +0.000 C 
BRANCH  20  21
ATOM     21  O2  UNL     1      29.547 -10.164 -33.394  0.00  0.00    +0.000 OA
ATOM     22  H12 UNL     1      30.380  -9.661 -33.593  0.00  0.00    +0.000 HD
ENDBRANCH  20  21
ENDBRANCH   3  20
TORSDOF 6
ENDMDL
MODEL 9
REMARK VINA RESULT:    -4.528      2.242      3.273
REMARK INTER + INTRA:          -6.263
REMARK INTER:                  -5.881
REMARK INTRA:                  -0.382
REMARK UNBOUND:                -0.545
REMARK  Name = resultss/4CJN/ligands/lig_218_t1.pdb
REMARK  7 active torsions:
REMARK  status: ('A' for Active; 'I' for Inactive)
REMARK    1  A    between atoms: C1_1  and  O1_2
REMARK    2  A    between atoms: O1_2  and  C2_3
REMARK    3  A    between atoms: C5_6  and  C6_7
REMARK    4  A    between atoms: C7_9  and  C8_10
REMARK    5  A    between atoms: C8_10  and  O2_11
REMARK    6  A    between atoms: C9_12  and  O3_13
REMARK    7  A    between atoms: C10_14  and  O4_15
REMARK                            x       y       z     vdW  Elec       q    Type
REMARK                         _______ _______ _______ _____ _____    ______ ____
ROOT
ATOM      1  C6  UNL     1      26.806  -8.487 -36.927  0.00  0.00    +0.000 C 
ATOM      2  N1  UNL     1      28.067  -8.798 -36.232  0.00  0.00    +0.000 NA
ATOM      3  C7  UNL     1      27.734  -9.649 -35.086  0.00  0.00    +0.000 C 
ATOM      4  C9  UNL     1      26.229  -9.522 -34.845  0.00  0.00    +0.000 C 
ATOM      5  C10 UNL     1      25.677  -9.253 -36.230  0.00  0.00    +0.000 C 
ATOM      6  H8  UNL     1      28.749  -9.300 -36.848  0.00  0.00    +0.000 HD
ENDROOT
BRANCH   1  10
ATOM      7  C2  UNL     1      26.864  -9.357 -41.309  0.00  0.00    +0.000 C 
ATOM      8  C3  UNL     1      26.370  -8.057 -40.716  0.00  0.00    +0.000 C 
ATOM      9  C4  UNL     1      26.347  -7.819 -39.401  0.00  0.00    +0.000 C 
ATOM     10  C5  UNL     1      26.868  -8.797 -38.416  0.00  0.00    +0.000 C 
ATOM     11  C11 UNL     1      27.444  -9.929 -38.845  0.00  0.00    +0.000 C 
ATOM     12  C12 UNL     1      27.531 -10.233 -40.282  0.00  0.00    +0.000 C 
ATOM     13  O5  UNL     1      28.150 -11.265 -40.657  0.00  0.00    +0.000 OA
BRANCH   7  15
ATOM     14  C1  UNL     1      25.079  -9.281 -42.799  0.00  0.00    +0.000 C 
ATOM     15  O1  UNL     1      25.765 -10.069 -41.850  0.00  0.00    +0.000 OA
ENDBRANCH   7  15
ENDBRANCH   1  10
BRANCH   4  16
ATOM     16  O3  UNL     1      25.690 -10.708 -34.322  0.00  0.00    +0.000 OA
ATOM     17  H14 UNL     1      24.898 -10.927 -34.878  0.00  0.00    +0.000 HD
ENDBRANCH   4  16
BRANCH   5  18
ATOM     18  O4  UNL     1      24.511  -8.474 -36.172  0.00  0.00    +0.000 OA
ATOM     19  H16 UNL     1      23.916  -8.804 -36.895  0.00  0.00    +0.000 HD
ENDBRANCH   5  18
BRANCH   3  20
ATOM     20  C8  UNL     1      28.567  -9.244 -33.864  0.00  0.00    +0.000 C 
BRANCH  20  21
ATOM     21  O2  UNL     1      29.416 -10.290 -33.478  0.00  0.00    +0.000 OA
ATOM     22  H12 UNL     1      28.910 -11.129 -33.641  0.00  0.00    +0.000 HD
ENDBRANCH  20  21
ENDBRANCH   3  20
TORSDOF 6
ENDMDL
