MODEL 1
REMARK VINA RESULT:    -6.539      0.000      0.000
REMARK INTER + INTRA:          -8.968
REMARK INTER:                  -8.450
REMARK INTRA:                  -0.518
REMARK UNBOUND:                -0.518
REMARK  Name = resultss/4CJN/ligands/lig_161_t2.pdb
REMARK  6 active torsions:
REMARK  status: ('A' for Active; 'I' for Inactive)
REMARK    1  A    between atoms: C1_1  and  O1_2
REMARK    2  A    between atoms: O1_2  and  C2_3
REMARK    3  A    between atoms: C6_8  and  C7_9
REMARK    4  A    between atoms: N1_10  and  N2_11
REMARK    5  A    between atoms: C8_12  and  C9_14
REMARK    6  A    between atoms: C12_17  and  C13_18
REMARK                            x       y       z     vdW  Elec       q    Type
REMARK                         _______ _______ _______ _____ _____    ______ ____
ROOT
ATOM      1  N2  UNL     1      26.883  -9.400 -38.335  0.00  0.00    +0.000 N 
ATOM      2  C8  UNL     1      25.771  -8.915 -39.099  0.00  0.00    +0.000 C 
ATOM      3  O3  UNL     1      24.629  -8.870 -38.564  0.00  0.00    +0.000 OA
ATOM      4  H8  UNL     1      27.792  -9.609 -38.807  0.00  0.00    +0.000 HD
ENDROOT
BRANCH   2   5
ATOM      5  C9  UNL     1      25.934  -8.482 -40.508  0.00  0.00    +0.000 A 
ATOM      6  C10 UNL     1      25.993  -9.440 -41.535  0.00  0.00    +0.000 A 
ATOM      7  C11 UNL     1      26.143  -9.048 -42.867  0.00  0.00    +0.000 A 
ATOM      8  C12 UNL     1      26.229  -7.687 -43.206  0.00  0.00    +0.000 A 
ATOM      9  C20 UNL     1      26.156  -6.728 -42.181  0.00  0.00    +0.000 A 
ATOM     10  C21 UNL     1      26.006  -7.120 -40.848  0.00  0.00    +0.000 A 
BRANCH   8  11
ATOM     11  C13 UNL     1      26.389  -7.258 -44.615  0.00  0.00    +0.000 A 
ATOM     12  N3  UNL     1      25.340  -6.999 -45.437  0.00  0.00    +0.000 NA
ATOM     13  C14 UNL     1      25.757  -6.624 -46.673  0.00  0.00    +0.000 A 
ATOM     14  C15 UNL     1      24.904  -6.300 -47.729  0.00  0.00    +0.000 A 
ATOM     15  C16 UNL     1      25.468  -5.928 -48.962  0.00  0.00    +0.000 A 
ATOM     16  C17 UNL     1      26.868  -5.883 -49.123  0.00  0.00    +0.000 A 
ATOM     17  C18 UNL     1      27.716  -6.212 -48.053  0.00  0.00    +0.000 A 
ATOM     18  C19 UNL     1      27.132  -6.577 -46.843  0.00  0.00    +0.000 A 
ATOM     19  S1  UNL     1      27.874  -7.022 -45.408  0.00  0.00    +0.000 S 
ENDBRANCH   8  11
ENDBRANCH   2   5
BRANCH   1  21
ATOM     20  C7  UNL     1      27.747  -9.757 -36.169  0.00  0.00    +0.000 C 
ATOM     21  N1  UNL     1      26.728  -9.672 -36.967  0.00  0.00    +0.000 NA
BRANCH  20  27
ATOM     22  C2  UNL     1      25.797  -8.618 -33.533  0.00  0.00    +0.000 C 
ATOM     23  C3  UNL     1      26.860  -7.810 -32.902  0.00  0.00    +0.000 C 
ATOM     24  C4  UNL     1      28.151  -8.098 -33.068  0.00  0.00    +0.000 C 
ATOM     25  C5  UNL     1      28.557  -9.233 -33.907  0.00  0.00    +0.000 C 
ATOM     26  O2  UNL     1      29.775  -9.551 -33.973  0.00  0.00    +0.000 OA
ATOM     27  C6  UNL     1      27.537 -10.007 -34.706  0.00  0.00    +0.000 C 
ATOM     28  C22 UNL     1      26.112  -9.647 -34.345  0.00  0.00    +0.000 C 
BRANCH  22  30
ATOM     29  C1  UNL     1      23.418  -8.177 -34.201  0.00  0.00    +0.000 C 
ATOM     30  O1  UNL     1      24.466  -8.271 -33.242  0.00  0.00    +0.000 OA
ENDBRANCH  22  30
ENDBRANCH  20  27
ENDBRANCH   1  21
TORSDOF 5
ENDMDL
MODEL 2
REMARK VINA RESULT:    -5.862      1.589      2.057
REMARK INTER + INTRA:          -8.093
REMARK INTER:                  -7.575
REMARK INTRA:                  -0.518
REMARK UNBOUND:                -0.518
REMARK  Name = resultss/4CJN/ligands/lig_161_t2.pdb
REMARK  6 active torsions:
REMARK  status: ('A' for Active; 'I' for Inactive)
REMARK    1  A    between atoms: C1_1  and  O1_2
REMARK    2  A    between atoms: O1_2  and  C2_3
REMARK    3  A    between atoms: C6_8  and  C7_9
REMARK    4  A    between atoms: N1_10  and  N2_11
REMARK    5  A    between atoms: C8_12  and  C9_14
REMARK    6  A    between atoms: C12_17  and  C13_18
REMARK                            x       y       z     vdW  Elec       q    Type
REMARK                         _______ _______ _______ _____ _____    ______ ____
ROOT
ATOM      1  N2  UNL     1      28.161  -8.678 -38.001  0.00  0.00    +0.000 N 
ATOM      2  C8  UNL     1      27.784  -9.579 -39.050  0.00  0.00    +0.000 C 
ATOM      3  O3  UNL     1      27.666 -10.809 -38.793  0.00  0.00    +0.000 OA
ATOM      4  H8  UNL     1      28.433  -7.694 -38.227  0.00  0.00    +0.000 HD
ENDROOT
BRANCH   2   5
ATOM      5  C9  UNL     1      27.549  -9.096 -40.432  0.00  0.00    +0.000 A 
ATOM      6  C10 UNL     1      26.785  -7.937 -40.652  0.00  0.00    +0.000 A 
ATOM      7  C11 UNL     1      26.558  -7.469 -41.949  0.00  0.00    +0.000 A 
ATOM      8  C12 UNL     1      27.096  -8.144 -43.057  0.00  0.00    +0.000 A 
ATOM      9  C20 UNL     1      27.871  -9.296 -42.837  0.00  0.00    +0.000 A 
ATOM     10  C21 UNL     1      28.099  -9.764 -41.540  0.00  0.00    +0.000 A 
BRANCH   8  11
ATOM     11  C13 UNL     1      26.861  -7.659 -44.437  0.00  0.00    +0.000 A 
ATOM     12  N3  UNL     1      25.621  -7.462 -44.954  0.00  0.00    +0.000 NA
ATOM     13  C14 UNL     1      25.681  -7.015 -46.234  0.00  0.00    +0.000 A 
ATOM     14  C15 UNL     1      24.566  -6.729 -47.024  0.00  0.00    +0.000 A 
ATOM     15  C16 UNL     1      24.769  -6.273 -48.338  0.00  0.00    +0.000 A 
ATOM     16  C17 UNL     1      26.075  -6.107 -48.844  0.00  0.00    +0.000 A 
ATOM     17  C18 UNL     1      27.188  -6.399 -48.040  0.00  0.00    +0.000 A 
ATOM     18  C19 UNL     1      26.960  -6.850 -46.742  0.00  0.00    +0.000 A 
ATOM     19  S1  UNL     1      28.074  -7.276 -45.565  0.00  0.00    +0.000 S 
ENDBRANCH   8  11
ENDBRANCH   2   5
BRANCH   1  21
ATOM     20  C7  UNL     1      29.382  -9.403 -36.117  0.00  0.00    +0.000 C 
ATOM     21  N1  UNL     1      28.243  -9.138 -36.677  0.00  0.00    +0.000 NA
BRANCH  20  27
ATOM     22  C2  UNL     1      28.366  -8.355 -32.968  0.00  0.00    +0.000 C 
ATOM     23  C3  UNL     1      29.701  -7.909 -32.523  0.00  0.00    +0.000 C 
ATOM     24  C4  UNL     1      30.819  -8.427 -33.033  0.00  0.00    +0.000 C 
ATOM     25  C5  UNL     1      30.752  -9.459 -34.075  0.00  0.00    +0.000 C 
ATOM     26  O2  UNL     1      31.814 -10.009 -34.474  0.00  0.00    +0.000 OA
ATOM     27  C6  UNL     1      29.429  -9.853 -34.688  0.00  0.00    +0.000 C 
ATOM     28  C22 UNL     1      28.244  -9.272 -33.950  0.00  0.00    +0.000 C 
BRANCH  22  30
ATOM     29  C1  UNL     1      26.246  -7.012 -32.959  0.00  0.00    +0.000 C 
ATOM     30  O1  UNL     1      27.252  -7.793 -32.321  0.00  0.00    +0.000 OA
ENDBRANCH  22  30
ENDBRANCH  20  27
ENDBRANCH   1  21
TORSDOF 5
ENDMDL
MODEL 3
REMARK VINA RESULT:    -5.745      2.958      4.166
REMARK INTER + INTRA:          -7.942
REMARK INTER:                  -7.400
REMARK INTRA:                  -0.542
REMARK UNBOUND:                -0.518
REMARK  Name = resultss/4CJN/ligands/lig_161_t2.pdb
REMARK  6 active torsions:
REMARK  status: ('A' for Active; 'I' for Inactive)
REMARK    1  A    between atoms: C1_1  and  O1_2
REMARK    2  A    between atoms: O1_2  and  C2_3
REMARK    3  A    between atoms: C6_8  and  C7_9
REMARK    4  A    between atoms: N1_10  and  N2_11
REMARK    5  A    between atoms: C8_12  and  C9_14
REMARK    6  A    between atoms: C12_17  and  C13_18
REMARK                            x       y       z     vdW  Elec       q    Type
REMARK                         _______ _______ _______ _____ _____    ______ ____
ROOT
ATOM      1  N2  UNL     1      24.191  -7.147 -38.256  0.00  0.00    +0.000 N 
ATOM      2  C8  UNL     1      24.740  -7.859 -39.372  0.00  0.00    +0.000 C 
ATOM      3  O3  UNL     1      25.717  -8.637 -39.187  0.00  0.00    +0.000 OA
ATOM      4  H8  UNL     1      23.505  -6.374 -38.413  0.00  0.00    +0.000 HD
ENDROOT
BRANCH   2   5
ATOM      5  C9  UNL     1      24.195  -7.685 -40.740  0.00  0.00    +0.000 A 
ATOM      6  C10 UNL     1      23.640  -6.453 -41.125  0.00  0.00    +0.000 A 
ATOM      7  C11 UNL     1      23.126  -6.273 -42.411  0.00  0.00    +0.000 A 
ATOM      8  C12 UNL     1      23.163  -7.319 -43.348  0.00  0.00    +0.000 A 
ATOM      9  C20 UNL     1      23.731  -8.548 -42.969  0.00  0.00    +0.000 A 
ATOM     10  C21 UNL     1      24.245  -8.728 -41.681  0.00  0.00    +0.000 A 
BRANCH   8  11
ATOM     11  C13 UNL     1      22.620  -7.142 -44.715  0.00  0.00    +0.000 A 
ATOM     12  N3  UNL     1      21.292  -7.045 -44.980  0.00  0.00    +0.000 NA
ATOM     13  C14 UNL     1      21.060  -6.887 -46.308  0.00  0.00    +0.000 A 
ATOM     14  C15 UNL     1      19.792  -6.764 -46.879  0.00  0.00    +0.000 A 
ATOM     15  C16 UNL     1      19.692  -6.606 -48.272  0.00  0.00    +0.000 A 
ATOM     16  C17 UNL     1      20.852  -6.574 -49.074  0.00  0.00    +0.000 A 
ATOM     17  C18 UNL     1      22.122  -6.700 -48.487  0.00  0.00    +0.000 A 
ATOM     18  C19 UNL     1      22.193  -6.854 -47.105  0.00  0.00    +0.000 A 
ATOM     19  S1  UNL     1      23.548  -7.031 -46.135  0.00  0.00    +0.000 S 
ENDBRANCH   8  11
ENDBRANCH   2   5
BRANCH   1  21
ATOM     20  C7  UNL     1      24.566  -6.556 -36.003  0.00  0.00    +0.000 C 
ATOM     21  N1  UNL     1      24.634  -7.434 -36.955  0.00  0.00    +0.000 NA
BRANCH  20  27
ATOM     22  C2  UNL     1      25.893  -9.244 -34.252  0.00  0.00    +0.000 C 
ATOM     23  C3  UNL     1      24.631  -9.622 -33.585  0.00  0.00    +0.000 C 
ATOM     24  C4  UNL     1      23.662  -8.734 -33.363  0.00  0.00    +0.000 C 
ATOM     25  C5  UNL     1      23.819  -7.339 -33.795  0.00  0.00    +0.000 C 
ATOM     26  O2  UNL     1      22.937  -6.492 -33.489  0.00  0.00    +0.000 OA
ATOM     27  C6  UNL     1      25.012  -6.915 -34.617  0.00  0.00    +0.000 C 
ATOM     28  C22 UNL     1      26.076  -7.987 -34.705  0.00  0.00    +0.000 C 
BRANCH  22  30
ATOM     29  C1  UNL     1      28.281 -10.004 -34.382  0.00  0.00    +0.000 C 
ATOM     30  O1  UNL     1      26.877 -10.239 -34.379  0.00  0.00    +0.000 OA
ENDBRANCH  22  30
ENDBRANCH  20  27
ENDBRANCH   1  21
TORSDOF 5
ENDMDL
MODEL 4
REMARK VINA RESULT:    -5.657      2.319      3.339
REMARK INTER + INTRA:          -7.828
REMARK INTER:                  -7.232
REMARK INTRA:                  -0.596
REMARK UNBOUND:                -0.518
REMARK  Name = resultss/4CJN/ligands/lig_161_t2.pdb
REMARK  6 active torsions:
REMARK  status: ('A' for Active; 'I' for Inactive)
REMARK    1  A    between atoms: C1_1  and  O1_2
REMARK    2  A    between atoms: O1_2  and  C2_3
REMARK    3  A    between atoms: C6_8  and  C7_9
REMARK    4  A    between atoms: N1_10  and  N2_11
REMARK    5  A    between atoms: C8_12  and  C9_14
REMARK    6  A    between atoms: C12_17  and  C13_18
REMARK                            x       y       z     vdW  Elec       q    Type
REMARK                         _______ _______ _______ _____ _____    ______ ____
ROOT
ATOM      1  N2  UNL     1      25.905  -7.596 -38.008  0.00  0.00    +0.000 N 
ATOM      2  C8  UNL     1      26.197  -8.427 -39.138  0.00  0.00    +0.000 C 
ATOM      3  O3  UNL     1      27.004  -9.388 -39.003  0.00  0.00    +0.000 OA
ATOM      4  H8  UNL     1      25.383  -6.699 -38.137  0.00  0.00    +0.000 HD
ENDROOT
BRANCH   2   5
ATOM      5  C9  UNL     1      25.585  -8.169 -40.463  0.00  0.00    +0.000 A 
ATOM      6  C10 UNL     1      24.516  -8.964 -40.911  0.00  0.00    +0.000 A 
ATOM      7  C11 UNL     1      23.926  -8.731 -42.156  0.00  0.00    +0.000 A 
ATOM      8  C12 UNL     1      24.387  -7.691 -42.980  0.00  0.00    +0.000 A 
ATOM      9  C20 UNL     1      25.447  -6.887 -42.528  0.00  0.00    +0.000 A 
ATOM     10  C21 UNL     1      26.037  -7.120 -41.282  0.00  0.00    +0.000 A 
BRANCH   8  11
ATOM     11  C13 UNL     1      23.772  -7.434 -44.303  0.00  0.00    +0.000 A 
ATOM     12  N3  UNL     1      22.433  -7.304 -44.488  0.00  0.00    +0.000 NA
ATOM     13  C14 UNL     1      22.130  -7.073 -45.791  0.00  0.00    +0.000 A 
ATOM     14  C15 UNL     1      20.835  -6.902 -46.282  0.00  0.00    +0.000 A 
ATOM     15  C16 UNL     1      20.660  -6.670 -47.657  0.00  0.00    +0.000 A 
ATOM     16  C17 UNL     1      21.774  -6.611 -48.520  0.00  0.00    +0.000 A 
ATOM     17  C18 UNL     1      23.072  -6.786 -48.014  0.00  0.00    +0.000 A 
ATOM     18  C19 UNL     1      23.218  -7.014 -46.648  0.00  0.00    +0.000 A 
ATOM     19  S1  UNL     1      24.622  -7.261 -45.766  0.00  0.00    +0.000 S 
ENDBRANCH   8  11
ENDBRANCH   2   5
BRANCH   1  21
ATOM     20  C7  UNL     1      25.670  -7.796 -35.669  0.00  0.00    +0.000 C 
ATOM     21  N1  UNL     1      26.390  -7.944 -36.737  0.00  0.00    +0.000 NA
BRANCH  20  27
ATOM     22  C2  UNL     1      28.593  -7.614 -33.806  0.00  0.00    +0.000 C 
ATOM     23  C3  UNL     1      29.006  -9.012 -34.043  0.00  0.00    +0.000 C 
ATOM     24  C4  UNL     1      28.118  -9.967 -34.319  0.00  0.00    +0.000 C 
ATOM     25  C5  UNL     1      26.687  -9.648 -34.411  0.00  0.00    +0.000 C 
ATOM     26  O2  UNL     1      25.853 -10.579 -34.574  0.00  0.00    +0.000 OA
ATOM     27  C6  UNL     1      26.209  -8.219 -34.335  0.00  0.00    +0.000 C 
ATOM     28  C22 UNL     1      27.298  -7.256 -33.917  0.00  0.00    +0.000 C 
BRANCH  22  30
ATOM     29  C1  UNL     1      30.452  -6.812 -32.323  0.00  0.00    +0.000 C 
ATOM     30  O1  UNL     1      29.600  -6.697 -33.458  0.00  0.00    +0.000 OA
ENDBRANCH  22  30
ENDBRANCH  20  27
ENDBRANCH   1  21
TORSDOF 5
ENDMDL
MODEL 5
REMARK VINA RESULT:    -5.582      1.587      2.514
REMARK INTER + INTRA:          -7.732
REMARK INTER:                  -7.093
REMARK INTRA:                  -0.638
REMARK UNBOUND:                -0.518
REMARK  Name = resultss/4CJN/ligands/lig_161_t2.pdb
REMARK  6 active torsions:
REMARK  status: ('A' for Active; 'I' for Inactive)
REMARK    1  A    between atoms: C1_1  and  O1_2
REMARK    2  A    between atoms: O1_2  and  C2_3
REMARK    3  A    between atoms: C6_8  and  C7_9
REMARK    4  A    between atoms: N1_10  and  N2_11
REMARK    5  A    between atoms: C8_12  and  C9_14
REMARK    6  A    between atoms: C12_17  and  C13_18
REMARK                            x       y       z     vdW  Elec       q    Type
REMARK                         _______ _______ _______ _____ _____    ______ ____
ROOT
ATOM      1  N2  UNL     1      27.623  -7.506 -38.033  0.00  0.00    +0.000 N 
ATOM      2  C8  UNL     1      27.517  -8.515 -39.045  0.00  0.00    +0.000 C 
ATOM      3  O3  UNL     1      27.599  -9.731 -38.714  0.00  0.00    +0.000 OA
ATOM      4  H8  UNL     1      27.734  -6.502 -38.303  0.00  0.00    +0.000 HD
ENDROOT
BRANCH   2   5
ATOM      5  C9  UNL     1      27.333  -8.159 -40.472  0.00  0.00    +0.000 A 
ATOM      6  C10 UNL     1      27.439  -9.150 -41.464  0.00  0.00    +0.000 A 
ATOM      7  C11 UNL     1      27.264  -8.830 -42.812  0.00  0.00    +0.000 A 
ATOM      8  C12 UNL     1      26.970  -7.513 -43.202  0.00  0.00    +0.000 A 
ATOM      9  C20 UNL     1      26.850  -6.524 -42.210  0.00  0.00    +0.000 A 
ATOM     10  C21 UNL     1      27.024  -6.844 -40.860  0.00  0.00    +0.000 A 
BRANCH   8  11
ATOM     11  C13 UNL     1      26.784  -7.160 -44.628  0.00  0.00    +0.000 A 
ATOM     12  N3  UNL     1      25.575  -6.854 -45.167  0.00  0.00    +0.000 NA
ATOM     13  C14 UNL     1      25.678  -6.568 -46.490  0.00  0.00    +0.000 A 
ATOM     14  C15 UNL     1      24.602  -6.224 -47.309  0.00  0.00    +0.000 A 
ATOM     15  C16 UNL     1      24.846  -5.952 -48.666  0.00  0.00    +0.000 A 
ATOM     16  C17 UNL     1      26.155  -6.027 -49.186  0.00  0.00    +0.000 A 
ATOM     17  C18 UNL     1      27.230  -6.376 -48.352  0.00  0.00    +0.000 A 
ATOM     18  C19 UNL     1      26.960  -6.640 -47.012  0.00  0.00    +0.000 A 
ATOM     19  S1  UNL     1      28.022  -7.079 -45.791  0.00  0.00    +0.000 S 
ENDBRANCH   8  11
ENDBRANCH   2   5
BRANCH   1  21
ATOM     20  C7  UNL     1      26.659  -7.648 -35.885  0.00  0.00    +0.000 C 
ATOM     21  N1  UNL     1      27.659  -7.873 -36.678  0.00  0.00    +0.000 NA
BRANCH  20  27
ATOM     22  C2  UNL     1      28.862  -7.668 -33.202  0.00  0.00    +0.000 C 
ATOM     23  C3  UNL     1      29.216  -9.097 -33.313  0.00  0.00    +0.000 C 
ATOM     24  C4  UNL     1      28.387  -9.984 -33.862  0.00  0.00    +0.000 C 
ATOM     25  C5  UNL     1      27.085  -9.556 -34.392  0.00  0.00    +0.000 C 
ATOM     26  O2  UNL     1      26.273 -10.422 -34.817  0.00  0.00    +0.000 OA
ATOM     27  C6  UNL     1      26.721  -8.093 -34.454  0.00  0.00    +0.000 C 
ATOM     28  C22 UNL     1      27.698  -7.212 -33.707  0.00  0.00    +0.000 C 
BRANCH  22  30
ATOM     29  C1  UNL     1      31.098  -7.200 -32.162  0.00  0.00    +0.000 C 
ATOM     30  O1  UNL     1      29.779  -6.827 -32.548  0.00  0.00    +0.000 OA
ENDBRANCH  22  30
ENDBRANCH  20  27
ENDBRANCH   1  21
TORSDOF 5
ENDMDL
MODEL 6
REMARK VINA RESULT:    -5.509      4.863     11.160
REMARK INTER + INTRA:          -7.637
REMARK INTER:                  -7.304
REMARK INTRA:                  -0.333
REMARK UNBOUND:                -0.518
REMARK  Name = resultss/4CJN/ligands/lig_161_t2.pdb
REMARK  6 active torsions:
REMARK  status: ('A' for Active; 'I' for Inactive)
REMARK    1  A    between atoms: C1_1  and  O1_2
REMARK    2  A    between atoms: O1_2  and  C2_3
REMARK    3  A    between atoms: C6_8  and  C7_9
REMARK    4  A    between atoms: N1_10  and  N2_11
REMARK    5  A    between atoms: C8_12  and  C9_14
REMARK    6  A    between atoms: C12_17  and  C13_18
REMARK                            x       y       z     vdW  Elec       q    Type
REMARK                         _______ _______ _______ _____ _____    ______ ____
ROOT
ATOM      1  N2  UNL     1      22.348  -7.737 -43.229  0.00  0.00    +0.000 N 
ATOM      2  C8  UNL     1      23.767  -7.916 -43.322  0.00  0.00    +0.000 C 
ATOM      3  O3  UNL     1      24.323  -7.853 -44.454  0.00  0.00    +0.000 OA
ATOM      4  H8  UNL     1      21.850  -7.957 -42.337  0.00  0.00    +0.000 HD
ENDROOT
BRANCH   2   5
ATOM      5  C9  UNL     1      24.590  -8.192 -42.120  0.00  0.00    +0.000 A 
ATOM      6  C10 UNL     1      24.220  -7.653 -40.876  0.00  0.00    +0.000 A 
ATOM      7  C11 UNL     1      24.984  -7.906 -39.734  0.00  0.00    +0.000 A 
ATOM      8  C12 UNL     1      26.132  -8.712 -39.807  0.00  0.00    +0.000 A 
ATOM      9  C20 UNL     1      26.495  -9.263 -41.048  0.00  0.00    +0.000 A 
ATOM     10  C21 UNL     1      25.731  -9.010 -42.191  0.00  0.00    +0.000 A 
BRANCH   8  11
ATOM     11  C13 UNL     1      26.951  -8.988 -38.604  0.00  0.00    +0.000 A 
ATOM     12  N3  UNL     1      26.416  -9.215 -37.376  0.00  0.00    +0.000 NA
ATOM     13  C14 UNL     1      27.380  -9.441 -36.447  0.00  0.00    +0.000 A 
ATOM     14  C15 UNL     1      27.132  -9.699 -35.098  0.00  0.00    +0.000 A 
ATOM     15  C16 UNL     1      28.223  -9.916 -34.240  0.00  0.00    +0.000 A 
ATOM     16  C17 UNL     1      29.543  -9.872 -34.737  0.00  0.00    +0.000 A 
ATOM     17  C18 UNL     1      29.780  -9.610 -36.096  0.00  0.00    +0.000 A 
ATOM     18  C19 UNL     1      28.681  -9.400 -36.924  0.00  0.00    +0.000 A 
ATOM     19  S1  UNL     1      28.649  -9.066 -38.567  0.00  0.00    +0.000 S 
ENDBRANCH   8  11
ENDBRANCH   2   5
BRANCH   1  21
ATOM     20  C7  UNL     1      20.852  -6.295 -44.344  0.00  0.00    +0.000 C 
ATOM     21  N1  UNL     1      21.616  -7.342 -44.359  0.00  0.00    +0.000 NA
BRANCH  20  27
ATOM     22  C2  UNL     1      17.932  -7.031 -46.072  0.00  0.00    +0.000 C 
ATOM     23  C3  UNL     1      18.584  -7.835 -47.125  0.00  0.00    +0.000 C 
ATOM     24  C4  UNL     1      19.860  -7.648 -47.461  0.00  0.00    +0.000 C 
ATOM     25  C5  UNL     1      20.669  -6.633 -46.774  0.00  0.00    +0.000 C 
ATOM     26  O2  UNL     1      21.842  -6.401 -47.171  0.00  0.00    +0.000 OA
ATOM     27  C6  UNL     1      20.118  -5.883 -45.585  0.00  0.00    +0.000 C 
ATOM     28  C22 UNL     1      18.637  -6.113 -45.380  0.00  0.00    +0.000 C 
BRANCH  22  30
ATOM     29  C1  UNL     1      15.562  -6.252 -45.798  0.00  0.00    +0.000 C 
ATOM     30  O1  UNL     1      16.566  -7.262 -45.839  0.00  0.00    +0.000 OA
ENDBRANCH  22  30
ENDBRANCH  20  27
ENDBRANCH   1  21
TORSDOF 5
ENDMDL
MODEL 7
REMARK VINA RESULT:    -5.473      2.986      3.507
REMARK INTER + INTRA:          -7.590
REMARK INTER:                  -7.072
REMARK INTRA:                  -0.519
REMARK UNBOUND:                -0.518
REMARK  Name = resultss/4CJN/ligands/lig_161_t2.pdb
REMARK  6 active torsions:
REMARK  status: ('A' for Active; 'I' for Inactive)
REMARK    1  A    between atoms: C1_1  and  O1_2
REMARK    2  A    between atoms: O1_2  and  C2_3
REMARK    3  A    between atoms: C6_8  and  C7_9
REMARK    4  A    between atoms: N1_10  and  N2_11
REMARK    5  A    between atoms: C8_12  and  C9_14
REMARK    6  A    between atoms: C12_17  and  C13_18
REMARK                            x       y       z     vdW  Elec       q    Type
REMARK                         _______ _______ _______ _____ _____    ______ ____
ROOT
ATOM      1  N2  UNL     1      24.529  -8.262 -38.677  0.00  0.00    +0.000 N 
ATOM      2  C8  UNL     1      25.078  -7.427 -39.705  0.00  0.00    +0.000 C 
ATOM      3  O3  UNL     1      26.118  -6.755 -39.462  0.00  0.00    +0.000 OA
ATOM      4  H8  UNL     1      23.581  -8.686 -38.797  0.00  0.00    +0.000 HD
ENDROOT
BRANCH   2   5
ATOM      5  C9  UNL     1      24.438  -7.324 -41.038  0.00  0.00    +0.000 A 
ATOM      6  C10 UNL     1      23.075  -6.996 -41.141  0.00  0.00    +0.000 A 
ATOM      7  C11 UNL     1      22.459  -6.893 -42.390  0.00  0.00    +0.000 A 
ATOM      8  C12 UNL     1      23.194  -7.106 -43.569  0.00  0.00    +0.000 A 
ATOM      9  C20 UNL     1      24.559  -7.420 -43.468  0.00  0.00    +0.000 A 
ATOM     10  C21 UNL     1      25.176  -7.524 -42.218  0.00  0.00    +0.000 A 
BRANCH   8  11
ATOM     11  C13 UNL     1      22.552  -7.000 -44.900  0.00  0.00    +0.000 A 
ATOM     12  N3  UNL     1      21.206  -7.042 -45.082  0.00  0.00    +0.000 NA
ATOM     13  C14 UNL     1      20.878  -6.924 -46.394  0.00  0.00    +0.000 A 
ATOM     14  C15 UNL     1      19.572  -6.938 -46.885  0.00  0.00    +0.000 A 
ATOM     15  C16 UNL     1      19.370  -6.807 -48.269  0.00  0.00    +0.000 A 
ATOM     16  C17 UNL     1      20.469  -6.664 -49.142  0.00  0.00    +0.000 A 
ATOM     17  C18 UNL     1      21.778  -6.654 -48.636  0.00  0.00    +0.000 A 
ATOM     18  C19 UNL     1      21.950  -6.784 -47.260  0.00  0.00    +0.000 A 
ATOM     19  S1  UNL     1      23.374  -6.811 -46.376  0.00  0.00    +0.000 S 
ENDBRANCH   8  11
ENDBRANCH   2   5
BRANCH   1  21
ATOM     20  C7  UNL     1      26.229  -9.268 -37.388  0.00  0.00    +0.000 C 
ATOM     21  N1  UNL     1      25.230  -8.447 -37.475  0.00  0.00    +0.000 NA
BRANCH  20  27
ATOM     22  C2  UNL     1      25.735  -8.865 -33.976  0.00  0.00    +0.000 C 
ATOM     23  C3  UNL     1      26.459  -7.581 -33.873  0.00  0.00    +0.000 C 
ATOM     24  C4  UNL     1      27.418  -7.247 -34.736  0.00  0.00    +0.000 C 
ATOM     25  C5  UNL     1      27.777  -8.151 -35.836  0.00  0.00    +0.000 C 
ATOM     26  O2  UNL     1      28.752  -7.864 -36.582  0.00  0.00    +0.000 OA
ATOM     27  C6  UNL     1      26.978  -9.405 -36.096  0.00  0.00    +0.000 C 
ATOM     28  C22 UNL     1      25.995  -9.716 -34.989  0.00  0.00    +0.000 C 
BRANCH  22  30
ATOM     29  C1  UNL     1      23.438  -8.696 -32.980  0.00  0.00    +0.000 C 
ATOM     30  O1  UNL     1      24.788  -9.151 -32.978  0.00  0.00    +0.000 OA
ENDBRANCH  22  30
ENDBRANCH  20  27
ENDBRANCH   1  21
TORSDOF 5
ENDMDL
MODEL 8
REMARK VINA RESULT:    -5.112      2.737      3.572
REMARK INTER + INTRA:          -7.124
REMARK INTER:                  -6.805
REMARK INTRA:                  -0.319
REMARK UNBOUND:                -0.518
REMARK  Name = resultss/4CJN/ligands/lig_161_t2.pdb
REMARK  6 active torsions:
REMARK  status: ('A' for Active; 'I' for Inactive)
REMARK    1  A    between atoms: C1_1  and  O1_2
REMARK    2  A    between atoms: O1_2  and  C2_3
REMARK    3  A    between atoms: C6_8  and  C7_9
REMARK    4  A    between atoms: N1_10  and  N2_11
REMARK    5  A    between atoms: C8_12  and  C9_14
REMARK    6  A    between atoms: C12_17  and  C13_18
REMARK                            x       y       z     vdW  Elec       q    Type
REMARK                         _______ _______ _______ _____ _____    ______ ____
ROOT
ATOM      1  N2  UNL     1      27.018  -8.243 -39.730  0.00  0.00    +0.000 N 
ATOM      2  C8  UNL     1      27.149  -8.832 -41.029  0.00  0.00    +0.000 C 
ATOM      3  O3  UNL     1      28.070  -9.670 -41.236  0.00  0.00    +0.000 OA
ATOM      4  H8  UNL     1      26.381  -7.426 -39.586  0.00  0.00    +0.000 HD
ENDROOT
BRANCH   2   5
ATOM      5  C9  UNL     1      26.236  -8.464 -42.138  0.00  0.00    +0.000 A 
ATOM      6  C10 UNL     1      24.855  -8.695 -42.018  0.00  0.00    +0.000 A 
ATOM      7  C11 UNL     1      23.981  -8.351 -43.052  0.00  0.00    +0.000 A 
ATOM      8  C12 UNL     1      24.468  -7.759 -44.230  0.00  0.00    +0.000 A 
ATOM      9  C20 UNL     1      25.847  -7.515 -44.346  0.00  0.00    +0.000 A 
ATOM     10  C21 UNL     1      26.721  -7.859 -43.310  0.00  0.00    +0.000 A 
BRANCH   8  11
ATOM     11  C13 UNL     1      23.553  -7.390 -45.335  0.00  0.00    +0.000 A 
ATOM     12  N3  UNL     1      22.212  -7.245 -45.174  0.00  0.00    +0.000 NA
ATOM     13  C14 UNL     1      21.604  -6.904 -46.338  0.00  0.00    +0.000 A 
ATOM     14  C15 UNL     1      20.233  -6.692 -46.480  0.00  0.00    +0.000 A 
ATOM     15  C16 UNL     1      19.731  -6.344 -47.746  0.00  0.00    +0.000 A 
ATOM     16  C17 UNL     1      20.600  -6.212 -48.849  0.00  0.00    +0.000 A 
ATOM     17  C18 UNL     1      21.979  -6.429 -48.693  0.00  0.00    +0.000 A 
ATOM     18  C19 UNL     1      22.450  -6.772 -47.429  0.00  0.00    +0.000 A 
ATOM     19  S1  UNL     1      24.022  -7.093 -46.942  0.00  0.00    +0.000 S 
ENDBRANCH   8  11
ENDBRANCH   2   5
BRANCH   1  21
ATOM     20  C7  UNL     1      27.500  -9.786 -38.012  0.00  0.00    +0.000 C 
ATOM     21  N1  UNL     1      27.806  -8.709 -38.665  0.00  0.00    +0.000 NA
BRANCH  20  27
ATOM     22  C2  UNL     1      28.310  -9.031 -34.723  0.00  0.00    +0.000 C 
ATOM     23  C3  UNL     1      29.605  -8.392 -35.033  0.00  0.00    +0.000 C 
ATOM     24  C4  UNL     1      30.295  -8.705 -36.129  0.00  0.00    +0.000 C 
ATOM     25  C5  UNL     1      29.774  -9.696 -37.080  0.00  0.00    +0.000 C 
ATOM     26  O2  UNL     1      30.485 -10.052 -38.058  0.00  0.00    +0.000 OA
ATOM     27  C6  UNL     1      28.390 -10.275 -36.909  0.00  0.00    +0.000 C 
ATOM     28  C22 UNL     1      27.764  -9.919 -35.578  0.00  0.00    +0.000 C 
BRANCH  22  30
ATOM     29  C1  UNL     1      27.149  -7.399 -33.211  0.00  0.00    +0.000 C 
ATOM     30  O1  UNL     1      27.694  -8.680 -33.509  0.00  0.00    +0.000 OA
ENDBRANCH  22  30
ENDBRANCH  20  27
ENDBRANCH   1  21
TORSDOF 5
ENDMDL
MODEL 9
REMARK VINA RESULT:    -5.084      5.158     10.578
REMARK INTER + INTRA:          -7.088
REMARK INTER:                  -6.781
REMARK INTRA:                  -0.307
REMARK UNBOUND:                -0.518
REMARK  Name = resultss/4CJN/ligands/lig_161_t2.pdb
REMARK  6 active torsions:
REMARK  status: ('A' for Active; 'I' for Inactive)
REMARK    1  A    between atoms: C1_1  and  O1_2
REMARK    2  A    between atoms: O1_2  and  C2_3
REMARK    3  A    between atoms: C6_8  and  C7_9
REMARK    4  A    between atoms: N1_10  and  N2_11
REMARK    5  A    between atoms: C8_12  and  C9_14
REMARK    6  A    between atoms: C12_17  and  C13_18
REMARK                            x       y       z     vdW  Elec       q    Type
REMARK                         _______ _______ _______ _____ _____    ______ ____
ROOT
ATOM      1  N2  UNL     1      22.988  -7.843 -44.172  0.00  0.00    +0.000 N 
ATOM      2  C8  UNL     1      24.357  -7.577 -44.503  0.00  0.00    +0.000 C 
ATOM      3  O3  UNL     1      24.631  -7.061 -45.622  0.00  0.00    +0.000 OA
ATOM      4  H8  UNL     1      22.755  -8.425 -43.335  0.00  0.00    +0.000 HD
ENDROOT
BRANCH   2   5
ATOM      5  C9  UNL     1      25.456  -7.913 -43.566  0.00  0.00    +0.000 A 
ATOM      6  C10 UNL     1      26.573  -7.068 -43.461  0.00  0.00    +0.000 A 
ATOM      7  C11 UNL     1      27.615  -7.370 -42.580  0.00  0.00    +0.000 A 
ATOM      8  C12 UNL     1      27.560  -8.521 -41.777  0.00  0.00    +0.000 A 
ATOM      9  C20 UNL     1      26.437  -9.360 -41.871  0.00  0.00    +0.000 A 
ATOM     10  C21 UNL     1      25.394  -9.058 -42.752  0.00  0.00    +0.000 A 
BRANCH   8  11
ATOM     11  C13 UNL     1      28.659  -8.853 -40.840  0.00  0.00    +0.000 A 
ATOM     12  N3  UNL     1      28.464  -9.071 -39.514  0.00  0.00    +0.000 NA
ATOM     13  C14 UNL     1      29.630  -9.358 -38.880  0.00  0.00    +0.000 A 
ATOM     14  C15 UNL     1      29.742  -9.622 -37.514  0.00  0.00    +0.000 A 
ATOM     15  C16 UNL     1      31.012  -9.904 -36.984  0.00  0.00    +0.000 A 
ATOM     16  C17 UNL     1      32.149  -9.919 -37.819  0.00  0.00    +0.000 A 
ATOM     17  C18 UNL     1      32.023  -9.650 -39.191  0.00  0.00    +0.000 A 
ATOM     18  C19 UNL     1      30.754  -9.374 -39.691  0.00  0.00    +0.000 A 
ATOM     19  S1  UNL     1      30.297  -9.016 -41.264  0.00  0.00    +0.000 S 
ENDBRANCH   8  11
ENDBRANCH   2   5
BRANCH   1  21
ATOM     20  C7  UNL     1      21.236  -6.360 -44.714  0.00  0.00    +0.000 C 
ATOM     21  N1  UNL     1      21.962  -7.390 -45.016  0.00  0.00    +0.000 NA
BRANCH  20  27
ATOM     22  C2  UNL     1      17.909  -6.960 -45.500  0.00  0.00    +0.000 C 
ATOM     23  C3  UNL     1      18.185  -7.738 -46.725  0.00  0.00    +0.000 C 
ATOM     24  C4  UNL     1      19.306  -7.567 -47.425  0.00  0.00    +0.000 C 
ATOM     25  C5  UNL     1      20.319  -6.599 -46.983  0.00  0.00    +0.000 C 
ATOM     26  O2  UNL     1      21.325  -6.379 -47.709  0.00  0.00    +0.000 OA
ATOM     27  C6  UNL     1      20.177  -5.883 -45.662  0.00  0.00    +0.000 C 
ATOM     28  C22 UNL     1      18.819  -6.086 -45.026  0.00  0.00    +0.000 C 
BRANCH  22  30
ATOM     29  C1  UNL     1      16.407  -6.953 -43.489  0.00  0.00    +0.000 C 
ATOM     30  O1  UNL     1      16.668  -7.168 -44.873  0.00  0.00    +0.000 OA
ENDBRANCH  22  30
ENDBRANCH  20  27
ENDBRANCH   1  21
TORSDOF 5
ENDMDL
