MODEL 1
REMARK VINA RESULT:    -7.432      0.000      0.000
REMARK INTER + INTRA:         -10.276
REMARK INTER:                  -9.821
REMARK INTRA:                  -0.455
REMARK UNBOUND:                -0.455
REMARK  Name = resultss/4CJN/ligands/lig_425_t2.pdb
REMARK  7 active torsions:
REMARK  status: ('A' for Active; 'I' for Inactive)
REMARK    1  A    between atoms: C1_1  and  O1_2
REMARK    2  A    between atoms: O1_2  and  C2_3
REMARK    3  A    between atoms: C6_7  and  N1_8
REMARK    4  A    between atoms: C7_9  and  S1_10
REMARK    5  A    between atoms: N2_11  and  N3_12
REMARK    6  A    between atoms: C8_13  and  C9_15
REMARK    7  A    between atoms: C19_26  and  C20_27
REMARK                            x       y       z     vdW  Elec       q    Type
REMARK                         _______ _______ _______ _____ _____    ______ ____
ROOT
ATOM      1  C9  UNL     1      26.625  -9.448 -41.728  0.00  0.00    +0.000 A 
ATOM      2  C10 UNL     1      26.318  -9.286 -40.360  0.00  0.00    +0.000 A 
ATOM      3  C11 UNL     1      27.317  -9.588 -39.443  0.00  0.00    +0.000 A 
ATOM      4  C12 UNL     1      28.566 -10.020 -39.836  0.00  0.00    +0.000 A 
ATOM      5  N4  UNL     1      29.344 -10.312 -38.767  0.00  0.00    +0.000 N 
ATOM      6  C13 UNL     1      28.573 -10.038 -37.693  0.00  0.00    +0.000 A 
ATOM      7  C14 UNL     1      28.917 -10.185 -36.350  0.00  0.00    +0.000 A 
ATOM      8  C15 UNL     1      27.949  -9.858 -35.382  0.00  0.00    +0.000 A 
ATOM      9  C16 UNL     1      26.670  -9.400 -35.771  0.00  0.00    +0.000 A 
ATOM     10  C17 UNL     1      26.344  -9.265 -37.132  0.00  0.00    +0.000 A 
ATOM     11  C18 UNL     1      27.324  -9.590 -38.068  0.00  0.00    +0.000 A 
ATOM     12  C19 UNL     1      28.866 -10.159 -41.198  0.00  0.00    +0.000 A 
ATOM     13  N5  UNL     1      27.876  -9.875 -42.097  0.00  0.00    +0.000 NA
ATOM     14  H11 UNL     1      30.314 -10.700 -38.758  0.00  0.00    +0.000 HD
ENDROOT
BRANCH  12  15
ATOM     15  C20 UNL     1      30.188 -10.600 -41.690  0.00  0.00    +0.000 A 
ATOM     16  C21 UNL     1      31.358  -9.898 -41.349  0.00  0.00    +0.000 A 
ATOM     17  C22 UNL     1      32.598 -10.313 -41.844  0.00  0.00    +0.000 A 
ATOM     18  C23 UNL     1      32.680 -11.420 -42.693  0.00  0.00    +0.000 A 
ATOM     19  C24 UNL     1      31.519 -12.110 -43.054  0.00  0.00    +0.000 A 
ATOM     20  C25 UNL     1      30.277 -11.698 -42.562  0.00  0.00    +0.000 A 
ENDBRANCH  12  15
BRANCH   1  22
ATOM     21  N3  UNL     1      25.708  -7.963 -43.558  0.00  0.00    +0.000 N 
ATOM     22  C8  UNL     1      25.618  -9.160 -42.771  0.00  0.00    +0.000 C 
ATOM     23  O2  UNL     1      24.682  -9.977 -42.982  0.00  0.00    +0.000 OA
ATOM     24  H9  UNL     1      26.624  -7.464 -43.614  0.00  0.00    +0.000 HD
BRANCH  21  27
ATOM     25  N1  UNL     1      23.927  -6.782 -46.572  0.00  0.00    +0.000 N 
ATOM     26  C7  UNL     1      24.989  -7.093 -45.660  0.00  0.00    +0.000 C 
ATOM     27  N2  UNL     1      24.725  -7.634 -44.506  0.00  0.00    +0.000 NA
ATOM     28  H7  UNL     1      24.172  -6.680 -47.582  0.00  0.00    +0.000 HD
BRANCH  25  33
ATOM     29  C2  UNL     1      20.195  -7.148 -46.704  0.00  0.00    +0.000 A 
ATOM     30  C3  UNL     1      19.821  -6.469 -45.540  0.00  0.00    +0.000 A 
ATOM     31  C4  UNL     1      20.787  -5.885 -44.719  0.00  0.00    +0.000 A 
ATOM     32  C5  UNL     1      22.140  -5.985 -45.047  0.00  0.00    +0.000 A 
ATOM     33  C6  UNL     1      22.540  -6.684 -46.199  0.00  0.00    +0.000 A 
ATOM     34  C26 UNL     1      21.561  -7.246 -47.035  0.00  0.00    +0.000 A 
BRANCH  29  36
ATOM     35  C1  UNL     1      17.795  -7.644 -47.201  0.00  0.00    +0.000 C 
ATOM     36  O1  UNL     1      19.186  -7.709 -47.502  0.00  0.00    +0.000 OA
ENDBRANCH  29  36
ENDBRANCH  25  33
BRANCH  26  37
ATOM     37  S1  UNL     1      26.685  -6.871 -46.215  0.00  0.00    +0.000 S 
ATOM     38  H8  UNL     1      26.615  -5.475 -46.066  0.00  0.00    +0.000 HD
ENDBRANCH  26  37
ENDBRANCH  21  27
ENDBRANCH   1  22
TORSDOF 6
ENDMDL
MODEL 2
REMARK VINA RESULT:    -7.391      3.634      9.316
REMARK INTER + INTRA:         -10.222
REMARK INTER:                 -10.066
REMARK INTRA:                  -0.156
REMARK UNBOUND:                -0.455
REMARK  Name = resultss/4CJN/ligands/lig_425_t2.pdb
REMARK  7 active torsions:
REMARK  status: ('A' for Active; 'I' for Inactive)
REMARK    1  A    between atoms: C1_1  and  O1_2
REMARK    2  A    between atoms: O1_2  and  C2_3
REMARK    3  A    between atoms: C6_7  and  N1_8
REMARK    4  A    between atoms: C7_9  and  S1_10
REMARK    5  A    between atoms: N2_11  and  N3_12
REMARK    6  A    between atoms: C8_13  and  C9_15
REMARK    7  A    between atoms: C19_26  and  C20_27
REMARK                            x       y       z     vdW  Elec       q    Type
REMARK                         _______ _______ _______ _____ _____    ______ ____
ROOT
ATOM      1  C9  UNL     1      27.504  -9.674 -41.246  0.00  0.00    +0.000 A 
ATOM      2  C10 UNL     1      26.635  -9.152 -42.227  0.00  0.00    +0.000 A 
ATOM      3  C11 UNL     1      25.478  -8.522 -41.784  0.00  0.00    +0.000 A 
ATOM      4  C12 UNL     1      25.181  -8.395 -40.444  0.00  0.00    +0.000 A 
ATOM      5  N4  UNL     1      23.976  -7.805 -40.261  0.00  0.00    +0.000 N 
ATOM      6  C13 UNL     1      23.526  -7.545 -41.508  0.00  0.00    +0.000 A 
ATOM      7  C14 UNL     1      22.315  -6.949 -41.859  0.00  0.00    +0.000 A 
ATOM      8  C15 UNL     1      22.032  -6.788 -43.228  0.00  0.00    +0.000 A 
ATOM      9  C16 UNL     1      22.952  -7.224 -44.208  0.00  0.00    +0.000 A 
ATOM     10  C17 UNL     1      24.165  -7.827 -43.830  0.00  0.00    +0.000 A 
ATOM     11  C18 UNL     1      24.421  -7.968 -42.468  0.00  0.00    +0.000 A 
ATOM     12  C19 UNL     1      26.061  -8.900 -39.478  0.00  0.00    +0.000 A 
ATOM     13  N5  UNL     1      27.191  -9.532 -39.917  0.00  0.00    +0.000 NA
ATOM     14  H11 UNL     1      23.474  -7.621 -39.364  0.00  0.00    +0.000 HD
ENDROOT
BRANCH  12  15
ATOM     15  C20 UNL     1      25.815  -8.782 -38.025  0.00  0.00    +0.000 A 
ATOM     16  C21 UNL     1      26.685  -9.376 -37.093  0.00  0.00    +0.000 A 
ATOM     17  C22 UNL     1      26.424  -9.277 -35.723  0.00  0.00    +0.000 A 
ATOM     18  C23 UNL     1      25.287  -8.600 -35.272  0.00  0.00    +0.000 A 
ATOM     19  C24 UNL     1      24.406  -8.027 -36.193  0.00  0.00    +0.000 A 
ATOM     20  C25 UNL     1      24.663  -8.123 -37.564  0.00  0.00    +0.000 A 
ENDBRANCH  12  15
BRANCH   1  22
ATOM     21  N3  UNL     1      29.707  -9.727 -42.486  0.00  0.00    +0.000 N 
ATOM     22  C8  UNL     1      28.751 -10.368 -41.629  0.00  0.00    +0.000 C 
ATOM     23  O2  UNL     1      28.986 -11.526 -41.188  0.00  0.00    +0.000 OA
ATOM     24  H9  UNL     1      29.678  -8.687 -42.585  0.00  0.00    +0.000 HD
BRANCH  21  27
ATOM     25  N1  UNL     1      33.128 -11.091 -42.772  0.00  0.00    +0.000 N 
ATOM     26  C7  UNL     1      31.987 -10.389 -42.260  0.00  0.00    +0.000 C 
ATOM     27  N2  UNL     1      30.865 -10.393 -42.919  0.00  0.00    +0.000 NA
ATOM     28  H7  UNL     1      33.876 -11.359 -42.094  0.00  0.00    +0.000 HD
BRANCH  25  33
ATOM     29  C2  UNL     1      33.073 -13.290 -45.812  0.00  0.00    +0.000 A 
ATOM     30  C3  UNL     1      33.584 -12.418 -46.779  0.00  0.00    +0.000 A 
ATOM     31  C4  UNL     1      33.954 -11.117 -46.435  0.00  0.00    +0.000 A 
ATOM     32  C5  UNL     1      33.805 -10.669 -45.121  0.00  0.00    +0.000 A 
ATOM     33  C6  UNL     1      33.271 -11.521 -44.139  0.00  0.00    +0.000 A 
ATOM     34  C26 UNL     1      32.925 -12.837 -44.486  0.00  0.00    +0.000 A 
BRANCH  29  36
ATOM     35  C1  UNL     1      33.509 -15.405 -47.073  0.00  0.00    +0.000 C 
ATOM     36  O1  UNL     1      32.725 -14.591 -46.206  0.00  0.00    +0.000 OA
ENDBRANCH  29  36
ENDBRANCH  25  33
BRANCH  26  37
ATOM     37  S1  UNL     1      32.100  -9.656 -40.622  0.00  0.00    +0.000 S 
ATOM     38  H8  UNL     1      32.826 -10.748 -40.116  0.00  0.00    +0.000 HD
ENDBRANCH  26  37
ENDBRANCH  21  27
ENDBRANCH   1  22
TORSDOF 6
ENDMDL
MODEL 3
REMARK VINA RESULT:    -7.144      0.914      1.556
REMARK INTER + INTRA:          -9.897
REMARK INTER:                  -9.640
REMARK INTRA:                  -0.257
REMARK UNBOUND:                -0.455
REMARK  Name = resultss/4CJN/ligands/lig_425_t2.pdb
REMARK  7 active torsions:
REMARK  status: ('A' for Active; 'I' for Inactive)
REMARK    1  A    between atoms: C1_1  and  O1_2
REMARK    2  A    between atoms: O1_2  and  C2_3
REMARK    3  A    between atoms: C6_7  and  N1_8
REMARK    4  A    between atoms: C7_9  and  S1_10
REMARK    5  A    between atoms: N2_11  and  N3_12
REMARK    6  A    between atoms: C8_13  and  C9_15
REMARK    7  A    between atoms: C19_26  and  C20_27
REMARK                            x       y       z     vdW  Elec       q    Type
REMARK                         _______ _______ _______ _____ _____    ______ ____
ROOT
ATOM      1  C9  UNL     1      26.600  -9.430 -41.733  0.00  0.00    +0.000 A 
ATOM      2  C10 UNL     1      26.265  -9.273 -40.371  0.00  0.00    +0.000 A 
ATOM      3  C11 UNL     1      27.253  -9.556 -39.436  0.00  0.00    +0.000 A 
ATOM      4  C12 UNL     1      28.517  -9.965 -39.806  0.00  0.00    +0.000 A 
ATOM      5  N4  UNL     1      29.281 -10.241 -38.723  0.00  0.00    +0.000 N 
ATOM      6  C13 UNL     1      28.485  -9.982 -37.663  0.00  0.00    +0.000 A 
ATOM      7  C14 UNL     1      28.808 -10.121 -36.314  0.00  0.00    +0.000 A 
ATOM      8  C15 UNL     1      27.817  -9.812 -35.364  0.00  0.00    +0.000 A 
ATOM      9  C16 UNL     1      26.537  -9.378 -35.776  0.00  0.00    +0.000 A 
ATOM     10  C17 UNL     1      26.232  -9.250 -37.143  0.00  0.00    +0.000 A 
ATOM     11  C18 UNL     1      27.235  -9.557 -38.061  0.00  0.00    +0.000 A 
ATOM     12  C19 UNL     1      28.844 -10.099 -41.162  0.00  0.00    +0.000 A 
ATOM     13  N5  UNL     1      27.865  -9.834 -42.079  0.00  0.00    +0.000 NA
ATOM     14  H11 UNL     1      30.257 -10.612 -38.696  0.00  0.00    +0.000 HD
ENDROOT
BRANCH  12  15
ATOM     15  C20 UNL     1      30.183 -10.515 -41.630  0.00  0.00    +0.000 A 
ATOM     16  C21 UNL     1      31.331  -9.784 -41.280  0.00  0.00    +0.000 A 
ATOM     17  C22 UNL     1      32.588 -10.176 -41.752  0.00  0.00    +0.000 A 
ATOM     18  C23 UNL     1      32.706 -11.291 -42.588  0.00  0.00    +0.000 A 
ATOM     19  C24 UNL     1      31.567 -12.010 -42.958  0.00  0.00    +0.000 A 
ATOM     20  C25 UNL     1      30.309 -11.620 -42.488  0.00  0.00    +0.000 A 
ENDBRANCH  12  15
BRANCH   1  22
ATOM     21  N3  UNL     1      25.765  -8.035 -43.670  0.00  0.00    +0.000 N 
ATOM     22  C8  UNL     1      25.607  -9.161 -42.794  0.00  0.00    +0.000 C 
ATOM     23  O2  UNL     1      24.622  -9.934 -42.942  0.00  0.00    +0.000 OA
ATOM     24  H9  UNL     1      26.708  -7.599 -43.764  0.00  0.00    +0.000 HD
BRANCH  21  27
ATOM     25  N1  UNL     1      24.027  -6.836 -46.702  0.00  0.00    +0.000 N 
ATOM     26  C7  UNL     1      25.073  -7.127 -45.765  0.00  0.00    +0.000 C 
ATOM     27  N2  UNL     1      24.798  -7.721 -44.639  0.00  0.00    +0.000 NA
ATOM     28  H7  UNL     1      24.299  -6.687 -47.699  0.00  0.00    +0.000 HD
BRANCH  25  33
ATOM     29  C2  UNL     1      20.862  -6.428 -44.728  0.00  0.00    +0.000 A 
ATOM     30  C3  UNL     1      19.908  -6.817 -45.674  0.00  0.00    +0.000 A 
ATOM     31  C4  UNL     1      20.300  -7.221 -46.952  0.00  0.00    +0.000 A 
ATOM     32  C5  UNL     1      21.652  -7.228 -47.301  0.00  0.00    +0.000 A 
ATOM     33  C6  UNL     1      22.625  -6.816 -46.374  0.00  0.00    +0.000 A 
ATOM     34  C26 UNL     1      22.226  -6.437 -45.083  0.00  0.00    +0.000 A 
BRANCH  29  36
ATOM     35  C1  UNL     1      21.115  -6.311 -42.243  0.00  0.00    +0.000 C 
ATOM     36  O1  UNL     1      20.418  -6.040 -43.455  0.00  0.00    +0.000 OA
ENDBRANCH  29  36
ENDBRANCH  25  33
BRANCH  26  37
ATOM     37  S1  UNL     1      26.773  -6.807 -46.255  0.00  0.00    +0.000 S 
ATOM     38  H8  UNL     1      26.893  -5.732 -45.357  0.00  0.00    +0.000 HD
ENDBRANCH  26  37
ENDBRANCH  21  27
ENDBRANCH   1  22
TORSDOF 6
ENDMDL
MODEL 4
REMARK VINA RESULT:    -7.113      2.765      9.443
REMARK INTER + INTRA:          -9.855
REMARK INTER:                  -9.576
REMARK INTRA:                  -0.278
REMARK UNBOUND:                -0.455
REMARK  Name = resultss/4CJN/ligands/lig_425_t2.pdb
REMARK  7 active torsions:
REMARK  status: ('A' for Active; 'I' for Inactive)
REMARK    1  A    between atoms: C1_1  and  O1_2
REMARK    2  A    between atoms: O1_2  and  C2_3
REMARK    3  A    between atoms: C6_7  and  N1_8
REMARK    4  A    between atoms: C7_9  and  S1_10
REMARK    5  A    between atoms: N2_11  and  N3_12
REMARK    6  A    between atoms: C8_13  and  C9_15
REMARK    7  A    between atoms: C19_26  and  C20_27
REMARK                            x       y       z     vdW  Elec       q    Type
REMARK                         _______ _______ _______ _____ _____    ______ ____
ROOT
ATOM      1  C9  UNL     1      25.219  -8.106 -42.539  0.00  0.00    +0.000 A 
ATOM      2  C10 UNL     1      23.818  -7.958 -42.469  0.00  0.00    +0.000 A 
ATOM      3  C11 UNL     1      23.176  -7.434 -43.584  0.00  0.00    +0.000 A 
ATOM      4  C12 UNL     1      23.863  -7.077 -44.725  0.00  0.00    +0.000 A 
ATOM      5  N4  UNL     1      23.036  -6.532 -45.648  0.00  0.00    +0.000 N 
ATOM      6  C13 UNL     1      21.811  -6.570 -45.079  0.00  0.00    +0.000 A 
ATOM      7  C14 UNL     1      20.614  -6.113 -45.627  0.00  0.00    +0.000 A 
ATOM      8  C15 UNL     1      19.445  -6.231 -44.851  0.00  0.00    +0.000 A 
ATOM      9  C16 UNL     1      19.498  -6.792 -43.555  0.00  0.00    +0.000 A 
ATOM     10  C17 UNL     1      20.718  -7.241 -43.021  0.00  0.00    +0.000 A 
ATOM     11  C18 UNL     1      21.857  -7.118 -43.814  0.00  0.00    +0.000 A 
ATOM     12  C19 UNL     1      25.252  -7.246 -44.790  0.00  0.00    +0.000 A 
ATOM     13  N5  UNL     1      25.883  -7.748 -43.685  0.00  0.00    +0.000 NA
ATOM     14  H11 UNL     1      23.279  -6.132 -46.581  0.00  0.00    +0.000 HD
ENDROOT
BRANCH  12  15
ATOM     15  C20 UNL     1      26.050  -6.902 -45.986  0.00  0.00    +0.000 A 
ATOM     16  C21 UNL     1      25.549  -7.129 -47.280  0.00  0.00    +0.000 A 
ATOM     17  C22 UNL     1      26.327  -6.821 -48.401  0.00  0.00    +0.000 A 
ATOM     18  C23 UNL     1      27.613  -6.299 -48.240  0.00  0.00    +0.000 A 
ATOM     19  C24 UNL     1      28.126  -6.090 -46.958  0.00  0.00    +0.000 A 
ATOM     20  C25 UNL     1      27.352  -6.397 -45.834  0.00  0.00    +0.000 A 
ENDBRANCH  12  15
BRANCH   1  22
ATOM     21  N3  UNL     1      27.349  -8.258 -41.184  0.00  0.00    +0.000 N 
ATOM     22  C8  UNL     1      25.983  -8.646 -41.395  0.00  0.00    +0.000 C 
ATOM     23  O2  UNL     1      25.428  -9.441 -40.589  0.00  0.00    +0.000 OA
ATOM     24  H9  UNL     1      27.700  -7.384 -41.635  0.00  0.00    +0.000 HD
BRANCH  21  27
ATOM     25  N1  UNL     1      29.696 -10.304 -39.195  0.00  0.00    +0.000 N 
ATOM     26  C7  UNL     1      28.954  -9.792 -40.311  0.00  0.00    +0.000 C 
ATOM     27  N2  UNL     1      28.115  -8.811 -40.145  0.00  0.00    +0.000 NA
ATOM     28  H7  UNL     1      30.577 -10.827 -39.400  0.00  0.00    +0.000 HD
BRANCH  25  33
ATOM     29  C2  UNL     1      27.639  -9.945 -36.078  0.00  0.00    +0.000 A 
ATOM     30  C3  UNL     1      28.623  -9.586 -35.151  0.00  0.00    +0.000 A 
ATOM     31  C4  UNL     1      29.956  -9.455 -35.547  0.00  0.00    +0.000 A 
ATOM     32  C5  UNL     1      30.320  -9.692 -36.874  0.00  0.00    +0.000 A 
ATOM     33  C6  UNL     1      29.350 -10.076 -37.817  0.00  0.00    +0.000 A 
ATOM     34  C26 UNL     1      28.008 -10.182 -37.417  0.00  0.00    +0.000 A 
BRANCH  29  36
ATOM     35  C1  UNL     1      25.902  -9.876 -34.280  0.00  0.00    +0.000 C 
ATOM     36  O1  UNL     1      26.313 -10.054 -35.633  0.00  0.00    +0.000 OA
ENDBRANCH  29  36
ENDBRANCH  25  33
BRANCH  26  37
ATOM     37  S1  UNL     1      29.334 -10.421 -41.952  0.00  0.00    +0.000 S 
ATOM     38  H8  UNL     1      27.979 -10.443 -42.323  0.00  0.00    +0.000 HD
ENDBRANCH  26  37
ENDBRANCH  21  27
ENDBRANCH   1  22
TORSDOF 6
ENDMDL
MODEL 5
REMARK VINA RESULT:    -7.064      1.949      2.647
REMARK INTER + INTRA:          -9.790
REMARK INTER:                  -9.695
REMARK INTRA:                  -0.095
REMARK UNBOUND:                -0.455
REMARK  Name = resultss/4CJN/ligands/lig_425_t2.pdb
REMARK  7 active torsions:
REMARK  status: ('A' for Active; 'I' for Inactive)
REMARK    1  A    between atoms: C1_1  and  O1_2
REMARK    2  A    between atoms: O1_2  and  C2_3
REMARK    3  A    between atoms: C6_7  and  N1_8
REMARK    4  A    between atoms: C7_9  and  S1_10
REMARK    5  A    between atoms: N2_11  and  N3_12
REMARK    6  A    between atoms: C8_13  and  C9_15
REMARK    7  A    between atoms: C19_26  and  C20_27
REMARK                            x       y       z     vdW  Elec       q    Type
REMARK                         _______ _______ _______ _____ _____    ______ ____
ROOT
ATOM      1  C9  UNL     1      27.232  -9.255 -41.862  0.00  0.00    +0.000 A 
ATOM      2  C10 UNL     1      27.395  -8.956 -40.493  0.00  0.00    +0.000 A 
ATOM      3  C11 UNL     1      28.584  -9.351 -39.892  0.00  0.00    +0.000 A 
ATOM      4  C12 UNL     1      29.578 -10.000 -40.592  0.00  0.00    +0.000 A 
ATOM      5  N4  UNL     1      30.609 -10.340 -39.782  0.00  0.00    +0.000 N 
ATOM      6  C13 UNL     1      30.257  -9.878 -38.563  0.00  0.00    +0.000 A 
ATOM      7  C14 UNL     1      30.984  -9.988 -37.379  0.00  0.00    +0.000 A 
ATOM      8  C15 UNL     1      30.422  -9.449 -36.206  0.00  0.00    +0.000 A 
ATOM      9  C16 UNL     1      29.156  -8.821 -36.240  0.00  0.00    +0.000 A 
ATOM     10  C17 UNL     1      28.438  -8.726 -37.446  0.00  0.00    +0.000 A 
ATOM     11  C18 UNL     1      29.023  -9.263 -38.591  0.00  0.00    +0.000 A 
ATOM     12  C19 UNL     1      29.413 -10.274 -41.956  0.00  0.00    +0.000 A 
ATOM     13  N5  UNL     1      28.236  -9.897 -42.541  0.00  0.00    +0.000 NA
ATOM     14  H11 UNL     1      31.473 -10.876 -40.023  0.00  0.00    +0.000 HD
ENDROOT
BRANCH  12  15
ATOM     15  C20 UNL     1      30.444 -10.950 -42.772  0.00  0.00    +0.000 A 
ATOM     16  C21 UNL     1      30.637 -12.340 -42.688  0.00  0.00    +0.000 A 
ATOM     17  C22 UNL     1      31.634 -12.961 -43.448  0.00  0.00    +0.000 A 
ATOM     18  C23 UNL     1      32.454 -12.199 -44.285  0.00  0.00    +0.000 A 
ATOM     19  C24 UNL     1      32.283 -10.814 -44.357  0.00  0.00    +0.000 A 
ATOM     20  C25 UNL     1      31.288 -10.190 -43.599  0.00  0.00    +0.000 A 
ENDBRANCH  12  15
BRANCH   1  22
ATOM     21  N3  UNL     1      25.665  -7.499 -42.788  0.00  0.00    +0.000 N 
ATOM     22  C8  UNL     1      25.994  -8.880 -42.578  0.00  0.00    +0.000 C 
ATOM     23  O2  UNL     1      25.228  -9.779 -43.020  0.00  0.00    +0.000 OA
ATOM     24  H9  UNL     1      26.424  -6.784 -42.720  0.00  0.00    +0.000 HD
BRANCH  21  27
ATOM     25  N1  UNL     1      22.216  -6.353 -43.452  0.00  0.00    +0.000 N 
ATOM     26  C7  UNL     1      23.411  -6.720 -42.748  0.00  0.00    +0.000 C 
ATOM     27  N2  UNL     1      24.462  -7.118 -43.405  0.00  0.00    +0.000 NA
ATOM     28  H7  UNL     1      21.536  -5.732 -42.959  0.00  0.00    +0.000 HD
BRANCH  25  33
ATOM     29  C2  UNL     1      22.744  -7.428 -47.007  0.00  0.00    +0.000 A 
ATOM     30  C3  UNL     1      21.434  -7.380 -47.496  0.00  0.00    +0.000 A 
ATOM     31  C4  UNL     1      20.382  -6.988 -46.666  0.00  0.00    +0.000 A 
ATOM     32  C5  UNL     1      20.628  -6.652 -45.334  0.00  0.00    +0.000 A 
ATOM     33  C6  UNL     1      21.933  -6.717 -44.816  0.00  0.00    +0.000 A 
ATOM     34  C26 UNL     1      22.990  -7.086 -45.663  0.00  0.00    +0.000 A 
BRANCH  29  36
ATOM     35  C1  UNL     1      24.969  -7.082 -48.096  0.00  0.00    +0.000 C 
ATOM     36  O1  UNL     1      23.768  -7.818 -47.885  0.00  0.00    +0.000 OA
ENDBRANCH  29  36
ENDBRANCH  25  33
BRANCH  26  37
ATOM     37  S1  UNL     1      23.471  -6.456 -40.971  0.00  0.00    +0.000 S 
ATOM     38  H8  UNL     1      24.592  -7.292 -40.824  0.00  0.00    +0.000 HD
ENDBRANCH  26  37
ENDBRANCH  21  27
ENDBRANCH   1  22
TORSDOF 6
ENDMDL
MODEL 6
REMARK VINA RESULT:    -6.975      2.809     10.264
REMARK INTER + INTRA:          -9.673
REMARK INTER:                  -9.503
REMARK INTRA:                  -0.170
REMARK UNBOUND:                -0.455
REMARK  Name = resultss/4CJN/ligands/lig_425_t2.pdb
REMARK  7 active torsions:
REMARK  status: ('A' for Active; 'I' for Inactive)
REMARK    1  A    between atoms: C1_1  and  O1_2
REMARK    2  A    between atoms: O1_2  and  C2_3
REMARK    3  A    between atoms: C6_7  and  N1_8
REMARK    4  A    between atoms: C7_9  and  S1_10
REMARK    5  A    between atoms: N2_11  and  N3_12
REMARK    6  A    between atoms: C8_13  and  C9_15
REMARK    7  A    between atoms: C19_26  and  C20_27
REMARK                            x       y       z     vdW  Elec       q    Type
REMARK                         _______ _______ _______ _____ _____    ______ ____
ROOT
ATOM      1  C9  UNL     1      25.941  -7.835 -42.755  0.00  0.00    +0.000 A 
ATOM      2  C10 UNL     1      26.701  -7.568 -43.913  0.00  0.00    +0.000 A 
ATOM      3  C11 UNL     1      26.017  -7.105 -45.031  0.00  0.00    +0.000 A 
ATOM      4  C12 UNL     1      24.654  -6.900 -45.023  0.00  0.00    +0.000 A 
ATOM      5  N4  UNL     1      24.208  -6.510 -46.240  0.00  0.00    +0.000 N 
ATOM      6  C13 UNL     1      25.316  -6.454 -47.012  0.00  0.00    +0.000 A 
ATOM      7  C14 UNL     1      25.385  -6.111 -48.362  0.00  0.00    +0.000 A 
ATOM      8  C15 UNL     1      26.647  -6.135 -48.984  0.00  0.00    +0.000 A 
ATOM      9  C16 UNL     1      27.800  -6.501 -48.255  0.00  0.00    +0.000 A 
ATOM     10  C17 UNL     1      27.705  -6.849 -46.896  0.00  0.00    +0.000 A 
ATOM     11  C18 UNL     1      26.444  -6.809 -46.304  0.00  0.00    +0.000 A 
ATOM     12  C19 UNL     1      23.912  -7.150 -43.861  0.00  0.00    +0.000 A 
ATOM     13  N5  UNL     1      24.586  -7.620 -42.767  0.00  0.00    +0.000 NA
ATOM     14  H11 UNL     1      23.226  -6.327 -46.543  0.00  0.00    +0.000 HD
ENDROOT
BRANCH  12  15
ATOM     15  C20 UNL     1      22.452  -6.935 -43.776  0.00  0.00    +0.000 A 
ATOM     16  C21 UNL     1      21.675  -6.778 -44.937  0.00  0.00    +0.000 A 
ATOM     17  C22 UNL     1      20.299  -6.550 -44.839  0.00  0.00    +0.000 A 
ATOM     18  C23 UNL     1      19.691  -6.462 -43.584  0.00  0.00    +0.000 A 
ATOM     19  C24 UNL     1      20.459  -6.595 -42.425  0.00  0.00    +0.000 A 
ATOM     20  C25 UNL     1      21.836  -6.823 -42.519  0.00  0.00    +0.000 A 
ENDBRANCH  12  15
BRANCH   1  22
ATOM     21  N3  UNL     1      28.015  -8.351 -41.404  0.00  0.00    +0.000 N 
ATOM     22  C8  UNL     1      26.585  -8.341 -41.525  0.00  0.00    +0.000 C 
ATOM     23  O2  UNL     1      25.875  -8.752 -40.567  0.00  0.00    +0.000 OA
ATOM     24  H9  UNL     1      28.578  -7.733 -42.030  0.00  0.00    +0.000 HD
BRANCH  21  27
ATOM     25  N1  UNL     1      30.014 -10.441 -39.105  0.00  0.00    +0.000 N 
ATOM     26  C7  UNL     1      29.404  -9.950 -40.307  0.00  0.00    +0.000 C 
ATOM     27  N2  UNL     1      28.651  -8.890 -40.273  0.00  0.00    +0.000 NA
ATOM     28  H7  UNL     1      30.855 -11.053 -39.205  0.00  0.00    +0.000 HD
BRANCH  25  33
ATOM     29  C2  UNL     1      27.806  -9.877 -36.125  0.00  0.00    +0.000 A 
ATOM     30  C3  UNL     1      28.722  -9.341 -35.214  0.00  0.00    +0.000 A 
ATOM     31  C4  UNL     1      30.057  -9.157 -35.577  0.00  0.00    +0.000 A 
ATOM     32  C5  UNL     1      30.493  -9.518 -36.854  0.00  0.00    +0.000 A 
ATOM     33  C6  UNL     1      29.595 -10.082 -37.776  0.00  0.00    +0.000 A 
ATOM     34  C26 UNL     1      28.248 -10.240 -37.413  0.00  0.00    +0.000 A 
BRANCH  29  36
ATOM     35  C1  UNL     1      26.019  -9.865 -34.376  0.00  0.00    +0.000 C 
ATOM     36  O1  UNL     1      26.473 -10.033 -35.715  0.00  0.00    +0.000 OA
ENDBRANCH  29  36
ENDBRANCH  25  33
BRANCH  26  37
ATOM     37  S1  UNL     1      29.839 -10.731 -41.867  0.00  0.00    +0.000 S 
ATOM     38  H8  UNL     1      29.788  -9.510 -42.562  0.00  0.00    +0.000 HD
ENDBRANCH  26  37
ENDBRANCH  21  27
ENDBRANCH   1  22
TORSDOF 6
ENDMDL
MODEL 7
REMARK VINA RESULT:    -6.974      4.803     10.803
REMARK INTER + INTRA:          -9.671
REMARK INTER:                  -8.812
REMARK INTRA:                  -0.859
REMARK UNBOUND:                -0.455
REMARK  Name = resultss/4CJN/ligands/lig_425_t2.pdb
REMARK  7 active torsions:
REMARK  status: ('A' for Active; 'I' for Inactive)
REMARK    1  A    between atoms: C1_1  and  O1_2
REMARK    2  A    between atoms: O1_2  and  C2_3
REMARK    3  A    between atoms: C6_7  and  N1_8
REMARK    4  A    between atoms: C7_9  and  S1_10
REMARK    5  A    between atoms: N2_11  and  N3_12
REMARK    6  A    between atoms: C8_13  and  C9_15
REMARK    7  A    between atoms: C19_26  and  C20_27
REMARK                            x       y       z     vdW  Elec       q    Type
REMARK                         _______ _______ _______ _____ _____    ______ ____
ROOT
ATOM      1  C9  UNL     1      29.486  -9.781 -39.260  0.00  0.00    +0.000 A 
ATOM      2  C10 UNL     1      28.263  -9.155 -39.581  0.00  0.00    +0.000 A 
ATOM      3  C11 UNL     1      27.894  -9.127 -40.920  0.00  0.00    +0.000 A 
ATOM      4  C12 UNL     1      28.674  -9.692 -41.907  0.00  0.00    +0.000 A 
ATOM      5  N4  UNL     1      28.141  -9.483 -43.134  0.00  0.00    +0.000 N 
ATOM      6  C13 UNL     1      27.002  -8.794 -42.904  0.00  0.00    +0.000 A 
ATOM      7  C14 UNL     1      26.094  -8.328 -43.854  0.00  0.00    +0.000 A 
ATOM      8  C15 UNL     1      24.973  -7.609 -43.397  0.00  0.00    +0.000 A 
ATOM      9  C16 UNL     1      24.787  -7.371 -42.017  0.00  0.00    +0.000 A 
ATOM     10  C17 UNL     1      25.719  -7.846 -41.078  0.00  0.00    +0.000 A 
ATOM     11  C18 UNL     1      26.816  -8.560 -41.558  0.00  0.00    +0.000 A 
ATOM     12  C19 UNL     1      29.877 -10.328 -41.574  0.00  0.00    +0.000 A 
ATOM     13  N5  UNL     1      30.244 -10.341 -40.257  0.00  0.00    +0.000 NA
ATOM     14  H11 UNL     1      28.531  -9.753 -44.064  0.00  0.00    +0.000 HD
ENDROOT
BRANCH  12  15
ATOM     15  C20 UNL     1      30.753 -10.969 -42.577  0.00  0.00    +0.000 A 
ATOM     16  C21 UNL     1      30.844 -12.369 -42.669  0.00  0.00    +0.000 A 
ATOM     17  C22 UNL     1      31.697 -12.960 -43.607  0.00  0.00    +0.000 A 
ATOM     18  C23 UNL     1      32.474 -12.161 -44.449  0.00  0.00    +0.000 A 
ATOM     19  C24 UNL     1      32.406 -10.769 -44.349  0.00  0.00    +0.000 A 
ATOM     20  C25 UNL     1      31.555 -10.174 -43.413  0.00  0.00    +0.000 A 
ENDBRANCH  12  15
BRANCH   1  22
ATOM     21  N3  UNL     1      29.024  -9.828 -36.774  0.00  0.00    +0.000 N 
ATOM     22  C8  UNL     1      29.960  -9.847 -37.862  0.00  0.00    +0.000 C 
ATOM     23  O2  UNL     1      31.195  -9.936 -37.621  0.00  0.00    +0.000 OA
ATOM     24  H9  UNL     1      28.028 -10.078 -36.962  0.00  0.00    +0.000 HD
BRANCH  21  27
ATOM     25  N1  UNL     1      29.169  -9.705 -33.084  0.00  0.00    +0.000 N 
ATOM     26  C7  UNL     1      28.649  -9.710 -34.421  0.00  0.00    +0.000 C 
ATOM     27  N2  UNL     1      29.455  -9.821 -35.437  0.00  0.00    +0.000 NA
ATOM     28  H7  UNL     1      28.515  -9.958 -32.310  0.00  0.00    +0.000 HD
BRANCH  25  33
ATOM     29  C2  UNL     1      32.755 -10.324 -32.171  0.00  0.00    +0.000 A 
ATOM     30  C3  UNL     1      33.226  -9.013 -32.042  0.00  0.00    +0.000 A 
ATOM     31  C4  UNL     1      32.369  -7.929 -32.245  0.00  0.00    +0.000 A 
ATOM     32  C5  UNL     1      31.034  -8.146 -32.591  0.00  0.00    +0.000 A 
ATOM     33  C6  UNL     1      30.546  -9.455 -32.750  0.00  0.00    +0.000 A 
ATOM     34  C26 UNL     1      31.406 -10.540 -32.519  0.00  0.00    +0.000 A 
BRANCH  29  36
ATOM     35  C1  UNL     1      33.291 -12.637 -31.386  0.00  0.00    +0.000 C 
ATOM     36  O1  UNL     1      33.653 -11.379 -31.946  0.00  0.00    +0.000 OA
ENDBRANCH  29  36
ENDBRANCH  25  33
BRANCH  26  37
ATOM     37  S1  UNL     1      26.865  -9.730 -34.644  0.00  0.00    +0.000 S 
ATOM     38  H8  UNL     1      26.974 -10.204 -35.963  0.00  0.00    +0.000 HD
ENDBRANCH  26  37
ENDBRANCH  21  27
ENDBRANCH   1  22
TORSDOF 6
ENDMDL
MODEL 8
REMARK VINA RESULT:    -6.723      6.522      9.169
REMARK INTER + INTRA:          -9.339
REMARK INTER:                  -9.005
REMARK INTRA:                  -0.334
REMARK UNBOUND:                -0.455
REMARK  Name = resultss/4CJN/ligands/lig_425_t2.pdb
REMARK  7 active torsions:
REMARK  status: ('A' for Active; 'I' for Inactive)
REMARK    1  A    between atoms: C1_1  and  O1_2
REMARK    2  A    between atoms: O1_2  and  C2_3
REMARK    3  A    between atoms: C6_7  and  N1_8
REMARK    4  A    between atoms: C7_9  and  S1_10
REMARK    5  A    between atoms: N2_11  and  N3_12
REMARK    6  A    between atoms: C8_13  and  C9_15
REMARK    7  A    between atoms: C19_26  and  C20_27
REMARK                            x       y       z     vdW  Elec       q    Type
REMARK                         _______ _______ _______ _____ _____    ______ ____
ROOT
ATOM      1  C9  UNL     1      30.049  -9.480 -37.147  0.00  0.00    +0.000 A 
ATOM      2  C10 UNL     1      28.666  -9.211 -37.072  0.00  0.00    +0.000 A 
ATOM      3  C11 UNL     1      28.122  -9.016 -35.808  0.00  0.00    +0.000 A 
ATOM      4  C12 UNL     1      28.890  -9.070 -34.664  0.00  0.00    +0.000 A 
ATOM      5  N4  UNL     1      28.130  -8.914 -33.554  0.00  0.00    +0.000 N 
ATOM      6  C13 UNL     1      26.873  -8.741 -34.018  0.00  0.00    +0.000 A 
ATOM      7  C14 UNL     1      25.717  -8.549 -33.263  0.00  0.00    +0.000 A 
ATOM      8  C15 UNL     1      24.496  -8.408 -33.951  0.00  0.00    +0.000 A 
ATOM      9  C16 UNL     1      24.456  -8.465 -35.362  0.00  0.00    +0.000 A 
ATOM     10  C17 UNL     1      25.635  -8.665 -36.102  0.00  0.00    +0.000 A 
ATOM     11  C18 UNL     1      26.829  -8.795 -35.395  0.00  0.00    +0.000 A 
ATOM     12  C19 UNL     1      30.266  -9.319 -34.752  0.00  0.00    +0.000 A 
ATOM     13  N5  UNL     1      30.795  -9.525 -35.996  0.00  0.00    +0.000 NA
ATOM     14  H11 UNL     1      28.427  -8.954 -32.554  0.00  0.00    +0.000 HD
ENDROOT
BRANCH  12  15
ATOM     15  C20 UNL     1      31.151  -9.372 -33.570  0.00  0.00    +0.000 A 
ATOM     16  C21 UNL     1      31.400 -10.587 -32.906  0.00  0.00    +0.000 A 
ATOM     17  C22 UNL     1      32.220 -10.616 -31.774  0.00  0.00    +0.000 A 
ATOM     18  C23 UNL     1      32.785  -9.435 -31.286  0.00  0.00    +0.000 A 
ATOM     19  C24 UNL     1      32.525  -8.220 -31.927  0.00  0.00    +0.000 A 
ATOM     20  C25 UNL     1      31.705  -8.187 -33.059  0.00  0.00    +0.000 A 
ENDBRANCH  12  15
BRANCH   1  22
ATOM     21  N3  UNL     1      29.925  -9.978 -39.623  0.00  0.00    +0.000 N 
ATOM     22  C8  UNL     1      30.708  -9.710 -38.449  0.00  0.00    +0.000 C 
ATOM     23  O2  UNL     1      31.964  -9.657 -38.536  0.00  0.00    +0.000 OA
ATOM     24  H9  UNL     1      28.916  -9.710 -39.628  0.00  0.00    +0.000 HD
BRANCH  21  27
ATOM     25  N1  UNL     1      30.587 -10.569 -43.210  0.00  0.00    +0.000 N 
ATOM     26  C7  UNL     1      29.896 -10.255 -41.992  0.00  0.00    +0.000 C 
ATOM     27  N2  UNL     1      30.532 -10.268 -40.856  0.00  0.00    +0.000 NA
ATOM     28  H7  UNL     1      30.169 -10.228 -44.104  0.00  0.00    +0.000 HD
BRANCH  25  33
ATOM     29  C2  UNL     1      33.259 -12.978 -44.274  0.00  0.00    +0.000 A 
ATOM     30  C3  UNL     1      34.290 -12.638 -43.391  0.00  0.00    +0.000 A 
ATOM     31  C4  UNL     1      34.107 -11.628 -42.444  0.00  0.00    +0.000 A 
ATOM     32  C5  UNL     1      32.894 -10.939 -42.378  0.00  0.00    +0.000 A 
ATOM     33  C6  UNL     1      31.854 -11.249 -43.272  0.00  0.00    +0.000 A 
ATOM     34  C26 UNL     1      32.036 -12.282 -44.204  0.00  0.00    +0.000 A 
BRANCH  29  36
ATOM     35  C1  UNL     1      32.659 -14.274 -46.326  0.00  0.00    +0.000 C 
ATOM     36  O1  UNL     1      33.489 -14.006 -45.201  0.00  0.00    +0.000 OA
ENDBRANCH  29  36
ENDBRANCH  25  33
BRANCH  26  37
ATOM     37  S1  UNL     1      28.193  -9.689 -42.097  0.00  0.00    +0.000 S 
ATOM     38  H8  UNL     1      27.690 -10.935 -41.684  0.00  0.00    +0.000 HD
ENDBRANCH  26  37
ENDBRANCH  21  27
ENDBRANCH   1  22
TORSDOF 6
ENDMDL
MODEL 9
REMARK VINA RESULT:    -6.711      1.313      4.449
REMARK INTER + INTRA:          -9.323
REMARK INTER:                  -9.224
REMARK INTRA:                  -0.099
REMARK UNBOUND:                -0.455
REMARK  Name = resultss/4CJN/ligands/lig_425_t2.pdb
REMARK  7 active torsions:
REMARK  status: ('A' for Active; 'I' for Inactive)
REMARK    1  A    between atoms: C1_1  and  O1_2
REMARK    2  A    between atoms: O1_2  and  C2_3
REMARK    3  A    between atoms: C6_7  and  N1_8
REMARK    4  A    between atoms: C7_9  and  S1_10
REMARK    5  A    between atoms: N2_11  and  N3_12
REMARK    6  A    between atoms: C8_13  and  C9_15
REMARK    7  A    between atoms: C19_26  and  C20_27
REMARK                            x       y       z     vdW  Elec       q    Type
REMARK                         _______ _______ _______ _____ _____    ______ ____
ROOT
ATOM      1  C9  UNL     1      27.330  -9.392 -42.270  0.00  0.00    +0.000 A 
ATOM      2  C10 UNL     1      28.458  -9.791 -43.019  0.00  0.00    +0.000 A 
ATOM      3  C11 UNL     1      29.646  -9.989 -42.325  0.00  0.00    +0.000 A 
ATOM      4  C12 UNL     1      29.735  -9.816 -40.960  0.00  0.00    +0.000 A 
ATOM      5  N4  UNL     1      31.003 -10.002 -40.523  0.00  0.00    +0.000 N 
ATOM      6  C13 UNL     1      31.708 -10.314 -41.631  0.00  0.00    +0.000 A 
ATOM      7  C14 UNL     1      33.073 -10.588 -41.711  0.00  0.00    +0.000 A 
ATOM      8  C15 UNL     1      33.615 -10.874 -42.978  0.00  0.00    +0.000 A 
ATOM      9  C16 UNL     1      32.793 -10.876 -44.127  0.00  0.00    +0.000 A 
ATOM     10  C17 UNL     1      31.420 -10.591 -44.023  0.00  0.00    +0.000 A 
ATOM     11  C18 UNL     1      30.910 -10.318 -42.755  0.00  0.00    +0.000 A 
ATOM     12  C19 UNL     1      28.604  -9.438 -40.225  0.00  0.00    +0.000 A 
ATOM     13  N5  UNL     1      27.440  -9.230 -40.912  0.00  0.00    +0.000 NA
ATOM     14  H11 UNL     1      31.376  -9.893 -39.554  0.00  0.00    +0.000 HD
ENDROOT
BRANCH  12  15
ATOM     15  C20 UNL     1      28.623  -9.252 -38.758  0.00  0.00    +0.000 A 
ATOM     16  C21 UNL     1      29.211  -8.112 -38.180  0.00  0.00    +0.000 A 
ATOM     17  C22 UNL     1      29.243  -7.964 -36.790  0.00  0.00    +0.000 A 
ATOM     18  C23 UNL     1      28.704  -8.956 -35.966  0.00  0.00    +0.000 A 
ATOM     19  C24 UNL     1      28.138 -10.101 -36.532  0.00  0.00    +0.000 A 
ATOM     20  C25 UNL     1      28.104 -10.254 -37.921  0.00  0.00    +0.000 A 
ENDBRANCH  12  15
BRANCH   1  22
ATOM     21  N3  UNL     1      25.839  -7.995 -43.759  0.00  0.00    +0.000 N 
ATOM     22  C8  UNL     1      26.030  -9.150 -42.928  0.00  0.00    +0.000 C 
ATOM     23  O2  UNL     1      25.085  -9.969 -42.771  0.00  0.00    +0.000 OA
ATOM     24  H9  UNL     1      26.678  -7.507 -44.145  0.00  0.00    +0.000 HD
BRANCH  21  27
ATOM     25  N1  UNL     1      23.140  -6.849 -46.008  0.00  0.00    +0.000 N 
ATOM     26  C7  UNL     1      24.451  -7.111 -45.486  0.00  0.00    +0.000 C 
ATOM     27  N2  UNL     1      24.592  -7.708 -44.339  0.00  0.00    +0.000 NA
ATOM     28  H7  UNL     1      23.052  -6.695 -47.037  0.00  0.00    +0.000 HD
BRANCH  25  33
ATOM     29  C2  UNL     1      19.503  -6.671 -45.107  0.00  0.00    +0.000 A 
ATOM     30  C3  UNL     1      19.565  -6.835 -43.719  0.00  0.00    +0.000 A 
ATOM     31  C4  UNL     1      20.796  -6.994 -43.079  0.00  0.00    +0.000 A 
ATOM     32  C5  UNL     1      21.978  -7.004 -43.823  0.00  0.00    +0.000 A 
ATOM     33  C6  UNL     1      21.935  -6.865 -45.221  0.00  0.00    +0.000 A 
ATOM     34  C26 UNL     1      20.697  -6.679 -45.855  0.00  0.00    +0.000 A 
BRANCH  29  36
ATOM     35  C1  UNL     1      17.707  -7.363 -46.703  0.00  0.00    +0.000 C 
ATOM     36  O1  UNL     1      18.243  -6.505 -45.701  0.00  0.00    +0.000 OA
ENDBRANCH  29  36
ENDBRANCH  25  33
BRANCH  26  37
ATOM     37  S1  UNL     1      25.872  -6.748 -46.525  0.00  0.00    +0.000 S 
ATOM     38  H8  UNL     1      25.940  -5.419 -46.072  0.00  0.00    +0.000 HD
ENDBRANCH  26  37
ENDBRANCH  21  27
ENDBRANCH   1  22
TORSDOF 6
ENDMDL
