MODEL 1
REMARK VINA RESULT:    -5.426      0.000      0.000
REMARK INTER + INTRA:          -6.157
REMARK INTER:                  -6.219
REMARK INTRA:                   0.062
REMARK UNBOUND:                 0.062
REMARK  Name = resultss/4CJN/ligands/lig_303_t1.pdb
REMARK  5 active torsions:
REMARK  status: ('A' for Active; 'I' for Inactive)
REMARK    1  A    between atoms: C1_1  and  O1_2
REMARK    2  A    between atoms: O1_2  and  C2_3
REMARK    3  A    between atoms: C4_5  and  O2_6
REMARK    4  A    between atoms: C8_11  and  O4_12
REMARK    5  A    between atoms: O4_12  and  C9_13
REMARK                            x       y       z     vdW  Elec       q    Type
REMARK                         _______ _______ _______ _____ _____    ______ ____
ROOT
ATOM      1  C2  UNL     1      26.229  -8.745 -41.854  0.00  0.00    +0.000 A 
ATOM      2  C3  UNL     1      27.243  -9.657 -41.525  0.00  0.00    +0.000 A 
ATOM      3  C4  UNL     1      27.434 -10.079 -40.204  0.00  0.00    +0.000 A 
ATOM      4  C5  UNL     1      26.639  -9.517 -39.159  0.00  0.00    +0.000 A 
ATOM      5  C6  UNL     1      26.847  -9.758 -37.779  0.00  0.00    +0.000 A 
ATOM      6  O3  UNL     1      27.851 -10.421 -37.406  0.00  0.00    +0.000 OA
ATOM      7  C7  UNL     1      25.958  -9.206 -36.812  0.00  0.00    +0.000 A 
ATOM      8  C8  UNL     1      26.107  -9.430 -35.473  0.00  0.00    +0.000 C 
ATOM      9  C10 UNL     1      25.172  -8.772 -34.517  0.00  0.00    +0.000 C 
ATOM     10  O5  UNL     1      25.392  -8.778 -33.277  0.00  0.00    +0.000 OA
ATOM     11  C11 UNL     1      23.932  -8.101 -35.013  0.00  0.00    +0.000 C 
ATOM     12  C12 UNL     1      23.993  -7.830 -36.482  0.00  0.00    +0.000 C 
ATOM     13  C13 UNL     1      24.907  -8.379 -37.295  0.00  0.00    +0.000 A 
ATOM     14  O6  UNL     1      24.799  -8.119 -38.591  0.00  0.00    +0.000 OA
ATOM     15  C14 UNL     1      25.602  -8.625 -39.513  0.00  0.00    +0.000 A 
ATOM     16  C15 UNL     1      25.405  -8.252 -40.845  0.00  0.00    +0.000 A 
ENDROOT
BRANCH   1  18
ATOM     17  C1  UNL     1      24.711  -8.160 -43.755  0.00  0.00    +0.000 C 
ATOM     18  O1  UNL     1      26.001  -8.315 -43.170  0.00  0.00    +0.000 OA
ENDBRANCH   1  18
BRANCH   3  19
ATOM     19  O2  UNL     1      28.394 -11.075 -39.999  0.00  0.00    +0.000 OA
ATOM     20  H5  UNL     1      28.270 -12.047 -40.243  0.00  0.00    +0.000 HD
ENDBRANCH   3  19
BRANCH   8  21
ATOM     21  O4  UNL     1      27.140 -10.277 -35.021  0.00  0.00    +0.000 OA
ATOM     22  C9  UNL     1      28.285  -9.884 -34.273  0.00  0.00    +0.000 C 
ENDBRANCH   8  21
TORSDOF 3
ENDMDL
MODEL 2
REMARK VINA RESULT:    -5.392      1.616      6.765
REMARK INTER + INTRA:          -6.118
REMARK INTER:                  -6.046
REMARK INTRA:                  -0.072
REMARK UNBOUND:                 0.062
REMARK  Name = resultss/4CJN/ligands/lig_303_t1.pdb
REMARK  5 active torsions:
REMARK  status: ('A' for Active; 'I' for Inactive)
REMARK    1  A    between atoms: C1_1  and  O1_2
REMARK    2  A    between atoms: O1_2  and  C2_3
REMARK    3  A    between atoms: C4_5  and  O2_6
REMARK    4  A    between atoms: C8_11  and  O4_12
REMARK    5  A    between atoms: O4_12  and  C9_13
REMARK                            x       y       z     vdW  Elec       q    Type
REMARK                         _______ _______ _______ _____ _____    ______ ____
ROOT
ATOM      1  C2  UNL     1      28.122  -9.806 -34.864  0.00  0.00    +0.000 A 
ATOM      2  C3  UNL     1      26.792  -9.360 -34.922  0.00  0.00    +0.000 A 
ATOM      3  C4  UNL     1      26.144  -9.179 -36.149  0.00  0.00    +0.000 A 
ATOM      4  C5  UNL     1      26.864  -9.374 -37.366  0.00  0.00    +0.000 A 
ATOM      5  C6  UNL     1      26.354  -9.076 -38.654  0.00  0.00    +0.000 A 
ATOM      6  O3  UNL     1      25.237  -8.504 -38.765  0.00  0.00    +0.000 OA
ATOM      7  C7  UNL     1      27.123  -9.369 -39.816  0.00  0.00    +0.000 A 
ATOM      8  C8  UNL     1      26.663  -9.119 -41.078  0.00  0.00    +0.000 C 
ATOM      9  C10 UNL     1      27.547  -9.399 -42.244  0.00  0.00    +0.000 C 
ATOM     10  O5  UNL     1      27.253  -8.996 -43.400  0.00  0.00    +0.000 OA
ATOM     11  C11 UNL     1      28.804 -10.187 -42.067  0.00  0.00    +0.000 C 
ATOM     12  C12 UNL     1      29.222 -10.260 -40.633  0.00  0.00    +0.000 C 
ATOM     13  C13 UNL     1      28.420  -9.917 -39.615  0.00  0.00    +0.000 A 
ATOM     14  O6  UNL     1      28.885 -10.105 -38.387  0.00  0.00    +0.000 OA
ATOM     15  C14 UNL     1      28.191  -9.853 -37.290  0.00  0.00    +0.000 A 
ATOM     16  C15 UNL     1      28.802 -10.066 -36.051  0.00  0.00    +0.000 A 
ENDROOT
BRANCH   1  18
ATOM     17  C1  UNL     1      30.163  -9.689 -33.422  0.00  0.00    +0.000 C 
ATOM     18  O1  UNL     1      28.795 -10.013 -33.651  0.00  0.00    +0.000 OA
ENDBRANCH   1  18
BRANCH   3  19
ATOM     19  O2  UNL     1      24.787  -8.844 -36.095  0.00  0.00    +0.000 OA
ATOM     20  H5  UNL     1      24.161  -9.119 -35.352  0.00  0.00    +0.000 HD
ENDBRANCH   3  19
BRANCH   8  21
ATOM     21  O4  UNL     1      25.362  -8.603 -41.252  0.00  0.00    +0.000 OA
ATOM     22  C9  UNL     1      24.298  -9.224 -41.964  0.00  0.00    +0.000 C 
ENDBRANCH   8  21
TORSDOF 3
ENDMDL
MODEL 3
REMARK VINA RESULT:    -5.315      1.160      5.916
REMARK INTER + INTRA:          -6.030
REMARK INTER:                  -5.954
REMARK INTRA:                  -0.076
REMARK UNBOUND:                 0.062
REMARK  Name = resultss/4CJN/ligands/lig_303_t1.pdb
REMARK  5 active torsions:
REMARK  status: ('A' for Active; 'I' for Inactive)
REMARK    1  A    between atoms: C1_1  and  O1_2
REMARK    2  A    between atoms: O1_2  and  C2_3
REMARK    3  A    between atoms: C4_5  and  O2_6
REMARK    4  A    between atoms: C8_11  and  O4_12
REMARK    5  A    between atoms: O4_12  and  C9_13
REMARK                            x       y       z     vdW  Elec       q    Type
REMARK                         _______ _______ _______ _____ _____    ______ ____
ROOT
ATOM      1  C2  UNL     1      24.488  -8.507 -34.134  0.00  0.00    +0.000 A 
ATOM      2  C3  UNL     1      25.666  -9.230 -33.891  0.00  0.00    +0.000 A 
ATOM      3  C4  UNL     1      26.538  -9.563 -34.934  0.00  0.00    +0.000 A 
ATOM      4  C5  UNL     1      26.189  -9.235 -36.280  0.00  0.00    +0.000 A 
ATOM      5  C6  UNL     1      26.919  -9.654 -37.419  0.00  0.00    +0.000 A 
ATOM      6  O3  UNL     1      27.882 -10.455 -37.284  0.00  0.00    +0.000 OA
ATOM      7  C7  UNL     1      26.533  -9.218 -38.719  0.00  0.00    +0.000 A 
ATOM      8  C8  UNL     1      27.219  -9.579 -39.844  0.00  0.00    +0.000 C 
ATOM      9  C10 UNL     1      26.722  -9.132 -41.175  0.00  0.00    +0.000 C 
ATOM     10  O5  UNL     1      27.193  -9.604 -42.243  0.00  0.00    +0.000 OA
ATOM     11  C11 UNL     1      25.656  -8.088 -41.272  0.00  0.00    +0.000 C 
ATOM     12  C12 UNL     1      24.931  -7.907 -39.977  0.00  0.00    +0.000 C 
ATOM     13  C13 UNL     1      25.373  -8.401 -38.811  0.00  0.00    +0.000 A 
ATOM     14  O6  UNL     1      24.677  -8.099 -37.723  0.00  0.00    +0.000 OA
ATOM     15  C14 UNL     1      25.016  -8.479 -36.503  0.00  0.00    +0.000 A 
ATOM     16  C15 UNL     1      24.185  -8.122 -35.438  0.00  0.00    +0.000 A 
ENDROOT
BRANCH   1  18
ATOM     17  C1  UNL     1      23.132  -6.817 -32.884  0.00  0.00    +0.000 C 
ATOM     18  O1  UNL     1      23.603  -8.142 -33.109  0.00  0.00    +0.000 OA
ENDBRANCH   1  18
BRANCH   3  19
ATOM     19  O2  UNL     1      27.738 -10.182 -34.572  0.00  0.00    +0.000 OA
ATOM     20  H5  UNL     1      28.154 -10.127 -33.654  0.00  0.00    +0.000 HD
ENDBRANCH   3  19
BRANCH   8  21
ATOM     21  O4  UNL     1      28.383 -10.366 -39.723  0.00  0.00    +0.000 OA
ATOM     22  C9  UNL     1      29.704  -9.977 -40.082  0.00  0.00    +0.000 C 
ENDBRANCH   8  21
TORSDOF 3
ENDMDL
MODEL 4
REMARK VINA RESULT:    -5.304      2.605      4.388
REMARK INTER + INTRA:          -6.018
REMARK INTER:                  -5.942
REMARK INTRA:                  -0.075
REMARK UNBOUND:                 0.062
REMARK  Name = resultss/4CJN/ligands/lig_303_t1.pdb
REMARK  5 active torsions:
REMARK  status: ('A' for Active; 'I' for Inactive)
REMARK    1  A    between atoms: C1_1  and  O1_2
REMARK    2  A    between atoms: O1_2  and  C2_3
REMARK    3  A    between atoms: C4_5  and  O2_6
REMARK    4  A    between atoms: C8_11  and  O4_12
REMARK    5  A    between atoms: O4_12  and  C9_13
REMARK                            x       y       z     vdW  Elec       q    Type
REMARK                         _______ _______ _______ _____ _____    ______ ____
ROOT
ATOM      1  C2  UNL     1      29.930 -10.160 -41.998  0.00  0.00    +0.000 A 
ATOM      2  C3  UNL     1      28.535 -10.250 -41.878  0.00  0.00    +0.000 A 
ATOM      3  C4  UNL     1      27.910 -10.162 -40.628  0.00  0.00    +0.000 A 
ATOM      4  C5  UNL     1      28.704 -10.059 -39.445  0.00  0.00    +0.000 A 
ATOM      5  C6  UNL     1      28.186 -10.114 -38.128  0.00  0.00    +0.000 A 
ATOM      6  O3  UNL     1      26.967 -10.376 -37.948  0.00  0.00    +0.000 OA
ATOM      7  C7  UNL     1      29.049  -9.933 -37.009  0.00  0.00    +0.000 A 
ATOM      8  C8  UNL     1      28.590  -9.957 -35.723  0.00  0.00    +0.000 C 
ATOM      9  C10 UNL     1      29.561  -9.817 -34.602  0.00  0.00    +0.000 C 
ATOM     10  O5  UNL     1      29.221 -10.039 -33.409  0.00  0.00    +0.000 OA
ATOM     11  C11 UNL     1      30.968  -9.388 -34.868  0.00  0.00    +0.000 C 
ATOM     12  C12 UNL     1      31.334  -9.538 -36.311  0.00  0.00    +0.000 C 
ATOM     13  C13 UNL     1      30.432  -9.748 -37.281  0.00  0.00    +0.000 A 
ATOM     14  O6  UNL     1      30.882  -9.782 -38.528  0.00  0.00    +0.000 OA
ATOM     15  C14 UNL     1      30.104  -9.938 -39.587  0.00  0.00    +0.000 A 
ATOM     16  C15 UNL     1      30.700  -9.985 -40.850  0.00  0.00    +0.000 A 
ENDROOT
BRANCH   1  18
ATOM     17  C1  UNL     1      31.712 -11.056 -43.508  0.00  0.00    +0.000 C 
ATOM     18  O1  UNL     1      30.586 -10.227 -43.236  0.00  0.00    +0.000 OA
ENDBRANCH   1  18
BRANCH   3  19
ATOM     19  O2  UNL     1      26.512 -10.147 -40.629  0.00  0.00    +0.000 OA
ATOM     20  H5  UNL     1      25.934 -10.810 -40.133  0.00  0.00    +0.000 HD
ENDBRANCH   3  19
BRANCH   8  21
ATOM     21  O4  UNL     1      27.210 -10.113 -35.481  0.00  0.00    +0.000 OA
ATOM     22  C9  UNL     1      26.348  -9.156 -34.875  0.00  0.00    +0.000 C 
ENDBRANCH   8  21
TORSDOF 3
ENDMDL
MODEL 5
REMARK VINA RESULT:    -5.273      1.747      3.693
REMARK INTER + INTRA:          -5.981
REMARK INTER:                  -5.901
REMARK INTRA:                  -0.081
REMARK UNBOUND:                 0.062
REMARK  Name = resultss/4CJN/ligands/lig_303_t1.pdb
REMARK  5 active torsions:
REMARK  status: ('A' for Active; 'I' for Inactive)
REMARK    1  A    between atoms: C1_1  and  O1_2
REMARK    2  A    between atoms: O1_2  and  C2_3
REMARK    3  A    between atoms: C4_5  and  O2_6
REMARK    4  A    between atoms: C8_11  and  O4_12
REMARK    5  A    between atoms: O4_12  and  C9_13
REMARK                            x       y       z     vdW  Elec       q    Type
REMARK                         _______ _______ _______ _____ _____    ______ ____
ROOT
ATOM      1  C2  UNL     1      29.230 -10.223 -42.130  0.00  0.00    +0.000 A 
ATOM      2  C3  UNL     1      28.015  -9.629 -42.505  0.00  0.00    +0.000 A 
ATOM      3  C4  UNL     1      27.093  -9.201 -41.543  0.00  0.00    +0.000 A 
ATOM      4  C5  UNL     1      27.351  -9.441 -40.159  0.00  0.00    +0.000 A 
ATOM      5  C6  UNL     1      26.425  -9.186 -39.118  0.00  0.00    +0.000 A 
ATOM      6  O3  UNL     1      25.252  -8.825 -39.400  0.00  0.00    +0.000 OA
ATOM      7  C7  UNL     1      26.798  -9.393 -37.758  0.00  0.00    +0.000 A 
ATOM      8  C8  UNL     1      25.946  -9.141 -36.721  0.00  0.00    +0.000 C 
ATOM      9  C10 UNL     1      26.388  -9.437 -35.329  0.00  0.00    +0.000 C 
ATOM     10  O5  UNL     1      25.575  -9.418 -34.367  0.00  0.00    +0.000 OA
ATOM     11  C11 UNL     1      27.821  -9.744 -35.039  0.00  0.00    +0.000 C 
ATOM     12  C12 UNL     1      28.575 -10.112 -36.277  0.00  0.00    +0.000 C 
ATOM     13  C13 UNL     1      28.103  -9.905 -37.515  0.00  0.00    +0.000 A 
ATOM     14  O6  UNL     1      28.907 -10.201 -38.528  0.00  0.00    +0.000 OA
ATOM     15  C14 UNL     1      28.592 -10.010 -39.798  0.00  0.00    +0.000 A 
ATOM     16  C15 UNL     1      29.514 -10.390 -40.777  0.00  0.00    +0.000 A 
ENDROOT
BRANCH   1  18
ATOM     17  C1  UNL     1      31.270 -11.519 -42.776  0.00  0.00    +0.000 C 
ATOM     18  O1  UNL     1      30.182 -10.647 -43.069  0.00  0.00    +0.000 OA
ENDBRANCH   1  18
BRANCH   3  19
ATOM     19  O2  UNL     1      25.968  -8.519 -42.016  0.00  0.00    +0.000 OA
ATOM     20  H5  UNL     1      25.015  -8.815 -41.863  0.00  0.00    +0.000 HD
ENDBRANCH   3  19
BRANCH   8  21
ATOM     21  O4  UNL     1      24.668  -8.607 -36.987  0.00  0.00    +0.000 OA
ATOM     22  C9  UNL     1      24.179  -7.341 -36.559  0.00  0.00    +0.000 C 
ENDBRANCH   8  21
TORSDOF 3
ENDMDL
MODEL 6
REMARK VINA RESULT:    -5.211      1.800      3.549
REMARK INTER + INTRA:          -5.910
REMARK INTER:                  -5.844
REMARK INTRA:                  -0.066
REMARK UNBOUND:                 0.062
REMARK  Name = resultss/4CJN/ligands/lig_303_t1.pdb
REMARK  5 active torsions:
REMARK  status: ('A' for Active; 'I' for Inactive)
REMARK    1  A    between atoms: C1_1  and  O1_2
REMARK    2  A    between atoms: O1_2  and  C2_3
REMARK    3  A    between atoms: C4_5  and  O2_6
REMARK    4  A    between atoms: C8_11  and  O4_12
REMARK    5  A    between atoms: O4_12  and  C9_13
REMARK                            x       y       z     vdW  Elec       q    Type
REMARK                         _______ _______ _______ _____ _____    ______ ____
ROOT
ATOM      1  C2  UNL     1      27.289  -9.448 -41.131  0.00  0.00    +0.000 A 
ATOM      2  C3  UNL     1      26.029  -9.259 -40.543  0.00  0.00    +0.000 A 
ATOM      3  C4  UNL     1      25.888  -9.153 -39.155  0.00  0.00    +0.000 A 
ATOM      4  C5  UNL     1      27.030  -9.319 -38.313  0.00  0.00    +0.000 A 
ATOM      5  C6  UNL     1      26.977  -9.381 -36.898  0.00  0.00    +0.000 A 
ATOM      6  O3  UNL     1      25.861  -9.400 -36.316  0.00  0.00    +0.000 OA
ATOM      7  C7  UNL     1      28.179  -9.479 -36.139  0.00  0.00    +0.000 A 
ATOM      8  C8  UNL     1      28.177  -9.520 -34.774  0.00  0.00    +0.000 C 
ATOM      9  C10 UNL     1      29.470  -9.681 -34.050  0.00  0.00    +0.000 C 
ATOM     10  O5  UNL     1      29.502  -9.930 -32.816  0.00  0.00    +0.000 OA
ATOM     11  C11 UNL     1      30.767  -9.529 -34.776  0.00  0.00    +0.000 C 
ATOM     12  C12 UNL     1      30.594  -9.625 -36.258  0.00  0.00    +0.000 C 
ATOM     13  C13 UNL     1      29.399  -9.560 -36.864  0.00  0.00    +0.000 A 
ATOM     14  O6  UNL     1      29.392  -9.577 -38.191  0.00  0.00    +0.000 OA
ATOM     15  C14 UNL     1      28.294  -9.476 -38.922  0.00  0.00    +0.000 A 
ATOM     16  C15 UNL     1      28.413  -9.536 -40.313  0.00  0.00    +0.000 A 
ENDROOT
BRANCH   1  18
ATOM     17  C1  UNL     1      27.070  -8.539 -43.452  0.00  0.00    +0.000 C 
ATOM     18  O1  UNL     1      27.467  -9.540 -42.520  0.00  0.00    +0.000 OA
ENDBRANCH   1  18
BRANCH   3  19
ATOM     19  O2  UNL     1      24.609  -8.851 -38.678  0.00  0.00    +0.000 OA
ATOM     20  H5  UNL     1      23.811  -9.463 -38.758  0.00  0.00    +0.000 HD
ENDBRANCH   3  19
BRANCH   8  21
ATOM     21  O4  UNL     1      26.957  -9.408 -34.077  0.00  0.00    +0.000 OA
ATOM     22  C9  UNL     1      26.539  -8.306 -33.281  0.00  0.00    +0.000 C 
ENDBRANCH   8  21
TORSDOF 3
ENDMDL
MODEL 7
REMARK VINA RESULT:    -5.202      1.506      3.536
REMARK INTER + INTRA:          -5.901
REMARK INTER:                  -5.991
REMARK INTRA:                   0.090
REMARK UNBOUND:                 0.062
REMARK  Name = resultss/4CJN/ligands/lig_303_t1.pdb
REMARK  5 active torsions:
REMARK  status: ('A' for Active; 'I' for Inactive)
REMARK    1  A    between atoms: C1_1  and  O1_2
REMARK    2  A    between atoms: O1_2  and  C2_3
REMARK    3  A    between atoms: C4_5  and  O2_6
REMARK    4  A    between atoms: C8_11  and  O4_12
REMARK    5  A    between atoms: O4_12  and  C9_13
REMARK                            x       y       z     vdW  Elec       q    Type
REMARK                         _______ _______ _______ _____ _____    ______ ____
ROOT
ATOM      1  C2  UNL     1      27.977 -10.400 -40.271  0.00  0.00    +0.000 A 
ATOM      2  C3  UNL     1      27.166  -9.412 -40.851  0.00  0.00    +0.000 A 
ATOM      3  C4  UNL     1      26.319  -8.621 -40.066  0.00  0.00    +0.000 A 
ATOM      4  C5  UNL     1      26.215  -8.871 -38.664  0.00  0.00    +0.000 A 
ATOM      5  C6  UNL     1      25.284  -8.235 -37.806  0.00  0.00    +0.000 A 
ATOM      6  O3  UNL     1      24.407  -7.474 -38.292  0.00  0.00    +0.000 OA
ATOM      7  C7  UNL     1      25.301  -8.500 -36.406  0.00  0.00    +0.000 A 
ATOM      8  C8  UNL     1      24.437  -7.894 -35.539  0.00  0.00    +0.000 C 
ATOM      9  C10 UNL     1      24.477  -8.264 -34.096  0.00  0.00    +0.000 C 
ATOM     10  O5  UNL     1      23.574  -7.893 -33.300  0.00  0.00    +0.000 OA
ATOM     11  C11 UNL     1      25.609  -9.073 -33.553  0.00  0.00    +0.000 C 
ATOM     12  C12 UNL     1      26.377  -9.759 -34.639  0.00  0.00    +0.000 C 
ATOM     13  C13 UNL     1      26.248  -9.451 -35.938  0.00  0.00    +0.000 A 
ATOM     14  O6  UNL     1      27.047 -10.079 -36.791  0.00  0.00    +0.000 OA
ATOM     15  C14 UNL     1      27.062  -9.847 -38.093  0.00  0.00    +0.000 A 
ATOM     16  C15 UNL     1      27.930 -10.594 -38.893  0.00  0.00    +0.000 A 
ENDROOT
BRANCH   1  18
ATOM     17  C1  UNL     1      30.046 -10.727 -41.640  0.00  0.00    +0.000 C 
ATOM     18  O1  UNL     1      28.849 -11.198 -41.027  0.00  0.00    +0.000 OA
ENDBRANCH   1  18
BRANCH   3  19
ATOM     19  O2  UNL     1      25.641  -7.591 -40.724  0.00  0.00    +0.000 OA
ATOM     20  H5  UNL     1      26.057  -6.983 -41.415  0.00  0.00    +0.000 HD
ENDBRANCH   3  19
BRANCH   8  21
ATOM     21  O4  UNL     1      23.527  -6.932 -36.024  0.00  0.00    +0.000 OA
ATOM     22  C9  UNL     1      22.111  -6.966 -35.883  0.00  0.00    +0.000 C 
ENDBRANCH   8  21
TORSDOF 3
ENDMDL
MODEL 8
REMARK VINA RESULT:    -5.033      1.320      6.612
REMARK INTER + INTRA:          -5.707
REMARK INTER:                  -5.637
REMARK INTRA:                  -0.069
REMARK UNBOUND:                 0.062
REMARK  Name = resultss/4CJN/ligands/lig_303_t1.pdb
REMARK  5 active torsions:
REMARK  status: ('A' for Active; 'I' for Inactive)
REMARK    1  A    between atoms: C1_1  and  O1_2
REMARK    2  A    between atoms: O1_2  and  C2_3
REMARK    3  A    between atoms: C4_5  and  O2_6
REMARK    4  A    between atoms: C8_11  and  O4_12
REMARK    5  A    between atoms: O4_12  and  C9_13
REMARK                            x       y       z     vdW  Elec       q    Type
REMARK                         _______ _______ _______ _____ _____    ______ ____
ROOT
ATOM      1  C2  UNL     1      24.773  -8.535 -34.626  0.00  0.00    +0.000 A 
ATOM      2  C3  UNL     1      23.873  -7.750 -35.364  0.00  0.00    +0.000 A 
ATOM      3  C4  UNL     1      23.952  -7.680 -36.760  0.00  0.00    +0.000 A 
ATOM      4  C5  UNL     1      25.010  -8.353 -37.444  0.00  0.00    +0.000 A 
ATOM      5  C6  UNL     1      25.271  -8.228 -38.830  0.00  0.00    +0.000 A 
ATOM      6  O3  UNL     1      24.615  -7.400 -39.517  0.00  0.00    +0.000 OA
ATOM      7  C7  UNL     1      26.308  -8.993 -39.437  0.00  0.00    +0.000 A 
ATOM      8  C8  UNL     1      26.581  -8.921 -40.774  0.00  0.00    +0.000 C 
ATOM      9  C10 UNL     1      27.719  -9.708 -41.327  0.00  0.00    +0.000 C 
ATOM     10  O5  UNL     1      28.138  -9.519 -42.499  0.00  0.00    +0.000 OA
ATOM     11  C11 UNL     1      28.381 -10.763 -40.501  0.00  0.00    +0.000 C 
ATOM     12  C12 UNL     1      28.062 -10.617 -39.047  0.00  0.00    +0.000 C 
ATOM     13  C13 UNL     1      27.080  -9.830 -38.585  0.00  0.00    +0.000 A 
ATOM     14  O6  UNL     1      26.848  -9.854 -37.279  0.00  0.00    +0.000 OA
ATOM     15  C14 UNL     1      25.886  -9.163 -36.689  0.00  0.00    +0.000 A 
ATOM     16  C15 UNL     1      25.760  -9.250 -35.300  0.00  0.00    +0.000 A 
ENDROOT
BRANCH   1  18
ATOM     17  C1  UNL     1      23.516  -8.871 -32.490  0.00  0.00    +0.000 C 
ATOM     18  O1  UNL     1      24.711  -8.639 -33.229  0.00  0.00    +0.000 OA
ENDBRANCH   1  18
BRANCH   3  19
ATOM     19  O2  UNL     1      22.940  -6.964 -37.407  0.00  0.00    +0.000 OA
ATOM     20  H5  UNL     1      22.901  -5.957 -37.466  0.00  0.00    +0.000 HD
ENDBRANCH   3  19
BRANCH   8  21
ATOM     21  O4  UNL     1      25.783  -8.107 -41.602  0.00  0.00    +0.000 OA
ATOM     22  C9  UNL     1      24.953  -8.549 -42.670  0.00  0.00    +0.000 C 
ENDBRANCH   8  21
TORSDOF 3
ENDMDL
MODEL 9
REMARK VINA RESULT:    -4.983      3.146      8.590
REMARK INTER + INTRA:          -5.649
REMARK INTER:                  -5.628
REMARK INTRA:                  -0.021
REMARK UNBOUND:                 0.062
REMARK  Name = resultss/4CJN/ligands/lig_303_t1.pdb
REMARK  5 active torsions:
REMARK  status: ('A' for Active; 'I' for Inactive)
REMARK    1  A    between atoms: C1_1  and  O1_2
REMARK    2  A    between atoms: O1_2  and  C2_3
REMARK    3  A    between atoms: C4_5  and  O2_6
REMARK    4  A    between atoms: C8_11  and  O4_12
REMARK    5  A    between atoms: O4_12  and  C9_13
REMARK                            x       y       z     vdW  Elec       q    Type
REMARK                         _______ _______ _______ _____ _____    ______ ____
ROOT
ATOM      1  C2  UNL     1      26.893  -8.828 -40.183  0.00  0.00    +0.000 A 
ATOM      2  C3  UNL     1      25.499  -8.959 -40.272  0.00  0.00    +0.000 A 
ATOM      3  C4  UNL     1      24.824  -8.706 -41.472  0.00  0.00    +0.000 A 
ATOM      4  C5  UNL     1      25.551  -8.230 -42.606  0.00  0.00    +0.000 A 
ATOM      5  C6  UNL     1      24.952  -7.802 -43.816  0.00  0.00    +0.000 A 
ATOM      6  O3  UNL     1      23.698  -7.722 -43.898  0.00  0.00    +0.000 OA
ATOM      7  C7  UNL     1      25.764  -7.408 -44.918  0.00  0.00    +0.000 A 
ATOM      8  C8  UNL     1      25.231  -7.008 -46.111  0.00  0.00    +0.000 C 
ATOM      9  C10 UNL     1      26.143  -6.555 -47.199  0.00  0.00    +0.000 C 
ATOM     10  O5  UNL     1      25.698  -5.987 -48.232  0.00  0.00    +0.000 OA
ATOM     11  C11 UNL     1      27.616  -6.785 -47.097  0.00  0.00    +0.000 C 
ATOM     12  C12 UNL     1      28.037  -7.098 -45.697  0.00  0.00    +0.000 C 
ATOM     13  C13 UNL     1      27.173  -7.420 -44.723  0.00  0.00    +0.000 A 
ATOM     14  O6  UNL     1      27.684  -7.754 -43.545  0.00  0.00    +0.000 OA
ATOM     15  C14 UNL     1      26.957  -8.135 -42.508  0.00  0.00    +0.000 A 
ATOM     16  C15 UNL     1      27.611  -8.435 -41.310  0.00  0.00    +0.000 A 
ENDROOT
BRANCH   1  18
ATOM     17  C1  UNL     1      27.772 -10.386 -38.435  0.00  0.00    +0.000 C 
ATOM     18  O1  UNL     1      27.601  -9.091 -39.001  0.00  0.00    +0.000 OA
ENDBRANCH   1  18
BRANCH   3  19
ATOM     19  O2  UNL     1      23.453  -8.977 -41.487  0.00  0.00    +0.000 OA
ATOM     20  H5  UNL     1      22.927  -9.218 -42.314  0.00  0.00    +0.000 HD
ENDBRANCH   3  19
BRANCH   8  21
ATOM     21  O4  UNL     1      23.833  -7.032 -46.289  0.00  0.00    +0.000 OA
ATOM     22  C9  UNL     1      23.130  -7.673 -47.348  0.00  0.00    +0.000 C 
ENDBRANCH   8  21
TORSDOF 3
ENDMDL
