MODEL 1
REMARK VINA RESULT:    -6.961      0.000      0.000
REMARK INTER + INTRA:         -10.128
REMARK INTER:                  -8.996
REMARK INTRA:                  -1.132
REMARK UNBOUND:                -1.132
REMARK  Name = resultss/4CJN/ligands/lig_92_t0.pdb
REMARK  8 active torsions:
REMARK  status: ('A' for Active; 'I' for Inactive)
REMARK    1  A    between atoms: C6_6  and  C7_7
REMARK    2  A    between atoms: C6_6  and  C8_8
REMARK    3  A    between atoms: C8_8  and  O1_9
REMARK    4  A    between atoms: C9_10  and  O2_11
REMARK    5  A    between atoms: C12_14  and  C13_15
REMARK    6  A    between atoms: C14_16  and  C15_17
REMARK    7  A    between atoms: C16_18  and  C17_19
REMARK    8  A    between atoms: C20_22  and  C21_23
REMARK                            x       y       z     vdW  Elec       q    Type
REMARK                         _______ _______ _______ _____ _____    ______ ____
ROOT
ATOM      1  C1  UNL     1      29.829  -6.155 -36.043  0.00  0.00    +0.000 C 
ATOM      2  C2  UNL     1      28.769  -6.804 -35.526  0.00  0.00    +0.000 C 
ATOM      3  C3  UNL     1      28.568  -6.704 -34.015  0.00  0.00    +0.000 C 
ATOM      4  C4  UNL     1      27.260  -7.293 -33.440  0.00  0.00    +0.000 C 
ATOM      5  C5  UNL     1      26.161  -7.419 -34.516  0.00  0.00    +0.000 C 
ATOM      6  C6  UNL     1      24.687  -7.709 -34.012  0.00  0.00    +0.000 C 
ATOM      7  C7  UNL     1      24.285  -6.617 -32.977  0.00  0.00    +0.000 C 
ATOM      8  C9  UNL     1      23.683  -7.570 -35.234  0.00  0.00    +0.000 C 
ATOM      9  C10 UNL     1      24.350  -7.671 -36.626  0.00  0.00    +0.000 C 
ATOM     10  C11 UNL     1      25.493  -8.685 -36.661  0.00  0.00    +0.000 C 
ATOM     11  C12 UNL     1      26.676  -8.313 -35.707  0.00  0.00    +0.000 C 
ATOM     12  C13 UNL     1      27.348  -9.639 -35.222  0.00  0.00    +0.000 C 
ATOM     13  C14 UNL     1      27.750  -7.458 -36.472  0.00  0.00    +0.000 C 
ENDROOT
BRANCH   8  14
ATOM     14  O2  UNL     1      22.629  -8.498 -35.158  0.00  0.00    +0.000 OA
ATOM     15  H15 UNL     1      22.380  -8.729 -36.092  0.00  0.00    +0.000 HD
ENDBRANCH   8  14
BRANCH  13  16
ATOM     16  C15 UNL     1      28.466  -8.264 -37.544  0.00  0.00    +0.000 C 
ATOM     17  C16 UNL     1      28.294  -8.017 -38.848  0.00  0.00    +0.000 C 
BRANCH  17  18
ATOM     18  C17 UNL     1      28.966  -8.779 -39.922  0.00  0.00    +0.000 C 
ATOM     19  C18 UNL     1      30.247  -9.136 -39.881  0.00  0.00    +0.000 C 
ATOM     20  C19 UNL     1      30.555  -9.863 -41.115  0.00  0.00    +0.000 C 
ATOM     21  C20 UNL     1      31.754 -10.358 -41.438  0.00  0.00    +0.000 C 
ATOM     22  O5  UNL     1      29.418  -9.926 -41.909  0.00  0.00    +0.000 OA
ATOM     23  C28 UNL     1      28.430  -9.268 -41.198  0.00  0.00    +0.000 C 
ATOM     24  O6  UNL     1      27.255  -9.116 -41.623  0.00  0.00    +0.000 OA
BRANCH  21  25
ATOM     25  C21 UNL     1      32.038 -11.082 -42.696  0.00  0.00    +0.000 A 
ATOM     26  C22 UNL     1      31.486 -12.364 -42.971  0.00  0.00    +0.000 A 
ATOM     27  C23 UNL     1      31.793 -13.034 -44.169  0.00  0.00    +0.000 A 
ATOM     28  C24 UNL     1      32.661 -12.409 -45.060  0.00  0.00    +0.000 A 
ATOM     29  C25 UNL     1      33.208 -11.197 -44.797  0.00  0.00    +0.000 A 
ATOM     30  C26 UNL     1      32.931 -10.500 -43.624  0.00  0.00    +0.000 A 
ATOM     31  O3  UNL     1      34.030 -10.826 -45.844  0.00  0.00    +0.000 OA
ATOM     32  C27 UNL     1      33.996 -11.872 -46.825  0.00  0.00    +0.000 C 
ATOM     33  O4  UNL     1      33.111 -12.863 -46.284  0.00  0.00    +0.000 OA
ENDBRANCH  21  25
ENDBRANCH  17  18
ENDBRANCH  13  16
BRANCH   6  34
ATOM     34  C8  UNL     1      24.548  -9.077 -33.265  0.00  0.00    +0.000 C 
BRANCH  34  35
ATOM     35  O1  UNL     1      23.548  -9.056 -32.284  0.00  0.00    +0.000 OA
ATOM     36  H13 UNL     1      23.855  -9.660 -31.560  0.00  0.00    +0.000 HD
ENDBRANCH  34  35
ENDBRANCH   6  34
TORSDOF 6
ENDMDL
MODEL 2
REMARK VINA RESULT:    -6.085      5.365      7.302
REMARK INTER + INTRA:          -8.996
REMARK INTER:                  -8.066
REMARK INTRA:                  -0.930
REMARK UNBOUND:                -1.132
REMARK  Name = resultss/4CJN/ligands/lig_92_t0.pdb
REMARK  8 active torsions:
REMARK  status: ('A' for Active; 'I' for Inactive)
REMARK    1  A    between atoms: C6_6  and  C7_7
REMARK    2  A    between atoms: C6_6  and  C8_8
REMARK    3  A    between atoms: C8_8  and  O1_9
REMARK    4  A    between atoms: C9_10  and  O2_11
REMARK    5  A    between atoms: C12_14  and  C13_15
REMARK    6  A    between atoms: C14_16  and  C15_17
REMARK    7  A    between atoms: C16_18  and  C17_19
REMARK    8  A    between atoms: C20_22  and  C21_23
REMARK                            x       y       z     vdW  Elec       q    Type
REMARK                         _______ _______ _______ _____ _____    ______ ____
ROOT
ATOM      1  C1  UNL     1      22.945  -7.761 -35.528  0.00  0.00    +0.000 C 
ATOM      2  C2  UNL     1      24.258  -7.588 -35.286  0.00  0.00    +0.000 C 
ATOM      3  C3  UNL     1      24.633  -6.885 -33.981  0.00  0.00    +0.000 C 
ATOM      4  C4  UNL     1      26.133  -6.843 -33.613  0.00  0.00    +0.000 C 
ATOM      5  C5  UNL     1      26.938  -7.939 -34.342  0.00  0.00    +0.000 C 
ATOM      6  C6  UNL     1      28.412  -8.213 -33.830  0.00  0.00    +0.000 C 
ATOM      7  C7  UNL     1      28.365  -8.523 -32.304  0.00  0.00    +0.000 C 
ATOM      8  C9  UNL     1      28.977  -9.514 -34.542  0.00  0.00    +0.000 C 
ATOM      9  C10 UNL     1      28.231  -9.910 -35.837  0.00  0.00    +0.000 C 
ATOM     10  C11 UNL     1      27.786  -8.700 -36.656  0.00  0.00    +0.000 C 
ATOM     11  C12 UNL     1      26.763  -7.788 -35.901  0.00  0.00    +0.000 C 
ATOM     12  C13 UNL     1      26.962  -6.317 -36.393  0.00  0.00    +0.000 C 
ATOM     13  C14 UNL     1      25.290  -8.230 -36.225  0.00  0.00    +0.000 C 
ENDROOT
BRANCH   8  14
ATOM     14  O2  UNL     1      30.353  -9.412 -34.813  0.00  0.00    +0.000 OA
ATOM     15  H15 UNL     1      30.488  -9.736 -35.742  0.00  0.00    +0.000 HD
ENDBRANCH   8  14
BRANCH  13  16
ATOM     16  C15 UNL     1      24.919  -7.964 -37.677  0.00  0.00    +0.000 C 
ATOM     17  C16 UNL     1      25.156  -8.861 -38.642  0.00  0.00    +0.000 C 
BRANCH  17  18
ATOM     18  C17 UNL     1      24.817  -8.641 -40.064  0.00  0.00    +0.000 C 
ATOM     19  C18 UNL     1      24.269  -7.520 -40.526  0.00  0.00    +0.000 C 
ATOM     20  C19 UNL     1      24.071  -7.674 -41.970  0.00  0.00    +0.000 C 
ATOM     21  C20 UNL     1      23.522  -6.757 -42.773  0.00  0.00    +0.000 C 
ATOM     22  O5  UNL     1      24.508  -8.931 -42.364  0.00  0.00    +0.000 OA
ATOM     23  C28 UNL     1      24.971  -9.544 -41.212  0.00  0.00    +0.000 C 
ATOM     24  O6  UNL     1      25.436 -10.713 -41.188  0.00  0.00    +0.000 OA
BRANCH  21  25
ATOM     25  C21 UNL     1      23.328  -6.943 -44.228  0.00  0.00    +0.000 A 
ATOM     26  C22 UNL     1      24.413  -7.212 -45.107  0.00  0.00    +0.000 A 
ATOM     27  C23 UNL     1      24.195  -7.363 -46.488  0.00  0.00    +0.000 A 
ATOM     28  C24 UNL     1      22.894  -7.226 -46.960  0.00  0.00    +0.000 A 
ATOM     29  C25 UNL     1      21.856  -6.948 -46.132  0.00  0.00    +0.000 A 
ATOM     30  C26 UNL     1      22.028  -6.791 -44.761  0.00  0.00    +0.000 A 
ATOM     31  O3  UNL     1      20.691  -6.860 -46.869  0.00  0.00    +0.000 OA
ATOM     32  C27 UNL     1      21.018  -7.096 -48.246  0.00  0.00    +0.000 C 
ATOM     33  O4  UNL     1      22.434  -7.324 -48.259  0.00  0.00    +0.000 OA
ENDBRANCH  21  25
ENDBRANCH  17  18
ENDBRANCH  13  16
BRANCH   6  34
ATOM     34  C8  UNL     1      29.360  -6.977 -33.985  0.00  0.00    +0.000 C 
BRANCH  34  35
ATOM     35  O1  UNL     1      30.453  -7.023 -33.111  0.00  0.00    +0.000 OA
ATOM     36  H13 UNL     1      30.757  -7.968 -33.093  0.00  0.00    +0.000 HD
ENDBRANCH  34  35
ENDBRANCH   6  34
TORSDOF 6
ENDMDL
MODEL 3
REMARK VINA RESULT:    -5.672      4.778      6.972
REMARK INTER + INTRA:          -8.463
REMARK INTER:                  -8.481
REMARK INTRA:                   0.019
REMARK UNBOUND:                -1.132
REMARK  Name = resultss/4CJN/ligands/lig_92_t0.pdb
REMARK  8 active torsions:
REMARK  status: ('A' for Active; 'I' for Inactive)
REMARK    1  A    between atoms: C6_6  and  C7_7
REMARK    2  A    between atoms: C6_6  and  C8_8
REMARK    3  A    between atoms: C8_8  and  O1_9
REMARK    4  A    between atoms: C9_10  and  O2_11
REMARK    5  A    between atoms: C12_14  and  C13_15
REMARK    6  A    between atoms: C14_16  and  C15_17
REMARK    7  A    between atoms: C16_18  and  C17_19
REMARK    8  A    between atoms: C20_22  and  C21_23
REMARK                            x       y       z     vdW  Elec       q    Type
REMARK                         _______ _______ _______ _____ _____    ______ ____
ROOT
ATOM      1  C1  UNL     1      30.382  -8.003 -39.635  0.00  0.00    +0.000 C 
ATOM      2  C2  UNL     1      29.660  -8.472 -38.600  0.00  0.00    +0.000 C 
ATOM      3  C3  UNL     1      30.308  -9.559 -37.743  0.00  0.00    +0.000 C 
ATOM      4  C4  UNL     1      29.562  -9.973 -36.454  0.00  0.00    +0.000 C 
ATOM      5  C5  UNL     1      28.573  -8.887 -35.984  0.00  0.00    +0.000 C 
ATOM      6  C6  UNL     1      27.977  -9.036 -34.524  0.00  0.00    +0.000 C 
ATOM      7  C7  UNL     1      29.153  -9.150 -33.509  0.00  0.00    +0.000 C 
ATOM      8  C9  UNL     1      27.178  -7.716 -34.151  0.00  0.00    +0.000 C 
ATOM      9  C10 UNL     1      26.762  -6.854 -35.365  0.00  0.00    +0.000 C 
ATOM     10  C11 UNL     1      26.364  -7.694 -36.578  0.00  0.00    +0.000 C 
ATOM     11  C12 UNL     1      27.535  -8.574 -37.128  0.00  0.00    +0.000 C 
ATOM     12  C13 UNL     1      26.921  -9.866 -37.759  0.00  0.00    +0.000 C 
ATOM     13  C14 UNL     1      28.326  -7.799 -38.244  0.00  0.00    +0.000 C 
ENDROOT
BRANCH   8  14
ATOM     14  O2  UNL     1      26.042  -7.991 -33.368  0.00  0.00    +0.000 OA
ATOM     15  H15 UNL     1      26.366  -8.395 -32.521  0.00  0.00    +0.000 HD
ENDBRANCH   8  14
BRANCH  13  16
ATOM     16  C15 UNL     1      27.490  -7.588 -39.497  0.00  0.00    +0.000 C 
ATOM     17  C16 UNL     1      27.193  -8.595 -40.326  0.00  0.00    +0.000 C 
BRANCH  17  18
ATOM     18  C17 UNL     1      26.388  -8.432 -41.556  0.00  0.00    +0.000 C 
ATOM     19  C18 UNL     1      26.393  -7.328 -42.298  0.00  0.00    +0.000 C 
ATOM     20  C19 UNL     1      25.473  -7.533 -43.420  0.00  0.00    +0.000 C 
ATOM     21  C20 UNL     1      25.200  -6.629 -44.367  0.00  0.00    +0.000 C 
ATOM     22  O5  UNL     1      24.904  -8.796 -43.326  0.00  0.00    +0.000 OA
ATOM     23  C28 UNL     1      25.451  -9.368 -42.190  0.00  0.00    +0.000 C 
ATOM     24  O6  UNL     1      25.151 -10.520 -41.782  0.00  0.00    +0.000 OA
BRANCH  21  25
ATOM     25  C21 UNL     1      24.260  -6.861 -45.485  0.00  0.00    +0.000 A 
ATOM     26  C22 UNL     1      24.707  -7.029 -46.826  0.00  0.00    +0.000 A 
ATOM     27  C23 UNL     1      23.785  -7.227 -47.868  0.00  0.00    +0.000 A 
ATOM     28  C24 UNL     1      22.431  -7.238 -47.547  0.00  0.00    +0.000 A 
ATOM     29  C25 UNL     1      21.995  -7.058 -46.275  0.00  0.00    +0.000 A 
ATOM     30  C26 UNL     1      22.873  -6.858 -45.215  0.00  0.00    +0.000 A 
ATOM     31  O3  UNL     1      20.615  -7.108 -46.251  0.00  0.00    +0.000 OA
ATOM     32  C27 UNL     1      20.156  -7.333 -47.592  0.00  0.00    +0.000 C 
ATOM     33  O4  UNL     1      21.348  -7.409 -48.386  0.00  0.00    +0.000 OA
ENDBRANCH  21  25
ENDBRANCH  17  18
ENDBRANCH  13  16
BRANCH   6  34
ATOM     34  C8  UNL     1      27.124 -10.335 -34.335  0.00  0.00    +0.000 C 
BRANCH  34  35
ATOM     35  O1  UNL     1      25.792 -10.168 -34.735  0.00  0.00    +0.000 OA
ATOM     36  H13 UNL     1      25.409  -9.468 -34.145  0.00  0.00    +0.000 HD
ENDBRANCH  34  35
ENDBRANCH   6  34
TORSDOF 6
ENDMDL
MODEL 4
REMARK VINA RESULT:    -5.649      4.826      7.301
REMARK INTER + INTRA:          -8.433
REMARK INTER:                  -7.392
REMARK INTRA:                  -1.041
REMARK UNBOUND:                -1.132
REMARK  Name = resultss/4CJN/ligands/lig_92_t0.pdb
REMARK  8 active torsions:
REMARK  status: ('A' for Active; 'I' for Inactive)
REMARK    1  A    between atoms: C6_6  and  C7_7
REMARK    2  A    between atoms: C6_6  and  C8_8
REMARK    3  A    between atoms: C8_8  and  O1_9
REMARK    4  A    between atoms: C9_10  and  O2_11
REMARK    5  A    between atoms: C12_14  and  C13_15
REMARK    6  A    between atoms: C14_16  and  C15_17
REMARK    7  A    between atoms: C16_18  and  C17_19
REMARK    8  A    between atoms: C20_22  and  C21_23
REMARK                            x       y       z     vdW  Elec       q    Type
REMARK                         _______ _______ _______ _____ _____    ______ ____
ROOT
ATOM      1  C1  UNL     1      25.866  -9.262 -36.273  0.00  0.00    +0.000 C 
ATOM      2  C2  UNL     1      27.129  -8.806 -36.169  0.00  0.00    +0.000 C 
ATOM      3  C3  UNL     1      27.545  -8.233 -34.815  0.00  0.00    +0.000 C 
ATOM      4  C4  UNL     1      29.038  -7.874 -34.634  0.00  0.00    +0.000 C 
ATOM      5  C5  UNL     1      29.937  -8.616 -35.645  0.00  0.00    +0.000 C 
ATOM      6  C6  UNL     1      31.498  -8.588 -35.378  0.00  0.00    +0.000 C 
ATOM      7  C7  UNL     1      31.773  -9.121 -33.941  0.00  0.00    +0.000 C 
ATOM      8  C9  UNL     1      32.215  -9.588 -36.381  0.00  0.00    +0.000 C 
ATOM      9  C10 UNL     1      31.375  -9.961 -37.624  0.00  0.00    +0.000 C 
ATOM     10  C11 UNL     1      30.541  -8.791 -38.146  0.00  0.00    +0.000 C 
ATOM     11  C12 UNL     1      29.478  -8.284 -37.116  0.00  0.00    +0.000 C 
ATOM     12  C13 UNL     1      29.259  -6.754 -37.352  0.00  0.00    +0.000 C 
ATOM     13  C14 UNL     1      28.109  -9.025 -37.331  0.00  0.00    +0.000 C 
ENDROOT
BRANCH   8  14
ATOM     14  O2  UNL     1      33.470  -9.107 -36.798  0.00  0.00    +0.000 OA
ATOM     15  H15 UNL     1      34.140  -9.797 -36.549  0.00  0.00    +0.000 HD
ENDBRANCH   8  14
BRANCH  13  16
ATOM     16  C15 UNL     1      27.455  -8.649 -38.652  0.00  0.00    +0.000 C 
ATOM     17  C16 UNL     1      27.386  -9.507 -39.676  0.00  0.00    +0.000 C 
BRANCH  17  18
ATOM     18  C17 UNL     1      26.765  -9.181 -40.977  0.00  0.00    +0.000 C 
ATOM     19  C18 UNL     1      27.042  -8.079 -41.670  0.00  0.00    +0.000 C 
ATOM     20  C19 UNL     1      26.234  -8.096 -42.891  0.00  0.00    +0.000 C 
ATOM     21  C20 UNL     1      26.228  -7.138 -43.824  0.00  0.00    +0.000 C 
ATOM     22  O5  UNL     1      25.450  -9.242 -42.910  0.00  0.00    +0.000 OA
ATOM     23  C28 UNL     1      25.759  -9.924 -41.746  0.00  0.00    +0.000 C 
ATOM     24  O6  UNL     1      25.222 -11.014 -41.419  0.00  0.00    +0.000 OA
BRANCH  21  25
ATOM     25  C21 UNL     1      25.394  -7.179 -45.045  0.00  0.00    +0.000 A 
ATOM     26  C22 UNL     1      25.957  -7.081 -46.348  0.00  0.00    +0.000 A 
ATOM     27  C23 UNL     1      25.133  -7.102 -47.488  0.00  0.00    +0.000 A 
ATOM     28  C24 UNL     1      23.759  -7.205 -47.295  0.00  0.00    +0.000 A 
ATOM     29  C25 UNL     1      23.212  -7.278 -46.056  0.00  0.00    +0.000 A 
ATOM     30  C26 UNL     1      23.990  -7.259 -44.903  0.00  0.00    +0.000 A 
ATOM     31  O3  UNL     1      21.837  -7.364 -46.164  0.00  0.00    +0.000 OA
ATOM     32  C27 UNL     1      21.501  -7.344 -47.559  0.00  0.00    +0.000 C 
ATOM     33  O4  UNL     1      22.757  -7.241 -48.244  0.00  0.00    +0.000 OA
ENDBRANCH  21  25
ENDBRANCH  17  18
ENDBRANCH  13  16
BRANCH   6  34
ATOM     34  C8  UNL     1      32.106  -7.146 -35.421  0.00  0.00    +0.000 C 
BRANCH  34  35
ATOM     35  O1  UNL     1      33.370  -7.076 -34.821  0.00  0.00    +0.000 OA
ATOM     36  H13 UNL     1      33.864  -6.356 -35.293  0.00  0.00    +0.000 HD
ENDBRANCH  34  35
ENDBRANCH   6  34
TORSDOF 6
ENDMDL
MODEL 5
REMARK VINA RESULT:    -5.487      4.918      7.220
REMARK INTER + INTRA:          -8.222
REMARK INTER:                  -7.090
REMARK INTRA:                  -1.132
REMARK UNBOUND:                -1.132
REMARK  Name = resultss/4CJN/ligands/lig_92_t0.pdb
REMARK  8 active torsions:
REMARK  status: ('A' for Active; 'I' for Inactive)
REMARK    1  A    between atoms: C6_6  and  C7_7
REMARK    2  A    between atoms: C6_6  and  C8_8
REMARK    3  A    between atoms: C8_8  and  O1_9
REMARK    4  A    between atoms: C9_10  and  O2_11
REMARK    5  A    between atoms: C12_14  and  C13_15
REMARK    6  A    between atoms: C14_16  and  C15_17
REMARK    7  A    between atoms: C16_18  and  C17_19
REMARK    8  A    between atoms: C20_22  and  C21_23
REMARK                            x       y       z     vdW  Elec       q    Type
REMARK                         _______ _______ _______ _____ _____    ______ ____
ROOT
ATOM      1  C1  UNL     1      25.733  -9.636 -34.676  0.00  0.00    +0.000 C 
ATOM      2  C2  UNL     1      26.926  -9.046 -34.476  0.00  0.00    +0.000 C 
ATOM      3  C3  UNL     1      27.207  -8.513 -33.072  0.00  0.00    +0.000 C 
ATOM      4  C4  UNL     1      28.637  -7.998 -32.790  0.00  0.00    +0.000 C 
ATOM      5  C5  UNL     1      29.665  -8.568 -33.790  0.00  0.00    +0.000 C 
ATOM      6  C6  UNL     1      31.197  -8.378 -33.437  0.00  0.00    +0.000 C 
ATOM      7  C7  UNL     1      31.464  -8.964 -32.019  0.00  0.00    +0.000 C 
ATOM      8  C9  UNL     1      32.074  -9.225 -34.453  0.00  0.00    +0.000 C 
ATOM      9  C10 UNL     1      31.344  -9.614 -35.759  0.00  0.00    +0.000 C 
ATOM     10  C11 UNL     1      30.405  -8.518 -36.260  0.00  0.00    +0.000 C 
ATOM     11  C12 UNL     1      29.241  -8.201 -35.263  0.00  0.00    +0.000 C 
ATOM     12  C13 UNL     1      28.856  -6.694 -35.425  0.00  0.00    +0.000 C 
ATOM     13  C14 UNL     1      27.981  -9.079 -35.593  0.00  0.00    +0.000 C 
ENDROOT
BRANCH   8  14
ATOM     14  O2  UNL     1      33.282  -8.579 -34.773  0.00  0.00    +0.000 OA
ATOM     15  H15 UNL     1      33.628  -9.009 -35.599  0.00  0.00    +0.000 HD
ENDBRANCH   8  14
BRANCH  13  16
ATOM     16  C15 UNL     1      27.351  -8.699 -36.925  0.00  0.00    +0.000 C 
ATOM     17  C16 UNL     1      27.354  -9.533 -37.972  0.00  0.00    +0.000 C 
BRANCH  17  18
ATOM     18  C17 UNL     1      26.759  -9.202 -39.284  0.00  0.00    +0.000 C 
ATOM     19  C18 UNL     1      26.227  -8.018 -39.574  0.00  0.00    +0.000 C 
ATOM     20  C19 UNL     1      25.734  -8.067 -40.952  0.00  0.00    +0.000 C 
ATOM     21  C20 UNL     1      25.115  -7.065 -41.585  0.00  0.00    +0.000 C 
ATOM     22  O5  UNL     1      25.977  -9.326 -41.484  0.00  0.00    +0.000 OA
ATOM     23  C28 UNL     1      26.606 -10.041 -40.480  0.00  0.00    +0.000 C 
ATOM     24  O6  UNL     1      26.966 -11.240 -40.604  0.00  0.00    +0.000 OA
BRANCH  21  25
ATOM     25  C21 UNL     1      24.620  -7.146 -42.976  0.00  0.00    +0.000 A 
ATOM     26  C22 UNL     1      25.502  -7.263 -44.087  0.00  0.00    +0.000 A 
ATOM     27  C23 UNL     1      24.999  -7.317 -45.399  0.00  0.00    +0.000 A 
ATOM     28  C24 UNL     1      23.621  -7.237 -45.571  0.00  0.00    +0.000 A 
ATOM     29  C25 UNL     1      22.773  -7.104 -44.520  0.00  0.00    +0.000 A 
ATOM     30  C26 UNL     1      23.229  -7.046 -43.207  0.00  0.00    +0.000 A 
ATOM     31  O3  UNL     1      21.473  -7.042 -44.982  0.00  0.00    +0.000 OA
ATOM     32  C27 UNL     1      21.507  -7.141 -46.414  0.00  0.00    +0.000 C 
ATOM     33  O4  UNL     1      22.897  -7.264 -46.746  0.00  0.00    +0.000 OA
ENDBRANCH  21  25
ENDBRANCH  17  18
ENDBRANCH  13  16
BRANCH   6  34
ATOM     34  C8  UNL     1      31.633  -6.876 -33.366  0.00  0.00    +0.000 C 
BRANCH  34  35
ATOM     35  O1  UNL     1      32.830  -6.695 -32.663  0.00  0.00    +0.000 OA
ATOM     36  H13 UNL     1      32.599  -6.183 -31.845  0.00  0.00    +0.000 HD
ENDBRANCH  34  35
ENDBRANCH   6  34
TORSDOF 6
ENDMDL
MODEL 6
REMARK VINA RESULT:    -5.436      4.533      6.050
REMARK INTER + INTRA:          -8.157
REMARK INTER:                  -7.494
REMARK INTRA:                  -0.663
REMARK UNBOUND:                -1.132
REMARK  Name = resultss/4CJN/ligands/lig_92_t0.pdb
REMARK  8 active torsions:
REMARK  status: ('A' for Active; 'I' for Inactive)
REMARK    1  A    between atoms: C6_6  and  C7_7
REMARK    2  A    between atoms: C6_6  and  C8_8
REMARK    3  A    between atoms: C8_8  and  O1_9
REMARK    4  A    between atoms: C9_10  and  O2_11
REMARK    5  A    between atoms: C12_14  and  C13_15
REMARK    6  A    between atoms: C14_16  and  C15_17
REMARK    7  A    between atoms: C16_18  and  C17_19
REMARK    8  A    between atoms: C20_22  and  C21_23
REMARK                            x       y       z     vdW  Elec       q    Type
REMARK                         _______ _______ _______ _____ _____    ______ ____
ROOT
ATOM      1  C1  UNL     1      23.980  -8.055 -36.286  0.00  0.00    +0.000 C 
ATOM      2  C2  UNL     1      25.199  -7.784 -35.782  0.00  0.00    +0.000 C 
ATOM      3  C3  UNL     1      25.246  -7.162 -34.386  0.00  0.00    +0.000 C 
ATOM      4  C4  UNL     1      26.637  -7.015 -33.731  0.00  0.00    +0.000 C 
ATOM      5  C5  UNL     1      27.676  -7.968 -34.358  0.00  0.00    +0.000 C 
ATOM      6  C6  UNL     1      29.048  -8.148 -33.587  0.00  0.00    +0.000 C 
ATOM      7  C7  UNL     1      28.749  -8.589 -32.124  0.00  0.00    +0.000 C 
ATOM      8  C9  UNL     1      29.871  -9.328 -34.259  0.00  0.00    +0.000 C 
ATOM      9  C10 UNL     1      29.428  -9.679 -35.698  0.00  0.00    +0.000 C 
ATOM     10  C11 UNL     1      29.018  -8.449 -36.507  0.00  0.00    +0.000 C 
ATOM     11  C12 UNL     1      27.781  -7.702 -35.908  0.00  0.00    +0.000 C 
ATOM     12  C13 UNL     1      27.912  -6.183 -36.255  0.00  0.00    +0.000 C 
ATOM     13  C14 UNL     1      26.451  -8.247 -36.542  0.00  0.00    +0.000 C 
ENDROOT
BRANCH   8  14
ATOM     14  O2  UNL     1      31.255  -9.078 -34.250  0.00  0.00    +0.000 OA
ATOM     15  H15 UNL     1      31.459  -8.552 -35.067  0.00  0.00    +0.000 HD
ENDBRANCH   8  14
BRANCH  13  16
ATOM     16  C15 UNL     1      26.333  -7.895 -38.017  0.00  0.00    +0.000 C 
ATOM     17  C16 UNL     1      26.436  -8.823 -38.976  0.00  0.00    +0.000 C 
BRANCH  17  18
ATOM     18  C17 UNL     1      26.334  -8.524 -40.420  0.00  0.00    +0.000 C 
ATOM     19  C18 UNL     1      27.350  -8.077 -41.153  0.00  0.00    +0.000 C 
ATOM     20  C19 UNL     1      26.870  -7.887 -42.525  0.00  0.00    +0.000 C 
ATOM     21  C20 UNL     1      27.606  -7.426 -43.541  0.00  0.00    +0.000 C 
ATOM     22  O5  UNL     1      25.525  -8.225 -42.594  0.00  0.00    +0.000 OA
ATOM     23  C28 UNL     1      25.173  -8.619 -41.315  0.00  0.00    +0.000 C 
ATOM     24  O6  UNL     1      24.012  -8.986 -40.998  0.00  0.00    +0.000 OA
BRANCH  21  25
ATOM     25  C21 UNL     1      27.092  -7.237 -44.915  0.00  0.00    +0.000 A 
ATOM     26  C22 UNL     1      27.951  -7.237 -46.050  0.00  0.00    +0.000 A 
ATOM     27  C23 UNL     1      27.431  -7.034 -47.341  0.00  0.00    +0.000 A 
ATOM     28  C24 UNL     1      26.062  -6.819 -47.465  0.00  0.00    +0.000 A 
ATOM     29  C25 UNL     1      25.239  -6.797 -46.387  0.00  0.00    +0.000 A 
ATOM     30  C26 UNL     1      25.712  -6.993 -45.093  0.00  0.00    +0.000 A 
ATOM     31  O3  UNL     1      23.943  -6.557 -46.802  0.00  0.00    +0.000 OA
ATOM     32  C27 UNL     1      23.954  -6.420 -48.230  0.00  0.00    +0.000 C 
ATOM     33  O4  UNL     1      25.326  -6.594 -48.611  0.00  0.00    +0.000 OA
ENDBRANCH  21  25
ENDBRANCH  17  18
ENDBRANCH  13  16
BRANCH   6  34
ATOM     34  C8  UNL     1      29.872  -6.822 -33.473  0.00  0.00    +0.000 C 
BRANCH  34  35
ATOM     35  O1  UNL     1      30.679  -6.786 -32.329  0.00  0.00    +0.000 OA
ATOM     36  H13 UNL     1      30.199  -7.305 -31.633  0.00  0.00    +0.000 HD
ENDBRANCH  34  35
ENDBRANCH   6  34
TORSDOF 6
ENDMDL
MODEL 7
REMARK VINA RESULT:    -5.205      5.486      8.907
REMARK INTER + INTRA:          -7.858
REMARK INTER:                  -7.747
REMARK INTRA:                  -0.111
REMARK UNBOUND:                -1.132
REMARK  Name = resultss/4CJN/ligands/lig_92_t0.pdb
REMARK  8 active torsions:
REMARK  status: ('A' for Active; 'I' for Inactive)
REMARK    1  A    between atoms: C6_6  and  C7_7
REMARK    2  A    between atoms: C6_6  and  C8_8
REMARK    3  A    between atoms: C8_8  and  O1_9
REMARK    4  A    between atoms: C9_10  and  O2_11
REMARK    5  A    between atoms: C12_14  and  C13_15
REMARK    6  A    between atoms: C14_16  and  C15_17
REMARK    7  A    between atoms: C16_18  and  C17_19
REMARK    8  A    between atoms: C20_22  and  C21_23
REMARK                            x       y       z     vdW  Elec       q    Type
REMARK                         _______ _______ _______ _____ _____    ______ ____
ROOT
ATOM      1  C1  UNL     1      28.853  -8.497 -41.107  0.00  0.00    +0.000 C 
ATOM      2  C2  UNL     1      28.731  -8.744 -39.789  0.00  0.00    +0.000 C 
ATOM      3  C3  UNL     1      29.575  -9.884 -39.220  0.00  0.00    +0.000 C 
ATOM      4  C4  UNL     1      29.577 -10.055 -37.684  0.00  0.00    +0.000 C 
ATOM      5  C5  UNL     1      29.151  -8.763 -36.957  0.00  0.00    +0.000 C 
ATOM      6  C6  UNL     1      29.405  -8.696 -35.395  0.00  0.00    +0.000 C 
ATOM      7  C7  UNL     1      30.911  -8.982 -35.117  0.00  0.00    +0.000 C 
ATOM      8  C9  UNL     1      29.120  -7.221 -34.884  0.00  0.00    +0.000 C 
ATOM      9  C10 UNL     1      28.249  -6.370 -35.837  0.00  0.00    +0.000 C 
ATOM     10  C11 UNL     1      27.156  -7.186 -36.526  0.00  0.00    +0.000 C 
ATOM     11  C12 UNL     1      27.720  -8.319 -37.447  0.00  0.00    +0.000 C 
ATOM     12  C13 UNL     1      26.692  -9.496 -37.460  0.00  0.00    +0.000 C 
ATOM     13  C14 UNL     1      27.899  -7.792 -38.917  0.00  0.00    +0.000 C 
ENDROOT
BRANCH   8  14
ATOM     14  O2  UNL     1      28.546  -7.209 -33.600  0.00  0.00    +0.000 OA
ATOM     15  H15 UNL     1      28.852  -6.376 -33.155  0.00  0.00    +0.000 HD
ENDBRANCH   8  14
BRANCH  13  16
ATOM     16  C15 UNL     1      26.565  -7.495 -39.584  0.00  0.00    +0.000 C 
ATOM     17  C16 UNL     1      25.968  -8.376 -40.395  0.00  0.00    +0.000 C 
BRANCH  17  18
ATOM     18  C17 UNL     1      24.676  -8.125 -41.067  0.00  0.00    +0.000 C 
ATOM     19  C18 UNL     1      23.897  -7.080 -40.800  0.00  0.00    +0.000 C 
ATOM     20  C19 UNL     1      22.707  -7.173 -41.649  0.00  0.00    +0.000 C 
ATOM     21  C20 UNL     1      21.687  -6.308 -41.643  0.00  0.00    +0.000 C 
ATOM     22  O5  UNL     1      22.786  -8.317 -42.432  0.00  0.00    +0.000 OA
ATOM     23  C28 UNL     1      23.986  -8.918 -42.094  0.00  0.00    +0.000 C 
ATOM     24  O6  UNL     1      24.388  -9.996 -42.602  0.00  0.00    +0.000 OA
BRANCH  21  25
ATOM     25  C21 UNL     1      20.493  -6.432 -42.506  0.00  0.00    +0.000 A 
ATOM     26  C22 UNL     1      19.175  -6.230 -42.008  0.00  0.00    +0.000 A 
ATOM     27  C23 UNL     1      18.060  -6.376 -42.852  0.00  0.00    +0.000 A 
ATOM     28  C24 UNL     1      18.289  -6.737 -44.176  0.00  0.00    +0.000 A 
ATOM     29  C25 UNL     1      19.540  -6.953 -44.654  0.00  0.00    +0.000 A 
ATOM     30  C26 UNL     1      20.670  -6.820 -43.854  0.00  0.00    +0.000 A 
ATOM     31  O3  UNL     1      19.468  -7.304 -45.989  0.00  0.00    +0.000 OA
ATOM     32  C27 UNL     1      18.085  -7.310 -46.371  0.00  0.00    +0.000 C 
ATOM     33  O4  UNL     1      17.368  -6.943 -45.184  0.00  0.00    +0.000 OA
ENDBRANCH  21  25
ENDBRANCH  17  18
ENDBRANCH  13  16
BRANCH   6  34
ATOM     34  C8  UNL     1      28.610  -9.780 -34.593  0.00  0.00    +0.000 C 
BRANCH  34  35
ATOM     35  O1  UNL     1      29.266 -10.169 -33.417  0.00  0.00    +0.000 OA
ATOM     36  H13 UNL     1      29.031 -11.122 -33.269  0.00  0.00    +0.000 HD
ENDBRANCH  34  35
ENDBRANCH   6  34
TORSDOF 6
ENDMDL
MODEL 8
REMARK VINA RESULT:    -4.888      4.862      8.998
REMARK INTER + INTRA:          -7.449
REMARK INTER:                  -6.400
REMARK INTRA:                  -1.050
REMARK UNBOUND:                -1.132
REMARK  Name = resultss/4CJN/ligands/lig_92_t0.pdb
REMARK  8 active torsions:
REMARK  status: ('A' for Active; 'I' for Inactive)
REMARK    1  A    between atoms: C6_6  and  C7_7
REMARK    2  A    between atoms: C6_6  and  C8_8
REMARK    3  A    between atoms: C8_8  and  O1_9
REMARK    4  A    between atoms: C9_10  and  O2_11
REMARK    5  A    between atoms: C12_14  and  C13_15
REMARK    6  A    between atoms: C14_16  and  C15_17
REMARK    7  A    between atoms: C16_18  and  C17_19
REMARK    8  A    between atoms: C20_22  and  C21_23
REMARK                            x       y       z     vdW  Elec       q    Type
REMARK                         _______ _______ _______ _____ _____    ______ ____
ROOT
ATOM      1  C1  UNL     1      25.326  -5.885 -37.375  0.00  0.00    +0.000 C 
ATOM      2  C2  UNL     1      25.323  -6.483 -38.582  0.00  0.00    +0.000 C 
ATOM      3  C3  UNL     1      23.996  -6.501 -39.340  0.00  0.00    +0.000 C 
ATOM      4  C4  UNL     1      24.026  -7.023 -40.794  0.00  0.00    +0.000 C 
ATOM      5  C5  UNL     1      25.442  -6.957 -41.403  0.00  0.00    +0.000 C 
ATOM      6  C6  UNL     1      25.565  -7.162 -42.969  0.00  0.00    +0.000 C 
ATOM      7  C7  UNL     1      24.637  -6.137 -43.685  0.00  0.00    +0.000 C 
ATOM      8  C9  UNL     1      27.049  -6.829 -43.422  0.00  0.00    +0.000 C 
ATOM      9  C10 UNL     1      28.091  -6.862 -42.280  0.00  0.00    +0.000 C 
ATOM     10  C11 UNL     1      27.813  -7.964 -41.259  0.00  0.00    +0.000 C 
ATOM     11  C12 UNL     1      26.448  -7.783 -40.514  0.00  0.00    +0.000 C 
ATOM     12  C13 UNL     1      25.903  -9.200 -40.140  0.00  0.00    +0.000 C 
ATOM     13  C14 UNL     1      26.650  -6.958 -39.191  0.00  0.00    +0.000 C 
ENDROOT
BRANCH   8  14
ATOM     14  O2  UNL     1      27.482  -7.665 -44.467  0.00  0.00    +0.000 OA
ATOM     15  H15 UNL     1      28.467  -7.560 -44.532  0.00  0.00    +0.000 HD
ENDBRANCH   8  14
BRANCH  13  16
ATOM     16  C15 UNL     1      27.461  -7.725 -38.157  0.00  0.00    +0.000 C 
ATOM     17  C16 UNL     1      28.695  -7.345 -37.803  0.00  0.00    +0.000 C 
BRANCH  17  18
ATOM     18  C17 UNL     1      29.518  -8.063 -36.808  0.00  0.00    +0.000 C 
ATOM     19  C18 UNL     1      29.822  -7.570 -35.610  0.00  0.00    +0.000 C 
ATOM     20  C19 UNL     1      30.655  -8.554 -34.913  0.00  0.00    +0.000 C 
ATOM     21  C20 UNL     1      31.171  -8.397 -33.690  0.00  0.00    +0.000 C 
ATOM     22  O5  UNL     1      30.853  -9.656 -35.735  0.00  0.00    +0.000 OA
ATOM     23  C28 UNL     1      30.165  -9.378 -36.903  0.00  0.00    +0.000 C 
ATOM     24  O6  UNL     1      30.133 -10.158 -37.890  0.00  0.00    +0.000 OA
BRANCH  21  25
ATOM     25  C21 UNL     1      32.016  -9.406 -33.014  0.00  0.00    +0.000 A 
ATOM     26  C22 UNL     1      33.437  -9.339 -33.036  0.00  0.00    +0.000 A 
ATOM     27  C23 UNL     1      34.210 -10.327 -32.400  0.00  0.00    +0.000 A 
ATOM     28  C24 UNL     1      33.541 -11.370 -31.768  0.00  0.00    +0.000 A 
ATOM     29  C25 UNL     1      32.188 -11.453 -31.759  0.00  0.00    +0.000 A 
ATOM     30  C26 UNL     1      31.385 -10.498 -32.376  0.00  0.00    +0.000 A 
ATOM     31  O3  UNL     1      31.800 -12.586 -31.070  0.00  0.00    +0.000 OA
ATOM     32  C27 UNL     1      32.986 -13.257 -30.619  0.00  0.00    +0.000 C 
ATOM     33  O4  UNL     1      34.074 -12.446 -31.087  0.00  0.00    +0.000 OA
ENDBRANCH  21  25
ENDBRANCH  17  18
ENDBRANCH  13  16
BRANCH   6  34
ATOM     34  C8  UNL     1      25.088  -8.575 -43.446  0.00  0.00    +0.000 C 
BRANCH  34  35
ATOM     35  O1  UNL     1      23.811  -8.547 -44.020  0.00  0.00    +0.000 OA
ATOM     36  H13 UNL     1      23.258  -7.958 -43.443  0.00  0.00    +0.000 HD
ENDBRANCH  34  35
ENDBRANCH   6  34
TORSDOF 6
ENDMDL
MODEL 9
REMARK VINA RESULT:    -4.412      4.464      6.853
REMARK INTER + INTRA:          -6.834
REMARK INTER:                  -6.271
REMARK INTRA:                  -0.563
REMARK UNBOUND:                -1.132
REMARK  Name = resultss/4CJN/ligands/lig_92_t0.pdb
REMARK  8 active torsions:
REMARK  status: ('A' for Active; 'I' for Inactive)
REMARK    1  A    between atoms: C6_6  and  C7_7
REMARK    2  A    between atoms: C6_6  and  C8_8
REMARK    3  A    between atoms: C8_8  and  O1_9
REMARK    4  A    between atoms: C9_10  and  O2_11
REMARK    5  A    between atoms: C12_14  and  C13_15
REMARK    6  A    between atoms: C14_16  and  C15_17
REMARK    7  A    between atoms: C16_18  and  C17_19
REMARK    8  A    between atoms: C20_22  and  C21_23
REMARK                            x       y       z     vdW  Elec       q    Type
REMARK                         _______ _______ _______ _____ _____    ______ ____
ROOT
ATOM      1  C1  UNL     1      32.732  -7.636 -39.340  0.00  0.00    +0.000 C 
ATOM      2  C2  UNL     1      32.075  -8.088 -38.255  0.00  0.00    +0.000 C 
ATOM      3  C3  UNL     1      32.890  -8.883 -37.236  0.00  0.00    +0.000 C 
ATOM      4  C4  UNL     1      32.189  -9.249 -35.909  0.00  0.00    +0.000 C 
ATOM      5  C5  UNL     1      30.982  -8.332 -35.620  0.00  0.00    +0.000 C 
ATOM      6  C6  UNL     1      30.366  -8.387 -34.162  0.00  0.00    +0.000 C 
ATOM      7  C7  UNL     1      31.496  -8.109 -33.127  0.00  0.00    +0.000 C 
ATOM      8  C9  UNL     1      29.303  -7.219 -34.002  0.00  0.00    +0.000 C 
ATOM      9  C10 UNL     1      28.775  -6.646 -35.337  0.00  0.00    +0.000 C 
ATOM     10  C11 UNL     1      28.606  -7.717 -36.414  0.00  0.00    +0.000 C 
ATOM     11  C12 UNL     1      29.953  -8.408 -36.811  0.00  0.00    +0.000 C 
ATOM     12  C13 UNL     1      29.638  -9.877 -37.247  0.00  0.00    +0.000 C 
ATOM     13  C14 UNL     1      30.619  -7.658 -38.021  0.00  0.00    +0.000 C 
ENDROOT
BRANCH   8  14
ATOM     14  O2  UNL     1      28.213  -7.604 -33.201  0.00  0.00    +0.000 OA
ATOM     15  H15 UNL     1      28.586  -8.101 -32.427  0.00  0.00    +0.000 HD
ENDBRANCH   8  14
BRANCH  13  16
ATOM     16  C15 UNL     1      29.812  -7.807 -39.302  0.00  0.00    +0.000 C 
ATOM     17  C16 UNL     1      28.875  -6.919 -39.654  0.00  0.00    +0.000 C 
BRANCH  17  18
ATOM     18  C17 UNL     1      28.064  -7.028 -40.886  0.00  0.00    +0.000 C 
ATOM     19  C18 UNL     1      26.987  -6.286 -41.127  0.00  0.00    +0.000 C 
ATOM     20  C19 UNL     1      26.447  -6.681 -42.431  0.00  0.00    +0.000 C 
ATOM     21  C20 UNL     1      25.351  -6.167 -42.998  0.00  0.00    +0.000 C 
ATOM     22  O5  UNL     1      27.230  -7.695 -42.966  0.00  0.00    +0.000 OA
ATOM     23  C28 UNL     1      28.229  -7.925 -42.037  0.00  0.00    +0.000 C 
ATOM     24  O6  UNL     1      29.124  -8.798 -42.184  0.00  0.00    +0.000 OA
BRANCH  21  25
ATOM     25  C21 UNL     1      24.825  -6.591 -44.313  0.00  0.00    +0.000 A 
ATOM     26  C22 UNL     1      25.676  -6.820 -45.430  0.00  0.00    +0.000 A 
ATOM     27  C23 UNL     1      25.140  -7.202 -46.672  0.00  0.00    +0.000 A 
ATOM     28  C24 UNL     1      23.759  -7.332 -46.773  0.00  0.00    +0.000 A 
ATOM     29  C25 UNL     1      22.938  -7.095 -45.720  0.00  0.00    +0.000 A 
ATOM     30  C26 UNL     1      23.426  -6.715 -44.474  0.00  0.00    +0.000 A 
ATOM     31  O3  UNL     1      21.626  -7.291 -46.106  0.00  0.00    +0.000 OA
ATOM     32  C27 UNL     1      21.623  -7.675 -47.489  0.00  0.00    +0.000 C 
ATOM     33  O4  UNL     1      23.005  -7.688 -47.874  0.00  0.00    +0.000 OA
ENDBRANCH  21  25
ENDBRANCH  17  18
ENDBRANCH  13  16
BRANCH   6  34
ATOM     34  C8  UNL     1      29.784  -9.792 -33.790  0.00  0.00    +0.000 C 
BRANCH  34  35
ATOM     35  O1  UNL     1      29.634  -9.964 -32.408  0.00  0.00    +0.000 OA
ATOM     36  H13 UNL     1      29.714 -10.938 -32.238  0.00  0.00    +0.000 HD
ENDBRANCH  34  35
ENDBRANCH   6  34
TORSDOF 6
ENDMDL
