MODEL 1
REMARK VINA RESULT:    -4.577      0.000      0.000
REMARK INTER + INTRA:          -7.054
REMARK INTER:                  -6.584
REMARK INTRA:                  -0.470
REMARK UNBOUND:                -0.470
REMARK  Name = resultss/4CJN/ligands/lig_57_t0.pdb
REMARK  11 active torsions:
REMARK  status: ('A' for Active; 'I' for Inactive)
REMARK    1  A    between atoms: O1_1  and  C1_2
REMARK    2  A    between atoms: C1_2  and  N1_3
REMARK    3  A    between atoms: N1_3  and  C2_4
REMARK    4  A    between atoms: N1_3  and  C3_6
REMARK    5  A    between atoms: C2_4  and  O2_5
REMARK    6  A    between atoms: C5_8  and  O3_9
REMARK    7  A    between atoms: C5_8  and  C6_10
REMARK    8  A    between atoms: C6_10  and  O4_11
REMARK    9  A    between atoms: C7_12  and  O5_13
REMARK   10  A    between atoms: C8_14  and  O6_15
REMARK   11  A    between atoms: C9_16  and  O7_17
REMARK                            x       y       z     vdW  Elec       q    Type
REMARK                         _______ _______ _______ _____ _____    ______ ____
ROOT
ATOM      1  C3  UNL     1      24.977  -7.581 -34.362  0.00  0.00    +0.000 C 
ATOM      2  C4  UNL     1      26.228  -8.352 -33.839  0.00  0.00    +0.000 C 
ATOM      3  C5  UNL     1      26.709  -9.567 -34.684  0.00  0.00    +0.000 C 
ATOM      4  C7  UNL     1      26.719  -9.193 -36.190  0.00  0.00    +0.000 C 
ATOM      5  C8  UNL     1      25.319  -8.763 -36.661  0.00  0.00    +0.000 C 
ATOM      6  C9  UNL     1      24.860  -7.495 -35.910  0.00  0.00    +0.000 C 
ENDROOT
BRANCH   3   7
ATOM      7  O3  UNL     1      25.847 -10.658 -34.454  0.00  0.00    +0.000 OA
ATOM      8  H10 UNL     1      24.950 -10.307 -34.218  0.00  0.00    +0.000 HD
ENDBRANCH   3   7
BRANCH   4   9
ATOM      9  O5  UNL     1      27.151 -10.295 -36.954  0.00  0.00    +0.000 OA
ATOM     10  H15 UNL     1      26.351 -10.669 -37.408  0.00  0.00    +0.000 HD
ENDBRANCH   4   9
BRANCH   5  11
ATOM     11  O6  UNL     1      25.371  -8.490 -38.039  0.00  0.00    +0.000 OA
ATOM     12  H17 UNL     1      26.280  -8.138 -38.234  0.00  0.00    +0.000 HD
ENDBRANCH   5  11
BRANCH   6  13
ATOM     13  O7  UNL     1      23.537  -7.179 -36.268  0.00  0.00    +0.000 OA
ATOM     14  H19 UNL     1      23.578  -6.442 -36.932  0.00  0.00    +0.000 HD
ENDBRANCH   6  13
BRANCH   1  15
ATOM     15  N1  UNL     1      23.680  -7.921 -33.701  0.00  0.00    +0.000 NA
BRANCH  15  16
ATOM     16  C1  UNL     1      23.051  -6.770 -33.016  0.00  0.00    +0.000 C 
BRANCH  16  17
ATOM     17  O1  UNL     1      24.004  -6.080 -32.255  0.00  0.00    +0.000 OA
ATOM     18  H1  UNL     1      23.508  -5.645 -31.513  0.00  0.00    +0.000 HD
ENDBRANCH  16  17
ENDBRANCH  15  16
BRANCH  15  19
ATOM     19  C2  UNL     1      23.637  -9.143 -32.878  0.00  0.00    +0.000 C 
BRANCH  19  20
ATOM     20  O2  UNL     1      23.078  -8.888 -31.617  0.00  0.00    +0.000 OA
ATOM     21  H6  UNL     1      23.072  -7.902 -31.512  0.00  0.00    +0.000 HD
ENDBRANCH  19  20
ENDBRANCH  15  19
ENDBRANCH   1  15
BRANCH   3  22
ATOM     22  C6  UNL     1      28.142  -9.955 -34.232  0.00  0.00    +0.000 C 
BRANCH  22  23
ATOM     23  O4  UNL     1      29.090  -9.448 -35.131  0.00  0.00    +0.000 OA
ATOM     24  H13 UNL     1      28.639  -8.713 -35.623  0.00  0.00    +0.000 HD
ENDBRANCH  22  23
ENDBRANCH   3  22
TORSDOF 11
ENDMDL
MODEL 2
REMARK VINA RESULT:    -4.126      2.882      4.132
REMARK INTER + INTRA:          -6.406
REMARK INTER:                  -6.136
REMARK INTRA:                  -0.269
REMARK UNBOUND:                -0.470
REMARK  Name = resultss/4CJN/ligands/lig_57_t0.pdb
REMARK  11 active torsions:
REMARK  status: ('A' for Active; 'I' for Inactive)
REMARK    1  A    between atoms: O1_1  and  C1_2
REMARK    2  A    between atoms: C1_2  and  N1_3
REMARK    3  A    between atoms: N1_3  and  C2_4
REMARK    4  A    between atoms: N1_3  and  C3_6
REMARK    5  A    between atoms: C2_4  and  O2_5
REMARK    6  A    between atoms: C5_8  and  O3_9
REMARK    7  A    between atoms: C5_8  and  C6_10
REMARK    8  A    between atoms: C6_10  and  O4_11
REMARK    9  A    between atoms: C7_12  and  O5_13
REMARK   10  A    between atoms: C8_14  and  O6_15
REMARK   11  A    between atoms: C9_16  and  O7_17
REMARK                            x       y       z     vdW  Elec       q    Type
REMARK                         _______ _______ _______ _____ _____    ______ ____
ROOT
ATOM      1  C3  UNL     1      26.427  -8.432 -38.040  0.00  0.00    +0.000 C 
ATOM      2  C4  UNL     1      27.971  -8.643 -37.973  0.00  0.00    +0.000 C 
ATOM      3  C5  UNL     1      28.541  -9.896 -38.698  0.00  0.00    +0.000 C 
ATOM      4  C7  UNL     1      27.895 -10.035 -40.102  0.00  0.00    +0.000 C 
ATOM      5  C8  UNL     1      26.365 -10.156 -39.995  0.00  0.00    +0.000 C 
ATOM      6  C9  UNL     1      25.762  -8.880 -39.373  0.00  0.00    +0.000 C 
ENDROOT
BRANCH   3   7
ATOM      7  O3  UNL     1      28.276 -11.040 -37.920  0.00  0.00    +0.000 OA
ATOM      8  H10 UNL     1      28.240 -10.771 -36.965  0.00  0.00    +0.000 HD
ENDBRANCH   3   7
BRANCH   4   9
ATOM      9  O5  UNL     1      28.410 -11.171 -40.755  0.00  0.00    +0.000 OA
ATOM     10  H15 UNL     1      28.439 -10.963 -41.726  0.00  0.00    +0.000 HD
ENDBRANCH   4   9
BRANCH   5  11
ATOM     11  O6  UNL     1      25.837 -10.335 -41.285  0.00  0.00    +0.000 OA
ATOM     12  H17 UNL     1      25.570  -9.438 -41.621  0.00  0.00    +0.000 HD
ENDBRANCH   5  11
BRANCH   6  13
ATOM     13  O7  UNL     1      24.380  -9.049 -39.178  0.00  0.00    +0.000 OA
ATOM     14  H19 UNL     1      24.256  -9.500 -38.302  0.00  0.00    +0.000 HD
ENDBRANCH   6  13
BRANCH   1  15
ATOM     15  N1  UNL     1      25.658  -8.867 -36.834  0.00  0.00    +0.000 NA
BRANCH  15  16
ATOM     16  C1  UNL     1      24.746  -7.824 -36.314  0.00  0.00    +0.000 C 
BRANCH  16  17
ATOM     17  O1  UNL     1      23.414  -8.167 -36.583  0.00  0.00    +0.000 OA
ATOM     18  H1  UNL     1      23.413  -9.135 -36.802  0.00  0.00    +0.000 HD
ENDBRANCH  16  17
ENDBRANCH  15  16
BRANCH  15  19
ATOM     19  C2  UNL     1      26.407  -9.533 -35.755  0.00  0.00    +0.000 C 
BRANCH  19  20
ATOM     20  O2  UNL     1      25.583 -10.400 -35.022  0.00  0.00    +0.000 OA
ATOM     21  H6  UNL     1      26.049 -11.276 -35.004  0.00  0.00    +0.000 HD
ENDBRANCH  19  20
ENDBRANCH  15  19
ENDBRANCH   1  15
BRANCH   3  22
ATOM     22  C6  UNL     1      30.078  -9.733 -38.843  0.00  0.00    +0.000 C 
BRANCH  22  23
ATOM     23  O4  UNL     1      30.744 -10.567 -37.934  0.00  0.00    +0.000 OA
ATOM     24  H13 UNL     1      31.388 -11.100 -38.469  0.00  0.00    +0.000 HD
ENDBRANCH  22  23
ENDBRANCH   3  22
TORSDOF 11
ENDMDL
MODEL 3
REMARK VINA RESULT:    -4.125      3.828      5.800
REMARK INTER + INTRA:          -6.403
REMARK INTER:                  -5.844
REMARK INTRA:                  -0.559
REMARK UNBOUND:                -0.470
REMARK  Name = resultss/4CJN/ligands/lig_57_t0.pdb
REMARK  11 active torsions:
REMARK  status: ('A' for Active; 'I' for Inactive)
REMARK    1  A    between atoms: O1_1  and  C1_2
REMARK    2  A    between atoms: C1_2  and  N1_3
REMARK    3  A    between atoms: N1_3  and  C2_4
REMARK    4  A    between atoms: N1_3  and  C3_6
REMARK    5  A    between atoms: C2_4  and  O2_5
REMARK    6  A    between atoms: C5_8  and  O3_9
REMARK    7  A    between atoms: C5_8  and  C6_10
REMARK    8  A    between atoms: C6_10  and  O4_11
REMARK    9  A    between atoms: C7_12  and  O5_13
REMARK   10  A    between atoms: C8_14  and  O6_15
REMARK   11  A    between atoms: C9_16  and  O7_17
REMARK                            x       y       z     vdW  Elec       q    Type
REMARK                         _______ _______ _______ _____ _____    ______ ____
ROOT
ATOM      1  C3  UNL     1      26.687  -8.493 -38.552  0.00  0.00    +0.000 C 
ATOM      2  C4  UNL     1      27.792  -8.461 -39.654  0.00  0.00    +0.000 C 
ATOM      3  C5  UNL     1      27.466  -9.175 -40.997  0.00  0.00    +0.000 C 
ATOM      4  C7  UNL     1      26.032  -8.804 -41.459  0.00  0.00    +0.000 C 
ATOM      5  C8  UNL     1      24.990  -9.203 -40.400  0.00  0.00    +0.000 C 
ATOM      6  C9  UNL     1      25.228  -8.430 -39.086  0.00  0.00    +0.000 C 
ENDROOT
BRANCH   3   7
ATOM      7  O3  UNL     1      27.579 -10.568 -40.818  0.00  0.00    +0.000 OA
ATOM      8  H10 UNL     1      28.174 -10.739 -40.042  0.00  0.00    +0.000 HD
ENDBRANCH   3   7
BRANCH   4   9
ATOM      9  O5  UNL     1      25.737  -9.453 -42.673  0.00  0.00    +0.000 OA
ATOM     10  H15 UNL     1      24.819  -9.181 -42.936  0.00  0.00    +0.000 HD
ENDBRANCH   4   9
BRANCH   5  11
ATOM     11  O6  UNL     1      23.709  -8.898 -40.890  0.00  0.00    +0.000 OA
ATOM     12  H17 UNL     1      23.247  -8.361 -40.192  0.00  0.00    +0.000 HD
ENDBRANCH   5  11
BRANCH   6  13
ATOM     13  O7  UNL     1      24.341  -8.887 -38.094  0.00  0.00    +0.000 OA
ATOM     14  H19 UNL     1      24.171  -8.128 -37.476  0.00  0.00    +0.000 HD
ENDBRANCH   6  13
BRANCH   1  15
ATOM     15  N1  UNL     1      26.868  -9.519 -37.479  0.00  0.00    +0.000 NA
BRANCH  15  16
ATOM     16  C1  UNL     1      26.558  -9.010 -36.125  0.00  0.00    +0.000 C 
BRANCH  16  17
ATOM     17  O1  UNL     1      25.662  -9.871 -35.477  0.00  0.00    +0.000 OA
ATOM     18  H1  UNL     1      26.066 -10.083 -34.595  0.00  0.00    +0.000 HD
ENDBRANCH  16  17
ENDBRANCH  15  16
BRANCH  15  19
ATOM     19  C2  UNL     1      28.110 -10.312 -37.501  0.00  0.00    +0.000 C 
BRANCH  19  20
ATOM     20  O2  UNL     1      27.928 -11.523 -38.183  0.00  0.00    +0.000 OA
ATOM     21  H6  UNL     1      26.983 -11.786 -38.035  0.00  0.00    +0.000 HD
ENDBRANCH  19  20
ENDBRANCH  15  19
ENDBRANCH   1  15
BRANCH   3  22
ATOM     22  C6  UNL     1      28.494  -8.720 -42.067  0.00  0.00    +0.000 C 
BRANCH  22  23
ATOM     23  O4  UNL     1      28.703  -9.740 -43.006  0.00  0.00    +0.000 OA
ATOM     24  H13 UNL     1      29.061 -10.514 -42.498  0.00  0.00    +0.000 HD
ENDBRANCH  22  23
ENDBRANCH   3  22
TORSDOF 11
ENDMDL
MODEL 4
REMARK VINA RESULT:    -4.120      1.931      4.064
REMARK INTER + INTRA:          -6.396
REMARK INTER:                  -5.652
REMARK INTRA:                  -0.744
REMARK UNBOUND:                -0.470
REMARK  Name = resultss/4CJN/ligands/lig_57_t0.pdb
REMARK  11 active torsions:
REMARK  status: ('A' for Active; 'I' for Inactive)
REMARK    1  A    between atoms: O1_1  and  C1_2
REMARK    2  A    between atoms: C1_2  and  N1_3
REMARK    3  A    between atoms: N1_3  and  C2_4
REMARK    4  A    between atoms: N1_3  and  C3_6
REMARK    5  A    between atoms: C2_4  and  O2_5
REMARK    6  A    between atoms: C5_8  and  O3_9
REMARK    7  A    between atoms: C5_8  and  C6_10
REMARK    8  A    between atoms: C6_10  and  O4_11
REMARK    9  A    between atoms: C7_12  and  O5_13
REMARK   10  A    between atoms: C8_14  and  O6_15
REMARK   11  A    between atoms: C9_16  and  O7_17
REMARK                            x       y       z     vdW  Elec       q    Type
REMARK                         _______ _______ _______ _____ _____    ______ ____
ROOT
ATOM      1  C3  UNL     1      26.076  -7.271 -34.444  0.00  0.00    +0.000 C 
ATOM      2  C4  UNL     1      26.179  -7.302 -36.000  0.00  0.00    +0.000 C 
ATOM      3  C5  UNL     1      24.876  -7.635 -36.784  0.00  0.00    +0.000 C 
ATOM      4  C7  UNL     1      23.685  -6.834 -36.195  0.00  0.00    +0.000 C 
ATOM      5  C8  UNL     1      23.484  -7.159 -34.705  0.00  0.00    +0.000 C 
ATOM      6  C9  UNL     1      24.724  -6.742 -33.887  0.00  0.00    +0.000 C 
ENDROOT
BRANCH   3   7
ATOM      7  O3  UNL     1      24.628  -9.019 -36.699  0.00  0.00    +0.000 OA
ATOM      8  H10 UNL     1      25.488  -9.501 -36.808  0.00  0.00    +0.000 HD
ENDBRANCH   3   7
BRANCH   4   9
ATOM      9  O5  UNL     1      22.507  -7.138 -36.903  0.00  0.00    +0.000 OA
ATOM     10  H15 UNL     1      21.752  -7.069 -36.261  0.00  0.00    +0.000 HD
ENDBRANCH   4   9
BRANCH   5  11
ATOM     11  O6  UNL     1      22.362  -6.453 -34.237  0.00  0.00    +0.000 OA
ATOM     12  H17 UNL     1      22.641  -5.972 -33.413  0.00  0.00    +0.000 HD
ENDBRANCH   5  11
BRANCH   6  13
ATOM     13  O7  UNL     1      24.573  -7.147 -32.548  0.00  0.00    +0.000 OA
ATOM     14  H19 UNL     1      23.935  -7.909 -32.538  0.00  0.00    +0.000 HD
ENDBRANCH   6  13
BRANCH   1  15
ATOM     15  N1  UNL     1      26.553  -8.499 -33.736  0.00  0.00    +0.000 NA
BRANCH  15  16
ATOM     16  C1  UNL     1      27.747  -8.262 -32.893  0.00  0.00    +0.000 C 
BRANCH  16  17
ATOM     17  O1  UNL     1      27.361  -7.807 -31.625  0.00  0.00    +0.000 OA
ATOM     18  H1  UNL     1      26.540  -7.266 -31.760  0.00  0.00    +0.000 HD
ENDBRANCH  16  17
ENDBRANCH  15  16
BRANCH  15  19
ATOM     19  C2  UNL     1      26.673  -9.735 -34.528  0.00  0.00    +0.000 C 
BRANCH  19  20
ATOM     20  O2  UNL     1      25.549 -10.558 -34.362  0.00  0.00    +0.000 OA
ATOM     21  H6  UNL     1      25.771 -11.184 -33.626  0.00  0.00    +0.000 HD
ENDBRANCH  19  20
ENDBRANCH  15  19
ENDBRANCH   1  15
BRANCH   3  22
ATOM     22  C6  UNL     1      25.079  -7.252 -38.274  0.00  0.00    +0.000 C 
BRANCH  22  23
ATOM     23  O4  UNL     1      24.315  -8.089 -39.100  0.00  0.00    +0.000 OA
ATOM     24  H13 UNL     1      24.867  -8.257 -39.908  0.00  0.00    +0.000 HD
ENDBRANCH  22  23
ENDBRANCH   3  22
TORSDOF 11
ENDMDL
MODEL 5
REMARK VINA RESULT:    -4.081      1.647      2.394
REMARK INTER + INTRA:          -6.341
REMARK INTER:                  -5.605
REMARK INTRA:                  -0.736
REMARK UNBOUND:                -0.470
REMARK  Name = resultss/4CJN/ligands/lig_57_t0.pdb
REMARK  11 active torsions:
REMARK  status: ('A' for Active; 'I' for Inactive)
REMARK    1  A    between atoms: O1_1  and  C1_2
REMARK    2  A    between atoms: C1_2  and  N1_3
REMARK    3  A    between atoms: N1_3  and  C2_4
REMARK    4  A    between atoms: N1_3  and  C3_6
REMARK    5  A    between atoms: C2_4  and  O2_5
REMARK    6  A    between atoms: C5_8  and  O3_9
REMARK    7  A    between atoms: C5_8  and  C6_10
REMARK    8  A    between atoms: C6_10  and  O4_11
REMARK    9  A    between atoms: C7_12  and  O5_13
REMARK   10  A    between atoms: C8_14  and  O6_15
REMARK   11  A    between atoms: C9_16  and  O7_17
REMARK                            x       y       z     vdW  Elec       q    Type
REMARK                         _______ _______ _______ _____ _____    ______ ____
ROOT
ATOM      1  C3  UNL     1      25.726  -7.667 -35.903  0.00  0.00    +0.000 C 
ATOM      2  C4  UNL     1      27.228  -8.004 -36.156  0.00  0.00    +0.000 C 
ATOM      3  C5  UNL     1      27.533  -9.115 -37.202  0.00  0.00    +0.000 C 
ATOM      4  C7  UNL     1      26.660  -8.905 -38.467  0.00  0.00    +0.000 C 
ATOM      5  C8  UNL     1      25.163  -8.929 -38.114  0.00  0.00    +0.000 C 
ATOM      6  C9  UNL     1      24.812  -7.772 -37.156  0.00  0.00    +0.000 C 
ENDROOT
BRANCH   3   7
ATOM      7  O3  UNL     1      27.270 -10.374 -36.627  0.00  0.00    +0.000 OA
ATOM      8  H10 UNL     1      27.213 -11.047 -37.355  0.00  0.00    +0.000 HD
ENDBRANCH   3   7
BRANCH   4   9
ATOM      9  O5  UNL     1      26.934  -9.912 -39.411  0.00  0.00    +0.000 OA
ATOM     10  H15 UNL     1      26.738 -10.783 -38.976  0.00  0.00    +0.000 HD
ENDBRANCH   4   9
BRANCH   5  11
ATOM     11  O6  UNL     1      24.418  -8.791 -39.298  0.00  0.00    +0.000 OA
ATOM     12  H17 UNL     1      24.784  -9.444 -39.953  0.00  0.00    +0.000 HD
ENDBRANCH   5  11
BRANCH   6  13
ATOM     13  O7  UNL     1      23.468  -7.873 -36.754  0.00  0.00    +0.000 OA
ATOM     14  H19 UNL     1      23.071  -6.964 -36.812  0.00  0.00    +0.000 HD
ENDBRANCH   6  13
BRANCH   1  15
ATOM     15  N1  UNL     1      25.116  -8.288 -34.687  0.00  0.00    +0.000 NA
BRANCH  15  16
ATOM     16  C1  UNL     1      24.553  -7.297 -33.744  0.00  0.00    +0.000 C 
BRANCH  16  17
ATOM     17  O1  UNL     1      23.154  -7.288 -33.828  0.00  0.00    +0.000 OA
ATOM     18  H1  UNL     1      22.828  -7.924 -33.139  0.00  0.00    +0.000 HD
ENDBRANCH  16  17
ENDBRANCH  15  16
BRANCH  15  19
ATOM     19  C2  UNL     1      25.894  -9.330 -33.994  0.00  0.00    +0.000 C 
BRANCH  19  20
ATOM     20  O2  UNL     1      25.493 -10.614 -34.393  0.00  0.00    +0.000 OA
ATOM     21  H6  UNL     1      24.812 -10.483 -35.102  0.00  0.00    +0.000 HD
ENDBRANCH  19  20
ENDBRANCH  15  19
ENDBRANCH   1  15
BRANCH   3  22
ATOM     22  C6  UNL     1      29.035  -9.041 -37.585  0.00  0.00    +0.000 C 
BRANCH  22  23
ATOM     23  O4  UNL     1      29.515 -10.316 -37.919  0.00  0.00    +0.000 OA
ATOM     24  H13 UNL     1      30.461 -10.342 -37.619  0.00  0.00    +0.000 HD
ENDBRANCH  22  23
ENDBRANCH   3  22
TORSDOF 11
ENDMDL
MODEL 6
REMARK VINA RESULT:    -3.992      5.510      7.971
REMARK INTER + INTRA:          -6.213
REMARK INTER:                  -5.815
REMARK INTRA:                  -0.398
REMARK UNBOUND:                -0.470
REMARK  Name = resultss/4CJN/ligands/lig_57_t0.pdb
REMARK  11 active torsions:
REMARK  status: ('A' for Active; 'I' for Inactive)
REMARK    1  A    between atoms: O1_1  and  C1_2
REMARK    2  A    between atoms: C1_2  and  N1_3
REMARK    3  A    between atoms: N1_3  and  C2_4
REMARK    4  A    between atoms: N1_3  and  C3_6
REMARK    5  A    between atoms: C2_4  and  O2_5
REMARK    6  A    between atoms: C5_8  and  O3_9
REMARK    7  A    between atoms: C5_8  and  C6_10
REMARK    8  A    between atoms: C6_10  and  O4_11
REMARK    9  A    between atoms: C7_12  and  O5_13
REMARK   10  A    between atoms: C8_14  and  O6_15
REMARK   11  A    between atoms: C9_16  and  O7_17
REMARK                            x       y       z     vdW  Elec       q    Type
REMARK                         _______ _______ _______ _____ _____    ______ ____
ROOT
ATOM      1  C3  UNL     1      28.008  -9.186 -41.247  0.00  0.00    +0.000 C 
ATOM      2  C4  UNL     1      26.921  -9.338 -42.356  0.00  0.00    +0.000 C 
ATOM      3  C5  UNL     1      25.440  -9.411 -41.883  0.00  0.00    +0.000 C 
ATOM      4  C7  UNL     1      25.173  -8.321 -40.811  0.00  0.00    +0.000 C 
ATOM      5  C8  UNL     1      26.107  -8.496 -39.601  0.00  0.00    +0.000 C 
ATOM      6  C9  UNL     1      27.581  -8.326 -40.024  0.00  0.00    +0.000 C 
ENDROOT
BRANCH   3   7
ATOM      7  O3  UNL     1      25.187 -10.692 -41.354  0.00  0.00    +0.000 OA
ATOM      8  H10 UNL     1      24.254 -10.946 -41.577  0.00  0.00    +0.000 HD
ENDBRANCH   3   7
BRANCH   4   9
ATOM      9  O5  UNL     1      23.834  -8.390 -40.381  0.00  0.00    +0.000 OA
ATOM     10  H15 UNL     1      23.702  -9.285 -39.972  0.00  0.00    +0.000 HD
ENDBRANCH   4   9
BRANCH   5  11
ATOM     11  O6  UNL     1      25.787  -7.522 -38.640  0.00  0.00    +0.000 OA
ATOM     12  H17 UNL     1      24.796  -7.484 -38.579  0.00  0.00    +0.000 HD
ENDBRANCH   5  11
BRANCH   6  13
ATOM     13  O7  UNL     1      28.427  -8.599 -38.935  0.00  0.00    +0.000 OA
ATOM     14  H19 UNL     1      28.819  -7.736 -38.639  0.00  0.00    +0.000 HD
ENDBRANCH   6  13
BRANCH   1  15
ATOM     15  N1  UNL     1      28.714 -10.444 -40.852  0.00  0.00    +0.000 NA
BRANCH  15  16
ATOM     16  C1  UNL     1      29.754 -10.860 -41.819  0.00  0.00    +0.000 C 
BRANCH  16  17
ATOM     17  O1  UNL     1      31.030 -10.654 -41.277  0.00  0.00    +0.000 OA
ATOM     18  H1  UNL     1      31.114 -11.282 -40.513  0.00  0.00    +0.000 HD
ENDBRANCH  16  17
ENDBRANCH  15  16
BRANCH  15  19
ATOM     19  C2  UNL     1      27.884 -11.579 -40.412  0.00  0.00    +0.000 C 
BRANCH  19  20
ATOM     20  O2  UNL     1      27.777 -11.619 -39.014  0.00  0.00    +0.000 OA
ATOM     21  H6  UNL     1      26.903 -11.208 -38.791  0.00  0.00    +0.000 HD
ENDBRANCH  19  20
ENDBRANCH  15  19
ENDBRANCH   1  15
BRANCH   3  22
ATOM     22  C6  UNL     1      24.513  -9.180 -43.105  0.00  0.00    +0.000 C 
BRANCH  22  23
ATOM     23  O4  UNL     1      23.286  -9.830 -42.916  0.00  0.00    +0.000 OA
ATOM     24  H13 UNL     1      22.907  -9.465 -42.074  0.00  0.00    +0.000 HD
ENDBRANCH  22  23
ENDBRANCH   3  22
TORSDOF 11
ENDMDL
MODEL 7
REMARK VINA RESULT:    -3.970      4.165      7.100
REMARK INTER + INTRA:          -6.180
REMARK INTER:                  -5.434
REMARK INTRA:                  -0.746
REMARK UNBOUND:                -0.470
REMARK  Name = resultss/4CJN/ligands/lig_57_t0.pdb
REMARK  11 active torsions:
REMARK  status: ('A' for Active; 'I' for Inactive)
REMARK    1  A    between atoms: O1_1  and  C1_2
REMARK    2  A    between atoms: C1_2  and  N1_3
REMARK    3  A    between atoms: N1_3  and  C2_4
REMARK    4  A    between atoms: N1_3  and  C3_6
REMARK    5  A    between atoms: C2_4  and  O2_5
REMARK    6  A    between atoms: C5_8  and  O3_9
REMARK    7  A    between atoms: C5_8  and  C6_10
REMARK    8  A    between atoms: C6_10  and  O4_11
REMARK    9  A    between atoms: C7_12  and  O5_13
REMARK   10  A    between atoms: C8_14  and  O6_15
REMARK   11  A    between atoms: C9_16  and  O7_17
REMARK                            x       y       z     vdW  Elec       q    Type
REMARK                         _______ _______ _______ _____ _____    ______ ____
ROOT
ATOM      1  C3  UNL     1      27.361  -8.803 -40.587  0.00  0.00    +0.000 C 
ATOM      2  C4  UNL     1      26.355  -7.831 -39.897  0.00  0.00    +0.000 C 
ATOM      3  C5  UNL     1      25.576  -8.382 -38.668  0.00  0.00    +0.000 C 
ATOM      4  C7  UNL     1      26.545  -9.142 -37.724  0.00  0.00    +0.000 C 
ATOM      5  C8  UNL     1      27.232 -10.305 -38.459  0.00  0.00    +0.000 C 
ATOM      6  C9  UNL     1      28.096  -9.777 -39.623  0.00  0.00    +0.000 C 
ENDROOT
BRANCH   3   7
ATOM      7  O3  UNL     1      24.553  -9.241 -39.117  0.00  0.00    +0.000 OA
ATOM      8  H10 UNL     1      24.709  -9.443 -40.076  0.00  0.00    +0.000 HD
ENDBRANCH   3   7
BRANCH   4   9
ATOM      9  O5  UNL     1      25.838  -9.642 -36.614  0.00  0.00    +0.000 OA
ATOM     10  H15 UNL     1      26.204  -9.194 -35.807  0.00  0.00    +0.000 HD
ENDBRANCH   4   9
BRANCH   5  11
ATOM     11  O6  UNL     1      28.053 -10.992 -37.548  0.00  0.00    +0.000 OA
ATOM     12  H17 UNL     1      27.733 -10.765 -36.635  0.00  0.00    +0.000 HD
ENDBRANCH   5  11
BRANCH   6  13
ATOM     13  O7  UNL     1      28.627 -10.855 -40.354  0.00  0.00    +0.000 OA
ATOM     14  H19 UNL     1      29.330 -11.277 -39.793  0.00  0.00    +0.000 HD
ENDBRANCH   6  13
BRANCH   1  15
ATOM     15  N1  UNL     1      26.868  -9.479 -41.827  0.00  0.00    +0.000 NA
BRANCH  15  16
ATOM     16  C1  UNL     1      27.583  -9.052 -43.050  0.00  0.00    +0.000 C 
BRANCH  16  17
ATOM     17  O1  UNL     1      28.908  -9.508 -43.020  0.00  0.00    +0.000 OA
ATOM     18  H1  UNL     1      29.126  -9.795 -43.944  0.00  0.00    +0.000 HD
ENDBRANCH  16  17
ENDBRANCH  15  16
BRANCH  15  19
ATOM     19  C2  UNL     1      25.410  -9.539 -42.033  0.00  0.00    +0.000 C 
BRANCH  19  20
ATOM     20  O2  UNL     1      24.874 -10.734 -41.531  0.00  0.00    +0.000 OA
ATOM     21  H6  UNL     1      25.151 -10.784 -40.580  0.00  0.00    +0.000 HD
ENDBRANCH  19  20
ENDBRANCH  15  19
ENDBRANCH   1  15
BRANCH   3  22
ATOM     22  C6  UNL     1      24.933  -7.191 -37.909  0.00  0.00    +0.000 C 
BRANCH  22  23
ATOM     23  O4  UNL     1      23.745  -7.596 -37.283  0.00  0.00    +0.000 OA
ATOM     24  H13 UNL     1      23.344  -8.286 -37.873  0.00  0.00    +0.000 HD
ENDBRANCH  22  23
ENDBRANCH   3  22
TORSDOF 11
ENDMDL
MODEL 8
REMARK VINA RESULT:    -3.938      5.344      7.844
REMARK INTER + INTRA:          -6.135
REMARK INTER:                  -5.617
REMARK INTRA:                  -0.518
REMARK UNBOUND:                -0.470
REMARK  Name = resultss/4CJN/ligands/lig_57_t0.pdb
REMARK  11 active torsions:
REMARK  status: ('A' for Active; 'I' for Inactive)
REMARK    1  A    between atoms: O1_1  and  C1_2
REMARK    2  A    between atoms: C1_2  and  N1_3
REMARK    3  A    between atoms: N1_3  and  C2_4
REMARK    4  A    between atoms: N1_3  and  C3_6
REMARK    5  A    between atoms: C2_4  and  O2_5
REMARK    6  A    between atoms: C5_8  and  O3_9
REMARK    7  A    between atoms: C5_8  and  C6_10
REMARK    8  A    between atoms: C6_10  and  O4_11
REMARK    9  A    between atoms: C7_12  and  O5_13
REMARK   10  A    between atoms: C8_14  and  O6_15
REMARK   11  A    between atoms: C9_16  and  O7_17
REMARK                            x       y       z     vdW  Elec       q    Type
REMARK                         _______ _______ _______ _____ _____    ______ ____
ROOT
ATOM      1  C3  UNL     1      25.536  -7.551 -42.272  0.00  0.00    +0.000 C 
ATOM      2  C4  UNL     1      24.900  -7.280 -40.874  0.00  0.00    +0.000 C 
ATOM      3  C5  UNL     1      25.132  -8.357 -39.775  0.00  0.00    +0.000 C 
ATOM      4  C7  UNL     1      26.619  -8.799 -39.773  0.00  0.00    +0.000 C 
ATOM      5  C8  UNL     1      27.029  -9.367 -41.143  0.00  0.00    +0.000 C 
ATOM      6  C9  UNL     1      26.906  -8.286 -42.236  0.00  0.00    +0.000 C 
ENDROOT
BRANCH   3   7
ATOM      7  O3  UNL     1      24.292  -9.461 -40.026  0.00  0.00    +0.000 OA
ATOM      8  H10 UNL     1      24.422 -10.127 -39.302  0.00  0.00    +0.000 HD
ENDBRANCH   3   7
BRANCH   4   9
ATOM      9  O5  UNL     1      26.827  -9.776 -38.780  0.00  0.00    +0.000 OA
ATOM     10  H15 UNL     1      26.430 -10.622 -39.114  0.00  0.00    +0.000 HD
ENDBRANCH   4   9
BRANCH   5  11
ATOM     11  O6  UNL     1      28.363  -9.802 -41.070  0.00  0.00    +0.000 OA
ATOM     12  H17 UNL     1      28.609  -9.835 -40.107  0.00  0.00    +0.000 HD
ENDBRANCH   5  11
BRANCH   6  13
ATOM     13  O7  UNL     1      27.175  -8.848 -43.498  0.00  0.00    +0.000 OA
ATOM     14  H19 UNL     1      26.328  -8.829 -44.017  0.00  0.00    +0.000 HD
ENDBRANCH   6  13
BRANCH   1  15
ATOM     15  N1  UNL     1      24.613  -8.098 -43.313  0.00  0.00    +0.000 NA
BRANCH  15  16
ATOM     16  C1  UNL     1      24.334  -7.144 -44.409  0.00  0.00    +0.000 C 
BRANCH  16  17
ATOM     17  O1  UNL     1      23.682  -7.796 -45.464  0.00  0.00    +0.000 OA
ATOM     18  H1  UNL     1      23.328  -7.083 -46.057  0.00  0.00    +0.000 HD
ENDBRANCH  16  17
ENDBRANCH  15  16
BRANCH  15  19
ATOM     19  C2  UNL     1      23.390  -8.775 -42.846  0.00  0.00    +0.000 C 
BRANCH  19  20
ATOM     20  O2  UNL     1      23.559 -10.167 -42.813  0.00  0.00    +0.000 OA
ATOM     21  H6  UNL     1      22.909 -10.510 -42.148  0.00  0.00    +0.000 HD
ENDBRANCH  19  20
ENDBRANCH  15  19
ENDBRANCH   1  15
BRANCH   3  22
ATOM     22  C6  UNL     1      24.764  -7.751 -38.395  0.00  0.00    +0.000 C 
BRANCH  22  23
ATOM     23  O4  UNL     1      24.221  -8.737 -37.559  0.00  0.00    +0.000 OA
ATOM     24  H13 UNL     1      24.331  -8.402 -36.631  0.00  0.00    +0.000 HD
ENDBRANCH  22  23
ENDBRANCH   3  22
TORSDOF 11
ENDMDL
MODEL 9
REMARK VINA RESULT:    -3.695      1.833      2.537
REMARK INTER + INTRA:          -5.786
REMARK INTER:                  -5.298
REMARK INTRA:                  -0.488
REMARK UNBOUND:                -0.470
REMARK  Name = resultss/4CJN/ligands/lig_57_t0.pdb
REMARK  11 active torsions:
REMARK  status: ('A' for Active; 'I' for Inactive)
REMARK    1  A    between atoms: O1_1  and  C1_2
REMARK    2  A    between atoms: C1_2  and  N1_3
REMARK    3  A    between atoms: N1_3  and  C2_4
REMARK    4  A    between atoms: N1_3  and  C3_6
REMARK    5  A    between atoms: C2_4  and  O2_5
REMARK    6  A    between atoms: C5_8  and  O3_9
REMARK    7  A    between atoms: C5_8  and  C6_10
REMARK    8  A    between atoms: C6_10  and  O4_11
REMARK    9  A    between atoms: C7_12  and  O5_13
REMARK   10  A    between atoms: C8_14  and  O6_15
REMARK   11  A    between atoms: C9_16  and  O7_17
REMARK                            x       y       z     vdW  Elec       q    Type
REMARK                         _______ _______ _______ _____ _____    ______ ____
ROOT
ATOM      1  C3  UNL     1      26.180  -7.430 -33.839  0.00  0.00    +0.000 C 
ATOM      2  C4  UNL     1      27.292  -8.016 -32.916  0.00  0.00    +0.000 C 
ATOM      3  C5  UNL     1      28.476  -8.745 -33.616  0.00  0.00    +0.000 C 
ATOM      4  C7  UNL     1      28.967  -7.911 -34.829  0.00  0.00    +0.000 C 
ATOM      5  C8  UNL     1      27.831  -7.688 -35.842  0.00  0.00    +0.000 C 
ATOM      6  C9  UNL     1      26.685  -6.876 -35.202  0.00  0.00    +0.000 C 
ENDROOT
BRANCH   3   7
ATOM      7  O3  UNL     1      28.048 -10.020 -34.037  0.00  0.00    +0.000 OA
ATOM      8  H10 UNL     1      28.751 -10.412 -34.619  0.00  0.00    +0.000 HD
ENDBRANCH   3   7
BRANCH   4   9
ATOM      9  O5  UNL     1      30.035  -8.573 -35.464  0.00  0.00    +0.000 OA
ATOM     10  H15 UNL     1      30.363  -7.975 -36.186  0.00  0.00    +0.000 HD
ENDBRANCH   4   9
BRANCH   5  11
ATOM     11  O6  UNL     1      28.341  -6.978 -36.943  0.00  0.00    +0.000 OA
ATOM     12  H17 UNL     1      29.196  -6.563 -36.654  0.00  0.00    +0.000 HD
ENDBRANCH   5  11
BRANCH   6  13
ATOM     13  O7  UNL     1      25.608  -6.776 -36.101  0.00  0.00    +0.000 OA
ATOM     14  H19 UNL     1      25.989  -6.625 -37.005  0.00  0.00    +0.000 HD
ENDBRANCH   6  13
BRANCH   1  15
ATOM     15  N1  UNL     1      24.942  -8.257 -33.974  0.00  0.00    +0.000 NA
BRANCH  15  16
ATOM     16  C1  UNL     1      23.763  -7.659 -33.310  0.00  0.00    +0.000 C 
BRANCH  16  17
ATOM     17  O1  UNL     1      23.345  -8.466 -32.244  0.00  0.00    +0.000 OA
ATOM     18  H1  UNL     1      22.639  -9.063 -32.605  0.00  0.00    +0.000 HD
ENDBRANCH  16  17
ENDBRANCH  15  16
BRANCH  15  19
ATOM     19  C2  UNL     1      25.057  -9.700 -33.698  0.00  0.00    +0.000 C 
BRANCH  19  20
ATOM     20  O2  UNL     1      25.498 -10.401 -34.831  0.00  0.00    +0.000 OA
ATOM     21  H6  UNL     1      26.090  -9.780 -35.327  0.00  0.00    +0.000 HD
ENDBRANCH  19  20
ENDBRANCH  15  19
ENDBRANCH   1  15
BRANCH   3  22
ATOM     22  C6  UNL     1      29.632  -8.915 -32.595  0.00  0.00    +0.000 C 
BRANCH  22  23
ATOM     23  O4  UNL     1      30.293 -10.133 -32.807  0.00  0.00    +0.000 OA
ATOM     24  H13 UNL     1      31.258  -9.952 -32.665  0.00  0.00    +0.000 HD
ENDBRANCH  22  23
ENDBRANCH   3  22
TORSDOF 11
ENDMDL
