MODEL 1
REMARK VINA RESULT:    -4.290      0.000      0.000
REMARK INTER + INTRA:          -7.179
REMARK INTER:                  -6.296
REMARK INTRA:                  -0.883
REMARK UNBOUND:                -0.883
REMARK  Name = resultss/4CJN/ligands/lig_61_t0.pdb
REMARK  11 active torsions:
REMARK  status: ('A' for Active; 'I' for Inactive)
REMARK    1  A    between atoms: O1_1  and  C1_2
REMARK    2  A    between atoms: C1_2  and  C2_3
REMARK    3  A    between atoms: C2_3  and  C3_4
REMARK    4  A    between atoms: C2_3  and  N1_6
REMARK    5  A    between atoms: C3_4  and  O2_5
REMARK    6  A    between atoms: N1_6  and  C4_7
REMARK    7  A    between atoms: C6_9  and  C7_10
REMARK    8  A    between atoms: C7_10  and  O3_11
REMARK    9  A    between atoms: C8_12  and  O4_13
REMARK   10  A    between atoms: C9_14  and  O5_15
REMARK   11  A    between atoms: C10_16  and  O6_17
REMARK                            x       y       z     vdW  Elec       q    Type
REMARK                         _______ _______ _______ _____ _____    ______ ____
ROOT
ATOM      1  C4  UNL     1      26.252  -7.859 -35.806  0.00  0.00    +0.000 C 
ATOM      2  C5  UNL     1      24.906  -7.244 -35.357  0.00  0.00    +0.000 C 
ATOM      3  C6  UNL     1      24.067  -8.182 -34.449  0.00  0.00    +0.000 C 
ATOM      4  C8  UNL     1      24.939  -9.052 -33.492  0.00  0.00    +0.000 C 
ATOM      5  C9  UNL     1      26.342  -8.455 -33.264  0.00  0.00    +0.000 C 
ATOM      6  C10 UNL     1      27.131  -8.299 -34.594  0.00  0.00    +0.000 C 
ENDROOT
BRANCH   1   7
ATOM      7  N1  UNL     1      26.054  -8.978 -36.757  0.00  0.00    +0.000 NA
ATOM      8  H8  UNL     1      25.046  -9.245 -36.798  0.00  0.00    +0.000 HD
BRANCH   7   9
ATOM      9  C2  UNL     1      26.594  -8.699 -38.106  0.00  0.00    +0.000 C 
BRANCH   9  10
ATOM     10  C1  UNL     1      25.456  -8.458 -39.121  0.00  0.00    +0.000 C 
BRANCH  10  11
ATOM     11  O1  UNL     1      24.212  -8.782 -38.558  0.00  0.00    +0.000 OA
ATOM     12  H1  UNL     1      23.693  -7.937 -38.509  0.00  0.00    +0.000 HD
ENDBRANCH  10  11
ENDBRANCH   9  10
BRANCH   9  13
ATOM     13  C3  UNL     1      27.478  -9.873 -38.564  0.00  0.00    +0.000 C 
BRANCH  13  14
ATOM     14  O2  UNL     1      27.737 -10.756 -37.504  0.00  0.00    +0.000 OA
ATOM     15  H7  UNL     1      27.536 -11.669 -37.838  0.00  0.00    +0.000 HD
ENDBRANCH  13  14
ENDBRANCH   9  13
ENDBRANCH   7   9
ENDBRANCH   1   7
BRANCH   4  16
ATOM     16  O4  UNL     1      25.056 -10.352 -34.018  0.00  0.00    +0.000 OA
ATOM     17  H17 UNL     1      24.226 -10.537 -34.529  0.00  0.00    +0.000 HD
ENDBRANCH   4  16
BRANCH   5  18
ATOM     18  O5  UNL     1      26.217  -7.211 -32.622  0.00  0.00    +0.000 OA
ATOM     19  H19 UNL     1      25.257  -7.096 -32.395  0.00  0.00    +0.000 HD
ENDBRANCH   5  18
BRANCH   6  20
ATOM     20  O6  UNL     1      27.803  -9.499 -34.894  0.00  0.00    +0.000 OA
ATOM     21  H21 UNL     1      27.653 -10.117 -34.131  0.00  0.00    +0.000 HD
ENDBRANCH   6  20
BRANCH   3  22
ATOM     22  C7  UNL     1      23.018  -7.369 -33.660  0.00  0.00    +0.000 C 
BRANCH  22  23
ATOM     23  O3  UNL     1      23.229  -7.483 -32.277  0.00  0.00    +0.000 OA
ATOM     24  H15 UNL     1      24.158  -7.178 -32.105  0.00  0.00    +0.000 HD
ENDBRANCH  22  23
ENDBRANCH   3  22
TORSDOF 11
ENDMDL
MODEL 2
REMARK VINA RESULT:    -4.116      4.890      7.446
REMARK INTER + INTRA:          -6.923
REMARK INTER:                  -6.382
REMARK INTRA:                  -0.541
REMARK UNBOUND:                -0.883
REMARK  Name = resultss/4CJN/ligands/lig_61_t0.pdb
REMARK  11 active torsions:
REMARK  status: ('A' for Active; 'I' for Inactive)
REMARK    1  A    between atoms: O1_1  and  C1_2
REMARK    2  A    between atoms: C1_2  and  C2_3
REMARK    3  A    between atoms: C2_3  and  C3_4
REMARK    4  A    between atoms: C2_3  and  N1_6
REMARK    5  A    between atoms: C3_4  and  O2_5
REMARK    6  A    between atoms: N1_6  and  C4_7
REMARK    7  A    between atoms: C6_9  and  C7_10
REMARK    8  A    between atoms: C7_10  and  O3_11
REMARK    9  A    between atoms: C8_12  and  O4_13
REMARK   10  A    between atoms: C9_14  and  O5_15
REMARK   11  A    between atoms: C10_16  and  O6_17
REMARK                            x       y       z     vdW  Elec       q    Type
REMARK                         _______ _______ _______ _____ _____    ______ ____
ROOT
ATOM      1  C4  UNL     1      26.182  -8.928 -41.028  0.00  0.00    +0.000 C 
ATOM      2  C5  UNL     1      26.407  -8.269 -42.409  0.00  0.00    +0.000 C 
ATOM      3  C6  UNL     1      25.284  -8.578 -43.434  0.00  0.00    +0.000 C 
ATOM      4  C8  UNL     1      23.869  -8.676 -42.785  0.00  0.00    +0.000 C 
ATOM      5  C9  UNL     1      23.791  -7.953 -41.426  0.00  0.00    +0.000 C 
ATOM      6  C10 UNL     1      24.809  -8.528 -40.402  0.00  0.00    +0.000 C 
ENDROOT
BRANCH   1   7
ATOM      7  N1  UNL     1      26.331 -10.400 -41.091  0.00  0.00    +0.000 NA
ATOM      8  H8  UNL     1      26.336 -10.722 -42.084  0.00  0.00    +0.000 HD
BRANCH   7   9
ATOM      9  C2  UNL     1      27.516 -10.898 -40.357  0.00  0.00    +0.000 C 
BRANCH   9  10
ATOM     10  C1  UNL     1      27.665 -10.188 -38.995  0.00  0.00    +0.000 C 
BRANCH  10  11
ATOM     11  O1  UNL     1      28.019 -11.105 -37.994  0.00  0.00    +0.000 OA
ATOM     12  H1  UNL     1      28.495 -10.589 -37.292  0.00  0.00    +0.000 HD
ENDBRANCH  10  11
ENDBRANCH   9  10
BRANCH   9  13
ATOM     13  C3  UNL     1      28.780 -10.688 -41.210  0.00  0.00    +0.000 C 
BRANCH  13  14
ATOM     14  O2  UNL     1      29.932 -10.654 -40.408  0.00  0.00    +0.000 OA
ATOM     15  H7  UNL     1      30.258 -11.588 -40.337  0.00  0.00    +0.000 HD
ENDBRANCH  13  14
ENDBRANCH   9  13
ENDBRANCH   7   9
ENDBRANCH   1   7
BRANCH   4  16
ATOM     16  O4  UNL     1      23.520 -10.029 -42.624  0.00  0.00    +0.000 OA
ATOM     17  H17 UNL     1      22.818 -10.233 -43.296  0.00  0.00    +0.000 HD
ENDBRANCH   4  16
BRANCH   5  18
ATOM     18  O5  UNL     1      24.015  -6.578 -41.619  0.00  0.00    +0.000 OA
ATOM     19  H19 UNL     1      24.820  -6.338 -41.089  0.00  0.00    +0.000 HD
ENDBRANCH   5  18
BRANCH   6  20
ATOM     20  O6  UNL     1      24.243  -9.629 -39.733  0.00  0.00    +0.000 OA
ATOM     21  H21 UNL     1      24.790  -9.791 -38.920  0.00  0.00    +0.000 HD
ENDBRANCH   6  20
BRANCH   3  22
ATOM     22  C7  UNL     1      25.301  -7.541 -44.578  0.00  0.00    +0.000 C 
BRANCH  22  23
ATOM     23  O3  UNL     1      24.164  -7.669 -45.390  0.00  0.00    +0.000 OA
ATOM     24  H15 UNL     1      23.382  -7.436 -44.824  0.00  0.00    +0.000 HD
ENDBRANCH  22  23
ENDBRANCH   3  22
TORSDOF 11
ENDMDL
MODEL 3
REMARK VINA RESULT:    -4.038      1.634      2.314
REMARK INTER + INTRA:          -6.810
REMARK INTER:                  -6.287
REMARK INTRA:                  -0.523
REMARK UNBOUND:                -0.883
REMARK  Name = resultss/4CJN/ligands/lig_61_t0.pdb
REMARK  11 active torsions:
REMARK  status: ('A' for Active; 'I' for Inactive)
REMARK    1  A    between atoms: O1_1  and  C1_2
REMARK    2  A    between atoms: C1_2  and  C2_3
REMARK    3  A    between atoms: C2_3  and  C3_4
REMARK    4  A    between atoms: C2_3  and  N1_6
REMARK    5  A    between atoms: C3_4  and  O2_5
REMARK    6  A    between atoms: N1_6  and  C4_7
REMARK    7  A    between atoms: C6_9  and  C7_10
REMARK    8  A    between atoms: C7_10  and  O3_11
REMARK    9  A    between atoms: C8_12  and  O4_13
REMARK   10  A    between atoms: C9_14  and  O5_15
REMARK   11  A    between atoms: C10_16  and  O6_17
REMARK                            x       y       z     vdW  Elec       q    Type
REMARK                         _______ _______ _______ _____ _____    ______ ____
ROOT
ATOM      1  C4  UNL     1      27.674  -8.468 -35.482  0.00  0.00    +0.000 C 
ATOM      2  C5  UNL     1      26.342  -7.776 -35.854  0.00  0.00    +0.000 C 
ATOM      3  C6  UNL     1      25.086  -8.562 -35.392  0.00  0.00    +0.000 C 
ATOM      4  C8  UNL     1      25.285  -9.296 -34.031  0.00  0.00    +0.000 C 
ATOM      5  C9  UNL     1      26.430  -8.690 -33.195  0.00  0.00    +0.000 C 
ATOM      6  C10 UNL     1      27.789  -8.739 -33.949  0.00  0.00    +0.000 C 
ENDROOT
BRANCH   1   7
ATOM      7  N1  UNL     1      27.884  -9.710 -36.261  0.00  0.00    +0.000 NA
ATOM      8  H8  UNL     1      26.972 -10.186 -36.438  0.00  0.00    +0.000 HD
BRANCH   7   9
ATOM      9  C2  UNL     1      28.631  -9.489 -37.520  0.00  0.00    +0.000 C 
BRANCH   9  10
ATOM     10  C1  UNL     1      27.953 -10.213 -38.702  0.00  0.00    +0.000 C 
BRANCH  10  11
ATOM     11  O1  UNL     1      27.897 -11.596 -38.471  0.00  0.00    +0.000 OA
ATOM     12  H1  UNL     1      28.215 -12.037 -39.302  0.00  0.00    +0.000 HD
ENDBRANCH  10  11
ENDBRANCH   9  10
BRANCH   9  13
ATOM     13  C3  UNL     1      30.082  -9.977 -37.355  0.00  0.00    +0.000 C 
BRANCH  13  14
ATOM     14  O2  UNL     1      30.631 -10.357 -38.589  0.00  0.00    +0.000 OA
ATOM     15  H7  UNL     1      29.939 -10.892 -39.058  0.00  0.00    +0.000 HD
ENDBRANCH  13  14
ENDBRANCH   9  13
ENDBRANCH   7   9
ENDBRANCH   1   7
BRANCH   4  16
ATOM     16  O4  UNL     1      25.539 -10.660 -34.266  0.00  0.00    +0.000 OA
ATOM     17  H17 UNL     1      26.353 -10.900 -33.750  0.00  0.00    +0.000 HD
ENDBRANCH   4  16
BRANCH   5  18
ATOM     18  O5  UNL     1      26.107  -7.365 -32.857  0.00  0.00    +0.000 OA
ATOM     19  H19 UNL     1      26.938  -6.830 -32.951  0.00  0.00    +0.000 HD
ENDBRANCH   5  18
BRANCH   6  20
ATOM     20  O6  UNL     1      28.416  -9.979 -33.722  0.00  0.00    +0.000 OA
ATOM     21  H21 UNL     1      28.824  -9.939 -32.818  0.00  0.00    +0.000 HD
ENDBRANCH   6  20
BRANCH   3  22
ATOM     22  C7  UNL     1      23.856  -7.629 -35.347  0.00  0.00    +0.000 C 
BRANCH  22  23
ATOM     23  O3  UNL     1      23.081  -7.763 -36.510  0.00  0.00    +0.000 OA
ATOM     24  H15 UNL     1      22.143  -7.565 -36.250  0.00  0.00    +0.000 HD
ENDBRANCH  22  23
ENDBRANCH   3  22
TORSDOF 11
ENDMDL
MODEL 4
REMARK VINA RESULT:    -3.848      1.680      2.330
REMARK INTER + INTRA:          -6.531
REMARK INTER:                  -5.654
REMARK INTRA:                  -0.876
REMARK UNBOUND:                -0.883
REMARK  Name = resultss/4CJN/ligands/lig_61_t0.pdb
REMARK  11 active torsions:
REMARK  status: ('A' for Active; 'I' for Inactive)
REMARK    1  A    between atoms: O1_1  and  C1_2
REMARK    2  A    between atoms: C1_2  and  C2_3
REMARK    3  A    between atoms: C2_3  and  C3_4
REMARK    4  A    between atoms: C2_3  and  N1_6
REMARK    5  A    between atoms: C3_4  and  O2_5
REMARK    6  A    between atoms: N1_6  and  C4_7
REMARK    7  A    between atoms: C6_9  and  C7_10
REMARK    8  A    between atoms: C7_10  and  O3_11
REMARK    9  A    between atoms: C8_12  and  O4_13
REMARK   10  A    between atoms: C9_14  and  O5_15
REMARK   11  A    between atoms: C10_16  and  O6_17
REMARK                            x       y       z     vdW  Elec       q    Type
REMARK                         _______ _______ _______ _____ _____    ______ ____
ROOT
ATOM      1  C4  UNL     1      27.415  -8.463 -37.155  0.00  0.00    +0.000 C 
ATOM      2  C5  UNL     1      27.047  -7.447 -36.048  0.00  0.00    +0.000 C 
ATOM      3  C6  UNL     1      26.228  -8.066 -34.885  0.00  0.00    +0.000 C 
ATOM      4  C8  UNL     1      26.639  -9.534 -34.556  0.00  0.00    +0.000 C 
ATOM      5  C9  UNL     1      28.058  -9.875 -35.053  0.00  0.00    +0.000 C 
ATOM      6  C10 UNL     1      28.196  -9.690 -36.590  0.00  0.00    +0.000 C 
ENDROOT
BRANCH   1   7
ATOM      7  N1  UNL     1      26.223  -8.895 -37.921  0.00  0.00    +0.000 NA
ATOM      8  H8  UNL     1      25.354  -8.729 -37.366  0.00  0.00    +0.000 HD
BRANCH   7   9
ATOM      9  C2  UNL     1      26.134  -8.273 -39.260  0.00  0.00    +0.000 C 
BRANCH   9  10
ATOM     10  C1  UNL     1      24.669  -8.193 -39.741  0.00  0.00    +0.000 C 
BRANCH  10  11
ATOM     11  O1  UNL     1      24.176  -9.471 -40.043  0.00  0.00    +0.000 OA
ATOM     12  H1  UNL     1      24.402 -10.054 -39.272  0.00  0.00    +0.000 HD
ENDBRANCH  10  11
ENDBRANCH   9  10
BRANCH   9  13
ATOM     13  C3  UNL     1      26.981  -9.077 -40.263  0.00  0.00    +0.000 C 
BRANCH  13  14
ATOM     14  O2  UNL     1      26.929 -10.452 -39.983  0.00  0.00    +0.000 OA
ATOM     15  H7  UNL     1      27.780 -10.683 -39.528  0.00  0.00    +0.000 HD
ENDBRANCH  13  14
ENDBRANCH   9  13
ENDBRANCH   7   9
ENDBRANCH   1   7
BRANCH   4  16
ATOM     16  O4  UNL     1      25.710 -10.421 -35.129  0.00  0.00    +0.000 OA
ATOM     17  H17 UNL     1      25.891 -10.446 -36.105  0.00  0.00    +0.000 HD
ENDBRANCH   4  16
BRANCH   5  18
ATOM     18  O5  UNL     1      28.992  -9.069 -34.378  0.00  0.00    +0.000 OA
ATOM     19  H19 UNL     1      29.778  -8.972 -34.977  0.00  0.00    +0.000 HD
ENDBRANCH   5  18
BRANCH   6  20
ATOM     20  O6  UNL     1      27.793 -10.866 -37.250  0.00  0.00    +0.000 OA
ATOM     21  H21 UNL     1      26.968 -10.649 -37.759  0.00  0.00    +0.000 HD
ENDBRANCH   6  20
BRANCH   3  22
ATOM     22  C7  UNL     1      26.314  -7.169 -33.630  0.00  0.00    +0.000 C 
BRANCH  22  23
ATOM     23  O3  UNL     1      25.939  -7.878 -32.479  0.00  0.00    +0.000 OA
ATOM     24  H15 UNL     1      26.346  -7.404 -31.707  0.00  0.00    +0.000 HD
ENDBRANCH  22  23
ENDBRANCH   3  22
TORSDOF 11
ENDMDL
MODEL 5
REMARK VINA RESULT:    -3.647      5.341      7.130
REMARK INTER + INTRA:          -6.236
REMARK INTER:                  -5.176
REMARK INTRA:                  -1.060
REMARK UNBOUND:                -0.883
REMARK  Name = resultss/4CJN/ligands/lig_61_t0.pdb
REMARK  11 active torsions:
REMARK  status: ('A' for Active; 'I' for Inactive)
REMARK    1  A    between atoms: O1_1  and  C1_2
REMARK    2  A    between atoms: C1_2  and  C2_3
REMARK    3  A    between atoms: C2_3  and  C3_4
REMARK    4  A    between atoms: C2_3  and  N1_6
REMARK    5  A    between atoms: C3_4  and  O2_5
REMARK    6  A    between atoms: N1_6  and  C4_7
REMARK    7  A    between atoms: C6_9  and  C7_10
REMARK    8  A    between atoms: C7_10  and  O3_11
REMARK    9  A    between atoms: C8_12  and  O4_13
REMARK   10  A    between atoms: C9_14  and  O5_15
REMARK   11  A    between atoms: C10_16  and  O6_17
REMARK                            x       y       z     vdW  Elec       q    Type
REMARK                         _______ _______ _______ _____ _____    ______ ____
ROOT
ATOM      1  C4  UNL     1      26.622  -9.552 -41.923  0.00  0.00    +0.000 C 
ATOM      2  C5  UNL     1      28.162  -9.481 -42.053  0.00  0.00    +0.000 C 
ATOM      3  C6  UNL     1      28.882  -9.140 -40.722  0.00  0.00    +0.000 C 
ATOM      4  C8  UNL     1      28.185  -9.755 -39.470  0.00  0.00    +0.000 C 
ATOM      5  C9  UNL     1      27.289 -10.959 -39.824  0.00  0.00    +0.000 C 
ATOM      6  C10 UNL     1      26.170 -10.573 -40.833  0.00  0.00    +0.000 C 
ENDROOT
BRANCH   1   7
ATOM      7  N1  UNL     1      26.030  -8.216 -41.681  0.00  0.00    +0.000 NA
ATOM      8  H8  UNL     1      26.780  -7.492 -41.620  0.00  0.00    +0.000 HD
BRANCH   7   9
ATOM      9  C2  UNL     1      25.002  -7.845 -42.678  0.00  0.00    +0.000 C 
BRANCH   9  10
ATOM     10  C1  UNL     1      23.784  -7.181 -42.001  0.00  0.00    +0.000 C 
BRANCH  10  11
ATOM     11  O1  UNL     1      23.512  -7.787 -40.765  0.00  0.00    +0.000 OA
ATOM     12  H1  UNL     1      24.374  -8.148 -40.430  0.00  0.00    +0.000 HD
ENDBRANCH  10  11
ENDBRANCH   9  10
BRANCH   9  13
ATOM     13  C3  UNL     1      24.562  -9.097 -43.459  0.00  0.00    +0.000 C 
BRANCH  13  14
ATOM     14  O2  UNL     1      23.476  -9.729 -42.832  0.00  0.00    +0.000 OA
ATOM     15  H7  UNL     1      23.729 -10.683 -42.718  0.00  0.00    +0.000 HD
ENDBRANCH  13  14
ENDBRANCH   9  13
ENDBRANCH   7   9
ENDBRANCH   1   7
BRANCH   4  16
ATOM     16  O4  UNL     1      27.419  -8.767 -38.826  0.00  0.00    +0.000 OA
ATOM     17  H17 UNL     1      26.783  -8.405 -39.497  0.00  0.00    +0.000 HD
ENDBRANCH   4  16
BRANCH   5  18
ATOM     18  O5  UNL     1      28.086 -11.991 -40.350  0.00  0.00    +0.000 OA
ATOM     19  H19 UNL     1      28.777 -11.563 -40.919  0.00  0.00    +0.000 HD
ENDBRANCH   5  18
BRANCH   6  20
ATOM     20  O6  UNL     1      25.052 -10.076 -40.137  0.00  0.00    +0.000 OA
ATOM     21  H21 UNL     1      24.501 -10.859 -39.871  0.00  0.00    +0.000 HD
ENDBRANCH   6  20
BRANCH   3  22
ATOM     22  C7  UNL     1      30.368  -9.555 -40.793  0.00  0.00    +0.000 C 
BRANCH  22  23
ATOM     23  O3  UNL     1      30.507 -10.826 -41.371  0.00  0.00    +0.000 OA
ATOM     24  H15 UNL     1      29.627 -11.277 -41.282  0.00  0.00    +0.000 HD
ENDBRANCH  22  23
ENDBRANCH   3  22
TORSDOF 11
ENDMDL
MODEL 6
REMARK VINA RESULT:    -3.633      2.719      4.392
REMARK INTER + INTRA:          -6.215
REMARK INTER:                  -5.136
REMARK INTRA:                  -1.079
REMARK UNBOUND:                -0.883
REMARK  Name = resultss/4CJN/ligands/lig_61_t0.pdb
REMARK  11 active torsions:
REMARK  status: ('A' for Active; 'I' for Inactive)
REMARK    1  A    between atoms: O1_1  and  C1_2
REMARK    2  A    between atoms: C1_2  and  C2_3
REMARK    3  A    between atoms: C2_3  and  C3_4
REMARK    4  A    between atoms: C2_3  and  N1_6
REMARK    5  A    between atoms: C3_4  and  O2_5
REMARK    6  A    between atoms: N1_6  and  C4_7
REMARK    7  A    between atoms: C6_9  and  C7_10
REMARK    8  A    between atoms: C7_10  and  O3_11
REMARK    9  A    between atoms: C8_12  and  O4_13
REMARK   10  A    between atoms: C9_14  and  O5_15
REMARK   11  A    between atoms: C10_16  and  O6_17
REMARK                            x       y       z     vdW  Elec       q    Type
REMARK                         _______ _______ _______ _____ _____    ______ ____
ROOT
ATOM      1  C4  UNL     1      28.262  -9.073 -33.705  0.00  0.00    +0.000 C 
ATOM      2  C5  UNL     1      27.099  -8.324 -33.013  0.00  0.00    +0.000 C 
ATOM      3  C6  UNL     1      26.190  -7.543 -34.000  0.00  0.00    +0.000 C 
ATOM      4  C8  UNL     1      26.011  -8.262 -35.372  0.00  0.00    +0.000 C 
ATOM      5  C9  UNL     1      26.307  -9.773 -35.290  0.00  0.00    +0.000 C 
ATOM      6  C10 UNL     1      27.757 -10.056 -34.806  0.00  0.00    +0.000 C 
ENDROOT
BRANCH   1   7
ATOM      7  N1  UNL     1      29.272  -8.135 -34.250  0.00  0.00    +0.000 NA
ATOM      8  H8  UNL     1      28.938  -7.150 -34.159  0.00  0.00    +0.000 HD
BRANCH   7   9
ATOM      9  C2  UNL     1      30.612  -8.307 -33.647  0.00  0.00    +0.000 C 
BRANCH   9  10
ATOM     10  C1  UNL     1      31.700  -8.421 -34.736  0.00  0.00    +0.000 C 
BRANCH  10  11
ATOM     11  O1  UNL     1      31.356  -9.398 -35.682  0.00  0.00    +0.000 OA
ATOM     12  H1  UNL     1      32.191  -9.635 -36.163  0.00  0.00    +0.000 HD
ENDBRANCH  10  11
ENDBRANCH   9  10
BRANCH   9  13
ATOM     13  C3  UNL     1      30.621  -9.559 -32.751  0.00  0.00    +0.000 C 
BRANCH  13  14
ATOM     14  O2  UNL     1      31.625 -10.457 -33.145  0.00  0.00    +0.000 OA
ATOM     15  H7  UNL     1      31.648 -11.178 -32.463  0.00  0.00    +0.000 HD
ENDBRANCH  13  14
ENDBRANCH   9  13
ENDBRANCH   7   9
ENDBRANCH   1   7
BRANCH   4  16
ATOM     16  O4  UNL     1      26.854  -7.664 -36.327  0.00  0.00    +0.000 OA
ATOM     17  H17 UNL     1      26.305  -7.009 -36.833  0.00  0.00    +0.000 HD
ENDBRANCH   4  16
BRANCH   5  18
ATOM     18  O5  UNL     1      25.377 -10.381 -34.430  0.00  0.00    +0.000 OA
ATOM     19  H19 UNL     1      24.988  -9.662 -33.867  0.00  0.00    +0.000 HD
ENDBRANCH   5  18
BRANCH   6  20
ATOM     20  O6  UNL     1      28.637 -10.048 -35.904  0.00  0.00    +0.000 OA
ATOM     21  H21 UNL     1      28.699  -9.109 -36.222  0.00  0.00    +0.000 HD
ENDBRANCH   6  20
BRANCH   3  22
ATOM     22  C7  UNL     1      24.824  -7.241 -33.347  0.00  0.00    +0.000 C 
BRANCH  22  23
ATOM     23  O3  UNL     1      24.338  -8.363 -32.656  0.00  0.00    +0.000 OA
ATOM     24  H15 UNL     1      24.898  -9.133 -32.936  0.00  0.00    +0.000 HD
ENDBRANCH  22  23
ENDBRANCH   3  22
TORSDOF 11
ENDMDL
MODEL 7
REMARK VINA RESULT:    -3.614      2.099      6.148
REMARK INTER + INTRA:          -6.187
REMARK INTER:                  -5.316
REMARK INTRA:                  -0.871
REMARK UNBOUND:                -0.883
REMARK  Name = resultss/4CJN/ligands/lig_61_t0.pdb
REMARK  11 active torsions:
REMARK  status: ('A' for Active; 'I' for Inactive)
REMARK    1  A    between atoms: O1_1  and  C1_2
REMARK    2  A    between atoms: C1_2  and  C2_3
REMARK    3  A    between atoms: C2_3  and  C3_4
REMARK    4  A    between atoms: C2_3  and  N1_6
REMARK    5  A    between atoms: C3_4  and  O2_5
REMARK    6  A    between atoms: N1_6  and  C4_7
REMARK    7  A    between atoms: C6_9  and  C7_10
REMARK    8  A    between atoms: C7_10  and  O3_11
REMARK    9  A    between atoms: C8_12  and  O4_13
REMARK   10  A    between atoms: C9_14  and  O5_15
REMARK   11  A    between atoms: C10_16  and  O6_17
REMARK                            x       y       z     vdW  Elec       q    Type
REMARK                         _______ _______ _______ _____ _____    ______ ____
ROOT
ATOM      1  C4  UNL     1      26.158  -7.911 -38.113  0.00  0.00    +0.000 C 
ATOM      2  C5  UNL     1      27.177  -8.752 -38.918  0.00  0.00    +0.000 C 
ATOM      3  C6  UNL     1      26.521  -9.666 -39.986  0.00  0.00    +0.000 C 
ATOM      4  C8  UNL     1      25.264  -9.028 -40.654  0.00  0.00    +0.000 C 
ATOM      5  C9  UNL     1      25.242  -7.492 -40.524  0.00  0.00    +0.000 C 
ATOM      6  C10 UNL     1      25.258  -7.034 -39.038  0.00  0.00    +0.000 C 
ENDROOT
BRANCH   1   7
ATOM      7  N1  UNL     1      25.337  -8.757 -37.215  0.00  0.00    +0.000 NA
ATOM      8  H8  UNL     1      25.471  -9.766 -37.444  0.00  0.00    +0.000 HD
BRANCH   7   9
ATOM      9  C2  UNL     1      25.582  -8.491 -35.780  0.00  0.00    +0.000 C 
BRANCH   9  10
ATOM     10  C1  UNL     1      26.314  -9.675 -35.113  0.00  0.00    +0.000 C 
BRANCH  10  11
ATOM     11  O1  UNL     1      25.404 -10.513 -34.452  0.00  0.00    +0.000 OA
ATOM     12  H1  UNL     1      24.669  -9.931 -34.122  0.00  0.00    +0.000 HD
ENDBRANCH  10  11
ENDBRANCH   9  10
BRANCH   9  13
ATOM     13  C3  UNL     1      24.245  -8.221 -35.067  0.00  0.00    +0.000 C 
BRANCH  13  14
ATOM     14  O2  UNL     1      23.581  -7.121 -35.635  0.00  0.00    +0.000 OA
ATOM     15  H7  UNL     1      24.241  -6.381 -35.680  0.00  0.00    +0.000 HD
ENDBRANCH  13  14
ENDBRANCH   9  13
ENDBRANCH   7   9
ENDBRANCH   1   7
BRANCH   4  16
ATOM     16  O4  UNL     1      24.101  -9.571 -40.078  0.00  0.00    +0.000 OA
ATOM     17  H17 UNL     1      23.357  -8.943 -40.274  0.00  0.00    +0.000 HD
ENDBRANCH   4  16
BRANCH   5  18
ATOM     18  O5  UNL     1      26.342  -6.952 -41.213  0.00  0.00    +0.000 OA
ATOM     19  H19 UNL     1      26.452  -6.018 -40.898  0.00  0.00    +0.000 HD
ENDBRANCH   5  18
BRANCH   6  20
ATOM     20  O6  UNL     1      23.943  -6.993 -38.538  0.00  0.00    +0.000 OA
ATOM     21  H21 UNL     1      23.931  -6.329 -37.799  0.00  0.00    +0.000 HD
ENDBRANCH   6  20
BRANCH   3  22
ATOM     22  C7  UNL     1      27.562 -10.086 -41.046  0.00  0.00    +0.000 C 
BRANCH  22  23
ATOM     23  O3  UNL     1      28.427  -9.023 -41.350  0.00  0.00    +0.000 OA
ATOM     24  H15 UNL     1      28.468  -8.450 -40.541  0.00  0.00    +0.000 HD
ENDBRANCH  22  23
ENDBRANCH   3  22
TORSDOF 11
ENDMDL
MODEL 8
REMARK VINA RESULT:    -3.575      2.604      6.130
REMARK INTER + INTRA:          -6.129
REMARK INTER:                  -5.413
REMARK INTRA:                  -0.716
REMARK UNBOUND:                -0.883
REMARK  Name = resultss/4CJN/ligands/lig_61_t0.pdb
REMARK  11 active torsions:
REMARK  status: ('A' for Active; 'I' for Inactive)
REMARK    1  A    between atoms: O1_1  and  C1_2
REMARK    2  A    between atoms: C1_2  and  C2_3
REMARK    3  A    between atoms: C2_3  and  C3_4
REMARK    4  A    between atoms: C2_3  and  N1_6
REMARK    5  A    between atoms: C3_4  and  O2_5
REMARK    6  A    between atoms: N1_6  and  C4_7
REMARK    7  A    between atoms: C6_9  and  C7_10
REMARK    8  A    between atoms: C7_10  and  O3_11
REMARK    9  A    between atoms: C8_12  and  O4_13
REMARK   10  A    between atoms: C9_14  and  O5_15
REMARK   11  A    between atoms: C10_16  and  O6_17
REMARK                            x       y       z     vdW  Elec       q    Type
REMARK                         _______ _______ _______ _____ _____    ______ ____
ROOT
ATOM      1  C4  UNL     1      28.621  -9.715 -36.915  0.00  0.00    +0.000 C 
ATOM      2  C5  UNL     1      27.877 -10.548 -37.985  0.00  0.00    +0.000 C 
ATOM      3  C6  UNL     1      27.588  -9.761 -39.292  0.00  0.00    +0.000 C 
ATOM      4  C8  UNL     1      28.717  -8.753 -39.666  0.00  0.00    +0.000 C 
ATOM      5  C9  UNL     1      30.065  -9.104 -39.005  0.00  0.00    +0.000 C 
ATOM      6  C10 UNL     1      29.963  -9.129 -37.453  0.00  0.00    +0.000 C 
ENDROOT
BRANCH   1   7
ATOM      7  N1  UNL     1      27.760  -8.649 -36.352  0.00  0.00    +0.000 NA
ATOM      8  H8  UNL     1      26.931  -8.490 -36.966  0.00  0.00    +0.000 HD
BRANCH   7   9
ATOM      9  C2  UNL     1      27.354  -8.905 -34.953  0.00  0.00    +0.000 C 
BRANCH   9  10
ATOM     10  C1  UNL     1      28.224 -10.010 -34.315  0.00  0.00    +0.000 C 
BRANCH  10  11
ATOM     11  O1  UNL     1      29.090  -9.466 -33.354  0.00  0.00    +0.000 OA
ATOM     12  H1  UNL     1      28.522  -9.157 -32.601  0.00  0.00    +0.000 HD
ENDBRANCH  10  11
ENDBRANCH   9  10
BRANCH   9  13
ATOM     13  C3  UNL     1      25.868  -9.304 -34.909  0.00  0.00    +0.000 C 
BRANCH  13  14
ATOM     14  O2  UNL     1      25.710 -10.622 -34.453  0.00  0.00    +0.000 OA
ATOM     15  H7  UNL     1      26.469 -10.806 -33.840  0.00  0.00    +0.000 HD
ENDBRANCH  13  14
ENDBRANCH   9  13
ENDBRANCH   7   9
ENDBRANCH   1   7
BRANCH   4  16
ATOM     16  O4  UNL     1      28.329  -7.454 -39.291  0.00  0.00    +0.000 OA
ATOM     17  H17 UNL     1      27.530  -7.219 -39.832  0.00  0.00    +0.000 HD
ENDBRANCH   4  16
BRANCH   5  18
ATOM     18  O5  UNL     1      30.507 -10.349 -39.485  0.00  0.00    +0.000 OA
ATOM     19  H19 UNL     1      29.727 -10.963 -39.462  0.00  0.00    +0.000 HD
ENDBRANCH   5  18
BRANCH   6  20
ATOM     20  O6  UNL     1      30.166  -7.834 -36.941  0.00  0.00    +0.000 OA
ATOM     21  H21 UNL     1      30.438  -7.934 -35.991  0.00  0.00    +0.000 HD
ENDBRANCH   6  20
BRANCH   3  22
ATOM     22  C7  UNL     1      27.306 -10.737 -40.455  0.00  0.00    +0.000 C 
BRANCH  22  23
ATOM     23  O3  UNL     1      28.098 -11.891 -40.346  0.00  0.00    +0.000 OA
ATOM     24  H15 UNL     1      28.652 -11.780 -39.529  0.00  0.00    +0.000 HD
ENDBRANCH  22  23
ENDBRANCH   3  22
TORSDOF 11
ENDMDL
MODEL 9
REMARK VINA RESULT:    -3.545      1.604      3.278
REMARK INTER + INTRA:          -6.085
REMARK INTER:                  -5.283
REMARK INTRA:                  -0.802
REMARK UNBOUND:                -0.883
REMARK  Name = resultss/4CJN/ligands/lig_61_t0.pdb
REMARK  11 active torsions:
REMARK  status: ('A' for Active; 'I' for Inactive)
REMARK    1  A    between atoms: O1_1  and  C1_2
REMARK    2  A    between atoms: C1_2  and  C2_3
REMARK    3  A    between atoms: C2_3  and  C3_4
REMARK    4  A    between atoms: C2_3  and  N1_6
REMARK    5  A    between atoms: C3_4  and  O2_5
REMARK    6  A    between atoms: N1_6  and  C4_7
REMARK    7  A    between atoms: C6_9  and  C7_10
REMARK    8  A    between atoms: C7_10  and  O3_11
REMARK    9  A    between atoms: C8_12  and  O4_13
REMARK   10  A    between atoms: C9_14  and  O5_15
REMARK   11  A    between atoms: C10_16  and  O6_17
REMARK                            x       y       z     vdW  Elec       q    Type
REMARK                         _______ _______ _______ _____ _____    ______ ____
ROOT
ATOM      1  C4  UNL     1      26.086  -9.282 -35.498  0.00  0.00    +0.000 C 
ATOM      2  C5  UNL     1      27.173  -9.431 -34.407  0.00  0.00    +0.000 C 
ATOM      3  C6  UNL     1      27.618  -8.080 -33.786  0.00  0.00    +0.000 C 
ATOM      4  C8  UNL     1      26.456  -7.048 -33.660  0.00  0.00    +0.000 C 
ATOM      5  C9  UNL     1      25.067  -7.718 -33.669  0.00  0.00    +0.000 C 
ATOM      6  C10 UNL     1      24.823  -8.532 -34.970  0.00  0.00    +0.000 C 
ENDROOT
BRANCH   1   7
ATOM      7  N1  UNL     1      26.620  -8.635 -36.719  0.00  0.00    +0.000 NA
ATOM      8  H8  UNL     1      27.591  -8.291 -36.553  0.00  0.00    +0.000 HD
BRANCH   7   9
ATOM      9  C2  UNL     1      26.551  -9.504 -37.915  0.00  0.00    +0.000 C 
BRANCH   9  10
ATOM     10  C1  UNL     1      27.964  -9.884 -38.408  0.00  0.00    +0.000 C 
BRANCH  10  11
ATOM     11  O1  UNL     1      28.015 -11.239 -38.769  0.00  0.00    +0.000 OA
ATOM     12  H1  UNL     1      27.474 -11.334 -39.596  0.00  0.00    +0.000 HD
ENDBRANCH  10  11
ENDBRANCH   9  10
BRANCH   9  13
ATOM     13  C3  UNL     1      25.771  -8.788 -39.033  0.00  0.00    +0.000 C 
BRANCH  13  14
ATOM     14  O2  UNL     1      24.391  -8.805 -38.778  0.00  0.00    +0.000 OA
ATOM     15  H7  UNL     1      24.256  -9.369 -37.972  0.00  0.00    +0.000 HD
ENDBRANCH  13  14
ENDBRANCH   9  13
ENDBRANCH   7   9
ENDBRANCH   1   7
BRANCH   4  16
ATOM     16  O4  UNL     1      26.539  -6.116 -34.711  0.00  0.00    +0.000 OA
ATOM     17  H17 UNL     1      26.837  -6.611 -35.518  0.00  0.00    +0.000 HD
ENDBRANCH   4  16
BRANCH   5  18
ATOM     18  O5  UNL     1      24.947  -8.551 -32.542  0.00  0.00    +0.000 OA
ATOM     19  H19 UNL     1      25.073  -9.484 -32.856  0.00  0.00    +0.000 HD
ENDBRANCH   5  18
BRANCH   6  20
ATOM     20  O6  UNL     1      24.308  -7.688 -35.972  0.00  0.00    +0.000 OA
ATOM     21  H21 UNL     1      24.659  -8.016 -36.841  0.00  0.00    +0.000 HD
ENDBRANCH   6  20
BRANCH   3  22
ATOM     22  C7  UNL     1      28.304  -8.315 -32.423  0.00  0.00    +0.000 C 
BRANCH  22  23
ATOM     23  O3  UNL     1      27.592  -7.692 -31.387  0.00  0.00    +0.000 OA
ATOM     24  H15 UNL     1      28.175  -7.720 -30.584  0.00  0.00    +0.000 HD
ENDBRANCH  22  23
ENDBRANCH   3  22
TORSDOF 11
ENDMDL
