MODEL 1
REMARK VINA RESULT:    -6.033      0.000      0.000
REMARK INTER + INTRA:          -7.718
REMARK INTER:                  -7.620
REMARK INTRA:                  -0.098
REMARK UNBOUND:                -0.098
REMARK  Name = resultss/4CJN/ligands/lig_328_t1.pdb
REMARK  7 active torsions:
REMARK  status: ('A' for Active; 'I' for Inactive)
REMARK    1  A    between atoms: C1_1  and  O1_2
REMARK    2  A    between atoms: O1_2  and  C2_3
REMARK    3  A    between atoms: C7_9  and  C8_10
REMARK    4  A    between atoms: C8_10  and  C9_11
REMARK    5  A    between atoms: C12_14  and  O3_15
REMARK    6  A    between atoms: C13_16  and  O4_17
REMARK    7  A    between atoms: O4_17  and  C14_18
REMARK                            x       y       z     vdW  Elec       q    Type
REMARK                         _______ _______ _______ _____ _____    ______ ____
ROOT
ATOM      1  C8  UNL     1      31.297 -11.450 -42.761  0.00  0.00    +0.000 C 
ENDROOT
BRANCH   1   8
ATOM      2  C2  UNL     1      26.949  -9.056 -42.068  0.00  0.00    +0.000 C 
ATOM      3  C3  UNL     1      26.497  -9.997 -40.983  0.00  0.00    +0.000 C 
ATOM      4  C4  UNL     1      27.657 -10.661 -40.302  0.00  0.00    +0.000 C 
ATOM      5  O2  UNL     1      27.628 -10.859 -39.097  0.00  0.00    +0.000 OA
ATOM      6  C5  UNL     1      28.796 -11.188 -41.123  0.00  0.00    +0.000 C 
ATOM      7  C6  UNL     1      29.109 -10.270 -42.285  0.00  0.00    +0.000 C 
ATOM      8  C7  UNL     1      30.236 -10.410 -43.013  0.00  0.00    +0.000 C 
ATOM      9  C16 UNL     1      28.142  -9.212 -42.679  0.00  0.00    +0.000 C 
BRANCH   2  11
ATOM     10  C1  UNL     1      24.777  -8.256 -43.044  0.00  0.00    +0.000 C 
ATOM     11  O1  UNL     1      26.049  -8.042 -42.440  0.00  0.00    +0.000 OA
ENDBRANCH   2  11
ENDBRANCH   1   8
BRANCH   1  12
ATOM     12  C9  UNL     1      32.107 -11.728 -44.002  0.00  0.00    +0.000 A 
ATOM     13  C10 UNL     1      32.860 -10.703 -44.594  0.00  0.00    +0.000 A 
ATOM     14  C11 UNL     1      33.609 -10.954 -45.744  0.00  0.00    +0.000 A 
ATOM     15  C12 UNL     1      33.620 -12.230 -46.318  0.00  0.00    +0.000 A 
ATOM     16  C13 UNL     1      32.876 -13.271 -45.734  0.00  0.00    +0.000 A 
ATOM     17  C15 UNL     1      32.126 -13.012 -44.569  0.00  0.00    +0.000 A 
BRANCH  15  18
ATOM     18  O3  UNL     1      34.378 -12.442 -47.469  0.00  0.00    +0.000 OA
ATOM     19  H13 UNL     1      34.038 -12.198 -48.392  0.00  0.00    +0.000 HD
ENDBRANCH  15  18
BRANCH  16  20
ATOM     20  O4  UNL     1      32.902 -14.541 -46.334  0.00  0.00    +0.000 OA
ATOM     21  C14 UNL     1      34.083 -15.303 -46.559  0.00  0.00    +0.000 C 
ENDBRANCH  16  20
ENDBRANCH   1  12
TORSDOF 5
ENDMDL
MODEL 2
REMARK VINA RESULT:    -5.880      1.356      2.235
REMARK INTER + INTRA:          -7.525
REMARK INTER:                  -7.055
REMARK INTRA:                  -0.470
REMARK UNBOUND:                -0.098
REMARK  Name = resultss/4CJN/ligands/lig_328_t1.pdb
REMARK  7 active torsions:
REMARK  status: ('A' for Active; 'I' for Inactive)
REMARK    1  A    between atoms: C1_1  and  O1_2
REMARK    2  A    between atoms: O1_2  and  C2_3
REMARK    3  A    between atoms: C7_9  and  C8_10
REMARK    4  A    between atoms: C8_10  and  C9_11
REMARK    5  A    between atoms: C12_14  and  O3_15
REMARK    6  A    between atoms: C13_16  and  O4_17
REMARK    7  A    between atoms: O4_17  and  C14_18
REMARK                            x       y       z     vdW  Elec       q    Type
REMARK                         _______ _______ _______ _____ _____    ______ ____
ROOT
ATOM      1  C8  UNL     1      30.537 -10.262 -42.313  0.00  0.00    +0.000 C 
ENDROOT
BRANCH   1   8
ATOM      2  C2  UNL     1      25.622  -9.304 -42.514  0.00  0.00    +0.000 C 
ATOM      3  C3  UNL     1      25.355  -9.902 -41.159  0.00  0.00    +0.000 C 
ATOM      4  C4  UNL     1      26.577  -9.881 -40.289  0.00  0.00    +0.000 C 
ATOM      5  O2  UNL     1      26.475  -9.647 -39.095  0.00  0.00    +0.000 OA
ATOM      6  C5  UNL     1      27.906 -10.265 -40.868  0.00  0.00    +0.000 C 
ATOM      7  C6  UNL     1      28.057  -9.758 -42.287  0.00  0.00    +0.000 C 
ATOM      8  C7  UNL     1      29.248  -9.772 -42.920  0.00  0.00    +0.000 C 
ATOM      9  C16 UNL     1      26.867  -9.271 -43.033  0.00  0.00    +0.000 C 
BRANCH   2  11
ATOM     10  C1  UNL     1      24.531  -7.764 -44.173  0.00  0.00    +0.000 C 
ATOM     11  O1  UNL     1      24.506  -8.826 -43.224  0.00  0.00    +0.000 OA
ENDBRANCH   2  11
ENDBRANCH   1   8
BRANCH   1  12
ATOM     12  C9  UNL     1      31.274 -11.187 -43.248  0.00  0.00    +0.000 A 
ATOM     13  C10 UNL     1      31.322 -12.563 -42.982  0.00  0.00    +0.000 A 
ATOM     14  C11 UNL     1      32.006 -13.423 -43.843  0.00  0.00    +0.000 A 
ATOM     15  C12 UNL     1      32.647 -12.923 -44.982  0.00  0.00    +0.000 A 
ATOM     16  C13 UNL     1      32.603 -11.546 -45.267  0.00  0.00    +0.000 A 
ATOM     17  C15 UNL     1      31.907 -10.685 -44.396  0.00  0.00    +0.000 A 
BRANCH  15  18
ATOM     18  O3  UNL     1      33.323 -13.812 -45.818  0.00  0.00    +0.000 OA
ATOM     19  H13 UNL     1      32.907 -14.682 -46.129  0.00  0.00    +0.000 HD
ENDBRANCH  15  18
BRANCH  16  20
ATOM     20  O4  UNL     1      33.259 -11.072 -46.415  0.00  0.00    +0.000 OA
ATOM     21  C14 UNL     1      34.380 -10.193 -46.399  0.00  0.00    +0.000 C 
ENDBRANCH  16  20
ENDBRANCH   1  12
TORSDOF 5
ENDMDL
MODEL 3
REMARK VINA RESULT:    -5.673      1.863      8.009
REMARK INTER + INTRA:          -7.264
REMARK INTER:                  -6.713
REMARK INTRA:                  -0.550
REMARK UNBOUND:                -0.098
REMARK  Name = resultss/4CJN/ligands/lig_328_t1.pdb
REMARK  7 active torsions:
REMARK  status: ('A' for Active; 'I' for Inactive)
REMARK    1  A    between atoms: C1_1  and  O1_2
REMARK    2  A    between atoms: O1_2  and  C2_3
REMARK    3  A    between atoms: C7_9  and  C8_10
REMARK    4  A    between atoms: C8_10  and  C9_11
REMARK    5  A    between atoms: C12_14  and  O3_15
REMARK    6  A    between atoms: C13_16  and  O4_17
REMARK    7  A    between atoms: O4_17  and  C14_18
REMARK                            x       y       z     vdW  Elec       q    Type
REMARK                         _______ _______ _______ _____ _____    ______ ____
ROOT
ATOM      1  C8  UNL     1      29.484 -10.587 -41.028  0.00  0.00    +0.000 C 
ENDROOT
BRANCH   1   8
ATOM      2  C2  UNL     1      32.499 -12.601 -44.488  0.00  0.00    +0.000 C 
ATOM      3  C3  UNL     1      33.415 -11.406 -44.520  0.00  0.00    +0.000 C 
ATOM      4  C4  UNL     1      33.361 -10.628 -43.238  0.00  0.00    +0.000 C 
ATOM      5  O2  UNL     1      34.380 -10.135 -42.778  0.00  0.00    +0.000 OA
ATOM      6  C5  UNL     1      32.037 -10.357 -42.591  0.00  0.00    +0.000 C 
ATOM      7  C6  UNL     1      31.107 -11.545 -42.718  0.00  0.00    +0.000 C 
ATOM      8  C7  UNL     1      29.961 -11.625 -42.012  0.00  0.00    +0.000 C 
ATOM      9  C16 UNL     1      31.424 -12.638 -43.674  0.00  0.00    +0.000 C 
BRANCH   2  11
ATOM     10  C1  UNL     1      33.673 -13.550 -46.496  0.00  0.00    +0.000 C 
ATOM     11  O1  UNL     1      32.797 -13.648 -45.378  0.00  0.00    +0.000 OA
ENDBRANCH   2  11
ENDBRANCH   1   8
BRANCH   1  12
ATOM     12  C9  UNL     1      28.128 -10.047 -41.406  0.00  0.00    +0.000 A 
ATOM     13  C10 UNL     1      27.882  -9.624 -42.720  0.00  0.00    +0.000 A 
ATOM     14  C11 UNL     1      26.629  -9.119 -43.074  0.00  0.00    +0.000 A 
ATOM     15  C12 UNL     1      25.606  -9.033 -42.124  0.00  0.00    +0.000 A 
ATOM     16  C13 UNL     1      25.834  -9.459 -40.802  0.00  0.00    +0.000 A 
ATOM     17  C15 UNL     1      27.099  -9.972 -40.454  0.00  0.00    +0.000 A 
BRANCH  15  18
ATOM     18  O3  UNL     1      24.368  -8.521 -42.513  0.00  0.00    +0.000 OA
ATOM     19  H13 UNL     1      23.713  -8.128 -41.848  0.00  0.00    +0.000 HD
ENDBRANCH  15  18
BRANCH  16  20
ATOM     20  O4  UNL     1      24.790  -9.357 -39.868  0.00  0.00    +0.000 OA
ATOM     21  C14 UNL     1      24.838  -8.562 -38.688  0.00  0.00    +0.000 C 
ENDBRANCH  16  20
ENDBRANCH   1  12
TORSDOF 5
ENDMDL
MODEL 4
REMARK VINA RESULT:    -5.643      3.202      7.665
REMARK INTER + INTRA:          -7.225
REMARK INTER:                  -6.661
REMARK INTRA:                  -0.564
REMARK UNBOUND:                -0.098
REMARK  Name = resultss/4CJN/ligands/lig_328_t1.pdb
REMARK  7 active torsions:
REMARK  status: ('A' for Active; 'I' for Inactive)
REMARK    1  A    between atoms: C1_1  and  O1_2
REMARK    2  A    between atoms: O1_2  and  C2_3
REMARK    3  A    between atoms: C7_9  and  C8_10
REMARK    4  A    between atoms: C8_10  and  C9_11
REMARK    5  A    between atoms: C12_14  and  O3_15
REMARK    6  A    between atoms: C13_16  and  O4_17
REMARK    7  A    between atoms: O4_17  and  C14_18
REMARK                            x       y       z     vdW  Elec       q    Type
REMARK                         _______ _______ _______ _____ _____    ______ ____
ROOT
ATOM      1  C8  UNL     1      27.427  -6.784 -43.919  0.00  0.00    +0.000 C 
ENDROOT
BRANCH   1   8
ATOM      2  C2  UNL     1      30.285 -10.577 -42.318  0.00  0.00    +0.000 C 
ATOM      3  C3  UNL     1      29.496 -10.759 -41.049  0.00  0.00    +0.000 C 
ATOM      4  C4  UNL     1      28.091 -10.253 -41.189  0.00  0.00    +0.000 C 
ATOM      5  O2  UNL     1      27.167 -10.854 -40.663  0.00  0.00    +0.000 OA
ATOM      6  C5  UNL     1      27.840  -8.943 -41.874  0.00  0.00    +0.000 C 
ATOM      7  C6  UNL     1      28.765  -8.753 -43.057  0.00  0.00    +0.000 C 
ATOM      8  C7  UNL     1      28.565  -7.772 -43.961  0.00  0.00    +0.000 C 
ATOM      9  C16 UNL     1      29.954  -9.630 -43.219  0.00  0.00    +0.000 C 
BRANCH   2  11
ATOM     10  C1  UNL     1      31.410 -12.639 -43.210  0.00  0.00    +0.000 C 
ATOM     11  O1  UNL     1      31.405 -11.410 -42.489  0.00  0.00    +0.000 OA
ENDBRANCH   2  11
ENDBRANCH   1   8
BRANCH   1  12
ATOM     12  C9  UNL     1      26.503  -6.953 -45.097  0.00  0.00    +0.000 A 
ATOM     13  C10 UNL     1      27.024  -7.008 -46.398  0.00  0.00    +0.000 A 
ATOM     14  C11 UNL     1      26.171  -7.161 -47.493  0.00  0.00    +0.000 A 
ATOM     15  C12 UNL     1      24.789  -7.265 -47.304  0.00  0.00    +0.000 A 
ATOM     16  C13 UNL     1      24.249  -7.219 -46.005  0.00  0.00    +0.000 A 
ATOM     17  C15 UNL     1      25.117  -7.069 -44.905  0.00  0.00    +0.000 A 
BRANCH  15  18
ATOM     18  O3  UNL     1      23.967  -7.415 -48.422  0.00  0.00    +0.000 OA
ATOM     19  H13 UNL     1      24.290  -7.211 -49.360  0.00  0.00    +0.000 HD
ENDBRANCH  15  18
BRANCH  16  20
ATOM     20  O4  UNL     1      22.857  -7.321 -45.847  0.00  0.00    +0.000 OA
ATOM     21  C14 UNL     1      22.144  -6.904 -44.687  0.00  0.00    +0.000 C 
ENDBRANCH  16  20
ENDBRANCH   1  12
TORSDOF 5
ENDMDL
MODEL 5
REMARK VINA RESULT:    -5.544      4.233      9.556
REMARK INTER + INTRA:          -7.100
REMARK INTER:                  -6.655
REMARK INTRA:                  -0.445
REMARK UNBOUND:                -0.098
REMARK  Name = resultss/4CJN/ligands/lig_328_t1.pdb
REMARK  7 active torsions:
REMARK  status: ('A' for Active; 'I' for Inactive)
REMARK    1  A    between atoms: C1_1  and  O1_2
REMARK    2  A    between atoms: O1_2  and  C2_3
REMARK    3  A    between atoms: C7_9  and  C8_10
REMARK    4  A    between atoms: C8_10  and  C9_11
REMARK    5  A    between atoms: C12_14  and  O3_15
REMARK    6  A    between atoms: C13_16  and  O4_17
REMARK    7  A    between atoms: O4_17  and  C14_18
REMARK                            x       y       z     vdW  Elec       q    Type
REMARK                         _______ _______ _______ _____ _____    ______ ____
ROOT
ATOM      1  C8  UNL     1      28.354 -10.399 -37.398  0.00  0.00    +0.000 C 
ENDROOT
BRANCH   1   8
ATOM      2  C2  UNL     1      27.159  -9.586 -42.197  0.00  0.00    +0.000 C 
ATOM      3  C3  UNL     1      28.586  -9.688 -42.666  0.00  0.00    +0.000 C 
ATOM      4  C4  UNL     1      29.424 -10.508 -41.730  0.00  0.00    +0.000 C 
ATOM      5  O2  UNL     1      30.281 -11.257 -42.172  0.00  0.00    +0.000 OA
ATOM      6  C5  UNL     1      29.288 -10.312 -40.250  0.00  0.00    +0.000 C 
ATOM      7  C6  UNL     1      27.846 -10.069 -39.856  0.00  0.00    +0.000 C 
ATOM      8  C7  UNL     1      27.450 -10.106 -38.567  0.00  0.00    +0.000 C 
ATOM      9  C16 UNL     1      26.838  -9.735 -40.895  0.00  0.00    +0.000 C 
BRANCH   2  11
ATOM     10  C1  UNL     1      24.789  -9.224 -42.946  0.00  0.00    +0.000 C 
ATOM     11  O1  UNL     1      26.194  -9.284 -43.173  0.00  0.00    +0.000 OA
ENDBRANCH   2  11
ENDBRANCH   1   8
BRANCH   1  12
ATOM     12  C9  UNL     1      27.816  -9.811 -36.119  0.00  0.00    +0.000 A 
ATOM     13  C10 UNL     1      28.658  -9.655 -35.008  0.00  0.00    +0.000 A 
ATOM     14  C11 UNL     1      28.164  -9.113 -33.820  0.00  0.00    +0.000 A 
ATOM     15  C12 UNL     1      26.825  -8.717 -33.726  0.00  0.00    +0.000 A 
ATOM     16  C13 UNL     1      25.969  -8.859 -34.833  0.00  0.00    +0.000 A 
ATOM     17  C15 UNL     1      26.476  -9.402 -36.030  0.00  0.00    +0.000 A 
BRANCH  15  18
ATOM     18  O3  UNL     1      26.366  -8.182 -32.522  0.00  0.00    +0.000 OA
ATOM     19  H13 UNL     1      26.661  -8.545 -31.623  0.00  0.00    +0.000 HD
ENDBRANCH  15  18
BRANCH  16  20
ATOM     20  O4  UNL     1      24.629  -8.457 -34.708  0.00  0.00    +0.000 OA
ATOM     21  C14 UNL     1      23.851  -7.900 -35.763  0.00  0.00    +0.000 C 
ENDBRANCH  16  20
ENDBRANCH   1  12
TORSDOF 5
ENDMDL
MODEL 6
REMARK VINA RESULT:    -5.468      4.516      9.475
REMARK INTER + INTRA:          -7.005
REMARK INTER:                  -6.561
REMARK INTRA:                  -0.444
REMARK UNBOUND:                -0.098
REMARK  Name = resultss/4CJN/ligands/lig_328_t1.pdb
REMARK  7 active torsions:
REMARK  status: ('A' for Active; 'I' for Inactive)
REMARK    1  A    between atoms: C1_1  and  O1_2
REMARK    2  A    between atoms: O1_2  and  C2_3
REMARK    3  A    between atoms: C7_9  and  C8_10
REMARK    4  A    between atoms: C8_10  and  C9_11
REMARK    5  A    between atoms: C12_14  and  O3_15
REMARK    6  A    between atoms: C13_16  and  O4_17
REMARK    7  A    between atoms: O4_17  and  C14_18
REMARK                            x       y       z     vdW  Elec       q    Type
REMARK                         _______ _______ _______ _____ _____    ______ ____
ROOT
ATOM      1  C8  UNL     1      28.405 -10.387 -37.354  0.00  0.00    +0.000 C 
ENDROOT
BRANCH   1   8
ATOM      2  C2  UNL     1      27.027  -9.675 -42.120  0.00  0.00    +0.000 C 
ATOM      3  C3  UNL     1      28.440  -9.743 -42.636  0.00  0.00    +0.000 C 
ATOM      4  C4  UNL     1      29.332 -10.524 -41.718  0.00  0.00    +0.000 C 
ATOM      5  O2  UNL     1      30.196 -11.255 -42.179  0.00  0.00    +0.000 OA
ATOM      6  C5  UNL     1      29.239 -10.312 -40.237  0.00  0.00    +0.000 C 
ATOM      7  C6  UNL     1      27.806 -10.106 -39.797  0.00  0.00    +0.000 C 
ATOM      8  C7  UNL     1      27.453 -10.137 -38.496  0.00  0.00    +0.000 C 
ATOM      9  C16 UNL     1      26.754  -9.815 -40.807  0.00  0.00    +0.000 C 
BRANCH   2  11
ATOM     10  C1  UNL     1      24.630  -9.316 -42.779  0.00  0.00    +0.000 C 
ATOM     11  O1  UNL     1      26.021  -9.415 -43.067  0.00  0.00    +0.000 OA
ENDBRANCH   2  11
ENDBRANCH   1   8
BRANCH   1  12
ATOM     12  C9  UNL     1      27.896  -9.791 -36.067  0.00  0.00    +0.000 A 
ATOM     13  C10 UNL     1      26.548  -9.421 -35.948  0.00  0.00    +0.000 A 
ATOM     14  C11 UNL     1      26.073  -8.865 -34.759  0.00  0.00    +0.000 A 
ATOM     15  C12 UNL     1      26.934  -8.673 -33.673  0.00  0.00    +0.000 A 
ATOM     16  C13 UNL     1      28.287  -9.044 -33.773  0.00  0.00    +0.000 A 
ATOM     17  C15 UNL     1      28.759  -9.609 -34.975  0.00  0.00    +0.000 A 
BRANCH  15  18
ATOM     18  O3  UNL     1      26.424  -8.112 -32.502  0.00  0.00    +0.000 OA
ATOM     19  H13 UNL     1      26.997  -7.964 -31.680  0.00  0.00    +0.000 HD
ENDBRANCH  15  18
BRANCH  16  20
ATOM     20  O4  UNL     1      29.129  -8.835 -32.669  0.00  0.00    +0.000 OA
ATOM     21  C14 UNL     1      30.420  -9.418 -32.516  0.00  0.00    +0.000 C 
ENDBRANCH  16  20
ENDBRANCH   1  12
TORSDOF 5
ENDMDL
MODEL 7
REMARK VINA RESULT:    -5.211      5.687      9.557
REMARK INTER + INTRA:          -6.680
REMARK INTER:                  -6.134
REMARK INTRA:                  -0.547
REMARK UNBOUND:                -0.098
REMARK  Name = resultss/4CJN/ligands/lig_328_t1.pdb
REMARK  7 active torsions:
REMARK  status: ('A' for Active; 'I' for Inactive)
REMARK    1  A    between atoms: C1_1  and  O1_2
REMARK    2  A    between atoms: O1_2  and  C2_3
REMARK    3  A    between atoms: C7_9  and  C8_10
REMARK    4  A    between atoms: C8_10  and  C9_11
REMARK    5  A    between atoms: C12_14  and  O3_15
REMARK    6  A    between atoms: C13_16  and  O4_17
REMARK    7  A    between atoms: O4_17  and  C14_18
REMARK                            x       y       z     vdW  Elec       q    Type
REMARK                         _______ _______ _______ _____ _____    ______ ____
ROOT
ATOM      1  C8  UNL     1      28.054 -10.403 -37.639  0.00  0.00    +0.000 C 
ENDROOT
BRANCH   1   8
ATOM      2  C2  UNL     1      27.786  -8.081 -42.072  0.00  0.00    +0.000 C 
ATOM      3  C3  UNL     1      26.962  -9.174 -42.700  0.00  0.00    +0.000 C 
ATOM      4  C4  UNL     1      26.197  -9.955 -41.673  0.00  0.00    +0.000 C 
ATOM      5  O2  UNL     1      25.063 -10.340 -41.915  0.00  0.00    +0.000 OA
ATOM      6  C5  UNL     1      26.872 -10.363 -40.398  0.00  0.00    +0.000 C 
ATOM      7  C6  UNL     1      27.799  -9.279 -39.892  0.00  0.00    +0.000 C 
ATOM      8  C7  UNL     1      28.325  -9.320 -38.651  0.00  0.00    +0.000 C 
ATOM      9  C16 UNL     1      28.188  -8.157 -40.787  0.00  0.00    +0.000 C 
BRANCH   2  11
ATOM     10  C1  UNL     1      28.086  -7.015 -44.327  0.00  0.00    +0.000 C 
ATOM     11  O1  UNL     1      28.149  -7.007 -42.904  0.00  0.00    +0.000 OA
ENDBRANCH   2  11
ENDBRANCH   1   8
BRANCH   1  12
ATOM     12  C9  UNL     1      27.479  -9.840 -36.364  0.00  0.00    +0.000 A 
ATOM     13  C10 UNL     1      28.223  -9.889 -35.176  0.00  0.00    +0.000 A 
ATOM     14  C11 UNL     1      27.693  -9.372 -33.992  0.00  0.00    +0.000 A 
ATOM     15  C12 UNL     1      26.418  -8.797 -33.979  0.00  0.00    +0.000 A 
ATOM     16  C13 UNL     1      25.661  -8.734 -35.163  0.00  0.00    +0.000 A 
ATOM     17  C15 UNL     1      26.204  -9.253 -36.355  0.00  0.00    +0.000 A 
BRANCH  15  18
ATOM     18  O3  UNL     1      25.921  -8.294 -32.777  0.00  0.00    +0.000 OA
ATOM     19  H13 UNL     1      25.962  -8.821 -31.912  0.00  0.00    +0.000 HD
ENDBRANCH  15  18
BRANCH  16  20
ATOM     20  O4  UNL     1      24.382  -8.156 -35.119  0.00  0.00    +0.000 OA
ATOM     21  C14 UNL     1      23.631  -7.768 -36.265  0.00  0.00    +0.000 C 
ENDBRANCH  16  20
ENDBRANCH   1  12
TORSDOF 5
ENDMDL
MODEL 8
REMARK VINA RESULT:    -5.123      5.225     10.766
REMARK INTER + INTRA:          -6.569
REMARK INTER:                  -6.160
REMARK INTRA:                  -0.408
REMARK UNBOUND:                -0.098
REMARK  Name = resultss/4CJN/ligands/lig_328_t1.pdb
REMARK  7 active torsions:
REMARK  status: ('A' for Active; 'I' for Inactive)
REMARK    1  A    between atoms: C1_1  and  O1_2
REMARK    2  A    between atoms: O1_2  and  C2_3
REMARK    3  A    between atoms: C7_9  and  C8_10
REMARK    4  A    between atoms: C8_10  and  C9_11
REMARK    5  A    between atoms: C12_14  and  O3_15
REMARK    6  A    between atoms: C13_16  and  O4_17
REMARK    7  A    between atoms: O4_17  and  C14_18
REMARK                            x       y       z     vdW  Elec       q    Type
REMARK                         _______ _______ _______ _____ _____    ______ ____
ROOT
ATOM      1  C8  UNL     1      26.583  -8.756 -36.975  0.00  0.00    +0.000 C 
ENDROOT
BRANCH   1   8
ATOM      2  C2  UNL     1      25.791  -9.482 -41.870  0.00  0.00    +0.000 C 
ATOM      3  C3  UNL     1      27.253  -9.669 -42.174  0.00  0.00    +0.000 C 
ATOM      4  C4  UNL     1      28.018 -10.134 -40.970  0.00  0.00    +0.000 C 
ATOM      5  O2  UNL     1      28.918 -10.951 -41.094  0.00  0.00    +0.000 OA
ATOM      6  C5  UNL     1      27.754  -9.504 -39.635  0.00  0.00    +0.000 C 
ATOM      7  C6  UNL     1      26.282  -9.206 -39.447  0.00  0.00    +0.000 C 
ATOM      8  C7  UNL     1      25.777  -8.865 -38.244  0.00  0.00    +0.000 C 
ATOM      9  C16 UNL     1      25.361  -9.241 -40.614  0.00  0.00    +0.000 C 
BRANCH   2  11
ATOM     10  C1  UNL     1      24.515  -8.403 -43.746  0.00  0.00    +0.000 C 
ATOM     11  O1  UNL     1      24.908  -9.526 -42.963  0.00  0.00    +0.000 OA
ENDBRANCH   2  11
ENDBRANCH   1   8
BRANCH   1  12
ATOM     12  C9  UNL     1      25.695  -8.646 -35.762  0.00  0.00    +0.000 A 
ATOM     13  C10 UNL     1      26.186  -8.997 -34.496  0.00  0.00    +0.000 A 
ATOM     14  C11 UNL     1      25.366  -8.900 -33.370  0.00  0.00    +0.000 A 
ATOM     15  C12 UNL     1      24.048  -8.449 -33.491  0.00  0.00    +0.000 A 
ATOM     16  C13 UNL     1      23.541  -8.086 -34.753  0.00  0.00    +0.000 A 
ATOM     17  C15 UNL     1      24.375  -8.182 -35.883  0.00  0.00    +0.000 A 
BRANCH  15  18
ATOM     18  O3  UNL     1      23.258  -8.368 -32.345  0.00  0.00    +0.000 OA
ATOM     19  H13 UNL     1      22.509  -7.691 -32.251  0.00  0.00    +0.000 HD
ENDBRANCH  15  18
BRANCH  16  20
ATOM     20  O4  UNL     1      22.211  -7.641 -34.845  0.00  0.00    +0.000 OA
ATOM     21  C14 UNL     1      21.721  -6.766 -35.856  0.00  0.00    +0.000 C 
ENDBRANCH  16  20
ENDBRANCH   1  12
TORSDOF 5
ENDMDL
