MODEL 1
REMARK VINA RESULT:    -6.524      0.000      0.000
REMARK INTER + INTRA:          -8.917
REMARK INTER:                  -8.241
REMARK INTRA:                  -0.676
REMARK UNBOUND:                -0.676
REMARK  Name = resultss/4CJN/ligands/lig_242_t2.pdb
REMARK  7 active torsions:
REMARK  status: ('A' for Active; 'I' for Inactive)
REMARK    1  A    between atoms: C1_1  and  C2_2
REMARK    2  A    between atoms: C2_2  and  C3_3
REMARK    3  A    between atoms: C2_2  and  C4_4
REMARK    4  A    between atoms: C8_9  and  N2_10
REMARK    5  A    between atoms: C9_11  and  O1_12
REMARK    6  A    between atoms: C11_15  and  C12_16
REMARK    7  A    between atoms: C15_19  and  N3_20
REMARK                            x       y       z     vdW  Elec       q    Type
REMARK                         _______ _______ _______ _____ _____    ______ ____
ROOT
ATOM      1  N2  UNL     1      24.500  -7.816 -35.822  0.00  0.00    +0.000 N 
ATOM      2  C9  UNL     1      23.589  -6.736 -35.631  0.00  0.00    +0.000 C 
ATOM      3  C10 UNL     1      23.108  -6.622 -34.412  0.00  0.00    +0.000 C 
ATOM      4  S1  UNL     1      23.697  -7.865 -33.273  0.00  0.00    +0.000 S 
ATOM      5  C11 UNL     1      24.637  -8.659 -34.633  0.00  0.00    +0.000 C 
ENDROOT
BRANCH   1  11
ATOM      6  C4  UNL     1      26.808  -9.123 -41.670  0.00  0.00    +0.000 A 
ATOM      7  N1  UNL     1      27.372  -8.538 -40.578  0.00  0.00    +0.000 NA
ATOM      8  C5  UNL     1      26.687  -8.372 -39.419  0.00  0.00    +0.000 A 
ATOM      9  C6  UNL     1      27.294  -7.761 -38.318  0.00  0.00    +0.000 A 
ATOM     10  C7  UNL     1      26.577  -7.591 -37.130  0.00  0.00    +0.000 A 
ATOM     11  C8  UNL     1      25.250  -8.041 -37.028  0.00  0.00    +0.000 A 
ATOM     12  C18 UNL     1      24.637  -8.640 -38.142  0.00  0.00    +0.000 A 
ATOM     13  C19 UNL     1      25.353  -8.813 -39.335  0.00  0.00    +0.000 A 
ATOM     14  N4  UNL     1      24.776  -9.398 -40.422  0.00  0.00    +0.000 N 
ATOM     15  C20 UNL     1      25.467  -9.565 -41.584  0.00  0.00    +0.000 A 
ATOM     16  O4  UNL     1      24.901 -10.112 -42.568  0.00  0.00    +0.000 OA
ATOM     17  H18 UNL     1      23.785  -9.728 -40.371  0.00  0.00    +0.000 HD
BRANCH   6  19
ATOM     18  C1  UNL     1      27.662  -7.981 -43.754  0.00  0.00    +0.000 C 
ATOM     19  C2  UNL     1      27.652  -9.269 -42.922  0.00  0.00    +0.000 C 
ATOM     20  C3  UNL     1      29.073  -9.743 -42.598  0.00  0.00    +0.000 C 
ENDBRANCH   6  19
ENDBRANCH   1  11
BRANCH   5  21
ATOM     21  C12 UNL     1      26.087  -8.808 -34.236  0.00  0.00    +0.000 A 
ATOM     22  C13 UNL     1      26.851  -9.886 -34.714  0.00  0.00    +0.000 A 
ATOM     23  C14 UNL     1      28.188 -10.032 -34.331  0.00  0.00    +0.000 A 
ATOM     24  C15 UNL     1      28.787  -9.099 -33.466  0.00  0.00    +0.000 A 
ATOM     25  C16 UNL     1      28.021  -8.020 -32.994  0.00  0.00    +0.000 A 
ATOM     26  C17 UNL     1      26.685  -7.875 -33.375  0.00  0.00    +0.000 A 
BRANCH  24  27
ATOM     27  N3  UNL     1      30.164  -9.244 -33.071  0.00  0.00    +0.000 N 
ATOM     28  O2  UNL     1      30.999  -8.355 -33.336  0.00  0.00    +0.000 OA
ATOM     29  O3  UNL     1      30.582 -10.363 -32.388  0.00  0.00    +0.000 OA
ENDBRANCH  24  27
ENDBRANCH   5  21
BRANCH   2  30
ATOM     30  O1  UNL     1      23.183  -5.883 -36.657  0.00  0.00    +0.000 OA
ATOM     31  H10 UNL     1      22.521  -6.173 -37.364  0.00  0.00    +0.000 HD
ENDBRANCH   2  30
TORSDOF 5
ENDMDL
MODEL 2
REMARK VINA RESULT:    -6.433      2.308      4.860
REMARK INTER + INTRA:          -8.801
REMARK INTER:                  -7.487
REMARK INTRA:                  -1.314
REMARK UNBOUND:                -0.676
REMARK  Name = resultss/4CJN/ligands/lig_242_t2.pdb
REMARK  7 active torsions:
REMARK  status: ('A' for Active; 'I' for Inactive)
REMARK    1  A    between atoms: C1_1  and  C2_2
REMARK    2  A    between atoms: C2_2  and  C3_3
REMARK    3  A    between atoms: C2_2  and  C4_4
REMARK    4  A    between atoms: C8_9  and  N2_10
REMARK    5  A    between atoms: C9_11  and  O1_12
REMARK    6  A    between atoms: C11_15  and  C12_16
REMARK    7  A    between atoms: C15_19  and  N3_20
REMARK                            x       y       z     vdW  Elec       q    Type
REMARK                         _______ _______ _______ _____ _____    ______ ____
ROOT
ATOM      1  N2  UNL     1      29.477  -8.354 -34.661  0.00  0.00    +0.000 N 
ATOM      2  C9  UNL     1      30.377  -9.125 -33.869  0.00  0.00    +0.000 C 
ATOM      3  C10 UNL     1      30.264  -8.952 -32.569  0.00  0.00    +0.000 C 
ATOM      4  S1  UNL     1      29.013  -7.769 -32.094  0.00  0.00    +0.000 S 
ATOM      5  C11 UNL     1      28.668  -7.430 -33.863  0.00  0.00    +0.000 C 
ENDROOT
BRANCH   1  11
ATOM      6  C4  UNL     1      28.192  -9.929 -40.752  0.00  0.00    +0.000 A 
ATOM      7  N1  UNL     1      28.744  -8.816 -40.196  0.00  0.00    +0.000 NA
ATOM      8  C5  UNL     1      28.937  -8.703 -38.858  0.00  0.00    +0.000 A 
ATOM      9  C6  UNL     1      29.501  -7.543 -38.319  0.00  0.00    +0.000 A 
ATOM     10  C7  UNL     1      29.691  -7.435 -36.939  0.00  0.00    +0.000 A 
ATOM     11  C8  UNL     1      29.329  -8.491 -36.085  0.00  0.00    +0.000 A 
ATOM     12  C18 UNL     1      28.747  -9.649 -36.628  0.00  0.00    +0.000 A 
ATOM     13  C19 UNL     1      28.556  -9.762 -38.013  0.00  0.00    +0.000 A 
ATOM     14  N4  UNL     1      27.999 -10.880 -38.557  0.00  0.00    +0.000 N 
ATOM     15  C20 UNL     1      27.809 -10.991 -39.901  0.00  0.00    +0.000 A 
ATOM     16  O4  UNL     1      27.293 -12.042 -40.368  0.00  0.00    +0.000 OA
ATOM     17  H18 UNL     1      27.711 -11.672 -37.937  0.00  0.00    +0.000 HD
BRANCH   6  19
ATOM     18  C1  UNL     1      26.714  -9.290 -42.698  0.00  0.00    +0.000 C 
ATOM     19  C2  UNL     1      28.018  -9.967 -42.258  0.00  0.00    +0.000 C 
ATOM     20  C3  UNL     1      29.232  -9.380 -42.987  0.00  0.00    +0.000 C 
ENDBRANCH   6  19
ENDBRANCH   1  11
BRANCH   5  21
ATOM     21  C12 UNL     1      27.196  -7.614 -34.145  0.00  0.00    +0.000 A 
ATOM     22  C13 UNL     1      26.481  -6.648 -34.873  0.00  0.00    +0.000 A 
ATOM     23  C14 UNL     1      25.115  -6.812 -35.117  0.00  0.00    +0.000 A 
ATOM     24  C15 UNL     1      24.437  -7.949 -34.640  0.00  0.00    +0.000 A 
ATOM     25  C16 UNL     1      25.155  -8.915 -33.915  0.00  0.00    +0.000 A 
ATOM     26  C17 UNL     1      26.521  -8.750 -33.671  0.00  0.00    +0.000 A 
BRANCH  24  27
ATOM     27  N3  UNL     1      23.030  -8.123 -34.890  0.00  0.00    +0.000 N 
ATOM     28  O2  UNL     1      22.327  -8.812 -34.122  0.00  0.00    +0.000 OA
ATOM     29  O3  UNL     1      22.434  -7.528 -35.978  0.00  0.00    +0.000 OA
ENDBRANCH  24  27
ENDBRANCH   5  21
BRANCH   2  30
ATOM     30  O1  UNL     1      31.348  -9.968 -34.408  0.00  0.00    +0.000 OA
ATOM     31  H10 UNL     1      31.275 -10.976 -34.349  0.00  0.00    +0.000 HD
ENDBRANCH   2  30
TORSDOF 5
ENDMDL
MODEL 3
REMARK VINA RESULT:    -6.376      3.336      8.410
REMARK INTER + INTRA:          -8.729
REMARK INTER:                  -7.624
REMARK INTRA:                  -1.105
REMARK UNBOUND:                -0.676
REMARK  Name = resultss/4CJN/ligands/lig_242_t2.pdb
REMARK  7 active torsions:
REMARK  status: ('A' for Active; 'I' for Inactive)
REMARK    1  A    between atoms: C1_1  and  C2_2
REMARK    2  A    between atoms: C2_2  and  C3_3
REMARK    3  A    between atoms: C2_2  and  C4_4
REMARK    4  A    between atoms: C8_9  and  N2_10
REMARK    5  A    between atoms: C9_11  and  O1_12
REMARK    6  A    between atoms: C11_15  and  C12_16
REMARK    7  A    between atoms: C15_19  and  N3_20
REMARK                            x       y       z     vdW  Elec       q    Type
REMARK                         _______ _______ _______ _____ _____    ______ ____
ROOT
ATOM      1  N2  UNL     1      28.420  -9.579 -39.411  0.00  0.00    +0.000 N 
ATOM      2  C9  UNL     1      29.827  -9.352 -39.370  0.00  0.00    +0.000 C 
ATOM      3  C10 UNL     1      30.508  -9.896 -40.356  0.00  0.00    +0.000 C 
ATOM      4  S1  UNL     1      29.508 -10.814 -41.517  0.00  0.00    +0.000 S 
ATOM      5  C11 UNL     1      28.021 -10.474 -40.499  0.00  0.00    +0.000 C 
ENDROOT
BRANCH   1  11
ATOM      6  C4  UNL     1      24.463  -7.724 -34.706  0.00  0.00    +0.000 A 
ATOM      7  N1  UNL     1      24.862  -7.112 -35.854  0.00  0.00    +0.000 NA
ATOM      8  C5  UNL     1      25.713  -7.709 -36.727  0.00  0.00    +0.000 A 
ATOM      9  C6  UNL     1      26.109  -7.049 -37.893  0.00  0.00    +0.000 A 
ATOM     10  C7  UNL     1      26.989  -7.671 -38.783  0.00  0.00    +0.000 A 
ATOM     11  C8  UNL     1      27.473  -8.964 -38.520  0.00  0.00    +0.000 A 
ATOM     12  C18 UNL     1      27.086  -9.618 -37.338  0.00  0.00    +0.000 A 
ATOM     13  C19 UNL     1      26.202  -8.998 -36.443  0.00  0.00    +0.000 A 
ATOM     14  N4  UNL     1      25.812  -9.619 -35.296  0.00  0.00    +0.000 N 
ATOM     15  C20 UNL     1      24.956  -9.018 -34.422  0.00  0.00    +0.000 A 
ATOM     16  O4  UNL     1      24.615  -9.626 -33.373  0.00  0.00    +0.000 OA
ATOM     17  H18 UNL     1      26.170 -10.577 -35.075  0.00  0.00    +0.000 HD
BRANCH   6  19
ATOM     18  C1  UNL     1      24.239  -5.961 -32.913  0.00  0.00    +0.000 C 
ATOM     19  C2  UNL     1      23.507  -6.981 -33.793  0.00  0.00    +0.000 C 
ATOM     20  C3  UNL     1      22.360  -6.331 -34.576  0.00  0.00    +0.000 C 
ENDBRANCH   6  19
ENDBRANCH   1  11
BRANCH   5  21
ATOM     21  C12 UNL     1      26.945  -9.847 -41.353  0.00  0.00    +0.000 A 
ATOM     22  C13 UNL     1      25.593 -10.176 -41.156  0.00  0.00    +0.000 A 
ATOM     23  C14 UNL     1      24.601  -9.607 -41.960  0.00  0.00    +0.000 A 
ATOM     24  C15 UNL     1      24.942  -8.694 -42.974  0.00  0.00    +0.000 A 
ATOM     25  C16 UNL     1      26.294  -8.364 -43.165  0.00  0.00    +0.000 A 
ATOM     26  C17 UNL     1      27.286  -8.934 -42.362  0.00  0.00    +0.000 A 
BRANCH  24  27
ATOM     27  N3  UNL     1      23.923  -8.104 -43.803  0.00  0.00    +0.000 N 
ATOM     28  O2  UNL     1      24.218  -7.575 -44.894  0.00  0.00    +0.000 OA
ATOM     29  O3  UNL     1      22.605  -8.119 -43.408  0.00  0.00    +0.000 OA
ENDBRANCH  24  27
ENDBRANCH   5  21
BRANCH   2  30
ATOM     30  O1  UNL     1      30.463  -8.654 -38.345  0.00  0.00    +0.000 OA
ATOM     31  H10 UNL     1      31.466  -8.517 -38.332  0.00  0.00    +0.000 HD
ENDBRANCH   2  30
TORSDOF 5
ENDMDL
MODEL 4
REMARK VINA RESULT:    -6.123      3.295      8.192
REMARK INTER + INTRA:          -8.410
REMARK INTER:                  -7.492
REMARK INTRA:                  -0.918
REMARK UNBOUND:                -0.676
REMARK  Name = resultss/4CJN/ligands/lig_242_t2.pdb
REMARK  7 active torsions:
REMARK  status: ('A' for Active; 'I' for Inactive)
REMARK    1  A    between atoms: C1_1  and  C2_2
REMARK    2  A    between atoms: C2_2  and  C3_3
REMARK    3  A    between atoms: C2_2  and  C4_4
REMARK    4  A    between atoms: C8_9  and  N2_10
REMARK    5  A    between atoms: C9_11  and  O1_12
REMARK    6  A    between atoms: C11_15  and  C12_16
REMARK    7  A    between atoms: C15_19  and  N3_20
REMARK                            x       y       z     vdW  Elec       q    Type
REMARK                         _______ _______ _______ _____ _____    ______ ____
ROOT
ATOM      1  N2  UNL     1      29.478  -9.601 -39.469  0.00  0.00    +0.000 N 
ATOM      2  C9  UNL     1      30.778  -9.016 -39.503  0.00  0.00    +0.000 C 
ATOM      3  C10 UNL     1      31.442  -9.199 -40.624  0.00  0.00    +0.000 C 
ATOM      4  S1  UNL     1      30.563 -10.160 -41.847  0.00  0.00    +0.000 S 
ATOM      5  C11 UNL     1      29.179 -10.391 -40.665  0.00  0.00    +0.000 C 
ENDROOT
BRANCH   1  11
ATOM      6  C4  UNL     1      24.827  -7.858 -35.399  0.00  0.00    +0.000 A 
ATOM      7  N1  UNL     1      25.665  -8.931 -35.418  0.00  0.00    +0.000 NA
ATOM      8  C5  UNL     1      26.600  -9.093 -36.388  0.00  0.00    +0.000 A 
ATOM      9  C6  UNL     1      27.441 -10.209 -36.382  0.00  0.00    +0.000 A 
ATOM     10  C7  UNL     1      28.397 -10.368 -37.389  0.00  0.00    +0.000 A 
ATOM     11  C8  UNL     1      28.529  -9.406 -38.405  0.00  0.00    +0.000 A 
ATOM     12  C18 UNL     1      27.671  -8.293 -38.418  0.00  0.00    +0.000 A 
ATOM     13  C19 UNL     1      26.711  -8.129 -37.409  0.00  0.00    +0.000 A 
ATOM     14  N4  UNL     1      25.875  -7.054 -37.402  0.00  0.00    +0.000 N 
ATOM     15  C20 UNL     1      24.939  -6.893 -36.425  0.00  0.00    +0.000 A 
ATOM     16  O4  UNL     1      24.186  -5.883 -36.450  0.00  0.00    +0.000 OA
ATOM     17  H18 UNL     1      25.949  -6.332 -38.156  0.00  0.00    +0.000 HD
BRANCH   6  19
ATOM     18  C1  UNL     1      22.392  -8.062 -34.758  0.00  0.00    +0.000 C 
ATOM     19  C2  UNL     1      23.815  -7.760 -34.273  0.00  0.00    +0.000 C 
ATOM     20  C3  UNL     1      24.204  -8.641 -33.080  0.00  0.00    +0.000 C 
ENDBRANCH   6  19
ENDBRANCH   1  11
BRANCH   5  21
ATOM     21  C12 UNL     1      27.882  -9.949 -41.299  0.00  0.00    +0.000 A 
ATOM     22  C13 UNL     1      26.662 -10.531 -40.912  0.00  0.00    +0.000 A 
ATOM     23  C14 UNL     1      25.466 -10.132 -41.513  0.00  0.00    +0.000 A 
ATOM     24  C15 UNL     1      25.463  -9.140 -42.510  0.00  0.00    +0.000 A 
ATOM     25  C16 UNL     1      26.684  -8.558 -42.891  0.00  0.00    +0.000 A 
ATOM     26  C17 UNL     1      27.881  -8.957 -42.291  0.00  0.00    +0.000 A 
BRANCH  24  27
ATOM     27  N3  UNL     1      24.233  -8.725 -43.130  0.00  0.00    +0.000 N 
ATOM     28  O2  UNL     1      23.134  -8.966 -42.589  0.00  0.00    +0.000 OA
ATOM     29  O3  UNL     1      24.247  -8.050 -44.329  0.00  0.00    +0.000 OA
ENDBRANCH  24  27
ENDBRANCH   5  21
BRANCH   2  30
ATOM     30  O1  UNL     1      31.345  -8.341 -38.424  0.00  0.00    +0.000 OA
ATOM     31  H10 UNL     1      30.879  -7.565 -37.972  0.00  0.00    +0.000 HD
ENDBRANCH   2  30
TORSDOF 5
ENDMDL
MODEL 5
REMARK VINA RESULT:    -5.864      3.544      7.703
REMARK INTER + INTRA:          -8.083
REMARK INTER:                  -7.148
REMARK INTRA:                  -0.935
REMARK UNBOUND:                -0.676
REMARK  Name = resultss/4CJN/ligands/lig_242_t2.pdb
REMARK  7 active torsions:
REMARK  status: ('A' for Active; 'I' for Inactive)
REMARK    1  A    between atoms: C1_1  and  C2_2
REMARK    2  A    between atoms: C2_2  and  C3_3
REMARK    3  A    between atoms: C2_2  and  C4_4
REMARK    4  A    between atoms: C8_9  and  N2_10
REMARK    5  A    between atoms: C9_11  and  O1_12
REMARK    6  A    between atoms: C11_15  and  C12_16
REMARK    7  A    between atoms: C15_19  and  N3_20
REMARK                            x       y       z     vdW  Elec       q    Type
REMARK                         _______ _______ _______ _____ _____    ______ ____
ROOT
ATOM      1  N2  UNL     1      26.513  -8.781 -40.493  0.00  0.00    +0.000 N 
ATOM      2  C9  UNL     1      25.204  -9.226 -40.841  0.00  0.00    +0.000 C 
ATOM      3  C10 UNL     1      24.925  -9.184 -42.126  0.00  0.00    +0.000 C 
ATOM      4  S1  UNL     1      26.252  -8.557 -43.144  0.00  0.00    +0.000 S 
ATOM      5  C11 UNL     1      27.257  -8.256 -41.639  0.00  0.00    +0.000 C 
ENDROOT
BRANCH   1  11
ATOM      6  C4  UNL     1      28.556  -8.127 -34.441  0.00  0.00    +0.000 A 
ATOM      7  N1  UNL     1      28.556  -9.190 -35.292  0.00  0.00    +0.000 NA
ATOM      8  C5  UNL     1      28.075  -9.094 -36.557  0.00  0.00    +0.000 A 
ATOM      9  C6  UNL     1      28.083 -10.206 -37.404  0.00  0.00    +0.000 A 
ATOM     10  C7  UNL     1      27.581 -10.098 -38.704  0.00  0.00    +0.000 A 
ATOM     11  C8  UNL     1      27.077  -8.874 -39.173  0.00  0.00    +0.000 A 
ATOM     12  C18 UNL     1      27.055  -7.761 -38.314  0.00  0.00    +0.000 A 
ATOM     13  C19 UNL     1      27.558  -7.866 -37.010  0.00  0.00    +0.000 A 
ATOM     14  N4  UNL     1      27.551  -6.796 -36.166  0.00  0.00    +0.000 N 
ATOM     15  C20 UNL     1      28.036  -6.895 -34.896  0.00  0.00    +0.000 A 
ATOM     16  O4  UNL     1      28.015  -5.883 -34.145  0.00  0.00    +0.000 OA
ATOM     17  H18 UNL     1      27.168  -5.879 -36.492  0.00  0.00    +0.000 HD
BRANCH   6  19
ATOM     18  C1  UNL     1      28.024  -8.233 -31.974  0.00  0.00    +0.000 C 
ATOM     19  C2  UNL     1      29.117  -8.328 -33.045  0.00  0.00    +0.000 C 
ATOM     20  C3  UNL     1      29.907  -9.637 -32.932  0.00  0.00    +0.000 C 
ENDBRANCH   6  19
ENDBRANCH   1  11
BRANCH   5  21
ATOM     21  C12 UNL     1      28.599  -8.936 -41.773  0.00  0.00    +0.000 A 
ATOM     22  C13 UNL     1      29.742  -8.388 -41.167  0.00  0.00    +0.000 A 
ATOM     23  C14 UNL     1      30.986  -9.010 -41.307  0.00  0.00    +0.000 A 
ATOM     24  C15 UNL     1      31.110 -10.195 -42.055  0.00  0.00    +0.000 A 
ATOM     25  C16 UNL     1      29.965 -10.742 -42.657  0.00  0.00    +0.000 A 
ATOM     26  C17 UNL     1      28.721 -10.120 -42.517  0.00  0.00    +0.000 A 
BRANCH  24  27
ATOM     27  N3  UNL     1      32.389 -10.840 -42.200  0.00  0.00    +0.000 N 
ATOM     28  O2  UNL     1      33.389 -10.419 -41.584  0.00  0.00    +0.000 OA
ATOM     29  O3  UNL     1      32.529 -11.939 -43.018  0.00  0.00    +0.000 OA
ENDBRANCH  24  27
ENDBRANCH   5  21
BRANCH   2  30
ATOM     30  O1  UNL     1      24.256  -9.632 -39.903  0.00  0.00    +0.000 OA
ATOM     31  H10 UNL     1      23.446 -10.181 -40.164  0.00  0.00    +0.000 HD
ENDBRANCH   2  30
TORSDOF 5
ENDMDL
MODEL 6
REMARK VINA RESULT:    -5.854      3.268      6.888
REMARK INTER + INTRA:          -8.071
REMARK INTER:                  -7.071
REMARK INTRA:                  -1.000
REMARK UNBOUND:                -0.676
REMARK  Name = resultss/4CJN/ligands/lig_242_t2.pdb
REMARK  7 active torsions:
REMARK  status: ('A' for Active; 'I' for Inactive)
REMARK    1  A    between atoms: C1_1  and  C2_2
REMARK    2  A    between atoms: C2_2  and  C3_3
REMARK    3  A    between atoms: C2_2  and  C4_4
REMARK    4  A    between atoms: C8_9  and  N2_10
REMARK    5  A    between atoms: C9_11  and  O1_12
REMARK    6  A    between atoms: C11_15  and  C12_16
REMARK    7  A    between atoms: C15_19  and  N3_20
REMARK                            x       y       z     vdW  Elec       q    Type
REMARK                         _______ _______ _______ _____ _____    ______ ____
ROOT
ATOM      1  N2  UNL     1      25.619  -8.095 -41.137  0.00  0.00    +0.000 N 
ATOM      2  C9  UNL     1      24.780  -8.742 -42.090  0.00  0.00    +0.000 C 
ATOM      3  C10 UNL     1      25.317  -8.913 -43.279  0.00  0.00    +0.000 C 
ATOM      4  S1  UNL     1      26.978  -8.275 -43.431  0.00  0.00    +0.000 S 
ATOM      5  C11 UNL     1      26.890  -7.647 -41.710  0.00  0.00    +0.000 C 
ENDROOT
BRANCH   1  11
ATOM      6  C4  UNL     1      24.876  -8.300 -34.762  0.00  0.00    +0.000 A 
ATOM      7  N1  UNL     1      24.493  -7.385 -35.694  0.00  0.00    +0.000 NA
ATOM      8  C5  UNL     1      24.750  -7.557 -37.015  0.00  0.00    +0.000 A 
ATOM      9  C6  UNL     1      24.349  -6.595 -37.946  0.00  0.00    +0.000 A 
ATOM     10  C7  UNL     1      24.623  -6.780 -39.304  0.00  0.00    +0.000 A 
ATOM     11  C8  UNL     1      25.292  -7.934 -39.745  0.00  0.00    +0.000 A 
ATOM     12  C18 UNL     1      25.709  -8.892 -38.805  0.00  0.00    +0.000 A 
ATOM     13  C19 UNL     1      25.435  -8.711 -37.442  0.00  0.00    +0.000 A 
ATOM     14  N4  UNL     1      25.827  -9.632 -36.518  0.00  0.00    +0.000 N 
ATOM     15  C20 UNL     1      25.565  -9.457 -35.192  0.00  0.00    +0.000 A 
ATOM     16  O4  UNL     1      25.940 -10.333 -34.367  0.00  0.00    +0.000 OA
ATOM     17  H18 UNL     1      26.337 -10.492 -36.824  0.00  0.00    +0.000 HD
BRANCH   6  19
ATOM     18  C1  UNL     1      24.383  -6.524 -33.035  0.00  0.00    +0.000 C 
ATOM     19  C2  UNL     1      24.542  -8.025 -33.308  0.00  0.00    +0.000 C 
ATOM     20  C3  UNL     1      23.313  -8.816 -32.846  0.00  0.00    +0.000 C 
ENDBRANCH   6  19
ENDBRANCH   1  11
BRANCH   5  21
ATOM     21  C12 UNL     1      28.061  -8.169 -40.912  0.00  0.00    +0.000 A 
ATOM     22  C13 UNL     1      28.762  -7.323 -40.035  0.00  0.00    +0.000 A 
ATOM     23  C14 UNL     1      29.856  -7.804 -39.311  0.00  0.00    +0.000 A 
ATOM     24  C15 UNL     1      30.269  -9.141 -39.447  0.00  0.00    +0.000 A 
ATOM     25  C16 UNL     1      29.564  -9.985 -40.322  0.00  0.00    +0.000 A 
ATOM     26  C17 UNL     1      28.471  -9.504 -41.047  0.00  0.00    +0.000 A 
BRANCH  24  27
ATOM     27  N3  UNL     1      31.395  -9.641 -38.702  0.00  0.00    +0.000 N 
ATOM     28  O2  UNL     1      31.243 -10.101 -37.551  0.00  0.00    +0.000 OA
ATOM     29  O3  UNL     1      32.658  -9.627 -39.248  0.00  0.00    +0.000 OA
ENDBRANCH  24  27
ENDBRANCH   5  21
BRANCH   2  30
ATOM     30  O1  UNL     1      23.468  -9.129 -41.822  0.00  0.00    +0.000 OA
ATOM     31  H10 UNL     1      22.915  -8.684 -41.100  0.00  0.00    +0.000 HD
ENDBRANCH   2  30
TORSDOF 5
ENDMDL
MODEL 7
REMARK VINA RESULT:    -5.694      3.364      6.750
REMARK INTER + INTRA:          -7.869
REMARK INTER:                  -6.685
REMARK INTRA:                  -1.183
REMARK UNBOUND:                -0.676
REMARK  Name = resultss/4CJN/ligands/lig_242_t2.pdb
REMARK  7 active torsions:
REMARK  status: ('A' for Active; 'I' for Inactive)
REMARK    1  A    between atoms: C1_1  and  C2_2
REMARK    2  A    between atoms: C2_2  and  C3_3
REMARK    3  A    between atoms: C2_2  and  C4_4
REMARK    4  A    between atoms: C8_9  and  N2_10
REMARK    5  A    between atoms: C9_11  and  O1_12
REMARK    6  A    between atoms: C11_15  and  C12_16
REMARK    7  A    between atoms: C15_19  and  N3_20
REMARK                            x       y       z     vdW  Elec       q    Type
REMARK                         _______ _______ _______ _____ _____    ______ ____
ROOT
ATOM      1  N2  UNL     1      28.231  -9.562 -39.537  0.00  0.00    +0.000 N 
ATOM      2  C9  UNL     1      28.291 -10.811 -40.221  0.00  0.00    +0.000 C 
ATOM      3  C10 UNL     1      29.156 -10.862 -41.212  0.00  0.00    +0.000 C 
ATOM      4  S1  UNL     1      30.047  -9.339 -41.486  0.00  0.00    +0.000 S 
ATOM      5  C11 UNL     1      29.077  -8.537 -40.151  0.00  0.00    +0.000 C 
ENDROOT
BRANCH   1  11
ATOM      6  C4  UNL     1      23.965  -8.168 -34.945  0.00  0.00    +0.000 A 
ATOM      7  N1  UNL     1      25.170  -8.800 -34.906  0.00  0.00    +0.000 NA
ATOM      8  C5  UNL     1      25.923  -8.976 -36.022  0.00  0.00    +0.000 A 
ATOM      9  C6  UNL     1      27.153  -9.635 -35.949  0.00  0.00    +0.000 A 
ATOM     10  C7  UNL     1      27.918  -9.815 -37.105  0.00  0.00    +0.000 A 
ATOM     11  C8  UNL     1      27.465  -9.327 -38.342  0.00  0.00    +0.000 A 
ATOM     12  C18 UNL     1      26.220  -8.679 -38.415  0.00  0.00    +0.000 A 
ATOM     13  C19 UNL     1      25.450  -8.496 -37.258  0.00  0.00    +0.000 A 
ATOM     14  N4  UNL     1      24.244  -7.865 -37.309  0.00  0.00    +0.000 N 
ATOM     15  C20 UNL     1      23.491  -7.688 -36.187  0.00  0.00    +0.000 A 
ATOM     16  O4  UNL     1      22.382  -7.096 -36.273  0.00  0.00    +0.000 OA
ATOM     17  H18 UNL     1      23.883  -7.506 -38.223  0.00  0.00    +0.000 HD
BRANCH   6  19
ATOM     18  C1  UNL     1      23.484  -9.164 -32.674  0.00  0.00    +0.000 C 
ATOM     19  C2  UNL     1      23.195  -8.014 -33.647  0.00  0.00    +0.000 C 
ATOM     20  C3  UNL     1      23.443  -6.649 -32.996  0.00  0.00    +0.000 C 
ENDBRANCH   6  19
ENDBRANCH   1  11
BRANCH   5  21
ATOM     21  C12 UNL     1      30.011  -7.922 -39.136  0.00  0.00    +0.000 A 
ATOM     22  C13 UNL     1      31.058  -8.675 -38.578  0.00  0.00    +0.000 A 
ATOM     23  C14 UNL     1      31.909  -8.108 -37.626  0.00  0.00    +0.000 A 
ATOM     24  C15 UNL     1      31.732  -6.775 -37.214  0.00  0.00    +0.000 A 
ATOM     25  C16 UNL     1      30.686  -6.024 -37.776  0.00  0.00    +0.000 A 
ATOM     26  C17 UNL     1      29.835  -6.591 -38.728  0.00  0.00    +0.000 A 
BRANCH  24  27
ATOM     27  N3  UNL     1      32.608  -6.187 -36.235  0.00  0.00    +0.000 N 
ATOM     28  O2  UNL     1      33.782  -5.883 -36.531  0.00  0.00    +0.000 OA
ATOM     29  O3  UNL     1      32.163  -5.944 -34.955  0.00  0.00    +0.000 OA
ENDBRANCH  24  27
ENDBRANCH   5  21
BRANCH   2  30
ATOM     30  O1  UNL     1      27.471 -11.895 -39.915  0.00  0.00    +0.000 OA
ATOM     31  H10 UNL     1      27.352 -12.226 -38.966  0.00  0.00    +0.000 HD
ENDBRANCH   2  30
TORSDOF 5
ENDMDL
MODEL 8
REMARK VINA RESULT:    -5.685      3.424      7.170
REMARK INTER + INTRA:          -7.857
REMARK INTER:                  -6.588
REMARK INTRA:                  -1.269
REMARK UNBOUND:                -0.676
REMARK  Name = resultss/4CJN/ligands/lig_242_t2.pdb
REMARK  7 active torsions:
REMARK  status: ('A' for Active; 'I' for Inactive)
REMARK    1  A    between atoms: C1_1  and  C2_2
REMARK    2  A    between atoms: C2_2  and  C3_3
REMARK    3  A    between atoms: C2_2  and  C4_4
REMARK    4  A    between atoms: C8_9  and  N2_10
REMARK    5  A    between atoms: C9_11  and  O1_12
REMARK    6  A    between atoms: C11_15  and  C12_16
REMARK    7  A    between atoms: C15_19  and  N3_20
REMARK                            x       y       z     vdW  Elec       q    Type
REMARK                         _______ _______ _______ _____ _____    ______ ____
ROOT
ATOM      1  N2  UNL     1      26.213  -8.475 -40.419  0.00  0.00    +0.000 N 
ATOM      2  C9  UNL     1      25.095  -9.229 -40.881  0.00  0.00    +0.000 C 
ATOM      3  C10 UNL     1      25.107  -9.512 -42.166  0.00  0.00    +0.000 C 
ATOM      4  S1  UNL     1      26.520  -8.865 -43.046  0.00  0.00    +0.000 S 
ATOM      5  C11 UNL     1      27.110  -8.067 -41.503  0.00  0.00    +0.000 C 
ENDROOT
BRANCH   1  11
ATOM      6  C4  UNL     1      27.887  -8.221 -34.225  0.00  0.00    +0.000 A 
ATOM      7  N1  UNL     1      27.398  -7.277 -35.076  0.00  0.00    +0.000 NA
ATOM      8  C5  UNL     1      27.096  -7.563 -36.368  0.00  0.00    +0.000 A 
ATOM      9  C6  UNL     1      26.603  -6.569 -37.216  0.00  0.00    +0.000 A 
ATOM     10  C7  UNL     1      26.299  -6.873 -38.546  0.00  0.00    +0.000 A 
ATOM     11  C8  UNL     1      26.476  -8.178 -39.036  0.00  0.00    +0.000 A 
ATOM     12  C18 UNL     1      26.988  -9.172 -38.185  0.00  0.00    +0.000 A 
ATOM     13  C19 UNL     1      27.293  -8.870 -36.850  0.00  0.00    +0.000 A 
ATOM     14  N4  UNL     1      27.784  -9.823 -36.009  0.00  0.00    +0.000 N 
ATOM     15  C20 UNL     1      28.085  -9.533 -34.712  0.00  0.00    +0.000 A 
ATOM     16  O4  UNL     1      28.534 -10.441 -33.963  0.00  0.00    +0.000 OA
ATOM     17  H18 UNL     1      27.935 -10.798 -36.357  0.00  0.00    +0.000 HD
BRANCH   6  19
ATOM     18  C1  UNL     1      29.673  -7.456 -32.612  0.00  0.00    +0.000 C 
ATOM     19  C2  UNL     1      28.193  -7.809 -32.798  0.00  0.00    +0.000 C 
ATOM     20  C3  UNL     1      27.279  -6.673 -32.324  0.00  0.00    +0.000 C 
ENDBRANCH   6  19
ENDBRANCH   1  11
BRANCH   5  21
ATOM     21  C12 UNL     1      28.533  -8.486 -41.219  0.00  0.00    +0.000 A 
ATOM     22  C13 UNL     1      28.929  -9.825 -41.373  0.00  0.00    +0.000 A 
ATOM     23  C14 UNL     1      30.242 -10.212 -41.092  0.00  0.00    +0.000 A 
ATOM     24  C15 UNL     1      31.186  -9.267 -40.654  0.00  0.00    +0.000 A 
ATOM     25  C16 UNL     1      30.788  -7.927 -40.505  0.00  0.00    +0.000 A 
ATOM     26  C17 UNL     1      29.475  -7.540 -40.785  0.00  0.00    +0.000 A 
BRANCH  24  27
ATOM     27  N3  UNL     1      32.540  -9.661 -40.366  0.00  0.00    +0.000 N 
ATOM     28  O2  UNL     1      32.970  -9.651 -39.194  0.00  0.00    +0.000 OA
ATOM     29  O3  UNL     1      33.383 -10.061 -41.378  0.00  0.00    +0.000 OA
ENDBRANCH  24  27
ENDBRANCH   5  21
BRANCH   2  30
ATOM     30  O1  UNL     1      24.032  -9.607 -40.063  0.00  0.00    +0.000 OA
ATOM     31  H10 UNL     1      23.136  -9.884 -40.442  0.00  0.00    +0.000 HD
ENDBRANCH   2  30
TORSDOF 5
ENDMDL
MODEL 9
REMARK VINA RESULT:    -5.532      3.928      7.916
REMARK INTER + INTRA:          -7.663
REMARK INTER:                  -6.528
REMARK INTRA:                  -1.136
REMARK UNBOUND:                -0.676
REMARK  Name = resultss/4CJN/ligands/lig_242_t2.pdb
REMARK  7 active torsions:
REMARK  status: ('A' for Active; 'I' for Inactive)
REMARK    1  A    between atoms: C1_1  and  C2_2
REMARK    2  A    between atoms: C2_2  and  C3_3
REMARK    3  A    between atoms: C2_2  and  C4_4
REMARK    4  A    between atoms: C8_9  and  N2_10
REMARK    5  A    between atoms: C9_11  and  O1_12
REMARK    6  A    between atoms: C11_15  and  C12_16
REMARK    7  A    between atoms: C15_19  and  N3_20
REMARK                            x       y       z     vdW  Elec       q    Type
REMARK                         _______ _______ _______ _____ _____    ______ ____
ROOT
ATOM      1  N2  UNL     1      27.950  -9.176 -39.380  0.00  0.00    +0.000 N 
ATOM      2  C9  UNL     1      27.555  -9.891 -38.212  0.00  0.00    +0.000 C 
ATOM      3  C10 UNL     1      26.681  -9.270 -37.448  0.00  0.00    +0.000 C 
ATOM      4  S1  UNL     1      26.203  -7.656 -38.045  0.00  0.00    +0.000 S 
ATOM      5  C11 UNL     1      27.379  -7.829 -39.442  0.00  0.00    +0.000 C 
ENDROOT
BRANCH   1  11
ATOM      6  C4  UNL     1      32.551 -11.270 -43.340  0.00  0.00    +0.000 A 
ATOM      7  N1  UNL     1      31.200 -11.436 -43.345  0.00  0.00    +0.000 NA
ATOM      8  C5  UNL     1      30.405 -10.881 -42.396  0.00  0.00    +0.000 A 
ATOM      9  C6  UNL     1      29.022 -11.077 -42.426  0.00  0.00    +0.000 A 
ATOM     10  C7  UNL     1      28.213 -10.504 -41.441  0.00  0.00    +0.000 A 
ATOM     11  C8  UNL     1      28.780  -9.719 -40.422  0.00  0.00    +0.000 A 
ATOM     12  C18 UNL     1      30.173  -9.537 -40.384  0.00  0.00    +0.000 A 
ATOM     13  C19 UNL     1      30.987 -10.110 -41.372  0.00  0.00    +0.000 A 
ATOM     14  N4  UNL     1      32.339  -9.938 -41.354  0.00  0.00    +0.000 N 
ATOM     15  C20 UNL     1      33.134 -10.496 -42.310  0.00  0.00    +0.000 A 
ATOM     16  O4  UNL     1      34.380 -10.313 -42.262  0.00  0.00    +0.000 OA
ATOM     17  H18 UNL     1      32.781  -9.368 -40.597  0.00  0.00    +0.000 HD
BRANCH   6  19
ATOM     18  C1  UNL     1      32.752 -13.268 -44.871  0.00  0.00    +0.000 C 
ATOM     19  C2  UNL     1      33.358 -11.926 -44.443  0.00  0.00    +0.000 C 
ATOM     20  C3  UNL     1      33.554 -10.989 -45.641  0.00  0.00    +0.000 C 
ENDBRANCH   6  19
ENDBRANCH   1  11
BRANCH   5  21
ATOM     21  C12 UNL     1      26.660  -7.602 -40.750  0.00  0.00    +0.000 A 
ATOM     22  C13 UNL     1      25.383  -8.147 -40.969  0.00  0.00    +0.000 A 
ATOM     23  C14 UNL     1      24.728  -7.950 -42.187  0.00  0.00    +0.000 A 
ATOM     24  C15 UNL     1      25.335  -7.201 -43.211  0.00  0.00    +0.000 A 
ATOM     25  C16 UNL     1      26.610  -6.654 -42.988  0.00  0.00    +0.000 A 
ATOM     26  C17 UNL     1      27.266  -6.851 -41.769  0.00  0.00    +0.000 A 
BRANCH  24  27
ATOM     27  N3  UNL     1      24.663  -6.994 -44.467  0.00  0.00    +0.000 N 
ATOM     28  O2  UNL     1      23.445  -7.241 -44.586  0.00  0.00    +0.000 OA
ATOM     29  O3  UNL     1      25.351  -6.513 -45.557  0.00  0.00    +0.000 OA
ENDBRANCH  24  27
ENDBRANCH   5  21
BRANCH   2  30
ATOM     30  O1  UNL     1      28.078 -11.133 -37.857  0.00  0.00    +0.000 OA
ATOM     31  H10 UNL     1      27.531 -11.821 -37.355  0.00  0.00    +0.000 HD
ENDBRANCH   2  30
TORSDOF 5
ENDMDL
