MODEL 1
REMARK VINA RESULT:    -4.280      0.000      0.000
REMARK INTER + INTRA:          -6.567
REMARK INTER:                  -6.031
REMARK INTRA:                  -0.535
REMARK UNBOUND:                -0.535
REMARK  Name = resultss/4CJN/ligands/lig_33_t0.pdb
REMARK  12 active torsions:
REMARK  status: ('A' for Active; 'I' for Inactive)
REMARK    1  A    between atoms: C1_1  and  SI1_2
REMARK    2  A    between atoms: SI1_2  and  C2_3
REMARK    3  A    between atoms: SI1_2  and  C3_4
REMARK    4  A    between atoms: SI1_2  and  C4_5
REMARK    5  A    between atoms: C4_5  and  C5_6
REMARK    6  A    between atoms: C5_6  and  C6_7
REMARK    7  A    between atoms: C6_7  and  N1_8
REMARK    8  A    between atoms: C8_10  and  O1_11
REMARK    9  A    between atoms: C9_12  and  O2_13
REMARK   10  A    between atoms: C10_14  and  O3_15
REMARK   11  A    between atoms: C11_16  and  C12_17
REMARK   12  A    between atoms: C12_17  and  O4_18
REMARK                            x       y       z     vdW  Elec       q    Type
REMARK                         _______ _______ _______ _____ _____    ______ ____
ROOT
ATOM      1  N1  UNL     1      25.623  -8.193 -36.050  0.00  0.00    +0.000 NA
ATOM      2  C7  UNL     1      26.264  -8.494 -34.746  0.00  0.00    +0.000 C 
ATOM      3  C8  UNL     1      25.414  -9.417 -33.849  0.00  0.00    +0.000 C 
ATOM      4  C9  UNL     1      23.984  -8.850 -33.608  0.00  0.00    +0.000 C 
ATOM      5  C10 UNL     1      23.626  -7.701 -34.581  0.00  0.00    +0.000 C 
ATOM      6  C11 UNL     1      24.145  -7.993 -36.018  0.00  0.00    +0.000 C 
ENDROOT
BRANCH   3   7
ATOM      7  O1  UNL     1      25.374 -10.722 -34.371  0.00  0.00    +0.000 OA
ATOM      8  H19 UNL     1      24.884 -10.695 -35.232  0.00  0.00    +0.000 HD
ENDBRANCH   3   7
BRANCH   4   9
ATOM      9  O2  UNL     1      23.833  -8.421 -32.277  0.00  0.00    +0.000 OA
ATOM     10  H21 UNL     1      22.899  -8.103 -32.168  0.00  0.00    +0.000 HD
ENDBRANCH   4   9
BRANCH   5  11
ATOM     11  O3  UNL     1      22.236  -7.476 -34.567  0.00  0.00    +0.000 OA
ATOM     12  H23 UNL     1      21.874  -7.765 -35.445  0.00  0.00    +0.000 HD
ENDBRANCH   5  11
BRANCH   1  13
ATOM     13  C6  UNL     1      26.083  -9.099 -37.130  0.00  0.00    +0.000 C 
BRANCH  13  14
ATOM     14  C5  UNL     1      27.606  -9.244 -37.060  0.00  0.00    +0.000 C 
BRANCH  14  15
ATOM     15  C4  UNL     1      28.102 -10.313 -38.035  0.00  0.00    +0.000 C 
BRANCH  15  17
ATOM     16  C1  UNL     1      26.545 -10.329 -40.684  0.00  0.00    +0.000 C 
ATOM     17 SI1  UNL     1      28.070  -9.699 -39.808  0.00  0.00    +0.000 Si
ATOM     18  C2  UNL     1      28.084  -7.832 -39.849  0.00  0.00    +0.000 C 
ATOM     19  C3  UNL     1      29.585 -10.339 -40.692  0.00  0.00    +0.000 C 
ENDBRANCH  15  17
ENDBRANCH  14  15
ENDBRANCH  13  14
ENDBRANCH   1  13
BRANCH   6  20
ATOM     20  C12 UNL     1      23.774  -6.814 -36.946  0.00  0.00    +0.000 C 
BRANCH  20  21
ATOM     21  O4  UNL     1      22.391  -6.759 -37.173  0.00  0.00    +0.000 OA
ATOM     22  H27 UNL     1      21.954  -6.904 -36.293  0.00  0.00    +0.000 HD
ENDBRANCH  20  21
ENDBRANCH   6  20
TORSDOF 9
ENDMDL
MODEL 2
REMARK VINA RESULT:    -4.078      3.635      5.406
REMARK INTER + INTRA:          -6.282
REMARK INTER:                  -5.733
REMARK INTRA:                  -0.549
REMARK UNBOUND:                -0.535
REMARK  Name = resultss/4CJN/ligands/lig_33_t0.pdb
REMARK  12 active torsions:
REMARK  status: ('A' for Active; 'I' for Inactive)
REMARK    1  A    between atoms: C1_1  and  SI1_2
REMARK    2  A    between atoms: SI1_2  and  C2_3
REMARK    3  A    between atoms: SI1_2  and  C3_4
REMARK    4  A    between atoms: SI1_2  and  C4_5
REMARK    5  A    between atoms: C4_5  and  C5_6
REMARK    6  A    between atoms: C5_6  and  C6_7
REMARK    7  A    between atoms: C6_7  and  N1_8
REMARK    8  A    between atoms: C8_10  and  O1_11
REMARK    9  A    between atoms: C9_12  and  O2_13
REMARK   10  A    between atoms: C10_14  and  O3_15
REMARK   11  A    between atoms: C11_16  and  C12_17
REMARK   12  A    between atoms: C12_17  and  O4_18
REMARK                            x       y       z     vdW  Elec       q    Type
REMARK                         _______ _______ _______ _____ _____    ______ ____
ROOT
ATOM      1  N1  UNL     1      27.031  -7.382 -34.771  0.00  0.00    +0.000 NA
ATOM      2  C7  UNL     1      25.740  -6.658 -34.866  0.00  0.00    +0.000 C 
ATOM      3  C8  UNL     1      24.723  -7.084 -33.788  0.00  0.00    +0.000 C 
ATOM      4  C9  UNL     1      24.461  -8.618 -33.799  0.00  0.00    +0.000 C 
ATOM      5  C10 UNL     1      25.513  -9.397 -34.625  0.00  0.00    +0.000 C 
ATOM      6  C11 UNL     1      26.942  -8.826 -34.405  0.00  0.00    +0.000 C 
ENDROOT
BRANCH   3   7
ATOM      7  O1  UNL     1      25.124  -6.634 -32.517  0.00  0.00    +0.000 OA
ATOM      8  H19 UNL     1      24.844  -7.310 -31.848  0.00  0.00    +0.000 HD
ENDBRANCH   3   7
BRANCH   4   9
ATOM      9  O2  UNL     1      23.168  -8.902 -34.273  0.00  0.00    +0.000 OA
ATOM     10  H21 UNL     1      22.727  -9.494 -33.609  0.00  0.00    +0.000 HD
ENDBRANCH   4   9
BRANCH   5  11
ATOM     11  O3  UNL     1      25.448 -10.769 -34.312  0.00  0.00    +0.000 OA
ATOM     12  H23 UNL     1      26.340 -11.044 -33.973  0.00  0.00    +0.000 HD
ENDBRANCH   5  11
BRANCH   1  13
ATOM     13  C6  UNL     1      28.048  -6.628 -33.999  0.00  0.00    +0.000 C 
BRANCH  13  14
ATOM     14  C5  UNL     1      28.393  -7.398 -32.722  0.00  0.00    +0.000 C 
BRANCH  14  15
ATOM     15  C4  UNL     1      29.702  -6.894 -32.111  0.00  0.00    +0.000 C 
BRANCH  15  17
ATOM     16  C1  UNL     1      30.675  -9.738 -32.744  0.00  0.00    +0.000 C 
ATOM     17 SI1  UNL     1      31.164  -7.938 -32.651  0.00  0.00    +0.000 Si
ATOM     18  C2  UNL     1      31.783  -7.374 -34.320  0.00  0.00    +0.000 C 
ATOM     19  C3  UNL     1      32.534  -7.746 -31.397  0.00  0.00    +0.000 C 
ENDBRANCH  15  17
ENDBRANCH  14  15
ENDBRANCH  13  14
ENDBRANCH   1  13
BRANCH   6  20
ATOM     20  C12 UNL     1      27.952  -9.627 -35.258  0.00  0.00    +0.000 C 
BRANCH  20  21
ATOM     21  O4  UNL     1      27.315 -10.282 -36.321  0.00  0.00    +0.000 OA
ATOM     22  H27 UNL     1      26.430 -10.579 -35.982  0.00  0.00    +0.000 HD
ENDBRANCH  20  21
ENDBRANCH   6  20
TORSDOF 9
ENDMDL
MODEL 3
REMARK VINA RESULT:    -4.060      3.889      5.771
REMARK INTER + INTRA:          -6.257
REMARK INTER:                  -5.783
REMARK INTRA:                  -0.474
REMARK UNBOUND:                -0.535
REMARK  Name = resultss/4CJN/ligands/lig_33_t0.pdb
REMARK  12 active torsions:
REMARK  status: ('A' for Active; 'I' for Inactive)
REMARK    1  A    between atoms: C1_1  and  SI1_2
REMARK    2  A    between atoms: SI1_2  and  C2_3
REMARK    3  A    between atoms: SI1_2  and  C3_4
REMARK    4  A    between atoms: SI1_2  and  C4_5
REMARK    5  A    between atoms: C4_5  and  C5_6
REMARK    6  A    between atoms: C5_6  and  C6_7
REMARK    7  A    between atoms: C6_7  and  N1_8
REMARK    8  A    between atoms: C8_10  and  O1_11
REMARK    9  A    between atoms: C9_12  and  O2_13
REMARK   10  A    between atoms: C10_14  and  O3_15
REMARK   11  A    between atoms: C11_16  and  C12_17
REMARK   12  A    between atoms: C12_17  and  O4_18
REMARK                            x       y       z     vdW  Elec       q    Type
REMARK                         _______ _______ _______ _____ _____    ______ ____
ROOT
ATOM      1  N1  UNL     1      27.922  -9.627 -40.928  0.00  0.00    +0.000 NA
ATOM      2  C7  UNL     1      28.503  -8.938 -39.750  0.00  0.00    +0.000 C 
ATOM      3  C8  UNL     1      27.907  -9.416 -38.411  0.00  0.00    +0.000 C 
ATOM      4  C9  UNL     1      26.357  -9.288 -38.376  0.00  0.00    +0.000 C 
ATOM      5  C10 UNL     1      25.746  -9.051 -39.778  0.00  0.00    +0.000 C 
ATOM      6  C11 UNL     1      26.459  -9.913 -40.859  0.00  0.00    +0.000 C 
ENDROOT
BRANCH   3   7
ATOM      7  O1  UNL     1      28.327 -10.725 -38.116  0.00  0.00    +0.000 OA
ATOM      8  H19 UNL     1      27.636 -11.150 -37.545  0.00  0.00    +0.000 HD
ENDBRANCH   3   7
BRANCH   4   9
ATOM      9  O2  UNL     1      25.958  -8.264 -37.497  0.00  0.00    +0.000 OA
ATOM     10  H21 UNL     1      26.711  -8.094 -36.873  0.00  0.00    +0.000 HD
ENDBRANCH   4   9
BRANCH   5  11
ATOM     11  O3  UNL     1      24.360  -9.301 -39.747  0.00  0.00    +0.000 OA
ATOM     12  H23 UNL     1      24.211 -10.220 -40.090  0.00  0.00    +0.000 HD
ENDBRANCH   5  11
BRANCH   1  13
ATOM     13  C6  UNL     1      28.740 -10.783 -41.368  0.00  0.00    +0.000 C 
BRANCH  13  14
ATOM     14  C5  UNL     1      30.152 -10.306 -41.715  0.00  0.00    +0.000 C 
BRANCH  14  15
ATOM     15  C4  UNL     1      30.537 -10.714 -43.139  0.00  0.00    +0.000 C 
BRANCH  15  17
ATOM     16  C1  UNL     1      32.452 -13.114 -43.021  0.00  0.00    +0.000 C 
ATOM     17 SI1  UNL     1      32.329 -11.263 -43.240  0.00  0.00    +0.000 Si
ATOM     18  C2  UNL     1      33.063 -10.781 -44.889  0.00  0.00    +0.000 C 
ATOM     19  C3  UNL     1      33.292 -10.425 -41.877  0.00  0.00    +0.000 C 
ENDBRANCH  15  17
ENDBRANCH  14  15
ENDBRANCH  13  14
ENDBRANCH   1  13
BRANCH   6  20
ATOM     20  C12 UNL     1      25.824  -9.633 -42.240  0.00  0.00    +0.000 C 
BRANCH  20  21
ATOM     21  O4  UNL     1      24.557 -10.224 -42.348  0.00  0.00    +0.000 OA
ATOM     22  H27 UNL     1      24.262 -10.432 -41.422  0.00  0.00    +0.000 HD
ENDBRANCH  20  21
ENDBRANCH   6  20
TORSDOF 9
ENDMDL
MODEL 4
REMARK VINA RESULT:    -4.009      2.178      4.018
REMARK INTER + INTRA:          -6.185
REMARK INTER:                  -5.513
REMARK INTRA:                  -0.672
REMARK UNBOUND:                -0.535
REMARK  Name = resultss/4CJN/ligands/lig_33_t0.pdb
REMARK  12 active torsions:
REMARK  status: ('A' for Active; 'I' for Inactive)
REMARK    1  A    between atoms: C1_1  and  SI1_2
REMARK    2  A    between atoms: SI1_2  and  C2_3
REMARK    3  A    between atoms: SI1_2  and  C3_4
REMARK    4  A    between atoms: SI1_2  and  C4_5
REMARK    5  A    between atoms: C4_5  and  C5_6
REMARK    6  A    between atoms: C5_6  and  C6_7
REMARK    7  A    between atoms: C6_7  and  N1_8
REMARK    8  A    between atoms: C8_10  and  O1_11
REMARK    9  A    between atoms: C9_12  and  O2_13
REMARK   10  A    between atoms: C10_14  and  O3_15
REMARK   11  A    between atoms: C11_16  and  C12_17
REMARK   12  A    between atoms: C12_17  and  O4_18
REMARK                            x       y       z     vdW  Elec       q    Type
REMARK                         _______ _______ _______ _____ _____    ______ ____
ROOT
ATOM      1  N1  UNL     1      27.635  -8.717 -37.401  0.00  0.00    +0.000 NA
ATOM      2  C7  UNL     1      26.211  -9.132 -37.383  0.00  0.00    +0.000 C 
ATOM      3  C8  UNL     1      25.515  -8.861 -36.034  0.00  0.00    +0.000 C 
ATOM      4  C9  UNL     1      26.264  -9.523 -34.841  0.00  0.00    +0.000 C 
ATOM      5  C10 UNL     1      27.690  -9.991 -35.219  0.00  0.00    +0.000 C 
ATOM      6  C11 UNL     1      28.399  -8.960 -36.143  0.00  0.00    +0.000 C 
ENDROOT
BRANCH   3   7
ATOM      7  O1  UNL     1      25.336  -7.480 -35.833  0.00  0.00    +0.000 OA
ATOM      8  H19 UNL     1      25.498  -7.285 -34.874  0.00  0.00    +0.000 HD
ENDBRANCH   3   7
BRANCH   4   9
ATOM      9  O2  UNL     1      25.524 -10.600 -34.321  0.00  0.00    +0.000 OA
ATOM     10  H21 UNL     1      26.171 -11.279 -33.994  0.00  0.00    +0.000 HD
ENDBRANCH   4   9
BRANCH   5  11
ATOM     11  O3  UNL     1      28.438 -10.242 -34.052  0.00  0.00    +0.000 OA
ATOM     12  H23 UNL     1      29.248 -10.751 -34.315  0.00  0.00    +0.000 HD
ENDBRANCH   5  11
BRANCH   1  13
ATOM     13  C6  UNL     1      27.824  -7.359 -37.965  0.00  0.00    +0.000 C 
BRANCH  13  14
ATOM     14  C5  UNL     1      27.690  -7.416 -39.489  0.00  0.00    +0.000 C 
BRANCH  14  15
ATOM     15  C4  UNL     1      28.742  -8.345 -40.099  0.00  0.00    +0.000 C 
BRANCH  15  17
ATOM     16  C1  UNL     1      27.547 -11.173 -40.220  0.00  0.00    +0.000 C 
ATOM     17 SI1  UNL     1      27.960  -9.642 -41.207  0.00  0.00    +0.000 Si
ATOM     18  C2  UNL     1      26.405  -8.970 -41.993  0.00  0.00    +0.000 C 
ATOM     19  C3  UNL     1      29.174 -10.095 -42.550  0.00  0.00    +0.000 C 
ENDBRANCH  15  17
ENDBRANCH  14  15
ENDBRANCH  13  14
ENDBRANCH   1  13
BRANCH   6  20
ATOM     20  C12 UNL     1      29.811  -9.477 -36.500  0.00  0.00    +0.000 C 
BRANCH  20  21
ATOM     21  O4  UNL     1      29.754 -10.495 -37.462  0.00  0.00    +0.000 OA
ATOM     22  H27 UNL     1      30.321 -10.199 -38.222  0.00  0.00    +0.000 HD
ENDBRANCH  20  21
ENDBRANCH   6  20
TORSDOF 9
ENDMDL
MODEL 5
REMARK VINA RESULT:    -3.992      3.369      5.907
REMARK INTER + INTRA:          -6.161
REMARK INTER:                  -5.562
REMARK INTRA:                  -0.599
REMARK UNBOUND:                -0.535
REMARK  Name = resultss/4CJN/ligands/lig_33_t0.pdb
REMARK  12 active torsions:
REMARK  status: ('A' for Active; 'I' for Inactive)
REMARK    1  A    between atoms: C1_1  and  SI1_2
REMARK    2  A    between atoms: SI1_2  and  C2_3
REMARK    3  A    between atoms: SI1_2  and  C3_4
REMARK    4  A    between atoms: SI1_2  and  C4_5
REMARK    5  A    between atoms: C4_5  and  C5_6
REMARK    6  A    between atoms: C5_6  and  C6_7
REMARK    7  A    between atoms: C6_7  and  N1_8
REMARK    8  A    between atoms: C8_10  and  O1_11
REMARK    9  A    between atoms: C9_12  and  O2_13
REMARK   10  A    between atoms: C10_14  and  O3_15
REMARK   11  A    between atoms: C11_16  and  C12_17
REMARK   12  A    between atoms: C12_17  and  O4_18
REMARK                            x       y       z     vdW  Elec       q    Type
REMARK                         _______ _______ _______ _____ _____    ______ ____
ROOT
ATOM      1  N1  UNL     1      26.627  -9.272 -39.796  0.00  0.00    +0.000 NA
ATOM      2  C7  UNL     1      26.567 -10.412 -40.744  0.00  0.00    +0.000 C 
ATOM      3  C8  UNL     1      26.162  -9.994 -42.172  0.00  0.00    +0.000 C 
ATOM      4  C9  UNL     1      24.810  -9.223 -42.200  0.00  0.00    +0.000 C 
ATOM      5  C10 UNL     1      24.365  -8.750 -40.795  0.00  0.00    +0.000 C 
ATOM      6  C11 UNL     1      25.572  -8.231 -39.963  0.00  0.00    +0.000 C 
ENDROOT
BRANCH   3   7
ATOM      7  O1  UNL     1      27.191  -9.261 -42.789  0.00  0.00    +0.000 OA
ATOM      8  H19 UNL     1      26.790  -8.718 -43.516  0.00  0.00    +0.000 HD
ENDBRANCH   3   7
BRANCH   4   9
ATOM      9  O2  UNL     1      23.800 -10.004 -42.789  0.00  0.00    +0.000 OA
ATOM     10  H21 UNL     1      24.092 -10.228 -43.711  0.00  0.00    +0.000 HD
ENDBRANCH   4   9
BRANCH   5  11
ATOM     11  O3  UNL     1      23.358  -7.772 -40.914  0.00  0.00    +0.000 OA
ATOM     12  H23 UNL     1      22.584  -8.067 -40.367  0.00  0.00    +0.000 HD
ENDBRANCH   5  11
BRANCH   1  13
ATOM     13  C6  UNL     1      27.997  -8.722 -39.657  0.00  0.00    +0.000 C 
BRANCH  13  14
ATOM     14  C5  UNL     1      28.771  -9.537 -38.617  0.00  0.00    +0.000 C 
BRANCH  14  15
ATOM     15  C4  UNL     1      27.830 -10.113 -37.558  0.00  0.00    +0.000 C 
BRANCH  15  17
ATOM     16  C1  UNL     1      26.676  -9.765 -34.731  0.00  0.00    +0.000 C 
ATOM     17 SI1  UNL     1      28.021  -9.231 -35.912  0.00  0.00    +0.000 Si
ATOM     18  C2  UNL     1      29.690  -9.608 -35.164  0.00  0.00    +0.000 C 
ATOM     19  C3  UNL     1      27.882  -7.391 -36.196  0.00  0.00    +0.000 C 
ENDBRANCH  15  17
ENDBRANCH  14  15
ENDBRANCH  13  14
ENDBRANCH   1  13
BRANCH   6  20
ATOM     20  C12 UNL     1      25.079  -7.782 -38.568  0.00  0.00    +0.000 C 
BRANCH  20  21
ATOM     21  O4  UNL     1      24.271  -8.761 -37.973  0.00  0.00    +0.000 OA
ATOM     22  H27 UNL     1      24.738  -9.629 -38.100  0.00  0.00    +0.000 HD
ENDBRANCH  20  21
ENDBRANCH   6  20
TORSDOF 9
ENDMDL
MODEL 6
REMARK VINA RESULT:    -3.972      1.562      2.238
REMARK INTER + INTRA:          -6.133
REMARK INTER:                  -5.671
REMARK INTRA:                  -0.462
REMARK UNBOUND:                -0.535
REMARK  Name = resultss/4CJN/ligands/lig_33_t0.pdb
REMARK  12 active torsions:
REMARK  status: ('A' for Active; 'I' for Inactive)
REMARK    1  A    between atoms: C1_1  and  SI1_2
REMARK    2  A    between atoms: SI1_2  and  C2_3
REMARK    3  A    between atoms: SI1_2  and  C3_4
REMARK    4  A    between atoms: SI1_2  and  C4_5
REMARK    5  A    between atoms: C4_5  and  C5_6
REMARK    6  A    between atoms: C5_6  and  C6_7
REMARK    7  A    between atoms: C6_7  and  N1_8
REMARK    8  A    between atoms: C8_10  and  O1_11
REMARK    9  A    between atoms: C9_12  and  O2_13
REMARK   10  A    between atoms: C10_14  and  O3_15
REMARK   11  A    between atoms: C11_16  and  C12_17
REMARK   12  A    between atoms: C12_17  and  O4_18
REMARK                            x       y       z     vdW  Elec       q    Type
REMARK                         _______ _______ _______ _____ _____    ______ ____
ROOT
ATOM      1  N1  UNL     1      26.689  -8.845 -36.782  0.00  0.00    +0.000 NA
ATOM      2  C7  UNL     1      26.923  -8.597 -35.339  0.00  0.00    +0.000 C 
ATOM      3  C8  UNL     1      25.787  -9.123 -34.439  0.00  0.00    +0.000 C 
ATOM      4  C9  UNL     1      24.398  -8.549 -34.847  0.00  0.00    +0.000 C 
ATOM      5  C10 UNL     1      24.417  -7.879 -36.242  0.00  0.00    +0.000 C 
ATOM      6  C11 UNL     1      25.281  -8.691 -37.249  0.00  0.00    +0.000 C 
ENDROOT
BRANCH   3   7
ATOM      7  O1  UNL     1      25.780 -10.529 -34.413  0.00  0.00    +0.000 OA
ATOM      8  H19 UNL     1      26.617 -10.849 -34.837  0.00  0.00    +0.000 HD
ENDBRANCH   3   7
BRANCH   4   9
ATOM      9  O2  UNL     1      23.928  -7.641 -33.881  0.00  0.00    +0.000 OA
ATOM     10  H21 UNL     1      23.990  -8.085 -32.996  0.00  0.00    +0.000 HD
ENDBRANCH   4   9
BRANCH   5  11
ATOM     11  O3  UNL     1      23.099  -7.707 -36.709  0.00  0.00    +0.000 OA
ATOM     12  H23 UNL     1      22.756  -6.852 -36.337  0.00  0.00    +0.000 HD
ENDBRANCH   5  11
BRANCH   1  13
ATOM     13  C6  UNL     1      27.347 -10.085 -37.258  0.00  0.00    +0.000 C 
BRANCH  13  14
ATOM     14  C5  UNL     1      28.294  -9.749 -38.414  0.00  0.00    +0.000 C 
BRANCH  14  15
ATOM     15  C4  UNL     1      27.848 -10.434 -39.707  0.00  0.00    +0.000 C 
BRANCH  15  17
ATOM     16  C1  UNL     1      29.626  -8.154 -40.749  0.00  0.00    +0.000 C 
ATOM     17 SI1  UNL     1      28.745  -9.737 -41.202  0.00  0.00    +0.000 Si
ATOM     18  C2  UNL     1      29.983 -10.976 -41.851  0.00  0.00    +0.000 C 
ATOM     19  C3  UNL     1      27.492  -9.373 -42.537  0.00  0.00    +0.000 C 
ENDBRANCH  15  17
ENDBRANCH  14  15
ENDBRANCH  13  14
ENDBRANCH   1  13
BRANCH   6  20
ATOM     20  C12 UNL     1      25.277  -7.977 -38.620  0.00  0.00    +0.000 C 
BRANCH  20  21
ATOM     21  O4  UNL     1      24.316  -8.527 -39.479  0.00  0.00    +0.000 OA
ATOM     22  H27 UNL     1      24.795  -8.793 -40.307  0.00  0.00    +0.000 HD
ENDBRANCH  20  21
ENDBRANCH   6  20
TORSDOF 9
ENDMDL
MODEL 7
REMARK VINA RESULT:    -3.972      3.538      6.802
REMARK INTER + INTRA:          -6.132
REMARK INTER:                  -5.562
REMARK INTRA:                  -0.571
REMARK UNBOUND:                -0.535
REMARK  Name = resultss/4CJN/ligands/lig_33_t0.pdb
REMARK  12 active torsions:
REMARK  status: ('A' for Active; 'I' for Inactive)
REMARK    1  A    between atoms: C1_1  and  SI1_2
REMARK    2  A    between atoms: SI1_2  and  C2_3
REMARK    3  A    between atoms: SI1_2  and  C3_4
REMARK    4  A    between atoms: SI1_2  and  C4_5
REMARK    5  A    between atoms: C4_5  and  C5_6
REMARK    6  A    between atoms: C5_6  and  C6_7
REMARK    7  A    between atoms: C6_7  and  N1_8
REMARK    8  A    between atoms: C8_10  and  O1_11
REMARK    9  A    between atoms: C9_12  and  O2_13
REMARK   10  A    between atoms: C10_14  and  O3_15
REMARK   11  A    between atoms: C11_16  and  C12_17
REMARK   12  A    between atoms: C12_17  and  O4_18
REMARK                            x       y       z     vdW  Elec       q    Type
REMARK                         _______ _______ _______ _____ _____    ______ ____
ROOT
ATOM      1  N1  UNL     1      25.996  -8.443 -38.863  0.00  0.00    +0.000 NA
ATOM      2  C7  UNL     1      25.588  -7.710 -40.085  0.00  0.00    +0.000 C 
ATOM      3  C8  UNL     1      25.087  -8.637 -41.212  0.00  0.00    +0.000 C 
ATOM      4  C9  UNL     1      26.132  -9.729 -41.585  0.00  0.00    +0.000 C 
ATOM      5  C10 UNL     1      27.259  -9.859 -40.533  0.00  0.00    +0.000 C 
ATOM      6  C11 UNL     1      26.701  -9.740 -39.086  0.00  0.00    +0.000 C 
ENDROOT
BRANCH   3   7
ATOM      7  O1  UNL     1      23.842  -9.201 -40.878  0.00  0.00    +0.000 OA
ATOM      8  H19 UNL     1      23.167  -8.861 -41.520  0.00  0.00    +0.000 HD
ENDBRANCH   3   7
BRANCH   4   9
ATOM      9  O2  UNL     1      26.683  -9.481 -42.855  0.00  0.00    +0.000 OA
ATOM     10  H21 UNL     1      27.631  -9.773 -42.833  0.00  0.00    +0.000 HD
ENDBRANCH   4   9
BRANCH   5  11
ATOM     11  O3  UNL     1      27.954 -11.069 -40.722  0.00  0.00    +0.000 OA
ATOM     12  H23 UNL     1      27.561 -11.524 -41.512  0.00  0.00    +0.000 HD
ENDBRANCH   5  11
BRANCH   1  13
ATOM     13  C6  UNL     1      24.911  -8.516 -37.855  0.00  0.00    +0.000 C 
BRANCH  13  14
ATOM     14  C5  UNL     1      25.181  -7.502 -36.741  0.00  0.00    +0.000 C 
BRANCH  14  15
ATOM     15  C4  UNL     1      24.198  -7.682 -35.582  0.00  0.00    +0.000 C 
BRANCH  15  17
ATOM     16  C1  UNL     1      26.136  -9.824 -34.534  0.00  0.00    +0.000 C 
ATOM     17 SI1  UNL     1      25.043  -8.385 -34.061  0.00  0.00    +0.000 Si
ATOM     18  C2  UNL     1      26.072  -7.070 -33.225  0.00  0.00    +0.000 C 
ATOM     19  C3  UNL     1      23.735  -8.983 -32.870  0.00  0.00    +0.000 C 
ENDBRANCH  15  17
ENDBRANCH  14  15
ENDBRANCH  13  14
ENDBRANCH   1  13
BRANCH   6  20
ATOM     20  C12 UNL     1      27.863  -9.864 -38.075  0.00  0.00    +0.000 C 
BRANCH  20  21
ATOM     21  O4  UNL     1      28.090 -11.202 -37.721  0.00  0.00    +0.000 OA
ATOM     22  H27 UNL     1      28.912 -11.486 -38.202  0.00  0.00    +0.000 HD
ENDBRANCH  20  21
ENDBRANCH   6  20
TORSDOF 9
ENDMDL
MODEL 8
REMARK VINA RESULT:    -3.915      4.604      6.135
REMARK INTER + INTRA:          -6.053
REMARK INTER:                  -5.367
REMARK INTRA:                  -0.686
REMARK UNBOUND:                -0.535
REMARK  Name = resultss/4CJN/ligands/lig_33_t0.pdb
REMARK  12 active torsions:
REMARK  status: ('A' for Active; 'I' for Inactive)
REMARK    1  A    between atoms: C1_1  and  SI1_2
REMARK    2  A    between atoms: SI1_2  and  C2_3
REMARK    3  A    between atoms: SI1_2  and  C3_4
REMARK    4  A    between atoms: SI1_2  and  C4_5
REMARK    5  A    between atoms: C4_5  and  C5_6
REMARK    6  A    between atoms: C5_6  and  C6_7
REMARK    7  A    between atoms: C6_7  and  N1_8
REMARK    8  A    between atoms: C8_10  and  O1_11
REMARK    9  A    between atoms: C9_12  and  O2_13
REMARK   10  A    between atoms: C10_14  and  O3_15
REMARK   11  A    between atoms: C11_16  and  C12_17
REMARK   12  A    between atoms: C12_17  and  O4_18
REMARK                            x       y       z     vdW  Elec       q    Type
REMARK                         _______ _______ _______ _____ _____    ______ ____
ROOT
ATOM      1  N1  UNL     1      28.835  -8.358 -33.867  0.00  0.00    +0.000 NA
ATOM      2  C7  UNL     1      28.713  -9.734 -34.406  0.00  0.00    +0.000 C 
ATOM      3  C8  UNL     1      27.475  -9.927 -35.306  0.00  0.00    +0.000 C 
ATOM      4  C9  UNL     1      26.154  -9.533 -34.583  0.00  0.00    +0.000 C 
ATOM      5  C10 UNL     1      26.402  -8.723 -33.288  0.00  0.00    +0.000 C 
ATOM      6  C11 UNL     1      27.556  -7.697 -33.473  0.00  0.00    +0.000 C 
ENDROOT
BRANCH   3   7
ATOM      7  O1  UNL     1      27.628  -9.237 -36.522  0.00  0.00    +0.000 OA
ATOM      8  H19 UNL     1      27.036  -8.442 -36.502  0.00  0.00    +0.000 HD
ENDBRANCH   3   7
BRANCH   4   9
ATOM      9  O2  UNL     1      25.379 -10.672 -34.300  0.00  0.00    +0.000 OA
ATOM     10  H21 UNL     1      25.871 -11.211 -33.627  0.00  0.00    +0.000 HD
ENDBRANCH   4   9
BRANCH   5  11
ATOM     11  O3  UNL     1      25.210  -8.095 -32.879  0.00  0.00    +0.000 OA
ATOM     12  H23 UNL     1      25.221  -8.040 -31.888  0.00  0.00    +0.000 HD
ENDBRANCH   5  11
BRANCH   1  13
ATOM     13  C6  UNL     1      29.723  -7.503 -34.691  0.00  0.00    +0.000 C 
BRANCH  13  14
ATOM     14  C5  UNL     1      31.180  -7.738 -34.283  0.00  0.00    +0.000 C 
BRANCH  14  15
ATOM     15  C4  UNL     1      31.325  -7.778 -32.761  0.00  0.00    +0.000 C 
BRANCH  15  17
ATOM     16  C1  UNL     1      33.283  -8.630 -30.551  0.00  0.00    +0.000 C 
ATOM     17 SI1  UNL     1      32.572  -9.073 -32.220  0.00  0.00    +0.000 Si
ATOM     18  C2  UNL     1      31.762 -10.753 -32.125  0.00  0.00    +0.000 C 
ATOM     19  C3  UNL     1      33.955  -9.134 -33.472  0.00  0.00    +0.000 C 
ENDBRANCH  15  17
ENDBRANCH  14  15
ENDBRANCH  13  14
ENDBRANCH   1  13
BRANCH   6  20
ATOM     20  C12 UNL     1      27.772  -6.924 -32.152  0.00  0.00    +0.000 C 
BRANCH  20  21
ATOM     21  O4  UNL     1      27.627  -7.764 -31.039  0.00  0.00    +0.000 OA
ATOM     22  H27 UNL     1      27.035  -7.287 -30.400  0.00  0.00    +0.000 HD
ENDBRANCH  20  21
ENDBRANCH   6  20
TORSDOF 9
ENDMDL
MODEL 9
REMARK VINA RESULT:    -3.891      2.565      3.711
REMARK INTER + INTRA:          -6.019
REMARK INTER:                  -5.441
REMARK INTRA:                  -0.577
REMARK UNBOUND:                -0.535
REMARK  Name = resultss/4CJN/ligands/lig_33_t0.pdb
REMARK  12 active torsions:
REMARK  status: ('A' for Active; 'I' for Inactive)
REMARK    1  A    between atoms: C1_1  and  SI1_2
REMARK    2  A    between atoms: SI1_2  and  C2_3
REMARK    3  A    between atoms: SI1_2  and  C3_4
REMARK    4  A    between atoms: SI1_2  and  C4_5
REMARK    5  A    between atoms: C4_5  and  C5_6
REMARK    6  A    between atoms: C5_6  and  C6_7
REMARK    7  A    between atoms: C6_7  and  N1_8
REMARK    8  A    between atoms: C8_10  and  O1_11
REMARK    9  A    between atoms: C9_12  and  O2_13
REMARK   10  A    between atoms: C10_14  and  O3_15
REMARK   11  A    between atoms: C11_16  and  C12_17
REMARK   12  A    between atoms: C12_17  and  O4_18
REMARK                            x       y       z     vdW  Elec       q    Type
REMARK                         _______ _______ _______ _____ _____    ______ ____
ROOT
ATOM      1  N1  UNL     1      28.337  -8.547 -34.836  0.00  0.00    +0.000 NA
ATOM      2  C7  UNL     1      28.872  -7.231 -34.410  0.00  0.00    +0.000 C 
ATOM      3  C8  UNL     1      28.865  -7.037 -32.880  0.00  0.00    +0.000 C 
ATOM      4  C9  UNL     1      27.451  -7.247 -32.266  0.00  0.00    +0.000 C 
ATOM      5  C10 UNL     1      26.469  -7.930 -33.248  0.00  0.00    +0.000 C 
ATOM      6  C11 UNL     1      27.171  -9.058 -34.057  0.00  0.00    +0.000 C 
ENDROOT
BRANCH   3   7
ATOM      7  O1  UNL     1      29.825  -7.864 -32.268  0.00  0.00    +0.000 OA
ATOM      8  H19 UNL     1      29.462  -8.164 -31.395  0.00  0.00    +0.000 HD
ENDBRANCH   3   7
BRANCH   4   9
ATOM      9  O2  UNL     1      26.914  -6.026 -31.818  0.00  0.00    +0.000 OA
ATOM     10  H21 UNL     1      26.343  -5.664 -32.545  0.00  0.00    +0.000 HD
ENDBRANCH   4   9
BRANCH   5  11
ATOM     11  O3  UNL     1      25.348  -8.415 -32.547  0.00  0.00    +0.000 OA
ATOM     12  H23 UNL     1      25.230  -7.850 -31.739  0.00  0.00    +0.000 HD
ENDBRANCH   5  11
BRANCH   1  13
ATOM     13  C6  UNL     1      29.406  -9.553 -35.046  0.00  0.00    +0.000 C 
BRANCH  13  14
ATOM     14  C5  UNL     1      29.811  -9.564 -36.522  0.00  0.00    +0.000 C 
BRANCH  14  15
ATOM     15  C4  UNL     1      28.836 -10.398 -37.355  0.00  0.00    +0.000 C 
BRANCH  15  17
ATOM     16  C1  UNL     1      30.306  -9.461 -39.886  0.00  0.00    +0.000 C 
ATOM     17 SI1  UNL     1      28.635  -9.702 -39.087  0.00  0.00    +0.000 Si
ATOM     18  C2  UNL     1      27.605 -10.856 -40.134  0.00  0.00    +0.000 C 
ATOM     19  C3  UNL     1      27.773  -8.050 -38.973  0.00  0.00    +0.000 C 
ENDBRANCH  15  17
ENDBRANCH  14  15
ENDBRANCH  13  14
ENDBRANCH   1  13
BRANCH   6  20
ATOM     20  C12 UNL     1      26.155  -9.700 -35.030  0.00  0.00    +0.000 C 
BRANCH  20  21
ATOM     21  O4  UNL     1      25.386 -10.681 -34.390  0.00  0.00    +0.000 OA
ATOM     22  H27 UNL     1      25.900 -10.967 -33.589  0.00  0.00    +0.000 HD
ENDBRANCH  20  21
ENDBRANCH   6  20
TORSDOF 9
ENDMDL
