MODEL 1
REMARK VINA RESULT:    -6.539      0.000      0.000
REMARK INTER + INTRA:         -10.477
REMARK INTER:                  -9.023
REMARK INTRA:                  -1.454
REMARK UNBOUND:                -1.454
REMARK  Name = resultss/4CJN/ligands/lig_422_t1.pdb
REMARK  7 active torsions:
REMARK  status: ('A' for Active; 'I' for Inactive)
REMARK    1  A    between atoms: C1_2  and  C10_19
REMARK    2  A    between atoms: N1_3  and  N2_4
REMARK    3  A    between atoms: C2_5  and  S1_6
REMARK    4  A    between atoms: N3_7  and  C3_8
REMARK    5  A    between atoms: C8_13  and  O2_14
REMARK    6  A    between atoms: O2_14  and  C9_15
REMARK    7  A    between atoms: C20_30  and  C21_31
REMARK                            x       y       z     vdW  Elec       q    Type
REMARK                         _______ _______ _______ _____ _____    ______ ____
ROOT
ATOM      1  O1  UNL     1      26.295  -9.451 -39.116  0.00  0.00    +0.000 OA
ATOM      2  C1  UNL     1      27.328  -8.886 -38.663  0.00  0.00    +0.000 C 
ATOM      3  N1  UNL     1      28.281  -8.313 -39.572  0.00  0.00    +0.000 N 
ATOM      4  H1  UNL     1      29.254  -8.139 -39.237  0.00  0.00    +0.000 HD
ENDROOT
BRANCH   2   5
ATOM      5  C10 UNL     1      27.556  -8.826 -37.204  0.00  0.00    +0.000 A 
ATOM      6  C11 UNL     1      28.841  -9.052 -36.664  0.00  0.00    +0.000 A 
ATOM      7  C12 UNL     1      28.967  -8.997 -35.280  0.00  0.00    +0.000 A 
ATOM      8  C13 UNL     1      27.895  -8.728 -34.457  0.00  0.00    +0.000 A 
ATOM      9  N4  UNL     1      28.250  -8.793 -33.151  0.00  0.00    +0.000 N 
ATOM     10  C14 UNL     1      29.568  -9.087 -33.165  0.00  0.00    +0.000 A 
ATOM     11  C15 UNL     1      30.400  -9.273 -32.062  0.00  0.00    +0.000 A 
ATOM     12  C16 UNL     1      31.749  -9.596 -32.302  0.00  0.00    +0.000 A 
ATOM     13  C17 UNL     1      32.232  -9.731 -33.624  0.00  0.00    +0.000 A 
ATOM     14  C18 UNL     1      31.372  -9.545 -34.721  0.00  0.00    +0.000 A 
ATOM     15  C19 UNL     1      30.043  -9.219 -34.453  0.00  0.00    +0.000 A 
ATOM     16  C20 UNL     1      26.628  -8.492 -35.005  0.00  0.00    +0.000 A 
ATOM     17  N5  UNL     1      26.503  -8.560 -36.366  0.00  0.00    +0.000 NA
ATOM     18  H9  UNL     1      27.644  -8.680 -32.309  0.00  0.00    +0.000 HD
BRANCH  16  19
ATOM     19  C21 UNL     1      25.440  -8.183 -34.183  0.00  0.00    +0.000 A 
ATOM     20  C22 UNL     1      24.683  -9.229 -33.629  0.00  0.00    +0.000 A 
ATOM     21  C23 UNL     1      23.543  -8.951 -32.869  0.00  0.00    +0.000 A 
ATOM     22  C24 UNL     1      23.141  -7.628 -32.668  0.00  0.00    +0.000 A 
ATOM     23  C25 UNL     1      23.875  -6.581 -33.233  0.00  0.00    +0.000 A 
ATOM     24  C26 UNL     1      25.015  -6.855 -33.994  0.00  0.00    +0.000 A 
ENDBRANCH  16  19
ENDBRANCH   2   5
BRANCH   3  25
ATOM     25  N2  UNL     1      28.054  -8.294 -40.959  0.00  0.00    +0.000 NA
ATOM     26  C2  UNL     1      28.399  -9.260 -41.760  0.00  0.00    +0.000 C 
ATOM     27  N3  UNL     1      28.187  -9.139 -43.175  0.00  0.00    +0.000 N 
ATOM     28  H3  UNL     1      28.693  -9.810 -43.795  0.00  0.00    +0.000 HD
BRANCH  27  29
ATOM     29  C3  UNL     1      27.409  -8.095 -43.789  0.00  0.00    +0.000 A 
ATOM     30  C4  UNL     1      28.027  -6.918 -44.249  0.00  0.00    +0.000 A 
ATOM     31  C5  UNL     1      27.265  -5.897 -44.820  0.00  0.00    +0.000 A 
ATOM     32  C6  UNL     1      25.881  -6.033 -44.924  0.00  0.00    +0.000 A 
ATOM     33  C7  UNL     1      25.252  -7.187 -44.454  0.00  0.00    +0.000 A 
ATOM     34  C8  UNL     1      26.009  -8.228 -43.877  0.00  0.00    +0.000 A 
BRANCH  34  35
ATOM     35  O2  UNL     1      25.414  -9.406 -43.393  0.00  0.00    +0.000 OA
BRANCH  35  36
ATOM     36  C9  UNL     1      24.606  -9.506 -42.222  0.00  0.00    +0.000 C 
ATOM     37  F1  UNL     1      23.269  -9.571 -42.571  0.00  0.00    +0.000 F 
ATOM     38  F2  UNL     1      24.808  -8.384 -41.442  0.00  0.00    +0.000 F 
ATOM     39  F3  UNL     1      24.960 -10.626 -41.493  0.00  0.00    +0.000 F 
ENDBRANCH  35  36
ENDBRANCH  34  35
ENDBRANCH  27  29
BRANCH  26  40
ATOM     40  S1  UNL     1      29.137 -10.776 -41.133  0.00  0.00    +0.000 S 
ATOM     41  H2  UNL     1      28.883 -11.458 -42.338  0.00  0.00    +0.000 HD
ENDBRANCH  26  40
ENDBRANCH   3  25
TORSDOF 7
ENDMDL
MODEL 2
REMARK VINA RESULT:    -6.334      5.118     10.799
REMARK INTER + INTRA:         -10.195
REMARK INTER:                  -9.208
REMARK INTRA:                  -0.987
REMARK UNBOUND:                -1.454
REMARK  Name = resultss/4CJN/ligands/lig_422_t1.pdb
REMARK  7 active torsions:
REMARK  status: ('A' for Active; 'I' for Inactive)
REMARK    1  A    between atoms: C1_2  and  C10_19
REMARK    2  A    between atoms: N1_3  and  N2_4
REMARK    3  A    between atoms: C2_5  and  S1_6
REMARK    4  A    between atoms: N3_7  and  C3_8
REMARK    5  A    between atoms: C8_13  and  O2_14
REMARK    6  A    between atoms: O2_14  and  C9_15
REMARK    7  A    between atoms: C20_30  and  C21_31
REMARK                            x       y       z     vdW  Elec       q    Type
REMARK                         _______ _______ _______ _____ _____    ______ ____
ROOT
ATOM      1  O1  UNL     1      31.655 -10.089 -37.632  0.00  0.00    +0.000 OA
ATOM      2  C1  UNL     1      30.464  -9.706 -37.795  0.00  0.00    +0.000 C 
ATOM      3  N1  UNL     1      29.684  -9.308 -36.656  0.00  0.00    +0.000 N 
ATOM      4  H1  UNL     1      28.644  -9.302 -36.738  0.00  0.00    +0.000 HD
ENDROOT
BRANCH   2   5
ATOM      5  C10 UNL     1      29.877  -9.678 -39.151  0.00  0.00    +0.000 A 
ATOM      6  C11 UNL     1      28.627  -9.067 -39.385  0.00  0.00    +0.000 A 
ATOM      7  C12 UNL     1      28.136  -9.101 -40.685  0.00  0.00    +0.000 A 
ATOM      8  C13 UNL     1      28.831  -9.697 -41.715  0.00  0.00    +0.000 A 
ATOM      9  N4  UNL     1      28.124  -9.661 -42.870  0.00  0.00    +0.000 N 
ATOM     10  C14 UNL     1      26.980  -9.015 -42.556  0.00  0.00    +0.000 A 
ATOM     11  C15 UNL     1      25.912  -8.734 -43.406  0.00  0.00    +0.000 A 
ATOM     12  C16 UNL     1      24.798  -8.063 -42.866  0.00  0.00    +0.000 A 
ATOM     13  C17 UNL     1      24.773  -7.697 -41.501  0.00  0.00    +0.000 A 
ATOM     14  C18 UNL     1      25.861  -7.996 -40.660  0.00  0.00    +0.000 A 
ATOM     15  C19 UNL     1      26.952  -8.655 -41.225  0.00  0.00    +0.000 A 
ATOM     16  C20 UNL     1      30.077 -10.288 -41.474  0.00  0.00    +0.000 A 
ATOM     17  N5  UNL     1      30.552 -10.266 -40.191  0.00  0.00    +0.000 NA
ATOM     18  H9  UNL     1      28.376 -10.071 -43.797  0.00  0.00    +0.000 HD
BRANCH  16  19
ATOM     19  C21 UNL     1      30.882 -10.930 -42.533  0.00  0.00    +0.000 A 
ATOM     20  C22 UNL     1      30.928 -12.332 -42.623  0.00  0.00    +0.000 A 
ATOM     21  C23 UNL     1      31.705 -12.952 -43.606  0.00  0.00    +0.000 A 
ATOM     22  C24 UNL     1      32.453 -12.180 -44.498  0.00  0.00    +0.000 A 
ATOM     23  C25 UNL     1      32.431 -10.786 -44.404  0.00  0.00    +0.000 A 
ATOM     24  C26 UNL     1      31.656 -10.162 -43.422  0.00  0.00    +0.000 A 
ENDBRANCH  16  19
ENDBRANCH   2   5
BRANCH   3  25
ATOM     25  N2  UNL     1      30.239  -9.259 -35.366  0.00  0.00    +0.000 NA
ATOM     26  C2  UNL     1      29.564  -9.500 -34.280  0.00  0.00    +0.000 C 
ATOM     27  N3  UNL     1      30.189  -9.368 -32.994  0.00  0.00    +0.000 N 
ATOM     28  H3  UNL     1      29.564  -9.327 -32.158  0.00  0.00    +0.000 HD
BRANCH  27  29
ATOM     29  C3  UNL     1      31.604  -9.189 -32.798  0.00  0.00    +0.000 A 
ATOM     30  C4  UNL     1      32.186  -7.914 -32.909  0.00  0.00    +0.000 A 
ATOM     31  C5  UNL     1      33.563  -7.749 -32.745  0.00  0.00    +0.000 A 
ATOM     32  C6  UNL     1      34.372  -8.853 -32.482  0.00  0.00    +0.000 A 
ATOM     33  C7  UNL     1      33.811 -10.128 -32.388  0.00  0.00    +0.000 A 
ATOM     34  C8  UNL     1      32.422 -10.310 -32.550  0.00  0.00    +0.000 A 
BRANCH  34  35
ATOM     35  O2  UNL     1      31.817 -11.576 -32.461  0.00  0.00    +0.000 OA
BRANCH  35  36
ATOM     36  C9  UNL     1      32.196 -12.614 -31.560  0.00  0.00    +0.000 C 
ATOM     37  F1  UNL     1      32.046 -12.188 -30.252  0.00  0.00    +0.000 F 
ATOM     38  F2  UNL     1      33.523 -12.933 -31.775  0.00  0.00    +0.000 F 
ATOM     39  F3  UNL     1      31.426 -13.741 -31.780  0.00  0.00    +0.000 F 
ENDBRANCH  35  36
ENDBRANCH  34  35
ENDBRANCH  27  29
BRANCH  26  40
ATOM     40  S1  UNL     1      27.841 -10.014 -34.345  0.00  0.00    +0.000 S 
ATOM     41  H2  UNL     1      27.966 -10.757 -33.156  0.00  0.00    +0.000 HD
ENDBRANCH  26  40
ENDBRANCH   3  25
TORSDOF 7
ENDMDL
MODEL 3
REMARK VINA RESULT:    -6.228      3.318     10.313
REMARK INTER + INTRA:         -10.049
REMARK INTER:                  -9.459
REMARK INTRA:                  -0.589
REMARK UNBOUND:                -1.454
REMARK  Name = resultss/4CJN/ligands/lig_422_t1.pdb
REMARK  7 active torsions:
REMARK  status: ('A' for Active; 'I' for Inactive)
REMARK    1  A    between atoms: C1_2  and  C10_19
REMARK    2  A    between atoms: N1_3  and  N2_4
REMARK    3  A    between atoms: C2_5  and  S1_6
REMARK    4  A    between atoms: N3_7  and  C3_8
REMARK    5  A    between atoms: C8_13  and  O2_14
REMARK    6  A    between atoms: O2_14  and  C9_15
REMARK    7  A    between atoms: C20_30  and  C21_31
REMARK                            x       y       z     vdW  Elec       q    Type
REMARK                         _______ _______ _______ _____ _____    ______ ____
ROOT
ATOM      1  O1  UNL     1      24.980  -8.479 -39.499  0.00  0.00    +0.000 OA
ATOM      2  C1  UNL     1      25.630  -8.376 -40.575  0.00  0.00    +0.000 C 
ATOM      3  N1  UNL     1      27.026  -8.714 -40.597  0.00  0.00    +0.000 N 
ATOM      4  H1  UNL     1      27.622  -8.338 -41.367  0.00  0.00    +0.000 HD
ENDROOT
BRANCH   2   5
ATOM      5  C10 UNL     1      24.956  -7.899 -41.801  0.00  0.00    +0.000 A 
ATOM      6  C11 UNL     1      23.569  -7.637 -41.807  0.00  0.00    +0.000 A 
ATOM      7  C12 UNL     1      23.009  -7.210 -43.006  0.00  0.00    +0.000 A 
ATOM      8  C13 UNL     1      23.762  -7.039 -44.147  0.00  0.00    +0.000 A 
ATOM      9  N4  UNL     1      22.987  -6.682 -45.199  0.00  0.00    +0.000 N 
ATOM     10  C14 UNL     1      21.735  -6.611 -44.698  0.00  0.00    +0.000 A 
ATOM     11  C15 UNL     1      20.568  -6.292 -45.390  0.00  0.00    +0.000 A 
ATOM     12  C16 UNL     1      19.356  -6.295 -44.676  0.00  0.00    +0.000 A 
ATOM     13  C17 UNL     1      19.334  -6.621 -43.300  0.00  0.00    +0.000 A 
ATOM     14  C18 UNL     1      20.523  -6.946 -42.623  0.00  0.00    +0.000 A 
ATOM     15  C19 UNL     1      21.709  -6.927 -43.356  0.00  0.00    +0.000 A 
ATOM     16  C20 UNL     1      25.140  -7.289 -44.125  0.00  0.00    +0.000 A 
ATOM     17  N5  UNL     1      25.687  -7.722 -42.948  0.00  0.00    +0.000 NA
ATOM     18  H9  UNL     1      23.273  -6.529 -46.192  0.00  0.00    +0.000 HD
BRANCH  16  19
ATOM     19  C21 UNL     1      26.010  -7.112 -45.306  0.00  0.00    +0.000 A 
ATOM     20  C22 UNL     1      25.436  -6.951 -46.578  0.00  0.00    +0.000 A 
ATOM     21  C23 UNL     1      26.248  -6.805 -47.707  0.00  0.00    +0.000 A 
ATOM     22  C24 UNL     1      27.639  -6.834 -47.577  0.00  0.00    +0.000 A 
ATOM     23  C25 UNL     1      28.220  -7.015 -46.319  0.00  0.00    +0.000 A 
ATOM     24  C26 UNL     1      27.411  -7.161 -45.188  0.00  0.00    +0.000 A 
ENDBRANCH  16  19
ENDBRANCH   2   5
BRANCH   3  25
ATOM     25  N2  UNL     1      27.673  -9.236 -39.464  0.00  0.00    +0.000 NA
ATOM     26  C2  UNL     1      27.792 -10.509 -39.223  0.00  0.00    +0.000 C 
ATOM     27  N3  UNL     1      28.414 -10.963 -38.011  0.00  0.00    +0.000 N 
ATOM     28  H3  UNL     1      28.270 -11.962 -37.742  0.00  0.00    +0.000 HD
BRANCH  27  29
ATOM     29  C3  UNL     1      29.130 -10.108 -37.101  0.00  0.00    +0.000 A 
ATOM     30  C4  UNL     1      30.447  -9.703 -37.384  0.00  0.00    +0.000 A 
ATOM     31  C5  UNL     1      31.146  -8.895 -36.486  0.00  0.00    +0.000 A 
ATOM     32  C6  UNL     1      30.547  -8.494 -35.293  0.00  0.00    +0.000 A 
ATOM     33  C7  UNL     1      29.247  -8.904 -34.990  0.00  0.00    +0.000 A 
ATOM     34  C8  UNL     1      28.527  -9.718 -35.888  0.00  0.00    +0.000 A 
BRANCH  34  35
ATOM     35  O2  UNL     1      27.216 -10.151 -35.620  0.00  0.00    +0.000 OA
BRANCH  35  36
ATOM     36  C9  UNL     1      26.075  -9.305 -35.486  0.00  0.00    +0.000 C 
ATOM     37  F1  UNL     1      26.473  -8.010 -35.206  0.00  0.00    +0.000 F 
ATOM     38  F2  UNL     1      25.296  -9.767 -34.443  0.00  0.00    +0.000 F 
ATOM     39  F3  UNL     1      25.325  -9.329 -36.647  0.00  0.00    +0.000 F 
ENDBRANCH  35  36
ENDBRANCH  34  35
ENDBRANCH  27  29
BRANCH  26  40
ATOM     40  S1  UNL     1      27.200 -11.741 -40.393  0.00  0.00    +0.000 S 
ATOM     41  H2  UNL     1      28.115 -12.701 -39.922  0.00  0.00    +0.000 HD
ENDBRANCH  26  40
ENDBRANCH   3  25
TORSDOF 7
ENDMDL
MODEL 4
REMARK VINA RESULT:    -6.215      4.641     10.416
REMARK INTER + INTRA:         -10.030
REMARK INTER:                  -8.777
REMARK INTRA:                  -1.253
REMARK UNBOUND:                -1.454
REMARK  Name = resultss/4CJN/ligands/lig_422_t1.pdb
REMARK  7 active torsions:
REMARK  status: ('A' for Active; 'I' for Inactive)
REMARK    1  A    between atoms: C1_2  and  C10_19
REMARK    2  A    between atoms: N1_3  and  N2_4
REMARK    3  A    between atoms: C2_5  and  S1_6
REMARK    4  A    between atoms: N3_7  and  C3_8
REMARK    5  A    between atoms: C8_13  and  O2_14
REMARK    6  A    between atoms: O2_14  and  C9_15
REMARK    7  A    between atoms: C20_30  and  C21_31
REMARK                            x       y       z     vdW  Elec       q    Type
REMARK                         _______ _______ _______ _____ _____    ______ ____
ROOT
ATOM      1  O1  UNL     1      29.517  -9.075 -36.282  0.00  0.00    +0.000 OA
ATOM      2  C1  UNL     1      30.279  -9.392 -37.236  0.00  0.00    +0.000 C 
ATOM      3  N1  UNL     1      31.676  -9.617 -36.987  0.00  0.00    +0.000 N 
ATOM      4  H1  UNL     1      32.344  -9.561 -37.787  0.00  0.00    +0.000 HD
ENDROOT
BRANCH   2   5
ATOM      5  C10 UNL     1      29.733  -9.519 -38.604  0.00  0.00    +0.000 A 
ATOM      6  C11 UNL     1      28.409  -9.123 -38.893  0.00  0.00    +0.000 A 
ATOM      7  C12 UNL     1      27.966  -9.293 -40.200  0.00  0.00    +0.000 A 
ATOM      8  C13 UNL     1      28.774  -9.820 -41.185  0.00  0.00    +0.000 A 
ATOM      9  N4  UNL     1      28.102  -9.949 -42.354  0.00  0.00    +0.000 N 
ATOM     10  C14 UNL     1      26.863  -9.476 -42.096  0.00  0.00    +0.000 A 
ATOM     11  C15 UNL     1      25.789  -9.405 -42.981  0.00  0.00    +0.000 A 
ATOM     12  C16 UNL     1      24.570  -8.893 -42.498  0.00  0.00    +0.000 A 
ATOM     13  C17 UNL     1      24.451  -8.473 -41.153  0.00  0.00    +0.000 A 
ATOM     14  C18 UNL     1      25.547  -8.559 -40.277  0.00  0.00    +0.000 A 
ATOM     15  C19 UNL     1      26.743  -9.064 -40.786  0.00  0.00    +0.000 A 
ATOM     16  C20 UNL     1      30.090 -10.197 -40.889  0.00  0.00    +0.000 A 
ATOM     17  N5  UNL     1      30.519 -10.042 -39.600  0.00  0.00    +0.000 NA
ATOM     18  H9  UNL     1      28.441 -10.356 -43.254  0.00  0.00    +0.000 HD
BRANCH  16  19
ATOM     19  C21 UNL     1      31.014 -10.754 -41.898  0.00  0.00    +0.000 A 
ATOM     20  C22 UNL     1      30.640 -11.889 -42.637  0.00  0.00    +0.000 A 
ATOM     21  C23 UNL     1      31.515 -12.439 -43.579  0.00  0.00    +0.000 A 
ATOM     22  C24 UNL     1      32.775 -11.870 -43.780  0.00  0.00    +0.000 A 
ATOM     23  C25 UNL     1      33.165 -10.754 -43.034  0.00  0.00    +0.000 A 
ATOM     24  C26 UNL     1      32.293 -10.201 -42.092  0.00  0.00    +0.000 A 
ENDBRANCH  16  19
ENDBRANCH   2   5
BRANCH   3  25
ATOM     25  N2  UNL     1      32.206  -9.571 -35.686  0.00  0.00    +0.000 NA
ATOM     26  C2  UNL     1      32.758  -8.512 -35.169  0.00  0.00    +0.000 C 
ATOM     27  N3  UNL     1      33.333  -8.563 -33.854  0.00  0.00    +0.000 N 
ATOM     28  H3  UNL     1      33.973  -7.785 -33.579  0.00  0.00    +0.000 HD
BRANCH  27  29
ATOM     29  C3  UNL     1      33.162  -9.662 -32.941  0.00  0.00    +0.000 A 
ATOM     30  C4  UNL     1      34.122 -10.688 -32.868  0.00  0.00    +0.000 A 
ATOM     31  C5  UNL     1      33.939 -11.766 -32.000  0.00  0.00    +0.000 A 
ATOM     32  C6  UNL     1      32.795 -11.839 -31.207  0.00  0.00    +0.000 A 
ATOM     33  C7  UNL     1      31.824 -10.837 -31.283  0.00  0.00    +0.000 A 
ATOM     34  C8  UNL     1      31.996  -9.742 -32.153  0.00  0.00    +0.000 A 
BRANCH  34  35
ATOM     35  O2  UNL     1      31.044  -8.712 -32.258  0.00  0.00    +0.000 OA
BRANCH  35  36
ATOM     36  C9  UNL     1      29.723  -8.855 -32.776  0.00  0.00    +0.000 C 
ATOM     37  F1  UNL     1      29.613 -10.039 -33.482  0.00  0.00    +0.000 F 
ATOM     38  F2  UNL     1      29.460  -7.802 -33.629  0.00  0.00    +0.000 F 
ATOM     39  F3  UNL     1      28.802  -8.833 -31.744  0.00  0.00    +0.000 F 
ENDBRANCH  35  36
ENDBRANCH  34  35
ENDBRANCH  27  29
BRANCH  26  40
ATOM     40  S1  UNL     1      32.814  -6.953 -36.066  0.00  0.00    +0.000 S 
ATOM     41  H2  UNL     1      31.411  -6.839 -36.055  0.00  0.00    +0.000 HD
ENDBRANCH  26  40
ENDBRANCH   3  25
TORSDOF 7
ENDMDL
MODEL 5
REMARK VINA RESULT:    -6.056      4.851      9.300
REMARK INTER + INTRA:          -9.811
REMARK INTER:                  -8.886
REMARK INTRA:                  -0.925
REMARK UNBOUND:                -1.454
REMARK  Name = resultss/4CJN/ligands/lig_422_t1.pdb
REMARK  7 active torsions:
REMARK  status: ('A' for Active; 'I' for Inactive)
REMARK    1  A    between atoms: C1_2  and  C10_19
REMARK    2  A    between atoms: N1_3  and  N2_4
REMARK    3  A    between atoms: C2_5  and  S1_6
REMARK    4  A    between atoms: N3_7  and  C3_8
REMARK    5  A    between atoms: C8_13  and  O2_14
REMARK    6  A    between atoms: O2_14  and  C9_15
REMARK    7  A    between atoms: C20_30  and  C21_31
REMARK                            x       y       z     vdW  Elec       q    Type
REMARK                         _______ _______ _______ _____ _____    ______ ____
ROOT
ATOM      1  O1  UNL     1      28.675 -10.012 -34.408  0.00  0.00    +0.000 OA
ATOM      2  C1  UNL     1      28.790  -9.258 -35.413  0.00  0.00    +0.000 C 
ATOM      3  N1  UNL     1      30.034  -8.583 -35.657  0.00  0.00    +0.000 N 
ATOM      4  H1  UNL     1      30.035  -7.741 -36.274  0.00  0.00    +0.000 HD
ENDROOT
BRANCH   2   5
ATOM      5  C10 UNL     1      27.643  -9.067 -36.326  0.00  0.00    +0.000 A 
ATOM      6  C11 UNL     1      27.731  -9.440 -37.685  0.00  0.00    +0.000 A 
ATOM      7  C12 UNL     1      26.615  -9.209 -38.481  0.00  0.00    +0.000 A 
ATOM      8  C13 UNL     1      25.461  -8.647 -37.979  0.00  0.00    +0.000 A 
ATOM      9  N4  UNL     1      24.540  -8.461 -38.955  0.00  0.00    +0.000 N 
ATOM     10  C14 UNL     1      25.124  -8.935 -40.077  0.00  0.00    +0.000 A 
ATOM     11  C15 UNL     1      24.584  -8.959 -41.361  0.00  0.00    +0.000 A 
ATOM     12  C16 UNL     1      25.376  -9.482 -42.400  0.00  0.00    +0.000 A 
ATOM     13  C17 UNL     1      26.681  -9.959 -42.138  0.00  0.00    +0.000 A 
ATOM     14  C18 UNL     1      27.208  -9.920 -40.834  0.00  0.00    +0.000 A 
ATOM     15  C19 UNL     1      26.397  -9.403 -39.825  0.00  0.00    +0.000 A 
ATOM     16  C20 UNL     1      25.381  -8.293 -36.626  0.00  0.00    +0.000 A 
ATOM     17  N5  UNL     1      26.485  -8.508 -35.848  0.00  0.00    +0.000 NA
ATOM     18  H9  UNL     1      23.598  -8.018 -38.881  0.00  0.00    +0.000 HD
BRANCH  16  19
ATOM     19  C21 UNL     1      24.171  -7.701 -36.019  0.00  0.00    +0.000 A 
ATOM     20  C22 UNL     1      23.689  -6.466 -36.485  0.00  0.00    +0.000 A 
ATOM     21  C23 UNL     1      22.559  -5.883 -35.904  0.00  0.00    +0.000 A 
ATOM     22  C24 UNL     1      21.910  -6.521 -34.843  0.00  0.00    +0.000 A 
ATOM     23  C25 UNL     1      22.394  -7.738 -34.358  0.00  0.00    +0.000 A 
ATOM     24  C26 UNL     1      23.524  -8.324 -34.937  0.00  0.00    +0.000 A 
ENDBRANCH  16  19
ENDBRANCH   2   5
BRANCH   3  25
ATOM     25  N2  UNL     1      31.160  -8.802 -34.845  0.00  0.00    +0.000 NA
ATOM     26  C2  UNL     1      32.282  -9.291 -35.285  0.00  0.00    +0.000 C 
ATOM     27  N3  UNL     1      33.368  -9.543 -34.379  0.00  0.00    +0.000 N 
ATOM     28  H3  UNL     1      34.144 -10.154 -34.718  0.00  0.00    +0.000 HD
BRANCH  27  29
ATOM     29  C3  UNL     1      33.400  -9.093 -33.012  0.00  0.00    +0.000 A 
ATOM     30  C4  UNL     1      33.844  -7.796 -32.696  0.00  0.00    +0.000 A 
ATOM     31  C5  UNL     1      33.898  -7.373 -31.366  0.00  0.00    +0.000 A 
ATOM     32  C6  UNL     1      33.525  -8.241 -30.341  0.00  0.00    +0.000 A 
ATOM     33  C7  UNL     1      33.102  -9.537 -30.639  0.00  0.00    +0.000 A 
ATOM     34  C8  UNL     1      33.039  -9.978 -31.977  0.00  0.00    +0.000 A 
BRANCH  34  35
ATOM     35  O2  UNL     1      32.617 -11.275 -32.319  0.00  0.00    +0.000 OA
BRANCH  35  36
ATOM     36  C9  UNL     1      32.500 -12.373 -31.416  0.00  0.00    +0.000 C 
ATOM     37  F1  UNL     1      31.662 -12.042 -30.368  0.00  0.00    +0.000 F 
ATOM     38  F2  UNL     1      33.750 -12.672 -30.911  0.00  0.00    +0.000 F 
ATOM     39  F3  UNL     1      32.011 -13.484 -32.079  0.00  0.00    +0.000 F 
ENDBRANCH  35  36
ENDBRANCH  34  35
ENDBRANCH  27  29
BRANCH  26  40
ATOM     40  S1  UNL     1      32.523  -9.657 -37.030  0.00  0.00    +0.000 S 
ATOM     41  H2  UNL     1      32.777  -8.306 -37.330  0.00  0.00    +0.000 HD
ENDBRANCH  26  40
ENDBRANCH   3  25
TORSDOF 7
ENDMDL
MODEL 6
REMARK VINA RESULT:    -5.927      3.673      9.991
REMARK INTER + INTRA:          -9.633
REMARK INTER:                  -8.566
REMARK INTRA:                  -1.067
REMARK UNBOUND:                -1.454
REMARK  Name = resultss/4CJN/ligands/lig_422_t1.pdb
REMARK  7 active torsions:
REMARK  status: ('A' for Active; 'I' for Inactive)
REMARK    1  A    between atoms: C1_2  and  C10_19
REMARK    2  A    between atoms: N1_3  and  N2_4
REMARK    3  A    between atoms: C2_5  and  S1_6
REMARK    4  A    between atoms: N3_7  and  C3_8
REMARK    5  A    between atoms: C8_13  and  O2_14
REMARK    6  A    between atoms: O2_14  and  C9_15
REMARK    7  A    between atoms: C20_30  and  C21_31
REMARK                            x       y       z     vdW  Elec       q    Type
REMARK                         _______ _______ _______ _____ _____    ______ ____
ROOT
ATOM      1  O1  UNL     1      27.492  -9.184 -38.130  0.00  0.00    +0.000 OA
ATOM      2  C1  UNL     1      27.455  -8.151 -38.853  0.00  0.00    +0.000 C 
ATOM      3  N1  UNL     1      26.982  -6.912 -38.300  0.00  0.00    +0.000 N 
ATOM      4  H1  UNL     1      26.655  -6.165 -38.950  0.00  0.00    +0.000 HD
ENDROOT
BRANCH   2   5
ATOM      5  C10 UNL     1      27.887  -8.223 -40.265  0.00  0.00    +0.000 A 
ATOM      6  C11 UNL     1      27.221  -7.480 -41.263  0.00  0.00    +0.000 A 
ATOM      7  C12 UNL     1      27.678  -7.619 -42.569  0.00  0.00    +0.000 A 
ATOM      8  C13 UNL     1      28.737  -8.439 -42.892  0.00  0.00    +0.000 A 
ATOM      9  N4  UNL     1      28.953  -8.460 -44.229  0.00  0.00    +0.000 N 
ATOM     10  C14 UNL     1      28.024  -7.625 -44.743  0.00  0.00    +0.000 A 
ATOM     11  C15 UNL     1      27.824  -7.314 -46.086  0.00  0.00    +0.000 A 
ATOM     12  C16 UNL     1      26.778  -6.428 -46.409  0.00  0.00    +0.000 A 
ATOM     13  C17 UNL     1      25.960  -5.883 -45.393  0.00  0.00    +0.000 A 
ATOM     14  C18 UNL     1      26.178  -6.215 -44.045  0.00  0.00    +0.000 A 
ATOM     15  C19 UNL     1      27.225  -7.089 -43.755  0.00  0.00    +0.000 A 
ATOM     16  C20 UNL     1      29.399  -9.161 -41.891  0.00  0.00    +0.000 A 
ATOM     17  N5  UNL     1      28.940  -9.033 -40.608  0.00  0.00    +0.000 NA
ATOM     18  H9  UNL     1      29.653  -9.022 -44.763  0.00  0.00    +0.000 HD
BRANCH  16  19
ATOM     19  C21 UNL     1      30.551 -10.045 -42.163  0.00  0.00    +0.000 A 
ATOM     20  C22 UNL     1      30.362 -11.236 -42.885  0.00  0.00    +0.000 A 
ATOM     21  C23 UNL     1      31.439 -12.093 -43.129  0.00  0.00    +0.000 A 
ATOM     22  C24 UNL     1      32.710 -11.776 -42.643  0.00  0.00    +0.000 A 
ATOM     23  C25 UNL     1      32.904 -10.605 -41.905  0.00  0.00    +0.000 A 
ATOM     24  C26 UNL     1      31.829  -9.746 -41.658  0.00  0.00    +0.000 A 
ENDBRANCH  16  19
ENDBRANCH   2   5
BRANCH   3  25
ATOM     25  N2  UNL     1      26.632  -6.800 -36.944  0.00  0.00    +0.000 NA
ATOM     26  C2  UNL     1      25.438  -6.491 -36.530  0.00  0.00    +0.000 C 
ATOM     27  N3  UNL     1      25.174  -6.335 -35.127  0.00  0.00    +0.000 N 
ATOM     28  H3  UNL     1      24.288  -5.853 -34.855  0.00  0.00    +0.000 HD
BRANCH  27  29
ATOM     29  C3  UNL     1      26.096  -6.707 -34.086  0.00  0.00    +0.000 A 
ATOM     30  C4  UNL     1      27.224  -5.913 -33.811  0.00  0.00    +0.000 A 
ATOM     31  C5  UNL     1      28.130  -6.293 -32.818  0.00  0.00    +0.000 A 
ATOM     32  C6  UNL     1      27.928  -7.471 -32.101  0.00  0.00    +0.000 A 
ATOM     33  C7  UNL     1      26.823  -8.279 -32.377  0.00  0.00    +0.000 A 
ATOM     34  C8  UNL     1      25.898  -7.908 -33.375  0.00  0.00    +0.000 A 
BRANCH  34  35
ATOM     35  O2  UNL     1      24.773  -8.692 -33.681  0.00  0.00    +0.000 OA
BRANCH  35  36
ATOM     36  C9  UNL     1      23.490  -8.577 -33.068  0.00  0.00    +0.000 C 
ATOM     37  F1  UNL     1      23.387  -9.461 -32.010  0.00  0.00    +0.000 F 
ATOM     38  F2  UNL     1      22.519  -8.884 -34.001  0.00  0.00    +0.000 F 
ATOM     39  F3  UNL     1      23.289  -7.283 -32.624  0.00  0.00    +0.000 F 
ENDBRANCH  35  36
ENDBRANCH  34  35
ENDBRANCH  27  29
BRANCH  26  40
ATOM     40  S1  UNL     1      24.078  -6.259 -37.685  0.00  0.00    +0.000 S 
ATOM     41  H2  UNL     1      24.330  -4.878 -37.783  0.00  0.00    +0.000 HD
ENDBRANCH  26  40
ENDBRANCH   3  25
TORSDOF 7
ENDMDL
MODEL 7
REMARK VINA RESULT:    -5.849      3.677     10.622
REMARK INTER + INTRA:          -9.525
REMARK INTER:                  -9.073
REMARK INTRA:                  -0.452
REMARK UNBOUND:                -1.454
REMARK  Name = resultss/4CJN/ligands/lig_422_t1.pdb
REMARK  7 active torsions:
REMARK  status: ('A' for Active; 'I' for Inactive)
REMARK    1  A    between atoms: C1_2  and  C10_19
REMARK    2  A    between atoms: N1_3  and  N2_4
REMARK    3  A    between atoms: C2_5  and  S1_6
REMARK    4  A    between atoms: N3_7  and  C3_8
REMARK    5  A    between atoms: C8_13  and  O2_14
REMARK    6  A    between atoms: O2_14  and  C9_15
REMARK    7  A    between atoms: C20_30  and  C21_31
REMARK                            x       y       z     vdW  Elec       q    Type
REMARK                         _______ _______ _______ _____ _____    ______ ____
ROOT
ATOM      1  O1  UNL     1      24.604  -8.558 -39.699  0.00  0.00    +0.000 OA
ATOM      2  C1  UNL     1      25.306  -8.414 -40.737  0.00  0.00    +0.000 C 
ATOM      3  N1  UNL     1      26.710  -8.712 -40.693  0.00  0.00    +0.000 N 
ATOM      4  H1  UNL     1      27.333  -8.303 -41.424  0.00  0.00    +0.000 HD
ENDROOT
BRANCH   2   5
ATOM      5  C10 UNL     1      24.682  -7.930 -41.987  0.00  0.00    +0.000 A 
ATOM      6  C11 UNL     1      23.293  -7.685 -42.053  0.00  0.00    +0.000 A 
ATOM      7  C12 UNL     1      22.782  -7.250 -43.271  0.00  0.00    +0.000 A 
ATOM      8  C13 UNL     1      23.585  -7.054 -44.374  0.00  0.00    +0.000 A 
ATOM      9  N4  UNL     1      22.853  -6.694 -45.456  0.00  0.00    +0.000 N 
ATOM     10  C14 UNL     1      21.579  -6.646 -45.012  0.00  0.00    +0.000 A 
ATOM     11  C15 UNL     1      20.441  -6.332 -45.753  0.00  0.00    +0.000 A 
ATOM     12  C16 UNL     1      19.197  -6.360 -45.094  0.00  0.00    +0.000 A 
ATOM     13  C17 UNL     1      19.117  -6.704 -43.725  0.00  0.00    +0.000 A 
ATOM     14  C18 UNL     1      20.278  -7.022 -42.999  0.00  0.00    +0.000 A 
ATOM     15  C19 UNL     1      21.496  -6.979 -43.676  0.00  0.00    +0.000 A 
ATOM     16  C20 UNL     1      24.963  -7.287 -44.292  0.00  0.00    +0.000 A 
ATOM     17  N5  UNL     1      25.462  -7.729 -43.098  0.00  0.00    +0.000 NA
ATOM     18  H9  UNL     1      23.182  -6.525 -46.433  0.00  0.00    +0.000 HD
BRANCH  16  19
ATOM     19  C21 UNL     1      25.883  -7.084 -45.430  0.00  0.00    +0.000 A 
ATOM     20  C22 UNL     1      25.374  -7.028 -46.739  0.00  0.00    +0.000 A 
ATOM     21  C23 UNL     1      26.237  -6.858 -47.826  0.00  0.00    +0.000 A 
ATOM     22  C24 UNL     1      27.614  -6.759 -47.618  0.00  0.00    +0.000 A 
ATOM     23  C25 UNL     1      28.133  -6.836 -46.323  0.00  0.00    +0.000 A 
ATOM     24  C26 UNL     1      27.274  -7.005 -45.233  0.00  0.00    +0.000 A 
ENDBRANCH  16  19
ENDBRANCH   2   5
BRANCH   3  25
ATOM     25  N2  UNL     1      27.313  -9.240 -39.539  0.00  0.00    +0.000 NA
ATOM     26  C2  UNL     1      28.234 -10.159 -39.562  0.00  0.00    +0.000 C 
ATOM     27  N3  UNL     1      28.758 -10.692 -38.335  0.00  0.00    +0.000 N 
ATOM     28  H3  UNL     1      29.300 -11.583 -38.391  0.00  0.00    +0.000 HD
BRANCH  27  29
ATOM     29  C3  UNL     1      28.496 -10.132 -37.035  0.00  0.00    +0.000 A 
ATOM     30  C4  UNL     1      27.177 -10.008 -36.561  0.00  0.00    +0.000 A 
ATOM     31  C5  UNL     1      26.927  -9.440 -35.311  0.00  0.00    +0.000 A 
ATOM     32  C6  UNL     1      27.984  -8.978 -34.528  0.00  0.00    +0.000 A 
ATOM     33  C7  UNL     1      29.296  -9.076 -34.994  0.00  0.00    +0.000 A 
ATOM     34  C8  UNL     1      29.565  -9.650 -36.254  0.00  0.00    +0.000 A 
BRANCH  34  35
ATOM     35  O2  UNL     1      30.872  -9.769 -36.758  0.00  0.00    +0.000 OA
BRANCH  35  36
ATOM     36  C9  UNL     1      31.518  -8.829 -37.616  0.00  0.00    +0.000 C 
ATOM     37  F1  UNL     1      32.726  -8.437 -37.068  0.00  0.00    +0.000 F 
ATOM     38  F2  UNL     1      30.710  -7.718 -37.753  0.00  0.00    +0.000 F 
ATOM     39  F3  UNL     1      31.724  -9.387 -38.864  0.00  0.00    +0.000 F 
ENDBRANCH  35  36
ENDBRANCH  34  35
ENDBRANCH  27  29
BRANCH  26  40
ATOM     40  S1  UNL     1      28.890 -10.787 -41.115  0.00  0.00    +0.000 S 
ATOM     41  H2  UNL     1      28.331 -12.060 -40.895  0.00  0.00    +0.000 HD
ENDBRANCH  26  40
ENDBRANCH   3  25
TORSDOF 7
ENDMDL
MODEL 8
REMARK VINA RESULT:    -5.789      4.019     10.975
REMARK INTER + INTRA:          -9.443
REMARK INTER:                  -8.848
REMARK INTRA:                  -0.595
REMARK UNBOUND:                -1.454
REMARK  Name = resultss/4CJN/ligands/lig_422_t1.pdb
REMARK  7 active torsions:
REMARK  status: ('A' for Active; 'I' for Inactive)
REMARK    1  A    between atoms: C1_2  and  C10_19
REMARK    2  A    between atoms: N1_3  and  N2_4
REMARK    3  A    between atoms: C2_5  and  S1_6
REMARK    4  A    between atoms: N3_7  and  C3_8
REMARK    5  A    between atoms: C8_13  and  O2_14
REMARK    6  A    between atoms: O2_14  and  C9_15
REMARK    7  A    between atoms: C20_30  and  C21_31
REMARK                            x       y       z     vdW  Elec       q    Type
REMARK                         _______ _______ _______ _____ _____    ______ ____
ROOT
ATOM      1  O1  UNL     1      26.613  -8.294 -41.682  0.00  0.00    +0.000 OA
ATOM      2  C1  UNL     1      25.568  -7.595 -41.584  0.00  0.00    +0.000 C 
ATOM      3  N1  UNL     1      25.167  -7.092 -40.299  0.00  0.00    +0.000 N 
ATOM      4  H1  UNL     1      24.174  -6.801 -40.161  0.00  0.00    +0.000 HD
ENDROOT
BRANCH   2   5
ATOM      5  C10 UNL     1      24.758  -7.306 -42.786  0.00  0.00    +0.000 A 
ATOM      6  C11 UNL     1      23.350  -7.227 -42.707  0.00  0.00    +0.000 A 
ATOM      7  C12 UNL     1      22.661  -6.971 -43.887  0.00  0.00    +0.000 A 
ATOM      8  C13 UNL     1      23.309  -6.795 -45.091  0.00  0.00    +0.000 A 
ATOM      9  N4  UNL     1      22.426  -6.625 -46.104  0.00  0.00    +0.000 N 
ATOM     10  C14 UNL     1      21.211  -6.677 -45.516  0.00  0.00    +0.000 A 
ATOM     11  C15 UNL     1      19.970  -6.566 -46.140  0.00  0.00    +0.000 A 
ATOM     12  C16 UNL     1      18.817  -6.670 -45.338  0.00  0.00    +0.000 A 
ATOM     13  C17 UNL     1      18.929  -6.886 -43.946  0.00  0.00    +0.000 A 
ATOM     14  C18 UNL     1      20.192  -7.001 -43.339  0.00  0.00    +0.000 A 
ATOM     15  C19 UNL     1      21.315  -6.887 -44.157  0.00  0.00    +0.000 A 
ATOM     16  C20 UNL     1      24.706  -6.863 -45.154  0.00  0.00    +0.000 A 
ATOM     17  N5  UNL     1      25.382  -7.128 -43.995  0.00  0.00    +0.000 NA
ATOM     18  H9  UNL     1      22.623  -6.515 -47.123  0.00  0.00    +0.000 HD
BRANCH  16  19
ATOM     19  C21 UNL     1      25.466  -6.669 -46.407  0.00  0.00    +0.000 A 
ATOM     20  C22 UNL     1      24.781  -6.412 -47.606  0.00  0.00    +0.000 A 
ATOM     21  C23 UNL     1      25.486  -6.249 -48.802  0.00  0.00    +0.000 A 
ATOM     22  C24 UNL     1      26.879  -6.356 -48.813  0.00  0.00    +0.000 A 
ATOM     23  C25 UNL     1      27.568  -6.632 -47.630  0.00  0.00    +0.000 A 
ATOM     24  C26 UNL     1      26.867  -6.796 -46.432  0.00  0.00    +0.000 A 
ENDBRANCH  16  19
ENDBRANCH   2   5
BRANCH   3  25
ATOM     25  N2  UNL     1      25.956  -7.292 -39.154  0.00  0.00    +0.000 NA
ATOM     26  C2  UNL     1      25.665  -6.805 -37.983  0.00  0.00    +0.000 C 
ATOM     27  N3  UNL     1      26.555  -7.003 -36.873  0.00  0.00    +0.000 N 
ATOM     28  H3  UNL     1      26.415  -6.400 -36.032  0.00  0.00    +0.000 HD
BRANCH  27  29
ATOM     29  C3  UNL     1      27.679  -7.901 -36.890  0.00  0.00    +0.000 A 
ATOM     30  C4  UNL     1      28.920  -7.485 -37.406  0.00  0.00    +0.000 A 
ATOM     31  C5  UNL     1      30.001  -8.368 -37.445  0.00  0.00    +0.000 A 
ATOM     32  C6  UNL     1      29.852  -9.676 -36.985  0.00  0.00    +0.000 A 
ATOM     33  C7  UNL     1      28.621 -10.109 -36.488  0.00  0.00    +0.000 A 
ATOM     34  C8  UNL     1      27.521  -9.227 -36.440  0.00  0.00    +0.000 A 
BRANCH  34  35
ATOM     35  O2  UNL     1      26.266  -9.624 -35.947  0.00  0.00    +0.000 OA
BRANCH  35  36
ATOM     36  C9  UNL     1      25.838  -9.520 -34.590  0.00  0.00    +0.000 C 
ATOM     37  F1  UNL     1      24.648  -8.820 -34.518  0.00  0.00    +0.000 F 
ATOM     38  F2  UNL     1      26.800  -8.839 -33.868  0.00  0.00    +0.000 F 
ATOM     39  F3  UNL     1      25.680 -10.780 -34.043  0.00  0.00    +0.000 F 
ENDBRANCH  35  36
ENDBRANCH  34  35
ENDBRANCH  27  29
BRANCH  26  40
ATOM     40  S1  UNL     1      24.145  -5.883 -37.705  0.00  0.00    +0.000 S 
ATOM     41  H2  UNL     1      23.551  -6.414 -38.865  0.00  0.00    +0.000 HD
ENDBRANCH  26  40
ENDBRANCH   3  25
TORSDOF 7
ENDMDL
