MODEL 1
REMARK VINA RESULT:    -7.279      0.000      0.000
REMARK INTER + INTRA:         -14.324
REMARK INTER:                 -12.172
REMARK INTRA:                  -2.152
REMARK UNBOUND:                -2.152
REMARK  Name = resultss/4CJN/ligands/lig_336_t1.pdb
REMARK  13 active torsions:
REMARK  status: ('A' for Active; 'I' for Inactive)
REMARK    1  A    between atoms: C1_1  and  O1_2
REMARK    2  A    between atoms: O1_2  and  C2_3
REMARK    3  A    between atoms: C4_5  and  C5_6
REMARK    4  A    between atoms: N2_16  and  N3_17
REMARK    5  A    between atoms: N3_17  and  C13_18
REMARK    6  A    between atoms: C21_26  and  O3_27
REMARK    7  A    between atoms: O3_27  and  C22_28
REMARK    8  A    between atoms: C22_28  and  C23_29
REMARK    9  A    between atoms: N4_31  and  C25_32
REMARK   10  A    between atoms: C25_32  and  C26_33
REMARK   11  A    between atoms: C26_33  and  O4_34
REMARK   12  A    between atoms: N5_35  and  C27_36
REMARK   13  A    between atoms: C27_36  and  C28_37
REMARK                            x       y       z     vdW  Elec       q    Type
REMARK                         _______ _______ _______ _____ _____    ______ ____
ROOT
ATOM      1  C2  UNL     1      24.908  -8.545 -40.555  0.00  0.00    +0.000 A 
ATOM      2  C3  UNL     1      25.712  -8.566 -39.399  0.00  0.00    +0.000 A 
ATOM      3  C4  UNL     1      25.660  -7.509 -38.474  0.00  0.00    +0.000 A 
ATOM      4  C19 UNL     1      24.824  -6.410 -38.730  0.00  0.00    +0.000 A 
ATOM      5  C20 UNL     1      24.019  -6.383 -39.868  0.00  0.00    +0.000 A 
ATOM      6  C21 UNL     1      24.044  -7.460 -40.780  0.00  0.00    +0.000 A 
ENDROOT
BRANCH   3   7
ATOM      7  C5  UNL     1      26.512  -7.534 -37.224  0.00  0.00    +0.000 C 
ATOM      8  N1  UNL     1      27.922  -7.676 -37.605  0.00  0.00    +0.000 N 
ATOM      9  C6  UNL     1      28.883  -8.316 -36.756  0.00  0.00    +0.000 A 
ATOM     10  C7  UNL     1      30.256  -8.102 -36.959  0.00  0.00    +0.000 A 
ATOM     11  C8  UNL     1      31.195  -8.709 -36.117  0.00  0.00    +0.000 A 
ATOM     12  C9  UNL     1      30.772  -9.542 -35.080  0.00  0.00    +0.000 A 
ATOM     13  C10 UNL     1      29.407  -9.778 -34.886  0.00  0.00    +0.000 A 
ATOM     14  C11 UNL     1      28.456  -9.161 -35.724  0.00  0.00    +0.000 A 
ATOM     15  C12 UNL     1      27.011  -9.385 -35.553  0.00  0.00    +0.000 C 
ATOM     16  O2  UNL     1      26.594 -10.238 -34.724  0.00  0.00    +0.000 OA
ATOM     17  N2  UNL     1      26.071  -8.624 -36.328  0.00  0.00    +0.000 N 
ATOM     18  H6  UNL     1      28.275  -7.085 -38.393  0.00  0.00    +0.000 HD
BRANCH  17  19
ATOM     19  N3  UNL     1      24.697  -8.845 -36.121  0.00  0.00    +0.000 N 
ATOM     20  H11 UNL     1      24.269  -9.714 -36.519  0.00  0.00    +0.000 HD
BRANCH  19  21
ATOM     21  C13 UNL     1      23.884  -7.953 -35.339  0.00  0.00    +0.000 A 
ATOM     22  C14 UNL     1      22.732  -7.355 -35.880  0.00  0.00    +0.000 A 
ATOM     23  C15 UNL     1      21.977  -6.457 -35.117  0.00  0.00    +0.000 A 
ATOM     24  C16 UNL     1      22.368  -6.148 -33.810  0.00  0.00    +0.000 A 
ATOM     25  C17 UNL     1      23.514  -6.732 -33.265  0.00  0.00    +0.000 A 
ATOM     26  C18 UNL     1      24.271  -7.630 -34.027  0.00  0.00    +0.000 A 
ENDBRANCH  19  21
ENDBRANCH  17  19
ENDBRANCH   3   7
BRANCH   1  28
ATOM     27  C1  UNL     1      25.880  -9.639 -42.582  0.00  0.00    +0.000 C 
ATOM     28  O1  UNL     1      24.950  -9.575 -41.506  0.00  0.00    +0.000 OA
ENDBRANCH   1  28
BRANCH   6  29
ATOM     29  O3  UNL     1      23.227  -7.487 -41.921  0.00  0.00    +0.000 OA
BRANCH  29  30
ATOM     30  C22 UNL     1      21.940  -6.877 -42.006  0.00  0.00    +0.000 C 
BRANCH  30  31
ATOM     31  C23 UNL     1      21.418  -6.980 -43.402  0.00  0.00    +0.000 A 
ATOM     32  C24 UNL     1      22.102  -6.682 -44.563  0.00  0.00    +0.000 A 
ATOM     33  N4  UNL     1      21.205  -6.794 -45.558  0.00  0.00    +0.000 N 
ATOM     34  N6  UNL     1      20.037  -7.139 -45.036  0.00  0.00    +0.000 NA
ATOM     35  N7  UNL     1      20.134  -7.247 -43.719  0.00  0.00    +0.000 NA
BRANCH  33  36
ATOM     36  C25 UNL     1      21.453  -6.579 -46.982  0.00  0.00    +0.000 C 
BRANCH  36  37
ATOM     37  C26 UNL     1      22.763  -7.176 -47.390  0.00  0.00    +0.000 C 
ATOM     38  N5  UNL     1      23.795  -6.398 -47.555  0.00  0.00    +0.000 NA
BRANCH  37  39
ATOM     39  O4  UNL     1      22.846  -8.566 -47.545  0.00  0.00    +0.000 OA
ATOM     40  H24 UNL     1      23.546  -9.137 -47.091  0.00  0.00    +0.000 HD
ENDBRANCH  37  39
BRANCH  38  41
ATOM     41  C27 UNL     1      25.136  -6.821 -47.952  0.00  0.00    +0.000 C 
BRANCH  41  42
ATOM     42  C28 UNL     1      26.079  -6.815 -46.774  0.00  0.00    +0.000 A 
ATOM     43  C29 UNL     1      25.594  -6.567 -45.475  0.00  0.00    +0.000 A 
ATOM     44  C30 UNL     1      26.464  -6.600 -44.379  0.00  0.00    +0.000 A 
ATOM     45  C31 UNL     1      27.816  -6.892 -44.570  0.00  0.00    +0.000 A 
ATOM     46  C32 UNL     1      28.305  -7.146 -45.855  0.00  0.00    +0.000 A 
ATOM     47  C33 UNL     1      27.440  -7.115 -46.954  0.00  0.00    +0.000 A 
ENDBRANCH  41  42
ENDBRANCH  38  41
ENDBRANCH  36  37
ENDBRANCH  33  36
ENDBRANCH  30  31
ENDBRANCH  29  30
ENDBRANCH   6  29
TORSDOF 12
ENDMDL
MODEL 2
REMARK VINA RESULT:    -6.652      3.942      5.623
REMARK INTER + INTRA:         -13.276
REMARK INTER:                 -11.846
REMARK INTRA:                  -1.430
REMARK UNBOUND:                -2.152
REMARK  Name = resultss/4CJN/ligands/lig_336_t1.pdb
REMARK  13 active torsions:
REMARK  status: ('A' for Active; 'I' for Inactive)
REMARK    1  A    between atoms: C1_1  and  O1_2
REMARK    2  A    between atoms: O1_2  and  C2_3
REMARK    3  A    between atoms: C4_5  and  C5_6
REMARK    4  A    between atoms: N2_16  and  N3_17
REMARK    5  A    between atoms: N3_17  and  C13_18
REMARK    6  A    between atoms: C21_26  and  O3_27
REMARK    7  A    between atoms: O3_27  and  C22_28
REMARK    8  A    between atoms: C22_28  and  C23_29
REMARK    9  A    between atoms: N4_31  and  C25_32
REMARK   10  A    between atoms: C25_32  and  C26_33
REMARK   11  A    between atoms: C26_33  and  O4_34
REMARK   12  A    between atoms: N5_35  and  C27_36
REMARK   13  A    between atoms: C27_36  and  C28_37
REMARK                            x       y       z     vdW  Elec       q    Type
REMARK                         _______ _______ _______ _____ _____    ______ ____
ROOT
ATOM      1  C2  UNL     1      26.057  -7.123 -38.957  0.00  0.00    +0.000 A 
ATOM      2  C3  UNL     1      26.970  -6.831 -37.925  0.00  0.00    +0.000 A 
ATOM      3  C4  UNL     1      27.262  -7.789 -36.939  0.00  0.00    +0.000 A 
ATOM      4  C19 UNL     1      26.604  -9.030 -36.968  0.00  0.00    +0.000 A 
ATOM      5  C20 UNL     1      25.705  -9.330 -37.990  0.00  0.00    +0.000 A 
ATOM      6  C21 UNL     1      25.438  -8.383 -39.000  0.00  0.00    +0.000 A 
ENDROOT
BRANCH   3   7
ATOM      7  C5  UNL     1      28.252  -7.486 -35.836  0.00  0.00    +0.000 C 
ATOM      8  N1  UNL     1      29.252  -8.559 -35.779  0.00  0.00    +0.000 N 
ATOM      9  C6  UNL     1      29.924  -8.915 -34.564  0.00  0.00    +0.000 A 
ATOM     10  C7  UNL     1      31.117  -9.653 -34.608  0.00  0.00    +0.000 A 
ATOM     11  C8  UNL     1      31.784  -9.984 -33.424  0.00  0.00    +0.000 A 
ATOM     12  C9  UNL     1      31.259  -9.595 -32.191  0.00  0.00    +0.000 A 
ATOM     13  C10 UNL     1      30.057  -8.880 -32.137  0.00  0.00    +0.000 A 
ATOM     14  C11 UNL     1      29.386  -8.535 -33.328  0.00  0.00    +0.000 A 
ATOM     15  C12 UNL     1      28.120  -7.784 -33.314  0.00  0.00    +0.000 C 
ATOM     16  O2  UNL     1      27.539  -7.538 -32.223  0.00  0.00    +0.000 OA
ATOM     17  N2  UNL     1      27.547  -7.322 -34.548  0.00  0.00    +0.000 N 
ATOM     18  H6  UNL     1      29.657  -8.895 -36.684  0.00  0.00    +0.000 HD
BRANCH  17  19
ATOM     19  N3  UNL     1      26.349  -6.586 -34.496  0.00  0.00    +0.000 N 
ATOM     20  H11 UNL     1      26.404  -5.542 -34.555  0.00  0.00    +0.000 HD
BRANCH  19  21
ATOM     21  C13 UNL     1      25.059  -7.221 -34.426  0.00  0.00    +0.000 A 
ATOM     22  C14 UNL     1      24.786  -8.208 -33.463  0.00  0.00    +0.000 A 
ATOM     23  C15 UNL     1      23.540  -8.845 -33.438  0.00  0.00    +0.000 A 
ATOM     24  C16 UNL     1      22.560  -8.501 -34.374  0.00  0.00    +0.000 A 
ATOM     25  C17 UNL     1      22.824  -7.526 -35.340  0.00  0.00    +0.000 A 
ATOM     26  C18 UNL     1      24.070  -6.889 -35.367  0.00  0.00    +0.000 A 
ENDBRANCH  19  21
ENDBRANCH  17  19
ENDBRANCH   3   7
BRANCH   1  28
ATOM     27  C1  UNL     1      26.548  -5.883 -41.072  0.00  0.00    +0.000 C 
ATOM     28  O1  UNL     1      25.731  -6.183 -39.945  0.00  0.00    +0.000 OA
ENDBRANCH   1  28
BRANCH   6  29
ATOM     29  O3  UNL     1      24.563  -8.657 -40.064  0.00  0.00    +0.000 OA
BRANCH  29  30
ATOM     30  C22 UNL     1      24.742  -9.715 -41.004  0.00  0.00    +0.000 C 
BRANCH  30  31
ATOM     31  C23 UNL     1      25.989  -9.488 -41.795  0.00  0.00    +0.000 A 
ATOM     32  C24 UNL     1      27.287  -9.679 -41.366  0.00  0.00    +0.000 A 
ATOM     33  N4  UNL     1      28.073  -9.226 -42.357  0.00  0.00    +0.000 N 
ATOM     34  N6  UNL     1      27.302  -8.780 -43.338  0.00  0.00    +0.000 NA
ATOM     35  N7  UNL     1      26.023  -8.915 -43.017  0.00  0.00    +0.000 NA
BRANCH  33  36
ATOM     36  C25 UNL     1      29.534  -9.219 -42.374  0.00  0.00    +0.000 C 
BRANCH  36  37
ATOM     37  C26 UNL     1      30.073 -10.615 -42.383  0.00  0.00    +0.000 C 
ATOM     38  N5  UNL     1      31.051 -10.917 -43.190  0.00  0.00    +0.000 NA
BRANCH  37  39
ATOM     39  O4  UNL     1      29.530 -11.548 -41.491  0.00  0.00    +0.000 OA
ATOM     40  H24 UNL     1      28.673 -11.394 -40.977  0.00  0.00    +0.000 HD
ENDBRANCH  37  39
BRANCH  38  41
ATOM     41  C27 UNL     1      31.684 -12.226 -43.323  0.00  0.00    +0.000 C 
BRANCH  41  42
ATOM     42  C28 UNL     1      32.498 -12.312 -44.590  0.00  0.00    +0.000 A 
ATOM     43  C29 UNL     1      33.022 -11.145 -45.179  0.00  0.00    +0.000 A 
ATOM     44  C30 UNL     1      33.810 -11.230 -46.333  0.00  0.00    +0.000 A 
ATOM     45  C31 UNL     1      34.088 -12.476 -46.897  0.00  0.00    +0.000 A 
ATOM     46  C32 UNL     1      33.577 -13.641 -46.315  0.00  0.00    +0.000 A 
ATOM     47  C33 UNL     1      32.790 -13.562 -45.162  0.00  0.00    +0.000 A 
ENDBRANCH  41  42
ENDBRANCH  38  41
ENDBRANCH  36  37
ENDBRANCH  33  36
ENDBRANCH  30  31
ENDBRANCH  29  30
ENDBRANCH   6  29
TORSDOF 12
ENDMDL
MODEL 3
REMARK VINA RESULT:    -6.486      1.984      3.848
REMARK INTER + INTRA:         -12.998
REMARK INTER:                 -11.087
REMARK INTRA:                  -1.911
REMARK UNBOUND:                -2.152
REMARK  Name = resultss/4CJN/ligands/lig_336_t1.pdb
REMARK  13 active torsions:
REMARK  status: ('A' for Active; 'I' for Inactive)
REMARK    1  A    between atoms: C1_1  and  O1_2
REMARK    2  A    between atoms: O1_2  and  C2_3
REMARK    3  A    between atoms: C4_5  and  C5_6
REMARK    4  A    between atoms: N2_16  and  N3_17
REMARK    5  A    between atoms: N3_17  and  C13_18
REMARK    6  A    between atoms: C21_26  and  O3_27
REMARK    7  A    between atoms: O3_27  and  C22_28
REMARK    8  A    between atoms: C22_28  and  C23_29
REMARK    9  A    between atoms: N4_31  and  C25_32
REMARK   10  A    between atoms: C25_32  and  C26_33
REMARK   11  A    between atoms: C26_33  and  O4_34
REMARK   12  A    between atoms: N5_35  and  C27_36
REMARK   13  A    between atoms: C27_36  and  C28_37
REMARK                            x       y       z     vdW  Elec       q    Type
REMARK                         _______ _______ _______ _____ _____    ______ ____
ROOT
ATOM      1  C2  UNL     1      27.654  -9.236 -40.077  0.00  0.00    +0.000 A 
ATOM      2  C3  UNL     1      27.906  -9.111 -38.697  0.00  0.00    +0.000 A 
ATOM      3  C4  UNL     1      27.523  -7.949 -38.005  0.00  0.00    +0.000 A 
ATOM      4  C19 UNL     1      26.919  -6.895 -38.710  0.00  0.00    +0.000 A 
ATOM      5  C20 UNL     1      26.659  -7.013 -40.074  0.00  0.00    +0.000 A 
ATOM      6  C21 UNL     1      27.011  -8.193 -40.763  0.00  0.00    +0.000 A 
ENDROOT
BRANCH   3   7
ATOM      7  C5  UNL     1      27.779  -7.814 -36.520  0.00  0.00    +0.000 C 
ATOM      8  N1  UNL     1      29.226  -7.848 -36.276  0.00  0.00    +0.000 N 
ATOM      9  C6  UNL     1      29.785  -8.339 -35.051  0.00  0.00    +0.000 A 
ATOM     10  C7  UNL     1      31.103  -8.011 -34.694  0.00  0.00    +0.000 A 
ATOM     11  C8  UNL     1      31.642  -8.472 -33.489  0.00  0.00    +0.000 A 
ATOM     12  C9  UNL     1      30.877  -9.274 -32.640  0.00  0.00    +0.000 A 
ATOM     13  C10 UNL     1      29.570  -9.625 -32.999  0.00  0.00    +0.000 A 
ATOM     14  C11 UNL     1      29.019  -9.154 -34.208  0.00  0.00    +0.000 A 
ATOM     15  C12 UNL     1      27.649  -9.501 -34.621  0.00  0.00    +0.000 C 
ATOM     16  O2  UNL     1      26.977 -10.335 -33.957  0.00  0.00    +0.000 OA
ATOM     17  N2  UNL     1      27.072  -8.882 -35.782  0.00  0.00    +0.000 N 
ATOM     18  H6  UNL     1      29.839  -7.277 -36.904  0.00  0.00    +0.000 HD
BRANCH  17  19
ATOM     19  N3  UNL     1      25.752  -9.217 -36.135  0.00  0.00    +0.000 N 
ATOM     20  H11 UNL     1      25.593 -10.094 -36.685  0.00  0.00    +0.000 HD
BRANCH  19  21
ATOM     21  C13 UNL     1      24.621  -8.433 -35.716  0.00  0.00    +0.000 A 
ATOM     22  C14 UNL     1      23.916  -7.628 -36.628  0.00  0.00    +0.000 A 
ATOM     23  C15 UNL     1      22.846  -6.839 -36.194  0.00  0.00    +0.000 A 
ATOM     24  C16 UNL     1      22.472  -6.846 -34.846  0.00  0.00    +0.000 A 
ATOM     25  C17 UNL     1      23.171  -7.637 -33.930  0.00  0.00    +0.000 A 
ATOM     26  C18 UNL     1      24.243  -8.427 -34.363  0.00  0.00    +0.000 A 
ENDBRANCH  19  21
ENDBRANCH  17  19
ENDBRANCH   3   7
BRANCH   1  28
ATOM     27  C1  UNL     1      29.330 -10.566 -41.372  0.00  0.00    +0.000 C 
ATOM     28  O1  UNL     1      28.041 -10.375 -40.799  0.00  0.00    +0.000 OA
ENDBRANCH   1  28
BRANCH   6  29
ATOM     29  O3  UNL     1      26.739  -8.366 -42.130  0.00  0.00    +0.000 OA
BRANCH  29  30
ATOM     30  C22 UNL     1      27.131  -7.451 -43.152  0.00  0.00    +0.000 C 
BRANCH  30  31
ATOM     31  C23 UNL     1      26.108  -7.434 -44.240  0.00  0.00    +0.000 A 
ATOM     32  C24 UNL     1      26.297  -7.033 -45.547  0.00  0.00    +0.000 A 
ATOM     33  N4  UNL     1      25.083  -7.062 -46.121  0.00  0.00    +0.000 N 
ATOM     34  N6  UNL     1      24.197  -7.457 -45.218  0.00  0.00    +0.000 NA
ATOM     35  N7  UNL     1      24.793  -7.679 -44.055  0.00  0.00    +0.000 NA
BRANCH  33  36
ATOM     36  C25 UNL     1      24.766  -6.722 -47.507  0.00  0.00    +0.000 C 
BRANCH  36  37
ATOM     37  C26 UNL     1      23.415  -7.243 -47.887  0.00  0.00    +0.000 C 
ATOM     38  N5  UNL     1      22.497  -6.407 -48.282  0.00  0.00    +0.000 NA
BRANCH  37  39
ATOM     39  O4  UNL     1      23.193  -8.625 -47.839  0.00  0.00    +0.000 OA
ATOM     40  H24 UNL     1      22.906  -9.115 -47.003  0.00  0.00    +0.000 HD
ENDBRANCH  37  39
BRANCH  38  41
ATOM     41  C27 UNL     1      21.135  -6.751 -48.682  0.00  0.00    +0.000 C 
BRANCH  41  42
ATOM     42  C28 UNL     1      20.226  -6.857 -47.483  0.00  0.00    +0.000 A 
ATOM     43  C29 UNL     1      20.578  -6.240 -46.266  0.00  0.00    +0.000 A 
ATOM     44  C30 UNL     1      19.715  -6.306 -45.166  0.00  0.00    +0.000 A 
ATOM     45  C31 UNL     1      18.495  -6.975 -45.276  0.00  0.00    +0.000 A 
ATOM     46  C32 UNL     1      18.134  -7.584 -46.482  0.00  0.00    +0.000 A 
ATOM     47  C33 UNL     1      18.992  -7.521 -47.584  0.00  0.00    +0.000 A 
ENDBRANCH  41  42
ENDBRANCH  38  41
ENDBRANCH  36  37
ENDBRANCH  33  36
ENDBRANCH  30  31
ENDBRANCH  29  30
ENDBRANCH   6  29
TORSDOF 12
ENDMDL
MODEL 4
REMARK VINA RESULT:    -6.369      4.035      7.219
REMARK INTER + INTRA:         -12.802
REMARK INTER:                 -10.111
REMARK INTRA:                  -2.692
REMARK UNBOUND:                -2.152
REMARK  Name = resultss/4CJN/ligands/lig_336_t1.pdb
REMARK  13 active torsions:
REMARK  status: ('A' for Active; 'I' for Inactive)
REMARK    1  A    between atoms: C1_1  and  O1_2
REMARK    2  A    between atoms: O1_2  and  C2_3
REMARK    3  A    between atoms: C4_5  and  C5_6
REMARK    4  A    between atoms: N2_16  and  N3_17
REMARK    5  A    between atoms: N3_17  and  C13_18
REMARK    6  A    between atoms: C21_26  and  O3_27
REMARK    7  A    between atoms: O3_27  and  C22_28
REMARK    8  A    between atoms: C22_28  and  C23_29
REMARK    9  A    between atoms: N4_31  and  C25_32
REMARK   10  A    between atoms: C25_32  and  C26_33
REMARK   11  A    between atoms: C26_33  and  O4_34
REMARK   12  A    between atoms: N5_35  and  C27_36
REMARK   13  A    between atoms: C27_36  and  C28_37
REMARK                            x       y       z     vdW  Elec       q    Type
REMARK                         _______ _______ _______ _____ _____    ______ ____
ROOT
ATOM      1  C2  UNL     1      27.208  -7.399 -33.799  0.00  0.00    +0.000 A 
ATOM      2  C3  UNL     1      28.514  -7.927 -33.815  0.00  0.00    +0.000 A 
ATOM      3  C4  UNL     1      28.757  -9.213 -34.328  0.00  0.00    +0.000 A 
ATOM      4  C19 UNL     1      27.679  -9.985 -34.792  0.00  0.00    +0.000 A 
ATOM      5  C20 UNL     1      26.384  -9.467 -34.788  0.00  0.00    +0.000 A 
ATOM      6  C21 UNL     1      26.144  -8.163 -34.305  0.00  0.00    +0.000 A 
ENDROOT
BRANCH   3   7
ATOM      7  C5  UNL     1      30.159  -9.780 -34.360  0.00  0.00    +0.000 C 
ATOM      8  N1  UNL     1      30.446 -10.427 -33.074  0.00  0.00    +0.000 N 
ATOM      9  C6  UNL     1      31.774 -10.517 -32.542  0.00  0.00    +0.000 A 
ATOM     10  C7  UNL     1      32.069 -11.450 -31.535  0.00  0.00    +0.000 A 
ATOM     11  C8  UNL     1      33.369 -11.554 -31.030  0.00  0.00    +0.000 A 
ATOM     12  C9  UNL     1      34.378 -10.719 -31.514  0.00  0.00    +0.000 A 
ATOM     13  C10 UNL     1      34.087  -9.770 -32.501  0.00  0.00    +0.000 A 
ATOM     14  C11 UNL     1      32.781  -9.669 -33.021  0.00  0.00    +0.000 A 
ATOM     15  C12 UNL     1      32.434  -8.684 -34.059  0.00  0.00    +0.000 C 
ATOM     16  O2  UNL     1      33.277  -7.819 -34.420  0.00  0.00    +0.000 OA
ATOM     17  N2  UNL     1      31.134  -8.712 -34.669  0.00  0.00    +0.000 N 
ATOM     18  H6  UNL     1      29.707 -11.045 -32.664  0.00  0.00    +0.000 HD
BRANCH  17  19
ATOM     19  N3  UNL     1      30.844  -7.773 -35.675  0.00  0.00    +0.000 N 
ATOM     20  H11 UNL     1      30.569  -6.804 -35.385  0.00  0.00    +0.000 HD
BRANCH  19  21
ATOM     21  C13 UNL     1      30.971  -8.081 -37.074  0.00  0.00    +0.000 A 
ATOM     22  C14 UNL     1      32.170  -8.594 -37.600  0.00  0.00    +0.000 A 
ATOM     23  C15 UNL     1      32.288  -8.848 -38.971  0.00  0.00    +0.000 A 
ATOM     24  C16 UNL     1      31.212  -8.590 -39.826  0.00  0.00    +0.000 A 
ATOM     25  C17 UNL     1      30.019  -8.073 -39.314  0.00  0.00    +0.000 A 
ATOM     26  C18 UNL     1      29.899  -7.818 -37.943  0.00  0.00    +0.000 A 
ENDBRANCH  19  21
ENDBRANCH  17  19
ENDBRANCH   3   7
BRANCH   1  28
ATOM     27  C1  UNL     1      26.459  -5.885 -31.955  0.00  0.00    +0.000 C 
ATOM     28  O1  UNL     1      26.931  -6.127 -33.277  0.00  0.00    +0.000 OA
ENDBRANCH   1  28
BRANCH   6  29
ATOM     29  O3  UNL     1      24.861  -7.592 -34.312  0.00  0.00    +0.000 OA
BRANCH  29  30
ATOM     30  C22 UNL     1      23.804  -7.993 -35.183  0.00  0.00    +0.000 C 
BRANCH  30  31
ATOM     31  C23 UNL     1      23.992  -7.375 -36.530  0.00  0.00    +0.000 A 
ATOM     32  C24 UNL     1      24.170  -8.039 -37.726  0.00  0.00    +0.000 A 
ATOM     33  N4  UNL     1      24.428  -7.088 -38.640  0.00  0.00    +0.000 N 
ATOM     34  N6  UNL     1      24.411  -5.908 -38.039  0.00  0.00    +0.000 NA
ATOM     35  N7  UNL     1      24.160  -6.053 -36.746  0.00  0.00    +0.000 NA
BRANCH  33  36
ATOM     36  C25 UNL     1      24.685  -7.296 -40.064  0.00  0.00    +0.000 C 
BRANCH  36  37
ATOM     37  C26 UNL     1      25.104  -8.709 -40.328  0.00  0.00    +0.000 C 
ATOM     38  N5  UNL     1      26.373  -9.000 -40.375  0.00  0.00    +0.000 NA
BRANCH  37  39
ATOM     39  O4  UNL     1      24.110  -9.684 -40.480  0.00  0.00    +0.000 OA
ATOM     40  H24 UNL     1      24.303 -10.639 -40.748  0.00  0.00    +0.000 HD
ENDBRANCH  37  39
BRANCH  38  41
ATOM     41  C27 UNL     1      26.943 -10.321 -40.624  0.00  0.00    +0.000 C 
BRANCH  41  42
ATOM     42  C28 UNL     1      28.182 -10.227 -41.481  0.00  0.00    +0.000 A 
ATOM     43  C29 UNL     1      29.186 -11.210 -41.391  0.00  0.00    +0.000 A 
ATOM     44  C30 UNL     1      30.315 -11.142 -42.215  0.00  0.00    +0.000 A 
ATOM     45  C31 UNL     1      30.444 -10.103 -43.138  0.00  0.00    +0.000 A 
ATOM     46  C32 UNL     1      29.448  -9.126 -43.239  0.00  0.00    +0.000 A 
ATOM     47  C33 UNL     1      28.317  -9.190 -42.419  0.00  0.00    +0.000 A 
ENDBRANCH  41  42
ENDBRANCH  38  41
ENDBRANCH  36  37
ENDBRANCH  33  36
ENDBRANCH  30  31
ENDBRANCH  29  30
ENDBRANCH   6  29
TORSDOF 12
ENDMDL
MODEL 5
REMARK VINA RESULT:    -6.314      3.502      9.254
REMARK INTER + INTRA:         -12.710
REMARK INTER:                  -9.337
REMARK INTRA:                  -3.374
REMARK UNBOUND:                -2.152
REMARK  Name = resultss/4CJN/ligands/lig_336_t1.pdb
REMARK  13 active torsions:
REMARK  status: ('A' for Active; 'I' for Inactive)
REMARK    1  A    between atoms: C1_1  and  O1_2
REMARK    2  A    between atoms: O1_2  and  C2_3
REMARK    3  A    between atoms: C4_5  and  C5_6
REMARK    4  A    between atoms: N2_16  and  N3_17
REMARK    5  A    between atoms: N3_17  and  C13_18
REMARK    6  A    between atoms: C21_26  and  O3_27
REMARK    7  A    between atoms: O3_27  and  C22_28
REMARK    8  A    between atoms: C22_28  and  C23_29
REMARK    9  A    between atoms: N4_31  and  C25_32
REMARK   10  A    between atoms: C25_32  and  C26_33
REMARK   11  A    between atoms: C26_33  and  O4_34
REMARK   12  A    between atoms: N5_35  and  C27_36
REMARK   13  A    between atoms: C27_36  and  C28_37
REMARK                            x       y       z     vdW  Elec       q    Type
REMARK                         _______ _______ _______ _____ _____    ______ ____
ROOT
ATOM      1  C2  UNL     1      24.388  -7.904 -36.464  0.00  0.00    +0.000 A 
ATOM      2  C3  UNL     1      24.626  -8.427 -37.751  0.00  0.00    +0.000 A 
ATOM      3  C4  UNL     1      25.876  -8.253 -38.371  0.00  0.00    +0.000 A 
ATOM      4  C19 UNL     1      26.877  -7.521 -37.711  0.00  0.00    +0.000 A 
ATOM      5  C20 UNL     1      26.652  -7.008 -36.434  0.00  0.00    +0.000 A 
ATOM      6  C21 UNL     1      25.411  -7.210 -35.797  0.00  0.00    +0.000 A 
ENDROOT
BRANCH   3   7
ATOM      7  C5  UNL     1      26.141  -8.824 -39.747  0.00  0.00    +0.000 C 
ATOM      8  N1  UNL     1      27.338  -9.672 -39.693  0.00  0.00    +0.000 N 
ATOM      9  C6  UNL     1      28.193  -9.861 -40.828  0.00  0.00    +0.000 A 
ATOM     10  C7  UNL     1      29.082 -10.947 -40.868  0.00  0.00    +0.000 A 
ATOM     11  C8  UNL     1      29.902 -11.144 -41.984  0.00  0.00    +0.000 A 
ATOM     12  C9  UNL     1      29.851 -10.254 -43.059  0.00  0.00    +0.000 A 
ATOM     13  C10 UNL     1      28.984  -9.157 -43.016  0.00  0.00    +0.000 A 
ATOM     14  C11 UNL     1      28.148  -8.958 -41.899  0.00  0.00    +0.000 A 
ATOM     15  C12 UNL     1      27.223  -7.816 -41.815  0.00  0.00    +0.000 C 
ATOM     16  O2  UNL     1      27.248  -6.914 -42.695  0.00  0.00    +0.000 OA
ATOM     17  N2  UNL     1      26.283  -7.731 -40.732  0.00  0.00    +0.000 N 
ATOM     18  H6  UNL     1      27.427 -10.339 -38.892  0.00  0.00    +0.000 HD
BRANCH  17  19
ATOM     19  N3  UNL     1      25.398  -6.639 -40.697  0.00  0.00    +0.000 N 
ATOM     20  H11 UNL     1      25.756  -5.721 -40.343  0.00  0.00    +0.000 HD
BRANCH  19  21
ATOM     21  C13 UNL     1      24.046  -6.729 -41.183  0.00  0.00    +0.000 A 
ATOM     22  C14 UNL     1      23.714  -7.576 -42.255  0.00  0.00    +0.000 A 
ATOM     23  C15 UNL     1      22.403  -7.619 -42.741  0.00  0.00    +0.000 A 
ATOM     24  C16 UNL     1      21.415  -6.815 -42.163  0.00  0.00    +0.000 A 
ATOM     25  C17 UNL     1      21.737  -5.965 -41.101  0.00  0.00    +0.000 A 
ATOM     26  C18 UNL     1      23.048  -5.920 -40.614  0.00  0.00    +0.000 A 
ENDBRANCH  19  21
ENDBRANCH  17  19
ENDBRANCH   3   7
BRANCH   1  28
ATOM     27  C1  UNL     1      22.103  -7.077 -35.876  0.00  0.00    +0.000 C 
ATOM     28  O1  UNL     1      23.147  -8.044 -35.827  0.00  0.00    +0.000 OA
ENDBRANCH   1  28
BRANCH   6  29
ATOM     29  O3  UNL     1      25.154  -6.737 -34.500  0.00  0.00    +0.000 OA
BRANCH  29  30
ATOM     30  C22 UNL     1      25.411  -7.477 -33.306  0.00  0.00    +0.000 C 
BRANCH  30  31
ATOM     31  C23 UNL     1      26.808  -7.223 -32.841  0.00  0.00    +0.000 A 
ATOM     32  C24 UNL     1      27.922  -7.991 -33.113  0.00  0.00    +0.000 A 
ATOM     33  N4  UNL     1      28.920  -7.462 -32.386  0.00  0.00    +0.000 N 
ATOM     34  N6  UNL     1      28.446  -6.429 -31.705  0.00  0.00    +0.000 NA
ATOM     35  N7  UNL     1      27.154  -6.267 -31.953  0.00  0.00    +0.000 NA
BRANCH  33  36
ATOM     36  C25 UNL     1      30.305  -7.928 -32.340  0.00  0.00    +0.000 C 
BRANCH  36  37
ATOM     37  C26 UNL     1      30.540  -8.998 -33.360  0.00  0.00    +0.000 C 
ATOM     38  N5  UNL     1      30.873  -8.659 -34.574  0.00  0.00    +0.000 NA
BRANCH  37  39
ATOM     39  O4  UNL     1      30.431 -10.336 -32.963  0.00  0.00    +0.000 OA
ATOM     40  H24 UNL     1      31.051 -11.066 -33.287  0.00  0.00    +0.000 HD
ENDBRANCH  37  39
BRANCH  38  41
ATOM     41  C27 UNL     1      31.133  -9.576 -35.681  0.00  0.00    +0.000 C 
BRANCH  41  42
ATOM     42  C28 UNL     1      31.011  -8.872 -37.010  0.00  0.00    +0.000 A 
ATOM     43  C29 UNL     1      30.485  -7.568 -37.079  0.00  0.00    +0.000 A 
ATOM     44  C30 UNL     1      30.410  -6.902 -38.307  0.00  0.00    +0.000 A 
ATOM     45  C31 UNL     1      30.868  -7.526 -39.469  0.00  0.00    +0.000 A 
ATOM     46  C32 UNL     1      31.398  -8.819 -39.409  0.00  0.00    +0.000 A 
ATOM     47  C33 UNL     1      31.477  -9.488 -38.183  0.00  0.00    +0.000 A 
ENDBRANCH  41  42
ENDBRANCH  38  41
ENDBRANCH  36  37
ENDBRANCH  33  36
ENDBRANCH  30  31
ENDBRANCH  29  30
ENDBRANCH   6  29
TORSDOF 12
ENDMDL
MODEL 6
REMARK VINA RESULT:    -6.232      3.362     10.405
REMARK INTER + INTRA:         -12.573
REMARK INTER:                  -9.445
REMARK INTRA:                  -3.129
REMARK UNBOUND:                -2.152
REMARK  Name = resultss/4CJN/ligands/lig_336_t1.pdb
REMARK  13 active torsions:
REMARK  status: ('A' for Active; 'I' for Inactive)
REMARK    1  A    between atoms: C1_1  and  O1_2
REMARK    2  A    between atoms: O1_2  and  C2_3
REMARK    3  A    between atoms: C4_5  and  C5_6
REMARK    4  A    between atoms: N2_16  and  N3_17
REMARK    5  A    between atoms: N3_17  and  C13_18
REMARK    6  A    between atoms: C21_26  and  O3_27
REMARK    7  A    between atoms: O3_27  and  C22_28
REMARK    8  A    between atoms: C22_28  and  C23_29
REMARK    9  A    between atoms: N4_31  and  C25_32
REMARK   10  A    between atoms: C25_32  and  C26_33
REMARK   11  A    between atoms: C26_33  and  O4_34
REMARK   12  A    between atoms: N5_35  and  C27_36
REMARK   13  A    between atoms: C27_36  and  C28_37
REMARK                            x       y       z     vdW  Elec       q    Type
REMARK                         _______ _______ _______ _____ _____    ______ ____
ROOT
ATOM      1  C2  UNL     1      24.911  -7.919 -36.019  0.00  0.00    +0.000 A 
ATOM      2  C3  UNL     1      24.646  -7.796 -37.397  0.00  0.00    +0.000 A 
ATOM      3  C4  UNL     1      25.654  -7.374 -38.281  0.00  0.00    +0.000 A 
ATOM      4  C19 UNL     1      26.920  -7.038 -37.774  0.00  0.00    +0.000 A 
ATOM      5  C20 UNL     1      27.192  -7.164 -36.413  0.00  0.00    +0.000 A 
ATOM      6  C21 UNL     1      26.193  -7.621 -35.529  0.00  0.00    +0.000 A 
ENDROOT
BRANCH   3   7
ATOM      7  C5  UNL     1      25.379  -7.253 -39.764  0.00  0.00    +0.000 C 
ATOM      8  N1  UNL     1      24.078  -6.603 -39.961  0.00  0.00    +0.000 N 
ATOM      9  C6  UNL     1      23.260  -6.861 -41.110  0.00  0.00    +0.000 A 
ATOM     10  C7  UNL     1      22.235  -5.967 -41.461  0.00  0.00    +0.000 A 
ATOM     11  C8  UNL     1      21.450  -6.206 -42.594  0.00  0.00    +0.000 A 
ATOM     12  C9  UNL     1      21.670  -7.344 -43.372  0.00  0.00    +0.000 A 
ATOM     13  C10 UNL     1      22.674  -8.252 -43.015  0.00  0.00    +0.000 A 
ATOM     14  C11 UNL     1      23.475  -8.010 -41.881  0.00  0.00    +0.000 A 
ATOM     15  C12 UNL     1      24.540  -8.940 -41.472  0.00  0.00    +0.000 C 
ATOM     16  O2  UNL     1      24.678 -10.046 -42.061  0.00  0.00    +0.000 OA
ATOM     17  N2  UNL     1      25.431  -8.585 -40.402  0.00  0.00    +0.000 N 
ATOM     18  H6  UNL     1      23.863  -5.758 -39.382  0.00  0.00    +0.000 HD
BRANCH  17  19
ATOM     19  N3  UNL     1      26.452  -9.487 -40.053  0.00  0.00    +0.000 N 
ATOM     20  H11 UNL     1      26.316 -10.089 -39.208  0.00  0.00    +0.000 HD
BRANCH  19  21
ATOM     21  C13 UNL     1      27.641  -9.648 -40.849  0.00  0.00    +0.000 A 
ATOM     22  C14 UNL     1      28.074  -8.635 -41.722  0.00  0.00    +0.000 A 
ATOM     23  C15 UNL     1      29.208  -8.826 -42.519  0.00  0.00    +0.000 A 
ATOM     24  C16 UNL     1      29.916 -10.030 -42.451  0.00  0.00    +0.000 A 
ATOM     25  C17 UNL     1      29.489 -11.046 -41.592  0.00  0.00    +0.000 A 
ATOM     26  C18 UNL     1      28.355 -10.857 -40.794  0.00  0.00    +0.000 A 
ENDBRANCH  19  21
ENDBRANCH  17  19
ENDBRANCH   3   7
BRANCH   1  28
ATOM     27  C1  UNL     1      22.608  -7.775 -35.055  0.00  0.00    +0.000 C 
ATOM     28  O1  UNL     1      23.922  -8.320 -35.108  0.00  0.00    +0.000 OA
ENDBRANCH   1  28
BRANCH   6  29
ATOM     29  O3  UNL     1      26.435  -7.792 -34.156  0.00  0.00    +0.000 OA
BRANCH  29  30
ATOM     30  C22 UNL     1      27.107  -8.916 -33.590  0.00  0.00    +0.000 C 
BRANCH  30  31
ATOM     31  C23 UNL     1      28.484  -8.524 -33.163  0.00  0.00    +0.000 A 
ATOM     32  C24 UNL     1      29.567  -9.362 -32.993  0.00  0.00    +0.000 A 
ATOM     33  N4  UNL     1      30.547  -8.600 -32.480  0.00  0.00    +0.000 N 
ATOM     34  N6  UNL     1      30.091  -7.363 -32.342  0.00  0.00    +0.000 NA
ATOM     35  N7  UNL     1      28.829  -7.290 -32.739  0.00  0.00    +0.000 NA
BRANCH  33  36
ATOM     36  C25 UNL     1      31.897  -9.036 -32.128  0.00  0.00    +0.000 C 
BRANCH  36  37
ATOM     37  C26 UNL     1      32.611  -9.575 -33.328  0.00  0.00    +0.000 C 
ATOM     38  N5  UNL     1      32.611  -8.885 -34.433  0.00  0.00    +0.000 NA
BRANCH  37  39
ATOM     39  O4  UNL     1      33.292 -10.793 -33.211  0.00  0.00    +0.000 OA
ATOM     40  H24 UNL     1      34.268 -10.911 -33.446  0.00  0.00    +0.000 HD
ENDBRANCH  37  39
BRANCH  38  41
ATOM     41  C27 UNL     1      33.254  -9.269 -35.687  0.00  0.00    +0.000 C 
BRANCH  41  42
ATOM     42  C28 UNL     1      32.333  -9.050 -36.861  0.00  0.00    +0.000 A 
ATOM     43  C29 UNL     1      31.019  -9.558 -36.840  0.00  0.00    +0.000 A 
ATOM     44  C30 UNL     1      30.154  -9.320 -37.913  0.00  0.00    +0.000 A 
ATOM     45  C31 UNL     1      30.587  -8.567 -39.005  0.00  0.00    +0.000 A 
ATOM     46  C32 UNL     1      31.887  -8.052 -39.032  0.00  0.00    +0.000 A 
ATOM     47  C33 UNL     1      32.756  -8.286 -37.962  0.00  0.00    +0.000 A 
ENDBRANCH  41  42
ENDBRANCH  38  41
ENDBRANCH  36  37
ENDBRANCH  33  36
ENDBRANCH  30  31
ENDBRANCH  29  30
ENDBRANCH   6  29
TORSDOF 12
ENDMDL
MODEL 7
REMARK VINA RESULT:    -6.030      4.997      8.422
REMARK INTER + INTRA:         -12.235
REMARK INTER:                  -8.179
REMARK INTRA:                  -4.057
REMARK UNBOUND:                -2.152
REMARK  Name = resultss/4CJN/ligands/lig_336_t1.pdb
REMARK  13 active torsions:
REMARK  status: ('A' for Active; 'I' for Inactive)
REMARK    1  A    between atoms: C1_1  and  O1_2
REMARK    2  A    between atoms: O1_2  and  C2_3
REMARK    3  A    between atoms: C4_5  and  C5_6
REMARK    4  A    between atoms: N2_16  and  N3_17
REMARK    5  A    between atoms: N3_17  and  C13_18
REMARK    6  A    between atoms: C21_26  and  O3_27
REMARK    7  A    between atoms: O3_27  and  C22_28
REMARK    8  A    between atoms: C22_28  and  C23_29
REMARK    9  A    between atoms: N4_31  and  C25_32
REMARK   10  A    between atoms: C25_32  and  C26_33
REMARK   11  A    between atoms: C26_33  and  O4_34
REMARK   12  A    between atoms: N5_35  and  C27_36
REMARK   13  A    between atoms: C27_36  and  C28_37
REMARK                            x       y       z     vdW  Elec       q    Type
REMARK                         _______ _______ _______ _____ _____    ______ ____
ROOT
ATOM      1  C2  UNL     1      31.029  -6.624 -35.932  0.00  0.00    +0.000 A 
ATOM      2  C3  UNL     1      29.669  -6.919 -35.713  0.00  0.00    +0.000 A 
ATOM      3  C4  UNL     1      28.723  -6.719 -36.733  0.00  0.00    +0.000 A 
ATOM      4  C19 UNL     1      29.138  -6.184 -37.964  0.00  0.00    +0.000 A 
ATOM      5  C20 UNL     1      30.483  -5.896 -38.191  0.00  0.00    +0.000 A 
ATOM      6  C21 UNL     1      31.440  -6.130 -37.181  0.00  0.00    +0.000 A 
ENDROOT
BRANCH   3   7
ATOM      7  C5  UNL     1      27.263  -7.047 -36.508  0.00  0.00    +0.000 C 
ATOM      8  N1  UNL     1      26.775  -6.297 -35.344  0.00  0.00    +0.000 N 
ATOM      9  C6  UNL     1      25.713  -6.782 -34.513  0.00  0.00    +0.000 A 
ATOM     10  C7  UNL     1      25.021  -5.900 -33.667  0.00  0.00    +0.000 A 
ATOM     11  C8  UNL     1      23.970  -6.367 -32.870  0.00  0.00    +0.000 A 
ATOM     12  C9  UNL     1      23.614  -7.716 -32.900  0.00  0.00    +0.000 A 
ATOM     13  C10 UNL     1      24.314  -8.606 -33.723  0.00  0.00    +0.000 A 
ATOM     14  C11 UNL     1      25.366  -8.139 -34.536  0.00  0.00    +0.000 A 
ATOM     15  C12 UNL     1      26.127  -9.042 -35.414  0.00  0.00    +0.000 C 
ATOM     16  O2  UNL     1      25.933 -10.287 -35.366  0.00  0.00    +0.000 OA
ATOM     17  N2  UNL     1      27.089  -8.505 -36.336  0.00  0.00    +0.000 N 
ATOM     18  H6  UNL     1      27.037  -5.287 -35.271  0.00  0.00    +0.000 HD
BRANCH  17  19
ATOM     19  N3  UNL     1      27.781  -9.395 -37.178  0.00  0.00    +0.000 N 
ATOM     20  H11 UNL     1      28.638  -9.867 -36.805  0.00  0.00    +0.000 HD
BRANCH  19  21
ATOM     21  C13 UNL     1      27.318  -9.717 -38.502  0.00  0.00    +0.000 A 
ATOM     22  C14 UNL     1      26.416  -8.880 -39.181  0.00  0.00    +0.000 A 
ATOM     23  C15 UNL     1      25.944  -9.231 -40.450  0.00  0.00    +0.000 A 
ATOM     24  C16 UNL     1      26.368 -10.422 -41.050  0.00  0.00    +0.000 A 
ATOM     25  C17 UNL     1      27.260 -11.264 -40.380  0.00  0.00    +0.000 A 
ATOM     26  C18 UNL     1      27.732 -10.914 -39.110  0.00  0.00    +0.000 A 
ENDBRANCH  19  21
ENDBRANCH  17  19
ENDBRANCH   3   7
BRANCH   1  28
ATOM     27  C1  UNL     1      31.710  -7.232 -33.604  0.00  0.00    +0.000 C 
ATOM     28  O1  UNL     1      31.994  -6.795 -34.929  0.00  0.00    +0.000 OA
ENDBRANCH   1  28
BRANCH   6  29
ATOM     29  O3  UNL     1      32.807  -5.883 -37.380  0.00  0.00    +0.000 OA
BRANCH  29  30
ATOM     30  C22 UNL     1      33.450  -5.885 -38.654  0.00  0.00    +0.000 C 
BRANCH  30  31
ATOM     31  C23 UNL     1      33.801  -7.283 -39.045  0.00  0.00    +0.000 A 
ATOM     32  C24 UNL     1      33.974  -7.764 -40.327  0.00  0.00    +0.000 A 
ATOM     33  N4  UNL     1      34.147  -9.090 -40.203  0.00  0.00    +0.000 N 
ATOM     34  N6  UNL     1      34.082  -9.407 -38.918  0.00  0.00    +0.000 NA
ATOM     35  N7  UNL     1      33.858  -8.324 -38.187  0.00  0.00    +0.000 NA
BRANCH  33  36
ATOM     36  C25 UNL     1      34.372 -10.045 -41.287  0.00  0.00    +0.000 C 
BRANCH  36  37
ATOM     37  C26 UNL     1      33.072 -10.568 -41.814  0.00  0.00    +0.000 C 
ATOM     38  N5  UNL     1      31.956 -10.052 -41.383  0.00  0.00    +0.000 NA
BRANCH  37  39
ATOM     39  O4  UNL     1      33.101 -11.575 -42.785  0.00  0.00    +0.000 OA
ATOM     40  H24 UNL     1      33.645 -11.515 -43.635  0.00  0.00    +0.000 HD
ENDBRANCH  37  39
BRANCH  38  41
ATOM     41  C27 UNL     1      30.611 -10.449 -41.793  0.00  0.00    +0.000 C 
BRANCH  41  42
ATOM     42  C28 UNL     1      29.764  -9.245 -42.121  0.00  0.00    +0.000 A 
ATOM     43  C29 UNL     1      29.076  -9.172 -43.348  0.00  0.00    +0.000 A 
ATOM     44  C30 UNL     1      28.259  -8.072 -43.635  0.00  0.00    +0.000 A 
ATOM     45  C31 UNL     1      28.116  -7.047 -42.698  0.00  0.00    +0.000 A 
ATOM     46  C32 UNL     1      28.790  -7.114 -41.475  0.00  0.00    +0.000 A 
ATOM     47  C33 UNL     1      29.606  -8.211 -41.183  0.00  0.00    +0.000 A 
ENDBRANCH  41  42
ENDBRANCH  38  41
ENDBRANCH  36  37
ENDBRANCH  33  36
ENDBRANCH  30  31
ENDBRANCH  29  30
ENDBRANCH   6  29
TORSDOF 12
ENDMDL
MODEL 8
REMARK VINA RESULT:    -5.958      2.793      4.519
REMARK INTER + INTRA:         -12.116
REMARK INTER:                 -10.199
REMARK INTRA:                  -1.917
REMARK UNBOUND:                -2.152
REMARK  Name = resultss/4CJN/ligands/lig_336_t1.pdb
REMARK  13 active torsions:
REMARK  status: ('A' for Active; 'I' for Inactive)
REMARK    1  A    between atoms: C1_1  and  O1_2
REMARK    2  A    between atoms: O1_2  and  C2_3
REMARK    3  A    between atoms: C4_5  and  C5_6
REMARK    4  A    between atoms: N2_16  and  N3_17
REMARK    5  A    between atoms: N3_17  and  C13_18
REMARK    6  A    between atoms: C21_26  and  O3_27
REMARK    7  A    between atoms: O3_27  and  C22_28
REMARK    8  A    between atoms: C22_28  and  C23_29
REMARK    9  A    between atoms: N4_31  and  C25_32
REMARK   10  A    between atoms: C25_32  and  C26_33
REMARK   11  A    between atoms: C26_33  and  O4_34
REMARK   12  A    between atoms: N5_35  and  C27_36
REMARK   13  A    between atoms: C27_36  and  C28_37
REMARK                            x       y       z     vdW  Elec       q    Type
REMARK                         _______ _______ _______ _____ _____    ______ ____
ROOT
ATOM      1  C2  UNL     1      29.048  -7.977 -38.980  0.00  0.00    +0.000 A 
ATOM      2  C3  UNL     1      29.760  -7.552 -37.842  0.00  0.00    +0.000 A 
ATOM      3  C4  UNL     1      30.057  -8.455 -36.807  0.00  0.00    +0.000 A 
ATOM      4  C19 UNL     1      29.603  -9.782 -36.900  0.00  0.00    +0.000 A 
ATOM      5  C20 UNL     1      28.905 -10.213 -38.026  0.00  0.00    +0.000 A 
ATOM      6  C21 UNL     1      28.637  -9.316 -39.082  0.00  0.00    +0.000 A 
ENDROOT
BRANCH   3   7
ATOM      7  C5  UNL     1      30.833  -8.007 -35.588  0.00  0.00    +0.000 C 
ATOM      8  N1  UNL     1      31.912  -8.966 -35.326  0.00  0.00    +0.000 N 
ATOM      9  C6  UNL     1      32.422  -9.203 -34.007  0.00  0.00    +0.000 A 
ATOM     10  C7  UNL     1      33.674  -9.813 -33.833  0.00  0.00    +0.000 A 
ATOM     11  C8  UNL     1      34.182 -10.025 -32.547  0.00  0.00    +0.000 A 
ATOM     12  C9  UNL     1      33.438  -9.645 -31.428  0.00  0.00    +0.000 A 
ATOM     13  C10 UNL     1      32.179  -9.058 -31.592  0.00  0.00    +0.000 A 
ATOM     14  C11 UNL     1      31.667  -8.832 -32.886  0.00  0.00    +0.000 A 
ATOM     15  C12 UNL     1      30.346  -8.218 -33.101  0.00  0.00    +0.000 C 
ATOM     16  O2  UNL     1      29.585  -7.991 -32.123  0.00  0.00    +0.000 OA
ATOM     17  N2  UNL     1      29.926  -7.867 -34.429  0.00  0.00    +0.000 N 
ATOM     18  H6  UNL     1      32.481  -9.294 -36.141  0.00  0.00    +0.000 HD
BRANCH  17  19
ATOM     19  N3  UNL     1      28.668  -7.260 -34.596  0.00  0.00    +0.000 N 
ATOM     20  H11 UNL     1      28.635  -6.284 -34.976  0.00  0.00    +0.000 HD
BRANCH  19  21
ATOM     21  C13 UNL     1      27.438  -7.952 -34.320  0.00  0.00    +0.000 A 
ATOM     22  C14 UNL     1      26.373  -7.309 -33.663  0.00  0.00    +0.000 A 
ATOM     23  C15 UNL     1      25.200  -8.011 -33.364  0.00  0.00    +0.000 A 
ATOM     24  C16 UNL     1      25.082  -9.359 -33.718  0.00  0.00    +0.000 A 
ATOM     25  C17 UNL     1      26.136 -10.008 -34.366  0.00  0.00    +0.000 A 
ATOM     26  C18 UNL     1      27.311  -9.308 -34.664  0.00  0.00    +0.000 A 
ENDBRANCH  19  21
ENDBRANCH  17  19
ENDBRANCH   3   7
BRANCH   1  28
ATOM     27  C1  UNL     1      27.623  -6.190 -39.993  0.00  0.00    +0.000 C 
ATOM     28  O1  UNL     1      28.721  -7.096 -40.021  0.00  0.00    +0.000 OA
ENDBRANCH   1  28
BRANCH   6  29
ATOM     29  O3  UNL     1      27.964  -9.718 -40.247  0.00  0.00    +0.000 OA
BRANCH  29  30
ATOM     30  C22 UNL     1      26.771 -10.500 -40.260  0.00  0.00    +0.000 C 
BRANCH  30  31
ATOM     31  C23 UNL     1      25.742  -9.843 -41.122  0.00  0.00    +0.000 A 
ATOM     32  C24 UNL     1      25.071  -8.667 -40.858  0.00  0.00    +0.000 A 
ATOM     33  N4  UNL     1      24.158  -8.536 -41.834  0.00  0.00    +0.000 N 
ATOM     34  N6  UNL     1      24.261  -9.574 -42.651  0.00  0.00    +0.000 NA
ATOM     35  N7  UNL     1      25.212 -10.397 -42.233  0.00  0.00    +0.000 NA
BRANCH  33  36
ATOM     36  C25 UNL     1      23.202  -7.441 -41.992  0.00  0.00    +0.000 C 
BRANCH  36  37
ATOM     37  C26 UNL     1      22.963  -7.150 -43.441  0.00  0.00    +0.000 C 
ATOM     38  N5  UNL     1      23.777  -6.354 -44.074  0.00  0.00    +0.000 NA
BRANCH  37  39
ATOM     39  O4  UNL     1      21.886  -7.776 -44.081  0.00  0.00    +0.000 OA
ATOM     40  H24 UNL     1      21.009  -7.313 -44.277  0.00  0.00    +0.000 HD
ENDBRANCH  37  39
BRANCH  38  41
ATOM     41  C27 UNL     1      23.682  -5.967 -45.480  0.00  0.00    +0.000 C 
BRANCH  41  42
ATOM     42  C28 UNL     1      24.923  -6.365 -46.239  0.00  0.00    +0.000 A 
ATOM     43  C29 UNL     1      24.939  -6.329 -47.647  0.00  0.00    +0.000 A 
ATOM     44  C30 UNL     1      26.104  -6.661 -48.348  0.00  0.00    +0.000 A 
ATOM     45  C31 UNL     1      27.260  -7.018 -47.651  0.00  0.00    +0.000 A 
ATOM     46  C32 UNL     1      27.255  -7.051 -46.253  0.00  0.00    +0.000 A 
ATOM     47  C33 UNL     1      26.094  -6.719 -45.548  0.00  0.00    +0.000 A 
ENDBRANCH  41  42
ENDBRANCH  38  41
ENDBRANCH  36  37
ENDBRANCH  33  36
ENDBRANCH  30  31
ENDBRANCH  29  30
ENDBRANCH   6  29
TORSDOF 12
ENDMDL
