MODEL 1
REMARK VINA RESULT:    -5.829      0.000      0.000
REMARK INTER + INTRA:          -6.170
REMARK INTER:                  -6.170
REMARK INTRA:                   0.000
REMARK UNBOUND:                 0.000
REMARK  Name = resultss/4CJN/ligands/lig_360_t0.pdb
REMARK  2 active torsions:
REMARK  status: ('A' for Active; 'I' for Inactive)
REMARK    1  A    between atoms: C4_6  and  O3_7
REMARK    2  A    between atoms: C11_15  and  O5_16
REMARK                            x       y       z     vdW  Elec       q    Type
REMARK                         _______ _______ _______ _____ _____    ______ ____
ROOT
ATOM      1  O1  UNL     1      30.723  -9.724 -39.861  0.00  0.00    +0.000 OA
ATOM      2  C1  UNL     1      29.870  -9.727 -38.935  0.00  0.00    +0.000 A 
ATOM      3  O2  UNL     1      30.265  -9.750 -37.659  0.00  0.00    +0.000 OA
ATOM      4  C2  UNL     1      29.404  -9.754 -36.630  0.00  0.00    +0.000 A 
ATOM      5  C3  UNL     1      29.882  -9.780 -35.316  0.00  0.00    +0.000 A 
ATOM      6  C4  UNL     1      28.983  -9.783 -34.238  0.00  0.00    +0.000 A 
ATOM      7  C5  UNL     1      27.603  -9.761 -34.475  0.00  0.00    +0.000 A 
ATOM      8  C6  UNL     1      27.108  -9.736 -35.783  0.00  0.00    +0.000 A 
ATOM      9  C7  UNL     1      28.002  -9.732 -36.861  0.00  0.00    +0.000 A 
ATOM     10  C8  UNL     1      27.585  -9.706 -38.188  0.00  0.00    +0.000 A 
ATOM     11  O4  UNL     1      26.351  -9.684 -38.656  0.00  0.00    +0.000 OA
ATOM     12  C9  UNL     1      26.449  -9.665 -39.971  0.00  0.00    +0.000 A 
ATOM     13  C10 UNL     1      25.408  -9.638 -40.896  0.00  0.00    +0.000 A 
ATOM     14  C11 UNL     1      25.741  -9.623 -42.268  0.00  0.00    +0.000 A 
ATOM     15  C12 UNL     1      27.097  -9.635 -42.672  0.00  0.00    +0.000 A 
ATOM     16  C13 UNL     1      28.130  -9.663 -41.718  0.00  0.00    +0.000 A 
ATOM     17  C14 UNL     1      27.768  -9.678 -40.373  0.00  0.00    +0.000 A 
ATOM     18  C15 UNL     1      28.503  -9.705 -39.210  0.00  0.00    +0.000 A 
ENDROOT
BRANCH   6  19
ATOM     19  O3  UNL     1      29.452  -9.808 -32.926  0.00  0.00    +0.000 OA
ATOM     20  H2  UNL     1      29.085 -10.462 -32.245  0.00  0.00    +0.000 HD
ENDBRANCH   6  19
BRANCH  14  21
ATOM     21  O5  UNL     1      24.740  -9.595 -43.236  0.00  0.00    +0.000 OA
ATOM     22  H6  UNL     1      24.796  -8.976 -44.036  0.00  0.00    +0.000 HD
ENDBRANCH  14  21
TORSDOF 2
ENDMDL
MODEL 2
REMARK VINA RESULT:    -5.732      2.907      3.803
REMARK INTER + INTRA:          -6.067
REMARK INTER:                  -6.067
REMARK INTRA:                   0.000
REMARK UNBOUND:                 0.000
REMARK  Name = resultss/4CJN/ligands/lig_360_t0.pdb
REMARK  2 active torsions:
REMARK  status: ('A' for Active; 'I' for Inactive)
REMARK    1  A    between atoms: C4_6  and  O3_7
REMARK    2  A    between atoms: C11_15  and  O5_16
REMARK                            x       y       z     vdW  Elec       q    Type
REMARK                         _______ _______ _______ _____ _____    ______ ____
ROOT
ATOM      1  O1  UNL     1      28.465 -10.021 -35.943  0.00  0.00    +0.000 OA
ATOM      2  C1  UNL     1      27.313  -9.512 -35.933  0.00  0.00    +0.000 A 
ATOM      3  O2  UNL     1      26.724  -9.206 -34.773  0.00  0.00    +0.000 OA
ATOM      4  C2  UNL     1      25.500  -8.662 -34.699  0.00  0.00    +0.000 A 
ATOM      5  C3  UNL     1      24.939  -8.366 -33.453  0.00  0.00    +0.000 A 
ATOM      6  C4  UNL     1      23.659  -7.796 -33.373  0.00  0.00    +0.000 A 
ATOM      7  C5  UNL     1      22.938  -7.523 -34.542  0.00  0.00    +0.000 A 
ATOM      8  C6  UNL     1      23.484  -7.814 -35.796  0.00  0.00    +0.000 A 
ATOM      9  C7  UNL     1      24.761  -8.382 -35.879  0.00  0.00    +0.000 A 
ATOM     10  C8  UNL     1      25.370  -8.697 -37.090  0.00  0.00    +0.000 A 
ATOM     11  O4  UNL     1      24.894  -8.534 -38.310  0.00  0.00    +0.000 OA
ATOM     12  C9  UNL     1      25.822  -8.977 -39.137  0.00  0.00    +0.000 A 
ATOM     13  C10 UNL     1      25.770  -9.007 -40.528  0.00  0.00    +0.000 A 
ATOM     14  C11 UNL     1      26.884  -9.527 -41.222  0.00  0.00    +0.000 A 
ATOM     15  C12 UNL     1      28.011  -9.998 -40.508  0.00  0.00    +0.000 A 
ATOM     16  C13 UNL     1      28.040  -9.957 -39.103  0.00  0.00    +0.000 A 
ATOM     17  C14 UNL     1      26.924  -9.438 -38.448  0.00  0.00    +0.000 A 
ATOM     18  C15 UNL     1      26.626  -9.254 -37.118  0.00  0.00    +0.000 A 
ENDROOT
BRANCH   6  19
ATOM     19  O3  UNL     1      23.093  -7.498 -32.134  0.00  0.00    +0.000 OA
ATOM     20  H2  UNL     1      22.208  -7.897 -31.846  0.00  0.00    +0.000 HD
ENDBRANCH   6  19
BRANCH  14  21
ATOM     21  O5  UNL     1      26.885  -9.582 -42.614  0.00  0.00    +0.000 OA
ATOM     22  H6  UNL     1      26.661 -10.438 -43.109  0.00  0.00    +0.000 HD
ENDBRANCH  14  21
TORSDOF 2
ENDMDL
MODEL 3
REMARK VINA RESULT:    -5.719      2.970      4.442
REMARK INTER + INTRA:          -6.053
REMARK INTER:                  -6.053
REMARK INTRA:                   0.000
REMARK UNBOUND:                 0.000
REMARK  Name = resultss/4CJN/ligands/lig_360_t0.pdb
REMARK  2 active torsions:
REMARK  status: ('A' for Active; 'I' for Inactive)
REMARK    1  A    between atoms: C4_6  and  O3_7
REMARK    2  A    between atoms: C11_15  and  O5_16
REMARK                            x       y       z     vdW  Elec       q    Type
REMARK                         _______ _______ _______ _____ _____    ______ ____
ROOT
ATOM      1  O1  UNL     1      24.250  -6.848 -39.064  0.00  0.00    +0.000 OA
ATOM      2  C1  UNL     1      24.568  -7.443 -38.002  0.00  0.00    +0.000 A 
ATOM      3  O2  UNL     1      23.948  -7.147 -36.855  0.00  0.00    +0.000 OA
ATOM      4  C2  UNL     1      24.244  -7.747 -35.692  0.00  0.00    +0.000 A 
ATOM      5  C3  UNL     1      23.558  -7.391 -34.526  0.00  0.00    +0.000 A 
ATOM      6  C4  UNL     1      23.864  -8.018 -33.308  0.00  0.00    +0.000 A 
ATOM      7  C5  UNL     1      24.859  -9.002 -33.256  0.00  0.00    +0.000 A 
ATOM      8  C6  UNL     1      25.554  -9.370 -34.412  0.00  0.00    +0.000 A 
ATOM      9  C7  UNL     1      25.251  -8.747 -35.629  0.00  0.00    +0.000 A 
ATOM     10  C8  UNL     1      25.898  -9.060 -36.821  0.00  0.00    +0.000 A 
ATOM     11  O4  UNL     1      26.859  -9.943 -37.019  0.00  0.00    +0.000 OA
ATOM     12  C9  UNL     1      27.157  -9.889 -38.303  0.00  0.00    +0.000 A 
ATOM     13  C10 UNL     1      28.113 -10.641 -38.982  0.00  0.00    +0.000 A 
ATOM     14  C11 UNL     1      28.269 -10.420 -40.367  0.00  0.00    +0.000 A 
ATOM     15  C12 UNL     1      27.468  -9.461 -41.031  0.00  0.00    +0.000 A 
ATOM     16  C13 UNL     1      26.509  -8.714 -40.323  0.00  0.00    +0.000 A 
ATOM     17  C14 UNL     1      26.380  -8.955 -38.957  0.00  0.00    +0.000 A 
ATOM     18  C15 UNL     1      25.564  -8.418 -37.989  0.00  0.00    +0.000 A 
ENDROOT
BRANCH   6  19
ATOM     19  O3  UNL     1      23.185  -7.668 -32.143  0.00  0.00    +0.000 OA
ATOM     20  H2  UNL     1      23.673  -7.295 -31.337  0.00  0.00    +0.000 HD
ENDBRANCH   6  19
BRANCH  14  21
ATOM     21  O5  UNL     1      29.211 -11.145 -41.094  0.00  0.00    +0.000 OA
ATOM     22  H6  UNL     1      29.231 -12.158 -41.071  0.00  0.00    +0.000 HD
ENDBRANCH  14  21
TORSDOF 2
ENDMDL
MODEL 4
REMARK VINA RESULT:    -5.706      1.933      3.472
REMARK INTER + INTRA:          -6.039
REMARK INTER:                  -6.039
REMARK INTRA:                   0.000
REMARK UNBOUND:                 0.000
REMARK  Name = resultss/4CJN/ligands/lig_360_t0.pdb
REMARK  2 active torsions:
REMARK  status: ('A' for Active; 'I' for Inactive)
REMARK    1  A    between atoms: C4_6  and  O3_7
REMARK    2  A    between atoms: C11_15  and  O5_16
REMARK                            x       y       z     vdW  Elec       q    Type
REMARK                         _______ _______ _______ _____ _____    ______ ____
ROOT
ATOM      1  O1  UNL     1      24.531  -8.154 -39.943  0.00  0.00    +0.000 OA
ATOM      2  C1  UNL     1      25.247  -8.533 -38.980  0.00  0.00    +0.000 A 
ATOM      3  O2  UNL     1      24.821  -8.375 -37.722  0.00  0.00    +0.000 OA
ATOM      4  C2  UNL     1      25.539  -8.759 -36.657  0.00  0.00    +0.000 A 
ATOM      5  C3  UNL     1      25.038  -8.564 -35.366  0.00  0.00    +0.000 A 
ATOM      6  C4  UNL     1      25.786  -8.966 -34.249  0.00  0.00    +0.000 A 
ATOM      7  C5  UNL     1      27.041  -9.564 -34.424  0.00  0.00    +0.000 A 
ATOM      8  C6  UNL     1      27.558  -9.766 -35.707  0.00  0.00    +0.000 A 
ATOM      9  C7  UNL     1      26.813  -9.367 -36.824  0.00  0.00    +0.000 A 
ATOM     10  C8  UNL     1      27.260  -9.536 -38.131  0.00  0.00    +0.000 A 
ATOM     11  O4  UNL     1      28.396 -10.068 -38.542  0.00  0.00    +0.000 OA
ATOM     12  C9  UNL     1      28.380 -10.012 -39.860  0.00  0.00    +0.000 A 
ATOM     13  C10 UNL     1      29.367 -10.456 -40.737  0.00  0.00    +0.000 A 
ATOM     14  C11 UNL     1      29.143 -10.297 -42.121  0.00  0.00    +0.000 A 
ATOM     15  C12 UNL     1      27.946  -9.704 -42.586  0.00  0.00    +0.000 A 
ATOM     16  C13 UNL     1      26.964  -9.263 -41.680  0.00  0.00    +0.000 A 
ATOM     17  C14 UNL     1      27.216  -9.434 -40.320  0.00  0.00    +0.000 A 
ATOM     18  C15 UNL     1      26.491  -9.125 -39.193  0.00  0.00    +0.000 A 
ENDROOT
BRANCH   6  19
ATOM     19  O3  UNL     1      25.292  -8.775 -32.960  0.00  0.00    +0.000 OA
ATOM     20  H2  UNL     1      25.673  -8.065 -32.347  0.00  0.00    +0.000 HD
ENDBRANCH   6  19
BRANCH  14  21
ATOM     21  O5  UNL     1      30.096 -10.723 -43.043  0.00  0.00    +0.000 OA
ATOM     22  H6  UNL     1      30.612 -10.063 -43.613  0.00  0.00    +0.000 HD
ENDBRANCH  14  21
TORSDOF 2
ENDMDL
MODEL 5
REMARK VINA RESULT:    -5.677      2.723      6.584
REMARK INTER + INTRA:          -6.009
REMARK INTER:                  -6.009
REMARK INTRA:                   0.000
REMARK UNBOUND:                 0.000
REMARK  Name = resultss/4CJN/ligands/lig_360_t0.pdb
REMARK  2 active torsions:
REMARK  status: ('A' for Active; 'I' for Inactive)
REMARK    1  A    between atoms: C4_6  and  O3_7
REMARK    2  A    between atoms: C11_15  and  O5_16
REMARK                            x       y       z     vdW  Elec       q    Type
REMARK                         _______ _______ _______ _____ _____    ______ ____
ROOT
ATOM      1  O1  UNL     1      27.946 -10.372 -36.483  0.00  0.00    +0.000 OA
ATOM      2  C1  UNL     1      27.156  -9.817 -37.290  0.00  0.00    +0.000 A 
ATOM      3  O2  UNL     1      27.372  -9.900 -38.606  0.00  0.00    +0.000 OA
ATOM      4  C2  UNL     1      26.566  -9.330 -39.514  0.00  0.00    +0.000 A 
ATOM      5  C3  UNL     1      26.848  -9.453 -40.878  0.00  0.00    +0.000 A 
ATOM      6  C4  UNL     1      26.005  -8.858 -41.830  0.00  0.00    +0.000 A 
ATOM      7  C5  UNL     1      24.878  -8.137 -41.416  0.00  0.00    +0.000 A 
ATOM      8  C6  UNL     1      24.581  -8.004 -40.056  0.00  0.00    +0.000 A 
ATOM      9  C7  UNL     1      25.420  -8.597 -39.104  0.00  0.00    +0.000 A 
ATOM     10  C8  UNL     1      25.189  -8.508 -37.734  0.00  0.00    +0.000 A 
ATOM     11  O4  UNL     1      24.203  -7.889 -37.111  0.00  0.00    +0.000 OA
ATOM     12  C9  UNL     1      24.400  -8.077 -35.821  0.00  0.00    +0.000 A 
ATOM     13  C10 UNL     1      23.616  -7.610 -34.769  0.00  0.00    +0.000 A 
ATOM     14  C11 UNL     1      24.014  -7.930 -33.453  0.00  0.00    +0.000 A 
ATOM     15  C12 UNL     1      25.177  -8.703 -33.228  0.00  0.00    +0.000 A 
ATOM     16  C13 UNL     1      25.953  -9.163 -34.307  0.00  0.00    +0.000 A 
ATOM     17  C14 UNL     1      25.534  -8.830 -35.593  0.00  0.00    +0.000 A 
ATOM     18  C15 UNL     1      26.043  -9.108 -36.840  0.00  0.00    +0.000 A 
ENDROOT
BRANCH   6  19
ATOM     19  O3  UNL     1      26.281  -8.977 -43.191  0.00  0.00    +0.000 OA
ATOM     20  H2  UNL     1      27.148  -9.383 -43.522  0.00  0.00    +0.000 HD
ENDBRANCH   6  19
BRANCH  14  21
ATOM     21  O5  UNL     1      23.265  -7.489 -32.364  0.00  0.00    +0.000 OA
ATOM     22  H6  UNL     1      22.397  -6.981 -32.490  0.00  0.00    +0.000 HD
ENDBRANCH  14  21
TORSDOF 2
ENDMDL
MODEL 6
REMARK VINA RESULT:    -5.596      2.760      5.984
REMARK INTER + INTRA:          -5.923
REMARK INTER:                  -5.923
REMARK INTRA:                   0.000
REMARK UNBOUND:                 0.000
REMARK  Name = resultss/4CJN/ligands/lig_360_t0.pdb
REMARK  2 active torsions:
REMARK  status: ('A' for Active; 'I' for Inactive)
REMARK    1  A    between atoms: C4_6  and  O3_7
REMARK    2  A    between atoms: C11_15  and  O5_16
REMARK                            x       y       z     vdW  Elec       q    Type
REMARK                         _______ _______ _______ _____ _____    ______ ____
ROOT
ATOM      1  O1  UNL     1      24.568  -8.044 -38.640  0.00  0.00    +0.000 OA
ATOM      2  C1  UNL     1      25.637  -8.457 -38.119  0.00  0.00    +0.000 A 
ATOM      3  O2  UNL     1      26.696  -8.730 -38.886  0.00  0.00    +0.000 OA
ATOM      4  C2  UNL     1      27.861  -9.172 -38.389  0.00  0.00    +0.000 A 
ATOM      5  C3  UNL     1      28.933  -9.441 -39.246  0.00  0.00    +0.000 A 
ATOM      6  C4  UNL     1      30.153  -9.902 -38.728  0.00  0.00    +0.000 A 
ATOM      7  C5  UNL     1      30.301 -10.096 -37.349  0.00  0.00    +0.000 A 
ATOM      8  C6  UNL     1      29.240  -9.833 -36.478  0.00  0.00    +0.000 A 
ATOM      9  C7  UNL     1      28.021  -9.372 -36.991  0.00  0.00    +0.000 A 
ATOM     10  C8  UNL     1      26.921  -9.088 -36.187  0.00  0.00    +0.000 A 
ATOM     11  O4  UNL     1      26.821  -9.192 -34.875  0.00  0.00    +0.000 OA
ATOM     12  C9  UNL     1      25.596  -8.815 -34.562  0.00  0.00    +0.000 A 
ATOM     13  C10 UNL     1      25.028  -8.757 -33.292  0.00  0.00    +0.000 A 
ATOM     14  C11 UNL     1      23.690  -8.322 -33.184  0.00  0.00    +0.000 A 
ATOM     15  C12 UNL     1      22.963  -7.958 -34.342  0.00  0.00    +0.000 A 
ATOM     16  C13 UNL     1      23.559  -8.024 -35.614  0.00  0.00    +0.000 A 
ATOM     17  C14 UNL     1      24.882  -8.459 -35.687  0.00  0.00    +0.000 A 
ATOM     18  C15 UNL     1      25.747  -8.638 -36.741  0.00  0.00    +0.000 A 
ENDROOT
BRANCH   6  19
ATOM     19  O3  UNL     1      31.225 -10.172 -39.577  0.00  0.00    +0.000 OA
ATOM     20  H2  UNL     1      31.471 -11.120 -39.835  0.00  0.00    +0.000 HD
ENDBRANCH   6  19
BRANCH  14  21
ATOM     21  O5  UNL     1      23.072  -8.245 -31.938  0.00  0.00    +0.000 OA
ATOM     22  H6  UNL     1      22.166  -8.669 -31.771  0.00  0.00    +0.000 HD
ENDBRANCH  14  21
TORSDOF 2
ENDMDL
MODEL 7
REMARK VINA RESULT:    -5.433      1.491      6.848
REMARK INTER + INTRA:          -5.750
REMARK INTER:                  -5.750
REMARK INTRA:                   0.000
REMARK UNBOUND:                 0.000
REMARK  Name = resultss/4CJN/ligands/lig_360_t0.pdb
REMARK  2 active torsions:
REMARK  status: ('A' for Active; 'I' for Inactive)
REMARK    1  A    between atoms: C4_6  and  O3_7
REMARK    2  A    between atoms: C11_15  and  O5_16
REMARK                            x       y       z     vdW  Elec       q    Type
REMARK                         _______ _______ _______ _____ _____    ______ ____
ROOT
ATOM      1  O1  UNL     1      24.220  -8.088 -36.211  0.00  0.00    +0.000 OA
ATOM      2  C1  UNL     1      24.990  -8.555 -37.091  0.00  0.00    +0.000 A 
ATOM      3  O2  UNL     1      24.591  -8.625 -38.364  0.00  0.00    +0.000 OA
ATOM      4  C2  UNL     1      25.366  -9.112 -39.345  0.00  0.00    +0.000 A 
ATOM      5  C3  UNL     1      24.888  -9.158 -40.658  0.00  0.00    +0.000 A 
ATOM      6  C4  UNL     1      25.697  -9.666 -41.686  0.00  0.00    +0.000 A 
ATOM      7  C5  UNL     1      26.988 -10.130 -41.399  0.00  0.00    +0.000 A 
ATOM      8  C6  UNL     1      27.480 -10.091 -40.092  0.00  0.00    +0.000 A 
ATOM      9  C7  UNL     1      26.676  -9.584 -39.064  0.00  0.00    +0.000 A 
ATOM     10  C8  UNL     1      27.097  -9.513 -37.739  0.00  0.00    +0.000 A 
ATOM     11  O4  UNL     1      28.257  -9.885 -37.231  0.00  0.00    +0.000 OA
ATOM     12  C9  UNL     1      28.199  -9.628 -35.938  0.00  0.00    +0.000 A 
ATOM     13  C10 UNL     1      29.191  -9.852 -34.986  0.00  0.00    +0.000 A 
ATOM     14  C11 UNL     1      28.915  -9.501 -33.647  0.00  0.00    +0.000 A 
ATOM     15  C12 UNL     1      27.664  -8.939 -33.301  0.00  0.00    +0.000 A 
ATOM     16  C13 UNL     1      26.679  -8.722 -34.281  0.00  0.00    +0.000 A 
ATOM     17  C14 UNL     1      26.982  -9.080 -35.593  0.00  0.00    +0.000 A 
ATOM     18  C15 UNL     1      26.268  -9.007 -36.767  0.00  0.00    +0.000 A 
ENDROOT
BRANCH   6  19
ATOM     19  O3  UNL     1      25.228  -9.715 -42.997  0.00  0.00    +0.000 OA
ATOM     20  H2  UNL     1      25.595  -9.102 -43.715  0.00  0.00    +0.000 HD
ENDBRANCH   6  19
BRANCH  14  21
ATOM     21  O5  UNL     1      29.871  -9.704 -32.655  0.00  0.00    +0.000 OA
ATOM     22  H6  UNL     1      30.858  -9.770 -32.877  0.00  0.00    +0.000 HD
ENDBRANCH  14  21
TORSDOF 2
ENDMDL
MODEL 8
REMARK VINA RESULT:    -5.387      2.092      5.815
REMARK INTER + INTRA:          -5.702
REMARK INTER:                  -5.702
REMARK INTRA:                   0.000
REMARK UNBOUND:                 0.000
REMARK  Name = resultss/4CJN/ligands/lig_360_t0.pdb
REMARK  2 active torsions:
REMARK  status: ('A' for Active; 'I' for Inactive)
REMARK    1  A    between atoms: C4_6  and  O3_7
REMARK    2  A    between atoms: C11_15  and  O5_16
REMARK                            x       y       z     vdW  Elec       q    Type
REMARK                         _______ _______ _______ _____ _____    ______ ____
ROOT
ATOM      1  O1  UNL     1      31.598  -9.837 -36.747  0.00  0.00    +0.000 OA
ATOM      2  C1  UNL     1      30.823  -9.858 -37.738  0.00  0.00    +0.000 A 
ATOM      3  O2  UNL     1      31.319  -9.923 -38.978  0.00  0.00    +0.000 OA
ATOM      4  C2  UNL     1      30.543  -9.948 -40.072  0.00  0.00    +0.000 A 
ATOM      5  C3  UNL     1      31.125 -10.015 -41.342  0.00  0.00    +0.000 A 
ATOM      6  C4  UNL     1      30.316 -10.043 -42.489  0.00  0.00    +0.000 A 
ATOM      7  C5  UNL     1      28.922 -10.003 -42.365  0.00  0.00    +0.000 A 
ATOM      8  C6  UNL     1      28.324  -9.936 -41.103  0.00  0.00    +0.000 A 
ATOM      9  C7  UNL     1      29.128  -9.908 -39.956  0.00  0.00    +0.000 A 
ATOM     10  C8  UNL     1      28.606  -9.842 -38.668  0.00  0.00    +0.000 A 
ATOM     11  O4  UNL     1      27.338  -9.795 -38.303  0.00  0.00    +0.000 OA
ATOM     12  C9  UNL     1      27.330  -9.741 -36.985  0.00  0.00    +0.000 A 
ATOM     13  C10 UNL     1      26.218  -9.678 -36.148  0.00  0.00    +0.000 A 
ATOM     14  C11 UNL     1      26.440  -9.626 -34.755  0.00  0.00    +0.000 A 
ATOM     15  C12 UNL     1      27.758  -9.638 -34.242  0.00  0.00    +0.000 A 
ATOM     16  C13 UNL     1      28.865  -9.701 -35.108  0.00  0.00    +0.000 A 
ATOM     17  C14 UNL     1      28.612  -9.751 -36.478  0.00  0.00    +0.000 A 
ATOM     18  C15 UNL     1      29.438  -9.817 -37.575  0.00  0.00    +0.000 A 
ENDROOT
BRANCH   6  19
ATOM     19  O3  UNL     1      30.890 -10.110 -43.757  0.00  0.00    +0.000 OA
ATOM     20  H2  UNL     1      30.601  -9.488 -44.502  0.00  0.00    +0.000 HD
ENDBRANCH   6  19
BRANCH  14  21
ATOM     21  O5  UNL     1      25.364  -9.562 -33.873  0.00  0.00    +0.000 OA
ATOM     22  H6  UNL     1      25.193  -8.739 -33.306  0.00  0.00    +0.000 HD
ENDBRANCH  14  21
TORSDOF 2
ENDMDL
MODEL 9
REMARK VINA RESULT:    -5.383      1.112      6.174
REMARK INTER + INTRA:          -5.697
REMARK INTER:                  -5.697
REMARK INTRA:                   0.000
REMARK UNBOUND:                 0.000
REMARK  Name = resultss/4CJN/ligands/lig_360_t0.pdb
REMARK  2 active torsions:
REMARK  status: ('A' for Active; 'I' for Inactive)
REMARK    1  A    between atoms: C4_6  and  O3_7
REMARK    2  A    between atoms: C11_15  and  O5_16
REMARK                            x       y       z     vdW  Elec       q    Type
REMARK                         _______ _______ _______ _____ _____    ______ ____
ROOT
ATOM      1  O1  UNL     1      30.197  -9.929 -40.345  0.00  0.00    +0.000 OA
ATOM      2  C1  UNL     1      28.954  -9.738 -40.305  0.00  0.00    +0.000 A 
ATOM      3  O2  UNL     1      28.256  -9.616 -41.438  0.00  0.00    +0.000 OA
ATOM      4  C2  UNL     1      26.930  -9.412 -41.458  0.00  0.00    +0.000 A 
ATOM      5  C3  UNL     1      26.258  -9.293 -42.679  0.00  0.00    +0.000 A 
ATOM      6  C4  UNL     1      24.871  -9.080 -42.703  0.00  0.00    +0.000 A 
ATOM      7  C5  UNL     1      24.154  -8.986 -41.503  0.00  0.00    +0.000 A 
ATOM      8  C6  UNL     1      24.811  -9.103 -40.274  0.00  0.00    +0.000 A 
ATOM      9  C7  UNL     1      26.195  -9.316 -40.247  0.00  0.00    +0.000 A 
ATOM     10  C8  UNL     1      26.916  -9.443 -39.064  0.00  0.00    +0.000 A 
ATOM     11  O4  UNL     1      26.466  -9.390 -37.824  0.00  0.00    +0.000 OA
ATOM     12  C9  UNL     1      27.512  -9.562 -37.038  0.00  0.00    +0.000 A 
ATOM     13  C10 UNL     1      27.529  -9.583 -35.646  0.00  0.00    +0.000 A 
ATOM     14  C11 UNL     1      28.769  -9.782 -35.002  0.00  0.00    +0.000 A 
ATOM     15  C12 UNL     1      29.949  -9.953 -35.763  0.00  0.00    +0.000 A 
ATOM     16  C13 UNL     1      29.906  -9.926 -37.169  0.00  0.00    +0.000 A 
ATOM     17  C14 UNL     1      28.666  -9.728 -37.774  0.00  0.00    +0.000 A 
ATOM     18  C15 UNL     1      28.274  -9.650 -39.090  0.00  0.00    +0.000 A 
ENDROOT
BRANCH   6  19
ATOM     19  O3  UNL     1      24.195  -8.960 -43.916  0.00  0.00    +0.000 OA
ATOM     20  H2  UNL     1      24.475  -8.281 -44.613  0.00  0.00    +0.000 HD
ENDBRANCH   6  19
BRANCH  14  21
ATOM     21  O5  UNL     1      28.844  -9.812 -33.611  0.00  0.00    +0.000 OA
ATOM     22  H6  UNL     1      28.068  -9.508 -33.033  0.00  0.00    +0.000 HD
ENDBRANCH  14  21
TORSDOF 2
ENDMDL
