MODEL 1
REMARK VINA RESULT:    -5.679      0.000      0.000
REMARK INTER + INTRA:          -7.001
REMARK INTER:                  -6.841
REMARK INTRA:                  -0.160
REMARK UNBOUND:                -0.160
REMARK  Name = resultss/4CJN/ligands/lig_292_t2.pdb
REMARK  7 active torsions:
REMARK  status: ('A' for Active; 'I' for Inactive)
REMARK    1  A    between atoms: C1_1  and  O1_2
REMARK    2  A    between atoms: O1_2  and  C2_3
REMARK    3  A    between atoms: C4_5  and  O2_6
REMARK    4  A    between atoms: C6_8  and  O3_9
REMARK    5  A    between atoms: C11_15  and  O5_16
REMARK    6  A    between atoms: C14_20  and  O7_21
REMARK    7  A    between atoms: O7_21  and  C15_22
REMARK                            x       y       z     vdW  Elec       q    Type
REMARK                         _______ _______ _______ _____ _____    ______ ____
ROOT
ATOM      1  C2  UNL     1      28.478  -9.837 -35.871  0.00  0.00    +0.000 A 
ATOM      2  C3  UNL     1      29.759  -9.969 -36.417  0.00  0.00    +0.000 A 
ATOM      3  C4  UNL     1      29.956 -10.031 -37.796  0.00  0.00    +0.000 A 
ATOM      4  C5  UNL     1      28.855  -9.841 -38.681  0.00  0.00    +0.000 A 
ATOM      5  C6  UNL     1      29.012  -9.703 -40.088  0.00  0.00    +0.000 A 
ATOM      6  C7  UNL     1      27.860  -9.568 -40.907  0.00  0.00    +0.000 A 
ATOM      7  C8  UNL     1      27.858  -9.345 -42.309  0.00  0.00    +0.000 A 
ATOM      8  O4  UNL     1      28.921  -9.171 -42.959  0.00  0.00    +0.000 OA
ATOM      9  C9  UNL     1      26.646  -9.286 -43.008  0.00  0.00    +0.000 A 
ATOM     10  C10 UNL     1      25.420  -9.405 -42.352  0.00  0.00    +0.000 A 
ATOM     11  C11 UNL     1      25.363  -9.552 -40.965  0.00  0.00    +0.000 A 
ATOM     12  C12 UNL     1      26.545  -9.614 -40.223  0.00  0.00    +0.000 A 
ATOM     13  O6  UNL     1      26.484  -9.683 -38.907  0.00  0.00    +0.000 OA
ATOM     14  C13 UNL     1      27.547  -9.759 -38.121  0.00  0.00    +0.000 A 
ATOM     15  C14 UNL     1      27.365  -9.758 -36.715  0.00  0.00    +0.000 A 
ENDROOT
BRANCH   1  17
ATOM     16  C1  UNL     1      29.178  -9.248 -33.537  0.00  0.00    +0.000 C 
ATOM     17  O1  UNL     1      28.263  -9.795 -34.483  0.00  0.00    +0.000 OA
ENDBRANCH   1  17
BRANCH   3  18
ATOM     18  O2  UNL     1      31.252 -10.327 -38.223  0.00  0.00    +0.000 OA
ATOM     19  H5  UNL     1      31.743 -11.173 -37.969  0.00  0.00    +0.000 HD
ENDBRANCH   3  18
BRANCH   5  20
ATOM     20  O3  UNL     1      30.302  -9.669 -40.627  0.00  0.00    +0.000 OA
ATOM     21  H6  UNL     1      30.605 -10.189 -41.435  0.00  0.00    +0.000 HD
ENDBRANCH   5  20
BRANCH  11  22
ATOM     22  O5  UNL     1      24.133  -9.627 -40.313  0.00  0.00    +0.000 OA
ATOM     23  H9  UNL     1      23.842  -8.923 -39.646  0.00  0.00    +0.000 HD
ENDBRANCH  11  22
BRANCH  15  24
ATOM     24  O7  UNL     1      26.106  -9.671 -36.088  0.00  0.00    +0.000 OA
ATOM     25  C15 UNL     1      25.341  -8.490 -35.872  0.00  0.00    +0.000 C 
ENDBRANCH  15  24
TORSDOF 5
ENDMDL
MODEL 2
REMARK VINA RESULT:    -5.414      1.926      4.210
REMARK INTER + INTRA:          -6.682
REMARK INTER:                  -6.524
REMARK INTRA:                  -0.158
REMARK UNBOUND:                -0.160
REMARK  Name = resultss/4CJN/ligands/lig_292_t2.pdb
REMARK  7 active torsions:
REMARK  status: ('A' for Active; 'I' for Inactive)
REMARK    1  A    between atoms: C1_1  and  O1_2
REMARK    2  A    between atoms: O1_2  and  C2_3
REMARK    3  A    between atoms: C4_5  and  O2_6
REMARK    4  A    between atoms: C6_8  and  O3_9
REMARK    5  A    between atoms: C11_15  and  O5_16
REMARK    6  A    between atoms: C14_20  and  O7_21
REMARK    7  A    between atoms: O7_21  and  C15_22
REMARK                            x       y       z     vdW  Elec       q    Type
REMARK                         _______ _______ _______ _____ _____    ______ ____
ROOT
ATOM      1  C2  UNL     1      24.972  -8.742 -35.090  0.00  0.00    +0.000 A 
ATOM      2  C3  UNL     1      24.018  -7.898 -35.669  0.00  0.00    +0.000 A 
ATOM      3  C4  UNL     1      24.041  -7.604 -37.031  0.00  0.00    +0.000 A 
ATOM      4  C5  UNL     1      24.977  -8.258 -37.884  0.00  0.00    +0.000 A 
ATOM      5  C6  UNL     1      24.934  -8.150 -39.302  0.00  0.00    +0.000 A 
ATOM      6  C7  UNL     1      25.935  -8.791 -40.079  0.00  0.00    +0.000 A 
ATOM      7  C8  UNL     1      25.983  -8.841 -41.496  0.00  0.00    +0.000 A 
ATOM      8  O4  UNL     1      25.067  -8.360 -42.212  0.00  0.00    +0.000 OA
ATOM      9  C9  UNL     1      27.060  -9.462 -42.141  0.00  0.00    +0.000 A 
ATOM     10  C10 UNL     1      28.085 -10.076 -41.421  0.00  0.00    +0.000 A 
ATOM     11  C11 UNL     1      28.050 -10.120 -40.026  0.00  0.00    +0.000 A 
ATOM     12  C12 UNL     1      26.994  -9.517 -39.337  0.00  0.00    +0.000 A 
ATOM     13  O6  UNL     1      26.931  -9.623 -38.023  0.00  0.00    +0.000 OA
ATOM     14  C13 UNL     1      25.979  -9.075 -37.284  0.00  0.00    +0.000 A 
ATOM     15  C14 UNL     1      25.971  -9.312 -35.885  0.00  0.00    +0.000 A 
ENDROOT
BRANCH   1  17
ATOM     16  C1  UNL     1      23.819  -8.997 -32.879  0.00  0.00    +0.000 C 
ATOM     17  O1  UNL     1      24.973  -9.030 -33.715  0.00  0.00    +0.000 OA
ENDBRANCH   1  17
BRANCH   3  18
ATOM     18  O2  UNL     1      23.145  -6.626 -37.469  0.00  0.00    +0.000 OA
ATOM     19  H5  UNL     1      22.168  -6.807 -37.649  0.00  0.00    +0.000 HD
ENDBRANCH   3  18
BRANCH   5  20
ATOM     20  O3  UNL     1      23.886  -7.444 -39.897  0.00  0.00    +0.000 OA
ATOM     21  H6  UNL     1      23.796  -7.265 -40.885  0.00  0.00    +0.000 HD
ENDBRANCH   5  20
BRANCH  11  22
ATOM     22  O5  UNL     1      29.056 -10.773 -39.315  0.00  0.00    +0.000 OA
ATOM     23  H9  UNL     1      29.753 -10.259 -38.789  0.00  0.00    +0.000 HD
ENDBRANCH  11  22
BRANCH  15  24
ATOM     24  O7  UNL     1      26.922 -10.114 -35.222  0.00  0.00    +0.000 OA
ATOM     25  C15 UNL     1      28.220  -9.718 -34.791  0.00  0.00    +0.000 C 
ENDBRANCH  15  24
TORSDOF 5
ENDMDL
MODEL 3
REMARK VINA RESULT:    -5.331      1.870      5.845
REMARK INTER + INTRA:          -6.582
REMARK INTER:                  -6.381
REMARK INTRA:                  -0.201
REMARK UNBOUND:                -0.160
REMARK  Name = resultss/4CJN/ligands/lig_292_t2.pdb
REMARK  7 active torsions:
REMARK  status: ('A' for Active; 'I' for Inactive)
REMARK    1  A    between atoms: C1_1  and  O1_2
REMARK    2  A    between atoms: O1_2  and  C2_3
REMARK    3  A    between atoms: C4_5  and  O2_6
REMARK    4  A    between atoms: C6_8  and  O3_9
REMARK    5  A    between atoms: C11_15  and  O5_16
REMARK    6  A    between atoms: C14_20  and  O7_21
REMARK    7  A    between atoms: O7_21  and  C15_22
REMARK                            x       y       z     vdW  Elec       q    Type
REMARK                         _______ _______ _______ _____ _____    ______ ____
ROOT
ATOM      1  C2  UNL     1      26.354  -9.283 -41.469  0.00  0.00    +0.000 A 
ATOM      2  C3  UNL     1      27.543  -9.877 -41.032  0.00  0.00    +0.000 A 
ATOM      3  C4  UNL     1      27.853  -9.967 -39.676  0.00  0.00    +0.000 A 
ATOM      4  C5  UNL     1      26.900  -9.555 -38.700  0.00  0.00    +0.000 A 
ATOM      5  C6  UNL     1      27.071  -9.792 -37.307  0.00  0.00    +0.000 A 
ATOM      6  C7  UNL     1      26.099  -9.304 -36.394  0.00  0.00    +0.000 A 
ATOM      7  C8  UNL     1      26.090  -9.527 -34.993  0.00  0.00    +0.000 A 
ATOM      8  O4  UNL     1      26.939 -10.263 -34.428  0.00  0.00    +0.000 OA
ATOM      9  C9  UNL     1      25.100  -8.940 -34.195  0.00  0.00    +0.000 A 
ATOM     10  C10 UNL     1      24.083  -8.162 -34.751  0.00  0.00    +0.000 A 
ATOM     11  C11 UNL     1      24.003  -7.971 -36.132  0.00  0.00    +0.000 A 
ATOM     12  C12 UNL     1      24.967  -8.539 -36.969  0.00  0.00    +0.000 A 
ATOM     13  O6  UNL     1      24.846  -8.414 -38.277  0.00  0.00    +0.000 OA
ATOM     14  C13 UNL     1      25.715  -8.904 -39.149  0.00  0.00    +0.000 A 
ATOM     15  C14 UNL     1      25.448  -8.770 -40.535  0.00  0.00    +0.000 A 
ENDROOT
BRANCH   1  17
ATOM     16  C1  UNL     1      26.587  -8.188 -43.711  0.00  0.00    +0.000 C 
ATOM     17  O1  UNL     1      26.039  -9.167 -42.833  0.00  0.00    +0.000 OA
ENDBRANCH   1  17
BRANCH   3  18
ATOM     18  O2  UNL     1      29.134 -10.429 -39.363  0.00  0.00    +0.000 OA
ATOM     19  H5  UNL     1      29.487 -11.330 -39.652  0.00  0.00    +0.000 HD
ENDBRANCH   3  18
BRANCH   5  20
ATOM     20  O3  UNL     1      28.176 -10.531 -36.876  0.00  0.00    +0.000 OA
ATOM     21  H6  UNL     1      28.641 -10.412 -35.989  0.00  0.00    +0.000 HD
ENDBRANCH   5  20
BRANCH  11  22
ATOM     22  O5  UNL     1      22.961  -7.227 -36.682  0.00  0.00    +0.000 OA
ATOM     23  H9  UNL     1      22.296  -6.733 -36.099  0.00  0.00    +0.000 HD
ENDBRANCH  11  22
BRANCH  15  24
ATOM     24  O7  UNL     1      24.295  -8.147 -41.055  0.00  0.00    +0.000 OA
ATOM     25  C15 UNL     1      24.086  -6.749 -41.227  0.00  0.00    +0.000 C 
ENDBRANCH  15  24
TORSDOF 5
ENDMDL
MODEL 4
REMARK VINA RESULT:    -5.221      1.195      3.581
REMARK INTER + INTRA:          -6.449
REMARK INTER:                  -6.247
REMARK INTRA:                  -0.202
REMARK UNBOUND:                -0.160
REMARK  Name = resultss/4CJN/ligands/lig_292_t2.pdb
REMARK  7 active torsions:
REMARK  status: ('A' for Active; 'I' for Inactive)
REMARK    1  A    between atoms: C1_1  and  O1_2
REMARK    2  A    between atoms: O1_2  and  C2_3
REMARK    3  A    between atoms: C4_5  and  O2_6
REMARK    4  A    between atoms: C6_8  and  O3_9
REMARK    5  A    between atoms: C11_15  and  O5_16
REMARK    6  A    between atoms: C14_20  and  O7_21
REMARK    7  A    between atoms: O7_21  and  C15_22
REMARK                            x       y       z     vdW  Elec       q    Type
REMARK                         _______ _______ _______ _____ _____    ______ ____
ROOT
ATOM      1  C2  UNL     1      27.917  -9.785 -35.427  0.00  0.00    +0.000 A 
ATOM      2  C3  UNL     1      26.585  -9.377 -35.297  0.00  0.00    +0.000 A 
ATOM      3  C4  UNL     1      25.822  -9.028 -36.410  0.00  0.00    +0.000 A 
ATOM      4  C5  UNL     1      26.357  -9.196 -37.721  0.00  0.00    +0.000 A 
ATOM      5  C6  UNL     1      25.575  -9.041 -38.899  0.00  0.00    +0.000 A 
ATOM      6  C7  UNL     1      26.196  -9.175 -40.169  0.00  0.00    +0.000 A 
ATOM      7  C8  UNL     1      25.538  -9.126 -41.425  0.00  0.00    +0.000 A 
ATOM      8  O4  UNL     1      24.287  -9.026 -41.520  0.00  0.00    +0.000 OA
ATOM      9  C9  UNL     1      26.279  -9.217 -42.609  0.00  0.00    +0.000 A 
ATOM     10  C10 UNL     1      27.663  -9.394 -42.591  0.00  0.00    +0.000 A 
ATOM     11  C11 UNL     1      28.351  -9.521 -41.383  0.00  0.00    +0.000 A 
ATOM     12  C12 UNL     1      27.654  -9.441 -40.175  0.00  0.00    +0.000 A 
ATOM     13  O6  UNL     1      28.299  -9.631 -39.039  0.00  0.00    +0.000 OA
ATOM     14  C13 UNL     1      27.729  -9.561 -37.846  0.00  0.00    +0.000 A 
ATOM     15  C14 UNL     1      28.504  -9.853 -36.694  0.00  0.00    +0.000 A 
ENDROOT
BRANCH   1  17
ATOM     16  C1  UNL     1      29.132  -9.194 -33.316  0.00  0.00    +0.000 C 
ATOM     17  O1  UNL     1      28.703 -10.118 -34.312  0.00  0.00    +0.000 OA
ENDBRANCH   1  17
BRANCH   3  18
ATOM     18  O2  UNL     1      24.563  -8.481 -36.151  0.00  0.00    +0.000 OA
ATOM     19  H5  UNL     1      23.802  -9.006 -35.744  0.00  0.00    +0.000 HD
ENDBRANCH   3  18
BRANCH   5  20
ATOM     20  O3  UNL     1      24.204  -8.796 -38.776  0.00  0.00    +0.000 OA
ATOM     21  H6  UNL     1      23.579  -9.296 -38.164  0.00  0.00    +0.000 HD
ENDBRANCH   5  20
BRANCH  11  22
ATOM     22  O5  UNL     1      29.728  -9.741 -41.374  0.00  0.00    +0.000 OA
ATOM     23  H9  UNL     1      30.256  -9.834 -42.234  0.00  0.00    +0.000 HD
ENDBRANCH  11  22
BRANCH  15  24
ATOM     24  O7  UNL     1      29.862 -10.229 -36.739  0.00  0.00    +0.000 OA
ATOM     25  C15 UNL     1      30.986  -9.358 -36.795  0.00  0.00    +0.000 C 
ENDBRANCH  15  24
TORSDOF 5
ENDMDL
MODEL 5
REMARK VINA RESULT:    -5.205      1.422      6.535
REMARK INTER + INTRA:          -6.430
REMARK INTER:                  -6.257
REMARK INTRA:                  -0.173
REMARK UNBOUND:                -0.160
REMARK  Name = resultss/4CJN/ligands/lig_292_t2.pdb
REMARK  7 active torsions:
REMARK  status: ('A' for Active; 'I' for Inactive)
REMARK    1  A    between atoms: C1_1  and  O1_2
REMARK    2  A    between atoms: O1_2  and  C2_3
REMARK    3  A    between atoms: C4_5  and  O2_6
REMARK    4  A    between atoms: C6_8  and  O3_9
REMARK    5  A    between atoms: C11_15  and  O5_16
REMARK    6  A    between atoms: C14_20  and  O7_21
REMARK    7  A    between atoms: O7_21  and  C15_22
REMARK                            x       y       z     vdW  Elec       q    Type
REMARK                         _______ _______ _______ _____ _____    ______ ____
ROOT
ATOM      1  C2  UNL     1      26.976  -8.921 -42.435  0.00  0.00    +0.000 A 
ATOM      2  C3  UNL     1      25.614  -8.718 -42.183  0.00  0.00    +0.000 A 
ATOM      3  C4  UNL     1      25.091  -8.831 -40.896  0.00  0.00    +0.000 A 
ATOM      4  C5  UNL     1      25.962  -9.043 -39.789  0.00  0.00    +0.000 A 
ATOM      5  C6  UNL     1      25.522  -8.980 -38.438  0.00  0.00    +0.000 A 
ATOM      6  C7  UNL     1      26.443  -9.254 -37.392  0.00  0.00    +0.000 A 
ATOM      7  C8  UNL     1      26.177  -9.155 -36.002  0.00  0.00    +0.000 A 
ATOM      8  O4  UNL     1      25.076  -8.733 -35.562  0.00  0.00    +0.000 OA
ATOM      9  C9  UNL     1      27.161  -9.509 -35.071  0.00  0.00    +0.000 A 
ATOM     10  C10 UNL     1      28.430  -9.926 -35.476  0.00  0.00    +0.000 A 
ATOM     11  C11 UNL     1      28.769  -9.971 -36.830  0.00  0.00    +0.000 A 
ATOM     12  C12 UNL     1      27.821  -9.624 -37.796  0.00  0.00    +0.000 A 
ATOM     13  O6  UNL     1      28.169  -9.602 -39.068  0.00  0.00    +0.000 OA
ATOM     14  C13 UNL     1      27.339  -9.300 -40.055  0.00  0.00    +0.000 A 
ATOM     15  C14 UNL     1      27.839  -9.238 -41.381  0.00  0.00    +0.000 A 
ENDROOT
BRANCH   1  17
ATOM     16  C1  UNL     1      27.710  -7.613 -44.442  0.00  0.00    +0.000 C 
ATOM     17  O1  UNL     1      27.513  -8.830 -43.729  0.00  0.00    +0.000 OA
ENDBRANCH   1  17
BRANCH   3  18
ATOM     18  O2  UNL     1      23.699  -8.771 -40.787  0.00  0.00    +0.000 OA
ATOM     19  H5  UNL     1      23.101  -8.390 -41.505  0.00  0.00    +0.000 HD
ENDBRANCH   3  18
BRANCH   5  20
ATOM     20  O3  UNL     1      24.200  -8.615 -38.171  0.00  0.00    +0.000 OA
ATOM     21  H6  UNL     1      23.388  -9.022 -38.608  0.00  0.00    +0.000 HD
ENDBRANCH   5  20
BRANCH  11  22
ATOM     22  O5  UNL     1      30.052 -10.348 -37.224  0.00  0.00    +0.000 OA
ATOM     23  H9  UNL     1      30.830 -10.341 -36.575  0.00  0.00    +0.000 HD
ENDBRANCH  11  22
BRANCH  15  24
ATOM     24  O7  UNL     1      29.187  -9.472 -41.721  0.00  0.00    +0.000 OA
ATOM     25  C15 UNL     1      29.821 -10.737 -41.874  0.00  0.00    +0.000 C 
ENDBRANCH  15  24
TORSDOF 5
ENDMDL
MODEL 6
REMARK VINA RESULT:    -5.173      1.782      3.092
REMARK INTER + INTRA:          -6.392
REMARK INTER:                  -6.201
REMARK INTRA:                  -0.191
REMARK UNBOUND:                -0.160
REMARK  Name = resultss/4CJN/ligands/lig_292_t2.pdb
REMARK  7 active torsions:
REMARK  status: ('A' for Active; 'I' for Inactive)
REMARK    1  A    between atoms: C1_1  and  O1_2
REMARK    2  A    between atoms: O1_2  and  C2_3
REMARK    3  A    between atoms: C4_5  and  O2_6
REMARK    4  A    between atoms: C6_8  and  O3_9
REMARK    5  A    between atoms: C11_15  and  O5_16
REMARK    6  A    between atoms: C14_20  and  O7_21
REMARK    7  A    between atoms: O7_21  and  C15_22
REMARK                            x       y       z     vdW  Elec       q    Type
REMARK                         _______ _______ _______ _____ _____    ______ ____
ROOT
ATOM      1  C2  UNL     1      25.219  -8.420 -34.494  0.00  0.00    +0.000 A 
ATOM      2  C3  UNL     1      26.481  -8.923 -34.160  0.00  0.00    +0.000 A 
ATOM      3  C4  UNL     1      27.319  -9.477 -35.126  0.00  0.00    +0.000 A 
ATOM      4  C5  UNL     1      26.948  -9.432 -36.501  0.00  0.00    +0.000 A 
ATOM      5  C6  UNL     1      27.832  -9.803 -37.552  0.00  0.00    +0.000 A 
ATOM      6  C7  UNL     1      27.368  -9.779 -38.894  0.00  0.00    +0.000 A 
ATOM      7  C8  UNL     1      28.148 -10.045 -40.049  0.00  0.00    +0.000 A 
ATOM      8  O4  UNL     1      29.385 -10.267 -39.982  0.00  0.00    +0.000 OA
ATOM      9  C9  UNL     1      27.551 -10.042 -41.315  0.00  0.00    +0.000 A 
ATOM     10  C10 UNL     1      26.198  -9.743 -41.482  0.00  0.00    +0.000 A 
ATOM     11  C11 UNL     1      25.402  -9.402 -40.387  0.00  0.00    +0.000 A 
ATOM     12  C12 UNL     1      25.952  -9.389 -39.104  0.00  0.00    +0.000 A 
ATOM     13  O6  UNL     1      25.213  -8.999 -38.083  0.00  0.00    +0.000 OA
ATOM     14  C13 UNL     1      25.641  -8.966 -36.831  0.00  0.00    +0.000 A 
ATOM     15  C14 UNL     1      24.782  -8.462 -35.822  0.00  0.00    +0.000 A 
ENDROOT
BRANCH   1  17
ATOM     16  C1  UNL     1      24.434  -6.548 -33.024  0.00  0.00    +0.000 C 
ATOM     17  O1  UNL     1      24.356  -7.878 -33.527  0.00  0.00    +0.000 OA
ENDBRANCH   1  17
BRANCH   3  18
ATOM     18  O2  UNL     1      28.481 -10.094 -34.657  0.00  0.00    +0.000 OA
ATOM     19  H5  UNL     1      29.202 -10.458 -35.264  0.00  0.00    +0.000 HD
ENDBRANCH   3  18
BRANCH   5  20
ATOM     20  O3  UNL     1      29.149 -10.151 -37.239  0.00  0.00    +0.000 OA
ATOM     21  H6  UNL     1      29.629  -9.895 -36.391  0.00  0.00    +0.000 HD
ENDBRANCH   5  20
BRANCH  11  22
ATOM     22  O5  UNL     1      24.061  -9.064 -40.569  0.00  0.00    +0.000 OA
ATOM     23  H9  UNL     1      23.631  -8.306 -40.053  0.00  0.00    +0.000 HD
ENDBRANCH  11  22
BRANCH  15  24
ATOM     24  O7  UNL     1      23.482  -7.977 -36.071  0.00  0.00    +0.000 OA
ATOM     25  C15 UNL     1      23.130  -6.670 -36.513  0.00  0.00    +0.000 C 
ENDBRANCH  15  24
TORSDOF 5
ENDMDL
MODEL 7
REMARK VINA RESULT:    -4.951      1.681      2.455
REMARK INTER + INTRA:          -6.125
REMARK INTER:                  -5.917
REMARK INTRA:                  -0.207
REMARK UNBOUND:                -0.160
REMARK  Name = resultss/4CJN/ligands/lig_292_t2.pdb
REMARK  7 active torsions:
REMARK  status: ('A' for Active; 'I' for Inactive)
REMARK    1  A    between atoms: C1_1  and  O1_2
REMARK    2  A    between atoms: O1_2  and  C2_3
REMARK    3  A    between atoms: C4_5  and  O2_6
REMARK    4  A    between atoms: C6_8  and  O3_9
REMARK    5  A    between atoms: C11_15  and  O5_16
REMARK    6  A    between atoms: C14_20  and  O7_21
REMARK    7  A    between atoms: O7_21  and  C15_22
REMARK                            x       y       z     vdW  Elec       q    Type
REMARK                         _______ _______ _______ _____ _____    ______ ____
ROOT
ATOM      1  C2  UNL     1      27.747  -9.405 -34.810  0.00  0.00    +0.000 A 
ATOM      2  C3  UNL     1      29.126  -9.427 -34.568  0.00  0.00    +0.000 A 
ATOM      3  C4  UNL     1      30.038  -9.653 -35.597  0.00  0.00    +0.000 A 
ATOM      4  C5  UNL     1      29.583  -9.750 -36.944  0.00  0.00    +0.000 A 
ATOM      5  C6  UNL     1      30.468  -9.790 -38.057  0.00  0.00    +0.000 A 
ATOM      6  C7  UNL     1      29.936  -9.939 -39.365  0.00  0.00    +0.000 A 
ATOM      7  C8  UNL     1      30.680  -9.918 -40.573  0.00  0.00    +0.000 A 
ATOM      8  O4  UNL     1      31.917  -9.686 -40.591  0.00  0.00    +0.000 OA
ATOM      9  C9  UNL     1      30.037 -10.133 -41.798  0.00  0.00    +0.000 A 
ATOM     10  C10 UNL     1      28.658 -10.333 -41.871  0.00  0.00    +0.000 A 
ATOM     11  C11 UNL     1      27.868 -10.290 -40.720  0.00  0.00    +0.000 A 
ATOM     12  C12 UNL     1      28.464 -10.076 -39.475  0.00  0.00    +0.000 A 
ATOM     13  O6  UNL     1      27.704  -9.968 -38.402  0.00  0.00    +0.000 OA
ATOM     14  C13 UNL     1      28.177  -9.779 -37.179  0.00  0.00    +0.000 A 
ATOM     15  C14 UNL     1      27.265  -9.607 -36.107  0.00  0.00    +0.000 A 
ENDROOT
BRANCH   1  17
ATOM     16  C1  UNL     1      26.494  -7.930 -33.218  0.00  0.00    +0.000 C 
ATOM     17  O1  UNL     1      26.816  -9.200 -33.779  0.00  0.00    +0.000 OA
ENDBRANCH   1  17
BRANCH   3  18
ATOM     18  O2  UNL     1      31.372  -9.817 -35.216  0.00  0.00    +0.000 OA
ATOM     19  H5  UNL     1      32.103 -10.093 -35.856  0.00  0.00    +0.000 HD
ENDBRANCH   3  18
BRANCH   5  20
ATOM     20  O3  UNL     1      31.841  -9.647 -37.837  0.00  0.00    +0.000 OA
ATOM     21  H6  UNL     1      32.278  -9.580 -36.931  0.00  0.00    +0.000 HD
ENDBRANCH   5  20
BRANCH  11  22
ATOM     22  O5  UNL     1      26.486 -10.449 -40.808  0.00  0.00    +0.000 OA
ATOM     23  H9  UNL     1      26.032 -11.314 -40.539  0.00  0.00    +0.000 HD
ENDBRANCH  11  22
BRANCH  15  24
ATOM     24  O7  UNL     1      25.864  -9.615 -36.263  0.00  0.00    +0.000 OA
ATOM     25  C15 UNL     1      25.047  -8.529 -36.690  0.00  0.00    +0.000 C 
ENDBRANCH  15  24
TORSDOF 5
ENDMDL
MODEL 8
REMARK VINA RESULT:    -4.870      2.008      6.511
REMARK INTER + INTRA:          -6.026
REMARK INTER:                  -5.822
REMARK INTRA:                  -0.204
REMARK UNBOUND:                -0.160
REMARK  Name = resultss/4CJN/ligands/lig_292_t2.pdb
REMARK  7 active torsions:
REMARK  status: ('A' for Active; 'I' for Inactive)
REMARK    1  A    between atoms: C1_1  and  O1_2
REMARK    2  A    between atoms: O1_2  and  C2_3
REMARK    3  A    between atoms: C4_5  and  O2_6
REMARK    4  A    between atoms: C6_8  and  O3_9
REMARK    5  A    between atoms: C11_15  and  O5_16
REMARK    6  A    between atoms: C14_20  and  O7_21
REMARK    7  A    between atoms: O7_21  and  C15_22
REMARK                            x       y       z     vdW  Elec       q    Type
REMARK                         _______ _______ _______ _____ _____    ______ ____
ROOT
ATOM      1  C2  UNL     1      27.064  -9.017 -40.572  0.00  0.00    +0.000 A 
ATOM      2  C3  UNL     1      25.912  -8.295 -40.905  0.00  0.00    +0.000 A 
ATOM      3  C4  UNL     1      24.952  -7.981 -39.945  0.00  0.00    +0.000 A 
ATOM      4  C5  UNL     1      25.186  -8.292 -38.574  0.00  0.00    +0.000 A 
ATOM      5  C6  UNL     1      24.343  -7.835 -37.524  0.00  0.00    +0.000 A 
ATOM      6  C7  UNL     1      24.616  -8.233 -36.189  0.00  0.00    +0.000 A 
ATOM      7  C8  UNL     1      23.917  -7.799 -35.032  0.00  0.00    +0.000 A 
ATOM      8  O4  UNL     1      23.003  -6.937 -35.089  0.00  0.00    +0.000 OA
ATOM      9  C9  UNL     1      24.255  -8.313 -33.774  0.00  0.00    +0.000 A 
ATOM     10  C10 UNL     1      25.299  -9.224 -33.616  0.00  0.00    +0.000 A 
ATOM     11  C11 UNL     1      26.067  -9.628 -34.710  0.00  0.00    +0.000 A 
ATOM     12  C12 UNL     1      25.770  -9.141 -35.985  0.00  0.00    +0.000 A 
ATOM     13  O6  UNL     1      26.542  -9.472 -37.003  0.00  0.00    +0.000 OA
ATOM     14  C13 UNL     1      26.334  -9.072 -38.248  0.00  0.00    +0.000 A 
ATOM     15  C14 UNL     1      27.269  -9.432 -39.252  0.00  0.00    +0.000 A 
ENDROOT
BRANCH   1  17
ATOM     16  C1  UNL     1      28.958  -8.444 -42.110  0.00  0.00    +0.000 C 
ATOM     17  O1  UNL     1      28.030  -9.358 -41.533  0.00  0.00    +0.000 OA
ENDBRANCH   1  17
BRANCH   3  18
ATOM     18  O2  UNL     1      23.771  -7.404 -40.417  0.00  0.00    +0.000 OA
ATOM     19  H5  UNL     1      23.136  -6.878 -39.833  0.00  0.00    +0.000 HD
ENDBRANCH   3  18
BRANCH   5  20
ATOM     20  O3  UNL     1      23.283  -6.977 -37.830  0.00  0.00    +0.000 OA
ATOM     21  H6  UNL     1      23.311  -5.973 -37.753  0.00  0.00    +0.000 HD
ENDBRANCH   5  20
BRANCH  11  22
ATOM     22  O5  UNL     1      27.136 -10.507 -34.536  0.00  0.00    +0.000 OA
ATOM     23  H9  UNL     1      27.744 -10.761 -35.305  0.00  0.00    +0.000 HD
ENDBRANCH  11  22
BRANCH  15  24
ATOM     24  O7  UNL     1      28.430 -10.193 -39.005  0.00  0.00    +0.000 OA
ATOM     25  C15 UNL     1      29.673  -9.712 -38.503  0.00  0.00    +0.000 C 
ENDBRANCH  15  24
TORSDOF 5
ENDMDL
MODEL 9
REMARK VINA RESULT:    -4.453      1.681      6.698
REMARK INTER + INTRA:          -5.524
REMARK INTER:                  -5.322
REMARK INTRA:                  -0.202
REMARK UNBOUND:                -0.160
REMARK  Name = resultss/4CJN/ligands/lig_292_t2.pdb
REMARK  7 active torsions:
REMARK  status: ('A' for Active; 'I' for Inactive)
REMARK    1  A    between atoms: C1_1  and  O1_2
REMARK    2  A    between atoms: O1_2  and  C2_3
REMARK    3  A    between atoms: C4_5  and  O2_6
REMARK    4  A    between atoms: C6_8  and  O3_9
REMARK    5  A    between atoms: C11_15  and  O5_16
REMARK    6  A    between atoms: C14_20  and  O7_21
REMARK    7  A    between atoms: O7_21  and  C15_22
REMARK                            x       y       z     vdW  Elec       q    Type
REMARK                         _______ _______ _______ _____ _____    ______ ____
ROOT
ATOM      1  C2  UNL     1      26.448  -8.538 -40.315  0.00  0.00    +0.000 A 
ATOM      2  C3  UNL     1      25.239  -8.394 -39.624  0.00  0.00    +0.000 A 
ATOM      3  C4  UNL     1      25.174  -8.543 -38.240  0.00  0.00    +0.000 A 
ATOM      4  C5  UNL     1      26.370  -8.730 -37.487  0.00  0.00    +0.000 A 
ATOM      5  C6  UNL     1      26.399  -8.700 -36.065  0.00  0.00    +0.000 A 
ATOM      6  C7  UNL     1      27.622  -8.947 -35.388  0.00  0.00    +0.000 A 
ATOM      7  C8  UNL     1      27.826  -8.875 -33.986  0.00  0.00    +0.000 A 
ATOM      8  O4  UNL     1      26.919  -8.504 -33.198  0.00  0.00    +0.000 OA
ATOM      9  C9  UNL     1      29.075  -9.198 -33.441  0.00  0.00    +0.000 A 
ATOM     10  C10 UNL     1      30.153  -9.558 -34.251  0.00  0.00    +0.000 A 
ATOM     11  C11 UNL     1      30.027  -9.574 -35.641  0.00  0.00    +0.000 A 
ATOM     12  C12 UNL     1      28.802  -9.256 -36.232  0.00  0.00    +0.000 A 
ATOM     13  O6  UNL     1      28.709  -9.205 -37.547  0.00  0.00    +0.000 OA
ATOM     14  C13 UNL     1      27.589  -8.928 -38.198  0.00  0.00    +0.000 A 
ATOM     15  C14 UNL     1      27.621  -8.831 -39.613  0.00  0.00    +0.000 A 
ENDROOT
BRANCH   1  17
ATOM     16  C1  UNL     1      25.986  -9.347 -42.642  0.00  0.00    +0.000 C 
ATOM     17  O1  UNL     1      26.524  -8.411 -41.712  0.00  0.00    +0.000 OA
ENDBRANCH   1  17
BRANCH   3  18
ATOM     18  O2  UNL     1      23.896  -8.541 -37.677  0.00  0.00    +0.000 OA
ATOM     19  H5  UNL     1      23.550  -9.279 -37.081  0.00  0.00    +0.000 HD
ENDBRANCH   3  18
BRANCH   5  20
ATOM     20  O3  UNL     1      25.226  -8.394 -35.369  0.00  0.00    +0.000 OA
ATOM     21  H6  UNL     1      24.313  -8.301 -35.786  0.00  0.00    +0.000 HD
ENDBRANCH   5  20
BRANCH  11  22
ATOM     22  O5  UNL     1      31.121  -9.893 -36.444  0.00  0.00    +0.000 OA
ATOM     23  H9  UNL     1      31.837 -10.539 -36.134  0.00  0.00    +0.000 HD
ENDBRANCH  11  22
BRANCH  15  24
ATOM     24  O7  UNL     1      28.789  -9.005 -40.384  0.00  0.00    +0.000 OA
ATOM     25  C15 UNL     1      29.375 -10.241 -40.776  0.00  0.00    +0.000 C 
ENDBRANCH  15  24
TORSDOF 5
ENDMDL
