MODEL 1
REMARK VINA RESULT:    -4.275      0.000      0.000
REMARK INTER + INTRA:          -6.375
REMARK INTER:                  -5.774
REMARK INTRA:                  -0.601
REMARK UNBOUND:                -0.601
REMARK  Name = resultss/4CJN/ligands/lig_17_t0.pdb
REMARK  9 active torsions:
REMARK  status: ('A' for Active; 'I' for Inactive)
REMARK    1  A    between atoms: C1_1  and  C2_2
REMARK    2  A    between atoms: C2_2  and  C3_3
REMARK    3  A    between atoms: C3_3  and  C4_4
REMARK    4  A    between atoms: C4_4  and  N1_5
REMARK    5  A    between atoms: C6_7  and  O1_8
REMARK    6  A    between atoms: C7_9  and  O2_10
REMARK    7  A    between atoms: C8_11  and  O3_12
REMARK    8  A    between atoms: C9_13  and  C10_14
REMARK    9  A    between atoms: C10_14  and  O4_15
REMARK                            x       y       z     vdW  Elec       q    Type
REMARK                         _______ _______ _______ _____ _____    ______ ____
ROOT
ATOM      1  N1  UNL     1      26.106  -7.601 -34.251  0.00  0.00    +0.000 NA
ATOM      2  C5  UNL     1      26.116  -8.418 -35.492  0.00  0.00    +0.000 C 
ATOM      3  C6  UNL     1      26.608  -9.858 -35.273  0.00  0.00    +0.000 C 
ATOM      4  C7  UNL     1      28.028  -9.881 -34.653  0.00  0.00    +0.000 C 
ATOM      5  C8  UNL     1      28.324  -8.641 -33.776  0.00  0.00    +0.000 C 
ATOM      6  C9  UNL     1      27.027  -8.047 -33.167  0.00  0.00    +0.000 C 
ENDROOT
BRANCH   3   7
ATOM      7  O1  UNL     1      25.707 -10.544 -34.444  0.00  0.00    +0.000 OA
ATOM      8  H13 UNL     1      26.249 -11.069 -33.799  0.00  0.00    +0.000 HD
ENDBRANCH   3   7
BRANCH   4   9
ATOM      9  O2  UNL     1      28.994  -9.952 -35.672  0.00  0.00    +0.000 OA
ATOM     10  H15 UNL     1      28.531 -10.284 -36.486  0.00  0.00    +0.000 HD
ENDBRANCH   4   9
BRANCH   5  11
ATOM     11  O3  UNL     1      29.221  -8.998 -32.753  0.00  0.00    +0.000 OA
ATOM     12  H17 UNL     1      29.979  -9.469 -33.189  0.00  0.00    +0.000 HD
ENDBRANCH   5  11
BRANCH   1  13
ATOM     13  C4  UNL     1      24.749  -7.174 -33.828  0.00  0.00    +0.000 C 
BRANCH  13  14
ATOM     14  C3  UNL     1      23.617  -7.670 -34.746  0.00  0.00    +0.000 C 
BRANCH  14  16
ATOM     15  C1  UNL     1      23.206  -8.909 -32.584  0.00  0.00    +0.000 C 
ATOM     16  C2  UNL     1      22.694  -8.639 -33.996  0.00  0.00    +0.000 C 
ENDBRANCH  14  16
ENDBRANCH  13  14
ENDBRANCH   1  13
BRANCH   6  17
ATOM     17  C10 UNL     1      27.374  -6.872 -32.220  0.00  0.00    +0.000 C 
BRANCH  17  18
ATOM     18  O4  UNL     1      27.634  -7.331 -30.919  0.00  0.00    +0.000 OA
ATOM     19  H21 UNL     1      27.975  -6.554 -30.405  0.00  0.00    +0.000 HD
ENDBRANCH  17  18
ENDBRANCH   6  17
TORSDOF 8
ENDMDL
MODEL 2
REMARK VINA RESULT:    -4.095      6.565      8.863
REMARK INTER + INTRA:          -6.132
REMARK INTER:                  -5.683
REMARK INTRA:                  -0.449
REMARK UNBOUND:                -0.601
REMARK  Name = resultss/4CJN/ligands/lig_17_t0.pdb
REMARK  9 active torsions:
REMARK  status: ('A' for Active; 'I' for Inactive)
REMARK    1  A    between atoms: C1_1  and  C2_2
REMARK    2  A    between atoms: C2_2  and  C3_3
REMARK    3  A    between atoms: C3_3  and  C4_4
REMARK    4  A    between atoms: C4_4  and  N1_5
REMARK    5  A    between atoms: C6_7  and  O1_8
REMARK    6  A    between atoms: C7_9  and  O2_10
REMARK    7  A    between atoms: C8_11  and  O3_12
REMARK    8  A    between atoms: C9_13  and  C10_14
REMARK    9  A    between atoms: C10_14  and  O4_15
REMARK                            x       y       z     vdW  Elec       q    Type
REMARK                         _______ _______ _______ _____ _____    ______ ____
ROOT
ATOM      1  N1  UNL     1      27.492  -9.076 -41.684  0.00  0.00    +0.000 NA
ATOM      2  C5  UNL     1      28.298  -8.815 -40.464  0.00  0.00    +0.000 C 
ATOM      3  C6  UNL     1      27.847  -9.638 -39.245  0.00  0.00    +0.000 C 
ATOM      4  C7  UNL     1      26.354  -9.386 -38.916  0.00  0.00    +0.000 C 
ATOM      5  C8  UNL     1      25.516  -9.011 -40.162  0.00  0.00    +0.000 C 
ATOM      6  C9  UNL     1      26.118  -9.610 -41.459  0.00  0.00    +0.000 C 
ENDROOT
BRANCH   3   7
ATOM      7  O1  UNL     1      28.065 -11.002 -39.490  0.00  0.00    +0.000 OA
ATOM      8  H13 UNL     1      28.023 -11.464 -38.612  0.00  0.00    +0.000 HD
ENDBRANCH   3   7
BRANCH   4   9
ATOM      9  O2  UNL     1      26.240  -8.353 -37.970  0.00  0.00    +0.000 OA
ATOM     10  H15 UNL     1      25.927  -8.769 -37.124  0.00  0.00    +0.000 HD
ENDBRANCH   4   9
BRANCH   5  11
ATOM     11  O3  UNL     1      24.195  -9.463 -39.987  0.00  0.00    +0.000 OA
ATOM     12  H17 UNL     1      24.251 -10.346 -39.536  0.00  0.00    +0.000 HD
ENDBRANCH   5  11
BRANCH   1  13
ATOM     13  C4  UNL     1      28.265  -9.692 -42.791  0.00  0.00    +0.000 C 
BRANCH  13  14
ATOM     14  C3  UNL     1      29.788  -9.702 -42.567  0.00  0.00    +0.000 C 
BRANCH  14  16
ATOM     15  C1  UNL     1      31.412 -11.470 -43.349  0.00  0.00    +0.000 C 
ATOM     16  C2  UNL     1      30.299 -11.133 -42.361  0.00  0.00    +0.000 C 
ENDBRANCH  14  16
ENDBRANCH  13  14
ENDBRANCH   1  13
BRANCH   6  17
ATOM     17  C10 UNL     1      25.200  -9.297 -42.666  0.00  0.00    +0.000 C 
BRANCH  17  18
ATOM     18  O4  UNL     1      24.103 -10.171 -42.707  0.00  0.00    +0.000 OA
ATOM     19  H21 UNL     1      24.472 -11.091 -42.746  0.00  0.00    +0.000 HD
ENDBRANCH  17  18
ENDBRANCH   6  17
TORSDOF 8
ENDMDL
MODEL 3
REMARK VINA RESULT:    -3.931      2.480      5.361
REMARK INTER + INTRA:          -5.911
REMARK INTER:                  -5.487
REMARK INTRA:                  -0.423
REMARK UNBOUND:                -0.601
REMARK  Name = resultss/4CJN/ligands/lig_17_t0.pdb
REMARK  9 active torsions:
REMARK  status: ('A' for Active; 'I' for Inactive)
REMARK    1  A    between atoms: C1_1  and  C2_2
REMARK    2  A    between atoms: C2_2  and  C3_3
REMARK    3  A    between atoms: C3_3  and  C4_4
REMARK    4  A    between atoms: C4_4  and  N1_5
REMARK    5  A    between atoms: C6_7  and  O1_8
REMARK    6  A    between atoms: C7_9  and  O2_10
REMARK    7  A    between atoms: C8_11  and  O3_12
REMARK    8  A    between atoms: C9_13  and  C10_14
REMARK    9  A    between atoms: C10_14  and  O4_15
REMARK                            x       y       z     vdW  Elec       q    Type
REMARK                         _______ _______ _______ _____ _____    ______ ____
ROOT
ATOM      1  N1  UNL     1      26.274  -8.335 -35.711  0.00  0.00    +0.000 NA
ATOM      2  C5  UNL     1      26.251  -8.330 -34.225  0.00  0.00    +0.000 C 
ATOM      3  C6  UNL     1      25.011  -9.018 -33.630  0.00  0.00    +0.000 C 
ATOM      4  C7  UNL     1      23.703  -8.369 -34.148  0.00  0.00    +0.000 C 
ATOM      5  C8  UNL     1      23.851  -7.754 -35.560  0.00  0.00    +0.000 C 
ATOM      6  C9  UNL     1      24.951  -8.472 -36.385  0.00  0.00    +0.000 C 
ENDROOT
BRANCH   3   7
ATOM      7  O1  UNL     1      25.032 -10.385 -33.947  0.00  0.00    +0.000 OA
ATOM      8  H13 UNL     1      25.058 -10.881 -33.087  0.00  0.00    +0.000 HD
ENDBRANCH   3   7
BRANCH   4   9
ATOM      9  O2  UNL     1      23.284  -7.363 -33.261  0.00  0.00    +0.000 OA
ATOM     10  H15 UNL     1      23.158  -6.537 -33.799  0.00  0.00    +0.000 HD
ENDBRANCH   4   9
BRANCH   5  11
ATOM     11  O3  UNL     1      22.617  -7.826 -36.231  0.00  0.00    +0.000 OA
ATOM     12  H17 UNL     1      22.742  -7.381 -37.110  0.00  0.00    +0.000 HD
ENDBRANCH   5  11
BRANCH   1  13
ATOM     13  C4  UNL     1      27.393  -9.120 -36.289  0.00  0.00    +0.000 C 
BRANCH  13  14
ATOM     14  C3  UNL     1      28.206  -9.915 -35.252  0.00  0.00    +0.000 C 
BRANCH  14  16
ATOM     15  C1  UNL     1      30.265  -9.573 -33.831  0.00  0.00    +0.000 C 
ATOM     16  C2  UNL     1      29.666  -9.445 -35.229  0.00  0.00    +0.000 C 
ENDBRANCH  14  16
ENDBRANCH  13  14
ENDBRANCH   1  13
BRANCH   6  17
ATOM     17  C10 UNL     1      25.000  -7.895 -37.821  0.00  0.00    +0.000 C 
BRANCH  17  18
ATOM     18  O4  UNL     1      24.268  -8.693 -38.712  0.00  0.00    +0.000 OA
ATOM     19  H21 UNL     1      24.914  -9.317 -39.135  0.00  0.00    +0.000 HD
ENDBRANCH  17  18
ENDBRANCH   6  17
TORSDOF 8
ENDMDL
MODEL 4
REMARK VINA RESULT:    -3.930      3.040      5.630
REMARK INTER + INTRA:          -5.910
REMARK INTER:                  -5.411
REMARK INTRA:                  -0.500
REMARK UNBOUND:                -0.601
REMARK  Name = resultss/4CJN/ligands/lig_17_t0.pdb
REMARK  9 active torsions:
REMARK  status: ('A' for Active; 'I' for Inactive)
REMARK    1  A    between atoms: C1_1  and  C2_2
REMARK    2  A    between atoms: C2_2  and  C3_3
REMARK    3  A    between atoms: C3_3  and  C4_4
REMARK    4  A    between atoms: C4_4  and  N1_5
REMARK    5  A    between atoms: C6_7  and  O1_8
REMARK    6  A    between atoms: C7_9  and  O2_10
REMARK    7  A    between atoms: C8_11  and  O3_12
REMARK    8  A    between atoms: C9_13  and  C10_14
REMARK    9  A    between atoms: C10_14  and  O4_15
REMARK                            x       y       z     vdW  Elec       q    Type
REMARK                         _______ _______ _______ _____ _____    ______ ____
ROOT
ATOM      1  N1  UNL     1      26.796  -8.973 -36.388  0.00  0.00    +0.000 NA
ATOM      2  C5  UNL     1      26.977  -8.913 -34.914  0.00  0.00    +0.000 C 
ATOM      3  C6  UNL     1      25.721  -9.320 -34.126  0.00  0.00    +0.000 C 
ATOM      4  C7  UNL     1      24.504  -8.443 -34.512  0.00  0.00    +0.000 C 
ATOM      5  C8  UNL     1      24.574  -7.919 -35.967  0.00  0.00    +0.000 C 
ATOM      6  C9  UNL     1      25.392  -8.869 -36.879  0.00  0.00    +0.000 C 
ENDROOT
BRANCH   3   7
ATOM      7  O1  UNL     1      25.436 -10.675 -34.360  0.00  0.00    +0.000 OA
ATOM      8  H13 UNL     1      24.451 -10.779 -34.290  0.00  0.00    +0.000 HD
ENDBRANCH   3   7
BRANCH   4   9
ATOM      9  O2  UNL     1      24.411  -7.344 -33.642  0.00  0.00    +0.000 OA
ATOM     10  H15 UNL     1      23.670  -7.538 -33.008  0.00  0.00    +0.000 HD
ENDBRANCH   4   9
BRANCH   5  11
ATOM     11  O3  UNL     1      23.269  -7.768 -36.470  0.00  0.00    +0.000 OA
ATOM     12  H17 UNL     1      23.350  -7.292 -37.338  0.00  0.00    +0.000 HD
ENDBRANCH   5  11
BRANCH   1  13
ATOM     13  C4  UNL     1      27.654  -9.985 -37.055  0.00  0.00    +0.000 C 
BRANCH  13  14
ATOM     14  C3  UNL     1      28.874  -9.393 -37.784  0.00  0.00    +0.000 C 
BRANCH  14  16
ATOM     15  C1  UNL     1      27.754 -10.803 -39.555  0.00  0.00    +0.000 C 
ATOM     16  C2  UNL     1      28.927  -9.879 -39.238  0.00  0.00    +0.000 C 
ENDBRANCH  14  16
ENDBRANCH  13  14
ENDBRANCH   1  13
BRANCH   6  17
ATOM     17  C10 UNL     1      25.356  -8.363 -38.342  0.00  0.00    +0.000 C 
BRANCH  17  18
ATOM     18  O4  UNL     1      24.290  -8.939 -39.050  0.00  0.00    +0.000 OA
ATOM     19  H21 UNL     1      24.515  -8.866 -40.014  0.00  0.00    +0.000 HD
ENDBRANCH  17  18
ENDBRANCH   6  17
TORSDOF 8
ENDMDL
MODEL 5
REMARK VINA RESULT:    -3.875      2.430      3.521
REMARK INTER + INTRA:          -5.835
REMARK INTER:                  -5.445
REMARK INTRA:                  -0.390
REMARK UNBOUND:                -0.601
REMARK  Name = resultss/4CJN/ligands/lig_17_t0.pdb
REMARK  9 active torsions:
REMARK  status: ('A' for Active; 'I' for Inactive)
REMARK    1  A    between atoms: C1_1  and  C2_2
REMARK    2  A    between atoms: C2_2  and  C3_3
REMARK    3  A    between atoms: C3_3  and  C4_4
REMARK    4  A    between atoms: C4_4  and  N1_5
REMARK    5  A    between atoms: C6_7  and  O1_8
REMARK    6  A    between atoms: C7_9  and  O2_10
REMARK    7  A    between atoms: C8_11  and  O3_12
REMARK    8  A    between atoms: C9_13  and  C10_14
REMARK    9  A    between atoms: C10_14  and  O4_15
REMARK                            x       y       z     vdW  Elec       q    Type
REMARK                         _______ _______ _______ _____ _____    ______ ____
ROOT
ATOM      1  N1  UNL     1      25.774  -7.628 -36.143  0.00  0.00    +0.000 NA
ATOM      2  C5  UNL     1      25.869  -6.889 -37.429  0.00  0.00    +0.000 C 
ATOM      3  C6  UNL     1      25.673  -7.784 -38.664  0.00  0.00    +0.000 C 
ATOM      4  C7  UNL     1      26.695  -8.949 -38.685  0.00  0.00    +0.000 C 
ATOM      5  C8  UNL     1      27.144  -9.383 -37.270  0.00  0.00    +0.000 C 
ATOM      6  C9  UNL     1      26.053  -9.091 -36.207  0.00  0.00    +0.000 C 
ENDROOT
BRANCH   3   7
ATOM      7  O1  UNL     1      24.363  -8.289 -38.679  0.00  0.00    +0.000 OA
ATOM      8  H13 UNL     1      24.356  -9.057 -39.307  0.00  0.00    +0.000 HD
ENDBRANCH   3   7
BRANCH   4   9
ATOM      9  O2  UNL     1      27.831  -8.575 -39.423  0.00  0.00    +0.000 OA
ATOM     10  H15 UNL     1      27.912  -7.587 -39.349  0.00  0.00    +0.000 HD
ENDBRANCH   4   9
BRANCH   5  11
ATOM     11  O3  UNL     1      27.455 -10.755 -37.282  0.00  0.00    +0.000 OA
ATOM     12  H17 UNL     1      26.881 -11.185 -36.595  0.00  0.00    +0.000 HD
ENDBRANCH   5  11
BRANCH   1  13
ATOM     13  C4  UNL     1      24.627  -7.212 -35.298  0.00  0.00    +0.000 C 
BRANCH  13  14
ATOM     14  C3  UNL     1      23.304  -7.921 -35.640  0.00  0.00    +0.000 C 
BRANCH  14  16
ATOM     15  C1  UNL     1      23.406  -8.054 -33.121  0.00  0.00    +0.000 C 
ATOM     16  C2  UNL     1      22.630  -8.457 -34.371  0.00  0.00    +0.000 C 
ENDBRANCH  14  16
ENDBRANCH  13  14
ENDBRANCH   1  13
BRANCH   6  17
ATOM     17  C10 UNL     1      26.499  -9.629 -34.825  0.00  0.00    +0.000 C 
BRANCH  17  18
ATOM     18  O4  UNL     1      25.622 -10.620 -34.361  0.00  0.00    +0.000 OA
ATOM     19  H21 UNL     1      26.176 -11.292 -33.885  0.00  0.00    +0.000 HD
ENDBRANCH  17  18
ENDBRANCH   6  17
TORSDOF 8
ENDMDL
MODEL 6
REMARK VINA RESULT:    -3.764      5.900      7.720
REMARK INTER + INTRA:          -5.686
REMARK INTER:                  -5.104
REMARK INTRA:                  -0.582
REMARK UNBOUND:                -0.601
REMARK  Name = resultss/4CJN/ligands/lig_17_t0.pdb
REMARK  9 active torsions:
REMARK  status: ('A' for Active; 'I' for Inactive)
REMARK    1  A    between atoms: C1_1  and  C2_2
REMARK    2  A    between atoms: C2_2  and  C3_3
REMARK    3  A    between atoms: C3_3  and  C4_4
REMARK    4  A    between atoms: C4_4  and  N1_5
REMARK    5  A    between atoms: C6_7  and  O1_8
REMARK    6  A    between atoms: C7_9  and  O2_10
REMARK    7  A    between atoms: C8_11  and  O3_12
REMARK    8  A    between atoms: C9_13  and  C10_14
REMARK    9  A    between atoms: C10_14  and  O4_15
REMARK                            x       y       z     vdW  Elec       q    Type
REMARK                         _______ _______ _______ _____ _____    ______ ____
ROOT
ATOM      1  N1  UNL     1      26.643  -9.103 -40.308  0.00  0.00    +0.000 NA
ATOM      2  C5  UNL     1      26.734  -9.953 -41.524  0.00  0.00    +0.000 C 
ATOM      3  C6  UNL     1      26.069  -9.326 -42.760  0.00  0.00    +0.000 C 
ATOM      4  C7  UNL     1      24.578  -9.000 -42.494  0.00  0.00    +0.000 C 
ATOM      5  C8  UNL     1      24.283  -8.689 -41.007  0.00  0.00    +0.000 C 
ATOM      6  C9  UNL     1      25.528  -8.113 -40.285  0.00  0.00    +0.000 C 
ENDROOT
BRANCH   3   7
ATOM      7  O1  UNL     1      26.761  -8.162 -43.129  0.00  0.00    +0.000 OA
ATOM      8  H13 UNL     1      27.065  -8.290 -44.065  0.00  0.00    +0.000 HD
ENDBRANCH   3   7
BRANCH   4   9
ATOM      9  O2  UNL     1      23.773 -10.080 -42.896  0.00  0.00    +0.000 OA
ATOM     10  H15 UNL     1      23.068 -10.189 -42.204  0.00  0.00    +0.000 HD
ENDBRANCH   4   9
BRANCH   5  11
ATOM     11  O3  UNL     1      23.211  -7.782 -40.925  0.00  0.00    +0.000 OA
ATOM     12  H17 UNL     1      23.494  -7.060 -40.305  0.00  0.00    +0.000 HD
ENDBRANCH   5  11
BRANCH   1  13
ATOM     13  C4  UNL     1      27.958  -8.627 -39.811  0.00  0.00    +0.000 C 
BRANCH  13  14
ATOM     14  C3  UNL     1      28.754  -9.684 -39.024  0.00  0.00    +0.000 C 
BRANCH  14  16
ATOM     15  C1  UNL     1      27.711  -9.730 -36.724  0.00  0.00    +0.000 C 
ATOM     16  C2  UNL     1      27.837 -10.451 -38.063  0.00  0.00    +0.000 C 
ENDBRANCH  14  16
ENDBRANCH  13  14
ENDBRANCH   1  13
BRANCH   6  17
ATOM     17  C10 UNL     1      25.167  -7.723 -38.831  0.00  0.00    +0.000 C 
BRANCH  17  18
ATOM     18  O4  UNL     1      24.316  -8.675 -38.249  0.00  0.00    +0.000 OA
ATOM     19  H21 UNL     1      23.535  -8.179 -37.890  0.00  0.00    +0.000 HD
ENDBRANCH  17  18
ENDBRANCH   6  17
TORSDOF 8
ENDMDL
MODEL 7
REMARK VINA RESULT:    -3.693      7.487      9.364
REMARK INTER + INTRA:          -5.589
REMARK INTER:                  -5.156
REMARK INTRA:                  -0.433
REMARK UNBOUND:                -0.601
REMARK  Name = resultss/4CJN/ligands/lig_17_t0.pdb
REMARK  9 active torsions:
REMARK  status: ('A' for Active; 'I' for Inactive)
REMARK    1  A    between atoms: C1_1  and  C2_2
REMARK    2  A    between atoms: C2_2  and  C3_3
REMARK    3  A    between atoms: C3_3  and  C4_4
REMARK    4  A    between atoms: C4_4  and  N1_5
REMARK    5  A    between atoms: C6_7  and  O1_8
REMARK    6  A    between atoms: C7_9  and  O2_10
REMARK    7  A    between atoms: C8_11  and  O3_12
REMARK    8  A    between atoms: C9_13  and  C10_14
REMARK    9  A    between atoms: C10_14  and  O4_15
REMARK                            x       y       z     vdW  Elec       q    Type
REMARK                         _______ _______ _______ _____ _____    ______ ____
ROOT
ATOM      1  N1  UNL     1      27.785  -8.639 -42.115  0.00  0.00    +0.000 NA
ATOM      2  C5  UNL     1      29.256  -8.444 -42.026  0.00  0.00    +0.000 C 
ATOM      3  C6  UNL     1      30.041  -9.762 -41.918  0.00  0.00    +0.000 C 
ATOM      4  C7  UNL     1      29.577 -10.598 -40.699  0.00  0.00    +0.000 C 
ATOM      5  C8  UNL     1      28.095 -10.353 -40.328  0.00  0.00    +0.000 C 
ATOM      6  C9  UNL     1      27.260  -9.919 -41.560  0.00  0.00    +0.000 C 
ENDROOT
BRANCH   3   7
ATOM      7  O1  UNL     1      29.886 -10.502 -43.101  0.00  0.00    +0.000 OA
ATOM      8  H13 UNL     1      29.867 -11.461 -42.842  0.00  0.00    +0.000 HD
ENDBRANCH   3   7
BRANCH   4   9
ATOM      9  O2  UNL     1      30.376 -10.300 -39.582  0.00  0.00    +0.000 OA
ATOM     10  H15 UNL     1      30.404  -9.310 -39.503  0.00  0.00    +0.000 HD
ENDBRANCH   4   9
BRANCH   5  11
ATOM     11  O3  UNL     1      27.556 -11.524 -39.765  0.00  0.00    +0.000 OA
ATOM     12  H17 UNL     1      28.033 -12.288 -40.182  0.00  0.00    +0.000 HD
ENDBRANCH   5  11
BRANCH   1  13
ATOM     13  C4  UNL     1      27.200  -8.189 -43.403  0.00  0.00    +0.000 C 
BRANCH  13  14
ATOM     14  C3  UNL     1      28.233  -7.661 -44.414  0.00  0.00    +0.000 C 
BRANCH  14  16
ATOM     15  C1  UNL     1      27.462  -7.196 -46.773  0.00  0.00    +0.000 C 
ATOM     16  C2  UNL     1      27.595  -6.636 -45.360  0.00  0.00    +0.000 C 
ENDBRANCH  14  16
ENDBRANCH  13  14
ENDBRANCH   1  13
BRANCH   6  17
ATOM     17  C10 UNL     1      25.768  -9.780 -41.169  0.00  0.00    +0.000 C 
BRANCH  17  18
ATOM     18  O4  UNL     1      25.073 -10.979 -41.390  0.00  0.00    +0.000 OA
ATOM     19  H21 UNL     1      24.626 -11.211 -40.535  0.00  0.00    +0.000 HD
ENDBRANCH  17  18
ENDBRANCH   6  17
TORSDOF 8
ENDMDL
MODEL 8
REMARK VINA RESULT:    -3.518      5.886      7.949
REMARK INTER + INTRA:          -5.353
REMARK INTER:                  -4.909
REMARK INTRA:                  -0.443
REMARK UNBOUND:                -0.601
REMARK  Name = resultss/4CJN/ligands/lig_17_t0.pdb
REMARK  9 active torsions:
REMARK  status: ('A' for Active; 'I' for Inactive)
REMARK    1  A    between atoms: C1_1  and  C2_2
REMARK    2  A    between atoms: C2_2  and  C3_3
REMARK    3  A    between atoms: C3_3  and  C4_4
REMARK    4  A    between atoms: C4_4  and  N1_5
REMARK    5  A    between atoms: C6_7  and  O1_8
REMARK    6  A    between atoms: C7_9  and  O2_10
REMARK    7  A    between atoms: C8_11  and  O3_12
REMARK    8  A    between atoms: C9_13  and  C10_14
REMARK    9  A    between atoms: C10_14  and  O4_15
REMARK                            x       y       z     vdW  Elec       q    Type
REMARK                         _______ _______ _______ _____ _____    ______ ____
ROOT
ATOM      1  N1  UNL     1      28.008 -10.199 -40.170  0.00  0.00    +0.000 NA
ATOM      2  C5  UNL     1      26.947 -10.259 -41.209  0.00  0.00    +0.000 C 
ATOM      3  C6  UNL     1      26.080  -8.991 -41.271  0.00  0.00    +0.000 C 
ATOM      4  C7  UNL     1      25.417  -8.692 -39.903  0.00  0.00    +0.000 C 
ATOM      5  C8  UNL     1      26.250  -9.205 -38.704  0.00  0.00    +0.000 C 
ATOM      6  C9  UNL     1      27.763  -9.259 -39.039  0.00  0.00    +0.000 C 
ENDROOT
BRANCH   3   7
ATOM      7  O1  UNL     1      26.866  -7.901 -41.676  0.00  0.00    +0.000 OA
ATOM      8  H13 UNL     1      26.245  -7.212 -42.030  0.00  0.00    +0.000 HD
ENDBRANCH   3   7
BRANCH   4   9
ATOM      9  O2  UNL     1      24.142  -9.282 -39.850  0.00  0.00    +0.000 OA
ATOM     10  H15 UNL     1      23.713  -8.968 -39.011  0.00  0.00    +0.000 HD
ENDBRANCH   4   9
BRANCH   5  11
ATOM     11  O3  UNL     1      26.028  -8.371 -37.593  0.00  0.00    +0.000 OA
ATOM     12  H17 UNL     1      25.074  -8.478 -37.341  0.00  0.00    +0.000 HD
ENDBRANCH   5  11
BRANCH   1  13
ATOM     13  C4  UNL     1      29.386 -10.223 -40.720  0.00  0.00    +0.000 C 
BRANCH  13  14
ATOM     14  C3  UNL     1      29.451 -10.413 -42.247  0.00  0.00    +0.000 C 
BRANCH  14  16
ATOM     15  C1  UNL     1      31.157 -12.136 -42.952  0.00  0.00    +0.000 C 
ATOM     16  C2  UNL     1      30.896 -10.653 -42.704  0.00  0.00    +0.000 C 
ENDBRANCH  14  16
ENDBRANCH  13  14
ENDBRANCH   1  13
BRANCH   6  17
ATOM     17  C10 UNL     1      28.570  -9.682 -37.786  0.00  0.00    +0.000 C 
BRANCH  17  18
ATOM     18  O4  UNL     1      27.811 -10.518 -36.954  0.00  0.00    +0.000 OA
ATOM     19  H21 UNL     1      27.359  -9.931 -36.295  0.00  0.00    +0.000 HD
ENDBRANCH  17  18
ENDBRANCH   6  17
TORSDOF 8
ENDMDL
MODEL 9
REMARK VINA RESULT:    -3.411      2.584      5.151
REMARK INTER + INTRA:          -5.209
REMARK INTER:                  -4.777
REMARK INTRA:                  -0.432
REMARK UNBOUND:                -0.601
REMARK  Name = resultss/4CJN/ligands/lig_17_t0.pdb
REMARK  9 active torsions:
REMARK  status: ('A' for Active; 'I' for Inactive)
REMARK    1  A    between atoms: C1_1  and  C2_2
REMARK    2  A    between atoms: C2_2  and  C3_3
REMARK    3  A    between atoms: C3_3  and  C4_4
REMARK    4  A    between atoms: C4_4  and  N1_5
REMARK    5  A    between atoms: C6_7  and  O1_8
REMARK    6  A    between atoms: C7_9  and  O2_10
REMARK    7  A    between atoms: C8_11  and  O3_12
REMARK    8  A    between atoms: C9_13  and  C10_14
REMARK    9  A    between atoms: C10_14  and  O4_15
REMARK                            x       y       z     vdW  Elec       q    Type
REMARK                         _______ _______ _______ _____ _____    ______ ____
ROOT
ATOM      1  N1  UNL     1      26.109  -8.357 -34.829  0.00  0.00    +0.000 NA
ATOM      2  C5  UNL     1      25.106  -7.492 -34.156  0.00  0.00    +0.000 C 
ATOM      3  C6  UNL     1      23.653  -7.853 -34.507  0.00  0.00    +0.000 C 
ATOM      4  C7  UNL     1      23.411  -7.794 -36.037  0.00  0.00    +0.000 C 
ATOM      5  C8  UNL     1      24.684  -8.103 -36.862  0.00  0.00    +0.000 C 
ATOM      6  C9  UNL     1      25.661  -9.023 -36.085  0.00  0.00    +0.000 C 
ENDROOT
BRANCH   3   7
ATOM      7  O1  UNL     1      23.353  -9.134 -34.018  0.00  0.00    +0.000 OA
ATOM      8  H13 UNL     1      23.223  -9.046 -33.038  0.00  0.00    +0.000 HD
ENDBRANCH   3   7
BRANCH   4   9
ATOM      9  O2  UNL     1      22.939  -6.521 -36.398  0.00  0.00    +0.000 OA
ATOM     10  H15 UNL     1      23.710  -6.023 -36.776  0.00  0.00    +0.000 HD
ENDBRANCH   4   9
BRANCH   5  11
ATOM     11  O3  UNL     1      24.315  -8.703 -38.079  0.00  0.00    +0.000 OA
ATOM     12  H17 UNL     1      23.327  -8.801 -38.062  0.00  0.00    +0.000 HD
ENDBRANCH   5  11
BRANCH   1  13
ATOM     13  C4  UNL     1      26.908  -9.186 -33.892  0.00  0.00    +0.000 C 
BRANCH  13  14
ATOM     14  C3  UNL     1      28.298  -8.608 -33.568  0.00  0.00    +0.000 C 
BRANCH  14  16
ATOM     15  C1  UNL     1      30.421  -9.616 -32.644  0.00  0.00    +0.000 C 
ATOM     16  C2  UNL     1      29.388  -9.669 -33.766  0.00  0.00    +0.000 C 
ENDBRANCH  14  16
ENDBRANCH  13  14
ENDBRANCH   1  13
BRANCH   6  17
ATOM     17  C10 UNL     1      26.871  -9.388 -36.979  0.00  0.00    +0.000 C 
BRANCH  17  18
ATOM     18  O4  UNL     1      27.245  -8.307 -37.791  0.00  0.00    +0.000 OA
ATOM     19  H21 UNL     1      26.653  -8.330 -38.588  0.00  0.00    +0.000 HD
ENDBRANCH  17  18
ENDBRANCH   6  17
TORSDOF 8
ENDMDL
