MODEL 1
REMARK VINA RESULT:    -6.142      0.000      0.000
REMARK INTER + INTRA:          -7.836
REMARK INTER:                  -7.398
REMARK INTRA:                  -0.438
REMARK UNBOUND:                -0.438
REMARK  Name = resultss/4CJN/ligands/lig_389_t2.pdb
REMARK  5 active torsions:
REMARK  status: ('A' for Active; 'I' for Inactive)
REMARK    1  A    between atoms: C1_1  and  N1_2
REMARK    2  A    between atoms: C3_5  and  C4_6
REMARK    3  A    between atoms: N3_18  and  C13_19
REMARK    4  A    between atoms: C16_22  and  S2_23
REMARK    5  A    between atoms: S2_23  and  N4_24
REMARK                            x       y       z     vdW  Elec       q    Type
REMARK                         _______ _______ _______ _____ _____    ______ ____
ROOT
ATOM      1  C1  UNL     1      28.133 -10.891 -40.706  0.00  0.00    +0.000 C 
ATOM      2  N1  UNL     1      28.733 -10.070 -39.653  0.00  0.00    +0.000 N 
ATOM      3  C2  UNL     1      28.332 -10.203 -38.297  0.00  0.00    +0.000 C 
ATOM      4  O1  UNL     1      27.847 -11.277 -37.848  0.00  0.00    +0.000 OA
ATOM      5  C3  UNL     1      28.501  -8.990 -37.440  0.00  0.00    +0.000 C 
ATOM      6  S1  UNL     1      28.838  -7.587 -38.573  0.00  0.00    +0.000 S 
ATOM      7  C12 UNL     1      29.240  -8.754 -39.865  0.00  0.00    +0.000 C 
ATOM      8  N3  UNL     1      30.153  -8.461 -40.746  0.00  0.00    +0.000 NA
ENDROOT
BRANCH   5   9
ATOM      9  C4  UNL     1      29.632  -9.187 -36.463  0.00  0.00    +0.000 C 
ATOM     10  C5  UNL     1      30.999  -9.624 -36.729  0.00  0.00    +0.000 C 
ATOM     11  O2  UNL     1      31.500  -9.851 -37.861  0.00  0.00    +0.000 OA
ATOM     12  N2  UNL     1      31.708  -9.786 -35.505  0.00  0.00    +0.000 NA
ATOM     13  C6  UNL     1      30.822  -9.487 -34.610  0.00  0.00    +0.000 A 
ATOM     14  C7  UNL     1      31.041  -9.518 -33.233  0.00  0.00    +0.000 A 
ATOM     15  C8  UNL     1      29.974  -9.196 -32.378  0.00  0.00    +0.000 A 
ATOM     16  C9  UNL     1      28.714  -8.854 -32.907  0.00  0.00    +0.000 A 
ATOM     17  C10 UNL     1      28.506  -8.827 -34.296  0.00  0.00    +0.000 A 
ATOM     18  C11 UNL     1      29.583  -9.140 -35.134  0.00  0.00    +0.000 A 
ENDBRANCH   5   9
BRANCH   8  19
ATOM     19  C13 UNL     1      30.822  -9.370 -41.633  0.00  0.00    +0.000 A 
ATOM     20  C14 UNL     1      30.229  -9.680 -42.862  0.00  0.00    +0.000 A 
ATOM     21  C15 UNL     1      30.876 -10.530 -43.764  0.00  0.00    +0.000 A 
ATOM     22  C16 UNL     1      32.132 -11.066 -43.452  0.00  0.00    +0.000 A 
ATOM     23  C17 UNL     1      32.748 -10.722 -42.240  0.00  0.00    +0.000 A 
ATOM     24  C18 UNL     1      32.102  -9.872 -41.339  0.00  0.00    +0.000 A 
BRANCH  22  25
ATOM     25  S2  UNL     1      32.950 -12.123 -44.596  0.00  0.00    +0.000 S 
ATOM     26  O3  UNL     1      34.317 -12.475 -44.080  0.00  0.00    +0.000 OA
ATOM     27  O4  UNL     1      32.159 -13.390 -44.769  0.00  0.00    +0.000 OA
BRANCH  25  28
ATOM     28  N4  UNL     1      33.100 -11.318 -46.118  0.00  0.00    +0.000 NA
ATOM     29  H11 UNL     1      33.584 -10.411 -45.937  0.00  0.00    +0.000 HD
ATOM     30  H12 UNL     1      33.746 -11.893 -46.705  0.00  0.00    +0.000 HD
ENDBRANCH  25  28
ENDBRANCH  22  25
ENDBRANCH   8  19
TORSDOF 4
ENDMDL
MODEL 2
REMARK VINA RESULT:    -6.086      3.129      3.866
REMARK INTER + INTRA:          -7.770
REMARK INTER:                  -7.370
REMARK INTRA:                  -0.399
REMARK UNBOUND:                -0.438
REMARK  Name = resultss/4CJN/ligands/lig_389_t2.pdb
REMARK  5 active torsions:
REMARK  status: ('A' for Active; 'I' for Inactive)
REMARK    1  A    between atoms: C1_1  and  N1_2
REMARK    2  A    between atoms: C3_5  and  C4_6
REMARK    3  A    between atoms: N3_18  and  C13_19
REMARK    4  A    between atoms: C16_22  and  S2_23
REMARK    5  A    between atoms: S2_23  and  N4_24
REMARK                            x       y       z     vdW  Elec       q    Type
REMARK                         _______ _______ _______ _____ _____    ______ ____
ROOT
ATOM      1  C1  UNL     1      26.212  -9.322 -42.150  0.00  0.00    +0.000 C 
ATOM      2  N1  UNL     1      26.303  -8.777 -40.794  0.00  0.00    +0.000 N 
ATOM      3  C2  UNL     1      25.218  -8.881 -39.884  0.00  0.00    +0.000 C 
ATOM      4  O1  UNL     1      24.360  -9.800 -39.972  0.00  0.00    +0.000 OA
ATOM      5  C3  UNL     1      25.143  -7.825 -38.828  0.00  0.00    +0.000 C 
ATOM      6  S1  UNL     1      26.316  -6.503 -39.321  0.00  0.00    +0.000 S 
ATOM      7  C12 UNL     1      27.100  -7.647 -40.446  0.00  0.00    +0.000 C 
ATOM      8  N3  UNL     1      28.382  -7.567 -40.668  0.00  0.00    +0.000 NA
ENDROOT
BRANCH   5   9
ATOM      9  C4  UNL     1      25.501  -8.399 -37.481  0.00  0.00    +0.000 C 
ATOM     10  C5  UNL     1      26.616  -9.275 -37.132  0.00  0.00    +0.000 C 
ATOM     11  O2  UNL     1      27.535  -9.654 -37.905  0.00  0.00    +0.000 OA
ATOM     12  N2  UNL     1      26.517  -9.673 -35.769  0.00  0.00    +0.000 NA
ATOM     13  C6  UNL     1      25.430  -9.095 -35.370  0.00  0.00    +0.000 A 
ATOM     14  C7  UNL     1      24.894  -9.203 -34.088  0.00  0.00    +0.000 A 
ATOM     15  C8  UNL     1      23.688  -8.541 -33.808  0.00  0.00    +0.000 A 
ATOM     16  C9  UNL     1      23.038  -7.788 -34.806  0.00  0.00    +0.000 A 
ATOM     17  C10 UNL     1      23.588  -7.686 -36.095  0.00  0.00    +0.000 A 
ATOM     18  C11 UNL     1      24.796  -8.344 -36.354  0.00  0.00    +0.000 A 
ENDBRANCH   5   9
BRANCH   8  19
ATOM     19  C13 UNL     1      29.220  -8.566 -41.265  0.00  0.00    +0.000 A 
ATOM     20  C14 UNL     1      29.314  -8.629 -42.660  0.00  0.00    +0.000 A 
ATOM     21  C15 UNL     1      30.154  -9.566 -43.271  0.00  0.00    +0.000 A 
ATOM     22  C16 UNL     1      30.922 -10.439 -42.489  0.00  0.00    +0.000 A 
ATOM     23  C17 UNL     1      30.862 -10.350 -41.092  0.00  0.00    +0.000 A 
ATOM     24  C18 UNL     1      30.024  -9.414 -40.482  0.00  0.00    +0.000 A 
BRANCH  22  25
ATOM     25  S2  UNL     1      31.989 -11.607 -43.261  0.00  0.00    +0.000 S 
ATOM     26  O3  UNL     1      31.256 -12.900 -43.485  0.00  0.00    +0.000 OA
ATOM     27  O4  UNL     1      32.444 -11.074 -44.592  0.00  0.00    +0.000 OA
BRANCH  25  28
ATOM     28  N4  UNL     1      33.360 -11.891 -42.248  0.00  0.00    +0.000 NA
ATOM     29  H11 UNL     1      33.281 -11.238 -41.437  0.00  0.00    +0.000 HD
ATOM     30  H12 UNL     1      33.262 -12.859 -41.867  0.00  0.00    +0.000 HD
ENDBRANCH  25  28
ENDBRANCH  22  25
ENDBRANCH   8  19
TORSDOF 4
ENDMDL
MODEL 3
REMARK VINA RESULT:    -6.066      4.304      9.576
REMARK INTER + INTRA:          -7.745
REMARK INTER:                  -7.155
REMARK INTRA:                  -0.590
REMARK UNBOUND:                -0.438
REMARK  Name = resultss/4CJN/ligands/lig_389_t2.pdb
REMARK  5 active torsions:
REMARK  status: ('A' for Active; 'I' for Inactive)
REMARK    1  A    between atoms: C1_1  and  N1_2
REMARK    2  A    between atoms: C3_5  and  C4_6
REMARK    3  A    between atoms: N3_18  and  C13_19
REMARK    4  A    between atoms: C16_22  and  S2_23
REMARK    5  A    between atoms: S2_23  and  N4_24
REMARK                            x       y       z     vdW  Elec       q    Type
REMARK                         _______ _______ _______ _____ _____    ______ ____
ROOT
ATOM      1  C1  UNL     1      29.133  -9.708 -39.411  0.00  0.00    +0.000 C 
ATOM      2  N1  UNL     1      28.617  -8.736 -40.376  0.00  0.00    +0.000 N 
ATOM      3  C2  UNL     1      28.554  -9.037 -41.763  0.00  0.00    +0.000 C 
ATOM      4  O1  UNL     1      28.464 -10.222 -42.184  0.00  0.00    +0.000 OA
ATOM      5  C3  UNL     1      28.620  -7.868 -42.692  0.00  0.00    +0.000 C 
ATOM      6  S1  UNL     1      29.149  -6.426 -41.689  0.00  0.00    +0.000 S 
ATOM      7  C12 UNL     1      28.713  -7.323 -40.208  0.00  0.00    +0.000 C 
ATOM      8  N3  UNL     1      28.251  -6.683 -39.171  0.00  0.00    +0.000 NA
ENDROOT
BRANCH   5   9
ATOM      9  C4  UNL     1      27.276  -7.625 -43.332  0.00  0.00    +0.000 C 
ATOM     10  C5  UNL     1      25.949  -7.740 -42.733  0.00  0.00    +0.000 C 
ATOM     11  O2  UNL     1      25.697  -8.001 -41.528  0.00  0.00    +0.000 OA
ATOM     12  N2  UNL     1      24.947  -7.533 -43.722  0.00  0.00    +0.000 NA
ATOM     13  C6  UNL     1      25.633  -7.334 -44.801  0.00  0.00    +0.000 A 
ATOM     14  C7  UNL     1      25.085  -7.101 -46.062  0.00  0.00    +0.000 A 
ATOM     15  C8  UNL     1      25.956  -6.933 -47.150  0.00  0.00    +0.000 A 
ATOM     16  C9  UNL     1      27.351  -7.002 -46.965  0.00  0.00    +0.000 A 
ATOM     17  C10 UNL     1      27.892  -7.237 -45.689  0.00  0.00    +0.000 A 
ATOM     18  C11 UNL     1      27.009  -7.393 -44.614  0.00  0.00    +0.000 A 
ENDBRANCH   5   9
BRANCH   8  19
ATOM     19  C13 UNL     1      27.563  -7.244 -38.044  0.00  0.00    +0.000 A 
ATOM     20  C14 UNL     1      28.220  -7.310 -36.810  0.00  0.00    +0.000 A 
ATOM     21  C15 UNL     1      27.561  -7.814 -35.684  0.00  0.00    +0.000 A 
ATOM     22  C16 UNL     1      26.231  -8.243 -35.780  0.00  0.00    +0.000 A 
ATOM     23  C17 UNL     1      25.557  -8.139 -37.004  0.00  0.00    +0.000 A 
ATOM     24  C18 UNL     1      26.214  -7.634 -38.129  0.00  0.00    +0.000 A 
BRANCH  22  25
ATOM     25  S2  UNL     1      25.400  -8.864 -34.357  0.00  0.00    +0.000 S 
ATOM     26  O3  UNL     1      26.051  -8.329 -33.112  0.00  0.00    +0.000 OA
ATOM     27  O4  UNL     1      23.963  -8.422 -34.378  0.00  0.00    +0.000 OA
BRANCH  25  28
ATOM     28  N4  UNL     1      25.479 -10.590 -34.352  0.00  0.00    +0.000 NA
ATOM     29  H11 UNL     1      24.578 -10.936 -33.954  0.00  0.00    +0.000 HD
ATOM     30  H12 UNL     1      25.506 -10.897 -35.350  0.00  0.00    +0.000 HD
ENDBRANCH  25  28
ENDBRANCH  22  25
ENDBRANCH   8  19
TORSDOF 4
ENDMDL
MODEL 4
REMARK VINA RESULT:    -6.029      6.061     10.538
REMARK INTER + INTRA:          -7.700
REMARK INTER:                  -7.076
REMARK INTRA:                  -0.624
REMARK UNBOUND:                -0.438
REMARK  Name = resultss/4CJN/ligands/lig_389_t2.pdb
REMARK  5 active torsions:
REMARK  status: ('A' for Active; 'I' for Inactive)
REMARK    1  A    between atoms: C1_1  and  N1_2
REMARK    2  A    between atoms: C3_5  and  C4_6
REMARK    3  A    between atoms: N3_18  and  C13_19
REMARK    4  A    between atoms: C16_22  and  S2_23
REMARK    5  A    between atoms: S2_23  and  N4_24
REMARK                            x       y       z     vdW  Elec       q    Type
REMARK                         _______ _______ _______ _____ _____    ______ ____
ROOT
ATOM      1  C1  UNL     1      26.642  -9.757 -40.517  0.00  0.00    +0.000 C 
ATOM      2  N1  UNL     1      25.955  -8.666 -41.210  0.00  0.00    +0.000 N 
ATOM      3  C2  UNL     1      25.364  -8.862 -42.487  0.00  0.00    +0.000 C 
ATOM      4  O1  UNL     1      24.970  -9.996 -42.873  0.00  0.00    +0.000 OA
ATOM      5  C3  UNL     1      25.254  -7.648 -43.352  0.00  0.00    +0.000 C 
ATOM      6  S1  UNL     1      26.296  -6.352 -42.577  0.00  0.00    +0.000 S 
ATOM      7  C12 UNL     1      26.295  -7.290 -41.057  0.00  0.00    +0.000 C 
ATOM      8  N3  UNL     1      26.323  -6.672 -39.911  0.00  0.00    +0.000 NA
ENDROOT
BRANCH   5   9
ATOM      9  C4  UNL     1      23.818  -7.203 -43.459  0.00  0.00    +0.000 C 
ATOM     10  C5  UNL     1      22.870  -6.922 -42.385  0.00  0.00    +0.000 C 
ATOM     11  O2  UNL     1      23.119  -6.935 -41.151  0.00  0.00    +0.000 OA
ATOM     12  N2  UNL     1      21.585  -6.641 -42.927  0.00  0.00    +0.000 NA
ATOM     13  C6  UNL     1      21.768  -6.768 -44.202  0.00  0.00    +0.000 A 
ATOM     14  C7  UNL     1      20.777  -6.607 -45.169  0.00  0.00    +0.000 A 
ATOM     15  C8  UNL     1      21.118  -6.807 -46.517  0.00  0.00    +0.000 A 
ATOM     16  C9  UNL     1      22.432  -7.164 -46.876  0.00  0.00    +0.000 A 
ATOM     17  C10 UNL     1      23.423  -7.323 -45.892  0.00  0.00    +0.000 A 
ATOM     18  C11 UNL     1      23.069  -7.111 -44.554  0.00  0.00    +0.000 A 
ENDBRANCH   5   9
BRANCH   8  19
ATOM     19  C13 UNL     1      26.009  -7.223 -38.624  0.00  0.00    +0.000 A 
ATOM     20  C14 UNL     1      27.053  -7.540 -37.747  0.00  0.00    +0.000 A 
ATOM     21  C15 UNL     1      26.777  -8.041 -36.471  0.00  0.00    +0.000 A 
ATOM     22  C16 UNL     1      25.451  -8.214 -36.053  0.00  0.00    +0.000 A 
ATOM     23  C17 UNL     1      24.403  -7.858 -36.913  0.00  0.00    +0.000 A 
ATOM     24  C18 UNL     1      24.678  -7.356 -38.188  0.00  0.00    +0.000 A 
BRANCH  22  25
ATOM     25  S2  UNL     1      25.107  -8.830 -34.440  0.00  0.00    +0.000 S 
ATOM     26  O3  UNL     1      25.911  -8.072 -33.422  0.00  0.00    +0.000 OA
ATOM     27  O4  UNL     1      23.646  -8.653 -34.131  0.00  0.00    +0.000 OA
BRANCH  25  28
ATOM     28  N4  UNL     1      25.519 -10.507 -34.366  0.00  0.00    +0.000 NA
ATOM     29  H11 UNL     1      25.315 -10.914 -35.305  0.00  0.00    +0.000 HD
ATOM     30  H12 UNL     1      26.553 -10.561 -34.231  0.00  0.00    +0.000 HD
ENDBRANCH  25  28
ENDBRANCH  22  25
ENDBRANCH   8  19
TORSDOF 4
ENDMDL
MODEL 5
REMARK VINA RESULT:    -5.926      3.253      8.549
REMARK INTER + INTRA:          -7.577
REMARK INTER:                  -7.129
REMARK INTRA:                  -0.447
REMARK UNBOUND:                -0.438
REMARK  Name = resultss/4CJN/ligands/lig_389_t2.pdb
REMARK  5 active torsions:
REMARK  status: ('A' for Active; 'I' for Inactive)
REMARK    1  A    between atoms: C1_1  and  N1_2
REMARK    2  A    between atoms: C3_5  and  C4_6
REMARK    3  A    between atoms: N3_18  and  C13_19
REMARK    4  A    between atoms: C16_22  and  S2_23
REMARK    5  A    between atoms: S2_23  and  N4_24
REMARK                            x       y       z     vdW  Elec       q    Type
REMARK                         _______ _______ _______ _____ _____    ______ ____
ROOT
ATOM      1  C1  UNL     1      26.533  -8.003 -39.053  0.00  0.00    +0.000 C 
ATOM      2  N1  UNL     1      27.565  -8.959 -39.459  0.00  0.00    +0.000 N 
ATOM      3  C2  UNL     1      28.208  -8.855 -40.722  0.00  0.00    +0.000 C 
ATOM      4  O1  UNL     1      28.310  -7.756 -41.330  0.00  0.00    +0.000 OA
ATOM      5  C3  UNL     1      28.740 -10.129 -41.294  0.00  0.00    +0.000 C 
ATOM      6  S1  UNL     1      28.025 -11.494 -40.298  0.00  0.00    +0.000 S 
ATOM      7  C12 UNL     1      27.606 -10.316 -39.023  0.00  0.00    +0.000 C 
ATOM      8  N3  UNL     1      27.632 -10.674 -37.771  0.00  0.00    +0.000 NA
ENDROOT
BRANCH   5   9
ATOM      9  C4  UNL     1      30.247 -10.145 -41.239  0.00  0.00    +0.000 C 
ATOM     10  C5  UNL     1      31.130  -9.457 -40.303  0.00  0.00    +0.000 C 
ATOM     11  O2  UNL     1      30.773  -8.770 -39.310  0.00  0.00    +0.000 OA
ATOM     12  N2  UNL     1      32.489  -9.651 -40.679  0.00  0.00    +0.000 NA
ATOM     13  C6  UNL     1      32.399 -10.373 -41.750  0.00  0.00    +0.000 A 
ATOM     14  C7  UNL     1      33.483 -10.812 -42.508  0.00  0.00    +0.000 A 
ATOM     15  C8  UNL     1      33.229 -11.564 -43.666  0.00  0.00    +0.000 A 
ATOM     16  C9  UNL     1      31.906 -11.863 -44.048  0.00  0.00    +0.000 A 
ATOM     17  C10 UNL     1      30.822 -11.415 -43.275  0.00  0.00    +0.000 A 
ATOM     18  C11 UNL     1      31.093 -10.674 -42.119  0.00  0.00    +0.000 A 
ENDBRANCH   5   9
BRANCH   8  19
ATOM     19  C13 UNL     1      27.644  -9.812 -36.624  0.00  0.00    +0.000 A 
ATOM     20  C14 UNL     1      26.450  -9.587 -35.930  0.00  0.00    +0.000 A 
ATOM     21  C15 UNL     1      26.438  -8.783 -34.785  0.00  0.00    +0.000 A 
ATOM     22  C16 UNL     1      27.626  -8.210 -34.314  0.00  0.00    +0.000 A 
ATOM     23  C17 UNL     1      28.831  -8.469 -34.982  0.00  0.00    +0.000 A 
ATOM     24  C18 UNL     1      28.843  -9.272 -36.125  0.00  0.00    +0.000 A 
BRANCH  22  25
ATOM     25  S2  UNL     1      27.610  -7.212 -32.865  0.00  0.00    +0.000 S 
ATOM     26  O3  UNL     1      28.154  -7.992 -31.701  0.00  0.00    +0.000 OA
ATOM     27  O4  UNL     1      28.472  -5.998 -33.076  0.00  0.00    +0.000 OA
BRANCH  25  28
ATOM     28  N4  UNL     1      25.988  -6.722 -32.522  0.00  0.00    +0.000 NA
ATOM     29  H11 UNL     1      25.931  -6.556 -31.493  0.00  0.00    +0.000 HD
ATOM     30  H12 UNL     1      25.845  -5.798 -32.986  0.00  0.00    +0.000 HD
ENDBRANCH  25  28
ENDBRANCH  22  25
ENDBRANCH   8  19
TORSDOF 4
ENDMDL
MODEL 6
REMARK VINA RESULT:    -5.890      4.338      9.701
REMARK INTER + INTRA:          -7.533
REMARK INTER:                  -7.097
REMARK INTRA:                  -0.436
REMARK UNBOUND:                -0.438
REMARK  Name = resultss/4CJN/ligands/lig_389_t2.pdb
REMARK  5 active torsions:
REMARK  status: ('A' for Active; 'I' for Inactive)
REMARK    1  A    between atoms: C1_1  and  N1_2
REMARK    2  A    between atoms: C3_5  and  C4_6
REMARK    3  A    between atoms: N3_18  and  C13_19
REMARK    4  A    between atoms: C16_22  and  S2_23
REMARK    5  A    between atoms: S2_23  and  N4_24
REMARK                            x       y       z     vdW  Elec       q    Type
REMARK                         _______ _______ _______ _____ _____    ______ ____
ROOT
ATOM      1  C1  UNL     1      27.813 -10.272 -37.838  0.00  0.00    +0.000 C 
ATOM      2  N1  UNL     1      27.743  -9.290 -38.921  0.00  0.00    +0.000 N 
ATOM      3  C2  UNL     1      27.783  -9.692 -40.283  0.00  0.00    +0.000 C 
ATOM      4  O1  UNL     1      27.407 -10.838 -40.652  0.00  0.00    +0.000 OA
ATOM      5  C3  UNL     1      28.317  -8.684 -41.249  0.00  0.00    +0.000 C 
ATOM      6  S1  UNL     1      29.105  -7.362 -40.251  0.00  0.00    +0.000 S 
ATOM      7  C12 UNL     1      28.226  -7.953 -38.813  0.00  0.00    +0.000 C 
ATOM      8  N3  UNL     1      27.836  -7.113 -37.897  0.00  0.00    +0.000 NA
ENDROOT
BRANCH   5   9
ATOM      9  C4  UNL     1      27.204  -8.132 -42.105  0.00  0.00    +0.000 C 
ATOM     10  C5  UNL     1      25.789  -7.991 -41.777  0.00  0.00    +0.000 C 
ATOM     11  O2  UNL     1      25.253  -8.247 -40.668  0.00  0.00    +0.000 OA
ATOM     12  N2  UNL     1      25.067  -7.531 -42.914  0.00  0.00    +0.000 NA
ATOM     13  C6  UNL     1      25.982  -7.433 -43.825  0.00  0.00    +0.000 A 
ATOM     14  C7  UNL     1      25.755  -7.032 -45.141  0.00  0.00    +0.000 A 
ATOM     15  C8  UNL     1      26.844  -7.002 -46.028  0.00  0.00    +0.000 A 
ATOM     16  C9  UNL     1      28.131  -7.374 -45.592  0.00  0.00    +0.000 A 
ATOM     17  C10 UNL     1      28.346  -7.776 -44.264  0.00  0.00    +0.000 A 
ATOM     18  C11 UNL     1      27.253  -7.791 -43.390  0.00  0.00    +0.000 A 
ENDBRANCH   5   9
BRANCH   8  19
ATOM     19  C13 UNL     1      26.866  -7.345 -36.866  0.00  0.00    +0.000 A 
ATOM     20  C14 UNL     1      25.508  -7.375 -37.205  0.00  0.00    +0.000 A 
ATOM     21  C15 UNL     1      24.542  -7.640 -36.230  0.00  0.00    +0.000 A 
ATOM     22  C16 UNL     1      24.927  -7.894 -34.907  0.00  0.00    +0.000 A 
ATOM     23  C17 UNL     1      26.288  -7.908 -34.573  0.00  0.00    +0.000 A 
ATOM     24  C18 UNL     1      27.254  -7.644 -35.548  0.00  0.00    +0.000 A 
BRANCH  22  25
ATOM     25  S2  UNL     1      23.709  -8.242 -33.685  0.00  0.00    +0.000 S 
ATOM     26  O3  UNL     1      22.377  -8.472 -34.342  0.00  0.00    +0.000 OA
ATOM     27  O4  UNL     1      24.093  -9.481 -32.925  0.00  0.00    +0.000 OA
BRANCH  25  28
ATOM     28  N4  UNL     1      23.588  -6.905 -32.596  0.00  0.00    +0.000 NA
ATOM     29  H11 UNL     1      22.684  -6.426 -32.799  0.00  0.00    +0.000 HD
ATOM     30  H12 UNL     1      23.509  -7.303 -31.633  0.00  0.00    +0.000 HD
ENDBRANCH  25  28
ENDBRANCH  22  25
ENDBRANCH   8  19
TORSDOF 4
ENDMDL
MODEL 7
REMARK VINA RESULT:    -5.797      5.280      8.190
REMARK INTER + INTRA:          -7.421
REMARK INTER:                  -7.004
REMARK INTRA:                  -0.416
REMARK UNBOUND:                -0.438
REMARK  Name = resultss/4CJN/ligands/lig_389_t2.pdb
REMARK  5 active torsions:
REMARK  status: ('A' for Active; 'I' for Inactive)
REMARK    1  A    between atoms: C1_1  and  N1_2
REMARK    2  A    between atoms: C3_5  and  C4_6
REMARK    3  A    between atoms: N3_18  and  C13_19
REMARK    4  A    between atoms: C16_22  and  S2_23
REMARK    5  A    between atoms: S2_23  and  N4_24
REMARK                            x       y       z     vdW  Elec       q    Type
REMARK                         _______ _______ _______ _____ _____    ______ ____
ROOT
ATOM      1  C1  UNL     1      30.078 -10.007 -36.702  0.00  0.00    +0.000 C 
ATOM      2  N1  UNL     1      28.988  -9.148 -36.237  0.00  0.00    +0.000 N 
ATOM      3  C2  UNL     1      27.677  -9.267 -36.770  0.00  0.00    +0.000 C 
ATOM      4  O1  UNL     1      27.255 -10.347 -37.267  0.00  0.00    +0.000 OA
ATOM      5  C3  UNL     1      26.835  -8.033 -36.725  0.00  0.00    +0.000 C 
ATOM      6  S1  UNL     1      27.959  -6.642 -36.316  0.00  0.00    +0.000 S 
ATOM      7  C12 UNL     1      29.177  -7.820 -35.750  0.00  0.00    +0.000 C 
ATOM      8  N3  UNL     1      29.968  -7.516 -34.761  0.00  0.00    +0.000 NA
ENDROOT
BRANCH   5   9
ATOM      9  C4  UNL     1      25.744  -8.175 -35.695  0.00  0.00    +0.000 C 
ATOM     10  C5  UNL     1      25.747  -8.968 -34.469  0.00  0.00    +0.000 C 
ATOM     11  O2  UNL     1      26.716  -9.632 -34.015  0.00  0.00    +0.000 OA
ATOM     12  N2  UNL     1      24.470  -8.909 -33.844  0.00  0.00    +0.000 NA
ATOM     13  C6  UNL     1      23.782  -8.163 -34.648  0.00  0.00    +0.000 A 
ATOM     14  C7  UNL     1      22.441  -7.826 -34.470  0.00  0.00    +0.000 A 
ATOM     15  C8  UNL     1      21.816  -7.030 -35.444  0.00  0.00    +0.000 A 
ATOM     16  C9  UNL     1      22.533  -6.589 -36.574  0.00  0.00    +0.000 A 
ATOM     17  C10 UNL     1      23.884  -6.936 -36.742  0.00  0.00    +0.000 A 
ATOM     18  C11 UNL     1      24.495  -7.721 -35.757  0.00  0.00    +0.000 A 
ENDBRANCH   5   9
BRANCH   8  19
ATOM     19  C13 UNL     1      30.761  -8.420 -33.978  0.00  0.00    +0.000 A 
ATOM     20  C14 UNL     1      30.150  -9.141 -32.946  0.00  0.00    +0.000 A 
ATOM     21  C15 UNL     1      30.889 -10.059 -32.192  0.00  0.00    +0.000 A 
ATOM     22  C16 UNL     1      32.243 -10.276 -32.476  0.00  0.00    +0.000 A 
ATOM     23  C17 UNL     1      32.847  -9.587 -33.537  0.00  0.00    +0.000 A 
ATOM     24  C18 UNL     1      32.109  -8.671 -34.291  0.00  0.00    +0.000 A 
BRANCH  22  25
ATOM     25  S2  UNL     1      33.165 -11.444 -31.535  0.00  0.00    +0.000 S 
ATOM     26  O3  UNL     1      33.622 -12.568 -32.422  0.00  0.00    +0.000 OA
ATOM     27  O4  UNL     1      34.374 -10.774 -30.943  0.00  0.00    +0.000 OA
BRANCH  25  28
ATOM     28  N4  UNL     1      32.172 -12.076 -30.270  0.00  0.00    +0.000 NA
ATOM     29  H11 UNL     1      31.688 -11.264 -29.827  0.00  0.00    +0.000 HD
ATOM     30  H12 UNL     1      31.432 -12.657 -30.725  0.00  0.00    +0.000 HD
ENDBRANCH  25  28
ENDBRANCH  22  25
ENDBRANCH   8  19
TORSDOF 4
ENDMDL
MODEL 8
REMARK VINA RESULT:    -5.733      3.941      5.098
REMARK INTER + INTRA:          -7.344
REMARK INTER:                  -7.311
REMARK INTRA:                  -0.033
REMARK UNBOUND:                -0.438
REMARK  Name = resultss/4CJN/ligands/lig_389_t2.pdb
REMARK  5 active torsions:
REMARK  status: ('A' for Active; 'I' for Inactive)
REMARK    1  A    between atoms: C1_1  and  N1_2
REMARK    2  A    between atoms: C3_5  and  C4_6
REMARK    3  A    between atoms: N3_18  and  C13_19
REMARK    4  A    between atoms: C16_22  and  S2_23
REMARK    5  A    between atoms: S2_23  and  N4_24
REMARK                            x       y       z     vdW  Elec       q    Type
REMARK                         _______ _______ _______ _____ _____    ______ ____
ROOT
ATOM      1  C1  UNL     1      30.004  -6.989 -39.890  0.00  0.00    +0.000 C 
ATOM      2  N1  UNL     1      30.147  -7.979 -38.821  0.00  0.00    +0.000 N 
ATOM      3  C2  UNL     1      30.591  -7.603 -37.525  0.00  0.00    +0.000 C 
ATOM      4  O1  UNL     1      30.428  -6.436 -37.077  0.00  0.00    +0.000 OA
ATOM      5  C3  UNL     1      31.279  -8.668 -36.733  0.00  0.00    +0.000 C 
ATOM      6  S1  UNL     1      31.650 -10.035 -37.898  0.00  0.00    +0.000 S 
ATOM      7  C12 UNL     1      30.467  -9.350 -39.047  0.00  0.00    +0.000 C 
ATOM      8  N3  UNL     1      29.773 -10.140 -39.816  0.00  0.00    +0.000 NA
ENDROOT
BRANCH   5   9
ATOM      9  C4  UNL     1      30.398  -9.137 -35.602  0.00  0.00    +0.000 C 
ATOM     10  C5  UNL     1      30.791  -9.750 -34.337  0.00  0.00    +0.000 C 
ATOM     11  O2  UNL     1      31.969  -9.932 -33.932  0.00  0.00    +0.000 OA
ATOM     12  N2  UNL     1      29.636 -10.147 -33.606  0.00  0.00    +0.000 NA
ATOM     13  C6  UNL     1      28.662  -9.810 -34.388  0.00  0.00    +0.000 A 
ATOM     14  C7  UNL     1      27.311 -10.018 -34.112  0.00  0.00    +0.000 A 
ATOM     15  C8  UNL     1      26.363  -9.626 -35.072  0.00  0.00    +0.000 A 
ATOM     16  C9  UNL     1      26.776  -9.040 -36.285  0.00  0.00    +0.000 A 
ATOM     17  C10 UNL     1      28.140  -8.836 -36.551  0.00  0.00    +0.000 A 
ATOM     18  C11 UNL     1      29.071  -9.223 -35.580  0.00  0.00    +0.000 A 
ENDBRANCH   5   9
BRANCH   8  19
ATOM     19  C13 UNL     1      28.582  -9.809 -40.545  0.00  0.00    +0.000 A 
ATOM     20  C14 UNL     1      27.369  -9.708 -39.855  0.00  0.00    +0.000 A 
ATOM     21  C15 UNL     1      26.199  -9.349 -40.532  0.00  0.00    +0.000 A 
ATOM     22  C16 UNL     1      26.236  -9.070 -41.905  0.00  0.00    +0.000 A 
ATOM     23  C17 UNL     1      27.457  -9.129 -42.589  0.00  0.00    +0.000 A 
ATOM     24  C18 UNL     1      28.626  -9.487 -41.913  0.00  0.00    +0.000 A 
BRANCH  22  25
ATOM     25  S2  UNL     1      24.764  -8.603 -42.750  0.00  0.00    +0.000 S 
ATOM     26  O3  UNL     1      24.062  -7.513 -41.989  0.00  0.00    +0.000 OA
ATOM     27  O4  UNL     1      25.109  -8.090 -44.121  0.00  0.00    +0.000 OA
BRANCH  25  28
ATOM     28  N4  UNL     1      23.720  -9.973 -42.886  0.00  0.00    +0.000 NA
ATOM     29  H11 UNL     1      22.877  -9.663 -43.419  0.00  0.00    +0.000 HD
ATOM     30  H12 UNL     1      24.213 -10.674 -43.483  0.00  0.00    +0.000 HD
ENDBRANCH  25  28
ENDBRANCH  22  25
ENDBRANCH   8  19
TORSDOF 4
ENDMDL
MODEL 9
REMARK VINA RESULT:    -5.722      4.535      6.177
REMARK INTER + INTRA:          -7.330
REMARK INTER:                  -6.730
REMARK INTRA:                  -0.600
REMARK UNBOUND:                -0.438
REMARK  Name = resultss/4CJN/ligands/lig_389_t2.pdb
REMARK  5 active torsions:
REMARK  status: ('A' for Active; 'I' for Inactive)
REMARK    1  A    between atoms: C1_1  and  N1_2
REMARK    2  A    between atoms: C3_5  and  C4_6
REMARK    3  A    between atoms: N3_18  and  C13_19
REMARK    4  A    between atoms: C16_22  and  S2_23
REMARK    5  A    between atoms: S2_23  and  N4_24
REMARK                            x       y       z     vdW  Elec       q    Type
REMARK                         _______ _______ _______ _____ _____    ______ ____
ROOT
ATOM      1  C1  UNL     1      28.534  -7.673 -40.619  0.00  0.00    +0.000 C 
ATOM      2  N1  UNL     1      28.170  -8.260 -39.328  0.00  0.00    +0.000 N 
ATOM      3  C2  UNL     1      28.792  -7.833 -38.124  0.00  0.00    +0.000 C 
ATOM      4  O1  UNL     1      29.288  -6.680 -38.002  0.00  0.00    +0.000 OA
ATOM      5  C3  UNL     1      28.840  -8.837 -37.018  0.00  0.00    +0.000 C 
ATOM      6  S1  UNL     1      28.389 -10.455 -37.756  0.00  0.00    +0.000 S 
ATOM      7  C12 UNL     1      27.708  -9.599 -39.167  0.00  0.00    +0.000 C 
ATOM      8  N3  UNL     1      26.674 -10.089 -39.790  0.00  0.00    +0.000 NA
ENDROOT
BRANCH   5   9
ATOM      9  C4  UNL     1      27.885  -8.455 -35.915  0.00  0.00    +0.000 C 
ATOM     10  C5  UNL     1      26.534  -7.913 -36.028  0.00  0.00    +0.000 C 
ATOM     11  O2  UNL     1      25.891  -7.734 -37.096  0.00  0.00    +0.000 OA
ATOM     12  N2  UNL     1      26.029  -7.585 -34.739  0.00  0.00    +0.000 NA
ATOM     13  C6  UNL     1      27.009  -7.891 -33.951  0.00  0.00    +0.000 A 
ATOM     14  C7  UNL     1      26.999  -7.727 -32.566  0.00  0.00    +0.000 A 
ATOM     15  C8  UNL     1      28.151  -8.077 -31.843  0.00  0.00    +0.000 A 
ATOM     16  C9  UNL     1      29.287  -8.579 -32.508  0.00  0.00    +0.000 A 
ATOM     17  C10 UNL     1      29.285  -8.740 -33.903  0.00  0.00    +0.000 A 
ATOM     18  C11 UNL     1      28.126  -8.396 -34.609  0.00  0.00    +0.000 A 
ENDBRANCH   5   9
BRANCH   8  19
ATOM     19  C13 UNL     1      25.813  -9.402 -40.710  0.00  0.00    +0.000 A 
ATOM     20  C14 UNL     1      25.973  -9.623 -42.083  0.00  0.00    +0.000 A 
ATOM     21  C15 UNL     1      25.124  -8.999 -43.003  0.00  0.00    +0.000 A 
ATOM     22  C16 UNL     1      24.094  -8.162 -42.556  0.00  0.00    +0.000 A 
ATOM     23  C17 UNL     1      23.904  -7.974 -41.180  0.00  0.00    +0.000 A 
ATOM     24  C18 UNL     1      24.752  -8.597 -40.261  0.00  0.00    +0.000 A 
BRANCH  22  25
ATOM     25  S2  UNL     1      23.017  -7.391 -43.715  0.00  0.00    +0.000 S 
ATOM     26  O3  UNL     1      21.612  -7.886 -43.515  0.00  0.00    +0.000 OA
ATOM     27  O4  UNL     1      23.038  -5.902 -43.513  0.00  0.00    +0.000 OA
BRANCH  25  28
ATOM     28  N4  UNL     1      23.536  -7.768 -45.320  0.00  0.00    +0.000 NA
ATOM     29  H11 UNL     1      22.943  -8.560 -45.655  0.00  0.00    +0.000 HD
ATOM     30  H12 UNL     1      23.303  -6.943 -45.917  0.00  0.00    +0.000 HD
ENDBRANCH  25  28
ENDBRANCH  22  25
ENDBRANCH   8  19
TORSDOF 4
ENDMDL
