MODEL 1
REMARK VINA RESULT:    -4.259      0.000      0.000
REMARK INTER + INTRA:          -5.378
REMARK INTER:                  -5.131
REMARK INTRA:                  -0.247
REMARK UNBOUND:                -0.247
REMARK  Name = resultss/4CJN/ligands/lig_41_t0.pdb
REMARK  6 active torsions:
REMARK  status: ('A' for Active; 'I' for Inactive)
REMARK    1  A    between atoms: N1_1  and  C1_2
REMARK    2  A    between atoms: C3_4  and  C4_5
REMARK    3  A    between atoms: C4_5  and  O1_6
REMARK    4  A    between atoms: C5_7  and  O2_8
REMARK    5  A    between atoms: C6_9  and  O3_10
REMARK    6  A    between atoms: C7_11  and  O4_12
REMARK                            x       y       z     vdW  Elec       q    Type
REMARK                         _______ _______ _______ _____ _____    ______ ____
ROOT
ATOM      1  C1  UNL     1      26.995  -7.079 -33.043  0.00  0.00    +0.000 C 
ATOM      2  C2  UNL     1      27.762  -7.969 -33.992  0.00  0.00    +0.000 C 
ATOM      3  C3  UNL     1      27.215  -9.034 -34.617  0.00  0.00    +0.000 C 
ATOM      4  C5  UNL     1      25.727  -9.347 -34.531  0.00  0.00    +0.000 C 
ATOM      5  C6  UNL     1      24.999  -8.574 -33.406  0.00  0.00    +0.000 C 
ATOM      6  C7  UNL     1      25.483  -7.120 -33.354  0.00  0.00    +0.000 C 
ENDROOT
BRANCH   1   7
ATOM      7  N1  UNL     1      27.263  -7.496 -31.664  0.00  0.00    +0.000 NA
ATOM      8  H1  UNL     1      26.763  -6.843 -31.016  0.00  0.00    +0.000 HD
ATOM      9  H2  UNL     1      26.826  -8.433 -31.507  0.00  0.00    +0.000 HD
ENDBRANCH   1   7
BRANCH   4  10
ATOM     10  O2  UNL     1      25.559 -10.727 -34.327  0.00  0.00    +0.000 OA
ATOM     11  H9  UNL     1      25.636 -10.888 -33.350  0.00  0.00    +0.000 HD
ENDBRANCH   4  10
BRANCH   5  12
ATOM     12  O3  UNL     1      23.614  -8.590 -33.640  0.00  0.00    +0.000 OA
ATOM     13  H11 UNL     1      23.421  -9.397 -34.187  0.00  0.00    +0.000 HD
ENDBRANCH   5  12
BRANCH   6  14
ATOM     14  O4  UNL     1      24.756  -6.415 -32.380  0.00  0.00    +0.000 OA
ATOM     15  H13 UNL     1      25.210  -6.576 -31.513  0.00  0.00    +0.000 HD
ENDBRANCH   6  14
BRANCH   3  16
ATOM     16  C4  UNL     1      28.082  -9.855 -35.545  0.00  0.00    +0.000 C 
BRANCH  16  17
ATOM     17  O1  UNL     1      27.332 -10.319 -36.635  0.00  0.00    +0.000 OA
ATOM     18  H7  UNL     1      27.986 -10.612 -37.323  0.00  0.00    +0.000 HD
ENDBRANCH  16  17
ENDBRANCH   3  16
TORSDOF 6
ENDMDL
MODEL 2
REMARK VINA RESULT:    -4.135      2.775      3.201
REMARK INTER + INTRA:          -5.228
REMARK INTER:                  -4.990
REMARK INTRA:                  -0.238
REMARK UNBOUND:                -0.247
REMARK  Name = resultss/4CJN/ligands/lig_41_t0.pdb
REMARK  6 active torsions:
REMARK  status: ('A' for Active; 'I' for Inactive)
REMARK    1  A    between atoms: N1_1  and  C1_2
REMARK    2  A    between atoms: C3_4  and  C4_5
REMARK    3  A    between atoms: C4_5  and  O1_6
REMARK    4  A    between atoms: C5_7  and  O2_8
REMARK    5  A    between atoms: C6_9  and  O3_10
REMARK    6  A    between atoms: C7_11  and  O4_12
REMARK                            x       y       z     vdW  Elec       q    Type
REMARK                         _______ _______ _______ _____ _____    ______ ____
ROOT
ATOM      1  C1  UNL     1      26.173  -9.355 -34.715  0.00  0.00    +0.000 C 
ATOM      2  C2  UNL     1      26.170  -9.179 -36.215  0.00  0.00    +0.000 C 
ATOM      3  C3  UNL     1      25.259  -8.431 -36.874  0.00  0.00    +0.000 C 
ATOM      4  C5  UNL     1      24.234  -7.575 -36.143  0.00  0.00    +0.000 C 
ATOM      5  C6  UNL     1      24.103  -7.919 -34.640  0.00  0.00    +0.000 C 
ATOM      6  C7  UNL     1      25.486  -8.158 -34.022  0.00  0.00    +0.000 C 
ENDROOT
BRANCH   1   7
ATOM      7  N1  UNL     1      25.510 -10.616 -34.373  0.00  0.00    +0.000 NA
ATOM      8  H1  UNL     1      26.072 -11.405 -34.768  0.00  0.00    +0.000 HD
ATOM      9  H2  UNL     1      25.544 -10.741 -33.335  0.00  0.00    +0.000 HD
ENDBRANCH   1   7
BRANCH   4  10
ATOM     10  O2  UNL     1      22.982  -7.728 -36.762  0.00  0.00    +0.000 OA
ATOM     11  H9  UNL     1      23.038  -8.537 -37.335  0.00  0.00    +0.000 HD
ENDBRANCH   4  10
BRANCH   5  12
ATOM     12  O3  UNL     1      23.474  -6.860 -33.965  0.00  0.00    +0.000 OA
ATOM     13  H11 UNL     1      22.718  -6.560 -34.535  0.00  0.00    +0.000 HD
ENDBRANCH   5  12
BRANCH   6  14
ATOM     14  O4  UNL     1      25.353  -8.392 -32.643  0.00  0.00    +0.000 OA
ATOM     15  H13 UNL     1      24.385  -8.334 -32.435  0.00  0.00    +0.000 HD
ENDBRANCH   6  14
BRANCH   3  16
ATOM     16  C4  UNL     1      25.355  -8.330 -38.380  0.00  0.00    +0.000 C 
BRANCH  16  17
ATOM     17  O1  UNL     1      24.254  -8.950 -38.985  0.00  0.00    +0.000 OA
ATOM     18  H7  UNL     1      24.620  -9.620 -39.620  0.00  0.00    +0.000 HD
ENDBRANCH  16  17
ENDBRANCH   3  16
TORSDOF 6
ENDMDL
MODEL 3
REMARK VINA RESULT:    -3.962      2.450      4.474
REMARK INTER + INTRA:          -5.020
REMARK INTER:                  -4.783
REMARK INTRA:                  -0.237
REMARK UNBOUND:                -0.247
REMARK  Name = resultss/4CJN/ligands/lig_41_t0.pdb
REMARK  6 active torsions:
REMARK  status: ('A' for Active; 'I' for Inactive)
REMARK    1  A    between atoms: N1_1  and  C1_2
REMARK    2  A    between atoms: C3_4  and  C4_5
REMARK    3  A    between atoms: C4_5  and  O1_6
REMARK    4  A    between atoms: C5_7  and  O2_8
REMARK    5  A    between atoms: C6_9  and  O3_10
REMARK    6  A    between atoms: C7_11  and  O4_12
REMARK                            x       y       z     vdW  Elec       q    Type
REMARK                         _______ _______ _______ _____ _____    ______ ____
ROOT
ATOM      1  C1  UNL     1      26.067  -9.253 -34.908  0.00  0.00    +0.000 C 
ATOM      2  C2  UNL     1      26.250  -8.268 -33.778  0.00  0.00    +0.000 C 
ATOM      3  C3  UNL     1      27.449  -7.991 -33.221  0.00  0.00    +0.000 C 
ATOM      4  C5  UNL     1      28.751  -8.543 -33.785  0.00  0.00    +0.000 C 
ATOM      5  C6  UNL     1      28.544  -9.701 -34.791  0.00  0.00    +0.000 C 
ATOM      6  C7  UNL     1      27.369  -9.395 -35.727  0.00  0.00    +0.000 C 
ENDROOT
BRANCH   1   7
ATOM      7  N1  UNL     1      25.641 -10.544 -34.363  0.00  0.00    +0.000 NA
ATOM      8  H1  UNL     1      25.528 -10.447 -33.328  0.00  0.00    +0.000 HD
ATOM      9  H2  UNL     1      24.686 -10.763 -34.728  0.00  0.00    +0.000 HD
ENDBRANCH   1   7
BRANCH   4  10
ATOM     10  O2  UNL     1      29.558  -8.990 -32.727  0.00  0.00    +0.000 OA
ATOM     11  H9  UNL     1      29.809  -9.930 -32.928  0.00  0.00    +0.000 HD
ENDBRANCH   4  10
BRANCH   5  12
ATOM     12  O3  UNL     1      29.709  -9.876 -35.557  0.00  0.00    +0.000 OA
ATOM     13  H11 UNL     1      29.543  -9.453 -36.440  0.00  0.00    +0.000 HD
ENDBRANCH   5  12
BRANCH   6  14
ATOM     14  O4  UNL     1      27.246 -10.419 -36.681  0.00  0.00    +0.000 OA
ATOM     15  H13 UNL     1      26.567 -11.054 -36.333  0.00  0.00    +0.000 HD
ENDBRANCH   6  14
BRANCH   3  16
ATOM     16  C4  UNL     1      27.510  -6.988 -32.091  0.00  0.00    +0.000 C 
BRANCH  16  17
ATOM     17  O1  UNL     1      27.583  -7.644 -30.854  0.00  0.00    +0.000 OA
ATOM     18  H7  UNL     1      26.696  -8.064 -30.705  0.00  0.00    +0.000 HD
ENDBRANCH  16  17
ENDBRANCH   3  16
TORSDOF 6
ENDMDL
MODEL 4
REMARK VINA RESULT:    -3.909      1.597      3.810
REMARK INTER + INTRA:          -4.955
REMARK INTER:                  -4.709
REMARK INTRA:                  -0.246
REMARK UNBOUND:                -0.247
REMARK  Name = resultss/4CJN/ligands/lig_41_t0.pdb
REMARK  6 active torsions:
REMARK  status: ('A' for Active; 'I' for Inactive)
REMARK    1  A    between atoms: N1_1  and  C1_2
REMARK    2  A    between atoms: C3_4  and  C4_5
REMARK    3  A    between atoms: C4_5  and  O1_6
REMARK    4  A    between atoms: C5_7  and  O2_8
REMARK    5  A    between atoms: C6_9  and  O3_10
REMARK    6  A    between atoms: C7_11  and  O4_12
REMARK                            x       y       z     vdW  Elec       q    Type
REMARK                         _______ _______ _______ _____ _____    ______ ____
ROOT
ATOM      1  C1  UNL     1      27.457  -7.545 -34.197  0.00  0.00    +0.000 C 
ATOM      2  C2  UNL     1      26.331  -6.708 -33.638  0.00  0.00    +0.000 C 
ATOM      3  C3  UNL     1      25.066  -7.162 -33.501  0.00  0.00    +0.000 C 
ATOM      4  C5  UNL     1      24.694  -8.614 -33.763  0.00  0.00    +0.000 C 
ATOM      5  C6  UNL     1      25.785  -9.401 -34.528  0.00  0.00    +0.000 C 
ATOM      6  C7  UNL     1      27.178  -9.050 -33.990  0.00  0.00    +0.000 C 
ENDROOT
BRANCH   1   7
ATOM      7  N1  UNL     1      27.637  -7.231 -35.617  0.00  0.00    +0.000 NA
ATOM      8  H1  UNL     1      27.891  -8.111 -36.122  0.00  0.00    +0.000 HD
ATOM      9  H2  UNL     1      26.714  -6.938 -36.014  0.00  0.00    +0.000 HD
ENDBRANCH   1   7
BRANCH   4  10
ATOM     10  O2  UNL     1      23.496  -8.657 -34.495  0.00  0.00    +0.000 OA
ATOM     11  H9  UNL     1      22.932  -9.366 -34.088  0.00  0.00    +0.000 HD
ENDBRANCH   4  10
BRANCH   5  12
ATOM     12  O3  UNL     1      25.568 -10.781 -34.376  0.00  0.00    +0.000 OA
ATOM     13  H11 UNL     1      25.638 -11.187 -35.280  0.00  0.00    +0.000 HD
ENDBRANCH   5  12
BRANCH   6  14
ATOM     14  O4  UNL     1      28.148  -9.830 -34.641  0.00  0.00    +0.000 OA
ATOM     15  H13 UNL     1      28.416 -10.542 -34.004  0.00  0.00    +0.000 HD
ENDBRANCH   6  14
BRANCH   3  16
ATOM     16  C4  UNL     1      24.019  -6.231 -32.930  0.00  0.00    +0.000 C 
BRANCH  16  17
ATOM     17  O1  UNL     1      23.073  -6.952 -32.189  0.00  0.00    +0.000 OA
ATOM     18  H7  UNL     1      23.517  -7.795 -31.907  0.00  0.00    +0.000 HD
ENDBRANCH  16  17
ENDBRANCH   3  16
TORSDOF 6
ENDMDL
MODEL 5
REMARK VINA RESULT:    -3.835      2.809      4.563
REMARK INTER + INTRA:          -4.866
REMARK INTER:                  -4.619
REMARK INTRA:                  -0.247
REMARK UNBOUND:                -0.247
REMARK  Name = resultss/4CJN/ligands/lig_41_t0.pdb
REMARK  6 active torsions:
REMARK  status: ('A' for Active; 'I' for Inactive)
REMARK    1  A    between atoms: N1_1  and  C1_2
REMARK    2  A    between atoms: C3_4  and  C4_5
REMARK    3  A    between atoms: C4_5  and  O1_6
REMARK    4  A    between atoms: C5_7  and  O2_8
REMARK    5  A    between atoms: C6_9  and  O3_10
REMARK    6  A    between atoms: C7_11  and  O4_12
REMARK                            x       y       z     vdW  Elec       q    Type
REMARK                         _______ _______ _______ _____ _____    ______ ____
ROOT
ATOM      1  C1  UNL     1      25.051  -7.717 -37.299  0.00  0.00    +0.000 C 
ATOM      2  C2  UNL     1      24.347  -7.638 -35.966  0.00  0.00    +0.000 C 
ATOM      3  C3  UNL     1      24.646  -8.436 -34.918  0.00  0.00    +0.000 C 
ATOM      4  C5  UNL     1      25.828  -9.396 -34.944  0.00  0.00    +0.000 C 
ATOM      5  C6  UNL     1      26.405  -9.625 -36.361  0.00  0.00    +0.000 C 
ATOM      6  C7  UNL     1      26.471  -8.303 -37.135  0.00  0.00    +0.000 C 
ENDROOT
BRANCH   1   7
ATOM      7  N1  UNL     1      24.251  -8.524 -38.224  0.00  0.00    +0.000 NA
ATOM      8  H1  UNL     1      24.113  -7.979 -39.106  0.00  0.00    +0.000 HD
ATOM      9  H2  UNL     1      24.806  -9.366 -38.500  0.00  0.00    +0.000 HD
ENDBRANCH   1   7
BRANCH   4  10
ATOM     10  O2  UNL     1      25.432 -10.629 -34.401  0.00  0.00    +0.000 OA
ATOM     11  H9  UNL     1      25.604 -10.586 -33.424  0.00  0.00    +0.000 HD
ENDBRANCH   4  10
BRANCH   5  12
ATOM     12  O3  UNL     1      27.698 -10.167 -36.264  0.00  0.00    +0.000 OA
ATOM     13  H11 UNL     1      27.593 -11.135 -36.070  0.00  0.00    +0.000 HD
ENDBRANCH   5  12
BRANCH   6  14
ATOM     14  O4  UNL     1      27.068  -8.518 -38.388  0.00  0.00    +0.000 OA
ATOM     15  H13 UNL     1      27.721  -9.256 -38.271  0.00  0.00    +0.000 HD
ENDBRANCH   6  14
BRANCH   3  16
ATOM     16  C4  UNL     1      23.871  -8.267 -33.631  0.00  0.00    +0.000 C 
BRANCH  16  17
ATOM     17  O1  UNL     1      24.696  -8.511 -32.524  0.00  0.00    +0.000 OA
ATOM     18  H7  UNL     1      24.118  -8.439 -31.720  0.00  0.00    +0.000 HD
ENDBRANCH  16  17
ENDBRANCH   3  16
TORSDOF 6
ENDMDL
MODEL 6
REMARK VINA RESULT:    -3.831     10.367     11.058
REMARK INTER + INTRA:          -4.862
REMARK INTER:                  -4.621
REMARK INTRA:                  -0.241
REMARK UNBOUND:                -0.247
REMARK  Name = resultss/4CJN/ligands/lig_41_t0.pdb
REMARK  6 active torsions:
REMARK  status: ('A' for Active; 'I' for Inactive)
REMARK    1  A    between atoms: N1_1  and  C1_2
REMARK    2  A    between atoms: C3_4  and  C4_5
REMARK    3  A    between atoms: C4_5  and  O1_6
REMARK    4  A    between atoms: C5_7  and  O2_8
REMARK    5  A    between atoms: C6_9  and  O3_10
REMARK    6  A    between atoms: C7_11  and  O4_12
REMARK                            x       y       z     vdW  Elec       q    Type
REMARK                         _______ _______ _______ _____ _____    ______ ____
ROOT
ATOM      1  C1  UNL     1      24.591  -8.210 -43.200  0.00  0.00    +0.000 C 
ATOM      2  C2  UNL     1      24.823  -7.879 -44.654  0.00  0.00    +0.000 C 
ATOM      3  C3  UNL     1      23.863  -7.388 -45.467  0.00  0.00    +0.000 C 
ATOM      4  C5  UNL     1      22.490  -6.985 -44.947  0.00  0.00    +0.000 C 
ATOM      5  C6  UNL     1      22.190  -7.517 -43.526  0.00  0.00    +0.000 C 
ATOM      6  C7  UNL     1      23.424  -7.375 -42.627  0.00  0.00    +0.000 C 
ENDROOT
BRANCH   1   7
ATOM      7  N1  UNL     1      24.329  -9.646 -43.064  0.00  0.00    +0.000 NA
ATOM      8  H1  UNL     1      25.205 -10.114 -42.736  0.00  0.00    +0.000 HD
ATOM      9  H2  UNL     1      23.633  -9.788 -42.297  0.00  0.00    +0.000 HD
ENDBRANCH   1   7
BRANCH   4  10
ATOM     10  O2  UNL     1      21.507  -7.454 -45.833  0.00  0.00    +0.000 OA
ATOM     11  H9  UNL     1      21.775  -7.166 -46.745  0.00  0.00    +0.000 HD
ENDBRANCH   4  10
BRANCH   5  12
ATOM     12  O3  UNL     1      21.126  -6.791 -42.963  0.00  0.00    +0.000 OA
ATOM     13  H11 UNL     1      20.959  -7.173 -42.062  0.00  0.00    +0.000 HD
ENDBRANCH   5  12
BRANCH   6  14
ATOM     14  O4  UNL     1      23.110  -7.791 -41.322  0.00  0.00    +0.000 OA
ATOM     15  H13 UNL     1      23.906  -8.272 -40.976  0.00  0.00    +0.000 HD
ENDBRANCH   6  14
BRANCH   3  16
ATOM     16  C4  UNL     1      24.212  -7.095 -46.909  0.00  0.00    +0.000 C 
BRANCH  16  17
ATOM     17  O1  UNL     1      23.724  -8.106 -47.748  0.00  0.00    +0.000 OA
ATOM     18  H7  UNL     1      22.782  -7.870 -47.956  0.00  0.00    +0.000 HD
ENDBRANCH  16  17
ENDBRANCH   3  16
TORSDOF 6
ENDMDL
MODEL 7
REMARK VINA RESULT:    -3.777      6.019      7.406
REMARK INTER + INTRA:          -4.797
REMARK INTER:                  -4.574
REMARK INTRA:                  -0.223
REMARK UNBOUND:                -0.247
REMARK  Name = resultss/4CJN/ligands/lig_41_t0.pdb
REMARK  6 active torsions:
REMARK  status: ('A' for Active; 'I' for Inactive)
REMARK    1  A    between atoms: N1_1  and  C1_2
REMARK    2  A    between atoms: C3_4  and  C4_5
REMARK    3  A    between atoms: C4_5  and  O1_6
REMARK    4  A    between atoms: C5_7  and  O2_8
REMARK    5  A    between atoms: C6_9  and  O3_10
REMARK    6  A    between atoms: C7_11  and  O4_12
REMARK                            x       y       z     vdW  Elec       q    Type
REMARK                         _______ _______ _______ _____ _____    ______ ____
ROOT
ATOM      1  C1  UNL     1      28.179  -9.902 -40.996  0.00  0.00    +0.000 C 
ATOM      2  C2  UNL     1      27.127  -9.745 -42.068  0.00  0.00    +0.000 C 
ATOM      3  C3  UNL     1      25.857  -9.365 -41.812  0.00  0.00    +0.000 C 
ATOM      4  C5  UNL     1      25.409  -8.918 -40.427  0.00  0.00    +0.000 C 
ATOM      5  C6  UNL     1      26.414  -9.279 -39.308  0.00  0.00    +0.000 C 
ATOM      6  C7  UNL     1      27.852  -9.017 -39.773  0.00  0.00    +0.000 C 
ENDROOT
BRANCH   1   7
ATOM      7  N1  UNL     1      28.278 -11.314 -40.616  0.00  0.00    +0.000 NA
ATOM      8  H1  UNL     1      28.365 -11.373 -39.576  0.00  0.00    +0.000 HD
ATOM      9  H2  UNL     1      27.375 -11.786 -40.848  0.00  0.00    +0.000 HD
ENDBRANCH   1   7
BRANCH   4  10
ATOM     10  O2  UNL     1      24.165  -9.501 -40.136  0.00  0.00    +0.000 OA
ATOM     11  H9  UNL     1      24.030  -9.425 -39.155  0.00  0.00    +0.000 HD
ENDBRANCH   4  10
BRANCH   5  12
ATOM     12  O3  UNL     1      26.151  -8.504 -38.166  0.00  0.00    +0.000 OA
ATOM     13  H11 UNL     1      25.214  -8.185 -38.242  0.00  0.00    +0.000 HD
ENDBRANCH   5  12
BRANCH   6  14
ATOM     14  O4  UNL     1      28.744  -9.277 -38.719  0.00  0.00    +0.000 OA
ATOM     15  H13 UNL     1      29.645  -9.002 -39.034  0.00  0.00    +0.000 HD
ENDBRANCH   6  14
BRANCH   3  16
ATOM     16  C4  UNL     1      24.888  -9.243 -42.968  0.00  0.00    +0.000 C 
BRANCH  16  17
ATOM     17  O1  UNL     1      23.814 -10.128 -42.803  0.00  0.00    +0.000 OA
ATOM     18  H7  UNL     1      23.998 -10.909 -43.388  0.00  0.00    +0.000 HD
ENDBRANCH  16  17
ENDBRANCH   3  16
TORSDOF 6
ENDMDL
MODEL 8
REMARK VINA RESULT:    -3.729      2.487      4.420
REMARK INTER + INTRA:          -4.739
REMARK INTER:                  -4.502
REMARK INTRA:                  -0.237
REMARK UNBOUND:                -0.247
REMARK  Name = resultss/4CJN/ligands/lig_41_t0.pdb
REMARK  6 active torsions:
REMARK  status: ('A' for Active; 'I' for Inactive)
REMARK    1  A    between atoms: N1_1  and  C1_2
REMARK    2  A    between atoms: C3_4  and  C4_5
REMARK    3  A    between atoms: C4_5  and  O1_6
REMARK    4  A    between atoms: C5_7  and  O2_8
REMARK    5  A    between atoms: C6_9  and  O3_10
REMARK    6  A    between atoms: C7_11  and  O4_12
REMARK                            x       y       z     vdW  Elec       q    Type
REMARK                         _______ _______ _______ _____ _____    ______ ____
ROOT
ATOM      1  C1  UNL     1      24.890  -7.524 -36.348  0.00  0.00    +0.000 C 
ATOM      2  C2  UNL     1      24.724  -6.559 -35.198  0.00  0.00    +0.000 C 
ATOM      3  C3  UNL     1      24.725  -6.940 -33.902  0.00  0.00    +0.000 C 
ATOM      4  C5  UNL     1      25.043  -8.367 -33.479  0.00  0.00    +0.000 C 
ATOM      5  C6  UNL     1      25.001  -9.381 -34.647  0.00  0.00    +0.000 C 
ATOM      6  C7  UNL     1      25.659  -8.786 -35.898  0.00  0.00    +0.000 C 
ENDROOT
BRANCH   1   7
ATOM      7  N1  UNL     1      23.571  -7.872 -36.884  0.00  0.00    +0.000 NA
ATOM      8  H1  UNL     1      23.152  -7.016 -37.317  0.00  0.00    +0.000 HD
ATOM      9  H2  UNL     1      23.699  -8.548 -37.671  0.00  0.00    +0.000 HD
ENDBRANCH   1   7
BRANCH   4  10
ATOM     10  O2  UNL     1      24.131  -8.767 -32.488  0.00  0.00    +0.000 OA
ATOM     11  H9  UNL     1      24.518  -8.503 -31.612  0.00  0.00    +0.000 HD
ENDBRANCH   4  10
BRANCH   5  12
ATOM     12  O3  UNL     1      25.683 -10.554 -34.282  0.00  0.00    +0.000 OA
ATOM     13  H11 UNL     1      25.404 -11.262 -34.919  0.00  0.00    +0.000 HD
ENDBRANCH   5  12
BRANCH   6  14
ATOM     14  O4  UNL     1      25.681  -9.746 -36.923  0.00  0.00    +0.000 OA
ATOM     15  H13 UNL     1      24.939 -10.378 -36.737  0.00  0.00    +0.000 HD
ENDBRANCH   6  14
BRANCH   3  16
ATOM     16  C4  UNL     1      24.548  -5.883 -32.834  0.00  0.00    +0.000 C 
BRANCH  16  17
ATOM     17  O1  UNL     1      23.336  -6.069 -32.156  0.00  0.00    +0.000 OA
ATOM     18  H7  UNL     1      22.624  -5.710 -32.747  0.00  0.00    +0.000 HD
ENDBRANCH  16  17
ENDBRANCH   3  16
TORSDOF 6
ENDMDL
MODEL 9
REMARK VINA RESULT:    -3.714      4.752      6.681
REMARK INTER + INTRA:          -4.721
REMARK INTER:                  -4.500
REMARK INTRA:                  -0.221
REMARK UNBOUND:                -0.247
REMARK  Name = resultss/4CJN/ligands/lig_41_t0.pdb
REMARK  6 active torsions:
REMARK  status: ('A' for Active; 'I' for Inactive)
REMARK    1  A    between atoms: N1_1  and  C1_2
REMARK    2  A    between atoms: C3_4  and  C4_5
REMARK    3  A    between atoms: C4_5  and  O1_6
REMARK    4  A    between atoms: C5_7  and  O2_8
REMARK    5  A    between atoms: C6_9  and  O3_10
REMARK    6  A    between atoms: C7_11  and  O4_12
REMARK                            x       y       z     vdW  Elec       q    Type
REMARK                         _______ _______ _______ _____ _____    ______ ____
ROOT
ATOM      1  C1  UNL     1      25.364  -8.677 -40.104  0.00  0.00    +0.000 C 
ATOM      2  C2  UNL     1      25.648  -8.583 -38.624  0.00  0.00    +0.000 C 
ATOM      3  C3  UNL     1      26.629  -9.278 -38.009  0.00  0.00    +0.000 C 
ATOM      4  C5  UNL     1      27.636 -10.115 -38.786  0.00  0.00    +0.000 C 
ATOM      5  C6  UNL     1      27.219 -10.377 -40.252  0.00  0.00    +0.000 C 
ATOM      6  C7  UNL     1      26.630  -9.107 -40.878  0.00  0.00    +0.000 C 
ENDROOT
BRANCH   1   7
ATOM      7  N1  UNL     1      24.262  -9.617 -40.328  0.00  0.00    +0.000 NA
ATOM      8  H1  UNL     1      23.361  -9.126 -40.130  0.00  0.00    +0.000 HD
ATOM      9  H2  UNL     1      24.231  -9.859 -41.345  0.00  0.00    +0.000 HD
ENDBRANCH   1   7
BRANCH   4  10
ATOM     10  O2  UNL     1      27.815 -11.344 -38.130  0.00  0.00    +0.000 OA
ATOM     11  H9  UNL     1      28.185 -11.143 -37.230  0.00  0.00    +0.000 HD
ENDBRANCH   4  10
BRANCH   5  12
ATOM     12  O3  UNL     1      28.339 -10.781 -40.998  0.00  0.00    +0.000 OA
ATOM     13  H11 UNL     1      29.108 -10.819 -40.371  0.00  0.00    +0.000 HD
ENDBRANCH   5  12
BRANCH   6  14
ATOM     14  O4  UNL     1      26.329  -9.342 -42.231  0.00  0.00    +0.000 OA
ATOM     15  H13 UNL     1      26.997  -8.837 -42.763  0.00  0.00    +0.000 HD
ENDBRANCH   6  14
BRANCH   3  16
ATOM     16  C4  UNL     1      26.818  -9.104 -36.519  0.00  0.00    +0.000 C 
BRANCH  16  17
ATOM     17  O1  UNL     1      26.146 -10.113 -35.817  0.00  0.00    +0.000 OA
ATOM     18  H7  UNL     1      25.230 -10.160 -36.197  0.00  0.00    +0.000 HD
ENDBRANCH  16  17
ENDBRANCH   3  16
TORSDOF 6
ENDMDL
