MODEL 1
REMARK VINA RESULT:    -6.075      0.000      0.000
REMARK INTER + INTRA:         -13.733
REMARK INTER:                  -9.981
REMARK INTRA:                  -3.752
REMARK UNBOUND:                -3.752
REMARK  Name = resultss/4CJN/ligands/lig_335_t0.pdb
REMARK  13 active torsions:
REMARK  status: ('A' for Active; 'I' for Inactive)
REMARK    1  A    between atoms: C1_1  and  O1_2
REMARK    2  A    between atoms: O1_2  and  C2_3
REMARK    3  A    between atoms: C4_5  and  C5_6
REMARK    4  A    between atoms: N2_16  and  N3_17
REMARK    5  A    between atoms: N3_17  and  C13_18
REMARK    6  A    between atoms: C21_26  and  O3_27
REMARK    7  A    between atoms: O3_27  and  C22_28
REMARK    8  A    between atoms: C22_28  and  C23_29
REMARK    9  A    between atoms: N4_31  and  C25_32
REMARK   10  A    between atoms: C25_32  and  C26_33
REMARK   11  A    between atoms: N5_35  and  C27_36
REMARK   12  A    between atoms: C27_36  and  C28_37
REMARK   13  A    between atoms: C31_40  and  C32_41
REMARK                            x       y       z     vdW  Elec       q    Type
REMARK                         _______ _______ _______ _____ _____    ______ ____
ROOT
ATOM      1  C2  UNL     1      29.252  -9.494 -35.039  0.00  0.00    +0.000 A 
ATOM      2  C3  UNL     1      28.034  -9.703 -35.717  0.00  0.00    +0.000 A 
ATOM      3  C4  UNL     1      27.819  -9.149 -36.988  0.00  0.00    +0.000 A 
ATOM      4  C19 UNL     1      28.812  -8.342 -37.559  0.00  0.00    +0.000 A 
ATOM      5  C20 UNL     1      30.019  -8.129 -36.893  0.00  0.00    +0.000 A 
ATOM      6  C21 UNL     1      30.256  -8.719 -35.638  0.00  0.00    +0.000 A 
ENDROOT
BRANCH   3   7
ATOM      7  C5  UNL     1      26.506  -9.378 -37.703  0.00  0.00    +0.000 C 
ATOM      8  N1  UNL     1      26.793  -9.786 -39.085  0.00  0.00    +0.000 N 
ATOM      9  C6  UNL     1      26.036  -9.348 -40.219  0.00  0.00    +0.000 A 
ATOM     10  C7  UNL     1      26.247  -9.940 -41.475  0.00  0.00    +0.000 A 
ATOM     11  C8  UNL     1      25.524  -9.507 -42.588  0.00  0.00    +0.000 A 
ATOM     12  C9  UNL     1      24.586  -8.479 -42.454  0.00  0.00    +0.000 A 
ATOM     13  C10 UNL     1      24.373  -7.883 -41.208  0.00  0.00    +0.000 A 
ATOM     14  C11 UNL     1      25.099  -8.318 -40.085  0.00  0.00    +0.000 A 
ATOM     15  C12 UNL     1      24.917  -7.696 -38.767  0.00  0.00    +0.000 C 
ATOM     16  O2  UNL     1      24.111  -6.734 -38.630  0.00  0.00    +0.000 OA
ATOM     17  N2  UNL     1      25.662  -8.165 -37.634  0.00  0.00    +0.000 N 
ATOM     18  H6  UNL     1      27.488 -10.556 -39.221  0.00  0.00    +0.000 HD
BRANCH  17  19
ATOM     19  N3  UNL     1      25.582  -7.427 -36.434  0.00  0.00    +0.000 N 
ATOM     20  H11 UNL     1      25.742  -6.396 -36.508  0.00  0.00    +0.000 HD
BRANCH  19  21
ATOM     21  C13 UNL     1      24.746  -7.858 -35.350  0.00  0.00    +0.000 A 
ATOM     22  C14 UNL     1      25.333  -8.326 -34.165  0.00  0.00    +0.000 A 
ATOM     23  C15 UNL     1      24.536  -8.775 -33.108  0.00  0.00    +0.000 A 
ATOM     24  C16 UNL     1      23.145  -8.771 -33.232  0.00  0.00    +0.000 A 
ATOM     25  C17 UNL     1      22.551  -8.322 -34.413  0.00  0.00    +0.000 A 
ATOM     26  C18 UNL     1      23.345  -7.868 -35.470  0.00  0.00    +0.000 A 
ENDBRANCH  19  21
ENDBRANCH  17  19
ENDBRANCH   3   7
BRANCH   1  28
ATOM     27  C1  UNL     1      29.481  -9.284 -32.558  0.00  0.00    +0.000 C 
ATOM     28  O1  UNL     1      29.496 -10.034 -33.767  0.00  0.00    +0.000 OA
ENDBRANCH   1  28
BRANCH   6  29
ATOM     29  O3  UNL     1      31.473  -8.567 -34.950  0.00  0.00    +0.000 OA
BRANCH  29  30
ATOM     30  C22 UNL     1      32.704  -9.206 -35.286  0.00  0.00    +0.000 C 
BRANCH  30  31
ATOM     31  C23 UNL     1      33.204  -8.701 -36.601  0.00  0.00    +0.000 A 
ATOM     32  C24 UNL     1      33.433  -9.457 -37.728  0.00  0.00    +0.000 A 
ATOM     33  N4  UNL     1      33.916  -8.610 -38.650  0.00  0.00    +0.000 N 
ATOM     34  N6  UNL     1      33.983  -7.400 -38.116  0.00  0.00    +0.000 NA
ATOM     35  N7  UNL     1      33.560  -7.427 -36.859  0.00  0.00    +0.000 NA
BRANCH  33  36
ATOM     36  C25 UNL     1      34.278  -8.931 -40.027  0.00  0.00    +0.000 C 
BRANCH  36  37
ATOM     37  C26 UNL     1      33.133  -9.585 -40.745  0.00  0.00    +0.000 C 
ATOM     38  O4  UNL     1      33.376 -10.471 -41.608  0.00  0.00    +0.000 OA
ATOM     39  N5  UNL     1      31.776  -9.254 -40.408  0.00  0.00    +0.000 N 
ATOM     40  H24 UNL     1      31.596  -8.571 -39.640  0.00  0.00    +0.000 HD
BRANCH  39  41
ATOM     41  C27 UNL     1      30.626  -9.943 -40.986  0.00  0.00    +0.000 C 
BRANCH  41  42
ATOM     42  C28 UNL     1      29.757  -8.956 -41.716  0.00  0.00    +0.000 A 
ATOM     43  C29 UNL     1      29.462  -9.146 -43.075  0.00  0.00    +0.000 A 
ATOM     44  C30 UNL     1      28.687  -8.211 -43.767  0.00  0.00    +0.000 A 
ATOM     45  C31 UNL     1      28.214  -7.064 -43.114  0.00  0.00    +0.000 A 
ATOM     46  C32 UNL     1      27.351  -6.083 -43.852  0.00  0.00    +0.000 C 
ATOM     47  C33 UNL     1      28.504  -6.873 -41.755  0.00  0.00    +0.000 A 
ATOM     48  C34 UNL     1      29.284  -7.807 -41.063  0.00  0.00    +0.000 A 
ENDBRANCH  41  42
ENDBRANCH  39  41
ENDBRANCH  36  37
ENDBRANCH  33  36
ENDBRANCH  30  31
ENDBRANCH  29  30
ENDBRANCH   6  29
TORSDOF 11
ENDMDL
MODEL 2
REMARK VINA RESULT:    -6.035      2.411      8.315
REMARK INTER + INTRA:         -13.668
REMARK INTER:                  -9.866
REMARK INTRA:                  -3.803
REMARK UNBOUND:                -3.752
REMARK  Name = resultss/4CJN/ligands/lig_335_t0.pdb
REMARK  13 active torsions:
REMARK  status: ('A' for Active; 'I' for Inactive)
REMARK    1  A    between atoms: C1_1  and  O1_2
REMARK    2  A    between atoms: O1_2  and  C2_3
REMARK    3  A    between atoms: C4_5  and  C5_6
REMARK    4  A    between atoms: N2_16  and  N3_17
REMARK    5  A    between atoms: N3_17  and  C13_18
REMARK    6  A    between atoms: C21_26  and  O3_27
REMARK    7  A    between atoms: O3_27  and  C22_28
REMARK    8  A    between atoms: C22_28  and  C23_29
REMARK    9  A    between atoms: N4_31  and  C25_32
REMARK   10  A    between atoms: C25_32  and  C26_33
REMARK   11  A    between atoms: N5_35  and  C27_36
REMARK   12  A    between atoms: C27_36  and  C28_37
REMARK   13  A    between atoms: C31_40  and  C32_41
REMARK                            x       y       z     vdW  Elec       q    Type
REMARK                         _______ _______ _______ _____ _____    ______ ____
ROOT
ATOM      1  C2  UNL     1      27.286 -10.431 -40.507  0.00  0.00    +0.000 A 
ATOM      2  C3  UNL     1      28.558 -10.439 -41.112  0.00  0.00    +0.000 A 
ATOM      3  C4  UNL     1      29.095  -9.267 -41.665  0.00  0.00    +0.000 A 
ATOM      4  C19 UNL     1      28.329  -8.094 -41.656  0.00  0.00    +0.000 A 
ATOM      5  C20 UNL     1      27.068  -8.078 -41.060  0.00  0.00    +0.000 A 
ATOM      6  C21 UNL     1      26.544  -9.241 -40.465  0.00  0.00    +0.000 A 
ENDROOT
BRANCH   3   7
ATOM      7  C5  UNL     1      30.461  -9.291 -42.315  0.00  0.00    +0.000 C 
ATOM      8  N1  UNL     1      30.590 -10.539 -43.080  0.00  0.00    +0.000 N 
ATOM      9  C6  UNL     1      31.794 -11.312 -43.146  0.00  0.00    +0.000 A 
ATOM     10  C7  UNL     1      31.895 -12.377 -44.056  0.00  0.00    +0.000 A 
ATOM     11  C8  UNL     1      33.059 -13.145 -44.115  0.00  0.00    +0.000 A 
ATOM     12  C9  UNL     1      34.129 -12.857 -43.263  0.00  0.00    +0.000 A 
ATOM     13  C10 UNL     1      34.034 -11.801 -42.351  0.00  0.00    +0.000 A 
ATOM     14  C11 UNL     1      32.864 -11.025 -42.292  0.00  0.00    +0.000 A 
ATOM     15  C12 UNL     1      32.722  -9.925 -41.329  0.00  0.00    +0.000 C 
ATOM     16  O2  UNL     1      33.655  -9.675 -40.516  0.00  0.00    +0.000 OA
ATOM     17  N2  UNL     1      31.521  -9.140 -41.294  0.00  0.00    +0.000 N 
ATOM     18  H6  UNL     1      29.808 -10.783 -43.731  0.00  0.00    +0.000 HD
BRANCH  17  19
ATOM     19  N3  UNL     1      31.363  -8.212 -40.243  0.00  0.00    +0.000 N 
ATOM     20  H11 UNL     1      31.342  -7.202 -40.511  0.00  0.00    +0.000 HD
BRANCH  19  21
ATOM     21  C13 UNL     1      30.656  -8.560 -39.044  0.00  0.00    +0.000 A 
ATOM     22  C14 UNL     1      30.835  -9.831 -38.478  0.00  0.00    +0.000 A 
ATOM     23  C15 UNL     1      30.136 -10.199 -37.325  0.00  0.00    +0.000 A 
ATOM     24  C16 UNL     1      29.242  -9.302 -36.734  0.00  0.00    +0.000 A 
ATOM     25  C17 UNL     1      29.045  -8.040 -37.298  0.00  0.00    +0.000 A 
ATOM     26  C18 UNL     1      29.747  -7.668 -38.449  0.00  0.00    +0.000 A 
ENDBRANCH  19  21
ENDBRANCH  17  19
ENDBRANCH   3   7
BRANCH   1  28
ATOM     27  C1  UNL     1      27.302 -12.885 -40.023  0.00  0.00    +0.000 C 
ATOM     28  O1  UNL     1      26.722 -11.587 -39.946  0.00  0.00    +0.000 OA
ENDBRANCH   1  28
BRANCH   6  29
ATOM     29  O3  UNL     1      25.297  -9.261 -39.817  0.00  0.00    +0.000 OA
BRANCH  29  30
ATOM     30  C22 UNL     1      24.777  -8.227 -38.981  0.00  0.00    +0.000 C 
BRANCH  30  31
ATOM     31  C23 UNL     1      24.995  -8.569 -37.543  0.00  0.00    +0.000 A 
ATOM     32  C24 UNL     1      24.437  -7.926 -36.461  0.00  0.00    +0.000 A 
ATOM     33  N4  UNL     1      24.938  -8.530 -35.373  0.00  0.00    +0.000 N 
ATOM     34  N6  UNL     1      25.763  -9.489 -35.765  0.00  0.00    +0.000 NA
ATOM     35  N7  UNL     1      25.824  -9.531 -37.090  0.00  0.00    +0.000 NA
BRANCH  33  36
ATOM     36  C25 UNL     1      24.619  -8.229 -33.981  0.00  0.00    +0.000 C 
BRANCH  36  37
ATOM     37  C26 UNL     1      25.785  -7.581 -33.292  0.00  0.00    +0.000 C 
ATOM     38  O4  UNL     1      25.668  -6.398 -32.869  0.00  0.00    +0.000 OA
ATOM     39  N5  UNL     1      26.995  -8.318 -33.056  0.00  0.00    +0.000 N 
ATOM     40  H24 UNL     1      27.046  -9.318 -33.349  0.00  0.00    +0.000 HD
BRANCH  39  41
ATOM     41  C27 UNL     1      28.114  -7.780 -32.287  0.00  0.00    +0.000 C 
BRANCH  41  42
ATOM     42  C28 UNL     1      29.411  -8.155 -32.947  0.00  0.00    +0.000 A 
ATOM     43  C29 UNL     1      30.141  -7.193 -33.663  0.00  0.00    +0.000 A 
ATOM     44  C30 UNL     1      31.328  -7.546 -34.312  0.00  0.00    +0.000 A 
ATOM     45  C31 UNL     1      31.790  -8.870 -34.269  0.00  0.00    +0.000 A 
ATOM     46  C32 UNL     1      33.084  -9.234 -34.935  0.00  0.00    +0.000 C 
ATOM     47  C33 UNL     1      31.064  -9.832 -33.551  0.00  0.00    +0.000 A 
ATOM     48  C34 UNL     1      29.874  -9.479 -32.905  0.00  0.00    +0.000 A 
ENDBRANCH  41  42
ENDBRANCH  39  41
ENDBRANCH  36  37
ENDBRANCH  33  36
ENDBRANCH  30  31
ENDBRANCH  29  30
ENDBRANCH   6  29
TORSDOF 11
ENDMDL
MODEL 3
REMARK VINA RESULT:    -6.030      2.601      9.450
REMARK INTER + INTRA:         -13.660
REMARK INTER:                 -11.746
REMARK INTRA:                  -1.914
REMARK UNBOUND:                -3.752
REMARK  Name = resultss/4CJN/ligands/lig_335_t0.pdb
REMARK  13 active torsions:
REMARK  status: ('A' for Active; 'I' for Inactive)
REMARK    1  A    between atoms: C1_1  and  O1_2
REMARK    2  A    between atoms: O1_2  and  C2_3
REMARK    3  A    between atoms: C4_5  and  C5_6
REMARK    4  A    between atoms: N2_16  and  N3_17
REMARK    5  A    between atoms: N3_17  and  C13_18
REMARK    6  A    between atoms: C21_26  and  O3_27
REMARK    7  A    between atoms: O3_27  and  C22_28
REMARK    8  A    between atoms: C22_28  and  C23_29
REMARK    9  A    between atoms: N4_31  and  C25_32
REMARK   10  A    between atoms: C25_32  and  C26_33
REMARK   11  A    between atoms: N5_35  and  C27_36
REMARK   12  A    between atoms: C27_36  and  C28_37
REMARK   13  A    between atoms: C31_40  and  C32_41
REMARK                            x       y       z     vdW  Elec       q    Type
REMARK                         _______ _______ _______ _____ _____    ______ ____
ROOT
ATOM      1  C2  UNL     1      26.654  -9.217 -42.856  0.00  0.00    +0.000 A 
ATOM      2  C3  UNL     1      27.352  -9.929 -41.861  0.00  0.00    +0.000 A 
ATOM      3  C4  UNL     1      28.618  -9.503 -41.431  0.00  0.00    +0.000 A 
ATOM      4  C19 UNL     1      29.207  -8.388 -42.041  0.00  0.00    +0.000 A 
ATOM      5  C20 UNL     1      28.523  -7.679 -43.028  0.00  0.00    +0.000 A 
ATOM      6  C21 UNL     1      27.235  -8.076 -43.430  0.00  0.00    +0.000 A 
ENDROOT
BRANCH   3   7
ATOM      7  C5  UNL     1      29.358 -10.280 -40.364  0.00  0.00    +0.000 C 
ATOM      8  N1  UNL     1      28.682 -10.061 -39.078  0.00  0.00    +0.000 N 
ATOM      9  C6  UNL     1      29.372  -9.891 -37.834  0.00  0.00    +0.000 A 
ATOM     10  C7  UNL     1      28.654  -9.890 -36.627  0.00  0.00    +0.000 A 
ATOM     11  C8  UNL     1      29.317  -9.709 -35.413  0.00  0.00    +0.000 A 
ATOM     12  C9  UNL     1      30.703  -9.525 -35.395  0.00  0.00    +0.000 A 
ATOM     13  C10 UNL     1      31.425  -9.521 -36.593  0.00  0.00    +0.000 A 
ATOM     14  C11 UNL     1      30.759  -9.705 -37.817  0.00  0.00    +0.000 A 
ATOM     15  C12 UNL     1      31.483  -9.682 -39.094  0.00  0.00    +0.000 C 
ATOM     16  O2  UNL     1      32.728  -9.470 -39.109  0.00  0.00    +0.000 OA
ATOM     17  N2  UNL     1      30.783  -9.883 -40.331  0.00  0.00    +0.000 N 
ATOM     18  H6  UNL     1      27.645 -10.194 -39.055  0.00  0.00    +0.000 HD
BRANCH  17  19
ATOM     19  N3  UNL     1      31.488  -9.680 -41.536  0.00  0.00    +0.000 N 
ATOM     20  H11 UNL     1      31.988  -8.767 -41.636  0.00  0.00    +0.000 HD
BRANCH  19  21
ATOM     21  C13 UNL     1      32.040 -10.784 -42.269  0.00  0.00    +0.000 A 
ATOM     22  C14 UNL     1      31.205 -11.556 -43.091  0.00  0.00    +0.000 A 
ATOM     23  C15 UNL     1      31.717 -12.651 -43.793  0.00  0.00    +0.000 A 
ATOM     24  C16 UNL     1      33.067 -12.990 -43.670  0.00  0.00    +0.000 A 
ATOM     25  C17 UNL     1      33.903 -12.237 -42.843  0.00  0.00    +0.000 A 
ATOM     26  C18 UNL     1      33.394 -11.139 -42.143  0.00  0.00    +0.000 A 
ENDBRANCH  19  21
ENDBRANCH  17  19
ENDBRANCH   3   7
BRANCH   1  28
ATOM     27  C1  UNL     1      24.207  -9.600 -42.510  0.00  0.00    +0.000 C 
ATOM     28  O1  UNL     1      25.387  -9.617 -43.306  0.00  0.00    +0.000 OA
ENDBRANCH   1  28
BRANCH   6  29
ATOM     29  O3  UNL     1      26.492  -7.368 -44.391  0.00  0.00    +0.000 OA
BRANCH  29  30
ATOM     30  C22 UNL     1      25.966  -6.050 -44.230  0.00  0.00    +0.000 C 
BRANCH  30  31
ATOM     31  C23 UNL     1      24.916  -6.040 -43.166  0.00  0.00    +0.000 A 
ATOM     32  C24 UNL     1      25.133  -5.919 -41.813  0.00  0.00    +0.000 A 
ATOM     33  N4  UNL     1      23.924  -6.004 -41.236  0.00  0.00    +0.000 N 
ATOM     34  N6  UNL     1      23.015  -6.173 -42.185  0.00  0.00    +0.000 NA
ATOM     35  N7  UNL     1      23.596  -6.206 -43.377  0.00  0.00    +0.000 NA
BRANCH  33  36
ATOM     36  C25 UNL     1      23.626  -5.896 -39.811  0.00  0.00    +0.000 C 
BRANCH  36  37
ATOM     37  C26 UNL     1      24.394  -6.918 -39.024  0.00  0.00    +0.000 C 
ATOM     38  O4  UNL     1      24.593  -8.057 -39.527  0.00  0.00    +0.000 OA
ATOM     39  N5  UNL     1      24.953  -6.584 -37.744  0.00  0.00    +0.000 N 
ATOM     40  H24 UNL     1      24.839  -5.614 -37.377  0.00  0.00    +0.000 HD
BRANCH  39  41
ATOM     41  C27 UNL     1      25.809  -7.497 -36.990  0.00  0.00    +0.000 C 
BRANCH  41  42
ATOM     42  C28 UNL     1      25.088  -7.967 -35.757  0.00  0.00    +0.000 A 
ATOM     43  C29 UNL     1      23.705  -7.763 -35.627  0.00  0.00    +0.000 A 
ATOM     44  C30 UNL     1      23.038  -8.163 -34.466  0.00  0.00    +0.000 A 
ATOM     45  C31 UNL     1      23.748  -8.754 -33.411  0.00  0.00    +0.000 A 
ATOM     46  C32 UNL     1      23.020  -9.215 -32.183  0.00  0.00    +0.000 C 
ATOM     47  C33 UNL     1      25.130  -8.962 -33.539  0.00  0.00    +0.000 A 
ATOM     48  C34 UNL     1      25.799  -8.558 -34.700  0.00  0.00    +0.000 A 
ENDBRANCH  41  42
ENDBRANCH  39  41
ENDBRANCH  36  37
ENDBRANCH  33  36
ENDBRANCH  30  31
ENDBRANCH  29  30
ENDBRANCH   6  29
TORSDOF 11
ENDMDL
MODEL 4
REMARK VINA RESULT:    -5.928      1.983      2.721
REMARK INTER + INTRA:         -13.491
REMARK INTER:                 -11.410
REMARK INTRA:                  -2.081
REMARK UNBOUND:                -3.752
REMARK  Name = resultss/4CJN/ligands/lig_335_t0.pdb
REMARK  13 active torsions:
REMARK  status: ('A' for Active; 'I' for Inactive)
REMARK    1  A    between atoms: C1_1  and  O1_2
REMARK    2  A    between atoms: O1_2  and  C2_3
REMARK    3  A    between atoms: C4_5  and  C5_6
REMARK    4  A    between atoms: N2_16  and  N3_17
REMARK    5  A    between atoms: N3_17  and  C13_18
REMARK    6  A    between atoms: C21_26  and  O3_27
REMARK    7  A    between atoms: O3_27  and  C22_28
REMARK    8  A    between atoms: C22_28  and  C23_29
REMARK    9  A    between atoms: N4_31  and  C25_32
REMARK   10  A    between atoms: C25_32  and  C26_33
REMARK   11  A    between atoms: N5_35  and  C27_36
REMARK   12  A    between atoms: C27_36  and  C28_37
REMARK   13  A    between atoms: C31_40  and  C32_41
REMARK                            x       y       z     vdW  Elec       q    Type
REMARK                         _______ _______ _______ _____ _____    ______ ____
ROOT
ATOM      1  C2  UNL     1      29.548  -8.886 -35.113  0.00  0.00    +0.000 A 
ATOM      2  C3  UNL     1      28.365  -9.291 -35.762  0.00  0.00    +0.000 A 
ATOM      3  C4  UNL     1      28.033  -8.786 -37.028  0.00  0.00    +0.000 A 
ATOM      4  C19 UNL     1      28.869  -7.832 -37.623  0.00  0.00    +0.000 A 
ATOM      5  C20 UNL     1      30.042  -7.424 -36.987  0.00  0.00    +0.000 A 
ATOM      6  C21 UNL     1      30.399  -7.961 -35.736  0.00  0.00    +0.000 A 
ENDROOT
BRANCH   3   7
ATOM      7  C5  UNL     1      26.758  -9.228 -37.711  0.00  0.00    +0.000 C 
ATOM      8  N1  UNL     1      27.081  -9.625 -39.087  0.00  0.00    +0.000 N 
ATOM      9  C6  UNL     1      26.248  -9.336 -40.217  0.00  0.00    +0.000 A 
ATOM     10  C7  UNL     1      26.525  -9.923 -41.462  0.00  0.00    +0.000 A 
ATOM     11  C8  UNL     1      25.728  -9.634 -42.571  0.00  0.00    +0.000 A 
ATOM     12  C9  UNL     1      24.650  -8.754 -42.444  0.00  0.00    +0.000 A 
ATOM     13  C10 UNL     1      24.370  -8.162 -41.208  0.00  0.00    +0.000 A 
ATOM     14  C11 UNL     1      25.170  -8.454 -40.090  0.00  0.00    +0.000 A 
ATOM     15  C12 UNL     1      24.918  -7.830 -38.784  0.00  0.00    +0.000 C 
ATOM     16  O2  UNL     1      23.980  -6.996 -38.654  0.00  0.00    +0.000 OA
ATOM     17  N2  UNL     1      25.743  -8.152 -37.654  0.00  0.00    +0.000 N 
ATOM     18  H6  UNL     1      27.881 -10.286 -39.219  0.00  0.00    +0.000 HD
BRANCH  17  19
ATOM     19  N3  UNL     1      25.573  -7.402 -36.471  0.00  0.00    +0.000 N 
ATOM     20  H11 UNL     1      25.658  -6.364 -36.560  0.00  0.00    +0.000 HD
BRANCH  19  21
ATOM     21  C13 UNL     1      24.739  -7.876 -35.404  0.00  0.00    +0.000 A 
ATOM     22  C14 UNL     1      25.326  -8.481 -34.283  0.00  0.00    +0.000 A 
ATOM     23  C15 UNL     1      24.529  -8.973 -33.244  0.00  0.00    +0.000 A 
ATOM     24  C16 UNL     1      23.138  -8.875 -33.324  0.00  0.00    +0.000 A 
ATOM     25  C17 UNL     1      22.544  -8.288 -34.444  0.00  0.00    +0.000 A 
ATOM     26  C18 UNL     1      23.338  -7.792 -35.481  0.00  0.00    +0.000 A 
ENDBRANCH  19  21
ENDBRANCH  17  19
ENDBRANCH   3   7
BRANCH   1  28
ATOM     27  C1  UNL     1      29.303  -8.958 -32.625  0.00  0.00    +0.000 C 
ATOM     28  O1  UNL     1      29.906  -9.372 -33.847  0.00  0.00    +0.000 OA
ENDBRANCH   1  28
BRANCH   6  29
ATOM     29  O3  UNL     1      31.591  -7.612 -35.078  0.00  0.00    +0.000 OA
BRANCH  29  30
ATOM     30  C22 UNL     1      32.797  -8.376 -35.079  0.00  0.00    +0.000 C 
BRANCH  30  31
ATOM     31  C23 UNL     1      33.317  -8.516 -36.474  0.00  0.00    +0.000 A 
ATOM     32  C24 UNL     1      33.438  -9.691 -37.181  0.00  0.00    +0.000 A 
ATOM     33  N4  UNL     1      33.985  -9.357 -38.360  0.00  0.00    +0.000 N 
ATOM     34  N6  UNL     1      34.193  -8.050 -38.374  0.00  0.00    +0.000 NA
ATOM     35  N7  UNL     1      33.800  -7.509 -37.228  0.00  0.00    +0.000 NA
BRANCH  33  36
ATOM     36  C25 UNL     1      34.279 -10.256 -39.472  0.00  0.00    +0.000 C 
BRANCH  36  37
ATOM     37  C26 UNL     1      33.538  -9.838 -40.709  0.00  0.00    +0.000 C 
ATOM     38  O4  UNL     1      34.087  -9.035 -41.512  0.00  0.00    +0.000 OA
ATOM     39  N5  UNL     1      32.249 -10.396 -41.011  0.00  0.00    +0.000 N 
ATOM     40  H24 UNL     1      31.843 -11.113 -40.371  0.00  0.00    +0.000 HD
BRANCH  39  41
ATOM     41  C27 UNL     1      31.537 -10.118 -42.256  0.00  0.00    +0.000 C 
BRANCH  41  42
ATOM     42  C28 UNL     1      31.898 -11.150 -43.288  0.00  0.00    +0.000 A 
ATOM     43  C29 UNL     1      31.356 -12.443 -43.212  0.00  0.00    +0.000 A 
ATOM     44  C30 UNL     1      31.719 -13.417 -44.146  0.00  0.00    +0.000 A 
ATOM     45  C31 UNL     1      32.644 -13.117 -45.157  0.00  0.00    +0.000 A 
ATOM     46  C32 UNL     1      33.000 -14.155 -46.179  0.00  0.00    +0.000 C 
ATOM     47  C33 UNL     1      33.184 -11.825 -45.238  0.00  0.00    +0.000 A 
ATOM     48  C34 UNL     1      32.823 -10.850 -44.300  0.00  0.00    +0.000 A 
ENDBRANCH  41  42
ENDBRANCH  39  41
ENDBRANCH  36  37
ENDBRANCH  33  36
ENDBRANCH  30  31
ENDBRANCH  29  30
ENDBRANCH   6  29
TORSDOF 11
ENDMDL
MODEL 5
REMARK VINA RESULT:    -5.822      3.022      6.574
REMARK INTER + INTRA:         -13.318
REMARK INTER:                 -11.514
REMARK INTRA:                  -1.804
REMARK UNBOUND:                -3.752
REMARK  Name = resultss/4CJN/ligands/lig_335_t0.pdb
REMARK  13 active torsions:
REMARK  status: ('A' for Active; 'I' for Inactive)
REMARK    1  A    between atoms: C1_1  and  O1_2
REMARK    2  A    between atoms: O1_2  and  C2_3
REMARK    3  A    between atoms: C4_5  and  C5_6
REMARK    4  A    between atoms: N2_16  and  N3_17
REMARK    5  A    between atoms: N3_17  and  C13_18
REMARK    6  A    between atoms: C21_26  and  O3_27
REMARK    7  A    between atoms: O3_27  and  C22_28
REMARK    8  A    between atoms: C22_28  and  C23_29
REMARK    9  A    between atoms: N4_31  and  C25_32
REMARK   10  A    between atoms: C25_32  and  C26_33
REMARK   11  A    between atoms: N5_35  and  C27_36
REMARK   12  A    between atoms: C27_36  and  C28_37
REMARK   13  A    between atoms: C31_40  and  C32_41
REMARK                            x       y       z     vdW  Elec       q    Type
REMARK                         _______ _______ _______ _____ _____    ______ ____
ROOT
ATOM      1  C2  UNL     1      26.654  -8.911 -37.945  0.00  0.00    +0.000 A 
ATOM      2  C3  UNL     1      27.549  -8.276 -37.062  0.00  0.00    +0.000 A 
ATOM      3  C4  UNL     1      27.282  -6.987 -36.577  0.00  0.00    +0.000 A 
ATOM      4  C19 UNL     1      26.136  -6.313 -37.022  0.00  0.00    +0.000 A 
ATOM      5  C20 UNL     1      25.246  -6.935 -37.898  0.00  0.00    +0.000 A 
ATOM      6  C21 UNL     1      25.489  -8.245 -38.352  0.00  0.00    +0.000 A 
ENDROOT
BRANCH   3   7
ATOM      7  C5  UNL     1      28.253  -6.315 -35.632  0.00  0.00    +0.000 C 
ATOM      8  N1  UNL     1      29.535  -7.029 -35.698  0.00  0.00    +0.000 N 
ATOM      9  C6  UNL     1      30.362  -7.290 -34.558  0.00  0.00    +0.000 A 
ATOM     10  C7  UNL     1      31.661  -7.796 -34.733  0.00  0.00    +0.000 A 
ATOM     11  C8  UNL     1      32.466  -8.068 -33.627  0.00  0.00    +0.000 A 
ATOM     12  C9  UNL     1      31.980  -7.839 -32.336  0.00  0.00    +0.000 A 
ATOM     13  C10 UNL     1      30.686  -7.339 -32.153  0.00  0.00    +0.000 A 
ATOM     14  C11 UNL     1      29.874  -7.062 -33.267  0.00  0.00    +0.000 A 
ATOM     15  C12 UNL     1      28.503  -6.560 -33.109  0.00  0.00    +0.000 C 
ATOM     16  O2  UNL     1      28.023  -6.390 -31.954  0.00  0.00    +0.000 OA
ATOM     17  N2  UNL     1      27.696  -6.276 -34.262  0.00  0.00    +0.000 N 
ATOM     18  H6  UNL     1      29.930  -7.214 -36.649  0.00  0.00    +0.000 HD
BRANCH  17  19
ATOM     19  N3  UNL     1      26.336  -5.962 -34.060  0.00  0.00    +0.000 N 
ATOM     20  H11 UNL     1      25.954  -5.160 -34.612  0.00  0.00    +0.000 HD
BRANCH  19  21
ATOM     21  C13 UNL     1      25.389  -6.971 -33.679  0.00  0.00    +0.000 A 
ATOM     22  C14 UNL     1      25.719  -8.326 -33.836  0.00  0.00    +0.000 A 
ATOM     23  C15 UNL     1      24.800  -9.323 -33.494  0.00  0.00    +0.000 A 
ATOM     24  C16 UNL     1      23.540  -8.974 -33.004  0.00  0.00    +0.000 A 
ATOM     25  C17 UNL     1      23.197  -7.628 -32.859  0.00  0.00    +0.000 A 
ATOM     26  C18 UNL     1      24.114  -6.629 -33.195  0.00  0.00    +0.000 A 
ENDBRANCH  19  21
ENDBRANCH  17  19
ENDBRANCH   3   7
BRANCH   1  28
ATOM     27  C1  UNL     1      27.993 -10.547 -39.282  0.00  0.00    +0.000 C 
ATOM     28  O1  UNL     1      26.894 -10.200 -38.447  0.00  0.00    +0.000 OA
ENDBRANCH   1  28
BRANCH   6  29
ATOM     29  O3  UNL     1      24.599  -8.926 -39.201  0.00  0.00    +0.000 OA
BRANCH  29  30
ATOM     30  C22 UNL     1      24.243  -8.528 -40.525  0.00  0.00    +0.000 C 
BRANCH  30  31
ATOM     31  C23 UNL     1      25.413  -8.686 -41.442  0.00  0.00    +0.000 A 
ATOM     32  C24 UNL     1      26.548  -7.908 -41.453  0.00  0.00    +0.000 A 
ATOM     33  N4  UNL     1      27.305  -8.373 -42.459  0.00  0.00    +0.000 N 
ATOM     34  N6  UNL     1      26.667  -9.380 -43.036  0.00  0.00    +0.000 NA
ATOM     35  N7  UNL     1      25.501  -9.589 -42.439  0.00  0.00    +0.000 NA
BRANCH  33  36
ATOM     36  C25 UNL     1      28.628  -7.896 -42.850  0.00  0.00    +0.000 C 
BRANCH  36  37
ATOM     37  C26 UNL     1      29.699  -8.833 -42.372  0.00  0.00    +0.000 C 
ATOM     38  O4  UNL     1      30.442  -8.480 -41.416  0.00  0.00    +0.000 OA
ATOM     39  N5  UNL     1      29.835 -10.141 -42.950  0.00  0.00    +0.000 N 
ATOM     40  H24 UNL     1      29.164 -10.441 -43.691  0.00  0.00    +0.000 HD
BRANCH  39  41
ATOM     41  C27 UNL     1      30.778 -11.136 -42.446  0.00  0.00    +0.000 C 
BRANCH  41  42
ATOM     42  C28 UNL     1      31.675 -11.598 -43.561  0.00  0.00    +0.000 A 
ATOM     43  C29 UNL     1      32.395 -10.661 -44.319  0.00  0.00    +0.000 A 
ATOM     44  C30 UNL     1      33.200 -11.082 -45.382  0.00  0.00    +0.000 A 
ATOM     45  C31 UNL     1      33.279 -12.443 -45.713  0.00  0.00    +0.000 A 
ATOM     46  C32 UNL     1      34.174 -12.892 -46.830  0.00  0.00    +0.000 C 
ATOM     47  C33 UNL     1      32.563 -13.381 -44.954  0.00  0.00    +0.000 A 
ATOM     48  C34 UNL     1      31.754 -12.959 -43.893  0.00  0.00    +0.000 A 
ENDBRANCH  41  42
ENDBRANCH  39  41
ENDBRANCH  36  37
ENDBRANCH  33  36
ENDBRANCH  30  31
ENDBRANCH  29  30
ENDBRANCH   6  29
TORSDOF 11
ENDMDL
MODEL 6
REMARK VINA RESULT:    -5.743      2.652      9.449
REMARK INTER + INTRA:         -13.188
REMARK INTER:                 -10.594
REMARK INTRA:                  -2.594
REMARK UNBOUND:                -3.752
REMARK  Name = resultss/4CJN/ligands/lig_335_t0.pdb
REMARK  13 active torsions:
REMARK  status: ('A' for Active; 'I' for Inactive)
REMARK    1  A    between atoms: C1_1  and  O1_2
REMARK    2  A    between atoms: O1_2  and  C2_3
REMARK    3  A    between atoms: C4_5  and  C5_6
REMARK    4  A    between atoms: N2_16  and  N3_17
REMARK    5  A    between atoms: N3_17  and  C13_18
REMARK    6  A    between atoms: C21_26  and  O3_27
REMARK    7  A    between atoms: O3_27  and  C22_28
REMARK    8  A    between atoms: C22_28  and  C23_29
REMARK    9  A    between atoms: N4_31  and  C25_32
REMARK   10  A    between atoms: C25_32  and  C26_33
REMARK   11  A    between atoms: N5_35  and  C27_36
REMARK   12  A    between atoms: C27_36  and  C28_37
REMARK   13  A    between atoms: C31_40  and  C32_41
REMARK                            x       y       z     vdW  Elec       q    Type
REMARK                         _______ _______ _______ _____ _____    ______ ____
ROOT
ATOM      1  C2  UNL     1      26.574  -9.170 -42.720  0.00  0.00    +0.000 A 
ATOM      2  C3  UNL     1      27.510  -9.916 -41.976  0.00  0.00    +0.000 A 
ATOM      3  C4  UNL     1      28.758  -9.369 -41.641  0.00  0.00    +0.000 A 
ATOM      4  C19 UNL     1      29.086  -8.086 -42.098  0.00  0.00    +0.000 A 
ATOM      5  C20 UNL     1      28.165  -7.341 -42.835  0.00  0.00    +0.000 A 
ATOM      6  C21 UNL     1      26.896  -7.870 -43.136  0.00  0.00    +0.000 A 
ENDROOT
BRANCH   3   7
ATOM      7  C5  UNL     1      29.754 -10.183 -40.846  0.00  0.00    +0.000 C 
ATOM      8  N1  UNL     1      29.582  -9.867 -39.422  0.00  0.00    +0.000 N 
ATOM      9  C6  UNL     1      30.668  -9.730 -38.498  0.00  0.00    +0.000 A 
ATOM     10  C7  UNL     1      30.410  -9.629 -37.121  0.00  0.00    +0.000 A 
ATOM     11  C8  UNL     1      31.463  -9.479 -36.217  0.00  0.00    +0.000 A 
ATOM     12  C9  UNL     1      32.780  -9.427 -36.681  0.00  0.00    +0.000 A 
ATOM     13  C10 UNL     1      33.044  -9.523 -38.051  0.00  0.00    +0.000 A 
ATOM     14  C11 UNL     1      31.986  -9.676 -38.964  0.00  0.00    +0.000 A 
ATOM     15  C12 UNL     1      32.227  -9.755 -40.410  0.00  0.00    +0.000 C 
ATOM     16  O2  UNL     1      33.403  -9.663 -40.859  0.00  0.00    +0.000 OA
ATOM     17  N2  UNL     1      31.131  -9.922 -41.322  0.00  0.00    +0.000 N 
ATOM     18  H6  UNL     1      28.608  -9.901 -39.040  0.00  0.00    +0.000 HD
BRANCH  17  19
ATOM     19  N3  UNL     1      31.394  -9.819 -42.704  0.00  0.00    +0.000 N 
ATOM     20  H11 UNL     1      31.717  -8.887 -43.050  0.00  0.00    +0.000 HD
BRANCH  19  21
ATOM     21  C13 UNL     1      31.823 -10.957 -43.466  0.00  0.00    +0.000 A 
ATOM     22  C14 UNL     1      31.402 -12.241 -43.089  0.00  0.00    +0.000 A 
ATOM     23  C15 UNL     1      31.830 -13.365 -43.803  0.00  0.00    +0.000 A 
ATOM     24  C16 UNL     1      32.692 -13.214 -44.892  0.00  0.00    +0.000 A 
ATOM     25  C17 UNL     1      33.129 -11.942 -45.265  0.00  0.00    +0.000 A 
ATOM     26  C18 UNL     1      32.699 -10.816 -44.556  0.00  0.00    +0.000 A 
ENDBRANCH  19  21
ENDBRANCH  17  19
ENDBRANCH   3   7
BRANCH   1  28
ATOM     27  C1  UNL     1      24.164  -9.635 -42.241  0.00  0.00    +0.000 C 
ATOM     28  O1  UNL     1      25.319  -9.690 -43.070  0.00  0.00    +0.000 OA
ENDBRANCH   1  28
BRANCH   6  29
ATOM     29  O3  UNL     1      25.922  -7.140 -43.840  0.00  0.00    +0.000 OA
BRANCH  29  30
ATOM     30  C22 UNL     1      25.372  -5.885 -43.440  0.00  0.00    +0.000 C 
BRANCH  30  31
ATOM     31  C23 UNL     1      24.632  -6.035 -42.150  0.00  0.00    +0.000 A 
ATOM     32  C24 UNL     1      25.189  -6.064 -40.892  0.00  0.00    +0.000 A 
ATOM     33  N4  UNL     1      24.170  -6.257 -40.041  0.00  0.00    +0.000 N 
ATOM     34  N6  UNL     1      23.048  -6.346 -40.739  0.00  0.00    +0.000 NA
ATOM     35  N7  UNL     1      23.302  -6.221 -42.035  0.00  0.00    +0.000 NA
BRANCH  33  36
ATOM     36  C25 UNL     1      24.248  -6.324 -38.585  0.00  0.00    +0.000 C 
BRANCH  36  37
ATOM     37  C26 UNL     1      24.717  -7.678 -38.135  0.00  0.00    +0.000 C 
ATOM     38  O4  UNL     1      24.724  -8.631 -38.962  0.00  0.00    +0.000 OA
ATOM     39  N5  UNL     1      25.214  -7.873 -36.802  0.00  0.00    +0.000 N 
ATOM     40  H24 UNL     1      25.268  -7.056 -36.155  0.00  0.00    +0.000 HD
BRANCH  39  41
ATOM     41  C27 UNL     1      25.793  -9.135 -36.349  0.00  0.00    +0.000 C 
BRANCH  41  42
ATOM     42  C28 UNL     1      26.956  -8.862 -35.436  0.00  0.00    +0.000 A 
ATOM     43  C29 UNL     1      27.558  -9.914 -34.727  0.00  0.00    +0.000 A 
ATOM     44  C30 UNL     1      28.614  -9.659 -33.847  0.00  0.00    +0.000 A 
ATOM     45  C31 UNL     1      29.068  -8.346 -33.648  0.00  0.00    +0.000 A 
ATOM     46  C32 UNL     1      30.225  -8.084 -32.731  0.00  0.00    +0.000 C 
ATOM     47  C33 UNL     1      28.469  -7.294 -34.358  0.00  0.00    +0.000 A 
ATOM     48  C34 UNL     1      27.410  -7.549 -35.236  0.00  0.00    +0.000 A 
ENDBRANCH  41  42
ENDBRANCH  39  41
ENDBRANCH  36  37
ENDBRANCH  33  36
ENDBRANCH  30  31
ENDBRANCH  29  30
ENDBRANCH   6  29
TORSDOF 11
ENDMDL
MODEL 7
REMARK VINA RESULT:    -5.464      2.515      7.167
REMARK INTER + INTRA:         -12.729
REMARK INTER:                  -9.087
REMARK INTRA:                  -3.641
REMARK UNBOUND:                -3.752
REMARK  Name = resultss/4CJN/ligands/lig_335_t0.pdb
REMARK  13 active torsions:
REMARK  status: ('A' for Active; 'I' for Inactive)
REMARK    1  A    between atoms: C1_1  and  O1_2
REMARK    2  A    between atoms: O1_2  and  C2_3
REMARK    3  A    between atoms: C4_5  and  C5_6
REMARK    4  A    between atoms: N2_16  and  N3_17
REMARK    5  A    between atoms: N3_17  and  C13_18
REMARK    6  A    between atoms: C21_26  and  O3_27
REMARK    7  A    between atoms: O3_27  and  C22_28
REMARK    8  A    between atoms: C22_28  and  C23_29
REMARK    9  A    between atoms: N4_31  and  C25_32
REMARK   10  A    between atoms: C25_32  and  C26_33
REMARK   11  A    between atoms: N5_35  and  C27_36
REMARK   12  A    between atoms: C27_36  and  C28_37
REMARK   13  A    between atoms: C31_40  and  C32_41
REMARK                            x       y       z     vdW  Elec       q    Type
REMARK                         _______ _______ _______ _____ _____    ______ ____
ROOT
ATOM      1  C2  UNL     1      32.703  -8.760 -37.398  0.00  0.00    +0.000 A 
ATOM      2  C3  UNL     1      32.355  -8.354 -38.702  0.00  0.00    +0.000 A 
ATOM      3  C4  UNL     1      31.141  -8.760 -39.277  0.00  0.00    +0.000 A 
ATOM      4  C19 UNL     1      30.297  -9.618 -38.559  0.00  0.00    +0.000 A 
ATOM      5  C20 UNL     1      30.636 -10.025 -37.269  0.00  0.00    +0.000 A 
ATOM      6  C21 UNL     1      31.832  -9.585 -36.671  0.00  0.00    +0.000 A 
ENDROOT
BRANCH   3   7
ATOM      7  C5  UNL     1      30.781  -8.320 -40.679  0.00  0.00    +0.000 C 
ATOM      8  N1  UNL     1      29.766  -7.262 -40.588  0.00  0.00    +0.000 N 
ATOM      9  C6  UNL     1      28.654  -7.146 -41.483  0.00  0.00    +0.000 A 
ATOM     10  C7  UNL     1      27.847  -5.997 -41.455  0.00  0.00    +0.000 A 
ATOM     11  C8  UNL     1      26.752  -5.884 -42.313  0.00  0.00    +0.000 A 
ATOM     12  C9  UNL     1      26.453  -6.919 -43.203  0.00  0.00    +0.000 A 
ATOM     13  C10 UNL     1      27.250  -8.068 -43.235  0.00  0.00    +0.000 A 
ATOM     14  C11 UNL     1      28.355  -8.183 -42.373  0.00  0.00    +0.000 A 
ATOM     15  C12 UNL     1      29.197  -9.386 -42.364  0.00  0.00    +0.000 C 
ATOM     16  O2  UNL     1      28.921 -10.354 -43.125  0.00  0.00    +0.000 OA
ATOM     17  N2  UNL     1      30.325  -9.476 -41.482  0.00  0.00    +0.000 N 
ATOM     18  H6  UNL     1      29.960  -6.470 -39.933  0.00  0.00    +0.000 HD
BRANCH  17  19
ATOM     19  N3  UNL     1      30.997 -10.713 -41.386  0.00  0.00    +0.000 N 
ATOM     20  H11 UNL     1      30.550 -11.441 -40.783  0.00  0.00    +0.000 HD
BRANCH  19  21
ATOM     21  C13 UNL     1      31.817 -11.200 -42.459  0.00  0.00    +0.000 A 
ATOM     22  C14 UNL     1      31.508 -12.427 -43.064  0.00  0.00    +0.000 A 
ATOM     23  C15 UNL     1      32.309 -12.931 -44.094  0.00  0.00    +0.000 A 
ATOM     24  C16 UNL     1      33.432 -12.217 -44.518  0.00  0.00    +0.000 A 
ATOM     25  C17 UNL     1      33.756 -11.002 -43.911  0.00  0.00    +0.000 A 
ATOM     26  C18 UNL     1      32.955 -10.494 -42.884  0.00  0.00    +0.000 A 
ENDBRANCH  19  21
ENDBRANCH  17  19
ENDBRANCH   3   7
BRANCH   1  28
ATOM     27  C1  UNL     1      34.166  -7.073 -36.272  0.00  0.00    +0.000 C 
ATOM     28  O1  UNL     1      33.909  -8.371 -36.796  0.00  0.00    +0.000 OA
ENDBRANCH   1  28
BRANCH   6  29
ATOM     29  O3  UNL     1      32.193  -9.936 -35.359  0.00  0.00    +0.000 OA
BRANCH  29  30
ATOM     30  C22 UNL     1      31.826  -9.225 -34.177  0.00  0.00    +0.000 C 
BRANCH  30  31
ATOM     31  C23 UNL     1      30.344  -9.265 -33.990  0.00  0.00    +0.000 A 
ATOM     32  C24 UNL     1      29.539  -8.204 -33.643  0.00  0.00    +0.000 A 
ATOM     33  N4  UNL     1      28.296  -8.700 -33.544  0.00  0.00    +0.000 N 
ATOM     34  N6  UNL     1      28.336  -9.996 -33.812  0.00  0.00    +0.000 NA
ATOM     35  N7  UNL     1      29.580 -10.372 -34.081  0.00  0.00    +0.000 NA
BRANCH  33  36
ATOM     36  C25 UNL     1      27.080  -7.954 -33.232  0.00  0.00    +0.000 C 
BRANCH  36  37
ATOM     37  C26 UNL     1      26.585  -7.208 -34.437  0.00  0.00    +0.000 C 
ATOM     38  O4  UNL     1      25.666  -6.355 -34.296  0.00  0.00    +0.000 OA
ATOM     39  N5  UNL     1      27.193  -7.411 -35.722  0.00  0.00    +0.000 N 
ATOM     40  H24 UNL     1      28.001  -8.067 -35.805  0.00  0.00    +0.000 HD
BRANCH  39  41
ATOM     41  C27 UNL     1      26.835  -6.627 -36.902  0.00  0.00    +0.000 C 
BRANCH  41  42
ATOM     42  C28 UNL     1      26.484  -7.548 -38.037  0.00  0.00    +0.000 A 
ATOM     43  C29 UNL     1      25.388  -7.260 -38.866  0.00  0.00    +0.000 A 
ATOM     44  C30 UNL     1      25.035  -8.134 -39.898  0.00  0.00    +0.000 A 
ATOM     45  C31 UNL     1      25.760  -9.317 -40.102  0.00  0.00    +0.000 A 
ATOM     46  C32 UNL     1      25.399 -10.231 -41.235  0.00  0.00    +0.000 C 
ATOM     47  C33 UNL     1      26.858  -9.605 -39.278  0.00  0.00    +0.000 A 
ATOM     48  C34 UNL     1      27.210  -8.732 -38.241  0.00  0.00    +0.000 A 
ENDBRANCH  41  42
ENDBRANCH  39  41
ENDBRANCH  36  37
ENDBRANCH  33  36
ENDBRANCH  30  31
ENDBRANCH  29  30
ENDBRANCH   6  29
TORSDOF 11
ENDMDL
MODEL 8
REMARK VINA RESULT:    -5.406      2.535      6.925
REMARK INTER + INTRA:         -12.634
REMARK INTER:                  -9.826
REMARK INTRA:                  -2.808
REMARK UNBOUND:                -3.752
REMARK  Name = resultss/4CJN/ligands/lig_335_t0.pdb
REMARK  13 active torsions:
REMARK  status: ('A' for Active; 'I' for Inactive)
REMARK    1  A    between atoms: C1_1  and  O1_2
REMARK    2  A    between atoms: O1_2  and  C2_3
REMARK    3  A    between atoms: C4_5  and  C5_6
REMARK    4  A    between atoms: N2_16  and  N3_17
REMARK    5  A    between atoms: N3_17  and  C13_18
REMARK    6  A    between atoms: C21_26  and  O3_27
REMARK    7  A    between atoms: O3_27  and  C22_28
REMARK    8  A    between atoms: C22_28  and  C23_29
REMARK    9  A    between atoms: N4_31  and  C25_32
REMARK   10  A    between atoms: C25_32  and  C26_33
REMARK   11  A    between atoms: N5_35  and  C27_36
REMARK   12  A    between atoms: C27_36  and  C28_37
REMARK   13  A    between atoms: C31_40  and  C32_41
REMARK                            x       y       z     vdW  Elec       q    Type
REMARK                         _______ _______ _______ _____ _____    ______ ____
ROOT
ATOM      1  C2  UNL     1      24.049  -7.299 -41.198  0.00  0.00    +0.000 A 
ATOM      2  C3  UNL     1      24.261  -7.447 -39.813  0.00  0.00    +0.000 A 
ATOM      3  C4  UNL     1      25.001  -8.530 -39.315  0.00  0.00    +0.000 A 
ATOM      4  C19 UNL     1      25.486  -9.495 -40.208  0.00  0.00    +0.000 A 
ATOM      5  C20 UNL     1      25.279  -9.356 -41.580  0.00  0.00    +0.000 A 
ATOM      6  C21 UNL     1      24.575  -8.248 -42.087  0.00  0.00    +0.000 A 
ENDROOT
BRANCH   3   7
ATOM      7  C5  UNL     1      25.218  -8.679 -37.825  0.00  0.00    +0.000 C 
ATOM      8  N1  UNL     1      23.936  -8.457 -37.144  0.00  0.00    +0.000 N 
ATOM      9  C6  UNL     1      23.803  -7.745 -35.908  0.00  0.00    +0.000 A 
ATOM     10  C7  UNL     1      22.577  -7.751 -35.223  0.00  0.00    +0.000 A 
ATOM     11  C8  UNL     1      22.436  -7.046 -34.026  0.00  0.00    +0.000 A 
ATOM     12  C9  UNL     1      23.516  -6.328 -33.507  0.00  0.00    +0.000 A 
ATOM     13  C10 UNL     1      24.739  -6.313 -34.186  0.00  0.00    +0.000 A 
ATOM     14  C11 UNL     1      24.885  -7.024 -35.390  0.00  0.00    +0.000 A 
ATOM     15  C12 UNL     1      26.147  -7.010 -36.141  0.00  0.00    +0.000 C 
ATOM     16  O2  UNL     1      27.124  -6.330 -35.718  0.00  0.00    +0.000 OA
ATOM     17  N2  UNL     1      26.275  -7.752 -37.363  0.00  0.00    +0.000 N 
ATOM     18  H6  UNL     1      23.106  -8.982 -37.505  0.00  0.00    +0.000 HD
BRANCH  17  19
ATOM     19  N3  UNL     1      27.443  -7.569 -38.133  0.00  0.00    +0.000 N 
ATOM     20  H11 UNL     1      27.513  -6.674 -38.668  0.00  0.00    +0.000 HD
BRANCH  19  21
ATOM     21  C13 UNL     1      28.686  -8.176 -37.753  0.00  0.00    +0.000 A 
ATOM     22  C14 UNL     1      29.850  -7.394 -37.696  0.00  0.00    +0.000 A 
ATOM     23  C15 UNL     1      31.076  -7.973 -37.353  0.00  0.00    +0.000 A 
ATOM     24  C16 UNL     1      31.151  -9.340 -37.077  0.00  0.00    +0.000 A 
ATOM     25  C17 UNL     1      30.001 -10.129 -37.146  0.00  0.00    +0.000 A 
ATOM     26  C18 UNL     1      28.773  -9.553 -37.484  0.00  0.00    +0.000 A 
ENDBRANCH  19  21
ENDBRANCH  17  19
ENDBRANCH   3   7
BRANCH   1  28
ATOM     27  C1  UNL     1      21.895  -6.205 -41.845  0.00  0.00    +0.000 C 
ATOM     28  O1  UNL     1      23.313  -6.227 -41.727  0.00  0.00    +0.000 OA
ENDBRANCH   1  28
BRANCH   6  29
ATOM     29  O3  UNL     1      24.378  -8.045 -43.464  0.00  0.00    +0.000 OA
BRANCH  29  30
ATOM     30  C22 UNL     1      25.104  -7.127 -44.282  0.00  0.00    +0.000 C 
BRANCH  30  31
ATOM     31  C23 UNL     1      26.545  -7.112 -43.886  0.00  0.00    +0.000 A 
ATOM     32  C24 UNL     1      27.101  -6.366 -42.872  0.00  0.00    +0.000 A 
ATOM     33  N4  UNL     1      28.417  -6.626 -42.901  0.00  0.00    +0.000 N 
ATOM     34  N6  UNL     1      28.656  -7.483 -43.882  0.00  0.00    +0.000 NA
ATOM     35  N7  UNL     1      27.528  -7.792 -44.508  0.00  0.00    +0.000 NA
BRANCH  33  36
ATOM     36  C25 UNL     1      29.432  -6.099 -41.994  0.00  0.00    +0.000 C 
BRANCH  36  37
ATOM     37  C26 UNL     1      30.224  -7.212 -41.370  0.00  0.00    +0.000 C 
ATOM     38  O4  UNL     1      31.290  -6.936 -40.755  0.00  0.00    +0.000 OA
ATOM     39  N5  UNL     1      29.743  -8.564 -41.415  0.00  0.00    +0.000 N 
ATOM     40  H24 UNL     1      28.823  -8.762 -41.865  0.00  0.00    +0.000 HD
BRANCH  39  41
ATOM     41  C27 UNL     1      30.409  -9.666 -40.723  0.00  0.00    +0.000 C 
BRANCH  41  42
ATOM     42  C28 UNL     1      31.182 -10.493 -41.712  0.00  0.00    +0.000 A 
ATOM     43  C29 UNL     1      30.536 -11.497 -42.450  0.00  0.00    +0.000 A 
ATOM     44  C30 UNL     1      31.259 -12.295 -43.341  0.00  0.00    +0.000 A 
ATOM     45  C31 UNL     1      32.641 -12.112 -43.493  0.00  0.00    +0.000 A 
ATOM     46  C32 UNL     1      33.404 -12.946 -44.479  0.00  0.00    +0.000 C 
ATOM     47  C33 UNL     1      33.289 -11.107 -42.759  0.00  0.00    +0.000 A 
ATOM     48  C34 UNL     1      32.566 -10.310 -41.863  0.00  0.00    +0.000 A 
ENDBRANCH  41  42
ENDBRANCH  39  41
ENDBRANCH  36  37
ENDBRANCH  33  36
ENDBRANCH  30  31
ENDBRANCH  29  30
ENDBRANCH   6  29
TORSDOF 11
ENDMDL
MODEL 9
REMARK VINA RESULT:    -5.347      3.294      6.834
REMARK INTER + INTRA:         -12.537
REMARK INTER:                 -10.230
REMARK INTRA:                  -2.307
REMARK UNBOUND:                -3.752
REMARK  Name = resultss/4CJN/ligands/lig_335_t0.pdb
REMARK  13 active torsions:
REMARK  status: ('A' for Active; 'I' for Inactive)
REMARK    1  A    between atoms: C1_1  and  O1_2
REMARK    2  A    between atoms: O1_2  and  C2_3
REMARK    3  A    between atoms: C4_5  and  C5_6
REMARK    4  A    between atoms: N2_16  and  N3_17
REMARK    5  A    between atoms: N3_17  and  C13_18
REMARK    6  A    between atoms: C21_26  and  O3_27
REMARK    7  A    between atoms: O3_27  and  C22_28
REMARK    8  A    between atoms: C22_28  and  C23_29
REMARK    9  A    between atoms: N4_31  and  C25_32
REMARK   10  A    between atoms: C25_32  and  C26_33
REMARK   11  A    between atoms: N5_35  and  C27_36
REMARK   12  A    between atoms: C27_36  and  C28_37
REMARK   13  A    between atoms: C31_40  and  C32_41
REMARK                            x       y       z     vdW  Elec       q    Type
REMARK                         _______ _______ _______ _____ _____    ______ ____
ROOT
ATOM      1  C2  UNL     1      29.611  -8.351 -39.134  0.00  0.00    +0.000 A 
ATOM      2  C3  UNL     1      28.806  -7.674 -38.196  0.00  0.00    +0.000 A 
ATOM      3  C4  UNL     1      27.651  -8.276 -37.677  0.00  0.00    +0.000 A 
ATOM      4  C19 UNL     1      27.274  -9.545 -38.139  0.00  0.00    +0.000 A 
ATOM      5  C20 UNL     1      28.065 -10.221 -39.068  0.00  0.00    +0.000 A 
ATOM      6  C21 UNL     1      29.248  -9.638 -39.558  0.00  0.00    +0.000 A 
ENDROOT
BRANCH   3   7
ATOM      7  C5  UNL     1      26.794  -7.535 -36.674  0.00  0.00    +0.000 C 
ATOM      8  N1  UNL     1      26.505  -8.439 -35.552  0.00  0.00    +0.000 N 
ATOM      9  C6  UNL     1      25.239  -8.503 -34.886  0.00  0.00    +0.000 A 
ATOM     10  C7  UNL     1      25.106  -9.242 -33.699  0.00  0.00    +0.000 A 
ATOM     11  C8  UNL     1      23.872  -9.322 -33.053  0.00  0.00    +0.000 A 
ATOM     12  C9  UNL     1      22.760  -8.666 -33.589  0.00  0.00    +0.000 A 
ATOM     13  C10 UNL     1      22.883  -7.930 -34.772  0.00  0.00    +0.000 A 
ATOM     14  C11 UNL     1      24.126  -7.847 -35.423  0.00  0.00    +0.000 A 
ATOM     15  C12 UNL     1      24.284  -7.104 -36.680  0.00  0.00    +0.000 C 
ATOM     16  O2  UNL     1      23.285  -6.542 -37.210  0.00  0.00    +0.000 OA
ATOM     17  N2  UNL     1      25.566  -7.025 -37.321  0.00  0.00    +0.000 N 
ATOM     18  H6  UNL     1      27.316  -8.944 -35.124  0.00  0.00    +0.000 HD
BRANCH  17  19
ATOM     19  N3  UNL     1      25.631  -6.450 -38.608  0.00  0.00    +0.000 N 
ATOM     20  H11 UNL     1      26.528  -5.976 -38.863  0.00  0.00    +0.000 HD
BRANCH  19  21
ATOM     21  C13 UNL     1      24.868  -6.983 -39.701  0.00  0.00    +0.000 A 
ATOM     22  C14 UNL     1      24.896  -8.362 -39.956  0.00  0.00    +0.000 A 
ATOM     23  C15 UNL     1      24.180  -8.898 -41.031  0.00  0.00    +0.000 A 
ATOM     24  C16 UNL     1      23.441  -8.057 -41.867  0.00  0.00    +0.000 A 
ATOM     25  C17 UNL     1      23.420  -6.681 -41.630  0.00  0.00    +0.000 A 
ATOM     26  C18 UNL     1      24.131  -6.143 -40.553  0.00  0.00    +0.000 A 
ENDBRANCH  19  21
ENDBRANCH  17  19
ENDBRANCH   3   7
BRANCH   1  28
ATOM     27  C1  UNL     1      30.912  -6.394 -39.989  0.00  0.00    +0.000 C 
ATOM     28  O1  UNL     1      30.771  -7.775 -39.671  0.00  0.00    +0.000 OA
ENDBRANCH   1  28
BRANCH   6  29
ATOM     29  O3  UNL     1      30.097 -10.300 -40.463  0.00  0.00    +0.000 OA
BRANCH  29  30
ATOM     30  C22 UNL     1      30.279  -9.956 -41.836  0.00  0.00    +0.000 C 
BRANCH  30  31
ATOM     31  C23 UNL     1      29.028  -9.352 -42.387  0.00  0.00    +0.000 A 
ATOM     32  C24 UNL     1      28.818  -8.018 -42.651  0.00  0.00    +0.000 A 
ATOM     33  N4  UNL     1      27.553  -7.923 -43.087  0.00  0.00    +0.000 N 
ATOM     34  N6  UNL     1      27.014  -9.133 -43.088  0.00  0.00    +0.000 NA
ATOM     35  N7  UNL     1      27.893 -10.028 -42.656  0.00  0.00    +0.000 NA
BRANCH  33  36
ATOM     36  C25 UNL     1      26.870  -6.711 -43.529  0.00  0.00    +0.000 C 
BRANCH  36  37
ATOM     37  C26 UNL     1      26.277  -6.897 -44.896  0.00  0.00    +0.000 C 
ATOM     38  O4  UNL     1      27.043  -6.921 -45.899  0.00  0.00    +0.000 OA
ATOM     39  N5  UNL     1      24.866  -7.112 -45.057  0.00  0.00    +0.000 N 
ATOM     40  H24 UNL     1      24.260  -7.161 -44.209  0.00  0.00    +0.000 HD
BRANCH  39  41
ATOM     41  C27 UNL     1      24.253  -7.418 -46.347  0.00  0.00    +0.000 C 
BRANCH  41  42
ATOM     42  C28 UNL     1      22.768  -7.198 -46.269  0.00  0.00    +0.000 A 
ATOM     43  C29 UNL     1      21.962  -7.423 -47.396  0.00  0.00    +0.000 A 
ATOM     44  C30 UNL     1      20.586  -7.181 -47.339  0.00  0.00    +0.000 A 
ATOM     45  C31 UNL     1      20.002  -6.692 -46.162  0.00  0.00    +0.000 A 
ATOM     46  C32 UNL     1      18.520  -6.471 -46.096  0.00  0.00    +0.000 C 
ATOM     47  C33 UNL     1      20.805  -6.469 -45.033  0.00  0.00    +0.000 A 
ATOM     48  C34 UNL     1      22.183  -6.707 -45.091  0.00  0.00    +0.000 A 
ENDBRANCH  41  42
ENDBRANCH  39  41
ENDBRANCH  36  37
ENDBRANCH  33  36
ENDBRANCH  30  31
ENDBRANCH  29  30
ENDBRANCH   6  29
TORSDOF 11
ENDMDL
