MODEL 1
REMARK VINA RESULT:    -6.450      0.000      0.000
REMARK INTER + INTRA:          -8.555
REMARK INTER:                  -8.147
REMARK INTRA:                  -0.408
REMARK UNBOUND:                -0.408
REMARK  Name = resultss/4CJN/ligands/lig_240_t1.pdb
REMARK  5 active torsions:
REMARK  status: ('A' for Active; 'I' for Inactive)
REMARK    1  A    between atoms: C1_2  and  C2_3
REMARK    2  A    between atoms: C1_2  and  C10_11
REMARK    3  A    between atoms: C3_4  and  C4_5
REMARK    4  A    between atoms: C10_11  and  C11_12
REMARK    5  A    between atoms: C18_21  and  O2_22
REMARK                            x       y       z     vdW  Elec       q    Type
REMARK                         _______ _______ _______ _____ _____    ______ ____
ROOT
ATOM      1  C11 UNL     1      27.182  -9.718 -41.878  0.00  0.00    +0.000 A 
ATOM      2  N1  UNL     1      27.943  -8.981 -42.733  0.00  0.00    +0.000 NA
ATOM      3  C12 UNL     1      27.377  -8.196 -43.687  0.00  0.00    +0.000 A 
ATOM      4  C13 UNL     1      28.174  -7.449 -44.562  0.00  0.00    +0.000 A 
ATOM      5  C14 UNL     1      27.573  -6.646 -45.537  0.00  0.00    +0.000 A 
ATOM      6  C15 UNL     1      26.177  -6.587 -45.639  0.00  0.00    +0.000 A 
ATOM      7  C16 UNL     1      25.377  -7.330 -44.765  0.00  0.00    +0.000 A 
ATOM      8  C17 UNL     1      25.973  -8.135 -43.789  0.00  0.00    +0.000 A 
ATOM      9  N2  UNL     1      25.212  -8.861 -42.929  0.00  0.00    +0.000 NA
ATOM     10  C18 UNL     1      25.780  -9.648 -41.975  0.00  0.00    +0.000 A 
ENDROOT
BRANCH  10  11
ATOM     11  O2  UNL     1      24.971 -10.371 -41.102  0.00  0.00    +0.000 OA
ATOM     12  H14 UNL     1      24.648  -9.963 -40.233  0.00  0.00    +0.000 HD
ENDBRANCH  10  11
BRANCH   1  13
ATOM     13  C10 UNL     1      27.856 -10.550 -40.820  0.00  0.00    +0.000 C 
BRANCH  13  15
ATOM     14  O1  UNL     1      30.042  -9.849 -40.111  0.00  0.00    +0.000 OA
ATOM     15  C1  UNL     1      29.362 -10.518 -40.937  0.00  0.00    +0.000 C 
BRANCH  15  16
ATOM     16  C2  UNL     1      30.081 -11.225 -42.018  0.00  0.00    +0.000 C 
ATOM     17  C3  UNL     1      31.159 -10.721 -42.639  0.00  0.00    +0.000 C 
BRANCH  17  18
ATOM     18  C4  UNL     1      31.892 -11.432 -43.715  0.00  0.00    +0.000 A 
ATOM     19  C5  UNL     1      31.845 -12.834 -43.866  0.00  0.00    +0.000 A 
ATOM     20  C6  UNL     1      32.544 -13.456 -44.906  0.00  0.00    +0.000 A 
ATOM     21  C7  UNL     1      33.287 -12.692 -45.808  0.00  0.00    +0.000 A 
ATOM     22  C8  UNL     1      33.327 -11.303 -45.678  0.00  0.00    +0.000 A 
ATOM     23  C9  UNL     1      32.630 -10.675 -44.642  0.00  0.00    +0.000 A 
ENDBRANCH  17  18
ENDBRANCH  15  16
ENDBRANCH  13  15
ENDBRANCH   1  13
TORSDOF 5
ENDMDL
MODEL 2
REMARK VINA RESULT:    -6.418      3.509      5.829
REMARK INTER + INTRA:          -8.514
REMARK INTER:                  -8.101
REMARK INTRA:                  -0.413
REMARK UNBOUND:                -0.408
REMARK  Name = resultss/4CJN/ligands/lig_240_t1.pdb
REMARK  5 active torsions:
REMARK  status: ('A' for Active; 'I' for Inactive)
REMARK    1  A    between atoms: C1_2  and  C2_3
REMARK    2  A    between atoms: C1_2  and  C10_11
REMARK    3  A    between atoms: C3_4  and  C4_5
REMARK    4  A    between atoms: C10_11  and  C11_12
REMARK    5  A    between atoms: C18_21  and  O2_22
REMARK                            x       y       z     vdW  Elec       q    Type
REMARK                         _______ _______ _______ _____ _____    ______ ____
ROOT
ATOM      1  C11 UNL     1      28.875  -9.478 -38.830  0.00  0.00    +0.000 A 
ATOM      2  N1  UNL     1      27.635  -9.136 -38.384  0.00  0.00    +0.000 NA
ATOM      3  C12 UNL     1      27.291  -9.267 -37.076  0.00  0.00    +0.000 A 
ATOM      4  C13 UNL     1      26.011  -8.917 -36.636  0.00  0.00    +0.000 A 
ATOM      5  C14 UNL     1      25.676  -9.058 -35.284  0.00  0.00    +0.000 A 
ATOM      6  C15 UNL     1      26.620  -9.547 -34.373  0.00  0.00    +0.000 A 
ATOM      7  C16 UNL     1      27.902  -9.897 -34.808  0.00  0.00    +0.000 A 
ATOM      8  C17 UNL     1      28.241  -9.758 -36.158  0.00  0.00    +0.000 A 
ATOM      9  N2  UNL     1      29.483 -10.088 -36.599  0.00  0.00    +0.000 NA
ATOM     10  C18 UNL     1      29.824  -9.958 -37.910  0.00  0.00    +0.000 A 
ENDROOT
BRANCH  10  11
ATOM     11  O2  UNL     1      31.110 -10.296 -38.327  0.00  0.00    +0.000 OA
ATOM     12  H14 UNL     1      31.311 -10.471 -39.304  0.00  0.00    +0.000 HD
ENDBRANCH  10  11
BRANCH   1  13
ATOM     13  C10 UNL     1      29.215  -9.287 -40.284  0.00  0.00    +0.000 C 
BRANCH  13  15
ATOM     14  O1  UNL     1      28.031 -11.327 -40.743  0.00  0.00    +0.000 OA
ATOM     15  C1  UNL     1      28.933 -10.522 -41.107  0.00  0.00    +0.000 C 
BRANCH  15  16
ATOM     16  C2  UNL     1      29.705 -10.848 -42.325  0.00  0.00    +0.000 C 
ATOM     17  C3  UNL     1      30.976 -11.276 -42.299  0.00  0.00    +0.000 C 
BRANCH  17  18
ATOM     18  C4  UNL     1      31.751 -11.616 -43.517  0.00  0.00    +0.000 A 
ATOM     19  C5  UNL     1      32.424 -10.641 -44.284  0.00  0.00    +0.000 A 
ATOM     20  C6  UNL     1      33.154 -11.014 -45.418  0.00  0.00    +0.000 A 
ATOM     21  C7  UNL     1      33.228 -12.356 -45.795  0.00  0.00    +0.000 A 
ATOM     22  C8  UNL     1      32.580 -13.331 -45.035  0.00  0.00    +0.000 A 
ATOM     23  C9  UNL     1      31.850 -12.965 -43.899  0.00  0.00    +0.000 A 
ENDBRANCH  17  18
ENDBRANCH  15  16
ENDBRANCH  13  15
ENDBRANCH   1  13
TORSDOF 5
ENDMDL
MODEL 3
REMARK VINA RESULT:    -6.297      3.831      5.846
REMARK INTER + INTRA:          -8.362
REMARK INTER:                  -7.881
REMARK INTRA:                  -0.481
REMARK UNBOUND:                -0.408
REMARK  Name = resultss/4CJN/ligands/lig_240_t1.pdb
REMARK  5 active torsions:
REMARK  status: ('A' for Active; 'I' for Inactive)
REMARK    1  A    between atoms: C1_2  and  C2_3
REMARK    2  A    between atoms: C1_2  and  C10_11
REMARK    3  A    between atoms: C3_4  and  C4_5
REMARK    4  A    between atoms: C10_11  and  C11_12
REMARK    5  A    between atoms: C18_21  and  O2_22
REMARK                            x       y       z     vdW  Elec       q    Type
REMARK                         _______ _______ _______ _____ _____    ______ ____
ROOT
ATOM      1  C11 UNL     1      27.751  -9.129 -38.563  0.00  0.00    +0.000 A 
ATOM      2  N1  UNL     1      26.600  -8.630 -38.035  0.00  0.00    +0.000 NA
ATOM      3  C12 UNL     1      26.253  -8.867 -36.743  0.00  0.00    +0.000 A 
ATOM      4  C13 UNL     1      25.063  -8.351 -36.217  0.00  0.00    +0.000 A 
ATOM      5  C14 UNL     1      24.723  -8.605 -34.884  0.00  0.00    +0.000 A 
ATOM      6  C15 UNL     1      25.571  -9.372 -34.075  0.00  0.00    +0.000 A 
ATOM      7  C16 UNL     1      26.763  -9.888 -34.595  0.00  0.00    +0.000 A 
ATOM      8  C17 UNL     1      27.107  -9.638 -35.928  0.00  0.00    +0.000 A 
ATOM      9  N2  UNL     1      28.262 -10.126 -36.450  0.00  0.00    +0.000 NA
ATOM     10  C18 UNL     1      28.607  -9.889 -37.744  0.00  0.00    +0.000 A 
ENDROOT
BRANCH  10  11
ATOM     11  O2  UNL     1      29.804 -10.396 -38.246  0.00  0.00    +0.000 OA
ATOM     12  H14 UNL     1      29.881 -11.367 -38.524  0.00  0.00    +0.000 HD
ENDBRANCH  10  11
BRANCH   1  13
ATOM     13  C10 UNL     1      28.105  -8.815 -39.992  0.00  0.00    +0.000 C 
BRANCH  13  15
ATOM     14  O1  UNL     1      26.933 -10.766 -40.760  0.00  0.00    +0.000 OA
ATOM     15  C1  UNL     1      27.931 -10.007 -40.903  0.00  0.00    +0.000 C 
BRANCH  15  16
ATOM     16  C2  UNL     1      28.917 -10.345 -41.952  0.00  0.00    +0.000 C 
ATOM     17  C3  UNL     1      29.979 -11.135 -41.737  0.00  0.00    +0.000 C 
BRANCH  17  18
ATOM     18  C4  UNL     1      30.964 -11.487 -42.789  0.00  0.00    +0.000 A 
ATOM     19  C5  UNL     1      31.337 -12.820 -43.063  0.00  0.00    +0.000 A 
ATOM     20  C6  UNL     1      32.261 -13.102 -44.075  0.00  0.00    +0.000 A 
ATOM     21  C7  UNL     1      32.816 -12.065 -44.827  0.00  0.00    +0.000 A 
ATOM     22  C8  UNL     1      32.443 -10.744 -44.575  0.00  0.00    +0.000 A 
ATOM     23  C9  UNL     1      31.519 -10.456 -43.567  0.00  0.00    +0.000 A 
ENDBRANCH  17  18
ENDBRANCH  15  16
ENDBRANCH  13  15
ENDBRANCH   1  13
TORSDOF 5
ENDMDL
MODEL 4
REMARK VINA RESULT:    -6.272      3.203      5.072
REMARK INTER + INTRA:          -8.330
REMARK INTER:                  -7.751
REMARK INTRA:                  -0.578
REMARK UNBOUND:                -0.408
REMARK  Name = resultss/4CJN/ligands/lig_240_t1.pdb
REMARK  5 active torsions:
REMARK  status: ('A' for Active; 'I' for Inactive)
REMARK    1  A    between atoms: C1_2  and  C2_3
REMARK    2  A    between atoms: C1_2  and  C10_11
REMARK    3  A    between atoms: C3_4  and  C4_5
REMARK    4  A    between atoms: C10_11  and  C11_12
REMARK    5  A    between atoms: C18_21  and  O2_22
REMARK                            x       y       z     vdW  Elec       q    Type
REMARK                         _______ _______ _______ _____ _____    ______ ____
ROOT
ATOM      1  C11 UNL     1      26.485  -9.473 -39.871  0.00  0.00    +0.000 A 
ATOM      2  N1  UNL     1      27.444  -9.810 -38.966  0.00  0.00    +0.000 NA
ATOM      3  C12 UNL     1      27.244  -9.657 -37.630  0.00  0.00    +0.000 A 
ATOM      4  C13 UNL     1      28.242 -10.003 -36.714  0.00  0.00    +0.000 A 
ATOM      5  C14 UNL     1      28.017  -9.839 -35.343  0.00  0.00    +0.000 A 
ATOM      6  C15 UNL     1      26.794  -9.331 -34.886  0.00  0.00    +0.000 A 
ATOM      7  C16 UNL     1      25.791  -8.985 -35.799  0.00  0.00    +0.000 A 
ATOM      8  C17 UNL     1      26.012  -9.147 -37.171  0.00  0.00    +0.000 A 
ATOM      9  N2  UNL     1      25.050  -8.822 -38.072  0.00  0.00    +0.000 NA
ATOM     10  C18 UNL     1      25.253  -8.974 -39.409  0.00  0.00    +0.000 A 
ENDROOT
BRANCH  10  11
ATOM     11  O2  UNL     1      24.241  -8.640 -40.305  0.00  0.00    +0.000 OA
ATOM     12  H14 UNL     1      24.286  -7.785 -40.846  0.00  0.00    +0.000 HD
ENDBRANCH  10  11
BRANCH   1  13
ATOM     13  C10 UNL     1      26.746  -9.689 -41.337  0.00  0.00    +0.000 C 
BRANCH  13  15
ATOM     14  O1  UNL     1      27.890  -7.600 -41.652  0.00  0.00    +0.000 OA
ATOM     15  C1  UNL     1      27.892  -8.846 -41.847  0.00  0.00    +0.000 C 
BRANCH  15  16
ATOM     16  C2  UNL     1      29.018  -9.430 -42.606  0.00  0.00    +0.000 C 
ATOM     17  C3  UNL     1      29.640 -10.564 -42.247  0.00  0.00    +0.000 C 
BRANCH  17  18
ATOM     18  C4  UNL     1      30.762 -11.160 -43.011  0.00  0.00    +0.000 A 
ATOM     19  C5  UNL     1      31.063 -12.538 -42.965  0.00  0.00    +0.000 A 
ATOM     20  C6  UNL     1      32.125 -13.055 -43.715  0.00  0.00    +0.000 A 
ATOM     21  C7  UNL     1      32.891 -12.211 -44.521  0.00  0.00    +0.000 A 
ATOM     22  C8  UNL     1      32.593 -10.849 -44.587  0.00  0.00    +0.000 A 
ATOM     23  C9  UNL     1      31.532 -10.327 -43.841  0.00  0.00    +0.000 A 
ENDBRANCH  17  18
ENDBRANCH  15  16
ENDBRANCH  13  15
ENDBRANCH   1  13
TORSDOF 5
ENDMDL
MODEL 5
REMARK VINA RESULT:    -5.972      1.475      1.978
REMARK INTER + INTRA:          -7.952
REMARK INTER:                  -7.511
REMARK INTRA:                  -0.441
REMARK UNBOUND:                -0.408
REMARK  Name = resultss/4CJN/ligands/lig_240_t1.pdb
REMARK  5 active torsions:
REMARK  status: ('A' for Active; 'I' for Inactive)
REMARK    1  A    between atoms: C1_2  and  C2_3
REMARK    2  A    between atoms: C1_2  and  C10_11
REMARK    3  A    between atoms: C3_4  and  C4_5
REMARK    4  A    between atoms: C10_11  and  C11_12
REMARK    5  A    between atoms: C18_21  and  O2_22
REMARK                            x       y       z     vdW  Elec       q    Type
REMARK                         _______ _______ _______ _____ _____    ______ ____
ROOT
ATOM      1  C11 UNL     1      28.678 -10.125 -40.943  0.00  0.00    +0.000 A 
ATOM      2  N1  UNL     1      28.541  -9.225 -41.955  0.00  0.00    +0.000 NA
ATOM      3  C12 UNL     1      27.326  -8.951 -42.499  0.00  0.00    +0.000 A 
ATOM      4  C13 UNL     1      27.204  -8.028 -43.543  0.00  0.00    +0.000 A 
ATOM      5  C14 UNL     1      25.944  -7.758 -44.090  0.00  0.00    +0.000 A 
ATOM      6  C15 UNL     1      24.807  -8.408 -43.594  0.00  0.00    +0.000 A 
ATOM      7  C16 UNL     1      24.925  -9.331 -42.548  0.00  0.00    +0.000 A 
ATOM      8  C17 UNL     1      26.181  -9.604 -41.999  0.00  0.00    +0.000 A 
ATOM      9  N2  UNL     1      26.315 -10.493 -40.980  0.00  0.00    +0.000 NA
ATOM     10  C18 UNL     1      27.532 -10.767 -40.438  0.00  0.00    +0.000 A 
ENDROOT
BRANCH  10  11
ATOM     11  O2  UNL     1      27.633 -11.677 -39.388  0.00  0.00    +0.000 OA
ATOM     12  H14 UNL     1      27.959 -12.622 -39.547  0.00  0.00    +0.000 HD
ENDBRANCH  10  11
BRANCH   1  13
ATOM     13  C10 UNL     1      30.041 -10.372 -40.355  0.00  0.00    +0.000 C 
BRANCH  13  15
ATOM     14  O1  UNL     1      31.396  -8.505 -41.025  0.00  0.00    +0.000 OA
ATOM     15  C1  UNL     1      31.142  -9.733 -41.168  0.00  0.00    +0.000 C 
BRANCH  15  16
ATOM     16  C2  UNL     1      31.926 -10.493 -42.164  0.00  0.00    +0.000 C 
ATOM     17  C3  UNL     1      31.468 -10.794 -43.389  0.00  0.00    +0.000 C 
BRANCH  17  18
ATOM     18  C4  UNL     1      32.254 -11.546 -44.397  0.00  0.00    +0.000 A 
ATOM     19  C5  UNL     1      32.200 -12.951 -44.507  0.00  0.00    +0.000 A 
ATOM     20  C6  UNL     1      32.951 -13.613 -45.484  0.00  0.00    +0.000 A 
ATOM     21  C7  UNL     1      33.755 -12.886 -46.363  0.00  0.00    +0.000 A 
ATOM     22  C8  UNL     1      33.804 -11.495 -46.275  0.00  0.00    +0.000 A 
ATOM     23  C9  UNL     1      33.055 -10.826 -45.302  0.00  0.00    +0.000 A 
ENDBRANCH  17  18
ENDBRANCH  15  16
ENDBRANCH  13  15
ENDBRANCH   1  13
TORSDOF 5
ENDMDL
MODEL 6
REMARK VINA RESULT:    -5.970      3.193      5.158
REMARK INTER + INTRA:          -7.948
REMARK INTER:                  -7.340
REMARK INTRA:                  -0.609
REMARK UNBOUND:                -0.408
REMARK  Name = resultss/4CJN/ligands/lig_240_t1.pdb
REMARK  5 active torsions:
REMARK  status: ('A' for Active; 'I' for Inactive)
REMARK    1  A    between atoms: C1_2  and  C2_3
REMARK    2  A    between atoms: C1_2  and  C10_11
REMARK    3  A    between atoms: C3_4  and  C4_5
REMARK    4  A    between atoms: C10_11  and  C11_12
REMARK    5  A    between atoms: C18_21  and  O2_22
REMARK                            x       y       z     vdW  Elec       q    Type
REMARK                         _______ _______ _______ _____ _____    ______ ____
ROOT
ATOM      1  C11 UNL     1      27.213  -9.658 -39.932  0.00  0.00    +0.000 A 
ATOM      2  N1  UNL     1      27.045  -8.572 -39.128  0.00  0.00    +0.000 NA
ATOM      3  C12 UNL     1      27.295  -8.633 -37.794  0.00  0.00    +0.000 A 
ATOM      4  C13 UNL     1      27.110  -7.509 -36.981  0.00  0.00    +0.000 A 
ATOM      5  C14 UNL     1      27.374  -7.591 -35.609  0.00  0.00    +0.000 A 
ATOM      6  C15 UNL     1      27.823  -8.794 -35.049  0.00  0.00    +0.000 A 
ATOM      7  C16 UNL     1      28.010  -9.920 -35.858  0.00  0.00    +0.000 A 
ATOM      8  C17 UNL     1      27.748  -9.843 -37.230  0.00  0.00    +0.000 A 
ATOM      9  N2  UNL     1      27.928 -10.924 -38.033  0.00  0.00    +0.000 NA
ATOM     10  C18 UNL     1      27.675 -10.861 -39.368  0.00  0.00    +0.000 A 
ENDROOT
BRANCH  10  11
ATOM     11  O2  UNL     1      27.881 -11.985 -40.165  0.00  0.00    +0.000 OA
ATOM     12  H14 UNL     1      28.249 -12.842 -39.771  0.00  0.00    +0.000 HD
ENDBRANCH  10  11
BRANCH   1  13
ATOM     13  C10 UNL     1      26.950  -9.531 -41.408  0.00  0.00    +0.000 C 
BRANCH  13  15
ATOM     14  O1  UNL     1      28.347  -7.730 -42.167  0.00  0.00    +0.000 OA
ATOM     15  C1  UNL     1      28.138  -8.974 -42.158  0.00  0.00    +0.000 C 
BRANCH  15  16
ATOM     16  C2  UNL     1      29.061  -9.840 -42.921  0.00  0.00    +0.000 C 
ATOM     17  C3  UNL     1      30.309 -10.123 -42.516  0.00  0.00    +0.000 C 
BRANCH  17  18
ATOM     18  C4  UNL     1      31.236 -11.001 -43.271  0.00  0.00    +0.000 A 
ATOM     19  C5  UNL     1      32.131 -10.504 -44.241  0.00  0.00    +0.000 A 
ATOM     20  C6  UNL     1      32.995 -11.371 -44.917  0.00  0.00    +0.000 A 
ATOM     21  C7  UNL     1      32.984 -12.738 -44.629  0.00  0.00    +0.000 A 
ATOM     22  C8  UNL     1      32.115 -13.239 -43.659  0.00  0.00    +0.000 A 
ATOM     23  C9  UNL     1      31.249 -12.377 -42.979  0.00  0.00    +0.000 A 
ENDBRANCH  17  18
ENDBRANCH  15  16
ENDBRANCH  13  15
ENDBRANCH   1  13
TORSDOF 5
ENDMDL
MODEL 7
REMARK VINA RESULT:    -5.912      2.167      3.569
REMARK INTER + INTRA:          -7.876
REMARK INTER:                  -7.208
REMARK INTRA:                  -0.668
REMARK UNBOUND:                -0.408
REMARK  Name = resultss/4CJN/ligands/lig_240_t1.pdb
REMARK  5 active torsions:
REMARK  status: ('A' for Active; 'I' for Inactive)
REMARK    1  A    between atoms: C1_2  and  C2_3
REMARK    2  A    between atoms: C1_2  and  C10_11
REMARK    3  A    between atoms: C3_4  and  C4_5
REMARK    4  A    between atoms: C10_11  and  C11_12
REMARK    5  A    between atoms: C18_21  and  O2_22
REMARK                            x       y       z     vdW  Elec       q    Type
REMARK                         _______ _______ _______ _____ _____    ______ ____
ROOT
ATOM      1  C11 UNL     1      25.383  -7.637 -43.861  0.00  0.00    +0.000 A 
ATOM      2  N1  UNL     1      26.522  -7.247 -44.495  0.00  0.00    +0.000 NA
ATOM      3  C12 UNL     1      26.531  -6.961 -45.823  0.00  0.00    +0.000 A 
ATOM      4  C13 UNL     1      27.712  -6.567 -46.461  0.00  0.00    +0.000 A 
ATOM      5  C14 UNL     1      27.702  -6.277 -47.830  0.00  0.00    +0.000 A 
ATOM      6  C15 UNL     1      26.512  -6.379 -48.562  0.00  0.00    +0.000 A 
ATOM      7  C16 UNL     1      25.328  -6.771 -47.928  0.00  0.00    +0.000 A 
ATOM      8  C17 UNL     1      25.334  -7.062 -46.560  0.00  0.00    +0.000 A 
ATOM      9  N2  UNL     1      24.193  -7.440 -45.926  0.00  0.00    +0.000 NA
ATOM     10  C18 UNL     1      24.187  -7.727 -44.596  0.00  0.00    +0.000 A 
ENDROOT
BRANCH  10  11
ATOM     11  O2  UNL     1      22.998  -8.101 -43.974  0.00  0.00    +0.000 OA
ATOM     12  H14 UNL     1      22.994  -8.787 -43.229  0.00  0.00    +0.000 HD
ENDBRANCH  10  11
BRANCH   1  13
ATOM     13  C10 UNL     1      25.420  -7.914 -42.382  0.00  0.00    +0.000 C 
BRANCH  13  15
ATOM     14  O1  UNL     1      25.177 -10.280 -42.042  0.00  0.00    +0.000 OA
ATOM     15  C1  UNL     1      25.959  -9.290 -42.068  0.00  0.00    +0.000 C 
BRANCH  15  16
ATOM     16  C2  UNL     1      27.385  -9.522 -41.754  0.00  0.00    +0.000 C 
ATOM     17  C3  UNL     1      28.331  -9.675 -42.692  0.00  0.00    +0.000 C 
BRANCH  17  18
ATOM     18  C4  UNL     1      29.765  -9.895 -42.383  0.00  0.00    +0.000 A 
ATOM     19  C5  UNL     1      30.351  -9.478 -41.170  0.00  0.00    +0.000 A 
ATOM     20  C6  UNL     1      31.706  -9.721 -40.920  0.00  0.00    +0.000 A 
ATOM     21  C7  UNL     1      32.487 -10.387 -41.867  0.00  0.00    +0.000 A 
ATOM     22  C8  UNL     1      31.913 -10.818 -43.064  0.00  0.00    +0.000 A 
ATOM     23  C9  UNL     1      30.559 -10.580 -43.320  0.00  0.00    +0.000 A 
ENDBRANCH  17  18
ENDBRANCH  15  16
ENDBRANCH  13  15
ENDBRANCH   1  13
TORSDOF 5
ENDMDL
MODEL 8
REMARK VINA RESULT:    -5.766      5.719      7.972
REMARK INTER + INTRA:          -7.691
REMARK INTER:                  -7.194
REMARK INTRA:                  -0.497
REMARK UNBOUND:                -0.408
REMARK  Name = resultss/4CJN/ligands/lig_240_t1.pdb
REMARK  5 active torsions:
REMARK  status: ('A' for Active; 'I' for Inactive)
REMARK    1  A    between atoms: C1_2  and  C2_3
REMARK    2  A    between atoms: C1_2  and  C10_11
REMARK    3  A    between atoms: C3_4  and  C4_5
REMARK    4  A    between atoms: C10_11  and  C11_12
REMARK    5  A    between atoms: C18_21  and  O2_22
REMARK                            x       y       z     vdW  Elec       q    Type
REMARK                         _______ _______ _______ _____ _____    ______ ____
ROOT
ATOM      1  C11 UNL     1      25.731  -8.790 -36.837  0.00  0.00    +0.000 A 
ATOM      2  N1  UNL     1      26.859  -9.369 -37.331  0.00  0.00    +0.000 NA
ATOM      3  C12 UNL     1      27.017  -9.590 -38.662  0.00  0.00    +0.000 A 
ATOM      4  C13 UNL     1      28.181 -10.192 -39.152  0.00  0.00    +0.000 A 
ATOM      5  C14 UNL     1      28.326 -10.410 -40.527  0.00  0.00    +0.000 A 
ATOM      6  C15 UNL     1      27.310 -10.027 -41.412  0.00  0.00    +0.000 A 
ATOM      7  C16 UNL     1      26.145  -9.423 -40.926  0.00  0.00    +0.000 A 
ATOM      8  C17 UNL     1      25.996  -9.203 -39.553  0.00  0.00    +0.000 A 
ATOM      9  N2  UNL     1      24.874  -8.614 -39.062  0.00  0.00    +0.000 NA
ATOM     10  C18 UNL     1      24.717  -8.395 -37.729  0.00  0.00    +0.000 A 
ENDROOT
BRANCH  10  11
ATOM     11  O2  UNL     1      23.559  -7.779 -37.260  0.00  0.00    +0.000 OA
ATOM     12  H14 UNL     1      22.736  -7.703 -37.846  0.00  0.00    +0.000 HD
ENDBRANCH  10  11
BRANCH   1  13
ATOM     13  C10 UNL     1      25.616  -8.541 -35.356  0.00  0.00    +0.000 C 
BRANCH  13  15
ATOM     14  O1  UNL     1      25.760 -10.685 -34.282  0.00  0.00    +0.000 OA
ATOM     15  C1  UNL     1      26.333  -9.591 -34.540  0.00  0.00    +0.000 C 
BRANCH  15  16
ATOM     16  C2  UNL     1      27.690  -9.371 -33.995  0.00  0.00    +0.000 C 
ATOM     17  C3  UNL     1      28.802  -9.853 -34.570  0.00  0.00    +0.000 C 
BRANCH  17  18
ATOM     18  C4  UNL     1      30.166  -9.625 -34.035  0.00  0.00    +0.000 A 
ATOM     19  C5  UNL     1      30.438  -9.563 -32.652  0.00  0.00    +0.000 A 
ATOM     20  C6  UNL     1      31.744  -9.360 -32.197  0.00  0.00    +0.000 A 
ATOM     21  C7  UNL     1      32.793  -9.224 -33.109  0.00  0.00    +0.000 A 
ATOM     22  C8  UNL     1      32.539  -9.300 -34.479  0.00  0.00    +0.000 A 
ATOM     23  C9  UNL     1      31.235  -9.505 -34.941  0.00  0.00    +0.000 A 
ENDBRANCH  17  18
ENDBRANCH  15  16
ENDBRANCH  13  15
ENDBRANCH   1  13
TORSDOF 5
ENDMDL
MODEL 9
REMARK VINA RESULT:    -5.720      3.681      7.691
REMARK INTER + INTRA:          -7.633
REMARK INTER:                  -7.001
REMARK INTRA:                  -0.632
REMARK UNBOUND:                -0.408
REMARK  Name = resultss/4CJN/ligands/lig_240_t1.pdb
REMARK  5 active torsions:
REMARK  status: ('A' for Active; 'I' for Inactive)
REMARK    1  A    between atoms: C1_2  and  C2_3
REMARK    2  A    between atoms: C1_2  and  C10_11
REMARK    3  A    between atoms: C3_4  and  C4_5
REMARK    4  A    between atoms: C10_11  and  C11_12
REMARK    5  A    between atoms: C18_21  and  O2_22
REMARK                            x       y       z     vdW  Elec       q    Type
REMARK                         _______ _______ _______ _____ _____    ______ ____
ROOT
ATOM      1  C11 UNL     1      29.865 -10.156 -41.498  0.00  0.00    +0.000 A 
ATOM      2  N1  UNL     1      30.050 -11.175 -42.381  0.00  0.00    +0.000 NA
ATOM      3  C12 UNL     1      31.294 -11.546 -42.783  0.00  0.00    +0.000 A 
ATOM      4  C13 UNL     1      31.467 -12.591 -43.696  0.00  0.00    +0.000 A 
ATOM      5  C14 UNL     1      32.756 -12.959 -44.098  0.00  0.00    +0.000 A 
ATOM      6  C15 UNL     1      33.872 -12.284 -43.588  0.00  0.00    +0.000 A 
ATOM      7  C16 UNL     1      33.704 -11.238 -42.673  0.00  0.00    +0.000 A 
ATOM      8  C17 UNL     1      32.418 -10.867 -42.269  0.00  0.00    +0.000 A 
ATOM      9  N2  UNL     1      32.234  -9.858 -41.378  0.00  0.00    +0.000 NA
ATOM     10  C18 UNL     1      30.988  -9.487 -40.978  0.00  0.00    +0.000 A 
ENDROOT
BRANCH  10  11
ATOM     11  O2  UNL     1      30.836  -8.455 -40.055  0.00  0.00    +0.000 OA
ATOM     12  H14 UNL     1      31.588  -8.206 -39.424  0.00  0.00    +0.000 HD
ENDBRANCH  10  11
BRANCH   1  13
ATOM     13  C10 UNL     1      28.468  -9.803 -41.062  0.00  0.00    +0.000 C 
BRANCH  13  15
ATOM     14  O1  UNL     1      27.505 -11.869 -40.304  0.00  0.00    +0.000 OA
ATOM     15  C1  UNL     1      27.949 -10.731 -39.988  0.00  0.00    +0.000 C 
BRANCH  15  16
ATOM     16  C2  UNL     1      27.911 -10.340 -38.563  0.00  0.00    +0.000 C 
ATOM     17  C3  UNL     1      28.996 -10.324 -37.774  0.00  0.00    +0.000 C 
BRANCH  17  18
ATOM     18  C4  UNL     1      28.967  -9.921 -36.347  0.00  0.00    +0.000 A 
ATOM     19  C5  UNL     1      30.123  -9.511 -35.651  0.00  0.00    +0.000 A 
ATOM     20  C6  UNL     1      30.041  -9.127 -34.308  0.00  0.00    +0.000 A 
ATOM     21  C7  UNL     1      28.810  -9.140 -33.649  0.00  0.00    +0.000 A 
ATOM     22  C8  UNL     1      27.657  -9.527 -34.332  0.00  0.00    +0.000 A 
ATOM     23  C9  UNL     1      27.732  -9.911 -35.675  0.00  0.00    +0.000 A 
ENDBRANCH  17  18
ENDBRANCH  15  16
ENDBRANCH  13  15
ENDBRANCH   1  13
TORSDOF 5
ENDMDL
