MODEL 1
REMARK VINA RESULT:    -7.500      0.000      0.000
REMARK INTER + INTRA:          -9.983
REMARK INTER:                  -9.474
REMARK INTRA:                  -0.510
REMARK UNBOUND:                -0.510
REMARK  Name = resultss/4CJN/ligands/lig_412_t1.pdb
REMARK  5 active torsions:
REMARK  status: ('A' for Active; 'I' for Inactive)
REMARK    1  A    between atoms: C1_2  and  C9_15
REMARK    2  A    between atoms: N1_3  and  N2_4
REMARK    3  A    between atoms: C2_5  and  S1_6
REMARK    4  A    between atoms: N3_7  and  C3_8
REMARK    5  A    between atoms: C19_26  and  C20_27
REMARK                            x       y       z     vdW  Elec       q    Type
REMARK                         _______ _______ _______ _____ _____    ______ ____
ROOT
ATOM      1  C9  UNL     1      26.654  -9.518 -41.823  0.00  0.00    +0.000 A 
ATOM      2  C10 UNL     1      26.324  -9.417 -40.455  0.00  0.00    +0.000 A 
ATOM      3  C11 UNL     1      27.318  -9.733 -39.535  0.00  0.00    +0.000 A 
ATOM      4  C12 UNL     1      28.577 -10.136 -39.926  0.00  0.00    +0.000 A 
ATOM      5  N4  UNL     1      29.388 -10.323 -38.858  0.00  0.00    +0.000 N 
ATOM      6  C13 UNL     1      28.613 -10.051 -37.785  0.00  0.00    +0.000 A 
ATOM      7  C14 UNL     1      28.992 -10.088 -36.444  0.00  0.00    +0.000 A 
ATOM      8  C15 UNL     1      28.027  -9.746 -35.478  0.00  0.00    +0.000 A 
ATOM      9  C16 UNL     1      26.721  -9.372 -35.867  0.00  0.00    +0.000 A 
ATOM     10  C17 UNL     1      26.364  -9.337 -37.227  0.00  0.00    +0.000 A 
ATOM     11  C18 UNL     1      27.338  -9.687 -38.161  0.00  0.00    +0.000 A 
ATOM     12  C19 UNL     1      28.888 -10.246 -41.289  0.00  0.00    +0.000 A 
ATOM     13  N5  UNL     1      27.913  -9.922 -42.191  0.00  0.00    +0.000 NA
ATOM     14  H9  UNL     1      30.399 -10.583 -38.850  0.00  0.00    +0.000 HD
ENDROOT
BRANCH  12  15
ATOM     15  C20 UNL     1      30.211 -10.688 -41.778  0.00  0.00    +0.000 A 
ATOM     16  C21 UNL     1      30.334 -11.798 -42.631  0.00  0.00    +0.000 A 
ATOM     17  C22 UNL     1      31.589 -12.187 -43.107  0.00  0.00    +0.000 A 
ATOM     18  C23 UNL     1      32.730 -11.464 -42.747  0.00  0.00    +0.000 A 
ATOM     19  C24 UNL     1      32.615 -10.346 -41.917  0.00  0.00    +0.000 A 
ATOM     20  C25 UNL     1      31.361  -9.954 -41.440  0.00  0.00    +0.000 A 
ENDBRANCH  12  15
BRANCH   1  22
ATOM     21  O1  UNL     1      24.635  -9.896 -43.012  0.00  0.00    +0.000 OA
ATOM     22  C1  UNL     1      25.665  -9.182 -42.868  0.00  0.00    +0.000 C 
ATOM     23  N1  UNL     1      25.873  -8.053 -43.730  0.00  0.00    +0.000 N 
ATOM     24  H1  UNL     1      26.840  -7.672 -43.834  0.00  0.00    +0.000 HD
BRANCH  23  25
ATOM     25  N2  UNL     1      24.912  -7.665 -44.680  0.00  0.00    +0.000 NA
ATOM     26  C2  UNL     1      25.189  -6.963 -45.741  0.00  0.00    +0.000 C 
ATOM     27  N3  UNL     1      24.145  -6.594 -46.654  0.00  0.00    +0.000 N 
ATOM     28  H3  UNL     1      24.422  -6.356 -47.633  0.00  0.00    +0.000 HD
BRANCH  27  29
ATOM     29  C3  UNL     1      22.742  -6.609 -46.333  0.00  0.00    +0.000 A 
ATOM     30  C4  UNL     1      21.853  -7.304 -47.168  0.00  0.00    +0.000 A 
ATOM     31  C5  UNL     1      20.483  -7.315 -46.890  0.00  0.00    +0.000 A 
ATOM     32  C6  UNL     1      19.986  -6.620 -45.783  0.00  0.00    +0.000 A 
ATOM     33 CL1  UNL     1      18.267  -6.633 -45.437  0.00  0.00    +0.000 Cl
ATOM     34  C7  UNL     1      20.861  -5.906 -44.960  0.00  0.00    +0.000 A 
ATOM     35  C8  UNL     1      22.232  -5.893 -45.235  0.00  0.00    +0.000 A 
ENDBRANCH  27  29
BRANCH  26  36
ATOM     36  S1  UNL     1      26.887  -6.575 -46.185  0.00  0.00    +0.000 S 
ATOM     37  H2  UNL     1      27.362  -7.777 -45.630  0.00  0.00    +0.000 HD
ENDBRANCH  26  36
ENDBRANCH  23  25
ENDBRANCH   1  22
TORSDOF 5
ENDMDL
MODEL 2
REMARK VINA RESULT:    -7.293      2.268      2.797
REMARK INTER + INTRA:          -9.721
REMARK INTER:                  -9.377
REMARK INTRA:                  -0.344
REMARK UNBOUND:                -0.510
REMARK  Name = resultss/4CJN/ligands/lig_412_t1.pdb
REMARK  5 active torsions:
REMARK  status: ('A' for Active; 'I' for Inactive)
REMARK    1  A    between atoms: C1_2  and  C9_15
REMARK    2  A    between atoms: N1_3  and  N2_4
REMARK    3  A    between atoms: C2_5  and  S1_6
REMARK    4  A    between atoms: N3_7  and  C3_8
REMARK    5  A    between atoms: C19_26  and  C20_27
REMARK                            x       y       z     vdW  Elec       q    Type
REMARK                         _______ _______ _______ _____ _____    ______ ____
ROOT
ATOM      1  C9  UNL     1      24.975  -8.387 -40.431  0.00  0.00    +0.000 A 
ATOM      2  C10 UNL     1      24.983  -8.527 -39.027  0.00  0.00    +0.000 A 
ATOM      3  C11 UNL     1      26.135  -9.045 -38.446  0.00  0.00    +0.000 A 
ATOM      4  C12 UNL     1      27.231  -9.416 -39.196  0.00  0.00    +0.000 A 
ATOM      5  N4  UNL     1      28.251  -9.827 -38.406  0.00  0.00    +0.000 N 
ATOM      6  C13 UNL     1      27.774  -9.729 -37.146  0.00  0.00    +0.000 A 
ATOM      7  C14 UNL     1      28.451 -10.026 -35.965  0.00  0.00    +0.000 A 
ATOM      8  C15 UNL     1      27.770  -9.832 -34.748  0.00  0.00    +0.000 A 
ATOM      9  C16 UNL     1      26.444  -9.343 -34.737  0.00  0.00    +0.000 A 
ATOM     10  C17 UNL     1      25.783  -9.045 -35.942  0.00  0.00    +0.000 A 
ATOM     11  C18 UNL     1      26.480  -9.253 -37.131  0.00  0.00    +0.000 A 
ATOM     12  C19 UNL     1      27.205  -9.286 -40.591  0.00  0.00    +0.000 A 
ATOM     13  N5  UNL     1      26.076  -8.764 -41.159  0.00  0.00    +0.000 NA
ATOM     14  H9  UNL     1      29.211 -10.123 -38.690  0.00  0.00    +0.000 HD
ENDROOT
BRANCH  12  15
ATOM     15  C20 UNL     1      28.336  -9.680 -41.457  0.00  0.00    +0.000 A 
ATOM     16  C21 UNL     1      29.063 -10.857 -41.207  0.00  0.00    +0.000 A 
ATOM     17  C22 UNL     1      30.113 -11.230 -42.051  0.00  0.00    +0.000 A 
ATOM     18  C23 UNL     1      30.438 -10.440 -43.158  0.00  0.00    +0.000 A 
ATOM     19  C24 UNL     1      29.706  -9.280 -43.426  0.00  0.00    +0.000 A 
ATOM     20  C25 UNL     1      28.655  -8.904 -42.585  0.00  0.00    +0.000 A 
ENDBRANCH  12  15
BRANCH   1  22
ATOM     21  O1  UNL     1      23.289  -6.743 -40.732  0.00  0.00    +0.000 OA
ATOM     22  C1  UNL     1      23.799  -7.826 -41.129  0.00  0.00    +0.000 C 
ATOM     23  N1  UNL     1      23.224  -8.512 -42.252  0.00  0.00    +0.000 N 
ATOM     24  H1  UNL     1      23.424  -9.530 -42.374  0.00  0.00    +0.000 HD
BRANCH  23  25
ATOM     25  N2  UNL     1      22.156  -7.964 -42.982  0.00  0.00    +0.000 NA
ATOM     26  C2  UNL     1      22.310  -7.213 -44.034  0.00  0.00    +0.000 C 
ATOM     27  N3  UNL     1      21.164  -6.679 -44.713  0.00  0.00    +0.000 N 
ATOM     28  H3  UNL     1      21.284  -6.395 -45.711  0.00  0.00    +0.000 HD
BRANCH  27  29
ATOM     29  C3  UNL     1      19.849  -6.586 -44.137  0.00  0.00    +0.000 A 
ATOM     30  C4  UNL     1      18.740  -7.023 -44.879  0.00  0.00    +0.000 A 
ATOM     31  C5  UNL     1      17.450  -6.922 -44.350  0.00  0.00    +0.000 A 
ATOM     32  C6  UNL     1      17.254  -6.370 -43.081  0.00  0.00    +0.000 A 
ATOM     33 CL1  UNL     1      15.634  -6.242 -42.419  0.00  0.00    +0.000 Cl
ATOM     34  C7  UNL     1      18.349  -5.910 -42.344  0.00  0.00    +0.000 A 
ATOM     35  C8  UNL     1      19.641  -6.010 -42.870  0.00  0.00    +0.000 A 
ENDBRANCH  27  29
BRANCH  26  36
ATOM     36  S1  UNL     1      23.932  -6.955 -44.765  0.00  0.00    +0.000 S 
ATOM     37  H2  UNL     1      24.530  -7.882 -43.892  0.00  0.00    +0.000 HD
ENDBRANCH  26  36
ENDBRANCH  23  25
ENDBRANCH   1  22
TORSDOF 5
ENDMDL
MODEL 3
REMARK VINA RESULT:    -6.962      4.125      9.119
REMARK INTER + INTRA:          -9.303
REMARK INTER:                  -8.485
REMARK INTRA:                  -0.818
REMARK UNBOUND:                -0.510
REMARK  Name = resultss/4CJN/ligands/lig_412_t1.pdb
REMARK  5 active torsions:
REMARK  status: ('A' for Active; 'I' for Inactive)
REMARK    1  A    between atoms: C1_2  and  C9_15
REMARK    2  A    between atoms: N1_3  and  N2_4
REMARK    3  A    between atoms: C2_5  and  S1_6
REMARK    4  A    between atoms: N3_7  and  C3_8
REMARK    5  A    between atoms: C19_26  and  C20_27
REMARK                            x       y       z     vdW  Elec       q    Type
REMARK                         _______ _______ _______ _____ _____    ______ ____
ROOT
ATOM      1  C9  UNL     1      26.793  -8.492 -41.906  0.00  0.00    +0.000 A 
ATOM      2  C10 UNL     1      25.755  -8.256 -42.832  0.00  0.00    +0.000 A 
ATOM      3  C11 UNL     1      24.560  -7.750 -42.334  0.00  0.00    +0.000 A 
ATOM      4  C12 UNL     1      24.376  -7.491 -40.993  0.00  0.00    +0.000 A 
ATOM      5  N4  UNL     1      23.160  -6.943 -40.760  0.00  0.00    +0.000 N 
ATOM      6  C13 UNL     1      22.571  -6.880 -41.974  0.00  0.00    +0.000 A 
ATOM      7  C14 UNL     1      21.304  -6.379 -42.269  0.00  0.00    +0.000 A 
ATOM      8  C15 UNL     1      20.889  -6.388 -43.614  0.00  0.00    +0.000 A 
ATOM      9  C16 UNL     1      21.741  -6.886 -44.625  0.00  0.00    +0.000 A 
ATOM     10  C17 UNL     1      23.017  -7.383 -44.304  0.00  0.00    +0.000 A 
ATOM     11  C18 UNL     1      23.399  -7.366 -42.964  0.00  0.00    +0.000 A 
ATOM     12  C19 UNL     1      25.409  -7.744 -40.080  0.00  0.00    +0.000 A 
ATOM     13  N5  UNL     1      26.588  -8.229 -40.575  0.00  0.00    +0.000 NA
ATOM     14  H9  UNL     1      22.764  -6.606 -39.855  0.00  0.00    +0.000 HD
ENDROOT
BRANCH  12  15
ATOM     15  C20 UNL     1      25.275  -7.506 -38.628  0.00  0.00    +0.000 A 
ATOM     16  C21 UNL     1      24.947  -8.554 -37.750  0.00  0.00    +0.000 A 
ATOM     17  C22 UNL     1      24.850  -8.318 -36.375  0.00  0.00    +0.000 A 
ATOM     18  C23 UNL     1      25.093  -7.039 -35.864  0.00  0.00    +0.000 A 
ATOM     19  C24 UNL     1      25.443  -5.998 -36.727  0.00  0.00    +0.000 A 
ATOM     20  C25 UNL     1      25.541  -6.230 -38.103  0.00  0.00    +0.000 A 
ENDBRANCH  12  15
BRANCH   1  22
ATOM     21  O1  UNL     1      28.703  -8.457 -43.314  0.00  0.00    +0.000 OA
ATOM     22  C1  UNL     1      28.103  -9.010 -42.352  0.00  0.00    +0.000 C 
ATOM     23  N1  UNL     1      28.694 -10.147 -41.705  0.00  0.00    +0.000 N 
ATOM     24  H1  UNL     1      28.079 -10.788 -41.154  0.00  0.00    +0.000 HD
BRANCH  23  25
ATOM     25  N2  UNL     1      29.973 -10.613 -42.057  0.00  0.00    +0.000 NA
ATOM     26  C2  UNL     1      31.072 -10.199 -41.495  0.00  0.00    +0.000 C 
ATOM     27  N3  UNL     1      32.340 -10.714 -41.925  0.00  0.00    +0.000 N 
ATOM     28  H3  UNL     1      33.139 -10.648 -41.255  0.00  0.00    +0.000 HD
BRANCH  27  29
ATOM     29  C3  UNL     1      32.561 -11.384 -43.178  0.00  0.00    +0.000 A 
ATOM     30  C4  UNL     1      32.325 -12.766 -43.271  0.00  0.00    +0.000 A 
ATOM     31  C5  UNL     1      32.555 -13.444 -44.472  0.00  0.00    +0.000 A 
ATOM     32  C6  UNL     1      33.037 -12.752 -45.587  0.00  0.00    +0.000 A 
ATOM     33 CL1  UNL     1      33.326 -13.604 -47.093  0.00  0.00    +0.000 Cl
ATOM     34  C7  UNL     1      33.297 -11.382 -45.498  0.00  0.00    +0.000 A 
ATOM     35  C8  UNL     1      33.068 -10.700 -44.298  0.00  0.00    +0.000 A 
ENDBRANCH  27  29
BRANCH  26  36
ATOM     36  S1  UNL     1      31.033  -9.107 -40.067  0.00  0.00    +0.000 S 
ATOM     37  H2  UNL     1      32.382  -8.747 -40.240  0.00  0.00    +0.000 HD
ENDBRANCH  26  36
ENDBRANCH  23  25
ENDBRANCH   1  22
TORSDOF 5
ENDMDL
MODEL 4
REMARK VINA RESULT:    -6.767      5.714     10.852
REMARK INTER + INTRA:          -9.057
REMARK INTER:                  -8.547
REMARK INTRA:                  -0.510
REMARK UNBOUND:                -0.510
REMARK  Name = resultss/4CJN/ligands/lig_412_t1.pdb
REMARK  5 active torsions:
REMARK  status: ('A' for Active; 'I' for Inactive)
REMARK    1  A    between atoms: C1_2  and  C9_15
REMARK    2  A    between atoms: N1_3  and  N2_4
REMARK    3  A    between atoms: C2_5  and  S1_6
REMARK    4  A    between atoms: N3_7  and  C3_8
REMARK    5  A    between atoms: C19_26  and  C20_27
REMARK                            x       y       z     vdW  Elec       q    Type
REMARK                         _______ _______ _______ _____ _____    ______ ____
ROOT
ATOM      1  C9  UNL     1      29.244  -9.666 -38.253  0.00  0.00    +0.000 A 
ATOM      2  C10 UNL     1      27.927  -9.327 -38.628  0.00  0.00    +0.000 A 
ATOM      3  C11 UNL     1      27.618  -9.373 -39.983  0.00  0.00    +0.000 A 
ATOM      4  C12 UNL     1      28.550  -9.726 -40.935  0.00  0.00    +0.000 A 
ATOM      5  N4  UNL     1      28.000  -9.763 -42.172  0.00  0.00    +0.000 N 
ATOM      6  C13 UNL     1      26.710  -9.407 -41.987  0.00  0.00    +0.000 A 
ATOM      7  C14 UNL     1      25.718  -9.306 -42.960  0.00  0.00    +0.000 A 
ATOM      8  C15 UNL     1      24.424  -8.935 -42.547  0.00  0.00    +0.000 A 
ATOM      9  C16 UNL     1      24.151  -8.683 -41.184  0.00  0.00    +0.000 A 
ATOM     10  C17 UNL     1      25.167  -8.797 -40.218  0.00  0.00    +0.000 A 
ATOM     11  C18 UNL     1      26.439  -9.159 -40.658  0.00  0.00    +0.000 A 
ATOM     12  C19 UNL     1      29.860 -10.047 -40.552  0.00  0.00    +0.000 A 
ATOM     13  N5  UNL     1      30.157 -10.014 -39.217  0.00  0.00    +0.000 NA
ATOM     14  H9  UNL     1      28.449 -10.039 -43.072  0.00  0.00    +0.000 HD
ENDROOT
BRANCH  12  15
ATOM     15  C20 UNL     1      30.913 -10.417 -41.520  0.00  0.00    +0.000 A 
ATOM     16  C21 UNL     1      32.247 -10.018 -41.328  0.00  0.00    +0.000 A 
ATOM     17  C22 UNL     1      33.236 -10.399 -42.239  0.00  0.00    +0.000 A 
ATOM     18  C23 UNL     1      32.906 -11.193 -43.341  0.00  0.00    +0.000 A 
ATOM     19  C24 UNL     1      31.587 -11.614 -43.528  0.00  0.00    +0.000 A 
ATOM     20  C25 UNL     1      30.594 -11.235 -42.618  0.00  0.00    +0.000 A 
ENDBRANCH  12  15
BRANCH   1  22
ATOM     21  O1  UNL     1      28.780  -9.763 -35.928  0.00  0.00    +0.000 OA
ATOM     22  C1  UNL     1      29.652  -9.663 -36.833  0.00  0.00    +0.000 C 
ATOM     23  N1  UNL     1      31.037  -9.535 -36.474  0.00  0.00    +0.000 N 
ATOM     24  H1  UNL     1      31.702  -9.135 -37.173  0.00  0.00    +0.000 HD
BRANCH  23  25
ATOM     25  N2  UNL     1      31.461  -9.608 -35.136  0.00  0.00    +0.000 NA
ATOM     26  C2  UNL     1      31.844  -8.574 -34.444  0.00  0.00    +0.000 C 
ATOM     27  N3  UNL     1      32.279  -8.737 -33.086  0.00  0.00    +0.000 N 
ATOM     28  H3  UNL     1      32.239  -7.899 -32.463  0.00  0.00    +0.000 HD
BRANCH  27  29
ATOM     29  C3  UNL     1      32.684  -9.990 -32.508  0.00  0.00    +0.000 A 
ATOM     30  C4  UNL     1      31.761 -10.731 -31.753  0.00  0.00    +0.000 A 
ATOM     31  C5  UNL     1      32.137 -11.941 -31.162  0.00  0.00    +0.000 A 
ATOM     32  C6  UNL     1      33.445 -12.414 -31.307  0.00  0.00    +0.000 A 
ATOM     33 CL1  UNL     1      33.918 -13.931 -30.563  0.00  0.00    +0.000 Cl
ATOM     34  C7  UNL     1      34.378 -11.672 -32.036  0.00  0.00    +0.000 A 
ATOM     35  C8  UNL     1      34.004 -10.462 -32.629  0.00  0.00    +0.000 A 
ENDBRANCH  27  29
BRANCH  26  36
ATOM     36  S1  UNL     1      31.691  -6.906 -35.097  0.00  0.00    +0.000 S 
ATOM     37  H2  UNL     1      31.439  -6.373 -33.820  0.00  0.00    +0.000 HD
ENDBRANCH  26  36
ENDBRANCH  23  25
ENDBRANCH   1  22
TORSDOF 5
ENDMDL
MODEL 5
REMARK VINA RESULT:    -6.710      2.572      5.273
REMARK INTER + INTRA:          -8.984
REMARK INTER:                  -8.866
REMARK INTRA:                  -0.119
REMARK UNBOUND:                -0.510
REMARK  Name = resultss/4CJN/ligands/lig_412_t1.pdb
REMARK  5 active torsions:
REMARK  status: ('A' for Active; 'I' for Inactive)
REMARK    1  A    between atoms: C1_2  and  C9_15
REMARK    2  A    between atoms: N1_3  and  N2_4
REMARK    3  A    between atoms: C2_5  and  S1_6
REMARK    4  A    between atoms: N3_7  and  C3_8
REMARK    5  A    between atoms: C19_26  and  C20_27
REMARK                            x       y       z     vdW  Elec       q    Type
REMARK                         _______ _______ _______ _____ _____    ______ ____
ROOT
ATOM      1  C9  UNL     1      24.883  -8.211 -40.884  0.00  0.00    +0.000 A 
ATOM      2  C10 UNL     1      25.960  -8.479 -41.756  0.00  0.00    +0.000 A 
ATOM      3  C11 UNL     1      27.134  -8.961 -41.189  0.00  0.00    +0.000 A 
ATOM      4  C12 UNL     1      27.261  -9.169 -39.833  0.00  0.00    +0.000 A 
ATOM      5  N4  UNL     1      28.468  -9.703 -39.527  0.00  0.00    +0.000 N 
ATOM      6  C13 UNL     1      29.108  -9.809 -40.712  0.00  0.00    +0.000 A 
ATOM      7  C14 UNL     1      30.387 -10.316 -40.934  0.00  0.00    +0.000 A 
ATOM      8  C15 UNL     1      30.859 -10.356 -42.259  0.00  0.00    +0.000 A 
ATOM      9  C16 UNL     1      30.051  -9.899 -43.324  0.00  0.00    +0.000 A 
ATOM     10  C17 UNL     1      28.760  -9.396 -43.076  0.00  0.00    +0.000 A 
ATOM     11  C18 UNL     1      28.322  -9.363 -41.753  0.00  0.00    +0.000 A 
ATOM     12  C19 UNL     1      26.189  -8.886 -38.974  0.00  0.00    +0.000 A 
ATOM     13  N5  UNL     1      25.031  -8.425 -39.537  0.00  0.00    +0.000 NA
ATOM     14  H9  UNL     1      28.824 -10.005 -38.594  0.00  0.00    +0.000 HD
ENDROOT
BRANCH  12  15
ATOM     15  C20 UNL     1      26.261  -9.069 -37.510  0.00  0.00    +0.000 A 
ATOM     16  C21 UNL     1      27.361  -9.711 -36.914  0.00  0.00    +0.000 A 
ATOM     17  C22 UNL     1      27.427  -9.853 -35.525  0.00  0.00    +0.000 A 
ATOM     18  C23 UNL     1      26.405  -9.344 -34.718  0.00  0.00    +0.000 A 
ATOM     19  C24 UNL     1      25.320  -8.685 -35.300  0.00  0.00    +0.000 A 
ATOM     20  C25 UNL     1      25.250  -8.541 -36.690  0.00  0.00    +0.000 A 
ENDBRANCH  12  15
BRANCH   1  22
ATOM     21  O1  UNL     1      22.996  -6.773 -40.815  0.00  0.00    +0.000 OA
ATOM     22  C1  UNL     1      23.592  -7.716 -41.405  0.00  0.00    +0.000 C 
ATOM     23  N1  UNL     1      23.002  -8.309 -42.572  0.00  0.00    +0.000 N 
ATOM     24  H1  UNL     1      23.308  -9.266 -42.858  0.00  0.00    +0.000 HD
BRANCH  23  25
ATOM     25  N2  UNL     1      21.815  -7.808 -43.133  0.00  0.00    +0.000 NA
ATOM     26  C2  UNL     1      21.782  -7.031 -44.177  0.00  0.00    +0.000 C 
ATOM     27  N3  UNL     1      20.527  -6.548 -44.677  0.00  0.00    +0.000 N 
ATOM     28  H3  UNL     1      20.491  -6.241 -45.675  0.00  0.00    +0.000 HD
BRANCH  27  29
ATOM     29  C3  UNL     1      19.302  -6.539 -43.923  0.00  0.00    +0.000 A 
ATOM     30  C4  UNL     1      18.145  -7.107 -44.481  0.00  0.00    +0.000 A 
ATOM     31  C5  UNL     1      16.937  -7.090 -43.777  0.00  0.00    +0.000 A 
ATOM     32  C6  UNL     1      16.870  -6.490 -42.516  0.00  0.00    +0.000 A 
ATOM     33 CL1  UNL     1      15.353  -6.467 -41.634  0.00  0.00    +0.000 Cl
ATOM     34  C7  UNL     1      18.009  -5.901 -41.962  0.00  0.00    +0.000 A 
ATOM     35  C8  UNL     1      19.220  -5.917 -42.664  0.00  0.00    +0.000 A 
ENDBRANCH  27  29
BRANCH  26  36
ATOM     36  S1  UNL     1      23.271  -6.671 -45.118  0.00  0.00    +0.000 S 
ATOM     37  H2  UNL     1      23.496  -5.479 -44.406  0.00  0.00    +0.000 HD
ENDBRANCH  26  36
ENDBRANCH  23  25
ENDBRANCH   1  22
TORSDOF 5
ENDMDL
MODEL 6
REMARK VINA RESULT:    -6.580      5.726      8.434
REMARK INTER + INTRA:          -8.821
REMARK INTER:                  -8.226
REMARK INTRA:                  -0.595
REMARK UNBOUND:                -0.510
REMARK  Name = resultss/4CJN/ligands/lig_412_t1.pdb
REMARK  5 active torsions:
REMARK  status: ('A' for Active; 'I' for Inactive)
REMARK    1  A    between atoms: C1_2  and  C9_15
REMARK    2  A    between atoms: N1_3  and  N2_4
REMARK    3  A    between atoms: C2_5  and  S1_6
REMARK    4  A    between atoms: N3_7  and  C3_8
REMARK    5  A    between atoms: C19_26  and  C20_27
REMARK                            x       y       z     vdW  Elec       q    Type
REMARK                         _______ _______ _______ _____ _____    ______ ____
ROOT
ATOM      1  C9  UNL     1      28.389  -8.731 -37.291  0.00  0.00    +0.000 A 
ATOM      2  C10 UNL     1      27.007  -8.593 -37.041  0.00  0.00    +0.000 A 
ATOM      3  C11 UNL     1      26.606  -8.502 -35.713  0.00  0.00    +0.000 A 
ATOM      4  C12 UNL     1      27.507  -8.550 -34.671  0.00  0.00    +0.000 A 
ATOM      5  N4  UNL     1      26.890  -8.376 -33.478  0.00  0.00    +0.000 N 
ATOM      6  C13 UNL     1      25.581  -8.238 -33.783  0.00  0.00    +0.000 A 
ATOM      7  C14 UNL     1      24.529  -8.022 -32.895  0.00  0.00    +0.000 A 
ATOM      8  C15 UNL     1      23.234  -7.886 -33.430  0.00  0.00    +0.000 A 
ATOM      9  C16 UNL     1      23.021  -7.960 -34.824  0.00  0.00    +0.000 A 
ATOM     10  C17 UNL     1      24.099  -8.173 -35.702  0.00  0.00    +0.000 A 
ATOM     11  C18 UNL     1      25.369  -8.311 -35.144  0.00  0.00    +0.000 A 
ATOM     12  C19 UNL     1      28.876  -8.703 -34.931  0.00  0.00    +0.000 A 
ATOM     13  N5  UNL     1      29.269  -8.778 -36.239  0.00  0.00    +0.000 NA
ATOM     14  H9  UNL     1      27.320  -8.321 -32.529  0.00  0.00    +0.000 HD
ENDROOT
BRANCH  12  15
ATOM     15  C20 UNL     1      29.895  -8.778 -33.863  0.00  0.00    +0.000 A 
ATOM     16  C21 UNL     1      30.438 -10.013 -33.467  0.00  0.00    +0.000 A 
ATOM     17  C22 UNL     1      31.420 -10.065 -32.474  0.00  0.00    +0.000 A 
ATOM     18  C23 UNL     1      31.878  -8.887 -31.877  0.00  0.00    +0.000 A 
ATOM     19  C24 UNL     1      31.360  -7.654 -32.281  0.00  0.00    +0.000 A 
ATOM     20  C25 UNL     1      30.377  -7.597 -33.274  0.00  0.00    +0.000 A 
ENDBRANCH  12  15
BRANCH   1  22
ATOM     21  O1  UNL     1      29.408  -7.794 -39.219  0.00  0.00    +0.000 OA
ATOM     22  C1  UNL     1      28.904  -8.814 -38.674  0.00  0.00    +0.000 C 
ATOM     23  N1  UNL     1      28.823 -10.045 -39.408  0.00  0.00    +0.000 N 
ATOM     24  H1  UNL     1      28.136 -10.770 -39.099  0.00  0.00    +0.000 HD
BRANCH  23  25
ATOM     25  N2  UNL     1      29.374 -10.173 -40.695  0.00  0.00    +0.000 NA
ATOM     26  C2  UNL     1      28.707  -9.951 -41.791  0.00  0.00    +0.000 C 
ATOM     27  N3  UNL     1      29.341 -10.121 -43.067  0.00  0.00    +0.000 N 
ATOM     28  H3  UNL     1      28.927  -9.615 -43.882  0.00  0.00    +0.000 HD
BRANCH  27  29
ATOM     29  C3  UNL     1      30.549 -10.871 -43.280  0.00  0.00    +0.000 A 
ATOM     30  C4  UNL     1      30.614 -12.208 -42.857  0.00  0.00    +0.000 A 
ATOM     31  C5  UNL     1      31.784 -12.951 -43.031  0.00  0.00    +0.000 A 
ATOM     32  C6  UNL     1      32.908 -12.361 -43.618  0.00  0.00    +0.000 A 
ATOM     33 CL1  UNL     1      34.378 -13.293 -43.835  0.00  0.00    +0.000 Cl
ATOM     34  C7  UNL     1      32.862 -11.023 -44.021  0.00  0.00    +0.000 A 
ATOM     35  C8  UNL     1      31.692 -10.277 -43.848  0.00  0.00    +0.000 A 
ENDBRANCH  27  29
BRANCH  26  36
ATOM     36  S1  UNL     1      27.043  -9.272 -41.747  0.00  0.00    +0.000 S 
ATOM     37  H2  UNL     1      27.385  -8.360 -40.732  0.00  0.00    +0.000 HD
ENDBRANCH  26  36
ENDBRANCH  23  25
ENDBRANCH   1  22
TORSDOF 5
ENDMDL
MODEL 7
REMARK VINA RESULT:    -6.452      4.928      8.861
REMARK INTER + INTRA:          -8.659
REMARK INTER:                  -8.196
REMARK INTRA:                  -0.463
REMARK UNBOUND:                -0.510
REMARK  Name = resultss/4CJN/ligands/lig_412_t1.pdb
REMARK  5 active torsions:
REMARK  status: ('A' for Active; 'I' for Inactive)
REMARK    1  A    between atoms: C1_2  and  C9_15
REMARK    2  A    between atoms: N1_3  and  N2_4
REMARK    3  A    between atoms: C2_5  and  S1_6
REMARK    4  A    between atoms: N3_7  and  C3_8
REMARK    5  A    between atoms: C19_26  and  C20_27
REMARK                            x       y       z     vdW  Elec       q    Type
REMARK                         _______ _______ _______ _____ _____    ______ ____
ROOT
ATOM      1  C9  UNL     1      28.684  -9.668 -40.159  0.00  0.00    +0.000 A 
ATOM      2  C10 UNL     1      27.623  -8.975 -40.779  0.00  0.00    +0.000 A 
ATOM      3  C11 UNL     1      26.658  -8.415 -39.950  0.00  0.00    +0.000 A 
ATOM      4  C12 UNL     1      26.715  -8.528 -38.578  0.00  0.00    +0.000 A 
ATOM      5  N4  UNL     1      25.706  -7.848 -37.985  0.00  0.00    +0.000 N 
ATOM      6  C13 UNL     1      24.998  -7.320 -39.007  0.00  0.00    +0.000 A 
ATOM      7  C14 UNL     1      23.861  -6.519 -38.917  0.00  0.00    +0.000 A 
ATOM      8  C15 UNL     1      23.286  -6.054 -40.115  0.00  0.00    +0.000 A 
ATOM      9  C16 UNL     1      23.857  -6.390 -41.363  0.00  0.00    +0.000 A 
ATOM     10  C17 UNL     1      25.008  -7.196 -41.429  0.00  0.00    +0.000 A 
ATOM     11  C18 UNL     1      25.551  -7.647 -40.227  0.00  0.00    +0.000 A 
ATOM     12  C19 UNL     1      27.766  -9.233 -37.974  0.00  0.00    +0.000 A 
ATOM     13  N5  UNL     1      28.722  -9.771 -38.791  0.00  0.00    +0.000 NA
ATOM     14  H9  UNL     1      25.522  -7.720 -36.965  0.00  0.00    +0.000 HD
ENDROOT
BRANCH  12  15
ATOM     15  C20 UNL     1      27.881  -9.408 -36.511  0.00  0.00    +0.000 A 
ATOM     16  C21 UNL     1      26.739  -9.591 -35.712  0.00  0.00    +0.000 A 
ATOM     17  C22 UNL     1      26.866  -9.783 -34.333  0.00  0.00    +0.000 A 
ATOM     18  C23 UNL     1      28.132  -9.807 -33.742  0.00  0.00    +0.000 A 
ATOM     19  C24 UNL     1      29.274  -9.649 -34.532  0.00  0.00    +0.000 A 
ATOM     20  C25 UNL     1      29.151  -9.458 -35.912  0.00  0.00    +0.000 A 
ENDBRANCH  12  15
BRANCH   1  22
ATOM     21  O1  UNL     1      29.480 -11.092 -41.884  0.00  0.00    +0.000 OA
ATOM     22  C1  UNL     1      29.764 -10.277 -40.964  0.00  0.00    +0.000 C 
ATOM     23  N1  UNL     1      31.138  -9.956 -40.698  0.00  0.00    +0.000 N 
ATOM     24  H1  UNL     1      31.390  -9.560 -39.765  0.00  0.00    +0.000 HD
BRANCH  23  25
ATOM     25  N2  UNL     1      32.179 -10.460 -41.496  0.00  0.00    +0.000 NA
ATOM     26  C2  UNL     1      33.376  -9.948 -41.528  0.00  0.00    +0.000 C 
ATOM     27  N3  UNL     1      34.379 -10.514 -42.384  0.00  0.00    +0.000 N 
ATOM     28  H3  UNL     1      35.379 -10.332 -42.141  0.00  0.00    +0.000 HD
BRANCH  27  29
ATOM     29  C3  UNL     1      34.101 -11.377 -43.500  0.00  0.00    +0.000 A 
ATOM     30  C4  UNL     1      33.606 -10.824 -44.692  0.00  0.00    +0.000 A 
ATOM     31  C5  UNL     1      33.307 -11.646 -45.783  0.00  0.00    +0.000 A 
ATOM     32  C6  UNL     1      33.485 -13.029 -45.689  0.00  0.00    +0.000 A 
ATOM     33 CL1  UNL     1      33.107 -14.059 -47.057  0.00  0.00    +0.000 Cl
ATOM     34  C7  UNL     1      33.955 -13.592 -44.499  0.00  0.00    +0.000 A 
ATOM     35  C8  UNL     1      34.256 -12.773 -43.405  0.00  0.00    +0.000 A 
ENDBRANCH  27  29
BRANCH  26  36
ATOM     36  S1  UNL     1      33.860  -8.639 -40.395  0.00  0.00    +0.000 S 
ATOM     37  H2  UNL     1      32.744  -8.868 -39.570  0.00  0.00    +0.000 HD
ENDBRANCH  26  36
ENDBRANCH  23  25
ENDBRANCH   1  22
TORSDOF 5
ENDMDL
MODEL 8
REMARK VINA RESULT:    -6.403      5.384     10.155
REMARK INTER + INTRA:          -8.598
REMARK INTER:                  -7.835
REMARK INTRA:                  -0.763
REMARK UNBOUND:                -0.510
REMARK  Name = resultss/4CJN/ligands/lig_412_t1.pdb
REMARK  5 active torsions:
REMARK  status: ('A' for Active; 'I' for Inactive)
REMARK    1  A    between atoms: C1_2  and  C9_15
REMARK    2  A    between atoms: N1_3  and  N2_4
REMARK    3  A    between atoms: C2_5  and  S1_6
REMARK    4  A    between atoms: N3_7  and  C3_8
REMARK    5  A    between atoms: C19_26  and  C20_27
REMARK                            x       y       z     vdW  Elec       q    Type
REMARK                         _______ _______ _______ _____ _____    ______ ____
ROOT
ATOM      1  C9  UNL     1      29.226  -9.258 -39.492  0.00  0.00    +0.000 A 
ATOM      2  C10 UNL     1      28.388  -8.354 -40.178  0.00  0.00    +0.000 A 
ATOM      3  C11 UNL     1      28.501  -8.307 -41.563  0.00  0.00    +0.000 A 
ATOM      4  C12 UNL     1      29.394  -9.099 -42.253  0.00  0.00    +0.000 A 
ATOM      5  N4  UNL     1      29.275  -8.925 -43.591  0.00  0.00    +0.000 N 
ATOM      6  C13 UNL     1      28.306  -7.995 -43.733  0.00  0.00    +0.000 A 
ATOM      7  C14 UNL     1      27.804  -7.479 -44.926  0.00  0.00    +0.000 A 
ATOM      8  C15 UNL     1      26.772  -6.526 -44.850  0.00  0.00    +0.000 A 
ATOM      9  C16 UNL     1      26.263  -6.116 -43.596  0.00  0.00    +0.000 A 
ATOM     10  C17 UNL     1      26.782  -6.655 -42.405  0.00  0.00    +0.000 A 
ATOM     11  C18 UNL     1      27.808  -7.592 -42.512  0.00  0.00    +0.000 A 
ATOM     12  C19 UNL     1      30.233  -9.982 -41.558  0.00  0.00    +0.000 A 
ATOM     13  N5  UNL     1      30.109 -10.036 -40.197  0.00  0.00    +0.000 NA
ATOM     14  H9  UNL     1      29.786  -9.418 -44.355  0.00  0.00    +0.000 HD
ENDROOT
BRANCH  12  15
ATOM     15  C20 UNL     1      31.224 -10.846 -42.232  0.00  0.00    +0.000 A 
ATOM     16  C21 UNL     1      32.597 -10.545 -42.187  0.00  0.00    +0.000 A 
ATOM     17  C22 UNL     1      33.525 -11.387 -42.806  0.00  0.00    +0.000 A 
ATOM     18  C23 UNL     1      33.093 -12.543 -43.463  0.00  0.00    +0.000 A 
ATOM     19  C24 UNL     1      31.734 -12.862 -43.493  0.00  0.00    +0.000 A 
ATOM     20  C25 UNL     1      30.802 -12.023 -42.874  0.00  0.00    +0.000 A 
ENDBRANCH  12  15
BRANCH   1  22
ATOM     21  O1  UNL     1      28.651 -10.421 -37.504  0.00  0.00    +0.000 OA
ATOM     22  C1  UNL     1      29.157  -9.388 -38.021  0.00  0.00    +0.000 C 
ATOM     23  N1  UNL     1      29.652  -8.339 -37.175  0.00  0.00    +0.000 N 
ATOM     24  H1  UNL     1      29.761  -7.380 -37.575  0.00  0.00    +0.000 HD
BRANCH  23  25
ATOM     25  N2  UNL     1      29.669  -8.469 -35.775  0.00  0.00    +0.000 NA
ATOM     26  C2  UNL     1      28.748  -7.985 -34.994  0.00  0.00    +0.000 C 
ATOM     27  N3  UNL     1      28.850  -8.147 -33.571  0.00  0.00    +0.000 N 
ATOM     28  H3  UNL     1      27.969  -8.077 -33.014  0.00  0.00    +0.000 HD
BRANCH  27  29
ATOM     29  C3  UNL     1      30.065  -8.481 -32.878  0.00  0.00    +0.000 A 
ATOM     30  C4  UNL     1      30.888  -7.450 -32.395  0.00  0.00    +0.000 A 
ATOM     31  C5  UNL     1      32.085  -7.748 -31.738  0.00  0.00    +0.000 A 
ATOM     32  C6  UNL     1      32.479  -9.079 -31.569  0.00  0.00    +0.000 A 
ATOM     33 CL1  UNL     1      33.982  -9.452 -30.746  0.00  0.00    +0.000 Cl
ATOM     34  C7  UNL     1      31.678 -10.111 -32.066  0.00  0.00    +0.000 A 
ATOM     35  C8  UNL     1      30.480  -9.817 -32.724  0.00  0.00    +0.000 A 
ENDBRANCH  27  29
BRANCH  26  36
ATOM     36  S1  UNL     1      27.250  -7.250 -35.663  0.00  0.00    +0.000 S 
ATOM     37  H2  UNL     1      27.554  -5.994 -35.108  0.00  0.00    +0.000 HD
ENDBRANCH  26  36
ENDBRANCH  23  25
ENDBRANCH   1  22
TORSDOF 5
ENDMDL
MODEL 9
REMARK VINA RESULT:    -6.289      5.805     10.920
REMARK INTER + INTRA:          -8.454
REMARK INTER:                  -7.918
REMARK INTRA:                  -0.535
REMARK UNBOUND:                -0.510
REMARK  Name = resultss/4CJN/ligands/lig_412_t1.pdb
REMARK  5 active torsions:
REMARK  status: ('A' for Active; 'I' for Inactive)
REMARK    1  A    between atoms: C1_2  and  C9_15
REMARK    2  A    between atoms: N1_3  and  N2_4
REMARK    3  A    between atoms: C2_5  and  S1_6
REMARK    4  A    between atoms: N3_7  and  C3_8
REMARK    5  A    between atoms: C19_26  and  C20_27
REMARK                            x       y       z     vdW  Elec       q    Type
REMARK                         _______ _______ _______ _____ _____    ______ ____
ROOT
ATOM      1  C9  UNL     1      30.541  -9.531 -38.995  0.00  0.00    +0.000 A 
ATOM      2  C10 UNL     1      31.666  -9.854 -39.781  0.00  0.00    +0.000 A 
ATOM      3  C11 UNL     1      31.447 -10.121 -41.128  0.00  0.00    +0.000 A 
ATOM      4  C12 UNL     1      30.188 -10.082 -41.687  0.00  0.00    +0.000 A 
ATOM      5  N4  UNL     1      30.234 -10.311 -43.021  0.00  0.00    +0.000 N 
ATOM      6  C13 UNL     1      31.542 -10.515 -43.291  0.00  0.00    +0.000 A 
ATOM      7  C14 UNL     1      32.112 -10.780 -44.535  0.00  0.00    +0.000 A 
ATOM      8  C15 UNL     1      33.509 -10.942 -44.598  0.00  0.00    +0.000 A 
ATOM      9  C16 UNL     1      34.299 -10.829 -43.432  0.00  0.00    +0.000 A 
ATOM     10  C17 UNL     1      33.701 -10.556 -42.188  0.00  0.00    +0.000 A 
ATOM     11  C18 UNL     1      32.316 -10.407 -42.155  0.00  0.00    +0.000 A 
ATOM     12  C19 UNL     1      29.075  -9.774 -40.892  0.00  0.00    +0.000 A 
ATOM     13  N5  UNL     1      29.295  -9.499 -39.571  0.00  0.00    +0.000 NA
ATOM     14  H9  UNL     1      29.448 -10.299 -43.708  0.00  0.00    +0.000 HD
ENDROOT
BRANCH  12  15
ATOM     15  C20 UNL     1      27.696  -9.731 -41.421  0.00  0.00    +0.000 A 
ATOM     16  C21 UNL     1      26.646 -10.393 -40.761  0.00  0.00    +0.000 A 
ATOM     17  C22 UNL     1      25.342 -10.320 -41.259  0.00  0.00    +0.000 A 
ATOM     18  C23 UNL     1      25.072  -9.577 -42.412  0.00  0.00    +0.000 A 
ATOM     19  C24 UNL     1      26.105  -8.898 -43.063  0.00  0.00    +0.000 A 
ATOM     20  C25 UNL     1      27.411  -8.968 -42.566  0.00  0.00    +0.000 A 
ENDBRANCH  12  15
BRANCH   1  22
ATOM     21  O1  UNL     1      31.440  -8.269 -37.197  0.00  0.00    +0.000 OA
ATOM     22  C1  UNL     1      30.685  -9.214 -37.559  0.00  0.00    +0.000 C 
ATOM     23  N1  UNL     1      29.983  -9.981 -36.570  0.00  0.00    +0.000 N 
ATOM     24  H1  UNL     1      29.635 -10.932 -36.826  0.00  0.00    +0.000 HD
BRANCH  23  25
ATOM     25  N2  UNL     1      30.041  -9.652 -35.204  0.00  0.00    +0.000 NA
ATOM     26  C2  UNL     1      28.990  -9.426 -34.470  0.00  0.00    +0.000 C 
ATOM     27  N3  UNL     1      29.138  -9.080 -33.086  0.00  0.00    +0.000 N 
ATOM     28  H3  UNL     1      28.322  -9.250 -32.456  0.00  0.00    +0.000 HD
BRANCH  27  29
ATOM     29  C3  UNL     1      30.357  -8.596 -32.496  0.00  0.00    +0.000 A 
ATOM     30  C4  UNL     1      30.537  -7.213 -32.323  0.00  0.00    +0.000 A 
ATOM     31  C5  UNL     1      31.722  -6.717 -31.774  0.00  0.00    +0.000 A 
ATOM     32  C6  UNL     1      32.746  -7.595 -31.404  0.00  0.00    +0.000 A 
ATOM     33 CL1  UNL     1      34.234  -6.970 -30.716  0.00  0.00    +0.000 Cl
ATOM     34  C7  UNL     1      32.586  -8.970 -31.594  0.00  0.00    +0.000 A 
ATOM     35  C8  UNL     1      31.401  -9.471 -32.143  0.00  0.00    +0.000 A 
ENDBRANCH  27  29
BRANCH  26  36
ATOM     36  S1  UNL     1      27.332  -9.696 -35.110  0.00  0.00    +0.000 S 
ATOM     37  H2  UNL     1      27.774 -10.716 -35.972  0.00  0.00    +0.000 HD
ENDBRANCH  26  36
ENDBRANCH  23  25
ENDBRANCH   1  22
TORSDOF 5
ENDMDL
