MODEL 1
REMARK VINA RESULT:    -5.566      0.000      0.000
REMARK INTER + INTRA:          -7.649
REMARK INTER:                  -7.193
REMARK INTRA:                  -0.455
REMARK UNBOUND:                -0.455
REMARK  Name = resultss/4CJN/ligands/lig_377_t2.pdb
REMARK  7 active torsions:
REMARK  status: ('A' for Active; 'I' for Inactive)
REMARK    1  A    between atoms: C1_1  and  O1_2
REMARK    2  A    between atoms: O1_2  and  C2_3
REMARK    3  A    between atoms: C5_6  and  C6_7
REMARK    4  A    between atoms: N1_11  and  C9_12
REMARK    5  A    between atoms: C12_15  and  S2_16
REMARK    6  A    between atoms: S2_16  and  N2_17
REMARK    7  A    between atoms: C15_23  and  O4_24
REMARK                            x       y       z     vdW  Elec       q    Type
REMARK                         _______ _______ _______ _____ _____    ______ ____
ROOT
ATOM      1  C6  UNL     1      27.957  -8.269 -42.549  0.00  0.00    +0.000 C 
ATOM      2  C7  UNL     1      26.939  -8.027 -43.388  0.00  0.00    +0.000 C 
ATOM      3  S1  UNL     1      27.188  -7.105 -44.904  0.00  0.00    +0.000 S 
ATOM      4  C8  UNL     1      25.419  -7.236 -45.120  0.00  0.00    +0.000 C 
ATOM      5  N1  UNL     1      24.826  -6.728 -46.159  0.00  0.00    +0.000 NA
ATOM      6  N3  UNL     1      24.743  -8.035 -44.153  0.00  0.00    +0.000 NA
ATOM      7  C15 UNL     1      25.543  -8.461 -43.237  0.00  0.00    +0.000 C 
ENDROOT
BRANCH   1  11
ATOM      8  C2  UNL     1      27.709 -10.162 -38.707  0.00  0.00    +0.000 A 
ATOM      9  C3  UNL     1      28.007 -10.915 -39.860  0.00  0.00    +0.000 A 
ATOM     10  C4  UNL     1      28.076 -10.292 -41.110  0.00  0.00    +0.000 A 
ATOM     11  C5  UNL     1      27.827  -8.918 -41.232  0.00  0.00    +0.000 A 
ATOM     12  C16 UNL     1      27.560  -8.162 -40.079  0.00  0.00    +0.000 A 
ATOM     13  C17 UNL     1      27.491  -8.785 -38.829  0.00  0.00    +0.000 A 
BRANCH   8  15
ATOM     14  C1  UNL     1      27.704 -10.013 -36.211  0.00  0.00    +0.000 C 
ATOM     15  O1  UNL     1      27.626 -10.741 -37.432  0.00  0.00    +0.000 OA
ENDBRANCH   8  15
ENDBRANCH   1  11
BRANCH   5  16
ATOM     16  C9  UNL     1      23.416  -6.763 -46.437  0.00  0.00    +0.000 A 
ATOM     17  C10 UNL     1      22.853  -7.695 -47.329  0.00  0.00    +0.000 A 
ATOM     18  C11 UNL     1      21.471  -7.718 -47.545  0.00  0.00    +0.000 A 
ATOM     19  C12 UNL     1      20.635  -6.822 -46.866  0.00  0.00    +0.000 A 
ATOM     20  C13 UNL     1      21.190  -5.919 -45.949  0.00  0.00    +0.000 A 
ATOM     21  C14 UNL     1      22.571  -5.897 -45.731  0.00  0.00    +0.000 A 
BRANCH  19  22
ATOM     22  S2  UNL     1      18.895  -6.860 -47.126  0.00  0.00    +0.000 S 
ATOM     23  O2  UNL     1      18.218  -5.920 -46.169  0.00  0.00    +0.000 OA
ATOM     24  O3  UNL     1      18.581  -6.429 -48.531  0.00  0.00    +0.000 OA
BRANCH  22  25
ATOM     25  N2  UNL     1      18.313  -8.468 -46.874  0.00  0.00    +0.000 NA
ATOM     26  H9  UNL     1      19.144  -9.064 -46.662  0.00  0.00    +0.000 HD
ATOM     27  H10 UNL     1      17.929  -8.800 -47.787  0.00  0.00    +0.000 HD
ENDBRANCH  22  25
ENDBRANCH  19  22
ENDBRANCH   5  16
BRANCH   7  28
ATOM     28  O4  UNL     1      25.092  -9.300 -42.222  0.00  0.00    +0.000 OA
ATOM     29  H13 UNL     1      25.496  -9.259 -41.294  0.00  0.00    +0.000 HD
ENDBRANCH   7  28
TORSDOF 6
ENDMDL
MODEL 2
REMARK VINA RESULT:    -5.244      5.182     10.784
REMARK INTER + INTRA:          -7.232
REMARK INTER:                  -6.741
REMARK INTRA:                  -0.492
REMARK UNBOUND:                -0.455
REMARK  Name = resultss/4CJN/ligands/lig_377_t2.pdb
REMARK  7 active torsions:
REMARK  status: ('A' for Active; 'I' for Inactive)
REMARK    1  A    between atoms: C1_1  and  O1_2
REMARK    2  A    between atoms: O1_2  and  C2_3
REMARK    3  A    between atoms: C5_6  and  C6_7
REMARK    4  A    between atoms: N1_11  and  C9_12
REMARK    5  A    between atoms: C12_15  and  S2_16
REMARK    6  A    between atoms: S2_16  and  N2_17
REMARK    7  A    between atoms: C15_23  and  O4_24
REMARK                            x       y       z     vdW  Elec       q    Type
REMARK                         _______ _______ _______ _____ _____    ______ ____
ROOT
ATOM      1  C6  UNL     1      27.131  -9.919 -42.143  0.00  0.00    +0.000 C 
ATOM      2  C7  UNL     1      27.295  -9.766 -40.821  0.00  0.00    +0.000 C 
ATOM      3  S1  UNL     1      27.626 -11.173 -39.761  0.00  0.00    +0.000 S 
ATOM      4  C8  UNL     1      27.528 -10.008 -38.408  0.00  0.00    +0.000 C 
ATOM      5  N1  UNL     1      27.703 -10.387 -37.177  0.00  0.00    +0.000 NA
ATOM      6  N3  UNL     1      27.376  -8.644 -38.786  0.00  0.00    +0.000 NA
ATOM      7  C15 UNL     1      27.259  -8.508 -40.062  0.00  0.00    +0.000 C 
ENDROOT
BRANCH   1  11
ATOM      8  C2  UNL     1      26.034  -6.868 -44.952  0.00  0.00    +0.000 A 
ATOM      9  C3  UNL     1      27.389  -7.177 -44.721  0.00  0.00    +0.000 A 
ATOM     10  C4  UNL     1      27.738  -8.167 -43.796  0.00  0.00    +0.000 A 
ATOM     11  C5  UNL     1      26.746  -8.843 -43.074  0.00  0.00    +0.000 A 
ATOM     12  C16 UNL     1      25.395  -8.556 -43.327  0.00  0.00    +0.000 A 
ATOM     13  C17 UNL     1      25.046  -7.567 -44.251  0.00  0.00    +0.000 A 
BRANCH   8  15
ATOM     14  C1  UNL     1      25.918  -5.917 -47.262  0.00  0.00    +0.000 C 
ATOM     15  O1  UNL     1      25.634  -5.883 -45.868  0.00  0.00    +0.000 OA
ENDBRANCH   8  15
ENDBRANCH   1  11
BRANCH   5  16
ATOM     16  C9  UNL     1      27.641  -9.550 -36.010  0.00  0.00    +0.000 A 
ATOM     17  C10 UNL     1      26.447  -9.364 -35.287  0.00  0.00    +0.000 A 
ATOM     18  C11 UNL     1      26.436  -8.569 -34.137  0.00  0.00    +0.000 A 
ATOM     19  C12 UNL     1      27.616  -7.962 -33.687  0.00  0.00    +0.000 A 
ATOM     20  C13 UNL     1      28.813  -8.177 -34.384  0.00  0.00    +0.000 A 
ATOM     21  C14 UNL     1      28.824  -8.974 -35.532  0.00  0.00    +0.000 A 
BRANCH  19  22
ATOM     22  S2  UNL     1      27.606  -6.973 -32.231  0.00  0.00    +0.000 S 
ATOM     23  O2  UNL     1      27.760  -7.851 -31.021  0.00  0.00    +0.000 OA
ATOM     24  O3  UNL     1      28.750  -5.998 -32.270  0.00  0.00    +0.000 OA
BRANCH  22  25
ATOM     25  N2  UNL     1      26.113  -6.106 -32.136  0.00  0.00    +0.000 NA
ATOM     26  H9  UNL     1      25.354  -6.777 -32.392  0.00  0.00    +0.000 HD
ATOM     27  H10 UNL     1      26.136  -5.377 -32.884  0.00  0.00    +0.000 HD
ENDBRANCH  22  25
ENDBRANCH  19  22
ENDBRANCH   5  16
BRANCH   7  28
ATOM     28  O4  UNL     1      27.149  -7.249 -40.644  0.00  0.00    +0.000 OA
ATOM     29  H13 UNL     1      26.600  -7.109 -41.484  0.00  0.00    +0.000 HD
ENDBRANCH   7  28
TORSDOF 6
ENDMDL
MODEL 3
REMARK VINA RESULT:    -5.221      5.063     10.987
REMARK INTER + INTRA:          -7.203
REMARK INTER:                  -6.759
REMARK INTRA:                  -0.444
REMARK UNBOUND:                -0.455
REMARK  Name = resultss/4CJN/ligands/lig_377_t2.pdb
REMARK  7 active torsions:
REMARK  status: ('A' for Active; 'I' for Inactive)
REMARK    1  A    between atoms: C1_1  and  O1_2
REMARK    2  A    between atoms: O1_2  and  C2_3
REMARK    3  A    between atoms: C5_6  and  C6_7
REMARK    4  A    between atoms: N1_11  and  C9_12
REMARK    5  A    between atoms: C12_15  and  S2_16
REMARK    6  A    between atoms: S2_16  and  N2_17
REMARK    7  A    between atoms: C15_23  and  O4_24
REMARK                            x       y       z     vdW  Elec       q    Type
REMARK                         _______ _______ _______ _____ _____    ______ ____
ROOT
ATOM      1  C6  UNL     1      25.886 -10.001 -41.922  0.00  0.00    +0.000 C 
ATOM      2  C7  UNL     1      26.384  -9.838 -40.688  0.00  0.00    +0.000 C 
ATOM      3  S1  UNL     1      27.337 -11.133 -39.895  0.00  0.00    +0.000 S 
ATOM      4  C8  UNL     1      27.357 -10.061 -38.464  0.00  0.00    +0.000 C 
ATOM      5  N1  UNL     1      27.967 -10.408 -37.370  0.00  0.00    +0.000 NA
ATOM      6  N3  UNL     1      26.778  -8.774 -38.657  0.00  0.00    +0.000 NA
ATOM      7  C15 UNL     1      26.267  -8.648 -39.833  0.00  0.00    +0.000 C 
ENDROOT
BRANCH   1  11
ATOM      8  C2  UNL     1      23.307  -7.288 -44.017  0.00  0.00    +0.000 A 
ATOM      9  C3  UNL     1      24.681  -7.352 -44.323  0.00  0.00    +0.000 A 
ATOM     10  C4  UNL     1      25.517  -8.232 -43.628  0.00  0.00    +0.000 A 
ATOM     11  C5  UNL     1      25.001  -9.041 -42.606  0.00  0.00    +0.000 A 
ATOM     12  C16 UNL     1      23.626  -8.999 -42.323  0.00  0.00    +0.000 A 
ATOM     13  C17 UNL     1      22.791  -8.119 -43.017  0.00  0.00    +0.000 A 
BRANCH   8  15
ATOM     14  C1  UNL     1      21.779  -6.721 -45.914  0.00  0.00    +0.000 C 
ATOM     15  O1  UNL     1      22.429  -6.420 -44.684  0.00  0.00    +0.000 OA
ENDBRANCH   8  15
ENDBRANCH   1  11
BRANCH   5  16
ATOM     16  C9  UNL     1      28.045  -9.639 -36.158  0.00  0.00    +0.000 A 
ATOM     17  C10 UNL     1      26.975  -9.572 -35.246  0.00  0.00    +0.000 A 
ATOM     18  C11 UNL     1      27.104  -8.842 -34.061  0.00  0.00    +0.000 A 
ATOM     19  C12 UNL     1      28.303  -8.180 -33.766  0.00  0.00    +0.000 A 
ATOM     20  C13 UNL     1      29.382  -8.278 -34.654  0.00  0.00    +0.000 A 
ATOM     21  C14 UNL     1      29.255  -9.010 -35.838  0.00  0.00    +0.000 A 
BRANCH  19  22
ATOM     22  S2  UNL     1      28.471  -7.273 -32.267  0.00  0.00    +0.000 S 
ATOM     23  O2  UNL     1      29.923  -7.177 -31.892  0.00  0.00    +0.000 OA
ATOM     24  O3  UNL     1      27.926  -5.884 -32.449  0.00  0.00    +0.000 OA
BRANCH  22  25
ATOM     25  N2  UNL     1      27.597  -8.075 -31.010  0.00  0.00    +0.000 NA
ATOM     26  H9  UNL     1      26.596  -8.112 -31.309  0.00  0.00    +0.000 HD
ATOM     27  H10 UNL     1      27.636  -7.456 -30.168  0.00  0.00    +0.000 HD
ENDBRANCH  22  25
ENDBRANCH  19  22
ENDBRANCH   5  16
BRANCH   7  28
ATOM     28  O4  UNL     1      25.693  -7.447 -40.242  0.00  0.00    +0.000 OA
ATOM     29  H13 UNL     1      24.689  -7.356 -40.338  0.00  0.00    +0.000 HD
ENDBRANCH   7  28
TORSDOF 6
ENDMDL
MODEL 4
REMARK VINA RESULT:    -5.110      6.893      9.269
REMARK INTER + INTRA:          -7.059
REMARK INTER:                  -6.654
REMARK INTRA:                  -0.406
REMARK UNBOUND:                -0.455
REMARK  Name = resultss/4CJN/ligands/lig_377_t2.pdb
REMARK  7 active torsions:
REMARK  status: ('A' for Active; 'I' for Inactive)
REMARK    1  A    between atoms: C1_1  and  O1_2
REMARK    2  A    between atoms: O1_2  and  C2_3
REMARK    3  A    between atoms: C5_6  and  C6_7
REMARK    4  A    between atoms: N1_11  and  C9_12
REMARK    5  A    between atoms: C12_15  and  S2_16
REMARK    6  A    between atoms: S2_16  and  N2_17
REMARK    7  A    between atoms: C15_23  and  O4_24
REMARK                            x       y       z     vdW  Elec       q    Type
REMARK                         _______ _______ _______ _____ _____    ______ ____
ROOT
ATOM      1  C6  UNL     1      29.287  -9.352 -42.702  0.00  0.00    +0.000 C 
ATOM      2  C7  UNL     1      28.539  -9.051 -41.630  0.00  0.00    +0.000 C 
ATOM      3  S1  UNL     1      27.235  -7.825 -41.726  0.00  0.00    +0.000 S 
ATOM      4  C8  UNL     1      27.039  -8.087 -39.968  0.00  0.00    +0.000 C 
ATOM      5  N1  UNL     1      26.138  -7.445 -39.286  0.00  0.00    +0.000 NA
ATOM      6  N3  UNL     1      27.839  -9.126 -39.413  0.00  0.00    +0.000 NA
ATOM      7  C15 UNL     1      28.631  -9.644 -40.288  0.00  0.00    +0.000 C 
ENDROOT
BRANCH   1  11
ATOM      8  C2  UNL     1      32.680 -11.975 -42.797  0.00  0.00    +0.000 A 
ATOM      9  C3  UNL     1      31.420 -12.415 -43.248  0.00  0.00    +0.000 A 
ATOM     10  C4  UNL     1      30.317 -11.556 -43.204  0.00  0.00    +0.000 A 
ATOM     11  C5  UNL     1      30.448 -10.259 -42.690  0.00  0.00    +0.000 A 
ATOM     12  C16 UNL     1      31.711  -9.811 -42.269  0.00  0.00    +0.000 A 
ATOM     13  C17 UNL     1      32.814 -10.669 -42.312  0.00  0.00    +0.000 A 
BRANCH   8  15
ATOM     14  C1  UNL     1      34.380 -13.361 -43.998  0.00  0.00    +0.000 C 
ATOM     15  O1  UNL     1      33.816 -12.799 -42.818  0.00  0.00    +0.000 OA
ENDBRANCH   8  15
ENDBRANCH   1  11
BRANCH   5  16
ATOM     16  C9  UNL     1      25.892  -7.565 -37.875  0.00  0.00    +0.000 A 
ATOM     17  C10 UNL     1      26.794  -7.067 -36.915  0.00  0.00    +0.000 A 
ATOM     18  C11 UNL     1      26.500  -7.172 -35.552  0.00  0.00    +0.000 A 
ATOM     19  C12 UNL     1      25.301  -7.762 -35.131  0.00  0.00    +0.000 A 
ATOM     20  C13 UNL     1      24.386  -8.223 -36.086  0.00  0.00    +0.000 A 
ATOM     21  C14 UNL     1      24.677  -8.116 -37.449  0.00  0.00    +0.000 A 
BRANCH  19  22
ATOM     22  S2  UNL     1      24.925  -7.881 -33.416  0.00  0.00    +0.000 S 
ATOM     23  O2  UNL     1      24.051  -6.730 -33.007  0.00  0.00    +0.000 OA
ATOM     24  O3  UNL     1      24.192  -9.165 -33.143  0.00  0.00    +0.000 OA
BRANCH  22  25
ATOM     25  N2  UNL     1      26.392  -7.851 -32.502  0.00  0.00    +0.000 NA
ATOM     26  H9  UNL     1      27.171  -8.053 -33.170  0.00  0.00    +0.000 HD
ATOM     27  H10 UNL     1      26.353  -8.654 -31.835  0.00  0.00    +0.000 HD
ENDBRANCH  22  25
ENDBRANCH  19  22
ENDBRANCH   5  16
BRANCH   7  28
ATOM     28  O4  UNL     1      29.466 -10.710 -39.962  0.00  0.00    +0.000 OA
ATOM     29  H13 UNL     1      30.407 -10.550 -39.623  0.00  0.00    +0.000 HD
ENDBRANCH   7  28
TORSDOF 6
ENDMDL
MODEL 5
REMARK VINA RESULT:    -4.968      8.008      9.741
REMARK INTER + INTRA:          -6.876
REMARK INTER:                  -6.417
REMARK INTRA:                  -0.459
REMARK UNBOUND:                -0.455
REMARK  Name = resultss/4CJN/ligands/lig_377_t2.pdb
REMARK  7 active torsions:
REMARK  status: ('A' for Active; 'I' for Inactive)
REMARK    1  A    between atoms: C1_1  and  O1_2
REMARK    2  A    between atoms: O1_2  and  C2_3
REMARK    3  A    between atoms: C5_6  and  C6_7
REMARK    4  A    between atoms: N1_11  and  C9_12
REMARK    5  A    between atoms: C12_15  and  S2_16
REMARK    6  A    between atoms: S2_16  and  N2_17
REMARK    7  A    between atoms: C15_23  and  O4_24
REMARK                            x       y       z     vdW  Elec       q    Type
REMARK                         _______ _______ _______ _____ _____    ______ ____
ROOT
ATOM      1  C6  UNL     1      28.047  -8.891 -36.928  0.00  0.00    +0.000 C 
ATOM      2  C7  UNL     1      28.522  -9.260 -38.127  0.00  0.00    +0.000 C 
ATOM      3  S1  UNL     1      27.420  -9.551 -39.510  0.00  0.00    +0.000 S 
ATOM      4  C8  UNL     1      28.885 -10.056 -40.401  0.00  0.00    +0.000 C 
ATOM      5  N1  UNL     1      28.822 -10.440 -41.642  0.00  0.00    +0.000 NA
ATOM      6  N3  UNL     1      30.114  -9.885 -39.703  0.00  0.00    +0.000 NA
ATOM      7  C15 UNL     1      29.930  -9.458 -38.501  0.00  0.00    +0.000 C 
ENDROOT
BRANCH   1  11
ATOM      8  C2  UNL     1      30.317  -8.392 -33.323  0.00  0.00    +0.000 A 
ATOM      9  C3  UNL     1      30.111  -7.307 -34.196  0.00  0.00    +0.000 A 
ATOM     10  C4  UNL     1      29.378  -7.480 -35.375  0.00  0.00    +0.000 A 
ATOM     11  C5  UNL     1      28.862  -8.740 -35.709  0.00  0.00    +0.000 A 
ATOM     12  C16 UNL     1      29.041  -9.814 -34.823  0.00  0.00    +0.000 A 
ATOM     13  C17 UNL     1      29.774  -9.641 -33.645  0.00  0.00    +0.000 A 
BRANCH   8  15
ATOM     14  C1  UNL     1      32.317  -7.636 -32.027  0.00  0.00    +0.000 C 
ATOM     15  O1  UNL     1      31.047  -8.269 -32.131  0.00  0.00    +0.000 OA
ENDBRANCH   8  15
ENDBRANCH   1  11
BRANCH   5  16
ATOM     16  C9  UNL     1      29.924 -10.874 -42.456  0.00  0.00    +0.000 A 
ATOM     17  C10 UNL     1      30.638  -9.986 -43.283  0.00  0.00    +0.000 A 
ATOM     18  C11 UNL     1      31.726 -10.442 -44.033  0.00  0.00    +0.000 A 
ATOM     19  C12 UNL     1      32.123 -11.784 -43.958  0.00  0.00    +0.000 A 
ATOM     20  C13 UNL     1      31.438 -12.660 -43.106  0.00  0.00    +0.000 A 
ATOM     21  C14 UNL     1      30.351 -12.204 -42.354  0.00  0.00    +0.000 A 
BRANCH  19  22
ATOM     22  S2  UNL     1      33.502 -12.355 -44.890  0.00  0.00    +0.000 S 
ATOM     23  O2  UNL     1      34.379 -11.193 -45.263  0.00  0.00    +0.000 OA
ATOM     24  O3  UNL     1      34.306 -13.324 -44.068  0.00  0.00    +0.000 OA
BRANCH  22  25
ATOM     25  N2  UNL     1      32.940 -13.143 -46.322  0.00  0.00    +0.000 NA
ATOM     26  H9  UNL     1      33.421 -14.069 -46.370  0.00  0.00    +0.000 HD
ATOM     27  H10 UNL     1      33.284 -12.583 -47.134  0.00  0.00    +0.000 HD
ENDBRANCH  22  25
ENDBRANCH  19  22
ENDBRANCH   5  16
BRANCH   7  28
ATOM     28  O4  UNL     1      31.006  -9.178 -37.663  0.00  0.00    +0.000 OA
ATOM     29  H13 UNL     1      31.762  -8.578 -37.970  0.00  0.00    +0.000 HD
ENDBRANCH   7  28
TORSDOF 6
ENDMDL
MODEL 6
REMARK VINA RESULT:    -4.961      4.812     10.971
REMARK INTER + INTRA:          -6.867
REMARK INTER:                  -6.737
REMARK INTRA:                  -0.130
REMARK UNBOUND:                -0.455
REMARK  Name = resultss/4CJN/ligands/lig_377_t2.pdb
REMARK  7 active torsions:
REMARK  status: ('A' for Active; 'I' for Inactive)
REMARK    1  A    between atoms: C1_1  and  O1_2
REMARK    2  A    between atoms: O1_2  and  C2_3
REMARK    3  A    between atoms: C5_6  and  C6_7
REMARK    4  A    between atoms: N1_11  and  C9_12
REMARK    5  A    between atoms: C12_15  and  S2_16
REMARK    6  A    between atoms: S2_16  and  N2_17
REMARK    7  A    between atoms: C15_23  and  O4_24
REMARK                            x       y       z     vdW  Elec       q    Type
REMARK                         _______ _______ _______ _____ _____    ______ ____
ROOT
ATOM      1  C6  UNL     1      26.785  -9.405 -42.757  0.00  0.00    +0.000 C 
ATOM      2  C7  UNL     1      27.405  -9.420 -41.569  0.00  0.00    +0.000 C 
ATOM      3  S1  UNL     1      28.897 -10.379 -41.315  0.00  0.00    +0.000 S 
ATOM      4  C8  UNL     1      28.782  -9.863 -39.607  0.00  0.00    +0.000 C 
ATOM      5  N1  UNL     1      29.668 -10.231 -38.730  0.00  0.00    +0.000 NA
ATOM      6  N3  UNL     1      27.743  -8.933 -39.319  0.00  0.00    +0.000 NA
ATOM      7  C15 UNL     1      27.015  -8.689 -40.354  0.00  0.00    +0.000 C 
ENDROOT
BRANCH   1  11
ATOM      8  C2  UNL     1      23.040  -7.518 -43.663  0.00  0.00    +0.000 A 
ATOM      9  C3  UNL     1      24.250  -6.978 -44.142  0.00  0.00    +0.000 A 
ATOM     10  C4  UNL     1      25.467  -7.594 -43.834  0.00  0.00    +0.000 A 
ATOM     11  C5  UNL     1      25.497  -8.739 -43.027  0.00  0.00    +0.000 A 
ATOM     12  C16 UNL     1      24.289  -9.295 -42.575  0.00  0.00    +0.000 A 
ATOM     13  C17 UNL     1      23.072  -8.679 -42.883  0.00  0.00    +0.000 A 
BRANCH   8  15
ATOM     14  C1  UNL     1      20.654  -7.029 -43.095  0.00  0.00    +0.000 C 
ATOM     15  O1  UNL     1      21.794  -6.936 -43.943  0.00  0.00    +0.000 OA
ENDBRANCH   8  15
ENDBRANCH   1  11
BRANCH   5  16
ATOM     16  C9  UNL     1      29.677  -9.889 -37.334  0.00  0.00    +0.000 A 
ATOM     17  C10 UNL     1      28.556 -10.096 -36.506  0.00  0.00    +0.000 A 
ATOM     18  C11 UNL     1      28.618  -9.783 -35.145  0.00  0.00    +0.000 A 
ATOM     19  C12 UNL     1      29.799  -9.272 -34.591  0.00  0.00    +0.000 A 
ATOM     20  C13 UNL     1      30.926  -9.101 -35.405  0.00  0.00    +0.000 A 
ATOM     21  C14 UNL     1      30.866  -9.417 -36.765  0.00  0.00    +0.000 A 
BRANCH  19  22
ATOM     22  S2  UNL     1      29.881  -8.891 -32.875  0.00  0.00    +0.000 S 
ATOM     23  O2  UNL     1      30.228 -10.128 -32.096  0.00  0.00    +0.000 OA
ATOM     24  O3  UNL     1      30.943  -7.855 -32.634  0.00  0.00    +0.000 OA
BRANCH  22  25
ATOM     25  N2  UNL     1      28.352  -8.281 -32.348  0.00  0.00    +0.000 NA
ATOM     26  H9  UNL     1      27.874  -9.056 -31.834  0.00  0.00    +0.000 HD
ATOM     27  H10 UNL     1      27.786  -8.095 -33.206  0.00  0.00    +0.000 HD
ENDBRANCH  22  25
ENDBRANCH  19  22
ENDBRANCH   5  16
BRANCH   7  28
ATOM     28  O4  UNL     1      25.972  -7.769 -40.299  0.00  0.00    +0.000 OA
ATOM     29  H13 UNL     1      25.447  -7.626 -39.445  0.00  0.00    +0.000 HD
ENDBRANCH   7  28
TORSDOF 6
ENDMDL
MODEL 7
REMARK VINA RESULT:    -4.927      3.465      5.379
REMARK INTER + INTRA:          -6.823
REMARK INTER:                  -6.868
REMARK INTRA:                   0.046
REMARK UNBOUND:                -0.455
REMARK  Name = resultss/4CJN/ligands/lig_377_t2.pdb
REMARK  7 active torsions:
REMARK  status: ('A' for Active; 'I' for Inactive)
REMARK    1  A    between atoms: C1_1  and  O1_2
REMARK    2  A    between atoms: O1_2  and  C2_3
REMARK    3  A    between atoms: C5_6  and  C6_7
REMARK    4  A    between atoms: N1_11  and  C9_12
REMARK    5  A    between atoms: C12_15  and  S2_16
REMARK    6  A    between atoms: S2_16  and  N2_17
REMARK    7  A    between atoms: C15_23  and  O4_24
REMARK                            x       y       z     vdW  Elec       q    Type
REMARK                         _______ _______ _______ _____ _____    ______ ____
ROOT
ATOM      1  C6  UNL     1      27.409  -9.527 -37.043  0.00  0.00    +0.000 C 
ATOM      2  C7  UNL     1      27.148  -9.367 -38.348  0.00  0.00    +0.000 C 
ATOM      3  S1  UNL     1      28.278  -9.974 -39.600  0.00  0.00    +0.000 S 
ATOM      4  C8  UNL     1      27.180  -9.200 -40.780  0.00  0.00    +0.000 C 
ATOM      5  N1  UNL     1      27.411  -9.261 -42.057  0.00  0.00    +0.000 NA
ATOM      6  N3  UNL     1      25.992  -8.640 -40.231  0.00  0.00    +0.000 NA
ATOM      7  C15 UNL     1      25.966  -8.729 -38.946  0.00  0.00    +0.000 C 
ENDROOT
BRANCH   1  11
ATOM      8  C2  UNL     1      25.144  -7.930 -33.769  0.00  0.00    +0.000 A 
ATOM      9  C3  UNL     1      25.163  -9.316 -34.019  0.00  0.00    +0.000 A 
ATOM     10  C4  UNL     1      25.896  -9.827 -35.095  0.00  0.00    +0.000 A 
ATOM     11  C5  UNL     1      26.599  -8.965 -35.947  0.00  0.00    +0.000 A 
ATOM     12  C16 UNL     1      26.605  -7.587 -35.679  0.00  0.00    +0.000 A 
ATOM     13  C17 UNL     1      25.872  -7.075 -34.604  0.00  0.00    +0.000 A 
BRANCH   8  15
ATOM     14  C1  UNL     1      23.379  -6.412 -32.856  0.00  0.00    +0.000 C 
ATOM     15  O1  UNL     1      24.423  -7.368 -32.704  0.00  0.00    +0.000 OA
ENDBRANCH   8  15
ENDBRANCH   1  11
BRANCH   5  16
ATOM     16  C9  UNL     1      26.610  -8.674 -43.097  0.00  0.00    +0.000 A 
ATOM     17  C10 UNL     1      27.169  -7.864 -44.104  0.00  0.00    +0.000 A 
ATOM     18  C11 UNL     1      26.360  -7.341 -45.117  0.00  0.00    +0.000 A 
ATOM     19  C12 UNL     1      24.989  -7.630 -45.146  0.00  0.00    +0.000 A 
ATOM     20  C13 UNL     1      24.439  -8.467 -44.167  0.00  0.00    +0.000 A 
ATOM     21  C14 UNL     1      25.247  -8.992 -43.155  0.00  0.00    +0.000 A 
BRANCH  19  22
ATOM     22  S2  UNL     1      23.973  -6.984 -46.430  0.00  0.00    +0.000 S 
ATOM     23  O2  UNL     1      22.782  -6.289 -45.834  0.00  0.00    +0.000 OA
ATOM     24  O3  UNL     1      24.754  -5.992 -47.247  0.00  0.00    +0.000 OA
BRANCH  22  25
ATOM     25  N2  UNL     1      23.445  -8.278 -47.448  0.00  0.00    +0.000 NA
ATOM     26  H9  UNL     1      23.655  -7.997 -48.433  0.00  0.00    +0.000 HD
ATOM     27  H10 UNL     1      22.404  -8.325 -47.365  0.00  0.00    +0.000 HD
ENDBRANCH  22  25
ENDBRANCH  19  22
ENDBRANCH   5  16
BRANCH   7  28
ATOM     28  O4  UNL     1      24.868  -8.284 -38.215  0.00  0.00    +0.000 OA
ATOM     29  H13 UNL     1      23.927  -8.379 -38.579  0.00  0.00    +0.000 HD
ENDBRANCH   7  28
TORSDOF 6
ENDMDL
MODEL 8
REMARK VINA RESULT:    -4.730      6.696      8.908
REMARK INTER + INTRA:          -6.568
REMARK INTER:                  -6.274
REMARK INTRA:                  -0.294
REMARK UNBOUND:                -0.455
REMARK  Name = resultss/4CJN/ligands/lig_377_t2.pdb
REMARK  7 active torsions:
REMARK  status: ('A' for Active; 'I' for Inactive)
REMARK    1  A    between atoms: C1_1  and  O1_2
REMARK    2  A    between atoms: O1_2  and  C2_3
REMARK    3  A    between atoms: C5_6  and  C6_7
REMARK    4  A    between atoms: N1_11  and  C9_12
REMARK    5  A    between atoms: C12_15  and  S2_16
REMARK    6  A    between atoms: S2_16  and  N2_17
REMARK    7  A    between atoms: C15_23  and  O4_24
REMARK                            x       y       z     vdW  Elec       q    Type
REMARK                         _______ _______ _______ _____ _____    ______ ____
ROOT
ATOM      1  C6  UNL     1      24.880  -7.988 -37.331  0.00  0.00    +0.000 C 
ATOM      2  C7  UNL     1      25.669  -8.361 -38.349  0.00  0.00    +0.000 C 
ATOM      3  S1  UNL     1      24.976  -8.878 -39.918  0.00  0.00    +0.000 S 
ATOM      4  C8  UNL     1      26.661  -9.234 -40.396  0.00  0.00    +0.000 C 
ATOM      5  N1  UNL     1      26.944  -9.695 -41.578  0.00  0.00    +0.000 NA
ATOM      6  N3  UNL     1      27.657  -8.858 -39.450  0.00  0.00    +0.000 NA
ATOM      7  C15 UNL     1      27.139  -8.390 -38.367  0.00  0.00    +0.000 C 
ENDROOT
BRANCH   1  11
ATOM      8  C2  UNL     1      26.377  -7.065 -33.419  0.00  0.00    +0.000 A 
ATOM      9  C3  UNL     1      26.117  -8.398 -33.791  0.00  0.00    +0.000 A 
ATOM     10  C4  UNL     1      25.619  -8.690 -35.065  0.00  0.00    +0.000 A 
ATOM     11  C5  UNL     1      25.353  -7.657 -35.975  0.00  0.00    +0.000 A 
ATOM     12  C16 UNL     1      25.641  -6.331 -35.614  0.00  0.00    +0.000 A 
ATOM     13  C17 UNL     1      26.139  -6.040 -34.341  0.00  0.00    +0.000 A 
BRANCH   8  15
ATOM     14  C1  UNL     1      28.063  -7.259 -31.581  0.00  0.00    +0.000 C 
ATOM     15  O1  UNL     1      26.874  -6.722 -32.152  0.00  0.00    +0.000 OA
ENDBRANCH   8  15
ENDBRANCH   1  11
BRANCH   5  16
ATOM     16  C9  UNL     1      28.252 -10.026 -42.073  0.00  0.00    +0.000 A 
ATOM     17  C10 UNL     1      28.904  -9.242 -43.044  0.00  0.00    +0.000 A 
ATOM     18  C11 UNL     1      30.192  -9.579 -43.473  0.00  0.00    +0.000 A 
ATOM     19  C12 UNL     1      30.849 -10.691 -42.930  0.00  0.00    +0.000 A 
ATOM     20  C13 UNL     1      30.217 -11.449 -41.936  0.00  0.00    +0.000 A 
ATOM     21  C14 UNL     1      28.931 -11.112 -41.505  0.00  0.00    +0.000 A 
BRANCH  19  22
ATOM     22  S2  UNL     1      32.476 -11.106 -43.459  0.00  0.00    +0.000 S 
ATOM     23  O2  UNL     1      32.654 -10.724 -44.901  0.00  0.00    +0.000 OA
ATOM     24  O3  UNL     1      33.485 -10.359 -42.632  0.00  0.00    +0.000 OA
BRANCH  22  25
ATOM     25  N2  UNL     1      32.723 -12.806 -43.272  0.00  0.00    +0.000 NA
ATOM     26  H9  UNL     1      31.868 -13.282 -43.640  0.00  0.00    +0.000 HD
ATOM     27  H10 UNL     1      32.756 -12.999 -42.245  0.00  0.00    +0.000 HD
ENDBRANCH  22  25
ENDBRANCH  19  22
ENDBRANCH   5  16
BRANCH   7  28
ATOM     28  O4  UNL     1      27.942  -7.920 -37.331  0.00  0.00    +0.000 OA
ATOM     29  H13 UNL     1      27.535  -7.614 -36.455  0.00  0.00    +0.000 HD
ENDBRANCH   7  28
TORSDOF 6
ENDMDL
