MODEL 1
REMARK VINA RESULT:    -7.263      0.000      0.000
REMARK INTER + INTRA:         -11.686
REMARK INTER:                 -11.085
REMARK INTRA:                  -0.602
REMARK UNBOUND:                -0.602
REMARK  Name = resultss/4CJN/ligands/lig_331_t2.pdb
REMARK  13 active torsions:
REMARK  status: ('A' for Active; 'I' for Inactive)
REMARK    1  A    between atoms: C1_1  and  O1_2
REMARK    2  A    between atoms: O1_2  and  C2_3
REMARK    3  A    between atoms: C4_5  and  C5_6
REMARK    4  A    between atoms: C8_10  and  C9_11
REMARK    5  A    between atoms: C9_11  and  C10_12
REMARK    6  A    between atoms: C10_12  and  C11_13
REMARK    7  A    between atoms: C18_21  and  O4_22
REMARK    8  A    between atoms: O4_22  and  C19_23
REMARK    9  A    between atoms: C21_26  and  C22_27
REMARK   10  A    between atoms: C22_27  and  O6_28
REMARK   11  A    between atoms: C24_30  and  O7_31
REMARK   12  A    between atoms: O7_31  and  C25_32
REMARK   13  A    between atoms: C26_33  and  O8_34
REMARK                            x       y       z     vdW  Elec       q    Type
REMARK                         _______ _______ _______ _____ _____    ______ ____
ROOT
ATOM      1  C5  UNL     1      26.264  -9.084 -38.901  0.00  0.00    +0.000 C 
ATOM      2  O2  UNL     1      27.448  -9.819 -39.226  0.00  0.00    +0.000 OA
ATOM      3  C6  UNL     1      28.037  -9.730 -40.489  0.00  0.00    +0.000 A 
ATOM      4  C7  UNL     1      29.021 -10.641 -40.878  0.00  0.00    +0.000 A 
ATOM      5  C8  UNL     1      29.577 -10.568 -42.165  0.00  0.00    +0.000 A 
ATOM      6  C17 UNL     1      29.155  -9.558 -43.046  0.00  0.00    +0.000 A 
ATOM      7  C18 UNL     1      28.175  -8.626 -42.651  0.00  0.00    +0.000 A 
ATOM      8  C20 UNL     1      27.631  -8.715 -41.364  0.00  0.00    +0.000 A 
ATOM      9  O5  UNL     1      26.678  -7.788 -40.929  0.00  0.00    +0.000 OA
ATOM     10  C21 UNL     1      26.324  -7.674 -39.546  0.00  0.00    +0.000 C 
ENDROOT
BRANCH   1  13
ATOM     11  C2  UNL     1      24.820  -8.362 -35.432  0.00  0.00    +0.000 A 
ATOM     12  C3  UNL     1      24.977  -8.413 -36.829  0.00  0.00    +0.000 A 
ATOM     13  C4  UNL     1      26.114  -9.006 -37.399  0.00  0.00    +0.000 A 
ATOM     14  C23 UNL     1      27.090  -9.566 -36.561  0.00  0.00    +0.000 A 
ATOM     15  C24 UNL     1      26.945  -9.526 -35.163  0.00  0.00    +0.000 A 
ATOM     16  C26 UNL     1      25.806  -8.918 -34.605  0.00  0.00    +0.000 A 
BRANCH  11  18
ATOM     17  C1  UNL     1      22.417  -7.665 -35.439  0.00  0.00    +0.000 C 
ATOM     18  O1  UNL     1      23.698  -7.771 -34.829  0.00  0.00    +0.000 OA
ENDBRANCH  11  18
BRANCH  15  19
ATOM     19  O7  UNL     1      27.908 -10.079 -34.302  0.00  0.00    +0.000 OA
ATOM     20  C25 UNL     1      29.279  -9.698 -34.269  0.00  0.00    +0.000 C 
ENDBRANCH  15  19
BRANCH  16  21
ATOM     21  O8  UNL     1      25.635  -8.859 -33.220  0.00  0.00    +0.000 OA
ATOM     22  H28 UNL     1      25.524  -9.690 -32.652  0.00  0.00    +0.000 HD
ENDBRANCH  16  21
ENDBRANCH   1  13
BRANCH   7  23
ATOM     23  O4  UNL     1      27.726  -7.602 -43.499  0.00  0.00    +0.000 OA
ATOM     24  C19 UNL     1      28.150  -7.429 -44.847  0.00  0.00    +0.000 C 
ENDBRANCH   7  23
BRANCH   5  25
ATOM     25  C9  UNL     1      30.659 -11.530 -42.577  0.00  0.00    +0.000 C 
BRANCH  25  26
ATOM     26  C10 UNL     1      31.839 -10.778 -43.199  0.00  0.00    +0.000 C 
BRANCH  26  27
ATOM     27  C11 UNL     1      32.478 -11.602 -44.287  0.00  0.00    +0.000 C 
ATOM     28  C12 UNL     1      33.341 -10.929 -45.283  0.00  0.00    +0.000 C 
ATOM     29  C13 UNL     1      33.897 -11.605 -46.288  0.00  0.00    +0.000 C 
ATOM     30  C14 UNL     1      33.665 -13.049 -46.435  0.00  0.00    +0.000 C 
ATOM     31  O3  UNL     1      34.200 -13.668 -47.392  0.00  0.00    +0.000 OA
ATOM     32  C15 UNL     1      32.798 -13.797 -45.459  0.00  0.00    +0.000 C 
ATOM     33  C16 UNL     1      32.214 -12.917 -44.383  0.00  0.00    +0.000 C 
ENDBRANCH  26  27
ENDBRANCH  25  26
ENDBRANCH   5  25
BRANCH  10  34
ATOM     34  C22 UNL     1      25.002  -6.901 -39.420  0.00  0.00    +0.000 C 
BRANCH  34  35
ATOM     35  O6  UNL     1      23.956  -7.575 -40.070  0.00  0.00    +0.000 OA
ATOM     36  H23 UNL     1      24.042  -8.534 -39.832  0.00  0.00    +0.000 HD
ENDBRANCH  34  35
ENDBRANCH  10  34
TORSDOF 10
ENDMDL
MODEL 2
REMARK VINA RESULT:    -7.214      0.345      2.433
REMARK INTER + INTRA:         -11.611
REMARK INTER:                 -11.077
REMARK INTRA:                  -0.533
REMARK UNBOUND:                -0.602
REMARK  Name = resultss/4CJN/ligands/lig_331_t2.pdb
REMARK  13 active torsions:
REMARK  status: ('A' for Active; 'I' for Inactive)
REMARK    1  A    between atoms: C1_1  and  O1_2
REMARK    2  A    between atoms: O1_2  and  C2_3
REMARK    3  A    between atoms: C4_5  and  C5_6
REMARK    4  A    between atoms: C8_10  and  C9_11
REMARK    5  A    between atoms: C9_11  and  C10_12
REMARK    6  A    between atoms: C10_12  and  C11_13
REMARK    7  A    between atoms: C18_21  and  O4_22
REMARK    8  A    between atoms: O4_22  and  C19_23
REMARK    9  A    between atoms: C21_26  and  C22_27
REMARK   10  A    between atoms: C22_27  and  O6_28
REMARK   11  A    between atoms: C24_30  and  O7_31
REMARK   12  A    between atoms: O7_31  and  C25_32
REMARK   13  A    between atoms: C26_33  and  O8_34
REMARK                            x       y       z     vdW  Elec       q    Type
REMARK                         _______ _______ _______ _____ _____    ______ ____
ROOT
ATOM      1  C5  UNL     1      26.362  -9.355 -38.893  0.00  0.00    +0.000 C 
ATOM      2  O2  UNL     1      27.597  -9.993 -39.236  0.00  0.00    +0.000 OA
ATOM      3  C6  UNL     1      28.114  -9.929 -40.532  0.00  0.00    +0.000 A 
ATOM      4  C7  UNL     1      29.164 -10.765 -40.918  0.00  0.00    +0.000 A 
ATOM      5  C8  UNL     1      29.649 -10.722 -42.235  0.00  0.00    +0.000 A 
ATOM      6  C17 UNL     1      29.087  -9.816 -43.151  0.00  0.00    +0.000 A 
ATOM      7  C18 UNL     1      28.039  -8.959 -42.760  0.00  0.00    +0.000 A 
ATOM      8  C20 UNL     1      27.569  -9.016 -41.443  0.00  0.00    +0.000 A 
ATOM      9  O5  UNL     1      26.550  -8.159 -41.013  0.00  0.00    +0.000 OA
ATOM     10  C21 UNL     1      26.252  -7.991 -39.623  0.00  0.00    +0.000 C 
ENDROOT
BRANCH   1  13
ATOM     11  C2  UNL     1      27.240  -9.515 -35.172  0.00  0.00    +0.000 A 
ATOM     12  C3  UNL     1      27.301  -9.684 -36.567  0.00  0.00    +0.000 A 
ATOM     13  C4  UNL     1      26.277  -9.195 -37.392  0.00  0.00    +0.000 A 
ATOM     14  C23 UNL     1      25.194  -8.516 -36.814  0.00  0.00    +0.000 A 
ATOM     15  C24 UNL     1      25.121  -8.336 -35.421  0.00  0.00    +0.000 A 
ATOM     16  C26 UNL     1      26.149  -8.842 -34.605  0.00  0.00    +0.000 A 
BRANCH  11  18
ATOM     17  C1  UNL     1      29.612  -9.611 -34.382  0.00  0.00    +0.000 C 
ATOM     18  O1  UNL     1      28.244  -9.998 -34.317  0.00  0.00    +0.000 OA
ENDBRANCH  11  18
BRANCH  15  19
ATOM     19  O7  UNL     1      24.048  -7.660 -34.816  0.00  0.00    +0.000 OA
ATOM     20  C25 UNL     1      22.711  -8.148 -34.763  0.00  0.00    +0.000 C 
ENDBRANCH  15  19
BRANCH  16  21
ATOM     21  O8  UNL     1      26.103  -8.682 -33.219  0.00  0.00    +0.000 OA
ATOM     22  H28 UNL     1      26.159  -7.773 -32.776  0.00  0.00    +0.000 HD
ENDBRANCH  16  21
ENDBRANCH   1  13
BRANCH   7  23
ATOM     23  O4  UNL     1      27.452  -8.039 -43.642  0.00  0.00    +0.000 OA
ATOM     24  C19 UNL     1      28.181  -7.124 -44.454  0.00  0.00    +0.000 C 
ENDBRANCH   7  23
BRANCH   5  25
ATOM     25  C9  UNL     1      30.800 -11.600 -42.645  0.00  0.00    +0.000 C 
BRANCH  25  26
ATOM     26  C10 UNL     1      31.885 -10.774 -43.342  0.00  0.00    +0.000 C 
BRANCH  26  27
ATOM     27  C11 UNL     1      32.495 -11.552 -44.478  0.00  0.00    +0.000 C 
ATOM     28  C12 UNL     1      32.300 -13.018 -44.533  0.00  0.00    +0.000 C 
ATOM     29  C13 UNL     1      32.852 -13.757 -45.494  0.00  0.00    +0.000 C 
ATOM     30  C14 UNL     1      33.679 -13.130 -46.534  0.00  0.00    +0.000 C 
ATOM     31  O3  UNL     1      34.192 -13.847 -47.434  0.00  0.00    +0.000 OA
ATOM     32  C15 UNL     1      33.921 -11.645 -46.541  0.00  0.00    +0.000 C 
ATOM     33  C16 UNL     1      33.259 -10.927 -45.392  0.00  0.00    +0.000 C 
ENDBRANCH  26  27
ENDBRANCH  25  26
ENDBRANCH   5  25
BRANCH  10  34
ATOM     34  C22 UNL     1      24.867  -7.342 -39.473  0.00  0.00    +0.000 C 
BRANCH  34  35
ATOM     35  O6  UNL     1      23.883  -8.086 -40.141  0.00  0.00    +0.000 OA
ATOM     36  H23 UNL     1      23.583  -8.793 -39.513  0.00  0.00    +0.000 HD
ENDBRANCH  34  35
ENDBRANCH  10  34
TORSDOF 10
ENDMDL
MODEL 3
REMARK VINA RESULT:    -7.093      2.992      7.304
REMARK INTER + INTRA:         -11.427
REMARK INTER:                 -10.952
REMARK INTRA:                  -0.475
REMARK UNBOUND:                -0.602
REMARK  Name = resultss/4CJN/ligands/lig_331_t2.pdb
REMARK  13 active torsions:
REMARK  status: ('A' for Active; 'I' for Inactive)
REMARK    1  A    between atoms: C1_1  and  O1_2
REMARK    2  A    between atoms: O1_2  and  C2_3
REMARK    3  A    between atoms: C4_5  and  C5_6
REMARK    4  A    between atoms: C8_10  and  C9_11
REMARK    5  A    between atoms: C9_11  and  C10_12
REMARK    6  A    between atoms: C10_12  and  C11_13
REMARK    7  A    between atoms: C18_21  and  O4_22
REMARK    8  A    between atoms: O4_22  and  C19_23
REMARK    9  A    between atoms: C21_26  and  C22_27
REMARK   10  A    between atoms: C22_27  and  O6_28
REMARK   11  A    between atoms: C24_30  and  O7_31
REMARK   12  A    between atoms: O7_31  and  C25_32
REMARK   13  A    between atoms: C26_33  and  O8_34
REMARK                            x       y       z     vdW  Elec       q    Type
REMARK                         _______ _______ _______ _____ _____    ______ ____
ROOT
ATOM      1  C5  UNL     1      26.085  -7.608 -43.481  0.00  0.00    +0.000 C 
ATOM      2  O2  UNL     1      27.114  -8.549 -43.804  0.00  0.00    +0.000 OA
ATOM      3  C6  UNL     1      27.787  -9.263 -42.809  0.00  0.00    +0.000 A 
ATOM      4  C7  UNL     1      28.953  -9.969 -43.109  0.00  0.00    +0.000 A 
ATOM      5  C8  UNL     1      29.644 -10.650 -42.094  0.00  0.00    +0.000 A 
ATOM      6  C17 UNL     1      29.138 -10.635 -40.782  0.00  0.00    +0.000 A 
ATOM      7  C18 UNL     1      27.952  -9.939 -40.479  0.00  0.00    +0.000 A 
ATOM      8  C20 UNL     1      27.277  -9.266 -41.505  0.00  0.00    +0.000 A 
ATOM      9  O5  UNL     1      26.080  -8.590 -41.245  0.00  0.00    +0.000 OA
ATOM     10  C21 UNL     1      25.227  -8.146 -42.306  0.00  0.00    +0.000 C 
ENDROOT
BRANCH   1  13
ATOM     11  C2  UNL     1      25.084  -6.822 -47.088  0.00  0.00    +0.000 A 
ATOM     12  C3  UNL     1      25.859  -7.049 -45.937  0.00  0.00    +0.000 A 
ATOM     13  C4  UNL     1      25.246  -7.336 -44.708  0.00  0.00    +0.000 A 
ATOM     14  C23 UNL     1      23.847  -7.413 -44.640  0.00  0.00    +0.000 A 
ATOM     15  C24 UNL     1      23.059  -7.192 -45.783  0.00  0.00    +0.000 A 
ATOM     16  C26 UNL     1      23.687  -6.894 -47.006  0.00  0.00    +0.000 A 
BRANCH  11  18
ATOM     17  C1  UNL     1      27.025  -6.148 -48.518  0.00  0.00    +0.000 C 
ATOM     18  O1  UNL     1      25.665  -6.525 -48.333  0.00  0.00    +0.000 OA
ENDBRANCH  11  18
BRANCH  15  19
ATOM     19  O7  UNL     1      21.657  -7.263 -45.742  0.00  0.00    +0.000 OA
ATOM     20  C25 UNL     1      20.834  -6.512 -44.855  0.00  0.00    +0.000 C 
ENDBRANCH  15  19
BRANCH  16  21
ATOM     21  O8  UNL     1      22.931  -6.665 -48.158  0.00  0.00    +0.000 OA
ATOM     22  H28 UNL     1      22.929  -7.308 -48.941  0.00  0.00    +0.000 HD
ENDBRANCH  16  21
ENDBRANCH   1  13
BRANCH   7  23
ATOM     23  O4  UNL     1      27.412  -9.901 -39.185  0.00  0.00    +0.000 OA
ATOM     24  C19 UNL     1      28.090 -10.353 -38.016  0.00  0.00    +0.000 C 
ENDBRANCH   7  23
BRANCH   5  25
ATOM     25  C9  UNL     1      30.885 -11.435 -42.420  0.00  0.00    +0.000 C 
BRANCH  25  26
ATOM     26  C10 UNL     1      31.789 -10.643 -43.369  0.00  0.00    +0.000 C 
BRANCH  26  27
ATOM     27  C11 UNL     1      32.387 -11.549 -44.413  0.00  0.00    +0.000 C 
ATOM     28  C12 UNL     1      33.261 -10.966 -45.455  0.00  0.00    +0.000 C 
ATOM     29  C13 UNL     1      33.782 -11.718 -46.424  0.00  0.00    +0.000 C 
ATOM     30  C14 UNL     1      33.498 -13.159 -46.485  0.00  0.00    +0.000 C 
ATOM     31  O3  UNL     1      34.001 -13.851 -47.409  0.00  0.00    +0.000 OA
ATOM     32  C15 UNL     1      32.616 -13.818 -45.459  0.00  0.00    +0.000 C 
ATOM     33  C16 UNL     1      32.076 -12.857 -44.431  0.00  0.00    +0.000 C 
ENDBRANCH  26  27
ENDBRANCH  25  26
ENDBRANCH   5  25
BRANCH  10  34
ATOM     34  C22 UNL     1      24.236  -7.105 -41.763  0.00  0.00    +0.000 C 
BRANCH  34  35
ATOM     35  O6  UNL     1      23.150  -7.723 -41.125  0.00  0.00    +0.000 OA
ATOM     36  H23 UNL     1      22.939  -8.540 -41.647  0.00  0.00    +0.000 HD
ENDBRANCH  34  35
ENDBRANCH  10  34
TORSDOF 10
ENDMDL
MODEL 4
REMARK VINA RESULT:    -6.878      2.407      4.395
REMARK INTER + INTRA:         -11.098
REMARK INTER:                 -10.138
REMARK INTRA:                  -0.960
REMARK UNBOUND:                -0.602
REMARK  Name = resultss/4CJN/ligands/lig_331_t2.pdb
REMARK  13 active torsions:
REMARK  status: ('A' for Active; 'I' for Inactive)
REMARK    1  A    between atoms: C1_1  and  O1_2
REMARK    2  A    between atoms: O1_2  and  C2_3
REMARK    3  A    between atoms: C4_5  and  C5_6
REMARK    4  A    between atoms: C8_10  and  C9_11
REMARK    5  A    between atoms: C9_11  and  C10_12
REMARK    6  A    between atoms: C10_12  and  C11_13
REMARK    7  A    between atoms: C18_21  and  O4_22
REMARK    8  A    between atoms: O4_22  and  C19_23
REMARK    9  A    between atoms: C21_26  and  C22_27
REMARK   10  A    between atoms: C22_27  and  O6_28
REMARK   11  A    between atoms: C24_30  and  O7_31
REMARK   12  A    between atoms: O7_31  and  C25_32
REMARK   13  A    between atoms: C26_33  and  O8_34
REMARK                            x       y       z     vdW  Elec       q    Type
REMARK                         _______ _______ _______ _____ _____    ______ ____
ROOT
ATOM      1  C5  UNL     1      28.984  -9.769 -36.566  0.00  0.00    +0.000 C 
ATOM      2  O2  UNL     1      29.725  -9.755 -37.791  0.00  0.00    +0.000 OA
ATOM      3  C6  UNL     1      29.084  -9.815 -39.031  0.00  0.00    +0.000 A 
ATOM      4  C7  UNL     1      29.814 -10.067 -40.194  0.00  0.00    +0.000 A 
ATOM      5  C8  UNL     1      29.155 -10.165 -41.430  0.00  0.00    +0.000 A 
ATOM      6  C17 UNL     1      27.762  -9.983 -41.489  0.00  0.00    +0.000 A 
ATOM      7  C18 UNL     1      27.025  -9.711 -40.320  0.00  0.00    +0.000 A 
ATOM      8  C20 UNL     1      27.699  -9.617 -39.096  0.00  0.00    +0.000 A 
ATOM      9  O5  UNL     1      27.002  -9.318 -37.921  0.00  0.00    +0.000 OA
ATOM     10  C21 UNL     1      27.687  -8.932 -36.724  0.00  0.00    +0.000 C 
ENDROOT
BRANCH   1  13
ATOM     11  C2  UNL     1      30.831  -9.523 -33.225  0.00  0.00    +0.000 A 
ATOM     12  C3  UNL     1      30.003  -9.989 -34.262  0.00  0.00    +0.000 A 
ATOM     13  C4  UNL     1      29.853  -9.249 -35.444  0.00  0.00    +0.000 A 
ATOM     14  C23 UNL     1      30.554  -8.043 -35.594  0.00  0.00    +0.000 A 
ATOM     15  C24 UNL     1      31.389  -7.566 -34.567  0.00  0.00    +0.000 A 
ATOM     16  C26 UNL     1      31.520  -8.313 -33.382  0.00  0.00    +0.000 A 
BRANCH  11  18
ATOM     17  C1  UNL     1      32.061 -11.147 -31.771  0.00  0.00    +0.000 C 
ATOM     18  O1  UNL     1      30.998 -10.236 -32.026  0.00  0.00    +0.000 OA
ENDBRANCH  11  18
BRANCH  15  19
ATOM     19  O7  UNL     1      32.101  -6.362 -34.691  0.00  0.00    +0.000 OA
ATOM     20  C25 UNL     1      33.354  -6.228 -35.352  0.00  0.00    +0.000 C 
ENDBRANCH  15  19
BRANCH  16  21
ATOM     21  O8  UNL     1      32.338  -7.864 -32.344  0.00  0.00    +0.000 OA
ATOM     22  H28 UNL     1      32.155  -7.003 -31.843  0.00  0.00    +0.000 HD
ENDBRANCH  16  21
ENDBRANCH   1  13
BRANCH   7  23
ATOM     23  O4  UNL     1      25.635  -9.521 -40.335  0.00  0.00    +0.000 OA
ATOM     24  C19 UNL     1      24.874  -9.231 -41.504  0.00  0.00    +0.000 C 
ENDBRANCH   7  23
BRANCH   5  25
ATOM     25  C9  UNL     1      29.942 -10.408 -42.689  0.00  0.00    +0.000 C 
BRANCH  25  26
ATOM     26  C10 UNL     1      30.998 -11.493 -42.461  0.00  0.00    +0.000 C 
BRANCH  26  27
ATOM     27  C11 UNL     1      31.775 -11.751 -43.726  0.00  0.00    +0.000 C 
ATOM     28  C12 UNL     1      31.870 -13.136 -44.240  0.00  0.00    +0.000 C 
ATOM     29  C13 UNL     1      32.578 -13.423 -45.333  0.00  0.00    +0.000 C 
ATOM     30  C14 UNL     1      33.290 -12.364 -46.060  0.00  0.00    +0.000 C 
ATOM     31  O3  UNL     1      33.953 -12.657 -47.090  0.00  0.00    +0.000 OA
ATOM     32  C15 UNL     1      33.238 -10.934 -45.594  0.00  0.00    +0.000 C 
ATOM     33  C16 UNL     1      32.422 -10.745 -44.340  0.00  0.00    +0.000 C 
ENDBRANCH  26  27
ENDBRANCH  25  26
ENDBRANCH   5  25
BRANCH  10  34
ATOM     34  C22 UNL     1      26.736  -9.070 -35.525  0.00  0.00    +0.000 C 
BRANCH  34  35
ATOM     35  O6  UNL     1      25.739 -10.025 -35.775  0.00  0.00    +0.000 OA
ATOM     36  H23 UNL     1      24.870  -9.588 -35.580  0.00  0.00    +0.000 HD
ENDBRANCH  34  35
ENDBRANCH  10  34
TORSDOF 10
ENDMDL
MODEL 5
REMARK VINA RESULT:    -6.722      2.120      3.560
REMARK INTER + INTRA:         -10.861
REMARK INTER:                 -10.414
REMARK INTRA:                  -0.446
REMARK UNBOUND:                -0.602
REMARK  Name = resultss/4CJN/ligands/lig_331_t2.pdb
REMARK  13 active torsions:
REMARK  status: ('A' for Active; 'I' for Inactive)
REMARK    1  A    between atoms: C1_1  and  O1_2
REMARK    2  A    between atoms: O1_2  and  C2_3
REMARK    3  A    between atoms: C4_5  and  C5_6
REMARK    4  A    between atoms: C8_10  and  C9_11
REMARK    5  A    between atoms: C9_11  and  C10_12
REMARK    6  A    between atoms: C10_12  and  C11_13
REMARK    7  A    between atoms: C18_21  and  O4_22
REMARK    8  A    between atoms: O4_22  and  C19_23
REMARK    9  A    between atoms: C21_26  and  C22_27
REMARK   10  A    between atoms: C22_27  and  O6_28
REMARK   11  A    between atoms: C24_30  and  O7_31
REMARK   12  A    between atoms: O7_31  and  C25_32
REMARK   13  A    between atoms: C26_33  and  O8_34
REMARK                            x       y       z     vdW  Elec       q    Type
REMARK                         _______ _______ _______ _____ _____    ______ ____
ROOT
ATOM      1  C5  UNL     1      28.311  -9.733 -36.474  0.00  0.00    +0.000 C 
ATOM      2  O2  UNL     1      29.155  -9.713 -37.630  0.00  0.00    +0.000 OA
ATOM      3  C6  UNL     1      28.623  -9.758 -38.921  0.00  0.00    +0.000 A 
ATOM      4  C7  UNL     1      29.449 -10.004 -40.019  0.00  0.00    +0.000 A 
ATOM      5  C8  UNL     1      28.898 -10.088 -41.308  0.00  0.00    +0.000 A 
ATOM      6  C17 UNL     1      27.517  -9.897 -41.485  0.00  0.00    +0.000 A 
ATOM      7  C18 UNL     1      26.683  -9.631 -40.381  0.00  0.00    +0.000 A 
ATOM      8  C20 UNL     1      27.250  -9.551 -39.103  0.00  0.00    +0.000 A 
ATOM      9  O5  UNL     1      26.456  -9.259 -37.990  0.00  0.00    +0.000 OA
ATOM     10  C21 UNL     1      27.037  -8.887 -36.735  0.00  0.00    +0.000 C 
ENDROOT
BRANCH   1  13
ATOM     11  C2  UNL     1      29.366  -7.613 -33.470  0.00  0.00    +0.000 A 
ATOM     12  C3  UNL     1      28.668  -8.072 -34.601  0.00  0.00    +0.000 A 
ATOM     13  C4  UNL     1      29.083  -9.229 -35.277  0.00  0.00    +0.000 A 
ATOM     14  C23 UNL     1      30.197  -9.939 -34.803  0.00  0.00    +0.000 A 
ATOM     15  C24 UNL     1      30.904  -9.493 -33.671  0.00  0.00    +0.000 A 
ATOM     16  C26 UNL     1      30.482  -8.325 -33.011  0.00  0.00    +0.000 A 
BRANCH  11  18
ATOM     17  C1  UNL     1      27.721  -6.280 -32.135  0.00  0.00    +0.000 C 
ATOM     18  O1  UNL     1      28.981  -6.454 -32.774  0.00  0.00    +0.000 OA
ENDBRANCH  11  18
BRANCH  15  19
ATOM     19  O7  UNL     1      32.022 -10.185 -33.177  0.00  0.00    +0.000 OA
ATOM     20  C25 UNL     1      32.001 -11.058 -32.053  0.00  0.00    +0.000 C 
ENDBRANCH  15  19
BRANCH  16  21
ATOM     21  O8  UNL     1      31.165  -7.856 -31.887  0.00  0.00    +0.000 OA
ATOM     22  H28 UNL     1      31.140  -8.339 -30.997  0.00  0.00    +0.000 HD
ENDBRANCH  16  21
ENDBRANCH   1  13
BRANCH   7  23
ATOM     23  O4  UNL     1      25.300  -9.432 -40.514  0.00  0.00    +0.000 OA
ATOM     24  C19 UNL     1      24.601  -9.442 -41.755  0.00  0.00    +0.000 C 
ENDBRANCH   7  23
BRANCH   5  25
ATOM     25  C9  UNL     1      29.790 -10.324 -42.497  0.00  0.00    +0.000 C 
BRANCH  25  26
ATOM     26  C10 UNL     1      30.671 -11.556 -42.272  0.00  0.00    +0.000 C 
BRANCH  26  27
ATOM     27  C11 UNL     1      31.557 -11.800 -43.465  0.00  0.00    +0.000 C 
ATOM     28  C12 UNL     1      32.184 -10.643 -44.142  0.00  0.00    +0.000 C 
ATOM     29  C13 UNL     1      32.944 -10.802 -45.226  0.00  0.00    +0.000 C 
ATOM     30  C14 UNL     1      33.179 -12.141 -45.783  0.00  0.00    +0.000 C 
ATOM     31  O3  UNL     1      33.900 -12.269 -46.808  0.00  0.00    +0.000 OA
ATOM     32  C15 UNL     1      32.572 -13.362 -45.146  0.00  0.00    +0.000 C 
ATOM     33  C16 UNL     1      31.721 -13.046 -43.942  0.00  0.00    +0.000 C 
ENDBRANCH  26  27
ENDBRANCH  25  26
ENDBRANCH   5  25
BRANCH  10  34
ATOM     34  C22 UNL     1      25.986  -9.030 -35.623  0.00  0.00    +0.000 C 
BRANCH  34  35
ATOM     35  O6  UNL     1      25.852 -10.368 -35.220  0.00  0.00    +0.000 OA
ATOM     36  H23 UNL     1      25.483 -10.353 -34.300  0.00  0.00    +0.000 HD
ENDBRANCH  34  35
ENDBRANCH  10  34
TORSDOF 10
ENDMDL
MODEL 6
REMARK VINA RESULT:    -6.366      3.217      9.963
REMARK INTER + INTRA:         -10.318
REMARK INTER:                  -9.878
REMARK INTRA:                  -0.440
REMARK UNBOUND:                -0.602
REMARK  Name = resultss/4CJN/ligands/lig_331_t2.pdb
REMARK  13 active torsions:
REMARK  status: ('A' for Active; 'I' for Inactive)
REMARK    1  A    between atoms: C1_1  and  O1_2
REMARK    2  A    between atoms: O1_2  and  C2_3
REMARK    3  A    between atoms: C4_5  and  C5_6
REMARK    4  A    between atoms: C8_10  and  C9_11
REMARK    5  A    between atoms: C9_11  and  C10_12
REMARK    6  A    between atoms: C10_12  and  C11_13
REMARK    7  A    between atoms: C18_21  and  O4_22
REMARK    8  A    between atoms: O4_22  and  C19_23
REMARK    9  A    between atoms: C21_26  and  C22_27
REMARK   10  A    between atoms: C22_27  and  O6_28
REMARK   11  A    between atoms: C24_30  and  O7_31
REMARK   12  A    between atoms: O7_31  and  C25_32
REMARK   13  A    between atoms: C26_33  and  O8_34
REMARK                            x       y       z     vdW  Elec       q    Type
REMARK                         _______ _______ _______ _____ _____    ______ ____
ROOT
ATOM      1  C5  UNL     1      27.651  -9.918 -40.701  0.00  0.00    +0.000 C 
ATOM      2  O2  UNL     1      27.165  -9.534 -39.410  0.00  0.00    +0.000 OA
ATOM      3  C6  UNL     1      27.967  -9.635 -38.270  0.00  0.00    +0.000 A 
ATOM      4  C7  UNL     1      27.408  -9.514 -36.997  0.00  0.00    +0.000 A 
ATOM      5  C8  UNL     1      28.215  -9.658 -35.858  0.00  0.00    +0.000 A 
ATOM      6  C17 UNL     1      29.592  -9.899 -36.010  0.00  0.00    +0.000 A 
ATOM      7  C18 UNL     1      30.163 -10.004 -37.294  0.00  0.00    +0.000 A 
ATOM      8  C20 UNL     1      29.342  -9.858 -38.418  0.00  0.00    +0.000 A 
ATOM      9  O5  UNL     1      29.882  -9.927 -39.707  0.00  0.00    +0.000 OA
ATOM     10  C21 UNL     1      29.137  -9.499 -40.852  0.00  0.00    +0.000 C 
ENDROOT
BRANCH   1  13
ATOM     11  C2  UNL     1      26.561  -8.126 -43.900  0.00  0.00    +0.000 A 
ATOM     12  C3  UNL     1      27.364  -8.681 -42.888  0.00  0.00    +0.000 A 
ATOM     13  C4  UNL     1      26.782  -9.299 -41.771  0.00  0.00    +0.000 A 
ATOM     14  C23 UNL     1      25.384  -9.375 -41.679  0.00  0.00    +0.000 A 
ATOM     15  C24 UNL     1      24.568  -8.829 -42.686  0.00  0.00    +0.000 A 
ATOM     16  C26 UNL     1      25.166  -8.202 -43.794  0.00  0.00    +0.000 A 
BRANCH  11  18
ATOM     17  C1  UNL     1      27.478  -6.121 -45.085  0.00  0.00    +0.000 C 
ATOM     18  O1  UNL     1      27.112  -7.495 -45.028  0.00  0.00    +0.000 OA
ENDBRANCH  11  18
BRANCH  15  19
ATOM     19  O7  UNL     1      23.166  -8.892 -42.619  0.00  0.00    +0.000 OA
ATOM     20  C25 UNL     1      22.321  -7.791 -42.302  0.00  0.00    +0.000 C 
ENDBRANCH  15  19
BRANCH  16  21
ATOM     21  O8  UNL     1      24.382  -7.647 -44.807  0.00  0.00    +0.000 OA
ATOM     22  H28 UNL     1      24.624  -7.729 -45.787  0.00  0.00    +0.000 HD
ENDBRANCH  16  21
ENDBRANCH   1  13
BRANCH   7  23
ATOM     23  O4  UNL     1      31.532 -10.242 -37.490  0.00  0.00    +0.000 OA
ATOM     24  C19 UNL     1      32.548  -9.252 -37.362  0.00  0.00    +0.000 C 
ENDBRANCH   7  23
BRANCH   5  25
ATOM     25  C9  UNL     1      27.620  -9.499 -34.485  0.00  0.00    +0.000 C 
BRANCH  25  26
ATOM     26  C10 UNL     1      26.171  -9.994 -34.466  0.00  0.00    +0.000 C 
BRANCH  26  27
ATOM     27  C11 UNL     1      25.253  -8.925 -33.934  0.00  0.00    +0.000 C 
ATOM     28  C12 UNL     1      25.677  -7.510 -34.012  0.00  0.00    +0.000 C 
ATOM     29  C13 UNL     1      24.919  -6.530 -33.519  0.00  0.00    +0.000 C 
ATOM     30  C14 UNL     1      23.633  -6.833 -32.878  0.00  0.00    +0.000 C 
ATOM     31  O3  UNL     1      22.932  -5.892 -32.419  0.00  0.00    +0.000 OA
ATOM     32  C15 UNL     1      23.139  -8.250 -32.763  0.00  0.00    +0.000 C 
ATOM     33  C16 UNL     1      24.095  -9.263 -33.340  0.00  0.00    +0.000 C 
ENDBRANCH  26  27
ENDBRANCH  25  26
ENDBRANCH   5  25
BRANCH  10  34
ATOM     34  C22 UNL     1      29.790 -10.060 -42.125  0.00  0.00    +0.000 C 
BRANCH  34  35
ATOM     35  O6  UNL     1      30.486 -11.248 -41.856  0.00  0.00    +0.000 OA
ATOM     36  H23 UNL     1      30.696 -11.661 -42.733  0.00  0.00    +0.000 HD
ENDBRANCH  34  35
ENDBRANCH  10  34
TORSDOF 10
ENDMDL
MODEL 7
REMARK VINA RESULT:    -6.332      4.039      8.067
REMARK INTER + INTRA:         -10.266
REMARK INTER:                  -9.949
REMARK INTRA:                  -0.317
REMARK UNBOUND:                -0.602
REMARK  Name = resultss/4CJN/ligands/lig_331_t2.pdb
REMARK  13 active torsions:
REMARK  status: ('A' for Active; 'I' for Inactive)
REMARK    1  A    between atoms: C1_1  and  O1_2
REMARK    2  A    between atoms: O1_2  and  C2_3
REMARK    3  A    between atoms: C4_5  and  C5_6
REMARK    4  A    between atoms: C8_10  and  C9_11
REMARK    5  A    between atoms: C9_11  and  C10_12
REMARK    6  A    between atoms: C10_12  and  C11_13
REMARK    7  A    between atoms: C18_21  and  O4_22
REMARK    8  A    between atoms: O4_22  and  C19_23
REMARK    9  A    between atoms: C21_26  and  C22_27
REMARK   10  A    between atoms: C22_27  and  O6_28
REMARK   11  A    between atoms: C24_30  and  O7_31
REMARK   12  A    between atoms: O7_31  and  C25_32
REMARK   13  A    between atoms: C26_33  and  O8_34
REMARK                            x       y       z     vdW  Elec       q    Type
REMARK                         _______ _______ _______ _____ _____    ______ ____
ROOT
ATOM      1  C5  UNL     1      24.154  -7.192 -43.692  0.00  0.00    +0.000 C 
ATOM      2  O2  UNL     1      25.265  -8.093 -43.761  0.00  0.00    +0.000 OA
ATOM      3  C6  UNL     1      25.766  -8.720 -42.618  0.00  0.00    +0.000 A 
ATOM      4  C7  UNL     1      26.997  -9.377 -42.653  0.00  0.00    +0.000 A 
ATOM      5  C8  UNL     1      27.511  -9.969 -41.488  0.00  0.00    +0.000 A 
ATOM      6  C17 UNL     1      26.766  -9.916 -40.297  0.00  0.00    +0.000 A 
ATOM      7  C18 UNL     1      25.515  -9.269 -40.263  0.00  0.00    +0.000 A 
ATOM      8  C20 UNL     1      25.019  -8.684 -41.434  0.00  0.00    +0.000 A 
ATOM      9  O5  UNL     1      23.767  -8.060 -41.443  0.00  0.00    +0.000 OA
ATOM     10  C21 UNL     1      23.113  -7.716 -42.669  0.00  0.00    +0.000 C 
ENDROOT
BRANCH   1  13
ATOM     11  C2  UNL     1      23.820  -6.873 -47.490  0.00  0.00    +0.000 A 
ATOM     12  C3  UNL     1      24.376  -6.999 -46.205  0.00  0.00    +0.000 A 
ATOM     13  C4  UNL     1      23.553  -7.027 -45.069  0.00  0.00    +0.000 A 
ATOM     14  C23 UNL     1      22.161  -6.945 -45.227  0.00  0.00    +0.000 A 
ATOM     15  C24 UNL     1      21.590  -6.822 -46.507  0.00  0.00    +0.000 A 
ATOM     16  C26 UNL     1      22.429  -6.784 -47.635  0.00  0.00    +0.000 A 
BRANCH  11  18
ATOM     17  C1  UNL     1      25.699  -5.935 -48.852  0.00  0.00    +0.000 C 
ATOM     18  O1  UNL     1      24.615  -6.835 -48.647  0.00  0.00    +0.000 OA
ENDBRANCH  11  18
BRANCH  15  19
ATOM     19  O7  UNL     1      20.200  -6.738 -46.693  0.00  0.00    +0.000 OA
ATOM     20  C25 UNL     1      19.357  -7.842 -47.001  0.00  0.00    +0.000 C 
ENDBRANCH  15  19
BRANCH  16  21
ATOM     21  O8  UNL     1      21.891  -6.658 -48.918  0.00  0.00    +0.000 OA
ATOM     22  H28 UNL     1      21.585  -7.458 -49.458  0.00  0.00    +0.000 HD
ENDBRANCH  16  21
ENDBRANCH   1  13
BRANCH   7  23
ATOM     23  O4  UNL     1      24.739  -9.195 -39.096  0.00  0.00    +0.000 OA
ATOM     24  C19 UNL     1      25.127  -8.504 -37.913  0.00  0.00    +0.000 C 
ENDBRANCH   7  23
BRANCH   5  25
ATOM     25  C9  UNL     1      28.825 -10.703 -41.529  0.00  0.00    +0.000 C 
BRANCH  25  26
ATOM     26  C10 UNL     1      29.850  -9.924 -42.357  0.00  0.00    +0.000 C 
BRANCH  26  27
ATOM     27  C11 UNL     1      30.825 -10.864 -43.015  0.00  0.00    +0.000 C 
ATOM     28  C12 UNL     1      31.686 -10.358 -44.107  0.00  0.00    +0.000 C 
ATOM     29  C13 UNL     1      32.537 -11.159 -44.748  0.00  0.00    +0.000 C 
ATOM     30  C14 UNL     1      32.643 -12.579 -44.385  0.00  0.00    +0.000 C 
ATOM     31  O3  UNL     1      33.453 -13.319 -45.003  0.00  0.00    +0.000 OA
ATOM     32  C15 UNL     1      31.797 -13.162 -43.285  0.00  0.00    +0.000 C 
ATOM     33  C16 UNL     1      30.865 -12.159 -42.654  0.00  0.00    +0.000 C 
ENDBRANCH  26  27
ENDBRANCH  25  26
ENDBRANCH   5  25
BRANCH  10  34
ATOM     34  C22 UNL     1      21.993  -6.703 -42.383  0.00  0.00    +0.000 C 
BRANCH  34  35
ATOM     35  O6  UNL     1      21.642  -6.705 -41.024  0.00  0.00    +0.000 OA
ATOM     36  H23 UNL     1      21.613  -5.756 -40.735  0.00  0.00    +0.000 HD
ENDBRANCH  34  35
ENDBRANCH  10  34
TORSDOF 10
ENDMDL
MODEL 8
REMARK VINA RESULT:    -6.313      2.710      5.633
REMARK INTER + INTRA:         -10.236
REMARK INTER:                  -9.398
REMARK INTRA:                  -0.838
REMARK UNBOUND:                -0.602
REMARK  Name = resultss/4CJN/ligands/lig_331_t2.pdb
REMARK  13 active torsions:
REMARK  status: ('A' for Active; 'I' for Inactive)
REMARK    1  A    between atoms: C1_1  and  O1_2
REMARK    2  A    between atoms: O1_2  and  C2_3
REMARK    3  A    between atoms: C4_5  and  C5_6
REMARK    4  A    between atoms: C8_10  and  C9_11
REMARK    5  A    between atoms: C9_11  and  C10_12
REMARK    6  A    between atoms: C10_12  and  C11_13
REMARK    7  A    between atoms: C18_21  and  O4_22
REMARK    8  A    between atoms: O4_22  and  C19_23
REMARK    9  A    between atoms: C21_26  and  C22_27
REMARK   10  A    between atoms: C22_27  and  O6_28
REMARK   11  A    between atoms: C24_30  and  O7_31
REMARK   12  A    between atoms: O7_31  and  C25_32
REMARK   13  A    between atoms: C26_33  and  O8_34
REMARK                            x       y       z     vdW  Elec       q    Type
REMARK                         _______ _______ _______ _____ _____    ______ ____
ROOT
ATOM      1  C5  UNL     1      27.786  -8.611 -37.854  0.00  0.00    +0.000 C 
ATOM      2  O2  UNL     1      26.711  -8.509 -38.793  0.00  0.00    +0.000 OA
ATOM      3  C6  UNL     1      26.867  -8.901 -40.125  0.00  0.00    +0.000 A 
ATOM      4  C7  UNL     1      25.912  -8.554 -41.082  0.00  0.00    +0.000 A 
ATOM      5  C8  UNL     1      26.099  -8.918 -42.425  0.00  0.00    +0.000 A 
ATOM      6  C17 UNL     1      27.239  -9.652 -42.792  0.00  0.00    +0.000 A 
ATOM      7  C18 UNL     1      28.197 -10.019 -41.826  0.00  0.00    +0.000 A 
ATOM      8  C20 UNL     1      27.993  -9.648 -40.491  0.00  0.00    +0.000 A 
ATOM      9  O5  UNL     1      28.909 -10.021 -39.501  0.00  0.00    +0.000 OA
ATOM     10  C21 UNL     1      28.590  -9.913 -38.110  0.00  0.00    +0.000 C 
ENDROOT
BRANCH   1  13
ATOM     11  C2  UNL     1      27.582  -8.280 -34.048  0.00  0.00    +0.000 A 
ATOM     12  C3  UNL     1      28.092  -8.355 -35.356  0.00  0.00    +0.000 A 
ATOM     13  C4  UNL     1      27.235  -8.560 -36.448  0.00  0.00    +0.000 A 
ATOM     14  C23 UNL     1      25.854  -8.673 -36.225  0.00  0.00    +0.000 A 
ATOM     15  C24 UNL     1      25.329  -8.597 -34.922  0.00  0.00    +0.000 A 
ATOM     16  C26 UNL     1      26.202  -8.403 -33.837  0.00  0.00    +0.000 A 
BRANCH  11  18
ATOM     17  C1  UNL     1      29.456  -8.965 -32.538  0.00  0.00    +0.000 C 
ATOM     18  O1  UNL     1      28.413  -8.082 -32.933  0.00  0.00    +0.000 OA
ENDBRANCH  11  18
BRANCH  15  19
ATOM     19  O7  UNL     1      23.951  -8.708 -34.672  0.00  0.00    +0.000 OA
ATOM     20  C25 UNL     1      22.974  -7.759 -35.088  0.00  0.00    +0.000 C 
ENDBRANCH  15  19
BRANCH  16  21
ATOM     21  O8  UNL     1      25.710  -8.326 -32.532  0.00  0.00    +0.000 OA
ATOM     22  H28 UNL     1      26.278  -8.553 -31.725  0.00  0.00    +0.000 HD
ENDBRANCH  16  21
ENDBRANCH   1  13
BRANCH   7  23
ATOM     23  O4  UNL     1      29.348 -10.754 -42.149  0.00  0.00    +0.000 OA
ATOM     24  C19 UNL     1      30.383 -10.290 -43.010  0.00  0.00    +0.000 C 
ENDBRANCH   7  23
BRANCH   5  25
ATOM     25  C9  UNL     1      25.056  -8.571 -43.454  0.00  0.00    +0.000 C 
BRANCH  25  26
ATOM     26  C10 UNL     1      25.173  -7.099 -43.862  0.00  0.00    +0.000 C 
BRANCH  26  27
ATOM     27  C11 UNL     1      25.672  -6.979 -45.278  0.00  0.00    +0.000 C 
ATOM     28  C12 UNL     1      24.690  -6.941 -46.384  0.00  0.00    +0.000 C 
ATOM     29  C13 UNL     1      25.080  -6.876 -47.657  0.00  0.00    +0.000 C 
ATOM     30  C14 UNL     1      26.509  -6.842 -47.998  0.00  0.00    +0.000 C 
ATOM     31  O3  UNL     1      26.856  -6.780 -49.207  0.00  0.00    +0.000 OA
ATOM     32  C15 UNL     1      27.562  -6.878 -46.924  0.00  0.00    +0.000 C 
ATOM     33  C16 UNL     1      26.992  -6.971 -45.532  0.00  0.00    +0.000 C 
ENDBRANCH  26  27
ENDBRANCH  25  26
ENDBRANCH   5  25
BRANCH  10  34
ATOM     34  C22 UNL     1      29.882  -9.991 -37.282  0.00  0.00    +0.000 C 
BRANCH  34  35
ATOM     35  O6  UNL     1      30.953 -10.460 -38.058  0.00  0.00    +0.000 OA
ATOM     36  H23 UNL     1      30.691 -11.355 -38.397  0.00  0.00    +0.000 HD
ENDBRANCH  34  35
ENDBRANCH  10  34
TORSDOF 10
ENDMDL
MODEL 9
REMARK VINA RESULT:    -6.236      3.119      5.285
REMARK INTER + INTRA:         -10.118
REMARK INTER:                  -9.121
REMARK INTRA:                  -0.997
REMARK UNBOUND:                -0.602
REMARK  Name = resultss/4CJN/ligands/lig_331_t2.pdb
REMARK  13 active torsions:
REMARK  status: ('A' for Active; 'I' for Inactive)
REMARK    1  A    between atoms: C1_1  and  O1_2
REMARK    2  A    between atoms: O1_2  and  C2_3
REMARK    3  A    between atoms: C4_5  and  C5_6
REMARK    4  A    between atoms: C8_10  and  C9_11
REMARK    5  A    between atoms: C9_11  and  C10_12
REMARK    6  A    between atoms: C10_12  and  C11_13
REMARK    7  A    between atoms: C18_21  and  O4_22
REMARK    8  A    between atoms: O4_22  and  C19_23
REMARK    9  A    between atoms: C21_26  and  C22_27
REMARK   10  A    between atoms: C22_27  and  O6_28
REMARK   11  A    between atoms: C24_30  and  O7_31
REMARK   12  A    between atoms: O7_31  and  C25_32
REMARK   13  A    between atoms: C26_33  and  O8_34
REMARK                            x       y       z     vdW  Elec       q    Type
REMARK                         _______ _______ _______ _____ _____    ______ ____
ROOT
ATOM      1  C5  UNL     1      27.068  -8.257 -37.423  0.00  0.00    +0.000 C 
ATOM      2  O2  UNL     1      26.144  -8.157 -38.512  0.00  0.00    +0.000 OA
ATOM      3  C6  UNL     1      26.412  -8.742 -39.752  0.00  0.00    +0.000 A 
ATOM      4  C7  UNL     1      25.642  -8.418 -40.870  0.00  0.00    +0.000 A 
ATOM      5  C8  UNL     1      25.946  -8.980 -42.120  0.00  0.00    +0.000 A 
ATOM      6  C17 UNL     1      27.014  -9.889 -42.230  0.00  0.00    +0.000 A 
ATOM      7  C18 UNL     1      27.782 -10.232 -41.100  0.00  0.00    +0.000 A 
ATOM      8  C20 UNL     1      27.464  -9.661 -39.862  0.00  0.00    +0.000 A 
ATOM      9  O5  UNL     1      28.187 -10.002 -38.714  0.00  0.00    +0.000 OA
ATOM     10  C21 UNL     1      27.712  -9.668 -37.405  0.00  0.00    +0.000 C 
ENDROOT
BRANCH   1  13
ATOM     11  C2  UNL     1      24.321  -7.955 -34.778  0.00  0.00    +0.000 A 
ATOM     12  C3  UNL     1      24.984  -8.214 -35.991  0.00  0.00    +0.000 A 
ATOM     13  C4  UNL     1      26.355  -7.950 -36.127  0.00  0.00    +0.000 A 
ATOM     14  C23 UNL     1      27.069  -7.440 -35.031  0.00  0.00    +0.000 A 
ATOM     15  C24 UNL     1      26.420  -7.180 -33.810  0.00  0.00    +0.000 A 
ATOM     16  C26 UNL     1      25.042  -7.438 -33.693  0.00  0.00    +0.000 A 
BRANCH  11  18
ATOM     17  C1  UNL     1      21.912  -7.394 -35.157  0.00  0.00    +0.000 C 
ATOM     18  O1  UNL     1      22.948  -8.202 -34.610  0.00  0.00    +0.000 OA
ENDBRANCH  11  18
BRANCH  15  19
ATOM     19  O7  UNL     1      27.110  -6.669 -32.699  0.00  0.00    +0.000 OA
ATOM     20  C25 UNL     1      27.948  -7.439 -31.843  0.00  0.00    +0.000 C 
ENDBRANCH  15  19
BRANCH  16  21
ATOM     21  O8  UNL     1      24.370  -7.187 -32.495  0.00  0.00    +0.000 OA
ATOM     22  H28 UNL     1      24.851  -7.128 -31.606  0.00  0.00    +0.000 HD
ENDBRANCH  16  21
ENDBRANCH   1  13
BRANCH   7  23
ATOM     23  O4  UNL     1      28.853 -11.135 -41.166  0.00  0.00    +0.000 OA
ATOM     24  C19 UNL     1      30.169 -10.794 -41.593  0.00  0.00    +0.000 C 
ENDBRANCH   7  23
BRANCH   5  25
ATOM     25  C9  UNL     1      25.100  -8.655 -43.321  0.00  0.00    +0.000 C 
BRANCH  25  26
ATOM     26  C10 UNL     1      25.261  -7.182 -43.709  0.00  0.00    +0.000 C 
BRANCH  26  27
ATOM     27  C11 UNL     1      25.732  -7.057 -45.134  0.00  0.00    +0.000 C 
ATOM     28  C12 UNL     1      24.728  -7.000 -46.220  0.00  0.00    +0.000 C 
ATOM     29  C13 UNL     1      25.093  -6.930 -47.500  0.00  0.00    +0.000 C 
ATOM     30  C14 UNL     1      26.515  -6.909 -47.870  0.00  0.00    +0.000 C 
ATOM     31  O3  UNL     1      26.838  -6.842 -49.085  0.00  0.00    +0.000 OA
ATOM     32  C15 UNL     1      27.589  -6.965 -46.818  0.00  0.00    +0.000 C 
ATOM     33  C16 UNL     1      27.047  -7.061 -45.415  0.00  0.00    +0.000 C 
ENDBRANCH  26  27
ENDBRANCH  25  26
ENDBRANCH   5  25
BRANCH  10  34
ATOM     34  C22 UNL     1      28.866  -9.786 -36.398  0.00  0.00    +0.000 C 
BRANCH  34  35
ATOM     35  O6  UNL     1      29.878  -8.853 -36.674  0.00  0.00    +0.000 OA
ATOM     36  H23 UNL     1      30.733  -9.266 -36.387  0.00  0.00    +0.000 HD
ENDBRANCH  34  35
ENDBRANCH  10  34
TORSDOF 10
ENDMDL
