MODEL 1
REMARK VINA RESULT:    -5.347      0.000      0.000
REMARK INTER + INTRA:         -10.511
REMARK INTER:                  -8.785
REMARK INTRA:                  -1.726
REMARK UNBOUND:                -1.726
REMARK  Name = resultss/4CJN/ligands/lig_115_t0.pdb
REMARK  13 active torsions:
REMARK  status: ('A' for Active; 'I' for Inactive)
REMARK    1  A    between atoms: O1_1  and  C1_2
REMARK    2  A    between atoms: C1_2  and  C2_3
REMARK    3  A    between atoms: C3_4  and  O2_5
REMARK    4  A    between atoms: C4_6  and  O3_7
REMARK    5  A    between atoms: C5_8  and  O4_9
REMARK    6  A    between atoms: N1_11  and  C7_12
REMARK    7  A    between atoms: C7_12  and  C8_13
REMARK    8  A    between atoms: C8_13  and  C9_14
REMARK    9  A    between atoms: C9_14  and  C10_15
REMARK   10  A    between atoms: C10_15  and  C11_16
REMARK   11  A    between atoms: C11_16  and  O5_17
REMARK   12  A    between atoms: O5_17  and  C12_18
REMARK   13  A    between atoms: C12_18  and  C13_19
REMARK                            x       y       z     vdW  Elec       q    Type
REMARK                         _______ _______ _______ _____ _____    ______ ____
ROOT
ATOM      1  C7  UNL     1      28.494  -7.683 -39.128  0.00  0.00    +0.000 C 
ENDROOT
BRANCH   1   7
ATOM      2  C2  UNL     1      28.024  -9.302 -40.983  0.00  0.00    +0.000 C 
ATOM      3  C3  UNL     1      26.950  -9.764 -42.000  0.00  0.00    +0.000 C 
ATOM      4  C4  UNL     1      25.607 -10.073 -41.315  0.00  0.00    +0.000 C 
ATOM      5  C5  UNL     1      25.143  -8.867 -40.488  0.00  0.00    +0.000 C 
ATOM      6  C6  UNL     1      26.222  -8.473 -39.470  0.00  0.00    +0.000 C 
ATOM      7  N1  UNL     1      27.519  -8.187 -40.123  0.00  0.00    +0.000 NA
BRANCH   3   8
ATOM      8  O2  UNL     1      26.775  -8.752 -42.962  0.00  0.00    +0.000 OA
ATOM      9  H6  UNL     1      26.120  -8.104 -42.592  0.00  0.00    +0.000 HD
ENDBRANCH   3   8
BRANCH   4  10
ATOM     10  O3  UNL     1      24.650 -10.385 -42.294  0.00  0.00    +0.000 OA
ATOM     11  H8  UNL     1      23.888  -9.761 -42.169  0.00  0.00    +0.000 HD
ENDBRANCH   4  10
BRANCH   5  12
ATOM     12  O4  UNL     1      23.956  -9.195 -39.811  0.00  0.00    +0.000 OA
ATOM     13  H10 UNL     1      23.209  -8.818 -40.345  0.00  0.00    +0.000 HD
ENDBRANCH   5  12
BRANCH   2  14
ATOM     14  C1  UNL     1      28.680 -10.488 -40.223  0.00  0.00    +0.000 C 
BRANCH  14  15
ATOM     15  O1  UNL     1      30.074 -10.498 -40.361  0.00  0.00    +0.000 OA
ATOM     16  H1  UNL     1      30.432  -9.964 -39.605  0.00  0.00    +0.000 HD
ENDBRANCH  14  15
ENDBRANCH   2  14
ENDBRANCH   1   7
BRANCH   1  17
ATOM     17  C8  UNL     1      27.805  -7.080 -37.890  0.00  0.00    +0.000 C 
BRANCH  17  18
ATOM     18  C9  UNL     1      28.391  -7.630 -36.575  0.00  0.00    +0.000 C 
BRANCH  18  19
ATOM     19  C10 UNL     1      29.001  -9.036 -36.729  0.00  0.00    +0.000 C 
BRANCH  19  20
ATOM     20  C11 UNL     1      28.450 -10.025 -35.690  0.00  0.00    +0.000 C 
BRANCH  20  21
ATOM     21  O5  UNL     1      27.036 -10.031 -35.699  0.00  0.00    +0.000 OA
BRANCH  21  22
ATOM     22  C12 UNL     1      26.496  -9.824 -34.403  0.00  0.00    +0.000 C 
BRANCH  22  23
ATOM     23  C13 UNL     1      25.375  -8.758 -34.438  0.00  0.00    +0.000 C 
ATOM     24  C14 UNL     1      24.866  -8.545 -35.893  0.00  0.00    +0.000 C 
ATOM     25  C15 UNL     1      23.760  -7.467 -35.916  0.00  0.00    +0.000 C 
ATOM     26  C16 UNL     1      22.584  -7.919 -35.024  0.00  0.00    +0.000 C 
ATOM     27  C17 UNL     1      23.076  -8.113 -33.574  0.00  0.00    +0.000 C 
ATOM     28  C18 UNL     1      23.644  -6.780 -33.041  0.00  0.00    +0.000 C 
ATOM     29  C19 UNL     1      24.823  -6.329 -33.931  0.00  0.00    +0.000 C 
ATOM     30  C20 UNL     1      24.330  -6.136 -35.381  0.00  0.00    +0.000 C 
ATOM     31  C21 UNL     1      25.928  -7.406 -33.902  0.00  0.00    +0.000 C 
ATOM     32  C22 UNL     1      24.178  -9.195 -33.546  0.00  0.00    +0.000 C 
ENDBRANCH  22  23
ENDBRANCH  21  22
ENDBRANCH  20  21
ENDBRANCH  19  20
ENDBRANCH  18  19
ENDBRANCH  17  18
ENDBRANCH   1  17
TORSDOF 13
ENDMDL
MODEL 2
REMARK VINA RESULT:    -5.062      1.647      4.306
REMARK INTER + INTRA:         -10.043
REMARK INTER:                  -8.287
REMARK INTRA:                  -1.756
REMARK UNBOUND:                -1.726
REMARK  Name = resultss/4CJN/ligands/lig_115_t0.pdb
REMARK  13 active torsions:
REMARK  status: ('A' for Active; 'I' for Inactive)
REMARK    1  A    between atoms: O1_1  and  C1_2
REMARK    2  A    between atoms: C1_2  and  C2_3
REMARK    3  A    between atoms: C3_4  and  O2_5
REMARK    4  A    between atoms: C4_6  and  O3_7
REMARK    5  A    between atoms: C5_8  and  O4_9
REMARK    6  A    between atoms: N1_11  and  C7_12
REMARK    7  A    between atoms: C7_12  and  C8_13
REMARK    8  A    between atoms: C8_13  and  C9_14
REMARK    9  A    between atoms: C9_14  and  C10_15
REMARK   10  A    between atoms: C10_15  and  C11_16
REMARK   11  A    between atoms: C11_16  and  O5_17
REMARK   12  A    between atoms: O5_17  and  C12_18
REMARK   13  A    between atoms: C12_18  and  C13_19
REMARK                            x       y       z     vdW  Elec       q    Type
REMARK                         _______ _______ _______ _____ _____    ______ ____
ROOT
ATOM      1  C7  UNL     1      25.376  -8.032 -39.304  0.00  0.00    +0.000 C 
ENDROOT
BRANCH   1   7
ATOM      2  C2  UNL     1      26.442 -10.053 -40.337  0.00  0.00    +0.000 C 
ATOM      3  C3  UNL     1      27.750 -10.880 -40.409  0.00  0.00    +0.000 C 
ATOM      4  C4  UNL     1      28.968 -10.001 -40.742  0.00  0.00    +0.000 C 
ATOM      5  C5  UNL     1      29.070  -8.837 -39.746  0.00  0.00    +0.000 C 
ATOM      6  C6  UNL     1      27.767  -8.026 -39.740  0.00  0.00    +0.000 C 
ATOM      7  N1  UNL     1      26.591  -8.871 -39.433  0.00  0.00    +0.000 NA
BRANCH   3   8
ATOM      8  O2  UNL     1      27.947 -11.522 -39.171  0.00  0.00    +0.000 OA
ATOM      9  H6  UNL     1      27.309 -11.119 -38.526  0.00  0.00    +0.000 HD
ENDBRANCH   3   8
BRANCH   4  10
ATOM     10  O3  UNL     1      30.132 -10.784 -40.691  0.00  0.00    +0.000 OA
ATOM     11  H8  UNL     1      29.892 -11.687 -41.026  0.00  0.00    +0.000 HD
ENDBRANCH   4  10
BRANCH   5  12
ATOM     12  O4  UNL     1      30.140  -8.004 -40.112  0.00  0.00    +0.000 OA
ATOM     13  H10 UNL     1      30.749  -8.551 -40.674  0.00  0.00    +0.000 HD
ENDBRANCH   5  12
BRANCH   2  14
ATOM     14  C1  UNL     1      25.844  -9.752 -41.739  0.00  0.00    +0.000 C 
BRANCH  14  15
ATOM     15  O1  UNL     1      24.610 -10.383 -41.936  0.00  0.00    +0.000 OA
ATOM     16  H1  UNL     1      24.400 -10.854 -41.087  0.00  0.00    +0.000 HD
ENDBRANCH  14  15
ENDBRANCH   2  14
ENDBRANCH   1   7
BRANCH   1  17
ATOM     17  C8  UNL     1      25.258  -7.386 -37.912  0.00  0.00    +0.000 C 
BRANCH  17  18
ATOM     18  C9  UNL     1      24.256  -8.132 -37.010  0.00  0.00    +0.000 C 
BRANCH  18  19
ATOM     19  C10 UNL     1      23.521  -7.200 -36.027  0.00  0.00    +0.000 C 
BRANCH  19  20
ATOM     20  C11 UNL     1      23.156  -7.911 -34.715  0.00  0.00    +0.000 C 
BRANCH  20  21
ATOM     21  O5  UNL     1      24.225  -8.719 -34.264  0.00  0.00    +0.000 OA
BRANCH  21  22
ATOM     22  C12 UNL     1      25.122  -7.996 -33.435  0.00  0.00    +0.000 C 
BRANCH  22  23
ATOM     23  C13 UNL     1      26.587  -8.225 -33.879  0.00  0.00    +0.000 C 
ATOM     24  C14 UNL     1      26.732  -9.593 -34.606  0.00  0.00    +0.000 C 
ATOM     25  C15 UNL     1      28.201  -9.817 -35.029  0.00  0.00    +0.000 C 
ATOM     26  C16 UNL     1      28.640  -8.683 -35.980  0.00  0.00    +0.000 C 
ATOM     27  C17 UNL     1      28.519  -7.323 -35.259  0.00  0.00    +0.000 C 
ATOM     28  C18 UNL     1      29.421  -7.324 -34.006  0.00  0.00    +0.000 C 
ATOM     29  C19 UNL     1      28.980  -8.456 -33.053  0.00  0.00    +0.000 C 
ATOM     30  C20 UNL     1      29.101  -9.815 -33.775  0.00  0.00    +0.000 C 
ATOM     31  C21 UNL     1      27.513  -8.227 -32.629  0.00  0.00    +0.000 C 
ATOM     32  C22 UNL     1      27.050  -7.094 -34.840  0.00  0.00    +0.000 C 
ENDBRANCH  22  23
ENDBRANCH  21  22
ENDBRANCH  20  21
ENDBRANCH  19  20
ENDBRANCH  18  19
ENDBRANCH  17  18
ENDBRANCH   1  17
TORSDOF 13
ENDMDL
MODEL 3
REMARK VINA RESULT:    -5.060      3.875      9.395
REMARK INTER + INTRA:         -10.040
REMARK INTER:                  -9.355
REMARK INTRA:                  -0.685
REMARK UNBOUND:                -1.726
REMARK  Name = resultss/4CJN/ligands/lig_115_t0.pdb
REMARK  13 active torsions:
REMARK  status: ('A' for Active; 'I' for Inactive)
REMARK    1  A    between atoms: O1_1  and  C1_2
REMARK    2  A    between atoms: C1_2  and  C2_3
REMARK    3  A    between atoms: C3_4  and  O2_5
REMARK    4  A    between atoms: C4_6  and  O3_7
REMARK    5  A    between atoms: C5_8  and  O4_9
REMARK    6  A    between atoms: N1_11  and  C7_12
REMARK    7  A    between atoms: C7_12  and  C8_13
REMARK    8  A    between atoms: C8_13  and  C9_14
REMARK    9  A    between atoms: C9_14  and  C10_15
REMARK   10  A    between atoms: C10_15  and  C11_16
REMARK   11  A    between atoms: C11_16  and  O5_17
REMARK   12  A    between atoms: O5_17  and  C12_18
REMARK   13  A    between atoms: C12_18  and  C13_19
REMARK                            x       y       z     vdW  Elec       q    Type
REMARK                         _______ _______ _______ _____ _____    ______ ____
ROOT
ATOM      1  C7  UNL     1      28.786  -8.703 -36.133  0.00  0.00    +0.000 C 
ENDROOT
BRANCH   1   7
ATOM      2  C2  UNL     1      27.136  -9.048 -34.278  0.00  0.00    +0.000 C 
ATOM      3  C3  UNL     1      25.651  -9.360 -33.965  0.00  0.00    +0.000 C 
ATOM      4  C4  UNL     1      24.695  -8.414 -34.712  0.00  0.00    +0.000 C 
ATOM      5  C5  UNL     1      24.990  -8.443 -36.218  0.00  0.00    +0.000 C 
ATOM      6  C6  UNL     1      26.461  -8.090 -36.479  0.00  0.00    +0.000 C 
ATOM      7  N1  UNL     1      27.383  -8.990 -35.751  0.00  0.00    +0.000 NA
BRANCH   3   8
ATOM      8  O2  UNL     1      25.384 -10.694 -34.327  0.00  0.00    +0.000 OA
ATOM      9  H6  UNL     1      25.923 -10.892 -35.136  0.00  0.00    +0.000 HD
ENDBRANCH   3   8
BRANCH   4  10
ATOM     10  O3  UNL     1      23.370  -8.809 -34.471  0.00  0.00    +0.000 OA
ATOM     11  H8  UNL     1      22.903  -8.817 -35.347  0.00  0.00    +0.000 HD
ENDBRANCH   4  10
BRANCH   5  12
ATOM     12  O4  UNL     1      24.160  -7.518 -36.872  0.00  0.00    +0.000 OA
ATOM     13  H10 UNL     1      24.573  -7.340 -37.758  0.00  0.00    +0.000 HD
ENDBRANCH   5  12
BRANCH   2  14
ATOM     14  C1  UNL     1      27.682  -7.846 -33.459  0.00  0.00    +0.000 C 
BRANCH  14  15
ATOM     15  O1  UNL     1      26.985  -7.661 -32.259  0.00  0.00    +0.000 OA
ATOM     16  H1  UNL     1      26.927  -8.555 -31.831  0.00  0.00    +0.000 HD
ENDBRANCH  14  15
ENDBRANCH   2  14
ENDBRANCH   1   7
BRANCH   1  17
ATOM     17  C8  UNL     1      28.979  -8.667 -37.660  0.00  0.00    +0.000 C 
BRANCH  17  18
ATOM     18  C9  UNL     1      29.896  -9.804 -38.155  0.00  0.00    +0.000 C 
BRANCH  18  19
ATOM     19  C10 UNL     1      30.147  -9.755 -39.675  0.00  0.00    +0.000 C 
BRANCH  19  20
ATOM     20  C11 UNL     1      29.013 -10.417 -40.472  0.00  0.00    +0.000 C 
BRANCH  20  21
ATOM     21  O5  UNL     1      29.521 -11.099 -41.601  0.00  0.00    +0.000 OA
BRANCH  21  22
ATOM     22  C12 UNL     1      30.256 -10.237 -42.456  0.00  0.00    +0.000 C 
BRANCH  22  23
ATOM     23  C13 UNL     1      31.521 -10.945 -42.997  0.00  0.00    +0.000 C 
ATOM     24  C14 UNL     1      32.763 -10.585 -42.132  0.00  0.00    +0.000 C 
ATOM     25  C15 UNL     1      34.021 -11.285 -42.693  0.00  0.00    +0.000 C 
ATOM     26  C16 UNL     1      33.810 -12.814 -42.673  0.00  0.00    +0.000 C 
ATOM     27  C17 UNL     1      32.591 -13.182 -43.547  0.00  0.00    +0.000 C 
ATOM     28  C18 UNL     1      32.838 -12.713 -44.997  0.00  0.00    +0.000 C 
ATOM     29  C19 UNL     1      33.046 -11.184 -45.018  0.00  0.00    +0.000 C 
ATOM     30  C20 UNL     1      34.265 -10.817 -44.143  0.00  0.00    +0.000 C 
ATOM     31  C21 UNL     1      31.785 -10.488 -44.460  0.00  0.00    +0.000 C 
ATOM     32  C22 UNL     1      31.330 -12.489 -42.985  0.00  0.00    +0.000 C 
ENDBRANCH  22  23
ENDBRANCH  21  22
ENDBRANCH  20  21
ENDBRANCH  19  20
ENDBRANCH  18  19
ENDBRANCH  17  18
ENDBRANCH   1  17
TORSDOF 13
ENDMDL
MODEL 4
REMARK VINA RESULT:    -5.001      2.217      7.549
REMARK INTER + INTRA:          -9.943
REMARK INTER:                  -8.258
REMARK INTRA:                  -1.685
REMARK UNBOUND:                -1.726
REMARK  Name = resultss/4CJN/ligands/lig_115_t0.pdb
REMARK  13 active torsions:
REMARK  status: ('A' for Active; 'I' for Inactive)
REMARK    1  A    between atoms: O1_1  and  C1_2
REMARK    2  A    between atoms: C1_2  and  C2_3
REMARK    3  A    between atoms: C3_4  and  O2_5
REMARK    4  A    between atoms: C4_6  and  O3_7
REMARK    5  A    between atoms: C5_8  and  O4_9
REMARK    6  A    between atoms: N1_11  and  C7_12
REMARK    7  A    between atoms: C7_12  and  C8_13
REMARK    8  A    between atoms: C8_13  and  C9_14
REMARK    9  A    between atoms: C9_14  and  C10_15
REMARK   10  A    between atoms: C10_15  and  C11_16
REMARK   11  A    between atoms: C11_16  and  O5_17
REMARK   12  A    between atoms: O5_17  and  C12_18
REMARK   13  A    between atoms: C12_18  and  C13_19
REMARK                            x       y       z     vdW  Elec       q    Type
REMARK                         _______ _______ _______ _____ _____    ______ ____
ROOT
ATOM      1  C7  UNL     1      25.855  -7.955 -37.833  0.00  0.00    +0.000 C 
ENDROOT
BRANCH   1   7
ATOM      2  C2  UNL     1      26.439  -8.682 -35.506  0.00  0.00    +0.000 C 
ATOM      3  C3  UNL     1      25.851  -9.219 -34.177  0.00  0.00    +0.000 C 
ATOM      4  C4  UNL     1      24.687  -8.350 -33.671  0.00  0.00    +0.000 C 
ATOM      5  C5  UNL     1      23.618  -8.207 -34.764  0.00  0.00    +0.000 C 
ATOM      6  C6  UNL     1      24.240  -7.636 -36.045  0.00  0.00    +0.000 C 
ATOM      7  N1  UNL     1      25.369  -8.462 -36.527  0.00  0.00    +0.000 NA
BRANCH   3   8
ATOM      8  O2  UNL     1      25.410 -10.540 -34.380  0.00  0.00    +0.000 OA
ATOM      9  H6  UNL     1      25.833 -11.102 -33.680  0.00  0.00    +0.000 HD
ENDBRANCH   3   8
BRANCH   4  10
ATOM     10  O3  UNL     1      24.131  -8.941 -32.525  0.00  0.00    +0.000 OA
ATOM     11  H8  UNL     1      24.679  -8.650 -31.751  0.00  0.00    +0.000 HD
ENDBRANCH   4  10
BRANCH   5  12
ATOM     12  O4  UNL     1      22.602  -7.349 -34.311  0.00  0.00    +0.000 OA
ATOM     13  H10 UNL     1      23.029  -6.700 -33.694  0.00  0.00    +0.000 HD
ENDBRANCH   5  12
BRANCH   2  14
ATOM     14  C1  UNL     1      27.416  -7.492 -35.293  0.00  0.00    +0.000 C 
BRANCH  14  15
ATOM     15  O1  UNL     1      28.726  -7.808 -35.673  0.00  0.00    +0.000 OA
ATOM     16  H1  UNL     1      28.694  -8.002 -36.646  0.00  0.00    +0.000 HD
ENDBRANCH  14  15
ENDBRANCH   2  14
ENDBRANCH   1   7
BRANCH   1  17
ATOM     17  C8  UNL     1      25.099  -8.582 -39.019  0.00  0.00    +0.000 C 
BRANCH  17  18
ATOM     18  C9  UNL     1      24.653  -7.523 -40.046  0.00  0.00    +0.000 C 
BRANCH  18  19
ATOM     19  C10 UNL     1      23.880  -8.126 -41.235  0.00  0.00    +0.000 C 
BRANCH  19  20
ATOM     20  C11 UNL     1      24.507  -7.747 -42.586  0.00  0.00    +0.000 C 
BRANCH  20  21
ATOM     21  O5  UNL     1      25.496  -8.683 -42.964  0.00  0.00    +0.000 OA
BRANCH  21  22
ATOM     22  C12 UNL     1      26.759  -8.067 -43.169  0.00  0.00    +0.000 C 
BRANCH  22  23
ATOM     23  C13 UNL     1      27.835  -8.702 -42.257  0.00  0.00    +0.000 C 
ATOM     24  C14 UNL     1      29.131  -9.002 -43.065  0.00  0.00    +0.000 C 
ATOM     25  C15 UNL     1      30.191  -9.651 -42.147  0.00  0.00    +0.000 C 
ATOM     26  C16 UNL     1      30.523  -8.688 -40.987  0.00  0.00    +0.000 C 
ATOM     27  C17 UNL     1      29.247  -8.402 -40.167  0.00  0.00    +0.000 C 
ATOM     28  C18 UNL     1      28.694  -9.726 -39.597  0.00  0.00    +0.000 C 
ATOM     29  C19 UNL     1      28.358 -10.688 -40.757  0.00  0.00    +0.000 C 
ATOM     30  C20 UNL     1      29.635 -10.973 -41.576  0.00  0.00    +0.000 C 
ATOM     31  C21 UNL     1      27.295 -10.038 -41.670  0.00  0.00    +0.000 C 
ATOM     32  C22 UNL     1      28.186  -7.748 -41.080  0.00  0.00    +0.000 C 
ENDBRANCH  22  23
ENDBRANCH  21  22
ENDBRANCH  20  21
ENDBRANCH  19  20
ENDBRANCH  18  19
ENDBRANCH  17  18
ENDBRANCH   1  17
TORSDOF 13
ENDMDL
MODEL 5
REMARK VINA RESULT:    -4.823      2.227      6.843
REMARK INTER + INTRA:          -9.650
REMARK INTER:                  -8.288
REMARK INTRA:                  -1.362
REMARK UNBOUND:                -1.726
REMARK  Name = resultss/4CJN/ligands/lig_115_t0.pdb
REMARK  13 active torsions:
REMARK  status: ('A' for Active; 'I' for Inactive)
REMARK    1  A    between atoms: O1_1  and  C1_2
REMARK    2  A    between atoms: C1_2  and  C2_3
REMARK    3  A    between atoms: C3_4  and  O2_5
REMARK    4  A    between atoms: C4_6  and  O3_7
REMARK    5  A    between atoms: C5_8  and  O4_9
REMARK    6  A    between atoms: N1_11  and  C7_12
REMARK    7  A    between atoms: C7_12  and  C8_13
REMARK    8  A    between atoms: C8_13  and  C9_14
REMARK    9  A    between atoms: C9_14  and  C10_15
REMARK   10  A    between atoms: C10_15  and  C11_16
REMARK   11  A    between atoms: C11_16  and  O5_17
REMARK   12  A    between atoms: O5_17  and  C12_18
REMARK   13  A    between atoms: C12_18  and  C13_19
REMARK                            x       y       z     vdW  Elec       q    Type
REMARK                         _______ _______ _______ _____ _____    ______ ____
ROOT
ATOM      1  C7  UNL     1      27.835  -7.162 -35.770  0.00  0.00    +0.000 C 
ENDROOT
BRANCH   1   7
ATOM      2  C2  UNL     1      26.561  -8.378 -33.986  0.00  0.00    +0.000 C 
ATOM      3  C3  UNL     1      25.270  -9.184 -33.698  0.00  0.00    +0.000 C 
ATOM      4  C4  UNL     1      24.010  -8.435 -34.163  0.00  0.00    +0.000 C 
ATOM      5  C5  UNL     1      24.137  -8.052 -35.644  0.00  0.00    +0.000 C 
ATOM      6  C6  UNL     1      25.408  -7.222 -35.872  0.00  0.00    +0.000 C 
ATOM      7  N1  UNL     1      26.622  -7.934 -35.413  0.00  0.00    +0.000 NA
BRANCH   3   8
ATOM      8  O2  UNL     1      25.358 -10.427 -34.353  0.00  0.00    +0.000 OA
ATOM      9  H6  UNL     1      26.136 -10.908 -33.968  0.00  0.00    +0.000 HD
ENDBRANCH   3   8
BRANCH   4  10
ATOM     10  O3  UNL     1      22.886  -9.255 -33.971  0.00  0.00    +0.000 OA
ATOM     11  H8  UNL     1      22.131  -8.836 -34.459  0.00  0.00    +0.000 HD
ENDBRANCH   4  10
BRANCH   5  12
ATOM     12  O4  UNL     1      23.012  -7.304 -36.029  0.00  0.00    +0.000 OA
ATOM     13  H10 UNL     1      22.327  -7.954 -36.334  0.00  0.00    +0.000 HD
ENDBRANCH   5  12
BRANCH   2  14
ATOM     14  C1  UNL     1      26.826  -7.270 -32.929  0.00  0.00    +0.000 C 
BRANCH  14  15
ATOM     15  O1  UNL     1      27.269  -7.796 -31.710  0.00  0.00    +0.000 OA
ATOM     16  H1  UNL     1      27.437  -8.762 -31.868  0.00  0.00    +0.000 HD
ENDBRANCH  14  15
ENDBRANCH   2  14
ENDBRANCH   1   7
BRANCH   1  17
ATOM     17  C8  UNL     1      28.371  -7.531 -37.166  0.00  0.00    +0.000 C 
BRANCH  17  18
ATOM     18  C9  UNL     1      29.702  -8.304 -37.090  0.00  0.00    +0.000 C 
BRANCH  18  19
ATOM     19  C10 UNL     1      29.655  -9.657 -37.826  0.00  0.00    +0.000 C 
BRANCH  19  20
ATOM     20  C11 UNL     1      28.357 -10.427 -37.542  0.00  0.00    +0.000 C 
BRANCH  20  21
ATOM     21  O5  UNL     1      27.642 -10.671 -38.737  0.00  0.00    +0.000 OA
BRANCH  21  22
ATOM     22  C12 UNL     1      28.386 -10.295 -39.886  0.00  0.00    +0.000 C 
BRANCH  22  23
ATOM     23  C13 UNL     1      27.510  -9.477 -40.865  0.00  0.00    +0.000 C 
ATOM     24  C14 UNL     1      27.693  -7.951 -40.619  0.00  0.00    +0.000 C 
ATOM     25  C15 UNL     1      26.801  -7.147 -41.591  0.00  0.00    +0.000 C 
ATOM     26  C16 UNL     1      27.195  -7.481 -43.046  0.00  0.00    +0.000 C 
ATOM     27  C17 UNL     1      26.997  -8.991 -43.304  0.00  0.00    +0.000 C 
ATOM     28  C18 UNL     1      25.516  -9.361 -43.072  0.00  0.00    +0.000 C 
ATOM     29  C19 UNL     1      25.123  -9.030 -41.616  0.00  0.00    +0.000 C 
ATOM     30  C20 UNL     1      25.322  -7.521 -41.359  0.00  0.00    +0.000 C 
ATOM     31  C21 UNL     1      26.013  -9.839 -40.648  0.00  0.00    +0.000 C 
ATOM     32  C22 UNL     1      27.891  -9.798 -42.338  0.00  0.00    +0.000 C 
ENDBRANCH  22  23
ENDBRANCH  21  22
ENDBRANCH  20  21
ENDBRANCH  19  20
ENDBRANCH  18  19
ENDBRANCH  17  18
ENDBRANCH   1  17
TORSDOF 13
ENDMDL
MODEL 6
REMARK VINA RESULT:    -4.764      1.399      2.903
REMARK INTER + INTRA:          -9.552
REMARK INTER:                  -8.255
REMARK INTRA:                  -1.297
REMARK UNBOUND:                -1.726
REMARK  Name = resultss/4CJN/ligands/lig_115_t0.pdb
REMARK  13 active torsions:
REMARK  status: ('A' for Active; 'I' for Inactive)
REMARK    1  A    between atoms: O1_1  and  C1_2
REMARK    2  A    between atoms: C1_2  and  C2_3
REMARK    3  A    between atoms: C3_4  and  O2_5
REMARK    4  A    between atoms: C4_6  and  O3_7
REMARK    5  A    between atoms: C5_8  and  O4_9
REMARK    6  A    between atoms: N1_11  and  C7_12
REMARK    7  A    between atoms: C7_12  and  C8_13
REMARK    8  A    between atoms: C8_13  and  C9_14
REMARK    9  A    between atoms: C9_14  and  C10_15
REMARK   10  A    between atoms: C10_15  and  C11_16
REMARK   11  A    between atoms: C11_16  and  O5_17
REMARK   12  A    between atoms: O5_17  and  C12_18
REMARK   13  A    between atoms: C12_18  and  C13_19
REMARK                            x       y       z     vdW  Elec       q    Type
REMARK                         _______ _______ _______ _____ _____    ______ ____
ROOT
ATOM      1  C7  UNL     1      27.214  -9.811 -39.066  0.00  0.00    +0.000 C 
ENDROOT
BRANCH   1   7
ATOM      2  C2  UNL     1      25.166  -9.143 -40.347  0.00  0.00    +0.000 C 
ATOM      3  C3  UNL     1      24.527  -9.108 -41.758  0.00  0.00    +0.000 C 
ATOM      4  C4  UNL     1      25.456  -8.448 -42.793  0.00  0.00    +0.000 C 
ATOM      5  C5  UNL     1      26.826  -9.138 -42.792  0.00  0.00    +0.000 C 
ATOM      6  C6  UNL     1      27.435  -9.112 -41.383  0.00  0.00    +0.000 C 
ATOM      7  N1  UNL     1      26.538  -9.735 -40.383  0.00  0.00    +0.000 NA
BRANCH   3   8
ATOM      8  O2  UNL     1      24.232 -10.426 -42.153  0.00  0.00    +0.000 OA
ATOM      9  H6  UNL     1      23.245 -10.494 -42.238  0.00  0.00    +0.000 HD
ENDBRANCH   3   8
BRANCH   4  10
ATOM     10  O3  UNL     1      24.869  -8.537 -44.065  0.00  0.00    +0.000 OA
ATOM     11  H8  UNL     1      24.514  -7.638 -44.288  0.00  0.00    +0.000 HD
ENDBRANCH   4  10
BRANCH   5  12
ATOM     12  O4  UNL     1      27.682  -8.473 -43.686  0.00  0.00    +0.000 OA
ATOM     13  H10 UNL     1      28.603  -8.784 -43.485  0.00  0.00    +0.000 HD
ENDBRANCH   5  12
BRANCH   2  14
ATOM     14  C1  UNL     1      25.041  -7.787 -39.598  0.00  0.00    +0.000 C 
BRANCH  14  15
ATOM     15  O1  UNL     1      23.777  -7.208 -39.758  0.00  0.00    +0.000 OA
ATOM     16  H1  UNL     1      23.631  -7.123 -40.736  0.00  0.00    +0.000 HD
ENDBRANCH  14  15
ENDBRANCH   2  14
ENDBRANCH   1   7
BRANCH   1  17
ATOM     17  C8  UNL     1      28.525  -9.003 -39.036  0.00  0.00    +0.000 C 
BRANCH  17  18
ATOM     18  C9  UNL     1      29.117  -8.911 -37.616  0.00  0.00    +0.000 C 
BRANCH  18  19
ATOM     19  C10 UNL     1      28.451  -9.883 -36.623  0.00  0.00    +0.000 C 
BRANCH  19  20
ATOM     20  C11 UNL     1      28.970  -9.694 -35.189  0.00  0.00    +0.000 C 
BRANCH  20  21
ATOM     21  O5  UNL     1      27.912  -9.373 -34.307  0.00  0.00    +0.000 OA
BRANCH  21  22
ATOM     22  C12 UNL     1      26.665  -9.865 -34.773  0.00  0.00    +0.000 C 
BRANCH  22  23
ATOM     23  C13 UNL     1      25.556  -8.799 -34.606  0.00  0.00    +0.000 C 
ATOM     24  C14 UNL     1      24.518  -9.251 -33.539  0.00  0.00    +0.000 C 
ATOM     25  C15 UNL     1      23.407  -8.187 -33.394  0.00  0.00    +0.000 C 
ATOM     26  C16 UNL     1      24.036  -6.845 -32.960  0.00  0.00    +0.000 C 
ATOM     27  C17 UNL     1      25.052  -6.379 -34.025  0.00  0.00    +0.000 C 
ATOM     28  C18 UNL     1      24.332  -6.198 -35.378  0.00  0.00    +0.000 C 
ATOM     29  C19 UNL     1      23.707  -7.540 -35.814  0.00  0.00    +0.000 C 
ATOM     30  C20 UNL     1      22.691  -8.006 -34.749  0.00  0.00    +0.000 C 
ATOM     31  C21 UNL     1      24.820  -8.600 -35.962  0.00  0.00    +0.000 C 
ATOM     32  C22 UNL     1      26.167  -7.438 -34.168  0.00  0.00    +0.000 C 
ENDBRANCH  22  23
ENDBRANCH  21  22
ENDBRANCH  20  21
ENDBRANCH  19  20
ENDBRANCH  18  19
ENDBRANCH  17  18
ENDBRANCH   1  17
TORSDOF 13
ENDMDL
MODEL 7
REMARK VINA RESULT:    -4.730      1.690      3.795
REMARK INTER + INTRA:          -9.497
REMARK INTER:                  -7.773
REMARK INTRA:                  -1.724
REMARK UNBOUND:                -1.726
REMARK  Name = resultss/4CJN/ligands/lig_115_t0.pdb
REMARK  13 active torsions:
REMARK  status: ('A' for Active; 'I' for Inactive)
REMARK    1  A    between atoms: O1_1  and  C1_2
REMARK    2  A    between atoms: C1_2  and  C2_3
REMARK    3  A    between atoms: C3_4  and  O2_5
REMARK    4  A    between atoms: C4_6  and  O3_7
REMARK    5  A    between atoms: C5_8  and  O4_9
REMARK    6  A    between atoms: N1_11  and  C7_12
REMARK    7  A    between atoms: C7_12  and  C8_13
REMARK    8  A    between atoms: C8_13  and  C9_14
REMARK    9  A    between atoms: C9_14  and  C10_15
REMARK   10  A    between atoms: C10_15  and  C11_16
REMARK   11  A    between atoms: C11_16  and  O5_17
REMARK   12  A    between atoms: O5_17  and  C12_18
REMARK   13  A    between atoms: C12_18  and  C13_19
REMARK                            x       y       z     vdW  Elec       q    Type
REMARK                         _______ _______ _______ _____ _____    ______ ____
ROOT
ATOM      1  C7  UNL     1      25.036  -8.473 -38.097  0.00  0.00    +0.000 C 
ENDROOT
BRANCH   1   7
ATOM      2  C2  UNL     1      26.992  -8.853 -39.618  0.00  0.00    +0.000 C 
ATOM      3  C3  UNL     1      27.455  -8.815 -41.096  0.00  0.00    +0.000 C 
ATOM      4  C4  UNL     1      26.515  -9.619 -42.013  0.00  0.00    +0.000 C 
ATOM      5  C5  UNL     1      25.068  -9.136 -41.844  0.00  0.00    +0.000 C 
ATOM      6  C6  UNL     1      24.644  -9.230 -40.372  0.00  0.00    +0.000 C 
ATOM      7  N1  UNL     1      25.553  -8.469 -39.486  0.00  0.00    +0.000 NA
BRANCH   3   8
ATOM      8  O2  UNL     1      27.504  -7.474 -41.520  0.00  0.00    +0.000 OA
ATOM      9  H6  UNL     1      27.653  -7.481 -42.501  0.00  0.00    +0.000 HD
ENDBRANCH   3   8
BRANCH   4  10
ATOM     10  O3  UNL     1      26.925  -9.463 -43.347  0.00  0.00    +0.000 OA
ATOM     11  H8  UNL     1      26.425  -8.691 -43.718  0.00  0.00    +0.000 HD
ENDBRANCH   4  10
BRANCH   5  12
ATOM     12  O4  UNL     1      24.218  -9.931 -42.630  0.00  0.00    +0.000 OA
ATOM     13  H10 UNL     1      23.347  -9.974 -42.156  0.00  0.00    +0.000 HD
ENDBRANCH   5  12
BRANCH   2  14
ATOM     14  C1  UNL     1      27.403 -10.165 -38.894  0.00  0.00    +0.000 C 
BRANCH  14  15
ATOM     15  O1  UNL     1      28.632 -10.658 -39.348  0.00  0.00    +0.000 OA
ATOM     16  H1  UNL     1      28.545 -11.647 -39.369  0.00  0.00    +0.000 HD
ENDBRANCH  14  15
ENDBRANCH   2  14
ENDBRANCH   1   7
BRANCH   1  17
ATOM     17  C8  UNL     1      25.237  -7.116 -37.396  0.00  0.00    +0.000 C 
BRANCH  17  18
ATOM     18  C9  UNL     1      23.968  -6.653 -36.655  0.00  0.00    +0.000 C 
BRANCH  18  19
ATOM     19  C10 UNL     1      23.223  -7.808 -35.958  0.00  0.00    +0.000 C 
BRANCH  19  20
ATOM     20  C11 UNL     1      23.228  -7.661 -34.428  0.00  0.00    +0.000 C 
BRANCH  20  21
ATOM     21  O5  UNL     1      24.284  -8.404 -33.853  0.00  0.00    +0.000 OA
BRANCH  21  22
ATOM     22  C12 UNL     1      25.251  -7.565 -33.241  0.00  0.00    +0.000 C 
BRANCH  22  23
ATOM     23  C13 UNL     1      26.675  -7.914 -33.735  0.00  0.00    +0.000 C 
ATOM     24  C14 UNL     1      27.259  -6.752 -34.590  0.00  0.00    +0.000 C 
ATOM     25  C15 UNL     1      28.673  -7.119 -35.091  0.00  0.00    +0.000 C 
ATOM     26  C16 UNL     1      29.596  -7.377 -33.880  0.00  0.00    +0.000 C 
ATOM     27  C17 UNL     1      29.035  -8.543 -33.038  0.00  0.00    +0.000 C 
ATOM     28  C18 UNL     1      28.959  -9.816 -33.909  0.00  0.00    +0.000 C 
ATOM     29  C19 UNL     1      28.033  -9.560 -35.118  0.00  0.00    +0.000 C 
ATOM     30  C20 UNL     1      28.595  -8.393 -35.959  0.00  0.00    +0.000 C 
ATOM     31  C21 UNL     1      26.620  -9.197 -34.613  0.00  0.00    +0.000 C 
ATOM     32  C22 UNL     1      27.623  -8.176 -32.530  0.00  0.00    +0.000 C 
ENDBRANCH  22  23
ENDBRANCH  21  22
ENDBRANCH  20  21
ENDBRANCH  19  20
ENDBRANCH  18  19
ENDBRANCH  17  18
ENDBRANCH   1  17
TORSDOF 13
ENDMDL
MODEL 8
REMARK VINA RESULT:    -4.690      2.788      6.632
REMARK INTER + INTRA:          -9.432
REMARK INTER:                  -7.816
REMARK INTRA:                  -1.616
REMARK UNBOUND:                -1.726
REMARK  Name = resultss/4CJN/ligands/lig_115_t0.pdb
REMARK  13 active torsions:
REMARK  status: ('A' for Active; 'I' for Inactive)
REMARK    1  A    between atoms: O1_1  and  C1_2
REMARK    2  A    between atoms: C1_2  and  C2_3
REMARK    3  A    between atoms: C3_4  and  O2_5
REMARK    4  A    between atoms: C4_6  and  O3_7
REMARK    5  A    between atoms: C5_8  and  O4_9
REMARK    6  A    between atoms: N1_11  and  C7_12
REMARK    7  A    between atoms: C7_12  and  C8_13
REMARK    8  A    between atoms: C8_13  and  C9_14
REMARK    9  A    between atoms: C9_14  and  C10_15
REMARK   10  A    between atoms: C10_15  and  C11_16
REMARK   11  A    between atoms: C11_16  and  O5_17
REMARK   12  A    between atoms: O5_17  and  C12_18
REMARK   13  A    between atoms: C12_18  and  C13_19
REMARK                            x       y       z     vdW  Elec       q    Type
REMARK                         _______ _______ _______ _____ _____    ______ ____
ROOT
ATOM      1  C7  UNL     1      25.425  -6.462 -36.736  0.00  0.00    +0.000 C 
ENDROOT
BRANCH   1   7
ATOM      2  C2  UNL     1      23.780  -6.412 -34.844  0.00  0.00    +0.000 C 
ATOM      3  C3  UNL     1      23.482  -6.967 -33.429  0.00  0.00    +0.000 C 
ATOM      4  C4  UNL     1      23.569  -8.502 -33.384  0.00  0.00    +0.000 C 
ATOM      5  C5  UNL     1      24.929  -8.972 -33.918  0.00  0.00    +0.000 C 
ATOM      6  C6  UNL     1      25.161  -8.430 -35.335  0.00  0.00    +0.000 C 
ATOM      7  N1  UNL     1      25.065  -6.954 -35.385  0.00  0.00    +0.000 NA
BRANCH   3   8
ATOM      8  O2  UNL     1      24.402  -6.408 -32.522  0.00  0.00    +0.000 OA
ATOM      9  H6  UNL     1      23.981  -6.433 -31.624  0.00  0.00    +0.000 HD
ENDBRANCH   3   8
BRANCH   4  10
ATOM     10  O3  UNL     1      23.392  -8.937 -32.061  0.00  0.00    +0.000 OA
ATOM     11  H8  UNL     1      23.070  -8.158 -31.537  0.00  0.00    +0.000 HD
ENDBRANCH   4  10
BRANCH   5  12
ATOM     12  O4  UNL     1      24.960 -10.376 -33.940  0.00  0.00    +0.000 OA
ATOM     13  H10 UNL     1      24.528 -10.659 -34.788  0.00  0.00    +0.000 HD
ENDBRANCH   5  12
BRANCH   2  14
ATOM     14  C1  UNL     1      22.558  -6.512 -35.799  0.00  0.00    +0.000 C 
BRANCH  14  15
ATOM     15  O1  UNL     1      21.372  -6.087 -35.187  0.00  0.00    +0.000 OA
ATOM     16  H1  UNL     1      21.152  -5.206 -35.587  0.00  0.00    +0.000 HD
ENDBRANCH  14  15
ENDBRANCH   2  14
ENDBRANCH   1   7
BRANCH   1  17
ATOM     17  C8  UNL     1      25.308  -7.562 -37.807  0.00  0.00    +0.000 C 
BRANCH  17  18
ATOM     18  C9  UNL     1      26.587  -7.678 -38.660  0.00  0.00    +0.000 C 
BRANCH  18  19
ATOM     19  C10 UNL     1      26.678  -9.010 -39.429  0.00  0.00    +0.000 C 
BRANCH  19  20
ATOM     20  C11 UNL     1      28.033  -9.705 -39.227  0.00  0.00    +0.000 C 
BRANCH  20  21
ATOM     21  O5  UNL     1      28.783  -9.064 -38.214  0.00  0.00    +0.000 OA
BRANCH  21  22
ATOM     22  C12 UNL     1      29.291  -9.988 -37.264  0.00  0.00    +0.000 C 
BRANCH  22  23
ATOM     23  C13 UNL     1      29.472  -9.314 -35.883  0.00  0.00    +0.000 C 
ATOM     24  C14 UNL     1      30.922  -9.523 -35.357  0.00  0.00    +0.000 C 
ATOM     25  C15 UNL     1      31.084  -8.861 -33.971  0.00  0.00    +0.000 C 
ATOM     26  C16 UNL     1      30.795  -7.349 -34.087  0.00  0.00    +0.000 C 
ATOM     27  C17 UNL     1      29.351  -7.133 -34.589  0.00  0.00    +0.000 C 
ATOM     28  C18 UNL     1      28.360  -7.772 -33.593  0.00  0.00    +0.000 C 
ATOM     29  C19 UNL     1      28.646  -9.285 -33.479  0.00  0.00    +0.000 C 
ATOM     30  C20 UNL     1      30.091  -9.500 -32.978  0.00  0.00    +0.000 C 
ATOM     31  C21 UNL     1      28.479  -9.944 -34.865  0.00  0.00    +0.000 C 
ATOM     32  C22 UNL     1      29.187  -7.789 -35.978  0.00  0.00    +0.000 C 
ENDBRANCH  22  23
ENDBRANCH  21  22
ENDBRANCH  20  21
ENDBRANCH  19  20
ENDBRANCH  18  19
ENDBRANCH  17  18
ENDBRANCH   1  17
TORSDOF 13
ENDMDL
MODEL 9
REMARK VINA RESULT:    -4.592      2.501      7.714
REMARK INTER + INTRA:          -9.270
REMARK INTER:                  -7.643
REMARK INTRA:                  -1.627
REMARK UNBOUND:                -1.726
REMARK  Name = resultss/4CJN/ligands/lig_115_t0.pdb
REMARK  13 active torsions:
REMARK  status: ('A' for Active; 'I' for Inactive)
REMARK    1  A    between atoms: O1_1  and  C1_2
REMARK    2  A    between atoms: C1_2  and  C2_3
REMARK    3  A    between atoms: C3_4  and  O2_5
REMARK    4  A    between atoms: C4_6  and  O3_7
REMARK    5  A    between atoms: C5_8  and  O4_9
REMARK    6  A    between atoms: N1_11  and  C7_12
REMARK    7  A    between atoms: C7_12  and  C8_13
REMARK    8  A    between atoms: C8_13  and  C9_14
REMARK    9  A    between atoms: C9_14  and  C10_15
REMARK   10  A    between atoms: C10_15  and  C11_16
REMARK   11  A    between atoms: C11_16  and  O5_17
REMARK   12  A    between atoms: O5_17  and  C12_18
REMARK   13  A    between atoms: C12_18  and  C13_19
REMARK                            x       y       z     vdW  Elec       q    Type
REMARK                         _______ _______ _______ _____ _____    ______ ____
ROOT
ATOM      1  C7  UNL     1      27.422  -7.857 -36.676  0.00  0.00    +0.000 C 
ENDROOT
BRANCH   1   7
ATOM      2  C2  UNL     1      26.397  -8.426 -34.460  0.00  0.00    +0.000 C 
ATOM      3  C3  UNL     1      26.355  -8.034 -32.962  0.00  0.00    +0.000 C 
ATOM      4  C4  UNL     1      27.765  -7.953 -32.350  0.00  0.00    +0.000 C 
ATOM      5  C5  UNL     1      28.648  -7.006 -33.174  0.00  0.00    +0.000 C 
ATOM      6  C6  UNL     1      28.689  -7.457 -34.640  0.00  0.00    +0.000 C 
ATOM      7  N1  UNL     1      27.333  -7.549 -35.228  0.00  0.00    +0.000 NA
BRANCH   3   8
ATOM      8  O2  UNL     1      25.708  -6.790 -32.838  0.00  0.00    +0.000 OA
ATOM      9  H6  UNL     1      24.799  -6.966 -32.482  0.00  0.00    +0.000 HD
ENDBRANCH   3   8
BRANCH   4  10
ATOM     10  O3  UNL     1      27.670  -7.496 -31.026  0.00  0.00    +0.000 OA
ATOM     11  H8  UNL     1      28.063  -6.585 -31.002  0.00  0.00    +0.000 HD
ENDBRANCH   4  10
BRANCH   5  12
ATOM     12  O4  UNL     1      29.949  -7.005 -32.646  0.00  0.00    +0.000 OA
ATOM     13  H10 UNL     1      30.246  -7.951 -32.615  0.00  0.00    +0.000 HD
ENDBRANCH   5  12
BRANCH   2  14
ATOM     14  C1  UNL     1      26.581  -9.954 -34.676  0.00  0.00    +0.000 C 
BRANCH  14  15
ATOM     15  O1  UNL     1      25.441 -10.681 -34.315  0.00  0.00    +0.000 OA
ATOM     16  H1  UNL     1      25.044 -10.209 -33.537  0.00  0.00    +0.000 HD
ENDBRANCH  14  15
ENDBRANCH   2  14
ENDBRANCH   1   7
BRANCH   1  17
ATOM     17  C8  UNL     1      27.580  -6.588 -37.533  0.00  0.00    +0.000 C 
BRANCH  17  18
ATOM     18  C9  UNL     1      26.245  -6.144 -38.162  0.00  0.00    +0.000 C 
BRANCH  18  19
ATOM     19  C10 UNL     1      25.166  -7.243 -38.121  0.00  0.00    +0.000 C 
BRANCH  19  20
ATOM     20  C11 UNL     1      24.460  -7.414 -39.476  0.00  0.00    +0.000 C 
BRANCH  20  21
ATOM     21  O5  UNL     1      24.754  -8.674 -40.043  0.00  0.00    +0.000 OA
BRANCH  21  22
ATOM     22  C12 UNL     1      25.322  -8.554 -41.339  0.00  0.00    +0.000 C 
BRANCH  22  23
ATOM     23  C13 UNL     1      26.833  -8.884 -41.311  0.00  0.00    +0.000 C 
ATOM     24  C14 UNL     1      27.171  -9.805 -40.103  0.00  0.00    +0.000 C 
ATOM     25  C15 UNL     1      28.684 -10.113 -40.077  0.00  0.00    +0.000 C 
ATOM     26  C16 UNL     1      29.087 -10.821 -41.388  0.00  0.00    +0.000 C 
ATOM     27  C17 UNL     1      28.775  -9.904 -42.591  0.00  0.00    +0.000 C 
ATOM     28  C18 UNL     1      29.566  -8.586 -42.452  0.00  0.00    +0.000 C 
ATOM     29  C19 UNL     1      29.162  -7.876 -41.142  0.00  0.00    +0.000 C 
ATOM     30  C20 UNL     1      29.474  -8.794 -39.940  0.00  0.00    +0.000 C 
ATOM     31  C21 UNL     1      27.649  -7.566 -41.173  0.00  0.00    +0.000 C 
ATOM     32  C22 UNL     1      27.261  -9.599 -42.623  0.00  0.00    +0.000 C 
ENDBRANCH  22  23
ENDBRANCH  21  22
ENDBRANCH  20  21
ENDBRANCH  19  20
ENDBRANCH  18  19
ENDBRANCH  17  18
ENDBRANCH   1  17
TORSDOF 13
ENDMDL
