MODEL 1
REMARK VINA RESULT:    -3.895      0.000      0.000
REMARK INTER + INTRA:          -5.443
REMARK INTER:                  -4.919
REMARK INTRA:                  -0.524
REMARK UNBOUND:                -0.524
REMARK  Name = resultss/4CJN/ligands/lig_2_t0.pdb
REMARK  7 active torsions:
REMARK  status: ('A' for Active; 'I' for Inactive)
REMARK    1  A    between atoms: O1_1  and  C1_2
REMARK    2  A    between atoms: C1_2  and  C2_3
REMARK    3  A    between atoms: C3_5  and  C4_6
REMARK    4  A    between atoms: C4_6  and  O2_7
REMARK    5  A    between atoms: C5_8  and  O3_9
REMARK    6  A    between atoms: C6_10  and  O4_11
REMARK    7  A    between atoms: C7_12  and  O5_13
REMARK                            x       y       z     vdW  Elec       q    Type
REMARK                         _______ _______ _______ _____ _____    ______ ____
ROOT
ATOM      1  C2  UNL     1      27.343  -7.105 -33.453  0.00  0.00    +0.000 C 
ATOM      2  N1  UNL     1      27.944  -7.792 -34.623  0.00  0.00    +0.000 NA
ATOM      3  C3  UNL     1      27.568  -9.215 -34.710  0.00  0.00    +0.000 C 
ATOM      4  C5  UNL     1      26.044  -9.362 -34.987  0.00  0.00    +0.000 C 
ATOM      5  C6  UNL     1      25.224  -8.191 -34.385  0.00  0.00    +0.000 C 
ATOM      6  C7  UNL     1      25.919  -7.646 -33.122  0.00  0.00    +0.000 C 
ATOM      7  H5  UNL     1      28.987  -7.704 -34.592  0.00  0.00    +0.000 HD
ENDROOT
BRANCH   4   8
ATOM      8  O3  UNL     1      25.604 -10.583 -34.444  0.00  0.00    +0.000 OA
ATOM      9  H11 UNL     1      24.693 -10.427 -34.081  0.00  0.00    +0.000 HD
ENDBRANCH   4   8
BRANCH   5  10
ATOM     10  O4  UNL     1      25.101  -7.172 -35.348  0.00  0.00    +0.000 OA
ATOM     11  H13 UNL     1      24.800  -6.353 -34.874  0.00  0.00    +0.000 HD
ENDBRANCH   5  10
BRANCH   6  12
ATOM     12  O5  UNL     1      25.131  -6.671 -32.482  0.00  0.00    +0.000 OA
ATOM     13  H15 UNL     1      24.230  -6.682 -32.896  0.00  0.00    +0.000 HD
ENDBRANCH   6  12
BRANCH   1  14
ATOM     14  C1  UNL     1      28.255  -7.177 -32.208  0.00  0.00    +0.000 C 
BRANCH  14  15
ATOM     15  O1  UNL     1      27.551  -7.666 -31.097  0.00  0.00    +0.000 OA
ATOM     16  H1  UNL     1      26.681  -8.002 -31.438  0.00  0.00    +0.000 HD
ENDBRANCH  14  15
ENDBRANCH   1  14
BRANCH   3  17
ATOM     17  C4  UNL     1      28.402  -9.933 -35.790  0.00  0.00    +0.000 C 
BRANCH  17  18
ATOM     18  O2  UNL     1      27.579 -10.490 -36.781  0.00  0.00    +0.000 OA
ATOM     19  H9  UNL     1      27.945 -10.198 -37.657  0.00  0.00    +0.000 HD
ENDBRANCH  17  18
ENDBRANCH   3  17
TORSDOF 7
ENDMDL
MODEL 2
REMARK VINA RESULT:    -3.827      8.875     10.207
REMARK INTER + INTRA:          -5.359
REMARK INTER:                  -4.907
REMARK INTRA:                  -0.452
REMARK UNBOUND:                -0.524
REMARK  Name = resultss/4CJN/ligands/lig_2_t0.pdb
REMARK  7 active torsions:
REMARK  status: ('A' for Active; 'I' for Inactive)
REMARK    1  A    between atoms: O1_1  and  C1_2
REMARK    2  A    between atoms: C1_2  and  C2_3
REMARK    3  A    between atoms: C3_5  and  C4_6
REMARK    4  A    between atoms: C4_6  and  O2_7
REMARK    5  A    between atoms: C5_8  and  O3_9
REMARK    6  A    between atoms: C6_10  and  O4_11
REMARK    7  A    between atoms: C7_12  and  O5_13
REMARK                            x       y       z     vdW  Elec       q    Type
REMARK                         _______ _______ _______ _____ _____    ______ ____
ROOT
ATOM      1  C2  UNL     1      22.211  -7.619 -42.294  0.00  0.00    +0.000 C 
ATOM      2  N1  UNL     1      22.041  -7.713 -43.765  0.00  0.00    +0.000 NA
ATOM      3  C3  UNL     1      23.200  -7.188 -44.512  0.00  0.00    +0.000 C 
ATOM      4  C5  UNL     1      24.456  -8.072 -44.265  0.00  0.00    +0.000 C 
ATOM      5  C6  UNL     1      24.442  -8.732 -42.861  0.00  0.00    +0.000 C 
ATOM      6  C7  UNL     1      23.692  -7.834 -41.857  0.00  0.00    +0.000 C 
ATOM      7  H5  UNL     1      21.173  -7.207 -44.059  0.00  0.00    +0.000 HD
ENDROOT
BRANCH   4   8
ATOM      8  O3  UNL     1      25.604  -7.272 -44.406  0.00  0.00    +0.000 OA
ATOM      9  H11 UNL     1      25.862  -7.301 -45.364  0.00  0.00    +0.000 HD
ENDBRANCH   4   8
BRANCH   5  10
ATOM     10  O4  UNL     1      23.816  -9.989 -42.950  0.00  0.00    +0.000 OA
ATOM     11  H13 UNL     1      24.517 -10.678 -42.809  0.00  0.00    +0.000 HD
ENDBRANCH   5  10
BRANCH   6  12
ATOM     12  O5  UNL     1      23.776  -8.345 -40.549  0.00  0.00    +0.000 OA
ATOM     13  H15 UNL     1      23.201  -7.787 -39.963  0.00  0.00    +0.000 HD
ENDBRANCH   6  12
BRANCH   1  14
ATOM     14  C1  UNL     1      21.666  -6.287 -41.733  0.00  0.00    +0.000 C 
BRANCH  14  15
ATOM     15  O1  UNL     1      21.763  -6.255 -40.333  0.00  0.00    +0.000 OA
ATOM     16  H1  UNL     1      20.974  -6.746 -39.984  0.00  0.00    +0.000 HD
ENDBRANCH  14  15
ENDBRANCH   1  14
BRANCH   3  17
ATOM     17  C4  UNL     1      22.877  -7.086 -46.016  0.00  0.00    +0.000 C 
BRANCH  17  18
ATOM     18  O2  UNL     1      23.582  -8.049 -46.754  0.00  0.00    +0.000 OA
ATOM     19  H9  UNL     1      23.207  -8.037 -47.674  0.00  0.00    +0.000 HD
ENDBRANCH  17  18
ENDBRANCH   3  17
TORSDOF 7
ENDMDL
MODEL 3
REMARK VINA RESULT:    -3.813      2.133      3.271
REMARK INTER + INTRA:          -5.340
REMARK INTER:                  -4.848
REMARK INTRA:                  -0.493
REMARK UNBOUND:                -0.524
REMARK  Name = resultss/4CJN/ligands/lig_2_t0.pdb
REMARK  7 active torsions:
REMARK  status: ('A' for Active; 'I' for Inactive)
REMARK    1  A    between atoms: O1_1  and  C1_2
REMARK    2  A    between atoms: C1_2  and  C2_3
REMARK    3  A    between atoms: C3_5  and  C4_6
REMARK    4  A    between atoms: C4_6  and  O2_7
REMARK    5  A    between atoms: C5_8  and  O3_9
REMARK    6  A    between atoms: C6_10  and  O4_11
REMARK    7  A    between atoms: C7_12  and  O5_13
REMARK                            x       y       z     vdW  Elec       q    Type
REMARK                         _______ _______ _______ _____ _____    ______ ____
ROOT
ATOM      1  C2  UNL     1      24.343  -7.996 -34.122  0.00  0.00    +0.000 C 
ATOM      2  N1  UNL     1      24.015  -8.380 -35.517  0.00  0.00    +0.000 NA
ATOM      3  C3  UNL     1      25.146  -8.193 -36.445  0.00  0.00    +0.000 C 
ATOM      4  C5  UNL     1      26.307  -9.169 -36.097  0.00  0.00    +0.000 C 
ATOM      5  C6  UNL     1      26.357  -9.502 -34.583  0.00  0.00    +0.000 C 
ATOM      6  C7  UNL     1      25.824  -8.315 -33.756  0.00  0.00    +0.000 C 
ATOM      7  H5  UNL     1      23.188  -7.834 -35.855  0.00  0.00    +0.000 HD
ENDROOT
BRANCH   4   8
ATOM      8  O3  UNL     1      27.521  -8.584 -36.498  0.00  0.00    +0.000 OA
ATOM      9  H11 UNL     1      27.733  -7.872 -35.840  0.00  0.00    +0.000 HD
ENDBRANCH   4   8
BRANCH   5  10
ATOM     10  O4  UNL     1      25.580 -10.651 -34.338  0.00  0.00    +0.000 OA
ATOM     11  H13 UNL     1      24.679 -10.484 -34.720  0.00  0.00    +0.000 HD
ENDBRANCH   5  10
BRANCH   6  12
ATOM     12  O5  UNL     1      25.980  -8.538 -32.376  0.00  0.00    +0.000 OA
ATOM     13  H15 UNL     1      25.173  -8.191 -31.915  0.00  0.00    +0.000 HD
ENDBRANCH   6  12
BRANCH   1  14
ATOM     14  C1  UNL     1      24.020  -6.512 -33.839  0.00  0.00    +0.000 C 
BRANCH  14  15
ATOM     15  O1  UNL     1      24.070  -6.241 -32.463  0.00  0.00    +0.000 OA
ATOM     16  H1  UNL     1      23.620  -7.000 -32.009  0.00  0.00    +0.000 HD
ENDBRANCH  14  15
ENDBRANCH   1  14
BRANCH   3  17
ATOM     17  C4  UNL     1      24.687  -8.374 -37.906  0.00  0.00    +0.000 C 
BRANCH  17  18
ATOM     18  O2  UNL     1      25.732  -8.845 -38.714  0.00  0.00    +0.000 OA
ATOM     19  H9  UNL     1      25.339  -9.516 -39.332  0.00  0.00    +0.000 HD
ENDBRANCH  17  18
ENDBRANCH   3  17
TORSDOF 7
ENDMDL
MODEL 4
REMARK VINA RESULT:    -3.811      1.668      4.294
REMARK INTER + INTRA:          -5.337
REMARK INTER:                  -5.029
REMARK INTRA:                  -0.308
REMARK UNBOUND:                -0.524
REMARK  Name = resultss/4CJN/ligands/lig_2_t0.pdb
REMARK  7 active torsions:
REMARK  status: ('A' for Active; 'I' for Inactive)
REMARK    1  A    between atoms: O1_1  and  C1_2
REMARK    2  A    between atoms: C1_2  and  C2_3
REMARK    3  A    between atoms: C3_5  and  C4_6
REMARK    4  A    between atoms: C4_6  and  O2_7
REMARK    5  A    between atoms: C5_8  and  O3_9
REMARK    6  A    between atoms: C6_10  and  O4_11
REMARK    7  A    between atoms: C7_12  and  O5_13
REMARK                            x       y       z     vdW  Elec       q    Type
REMARK                         _______ _______ _______ _____ _____    ______ ____
ROOT
ATOM      1  C2  UNL     1      26.759  -8.698 -34.878  0.00  0.00    +0.000 C 
ATOM      2  N1  UNL     1      27.386  -7.738 -33.936  0.00  0.00    +0.000 NA
ATOM      3  C3  UNL     1      28.288  -8.389 -32.967  0.00  0.00    +0.000 C 
ATOM      4  C5  UNL     1      29.523  -8.996 -33.693  0.00  0.00    +0.000 C 
ATOM      5  C6  UNL     1      29.191  -9.444 -35.141  0.00  0.00    +0.000 C 
ATOM      6  C7  UNL     1      27.714  -9.875 -35.241  0.00  0.00    +0.000 C 
ATOM      7  H5  UNL     1      26.647  -7.202 -33.423  0.00  0.00    +0.000 HD
ENDROOT
BRANCH   4   8
ATOM      8  O3  UNL     1      29.987 -10.095 -32.948  0.00  0.00    +0.000 OA
ATOM      9  H11 UNL     1      29.270 -10.334 -32.305  0.00  0.00    +0.000 HD
ENDBRANCH   4   8
BRANCH   5  10
ATOM     10  O4  UNL     1      29.444  -8.376 -36.023  0.00  0.00    +0.000 OA
ATOM     11  H13 UNL     1      30.429  -8.254 -36.064  0.00  0.00    +0.000 HD
ENDBRANCH   5  10
BRANCH   6  12
ATOM     12  O5  UNL     1      27.418 -10.408 -36.509  0.00  0.00    +0.000 OA
ATOM     13  H15 UNL     1      26.549 -10.033 -36.805  0.00  0.00    +0.000 HD
ENDBRANCH   6  12
BRANCH   1  14
ATOM     14  C1  UNL     1      25.412  -9.234 -34.345  0.00  0.00    +0.000 C 
BRANCH  14  15
ATOM     15  O1  UNL     1      25.409 -10.637 -34.311  0.00  0.00    +0.000 OA
ATOM     16  H1  UNL     1      26.148 -10.936 -34.901  0.00  0.00    +0.000 HD
ENDBRANCH  14  15
ENDBRANCH   1  14
BRANCH   3  17
ATOM     17  C4  UNL     1      28.721  -7.393 -31.872  0.00  0.00    +0.000 C 
BRANCH  17  18
ATOM     18  O2  UNL     1      27.675  -7.139 -30.974  0.00  0.00    +0.000 OA
ATOM     19  H9  UNL     1      26.942  -7.771 -31.198  0.00  0.00    +0.000 HD
ENDBRANCH  17  18
ENDBRANCH   3  17
TORSDOF 7
ENDMDL
MODEL 5
REMARK VINA RESULT:    -3.809      1.567      3.648
REMARK INTER + INTRA:          -5.336
REMARK INTER:                  -5.261
REMARK INTRA:                  -0.075
REMARK UNBOUND:                -0.524
REMARK  Name = resultss/4CJN/ligands/lig_2_t0.pdb
REMARK  7 active torsions:
REMARK  status: ('A' for Active; 'I' for Inactive)
REMARK    1  A    between atoms: O1_1  and  C1_2
REMARK    2  A    between atoms: C1_2  and  C2_3
REMARK    3  A    between atoms: C3_5  and  C4_6
REMARK    4  A    between atoms: C4_6  and  O2_7
REMARK    5  A    between atoms: C5_8  and  O3_9
REMARK    6  A    between atoms: C6_10  and  O4_11
REMARK    7  A    between atoms: C7_12  and  O5_13
REMARK                            x       y       z     vdW  Elec       q    Type
REMARK                         _______ _______ _______ _____ _____    ______ ____
ROOT
ATOM      1  C2  UNL     1      26.874  -8.443 -32.887  0.00  0.00    +0.000 C 
ATOM      2  N1  UNL     1      25.428  -8.150 -32.723  0.00  0.00    +0.000 NA
ATOM      3  C3  UNL     1      24.838  -7.487 -33.901  0.00  0.00    +0.000 C 
ATOM      4  C5  UNL     1      24.846  -8.445 -35.128  0.00  0.00    +0.000 C 
ATOM      5  C6  UNL     1      26.033  -9.442 -35.086  0.00  0.00    +0.000 C 
ATOM      6  C7  UNL     1      27.236  -8.809 -34.358  0.00  0.00    +0.000 C 
ATOM      7  H5  UNL     1      25.276  -7.558 -31.873  0.00  0.00    +0.000 HD
ENDROOT
BRANCH   4   8
ATOM      8  O3  UNL     1      24.912  -7.672 -36.301  0.00  0.00    +0.000 OA
ATOM      9  H11 UNL     1      25.188  -8.280 -37.035  0.00  0.00    +0.000 HD
ENDBRANCH   4   8
BRANCH   5  10
ATOM     10  O4  UNL     1      25.627 -10.614 -34.421  0.00  0.00    +0.000 OA
ATOM     11  H13 UNL     1      24.789 -10.923 -34.854  0.00  0.00    +0.000 HD
ENDBRANCH   5  10
BRANCH   6  12
ATOM     12  O5  UNL     1      28.369  -9.641 -34.419  0.00  0.00    +0.000 OA
ATOM     13  H15 UNL     1      28.133 -10.514 -34.014  0.00  0.00    +0.000 HD
ENDBRANCH   6  12
BRANCH   1  14
ATOM     14  C1  UNL     1      27.760  -7.283 -32.381  0.00  0.00    +0.000 C 
BRANCH  14  15
ATOM     15  O1  UNL     1      27.625  -7.116 -30.995  0.00  0.00    +0.000 OA
ATOM     16  H1  UNL     1      27.436  -8.015 -30.619  0.00  0.00    +0.000 HD
ENDBRANCH  14  15
ENDBRANCH   1  14
BRANCH   3  17
ATOM     17  C4  UNL     1      23.411  -6.993 -33.590  0.00  0.00    +0.000 C 
BRANCH  17  18
ATOM     18  O2  UNL     1      23.149  -7.029 -32.213  0.00  0.00    +0.000 OA
ATOM     19  H9  UNL     1      22.433  -7.704 -32.074  0.00  0.00    +0.000 HD
ENDBRANCH  17  18
ENDBRANCH   3  17
TORSDOF 7
ENDMDL
MODEL 6
REMARK VINA RESULT:    -3.777      2.382      4.647
REMARK INTER + INTRA:          -5.295
REMARK INTER:                  -4.770
REMARK INTRA:                  -0.525
REMARK UNBOUND:                -0.524
REMARK  Name = resultss/4CJN/ligands/lig_2_t0.pdb
REMARK  7 active torsions:
REMARK  status: ('A' for Active; 'I' for Inactive)
REMARK    1  A    between atoms: O1_1  and  C1_2
REMARK    2  A    between atoms: C1_2  and  C2_3
REMARK    3  A    between atoms: C3_5  and  C4_6
REMARK    4  A    between atoms: C4_6  and  O2_7
REMARK    5  A    between atoms: C5_8  and  O3_9
REMARK    6  A    between atoms: C6_10  and  O4_11
REMARK    7  A    between atoms: C7_12  and  O5_13
REMARK                            x       y       z     vdW  Elec       q    Type
REMARK                         _______ _______ _______ _____ _____    ______ ____
ROOT
ATOM      1  C2  UNL     1      25.831  -7.755 -36.905  0.00  0.00    +0.000 C 
ATOM      2  N1  UNL     1      25.488  -7.305 -35.533  0.00  0.00    +0.000 NA
ATOM      3  C3  UNL     1      24.936  -8.386 -34.695  0.00  0.00    +0.000 C 
ATOM      4  C5  UNL     1      26.013  -9.475 -34.427  0.00  0.00    +0.000 C 
ATOM      5  C6  UNL     1      27.030  -9.594 -35.593  0.00  0.00    +0.000 C 
ATOM      6  C7  UNL     1      26.355  -9.222 -36.929  0.00  0.00    +0.000 C 
ATOM      7  H5  UNL     1      24.808  -6.510 -35.576  0.00  0.00    +0.000 HD
ENDROOT
BRANCH   4   8
ATOM      8  O3  UNL     1      25.367 -10.709 -34.230  0.00  0.00    +0.000 OA
ATOM      9  H11 UNL     1      26.055 -11.417 -34.334  0.00  0.00    +0.000 HD
ENDBRANCH   4   8
BRANCH   5  10
ATOM     10  O4  UNL     1      28.118  -8.735 -35.345  0.00  0.00    +0.000 OA
ATOM     11  H13 UNL     1      28.199  -8.640 -34.360  0.00  0.00    +0.000 HD
ENDBRANCH   5  10
BRANCH   6  12
ATOM     12  O5  UNL     1      27.216  -9.446 -38.019  0.00  0.00    +0.000 OA
ATOM     13  H15 UNL     1      28.058  -9.840 -37.671  0.00  0.00    +0.000 HD
ENDBRANCH   6  12
BRANCH   1  14
ATOM     14  C1  UNL     1      24.647  -7.584 -37.883  0.00  0.00    +0.000 C 
BRANCH  14  15
ATOM     15  O1  UNL     1      24.377  -8.784 -38.557  0.00  0.00    +0.000 OA
ATOM     16  H1  UNL     1      25.231  -9.288 -38.593  0.00  0.00    +0.000 HD
ENDBRANCH  14  15
ENDBRANCH   1  14
BRANCH   3  17
ATOM     17  C4  UNL     1      24.377  -7.819 -33.374  0.00  0.00    +0.000 C 
BRANCH  17  18
ATOM     18  O2  UNL     1      23.957  -8.847 -32.517  0.00  0.00    +0.000 OA
ATOM     19  H9  UNL     1      22.966  -8.879 -32.570  0.00  0.00    +0.000 HD
ENDBRANCH  17  18
ENDBRANCH   3  17
TORSDOF 7
ENDMDL
MODEL 7
REMARK VINA RESULT:    -3.710      2.238      3.943
REMARK INTER + INTRA:          -5.210
REMARK INTER:                  -4.729
REMARK INTRA:                  -0.481
REMARK UNBOUND:                -0.524
REMARK  Name = resultss/4CJN/ligands/lig_2_t0.pdb
REMARK  7 active torsions:
REMARK  status: ('A' for Active; 'I' for Inactive)
REMARK    1  A    between atoms: O1_1  and  C1_2
REMARK    2  A    between atoms: C1_2  and  C2_3
REMARK    3  A    between atoms: C3_5  and  C4_6
REMARK    4  A    between atoms: C4_6  and  O2_7
REMARK    5  A    between atoms: C5_8  and  O3_9
REMARK    6  A    between atoms: C6_10  and  O4_11
REMARK    7  A    between atoms: C7_12  and  O5_13
REMARK                            x       y       z     vdW  Elec       q    Type
REMARK                         _______ _______ _______ _____ _____    ______ ____
ROOT
ATOM      1  C2  UNL     1      24.132  -8.111 -35.708  0.00  0.00    +0.000 C 
ATOM      2  N1  UNL     1      25.587  -7.978 -35.969  0.00  0.00    +0.000 NA
ATOM      3  C3  UNL     1      26.328  -7.416 -34.825  0.00  0.00    +0.000 C 
ATOM      4  C5  UNL     1      26.296  -8.397 -33.617  0.00  0.00    +0.000 C 
ATOM      5  C6  UNL     1      25.003  -9.253 -33.592  0.00  0.00    +0.000 C 
ATOM      6  C7  UNL     1      23.832  -8.471 -34.221  0.00  0.00    +0.000 C 
ATOM      7  H5  UNL     1      25.746  -7.386 -36.818  0.00  0.00    +0.000 HD
ENDROOT
BRANCH   4   8
ATOM      8  O3  UNL     1      26.399  -7.651 -32.429  0.00  0.00    +0.000 OA
ATOM      9  H11 UNL     1      25.868  -6.822 -32.559  0.00  0.00    +0.000 HD
ENDBRANCH   4   8
BRANCH   5  10
ATOM     10  O4  UNL     1      25.227 -10.446 -34.304  0.00  0.00    +0.000 OA
ATOM     11  H13 UNL     1      24.504 -10.526 -34.981  0.00  0.00    +0.000 HD
ENDBRANCH   5  10
BRANCH   6  12
ATOM     12  O5  UNL     1      22.619  -9.172 -34.094  0.00  0.00    +0.000 OA
ATOM     13  H15 UNL     1      22.318  -9.434 -35.002  0.00  0.00    +0.000 HD
ENDBRANCH   6  12
BRANCH   1  14
ATOM     14  C1  UNL     1      23.351  -6.847 -36.129  0.00  0.00    +0.000 C 
BRANCH  14  15
ATOM     15  O1  UNL     1      21.996  -7.142 -36.342  0.00  0.00    +0.000 OA
ATOM     16  H1  UNL     1      21.720  -7.750 -35.608  0.00  0.00    +0.000 HD
ENDBRANCH  14  15
ENDBRANCH   1  14
BRANCH   3  17
ATOM     17  C4  UNL     1      27.777  -7.077 -35.228  0.00  0.00    +0.000 C 
BRANCH  17  18
ATOM     18  O2  UNL     1      28.700  -7.651 -34.341  0.00  0.00    +0.000 OA
ATOM     19  H9  UNL     1      29.595  -7.563 -34.761  0.00  0.00    +0.000 HD
ENDBRANCH  17  18
ENDBRANCH   3  17
TORSDOF 7
ENDMDL
MODEL 8
REMARK VINA RESULT:    -3.633      2.339      3.785
REMARK INTER + INTRA:          -5.113
REMARK INTER:                  -4.591
REMARK INTRA:                  -0.522
REMARK UNBOUND:                -0.524
REMARK  Name = resultss/4CJN/ligands/lig_2_t0.pdb
REMARK  7 active torsions:
REMARK  status: ('A' for Active; 'I' for Inactive)
REMARK    1  A    between atoms: O1_1  and  C1_2
REMARK    2  A    between atoms: C1_2  and  C2_3
REMARK    3  A    between atoms: C3_5  and  C4_6
REMARK    4  A    between atoms: C4_6  and  O2_7
REMARK    5  A    between atoms: C5_8  and  O3_9
REMARK    6  A    between atoms: C6_10  and  O4_11
REMARK    7  A    between atoms: C7_12  and  O5_13
REMARK                            x       y       z     vdW  Elec       q    Type
REMARK                         _______ _______ _______ _____ _____    ______ ____
ROOT
ATOM      1  C2  UNL     1      25.565  -8.298 -34.304  0.00  0.00    +0.000 C 
ATOM      2  N1  UNL     1      25.648  -7.370 -35.459  0.00  0.00    +0.000 NA
ATOM      3  C3  UNL     1      24.480  -7.461 -36.355  0.00  0.00    +0.000 C 
ATOM      4  C5  UNL     1      23.195  -6.971 -35.629  0.00  0.00    +0.000 C 
ATOM      5  C6  UNL     1      23.250  -7.230 -34.100  0.00  0.00    +0.000 C 
ATOM      6  C7  UNL     1      24.100  -8.481 -33.801  0.00  0.00    +0.000 C 
ATOM      7  H5  UNL     1      26.524  -7.552 -36.003  0.00  0.00    +0.000 HD
ENDROOT
BRANCH   4   8
ATOM      8  O3  UNL     1      22.084  -7.631 -36.185  0.00  0.00    +0.000 OA
ATOM      9  H11 UNL     1      21.394  -7.688 -35.474  0.00  0.00    +0.000 HD
ENDBRANCH   4   8
BRANCH   5  10
ATOM     10  O4  UNL     1      23.803  -6.104 -33.462  0.00  0.00    +0.000 OA
ATOM     11  H13 UNL     1      24.421  -5.672 -34.109  0.00  0.00    +0.000 HD
ENDBRANCH   5  10
BRANCH   6  12
ATOM     12  O5  UNL     1      24.061  -8.815 -32.435  0.00  0.00    +0.000 OA
ATOM     13  H15 UNL     1      23.363  -8.258 -32.002  0.00  0.00    +0.000 HD
ENDBRANCH   6  12
BRANCH   1  14
ATOM     14  C1  UNL     1      26.209  -9.667 -34.614  0.00  0.00    +0.000 C 
BRANCH  14  15
ATOM     15  O1  UNL     1      25.335 -10.717 -34.291  0.00  0.00    +0.000 OA
ATOM     16  H1  UNL     1      24.446 -10.467 -34.654  0.00  0.00    +0.000 HD
ENDBRANCH  14  15
ENDBRANCH   1  14
BRANCH   3  17
ATOM     17  C4  UNL     1      24.725  -6.663 -37.652  0.00  0.00    +0.000 C 
BRANCH  17  18
ATOM     18  O2  UNL     1      23.700  -6.881 -38.584  0.00  0.00    +0.000 OA
ATOM     19  H9  UNL     1      22.905  -7.186 -38.073  0.00  0.00    +0.000 HD
ENDBRANCH  17  18
ENDBRANCH   3  17
TORSDOF 7
ENDMDL
MODEL 9
REMARK VINA RESULT:    -3.591      2.925      5.341
REMARK INTER + INTRA:          -5.060
REMARK INTER:                  -4.564
REMARK INTRA:                  -0.496
REMARK UNBOUND:                -0.524
REMARK  Name = resultss/4CJN/ligands/lig_2_t0.pdb
REMARK  7 active torsions:
REMARK  status: ('A' for Active; 'I' for Inactive)
REMARK    1  A    between atoms: O1_1  and  C1_2
REMARK    2  A    between atoms: C1_2  and  C2_3
REMARK    3  A    between atoms: C3_5  and  C4_6
REMARK    4  A    between atoms: C4_6  and  O2_7
REMARK    5  A    between atoms: C5_8  and  O3_9
REMARK    6  A    between atoms: C6_10  and  O4_11
REMARK    7  A    between atoms: C7_12  and  O5_13
REMARK                            x       y       z     vdW  Elec       q    Type
REMARK                         _______ _______ _______ _____ _____    ______ ____
ROOT
ATOM      1  C2  UNL     1      27.638  -9.351 -38.548  0.00  0.00    +0.000 C 
ATOM      2  N1  UNL     1      26.567  -8.431 -38.089  0.00  0.00    +0.000 NA
ATOM      3  C3  UNL     1      25.680  -9.039 -37.080  0.00  0.00    +0.000 C 
ATOM      4  C5  UNL     1      26.462  -9.322 -35.764  0.00  0.00    +0.000 C 
ATOM      5  C6  UNL     1      27.961  -9.623 -36.026  0.00  0.00    +0.000 C 
ATOM      6  C7  UNL     1      28.139 -10.286 -37.406  0.00  0.00    +0.000 C 
ATOM      7  H5  UNL     1      26.000  -8.105 -38.906  0.00  0.00    +0.000 HD
ENDROOT
BRANCH   4   8
ATOM      8  O3  UNL     1      25.862 -10.413 -35.110  0.00  0.00    +0.000 OA
ATOM      9  H11 UNL     1      25.687 -11.105 -35.801  0.00  0.00    +0.000 HD
ENDBRANCH   4   8
BRANCH   5  10
ATOM     10  O4  UNL     1      28.689  -8.420 -35.969  0.00  0.00    +0.000 OA
ATOM     11  H13 UNL     1      28.041  -7.677 -36.090  0.00  0.00    +0.000 HD
ENDBRANCH   5  10
BRANCH   6  12
ATOM     12  O5  UNL     1      29.471 -10.689 -37.615  0.00  0.00    +0.000 OA
ATOM     13  H15 UNL     1      29.615 -11.541 -37.128  0.00  0.00    +0.000 HD
ENDBRANCH   6  12
BRANCH   1  14
ATOM     14  C1  UNL     1      27.201 -10.179 -39.777  0.00  0.00    +0.000 C 
BRANCH  14  15
ATOM     15  O1  UNL     1      27.816 -11.440 -39.777  0.00  0.00    +0.000 OA
ATOM     16  H1  UNL     1      28.250 -11.543 -40.663  0.00  0.00    +0.000 HD
ENDBRANCH  14  15
ENDBRANCH   1  14
BRANCH   3  17
ATOM     17  C4  UNL     1      24.457  -8.139 -36.817  0.00  0.00    +0.000 C 
BRANCH  17  18
ATOM     18  O2  UNL     1      23.892  -8.400 -35.560  0.00  0.00    +0.000 OA
ATOM     19  H9  UNL     1      24.092  -7.615 -34.986  0.00  0.00    +0.000 HD
ENDBRANCH  17  18
ENDBRANCH   3  17
TORSDOF 7
ENDMDL
