MODEL 1
REMARK VINA RESULT:    -6.691      0.000      0.000
REMARK INTER + INTRA:          -8.997
REMARK INTER:                  -8.647
REMARK INTRA:                  -0.351
REMARK UNBOUND:                -0.351
REMARK  Name = resultss/4CJN/ligands/lig_184_t2.pdb
REMARK  6 active torsions:
REMARK  status: ('A' for Active; 'I' for Inactive)
REMARK    1  A    between atoms: C1_1  and  O1_2
REMARK    2  A    between atoms: O1_2  and  C2_3
REMARK    3  A    between atoms: C5_6  and  C6_7
REMARK    4  A    between atoms: N1_8  and  N2_9
REMARK    5  A    between atoms: C7_10  and  C8_12
REMARK    6  A    between atoms: C11_15  and  C12_16
REMARK                            x       y       z     vdW  Elec       q    Type
REMARK                         _______ _______ _______ _____ _____    ______ ____
ROOT
ATOM      1  N2  UNL     1      28.145  -8.765 -39.430  0.00  0.00    +0.000 N 
ATOM      2  C7  UNL     1      29.495  -8.449 -39.813  0.00  0.00    +0.000 C 
ATOM      3  O2  UNL     1      30.090  -7.484 -39.261  0.00  0.00    +0.000 OA
ATOM      4  H7  UNL     1      27.509  -9.176 -40.148  0.00  0.00    +0.000 HD
ENDROOT
BRANCH   2   5
ATOM      5  C8  UNL     1      30.181  -9.214 -40.883  0.00  0.00    +0.000 A 
ATOM      6  C9  UNL     1      29.523  -9.477 -42.097  0.00  0.00    +0.000 A 
ATOM      7  C10 UNL     1      30.162 -10.193 -43.114  0.00  0.00    +0.000 A 
ATOM      8  C11 UNL     1      31.478 -10.655 -42.942  0.00  0.00    +0.000 A 
ATOM      9  C19 UNL     1      32.141 -10.383 -41.734  0.00  0.00    +0.000 A 
ATOM     10  C20 UNL     1      31.500  -9.668 -40.717  0.00  0.00    +0.000 A 
BRANCH   8  11
ATOM     11  C12 UNL     1      32.148 -11.412 -44.026  0.00  0.00    +0.000 A 
ATOM     12  N3  UNL     1      31.804 -12.682 -44.365  0.00  0.00    +0.000 NA
ATOM     13  C13 UNL     1      32.569 -13.146 -45.387  0.00  0.00    +0.000 A 
ATOM     14  C14 UNL     1      32.446 -14.418 -45.949  0.00  0.00    +0.000 A 
ATOM     15  C15 UNL     1      33.303 -14.774 -47.005  0.00  0.00    +0.000 A 
ATOM     16  C16 UNL     1      34.265 -13.862 -47.484  0.00  0.00    +0.000 A 
ATOM     17  C17 UNL     1      34.380 -12.586 -46.910  0.00  0.00    +0.000 A 
ATOM     18  C18 UNL     1      33.518 -12.258 -45.865  0.00  0.00    +0.000 A 
ATOM     19  S1  UNL     1      33.418 -10.830 -44.993  0.00  0.00    +0.000 S 
ENDBRANCH   8  11
ENDBRANCH   2   5
BRANCH   1  21
ATOM     20  C6  UNL     1      26.299  -8.429 -37.956  0.00  0.00    +0.000 C 
ATOM     21  N1  UNL     1      27.571  -8.352 -38.213  0.00  0.00    +0.000 NA
BRANCH  20  25
ATOM     22  C2  UNL     1      24.634  -6.974 -34.191  0.00  0.00    +0.000 C 
ATOM     23  C3  UNL     1      23.850  -7.436 -35.178  0.00  0.00    +0.000 C 
ATOM     24  C4  UNL     1      24.419  -7.909 -36.453  0.00  0.00    +0.000 C 
ATOM     25  C5  UNL     1      25.748  -7.996 -36.652  0.00  0.00    +0.000 C 
ATOM     26  C21 UNL     1      26.725  -7.709 -35.530  0.00  0.00    +0.000 C 
ATOM     27  I1  UNL     1      27.545  -9.554 -34.817  0.00  0.00    +0.000 I 
ATOM     28  C22 UNL     1      26.096  -6.984 -34.371  0.00  0.00    +0.000 C 
ATOM     29  O3  UNL     1      26.832  -6.421 -33.517  0.00  0.00    +0.000 OA
BRANCH  22  31
ATOM     30  C1  UNL     1      22.793  -6.705 -32.508  0.00  0.00    +0.000 C 
ATOM     31  O1  UNL     1      24.114  -6.470 -32.986  0.00  0.00    +0.000 OA
ENDBRANCH  22  31
ENDBRANCH  20  25
ENDBRANCH   1  21
TORSDOF 5
ENDMDL
MODEL 2
REMARK VINA RESULT:    -6.594      7.082     10.553
REMARK INTER + INTRA:          -8.871
REMARK INTER:                  -8.344
REMARK INTRA:                  -0.527
REMARK UNBOUND:                -0.351
REMARK  Name = resultss/4CJN/ligands/lig_184_t2.pdb
REMARK  6 active torsions:
REMARK  status: ('A' for Active; 'I' for Inactive)
REMARK    1  A    between atoms: C1_1  and  O1_2
REMARK    2  A    between atoms: O1_2  and  C2_3
REMARK    3  A    between atoms: C5_6  and  C6_7
REMARK    4  A    between atoms: N1_8  and  N2_9
REMARK    5  A    between atoms: C7_10  and  C8_12
REMARK    6  A    between atoms: C11_15  and  C12_16
REMARK                            x       y       z     vdW  Elec       q    Type
REMARK                         _______ _______ _______ _____ _____    ______ ____
ROOT
ATOM      1  N2  UNL     1      23.863  -9.013 -41.327  0.00  0.00    +0.000 N 
ATOM      2  C7  UNL     1      25.168  -9.616 -41.283  0.00  0.00    +0.000 C 
ATOM      3  O2  UNL     1      25.619 -10.200 -42.305  0.00  0.00    +0.000 OA
ATOM      4  H7  UNL     1      23.301  -8.981 -40.449  0.00  0.00    +0.000 HD
ENDROOT
BRANCH   2   5
ATOM      5  C8  UNL     1      25.969  -9.604 -40.034  0.00  0.00    +0.000 A 
ATOM      6  C9  UNL     1      27.099 -10.431 -39.911  0.00  0.00    +0.000 A 
ATOM      7  C10 UNL     1      27.863 -10.422 -38.740  0.00  0.00    +0.000 A 
ATOM      8  C11 UNL     1      27.519  -9.581 -37.669  0.00  0.00    +0.000 A 
ATOM      9  C19 UNL     1      26.395  -8.746 -37.795  0.00  0.00    +0.000 A 
ATOM     10  C20 UNL     1      25.631  -8.756 -38.966  0.00  0.00    +0.000 A 
BRANCH   8  11
ATOM     11  C12 UNL     1      28.335  -9.579 -36.432  0.00  0.00    +0.000 A 
ATOM     12  N3  UNL     1      29.693  -9.550 -36.439  0.00  0.00    +0.000 NA
ATOM     13  C13 UNL     1      30.197  -9.555 -35.178  0.00  0.00    +0.000 A 
ATOM     14  C14 UNL     1      31.558  -9.530 -34.873  0.00  0.00    +0.000 A 
ATOM     15  C15 UNL     1      31.947  -9.539 -33.521  0.00  0.00    +0.000 A 
ATOM     16  C16 UNL     1      30.977  -9.571 -32.499  0.00  0.00    +0.000 A 
ATOM     17  C17 UNL     1      29.610  -9.596 -32.819  0.00  0.00    +0.000 A 
ATOM     18  C18 UNL     1      29.252  -9.587 -34.165  0.00  0.00    +0.000 A 
ATOM     19  S1  UNL     1      27.722  -9.611 -34.848  0.00  0.00    +0.000 S 
ENDBRANCH   8  11
ENDBRANCH   2   5
BRANCH   1  21
ATOM     20  C6  UNL     1      23.222  -7.462 -43.024  0.00  0.00    +0.000 C 
ATOM     21  N1  UNL     1      23.215  -8.662 -42.527  0.00  0.00    +0.000 NA
BRANCH  20  25
ATOM     22  C2  UNL     1      21.090  -6.702 -46.757  0.00  0.00    +0.000 C 
ATOM     23  C3  UNL     1      20.584  -6.337 -45.568  0.00  0.00    +0.000 C 
ATOM     24  C4  UNL     1      21.303  -6.613 -44.311  0.00  0.00    +0.000 C 
ATOM     25  C5  UNL     1      22.538  -7.150 -44.298  0.00  0.00    +0.000 C 
ATOM     26  C21 UNL     1      23.293  -7.400 -45.588  0.00  0.00    +0.000 C 
ATOM     27  I1  UNL     1      24.832  -5.927 -45.802  0.00  0.00    +0.000 I 
ATOM     28  C22 UNL     1      22.411  -7.352 -46.807  0.00  0.00    +0.000 C 
ATOM     29  O3  UNL     1      22.830  -7.830 -47.894  0.00  0.00    +0.000 OA
BRANCH  22  31
ATOM     30  C1  UNL     1      19.108  -7.008 -48.264  0.00  0.00    +0.000 C 
ATOM     31  O1  UNL     1      20.403  -6.497 -47.966  0.00  0.00    +0.000 OA
ENDBRANCH  22  31
ENDBRANCH  20  25
ENDBRANCH   1  21
TORSDOF 5
ENDMDL
MODEL 3
REMARK VINA RESULT:    -6.060      6.043      8.298
REMARK INTER + INTRA:          -8.181
REMARK INTER:                  -7.719
REMARK INTRA:                  -0.462
REMARK UNBOUND:                -0.351
REMARK  Name = resultss/4CJN/ligands/lig_184_t2.pdb
REMARK  6 active torsions:
REMARK  status: ('A' for Active; 'I' for Inactive)
REMARK    1  A    between atoms: C1_1  and  O1_2
REMARK    2  A    between atoms: O1_2  and  C2_3
REMARK    3  A    between atoms: C5_6  and  C6_7
REMARK    4  A    between atoms: N1_8  and  N2_9
REMARK    5  A    between atoms: C7_10  and  C8_12
REMARK    6  A    between atoms: C11_15  and  C12_16
REMARK                            x       y       z     vdW  Elec       q    Type
REMARK                         _______ _______ _______ _____ _____    ______ ____
ROOT
ATOM      1  N2  UNL     1      29.516 -10.030 -38.293  0.00  0.00    +0.000 N 
ATOM      2  C7  UNL     1      28.091 -10.210 -38.240  0.00  0.00    +0.000 C 
ATOM      3  O2  UNL     1      27.577 -10.833 -37.272  0.00  0.00    +0.000 OA
ATOM      4  H7  UNL     1      29.977  -9.983 -39.227  0.00  0.00    +0.000 HD
ENDROOT
BRANCH   2   5
ATOM      5  C8  UNL     1      27.221  -9.715 -39.335  0.00  0.00    +0.000 A 
ATOM      6  C9  UNL     1      26.190  -8.800 -39.061  0.00  0.00    +0.000 A 
ATOM      7  C10 UNL     1      25.369  -8.323 -40.087  0.00  0.00    +0.000 A 
ATOM      8  C11 UNL     1      25.565  -8.746 -41.413  0.00  0.00    +0.000 A 
ATOM      9  C19 UNL     1      26.602  -9.653 -41.690  0.00  0.00    +0.000 A 
ATOM     10  C20 UNL     1      27.422 -10.130 -40.662  0.00  0.00    +0.000 A 
BRANCH   8  11
ATOM     11  C12 UNL     1      24.689  -8.236 -42.494  0.00  0.00    +0.000 A 
ATOM     12  N3  UNL     1      25.102  -8.097 -43.780  0.00  0.00    +0.000 NA
ATOM     13  C13 UNL     1      24.111  -7.610 -44.570  0.00  0.00    +0.000 A 
ATOM     14  C14 UNL     1      24.242  -7.363 -45.938  0.00  0.00    +0.000 A 
ATOM     15  C15 UNL     1      23.134  -6.858 -46.641  0.00  0.00    +0.000 A 
ATOM     16  C16 UNL     1      21.918  -6.608 -45.974  0.00  0.00    +0.000 A 
ATOM     17  C17 UNL     1      21.798  -6.860 -44.598  0.00  0.00    +0.000 A 
ATOM     18  C18 UNL     1      22.910  -7.361 -43.925  0.00  0.00    +0.000 A 
ATOM     19  S1  UNL     1      23.070  -7.755 -42.304  0.00  0.00    +0.000 S 
ENDBRANCH   8  11
ENDBRANCH   2   5
BRANCH   1  21
ATOM     20  C6  UNL     1      30.345  -9.274 -36.186  0.00  0.00    +0.000 C 
ATOM     21  N1  UNL     1      30.350 -10.131 -37.162  0.00  0.00    +0.000 NA
BRANCH  20  25
ATOM     22  C2  UNL     1      33.034  -9.916 -32.806  0.00  0.00    +0.000 C 
ATOM     23  C3  UNL     1      33.448  -9.316 -33.934  0.00  0.00    +0.000 C 
ATOM     24  C4  UNL     1      32.538  -9.119 -35.077  0.00  0.00    +0.000 C 
ATOM     25  C5  UNL     1      31.231  -9.436 -35.011  0.00  0.00    +0.000 C 
ATOM     26  C21 UNL     1      30.609  -9.916 -33.716  0.00  0.00    +0.000 C 
ATOM     27  I1  UNL     1      29.422  -8.344 -32.877  0.00  0.00    +0.000 I 
ATOM     28  C22 UNL     1      31.629 -10.344 -32.695  0.00  0.00    +0.000 C 
ATOM     29  O3  UNL     1      31.265 -11.036 -31.707  0.00  0.00    +0.000 OA
BRANCH  22  31
ATOM     30  C1  UNL     1      34.241  -9.204 -30.726  0.00  0.00    +0.000 C 
ATOM     31  O1  UNL     1      33.893 -10.161 -31.721  0.00  0.00    +0.000 OA
ENDBRANCH  22  31
ENDBRANCH  20  25
ENDBRANCH   1  21
TORSDOF 5
ENDMDL
MODEL 4
REMARK VINA RESULT:    -5.970      7.724     10.652
REMARK INTER + INTRA:          -8.065
REMARK INTER:                  -7.524
REMARK INTRA:                  -0.542
REMARK UNBOUND:                -0.351
REMARK  Name = resultss/4CJN/ligands/lig_184_t2.pdb
REMARK  6 active torsions:
REMARK  status: ('A' for Active; 'I' for Inactive)
REMARK    1  A    between atoms: C1_1  and  O1_2
REMARK    2  A    between atoms: O1_2  and  C2_3
REMARK    3  A    between atoms: C5_6  and  C6_7
REMARK    4  A    between atoms: N1_8  and  N2_9
REMARK    5  A    between atoms: C7_10  and  C8_12
REMARK    6  A    between atoms: C11_15  and  C12_16
REMARK                            x       y       z     vdW  Elec       q    Type
REMARK                         _______ _______ _______ _____ _____    ______ ____
ROOT
ATOM      1  N2  UNL     1      23.943  -7.026 -39.061  0.00  0.00    +0.000 N 
ATOM      2  C7  UNL     1      24.076  -6.862 -40.484  0.00  0.00    +0.000 C 
ATOM      3  O2  UNL     1      25.219  -6.701 -40.989  0.00  0.00    +0.000 OA
ATOM      4  H7  UNL     1      23.075  -6.678 -38.600  0.00  0.00    +0.000 HD
ENDROOT
BRANCH   2   5
ATOM      5  C8  UNL     1      22.878  -6.830 -41.360  0.00  0.00    +0.000 A 
ATOM      6  C9  UNL     1      22.896  -7.480 -42.606  0.00  0.00    +0.000 A 
ATOM      7  C10 UNL     1      21.772  -7.460 -43.436  0.00  0.00    +0.000 A 
ATOM      8  C11 UNL     1      20.601  -6.796 -43.035  0.00  0.00    +0.000 A 
ATOM      9  C19 UNL     1      20.578  -6.154 -41.785  0.00  0.00    +0.000 A 
ATOM     10  C20 UNL     1      21.703  -6.174 -40.956  0.00  0.00    +0.000 A 
BRANCH   8  11
ATOM     11  C12 UNL     1      19.413  -6.780 -43.922  0.00  0.00    +0.000 A 
ATOM     12  N3  UNL     1      19.411  -7.322 -45.168  0.00  0.00    +0.000 NA
ATOM     13  C13 UNL     1      18.202  -7.176 -45.770  0.00  0.00    +0.000 A 
ATOM     14  C14 UNL     1      17.901  -7.634 -47.054  0.00  0.00    +0.000 A 
ATOM     15  C15 UNL     1      16.607  -7.416 -47.561  0.00  0.00    +0.000 A 
ATOM     16  C16 UNL     1      15.638  -6.750 -46.784  0.00  0.00    +0.000 A 
ATOM     17  C17 UNL     1      15.954  -6.294 -45.494  0.00  0.00    +0.000 A 
ATOM     18  C18 UNL     1      17.242  -6.522 -45.016  0.00  0.00    +0.000 A 
ATOM     19  S1  UNL     1      17.905  -6.101 -43.536  0.00  0.00    +0.000 S 
ENDBRANCH   8  11
ENDBRANCH   2   5
BRANCH   1  21
ATOM     20  C6  UNL     1      24.993  -8.522 -37.527  0.00  0.00    +0.000 C 
ATOM     21  N1  UNL     1      25.005  -7.428 -38.228  0.00  0.00    +0.000 NA
BRANCH  20  25
ATOM     22  C2  UNL     1      28.350  -9.499 -34.911  0.00  0.00    +0.000 C 
ATOM     23  C3  UNL     1      27.088  -9.835 -34.597  0.00  0.00    +0.000 C 
ATOM     24  C4  UNL     1      25.958  -9.486 -35.477  0.00  0.00    +0.000 C 
ATOM     25  C5  UNL     1      26.144  -8.907 -36.679  0.00  0.00    +0.000 C 
ATOM     26  C21 UNL     1      27.537  -8.682 -37.230  0.00  0.00    +0.000 C 
ATOM     27  I1  UNL     1      27.923 -10.108 -38.780  0.00  0.00    +0.000 I 
ATOM     28  C22 UNL     1      28.612  -8.808 -36.184  0.00  0.00    +0.000 C 
ATOM     29  O3  UNL     1      29.765  -8.358 -36.423  0.00  0.00    +0.000 OA
BRANCH  22  31
ATOM     30  C1  UNL     1      29.609  -9.240 -32.758  0.00  0.00    +0.000 C 
ATOM     31  O1  UNL     1      29.438  -9.776 -34.066  0.00  0.00    +0.000 OA
ENDBRANCH  22  31
ENDBRANCH  20  25
ENDBRANCH   1  21
TORSDOF 5
ENDMDL
MODEL 5
REMARK VINA RESULT:    -5.885      5.601      7.290
REMARK INTER + INTRA:          -7.956
REMARK INTER:                  -7.444
REMARK INTRA:                  -0.512
REMARK UNBOUND:                -0.351
REMARK  Name = resultss/4CJN/ligands/lig_184_t2.pdb
REMARK  6 active torsions:
REMARK  status: ('A' for Active; 'I' for Inactive)
REMARK    1  A    between atoms: C1_1  and  O1_2
REMARK    2  A    between atoms: O1_2  and  C2_3
REMARK    3  A    between atoms: C5_6  and  C6_7
REMARK    4  A    between atoms: N1_8  and  N2_9
REMARK    5  A    between atoms: C7_10  and  C8_12
REMARK    6  A    between atoms: C11_15  and  C12_16
REMARK                            x       y       z     vdW  Elec       q    Type
REMARK                         _______ _______ _______ _____ _____    ______ ____
ROOT
ATOM      1  N2  UNL     1      30.044  -9.952 -38.918  0.00  0.00    +0.000 N 
ATOM      2  C7  UNL     1      28.641  -9.731 -39.145  0.00  0.00    +0.000 C 
ATOM      3  O2  UNL     1      27.809 -10.033 -38.247  0.00  0.00    +0.000 OA
ATOM      4  H7  UNL     1      30.650 -10.179 -39.736  0.00  0.00    +0.000 HD
ENDROOT
BRANCH   2   5
ATOM      5  C8  UNL     1      28.156  -9.199 -40.442  0.00  0.00    +0.000 A 
ATOM      6  C9  UNL     1      28.351  -9.932 -41.625  0.00  0.00    +0.000 A 
ATOM      7  C10 UNL     1      27.892  -9.442 -42.852  0.00  0.00    +0.000 A 
ATOM      8  C11 UNL     1      27.223  -8.208 -42.921  0.00  0.00    +0.000 A 
ATOM      9  C19 UNL     1      27.018  -7.479 -41.738  0.00  0.00    +0.000 A 
ATOM     10  C20 UNL     1      27.478  -7.970 -40.512  0.00  0.00    +0.000 A 
BRANCH   8  11
ATOM     11  C12 UNL     1      26.740  -7.697 -44.226  0.00  0.00    +0.000 A 
ATOM     12  N3  UNL     1      27.567  -7.431 -45.270  0.00  0.00    +0.000 NA
ATOM     13  C13 UNL     1      26.877  -6.974 -46.346  0.00  0.00    +0.000 A 
ATOM     14  C14 UNL     1      27.459  -6.618 -47.564  0.00  0.00    +0.000 A 
ATOM     15  C15 UNL     1      26.627  -6.159 -48.601  0.00  0.00    +0.000 A 
ATOM     16  C16 UNL     1      25.234  -6.061 -48.409  0.00  0.00    +0.000 A 
ATOM     17  C17 UNL     1      24.661  -6.420 -47.179  0.00  0.00    +0.000 A 
ATOM     18  C18 UNL     1      25.506  -6.873 -46.169  0.00  0.00    +0.000 A 
ATOM     19  S1  UNL     1      25.119  -7.368 -44.616  0.00  0.00    +0.000 S 
ENDBRANCH   8  11
ENDBRANCH   2   5
BRANCH   1  21
ATOM     20  C6  UNL     1      30.986  -9.092 -36.901  0.00  0.00    +0.000 C 
ATOM     21  N1  UNL     1      30.605 -10.095 -37.634  0.00  0.00    +0.000 NA
BRANCH  20  25
ATOM     22  C2  UNL     1      32.715  -9.880 -32.969  0.00  0.00    +0.000 C 
ATOM     23  C3  UNL     1      33.476  -9.530 -34.018  0.00  0.00    +0.000 C 
ATOM     24  C4  UNL     1      32.887  -9.283 -35.347  0.00  0.00    +0.000 C 
ATOM     25  C5  UNL     1      31.556  -9.297 -35.550  0.00  0.00    +0.000 C 
ATOM     26  C21 UNL     1      30.591  -9.465 -34.393  0.00  0.00    +0.000 C 
ATOM     27  I1  UNL     1      29.673  -7.580 -33.958  0.00  0.00    +0.000 I 
ATOM     28  C22 UNL     1      31.255  -9.974 -33.142  0.00  0.00    +0.000 C 
ATOM     29  O3  UNL     1      30.547 -10.442 -32.210  0.00  0.00    +0.000 OA
BRANCH  22  31
ATOM     30  C1  UNL     1      33.853 -11.411 -31.341  0.00  0.00    +0.000 C 
ATOM     31  O1  UNL     1      33.257 -10.170 -31.705  0.00  0.00    +0.000 OA
ENDBRANCH  22  31
ENDBRANCH  20  25
ENDBRANCH   1  21
TORSDOF 5
ENDMDL
MODEL 6
REMARK VINA RESULT:    -5.134      7.039     10.097
REMARK INTER + INTRA:          -6.986
REMARK INTER:                  -6.580
REMARK INTRA:                  -0.406
REMARK UNBOUND:                -0.351
REMARK  Name = resultss/4CJN/ligands/lig_184_t2.pdb
REMARK  6 active torsions:
REMARK  status: ('A' for Active; 'I' for Inactive)
REMARK    1  A    between atoms: C1_1  and  O1_2
REMARK    2  A    between atoms: O1_2  and  C2_3
REMARK    3  A    between atoms: C5_6  and  C6_7
REMARK    4  A    between atoms: N1_8  and  N2_9
REMARK    5  A    between atoms: C7_10  and  C8_12
REMARK    6  A    between atoms: C11_15  and  C12_16
REMARK                            x       y       z     vdW  Elec       q    Type
REMARK                         _______ _______ _______ _____ _____    ______ ____
ROOT
ATOM      1  N2  UNL     1      25.700  -8.346 -40.191  0.00  0.00    +0.000 N 
ATOM      2  C7  UNL     1      27.096  -8.689 -40.234  0.00  0.00    +0.000 C 
ATOM      3  O2  UNL     1      27.656  -8.881 -41.347  0.00  0.00    +0.000 OA
ATOM      4  H7  UNL     1      25.138  -8.656 -39.368  0.00  0.00    +0.000 HD
ENDROOT
BRANCH   2   5
ATOM      5  C8  UNL     1      27.874  -8.867 -38.983  0.00  0.00    +0.000 A 
ATOM      6  C9  UNL     1      27.942 -10.127 -38.366  0.00  0.00    +0.000 A 
ATOM      7  C10 UNL     1      28.677 -10.306 -37.190  0.00  0.00    +0.000 A 
ATOM      8  C11 UNL     1      29.367  -9.229 -36.609  0.00  0.00    +0.000 A 
ATOM      9  C19 UNL     1      29.309  -7.971 -37.231  0.00  0.00    +0.000 A 
ATOM     10  C20 UNL     1      28.573  -7.792 -38.407  0.00  0.00    +0.000 A 
BRANCH   8  11
ATOM     11  C12 UNL     1      30.144  -9.429 -35.363  0.00  0.00    +0.000 A 
ATOM     12  N3  UNL     1      31.502  -9.413 -35.324  0.00  0.00    +0.000 NA
ATOM     13  C13 UNL     1      31.964  -9.620 -34.064  0.00  0.00    +0.000 A 
ATOM     14  C14 UNL     1      33.316  -9.656 -33.717  0.00  0.00    +0.000 A 
ATOM     15  C15 UNL     1      33.660  -9.880 -32.372  0.00  0.00    +0.000 A 
ATOM     16  C16 UNL     1      32.659 -10.063 -31.398  0.00  0.00    +0.000 A 
ATOM     17  C17 UNL     1      31.302 -10.025 -31.760  0.00  0.00    +0.000 A 
ATOM     18  C18 UNL     1      30.988  -9.801 -33.098  0.00  0.00    +0.000 A 
ATOM     19  S1  UNL     1      29.480  -9.703 -33.823  0.00  0.00    +0.000 S 
ENDBRANCH   8  11
ENDBRANCH   2   5
BRANCH   1  21
ATOM     20  C6  UNL     1      24.475  -8.536 -42.230  0.00  0.00    +0.000 C 
ATOM     21  N1  UNL     1      25.002  -7.810 -41.290  0.00  0.00    +0.000 NA
BRANCH  20  25
ATOM     22  C2  UNL     1      22.182  -6.889 -45.560  0.00  0.00    +0.000 C 
ATOM     23  C3  UNL     1      21.735  -6.825 -44.296  0.00  0.00    +0.000 C 
ATOM     24  C4  UNL     1      22.507  -7.399 -43.179  0.00  0.00    +0.000 C 
ATOM     25  C5  UNL     1      23.736  -7.922 -43.356  0.00  0.00    +0.000 C 
ATOM     26  C21 UNL     1      24.428  -7.849 -44.702  0.00  0.00    +0.000 C 
ATOM     27  I1  UNL     1      25.972  -6.367 -44.622  0.00  0.00    +0.000 I 
ATOM     28  C22 UNL     1      23.492  -7.505 -45.829  0.00  0.00    +0.000 C 
ATOM     29  O3  UNL     1      23.856  -7.703 -47.019  0.00  0.00    +0.000 OA
BRANCH  22  31
ATOM     30  C1  UNL     1      20.347  -7.067 -47.262  0.00  0.00    +0.000 C 
ATOM     31  O1  UNL     1      21.442  -6.394 -46.649  0.00  0.00    +0.000 OA
ENDBRANCH  22  31
ENDBRANCH  20  25
ENDBRANCH   1  21
TORSDOF 5
ENDMDL
MODEL 7
REMARK VINA RESULT:    -5.078      5.656      7.551
REMARK INTER + INTRA:          -6.913
REMARK INTER:                  -6.400
REMARK INTRA:                  -0.513
REMARK UNBOUND:                -0.351
REMARK  Name = resultss/4CJN/ligands/lig_184_t2.pdb
REMARK  6 active torsions:
REMARK  status: ('A' for Active; 'I' for Inactive)
REMARK    1  A    between atoms: C1_1  and  O1_2
REMARK    2  A    between atoms: O1_2  and  C2_3
REMARK    3  A    between atoms: C5_6  and  C6_7
REMARK    4  A    between atoms: N1_8  and  N2_9
REMARK    5  A    between atoms: C7_10  and  C8_12
REMARK    6  A    between atoms: C11_15  and  C12_16
REMARK                            x       y       z     vdW  Elec       q    Type
REMARK                         _______ _______ _______ _____ _____    ______ ____
ROOT
ATOM      1  N2  UNL     1      29.091  -8.285 -39.159  0.00  0.00    +0.000 N 
ATOM      2  C7  UNL     1      29.132  -9.033 -40.386  0.00  0.00    +0.000 C 
ATOM      3  O2  UNL     1      29.931 -10.002 -40.499  0.00  0.00    +0.000 OA
ATOM      4  H7  UNL     1      28.849  -7.271 -39.202  0.00  0.00    +0.000 HD
ENDROOT
BRANCH   2   5
ATOM      5  C8  UNL     1      28.282  -8.649 -41.539  0.00  0.00    +0.000 A 
ATOM      6  C9  UNL     1      26.883  -8.611 -41.405  0.00  0.00    +0.000 A 
ATOM      7  C10 UNL     1      26.074  -8.245 -42.485  0.00  0.00    +0.000 A 
ATOM      8  C11 UNL     1      26.646  -7.902 -43.721  0.00  0.00    +0.000 A 
ATOM      9  C19 UNL     1      28.045  -7.929 -43.854  0.00  0.00    +0.000 A 
ATOM     10  C20 UNL     1      28.853  -8.296 -42.773  0.00  0.00    +0.000 A 
BRANCH   8  11
ATOM     11  C12 UNL     1      25.779  -7.515 -44.860  0.00  0.00    +0.000 A 
ATOM     12  N3  UNL     1      24.427  -7.641 -44.840  0.00  0.00    +0.000 NA
ATOM     13  C13 UNL     1      23.872  -7.217 -46.004  0.00  0.00    +0.000 A 
ATOM     14  C14 UNL     1      22.502  -7.227 -46.273  0.00  0.00    +0.000 A 
ATOM     15  C15 UNL     1      22.057  -6.758 -47.523  0.00  0.00    +0.000 A 
ATOM     16  C16 UNL     1      22.979  -6.289 -48.480  0.00  0.00    +0.000 A 
ATOM     17  C17 UNL     1      24.355  -6.285 -48.197  0.00  0.00    +0.000 A 
ATOM     18  C18 UNL     1      24.769  -6.754 -46.952  0.00  0.00    +0.000 A 
ATOM     19  S1  UNL     1      26.323  -6.869 -46.335  0.00  0.00    +0.000 S 
ENDBRANCH   8  11
ENDBRANCH   2   5
BRANCH   1  21
ATOM     20  C6  UNL     1      29.951  -8.030 -36.947  0.00  0.00    +0.000 C 
ATOM     21  N1  UNL     1      29.569  -8.786 -37.932  0.00  0.00    +0.000 NA
BRANCH  20  25
ATOM     22  C2  UNL     1      31.248  -9.605 -33.087  0.00  0.00    +0.000 C 
ATOM     23  C3  UNL     1      30.096  -9.993 -33.657  0.00  0.00    +0.000 C 
ATOM     24  C4  UNL     1      29.656  -9.442 -34.952  0.00  0.00    +0.000 C 
ATOM     25  C5  UNL     1      30.430  -8.608 -35.671  0.00  0.00    +0.000 C 
ATOM     26  C21 UNL     1      31.841  -8.276 -35.229  0.00  0.00    +0.000 C 
ATOM     27  I1  UNL     1      33.236  -9.316 -36.476  0.00  0.00    +0.000 I 
ATOM     28  C22 UNL     1      32.112  -8.645 -33.795  0.00  0.00    +0.000 C 
ATOM     29  O3  UNL     1      33.119  -8.163 -33.210  0.00  0.00    +0.000 OA
BRANCH  22  31
ATOM     30  C1  UNL     1      32.377 -11.290 -31.611  0.00  0.00    +0.000 C 
ATOM     31  O1  UNL     1      31.666 -10.076 -31.830  0.00  0.00    +0.000 OA
ENDBRANCH  22  31
ENDBRANCH  20  25
ENDBRANCH   1  21
TORSDOF 5
ENDMDL
MODEL 8
REMARK VINA RESULT:    -5.057      6.182      8.275
REMARK INTER + INTRA:          -6.885
REMARK INTER:                  -6.400
REMARK INTRA:                  -0.485
REMARK UNBOUND:                -0.351
REMARK  Name = resultss/4CJN/ligands/lig_184_t2.pdb
REMARK  6 active torsions:
REMARK  status: ('A' for Active; 'I' for Inactive)
REMARK    1  A    between atoms: C1_1  and  O1_2
REMARK    2  A    between atoms: O1_2  and  C2_3
REMARK    3  A    between atoms: C5_6  and  C6_7
REMARK    4  A    between atoms: N1_8  and  N2_9
REMARK    5  A    between atoms: C7_10  and  C8_12
REMARK    6  A    between atoms: C11_15  and  C12_16
REMARK                            x       y       z     vdW  Elec       q    Type
REMARK                         _______ _______ _______ _____ _____    ______ ____
ROOT
ATOM      1  N2  UNL     1      27.405  -7.965 -39.644  0.00  0.00    +0.000 N 
ATOM      2  C7  UNL     1      27.284  -8.797 -40.809  0.00  0.00    +0.000 C 
ATOM      3  O2  UNL     1      28.010  -9.822 -40.922  0.00  0.00    +0.000 OA
ATOM      4  H7  UNL     1      27.220  -6.943 -39.741  0.00  0.00    +0.000 HD
ENDROOT
BRANCH   2   5
ATOM      5  C8  UNL     1      26.350  -8.439 -41.905  0.00  0.00    +0.000 A 
ATOM      6  C9  UNL     1      24.976  -8.302 -41.647  0.00  0.00    +0.000 A 
ATOM      7  C10 UNL     1      24.088  -7.960 -42.672  0.00  0.00    +0.000 A 
ATOM      8  C11 UNL     1      24.557  -7.740 -43.978  0.00  0.00    +0.000 A 
ATOM      9  C19 UNL     1      25.933  -7.867 -44.236  0.00  0.00    +0.000 A 
ATOM     10  C20 UNL     1      26.820  -8.210 -43.210  0.00  0.00    +0.000 A 
BRANCH   8  11
ATOM     11  C12 UNL     1      23.609  -7.378 -45.058  0.00  0.00    +0.000 A 
ATOM     12  N3  UNL     1      22.276  -7.220 -44.852  0.00  0.00    +0.000 NA
ATOM     13  C13 UNL     1      21.632  -6.889 -46.001  0.00  0.00    +0.000 A 
ATOM     14  C14 UNL     1      20.258  -6.664 -46.099  0.00  0.00    +0.000 A 
ATOM     15  C15 UNL     1      19.717  -6.327 -47.352  0.00  0.00    +0.000 A 
ATOM     16  C16 UNL     1      20.549  -6.220 -48.484  0.00  0.00    +0.000 A 
ATOM     17  C17 UNL     1      21.930  -6.450 -48.374  0.00  0.00    +0.000 A 
ATOM     18  C18 UNL     1      22.441  -6.781 -47.121  0.00  0.00    +0.000 A 
ATOM     19  S1  UNL     1      24.025  -7.108 -46.683  0.00  0.00    +0.000 S 
ENDBRANCH   8  11
ENDBRANCH   2   5
BRANCH   1  21
ATOM     20  C6  UNL     1      27.944  -7.719 -37.332  0.00  0.00    +0.000 C 
ATOM     21  N1  UNL     1      27.970  -8.409 -38.432  0.00  0.00    +0.000 NA
BRANCH  20  25
ATOM     22  C2  UNL     1      29.528  -9.355 -33.606  0.00  0.00    +0.000 C 
ATOM     23  C3  UNL     1      29.540 -10.060 -34.749  0.00  0.00    +0.000 C 
ATOM     24  C4  UNL     1      28.988  -9.507 -35.998  0.00  0.00    +0.000 C 
ATOM     25  C5  UNL     1      28.538  -8.240 -36.080  0.00  0.00    +0.000 C 
ATOM     26  C21 UNL     1      28.678  -7.286 -34.911  0.00  0.00    +0.000 C 
ATOM     27  I1  UNL     1      30.242  -5.884 -35.326  0.00  0.00    +0.000 I 
ATOM     28  C22 UNL     1      28.991  -7.984 -33.615  0.00  0.00    +0.000 C 
ATOM     29  O3  UNL     1      28.838  -7.367 -32.526  0.00  0.00    +0.000 OA
BRANCH  22  31
ATOM     30  C1  UNL     1      31.368 -10.159 -32.103  0.00  0.00    +0.000 C 
ATOM     31  O1  UNL     1      30.002  -9.878 -32.390  0.00  0.00    +0.000 OA
ENDBRANCH  22  31
ENDBRANCH  20  25
ENDBRANCH   1  21
TORSDOF 5
ENDMDL
MODEL 9
REMARK VINA RESULT:    -4.962      5.877      7.767
REMARK INTER + INTRA:          -6.763
REMARK INTER:                  -6.248
REMARK INTRA:                  -0.515
REMARK UNBOUND:                -0.351
REMARK  Name = resultss/4CJN/ligands/lig_184_t2.pdb
REMARK  6 active torsions:
REMARK  status: ('A' for Active; 'I' for Inactive)
REMARK    1  A    between atoms: C1_1  and  O1_2
REMARK    2  A    between atoms: O1_2  and  C2_3
REMARK    3  A    between atoms: C5_6  and  C6_7
REMARK    4  A    between atoms: N1_8  and  N2_9
REMARK    5  A    between atoms: C7_10  and  C8_12
REMARK    6  A    between atoms: C11_15  and  C12_16
REMARK                            x       y       z     vdW  Elec       q    Type
REMARK                         _______ _______ _______ _____ _____    ______ ____
ROOT
ATOM      1  N2  UNL     1      28.697  -8.378 -39.232  0.00  0.00    +0.000 N 
ATOM      2  C7  UNL     1      27.525  -9.086 -39.670  0.00  0.00    +0.000 C 
ATOM      3  O2  UNL     1      27.130 -10.096 -39.028  0.00  0.00    +0.000 OA
ATOM      4  H7  UNL     1      29.291  -7.908 -39.949  0.00  0.00    +0.000 HD
ENDROOT
BRANCH   2   5
ATOM      5  C8  UNL     1      26.802  -8.673 -40.899  0.00  0.00    +0.000 A 
ATOM      6  C9  UNL     1      26.733  -9.538 -42.004  0.00  0.00    +0.000 A 
ATOM      7  C10 UNL     1      26.050  -9.160 -43.164  0.00  0.00    +0.000 A 
ATOM      8  C11 UNL     1      25.415  -7.909 -43.242  0.00  0.00    +0.000 A 
ATOM      9  C19 UNL     1      25.474  -7.047 -42.134  0.00  0.00    +0.000 A 
ATOM     10  C20 UNL     1      26.159  -7.426 -40.975  0.00  0.00    +0.000 A 
BRANCH   8  11
ATOM     11  C12 UNL     1      24.693  -7.517 -44.476  0.00  0.00    +0.000 A 
ATOM     12  N3  UNL     1      23.339  -7.448 -44.553  0.00  0.00    +0.000 NA
ATOM     13  C13 UNL     1      22.932  -7.066 -45.791  0.00  0.00    +0.000 A 
ATOM     14  C14 UNL     1      21.597  -6.907 -46.168  0.00  0.00    +0.000 A 
ATOM     15  C15 UNL     1      21.311  -6.506 -47.484  0.00  0.00    +0.000 A 
ATOM     16  C16 UNL     1      22.354  -6.268 -48.402  0.00  0.00    +0.000 A 
ATOM     17  C17 UNL     1      23.693  -6.431 -48.011  0.00  0.00    +0.000 A 
ATOM     18  C18 UNL     1      23.949  -6.829 -46.701  0.00  0.00    +0.000 A 
ATOM     19  S1  UNL     1      25.424  -7.103 -45.953  0.00  0.00    +0.000 S 
ENDBRANCH   8  11
ENDBRANCH   2   5
BRANCH   1  21
ATOM     20  C6  UNL     1      29.039  -7.543 -37.022  0.00  0.00    +0.000 C 
ATOM     21  N1  UNL     1      29.207  -8.465 -37.922  0.00  0.00    +0.000 NA
BRANCH  20  25
ATOM     22  C2  UNL     1      30.825  -7.997 -33.064  0.00  0.00    +0.000 C 
ATOM     23  C3  UNL     1      30.798  -6.812 -33.695  0.00  0.00    +0.000 C 
ATOM     24  C4  UNL     1      30.209  -6.671 -35.039  0.00  0.00    +0.000 C 
ATOM     25  C5  UNL     1      29.583  -7.693 -35.654  0.00  0.00    +0.000 C 
ATOM     26  C21 UNL     1      29.362  -9.013 -34.943  0.00  0.00    +0.000 C 
ATOM     27  I1  UNL     1      27.303  -9.175 -34.378  0.00  0.00    +0.000 I 
ATOM     28  C22 UNL     1      30.211  -9.169 -33.711  0.00  0.00    +0.000 C 
ATOM     29  O3  UNL     1      30.358 -10.311 -33.199  0.00  0.00    +0.000 OA
BRANCH  22  31
ATOM     30  C1  UNL     1      32.799  -8.479 -31.593  0.00  0.00    +0.000 C 
ATOM     31  O1  UNL     1      31.425  -8.169 -31.804  0.00  0.00    +0.000 OA
ENDBRANCH  22  31
ENDBRANCH  20  25
ENDBRANCH   1  21
TORSDOF 5
ENDMDL
