MODEL 1
REMARK VINA RESULT:    -5.928      0.000      0.000
REMARK INTER + INTRA:          -7.470
REMARK INTER:                  -7.141
REMARK INTRA:                  -0.329
REMARK UNBOUND:                -0.329
REMARK  Name = resultss/4CJN/ligands/lig_236_t0.pdb
REMARK  6 active torsions:
REMARK  status: ('A' for Active; 'I' for Inactive)
REMARK    1  A    between atoms: C2_3  and  O2_4
REMARK    2  A    between atoms: C3_5  and  C4_6
REMARK    3  A    between atoms: C7_9  and  O3_10
REMARK    4  A    between atoms: C8_11  and  O4_12
REMARK    5  A    between atoms: C12_17  and  O6_18
REMARK    6  A    between atoms: C14_20  and  O7_21
REMARK                            x       y       z     vdW  Elec       q    Type
REMARK                         _______ _______ _______ _____ _____    ______ ____
ROOT
ATOM      1  O1  UNL     1      31.489  -9.412 -39.687  0.00  0.00    +0.000 OA
ATOM      2  C1  UNL     1      30.964  -9.785 -40.769  0.00  0.00    +0.000 A 
ATOM      3  C2  UNL     1      31.773 -10.413 -41.730  0.00  0.00    +0.000 A 
ATOM      4  C3  UNL     1      31.208 -10.778 -42.964  0.00  0.00    +0.000 A 
ATOM      5  O5  UNL     1      29.940 -10.480 -43.221  0.00  0.00    +0.000 OA
ATOM      6  C10 UNL     1      29.137  -9.886 -42.346  0.00  0.00    +0.000 A 
ATOM      7  C11 UNL     1      27.826  -9.597 -42.734  0.00  0.00    +0.000 A 
ATOM      8  C12 UNL     1      26.951  -8.963 -41.851  0.00  0.00    +0.000 A 
ATOM      9  C13 UNL     1      27.379  -8.643 -40.563  0.00  0.00    +0.000 A 
ATOM     10  C14 UNL     1      28.676  -8.951 -40.134  0.00  0.00    +0.000 A 
ATOM     11  C15 UNL     1      29.597  -9.544 -41.049  0.00  0.00    +0.000 A 
ENDROOT
BRANCH   4  12
ATOM     12  C4  UNL     1      31.991 -11.466 -44.016  0.00  0.00    +0.000 A 
ATOM     13  C5  UNL     1      32.147 -12.863 -44.018  0.00  0.00    +0.000 A 
ATOM     14  C6  UNL     1      32.869 -13.493 -45.035  0.00  0.00    +0.000 A 
ATOM     15  C7  UNL     1      33.434 -12.742 -46.069  0.00  0.00    +0.000 A 
ATOM     16  C8  UNL     1      33.270 -11.347 -46.090  0.00  0.00    +0.000 A 
ATOM     17  C9  UNL     1      32.543 -10.717 -45.068  0.00  0.00    +0.000 A 
BRANCH  15  18
ATOM     18  O3  UNL     1      34.152 -13.398 -47.069  0.00  0.00    +0.000 OA
ATOM     19  H4  UNL     1      34.413 -12.940 -47.933  0.00  0.00    +0.000 HD
ENDBRANCH  15  18
BRANCH  16  20
ATOM     20  O4  UNL     1      33.824 -10.593 -47.122  0.00  0.00    +0.000 OA
ATOM     21  H5  UNL     1      34.084 -11.013 -48.007  0.00  0.00    +0.000 HD
ENDBRANCH  16  20
ENDBRANCH   4  12
BRANCH   3  22
ATOM     22  O2  UNL     1      33.130 -10.640 -41.484  0.00  0.00    +0.000 OA
ATOM     23  H1  UNL     1      33.805  -9.887 -41.424  0.00  0.00    +0.000 HD
ENDBRANCH   3  22
BRANCH   8  24
ATOM     24  O6  UNL     1      25.650  -8.655 -42.240  0.00  0.00    +0.000 OA
ATOM     25  H8  UNL     1      25.452  -8.219 -43.132  0.00  0.00    +0.000 HD
ENDBRANCH   8  24
BRANCH  10  26
ATOM     26  O7  UNL     1      28.973  -8.674 -38.797  0.00  0.00    +0.000 OA
ATOM     27  H10 UNL     1      29.585  -7.935 -38.485  0.00  0.00    +0.000 HD
ENDBRANCH  10  26
TORSDOF 6
ENDMDL
MODEL 2
REMARK VINA RESULT:    -5.684      2.190      3.520
REMARK INTER + INTRA:          -7.176
REMARK INTER:                  -7.068
REMARK INTRA:                  -0.108
REMARK UNBOUND:                -0.329
REMARK  Name = resultss/4CJN/ligands/lig_236_t0.pdb
REMARK  6 active torsions:
REMARK  status: ('A' for Active; 'I' for Inactive)
REMARK    1  A    between atoms: C2_3  and  O2_4
REMARK    2  A    between atoms: C3_5  and  C4_6
REMARK    3  A    between atoms: C7_9  and  O3_10
REMARK    4  A    between atoms: C8_11  and  O4_12
REMARK    5  A    between atoms: C12_17  and  O6_18
REMARK    6  A    between atoms: C14_20  and  O7_21
REMARK                            x       y       z     vdW  Elec       q    Type
REMARK                         _______ _______ _______ _____ _____    ______ ____
ROOT
ATOM      1  O1  UNL     1      27.070  -9.564 -38.420  0.00  0.00    +0.000 OA
ATOM      2  C1  UNL     1      27.329  -9.730 -39.641  0.00  0.00    +0.000 A 
ATOM      3  C2  UNL     1      28.622 -10.140 -40.006  0.00  0.00    +0.000 A 
ATOM      4  C3  UNL     1      28.937 -10.269 -41.369  0.00  0.00    +0.000 A 
ATOM      5  O5  UNL     1      28.029  -9.955 -42.287  0.00  0.00    +0.000 OA
ATOM      6  C10 UNL     1      26.796  -9.562 -41.991  0.00  0.00    +0.000 A 
ATOM      7  C11 UNL     1      25.932  -9.233 -43.039  0.00  0.00    +0.000 A 
ATOM      8  C12 UNL     1      24.632  -8.804 -42.774  0.00  0.00    +0.000 A 
ATOM      9  C13 UNL     1      24.181  -8.732 -41.456  0.00  0.00    +0.000 A 
ATOM     10  C14 UNL     1      25.012  -9.089 -40.387  0.00  0.00    +0.000 A 
ATOM     11  C15 UNL     1      26.364  -9.470 -40.643  0.00  0.00    +0.000 A 
ENDROOT
BRANCH   4  12
ATOM     12  C4  UNL     1      30.270 -10.720 -41.831  0.00  0.00    +0.000 A 
ATOM     13  C5  UNL     1      30.421 -11.875 -42.617  0.00  0.00    +0.000 A 
ATOM     14  C6  UNL     1      31.686 -12.268 -43.062  0.00  0.00    +0.000 A 
ATOM     15  C7  UNL     1      32.815 -11.509 -42.741  0.00  0.00    +0.000 A 
ATOM     16  C8  UNL     1      32.675 -10.341 -41.973  0.00  0.00    +0.000 A 
ATOM     17  C9  UNL     1      31.404  -9.948 -41.528  0.00  0.00    +0.000 A 
BRANCH  15  18
ATOM     18  O3  UNL     1      34.064 -11.927 -43.197  0.00  0.00    +0.000 OA
ATOM     19  H4  UNL     1      34.492 -12.789 -42.880  0.00  0.00    +0.000 HD
ENDBRANCH  15  18
BRANCH  16  20
ATOM     20  O4  UNL     1      33.795  -9.576 -41.655  0.00  0.00    +0.000 OA
ATOM     21  H5  UNL     1      34.675  -9.691 -42.145  0.00  0.00    +0.000 HD
ENDBRANCH  16  20
ENDBRANCH   4  12
BRANCH   3  22
ATOM     22  O2  UNL     1      29.597 -10.379 -39.033  0.00  0.00    +0.000 OA
ATOM     23  H1  UNL     1      30.492 -10.799 -39.253  0.00  0.00    +0.000 HD
ENDBRANCH   3  22
BRANCH   8  24
ATOM     24  O6  UNL     1      23.773  -8.455 -43.813  0.00  0.00    +0.000 OA
ATOM     25  H8  UNL     1      23.676  -7.495 -44.121  0.00  0.00    +0.000 HD
ENDBRANCH   8  24
BRANCH  10  26
ATOM     26  O7  UNL     1      24.435  -9.071 -39.114  0.00  0.00    +0.000 OA
ATOM     27  H10 UNL     1      23.919  -8.296 -38.726  0.00  0.00    +0.000 HD
ENDBRANCH  10  26
TORSDOF 6
ENDMDL
MODEL 3
REMARK VINA RESULT:    -5.451      5.499      7.736
REMARK INTER + INTRA:          -6.895
REMARK INTER:                  -6.641
REMARK INTRA:                  -0.255
REMARK UNBOUND:                -0.329
REMARK  Name = resultss/4CJN/ligands/lig_236_t0.pdb
REMARK  6 active torsions:
REMARK  status: ('A' for Active; 'I' for Inactive)
REMARK    1  A    between atoms: C2_3  and  O2_4
REMARK    2  A    between atoms: C3_5  and  C4_6
REMARK    3  A    between atoms: C7_9  and  O3_10
REMARK    4  A    between atoms: C8_11  and  O4_12
REMARK    5  A    between atoms: C12_17  and  O6_18
REMARK    6  A    between atoms: C14_20  and  O7_21
REMARK                            x       y       z     vdW  Elec       q    Type
REMARK                         _______ _______ _______ _____ _____    ______ ____
ROOT
ATOM      1  O1  UNL     1      22.316  -8.289 -43.018  0.00  0.00    +0.000 OA
ATOM      2  C1  UNL     1      23.573  -8.283 -43.095  0.00  0.00    +0.000 A 
ATOM      3  C2  UNL     1      24.317  -8.764 -42.006  0.00  0.00    +0.000 A 
ATOM      4  C3  UNL     1      25.720  -8.706 -42.060  0.00  0.00    +0.000 A 
ATOM      5  O5  UNL     1      26.316  -8.154 -43.110  0.00  0.00    +0.000 OA
ATOM      6  C10 UNL     1      25.656  -7.684 -44.162  0.00  0.00    +0.000 A 
ATOM      7  C11 UNL     1      26.385  -7.101 -45.201  0.00  0.00    +0.000 A 
ATOM      8  C12 UNL     1      25.732  -6.584 -46.320  0.00  0.00    +0.000 A 
ATOM      9  C13 UNL     1      24.344  -6.677 -46.415  0.00  0.00    +0.000 A 
ATOM     10  C14 UNL     1      23.589  -7.287 -45.407  0.00  0.00    +0.000 A 
ATOM     11  C15 UNL     1      24.241  -7.765 -44.230  0.00  0.00    +0.000 A 
ENDROOT
BRANCH   4  12
ATOM     12  C4  UNL     1      26.573  -9.216 -40.961  0.00  0.00    +0.000 A 
ATOM     13  C5  UNL     1      27.207  -8.343 -40.060  0.00  0.00    +0.000 A 
ATOM     14  C6  UNL     1      27.987  -8.848 -39.017  0.00  0.00    +0.000 A 
ATOM     15  C7  UNL     1      28.135 -10.227 -38.849  0.00  0.00    +0.000 A 
ATOM     16  C8  UNL     1      27.491 -11.111 -39.730  0.00  0.00    +0.000 A 
ATOM     17  C9  UNL     1      26.707 -10.602 -40.777  0.00  0.00    +0.000 A 
BRANCH  15  18
ATOM     18  O3  UNL     1      28.922 -10.702 -37.800  0.00  0.00    +0.000 OA
ATOM     19  H4  UNL     1      29.062 -10.170 -36.949  0.00  0.00    +0.000 HD
ENDBRANCH  15  18
BRANCH  16  20
ATOM     20  O4  UNL     1      27.628 -12.488 -39.564  0.00  0.00    +0.000 OA
ATOM     21  H5  UNL     1      27.884 -13.093 -40.335  0.00  0.00    +0.000 HD
ENDBRANCH  16  20
ENDBRANCH   4  12
BRANCH   3  22
ATOM     22  O2  UNL     1      23.678  -9.259 -40.866  0.00  0.00    +0.000 OA
ATOM     23  H1  UNL     1      22.695  -9.098 -40.680  0.00  0.00    +0.000 HD
ENDBRANCH   3  22
BRANCH   8  24
ATOM     24  O6  UNL     1      26.453  -5.983 -47.349  0.00  0.00    +0.000 OA
ATOM     25  H8  UNL     1      26.198  -6.113 -48.321  0.00  0.00    +0.000 HD
ENDBRANCH   8  24
BRANCH  10  26
ATOM     26  O7  UNL     1      22.217  -7.413 -45.643  0.00  0.00    +0.000 OA
ATOM     27  H10 UNL     1      21.675  -6.797 -46.230  0.00  0.00    +0.000 HD
ENDBRANCH  10  26
TORSDOF 6
ENDMDL
MODEL 4
REMARK VINA RESULT:    -5.319      6.909     10.544
REMARK INTER + INTRA:          -6.736
REMARK INTER:                  -6.476
REMARK INTRA:                  -0.260
REMARK UNBOUND:                -0.329
REMARK  Name = resultss/4CJN/ligands/lig_236_t0.pdb
REMARK  6 active torsions:
REMARK  status: ('A' for Active; 'I' for Inactive)
REMARK    1  A    between atoms: C2_3  and  O2_4
REMARK    2  A    between atoms: C3_5  and  C4_6
REMARK    3  A    between atoms: C7_9  and  O3_10
REMARK    4  A    between atoms: C8_11  and  O4_12
REMARK    5  A    between atoms: C12_17  and  O6_18
REMARK    6  A    between atoms: C14_20  and  O7_21
REMARK                            x       y       z     vdW  Elec       q    Type
REMARK                         _______ _______ _______ _____ _____    ______ ____
ROOT
ATOM      1  O1  UNL     1      26.577  -8.751 -33.775  0.00  0.00    +0.000 OA
ATOM      2  C1  UNL     1      27.748  -9.070 -34.107  0.00  0.00    +0.000 A 
ATOM      3  C2  UNL     1      28.773  -8.962 -33.153  0.00  0.00    +0.000 A 
ATOM      4  C3  UNL     1      30.093  -9.259 -33.534  0.00  0.00    +0.000 A 
ATOM      5  O5  UNL     1      30.357  -9.586 -34.794  0.00  0.00    +0.000 OA
ATOM      6  C10 UNL     1      29.423  -9.698 -35.731  0.00  0.00    +0.000 A 
ATOM      7  C11 UNL     1      29.819 -10.023 -37.031  0.00  0.00    +0.000 A 
ATOM      8  C12 UNL     1      28.873 -10.140 -38.049  0.00  0.00    +0.000 A 
ATOM      9  C13 UNL     1      27.520  -9.962 -37.761  0.00  0.00    +0.000 A 
ATOM     10  C14 UNL     1      27.089  -9.670 -36.461  0.00  0.00    +0.000 A 
ATOM     11  C15 UNL     1      28.054  -9.488 -35.425  0.00  0.00    +0.000 A 
ENDROOT
BRANCH   4  12
ATOM     12  C4  UNL     1      31.223  -9.193 -32.578  0.00  0.00    +0.000 A 
ATOM     13  C5  UNL     1      31.759  -7.962 -32.162  0.00  0.00    +0.000 A 
ATOM     14  C6  UNL     1      32.808  -7.923 -31.241  0.00  0.00    +0.000 A 
ATOM     15  C7  UNL     1      33.329  -9.107 -30.712  0.00  0.00    +0.000 A 
ATOM     16  C8  UNL     1      32.789 -10.343 -31.105  0.00  0.00    +0.000 A 
ATOM     17  C9  UNL     1      31.734 -10.380 -32.030  0.00  0.00    +0.000 A 
BRANCH  15  18
ATOM     18  O3  UNL     1      34.378  -9.037 -29.796  0.00  0.00    +0.000 OA
ATOM     19  H4  UNL     1      34.238  -9.186 -28.805  0.00  0.00    +0.000 HD
ENDBRANCH  15  18
BRANCH  16  20
ATOM     20  O4  UNL     1      33.298 -11.528 -30.576  0.00  0.00    +0.000 OA
ATOM     21  H5  UNL     1      34.013 -12.060 -31.057  0.00  0.00    +0.000 HD
ENDBRANCH  16  20
ENDBRANCH   4  12
BRANCH   3  22
ATOM     22  O2  UNL     1      28.497  -8.529 -31.853  0.00  0.00    +0.000 OA
ATOM     23  H1  UNL     1      28.639  -7.571 -31.557  0.00  0.00    +0.000 HD
ENDBRANCH   3  22
BRANCH   8  24
ATOM     24  O6  UNL     1      29.264 -10.443 -39.352  0.00  0.00    +0.000 OA
ATOM     25  H8  UNL     1      29.439 -11.397 -39.644  0.00  0.00    +0.000 HD
ENDBRANCH   8  24
BRANCH  10  26
ATOM     26  O7  UNL     1      25.708  -9.605 -36.261  0.00  0.00    +0.000 OA
ATOM     27  H10 UNL     1      25.146 -10.347 -35.872  0.00  0.00    +0.000 HD
ENDBRANCH  10  26
TORSDOF 6
ENDMDL
MODEL 5
REMARK VINA RESULT:    -5.312      4.460      8.729
REMARK INTER + INTRA:          -6.728
REMARK INTER:                  -6.471
REMARK INTRA:                  -0.256
REMARK UNBOUND:                -0.329
REMARK  Name = resultss/4CJN/ligands/lig_236_t0.pdb
REMARK  6 active torsions:
REMARK  status: ('A' for Active; 'I' for Inactive)
REMARK    1  A    between atoms: C2_3  and  O2_4
REMARK    2  A    between atoms: C3_5  and  C4_6
REMARK    3  A    between atoms: C7_9  and  O3_10
REMARK    4  A    between atoms: C8_11  and  O4_12
REMARK    5  A    between atoms: C12_17  and  O6_18
REMARK    6  A    between atoms: C14_20  and  O7_21
REMARK                            x       y       z     vdW  Elec       q    Type
REMARK                         _______ _______ _______ _____ _____    ______ ____
ROOT
ATOM      1  O1  UNL     1      29.920  -8.773 -40.395  0.00  0.00    +0.000 OA
ATOM      2  C1  UNL     1      28.724  -8.774 -40.003  0.00  0.00    +0.000 A 
ATOM      3  C2  UNL     1      28.464  -8.662 -38.628  0.00  0.00    +0.000 A 
ATOM      4  C3  UNL     1      27.134  -8.722 -38.178  0.00  0.00    +0.000 A 
ATOM      5  O5  UNL     1      26.154  -8.933 -39.048  0.00  0.00    +0.000 OA
ATOM      6  C10 UNL     1      26.349  -9.048 -40.356  0.00  0.00    +0.000 A 
ATOM      7  C11 UNL     1      25.245  -9.295 -41.176  0.00  0.00    +0.000 A 
ATOM      8  C12 UNL     1      25.406  -9.434 -42.555  0.00  0.00    +0.000 A 
ATOM      9  C13 UNL     1      26.673  -9.295 -43.122  0.00  0.00    +0.000 A 
ATOM     10  C14 UNL     1      27.792  -9.012 -42.330  0.00  0.00    +0.000 A 
ATOM     11  C15 UNL     1      27.649  -8.929 -40.912  0.00  0.00    +0.000 A 
ENDROOT
BRANCH   4  12
ATOM     12  C4  UNL     1      26.780  -8.587 -36.745  0.00  0.00    +0.000 A 
ATOM     13  C5  UNL     1      26.873  -7.351 -36.082  0.00  0.00    +0.000 A 
ATOM     14  C6  UNL     1      26.511  -7.242 -34.737  0.00  0.00    +0.000 A 
ATOM     15  C7  UNL     1      26.038  -8.357 -34.040  0.00  0.00    +0.000 A 
ATOM     16  C8  UNL     1      25.922  -9.593 -34.696  0.00  0.00    +0.000 A 
ATOM     17  C9  UNL     1      26.286  -9.700 -36.048  0.00  0.00    +0.000 A 
BRANCH  15  18
ATOM     18  O3  UNL     1      25.687  -8.218 -32.698  0.00  0.00    +0.000 OA
ATOM     19  H4  UNL     1      26.325  -7.835 -32.011  0.00  0.00    +0.000 HD
ENDBRANCH  15  18
BRANCH  16  20
ATOM     20  O4  UNL     1      25.445 -10.708 -34.010  0.00  0.00    +0.000 OA
ATOM     21  H5  UNL     1      25.193 -10.661 -33.029  0.00  0.00    +0.000 HD
ENDBRANCH  16  20
ENDBRANCH   4  12
BRANCH   3  22
ATOM     22  O2  UNL     1      29.511  -8.531 -37.712  0.00  0.00    +0.000 OA
ATOM     23  H1  UNL     1      29.471  -8.926 -36.780  0.00  0.00    +0.000 HD
ENDBRANCH   3  22
BRANCH   8  24
ATOM     24  O6  UNL     1      24.312  -9.700 -43.375  0.00  0.00    +0.000 OA
ATOM     25  H8  UNL     1      24.425  -9.904 -44.360  0.00  0.00    +0.000 HD
ENDBRANCH   8  24
BRANCH  10  26
ATOM     26  O7  UNL     1      28.997  -8.799 -43.006  0.00  0.00    +0.000 OA
ATOM     27  H10 UNL     1      29.767  -8.251 -42.651  0.00  0.00    +0.000 HD
ENDBRANCH  10  26
TORSDOF 6
ENDMDL
MODEL 6
REMARK VINA RESULT:    -5.311      6.717      8.390
REMARK INTER + INTRA:          -6.727
REMARK INTER:                  -6.447
REMARK INTRA:                  -0.280
REMARK UNBOUND:                -0.329
REMARK  Name = resultss/4CJN/ligands/lig_236_t0.pdb
REMARK  6 active torsions:
REMARK  status: ('A' for Active; 'I' for Inactive)
REMARK    1  A    between atoms: C2_3  and  O2_4
REMARK    2  A    between atoms: C3_5  and  C4_6
REMARK    3  A    between atoms: C7_9  and  O3_10
REMARK    4  A    between atoms: C8_11  and  O4_12
REMARK    5  A    between atoms: C12_17  and  O6_18
REMARK    6  A    between atoms: C14_20  and  O7_21
REMARK                            x       y       z     vdW  Elec       q    Type
REMARK                         _______ _______ _______ _____ _____    ______ ____
ROOT
ATOM      1  O1  UNL     1      28.415 -10.058 -36.912  0.00  0.00    +0.000 OA
ATOM      2  C1  UNL     1      27.278  -9.547 -37.084  0.00  0.00    +0.000 A 
ATOM      3  C2  UNL     1      26.864  -9.248 -38.392  0.00  0.00    +0.000 A 
ATOM      4  C3  UNL     1      25.621  -8.622 -38.587  0.00  0.00    +0.000 A 
ATOM      5  O5  UNL     1      24.884  -8.280 -37.537  0.00  0.00    +0.000 OA
ATOM      6  C10 UNL     1      25.234  -8.539 -36.283  0.00  0.00    +0.000 A 
ATOM      7  C11 UNL     1      24.392  -8.109 -35.253  0.00  0.00    +0.000 A 
ATOM      8  C12 UNL     1      24.727  -8.350 -33.921  0.00  0.00    +0.000 A 
ATOM      9  C13 UNL     1      25.893  -9.050 -33.615  0.00  0.00    +0.000 A 
ATOM     10  C14 UNL     1      26.738  -9.525 -34.625  0.00  0.00    +0.000 A 
ATOM     11  C15 UNL     1      26.437  -9.231 -35.989  0.00  0.00    +0.000 A 
ENDROOT
BRANCH   4  12
ATOM     12  C4  UNL     1      25.105  -8.299 -39.938  0.00  0.00    +0.000 A 
ATOM     13  C5  UNL     1      25.191  -6.997 -40.462  0.00  0.00    +0.000 A 
ATOM     14  C6  UNL     1      24.720  -6.721 -41.748  0.00  0.00    +0.000 A 
ATOM     15  C7  UNL     1      24.170  -7.737 -42.533  0.00  0.00    +0.000 A 
ATOM     16  C8  UNL     1      24.096  -9.046 -42.029  0.00  0.00    +0.000 A 
ATOM     17  C9  UNL     1      24.571  -9.322 -40.737  0.00  0.00    +0.000 A 
BRANCH  15  18
ATOM     18  O3  UNL     1      23.706  -7.430 -43.812  0.00  0.00    +0.000 OA
ATOM     19  H4  UNL     1      24.060  -6.640 -44.337  0.00  0.00    +0.000 HD
ENDBRANCH  15  18
BRANCH  16  20
ATOM     20  O4  UNL     1      23.556 -10.067 -42.809  0.00  0.00    +0.000 OA
ATOM     21  H5  UNL     1      23.337 -10.975 -42.418  0.00  0.00    +0.000 HD
ENDBRANCH  16  20
ENDBRANCH   4  12
BRANCH   3  22
ATOM     22  O2  UNL     1      27.688  -9.531 -39.485  0.00  0.00    +0.000 OA
ATOM     23  H1  UNL     1      28.620  -9.146 -39.577  0.00  0.00    +0.000 HD
ENDBRANCH   3  22
BRANCH   8  24
ATOM     24  O6  UNL     1      23.902  -7.905 -32.890  0.00  0.00    +0.000 OA
ATOM     25  H8  UNL     1      24.283  -7.551 -32.021  0.00  0.00    +0.000 HD
ENDBRANCH   8  24
BRANCH  10  26
ATOM     26  O7  UNL     1      27.829 -10.296 -34.216  0.00  0.00    +0.000 OA
ATOM     27  H10 UNL     1      28.732 -10.301 -34.667  0.00  0.00    +0.000 HD
ENDBRANCH  10  26
TORSDOF 6
ENDMDL
MODEL 7
REMARK VINA RESULT:    -5.302      5.188     10.326
REMARK INTER + INTRA:          -6.716
REMARK INTER:                  -6.486
REMARK INTRA:                  -0.229
REMARK UNBOUND:                -0.329
REMARK  Name = resultss/4CJN/ligands/lig_236_t0.pdb
REMARK  6 active torsions:
REMARK  status: ('A' for Active; 'I' for Inactive)
REMARK    1  A    between atoms: C2_3  and  O2_4
REMARK    2  A    between atoms: C3_5  and  C4_6
REMARK    3  A    between atoms: C7_9  and  O3_10
REMARK    4  A    between atoms: C8_11  and  O4_12
REMARK    5  A    between atoms: C12_17  and  O6_18
REMARK    6  A    between atoms: C14_20  and  O7_21
REMARK                            x       y       z     vdW  Elec       q    Type
REMARK                         _______ _______ _______ _____ _____    ______ ____
ROOT
ATOM      1  O1  UNL     1      29.021 -10.377 -37.280  0.00  0.00    +0.000 OA
ATOM      2  C1  UNL     1      27.904  -9.817 -37.432  0.00  0.00    +0.000 A 
ATOM      3  C2  UNL     1      27.277  -9.247 -36.312  0.00  0.00    +0.000 A 
ATOM      4  C3  UNL     1      26.003  -8.673 -36.463  0.00  0.00    +0.000 A 
ATOM      5  O5  UNL     1      25.394  -8.722 -37.642  0.00  0.00    +0.000 OA
ATOM      6  C10 UNL     1      25.944  -9.252 -38.728  0.00  0.00    +0.000 A 
ATOM      7  C11 UNL     1      25.200  -9.272 -39.910  0.00  0.00    +0.000 A 
ATOM      8  C12 UNL     1      25.735  -9.829 -41.072  0.00  0.00    +0.000 A 
ATOM      9  C13 UNL     1      27.032 -10.341 -41.061  0.00  0.00    +0.000 A 
ATOM     10  C14 UNL     1      27.815 -10.303 -39.900  0.00  0.00    +0.000 A 
ATOM     11  C15 UNL     1      27.256  -9.791 -38.691  0.00  0.00    +0.000 A 
ENDROOT
BRANCH   4  12
ATOM     12  C4  UNL     1      25.289  -8.031 -35.334  0.00  0.00    +0.000 A 
ATOM     13  C5  UNL     1      25.107  -6.638 -35.280  0.00  0.00    +0.000 A 
ATOM     14  C6  UNL     1      24.410  -6.057 -34.218  0.00  0.00    +0.000 A 
ATOM     15  C7  UNL     1      23.874  -6.856 -33.204  0.00  0.00    +0.000 A 
ATOM     16  C8  UNL     1      24.032  -8.250 -33.256  0.00  0.00    +0.000 A 
ATOM     17  C9  UNL     1      24.732  -8.832 -34.324  0.00  0.00    +0.000 A 
BRANCH  15  18
ATOM     18  O3  UNL     1      23.185  -6.247 -32.155  0.00  0.00    +0.000 OA
ATOM     19  H4  UNL     1      22.958  -5.260 -32.161  0.00  0.00    +0.000 HD
ENDBRANCH  15  18
BRANCH  16  20
ATOM     20  O4  UNL     1      23.494  -9.053 -32.252  0.00  0.00    +0.000 OA
ATOM     21  H5  UNL     1      23.762  -8.942 -31.281  0.00  0.00    +0.000 HD
ENDBRANCH  16  20
ENDBRANCH   4  12
BRANCH   3  22
ATOM     22  O2  UNL     1      27.888  -9.282 -35.056  0.00  0.00    +0.000 OA
ATOM     23  H1  UNL     1      28.609  -9.954 -34.820  0.00  0.00    +0.000 HD
ENDBRANCH   3  22
BRANCH   8  24
ATOM     24  O6  UNL     1      24.990  -9.870 -42.248  0.00  0.00    +0.000 OA
ATOM     25  H8  UNL     1      25.323  -9.438 -43.102  0.00  0.00    +0.000 HD
ENDBRANCH   8  24
BRANCH  10  26
ATOM     26  O7  UNL     1      29.132 -10.755 -40.020  0.00  0.00    +0.000 OA
ATOM     27  H10 UNL     1      29.433 -11.493 -40.639  0.00  0.00    +0.000 HD
ENDBRANCH  10  26
TORSDOF 6
ENDMDL
MODEL 8
REMARK VINA RESULT:    -5.200      1.833      6.604
REMARK INTER + INTRA:          -6.592
REMARK INTER:                  -6.368
REMARK INTRA:                  -0.225
REMARK UNBOUND:                -0.329
REMARK  Name = resultss/4CJN/ligands/lig_236_t0.pdb
REMARK  6 active torsions:
REMARK  status: ('A' for Active; 'I' for Inactive)
REMARK    1  A    between atoms: C2_3  and  O2_4
REMARK    2  A    between atoms: C3_5  and  C4_6
REMARK    3  A    between atoms: C7_9  and  O3_10
REMARK    4  A    between atoms: C8_11  and  O4_12
REMARK    5  A    between atoms: C12_17  and  O6_18
REMARK    6  A    between atoms: C14_20  and  O7_21
REMARK                            x       y       z     vdW  Elec       q    Type
REMARK                         _______ _______ _______ _____ _____    ______ ____
ROOT
ATOM      1  O1  UNL     1      30.484  -9.321 -39.404  0.00  0.00    +0.000 OA
ATOM      2  C1  UNL     1      30.183  -9.431 -40.621  0.00  0.00    +0.000 A 
ATOM      3  C2  UNL     1      28.891  -9.064 -41.032  0.00  0.00    +0.000 A 
ATOM      4  C3  UNL     1      28.528  -9.240 -42.378  0.00  0.00    +0.000 A 
ATOM      5  O5  UNL     1      29.388  -9.795 -43.225  0.00  0.00    +0.000 OA
ATOM      6  C10 UNL     1      30.618 -10.160 -42.883  0.00  0.00    +0.000 A 
ATOM      7  C11 UNL     1      31.429 -10.758 -43.851  0.00  0.00    +0.000 A 
ATOM      8  C12 UNL     1      32.724 -11.168 -43.532  0.00  0.00    +0.000 A 
ATOM      9  C13 UNL     1      33.222 -10.952 -42.248  0.00  0.00    +0.000 A 
ATOM     10  C14 UNL     1      32.446 -10.323 -41.267  0.00  0.00    +0.000 A 
ATOM     11  C15 UNL     1      31.099  -9.955 -41.564  0.00  0.00    +0.000 A 
ENDROOT
BRANCH   4  12
ATOM     12  C4  UNL     1      27.193  -8.853 -42.891  0.00  0.00    +0.000 A 
ATOM     13  C5  UNL     1      27.031  -7.757 -43.755  0.00  0.00    +0.000 A 
ATOM     14  C6  UNL     1      25.766  -7.425 -44.246  0.00  0.00    +0.000 A 
ATOM     15  C7  UNL     1      24.649  -8.189 -43.895  0.00  0.00    +0.000 A 
ATOM     16  C8  UNL     1      24.800  -9.299 -43.048  0.00  0.00    +0.000 A 
ATOM     17  C9  UNL     1      26.072  -9.630 -42.557  0.00  0.00    +0.000 A 
BRANCH  15  18
ATOM     18  O3  UNL     1      23.398  -7.832 -44.399  0.00  0.00    +0.000 OA
ATOM     19  H4  UNL     1      22.669  -7.450 -43.809  0.00  0.00    +0.000 HD
ENDBRANCH  15  18
BRANCH  16  20
ATOM     20  O4  UNL     1      23.693 -10.069 -42.699  0.00  0.00    +0.000 OA
ATOM     21  H5  UNL     1      23.138  -9.860 -41.878  0.00  0.00    +0.000 HD
ENDBRANCH  16  20
ENDBRANCH   4  12
BRANCH   3  22
ATOM     22  O2  UNL     1      27.963  -8.566 -40.113  0.00  0.00    +0.000 OA
ATOM     23  H1  UNL     1      28.168  -7.785 -39.501  0.00  0.00    +0.000 HD
ENDBRANCH   3  22
BRANCH   8  24
ATOM     24  O6  UNL     1      33.529 -11.783 -44.488  0.00  0.00    +0.000 OA
ATOM     25  H8  UNL     1      34.054 -12.623 -44.277  0.00  0.00    +0.000 HD
ENDBRANCH   8  24
BRANCH  10  26
ATOM     26  O7  UNL     1      33.072 -10.069 -40.043  0.00  0.00    +0.000 OA
ATOM     27  H10 UNL     1      33.473  -9.184 -39.775  0.00  0.00    +0.000 HD
ENDBRANCH  10  26
TORSDOF 6
ENDMDL
MODEL 9
REMARK VINA RESULT:    -5.183      3.671      9.086
REMARK INTER + INTRA:          -6.572
REMARK INTER:                  -6.253
REMARK INTRA:                  -0.319
REMARK UNBOUND:                -0.329
REMARK  Name = resultss/4CJN/ligands/lig_236_t0.pdb
REMARK  6 active torsions:
REMARK  status: ('A' for Active; 'I' for Inactive)
REMARK    1  A    between atoms: C2_3  and  O2_4
REMARK    2  A    between atoms: C3_5  and  C4_6
REMARK    3  A    between atoms: C7_9  and  O3_10
REMARK    4  A    between atoms: C8_11  and  O4_12
REMARK    5  A    between atoms: C12_17  and  O6_18
REMARK    6  A    between atoms: C14_20  and  O7_21
REMARK                            x       y       z     vdW  Elec       q    Type
REMARK                         _______ _______ _______ _____ _____    ______ ____
ROOT
ATOM      1  O1  UNL     1      25.686  -7.767 -41.365  0.00  0.00    +0.000 OA
ATOM      2  C1  UNL     1      26.451  -8.317 -40.530  0.00  0.00    +0.000 A 
ATOM      3  C2  UNL     1      26.205  -8.124 -39.161  0.00  0.00    +0.000 A 
ATOM      4  C3  UNL     1      27.089  -8.685 -38.224  0.00  0.00    +0.000 A 
ATOM      5  O5  UNL     1      28.164  -9.343 -38.644  0.00  0.00    +0.000 OA
ATOM      6  C10 UNL     1      28.440  -9.549 -39.927  0.00  0.00    +0.000 A 
ATOM      7  C11 UNL     1      29.613 -10.233 -40.255  0.00  0.00    +0.000 A 
ATOM      8  C12 UNL     1      29.948 -10.462 -41.589  0.00  0.00    +0.000 A 
ATOM      9  C13 UNL     1      29.091 -10.032 -42.602  0.00  0.00    +0.000 A 
ATOM     10  C14 UNL     1      27.890  -9.376 -42.303  0.00  0.00    +0.000 A 
ATOM     11  C15 UNL     1      27.568  -9.082 -40.944  0.00  0.00    +0.000 A 
ENDROOT
BRANCH   4  12
ATOM     12  C4  UNL     1      26.883  -8.546 -36.763  0.00  0.00    +0.000 A 
ATOM     13  C5  UNL     1      27.360  -7.426 -36.060  0.00  0.00    +0.000 A 
ATOM     14  C6  UNL     1      27.132  -7.304 -34.687  0.00  0.00    +0.000 A 
ATOM     15  C7  UNL     1      26.415  -8.288 -34.000  0.00  0.00    +0.000 A 
ATOM     16  C8  UNL     1      25.916  -9.402 -34.695  0.00  0.00    +0.000 A 
ATOM     17  C9  UNL     1      26.145  -9.522 -36.074  0.00  0.00    +0.000 A 
BRANCH  15  18
ATOM     18  O3  UNL     1      26.205  -8.139 -32.629  0.00  0.00    +0.000 OA
ATOM     19  H4  UNL     1      25.655  -8.800 -32.094  0.00  0.00    +0.000 HD
ENDBRANCH  15  18
BRANCH  16  20
ATOM     20  O4  UNL     1      25.194 -10.383 -34.017  0.00  0.00    +0.000 OA
ATOM     21  H5  UNL     1      25.569 -10.848 -33.199  0.00  0.00    +0.000 HD
ENDBRANCH  16  20
ENDBRANCH   4  12
BRANCH   3  22
ATOM     22  O2  UNL     1      25.121  -7.354 -38.731  0.00  0.00    +0.000 OA
ATOM     23  H1  UNL     1      24.164  -7.574 -38.978  0.00  0.00    +0.000 HD
ENDBRANCH   3  22
BRANCH   8  24
ATOM     24  O6  UNL     1      31.127 -11.124 -41.923  0.00  0.00    +0.000 OA
ATOM     25  H8  UNL     1      31.415 -11.242 -42.887  0.00  0.00    +0.000 HD
ENDBRANCH   8  24
BRANCH  10  26
ATOM     26  O7  UNL     1      27.059  -9.072 -43.385  0.00  0.00    +0.000 OA
ATOM     27  H10 UNL     1      26.535  -8.215 -43.486  0.00  0.00    +0.000 HD
ENDBRANCH  10  26
TORSDOF 6
ENDMDL
