MODEL 1
REMARK VINA RESULT:    -7.797      0.000      0.000
REMARK INTER + INTRA:         -14.415
REMARK INTER:                 -12.584
REMARK INTRA:                  -1.831
REMARK UNBOUND:                -1.831
REMARK  Name = resultss/4CJN/ligands/lig_350_t2.pdb
REMARK  12 active torsions:
REMARK  status: ('A' for Active; 'I' for Inactive)
REMARK    1  A    between atoms: C1_1  and  O1_2
REMARK    2  A    between atoms: O1_2  and  C2_3
REMARK    3  A    between atoms: C5_6  and  N1_7
REMARK    4  A    between atoms: C6_8  and  C7_10
REMARK    5  A    between atoms: C7_10  and  N2_11
REMARK    6  A    between atoms: C9_13  and  C10_14
REMARK    7  A    between atoms: C10_14  and  O3_15
REMARK    8  A    between atoms: O3_15  and  C11_16
REMARK    9  A    between atoms: C14_19  and  C15_20
REMARK   10  A    between atoms: C22_28  and  O4_29
REMARK   11  A    between atoms: N4_30  and  N5_31
REMARK   12  A    between atoms: N5_31  and  C23_32
REMARK                            x       y       z     vdW  Elec       q    Type
REMARK                         _______ _______ _______ _____ _____    ______ ____
ROOT
ATOM      1  C11 UNL     1      25.310  -8.439 -38.137  0.00  0.00    +0.000 A 
ATOM      2  C12 UNL     1      25.877  -9.273 -37.169  0.00  0.00    +0.000 A 
ATOM      3  C13 UNL     1      26.668  -8.743 -36.147  0.00  0.00    +0.000 A 
ATOM      4  C14 UNL     1      26.895  -7.359 -36.070  0.00  0.00    +0.000 A 
ATOM      5  C29 UNL     1      26.324  -6.518 -37.042  0.00  0.00    +0.000 A 
ATOM      6  C30 UNL     1      25.532  -7.051 -38.062  0.00  0.00    +0.000 A 
ENDROOT
BRANCH   4   7
ATOM      7  C15 UNL     1      27.856  -6.808 -35.043  0.00  0.00    +0.000 C 
ATOM      8  N3  UNL     1      29.184  -7.387 -35.239  0.00  0.00    +0.000 NA
ATOM      9  C16 UNL     1      29.803  -8.150 -34.390  0.00  0.00    +0.000 A 
ATOM     10  C17 UNL     1      31.057  -8.660 -34.754  0.00  0.00    +0.000 A 
ATOM     11  C18 UNL     1      31.757  -9.500 -33.892  0.00  0.00    +0.000 A 
ATOM     12  C19 UNL     1      31.214  -9.836 -32.656  0.00  0.00    +0.000 A 
ATOM     13  C20 UNL     1      29.970  -9.330 -32.270  0.00  0.00    +0.000 A 
ATOM     14  C21 UNL     1      29.240  -8.469 -33.126  0.00  0.00    +0.000 A 
ATOM     15  C22 UNL     1      28.042  -7.934 -32.775  0.00  0.00    +0.000 C 
ATOM     16  N4  UNL     1      27.340  -7.086 -33.701  0.00  0.00    +0.000 N 
BRANCH  15  17
ATOM     17  O4  UNL     1      27.444  -8.154 -31.527  0.00  0.00    +0.000 OA
ATOM     18  H19 UNL     1      27.812  -8.736 -30.789  0.00  0.00    +0.000 HD
ENDBRANCH  15  17
BRANCH  16  19
ATOM     19  N5  UNL     1      26.134  -6.474 -33.310  0.00  0.00    +0.000 N 
ATOM     20  H20 UNL     1      26.176  -5.499 -32.935  0.00  0.00    +0.000 HD
BRANCH  19  21
ATOM     21  C23 UNL     1      24.848  -7.029 -33.639  0.00  0.00    +0.000 A 
ATOM     22  C24 UNL     1      24.497  -8.341 -33.267  0.00  0.00    +0.000 A 
ATOM     23  C25 UNL     1      23.254  -8.868 -33.626  0.00  0.00    +0.000 A 
ATOM     24  C26 UNL     1      22.349  -8.094 -34.356  0.00  0.00    +0.000 A 
ATOM     25  C27 UNL     1      22.690  -6.792 -34.732  0.00  0.00    +0.000 A 
ATOM     26  C28 UNL     1      23.934  -6.262 -34.377  0.00  0.00    +0.000 A 
ENDBRANCH  19  21
ENDBRANCH  16  19
ENDBRANCH   4   7
BRANCH   1  27
ATOM     27  O3  UNL     1      24.548  -9.025 -39.158  0.00  0.00    +0.000 OA
BRANCH  27  28
ATOM     28  C10 UNL     1      24.872  -8.968 -40.543  0.00  0.00    +0.000 C 
BRANCH  28  31
ATOM     29  N2  UNL     1      28.436  -9.597 -40.763  0.00  0.00    +0.000 N 
ATOM     30  C8  UNL     1      27.203 -10.039 -40.468  0.00  0.00    +0.000 A 
ATOM     31  C9  UNL     1      26.355  -8.980 -40.709  0.00  0.00    +0.000 A 
ATOM     32  N6  UNL     1      27.085  -7.940 -41.159  0.00  0.00    +0.000 NA
ATOM     33  N7  UNL     1      28.348  -8.343 -41.179  0.00  0.00    +0.000 NA
BRANCH  29  34
ATOM     34  C7  UNL     1      29.680 -10.349 -40.669  0.00  0.00    +0.000 C 
BRANCH  34  36
ATOM     35  N1  UNL     1      31.544 -11.101 -42.223  0.00  0.00    +0.000 N 
ATOM     36  C6  UNL     1      30.178 -10.697 -42.038  0.00  0.00    +0.000 C 
ATOM     37  O2  UNL     1      29.398 -10.594 -43.023  0.00  0.00    +0.000 OA
ATOM     38  H6  UNL     1      32.212 -10.928 -41.438  0.00  0.00    +0.000 HD
BRANCH  35  42
ATOM     39  C2  UNL     1      33.142 -12.594 -45.875  0.00  0.00    +0.000 A 
ATOM     40  C3  UNL     1      33.207 -11.221 -45.569  0.00  0.00    +0.000 A 
ATOM     41  C4  UNL     1      32.681 -10.743 -44.364  0.00  0.00    +0.000 A 
ATOM     42  C5  UNL     1      32.071 -11.619 -43.456  0.00  0.00    +0.000 A 
ATOM     43  C31 UNL     1      32.033 -12.994 -43.751  0.00  0.00    +0.000 A 
ATOM     44  C32 UNL     1      32.560 -13.472 -44.955  0.00  0.00    +0.000 A 
BRANCH  39  46
ATOM     45  C1  UNL     1      33.724 -14.512 -47.370  0.00  0.00    +0.000 C 
ATOM     46  O1  UNL     1      33.640 -13.121 -47.077  0.00  0.00    +0.000 OA
ENDBRANCH  39  46
ENDBRANCH  35  42
ENDBRANCH  34  36
ENDBRANCH  29  34
ENDBRANCH  28  31
ENDBRANCH  27  28
ENDBRANCH   1  27
TORSDOF 11
ENDMDL
MODEL 2
REMARK VINA RESULT:    -6.756      2.526     10.470
REMARK INTER + INTRA:         -12.735
REMARK INTER:                 -10.355
REMARK INTRA:                  -2.379
REMARK UNBOUND:                -1.831
REMARK  Name = resultss/4CJN/ligands/lig_350_t2.pdb
REMARK  12 active torsions:
REMARK  status: ('A' for Active; 'I' for Inactive)
REMARK    1  A    between atoms: C1_1  and  O1_2
REMARK    2  A    between atoms: O1_2  and  C2_3
REMARK    3  A    between atoms: C5_6  and  N1_7
REMARK    4  A    between atoms: C6_8  and  C7_10
REMARK    5  A    between atoms: C7_10  and  N2_11
REMARK    6  A    between atoms: C9_13  and  C10_14
REMARK    7  A    between atoms: C10_14  and  O3_15
REMARK    8  A    between atoms: O3_15  and  C11_16
REMARK    9  A    between atoms: C14_19  and  C15_20
REMARK   10  A    between atoms: C22_28  and  O4_29
REMARK   11  A    between atoms: N4_30  and  N5_31
REMARK   12  A    between atoms: N5_31  and  C23_32
REMARK                            x       y       z     vdW  Elec       q    Type
REMARK                         _______ _______ _______ _____ _____    ______ ____
ROOT
ATOM      1  C11 UNL     1      32.101  -7.065 -37.883  0.00  0.00    +0.000 A 
ATOM      2  C12 UNL     1      32.748  -7.264 -39.108  0.00  0.00    +0.000 A 
ATOM      3  C13 UNL     1      32.035  -7.699 -40.227  0.00  0.00    +0.000 A 
ATOM      4  C14 UNL     1      30.653  -7.932 -40.142  0.00  0.00    +0.000 A 
ATOM      5  C29 UNL     1      30.000  -7.729 -38.913  0.00  0.00    +0.000 A 
ATOM      6  C30 UNL     1      30.715  -7.293 -37.795  0.00  0.00    +0.000 A 
ENDROOT
BRANCH   4   7
ATOM      7  C15 UNL     1      29.914  -8.527 -41.318  0.00  0.00    +0.000 C 
ATOM      8  N3  UNL     1      28.638  -7.839 -41.507  0.00  0.00    +0.000 NA
ATOM      9  C16 UNL     1      27.466  -8.386 -41.385  0.00  0.00    +0.000 A 
ATOM     10  C17 UNL     1      26.338  -7.573 -41.555  0.00  0.00    +0.000 A 
ATOM     11  C18 UNL     1      25.057  -8.100 -41.416  0.00  0.00    +0.000 A 
ATOM     12  C19 UNL     1      24.889  -9.446 -41.108  0.00  0.00    +0.000 A 
ATOM     13  C20 UNL     1      26.001 -10.276 -40.944  0.00  0.00    +0.000 A 
ATOM     14  C21 UNL     1      27.315  -9.767 -41.086  0.00  0.00    +0.000 A 
ATOM     15  C22 UNL     1      28.419 -10.548 -40.963  0.00  0.00    +0.000 C 
ATOM     16  N4  UNL     1      29.726  -9.962 -41.095  0.00  0.00    +0.000 N 
BRANCH  15  17
ATOM     17  O4  UNL     1      28.355 -11.927 -40.724  0.00  0.00    +0.000 OA
ATOM     18  H19 UNL     1      29.052 -12.607 -40.993  0.00  0.00    +0.000 HD
ENDBRANCH  15  17
BRANCH  16  19
ATOM     19  N5  UNL     1      30.867 -10.783 -41.039  0.00  0.00    +0.000 N 
ATOM     20  H20 UNL     1      31.090 -11.256 -40.133  0.00  0.00    +0.000 HD
BRANCH  19  21
ATOM     21  C23 UNL     1      31.579 -11.193 -42.220  0.00  0.00    +0.000 A 
ATOM     22  C24 UNL     1      32.693 -10.473 -42.693  0.00  0.00    +0.000 A 
ATOM     23  C25 UNL     1      33.348 -10.873 -43.860  0.00  0.00    +0.000 A 
ATOM     24  C26 UNL     1      32.902 -11.993 -44.565  0.00  0.00    +0.000 A 
ATOM     25  C27 UNL     1      31.796 -12.712 -44.106  0.00  0.00    +0.000 A 
ATOM     26  C28 UNL     1      31.136 -12.313 -42.939  0.00  0.00    +0.000 A 
ENDBRANCH  19  21
ENDBRANCH  16  19
ENDBRANCH   4   7
BRANCH   1  27
ATOM     27  O3  UNL     1      32.868  -6.654 -36.784  0.00  0.00    +0.000 OA
BRANCH  27  28
ATOM     28  C10 UNL     1      33.740  -7.504 -36.045  0.00  0.00    +0.000 C 
BRANCH  28  31
ATOM     29  N2  UNL     1      31.512  -8.970 -33.590  0.00  0.00    +0.000 N 
ATOM     30  C8  UNL     1      31.951  -7.883 -34.244  0.00  0.00    +0.000 A 
ATOM     31  C9  UNL     1      32.942  -8.329 -35.091  0.00  0.00    +0.000 A 
ATOM     32  N6  UNL     1      33.064  -9.664 -34.945  0.00  0.00    +0.000 NA
ATOM     33  N7  UNL     1      32.183 -10.026 -34.023  0.00  0.00    +0.000 NA
BRANCH  29  34
ATOM     34  C7  UNL     1      30.462  -9.017 -32.579  0.00  0.00    +0.000 C 
BRANCH  34  36
ATOM     35  N1  UNL     1      28.150  -8.113 -33.116  0.00  0.00    +0.000 N 
ATOM     36  C6  UNL     1      29.123  -9.163 -33.233  0.00  0.00    +0.000 C 
ATOM     37  O2  UNL     1      28.849 -10.229 -33.849  0.00  0.00    +0.000 OA
ATOM     38  H6  UNL     1      28.317  -7.374 -32.395  0.00  0.00    +0.000 HD
BRANCH  35  42
ATOM     39  C2  UNL     1      24.508  -8.018 -35.319  0.00  0.00    +0.000 A 
ATOM     40  C3  UNL     1      25.699  -7.510 -35.873  0.00  0.00    +0.000 A 
ATOM     41  C4  UNL     1      26.889  -7.549 -35.141  0.00  0.00    +0.000 A 
ATOM     42  C5  UNL     1      26.910  -8.079 -33.844  0.00  0.00    +0.000 A 
ATOM     43  C31 UNL     1      25.727  -8.613 -33.304  0.00  0.00    +0.000 A 
ATOM     44  C32 UNL     1      24.536  -8.575 -34.035  0.00  0.00    +0.000 A 
BRANCH  39  46
ATOM     45  C1  UNL     1      22.243  -7.051 -35.751  0.00  0.00    +0.000 C 
ATOM     46  O1  UNL     1      23.285  -7.988 -36.006  0.00  0.00    +0.000 OA
ENDBRANCH  39  46
ENDBRANCH  35  42
ENDBRANCH  34  36
ENDBRANCH  29  34
ENDBRANCH  28  31
ENDBRANCH  27  28
ENDBRANCH   1  27
TORSDOF 11
ENDMDL
MODEL 3
REMARK VINA RESULT:    -6.288      4.550      7.401
REMARK INTER + INTRA:         -11.978
REMARK INTER:                 -10.083
REMARK INTRA:                  -1.895
REMARK UNBOUND:                -1.831
REMARK  Name = resultss/4CJN/ligands/lig_350_t2.pdb
REMARK  12 active torsions:
REMARK  status: ('A' for Active; 'I' for Inactive)
REMARK    1  A    between atoms: C1_1  and  O1_2
REMARK    2  A    between atoms: O1_2  and  C2_3
REMARK    3  A    between atoms: C5_6  and  N1_7
REMARK    4  A    between atoms: C6_8  and  C7_10
REMARK    5  A    between atoms: C7_10  and  N2_11
REMARK    6  A    between atoms: C9_13  and  C10_14
REMARK    7  A    between atoms: C10_14  and  O3_15
REMARK    8  A    between atoms: O3_15  and  C11_16
REMARK    9  A    between atoms: C14_19  and  C15_20
REMARK   10  A    between atoms: C22_28  and  O4_29
REMARK   11  A    between atoms: N4_30  and  N5_31
REMARK   12  A    between atoms: N5_31  and  C23_32
REMARK                            x       y       z     vdW  Elec       q    Type
REMARK                         _______ _______ _______ _____ _____    ______ ____
ROOT
ATOM      1  C11 UNL     1      25.385  -8.413 -38.399  0.00  0.00    +0.000 A 
ATOM      2  C12 UNL     1      25.915  -9.250 -37.412  0.00  0.00    +0.000 A 
ATOM      3  C13 UNL     1      26.690  -8.726 -36.375  0.00  0.00    +0.000 A 
ATOM      4  C14 UNL     1      26.939  -7.346 -36.302  0.00  0.00    +0.000 A 
ATOM      5  C29 UNL     1      26.405  -6.502 -37.291  0.00  0.00    +0.000 A 
ATOM      6  C30 UNL     1      25.629  -7.028 -38.328  0.00  0.00    +0.000 A 
ENDROOT
BRANCH   4   7
ATOM      7  C15 UNL     1      27.884  -6.805 -35.255  0.00  0.00    +0.000 C 
ATOM      8  N3  UNL     1      29.210  -7.397 -35.424  0.00  0.00    +0.000 NA
ATOM      9  C16 UNL     1      29.804  -8.166 -34.563  0.00  0.00    +0.000 A 
ATOM     10  C17 UNL     1      31.059  -8.689 -34.901  0.00  0.00    +0.000 A 
ATOM     11  C18 UNL     1      31.734  -9.535 -34.025  0.00  0.00    +0.000 A 
ATOM     12  C19 UNL     1      31.162  -9.866 -32.800  0.00  0.00    +0.000 A 
ATOM     13  C20 UNL     1      29.915  -9.347 -32.440  0.00  0.00    +0.000 A 
ATOM     14  C21 UNL     1      29.212  -8.479 -33.310  0.00  0.00    +0.000 A 
ATOM     15  C22 UNL     1      28.013  -7.932 -32.983  0.00  0.00    +0.000 C 
ATOM     16  N4  UNL     1      27.338  -7.077 -33.923  0.00  0.00    +0.000 N 
BRANCH  15  17
ATOM     17  O4  UNL     1      27.387  -8.145 -31.748  0.00  0.00    +0.000 OA
ATOM     18  H19 UNL     1      26.998  -9.019 -31.425  0.00  0.00    +0.000 HD
ENDBRANCH  15  17
BRANCH  16  19
ATOM     19  N5  UNL     1      26.131  -6.453 -33.557  0.00  0.00    +0.000 N 
ATOM     20  H20 UNL     1      26.170  -5.462 -33.225  0.00  0.00    +0.000 HD
BRANCH  19  21
ATOM     21  C23 UNL     1      24.846  -7.025 -33.859  0.00  0.00    +0.000 A 
ATOM     22  C24 UNL     1      24.454  -8.269 -33.328  0.00  0.00    +0.000 A 
ATOM     23  C25 UNL     1      23.213  -8.819 -33.662  0.00  0.00    +0.000 A 
ATOM     24  C26 UNL     1      22.353  -8.136 -34.525  0.00  0.00    +0.000 A 
ATOM     25  C27 UNL     1      22.736  -6.904 -35.060  0.00  0.00    +0.000 A 
ATOM     26  C28 UNL     1      23.978  -6.351 -34.730  0.00  0.00    +0.000 A 
ENDBRANCH  19  21
ENDBRANCH  16  19
ENDBRANCH   4   7
BRANCH   1  27
ATOM     27  O3  UNL     1      24.637  -8.993 -39.434  0.00  0.00    +0.000 OA
BRANCH  27  28
ATOM     28  C10 UNL     1      25.198  -9.605 -40.591  0.00  0.00    +0.000 C 
BRANCH  28  31
ATOM     29  N2  UNL     1      24.878  -7.016 -43.108  0.00  0.00    +0.000 N 
ATOM     30  C8  UNL     1      24.322  -7.747 -42.128  0.00  0.00    +0.000 A 
ATOM     31  C9  UNL     1      25.312  -8.595 -41.684  0.00  0.00    +0.000 A 
ATOM     32  N6  UNL     1      26.438  -8.347 -42.384  0.00  0.00    +0.000 NA
ATOM     33  N7  UNL     1      26.143  -7.383 -43.245  0.00  0.00    +0.000 NA
BRANCH  29  34
ATOM     34  C7  UNL     1      24.232  -5.974 -43.896  0.00  0.00    +0.000 C 
BRANCH  34  36
ATOM     35  N1  UNL     1      21.693  -6.023 -43.935  0.00  0.00    +0.000 N 
ATOM     36  C6  UNL     1      22.945  -6.484 -44.468  0.00  0.00    +0.000 C 
ATOM     37  O2  UNL     1      22.976  -7.344 -45.389  0.00  0.00    +0.000 OA
ATOM     38  H6  UNL     1      21.710  -5.519 -43.019  0.00  0.00    +0.000 HD
BRANCH  35  42
ATOM     39  C2  UNL     1      17.879  -6.880 -45.622  0.00  0.00    +0.000 A 
ATOM     40  C3  UNL     1      18.178  -7.246 -44.295  0.00  0.00    +0.000 A 
ATOM     41  C4  UNL     1      19.434  -6.957 -43.752  0.00  0.00    +0.000 A 
ATOM     42  C5  UNL     1      20.413  -6.314 -44.522  0.00  0.00    +0.000 A 
ATOM     43  C31 UNL     1      20.101  -5.923 -45.836  0.00  0.00    +0.000 A 
ATOM     44  C32 UNL     1      18.846  -6.211 -46.380  0.00  0.00    +0.000 A 
BRANCH  39  46
ATOM     45  C1  UNL     1      16.440  -7.308 -47.621  0.00  0.00    +0.000 C 
ATOM     46  O1  UNL     1      16.641  -7.162 -46.219  0.00  0.00    +0.000 OA
ENDBRANCH  39  46
ENDBRANCH  35  42
ENDBRANCH  34  36
ENDBRANCH  29  34
ENDBRANCH  28  31
ENDBRANCH  27  28
ENDBRANCH   1  27
TORSDOF 11
ENDMDL
MODEL 4
REMARK VINA RESULT:    -6.159      2.841      7.324
REMARK INTER + INTRA:         -11.771
REMARK INTER:                  -9.296
REMARK INTRA:                  -2.475
REMARK UNBOUND:                -1.831
REMARK  Name = resultss/4CJN/ligands/lig_350_t2.pdb
REMARK  12 active torsions:
REMARK  status: ('A' for Active; 'I' for Inactive)
REMARK    1  A    between atoms: C1_1  and  O1_2
REMARK    2  A    between atoms: O1_2  and  C2_3
REMARK    3  A    between atoms: C5_6  and  N1_7
REMARK    4  A    between atoms: C6_8  and  C7_10
REMARK    5  A    between atoms: C7_10  and  N2_11
REMARK    6  A    between atoms: C9_13  and  C10_14
REMARK    7  A    between atoms: C10_14  and  O3_15
REMARK    8  A    between atoms: O3_15  and  C11_16
REMARK    9  A    between atoms: C14_19  and  C15_20
REMARK   10  A    between atoms: C22_28  and  O4_29
REMARK   11  A    between atoms: N4_30  and  N5_31
REMARK   12  A    between atoms: N5_31  and  C23_32
REMARK                            x       y       z     vdW  Elec       q    Type
REMARK                         _______ _______ _______ _____ _____    ______ ____
ROOT
ATOM      1  C11 UNL     1      28.553  -9.898 -40.202  0.00  0.00    +0.000 A 
ATOM      2  C12 UNL     1      28.952  -8.557 -40.188  0.00  0.00    +0.000 A 
ATOM      3  C13 UNL     1      28.422  -7.667 -39.251  0.00  0.00    +0.000 A 
ATOM      4  C14 UNL     1      27.488  -8.110 -38.300  0.00  0.00    +0.000 A 
ATOM      5  C29 UNL     1      27.088  -9.458 -38.311  0.00  0.00    +0.000 A 
ATOM      6  C30 UNL     1      27.620 -10.346 -39.249  0.00  0.00    +0.000 A 
ENDROOT
BRANCH   4   7
ATOM      7  C15 UNL     1      26.823  -7.116 -37.377  0.00  0.00    +0.000 C 
ATOM      8  N3  UNL     1      26.814  -7.632 -36.009  0.00  0.00    +0.000 NA
ATOM      9  C16 UNL     1      25.749  -7.927 -35.326  0.00  0.00    +0.000 A 
ATOM     10  C17 UNL     1      25.918  -8.456 -34.039  0.00  0.00    +0.000 A 
ATOM     11  C18 UNL     1      24.813  -8.809 -33.268  0.00  0.00    +0.000 A 
ATOM     12  C19 UNL     1      23.528  -8.634 -33.773  0.00  0.00    +0.000 A 
ATOM     13  C20 UNL     1      23.339  -8.098 -35.050  0.00  0.00    +0.000 A 
ATOM     14  C21 UNL     1      24.445  -7.726 -35.852  0.00  0.00    +0.000 A 
ATOM     15  C22 UNL     1      24.301  -7.175 -37.085  0.00  0.00    +0.000 C 
ATOM     16  N4  UNL     1      25.467  -6.841 -37.858  0.00  0.00    +0.000 N 
BRANCH  15  17
ATOM     17  O4  UNL     1      23.052  -6.893 -37.654  0.00  0.00    +0.000 OA
ATOM     18  H19 UNL     1      22.154  -7.109 -37.246  0.00  0.00    +0.000 HD
ENDBRANCH  15  17
BRANCH  16  19
ATOM     19  N5  UNL     1      25.319  -6.205 -39.105  0.00  0.00    +0.000 N 
ATOM     20  H20 UNL     1      25.407  -5.164 -39.140  0.00  0.00    +0.000 HD
BRANCH  19  21
ATOM     21  C23 UNL     1      25.306  -6.935 -40.345  0.00  0.00    +0.000 A 
ATOM     22  C24 UNL     1      24.634  -8.167 -40.465  0.00  0.00    +0.000 A 
ATOM     23  C25 UNL     1      24.664  -8.872 -41.670  0.00  0.00    +0.000 A 
ATOM     24  C26 UNL     1      25.359  -8.357 -42.767  0.00  0.00    +0.000 A 
ATOM     25  C27 UNL     1      26.031  -7.138 -42.656  0.00  0.00    +0.000 A 
ATOM     26  C28 UNL     1      26.007  -6.430 -41.450  0.00  0.00    +0.000 A 
ENDBRANCH  19  21
ENDBRANCH  16  19
ENDBRANCH   4   7
BRANCH   1  27
ATOM     27  O3  UNL     1      29.094 -10.742 -41.182  0.00  0.00    +0.000 OA
BRANCH  27  28
ATOM     28  C10 UNL     1      29.919 -10.307 -42.258  0.00  0.00    +0.000 C 
BRANCH  28  31
ATOM     29  N2  UNL     1      33.156 -10.055 -40.645  0.00  0.00    +0.000 N 
ATOM     30  C8  UNL     1      31.825  -9.884 -40.592  0.00  0.00    +0.000 A 
ATOM     31  C9  UNL     1      31.346 -10.291 -41.818  0.00  0.00    +0.000 A 
ATOM     32  N6  UNL     1      32.384 -10.712 -42.568  0.00  0.00    +0.000 NA
ATOM     33  N7  UNL     1      33.474 -10.554 -41.830  0.00  0.00    +0.000 NA
BRANCH  29  34
ATOM     34  C7  UNL     1      34.118  -9.765 -39.588  0.00  0.00    +0.000 C 
BRANCH  34  36
ATOM     35  N1  UNL     1      32.670  -8.989 -37.650  0.00  0.00    +0.000 N 
ATOM     36  C6  UNL     1      33.496 -10.002 -38.246  0.00  0.00    +0.000 C 
ATOM     37  O2  UNL     1      33.736 -11.079 -37.635  0.00  0.00    +0.000 OA
ATOM     38  H6  UNL     1      32.706  -8.029 -38.063  0.00  0.00    +0.000 HD
BRANCH  35  42
ATOM     39  C2  UNL     1      30.334  -9.600 -34.144  0.00  0.00    +0.000 A 
ATOM     40  C3  UNL     1      29.747  -9.673 -35.422  0.00  0.00    +0.000 A 
ATOM     41  C4  UNL     1      30.526  -9.473 -36.567  0.00  0.00    +0.000 A 
ATOM     42  C5  UNL     1      31.892  -9.183 -36.457  0.00  0.00    +0.000 A 
ATOM     43  C31 UNL     1      32.482  -9.140 -35.181  0.00  0.00    +0.000 A 
ATOM     44  C32 UNL     1      31.705  -9.341 -34.036  0.00  0.00    +0.000 A 
BRANCH  39  46
ATOM     45  C1  UNL     1      29.023  -8.715 -32.208  0.00  0.00    +0.000 C 
ATOM     46  O1  UNL     1      29.594  -9.777 -32.965  0.00  0.00    +0.000 OA
ENDBRANCH  39  46
ENDBRANCH  35  42
ENDBRANCH  34  36
ENDBRANCH  29  34
ENDBRANCH  28  31
ENDBRANCH  27  28
ENDBRANCH   1  27
TORSDOF 11
ENDMDL
MODEL 5
REMARK VINA RESULT:    -6.089      4.148      7.253
REMARK INTER + INTRA:         -11.658
REMARK INTER:                 -10.078
REMARK INTRA:                  -1.580
REMARK UNBOUND:                -1.831
REMARK  Name = resultss/4CJN/ligands/lig_350_t2.pdb
REMARK  12 active torsions:
REMARK  status: ('A' for Active; 'I' for Inactive)
REMARK    1  A    between atoms: C1_1  and  O1_2
REMARK    2  A    between atoms: O1_2  and  C2_3
REMARK    3  A    between atoms: C5_6  and  N1_7
REMARK    4  A    between atoms: C6_8  and  C7_10
REMARK    5  A    between atoms: C7_10  and  N2_11
REMARK    6  A    between atoms: C9_13  and  C10_14
REMARK    7  A    between atoms: C10_14  and  O3_15
REMARK    8  A    between atoms: O3_15  and  C11_16
REMARK    9  A    between atoms: C14_19  and  C15_20
REMARK   10  A    between atoms: C22_28  and  O4_29
REMARK   11  A    between atoms: N4_30  and  N5_31
REMARK   12  A    between atoms: N5_31  and  C23_32
REMARK                            x       y       z     vdW  Elec       q    Type
REMARK                         _______ _______ _______ _____ _____    ______ ____
ROOT
ATOM      1  C11 UNL     1      29.212  -9.440 -38.799  0.00  0.00    +0.000 A 
ATOM      2  C12 UNL     1      29.371  -8.058 -38.647  0.00  0.00    +0.000 A 
ATOM      3  C13 UNL     1      29.976  -7.534 -37.502  0.00  0.00    +0.000 A 
ATOM      4  C14 UNL     1      30.444  -8.388 -36.491  0.00  0.00    +0.000 A 
ATOM      5  C29 UNL     1      30.287  -9.777 -36.644  0.00  0.00    +0.000 A 
ATOM      6  C30 UNL     1      29.683 -10.300 -37.790  0.00  0.00    +0.000 A 
ENDROOT
BRANCH   4   7
ATOM      7  C15 UNL     1      30.976  -7.810 -35.201  0.00  0.00    +0.000 C 
ATOM      8  N3  UNL     1      32.282  -8.391 -34.894  0.00  0.00    +0.000 NA
ATOM      9  C16 UNL     1      32.549  -9.132 -33.861  0.00  0.00    +0.000 A 
ATOM     10  C17 UNL     1      33.846  -9.648 -33.738  0.00  0.00    +0.000 A 
ATOM     11  C18 UNL     1      34.184 -10.465 -32.662  0.00  0.00    +0.000 A 
ATOM     12  C19 UNL     1      33.230 -10.772 -31.696  0.00  0.00    +0.000 A 
ATOM     13  C20 UNL     1      31.935 -10.258 -31.795  0.00  0.00    +0.000 A 
ATOM     14  C21 UNL     1      31.567  -9.420 -32.876  0.00  0.00    +0.000 A 
ATOM     15  C22 UNL     1      30.327  -8.879 -32.991  0.00  0.00    +0.000 C 
ATOM     16  N4  UNL     1      30.010  -8.055 -34.127  0.00  0.00    +0.000 N 
BRANCH  15  17
ATOM     17  O4  UNL     1      29.319  -9.068 -32.036  0.00  0.00    +0.000 OA
ATOM     18  H19 UNL     1      28.405  -9.460 -32.210  0.00  0.00    +0.000 HD
ENDBRANCH  15  17
BRANCH  16  19
ATOM     19  N5  UNL     1      28.749  -7.436 -34.210  0.00  0.00    +0.000 N 
ATOM     20  H20 UNL     1      28.709  -6.443 -34.534  0.00  0.00    +0.000 HD
BRANCH  19  21
ATOM     21  C23 UNL     1      27.520  -8.178 -34.115  0.00  0.00    +0.000 A 
ATOM     22  C24 UNL     1      27.324  -9.369 -34.840  0.00  0.00    +0.000 A 
ATOM     23  C25 UNL     1      26.109 -10.054 -34.755  0.00  0.00    +0.000 A 
ATOM     24  C26 UNL     1      25.081  -9.561 -33.949  0.00  0.00    +0.000 A 
ATOM     25  C27 UNL     1      25.265  -8.377 -33.230  0.00  0.00    +0.000 A 
ATOM     26  C28 UNL     1      26.479  -7.687 -33.314  0.00  0.00    +0.000 A 
ENDBRANCH  19  21
ENDBRANCH  16  19
ENDBRANCH   4   7
BRANCH   1  27
ATOM     27  O3  UNL     1      28.573  -9.912 -39.955  0.00  0.00    +0.000 OA
BRANCH  27  28
ATOM     28  C10 UNL     1      27.261 -10.467 -39.983  0.00  0.00    +0.000 C 
BRANCH  28  31
ATOM     29  N2  UNL     1      25.900  -8.687 -42.833  0.00  0.00    +0.000 N 
ATOM     30  C8  UNL     1      26.859  -8.810 -41.902  0.00  0.00    +0.000 A 
ATOM     31  C9  UNL     1      26.508  -9.906 -41.144  0.00  0.00    +0.000 A 
ATOM     32  N6  UNL     1      25.368 -10.426 -41.641  0.00  0.00    +0.000 NA
ATOM     33  N7  UNL     1      25.019  -9.663 -42.667  0.00  0.00    +0.000 NA
BRANCH  29  34
ATOM     34  C7  UNL     1      25.819  -7.672 -43.877  0.00  0.00    +0.000 C 
BRANCH  34  36
ATOM     35  N1  UNL     1      23.395  -7.616 -44.635  0.00  0.00    +0.000 N 
ATOM     36  C6  UNL     1      24.464  -7.034 -43.871  0.00  0.00    +0.000 C 
ATOM     37  O2  UNL     1      24.287  -5.966 -43.224  0.00  0.00    +0.000 OA
ATOM     38  H6  UNL     1      23.645  -8.337 -45.349  0.00  0.00    +0.000 HD
BRANCH  35  42
ATOM     39  C2  UNL     1      19.333  -6.354 -44.467  0.00  0.00    +0.000 A 
ATOM     40  C3  UNL     1      20.063  -6.273 -45.668  0.00  0.00    +0.000 A 
ATOM     41  C4  UNL     1      21.396  -6.693 -45.711  0.00  0.00    +0.000 A 
ATOM     42  C5  UNL     1      22.026  -7.185 -44.560  0.00  0.00    +0.000 A 
ATOM     43  C31 UNL     1      21.285  -7.292 -43.369  0.00  0.00    +0.000 A 
ATOM     44  C32 UNL     1      19.953  -6.873 -43.325  0.00  0.00    +0.000 A 
BRANCH  39  46
ATOM     45  C1  UNL     1      17.062  -6.445 -43.426  0.00  0.00    +0.000 C 
ATOM     46  O1  UNL     1      17.998  -5.931 -44.367  0.00  0.00    +0.000 OA
ENDBRANCH  39  46
ENDBRANCH  35  42
ENDBRANCH  34  36
ENDBRANCH  29  34
ENDBRANCH  28  31
ENDBRANCH  27  28
ENDBRANCH   1  27
TORSDOF 11
ENDMDL
MODEL 6
REMARK VINA RESULT:    -6.058      2.937      8.326
REMARK INTER + INTRA:         -11.608
REMARK INTER:                  -8.960
REMARK INTRA:                  -2.648
REMARK UNBOUND:                -1.831
REMARK  Name = resultss/4CJN/ligands/lig_350_t2.pdb
REMARK  12 active torsions:
REMARK  status: ('A' for Active; 'I' for Inactive)
REMARK    1  A    between atoms: C1_1  and  O1_2
REMARK    2  A    between atoms: O1_2  and  C2_3
REMARK    3  A    between atoms: C5_6  and  N1_7
REMARK    4  A    between atoms: C6_8  and  C7_10
REMARK    5  A    between atoms: C7_10  and  N2_11
REMARK    6  A    between atoms: C9_13  and  C10_14
REMARK    7  A    between atoms: C10_14  and  O3_15
REMARK    8  A    between atoms: O3_15  and  C11_16
REMARK    9  A    between atoms: C14_19  and  C15_20
REMARK   10  A    between atoms: C22_28  and  O4_29
REMARK   11  A    between atoms: N4_30  and  N5_31
REMARK   12  A    between atoms: N5_31  and  C23_32
REMARK                            x       y       z     vdW  Elec       q    Type
REMARK                         _______ _______ _______ _____ _____    ______ ____
ROOT
ATOM      1  C11 UNL     1      25.698  -7.294 -35.651  0.00  0.00    +0.000 A 
ATOM      2  C12 UNL     1      26.640  -6.486 -36.296  0.00  0.00    +0.000 A 
ATOM      3  C13 UNL     1      26.693  -6.431 -37.691  0.00  0.00    +0.000 A 
ATOM      4  C14 UNL     1      25.791  -7.177 -38.466  0.00  0.00    +0.000 A 
ATOM      5  C29 UNL     1      24.841  -7.987 -37.819  0.00  0.00    +0.000 A 
ATOM      6  C30 UNL     1      24.789  -8.040 -36.424  0.00  0.00    +0.000 A 
ENDROOT
BRANCH   4   7
ATOM      7  C15 UNL     1      25.939  -7.213 -39.969  0.00  0.00    +0.000 C 
ATOM      8  N3  UNL     1      24.894  -6.404 -40.595  0.00  0.00    +0.000 NA
ATOM      9  C16 UNL     1      23.958  -6.859 -41.372  0.00  0.00    +0.000 A 
ATOM     10  C17 UNL     1      23.004  -5.953 -41.854  0.00  0.00    +0.000 A 
ATOM     11  C18 UNL     1      21.966  -6.386 -42.674  0.00  0.00    +0.000 A 
ATOM     12  C19 UNL     1      21.872  -7.730 -43.025  0.00  0.00    +0.000 A 
ATOM     13  C20 UNL     1      22.820  -8.647 -42.563  0.00  0.00    +0.000 A 
ATOM     14  C21 UNL     1      23.888  -8.231 -41.732  0.00  0.00    +0.000 A 
ATOM     15  C22 UNL     1      24.844  -9.087 -41.288  0.00  0.00    +0.000 C 
ATOM     16  N4  UNL     1      25.890  -8.604 -40.426  0.00  0.00    +0.000 N 
BRANCH  15  17
ATOM     17  O4  UNL     1      24.879 -10.443 -41.641  0.00  0.00    +0.000 OA
ATOM     18  H19 UNL     1      24.933 -11.220 -41.000  0.00  0.00    +0.000 HD
ENDBRANCH  15  17
BRANCH  16  19
ATOM     19  N5  UNL     1      26.920  -9.475 -40.024  0.00  0.00    +0.000 N 
ATOM     20  H20 UNL     1      26.755 -10.079 -39.187  0.00  0.00    +0.000 HD
BRANCH  19  21
ATOM     21  C23 UNL     1      28.066  -9.745 -40.851  0.00  0.00    +0.000 A 
ATOM     22  C24 UNL     1      28.588 -11.047 -40.980  0.00  0.00    +0.000 A 
ATOM     23  C25 UNL     1      29.721 -11.278 -41.764  0.00  0.00    +0.000 A 
ATOM     24  C26 UNL     1      30.343 -10.218 -42.427  0.00  0.00    +0.000 A 
ATOM     25  C27 UNL     1      29.834  -8.922 -42.302  0.00  0.00    +0.000 A 
ATOM     26  C28 UNL     1      28.702  -8.686 -41.516  0.00  0.00    +0.000 A 
ENDBRANCH  19  21
ENDBRANCH  16  19
ENDBRANCH   4   7
BRANCH   1  27
ATOM     27  O3  UNL     1      25.706  -7.335 -34.249  0.00  0.00    +0.000 OA
BRANCH  27  28
ATOM     28  C10 UNL     1      26.148  -8.447 -33.476  0.00  0.00    +0.000 C 
BRANCH  28  31
ATOM     29  N2  UNL     1      29.724  -8.764 -32.969  0.00  0.00    +0.000 N 
ATOM     30  C8  UNL     1      28.543  -9.340 -33.248  0.00  0.00    +0.000 A 
ATOM     31  C9  UNL     1      27.613  -8.324 -33.219  0.00  0.00    +0.000 A 
ATOM     32  N6  UNL     1      28.249  -7.166 -32.945  0.00  0.00    +0.000 NA
ATOM     33  N7  UNL     1      29.532  -7.465 -32.796  0.00  0.00    +0.000 NA
BRANCH  29  34
ATOM     34  C7  UNL     1      31.020  -9.425 -32.881  0.00  0.00    +0.000 C 
BRANCH  34  36
ATOM     35  N1  UNL     1      30.902  -9.103 -35.398  0.00  0.00    +0.000 N 
ATOM     36  C6  UNL     1      31.639  -9.531 -34.241  0.00  0.00    +0.000 C 
ATOM     37  O2  UNL     1      32.789 -10.032 -34.359  0.00  0.00    +0.000 OA
ATOM     38  H6  UNL     1      29.876  -8.938 -35.287  0.00  0.00    +0.000 HD
BRANCH  35  42
ATOM     39  C2  UNL     1      32.615  -8.783 -39.282  0.00  0.00    +0.000 A 
ATOM     40  C3  UNL     1      33.027  -7.929 -38.241  0.00  0.00    +0.000 A 
ATOM     41  C4  UNL     1      32.458  -8.045 -36.969  0.00  0.00    +0.000 A 
ATOM     42  C5  UNL     1      31.464  -9.001 -36.717  0.00  0.00    +0.000 A 
ATOM     43  C31 UNL     1      31.077  -9.873 -37.750  0.00  0.00    +0.000 A 
ATOM     44  C32 UNL     1      31.645  -9.758 -39.022  0.00  0.00    +0.000 A 
BRANCH  39  46
ATOM     45  C1  UNL     1      33.839  -9.752 -41.235  0.00  0.00    +0.000 C 
ATOM     46  O1  UNL     1      33.143  -8.697 -40.580  0.00  0.00    +0.000 OA
ENDBRANCH  39  46
ENDBRANCH  35  42
ENDBRANCH  34  36
ENDBRANCH  29  34
ENDBRANCH  28  31
ENDBRANCH  27  28
ENDBRANCH   1  27
TORSDOF 11
ENDMDL
MODEL 7
REMARK VINA RESULT:    -6.031      3.920      5.724
REMARK INTER + INTRA:         -11.565
REMARK INTER:                 -10.305
REMARK INTRA:                  -1.260
REMARK UNBOUND:                -1.831
REMARK  Name = resultss/4CJN/ligands/lig_350_t2.pdb
REMARK  12 active torsions:
REMARK  status: ('A' for Active; 'I' for Inactive)
REMARK    1  A    between atoms: C1_1  and  O1_2
REMARK    2  A    between atoms: O1_2  and  C2_3
REMARK    3  A    between atoms: C5_6  and  N1_7
REMARK    4  A    between atoms: C6_8  and  C7_10
REMARK    5  A    between atoms: C7_10  and  N2_11
REMARK    6  A    between atoms: C9_13  and  C10_14
REMARK    7  A    between atoms: C10_14  and  O3_15
REMARK    8  A    between atoms: O3_15  and  C11_16
REMARK    9  A    between atoms: C14_19  and  C15_20
REMARK   10  A    between atoms: C22_28  and  O4_29
REMARK   11  A    between atoms: N4_30  and  N5_31
REMARK   12  A    between atoms: N5_31  and  C23_32
REMARK                            x       y       z     vdW  Elec       q    Type
REMARK                         _______ _______ _______ _____ _____    ______ ____
ROOT
ATOM      1  C11 UNL     1      26.154  -8.674 -38.754  0.00  0.00    +0.000 A 
ATOM      2  C12 UNL     1      26.660  -9.480 -37.729  0.00  0.00    +0.000 A 
ATOM      3  C13 UNL     1      27.319  -8.913 -36.636  0.00  0.00    +0.000 A 
ATOM      4  C14 UNL     1      27.473  -7.520 -36.545  0.00  0.00    +0.000 A 
ATOM      5  C29 UNL     1      26.962  -6.707 -37.572  0.00  0.00    +0.000 A 
ATOM      6  C30 UNL     1      26.303  -7.277 -38.664  0.00  0.00    +0.000 A 
ENDROOT
BRANCH   4   7
ATOM      7  C15 UNL     1      28.299  -6.924 -35.429  0.00  0.00    +0.000 C 
ATOM      8  N3  UNL     1      29.629  -7.531 -35.413  0.00  0.00    +0.000 NA
ATOM      9  C16 UNL     1      30.113  -8.253 -34.447  0.00  0.00    +0.000 A 
ATOM     10  C17 UNL     1      31.392  -8.800 -34.611  0.00  0.00    +0.000 A 
ATOM     11  C18 UNL     1      31.953  -9.598 -33.617  0.00  0.00    +0.000 A 
ATOM     12  C19 UNL     1      31.243  -9.855 -32.448  0.00  0.00    +0.000 A 
ATOM     13  C20 UNL     1      29.970  -9.310 -32.263  0.00  0.00    +0.000 A 
ATOM     14  C21 UNL     1      29.379  -8.490 -33.255  0.00  0.00    +0.000 A 
ATOM     15  C22 UNL     1      28.157  -7.920 -33.098  0.00  0.00    +0.000 C 
ATOM     16  N4  UNL     1      27.603  -7.117 -34.155  0.00  0.00    +0.000 N 
BRANCH  15  17
ATOM     17  O4  UNL     1      27.393  -8.059 -31.931  0.00  0.00    +0.000 OA
ATOM     18  H19 UNL     1      27.637  -7.705 -31.018  0.00  0.00    +0.000 HD
ENDBRANCH  15  17
BRANCH  16  19
ATOM     19  N5  UNL     1      26.369  -6.467 -33.965  0.00  0.00    +0.000 N 
ATOM     20  H20 UNL     1      26.371  -5.425 -33.872  0.00  0.00    +0.000 HD
BRANCH  19  21
ATOM     21  C23 UNL     1      25.110  -7.138 -34.145  0.00  0.00    +0.000 A 
ATOM     22  C24 UNL     1      24.212  -6.755 -35.161  0.00  0.00    +0.000 A 
ATOM     23  C25 UNL     1      22.981  -7.402 -35.295  0.00  0.00    +0.000 A 
ATOM     24  C26 UNL     1      22.634  -8.436 -34.423  0.00  0.00    +0.000 A 
ATOM     25  C27 UNL     1      23.516  -8.821 -33.410  0.00  0.00    +0.000 A 
ATOM     26  C28 UNL     1      24.748  -8.173 -33.271  0.00  0.00    +0.000 A 
ENDBRANCH  19  21
ENDBRANCH  16  19
ENDBRANCH   4   7
BRANCH   1  27
ATOM     27  O3  UNL     1      25.526  -9.296 -39.842  0.00  0.00    +0.000 OA
BRANCH  27  28
ATOM     28  C10 UNL     1      26.166 -10.203 -40.734  0.00  0.00    +0.000 C 
BRANCH  28  31
ATOM     29  N2  UNL     1      27.583  -7.953 -43.199  0.00  0.00    +0.000 N 
ATOM     30  C8  UNL     1      26.557  -8.291 -42.402  0.00  0.00    +0.000 A 
ATOM     31  C9  UNL     1      26.953  -9.436 -41.745  0.00  0.00    +0.000 A 
ATOM     32  N6  UNL     1      28.203  -9.748 -42.141  0.00  0.00    +0.000 NA
ATOM     33  N7  UNL     1      28.560  -8.830 -43.028  0.00  0.00    +0.000 NA
BRANCH  29  34
ATOM     34  C7  UNL     1      27.649  -6.810 -44.101  0.00  0.00    +0.000 C 
BRANCH  34  36
ATOM     35  N1  UNL     1      25.320  -6.765 -45.113  0.00  0.00    +0.000 N 
ATOM     36  C6  UNL     1      26.727  -7.015 -45.263  0.00  0.00    +0.000 C 
ATOM     37  O2  UNL     1      27.192  -7.444 -46.353  0.00  0.00    +0.000 OA
ATOM     38  H6  UNL     1      24.945  -6.663 -44.142  0.00  0.00    +0.000 HD
BRANCH  35  42
ATOM     39  C2  UNL     1      22.502  -6.768 -48.304  0.00  0.00    +0.000 A 
ATOM     40  C3  UNL     1      22.249  -7.487 -47.120  0.00  0.00    +0.000 A 
ATOM     41  C4  UNL     1      23.182  -7.476 -46.077  0.00  0.00    +0.000 A 
ATOM     42  C5  UNL     1      24.382  -6.764 -46.203  0.00  0.00    +0.000 A 
ATOM     43  C31 UNL     1      24.619  -6.023 -47.375  0.00  0.00    +0.000 A 
ATOM     44  C32 UNL     1      23.687  -6.033 -48.417  0.00  0.00    +0.000 A 
BRANCH  39  46
ATOM     45  C1  UNL     1      20.268  -6.278 -49.315  0.00  0.00    +0.000 C 
ATOM     46  O1  UNL     1      21.606  -6.759 -49.385  0.00  0.00    +0.000 OA
ENDBRANCH  39  46
ENDBRANCH  35  42
ENDBRANCH  34  36
ENDBRANCH  29  34
ENDBRANCH  28  31
ENDBRANCH  27  28
ENDBRANCH   1  27
TORSDOF 11
ENDMDL
MODEL 8
REMARK VINA RESULT:    -5.909      3.682      6.516
REMARK INTER + INTRA:         -11.368
REMARK INTER:                  -9.994
REMARK INTRA:                  -1.374
REMARK UNBOUND:                -1.831
REMARK  Name = resultss/4CJN/ligands/lig_350_t2.pdb
REMARK  12 active torsions:
REMARK  status: ('A' for Active; 'I' for Inactive)
REMARK    1  A    between atoms: C1_1  and  O1_2
REMARK    2  A    between atoms: O1_2  and  C2_3
REMARK    3  A    between atoms: C5_6  and  N1_7
REMARK    4  A    between atoms: C6_8  and  C7_10
REMARK    5  A    between atoms: C7_10  and  N2_11
REMARK    6  A    between atoms: C9_13  and  C10_14
REMARK    7  A    between atoms: C10_14  and  O3_15
REMARK    8  A    between atoms: O3_15  and  C11_16
REMARK    9  A    between atoms: C14_19  and  C15_20
REMARK   10  A    between atoms: C22_28  and  O4_29
REMARK   11  A    between atoms: N4_30  and  N5_31
REMARK   12  A    between atoms: N5_31  and  C23_32
REMARK                            x       y       z     vdW  Elec       q    Type
REMARK                         _______ _______ _______ _____ _____    ______ ____
ROOT
ATOM      1  C11 UNL     1      27.112  -9.295 -38.610  0.00  0.00    +0.000 A 
ATOM      2  C12 UNL     1      27.773 -10.064 -37.646  0.00  0.00    +0.000 A 
ATOM      3  C13 UNL     1      28.411  -9.453 -36.564  0.00  0.00    +0.000 A 
ATOM      4  C14 UNL     1      28.388  -8.056 -36.422  0.00  0.00    +0.000 A 
ATOM      5  C29 UNL     1      27.722  -7.282 -37.389  0.00  0.00    +0.000 A 
ATOM      6  C30 UNL     1      27.083  -7.895 -38.470  0.00  0.00    +0.000 A 
ENDROOT
BRANCH   4   7
ATOM      7  C15 UNL     1      29.190  -7.395 -35.326  0.00  0.00    +0.000 C 
ATOM      8  N3  UNL     1      30.506  -8.023 -35.221  0.00  0.00    +0.000 NA
ATOM      9  C16 UNL     1      30.943  -8.681 -34.190  0.00  0.00    +0.000 A 
ATOM     10  C17 UNL     1      32.217  -9.261 -34.270  0.00  0.00    +0.000 A 
ATOM     11  C18 UNL     1      32.729  -9.995 -33.204  0.00  0.00    +0.000 A 
ATOM     12  C19 UNL     1      31.976 -10.155 -32.044  0.00  0.00    +0.000 A 
ATOM     13  C20 UNL     1      30.708  -9.575 -31.941  0.00  0.00    +0.000 A 
ATOM     14  C21 UNL     1      30.167  -8.819 -33.009  0.00  0.00    +0.000 A 
ATOM     15  C22 UNL     1      28.952  -8.217 -32.935  0.00  0.00    +0.000 C 
ATOM     16  N4  UNL     1      28.449  -7.483 -34.065  0.00  0.00    +0.000 N 
BRANCH  15  17
ATOM     17  O4  UNL     1      28.148  -8.258 -31.788  0.00  0.00    +0.000 OA
ATOM     18  H19 UNL     1      27.279  -8.762 -31.692  0.00  0.00    +0.000 HD
ENDBRANCH  15  17
BRANCH  16  19
ATOM     19  N5  UNL     1      27.223  -6.799 -33.964  0.00  0.00    +0.000 N 
ATOM     20  H20 UNL     1      27.194  -5.796 -34.256  0.00  0.00    +0.000 HD
BRANCH  19  21
ATOM     21  C23 UNL     1      25.980  -7.481 -33.722  0.00  0.00    +0.000 A 
ATOM     22  C24 UNL     1      25.836  -8.859 -33.975  0.00  0.00    +0.000 A 
ATOM     23  C25 UNL     1      24.609  -9.491 -33.762  0.00  0.00    +0.000 A 
ATOM     24  C26 UNL     1      23.515  -8.759 -33.295  0.00  0.00    +0.000 A 
ATOM     25  C27 UNL     1      23.646  -7.391 -33.046  0.00  0.00    +0.000 A 
ATOM     26  C28 UNL     1      24.873  -6.754 -33.260  0.00  0.00    +0.000 A 
ENDBRANCH  19  21
ENDBRANCH  16  19
ENDBRANCH   4   7
BRANCH   1  27
ATOM     27  O3  UNL     1      26.511  -9.957 -39.690  0.00  0.00    +0.000 OA
BRANCH  27  28
ATOM     28  C10 UNL     1      27.223 -10.549 -40.773  0.00  0.00    +0.000 C 
BRANCH  28  31
ATOM     29  N2  UNL     1      27.217  -8.215 -43.547  0.00  0.00    +0.000 N 
ATOM     30  C8  UNL     1      26.593  -9.177 -42.848  0.00  0.00    +0.000 A 
ATOM     31  C9  UNL     1      27.458  -9.526 -41.834  0.00  0.00    +0.000 A 
ATOM     32  N6  UNL     1      28.565  -8.762 -41.931  0.00  0.00    +0.000 NA
ATOM     33  N7  UNL     1      28.391  -7.975 -42.984  0.00  0.00    +0.000 NA
BRANCH  29  34
ATOM     34  C7  UNL     1      26.709  -7.520 -44.723  0.00  0.00    +0.000 C 
BRANCH  34  36
ATOM     35  N1  UNL     1      24.183  -7.686 -44.928  0.00  0.00    +0.000 N 
ATOM     36  C6  UNL     1      25.339  -6.979 -44.451  0.00  0.00    +0.000 C 
ATOM     37  O2  UNL     1      25.218  -5.885 -43.836  0.00  0.00    +0.000 OA
ATOM     38  H6  UNL     1      24.331  -8.435 -45.641  0.00  0.00    +0.000 HD
BRANCH  35  42
ATOM     39  C2  UNL     1      20.197  -6.673 -43.828  0.00  0.00    +0.000 A 
ATOM     40  C3  UNL     1      21.092  -7.205 -42.881  0.00  0.00    +0.000 A 
ATOM     41  C4  UNL     1      22.400  -7.531 -43.253  0.00  0.00    +0.000 A 
ATOM     42  C5  UNL     1      22.831  -7.348 -44.574  0.00  0.00    +0.000 A 
ATOM     43  C31 UNL     1      21.944  -6.788 -45.511  0.00  0.00    +0.000 A 
ATOM     44  C32 UNL     1      20.637  -6.461 -45.140  0.00  0.00    +0.000 A 
BRANCH  39  46
ATOM     45  C1  UNL     1      17.834  -6.164 -44.469  0.00  0.00    +0.000 C 
ATOM     46  O1  UNL     1      18.870  -6.344 -43.509  0.00  0.00    +0.000 OA
ENDBRANCH  39  46
ENDBRANCH  35  42
ENDBRANCH  34  36
ENDBRANCH  29  34
ENDBRANCH  28  31
ENDBRANCH  27  28
ENDBRANCH   1  27
TORSDOF 11
ENDMDL
MODEL 9
REMARK VINA RESULT:    -5.903      2.881      8.138
REMARK INTER + INTRA:         -11.357
REMARK INTER:                  -8.178
REMARK INTRA:                  -3.179
REMARK UNBOUND:                -1.831
REMARK  Name = resultss/4CJN/ligands/lig_350_t2.pdb
REMARK  12 active torsions:
REMARK  status: ('A' for Active; 'I' for Inactive)
REMARK    1  A    between atoms: C1_1  and  O1_2
REMARK    2  A    between atoms: O1_2  and  C2_3
REMARK    3  A    between atoms: C5_6  and  N1_7
REMARK    4  A    between atoms: C6_8  and  C7_10
REMARK    5  A    between atoms: C7_10  and  N2_11
REMARK    6  A    between atoms: C9_13  and  C10_14
REMARK    7  A    between atoms: C10_14  and  O3_15
REMARK    8  A    between atoms: O3_15  and  C11_16
REMARK    9  A    between atoms: C14_19  and  C15_20
REMARK   10  A    between atoms: C22_28  and  O4_29
REMARK   11  A    between atoms: N4_30  and  N5_31
REMARK   12  A    between atoms: N5_31  and  C23_32
REMARK                            x       y       z     vdW  Elec       q    Type
REMARK                         _______ _______ _______ _____ _____    ______ ____
ROOT
ATOM      1  C11 UNL     1      29.946  -8.970 -35.457  0.00  0.00    +0.000 A 
ATOM      2  C12 UNL     1      30.348  -9.985 -36.332  0.00  0.00    +0.000 A 
ATOM      3  C13 UNL     1      30.639  -9.699 -37.667  0.00  0.00    +0.000 A 
ATOM      4  C14 UNL     1      30.544  -8.383 -38.149  0.00  0.00    +0.000 A 
ATOM      5  C29 UNL     1      30.143  -7.361 -37.270  0.00  0.00    +0.000 A 
ATOM      6  C30 UNL     1      29.853  -7.650 -35.934  0.00  0.00    +0.000 A 
ENDROOT
BRANCH   4   7
ATOM      7  C15 UNL     1      30.732  -8.103 -39.621  0.00  0.00    +0.000 C 
ATOM      8  N3  UNL     1      30.080  -9.143 -40.416  0.00  0.00    +0.000 NA
ATOM      9  C16 UNL     1      30.688  -9.975 -41.207  0.00  0.00    +0.000 A 
ATOM     10  C17 UNL     1      29.917 -10.944 -41.862  0.00  0.00    +0.000 A 
ATOM     11  C18 UNL     1      30.517 -11.874 -42.707  0.00  0.00    +0.000 A 
ATOM     12  C19 UNL     1      31.894 -11.844 -42.907  0.00  0.00    +0.000 A 
ATOM     13  C20 UNL     1      32.679 -10.879 -42.270  0.00  0.00    +0.000 A 
ATOM     14  C21 UNL     1      32.092  -9.918 -41.411  0.00  0.00    +0.000 A 
ATOM     15  C22 UNL     1      32.817  -8.948 -40.798  0.00  0.00    +0.000 C 
ATOM     16  N4  UNL     1      32.164  -8.016 -39.918  0.00  0.00    +0.000 N 
BRANCH  15  17
ATOM     17  O4  UNL     1      34.197  -8.788 -40.990  0.00  0.00    +0.000 OA
ATOM     18  H19 UNL     1      34.812  -9.451 -41.439  0.00  0.00    +0.000 HD
ENDBRANCH  15  17
BRANCH  16  19
ATOM     19  N5  UNL     1      32.902  -6.968 -39.339  0.00  0.00    +0.000 N 
ATOM     20  H20 UNL     1      32.909  -6.043 -39.827  0.00  0.00    +0.000 HD
BRANCH  19  21
ATOM     21  C23 UNL     1      33.425  -7.042 -38.001  0.00  0.00    +0.000 A 
ATOM     22  C24 UNL     1      33.890  -8.256 -37.460  0.00  0.00    +0.000 A 
ATOM     23  C25 UNL     1      34.363  -8.308 -36.147  0.00  0.00    +0.000 A 
ATOM     24  C26 UNL     1      34.380  -7.154 -35.361  0.00  0.00    +0.000 A 
ATOM     25  C27 UNL     1      33.917  -5.945 -35.888  0.00  0.00    +0.000 A 
ATOM     26  C28 UNL     1      33.439  -5.889 -37.201  0.00  0.00    +0.000 A 
ENDBRANCH  19  21
ENDBRANCH  16  19
ENDBRANCH   4   7
BRANCH   1  27
ATOM     27  O3  UNL     1      29.639  -9.316 -34.133  0.00  0.00    +0.000 OA
BRANCH  27  28
ATOM     28  C10 UNL     1      28.472  -8.888 -33.436  0.00  0.00    +0.000 C 
BRANCH  28  31
ATOM     29  N2  UNL     1      25.535  -8.698 -35.552  0.00  0.00    +0.000 N 
ATOM     30  C8  UNL     1      26.471  -8.073 -34.821  0.00  0.00    +0.000 A 
ATOM     31  C9  UNL     1      27.276  -9.068 -34.310  0.00  0.00    +0.000 A 
ATOM     32  N6  UNL     1      26.823 -10.258 -34.756  0.00  0.00    +0.000 NA
ATOM     33  N7  UNL     1      25.762 -10.002 -35.507  0.00  0.00    +0.000 NA
BRANCH  29  34
ATOM     34  C7  UNL     1      24.447  -8.076 -36.297  0.00  0.00    +0.000 C 
BRANCH  34  36
ATOM     35  N1  UNL     1      25.959  -8.585 -38.274  0.00  0.00    +0.000 N 
ATOM     36  C6  UNL     1      24.862  -7.843 -37.717  0.00  0.00    +0.000 C 
ATOM     37  O2  UNL     1      24.265  -6.967 -38.399  0.00  0.00    +0.000 OA
ATOM     38  H6  UNL     1      26.581  -9.103 -37.612  0.00  0.00    +0.000 HD
BRANCH  35  42
ATOM     39  C2  UNL     1      26.991  -8.553 -42.404  0.00  0.00    +0.000 A 
ATOM     40  C3  UNL     1      26.395  -9.687 -41.819  0.00  0.00    +0.000 A 
ATOM     41  C4  UNL     1      26.058  -9.684 -40.462  0.00  0.00    +0.000 A 
ATOM     42  C5  UNL     1      26.322  -8.563 -39.665  0.00  0.00    +0.000 A 
ATOM     43  C31 UNL     1      26.891  -7.421 -40.257  0.00  0.00    +0.000 A 
ATOM     44  C32 UNL     1      27.227  -7.422 -41.614  0.00  0.00    +0.000 A 
BRANCH  39  46
ATOM     45  C1  UNL     1      27.716  -7.322 -44.455  0.00  0.00    +0.000 C 
ATOM     46  O1  UNL     1      27.363  -8.511 -43.757  0.00  0.00    +0.000 OA
ENDBRANCH  39  46
ENDBRANCH  35  42
ENDBRANCH  34  36
ENDBRANCH  29  34
ENDBRANCH  28  31
ENDBRANCH  27  28
ENDBRANCH   1  27
TORSDOF 11
ENDMDL
