MODEL 1
REMARK VINA RESULT:    -4.802      0.000      0.000
REMARK INTER + INTRA:          -7.144
REMARK INTER:                  -6.487
REMARK INTRA:                  -0.657
REMARK UNBOUND:                -0.657
REMARK  Name = resultss/4CJN/ligands/lig_30_t0.pdb
REMARK  11 active torsions:
REMARK  status: ('A' for Active; 'I' for Inactive)
REMARK    1  A    between atoms: C1_1  and  SI1_2
REMARK    2  A    between atoms: SI1_2  and  C2_3
REMARK    3  A    between atoms: SI1_2  and  C3_4
REMARK    4  A    between atoms: SI1_2  and  C4_5
REMARK    5  A    between atoms: C7_8  and  C8_9
REMARK    6  A    between atoms: C8_9  and  N1_10
REMARK    7  A    between atoms: C10_12  and  O1_13
REMARK    8  A    between atoms: C11_14  and  O2_15
REMARK    9  A    between atoms: C12_16  and  O3_17
REMARK   10  A    between atoms: C13_18  and  C14_19
REMARK   11  A    between atoms: C14_19  and  O4_20
REMARK                            x       y       z     vdW  Elec       q    Type
REMARK                         _______ _______ _______ _____ _____    ______ ____
ROOT
ATOM      1  N1  UNL     1      26.759  -8.609 -35.202  0.00  0.00    +0.000 NA
ATOM      2  C9  UNL     1      26.992  -7.339 -34.481  0.00  0.00    +0.000 C 
ATOM      3  C10 UNL     1      26.179  -7.235 -33.172  0.00  0.00    +0.000 C 
ATOM      4  C11 UNL     1      24.780  -7.896 -33.296  0.00  0.00    +0.000 C 
ATOM      5  C12 UNL     1      24.325  -7.981 -34.766  0.00  0.00    +0.000 C 
ATOM      6  C13 UNL     1      25.335  -8.831 -35.588  0.00  0.00    +0.000 C 
ENDROOT
BRANCH   3   7
ATOM      7  O1  UNL     1      26.901  -7.828 -32.124  0.00  0.00    +0.000 OA
ATOM      8  H17 UNL     1      27.859  -7.625 -32.287  0.00  0.00    +0.000 HD
ENDBRANCH   3   7
BRANCH   4   9
ATOM      9  O2  UNL     1      23.839  -7.207 -32.512  0.00  0.00    +0.000 OA
ATOM     10  H19 UNL     1      22.965  -7.252 -32.981  0.00  0.00    +0.000 HD
ENDBRANCH   4   9
BRANCH   5  11
ATOM     11  O3  UNL     1      23.053  -8.574 -34.842  0.00  0.00    +0.000 OA
ATOM     12  H21 UNL     1      22.389  -7.836 -34.838  0.00  0.00    +0.000 HD
ENDBRANCH   5  11
BRANCH   1  13
ATOM     13  C8  UNL     1      27.370  -9.768 -34.514  0.00  0.00    +0.000 C 
BRANCH  13  17
ATOM     14  C4  UNL     1      31.667  -9.377 -34.617  0.00  0.00    +0.000 A 
ATOM     15  C5  UNL     1      30.935  -9.397 -35.812  0.00  0.00    +0.000 A 
ATOM     16  C6  UNL     1      29.545  -9.539 -35.784  0.00  0.00    +0.000 A 
ATOM     17  C7  UNL     1      28.871  -9.662 -34.558  0.00  0.00    +0.000 A 
ATOM     18  C15 UNL     1      29.606  -9.642 -33.364  0.00  0.00    +0.000 A 
ATOM     19  C16 UNL     1      30.996  -9.500 -33.393  0.00  0.00    +0.000 A 
BRANCH  14  21
ATOM     20  C1  UNL     1      34.008  -7.372 -34.517  0.00  0.00    +0.000 C 
ATOM     21 SI1  UNL     1      33.508  -9.166 -34.680  0.00  0.00    +0.000 Si
ATOM     22  C2  UNL     1      34.285 -10.136 -33.285  0.00  0.00    +0.000 C 
ATOM     23  C3  UNL     1      34.140  -9.823 -36.309  0.00  0.00    +0.000 C 
ENDBRANCH  14  21
ENDBRANCH  13  17
ENDBRANCH   1  13
BRANCH   6  24
ATOM     24  C14 UNL     1      25.172  -8.545 -37.090  0.00  0.00    +0.000 C 
BRANCH  24  25
ATOM     25  O4  UNL     1      23.859  -8.147 -37.382  0.00  0.00    +0.000 OA
ATOM     26  H25 UNL     1      23.729  -7.260 -36.956  0.00  0.00    +0.000 HD
ENDBRANCH  24  25
ENDBRANCH   6  24
TORSDOF 8
ENDMDL
MODEL 2
REMARK VINA RESULT:    -4.747      2.884      4.643
REMARK INTER + INTRA:          -7.069
REMARK INTER:                  -6.433
REMARK INTRA:                  -0.636
REMARK UNBOUND:                -0.657
REMARK  Name = resultss/4CJN/ligands/lig_30_t0.pdb
REMARK  11 active torsions:
REMARK  status: ('A' for Active; 'I' for Inactive)
REMARK    1  A    between atoms: C1_1  and  SI1_2
REMARK    2  A    between atoms: SI1_2  and  C2_3
REMARK    3  A    between atoms: SI1_2  and  C3_4
REMARK    4  A    between atoms: SI1_2  and  C4_5
REMARK    5  A    between atoms: C7_8  and  C8_9
REMARK    6  A    between atoms: C8_9  and  N1_10
REMARK    7  A    between atoms: C10_12  and  O1_13
REMARK    8  A    between atoms: C11_14  and  O2_15
REMARK    9  A    between atoms: C12_16  and  O3_17
REMARK   10  A    between atoms: C13_18  and  C14_19
REMARK   11  A    between atoms: C14_19  and  O4_20
REMARK                            x       y       z     vdW  Elec       q    Type
REMARK                         _______ _______ _______ _____ _____    ______ ____
ROOT
ATOM      1  N1  UNL     1      27.382  -9.009 -38.275  0.00  0.00    +0.000 NA
ATOM      2  C9  UNL     1      26.661  -7.741 -38.516  0.00  0.00    +0.000 C 
ATOM      3  C10 UNL     1      25.172  -7.955 -38.862  0.00  0.00    +0.000 C 
ATOM      4  C11 UNL     1      24.944  -9.235 -39.710  0.00  0.00    +0.000 C 
ATOM      5  C12 UNL     1      26.226  -9.652 -40.456  0.00  0.00    +0.000 C 
ATOM      6  C13 UNL     1      27.365  -9.944 -39.438  0.00  0.00    +0.000 C 
ENDROOT
BRANCH   3   7
ATOM      7  O1  UNL     1      24.420  -8.022 -37.678  0.00  0.00    +0.000 OA
ATOM      8  H17 UNL     1      23.732  -7.309 -37.736  0.00  0.00    +0.000 HD
ENDBRANCH   3   7
BRANCH   4   9
ATOM      9  O2  UNL     1      23.874  -9.050 -40.603  0.00  0.00    +0.000 OA
ATOM     10  H19 UNL     1      23.160  -9.693 -40.355  0.00  0.00    +0.000 HD
ENDBRANCH   4   9
BRANCH   5  11
ATOM     11  O3  UNL     1      25.984 -10.806 -41.221  0.00  0.00    +0.000 OA
ATOM     12  H21 UNL     1      25.001 -10.949 -41.225  0.00  0.00    +0.000 HD
ENDBRANCH   5  11
BRANCH   1  13
ATOM     13  C8  UNL     1      26.988  -9.648 -37.000  0.00  0.00    +0.000 C 
BRANCH  13  17
ATOM     14  C4  UNL     1      30.301  -9.568 -34.235  0.00  0.00    +0.000 A 
ATOM     15  C5  UNL     1      30.536  -9.496 -35.615  0.00  0.00    +0.000 A 
ATOM     16  C6  UNL     1      29.467  -9.537 -36.514  0.00  0.00    +0.000 A 
ATOM     17  C7  UNL     1      28.149  -9.651 -36.042  0.00  0.00    +0.000 A 
ATOM     18  C15 UNL     1      27.917  -9.722 -34.661  0.00  0.00    +0.000 A 
ATOM     19  C16 UNL     1      28.987  -9.681 -33.762  0.00  0.00    +0.000 A 
BRANCH  14  21
ATOM     20  C1  UNL     1      31.756 -10.947 -31.891  0.00  0.00    +0.000 C 
ATOM     21 SI1  UNL     1      31.735  -9.489 -33.061  0.00  0.00    +0.000 Si
ATOM     22  C2  UNL     1      33.328  -9.479 -34.037  0.00  0.00    +0.000 C 
ATOM     23  C3  UNL     1      31.617  -7.916 -32.064  0.00  0.00    +0.000 C 
ENDBRANCH  14  21
ENDBRANCH  13  17
ENDBRANCH   1  13
BRANCH   6  24
ATOM     24  C14 UNL     1      28.732  -9.898 -40.140  0.00  0.00    +0.000 C 
BRANCH  24  25
ATOM     25  O4  UNL     1      28.986 -11.100 -40.815  0.00  0.00    +0.000 OA
ATOM     26  H25 UNL     1      29.613 -11.619 -40.247  0.00  0.00    +0.000 HD
ENDBRANCH  24  25
ENDBRANCH   6  24
TORSDOF 8
ENDMDL
MODEL 3
REMARK VINA RESULT:    -4.660      5.723      8.046
REMARK INTER + INTRA:          -6.951
REMARK INTER:                  -6.283
REMARK INTRA:                  -0.668
REMARK UNBOUND:                -0.657
REMARK  Name = resultss/4CJN/ligands/lig_30_t0.pdb
REMARK  11 active torsions:
REMARK  status: ('A' for Active; 'I' for Inactive)
REMARK    1  A    between atoms: C1_1  and  SI1_2
REMARK    2  A    between atoms: SI1_2  and  C2_3
REMARK    3  A    between atoms: SI1_2  and  C3_4
REMARK    4  A    between atoms: SI1_2  and  C4_5
REMARK    5  A    between atoms: C7_8  and  C8_9
REMARK    6  A    between atoms: C8_9  and  N1_10
REMARK    7  A    between atoms: C10_12  and  O1_13
REMARK    8  A    between atoms: C11_14  and  O2_15
REMARK    9  A    between atoms: C12_16  and  O3_17
REMARK   10  A    between atoms: C13_18  and  C14_19
REMARK   11  A    between atoms: C14_19  and  O4_20
REMARK                            x       y       z     vdW  Elec       q    Type
REMARK                         _______ _______ _______ _____ _____    ______ ____
ROOT
ATOM      1  N1  UNL     1      27.208  -9.914 -40.076  0.00  0.00    +0.000 NA
ATOM      2  C9  UNL     1      28.005 -11.114 -40.405  0.00  0.00    +0.000 C 
ATOM      3  C10 UNL     1      29.286 -10.784 -41.202  0.00  0.00    +0.000 C 
ATOM      4  C11 UNL     1      29.075  -9.608 -42.192  0.00  0.00    +0.000 C 
ATOM      5  C12 UNL     1      27.586  -9.437 -42.554  0.00  0.00    +0.000 C 
ATOM      6  C13 UNL     1      26.757  -9.143 -41.272  0.00  0.00    +0.000 C 
ENDROOT
BRANCH   3   7
ATOM      7  O1  UNL     1      30.327 -10.480 -40.309  0.00  0.00    +0.000 OA
ATOM      8  H17 UNL     1      30.100 -10.917 -39.446  0.00  0.00    +0.000 HD
ENDBRANCH   3   7
BRANCH   4   9
ATOM      9  O2  UNL     1      29.860  -9.788 -43.345  0.00  0.00    +0.000 OA
ATOM     10  H19 UNL     1      29.249  -9.805 -44.127  0.00  0.00    +0.000 HD
ENDBRANCH   4   9
BRANCH   5  11
ATOM     11  O3  UNL     1      27.431  -8.373 -43.459  0.00  0.00    +0.000 OA
ATOM     12  H21 UNL     1      26.464  -8.315 -43.675  0.00  0.00    +0.000 HD
ENDBRANCH   5  11
BRANCH   1  13
ATOM     13  C8  UNL     1      27.853  -9.074 -39.043  0.00  0.00    +0.000 C 
BRANCH  13  17
ATOM     14  C4  UNL     1      25.137  -8.225 -35.799  0.00  0.00    +0.000 A 
ATOM     15  C5  UNL     1      26.050  -9.282 -35.692  0.00  0.00    +0.000 A 
ATOM     16  C6  UNL     1      26.921  -9.570 -36.746  0.00  0.00    +0.000 A 
ATOM     17  C7  UNL     1      26.888  -8.802 -37.921  0.00  0.00    +0.000 A 
ATOM     18  C15 UNL     1      25.973  -7.744 -38.026  0.00  0.00    +0.000 A 
ATOM     19  C16 UNL     1      25.103  -7.456 -36.971  0.00  0.00    +0.000 A 
BRANCH  14  21
ATOM     20  C1  UNL     1      24.073  -9.178 -33.066  0.00  0.00    +0.000 C 
ATOM     21 SI1  UNL     1      24.007  -7.848 -34.378  0.00  0.00    +0.000 Si
ATOM     22  C2  UNL     1      24.507  -6.221 -33.610  0.00  0.00    +0.000 C 
ATOM     23  C3  UNL     1      22.257  -7.713 -35.013  0.00  0.00    +0.000 C 
ENDBRANCH  14  21
ENDBRANCH  13  17
ENDBRANCH   1  13
BRANCH   6  24
ATOM     24  C14 UNL     1      25.268  -9.432 -41.524  0.00  0.00    +0.000 C 
BRANCH  24  25
ATOM     25  O4  UNL     1      25.065  -9.894 -42.832  0.00  0.00    +0.000 OA
ATOM     26  H25 UNL     1      24.378  -9.303 -43.239  0.00  0.00    +0.000 HD
ENDBRANCH  24  25
ENDBRANCH   6  24
TORSDOF 8
ENDMDL
MODEL 4
REMARK VINA RESULT:    -4.627      3.418      5.303
REMARK INTER + INTRA:          -6.907
REMARK INTER:                  -6.182
REMARK INTRA:                  -0.726
REMARK UNBOUND:                -0.657
REMARK  Name = resultss/4CJN/ligands/lig_30_t0.pdb
REMARK  11 active torsions:
REMARK  status: ('A' for Active; 'I' for Inactive)
REMARK    1  A    between atoms: C1_1  and  SI1_2
REMARK    2  A    between atoms: SI1_2  and  C2_3
REMARK    3  A    between atoms: SI1_2  and  C3_4
REMARK    4  A    between atoms: SI1_2  and  C4_5
REMARK    5  A    between atoms: C7_8  and  C8_9
REMARK    6  A    between atoms: C8_9  and  N1_10
REMARK    7  A    between atoms: C10_12  and  O1_13
REMARK    8  A    between atoms: C11_14  and  O2_15
REMARK    9  A    between atoms: C12_16  and  O3_17
REMARK   10  A    between atoms: C13_18  and  C14_19
REMARK   11  A    between atoms: C14_19  and  O4_20
REMARK                            x       y       z     vdW  Elec       q    Type
REMARK                         _______ _______ _______ _____ _____    ______ ____
ROOT
ATOM      1  N1  UNL     1      27.412  -9.269 -39.554  0.00  0.00    +0.000 NA
ATOM      2  C9  UNL     1      26.636  -8.058 -39.215  0.00  0.00    +0.000 C 
ATOM      3  C10 UNL     1      25.112  -8.262 -39.362  0.00  0.00    +0.000 C 
ATOM      4  C11 UNL     1      24.756  -9.192 -40.551  0.00  0.00    +0.000 C 
ATOM      5  C12 UNL     1      25.886  -9.225 -41.599  0.00  0.00    +0.000 C 
ATOM      6  C13 UNL     1      27.198  -9.752 -40.950  0.00  0.00    +0.000 C 
ENDROOT
BRANCH   3   7
ATOM      7  O1  UNL     1      24.593  -8.787 -38.167  0.00  0.00    +0.000 OA
ATOM      8  H17 UNL     1      24.384  -8.013 -37.581  0.00  0.00    +0.000 HD
ENDBRANCH   3   7
BRANCH   4   9
ATOM      9  O2  UNL     1      23.537  -8.803 -41.133  0.00  0.00    +0.000 OA
ATOM     10  H19 UNL     1      23.184  -8.036 -40.610  0.00  0.00    +0.000 HD
ENDBRANCH   4   9
BRANCH   5  11
ATOM     11  O3  UNL     1      25.528 -10.067 -42.665  0.00  0.00    +0.000 OA
ATOM     12  H21 UNL     1      24.995  -9.519 -43.300  0.00  0.00    +0.000 HD
ENDBRANCH   5  11
BRANCH   1  13
ATOM     13  C8  UNL     1      27.271 -10.332 -38.536  0.00  0.00    +0.000 C 
BRANCH  13  17
ATOM     14  C4  UNL     1      29.786  -9.400 -35.155  0.00  0.00    +0.000 A 
ATOM     15  C5  UNL     1      30.351  -9.561 -36.427  0.00  0.00    +0.000 A 
ATOM     16  C6  UNL     1      29.543  -9.878 -37.522  0.00  0.00    +0.000 A 
ATOM     17  C7  UNL     1      28.157 -10.038 -37.355  0.00  0.00    +0.000 A 
ATOM     18  C15 UNL     1      27.594  -9.876 -36.081  0.00  0.00    +0.000 A 
ATOM     19  C16 UNL     1      28.404  -9.558 -34.986  0.00  0.00    +0.000 A 
BRANCH  14  21
ATOM     20  C1  UNL     1      31.414 -10.470 -32.764  0.00  0.00    +0.000 C 
ATOM     21 SI1  UNL     1      30.877  -8.957 -33.722  0.00  0.00    +0.000 Si
ATOM     22  C2  UNL     1      32.398  -8.078 -34.357  0.00  0.00    +0.000 C 
ATOM     23  C3  UNL     1      29.943  -7.817 -32.577  0.00  0.00    +0.000 C 
ENDBRANCH  14  21
ENDBRANCH  13  17
ENDBRANCH   1  13
BRANCH   6  24
ATOM     24  C14 UNL     1      28.411  -9.359 -41.810  0.00  0.00    +0.000 C 
BRANCH  24  25
ATOM     25  O4  UNL     1      27.998  -8.798 -43.027  0.00  0.00    +0.000 OA
ATOM     26  H25 UNL     1      27.723  -9.553 -43.610  0.00  0.00    +0.000 HD
ENDBRANCH  24  25
ENDBRANCH   6  24
TORSDOF 8
ENDMDL
MODEL 5
REMARK VINA RESULT:    -4.500      4.726      6.952
REMARK INTER + INTRA:          -6.736
REMARK INTER:                  -6.059
REMARK INTRA:                  -0.677
REMARK UNBOUND:                -0.657
REMARK  Name = resultss/4CJN/ligands/lig_30_t0.pdb
REMARK  11 active torsions:
REMARK  status: ('A' for Active; 'I' for Inactive)
REMARK    1  A    between atoms: C1_1  and  SI1_2
REMARK    2  A    between atoms: SI1_2  and  C2_3
REMARK    3  A    between atoms: SI1_2  and  C3_4
REMARK    4  A    between atoms: SI1_2  and  C4_5
REMARK    5  A    between atoms: C7_8  and  C8_9
REMARK    6  A    between atoms: C8_9  and  N1_10
REMARK    7  A    between atoms: C10_12  and  O1_13
REMARK    8  A    between atoms: C11_14  and  O2_15
REMARK    9  A    between atoms: C12_16  and  O3_17
REMARK   10  A    between atoms: C13_18  and  C14_19
REMARK   11  A    between atoms: C14_19  and  O4_20
REMARK                            x       y       z     vdW  Elec       q    Type
REMARK                         _______ _______ _______ _____ _____    ______ ____
ROOT
ATOM      1  N1  UNL     1      24.539  -7.918 -36.029  0.00  0.00    +0.000 NA
ATOM      2  C9  UNL     1      23.115  -8.062 -35.659  0.00  0.00    +0.000 C 
ATOM      3  C10 UNL     1      22.707  -7.154 -34.478  0.00  0.00    +0.000 C 
ATOM      4  C11 UNL     1      23.845  -7.004 -33.433  0.00  0.00    +0.000 C 
ATOM      5  C12 UNL     1      24.838  -8.180 -33.509  0.00  0.00    +0.000 C 
ATOM      6  C13 UNL     1      25.486  -8.240 -34.921  0.00  0.00    +0.000 C 
ENDROOT
BRANCH   3   7
ATOM      7  O1  UNL     1      22.332  -5.891 -34.967  0.00  0.00    +0.000 OA
ATOM      8  H17 UNL     1      21.677  -6.051 -35.696  0.00  0.00    +0.000 HD
ENDBRANCH   3   7
BRANCH   4   9
ATOM      9  O2  UNL     1      23.310  -6.873 -32.140  0.00  0.00    +0.000 OA
ATOM     10  H19 UNL     1      23.963  -6.362 -31.593  0.00  0.00    +0.000 HD
ENDBRANCH   4   9
BRANCH   5  11
ATOM     11  O3  UNL     1      25.847  -8.018 -32.545  0.00  0.00    +0.000 OA
ATOM     12  H21 UNL     1      26.511  -8.741 -32.696  0.00  0.00    +0.000 HD
ENDBRANCH   5  11
BRANCH   1  13
ATOM     13  C8  UNL     1      24.822  -6.623 -36.688  0.00  0.00    +0.000 C 
BRANCH  13  17
ATOM     14  C4  UNL     1      25.574  -7.308 -40.882  0.00  0.00    +0.000 A 
ATOM     15  C5  UNL     1      26.456  -7.814 -39.919  0.00  0.00    +0.000 A 
ATOM     16  C6  UNL     1      26.225  -7.582 -38.560  0.00  0.00    +0.000 A 
ATOM     17  C7  UNL     1      25.106  -6.839 -38.150  0.00  0.00    +0.000 A 
ATOM     18  C15 UNL     1      24.224  -6.334 -39.117  0.00  0.00    +0.000 A 
ATOM     19  C16 UNL     1      24.455  -6.568 -40.475  0.00  0.00    +0.000 A 
BRANCH  14  21
ATOM     20  C1  UNL     1      26.651  -9.336 -42.941  0.00  0.00    +0.000 C 
ATOM     21 SI1  UNL     1      25.890  -7.649 -42.677  0.00  0.00    +0.000 Si
ATOM     22  C2  UNL     1      24.275  -7.566 -43.613  0.00  0.00    +0.000 C 
ATOM     23  C3  UNL     1      27.053  -6.351 -43.346  0.00  0.00    +0.000 C 
ENDBRANCH  14  21
ENDBRANCH  13  17
ENDBRANCH   1  13
BRANCH   6  24
ATOM     24  C14 UNL     1      26.095  -9.630 -35.169  0.00  0.00    +0.000 C 
BRANCH  24  25
ATOM     25  O4  UNL     1      25.492 -10.591 -34.345  0.00  0.00    +0.000 OA
ATOM     26  H25 UNL     1      24.720 -10.956 -34.852  0.00  0.00    +0.000 HD
ENDBRANCH  24  25
ENDBRANCH   6  24
TORSDOF 8
ENDMDL
MODEL 6
REMARK VINA RESULT:    -4.449      5.562      8.087
REMARK INTER + INTRA:          -6.666
REMARK INTER:                  -5.985
REMARK INTRA:                  -0.680
REMARK UNBOUND:                -0.657
REMARK  Name = resultss/4CJN/ligands/lig_30_t0.pdb
REMARK  11 active torsions:
REMARK  status: ('A' for Active; 'I' for Inactive)
REMARK    1  A    between atoms: C1_1  and  SI1_2
REMARK    2  A    between atoms: SI1_2  and  C2_3
REMARK    3  A    between atoms: SI1_2  and  C3_4
REMARK    4  A    between atoms: SI1_2  and  C4_5
REMARK    5  A    between atoms: C7_8  and  C8_9
REMARK    6  A    between atoms: C8_9  and  N1_10
REMARK    7  A    between atoms: C10_12  and  O1_13
REMARK    8  A    between atoms: C11_14  and  O2_15
REMARK    9  A    between atoms: C12_16  and  O3_17
REMARK   10  A    between atoms: C13_18  and  C14_19
REMARK   11  A    between atoms: C14_19  and  O4_20
REMARK                            x       y       z     vdW  Elec       q    Type
REMARK                         _______ _______ _______ _____ _____    ______ ____
ROOT
ATOM      1  N1  UNL     1      26.495  -8.166 -41.479  0.00  0.00    +0.000 NA
ATOM      2  C9  UNL     1      27.092  -7.813 -42.784  0.00  0.00    +0.000 C 
ATOM      3  C10 UNL     1      26.054  -7.272 -43.791  0.00  0.00    +0.000 C 
ATOM      4  C11 UNL     1      24.678  -7.974 -43.650  0.00  0.00    +0.000 C 
ATOM      5  C12 UNL     1      24.816  -9.357 -42.986  0.00  0.00    +0.000 C 
ATOM      6  C13 UNL     1      25.429  -9.207 -41.564  0.00  0.00    +0.000 C 
ENDROOT
BRANCH   3   7
ATOM      7  O1  UNL     1      25.909  -5.886 -43.614  0.00  0.00    +0.000 OA
ATOM      8  H17 UNL     1      26.825  -5.502 -43.605  0.00  0.00    +0.000 HD
ENDBRANCH   3   7
BRANCH   4   9
ATOM      9  O2  UNL     1      24.045  -8.073 -44.902  0.00  0.00    +0.000 OA
ATOM     10  H19 UNL     1      23.152  -7.647 -44.823  0.00  0.00    +0.000 HD
ENDBRANCH   4   9
BRANCH   5  11
ATOM     11  O3  UNL     1      23.555  -9.969 -42.883  0.00  0.00    +0.000 OA
ATOM     12  H21 UNL     1      23.711 -10.909 -42.604  0.00  0.00    +0.000 HD
ENDBRANCH   5  11
BRANCH   1  13
ATOM     13  C8  UNL     1      26.092  -6.973 -40.702  0.00  0.00    +0.000 C 
BRANCH  13  17
ATOM     14  C4  UNL     1      25.608  -7.921 -36.520  0.00  0.00    +0.000 A 
ATOM     15  C5  UNL     1      26.844  -8.127 -37.148  0.00  0.00    +0.000 A 
ATOM     16  C6  UNL     1      27.001  -7.836 -38.506  0.00  0.00    +0.000 A 
ATOM     17  C7  UNL     1      25.921  -7.335 -39.251  0.00  0.00    +0.000 A 
ATOM     18  C15 UNL     1      24.686  -7.129 -38.620  0.00  0.00    +0.000 A 
ATOM     19  C16 UNL     1      24.530  -7.420 -37.261  0.00  0.00    +0.000 A 
BRANCH  14  21
ATOM     20  C1  UNL     1      23.652  -8.188 -34.151  0.00  0.00    +0.000 C 
ATOM     21 SI1  UNL     1      25.432  -8.295 -34.712  0.00  0.00    +0.000 Si
ATOM     22  C2  UNL     1      26.064 -10.020 -34.376  0.00  0.00    +0.000 C 
ATOM     23  C3  UNL     1      26.447  -7.070 -33.736  0.00  0.00    +0.000 C 
ENDBRANCH  14  21
ENDBRANCH  13  17
ENDBRANCH   1  13
BRANCH   6  24
ATOM     24  C14 UNL     1      26.000 -10.552 -41.086  0.00  0.00    +0.000 C 
BRANCH  24  25
ATOM     25  O4  UNL     1      25.022 -11.556 -41.139  0.00  0.00    +0.000 OA
ATOM     26  H25 UNL     1      25.232 -12.116 -41.931  0.00  0.00    +0.000 HD
ENDBRANCH  24  25
ENDBRANCH   6  24
TORSDOF 8
ENDMDL
MODEL 7
REMARK VINA RESULT:    -4.445      3.469      4.033
REMARK INTER + INTRA:          -6.661
REMARK INTER:                  -6.081
REMARK INTRA:                  -0.581
REMARK UNBOUND:                -0.657
REMARK  Name = resultss/4CJN/ligands/lig_30_t0.pdb
REMARK  11 active torsions:
REMARK  status: ('A' for Active; 'I' for Inactive)
REMARK    1  A    between atoms: C1_1  and  SI1_2
REMARK    2  A    between atoms: SI1_2  and  C2_3
REMARK    3  A    between atoms: SI1_2  and  C3_4
REMARK    4  A    between atoms: SI1_2  and  C4_5
REMARK    5  A    between atoms: C7_8  and  C8_9
REMARK    6  A    between atoms: C8_9  and  N1_10
REMARK    7  A    between atoms: C10_12  and  O1_13
REMARK    8  A    between atoms: C11_14  and  O2_15
REMARK    9  A    between atoms: C12_16  and  O3_17
REMARK   10  A    between atoms: C13_18  and  C14_19
REMARK   11  A    between atoms: C14_19  and  O4_20
REMARK                            x       y       z     vdW  Elec       q    Type
REMARK                         _______ _______ _______ _____ _____    ______ ____
ROOT
ATOM      1  N1  UNL     1      25.682  -7.304 -35.525  0.00  0.00    +0.000 NA
ATOM      2  C9  UNL     1      25.605  -6.163 -34.589  0.00  0.00    +0.000 C 
ATOM      3  C10 UNL     1      25.183  -6.583 -33.164  0.00  0.00    +0.000 C 
ATOM      4  C11 UNL     1      24.150  -7.741 -33.176  0.00  0.00    +0.000 C 
ATOM      5  C12 UNL     1      23.393  -7.807 -34.516  0.00  0.00    +0.000 C 
ATOM      6  C13 UNL     1      24.394  -8.043 -35.683  0.00  0.00    +0.000 C 
ENDROOT
BRANCH   3   7
ATOM      7  O1  UNL     1      26.319  -6.958 -32.431  0.00  0.00    +0.000 OA
ATOM      8  H17 UNL     1      26.666  -6.133 -32.000  0.00  0.00    +0.000 HD
ENDBRANCH   3   7
BRANCH   4   9
ATOM      9  O2  UNL     1      23.259  -7.616 -32.095  0.00  0.00    +0.000 OA
ATOM     10  H19 UNL     1      23.160  -8.513 -31.681  0.00  0.00    +0.000 HD
ENDBRANCH   4   9
BRANCH   5  11
ATOM     11  O3  UNL     1      22.460  -8.858 -34.489  0.00  0.00    +0.000 OA
ATOM     12  H21 UNL     1      22.759  -9.528 -35.158  0.00  0.00    +0.000 HD
ENDBRANCH   5  11
BRANCH   1  13
ATOM     13  C8  UNL     1      26.836  -8.187 -35.245  0.00  0.00    +0.000 C 
BRANCH  13  17
ATOM     14  C4  UNL     1      28.903  -9.011 -38.942  0.00  0.00    +0.000 A 
ATOM     15  C5  UNL     1      28.486 -10.066 -38.121  0.00  0.00    +0.000 A 
ATOM     16  C6  UNL     1      27.830  -9.804 -36.915  0.00  0.00    +0.000 A 
ATOM     17  C7  UNL     1      27.583  -8.480 -36.518  0.00  0.00    +0.000 A 
ATOM     18  C15 UNL     1      28.001  -7.425 -37.342  0.00  0.00    +0.000 A 
ATOM     19  C16 UNL     1      28.657  -7.688 -38.548  0.00  0.00    +0.000 A 
BRANCH  14  21
ATOM     20  C1  UNL     1      29.485  -8.031 -41.808  0.00  0.00    +0.000 C 
ATOM     21 SI1  UNL     1      29.753  -9.385 -40.548  0.00  0.00    +0.000 Si
ATOM     22  C2  UNL     1      31.586  -9.570 -40.244  0.00  0.00    +0.000 C 
ATOM     23  C3  UNL     1      29.081 -10.987 -41.231  0.00  0.00    +0.000 C 
ENDBRANCH  14  21
ENDBRANCH  13  17
ENDBRANCH   1  13
BRANCH   6  24
ATOM     24  C14 UNL     1      23.751  -7.651 -37.023  0.00  0.00    +0.000 C 
BRANCH  24  25
ATOM     25  O4  UNL     1      24.157  -8.523 -38.044  0.00  0.00    +0.000 OA
ATOM     26  H25 UNL     1      23.334  -8.799 -38.525  0.00  0.00    +0.000 HD
ENDBRANCH  24  25
ENDBRANCH   6  24
TORSDOF 8
ENDMDL
MODEL 8
REMARK VINA RESULT:    -4.372      3.211      5.038
REMARK INTER + INTRA:          -6.562
REMARK INTER:                  -5.831
REMARK INTRA:                  -0.731
REMARK UNBOUND:                -0.657
REMARK  Name = resultss/4CJN/ligands/lig_30_t0.pdb
REMARK  11 active torsions:
REMARK  status: ('A' for Active; 'I' for Inactive)
REMARK    1  A    between atoms: C1_1  and  SI1_2
REMARK    2  A    between atoms: SI1_2  and  C2_3
REMARK    3  A    between atoms: SI1_2  and  C3_4
REMARK    4  A    between atoms: SI1_2  and  C4_5
REMARK    5  A    between atoms: C7_8  and  C8_9
REMARK    6  A    between atoms: C8_9  and  N1_10
REMARK    7  A    between atoms: C10_12  and  O1_13
REMARK    8  A    between atoms: C11_14  and  O2_15
REMARK    9  A    between atoms: C12_16  and  O3_17
REMARK   10  A    between atoms: C13_18  and  C14_19
REMARK   11  A    between atoms: C14_19  and  O4_20
REMARK                            x       y       z     vdW  Elec       q    Type
REMARK                         _______ _______ _______ _____ _____    ______ ____
ROOT
ATOM      1  N1  UNL     1      26.269  -9.186 -35.030  0.00  0.00    +0.000 NA
ATOM      2  C9  UNL     1      25.379  -9.746 -33.992  0.00  0.00    +0.000 C 
ATOM      3  C10 UNL     1      24.299  -8.745 -33.525  0.00  0.00    +0.000 C 
ATOM      4  C11 UNL     1      24.824  -7.286 -33.495  0.00  0.00    +0.000 C 
ATOM      5  C12 UNL     1      26.360  -7.242 -33.380  0.00  0.00    +0.000 C 
ATOM      6  C13 UNL     1      27.006  -7.962 -34.598  0.00  0.00    +0.000 C 
ENDROOT
BRANCH   3   7
ATOM      7  O1  UNL     1      23.180  -8.837 -34.368  0.00  0.00    +0.000 OA
ATOM      8  H17 UNL     1      22.440  -8.354 -33.914  0.00  0.00    +0.000 HD
ENDBRANCH   3   7
BRANCH   4   9
ATOM      9  O2  UNL     1      24.217  -6.565 -32.451  0.00  0.00    +0.000 OA
ATOM     10  H19 UNL     1      24.913  -5.995 -32.032  0.00  0.00    +0.000 HD
ENDBRANCH   4   9
BRANCH   5  11
ATOM     11  O3  UNL     1      26.801  -5.908 -33.345  0.00  0.00    +0.000 OA
ATOM     12  H21 UNL     1      26.213  -5.425 -32.708  0.00  0.00    +0.000 HD
ENDBRANCH   5  11
BRANCH   1  13
ATOM     13  C8  UNL     1      25.586  -9.032 -36.334  0.00  0.00    +0.000 C 
BRANCH  13  17
ATOM     14  C4  UNL     1      28.416  -9.106 -39.592  0.00  0.00    +0.000 A 
ATOM     15  C5  UNL     1      28.433 -10.119 -38.624  0.00  0.00    +0.000 A 
ATOM     16  C6  UNL     1      27.528 -10.091 -37.559  0.00  0.00    +0.000 A 
ATOM     17  C7  UNL     1      26.595  -9.047 -37.451  0.00  0.00    +0.000 A 
ATOM     18  C15 UNL     1      26.581  -8.034 -38.421  0.00  0.00    +0.000 A 
ATOM     19  C16 UNL     1      27.485  -8.064 -39.486  0.00  0.00    +0.000 A 
BRANCH  14  21
ATOM     20  C1  UNL     1      31.340  -8.696 -40.483  0.00  0.00    +0.000 C 
ATOM     21 SI1  UNL     1      29.612  -9.178 -41.007  0.00  0.00    +0.000 Si
ATOM     22  C2  UNL     1      29.654 -10.917 -41.688  0.00  0.00    +0.000 C 
ATOM     23  C3  UNL     1      29.039  -8.010 -42.346  0.00  0.00    +0.000 C 
ENDBRANCH  14  21
ENDBRANCH  13  17
ENDBRANCH   1  13
BRANCH   6  24
ATOM     24  C14 UNL     1      28.463  -8.338 -34.282  0.00  0.00    +0.000 C 
BRANCH  24  25
ATOM     25  O4  UNL     1      28.708  -8.268 -32.904  0.00  0.00    +0.000 OA
ATOM     26  H25 UNL     1      28.296  -9.075 -32.499  0.00  0.00    +0.000 HD
ENDBRANCH  24  25
ENDBRANCH   6  24
TORSDOF 8
ENDMDL
