MODEL 1
REMARK VINA RESULT:    -6.885      0.000      0.000
REMARK INTER + INTRA:         -11.329
REMARK INTER:                  -9.099
REMARK INTRA:                  -2.230
REMARK UNBOUND:                -2.230
REMARK  Name = resultss/4CJN/ligands/lig_419_t2.pdb
REMARK  6 active torsions:
REMARK  status: ('A' for Active; 'I' for Inactive)
REMARK    1  A    between atoms: C1_2  and  C10_18
REMARK    2  A    between atoms: N1_3  and  N2_4
REMARK    3  A    between atoms: C2_5  and  S1_6
REMARK    4  A    between atoms: N3_7  and  C3_8
REMARK    5  A    between atoms: C8_13  and  C9_14
REMARK    6  A    between atoms: C20_29  and  C21_30
REMARK                            x       y       z     vdW  Elec       q    Type
REMARK                         _______ _______ _______ _____ _____    ______ ____
ROOT
ATOM      1  O1  UNL     1      28.257  -7.186 -45.172  0.00  0.00    +0.000 OA
ATOM      2  C1  UNL     1      27.921  -7.154 -43.956  0.00  0.00    +0.000 C 
ATOM      3  N1  UNL     1      26.894  -6.250 -43.528  0.00  0.00    +0.000 N 
ATOM      4  H1  UNL     1      26.954  -5.828 -42.574  0.00  0.00    +0.000 HD
ENDROOT
BRANCH   2   5
ATOM      5  C10 UNL     1      28.539  -8.081 -42.991  0.00  0.00    +0.000 A 
ATOM      6  C11 UNL     1      28.285  -7.951 -41.609  0.00  0.00    +0.000 A 
ATOM      7  C12 UNL     1      29.009  -8.770 -40.752  0.00  0.00    +0.000 A 
ATOM      8  C13 UNL     1      29.915  -9.698 -41.216  0.00  0.00    +0.000 A 
ATOM      9  N4  UNL     1      30.562 -10.306 -40.192  0.00  0.00    +0.000 N 
ATOM     10  C14 UNL     1      30.037  -9.756 -39.075  0.00  0.00    +0.000 A 
ATOM     11  C15 UNL     1      30.394 -10.028 -37.756  0.00  0.00    +0.000 A 
ATOM     12  C16 UNL     1      29.743  -9.309 -36.736  0.00  0.00    +0.000 A 
ATOM     13  C17 UNL     1      28.767  -8.337 -37.052  0.00  0.00    +0.000 A 
ATOM     14  C18 UNL     1      28.429  -8.074 -38.392  0.00  0.00    +0.000 A 
ATOM     15  C19 UNL     1      29.082  -8.810 -39.379  0.00  0.00    +0.000 A 
ATOM     16  C20 UNL     1      30.125  -9.850 -42.594  0.00  0.00    +0.000 A 
ATOM     17  N5  UNL     1      29.441  -9.014 -43.433  0.00  0.00    +0.000 NA
ATOM     18  H9  UNL     1      31.336 -11.005 -40.238  0.00  0.00    +0.000 HD
BRANCH  16  19
ATOM     19  C21 UNL     1      31.052 -10.852 -43.163  0.00  0.00    +0.000 A 
ATOM     20  C22 UNL     1      32.014 -10.457 -44.109  0.00  0.00    +0.000 A 
ATOM     21  C23 UNL     1      32.881 -11.397 -44.672  0.00  0.00    +0.000 A 
ATOM     22  C24 UNL     1      32.784 -12.744 -44.311  0.00  0.00    +0.000 A 
ATOM     23  C25 UNL     1      31.813 -13.152 -43.393  0.00  0.00    +0.000 A 
ATOM     24  C26 UNL     1      30.945 -12.214 -42.827  0.00  0.00    +0.000 A 
ENDBRANCH  16  19
ENDBRANCH   2   5
BRANCH   3  25
ATOM     25  N2  UNL     1      25.815  -5.889 -44.357  0.00  0.00    +0.000 N 
ATOM     26  C2  UNL     1      24.658  -6.720 -44.554  0.00  0.00    +0.000 C 
ATOM     27  N3  UNL     1      24.064  -7.348 -43.576  0.00  0.00    +0.000 NA
ATOM     28  H2  UNL     1      25.873  -4.991 -44.885  0.00  0.00    +0.000 HD
BRANCH  27  29
ATOM     29  C3  UNL     1      24.344  -7.235 -42.169  0.00  0.00    +0.000 A 
ATOM     30  C4  UNL     1      24.116  -6.024 -41.491  0.00  0.00    +0.000 A 
ATOM     31  C5  UNL     1      24.381  -5.916 -40.127  0.00  0.00    +0.000 A 
ATOM     32  C6  UNL     1      24.867  -7.015 -39.419  0.00  0.00    +0.000 A 
ATOM     33  C7  UNL     1      25.058  -8.236 -40.068  0.00  0.00    +0.000 A 
ATOM     34  C8  UNL     1      24.790  -8.367 -41.445  0.00  0.00    +0.000 A 
BRANCH  34  35
ATOM     35  C9  UNL     1      24.949  -9.707 -42.131  0.00  0.00    +0.000 C 
ATOM     36  F1  UNL     1      25.900  -9.659 -43.135  0.00  0.00    +0.000 F 
ATOM     37  F2  UNL     1      25.336 -10.654 -41.200  0.00  0.00    +0.000 F 
ATOM     38  F3  UNL     1      23.749 -10.099 -42.696  0.00  0.00    +0.000 F 
ENDBRANCH  34  35
ENDBRANCH  27  29
BRANCH  26  39
ATOM     39  S1  UNL     1      24.006  -6.905 -46.205  0.00  0.00    +0.000 S 
ATOM     40  H3  UNL     1      23.207  -5.753 -46.074  0.00  0.00    +0.000 HD
ENDBRANCH  26  39
ENDBRANCH   3  25
TORSDOF 6
ENDMDL
MODEL 2
REMARK VINA RESULT:    -6.620      2.581      5.506
REMARK INTER + INTRA:         -10.978
REMARK INTER:                  -9.713
REMARK INTRA:                  -1.266
REMARK UNBOUND:                -2.230
REMARK  Name = resultss/4CJN/ligands/lig_419_t2.pdb
REMARK  6 active torsions:
REMARK  status: ('A' for Active; 'I' for Inactive)
REMARK    1  A    between atoms: C1_2  and  C10_18
REMARK    2  A    between atoms: N1_3  and  N2_4
REMARK    3  A    between atoms: C2_5  and  S1_6
REMARK    4  A    between atoms: N3_7  and  C3_8
REMARK    5  A    between atoms: C8_13  and  C9_14
REMARK    6  A    between atoms: C20_29  and  C21_30
REMARK                            x       y       z     vdW  Elec       q    Type
REMARK                         _______ _______ _______ _____ _____    ______ ____
ROOT
ATOM      1  O1  UNL     1      25.061 -10.550 -41.112  0.00  0.00    +0.000 OA
ATOM      2  C1  UNL     1      25.892 -10.015 -41.895  0.00  0.00    +0.000 C 
ATOM      3  N1  UNL     1      25.456  -9.539 -43.175  0.00  0.00    +0.000 N 
ATOM      4  H1  UNL     1      26.112  -9.590 -43.986  0.00  0.00    +0.000 HD
ENDROOT
BRANCH   2   5
ATOM      5  C10 UNL     1      27.292  -9.825 -41.474  0.00  0.00    +0.000 A 
ATOM      6  C11 UNL     1      28.350 -10.053 -42.378  0.00  0.00    +0.000 A 
ATOM      7  C12 UNL     1      29.642  -9.989 -41.873  0.00  0.00    +0.000 A 
ATOM      8  C13 UNL     1      29.899  -9.685 -40.553  0.00  0.00    +0.000 A 
ATOM      9  N4  UNL     1      31.222  -9.776 -40.277  0.00  0.00    +0.000 N 
ATOM     10  C14 UNL     1      31.796 -10.129 -41.448  0.00  0.00    +0.000 A 
ATOM     11  C15 UNL     1      33.148 -10.377 -41.681  0.00  0.00    +0.000 A 
ATOM     12  C16 UNL     1      33.531 -10.772 -42.977  0.00  0.00    +0.000 A 
ATOM     13  C17 UNL     1      32.566 -10.918 -43.999  0.00  0.00    +0.000 A 
ATOM     14  C18 UNL     1      31.206 -10.669 -43.738  0.00  0.00    +0.000 A 
ATOM     15  C19 UNL     1      30.859 -10.269 -42.449  0.00  0.00    +0.000 A 
ATOM     16  C20 UNL     1      28.841  -9.415 -39.674  0.00  0.00    +0.000 A 
ATOM     17  N5  UNL     1      27.569  -9.519 -40.166  0.00  0.00    +0.000 NA
ATOM     18  H9  UNL     1      31.702  -9.660 -39.358  0.00  0.00    +0.000 HD
BRANCH  16  19
ATOM     19  C21 UNL     1      29.044  -9.043 -38.257  0.00  0.00    +0.000 A 
ATOM     20  C22 UNL     1      29.335  -7.711 -37.918  0.00  0.00    +0.000 A 
ATOM     21  C23 UNL     1      29.552  -7.351 -36.585  0.00  0.00    +0.000 A 
ATOM     22  C24 UNL     1      29.498  -8.321 -35.580  0.00  0.00    +0.000 A 
ATOM     23  C25 UNL     1      29.237  -9.653 -35.909  0.00  0.00    +0.000 A 
ATOM     24  C26 UNL     1      29.019 -10.017 -37.241  0.00  0.00    +0.000 A 
ENDBRANCH  16  19
ENDBRANCH   2   5
BRANCH   3  25
ATOM     25  N2  UNL     1      24.164  -9.023 -43.386  0.00  0.00    +0.000 N 
ATOM     26  C2  UNL     1      23.852  -7.621 -43.322  0.00  0.00    +0.000 C 
ATOM     27  N3  UNL     1      24.611  -6.703 -43.855  0.00  0.00    +0.000 NA
ATOM     28  H2  UNL     1      23.383  -9.694 -43.560  0.00  0.00    +0.000 HD
BRANCH  27  29
ATOM     29  C3  UNL     1      25.771  -6.903 -44.684  0.00  0.00    +0.000 A 
ATOM     30  C4  UNL     1      27.043  -7.060 -44.105  0.00  0.00    +0.000 A 
ATOM     31  C5  UNL     1      28.166  -7.260 -44.907  0.00  0.00    +0.000 A 
ATOM     32  C6  UNL     1      28.034  -7.318 -46.294  0.00  0.00    +0.000 A 
ATOM     33  C7  UNL     1      26.773  -7.208 -46.882  0.00  0.00    +0.000 A 
ATOM     34  C8  UNL     1      25.625  -7.010 -46.088  0.00  0.00    +0.000 A 
BRANCH  34  35
ATOM     35  C9  UNL     1      24.255  -6.944 -46.727  0.00  0.00    +0.000 C 
ATOM     36  F1  UNL     1      23.533  -8.107 -46.515  0.00  0.00    +0.000 F 
ATOM     37  F2  UNL     1      23.550  -5.883 -46.187  0.00  0.00    +0.000 F 
ATOM     38  F3  UNL     1      24.373  -6.756 -48.092  0.00  0.00    +0.000 F 
ENDBRANCH  34  35
ENDBRANCH  27  29
BRANCH  26  39
ATOM     39  S1  UNL     1      22.366  -7.110 -42.475  0.00  0.00    +0.000 S 
ATOM     40  H3  UNL     1      21.788  -8.387 -42.610  0.00  0.00    +0.000 HD
ENDBRANCH  26  39
ENDBRANCH   3  25
TORSDOF 6
ENDMDL
MODEL 3
REMARK VINA RESULT:    -6.410      3.857      7.480
REMARK INTER + INTRA:         -10.700
REMARK INTER:                  -9.670
REMARK INTRA:                  -1.030
REMARK UNBOUND:                -2.230
REMARK  Name = resultss/4CJN/ligands/lig_419_t2.pdb
REMARK  6 active torsions:
REMARK  status: ('A' for Active; 'I' for Inactive)
REMARK    1  A    between atoms: C1_2  and  C10_18
REMARK    2  A    between atoms: N1_3  and  N2_4
REMARK    3  A    between atoms: C2_5  and  S1_6
REMARK    4  A    between atoms: N3_7  and  C3_8
REMARK    5  A    between atoms: C8_13  and  C9_14
REMARK    6  A    between atoms: C20_29  and  C21_30
REMARK                            x       y       z     vdW  Elec       q    Type
REMARK                         _______ _______ _______ _____ _____    ______ ____
ROOT
ATOM      1  O1  UNL     1      27.650 -11.139 -39.479  0.00  0.00    +0.000 OA
ATOM      2  C1  UNL     1      27.347  -9.973 -39.105  0.00  0.00    +0.000 C 
ATOM      3  N1  UNL     1      26.833  -9.034 -40.058  0.00  0.00    +0.000 N 
ATOM      4  H1  UNL     1      27.062  -8.021 -39.948  0.00  0.00    +0.000 HD
ENDROOT
BRANCH   2   5
ATOM      5  C10 UNL     1      27.462  -9.596 -37.685  0.00  0.00    +0.000 A 
ATOM      6  C11 UNL     1      28.718  -9.592 -37.043  0.00  0.00    +0.000 A 
ATOM      7  C12 UNL     1      28.731  -9.362 -35.674  0.00  0.00    +0.000 A 
ATOM      8  C13 UNL     1      27.578  -9.112 -34.962  0.00  0.00    +0.000 A 
ATOM      9  N4  UNL     1      27.833  -9.014 -33.634  0.00  0.00    +0.000 N 
ATOM     10  C14 UNL     1      29.167  -9.191 -33.524  0.00  0.00    +0.000 A 
ATOM     11  C15 UNL     1      29.919  -9.209 -32.351  0.00  0.00    +0.000 A 
ATOM     12  C16 UNL     1      31.302  -9.449 -32.458  0.00  0.00    +0.000 A 
ATOM     13  C17 UNL     1      31.897  -9.674 -33.720  0.00  0.00    +0.000 A 
ATOM     14  C18 UNL     1      31.116  -9.659 -34.891  0.00  0.00    +0.000 A 
ATOM     15  C19 UNL     1      29.752  -9.407 -34.754  0.00  0.00    +0.000 A 
ATOM     16  C20 UNL     1      26.340  -9.073 -35.618  0.00  0.00    +0.000 A 
ATOM     17  N5  UNL     1      26.327  -9.341 -36.959  0.00  0.00    +0.000 NA
ATOM     18  H9  UNL     1      27.154  -8.887 -32.852  0.00  0.00    +0.000 HD
BRANCH  16  19
ATOM     19  C21 UNL     1      25.068  -8.772 -34.925  0.00  0.00    +0.000 A 
ATOM     20  C22 UNL     1      24.843  -9.270 -33.630  0.00  0.00    +0.000 A 
ATOM     21  C23 UNL     1      23.636  -9.013 -32.973  0.00  0.00    +0.000 A 
ATOM     22  C24 UNL     1      22.636  -8.272 -33.609  0.00  0.00    +0.000 A 
ATOM     23  C25 UNL     1      22.839  -7.797 -34.906  0.00  0.00    +0.000 A 
ATOM     24  C26 UNL     1      24.045  -8.051 -35.566  0.00  0.00    +0.000 A 
ENDBRANCH  16  19
ENDBRANCH   2   5
BRANCH   3  25
ATOM     25  N2  UNL     1      26.047  -9.430 -41.157  0.00  0.00    +0.000 N 
ATOM     26  C2  UNL     1      26.241  -8.927 -42.490  0.00  0.00    +0.000 C 
ATOM     27  N3  UNL     1      27.423  -8.784 -43.026  0.00  0.00    +0.000 NA
ATOM     28  H2  UNL     1      25.258 -10.092 -40.991  0.00  0.00    +0.000 HD
BRANCH  27  29
ATOM     29  C3  UNL     1      28.685  -9.206 -42.479  0.00  0.00    +0.000 A 
ATOM     30  C4  UNL     1      29.074 -10.556 -42.538  0.00  0.00    +0.000 A 
ATOM     31  C5  UNL     1      30.300 -10.963 -42.014  0.00  0.00    +0.000 A 
ATOM     32  C6  UNL     1      31.157 -10.030 -41.434  0.00  0.00    +0.000 A 
ATOM     33  C7  UNL     1      30.806  -8.679 -41.405  0.00  0.00    +0.000 A 
ATOM     34  C8  UNL     1      29.574  -8.247 -41.936  0.00  0.00    +0.000 A 
BRANCH  34  35
ATOM     35  C9  UNL     1      29.221  -6.775 -41.950  0.00  0.00    +0.000 C 
ATOM     36  F1  UNL     1      28.126  -6.502 -41.149  0.00  0.00    +0.000 F 
ATOM     37  F2  UNL     1      30.300  -6.043 -41.487  0.00  0.00    +0.000 F 
ATOM     38  F3  UNL     1      28.923  -6.368 -43.237  0.00  0.00    +0.000 F 
ENDBRANCH  34  35
ENDBRANCH  27  29
BRANCH  26  39
ATOM     39  S1  UNL     1      24.809  -8.473 -43.453  0.00  0.00    +0.000 S 
ATOM     40  H3  UNL     1      24.003  -8.372 -42.303  0.00  0.00    +0.000 HD
ENDBRANCH  26  39
ENDBRANCH   3  25
TORSDOF 6
ENDMDL
MODEL 4
REMARK VINA RESULT:    -6.333      2.283      3.211
REMARK INTER + INTRA:         -10.599
REMARK INTER:                  -8.468
REMARK INTRA:                  -2.131
REMARK UNBOUND:                -2.230
REMARK  Name = resultss/4CJN/ligands/lig_419_t2.pdb
REMARK  6 active torsions:
REMARK  status: ('A' for Active; 'I' for Inactive)
REMARK    1  A    between atoms: C1_2  and  C10_18
REMARK    2  A    between atoms: N1_3  and  N2_4
REMARK    3  A    between atoms: C2_5  and  S1_6
REMARK    4  A    between atoms: N3_7  and  C3_8
REMARK    5  A    between atoms: C8_13  and  C9_14
REMARK    6  A    between atoms: C20_29  and  C21_30
REMARK                            x       y       z     vdW  Elec       q    Type
REMARK                         _______ _______ _______ _____ _____    ______ ____
ROOT
ATOM      1  O1  UNL     1      27.901  -8.077 -43.751  0.00  0.00    +0.000 OA
ATOM      2  C1  UNL     1      28.278  -8.052 -42.548  0.00  0.00    +0.000 C 
ATOM      3  N1  UNL     1      27.484  -7.367 -41.570  0.00  0.00    +0.000 N 
ATOM      4  H1  UNL     1      27.960  -6.892 -40.771  0.00  0.00    +0.000 HD
ENDROOT
BRANCH   2   5
ATOM      5  C10 UNL     1      29.497  -8.772 -42.136  0.00  0.00    +0.000 A 
ATOM      6  C11 UNL     1      30.084  -8.526 -40.877  0.00  0.00    +0.000 A 
ATOM      7  C12 UNL     1      31.304  -9.136 -40.617  0.00  0.00    +0.000 A 
ATOM      8  C13 UNL     1      31.913  -9.975 -41.525  0.00  0.00    +0.000 A 
ATOM      9  N4  UNL     1      33.133 -10.370 -41.086  0.00  0.00    +0.000 N 
ATOM     10  C14 UNL     1      33.275  -9.778 -39.880  0.00  0.00    +0.000 A 
ATOM     11  C15 UNL     1      34.380  -9.851 -39.033  0.00  0.00    +0.000 A 
ATOM     12  C16 UNL     1      34.336  -9.121 -37.830  0.00  0.00    +0.000 A 
ATOM     13  C17 UNL     1      33.207  -8.335 -37.506  0.00  0.00    +0.000 A 
ATOM     14  C18 UNL     1      32.106  -8.272 -38.381  0.00  0.00    +0.000 A 
ATOM     15  C19 UNL     1      32.174  -9.014 -39.558  0.00  0.00    +0.000 A 
ATOM     16  C20 UNL     1      31.298 -10.248 -42.755  0.00  0.00    +0.000 A 
ATOM     17  N5  UNL     1      30.117  -9.613 -43.024  0.00  0.00    +0.000 NA
ATOM     18  H9  UNL     1      33.842 -10.955 -41.581  0.00  0.00    +0.000 HD
BRANCH  16  19
ATOM     19  C21 UNL     1      31.874 -11.167 -43.759  0.00  0.00    +0.000 A 
ATOM     20  C22 UNL     1      31.623 -12.547 -43.670  0.00  0.00    +0.000 A 
ATOM     21  C23 UNL     1      32.181 -13.430 -44.600  0.00  0.00    +0.000 A 
ATOM     22  C24 UNL     1      33.009 -12.945 -45.616  0.00  0.00    +0.000 A 
ATOM     23  C25 UNL     1      33.288 -11.579 -45.697  0.00  0.00    +0.000 A 
ATOM     24  C26 UNL     1      32.731 -10.693 -44.769  0.00  0.00    +0.000 A 
ENDBRANCH  16  19
ENDBRANCH   2   5
BRANCH   3  25
ATOM     25  N2  UNL     1      26.081  -7.292 -41.658  0.00  0.00    +0.000 N 
ATOM     26  C2  UNL     1      25.215  -8.426 -41.478  0.00  0.00    +0.000 C 
ATOM     27  N3  UNL     1      25.390  -9.305 -40.529  0.00  0.00    +0.000 NA
ATOM     28  H2  UNL     1      25.647  -6.375 -41.904  0.00  0.00    +0.000 HD
BRANCH  27  29
ATOM     29  C3  UNL     1      26.343  -9.248 -39.452  0.00  0.00    +0.000 A 
ATOM     30  C4  UNL     1      26.185  -8.318 -38.409  0.00  0.00    +0.000 A 
ATOM     31  C5  UNL     1      27.104  -8.267 -37.362  0.00  0.00    +0.000 A 
ATOM     32  C6  UNL     1      28.185  -9.147 -37.336  0.00  0.00    +0.000 A 
ATOM     33  C7  UNL     1      28.333 -10.104 -38.341  0.00  0.00    +0.000 A 
ATOM     34  C8  UNL     1      27.411 -10.176 -39.404  0.00  0.00    +0.000 A 
BRANCH  34  35
ATOM     35  C9  UNL     1      27.546 -11.250 -40.463  0.00  0.00    +0.000 C 
ATOM     36  F1  UNL     1      28.871 -11.577 -40.695  0.00  0.00    +0.000 F 
ATOM     37  F2  UNL     1      26.877 -12.387 -40.047  0.00  0.00    +0.000 F 
ATOM     38  F3  UNL     1      26.996 -10.817 -41.655  0.00  0.00    +0.000 F 
ENDBRANCH  34  35
ENDBRANCH  27  29
BRANCH  26  39
ATOM     39  S1  UNL     1      23.845  -8.646 -42.600  0.00  0.00    +0.000 S 
ATOM     40  H3  UNL     1      24.678  -8.508 -43.727  0.00  0.00    +0.000 HD
ENDBRANCH  26  39
ENDBRANCH   3  25
TORSDOF 6
ENDMDL
MODEL 5
REMARK VINA RESULT:    -6.165      4.084      7.692
REMARK INTER + INTRA:         -10.377
REMARK INTER:                  -9.245
REMARK INTRA:                  -1.132
REMARK UNBOUND:                -2.230
REMARK  Name = resultss/4CJN/ligands/lig_419_t2.pdb
REMARK  6 active torsions:
REMARK  status: ('A' for Active; 'I' for Inactive)
REMARK    1  A    between atoms: C1_2  and  C10_18
REMARK    2  A    between atoms: N1_3  and  N2_4
REMARK    3  A    between atoms: C2_5  and  S1_6
REMARK    4  A    between atoms: N3_7  and  C3_8
REMARK    5  A    between atoms: C8_13  and  C9_14
REMARK    6  A    between atoms: C20_29  and  C21_30
REMARK                            x       y       z     vdW  Elec       q    Type
REMARK                         _______ _______ _______ _____ _____    ______ ____
ROOT
ATOM      1  O1  UNL     1      29.572  -7.980 -39.074  0.00  0.00    +0.000 OA
ATOM      2  C1  UNL     1      30.074  -8.959 -38.457  0.00  0.00    +0.000 C 
ATOM      3  N1  UNL     1      30.763  -9.981 -39.189  0.00  0.00    +0.000 N 
ATOM      4  H1  UNL     1      30.718 -10.968 -38.849  0.00  0.00    +0.000 HD
ENDROOT
BRANCH   2   5
ATOM      5  C10 UNL     1      30.007  -9.022 -36.986  0.00  0.00    +0.000 A 
ATOM      6  C11 UNL     1      31.173  -9.244 -36.223  0.00  0.00    +0.000 A 
ATOM      7  C12 UNL     1      31.011  -9.431 -34.857  0.00  0.00    +0.000 A 
ATOM      8  C13 UNL     1      29.776  -9.372 -34.250  0.00  0.00    +0.000 A 
ATOM      9  N4  UNL     1      29.861  -9.678 -32.933  0.00  0.00    +0.000 N 
ATOM     10  C14 UNL     1      31.173  -9.917 -32.717  0.00  0.00    +0.000 A 
ATOM     11  C15 UNL     1      31.773 -10.302 -31.519  0.00  0.00    +0.000 A 
ATOM     12  C16 UNL     1      33.160 -10.538 -31.523  0.00  0.00    +0.000 A 
ATOM     13  C17 UNL     1      33.911 -10.395 -32.712  0.00  0.00    +0.000 A 
ATOM     14  C18 UNL     1      33.283 -10.013 -33.912  0.00  0.00    +0.000 A 
ATOM     15  C19 UNL     1      31.910  -9.775 -33.874  0.00  0.00    +0.000 A 
ATOM     16  C20 UNL     1      28.629  -9.105 -35.011  0.00  0.00    +0.000 A 
ATOM     17  N5  UNL     1      28.787  -8.962 -36.362  0.00  0.00    +0.000 NA
ATOM     18  H9  UNL     1      29.088  -9.770 -32.237  0.00  0.00    +0.000 HD
BRANCH  16  19
ATOM     19  C21 UNL     1      27.278  -8.988 -34.421  0.00  0.00    +0.000 A 
ATOM     20  C22 UNL     1      26.372 -10.057 -34.531  0.00  0.00    +0.000 A 
ATOM     21  C23 UNL     1      25.084  -9.951 -33.999  0.00  0.00    +0.000 A 
ATOM     22  C24 UNL     1      24.682  -8.771 -33.367  0.00  0.00    +0.000 A 
ATOM     23  C25 UNL     1      25.565  -7.692 -33.277  0.00  0.00    +0.000 A 
ATOM     24  C26 UNL     1      26.855  -7.795 -33.808  0.00  0.00    +0.000 A 
ENDBRANCH  16  19
ENDBRANCH   2   5
BRANCH   3  25
ATOM     25  N2  UNL     1      31.482  -9.709 -40.368  0.00  0.00    +0.000 N 
ATOM     26  C2  UNL     1      31.338 -10.475 -41.576  0.00  0.00    +0.000 C 
ATOM     27  N3  UNL     1      30.179 -10.859 -42.036  0.00  0.00    +0.000 NA
ATOM     28  H2  UNL     1      32.183  -8.936 -40.356  0.00  0.00    +0.000 HD
BRANCH  27  29
ATOM     29  C3  UNL     1      28.879 -10.499 -41.535  0.00  0.00    +0.000 A 
ATOM     30  C4  UNL     1      28.232 -11.306 -40.582  0.00  0.00    +0.000 A 
ATOM     31  C5  UNL     1      26.976 -10.953 -40.092  0.00  0.00    +0.000 A 
ATOM     32  C6  UNL     1      26.353  -9.788 -40.536  0.00  0.00    +0.000 A 
ATOM     33  C7  UNL     1      27.000  -8.953 -41.450  0.00  0.00    +0.000 A 
ATOM     34  C8  UNL     1      28.272  -9.289 -41.952  0.00  0.00    +0.000 A 
BRANCH  34  35
ATOM     35  C9  UNL     1      28.991  -8.355 -42.902  0.00  0.00    +0.000 C 
ATOM     36  F1  UNL     1      29.653  -9.047 -43.901  0.00  0.00    +0.000 F 
ATOM     37  F2  UNL     1      28.071  -7.505 -43.489  0.00  0.00    +0.000 F 
ATOM     38  F3  UNL     1      29.924  -7.600 -42.214  0.00  0.00    +0.000 F 
ENDBRANCH  34  35
ENDBRANCH  27  29
BRANCH  26  39
ATOM     39  S1  UNL     1      32.807 -10.926 -42.486  0.00  0.00    +0.000 S 
ATOM     40  H3  UNL     1      33.474 -11.325 -41.312  0.00  0.00    +0.000 HD
ENDBRANCH  26  39
ENDBRANCH   3  25
TORSDOF 6
ENDMDL
MODEL 6
REMARK VINA RESULT:    -6.140      3.166      7.115
REMARK INTER + INTRA:         -10.344
REMARK INTER:                  -7.980
REMARK INTRA:                  -2.363
REMARK UNBOUND:                -2.230
REMARK  Name = resultss/4CJN/ligands/lig_419_t2.pdb
REMARK  6 active torsions:
REMARK  status: ('A' for Active; 'I' for Inactive)
REMARK    1  A    between atoms: C1_2  and  C10_18
REMARK    2  A    between atoms: N1_3  and  N2_4
REMARK    3  A    between atoms: C2_5  and  S1_6
REMARK    4  A    between atoms: N3_7  and  C3_8
REMARK    5  A    between atoms: C8_13  and  C9_14
REMARK    6  A    between atoms: C20_29  and  C21_30
REMARK                            x       y       z     vdW  Elec       q    Type
REMARK                         _______ _______ _______ _____ _____    ______ ____
ROOT
ATOM      1  O1  UNL     1      25.346  -5.940 -38.511  0.00  0.00    +0.000 OA
ATOM      2  C1  UNL     1      25.935  -6.286 -39.571  0.00  0.00    +0.000 C 
ATOM      3  N1  UNL     1      27.264  -6.821 -39.502  0.00  0.00    +0.000 N 
ATOM      4  H1  UNL     1      27.930  -6.627 -40.282  0.00  0.00    +0.000 HD
ENDROOT
BRANCH   2   5
ATOM      5  C10 UNL     1      25.241  -6.199 -40.869  0.00  0.00    +0.000 A 
ATOM      6  C11 UNL     1      23.833  -6.121 -40.925  0.00  0.00    +0.000 A 
ATOM      7  C12 UNL     1      23.244  -6.182 -42.181  0.00  0.00    +0.000 A 
ATOM      8  C13 UNL     1      23.989  -6.282 -43.336  0.00  0.00    +0.000 A 
ATOM      9  N4  UNL     1      23.192  -6.422 -44.423  0.00  0.00    +0.000 N 
ATOM     10  C14 UNL     1      21.933  -6.393 -43.935  0.00  0.00    +0.000 A 
ATOM     11  C15 UNL     1      20.748  -6.530 -44.656  0.00  0.00    +0.000 A 
ATOM     12  C16 UNL     1      19.536  -6.508 -43.942  0.00  0.00    +0.000 A 
ATOM     13  C17 UNL     1      19.532  -6.363 -42.536  0.00  0.00    +0.000 A 
ATOM     14  C18 UNL     1      20.742  -6.235 -41.828  0.00  0.00    +0.000 A 
ATOM     15  C19 UNL     1      21.925  -6.248 -42.564  0.00  0.00    +0.000 A 
ATOM     16  C20 UNL     1      25.389  -6.313 -43.271  0.00  0.00    +0.000 A 
ATOM     17  N5  UNL     1      25.964  -6.294 -42.030  0.00  0.00    +0.000 NA
ATOM     18  H9  UNL     1      23.473  -6.576 -45.417  0.00  0.00    +0.000 HD
BRANCH  16  19
ATOM     19  C21 UNL     1      26.252  -6.380 -44.470  0.00  0.00    +0.000 A 
ATOM     20  C22 UNL     1      25.782  -7.009 -45.635  0.00  0.00    +0.000 A 
ATOM     21  C23 UNL     1      26.596  -7.099 -46.768  0.00  0.00    +0.000 A 
ATOM     22  C24 UNL     1      27.893  -6.578 -46.742  0.00  0.00    +0.000 A 
ATOM     23  C25 UNL     1      28.380  -5.976 -45.580  0.00  0.00    +0.000 A 
ATOM     24  C26 UNL     1      27.568  -5.883 -44.445  0.00  0.00    +0.000 A 
ENDBRANCH  16  19
ENDBRANCH   2   5
BRANCH   3  25
ATOM     25  N2  UNL     1      27.714  -7.581 -38.407  0.00  0.00    +0.000 N 
ATOM     26  C2  UNL     1      27.404  -8.974 -38.231  0.00  0.00    +0.000 C 
ATOM     27  N3  UNL     1      27.447  -9.837 -39.209  0.00  0.00    +0.000 NA
ATOM     28  H2  UNL     1      28.268  -7.103 -37.664  0.00  0.00    +0.000 HD
BRANCH  27  29
ATOM     29  C3  UNL     1      27.920  -9.613 -40.549  0.00  0.00    +0.000 A 
ATOM     30  C4  UNL     1      29.290  -9.416 -40.800  0.00  0.00    +0.000 A 
ATOM     31  C5  UNL     1      29.749  -9.204 -42.099  0.00  0.00    +0.000 A 
ATOM     32  C6  UNL     1      28.851  -9.197 -43.165  0.00  0.00    +0.000 A 
ATOM     33  C7  UNL     1      27.494  -9.433 -42.940  0.00  0.00    +0.000 A 
ATOM     34  C8  UNL     1      27.011  -9.654 -41.634  0.00  0.00    +0.000 A 
BRANCH  34  35
ATOM     35  C9  UNL     1      25.548  -9.963 -41.401  0.00  0.00    +0.000 C 
ATOM     36  F1  UNL     1      25.037  -9.248 -40.332  0.00  0.00    +0.000 F 
ATOM     37  F2  UNL     1      24.826  -9.636 -42.536  0.00  0.00    +0.000 F 
ATOM     38  F3  UNL     1      25.380 -11.309 -41.136  0.00  0.00    +0.000 F 
ENDBRANCH  34  35
ENDBRANCH  27  29
BRANCH  26  39
ATOM     39  S1  UNL     1      26.934  -9.550 -36.607  0.00  0.00    +0.000 S 
ATOM     40  H3  UNL     1      25.637  -9.882 -37.044  0.00  0.00    +0.000 HD
ENDBRANCH  26  39
ENDBRANCH   3  25
TORSDOF 6
ENDMDL
MODEL 7
REMARK VINA RESULT:    -6.084      4.659      7.405
REMARK INTER + INTRA:         -10.270
REMARK INTER:                  -7.678
REMARK INTRA:                  -2.592
REMARK UNBOUND:                -2.230
REMARK  Name = resultss/4CJN/ligands/lig_419_t2.pdb
REMARK  6 active torsions:
REMARK  status: ('A' for Active; 'I' for Inactive)
REMARK    1  A    between atoms: C1_2  and  C10_18
REMARK    2  A    between atoms: N1_3  and  N2_4
REMARK    3  A    between atoms: C2_5  and  S1_6
REMARK    4  A    between atoms: N3_7  and  C3_8
REMARK    5  A    between atoms: C8_13  and  C9_14
REMARK    6  A    between atoms: C20_29  and  C21_30
REMARK                            x       y       z     vdW  Elec       q    Type
REMARK                         _______ _______ _______ _____ _____    ______ ____
ROOT
ATOM      1  O1  UNL     1      24.869  -5.953 -38.407  0.00  0.00    +0.000 OA
ATOM      2  C1  UNL     1      25.746  -6.247 -37.551  0.00  0.00    +0.000 C 
ATOM      3  N1  UNL     1      25.516  -5.949 -36.167  0.00  0.00    +0.000 N 
ATOM      4  H1  UNL     1      26.326  -5.688 -35.562  0.00  0.00    +0.000 HD
ENDROOT
BRANCH   2   5
ATOM      5  C10 UNL     1      26.977  -6.949 -37.959  0.00  0.00    +0.000 A 
ATOM      6  C11 UNL     1      27.126  -7.425 -39.279  0.00  0.00    +0.000 A 
ATOM      7  C12 UNL     1      28.248  -8.196 -39.552  0.00  0.00    +0.000 A 
ATOM      8  C13 UNL     1      29.202  -8.467 -38.595  0.00  0.00    +0.000 A 
ATOM      9  N4  UNL     1      30.148  -9.313 -39.071  0.00  0.00    +0.000 N 
ATOM     10  C14 UNL     1      29.782  -9.558 -40.348  0.00  0.00    +0.000 A 
ATOM     11  C15 UNL     1      30.420 -10.397 -41.260  0.00  0.00    +0.000 A 
ATOM     12  C16 UNL     1      29.846 -10.540 -42.537  0.00  0.00    +0.000 A 
ATOM     13  C17 UNL     1      28.655  -9.857 -42.870  0.00  0.00    +0.000 A 
ATOM     14  C18 UNL     1      28.024  -9.021 -41.931  0.00  0.00    +0.000 A 
ATOM     15  C19 UNL     1      28.622  -8.890 -40.679  0.00  0.00    +0.000 A 
ATOM     16  C20 UNL     1      29.066  -7.951 -37.299  0.00  0.00    +0.000 A 
ATOM     17  N5  UNL     1      27.939  -7.226 -37.023  0.00  0.00    +0.000 NA
ATOM     18  H9  UNL     1      30.954  -9.736 -38.561  0.00  0.00    +0.000 HD
BRANCH  16  19
ATOM     19  C21 UNL     1      30.068  -8.169 -36.233  0.00  0.00    +0.000 A 
ATOM     20  C22 UNL     1      30.310  -9.469 -35.756  0.00  0.00    +0.000 A 
ATOM     21  C23 UNL     1      31.238  -9.686 -34.734  0.00  0.00    +0.000 A 
ATOM     22  C24 UNL     1      31.920  -8.606 -34.166  0.00  0.00    +0.000 A 
ATOM     23  C25 UNL     1      31.667  -7.307 -34.613  0.00  0.00    +0.000 A 
ATOM     24  C26 UNL     1      30.740  -7.087 -35.637  0.00  0.00    +0.000 A 
ENDBRANCH  16  19
ENDBRANCH   2   5
BRANCH   3  25
ATOM     25  N2  UNL     1      24.229  -5.971 -35.596  0.00  0.00    +0.000 N 
ATOM     26  C2  UNL     1      23.696  -7.107 -34.895  0.00  0.00    +0.000 C 
ATOM     27  N3  UNL     1      24.394  -7.802 -34.040  0.00  0.00    +0.000 NA
ATOM     28  H2  UNL     1      23.616  -5.136 -35.720  0.00  0.00    +0.000 HD
BRANCH  27  29
ATOM     29  C3  UNL     1      25.716  -7.509 -33.551  0.00  0.00    +0.000 A 
ATOM     30  C4  UNL     1      25.956  -6.346 -32.798  0.00  0.00    +0.000 A 
ATOM     31  C5  UNL     1      27.235  -6.065 -32.319  0.00  0.00    +0.000 A 
ATOM     32  C6  UNL     1      28.287  -6.944 -32.574  0.00  0.00    +0.000 A 
ATOM     33  C7  UNL     1      28.056  -8.124 -33.283  0.00  0.00    +0.000 A 
ATOM     34  C8  UNL     1      26.770  -8.429 -33.770  0.00  0.00    +0.000 A 
BRANCH  34  35
ATOM     35  C9  UNL     1      26.514  -9.735 -34.492  0.00  0.00    +0.000 C 
ATOM     36  F1  UNL     1      27.619 -10.568 -34.450  0.00  0.00    +0.000 F 
ATOM     37  F2  UNL     1      25.448 -10.384 -33.895  0.00  0.00    +0.000 F 
ATOM     38  F3  UNL     1      26.208  -9.496 -35.819  0.00  0.00    +0.000 F 
ENDBRANCH  34  35
ENDBRANCH  27  29
BRANCH  26  39
ATOM     39  S1  UNL     1      22.006  -7.592 -35.208  0.00  0.00    +0.000 S 
ATOM     40  H3  UNL     1      22.219  -8.873 -34.665  0.00  0.00    +0.000 HD
ENDBRANCH  26  39
ENDBRANCH   3  25
TORSDOF 6
ENDMDL
MODEL 8
REMARK VINA RESULT:    -6.001      4.068      7.921
REMARK INTER + INTRA:         -10.161
REMARK INTER:                  -8.241
REMARK INTRA:                  -1.919
REMARK UNBOUND:                -2.230
REMARK  Name = resultss/4CJN/ligands/lig_419_t2.pdb
REMARK  6 active torsions:
REMARK  status: ('A' for Active; 'I' for Inactive)
REMARK    1  A    between atoms: C1_2  and  C10_18
REMARK    2  A    between atoms: N1_3  and  N2_4
REMARK    3  A    between atoms: C2_5  and  S1_6
REMARK    4  A    between atoms: N3_7  and  C3_8
REMARK    5  A    between atoms: C8_13  and  C9_14
REMARK    6  A    between atoms: C20_29  and  C21_30
REMARK                            x       y       z     vdW  Elec       q    Type
REMARK                         _______ _______ _______ _____ _____    ______ ____
ROOT
ATOM      1  O1  UNL     1      26.780 -11.269 -39.379  0.00  0.00    +0.000 OA
ATOM      2  C1  UNL     1      27.854 -10.775 -38.942  0.00  0.00    +0.000 C 
ATOM      3  N1  UNL     1      29.012 -10.737 -39.786  0.00  0.00    +0.000 N 
ATOM      4  H1  UNL     1      29.958 -10.842 -39.356  0.00  0.00    +0.000 HD
ENDROOT
BRANCH   2   5
ATOM      5  C10 UNL     1      27.905 -10.184 -37.592  0.00  0.00    +0.000 A 
ATOM      6  C11 UNL     1      29.137 -10.029 -36.923  0.00  0.00    +0.000 A 
ATOM      7  C12 UNL     1      29.093  -9.596 -35.605  0.00  0.00    +0.000 A 
ATOM      8  C13 UNL     1      27.907  -9.294 -34.972  0.00  0.00    +0.000 A 
ATOM      9  N4  UNL     1      28.111  -8.986 -33.668  0.00  0.00    +0.000 N 
ATOM     10  C14 UNL     1      29.447  -9.086 -33.494  0.00  0.00    +0.000 A 
ATOM     11  C15 UNL     1      30.158  -8.895 -32.310  0.00  0.00    +0.000 A 
ATOM     12  C16 UNL     1      31.552  -9.087 -32.340  0.00  0.00    +0.000 A 
ATOM     13  C17 UNL     1      32.199  -9.472 -33.536  0.00  0.00    +0.000 A 
ATOM     14  C18 UNL     1      31.459  -9.668 -34.717  0.00  0.00    +0.000 A 
ATOM     15  C19 UNL     1      30.083  -9.458 -34.659  0.00  0.00    +0.000 A 
ATOM     16  C20 UNL     1      26.692  -9.407 -35.662  0.00  0.00    +0.000 A 
ATOM     17  N5  UNL     1      26.736  -9.873 -36.947  0.00  0.00    +0.000 NA
ATOM     18  H9  UNL     1      27.401  -8.774 -32.933  0.00  0.00    +0.000 HD
BRANCH  16  19
ATOM     19  C21 UNL     1      25.386  -9.062 -35.058  0.00  0.00    +0.000 A 
ATOM     20  C22 UNL     1      24.504  -8.208 -35.742  0.00  0.00    +0.000 A 
ATOM     21  C23 UNL     1      23.277  -7.855 -35.173  0.00  0.00    +0.000 A 
ATOM     22  C24 UNL     1      22.927  -8.338 -33.909  0.00  0.00    +0.000 A 
ATOM     23  C25 UNL     1      23.808  -9.165 -33.209  0.00  0.00    +0.000 A 
ATOM     24  C26 UNL     1      25.036  -9.520 -33.775  0.00  0.00    +0.000 A 
ENDBRANCH  16  19
ENDBRANCH   2   5
BRANCH   3  25
ATOM     25  N2  UNL     1      28.921 -10.586 -41.183  0.00  0.00    +0.000 N 
ATOM     26  C2  UNL     1      29.049  -9.320 -41.851  0.00  0.00    +0.000 C 
ATOM     27  N3  UNL     1      29.960  -8.441 -41.533  0.00  0.00    +0.000 NA
ATOM     28  H2  UNL     1      28.712 -11.430 -41.761  0.00  0.00    +0.000 HD
BRANCH  27  29
ATOM     29  C3  UNL     1      31.042  -8.606 -40.600  0.00  0.00    +0.000 A 
ATOM     30  C4  UNL     1      32.134  -9.437 -40.912  0.00  0.00    +0.000 A 
ATOM     31  C5  UNL     1      33.186  -9.592 -40.011  0.00  0.00    +0.000 A 
ATOM     32  C6  UNL     1      33.169  -8.915 -38.792  0.00  0.00    +0.000 A 
ATOM     33  C7  UNL     1      32.114  -8.054 -38.484  0.00  0.00    +0.000 A 
ATOM     34  C8  UNL     1      31.045  -7.879 -39.385  0.00  0.00    +0.000 A 
BRANCH  34  35
ATOM     35  C9  UNL     1      29.931  -6.903 -39.069  0.00  0.00    +0.000 C 
ATOM     36  F1  UNL     1      30.076  -6.349 -37.810  0.00  0.00    +0.000 F 
ATOM     37  F2  UNL     1      29.939  -5.884 -40.004  0.00  0.00    +0.000 F 
ATOM     38  F3  UNL     1      28.707  -7.545 -39.117  0.00  0.00    +0.000 F 
ENDBRANCH  34  35
ENDBRANCH  27  29
BRANCH  26  39
ATOM     39  S1  UNL     1      27.912  -8.928 -43.171  0.00  0.00    +0.000 S 
ATOM     40  H3  UNL     1      27.128 -10.066 -42.903  0.00  0.00    +0.000 HD
ENDBRANCH  26  39
ENDBRANCH   3  25
TORSDOF 6
ENDMDL
MODEL 9
REMARK VINA RESULT:    -5.811      2.299      4.975
REMARK INTER + INTRA:          -9.909
REMARK INTER:                  -7.541
REMARK INTRA:                  -2.368
REMARK UNBOUND:                -2.230
REMARK  Name = resultss/4CJN/ligands/lig_419_t2.pdb
REMARK  6 active torsions:
REMARK  status: ('A' for Active; 'I' for Inactive)
REMARK    1  A    between atoms: C1_2  and  C10_18
REMARK    2  A    between atoms: N1_3  and  N2_4
REMARK    3  A    between atoms: C2_5  and  S1_6
REMARK    4  A    between atoms: N3_7  and  C3_8
REMARK    5  A    between atoms: C8_13  and  C9_14
REMARK    6  A    between atoms: C20_29  and  C21_30
REMARK                            x       y       z     vdW  Elec       q    Type
REMARK                         _______ _______ _______ _____ _____    ______ ____
ROOT
ATOM      1  O1  UNL     1      27.384  -7.933 -43.694  0.00  0.00    +0.000 OA
ATOM      2  C1  UNL     1      27.863  -7.866 -42.529  0.00  0.00    +0.000 C 
ATOM      3  N1  UNL     1      27.094  -7.262 -41.480  0.00  0.00    +0.000 N 
ATOM      4  H1  UNL     1      27.590  -6.738 -40.724  0.00  0.00    +0.000 HD
ENDROOT
BRANCH   2   5
ATOM      5  C10 UNL     1      29.179  -8.459 -42.232  0.00  0.00    +0.000 A 
ATOM      6  C11 UNL     1      29.742  -9.423 -43.094  0.00  0.00    +0.000 A 
ATOM      7  C12 UNL     1      30.916 -10.038 -42.678  0.00  0.00    +0.000 A 
ATOM      8  C13 UNL     1      31.536  -9.708 -41.492  0.00  0.00    +0.000 A 
ATOM      9  N4  UNL     1      32.607 -10.506 -41.260  0.00  0.00    +0.000 N 
ATOM     10  C14 UNL     1      32.660 -11.333 -42.327  0.00  0.00    +0.000 A 
ATOM     11  C15 UNL     1      33.572 -12.363 -42.547  0.00  0.00    +0.000 A 
ATOM     12  C16 UNL     1      33.425 -13.134 -43.715  0.00  0.00    +0.000 A 
ATOM     13  C17 UNL     1      32.375 -12.870 -44.624  0.00  0.00    +0.000 A 
ATOM     14  C18 UNL     1      31.461 -11.830 -44.376  0.00  0.00    +0.000 A 
ATOM     15  C19 UNL     1      31.639 -11.076 -43.217  0.00  0.00    +0.000 A 
ATOM     16  C20 UNL     1      30.991  -8.716 -40.665  0.00  0.00    +0.000 A 
ATOM     17  N5  UNL     1      29.813  -8.142 -41.058  0.00  0.00    +0.000 NA
ATOM     18  H9  UNL     1      33.228 -10.528 -40.422  0.00  0.00    +0.000 HD
BRANCH  16  19
ATOM     19  C21 UNL     1      31.622  -8.284 -39.398  0.00  0.00    +0.000 A 
ATOM     20  C22 UNL     1      31.939  -6.929 -39.201  0.00  0.00    +0.000 A 
ATOM     21  C23 UNL     1      32.556  -6.512 -38.019  0.00  0.00    +0.000 A 
ATOM     22  C24 UNL     1      32.881  -7.445 -37.031  0.00  0.00    +0.000 A 
ATOM     23  C25 UNL     1      32.596  -8.798 -37.229  0.00  0.00    +0.000 A 
ATOM     24  C26 UNL     1      31.978  -9.220 -38.410  0.00  0.00    +0.000 A 
ENDBRANCH  16  19
ENDBRANCH   2   5
BRANCH   3  25
ATOM     25  N2  UNL     1      25.688  -7.327 -41.443  0.00  0.00    +0.000 N 
ATOM     26  C2  UNL     1      24.959  -8.551 -41.247  0.00  0.00    +0.000 C 
ATOM     27  N3  UNL     1      25.306  -9.447 -40.364  0.00  0.00    +0.000 NA
ATOM     28  H2  UNL     1      25.146  -6.451 -41.603  0.00  0.00    +0.000 HD
BRANCH  27  29
ATOM     29  C3  UNL     1      26.342  -9.338 -39.372  0.00  0.00    +0.000 A 
ATOM     30  C4  UNL     1      26.225  -8.417 -38.316  0.00  0.00    +0.000 A 
ATOM     31  C5  UNL     1      27.226  -8.315 -37.351  0.00  0.00    +0.000 A 
ATOM     32  C6  UNL     1      28.350  -9.137 -37.420  0.00  0.00    +0.000 A 
ATOM     33  C7  UNL     1      28.462 -10.087 -38.437  0.00  0.00    +0.000 A 
ATOM     34  C8  UNL     1      27.458 -10.208 -39.418  0.00  0.00    +0.000 A 
BRANCH  34  35
ATOM     35  C9  UNL     1      27.559 -11.275 -40.488  0.00  0.00    +0.000 C 
ATOM     36  F1  UNL     1      26.909 -12.439 -40.114  0.00  0.00    +0.000 F 
ATOM     37  F2  UNL     1      26.986 -10.806 -41.656  0.00  0.00    +0.000 F 
ATOM     38  F3  UNL     1      28.884 -11.584 -40.731  0.00  0.00    +0.000 F 
ENDBRANCH  34  35
ENDBRANCH  27  29
BRANCH  26  39
ATOM     39  S1  UNL     1      23.520  -8.863 -42.257  0.00  0.00    +0.000 S 
ATOM     40  H3  UNL     1      24.221  -9.781 -43.063  0.00  0.00    +0.000 HD
ENDBRANCH  26  39
ENDBRANCH   3  25
TORSDOF 6
ENDMDL
