MODEL 1
REMARK VINA RESULT:    -6.824      0.000      0.000
REMARK INTER + INTRA:         -10.272
REMARK INTER:                  -9.616
REMARK INTRA:                  -0.655
REMARK UNBOUND:                -0.655
REMARK  Name = resultss/4CJN/ligands/lig_216_t1.pdb
REMARK  13 active torsions:
REMARK  status: ('A' for Active; 'I' for Inactive)
REMARK    1  A    between atoms: C1_1  and  C2_2
REMARK    2  A    between atoms: C2_2  and  C3_3
REMARK    3  A    between atoms: C4_4  and  C5_5
REMARK    4  A    between atoms: C5_5  and  C6_6
REMARK    5  A    between atoms: C8_8  and  C9_9
REMARK    6  A    between atoms: C12_13  and  O2_14
REMARK    7  A    between atoms: C13_15  and  C14_16
REMARK    8  A    between atoms: C14_16  and  C15_17
REMARK    9  A    between atoms: C16_18  and  C17_19
REMARK   10  A    between atoms: C16_18  and  C18_20
REMARK   11  A    between atoms: C19_21  and  O3_22
REMARK   12  A    between atoms: C24_29  and  O6_30
REMARK   13  A    between atoms: C25_31  and  O7_32
REMARK                            x       y       z     vdW  Elec       q    Type
REMARK                         _______ _______ _______ _____ _____    ______ ____
ROOT
ATOM      1  C9  UNL     1      27.367  -9.807 -37.256  0.00  0.00    +0.000 C 
ATOM      2  O1  UNL     1      28.728  -9.631 -37.657  0.00  0.00    +0.000 OA
ATOM      3  C10 UNL     1      29.146  -9.697 -38.992  0.00  0.00    +0.000 A 
ATOM      4  C11 UNL     1      30.495  -9.912 -39.266  0.00  0.00    +0.000 A 
ATOM      5  C12 UNL     1      30.951  -9.990 -40.584  0.00  0.00    +0.000 A 
ATOM      6  C13 UNL     1      30.036  -9.894 -41.651  0.00  0.00    +0.000 A 
ATOM      7  C19 UNL     1      28.666  -9.669 -41.384  0.00  0.00    +0.000 A 
ATOM      8  C20 UNL     1      28.225  -9.518 -40.042  0.00  0.00    +0.000 A 
ATOM      9  C21 UNL     1      26.855  -9.085 -39.665  0.00  0.00    +0.000 C 
ATOM     10  O4  UNL     1      26.084  -8.543 -40.500  0.00  0.00    +0.000 OA
ATOM     11  C22 UNL     1      26.427  -9.205 -38.265  0.00  0.00    +0.000 C 
ATOM     12  O5  UNL     1      25.257  -8.871 -37.932  0.00  0.00    +0.000 OA
ENDROOT
BRANCH   1  15
ATOM     13  C6  UNL     1      25.746  -8.771 -33.948  0.00  0.00    +0.000 A 
ATOM     14  C7  UNL     1      25.945  -9.338 -35.219  0.00  0.00    +0.000 A 
ATOM     15  C8  UNL     1      27.170  -9.199 -35.887  0.00  0.00    +0.000 A 
ATOM     16  C23 UNL     1      28.201  -8.465 -35.283  0.00  0.00    +0.000 A 
ATOM     17  C24 UNL     1      28.018  -7.878 -34.029  0.00  0.00    +0.000 A 
ATOM     18  C25 UNL     1      26.791  -8.020 -33.355  0.00  0.00    +0.000 A 
BRANCH  17  19
ATOM     19  O6  UNL     1      29.067  -7.152 -33.469  0.00  0.00    +0.000 OA
ATOM     20  H25 UNL     1      29.389  -7.308 -32.522  0.00  0.00    +0.000 HD
ENDBRANCH  17  19
BRANCH  18  21
ATOM     21  O7  UNL     1      26.636  -7.399 -32.113  0.00  0.00    +0.000 OA
ATOM     22  H26 UNL     1      25.770  -6.977 -31.803  0.00  0.00    +0.000 HD
ENDBRANCH  18  21
BRANCH  13  23
ATOM     23  C5  UNL     1      24.409  -8.951 -33.271  0.00  0.00    +0.000 C 
BRANCH  23  27
ATOM     24  C1  UNL     1      23.309  -6.199 -33.241  0.00  0.00    +0.000 C 
ATOM     25  C2  UNL     1      22.775  -7.263 -34.169  0.00  0.00    +0.000 C 
ATOM     26  C3  UNL     1      21.646  -6.935 -35.113  0.00  0.00    +0.000 C 
ATOM     27  C4  UNL     1      23.281  -8.513 -34.175  0.00  0.00    +0.000 C 
ENDBRANCH  23  27
ENDBRANCH  13  23
ENDBRANCH   1  15
BRANCH   5  28
ATOM     28  O2  UNL     1      32.311 -10.171 -40.836  0.00  0.00    +0.000 OA
ATOM     29  H13 UNL     1      32.647 -10.508 -41.730  0.00  0.00    +0.000 HD
ENDBRANCH   5  28
BRANCH   7  30
ATOM     30  O3  UNL     1      27.780  -9.631 -42.466  0.00  0.00    +0.000 OA
ATOM     31  H23 UNL     1      27.814 -10.274 -43.244  0.00  0.00    +0.000 HD
ENDBRANCH   7  30
BRANCH   6  32
ATOM     32  C14 UNL     1      30.525  -9.977 -43.078  0.00  0.00    +0.000 C 
BRANCH  32  33
ATOM     33  C15 UNL     1      30.931 -11.398 -43.393  0.00  0.00    +0.000 C 
ATOM     34  C16 UNL     1      32.051 -11.750 -44.058  0.00  0.00    +0.000 C 
ATOM     35  C17 UNL     1      32.301 -13.214 -44.316  0.00  0.00    +0.000 C 
ATOM     36  C18 UNL     1      33.051 -10.729 -44.545  0.00  0.00    +0.000 C 
ENDBRANCH  32  33
ENDBRANCH   6  32
TORSDOF 9
ENDMDL
MODEL 2
REMARK VINA RESULT:    -6.530      2.005      3.945
REMARK INTER + INTRA:          -9.857
REMARK INTER:                  -9.565
REMARK INTRA:                  -0.292
REMARK UNBOUND:                -0.655
REMARK  Name = resultss/4CJN/ligands/lig_216_t1.pdb
REMARK  13 active torsions:
REMARK  status: ('A' for Active; 'I' for Inactive)
REMARK    1  A    between atoms: C1_1  and  C2_2
REMARK    2  A    between atoms: C2_2  and  C3_3
REMARK    3  A    between atoms: C4_4  and  C5_5
REMARK    4  A    between atoms: C5_5  and  C6_6
REMARK    5  A    between atoms: C8_8  and  C9_9
REMARK    6  A    between atoms: C12_13  and  O2_14
REMARK    7  A    between atoms: C13_15  and  C14_16
REMARK    8  A    between atoms: C14_16  and  C15_17
REMARK    9  A    between atoms: C16_18  and  C17_19
REMARK   10  A    between atoms: C16_18  and  C18_20
REMARK   11  A    between atoms: C19_21  and  O3_22
REMARK   12  A    between atoms: C24_29  and  O6_30
REMARK   13  A    between atoms: C25_31  and  O7_32
REMARK                            x       y       z     vdW  Elec       q    Type
REMARK                         _______ _______ _______ _____ _____    ______ ____
ROOT
ATOM      1  C9  UNL     1      27.966  -9.989 -36.619  0.00  0.00    +0.000 C 
ATOM      2  O1  UNL     1      29.244  -9.698 -37.191  0.00  0.00    +0.000 OA
ATOM      3  C10 UNL     1      29.495  -9.752 -38.568  0.00  0.00    +0.000 A 
ATOM      4  C11 UNL     1      30.812  -9.849 -39.009  0.00  0.00    +0.000 A 
ATOM      5  C12 UNL     1      31.104  -9.912 -40.373  0.00  0.00    +0.000 A 
ATOM      6  C13 UNL     1      30.057  -9.922 -41.316  0.00  0.00    +0.000 A 
ATOM      7  C19 UNL     1      28.717  -9.816 -40.879  0.00  0.00    +0.000 A 
ATOM      8  C20 UNL     1      28.436  -9.679 -39.494  0.00  0.00    +0.000 A 
ATOM      9  C21 UNL     1      27.091  -9.365 -38.950  0.00  0.00    +0.000 C 
ATOM     10  O4  UNL     1      26.173  -8.911 -39.684  0.00  0.00    +0.000 OA
ATOM     11  C22 UNL     1      26.854  -9.495 -37.505  0.00  0.00    +0.000 C 
ATOM     12  O5  UNL     1      25.710  -9.262 -37.030  0.00  0.00    +0.000 OA
ENDROOT
BRANCH   1  15
ATOM     13  C6  UNL     1      28.996  -8.580 -33.214  0.00  0.00    +0.000 A 
ATOM     14  C7  UNL     1      29.055  -9.145 -34.500  0.00  0.00    +0.000 A 
ATOM     15  C8  UNL     1      27.888  -9.374 -35.241  0.00  0.00    +0.000 A 
ATOM     16  C23 UNL     1      26.644  -9.053 -34.678  0.00  0.00    +0.000 A 
ATOM     17  C24 UNL     1      26.562  -8.508 -33.395  0.00  0.00    +0.000 A 
ATOM     18  C25 UNL     1      27.733  -8.273 -32.650  0.00  0.00    +0.000 A 
BRANCH  17  19
ATOM     19  O6  UNL     1      25.305  -8.210 -32.872  0.00  0.00    +0.000 OA
ATOM     20  H25 UNL     1      25.181  -7.842 -31.938  0.00  0.00    +0.000 HD
ENDBRANCH  17  19
BRANCH  18  21
ATOM     21  O7  UNL     1      27.611  -7.749 -31.361  0.00  0.00    +0.000 OA
ATOM     22  H26 UNL     1      26.869  -7.122 -31.080  0.00  0.00    +0.000 HD
ENDBRANCH  18  21
BRANCH  13  23
ATOM     23  C5  UNL     1      30.283  -8.352 -32.458  0.00  0.00    +0.000 C 
BRANCH  23  27
ATOM     24  C1  UNL     1      32.744  -9.634 -33.501  0.00  0.00    +0.000 C 
ATOM     25  C2  UNL     1      31.944 -10.240 -32.374  0.00  0.00    +0.000 C 
ATOM     26  C3  UNL     1      32.392 -11.537 -31.751  0.00  0.00    +0.000 C 
ATOM     27  C4  UNL     1      30.825  -9.650 -31.906  0.00  0.00    +0.000 C 
ENDBRANCH  23  27
ENDBRANCH  13  23
ENDBRANCH   1  15
BRANCH   5  28
ATOM     28  O2  UNL     1      32.433  -9.974 -40.795  0.00  0.00    +0.000 OA
ATOM     29  H13 UNL     1      32.855 -10.842 -41.102  0.00  0.00    +0.000 HD
ENDBRANCH   5  28
BRANCH   7  30
ATOM     30  O3  UNL     1      27.703  -9.880 -41.840  0.00  0.00    +0.000 OA
ATOM     31  H23 UNL     1      27.091 -10.675 -41.962  0.00  0.00    +0.000 HD
ENDBRANCH   7  30
BRANCH   6  32
ATOM     32  C14 UNL     1      30.369  -9.989 -42.794  0.00  0.00    +0.000 C 
BRANCH  32  33
ATOM     33  C15 UNL     1      30.773 -11.396 -43.162  0.00  0.00    +0.000 C 
ATOM     34  C16 UNL     1      31.896 -11.724 -43.837  0.00  0.00    +0.000 C 
ATOM     35  C17 UNL     1      32.144 -13.177 -44.151  0.00  0.00    +0.000 C 
ATOM     36  C18 UNL     1      32.900 -10.687 -44.278  0.00  0.00    +0.000 C 
ENDBRANCH  32  33
ENDBRANCH   6  32
TORSDOF 9
ENDMDL
MODEL 3
REMARK VINA RESULT:    -6.468      3.378      8.889
REMARK INTER + INTRA:          -9.770
REMARK INTER:                  -8.988
REMARK INTRA:                  -0.782
REMARK UNBOUND:                -0.655
REMARK  Name = resultss/4CJN/ligands/lig_216_t1.pdb
REMARK  13 active torsions:
REMARK  status: ('A' for Active; 'I' for Inactive)
REMARK    1  A    between atoms: C1_1  and  C2_2
REMARK    2  A    between atoms: C2_2  and  C3_3
REMARK    3  A    between atoms: C4_4  and  C5_5
REMARK    4  A    between atoms: C5_5  and  C6_6
REMARK    5  A    between atoms: C8_8  and  C9_9
REMARK    6  A    between atoms: C12_13  and  O2_14
REMARK    7  A    between atoms: C13_15  and  C14_16
REMARK    8  A    between atoms: C14_16  and  C15_17
REMARK    9  A    between atoms: C16_18  and  C17_19
REMARK   10  A    between atoms: C16_18  and  C18_20
REMARK   11  A    between atoms: C19_21  and  O3_22
REMARK   12  A    between atoms: C24_29  and  O6_30
REMARK   13  A    between atoms: C25_31  and  O7_32
REMARK                            x       y       z     vdW  Elec       q    Type
REMARK                         _______ _______ _______ _____ _____    ______ ____
ROOT
ATOM      1  C9  UNL     1      28.773  -8.543 -37.759  0.00  0.00    +0.000 C 
ATOM      2  O1  UNL     1      30.103  -8.962 -37.445  0.00  0.00    +0.000 OA
ATOM      3  C10 UNL     1      30.538  -9.207 -36.136  0.00  0.00    +0.000 A 
ATOM      4  C11 UNL     1      31.906  -9.219 -35.872  0.00  0.00    +0.000 A 
ATOM      5  C12 UNL     1      32.380  -9.453 -34.579  0.00  0.00    +0.000 A 
ATOM      6  C13 UNL     1      31.470  -9.636 -33.520  0.00  0.00    +0.000 A 
ATOM      7  C19 UNL     1      30.080  -9.632 -33.779  0.00  0.00    +0.000 A 
ATOM      8  C20 UNL     1      29.611  -9.467 -35.109  0.00  0.00    +0.000 A 
ATOM      9  C21 UNL     1      28.194  -9.644 -35.514  0.00  0.00    +0.000 C 
ATOM     10  O4  UNL     1      27.366 -10.235 -34.772  0.00  0.00    +0.000 OA
ATOM     11  C22 UNL     1      27.772  -9.205 -36.852  0.00  0.00    +0.000 C 
ATOM     12  O5  UNL     1      26.565  -9.319 -37.202  0.00  0.00    +0.000 OA
ENDROOT
BRANCH   1  15
ATOM     13  C6  UNL     1      28.950 -10.141 -41.231  0.00  0.00    +0.000 A 
ATOM     14  C7  UNL     1      29.201  -9.853 -39.878  0.00  0.00    +0.000 A 
ATOM     15  C8  UNL     1      28.487  -8.847 -39.211  0.00  0.00    +0.000 A 
ATOM     16  C23 UNL     1      27.525  -8.108 -39.914  0.00  0.00    +0.000 A 
ATOM     17  C24 UNL     1      27.274  -8.366 -41.263  0.00  0.00    +0.000 A 
ATOM     18  C25 UNL     1      27.985  -9.377 -41.934  0.00  0.00    +0.000 A 
BRANCH  17  19
ATOM     19  O6  UNL     1      26.313  -7.602 -41.924  0.00  0.00    +0.000 OA
ATOM     20  H25 UNL     1      26.545  -6.995 -42.701  0.00  0.00    +0.000 HD
ENDBRANCH  17  19
BRANCH  18  21
ATOM     21  O7  UNL     1      27.724  -9.592 -43.290  0.00  0.00    +0.000 OA
ATOM     22  H26 UNL     1      28.445  -9.771 -43.977  0.00  0.00    +0.000 HD
ENDBRANCH  18  21
BRANCH  13  23
ATOM     23  C5  UNL     1      29.745 -11.235 -41.903  0.00  0.00    +0.000 C 
BRANCH  23  27
ATOM     24  C1  UNL     1      31.673 -12.921 -43.395  0.00  0.00    +0.000 C 
ATOM     25  C2  UNL     1      31.686 -11.415 -43.493  0.00  0.00    +0.000 C 
ATOM     26  C3  UNL     1      32.705 -10.730 -44.368  0.00  0.00    +0.000 C 
ATOM     27  C4  UNL     1      30.805 -10.655 -42.810  0.00  0.00    +0.000 C 
ENDBRANCH  23  27
ENDBRANCH  13  23
ENDBRANCH   1  15
BRANCH   5  28
ATOM     28  O2  UNL     1      33.755  -9.496 -34.344  0.00  0.00    +0.000 OA
ATOM     29  H13 UNL     1      34.381  -8.792 -34.715  0.00  0.00    +0.000 HD
ENDBRANCH   5  28
BRANCH   7  30
ATOM     30  O3  UNL     1      29.207  -9.766 -32.694  0.00  0.00    +0.000 OA
ATOM     31  H23 UNL     1      29.015 -10.642 -32.230  0.00  0.00    +0.000 HD
ENDBRANCH   7  30
BRANCH   6  32
ATOM     32  C14 UNL     1      31.978  -9.891 -32.119  0.00  0.00    +0.000 C 
BRANCH  32  33
ATOM     33  C15 UNL     1      31.896 -11.367 -31.811  0.00  0.00    +0.000 C 
ATOM     34  C16 UNL     1      32.955 -12.157 -31.532  0.00  0.00    +0.000 C 
ATOM     35  C17 UNL     1      32.708 -13.620 -31.271  0.00  0.00    +0.000 C 
ATOM     36  C18 UNL     1      34.365 -11.619 -31.474  0.00  0.00    +0.000 C 
ENDBRANCH  32  33
ENDBRANCH   6  32
TORSDOF 9
ENDMDL
MODEL 4
REMARK VINA RESULT:    -6.273      1.988      8.880
REMARK INTER + INTRA:          -9.495
REMARK INTER:                  -8.215
REMARK INTRA:                  -1.280
REMARK UNBOUND:                -0.655
REMARK  Name = resultss/4CJN/ligands/lig_216_t1.pdb
REMARK  13 active torsions:
REMARK  status: ('A' for Active; 'I' for Inactive)
REMARK    1  A    between atoms: C1_1  and  C2_2
REMARK    2  A    between atoms: C2_2  and  C3_3
REMARK    3  A    between atoms: C4_4  and  C5_5
REMARK    4  A    between atoms: C5_5  and  C6_6
REMARK    5  A    between atoms: C8_8  and  C9_9
REMARK    6  A    between atoms: C12_13  and  O2_14
REMARK    7  A    between atoms: C13_15  and  C14_16
REMARK    8  A    between atoms: C14_16  and  C15_17
REMARK    9  A    between atoms: C16_18  and  C17_19
REMARK   10  A    between atoms: C16_18  and  C18_20
REMARK   11  A    between atoms: C19_21  and  O3_22
REMARK   12  A    between atoms: C24_29  and  O6_30
REMARK   13  A    between atoms: C25_31  and  O7_32
REMARK                            x       y       z     vdW  Elec       q    Type
REMARK                         _______ _______ _______ _____ _____    ______ ____
ROOT
ATOM      1  C9  UNL     1      30.264  -9.157 -38.240  0.00  0.00    +0.000 C 
ATOM      2  O1  UNL     1      29.022  -9.723 -37.813  0.00  0.00    +0.000 OA
ATOM      3  C10 UNL     1      28.344  -9.299 -36.663  0.00  0.00    +0.000 A 
ATOM      4  C11 UNL     1      27.381 -10.135 -36.103  0.00  0.00    +0.000 A 
ATOM      5  C12 UNL     1      26.687  -9.752 -34.953  0.00  0.00    +0.000 A 
ATOM      6  C13 UNL     1      26.991  -8.529 -34.324  0.00  0.00    +0.000 A 
ATOM      7  C19 UNL     1      27.961  -7.670 -34.888  0.00  0.00    +0.000 A 
ATOM      8  C20 UNL     1      28.607  -8.037 -36.099  0.00  0.00    +0.000 A 
ATOM      9  C21 UNL     1      29.488  -7.126 -36.874  0.00  0.00    +0.000 C 
ATOM     10  O4  UNL     1      29.491  -5.883 -36.673  0.00  0.00    +0.000 OA
ATOM     11  C22 UNL     1      30.304  -7.678 -37.965  0.00  0.00    +0.000 C 
ATOM     12  O5  UNL     1      31.081  -6.925 -38.615  0.00  0.00    +0.000 OA
ENDROOT
BRANCH   1  15
ATOM     13  C6  UNL     1      29.558  -9.662 -41.966  0.00  0.00    +0.000 A 
ATOM     14  C7  UNL     1      29.386  -9.384 -40.599  0.00  0.00    +0.000 A 
ATOM     15  C8  UNL     1      30.466  -9.452 -39.707  0.00  0.00    +0.000 A 
ATOM     16  C23 UNL     1      31.729  -9.824 -40.188  0.00  0.00    +0.000 A 
ATOM     17  C24 UNL     1      31.917 -10.123 -41.539  0.00  0.00    +0.000 A 
ATOM     18  C25 UNL     1      30.837 -10.052 -42.437  0.00  0.00    +0.000 A 
BRANCH  17  19
ATOM     19  O6  UNL     1      33.189 -10.495 -41.972  0.00  0.00    +0.000 OA
ATOM     20  H25 UNL     1      33.402 -11.436 -42.279  0.00  0.00    +0.000 HD
ENDBRANCH  17  19
BRANCH  18  21
ATOM     21  O7  UNL     1      31.057 -10.381 -43.777  0.00  0.00    +0.000 OA
ATOM     22  H26 UNL     1      31.068  -9.701 -44.525  0.00  0.00    +0.000 HD
ENDBRANCH  18  21
BRANCH  13  23
ATOM     23  C5  UNL     1      28.363  -9.573 -42.885  0.00  0.00    +0.000 C 
BRANCH  23  27
ATOM     24  C1  UNL     1      25.888  -8.156 -43.693  0.00  0.00    +0.000 C 
ATOM     25  C2  UNL     1      25.941  -9.035 -42.467  0.00  0.00    +0.000 C 
ATOM     26  C3  UNL     1      24.710  -9.205 -41.614  0.00  0.00    +0.000 C 
ATOM     27  C4  UNL     1      27.072  -9.675 -42.106  0.00  0.00    +0.000 C 
ENDBRANCH  23  27
ENDBRANCH  13  23
ENDBRANCH   1  15
BRANCH   5  28
ATOM     28  O2  UNL     1      25.702 -10.590 -34.428  0.00  0.00    +0.000 OA
ATOM     29  H13 UNL     1      25.152 -11.201 -35.020  0.00  0.00    +0.000 HD
ENDBRANCH   5  28
BRANCH   7  30
ATOM     30  O3  UNL     1      28.272  -6.488 -34.208  0.00  0.00    +0.000 OA
ATOM     31  H23 UNL     1      27.912  -5.580 -34.463  0.00  0.00    +0.000 HD
ENDBRANCH   7  30
BRANCH   6  32
ATOM     32  C14 UNL     1      26.242  -8.110 -33.079  0.00  0.00    +0.000 C 
BRANCH  32  33
ATOM     33  C15 UNL     1      25.059  -7.254 -33.464  0.00  0.00    +0.000 C 
ATOM     34  C16 UNL     1      23.766  -7.587 -33.259  0.00  0.00    +0.000 C 
ATOM     35  C17 UNL     1      22.698  -6.632 -33.726  0.00  0.00    +0.000 C 
ATOM     36  C18 UNL     1      23.367  -8.875 -32.580  0.00  0.00    +0.000 C 
ENDBRANCH  32  33
ENDBRANCH   6  32
TORSDOF 9
ENDMDL
MODEL 5
REMARK VINA RESULT:    -6.234      5.135      9.519
REMARK INTER + INTRA:          -9.441
REMARK INTER:                  -8.586
REMARK INTRA:                  -0.856
REMARK UNBOUND:                -0.655
REMARK  Name = resultss/4CJN/ligands/lig_216_t1.pdb
REMARK  13 active torsions:
REMARK  status: ('A' for Active; 'I' for Inactive)
REMARK    1  A    between atoms: C1_1  and  C2_2
REMARK    2  A    between atoms: C2_2  and  C3_3
REMARK    3  A    between atoms: C4_4  and  C5_5
REMARK    4  A    between atoms: C5_5  and  C6_6
REMARK    5  A    between atoms: C8_8  and  C9_9
REMARK    6  A    between atoms: C12_13  and  O2_14
REMARK    7  A    between atoms: C13_15  and  C14_16
REMARK    8  A    between atoms: C14_16  and  C15_17
REMARK    9  A    between atoms: C16_18  and  C17_19
REMARK   10  A    between atoms: C16_18  and  C18_20
REMARK   11  A    between atoms: C19_21  and  O3_22
REMARK   12  A    between atoms: C24_29  and  O6_30
REMARK   13  A    between atoms: C25_31  and  O7_32
REMARK                            x       y       z     vdW  Elec       q    Type
REMARK                         _______ _______ _______ _____ _____    ______ ____
ROOT
ATOM      1  C9  UNL     1      28.768  -9.993 -42.605  0.00  0.00    +0.000 C 
ATOM      2  O1  UNL     1      28.320  -8.744 -43.137  0.00  0.00    +0.000 OA
ATOM      3  C10 UNL     1      26.968  -8.445 -43.350  0.00  0.00    +0.000 A 
ATOM      4  C11 UNL     1      26.638  -7.405 -44.216  0.00  0.00    +0.000 A 
ATOM      5  C12 UNL     1      25.301  -7.080 -44.461  0.00  0.00    +0.000 A 
ATOM      6  C13 UNL     1      24.273  -7.836 -43.864  0.00  0.00    +0.000 A 
ATOM      7  C19 UNL     1      24.599  -8.888 -42.978  0.00  0.00    +0.000 A 
ATOM      8  C20 UNL     1      25.960  -9.162 -42.679  0.00  0.00    +0.000 A 
ATOM      9  C21 UNL     1      26.400 -10.106 -41.620  0.00  0.00    +0.000 C 
ATOM     10  O4  UNL     1      25.610 -10.504 -40.723  0.00  0.00    +0.000 OA
ATOM     11  C22 UNL     1      27.812 -10.508 -41.562  0.00  0.00    +0.000 C 
ATOM     12  O5  UNL     1      28.198 -11.332 -40.689  0.00  0.00    +0.000 OA
ENDROOT
BRANCH   1  15
ATOM     13  C6  UNL     1      32.509 -10.488 -41.972  0.00  0.00    +0.000 A 
ATOM     14  C7  UNL     1      31.211 -10.631 -42.493  0.00  0.00    +0.000 A 
ATOM     15  C8  UNL     1      30.159  -9.822 -42.041  0.00  0.00    +0.000 A 
ATOM     16  C23 UNL     1      30.406  -8.873 -41.039  0.00  0.00    +0.000 A 
ATOM     17  C24 UNL     1      31.684  -8.728 -40.495  0.00  0.00    +0.000 A 
ATOM     18  C25 UNL     1      32.742  -9.535 -40.950  0.00  0.00    +0.000 A 
BRANCH  17  19
ATOM     19  O6  UNL     1      31.882  -7.776 -39.496  0.00  0.00    +0.000 OA
ATOM     20  H25 UNL     1      32.717  -7.758 -38.924  0.00  0.00    +0.000 HD
ENDBRANCH  17  19
BRANCH  18  21
ATOM     21  O7  UNL     1      34.002  -9.377 -40.366  0.00  0.00    +0.000 OA
ATOM     22  H26 UNL     1      34.291  -8.541 -39.877  0.00  0.00    +0.000 HD
ENDBRANCH  18  21
BRANCH  13  23
ATOM     23  C5  UNL     1      33.608 -11.383 -42.495  0.00  0.00    +0.000 C 
BRANCH  23  27
ATOM     24  C1  UNL     1      33.821 -11.296 -45.450  0.00  0.00    +0.000 C 
ATOM     25  C2  UNL     1      33.140 -12.435 -44.731  0.00  0.00    +0.000 C 
ATOM     26  C3  UNL     1      32.540 -13.569 -45.523  0.00  0.00    +0.000 C 
ATOM     27  C4  UNL     1      33.046 -12.466 -43.386  0.00  0.00    +0.000 C 
ENDBRANCH  23  27
ENDBRANCH  13  23
ENDBRANCH   1  15
BRANCH   5  28
ATOM     28  O2  UNL     1      24.992  -6.013 -45.305  0.00  0.00    +0.000 OA
ATOM     29  H13 UNL     1      24.879  -6.138 -46.304  0.00  0.00    +0.000 HD
ENDBRANCH   5  28
BRANCH   7  30
ATOM     30  O3  UNL     1      23.552  -9.648 -42.444  0.00  0.00    +0.000 OA
ATOM     31  H23 UNL     1      23.090  -9.436 -41.572  0.00  0.00    +0.000 HD
ENDBRANCH   7  30
BRANCH   6  32
ATOM     32  C14 UNL     1      22.826  -7.487 -44.125  0.00  0.00    +0.000 C 
BRANCH  32  33
ATOM     33  C15 UNL     1      22.206  -6.923 -42.869  0.00  0.00    +0.000 C 
ATOM     34  C16 UNL     1      20.909  -6.571 -42.740  0.00  0.00    +0.000 C 
ATOM     35  C17 UNL     1      20.450  -5.998 -41.424  0.00  0.00    +0.000 C 
ATOM     36  C18 UNL     1      19.916  -6.736 -43.865  0.00  0.00    +0.000 C 
ENDBRANCH  32  33
ENDBRANCH   6  32
TORSDOF 9
ENDMDL
MODEL 6
REMARK VINA RESULT:    -6.230      1.433      3.165
REMARK INTER + INTRA:          -9.435
REMARK INTER:                  -8.415
REMARK INTRA:                  -1.020
REMARK UNBOUND:                -0.655
REMARK  Name = resultss/4CJN/ligands/lig_216_t1.pdb
REMARK  13 active torsions:
REMARK  status: ('A' for Active; 'I' for Inactive)
REMARK    1  A    between atoms: C1_1  and  C2_2
REMARK    2  A    between atoms: C2_2  and  C3_3
REMARK    3  A    between atoms: C4_4  and  C5_5
REMARK    4  A    between atoms: C5_5  and  C6_6
REMARK    5  A    between atoms: C8_8  and  C9_9
REMARK    6  A    between atoms: C12_13  and  O2_14
REMARK    7  A    between atoms: C13_15  and  C14_16
REMARK    8  A    between atoms: C14_16  and  C15_17
REMARK    9  A    between atoms: C16_18  and  C17_19
REMARK   10  A    between atoms: C16_18  and  C18_20
REMARK   11  A    between atoms: C19_21  and  O3_22
REMARK   12  A    between atoms: C24_29  and  O6_30
REMARK   13  A    between atoms: C25_31  and  O7_32
REMARK                            x       y       z     vdW  Elec       q    Type
REMARK                         _______ _______ _______ _____ _____    ______ ____
ROOT
ATOM      1  C9  UNL     1      27.025  -9.640 -37.568  0.00  0.00    +0.000 C 
ATOM      2  O1  UNL     1      28.404  -9.449 -37.895  0.00  0.00    +0.000 OA
ATOM      3  C10 UNL     1      28.903  -9.569 -39.198  0.00  0.00    +0.000 A 
ATOM      4  C11 UNL     1      30.271  -9.763 -39.380  0.00  0.00    +0.000 A 
ATOM      5  C12 UNL     1      30.808  -9.894 -40.663  0.00  0.00    +0.000 A 
ATOM      6  C13 UNL     1      29.957  -9.874 -41.786  0.00  0.00    +0.000 A 
ATOM      7  C19 UNL     1      28.569  -9.671 -41.613  0.00  0.00    +0.000 A 
ATOM      8  C20 UNL     1      28.044  -9.465 -40.309  0.00  0.00    +0.000 A 
ATOM      9  C21 UNL     1      26.645  -9.050 -40.037  0.00  0.00    +0.000 C 
ATOM     10  O4  UNL     1      25.913  -8.569 -40.943  0.00  0.00    +0.000 OA
ATOM     11  C22 UNL     1      26.134  -9.112 -38.660  0.00  0.00    +0.000 C 
ATOM     12  O5  UNL     1      24.939  -8.792 -38.415  0.00  0.00    +0.000 OA
ENDROOT
BRANCH   1  15
ATOM     13  C6  UNL     1      27.180  -7.193 -34.630  0.00  0.00    +0.000 A 
ATOM     14  C7  UNL     1      27.437  -7.822 -35.861  0.00  0.00    +0.000 A 
ATOM     15  C8  UNL     1      26.732  -8.971 -36.246  0.00  0.00    +0.000 A 
ATOM     16  C23 UNL     1      25.773  -9.509 -35.376  0.00  0.00    +0.000 A 
ATOM     17  C24 UNL     1      25.515  -8.911 -34.141  0.00  0.00    +0.000 A 
ATOM     18  C25 UNL     1      26.218  -7.755 -33.755  0.00  0.00    +0.000 A 
BRANCH  17  19
ATOM     19  O6  UNL     1      24.557  -9.484 -33.306  0.00  0.00    +0.000 OA
ATOM     20  H25 UNL     1      23.648  -9.065 -33.158  0.00  0.00    +0.000 HD
ENDBRANCH  17  19
BRANCH  18  21
ATOM     21  O7  UNL     1      25.950  -7.198 -32.501  0.00  0.00    +0.000 OA
ATOM     22  H26 UNL     1      26.137  -7.671 -31.627  0.00  0.00    +0.000 HD
ENDBRANCH  18  21
BRANCH  13  23
ATOM     23  C5  UNL     1      27.965  -5.956 -34.264  0.00  0.00    +0.000 C 
BRANCH  23  27
ATOM     24  C1  UNL     1      29.619  -7.186 -32.134  0.00  0.00    +0.000 C 
ATOM     25  C2  UNL     1      30.210  -6.752 -33.454  0.00  0.00    +0.000 C 
ATOM     26  C3  UNL     1      31.683  -6.939 -33.713  0.00  0.00    +0.000 C 
ATOM     27  C4  UNL     1      29.449  -6.193 -34.418  0.00  0.00    +0.000 C 
ENDBRANCH  23  27
ENDBRANCH  13  23
ENDBRANCH   1  15
BRANCH   5  28
ATOM     28  O2  UNL     1      32.185 -10.053 -40.824  0.00  0.00    +0.000 OA
ATOM     29  H13 UNL     1      32.705  -9.523 -41.512  0.00  0.00    +0.000 HD
ENDBRANCH   5  28
BRANCH   7  30
ATOM     30  O3  UNL     1      27.750  -9.709 -42.746  0.00  0.00    +0.000 OA
ATOM     31  H23 UNL     1      26.808 -10.071 -42.749  0.00  0.00    +0.000 HD
ENDBRANCH   7  30
BRANCH   6  32
ATOM     32  C14 UNL     1      30.534 -10.015 -43.176  0.00  0.00    +0.000 C 
BRANCH  32  33
ATOM     33  C15 UNL     1      30.986 -11.439 -43.395  0.00  0.00    +0.000 C 
ATOM     34  C16 UNL     1      32.081 -11.801 -44.097  0.00  0.00    +0.000 C 
ATOM     35  C17 UNL     1      32.383 -13.270 -44.246  0.00  0.00    +0.000 C 
ATOM     36  C18 UNL     1      33.004 -10.786 -44.727  0.00  0.00    +0.000 C 
ENDBRANCH  32  33
ENDBRANCH   6  32
TORSDOF 9
ENDMDL
MODEL 7
REMARK VINA RESULT:    -5.992      3.154      8.043
REMARK INTER + INTRA:          -9.099
REMARK INTER:                  -8.203
REMARK INTRA:                  -0.896
REMARK UNBOUND:                -0.655
REMARK  Name = resultss/4CJN/ligands/lig_216_t1.pdb
REMARK  13 active torsions:
REMARK  status: ('A' for Active; 'I' for Inactive)
REMARK    1  A    between atoms: C1_1  and  C2_2
REMARK    2  A    between atoms: C2_2  and  C3_3
REMARK    3  A    between atoms: C4_4  and  C5_5
REMARK    4  A    between atoms: C5_5  and  C6_6
REMARK    5  A    between atoms: C8_8  and  C9_9
REMARK    6  A    between atoms: C12_13  and  O2_14
REMARK    7  A    between atoms: C13_15  and  C14_16
REMARK    8  A    between atoms: C14_16  and  C15_17
REMARK    9  A    between atoms: C16_18  and  C17_19
REMARK   10  A    between atoms: C16_18  and  C18_20
REMARK   11  A    between atoms: C19_21  and  O3_22
REMARK   12  A    between atoms: C24_29  and  O6_30
REMARK   13  A    between atoms: C25_31  and  O7_32
REMARK                            x       y       z     vdW  Elec       q    Type
REMARK                         _______ _______ _______ _____ _____    ______ ____
ROOT
ATOM      1  C9  UNL     1      27.224  -7.805 -36.768  0.00  0.00    +0.000 C 
ATOM      2  O1  UNL     1      28.418  -8.592 -36.769  0.00  0.00    +0.000 OA
ATOM      3  C10 UNL     1      29.186  -8.818 -35.620  0.00  0.00    +0.000 A 
ATOM      4  C11 UNL     1      30.505  -9.241 -35.765  0.00  0.00    +0.000 A 
ATOM      5  C12 UNL     1      31.307  -9.471 -34.644  0.00  0.00    +0.000 A 
ATOM      6  C13 UNL     1      30.794  -9.233 -33.353  0.00  0.00    +0.000 A 
ATOM      7  C19 UNL     1      29.455  -8.810 -33.196  0.00  0.00    +0.000 A 
ATOM      8  C20 UNL     1      28.627  -8.651 -34.339  0.00  0.00    +0.000 A 
ATOM      9  C21 UNL     1      27.164  -8.406 -34.273  0.00  0.00    +0.000 C 
ATOM     10  O4  UNL     1      26.509  -8.613 -33.217  0.00  0.00    +0.000 OA
ATOM     11  C22 UNL     1      26.450  -8.005 -35.493  0.00  0.00    +0.000 C 
ATOM     12  O5  UNL     1      25.212  -7.763 -35.449  0.00  0.00    +0.000 OA
ENDROOT
BRANCH   1  15
ATOM     13  C6  UNL     1      26.003  -9.571 -39.934  0.00  0.00    +0.000 A 
ATOM     14  C7  UNL     1      26.762  -9.235 -38.800  0.00  0.00    +0.000 A 
ATOM     15  C8  UNL     1      26.394  -8.160 -37.979  0.00  0.00    +0.000 A 
ATOM     16  C23 UNL     1      25.264  -7.399 -38.311  0.00  0.00    +0.000 A 
ATOM     17  C24 UNL     1      24.507  -7.705 -39.443  0.00  0.00    +0.000 A 
ATOM     18  C25 UNL     1      24.871  -8.786 -40.267  0.00  0.00    +0.000 A 
BRANCH  17  19
ATOM     19  O6  UNL     1      23.394  -6.918 -39.739  0.00  0.00    +0.000 OA
ATOM     20  H25 UNL     1      22.744  -6.611 -39.026  0.00  0.00    +0.000 HD
ENDBRANCH  17  19
BRANCH  18  21
ATOM     21  O7  UNL     1      24.103  -9.048 -41.405  0.00  0.00    +0.000 OA
ATOM     22  H26 UNL     1      24.411  -8.842 -42.346  0.00  0.00    +0.000 HD
ENDBRANCH  18  21
BRANCH  13  23
ATOM     23  C5  UNL     1      26.440 -10.740 -40.785  0.00  0.00    +0.000 C 
BRANCH  23  27
ATOM     24  C1  UNL     1      28.246  -9.523 -42.796  0.00  0.00    +0.000 C 
ATOM     25  C2  UNL     1      28.771 -10.357 -41.653  0.00  0.00    +0.000 C 
ATOM     26  C3  UNL     1      30.253 -10.593 -41.516  0.00  0.00    +0.000 C 
ATOM     27  C4  UNL     1      27.941 -10.908 -40.742  0.00  0.00    +0.000 C 
ENDBRANCH  23  27
ENDBRANCH  13  23
ENDBRANCH   1  15
BRANCH   5  28
ATOM     28  O2  UNL     1      32.615  -9.927 -34.810  0.00  0.00    +0.000 OA
ATOM     29  H13 UNL     1      32.835 -10.697 -35.431  0.00  0.00    +0.000 HD
ENDBRANCH   5  28
BRANCH   7  30
ATOM     30  O3  UNL     1      28.997  -8.535 -31.902  0.00  0.00    +0.000 OA
ATOM     31  H23 UNL     1      29.569  -8.614 -31.074  0.00  0.00    +0.000 HD
ENDBRANCH   7  30
BRANCH   6  32
ATOM     32  C14 UNL     1      31.657  -9.481 -32.137  0.00  0.00    +0.000 C 
BRANCH  32  33
ATOM     33  C15 UNL     1      31.539 -10.927 -31.719  0.00  0.00    +0.000 C 
ATOM     34  C16 UNL     1      32.582 -11.765 -31.536  0.00  0.00    +0.000 C 
ATOM     35  C17 UNL     1      32.294 -13.191 -31.142  0.00  0.00    +0.000 C 
ATOM     36  C18 UNL     1      34.013 -11.317 -31.712  0.00  0.00    +0.000 C 
ENDBRANCH  32  33
ENDBRANCH   6  32
TORSDOF 9
ENDMDL
MODEL 8
REMARK VINA RESULT:    -5.985      3.403      8.149
REMARK INTER + INTRA:          -9.089
REMARK INTER:                  -8.469
REMARK INTRA:                  -0.620
REMARK UNBOUND:                -0.655
REMARK  Name = resultss/4CJN/ligands/lig_216_t1.pdb
REMARK  13 active torsions:
REMARK  status: ('A' for Active; 'I' for Inactive)
REMARK    1  A    between atoms: C1_1  and  C2_2
REMARK    2  A    between atoms: C2_2  and  C3_3
REMARK    3  A    between atoms: C4_4  and  C5_5
REMARK    4  A    between atoms: C5_5  and  C6_6
REMARK    5  A    between atoms: C8_8  and  C9_9
REMARK    6  A    between atoms: C12_13  and  O2_14
REMARK    7  A    between atoms: C13_15  and  C14_16
REMARK    8  A    between atoms: C14_16  and  C15_17
REMARK    9  A    between atoms: C16_18  and  C17_19
REMARK   10  A    between atoms: C16_18  and  C18_20
REMARK   11  A    between atoms: C19_21  and  O3_22
REMARK   12  A    between atoms: C24_29  and  O6_30
REMARK   13  A    between atoms: C25_31  and  O7_32
REMARK                            x       y       z     vdW  Elec       q    Type
REMARK                         _______ _______ _______ _____ _____    ______ ____
ROOT
ATOM      1  C9  UNL     1      27.666  -9.964 -37.730  0.00  0.00    +0.000 C 
ATOM      2  O1  UNL     1      27.506  -9.333 -36.457  0.00  0.00    +0.000 OA
ATOM      3  C10 UNL     1      28.513  -9.309 -35.484  0.00  0.00    +0.000 A 
ATOM      4  C11 UNL     1      28.166  -9.041 -34.162  0.00  0.00    +0.000 A 
ATOM      5  C12 UNL     1      29.140  -9.015 -33.161  0.00  0.00    +0.000 A 
ATOM      6  C13 UNL     1      30.481  -9.304 -33.478  0.00  0.00    +0.000 A 
ATOM      7  C19 UNL     1      30.845  -9.570 -34.818  0.00  0.00    +0.000 A 
ATOM      8  C20 UNL     1      29.859  -9.522 -35.839  0.00  0.00    +0.000 A 
ATOM      9  C21 UNL     1      30.167  -9.590 -37.290  0.00  0.00    +0.000 C 
ATOM     10  O4  UNL     1      31.334  -9.400 -37.725  0.00  0.00    +0.000 OA
ATOM     11  C22 UNL     1      29.069  -9.787 -38.246  0.00  0.00    +0.000 C 
ATOM     12  O5  UNL     1      29.315  -9.877 -39.480  0.00  0.00    +0.000 OA
ENDROOT
BRANCH   1  15
ATOM     13  C6  UNL     1      25.739  -9.246 -40.957  0.00  0.00    +0.000 A 
ATOM     14  C7  UNL     1      26.675  -9.768 -40.047  0.00  0.00    +0.000 A 
ATOM     15  C8  UNL     1      26.648  -9.401 -38.694  0.00  0.00    +0.000 A 
ATOM     16  C23 UNL     1      25.685  -8.484 -38.252  0.00  0.00    +0.000 A 
ATOM     17  C24 UNL     1      24.757  -7.939 -39.143  0.00  0.00    +0.000 A 
ATOM     18  C25 UNL     1      24.779  -8.309 -40.500  0.00  0.00    +0.000 A 
BRANCH  17  19
ATOM     19  O6  UNL     1      23.821  -7.025 -38.661  0.00  0.00    +0.000 OA
ATOM     20  H25 UNL     1      23.154  -7.265 -37.939  0.00  0.00    +0.000 HD
ENDBRANCH  17  19
BRANCH  18  21
ATOM     21  O7  UNL     1      23.851  -7.726 -41.367  0.00  0.00    +0.000 OA
ATOM     22  H26 UNL     1      22.907  -8.066 -41.486  0.00  0.00    +0.000 HD
ENDBRANCH  18  21
BRANCH  13  23
ATOM     23  C5  UNL     1      25.810  -9.675 -42.403  0.00  0.00    +0.000 C 
BRANCH  23  27
ATOM     24  C1  UNL     1      25.700  -7.341 -44.226  0.00  0.00    +0.000 C 
ATOM     25  C2  UNL     1      26.996  -8.044 -43.907  0.00  0.00    +0.000 C 
ATOM     26  C3  UNL     1      28.283  -7.562 -44.527  0.00  0.00    +0.000 C 
ATOM     27  C4  UNL     1      27.037  -9.107 -43.077  0.00  0.00    +0.000 C 
ENDBRANCH  23  27
ENDBRANCH  13  23
ENDBRANCH   1  15
BRANCH   5  28
ATOM     28  O2  UNL     1      28.775  -8.709 -31.849  0.00  0.00    +0.000 OA
ATOM     29  H13 UNL     1      29.126  -9.240 -31.061  0.00  0.00    +0.000 HD
ENDBRANCH   5  28
BRANCH   7  30
ATOM     30  O3  UNL     1      32.177  -9.903 -35.086  0.00  0.00    +0.000 OA
ATOM     31  H23 UNL     1      32.879 -10.036 -34.372  0.00  0.00    +0.000 HD
ENDBRANCH   7  30
BRANCH   6  32
ATOM     32  C14 UNL     1      31.538  -9.275 -32.398  0.00  0.00    +0.000 C 
BRANCH  32  33
ATOM     33  C15 UNL     1      31.589 -10.615 -31.704  0.00  0.00    +0.000 C 
ATOM     34  C16 UNL     1      32.686 -11.398 -31.616  0.00  0.00    +0.000 C 
ATOM     35  C17 UNL     1      32.565 -12.724 -30.909  0.00  0.00    +0.000 C 
ATOM     36  C18 UNL     1      34.016 -10.985 -32.198  0.00  0.00    +0.000 C 
ENDBRANCH  32  33
ENDBRANCH   6  32
TORSDOF 9
ENDMDL
MODEL 9
REMARK VINA RESULT:    -5.969      3.562      9.006
REMARK INTER + INTRA:          -9.068
REMARK INTER:                  -8.848
REMARK INTRA:                  -0.220
REMARK UNBOUND:                -0.655
REMARK  Name = resultss/4CJN/ligands/lig_216_t1.pdb
REMARK  13 active torsions:
REMARK  status: ('A' for Active; 'I' for Inactive)
REMARK    1  A    between atoms: C1_1  and  C2_2
REMARK    2  A    between atoms: C2_2  and  C3_3
REMARK    3  A    between atoms: C4_4  and  C5_5
REMARK    4  A    between atoms: C5_5  and  C6_6
REMARK    5  A    between atoms: C8_8  and  C9_9
REMARK    6  A    between atoms: C12_13  and  O2_14
REMARK    7  A    between atoms: C13_15  and  C14_16
REMARK    8  A    between atoms: C14_16  and  C15_17
REMARK    9  A    between atoms: C16_18  and  C17_19
REMARK   10  A    between atoms: C16_18  and  C18_20
REMARK   11  A    between atoms: C19_21  and  O3_22
REMARK   12  A    between atoms: C24_29  and  O6_30
REMARK   13  A    between atoms: C25_31  and  O7_32
REMARK                            x       y       z     vdW  Elec       q    Type
REMARK                         _______ _______ _______ _____ _____    ______ ____
ROOT
ATOM      1  C9  UNL     1      25.499  -9.459 -40.751  0.00  0.00    +0.000 C 
ATOM      2  O1  UNL     1      25.234  -8.859 -39.481  0.00  0.00    +0.000 OA
ATOM      3  C10 UNL     1      25.992  -9.129 -38.335  0.00  0.00    +0.000 A 
ATOM      4  C11 UNL     1      25.452  -8.835 -37.085  0.00  0.00    +0.000 A 
ATOM      5  C12 UNL     1      26.174  -9.095 -35.918  0.00  0.00    +0.000 A 
ATOM      6  C13 UNL     1      27.443  -9.700 -35.997  0.00  0.00    +0.000 A 
ATOM      7  C19 UNL     1      28.003  -9.996 -37.261  0.00  0.00    +0.000 A 
ATOM      8  C20 UNL     1      27.292  -9.660 -38.443  0.00  0.00    +0.000 A 
ATOM      9  C21 UNL     1      27.869  -9.746 -39.808  0.00  0.00    +0.000 C 
ATOM     10  O4  UNL     1      29.112  -9.840 -39.993  0.00  0.00    +0.000 OA
ATOM     11  C22 UNL     1      26.979  -9.621 -40.971  0.00  0.00    +0.000 C 
ATOM     12  O5  UNL     1      27.448  -9.722 -42.138  0.00  0.00    +0.000 OA
ENDROOT
BRANCH   1  15
ATOM     13  C6  UNL     1      25.059  -6.884 -43.546  0.00  0.00    +0.000 A 
ATOM     14  C7  UNL     1      25.634  -7.676 -42.538  0.00  0.00    +0.000 A 
ATOM     15  C8  UNL     1      24.869  -8.620 -41.838  0.00  0.00    +0.000 A 
ATOM     16  C23 UNL     1      23.506  -8.755 -42.137  0.00  0.00    +0.000 A 
ATOM     17  C24 UNL     1      22.911  -7.965 -43.123  0.00  0.00    +0.000 A 
ATOM     18  C25 UNL     1      23.677  -7.020 -43.830  0.00  0.00    +0.000 A 
BRANCH  17  19
ATOM     19  O6  UNL     1      21.551  -8.129 -43.383  0.00  0.00    +0.000 OA
ATOM     20  H25 UNL     1      20.839  -7.610 -42.884  0.00  0.00    +0.000 HD
ENDBRANCH  17  19
BRANCH  18  21
ATOM     21  O7  UNL     1      23.042  -6.230 -44.792  0.00  0.00    +0.000 OA
ATOM     22  H26 UNL     1      22.072  -5.951 -44.735  0.00  0.00    +0.000 HD
ENDBRANCH  18  21
BRANCH  13  23
ATOM     23  C5  UNL     1      25.927  -5.883 -44.272  0.00  0.00    +0.000 C 
BRANCH  23  27
ATOM     24  C1  UNL     1      28.143  -7.328 -45.609  0.00  0.00    +0.000 C 
ATOM     25  C2  UNL     1      26.947  -6.816 -46.374  0.00  0.00    +0.000 C 
ATOM     26  C3  UNL     1      26.862  -7.033 -47.863  0.00  0.00    +0.000 C 
ATOM     27  C4  UNL     1      25.943  -6.158 -45.758  0.00  0.00    +0.000 C 
ENDBRANCH  23  27
ENDBRANCH  13  23
ENDBRANCH   1  15
BRANCH   5  28
ATOM     28  O2  UNL     1      25.628  -8.760 -34.678  0.00  0.00    +0.000 OA
ATOM     29  H13 UNL     1      24.628  -8.690 -34.538  0.00  0.00    +0.000 HD
ENDBRANCH   5  28
BRANCH   7  30
ATOM     30  O3  UNL     1      29.243 -10.644 -37.298  0.00  0.00    +0.000 OA
ATOM     31  H23 UNL     1      29.778 -10.883 -36.475  0.00  0.00    +0.000 HD
ENDBRANCH   7  30
BRANCH   6  32
ATOM     32  C14 UNL     1      28.228  -9.983 -34.737  0.00  0.00    +0.000 C 
BRANCH  32  33
ATOM     33  C15 UNL     1      28.818  -8.697 -34.209  0.00  0.00    +0.000 C 
ATOM     34  C16 UNL     1      29.794  -8.620 -33.279  0.00  0.00    +0.000 C 
ATOM     35  C17 UNL     1      30.258  -7.256 -32.837  0.00  0.00    +0.000 C 
ATOM     36  C18 UNL     1      30.429  -9.851 -32.678  0.00  0.00    +0.000 C 
ENDBRANCH  32  33
ENDBRANCH   6  32
TORSDOF 9
ENDMDL
