MODEL 1
REMARK VINA RESULT:    -6.169      0.000      0.000
REMARK INTER + INTRA:          -8.340
REMARK INTER:                  -7.612
REMARK INTRA:                  -0.729
REMARK UNBOUND:                -0.729
REMARK  Name = resultss/4CJN/ligands/lig_397_t0.pdb
REMARK  5 active torsions:
REMARK  status: ('A' for Active; 'I' for Inactive)
REMARK    1  A    between atoms: C1_1  and  O1_2
REMARK    2  A    between atoms: O1_2  and  C2_3
REMARK    3  A    between atoms: C5_6  and  C6_7
REMARK    4  A    between atoms: C9_11  and  C10_12
REMARK    5  A    between atoms: C10_12  and  C11_13
REMARK                            x       y       z     vdW  Elec       q    Type
REMARK                         _______ _______ _______ _____ _____    ______ ____
ROOT
ATOM      1  C6  UNL     1      29.314 -10.318 -40.873  0.00  0.00    +0.000 A 
ATOM      2  N1  UNL     1      29.319 -10.362 -39.519  0.00  0.00    +0.000 N 
ATOM      3  C7  UNL     1      28.120  -9.895 -39.122  0.00  0.00    +0.000 A 
ATOM      4  C8  UNL     1      27.353  -9.544 -40.201  0.00  0.00    +0.000 A 
ATOM      5  C9  UNL     1      28.101  -9.795 -41.341  0.00  0.00    +0.000 A 
ATOM      6  C12 UNL     1      26.067  -9.030 -40.011  0.00  0.00    +0.000 A 
ATOM      7  O2  UNL     1      25.343  -8.703 -40.988  0.00  0.00    +0.000 OA
ATOM      8  O3  UNL     1      25.606  -8.890 -38.766  0.00  0.00    +0.000 OA
ATOM      9  C13 UNL     1      26.324  -9.222 -37.683  0.00  0.00    +0.000 A 
ATOM     10  C14 UNL     1      25.777  -9.049 -36.407  0.00  0.00    +0.000 A 
ATOM     11  C15 UNL     1      26.520  -9.393 -35.273  0.00  0.00    +0.000 A 
ATOM     12  C16 UNL     1      27.812  -9.911 -35.406  0.00  0.00    +0.000 A 
ATOM     13  C17 UNL     1      28.375 -10.091 -36.675  0.00  0.00    +0.000 A 
ATOM     14  C18 UNL     1      27.636  -9.748 -37.819  0.00  0.00    +0.000 A 
ATOM     15  H6  UNL     1      30.096 -10.709 -38.914  0.00  0.00    +0.000 HD
ENDROOT
BRANCH   1  19
ATOM     16  C2  UNL     1      32.687 -11.607 -43.203  0.00  0.00    +0.000 A 
ATOM     17  C3  UNL     1      31.462 -12.273 -43.309  0.00  0.00    +0.000 A 
ATOM     18  C4  UNL     1      30.359 -11.858 -42.556  0.00  0.00    +0.000 A 
ATOM     19  C5  UNL     1      30.465 -10.757 -41.691  0.00  0.00    +0.000 A 
ATOM     20  C19 UNL     1      31.698 -10.099 -41.570  0.00  0.00    +0.000 A 
ATOM     21  C20 UNL     1      32.801 -10.514 -42.324  0.00  0.00    +0.000 A 
BRANCH  16  23
ATOM     22  C1  UNL     1      33.711 -13.201 -44.835  0.00  0.00    +0.000 C 
ATOM     23  O1  UNL     1      33.762 -12.062 -43.981  0.00  0.00    +0.000 OA
ENDBRANCH  16  23
ENDBRANCH   1  19
BRANCH   5  24
ATOM     24  C10 UNL     1      27.705  -9.508 -42.761  0.00  0.00    +0.000 C 
BRANCH  24  25
ATOM     25  C11 UNL     1      28.154  -8.167 -43.148  0.00  0.00    +0.000 C 
ATOM     26  N2  UNL     1      28.508  -7.109 -43.453  0.00  0.00    +0.000 NA
ENDBRANCH  24  25
ENDBRANCH   5  24
TORSDOF 4
ENDMDL
MODEL 2
REMARK VINA RESULT:    -5.939      4.137      6.016
REMARK INTER + INTRA:          -8.057
REMARK INTER:                  -7.281
REMARK INTRA:                  -0.776
REMARK UNBOUND:                -0.729
REMARK  Name = resultss/4CJN/ligands/lig_397_t0.pdb
REMARK  5 active torsions:
REMARK  status: ('A' for Active; 'I' for Inactive)
REMARK    1  A    between atoms: C1_1  and  O1_2
REMARK    2  A    between atoms: O1_2  and  C2_3
REMARK    3  A    between atoms: C5_6  and  C6_7
REMARK    4  A    between atoms: C9_11  and  C10_12
REMARK    5  A    between atoms: C10_12  and  C11_13
REMARK                            x       y       z     vdW  Elec       q    Type
REMARK                         _______ _______ _______ _____ _____    ______ ____
ROOT
ATOM      1  C6  UNL     1      25.402  -8.535 -39.311  0.00  0.00    +0.000 A 
ATOM      2  N1  UNL     1      24.488  -8.223 -38.361  0.00  0.00    +0.000 N 
ATOM      3  C7  UNL     1      25.044  -8.555 -37.180  0.00  0.00    +0.000 A 
ATOM      4  C8  UNL     1      26.293  -9.084 -37.361  0.00  0.00    +0.000 A 
ATOM      5  C9  UNL     1      26.545  -9.094 -38.725  0.00  0.00    +0.000 A 
ATOM      6  C12 UNL     1      27.047  -9.500 -36.260  0.00  0.00    +0.000 A 
ATOM      7  O2  UNL     1      28.199  -9.986 -36.403  0.00  0.00    +0.000 OA
ATOM      8  O3  UNL     1      26.526  -9.370 -35.038  0.00  0.00    +0.000 OA
ATOM      9  C13 UNL     1      25.308  -8.857 -34.816  0.00  0.00    +0.000 A 
ATOM     10  C14 UNL     1      24.826  -8.751 -33.507  0.00  0.00    +0.000 A 
ATOM     11  C15 UNL     1      23.556  -8.217 -33.269  0.00  0.00    +0.000 A 
ATOM     12  C16 UNL     1      22.759  -7.787 -34.334  0.00  0.00    +0.000 A 
ATOM     13  C17 UNL     1      23.226  -7.885 -35.650  0.00  0.00    +0.000 A 
ATOM     14  C18 UNL     1      24.500  -8.420 -35.899  0.00  0.00    +0.000 A 
ATOM     15  H6  UNL     1      23.550  -7.792 -38.522  0.00  0.00    +0.000 HD
ENDROOT
BRANCH   1  19
ATOM     16  C2  UNL     1      24.757  -7.874 -43.508  0.00  0.00    +0.000 A 
ATOM     17  C3  UNL     1      24.622  -9.157 -42.968  0.00  0.00    +0.000 A 
ATOM     18  C4  UNL     1      24.827  -9.379 -41.603  0.00  0.00    +0.000 A 
ATOM     19  C5  UNL     1      25.162  -8.313 -40.753  0.00  0.00    +0.000 A 
ATOM     20  C19 UNL     1      25.317  -7.029 -41.296  0.00  0.00    +0.000 A 
ATOM     21  C20 UNL     1      25.110  -6.806 -42.662  0.00  0.00    +0.000 A 
BRANCH  16  23
ATOM     22  C1  UNL     1      23.418  -7.025 -45.441  0.00  0.00    +0.000 C 
ATOM     23  O1  UNL     1      24.539  -7.704 -44.884  0.00  0.00    +0.000 OA
ENDBRANCH  16  23
ENDBRANCH   1  19
BRANCH   5  24
ATOM     24  C10 UNL     1      27.762  -9.643 -39.413  0.00  0.00    +0.000 C 
BRANCH  24  25
ATOM     25  C11 UNL     1      27.534 -11.037 -39.804  0.00  0.00    +0.000 C 
ATOM     26  N2  UNL     1      27.353 -12.138 -40.112  0.00  0.00    +0.000 NA
ENDBRANCH  24  25
ENDBRANCH   5  24
TORSDOF 4
ENDMDL
MODEL 3
REMARK VINA RESULT:    -5.579      2.681      7.376
REMARK INTER + INTRA:          -7.612
REMARK INTER:                  -6.876
REMARK INTRA:                  -0.736
REMARK UNBOUND:                -0.729
REMARK  Name = resultss/4CJN/ligands/lig_397_t0.pdb
REMARK  5 active torsions:
REMARK  status: ('A' for Active; 'I' for Inactive)
REMARK    1  A    between atoms: C1_1  and  O1_2
REMARK    2  A    between atoms: O1_2  and  C2_3
REMARK    3  A    between atoms: C5_6  and  C6_7
REMARK    4  A    between atoms: C9_11  and  C10_12
REMARK    5  A    between atoms: C10_12  and  C11_13
REMARK                            x       y       z     vdW  Elec       q    Type
REMARK                         _______ _______ _______ _____ _____    ______ ____
ROOT
ATOM      1  C6  UNL     1      29.101 -10.004 -41.965  0.00  0.00    +0.000 A 
ATOM      2  N1  UNL     1      29.666 -10.909 -42.801  0.00  0.00    +0.000 N 
ATOM      3  C7  UNL     1      30.987 -10.891 -42.539  0.00  0.00    +0.000 A 
ATOM      4  C8  UNL     1      31.276  -9.982 -41.557  0.00  0.00    +0.000 A 
ATOM      5  C9  UNL     1      30.082  -9.389 -41.176  0.00  0.00    +0.000 A 
ATOM      6  C12 UNL     1      32.596  -9.802 -41.133  0.00  0.00    +0.000 A 
ATOM      7  O2  UNL     1      32.885  -8.975 -40.230  0.00  0.00    +0.000 OA
ATOM      8  O3  UNL     1      33.560 -10.529 -41.703  0.00  0.00    +0.000 OA
ATOM      9  C13 UNL     1      33.320 -11.429 -42.666  0.00  0.00    +0.000 A 
ATOM     10  C14 UNL     1      34.380 -12.156 -43.218  0.00  0.00    +0.000 A 
ATOM     11  C15 UNL     1      34.136 -13.097 -44.224  0.00  0.00    +0.000 A 
ATOM     12  C16 UNL     1      32.835 -13.316 -44.686  0.00  0.00    +0.000 A 
ATOM     13  C17 UNL     1      31.762 -12.598 -44.145  0.00  0.00    +0.000 A 
ATOM     14  C18 UNL     1      31.997 -11.652 -43.135  0.00  0.00    +0.000 A 
ATOM     15  H6  UNL     1      29.165 -11.508 -43.494  0.00  0.00    +0.000 HD
ENDROOT
BRANCH   1  19
ATOM     16  C2  UNL     1      24.884  -9.181 -41.869  0.00  0.00    +0.000 A 
ATOM     17  C3  UNL     1      25.642  -8.844 -42.996  0.00  0.00    +0.000 A 
ATOM     18  C4  UNL     1      27.014  -9.112 -43.035  0.00  0.00    +0.000 A 
ATOM     19  C5  UNL     1      27.647  -9.733 -41.946  0.00  0.00    +0.000 A 
ATOM     20  C19 UNL     1      26.893 -10.054 -40.808  0.00  0.00    +0.000 A 
ATOM     21  C20 UNL     1      25.520  -9.787 -40.769  0.00  0.00    +0.000 A 
BRANCH  16  23
ATOM     22  C1  UNL     1      22.909  -7.878 -42.677  0.00  0.00    +0.000 C 
ATOM     23  O1  UNL     1      23.511  -8.893 -41.880  0.00  0.00    +0.000 OA
ENDBRANCH  16  23
ENDBRANCH   1  19
BRANCH   5  24
ATOM     24  C10 UNL     1      29.903  -8.283 -40.176  0.00  0.00    +0.000 C 
BRANCH  24  25
ATOM     25  C11 UNL     1      29.840  -6.989 -40.860  0.00  0.00    +0.000 C 
ATOM     26  N2  UNL     1      29.789  -5.967 -41.400  0.00  0.00    +0.000 NA
ENDBRANCH  24  25
ENDBRANCH   5  24
TORSDOF 4
ENDMDL
MODEL 4
REMARK VINA RESULT:    -5.258      3.472      5.509
REMARK INTER + INTRA:          -7.216
REMARK INTER:                  -6.408
REMARK INTRA:                  -0.808
REMARK UNBOUND:                -0.729
REMARK  Name = resultss/4CJN/ligands/lig_397_t0.pdb
REMARK  5 active torsions:
REMARK  status: ('A' for Active; 'I' for Inactive)
REMARK    1  A    between atoms: C1_1  and  O1_2
REMARK    2  A    between atoms: O1_2  and  C2_3
REMARK    3  A    between atoms: C5_6  and  C6_7
REMARK    4  A    between atoms: C9_11  and  C10_12
REMARK    5  A    between atoms: C10_12  and  C11_13
REMARK                            x       y       z     vdW  Elec       q    Type
REMARK                         _______ _______ _______ _____ _____    ______ ____
ROOT
ATOM      1  C6  UNL     1      26.024  -8.716 -39.815  0.00  0.00    +0.000 A 
ATOM      2  N1  UNL     1      25.195  -8.391 -38.794  0.00  0.00    +0.000 N 
ATOM      3  C7  UNL     1      25.785  -8.842 -37.671  0.00  0.00    +0.000 A 
ATOM      4  C8  UNL     1      26.972  -9.460 -37.959  0.00  0.00    +0.000 A 
ATOM      5  C9  UNL     1      27.146  -9.404 -39.333  0.00  0.00    +0.000 A 
ATOM      6  C12 UNL     1      27.748 -10.006 -36.932  0.00  0.00    +0.000 A 
ATOM      7  O2  UNL     1      28.843 -10.577 -37.173  0.00  0.00    +0.000 OA
ATOM      8  O3  UNL     1      27.309  -9.913 -35.675  0.00  0.00    +0.000 OA
ATOM      9  C13 UNL     1      26.154  -9.316 -35.350  0.00  0.00    +0.000 A 
ATOM     10  C14 UNL     1      25.757  -9.254 -34.010  0.00  0.00    +0.000 A 
ATOM     11  C15 UNL     1      24.552  -8.633 -33.663  0.00  0.00    +0.000 A 
ATOM     12  C16 UNL     1      23.738  -8.071 -34.651  0.00  0.00    +0.000 A 
ATOM     13  C17 UNL     1      24.120  -8.123 -35.996  0.00  0.00    +0.000 A 
ATOM     14  C18 UNL     1      25.327  -8.745 -36.354  0.00  0.00    +0.000 A 
ATOM     15  H6  UNL     1      24.291  -7.875 -38.872  0.00  0.00    +0.000 HD
ENDROOT
BRANCH   1  19
ATOM     16  C2  UNL     1      25.101  -7.744 -43.898  0.00  0.00    +0.000 A 
ATOM     17  C3  UNL     1      25.904  -6.889 -43.134  0.00  0.00    +0.000 A 
ATOM     18  C4  UNL     1      26.211  -7.201 -41.806  0.00  0.00    +0.000 A 
ATOM     19  C5  UNL     1      25.725  -8.383 -41.224  0.00  0.00    +0.000 A 
ATOM     20  C19 UNL     1      24.904  -9.231 -41.983  0.00  0.00    +0.000 A 
ATOM     21  C20 UNL     1      24.598  -8.920 -43.312  0.00  0.00    +0.000 A 
BRANCH  16  23
ATOM     22  C1  UNL     1      25.035  -6.087 -45.769  0.00  0.00    +0.000 C 
ATOM     23  O1  UNL     1      24.824  -7.386 -45.226  0.00  0.00    +0.000 OA
ENDBRANCH  16  23
ENDBRANCH   1  19
BRANCH   5  24
ATOM     24  C10 UNL     1      28.271 -10.007 -40.126  0.00  0.00    +0.000 C 
BRANCH  24  25
ATOM     25  C11 UNL     1      29.285  -8.989 -40.416  0.00  0.00    +0.000 C 
ATOM     26  N2  UNL     1      30.085  -8.185 -40.646  0.00  0.00    +0.000 NA
ENDBRANCH  24  25
ENDBRANCH   5  24
TORSDOF 4
ENDMDL
MODEL 5
REMARK VINA RESULT:    -5.199      3.445      7.136
REMARK INTER + INTRA:          -7.144
REMARK INTER:                  -6.396
REMARK INTRA:                  -0.748
REMARK UNBOUND:                -0.729
REMARK  Name = resultss/4CJN/ligands/lig_397_t0.pdb
REMARK  5 active torsions:
REMARK  status: ('A' for Active; 'I' for Inactive)
REMARK    1  A    between atoms: C1_1  and  O1_2
REMARK    2  A    between atoms: O1_2  and  C2_3
REMARK    3  A    between atoms: C5_6  and  C6_7
REMARK    4  A    between atoms: C9_11  and  C10_12
REMARK    5  A    between atoms: C10_12  and  C11_13
REMARK                            x       y       z     vdW  Elec       q    Type
REMARK                         _______ _______ _______ _____ _____    ______ ____
ROOT
ATOM      1  C6  UNL     1      26.752  -8.502 -41.756  0.00  0.00    +0.000 A 
ATOM      2  N1  UNL     1      25.487  -8.262 -42.179  0.00  0.00    +0.000 N 
ATOM      3  C7  UNL     1      25.590  -7.840 -43.454  0.00  0.00    +0.000 A 
ATOM      4  C8  UNL     1      26.900  -7.797 -43.849  0.00  0.00    +0.000 A 
ATOM      5  C9  UNL     1      27.671  -8.207 -42.772  0.00  0.00    +0.000 A 
ATOM      6  C12 UNL     1      27.231  -7.381 -45.141  0.00  0.00    +0.000 A 
ATOM      7  O2  UNL     1      28.428  -7.336 -45.527  0.00  0.00    +0.000 OA
ATOM      8  O3  UNL     1      26.250  -7.030 -45.976  0.00  0.00    +0.000 OA
ATOM      9  C13 UNL     1      24.955  -7.059 -45.630  0.00  0.00    +0.000 A 
ATOM     10  C14 UNL     1      23.980  -6.678 -46.557  0.00  0.00    +0.000 A 
ATOM     11  C15 UNL     1      22.627  -6.705 -46.203  0.00  0.00    +0.000 A 
ATOM     12  C16 UNL     1      22.240  -7.112 -44.922  0.00  0.00    +0.000 A 
ATOM     13  C17 UNL     1      23.203  -7.497 -43.982  0.00  0.00    +0.000 A 
ATOM     14  C18 UNL     1      24.563  -7.473 -44.329  0.00  0.00    +0.000 A 
ATOM     15  H6  UNL     1      24.613  -8.399 -41.625  0.00  0.00    +0.000 HD
ENDROOT
BRANCH   1  19
ATOM     16  C2  UNL     1      27.595  -9.904 -37.782  0.00  0.00    +0.000 A 
ATOM     17  C3  UNL     1      27.638 -10.788 -38.866  0.00  0.00    +0.000 A 
ATOM     18  C4  UNL     1      27.367 -10.338 -40.162  0.00  0.00    +0.000 A 
ATOM     19  C5  UNL     1      27.059  -8.988 -40.394  0.00  0.00    +0.000 A 
ATOM     20  C19 UNL     1      26.998  -8.104 -39.307  0.00  0.00    +0.000 A 
ATOM     21  C20 UNL     1      27.269  -8.554 -38.010  0.00  0.00    +0.000 A 
BRANCH  16  23
ATOM     22  C1  UNL     1      27.538  -9.742 -35.288  0.00  0.00    +0.000 C 
ATOM     23  O1  UNL     1      27.876 -10.405 -36.502  0.00  0.00    +0.000 OA
ENDBRANCH  16  23
ENDBRANCH   1  19
BRANCH   5  24
ATOM     24  C10 UNL     1      29.170  -8.261 -42.705  0.00  0.00    +0.000 C 
BRANCH  24  25
ATOM     25  C11 UNL     1      29.633  -9.642 -42.867  0.00  0.00    +0.000 C 
ATOM     26  N2  UNL     1      29.998 -10.733 -42.994  0.00  0.00    +0.000 NA
ENDBRANCH  24  25
ENDBRANCH   5  24
TORSDOF 4
ENDMDL
MODEL 6
REMARK VINA RESULT:    -5.154      3.212      5.910
REMARK INTER + INTRA:          -7.088
REMARK INTER:                  -6.500
REMARK INTRA:                  -0.589
REMARK UNBOUND:                -0.729
REMARK  Name = resultss/4CJN/ligands/lig_397_t0.pdb
REMARK  5 active torsions:
REMARK  status: ('A' for Active; 'I' for Inactive)
REMARK    1  A    between atoms: C1_1  and  O1_2
REMARK    2  A    between atoms: O1_2  and  C2_3
REMARK    3  A    between atoms: C5_6  and  C6_7
REMARK    4  A    between atoms: C9_11  and  C10_12
REMARK    5  A    between atoms: C10_12  and  C11_13
REMARK                            x       y       z     vdW  Elec       q    Type
REMARK                         _______ _______ _______ _____ _____    ______ ____
ROOT
ATOM      1  C6  UNL     1      26.330  -9.002 -39.841  0.00  0.00    +0.000 A 
ATOM      2  N1  UNL     1      26.190  -9.045 -38.494  0.00  0.00    +0.000 N 
ATOM      3  C7  UNL     1      27.412  -9.317 -37.997  0.00  0.00    +0.000 A 
ATOM      4  C8  UNL     1      28.327  -9.459 -39.005  0.00  0.00    +0.000 A 
ATOM      5  C9  UNL     1      27.656  -9.272 -40.204  0.00  0.00    +0.000 A 
ATOM      6  C12 UNL     1      29.662  -9.749 -38.707  0.00  0.00    +0.000 A 
ATOM      7  O2  UNL     1      30.521  -9.881 -39.618  0.00  0.00    +0.000 OA
ATOM      8  O3  UNL     1      30.022  -9.883 -37.429  0.00  0.00    +0.000 OA
ATOM      9  C13 UNL     1      29.158  -9.751 -36.412  0.00  0.00    +0.000 A 
ATOM     10  C14 UNL     1      29.606  -9.905 -35.096  0.00  0.00    +0.000 A 
ATOM     11  C15 UNL     1      28.710  -9.769 -34.030  0.00  0.00    +0.000 A 
ATOM     12  C16 UNL     1      27.363  -9.480 -34.272  0.00  0.00    +0.000 A 
ATOM     13  C17 UNL     1      26.899  -9.323 -35.583  0.00  0.00    +0.000 A 
ATOM     14  C18 UNL     1      27.790  -9.457 -36.658  0.00  0.00    +0.000 A 
ATOM     15  H6  UNL     1      25.310  -8.879 -37.957  0.00  0.00    +0.000 HD
ENDROOT
BRANCH   1  19
ATOM     16  C2  UNL     1      23.069  -8.145 -42.507  0.00  0.00    +0.000 A 
ATOM     17  C3  UNL     1      23.832  -9.306 -42.677  0.00  0.00    +0.000 A 
ATOM     18  C4  UNL     1      24.893  -9.592 -41.811  0.00  0.00    +0.000 A 
ATOM     19  C5  UNL     1      25.199  -8.723 -40.752  0.00  0.00    +0.000 A 
ATOM     20  C19 UNL     1      24.447  -7.549 -40.592  0.00  0.00    +0.000 A 
ATOM     21  C20 UNL     1      23.386  -7.263 -41.457  0.00  0.00    +0.000 A 
BRANCH  16  23
ATOM     22  C1  UNL     1      22.080  -6.992 -44.493  0.00  0.00    +0.000 C 
ATOM     23  O1  UNL     1      22.015  -7.905 -43.401  0.00  0.00    +0.000 OA
ENDBRANCH  16  23
ENDBRANCH   1  19
BRANCH   5  24
ATOM     24  C10 UNL     1      28.228  -9.396 -41.587  0.00  0.00    +0.000 C 
BRANCH  24  25
ATOM     25  C11 UNL     1      28.672  -8.085 -42.068  0.00  0.00    +0.000 C 
ATOM     26  N2  UNL     1      29.023  -7.049 -42.449  0.00  0.00    +0.000 NA
ENDBRANCH  24  25
ENDBRANCH   5  24
TORSDOF 4
ENDMDL
MODEL 7
REMARK VINA RESULT:    -5.020      3.365      7.149
REMARK INTER + INTRA:          -6.922
REMARK INTER:                  -6.640
REMARK INTRA:                  -0.283
REMARK UNBOUND:                -0.729
REMARK  Name = resultss/4CJN/ligands/lig_397_t0.pdb
REMARK  5 active torsions:
REMARK  status: ('A' for Active; 'I' for Inactive)
REMARK    1  A    between atoms: C1_1  and  O1_2
REMARK    2  A    between atoms: O1_2  and  C2_3
REMARK    3  A    between atoms: C5_6  and  C6_7
REMARK    4  A    between atoms: C9_11  and  C10_12
REMARK    5  A    between atoms: C10_12  and  C11_13
REMARK                            x       y       z     vdW  Elec       q    Type
REMARK                         _______ _______ _______ _____ _____    ______ ____
ROOT
ATOM      1  C6  UNL     1      29.344  -9.366 -36.437  0.00  0.00    +0.000 A 
ATOM      2  N1  UNL     1      29.747  -9.723 -37.681  0.00  0.00    +0.000 N 
ATOM      3  C7  UNL     1      28.709  -9.468 -38.501  0.00  0.00    +0.000 A 
ATOM      4  C8  UNL     1      27.647  -8.964 -37.799  0.00  0.00    +0.000 A 
ATOM      5  C9  UNL     1      28.024  -8.898 -36.467  0.00  0.00    +0.000 A 
ATOM      6  C12 UNL     1      26.461  -8.633 -38.461  0.00  0.00    +0.000 A 
ATOM      7  O2  UNL     1      25.473  -8.166 -37.837  0.00  0.00    +0.000 OA
ATOM      8  O3  UNL     1      26.388  -8.817 -39.782  0.00  0.00    +0.000 OA
ATOM      9  C13 UNL     1      27.404  -9.306 -40.506  0.00  0.00    +0.000 A 
ATOM     10  C14 UNL     1      27.257  -9.472 -41.887  0.00  0.00    +0.000 A 
ATOM     11  C15 UNL     1      28.313  -9.983 -42.649  0.00  0.00    +0.000 A 
ATOM     12  C16 UNL     1      29.521 -10.331 -42.037  0.00  0.00    +0.000 A 
ATOM     13  C17 UNL     1      29.686 -10.171 -40.656  0.00  0.00    +0.000 A 
ATOM     14  C18 UNL     1      28.631  -9.660 -39.883  0.00  0.00    +0.000 A 
ATOM     15  H6  UNL     1      30.684 -10.101 -37.944  0.00  0.00    +0.000 HD
ENDROOT
BRANCH   1  19
ATOM     16  C2  UNL     1      31.886  -9.684 -32.986  0.00  0.00    +0.000 A 
ATOM     17  C3  UNL     1      30.515  -9.944 -32.879  0.00  0.00    +0.000 A 
ATOM     18  C4  UNL     1      29.683  -9.845 -33.998  0.00  0.00    +0.000 A 
ATOM     19  C5  UNL     1      30.215  -9.494 -35.249  0.00  0.00    +0.000 A 
ATOM     20  C19 UNL     1      31.586  -9.215 -35.355  0.00  0.00    +0.000 A 
ATOM     21  C20 UNL     1      32.419  -9.315 -34.236  0.00  0.00    +0.000 A 
BRANCH  16  23
ATOM     22  C1  UNL     1      32.624 -10.896 -30.928  0.00  0.00    +0.000 C 
ATOM     23  O1  UNL     1      32.678  -9.798 -31.834  0.00  0.00    +0.000 OA
ENDBRANCH  16  23
ENDBRANCH   1  19
BRANCH   5  24
ATOM     24  C10 UNL     1      27.169  -8.472 -35.308  0.00  0.00    +0.000 C 
BRANCH  24  25
ATOM     25  C11 UNL     1      26.400  -9.612 -34.802  0.00  0.00    +0.000 C 
ATOM     26  N2  UNL     1      25.793 -10.513 -34.401  0.00  0.00    +0.000 NA
ENDBRANCH  24  25
ENDBRANCH   5  24
TORSDOF 4
ENDMDL
MODEL 8
REMARK VINA RESULT:    -4.902      2.480      7.350
REMARK INTER + INTRA:          -6.777
REMARK INTER:                  -5.980
REMARK INTRA:                  -0.797
REMARK UNBOUND:                -0.729
REMARK  Name = resultss/4CJN/ligands/lig_397_t0.pdb
REMARK  5 active torsions:
REMARK  status: ('A' for Active; 'I' for Inactive)
REMARK    1  A    between atoms: C1_1  and  O1_2
REMARK    2  A    between atoms: O1_2  and  C2_3
REMARK    3  A    between atoms: C5_6  and  C6_7
REMARK    4  A    between atoms: C9_11  and  C10_12
REMARK    5  A    between atoms: C10_12  and  C11_13
REMARK                            x       y       z     vdW  Elec       q    Type
REMARK                         _______ _______ _______ _____ _____    ______ ____
ROOT
ATOM      1  C6  UNL     1      28.454  -9.377 -41.650  0.00  0.00    +0.000 A 
ATOM      2  N1  UNL     1      29.263  -9.812 -42.646  0.00  0.00    +0.000 N 
ATOM      3  C7  UNL     1      30.490  -9.940 -42.107  0.00  0.00    +0.000 A 
ATOM      4  C8  UNL     1      30.480  -9.584 -40.785  0.00  0.00    +0.000 A 
ATOM      5  C9  UNL     1      29.185  -9.207 -40.466  0.00  0.00    +0.000 A 
ATOM      6  C12 UNL     1      31.658  -9.641 -40.033  0.00  0.00    +0.000 A 
ATOM      7  O2  UNL     1      31.672  -9.322 -38.816  0.00  0.00    +0.000 OA
ATOM      8  O3  UNL     1      32.782 -10.047 -40.628  0.00  0.00    +0.000 OA
ATOM      9  C13 UNL     1      32.835 -10.404 -41.919  0.00  0.00    +0.000 A 
ATOM     10  C14 UNL     1      34.049 -10.820 -42.476  0.00  0.00    +0.000 A 
ATOM     11  C15 UNL     1      34.111 -11.194 -43.822  0.00  0.00    +0.000 A 
ATOM     12  C16 UNL     1      32.963 -11.155 -44.620  0.00  0.00    +0.000 A 
ATOM     13  C17 UNL     1      31.740 -10.742 -44.079  0.00  0.00    +0.000 A 
ATOM     14  C18 UNL     1      31.668 -10.365 -42.728  0.00  0.00    +0.000 A 
ATOM     15  H6  UNL     1      28.977 -10.021 -43.628  0.00  0.00    +0.000 HD
ENDROOT
BRANCH   1  19
ATOM     16  C2  UNL     1      24.270  -8.624 -42.278  0.00  0.00    +0.000 A 
ATOM     17  C3  UNL     1      24.686  -9.788 -41.622  0.00  0.00    +0.000 A 
ATOM     18  C4  UNL     1      26.045 -10.038 -41.411  0.00  0.00    +0.000 A 
ATOM     19  C5  UNL     1      27.012  -9.117 -41.847  0.00  0.00    +0.000 A 
ATOM     20  C19 UNL     1      26.598  -7.959 -42.522  0.00  0.00    +0.000 A 
ATOM     21  C20 UNL     1      25.237  -7.708 -42.732  0.00  0.00    +0.000 A 
BRANCH  16  23
ATOM     22  C1  UNL     1      22.335  -7.582 -43.470  0.00  0.00    +0.000 C 
ATOM     23  O1  UNL     1      22.894  -8.420 -42.463  0.00  0.00    +0.000 OA
ENDBRANCH  16  23
ENDBRANCH   1  19
BRANCH   5  24
ATOM     24  C10 UNL     1      28.699  -8.675 -39.149  0.00  0.00    +0.000 C 
BRANCH  24  25
ATOM     25  C11 UNL     1      28.198  -9.773 -38.316  0.00  0.00    +0.000 C 
ATOM     26  N2  UNL     1      27.803 -10.639 -37.658  0.00  0.00    +0.000 NA
ENDBRANCH  24  25
ENDBRANCH   5  24
TORSDOF 4
ENDMDL
MODEL 9
REMARK VINA RESULT:    -4.902      3.420      5.451
REMARK INTER + INTRA:          -6.777
REMARK INTER:                  -5.968
REMARK INTRA:                  -0.809
REMARK UNBOUND:                -0.729
REMARK  Name = resultss/4CJN/ligands/lig_397_t0.pdb
REMARK  5 active torsions:
REMARK  status: ('A' for Active; 'I' for Inactive)
REMARK    1  A    between atoms: C1_1  and  O1_2
REMARK    2  A    between atoms: O1_2  and  C2_3
REMARK    3  A    between atoms: C5_6  and  C6_7
REMARK    4  A    between atoms: C9_11  and  C10_12
REMARK    5  A    between atoms: C10_12  and  C11_13
REMARK                            x       y       z     vdW  Elec       q    Type
REMARK                         _______ _______ _______ _____ _____    ______ ____
ROOT
ATOM      1  C6  UNL     1      28.680  -9.245 -38.076  0.00  0.00    +0.000 A 
ATOM      2  N1  UNL     1      29.889  -9.187 -37.466  0.00  0.00    +0.000 N 
ATOM      3  C7  UNL     1      29.668  -9.458 -36.165  0.00  0.00    +0.000 A 
ATOM      4  C8  UNL     1      28.337  -9.679 -35.933  0.00  0.00    +0.000 A 
ATOM      5  C9  UNL     1      27.676  -9.537 -37.144  0.00  0.00    +0.000 A 
ATOM      6  C12 UNL     1      27.889  -9.975 -34.643  0.00  0.00    +0.000 A 
ATOM      7  O2  UNL     1      26.670 -10.184 -34.407  0.00  0.00    +0.000 OA
ATOM      8  O3  UNL     1      28.779 -10.038 -33.651  0.00  0.00    +0.000 OA
ATOM      9  C13 UNL     1      30.090  -9.830 -33.835  0.00  0.00    +0.000 A 
ATOM     10  C14 UNL     1      30.966  -9.913 -32.748  0.00  0.00    +0.000 A 
ATOM     11  C15 UNL     1      32.336  -9.697 -32.933  0.00  0.00    +0.000 A 
ATOM     12  C16 UNL     1      32.838  -9.396 -34.203  0.00  0.00    +0.000 A 
ATOM     13  C17 UNL     1      31.976  -9.309 -35.302  0.00  0.00    +0.000 A 
ATOM     14  C18 UNL     1      30.600  -9.525 -35.125  0.00  0.00    +0.000 A 
ATOM     15  H6  UNL     1      30.805  -8.989 -37.926  0.00  0.00    +0.000 HD
ENDROOT
BRANCH   1  19
ATOM     16  C2  UNL     1      28.122  -8.575 -42.284  0.00  0.00    +0.000 A 
ATOM     17  C3  UNL     1      28.195  -7.492 -41.402  0.00  0.00    +0.000 A 
ATOM     18  C4  UNL     1      28.380  -7.702 -40.032  0.00  0.00    +0.000 A 
ATOM     19  C5  UNL     1      28.505  -9.006 -39.525  0.00  0.00    +0.000 A 
ATOM     20  C19 UNL     1      28.413 -10.094 -40.405  0.00  0.00    +0.000 A 
ATOM     21  C20 UNL     1      28.230  -9.883 -41.776  0.00  0.00    +0.000 A 
BRANCH  16  23
ATOM     22  C1  UNL     1      26.838  -7.583 -44.186  0.00  0.00    +0.000 C 
ATOM     23  O1  UNL     1      27.938  -8.310 -43.650  0.00  0.00    +0.000 OA
ENDBRANCH  16  23
ENDBRANCH   1  19
BRANCH   5  24
ATOM     24  C10 UNL     1      26.195  -9.622 -37.378  0.00  0.00    +0.000 C 
BRANCH  24  25
ATOM     25  C11 UNL     1      25.584  -8.298 -37.227  0.00  0.00    +0.000 C 
ATOM     26  N2  UNL     1      25.102  -7.252 -37.109  0.00  0.00    +0.000 NA
ENDBRANCH  24  25
ENDBRANCH   5  24
TORSDOF 4
ENDMDL
