MODEL 1
REMARK VINA RESULT:    -5.408      0.000      0.000
REMARK INTER + INTRA:          -6.215
REMARK INTER:                  -6.198
REMARK INTRA:                  -0.017
REMARK UNBOUND:                -0.017
REMARK  Name = resultss/4CJN/ligands/lig_291_t2.pdb
REMARK  5 active torsions:
REMARK  status: ('A' for Active; 'I' for Inactive)
REMARK    1  A    between atoms: C1_1  and  O1_2
REMARK    2  A    between atoms: O1_2  and  C2_3
REMARK    3  A    between atoms: C10_13  and  O4_14
REMARK    4  A    between atoms: C14_19  and  O6_20
REMARK    5  A    between atoms: O6_20  and  C15_21
REMARK                            x       y       z     vdW  Elec       q    Type
REMARK                         _______ _______ _______ _____ _____    ______ ____
ROOT
ATOM      1  C2  UNL     1      24.897  -8.631 -34.948  0.00  0.00    +0.000 A 
ATOM      2  C3  UNL     1      23.994  -7.775 -35.604  0.00  0.00    +0.000 A 
ATOM      3  C4  UNL     1      24.063  -7.584 -36.978  0.00  0.00    +0.000 A 
ATOM      4  C5  UNL     1      25.031  -8.238 -37.733  0.00  0.00    +0.000 A 
ATOM      5  O2  UNL     1      25.063  -8.029 -39.040  0.00  0.00    +0.000 OA
ATOM      6  C6  UNL     1      25.941  -8.599 -39.856  0.00  0.00    +0.000 A 
ATOM      7  C7  UNL     1      25.859  -8.298 -41.156  0.00  0.00    +0.000 C 
ATOM      8  C8  UNL     1      26.786  -8.879 -42.126  0.00  0.00    +0.000 C 
ATOM      9  O3  UNL     1      26.688  -8.579 -43.345  0.00  0.00    +0.000 OA
ATOM     10  C9  UNL     1      27.848  -9.827 -41.674  0.00  0.00    +0.000 C 
ATOM     11  C10 UNL     1      27.830 -10.079 -40.183  0.00  0.00    +0.000 C 
ATOM     12  C11 UNL     1      26.923  -9.491 -39.347  0.00  0.00    +0.000 A 
ATOM     13  C12 UNL     1      26.916  -9.737 -37.946  0.00  0.00    +0.000 A 
ATOM     14  O5  UNL     1      27.763 -10.520 -37.436  0.00  0.00    +0.000 OA
ATOM     15  C13 UNL     1      25.957  -9.104 -37.116  0.00  0.00    +0.000 A 
ATOM     16  C14 UNL     1      25.894  -9.307 -35.706  0.00  0.00    +0.000 A 
ENDROOT
BRANCH   1  18
ATOM     17  C1  UNL     1      23.616  -8.998 -32.821  0.00  0.00    +0.000 C 
ATOM     18  O1  UNL     1      24.821  -8.818 -33.560  0.00  0.00    +0.000 OA
ENDBRANCH   1  18
BRANCH  11  19
ATOM     19  O4  UNL     1      28.796 -10.957 -39.687  0.00  0.00    +0.000 OA
ATOM     20  H9  UNL     1      28.538 -11.811 -39.208  0.00  0.00    +0.000 HD
ENDBRANCH  11  19
BRANCH  16  21
ATOM     21  O6  UNL     1      26.833 -10.179 -35.116  0.00  0.00    +0.000 OA
ATOM     22  C15 UNL     1      27.937  -9.824 -34.290  0.00  0.00    +0.000 C 
ENDBRANCH  16  21
TORSDOF 3
ENDMDL
MODEL 2
REMARK VINA RESULT:    -5.344      1.572      6.571
REMARK INTER + INTRA:          -6.142
REMARK INTER:                  -6.078
REMARK INTRA:                  -0.064
REMARK UNBOUND:                -0.017
REMARK  Name = resultss/4CJN/ligands/lig_291_t2.pdb
REMARK  5 active torsions:
REMARK  status: ('A' for Active; 'I' for Inactive)
REMARK    1  A    between atoms: C1_1  and  O1_2
REMARK    2  A    between atoms: O1_2  and  C2_3
REMARK    3  A    between atoms: C10_13  and  O4_14
REMARK    4  A    between atoms: C14_19  and  O6_20
REMARK    5  A    between atoms: O6_20  and  C15_21
REMARK                            x       y       z     vdW  Elec       q    Type
REMARK                         _______ _______ _______ _____ _____    ______ ____
ROOT
ATOM      1  C2  UNL     1      28.520  -9.343 -38.812  0.00  0.00    +0.000 A 
ATOM      2  C3  UNL     1      29.132  -9.958 -37.705  0.00  0.00    +0.000 A 
ATOM      3  C4  UNL     1      28.481 -10.031 -36.481  0.00  0.00    +0.000 A 
ATOM      4  C5  UNL     1      27.207  -9.494 -36.327  0.00  0.00    +0.000 A 
ATOM      5  O2  UNL     1      26.621  -9.584 -35.143  0.00  0.00    +0.000 OA
ATOM      6  C6  UNL     1      25.409  -9.109 -34.883  0.00  0.00    +0.000 A 
ATOM      7  C7  UNL     1      24.938  -9.268 -33.642  0.00  0.00    +0.000 C 
ATOM      8  C8  UNL     1      23.614  -8.776 -33.267  0.00  0.00    +0.000 C 
ATOM      9  O3  UNL     1      23.193  -8.939 -32.092  0.00  0.00    +0.000 OA
ATOM     10  C9  UNL     1      22.760  -8.079 -34.275  0.00  0.00    +0.000 C 
ATOM     11  C10 UNL     1      23.411  -7.964 -35.635  0.00  0.00    +0.000 C 
ATOM     12  C11 UNL     1      24.658  -8.456 -35.898  0.00  0.00    +0.000 A 
ATOM     13  C12 UNL     1      25.260  -8.343 -37.182  0.00  0.00    +0.000 A 
ATOM     14  O5  UNL     1      24.643  -7.775 -38.123  0.00  0.00    +0.000 OA
ATOM     15  C13 UNL     1      26.557  -8.867 -37.410  0.00  0.00    +0.000 A 
ATOM     16  C14 UNL     1      27.218  -8.788 -38.671  0.00  0.00    +0.000 A 
ENDROOT
BRANCH   1  18
ATOM     17  C1  UNL     1      29.426 -10.378 -40.912  0.00  0.00    +0.000 C 
ATOM     18  O1  UNL     1      29.186  -9.273 -40.046  0.00  0.00    +0.000 OA
ENDBRANCH   1  18
BRANCH  11  19
ATOM     19  O4  UNL     1      22.670  -7.324 -36.630  0.00  0.00    +0.000 OA
ATOM     20  H9  UNL     1      22.437  -7.790 -37.498  0.00  0.00    +0.000 HD
ENDBRANCH  11  19
BRANCH  16  21
ATOM     21  O6  UNL     1      26.544  -8.156 -39.738  0.00  0.00    +0.000 OA
ATOM     22  C15 UNL     1      26.017  -8.770 -40.909  0.00  0.00    +0.000 C 
ENDBRANCH  16  21
TORSDOF 3
ENDMDL
MODEL 3
REMARK VINA RESULT:    -5.337      1.606      6.466
REMARK INTER + INTRA:          -6.134
REMARK INTER:                  -6.092
REMARK INTRA:                  -0.041
REMARK UNBOUND:                -0.017
REMARK  Name = resultss/4CJN/ligands/lig_291_t2.pdb
REMARK  5 active torsions:
REMARK  status: ('A' for Active; 'I' for Inactive)
REMARK    1  A    between atoms: C1_1  and  O1_2
REMARK    2  A    between atoms: O1_2  and  C2_3
REMARK    3  A    between atoms: C10_13  and  O4_14
REMARK    4  A    between atoms: C14_19  and  O6_20
REMARK    5  A    between atoms: O6_20  and  C15_21
REMARK                            x       y       z     vdW  Elec       q    Type
REMARK                         _______ _______ _______ _____ _____    ______ ____
ROOT
ATOM      1  C2  UNL     1      26.592  -9.299 -41.821  0.00  0.00    +0.000 A 
ATOM      2  C3  UNL     1      27.945  -9.684 -41.783  0.00  0.00    +0.000 A 
ATOM      3  C4  UNL     1      28.596  -9.881 -40.572  0.00  0.00    +0.000 A 
ATOM      4  C5  UNL     1      27.920  -9.700 -39.370  0.00  0.00    +0.000 A 
ATOM      5  O2  UNL     1      28.577  -9.898 -38.238  0.00  0.00    +0.000 OA
ATOM      6  C6  UNL     1      28.032  -9.755 -37.036  0.00  0.00    +0.000 A 
ATOM      7  C7  UNL     1      28.812  -9.986 -35.975  0.00  0.00    +0.000 C 
ATOM      8  C8  UNL     1      28.296  -9.852 -34.614  0.00  0.00    +0.000 C 
ATOM      9  O3  UNL     1      29.051 -10.076 -33.632  0.00  0.00    +0.000 OA
ATOM     10  C9  UNL     1      26.876  -9.450 -34.386  0.00  0.00    +0.000 C 
ATOM     11  C10 UNL     1      26.106  -9.219 -35.668  0.00  0.00    +0.000 C 
ATOM     12  C11 UNL     1      26.671  -9.368 -36.903  0.00  0.00    +0.000 A 
ATOM     13  C12 UNL     1      25.937  -9.148 -38.101  0.00  0.00    +0.000 A 
ATOM     14  O5  UNL     1      24.725  -8.804 -38.047  0.00  0.00    +0.000 OA
ATOM     15  C13 UNL     1      26.564  -9.314 -39.362  0.00  0.00    +0.000 A 
ATOM     16  C14 UNL     1      25.887  -9.110 -40.600  0.00  0.00    +0.000 A 
ENDROOT
BRANCH   1  18
ATOM     17  C1  UNL     1      26.043  -7.930 -43.851  0.00  0.00    +0.000 C 
ATOM     18  O1  UNL     1      25.942  -9.102 -43.048  0.00  0.00    +0.000 OA
ENDBRANCH   1  18
BRANCH  11  19
ATOM     19  O4  UNL     1      24.770  -8.840 -35.533  0.00  0.00    +0.000 OA
ATOM     20  H9  UNL     1      24.135  -9.346 -34.928  0.00  0.00    +0.000 HD
ENDBRANCH  11  19
BRANCH  16  21
ATOM     21  O6  UNL     1      24.530  -8.724 -40.562  0.00  0.00    +0.000 OA
ATOM     22  C15 UNL     1      23.987  -7.450 -40.895  0.00  0.00    +0.000 C 
ENDBRANCH  16  21
TORSDOF 3
ENDMDL
MODEL 4
REMARK VINA RESULT:    -5.210      1.310      6.015
REMARK INTER + INTRA:          -5.988
REMARK INTER:                  -5.925
REMARK INTRA:                  -0.063
REMARK UNBOUND:                -0.017
REMARK  Name = resultss/4CJN/ligands/lig_291_t2.pdb
REMARK  5 active torsions:
REMARK  status: ('A' for Active; 'I' for Inactive)
REMARK    1  A    between atoms: C1_1  and  O1_2
REMARK    2  A    between atoms: O1_2  and  C2_3
REMARK    3  A    between atoms: C10_13  and  O4_14
REMARK    4  A    between atoms: C14_19  and  O6_20
REMARK    5  A    between atoms: O6_20  and  C15_21
REMARK                            x       y       z     vdW  Elec       q    Type
REMARK                         _______ _______ _______ _____ _____    ______ ____
ROOT
ATOM      1  C2  UNL     1      26.264  -8.214 -40.680  0.00  0.00    +0.000 A 
ATOM      2  C3  UNL     1      25.228  -7.264 -40.658  0.00  0.00    +0.000 A 
ATOM      3  C4  UNL     1      24.546  -6.979 -39.482  0.00  0.00    +0.000 A 
ATOM      4  C5  UNL     1      24.876  -7.633 -38.300  0.00  0.00    +0.000 A 
ATOM      5  O2  UNL     1      24.202  -7.333 -37.200  0.00  0.00    +0.000 OA
ATOM      6  C6  UNL     1      24.432  -7.893 -36.020  0.00  0.00    +0.000 A 
ATOM      7  C7  UNL     1      23.675  -7.497 -34.992  0.00  0.00    +0.000 C 
ATOM      8  C8  UNL     1      23.859  -8.060 -33.656  0.00  0.00    +0.000 C 
ATOM      9  O3  UNL     1      23.133  -7.670 -32.704  0.00  0.00    +0.000 OA
ATOM     10  C9  UNL     1      24.906  -9.099 -33.417  0.00  0.00    +0.000 C 
ATOM     11  C10 UNL     1      25.689  -9.456 -34.661  0.00  0.00    +0.000 C 
ATOM     12  C11 UNL     1      25.449  -8.876 -35.874  0.00  0.00    +0.000 A 
ATOM     13  C12 UNL     1      26.192  -9.220 -37.037  0.00  0.00    +0.000 A 
ATOM     14  O5  UNL     1      27.107 -10.086 -36.970  0.00  0.00    +0.000 OA
ATOM     15  C13 UNL     1      25.908  -8.594 -38.276  0.00  0.00    +0.000 A 
ATOM     16  C14 UNL     1      26.614  -8.892 -39.478  0.00  0.00    +0.000 A 
ENDROOT
BRANCH   1  18
ATOM     17  C1  UNL     1      26.406  -9.209 -42.980  0.00  0.00    +0.000 C 
ATOM     18  O1  UNL     1      26.948  -8.496 -41.872  0.00  0.00    +0.000 OA
ENDBRANCH   1  18
BRANCH  11  19
ATOM     19  O4  UNL     1      26.687 -10.421 -34.514  0.00  0.00    +0.000 OA
ATOM     20  H9  UNL     1      27.666 -10.166 -34.469  0.00  0.00    +0.000 HD
ENDBRANCH  11  19
BRANCH  16  21
ATOM     21  O6  UNL     1      27.642  -9.858 -39.426  0.00  0.00    +0.000 OA
ATOM     22  C15 UNL     1      27.645 -11.147 -40.030  0.00  0.00    +0.000 C 
ENDBRANCH  16  21
TORSDOF 3
ENDMDL
MODEL 5
REMARK VINA RESULT:    -5.150      1.260      3.120
REMARK INTER + INTRA:          -5.919
REMARK INTER:                  -5.887
REMARK INTRA:                  -0.032
REMARK UNBOUND:                -0.017
REMARK  Name = resultss/4CJN/ligands/lig_291_t2.pdb
REMARK  5 active torsions:
REMARK  status: ('A' for Active; 'I' for Inactive)
REMARK    1  A    between atoms: C1_1  and  O1_2
REMARK    2  A    between atoms: O1_2  and  C2_3
REMARK    3  A    between atoms: C10_13  and  O4_14
REMARK    4  A    between atoms: C14_19  and  O6_20
REMARK    5  A    between atoms: O6_20  and  C15_21
REMARK                            x       y       z     vdW  Elec       q    Type
REMARK                         _______ _______ _______ _____ _____    ______ ____
ROOT
ATOM      1  C2  UNL     1      24.922  -8.472 -34.268  0.00  0.00    +0.000 A 
ATOM      2  C3  UNL     1      25.949  -9.368 -33.918  0.00  0.00    +0.000 A 
ATOM      3  C4  UNL     1      26.771  -9.925 -34.890  0.00  0.00    +0.000 A 
ATOM      4  C5  UNL     1      26.592  -9.606 -36.232  0.00  0.00    +0.000 A 
ATOM      5  O2  UNL     1      27.396 -10.159 -37.126  0.00  0.00    +0.000 OA
ATOM      6  C6  UNL     1      27.317  -9.927 -38.430  0.00  0.00    +0.000 A 
ATOM      7  C7  UNL     1      28.194 -10.553 -39.222  0.00  0.00    +0.000 C 
ATOM      8  C8  UNL     1      28.179 -10.356 -40.670  0.00  0.00    +0.000 C 
ATOM      9  O3  UNL     1      29.016 -10.958 -41.394  0.00  0.00    +0.000 OA
ATOM     10  C9  UNL     1      27.174  -9.445 -41.294  0.00  0.00    +0.000 C 
ATOM     11  C10 UNL     1      26.243  -8.803 -40.289  0.00  0.00    +0.000 C 
ATOM     12  C11 UNL     1      26.330  -9.044 -38.947  0.00  0.00    +0.000 A 
ATOM     13  C12 UNL     1      25.449  -8.434 -38.011  0.00  0.00    +0.000 A 
ATOM     14  O5  UNL     1      24.553  -7.641 -38.408  0.00  0.00    +0.000 OA
ATOM     15  C13 UNL     1      25.574  -8.714 -36.627  0.00  0.00    +0.000 A 
ATOM     16  C14 UNL     1      24.726  -8.136 -35.637  0.00  0.00    +0.000 A 
ENDROOT
BRANCH   1  18
ATOM     17  C1  UNL     1      23.179  -8.644 -32.470  0.00  0.00    +0.000 C 
ATOM     18  O1  UNL     1      24.096  -7.914 -33.280  0.00  0.00    +0.000 OA
ENDBRANCH   1  18
BRANCH  11  19
ATOM     19  O4  UNL     1      25.275  -7.936 -40.799  0.00  0.00    +0.000 OA
ATOM     20  H9  UNL     1      24.312  -7.979 -40.491  0.00  0.00    +0.000 HD
ENDBRANCH  11  19
BRANCH  16  21
ATOM     21  O6  UNL     1      23.716  -7.246 -36.061  0.00  0.00    +0.000 OA
ATOM     22  C15 UNL     1      22.313  -7.377 -35.859  0.00  0.00    +0.000 C 
ENDBRANCH  16  21
TORSDOF 3
ENDMDL
MODEL 6
REMARK VINA RESULT:    -5.126      2.588      7.313
REMARK INTER + INTRA:          -5.891
REMARK INTER:                  -5.868
REMARK INTRA:                  -0.023
REMARK UNBOUND:                -0.017
REMARK  Name = resultss/4CJN/ligands/lig_291_t2.pdb
REMARK  5 active torsions:
REMARK  status: ('A' for Active; 'I' for Inactive)
REMARK    1  A    between atoms: C1_1  and  O1_2
REMARK    2  A    between atoms: O1_2  and  C2_3
REMARK    3  A    between atoms: C10_13  and  O4_14
REMARK    4  A    between atoms: C14_19  and  O6_20
REMARK    5  A    between atoms: O6_20  and  C15_21
REMARK                            x       y       z     vdW  Elec       q    Type
REMARK                         _______ _______ _______ _____ _____    ______ ____
ROOT
ATOM      1  C2  UNL     1      30.427  -9.776 -41.130  0.00  0.00    +0.000 A 
ATOM      2  C3  UNL     1      31.698  -9.611 -40.550  0.00  0.00    +0.000 A 
ATOM      3  C4  UNL     1      31.848  -9.546 -39.171  0.00  0.00    +0.000 A 
ATOM      4  C5  UNL     1      30.741  -9.642 -38.335  0.00  0.00    +0.000 A 
ATOM      5  O2  UNL     1      30.928  -9.576 -37.026  0.00  0.00    +0.000 OA
ATOM      6  C6  UNL     1      29.946  -9.656 -36.137  0.00  0.00    +0.000 A 
ATOM      7  C7  UNL     1      30.277  -9.573 -34.844  0.00  0.00    +0.000 C 
ATOM      8  C8  UNL     1      29.260  -9.652 -33.797  0.00  0.00    +0.000 C 
ATOM      9  O3  UNL     1      29.598  -9.571 -32.587  0.00  0.00    +0.000 OA
ATOM     10  C9  UNL     1      27.822  -9.827 -34.160  0.00  0.00    +0.000 C 
ATOM     11  C10 UNL     1      27.586  -9.905 -35.652  0.00  0.00    +0.000 C 
ATOM     12  C11 UNL     1      28.600  -9.823 -36.563  0.00  0.00    +0.000 A 
ATOM     13  C12 UNL     1      28.366  -9.898 -37.964  0.00  0.00    +0.000 A 
ATOM     14  O5  UNL     1      27.192 -10.046 -38.402  0.00  0.00    +0.000 OA
ATOM     15  C13 UNL     1      29.448  -9.807 -38.874  0.00  0.00    +0.000 A 
ATOM     16  C14 UNL     1      29.283  -9.875 -40.289  0.00  0.00    +0.000 A 
ENDROOT
BRANCH   1  18
ATOM     17  C1  UNL     1      31.010 -10.712 -43.384  0.00  0.00    +0.000 C 
ATOM     18  O1  UNL     1      30.283  -9.840 -42.524  0.00  0.00    +0.000 OA
ENDBRANCH   1  18
BRANCH  11  19
ATOM     19  O4  UNL     1      26.263 -10.069 -36.066  0.00  0.00    +0.000 OA
ATOM     20  H9  UNL     1      25.517  -9.497 -35.691  0.00  0.00    +0.000 HD
ENDBRANCH  11  19
BRANCH  16  21
ATOM     21  O6  UNL     1      27.978 -10.040 -40.800  0.00  0.00    +0.000 OA
ATOM     22  C15 UNL     1      27.201  -9.077 -41.503  0.00  0.00    +0.000 C 
ENDBRANCH  16  21
TORSDOF 3
ENDMDL
MODEL 7
REMARK VINA RESULT:    -4.724      4.215      7.749
REMARK INTER + INTRA:          -5.431
REMARK INTER:                  -5.366
REMARK INTRA:                  -0.065
REMARK UNBOUND:                -0.017
REMARK  Name = resultss/4CJN/ligands/lig_291_t2.pdb
REMARK  5 active torsions:
REMARK  status: ('A' for Active; 'I' for Inactive)
REMARK    1  A    between atoms: C1_1  and  O1_2
REMARK    2  A    between atoms: O1_2  and  C2_3
REMARK    3  A    between atoms: C10_13  and  O4_14
REMARK    4  A    between atoms: C14_19  and  O6_20
REMARK    5  A    between atoms: O6_20  and  C15_21
REMARK                            x       y       z     vdW  Elec       q    Type
REMARK                         _______ _______ _______ _____ _____    ______ ____
ROOT
ATOM      1  C2  UNL     1      23.068  -6.761 -44.982  0.00  0.00    +0.000 A 
ATOM      2  C3  UNL     1      22.198  -7.316 -44.026  0.00  0.00    +0.000 A 
ATOM      3  C4  UNL     1      22.682  -8.132 -43.011  0.00  0.00    +0.000 A 
ATOM      4  C5  UNL     1      24.040  -8.417 -42.922  0.00  0.00    +0.000 A 
ATOM      5  O2  UNL     1      24.461  -9.200 -41.940  0.00  0.00    +0.000 OA
ATOM      6  C6  UNL     1      25.731  -9.536 -41.760  0.00  0.00    +0.000 A 
ATOM      7  C7  UNL     1      26.016 -10.335 -40.726  0.00  0.00    +0.000 C 
ATOM      8  C8  UNL     1      27.388 -10.757 -40.453  0.00  0.00    +0.000 C 
ATOM      9  O3  UNL     1      27.630 -11.509 -39.472  0.00  0.00    +0.000 OA
ATOM     10  C9  UNL     1      28.504 -10.298 -41.333  0.00  0.00    +0.000 C 
ATOM     11  C10 UNL     1      28.046  -9.403 -42.463  0.00  0.00    +0.000 C 
ATOM     12  C11 UNL     1      26.736  -9.058 -42.644  0.00  0.00    +0.000 A 
ATOM     13  C12 UNL     1      26.317  -8.214 -43.710  0.00  0.00    +0.000 A 
ATOM     14  O5  UNL     1      27.163  -7.758 -44.526  0.00  0.00    +0.000 OA
ATOM     15  C13 UNL     1      24.947  -7.883 -43.860  0.00  0.00    +0.000 A 
ATOM     16  C14 UNL     1      24.461  -7.044 -44.905  0.00  0.00    +0.000 A 
ENDROOT
BRANCH   1  18
ATOM     17  C1  UNL     1      21.758  -6.377 -47.088  0.00  0.00    +0.000 C 
ATOM     18  O1  UNL     1      22.571  -5.938 -46.004  0.00  0.00    +0.000 OA
ENDBRANCH   1  18
BRANCH  11  19
ATOM     19  O4  UNL     1      29.036  -8.933 -43.328  0.00  0.00    +0.000 OA
ATOM     20  H9  UNL     1      29.913  -9.425 -43.443  0.00  0.00    +0.000 HD
ENDBRANCH  11  19
BRANCH  16  21
ATOM     21  O6  UNL     1      25.391  -6.523 -45.830  0.00  0.00    +0.000 OA
ATOM     22  C15 UNL     1      25.539  -6.884 -47.199  0.00  0.00    +0.000 C 
ENDBRANCH  16  21
TORSDOF 3
ENDMDL
MODEL 8
REMARK VINA RESULT:    -4.706      3.468      6.730
REMARK INTER + INTRA:          -5.411
REMARK INTER:                  -5.352
REMARK INTRA:                  -0.059
REMARK UNBOUND:                -0.017
REMARK  Name = resultss/4CJN/ligands/lig_291_t2.pdb
REMARK  5 active torsions:
REMARK  status: ('A' for Active; 'I' for Inactive)
REMARK    1  A    between atoms: C1_1  and  O1_2
REMARK    2  A    between atoms: O1_2  and  C2_3
REMARK    3  A    between atoms: C10_13  and  O4_14
REMARK    4  A    between atoms: C14_19  and  O6_20
REMARK    5  A    between atoms: O6_20  and  C15_21
REMARK                            x       y       z     vdW  Elec       q    Type
REMARK                         _______ _______ _______ _____ _____    ______ ____
ROOT
ATOM      1  C2  UNL     1      27.720  -9.381 -41.131  0.00  0.00    +0.000 A 
ATOM      2  C3  UNL     1      28.848  -9.033 -41.896  0.00  0.00    +0.000 A 
ATOM      3  C4  UNL     1      28.706  -8.456 -43.152  0.00  0.00    +0.000 A 
ATOM      4  C5  UNL     1      27.442  -8.212 -43.677  0.00  0.00    +0.000 A 
ATOM      5  O2  UNL     1      27.351  -7.660 -44.878  0.00  0.00    +0.000 OA
ATOM      6  C6  UNL     1      26.199  -7.383 -45.474  0.00  0.00    +0.000 A 
ATOM      7  C7  UNL     1      26.253  -6.826 -46.689  0.00  0.00    +0.000 C 
ATOM      8  C8  UNL     1      25.033  -6.488 -47.420  0.00  0.00    +0.000 C 
ATOM      9  O3  UNL     1      25.111  -5.964 -48.562  0.00  0.00    +0.000 OA
ATOM     10  C9  UNL     1      23.695  -6.762 -46.816  0.00  0.00    +0.000 C 
ATOM     11  C10 UNL     1      23.776  -7.393 -45.443  0.00  0.00    +0.000 C 
ATOM     12  C11 UNL     1      24.965  -7.676 -44.832  0.00  0.00    +0.000 A 
ATOM     13  C12 UNL     1      25.029  -8.268 -43.541  0.00  0.00    +0.000 A 
ATOM     14  O5  UNL     1      23.967  -8.550 -42.920  0.00  0.00    +0.000 OA
ATOM     15  C13 UNL     1      26.284  -8.546 -42.945  0.00  0.00    +0.000 A 
ATOM     16  C14 UNL     1      26.419  -9.138 -41.654  0.00  0.00    +0.000 A 
ENDROOT
BRANCH   1  18
ATOM     17  C1  UNL     1      28.360  -9.292 -38.705  0.00  0.00    +0.000 C 
ATOM     18  O1  UNL     1      27.871  -9.963 -39.863  0.00  0.00    +0.000 OA
ENDBRANCH   1  18
BRANCH  11  19
ATOM     19  O4  UNL     1      22.563  -7.678 -44.815  0.00  0.00    +0.000 OA
ATOM     20  H9  UNL     1      21.984  -6.944 -44.426  0.00  0.00    +0.000 HD
ENDBRANCH  11  19
BRANCH  16  21
ATOM     21  O6  UNL     1      25.244  -9.461 -40.943  0.00  0.00    +0.000 OA
ATOM     22  C15 UNL     1      24.717  -8.795 -39.801  0.00  0.00    +0.000 C 
ENDBRANCH  16  21
TORSDOF 3
ENDMDL
MODEL 9
REMARK VINA RESULT:    -4.644      7.272      9.466
REMARK INTER + INTRA:          -5.339
REMARK INTER:                  -5.335
REMARK INTRA:                  -0.005
REMARK UNBOUND:                -0.017
REMARK  Name = resultss/4CJN/ligands/lig_291_t2.pdb
REMARK  5 active torsions:
REMARK  status: ('A' for Active; 'I' for Inactive)
REMARK    1  A    between atoms: C1_1  and  O1_2
REMARK    2  A    between atoms: O1_2  and  C2_3
REMARK    3  A    between atoms: C10_13  and  O4_14
REMARK    4  A    between atoms: C14_19  and  O6_20
REMARK    5  A    between atoms: O6_20  and  C15_21
REMARK                            x       y       z     vdW  Elec       q    Type
REMARK                         _______ _______ _______ _____ _____    ______ ____
ROOT
ATOM      1  C2  UNL     1      19.913  -6.707 -44.459  0.00  0.00    +0.000 A 
ATOM      2  C3  UNL     1      20.485  -6.815 -43.178  0.00  0.00    +0.000 A 
ATOM      3  C4  UNL     1      21.860  -6.933 -43.020  0.00  0.00    +0.000 A 
ATOM      4  C5  UNL     1      22.699  -6.947 -44.130  0.00  0.00    +0.000 A 
ATOM      5  O2  UNL     1      24.004  -7.062 -43.936  0.00  0.00    +0.000 OA
ATOM      6  C6  UNL     1      24.894  -7.086 -44.919  0.00  0.00    +0.000 A 
ATOM      7  C7  UNL     1      26.182  -7.206 -44.580  0.00  0.00    +0.000 C 
ATOM      8  C8  UNL     1      27.231  -7.241 -45.597  0.00  0.00    +0.000 C 
ATOM      9  O3  UNL     1      28.437  -7.355 -45.252  0.00  0.00    +0.000 OA
ATOM     10  C9  UNL     1      26.877  -7.143 -47.045  0.00  0.00    +0.000 C 
ATOM     11  C10 UNL     1      25.390  -7.012 -47.289  0.00  0.00    +0.000 C 
ATOM     12  C11 UNL     1      24.476  -6.987 -46.274  0.00  0.00    +0.000 A 
ATOM     13  C12 UNL     1      23.080  -6.863 -46.516  0.00  0.00    +0.000 A 
ATOM     14  O5  UNL     1      22.648  -6.771 -47.697  0.00  0.00    +0.000 OA
ATOM     15  C13 UNL     1      22.167  -6.842 -45.432  0.00  0.00    +0.000 A 
ATOM     16  C14 UNL     1      20.757  -6.720 -45.604  0.00  0.00    +0.000 A 
ENDROOT
BRANCH   1  18
ATOM     17  C1  UNL     1      17.555  -6.998 -43.648  0.00  0.00    +0.000 C 
ATOM     18  O1  UNL     1      18.523  -6.588 -44.610  0.00  0.00    +0.000 OA
ENDBRANCH   1  18
BRANCH  11  19
ATOM     19  O4  UNL     1      24.982  -6.915 -48.621  0.00  0.00    +0.000 OA
ATOM     20  H9  UNL     1      24.240  -7.496 -48.990  0.00  0.00    +0.000 HD
ENDBRANCH  11  19
BRANCH  16  21
ATOM     21  O6  UNL     1      20.253  -6.616 -46.918  0.00  0.00    +0.000 OA
ATOM     22  C15 UNL     1      19.329  -7.490 -47.558  0.00  0.00    +0.000 C 
ENDBRANCH  16  21
TORSDOF 3
ENDMDL
