MODEL 1
REMARK VINA RESULT:    -7.506      0.000      0.000
REMARK INTER + INTRA:         -10.737
REMARK INTER:                  -9.919
REMARK INTRA:                  -0.817
REMARK UNBOUND:                -0.817
REMARK  Name = resultss/4CJN/ligands/lig_426_t1.pdb
REMARK  7 active torsions:
REMARK  status: ('A' for Active; 'I' for Inactive)
REMARK    1  A    between atoms: C1_1  and  O1_2
REMARK    2  A    between atoms: O1_2  and  C2_3
REMARK    3  A    between atoms: C5_6  and  N1_7
REMARK    4  A    between atoms: C6_8  and  S1_9
REMARK    5  A    between atoms: N2_10  and  N3_11
REMARK    6  A    between atoms: C7_12  and  C8_14
REMARK    7  A    between atoms: C18_25  and  C19_26
REMARK                            x       y       z     vdW  Elec       q    Type
REMARK                         _______ _______ _______ _____ _____    ______ ____
ROOT
ATOM      1  C8  UNL     1      28.582  -9.232 -38.643  0.00  0.00    +0.000 A 
ATOM      2  C9  UNL     1      27.955  -9.145 -37.380  0.00  0.00    +0.000 A 
ATOM      3  C10 UNL     1      26.608  -8.804 -37.361  0.00  0.00    +0.000 A 
ATOM      4  C11 UNL     1      25.896  -8.564 -38.516  0.00  0.00    +0.000 A 
ATOM      5  N4  UNL     1      24.624  -8.186 -38.242  0.00  0.00    +0.000 N 
ATOM      6  C12 UNL     1      24.540  -8.209 -36.894  0.00  0.00    +0.000 A 
ATOM      7  C13 UNL     1      23.432  -7.886 -36.114  0.00  0.00    +0.000 A 
ATOM      8  C14 UNL     1      23.565  -7.959 -34.716  0.00  0.00    +0.000 A 
ATOM      9  C15 UNL     1      24.793  -8.343 -34.130  0.00  0.00    +0.000 A 
ATOM     10  C16 UNL     1      25.901  -8.659 -34.937  0.00  0.00    +0.000 A 
ATOM     11  C17 UNL     1      25.737  -8.584 -36.319  0.00  0.00    +0.000 A 
ATOM     12  C18 UNL     1      26.524  -8.671 -39.765  0.00  0.00    +0.000 A 
ATOM     13  N5  UNL     1      27.853  -8.992 -39.779  0.00  0.00    +0.000 NA
ATOM     14  H10 UNL     1      23.875  -7.899 -38.910  0.00  0.00    +0.000 HD
ENDROOT
BRANCH  12  15
ATOM     15  C19 UNL     1      25.819  -8.448 -41.044  0.00  0.00    +0.000 A 
ATOM     16  C20 UNL     1      25.292  -9.525 -41.778  0.00  0.00    +0.000 A 
ATOM     17  C21 UNL     1      24.652  -9.299 -43.001  0.00  0.00    +0.000 A 
ATOM     18  C22 UNL     1      24.544  -8.001 -43.506  0.00  0.00    +0.000 A 
ATOM     19  C23 UNL     1      25.084  -6.927 -42.794  0.00  0.00    +0.000 A 
ATOM     20  C24 UNL     1      25.726  -7.148 -41.571  0.00  0.00    +0.000 A 
ENDBRANCH  12  15
BRANCH   1  22
ATOM     21  N3  UNL     1      30.720  -9.377 -39.990  0.00  0.00    +0.000 N 
ATOM     22  C7  UNL     1      30.016  -9.574 -38.754  0.00  0.00    +0.000 C 
ATOM     23  O2  UNL     1      30.628 -10.041 -37.754  0.00  0.00    +0.000 OA
ATOM     24  H8  UNL     1      30.204  -8.991 -40.811  0.00  0.00    +0.000 HD
BRANCH  21  27
ATOM     25  N1  UNL     1      31.822 -10.613 -42.279  0.00  0.00    +0.000 NA
ATOM     26  C6  UNL     1      32.610 -10.345 -41.277  0.00  0.00    +0.000 C 
ATOM     27  N2  UNL     1      32.086  -9.693 -40.114  0.00  0.00    +0.000 N 
ATOM     28  H7  UNL     1      32.748  -9.453 -39.342  0.00  0.00    +0.000 HD
BRANCH  25  32
ATOM     29  C2  UNL     1      32.947 -12.718 -45.796  0.00  0.00    +0.000 A 
ATOM     30  C3  UNL     1      33.246 -11.347 -45.672  0.00  0.00    +0.000 A 
ATOM     31  C4  UNL     1      32.872 -10.645 -44.523  0.00  0.00    +0.000 A 
ATOM     32  C5  UNL     1      32.174 -11.295 -43.491  0.00  0.00    +0.000 A 
ATOM     33  C25 UNL     1      31.909 -12.665 -43.601  0.00  0.00    +0.000 A 
ATOM     34  C26 UNL     1      32.282 -13.367 -44.750  0.00  0.00    +0.000 A 
BRANCH  29  36
ATOM     35  C1  UNL     1      33.290 -14.889 -46.988  0.00  0.00    +0.000 C 
ATOM     36  O1  UNL     1      33.298 -13.466 -46.930  0.00  0.00    +0.000 OA
ENDBRANCH  29  36
ENDBRANCH  25  32
BRANCH  26  37
ATOM     37  S1  UNL     1      34.379 -10.667 -41.345  0.00  0.00    +0.000 S 
ATOM     38  H6  UNL     1      34.341 -11.423 -40.159  0.00  0.00    +0.000 HD
ENDBRANCH  26  37
ENDBRANCH  21  27
ENDBRANCH   1  22
TORSDOF 6
ENDMDL
MODEL 2
REMARK VINA RESULT:    -7.342      0.910      4.425
REMARK INTER + INTRA:         -10.520
REMARK INTER:                 -10.183
REMARK INTRA:                  -0.337
REMARK UNBOUND:                -0.817
REMARK  Name = resultss/4CJN/ligands/lig_426_t1.pdb
REMARK  7 active torsions:
REMARK  status: ('A' for Active; 'I' for Inactive)
REMARK    1  A    between atoms: C1_1  and  O1_2
REMARK    2  A    between atoms: O1_2  and  C2_3
REMARK    3  A    between atoms: C5_6  and  N1_7
REMARK    4  A    between atoms: C6_8  and  S1_9
REMARK    5  A    between atoms: N2_10  and  N3_11
REMARK    6  A    between atoms: C7_12  and  C8_14
REMARK    7  A    between atoms: C18_25  and  C19_26
REMARK                            x       y       z     vdW  Elec       q    Type
REMARK                         _______ _______ _______ _____ _____    ______ ____
ROOT
ATOM      1  C8  UNL     1      28.351  -9.201 -39.495  0.00  0.00    +0.000 A 
ATOM      2  C9  UNL     1      27.710  -8.952 -40.728  0.00  0.00    +0.000 A 
ATOM      3  C10 UNL     1      26.355  -8.643 -40.691  0.00  0.00    +0.000 A 
ATOM      4  C11 UNL     1      25.652  -8.572 -39.507  0.00  0.00    +0.000 A 
ATOM      5  N4  UNL     1      24.339  -8.322 -39.728  0.00  0.00    +0.000 N 
ATOM      6  C12 UNL     1      24.229  -8.218 -41.070  0.00  0.00    +0.000 A 
ATOM      7  C13 UNL     1      23.068  -7.977 -41.803  0.00  0.00    +0.000 A 
ATOM      8  C14 UNL     1      23.173  -7.925 -43.205  0.00  0.00    +0.000 A 
ATOM      9  C15 UNL     1      24.419  -8.121 -43.841  0.00  0.00    +0.000 A 
ATOM     10  C16 UNL     1      25.577  -8.370 -43.081  0.00  0.00    +0.000 A 
ATOM     11  C17 UNL     1      25.444  -8.408 -41.694  0.00  0.00    +0.000 A 
ATOM     12  C18 UNL     1      26.303  -8.804 -38.287  0.00  0.00    +0.000 A 
ATOM     13  N5  UNL     1      27.632  -9.122 -38.329  0.00  0.00    +0.000 NA
ATOM     14  H10 UNL     1      23.565  -8.260 -39.031  0.00  0.00    +0.000 HD
ENDROOT
BRANCH  12  15
ATOM     15  C19 UNL     1      25.617  -8.724 -36.981  0.00  0.00    +0.000 A 
ATOM     16  C20 UNL     1      24.448  -7.961 -36.820  0.00  0.00    +0.000 A 
ATOM     17  C21 UNL     1      23.829  -7.873 -35.570  0.00  0.00    +0.000 A 
ATOM     18  C22 UNL     1      24.377  -8.535 -34.468  0.00  0.00    +0.000 A 
ATOM     19  C23 UNL     1      25.551  -9.278 -34.613  0.00  0.00    +0.000 A 
ATOM     20  C24 UNL     1      26.175  -9.368 -35.862  0.00  0.00    +0.000 A 
ENDBRANCH  12  15
BRANCH   1  22
ATOM     21  N3  UNL     1      30.611  -9.419 -40.613  0.00  0.00    +0.000 N 
ATOM     22  C7  UNL     1      29.786  -9.551 -39.444  0.00  0.00    +0.000 C 
ATOM     23  O2  UNL     1      30.293  -9.968 -38.367  0.00  0.00    +0.000 OA
ATOM     24  H8  UNL     1      30.182  -9.074 -41.500  0.00  0.00    +0.000 HD
BRANCH  21  27
ATOM     25  N1  UNL     1      31.930 -10.760 -42.721  0.00  0.00    +0.000 NA
ATOM     26  C6  UNL     1      32.614 -10.449 -41.657  0.00  0.00    +0.000 C 
ATOM     27  N2  UNL     1      31.981  -9.743 -40.583  0.00  0.00    +0.000 N 
ATOM     28  H7  UNL     1      32.563  -9.470 -39.760  0.00  0.00    +0.000 HD
BRANCH  25  32
ATOM     29  C2  UNL     1      33.238 -12.865 -46.174  0.00  0.00    +0.000 A 
ATOM     30  C3  UNL     1      32.563 -13.553 -45.147  0.00  0.00    +0.000 A 
ATOM     31  C4  UNL     1      32.137 -12.870 -44.004  0.00  0.00    +0.000 A 
ATOM     32  C5  UNL     1      32.398 -11.497 -43.859  0.00  0.00    +0.000 A 
ATOM     33  C25 UNL     1      33.038 -10.809 -44.897  0.00  0.00    +0.000 A 
ATOM     34  C26 UNL     1      33.465 -11.491 -46.039  0.00  0.00    +0.000 A 
BRANCH  29  36
ATOM     35  C1  UNL     1      33.622 -14.910 -47.560  0.00  0.00    +0.000 C 
ATOM     36  O1  UNL     1      33.688 -13.505 -47.339  0.00  0.00    +0.000 OA
ENDBRANCH  29  36
ENDBRANCH  25  32
BRANCH  26  37
ATOM     37  S1  UNL     1      34.380 -10.777 -41.532  0.00  0.00    +0.000 S 
ATOM     38  H6  UNL     1      34.510 -10.894 -42.928  0.00  0.00    +0.000 HD
ENDBRANCH  26  37
ENDBRANCH  21  27
ENDBRANCH   1  22
TORSDOF 6
ENDMDL
MODEL 3
REMARK VINA RESULT:    -6.777      3.116      5.579
REMARK INTER + INTRA:          -9.773
REMARK INTER:                  -8.951
REMARK INTRA:                  -0.822
REMARK UNBOUND:                -0.817
REMARK  Name = resultss/4CJN/ligands/lig_426_t1.pdb
REMARK  7 active torsions:
REMARK  status: ('A' for Active; 'I' for Inactive)
REMARK    1  A    between atoms: C1_1  and  O1_2
REMARK    2  A    between atoms: O1_2  and  C2_3
REMARK    3  A    between atoms: C5_6  and  N1_7
REMARK    4  A    between atoms: C6_8  and  S1_9
REMARK    5  A    between atoms: N2_10  and  N3_11
REMARK    6  A    between atoms: C7_12  and  C8_14
REMARK    7  A    between atoms: C18_25  and  C19_26
REMARK                            x       y       z     vdW  Elec       q    Type
REMARK                         _______ _______ _______ _____ _____    ______ ____
ROOT
ATOM      1  C8  UNL     1      27.714  -8.727 -37.138  0.00  0.00    +0.000 A 
ATOM      2  C9  UNL     1      28.957  -9.069 -36.562  0.00  0.00    +0.000 A 
ATOM      3  C10 UNL     1      29.032  -9.089 -35.175  0.00  0.00    +0.000 A 
ATOM      4  C11 UNL     1      27.946  -8.796 -34.378  0.00  0.00    +0.000 A 
ATOM      5  N4  UNL     1      28.278  -8.816 -33.065  0.00  0.00    +0.000 N 
ATOM      6  C12 UNL     1      29.589  -9.143 -33.045  0.00  0.00    +0.000 A 
ATOM      7  C13 UNL     1      30.405  -9.281 -31.925  0.00  0.00    +0.000 A 
ATOM      8  C14 UNL     1      31.757  -9.612 -32.130  0.00  0.00    +0.000 A 
ATOM      9  C15 UNL     1      32.262  -9.791 -33.438  0.00  0.00    +0.000 A 
ATOM     10  C16 UNL     1      31.420  -9.641 -34.556  0.00  0.00    +0.000 A 
ATOM     11  C17 UNL     1      30.085  -9.320 -34.321  0.00  0.00    +0.000 A 
ATOM     12  C18 UNL     1      26.712  -8.475 -34.961  0.00  0.00    +0.000 A 
ATOM     13  N5  UNL     1      26.646  -8.443 -36.326  0.00  0.00    +0.000 NA
ATOM     14  H10 UNL     1      27.678  -8.590 -32.241  0.00  0.00    +0.000 HD
ENDROOT
BRANCH  12  15
ATOM     15  C19 UNL     1      25.502  -8.172 -34.169  0.00  0.00    +0.000 A 
ATOM     16  C20 UNL     1      24.704  -9.201 -33.640  0.00  0.00    +0.000 A 
ATOM     17  C21 UNL     1      23.546  -8.896 -32.918  0.00  0.00    +0.000 A 
ATOM     18  C22 UNL     1      23.168  -7.564 -32.729  0.00  0.00    +0.000 A 
ATOM     19  C23 UNL     1      23.943  -6.535 -33.271  0.00  0.00    +0.000 A 
ATOM     20  C24 UNL     1      25.102  -6.835 -33.994  0.00  0.00    +0.000 A 
ENDBRANCH  12  15
BRANCH   1  22
ATOM     21  N3  UNL     1      28.521  -7.993 -39.422  0.00  0.00    +0.000 N 
ATOM     22  C7  UNL     1      27.550  -8.668 -38.607  0.00  0.00    +0.000 C 
ATOM     23  O2  UNL     1      26.552  -9.216 -39.149  0.00  0.00    +0.000 OA
ATOM     24  H8  UNL     1      29.343  -7.543 -38.964  0.00  0.00    +0.000 HD
BRANCH  21  27
ATOM     25  N1  UNL     1      30.037  -9.584 -41.198  0.00  0.00    +0.000 NA
ATOM     26  C6  UNL     1      29.189  -8.730 -41.697  0.00  0.00    +0.000 C 
ATOM     27  N2  UNL     1      28.385  -7.930 -40.822  0.00  0.00    +0.000 N 
ATOM     28  H7  UNL     1      27.684  -7.284 -41.249  0.00  0.00    +0.000 HD
BRANCH  25  32
ATOM     29  C2  UNL     1      32.684 -12.180 -43.278  0.00  0.00    +0.000 A 
ATOM     30  C3  UNL     1      33.183 -11.016 -42.661  0.00  0.00    +0.000 A 
ATOM     31  C4  UNL     1      32.318 -10.152 -41.982  0.00  0.00    +0.000 A 
ATOM     32  C5  UNL     1      30.941 -10.425 -41.929  0.00  0.00    +0.000 A 
ATOM     33  C25 UNL     1      30.453 -11.600 -42.513  0.00  0.00    +0.000 A 
ATOM     34  C26 UNL     1      31.317 -12.463 -43.192  0.00  0.00    +0.000 A 
BRANCH  29  36
ATOM     35  C1  UNL     1      33.266 -13.528 -45.301  0.00  0.00    +0.000 C 
ATOM     36  O1  UNL     1      33.510 -13.076 -43.972  0.00  0.00    +0.000 OA
ENDBRANCH  29  36
ENDBRANCH  25  32
BRANCH  26  37
ATOM     37  S1  UNL     1      28.904  -8.598 -43.470  0.00  0.00    +0.000 S 
ATOM     38  H6  UNL     1      29.483  -9.857 -43.710  0.00  0.00    +0.000 HD
ENDBRANCH  26  37
ENDBRANCH  21  27
ENDBRANCH   1  22
TORSDOF 6
ENDMDL
MODEL 4
REMARK VINA RESULT:    -6.715      3.400      9.617
REMARK INTER + INTRA:          -9.691
REMARK INTER:                  -8.964
REMARK INTRA:                  -0.727
REMARK UNBOUND:                -0.817
REMARK  Name = resultss/4CJN/ligands/lig_426_t1.pdb
REMARK  7 active torsions:
REMARK  status: ('A' for Active; 'I' for Inactive)
REMARK    1  A    between atoms: C1_1  and  O1_2
REMARK    2  A    between atoms: O1_2  and  C2_3
REMARK    3  A    between atoms: C5_6  and  N1_7
REMARK    4  A    between atoms: C6_8  and  S1_9
REMARK    5  A    between atoms: N2_10  and  N3_11
REMARK    6  A    between atoms: C7_12  and  C8_14
REMARK    7  A    between atoms: C18_25  and  C19_26
REMARK                            x       y       z     vdW  Elec       q    Type
REMARK                         _______ _______ _______ _____ _____    ______ ____
ROOT
ATOM      1  C8  UNL     1      30.585  -9.343 -39.057  0.00  0.00    +0.000 A 
ATOM      2  C9  UNL     1      31.720  -9.639 -39.843  0.00  0.00    +0.000 A 
ATOM      3  C10 UNL     1      31.505  -9.950 -41.180  0.00  0.00    +0.000 A 
ATOM      4  C11 UNL     1      30.244  -9.966 -41.735  0.00  0.00    +0.000 A 
ATOM      5  N4  UNL     1      30.280 -10.360 -43.031  0.00  0.00    +0.000 N 
ATOM      6  C12 UNL     1      31.589 -10.575 -43.290  0.00  0.00    +0.000 A 
ATOM      7  C13 UNL     1      32.149 -11.007 -44.490  0.00  0.00    +0.000 A 
ATOM      8  C14 UNL     1      33.544 -11.185 -44.540  0.00  0.00    +0.000 A 
ATOM      9  C15 UNL     1      34.341 -10.937 -43.400  0.00  0.00    +0.000 A 
ATOM     10  C16 UNL     1      33.753 -10.506 -42.196  0.00  0.00    +0.000 A 
ATOM     11  C17 UNL     1      32.370 -10.332 -42.179  0.00  0.00    +0.000 A 
ATOM     12  C18 UNL     1      29.125  -9.654 -40.949  0.00  0.00    +0.000 A 
ATOM     13  N5  UNL     1      29.340  -9.362 -39.631  0.00  0.00    +0.000 NA
ATOM     14  H10 UNL     1      29.481 -10.509 -43.686  0.00  0.00    +0.000 HD
ENDROOT
BRANCH  12  15
ATOM     15  C19 UNL     1      27.747  -9.632 -41.482  0.00  0.00    +0.000 A 
ATOM     16  C20 UNL     1      27.418  -8.863 -42.612  0.00  0.00    +0.000 A 
ATOM     17  C21 UNL     1      26.103  -8.830 -43.085  0.00  0.00    +0.000 A 
ATOM     18  C22 UNL     1      25.104  -9.554 -42.429  0.00  0.00    +0.000 A 
ATOM     19  C23 UNL     1      25.417 -10.303 -41.292  0.00  0.00    +0.000 A 
ATOM     20  C24 UNL     1      26.731 -10.338 -40.814  0.00  0.00    +0.000 A 
ENDBRANCH  12  15
BRANCH   1  22
ATOM     21  N3  UNL     1      30.294  -9.949 -36.617  0.00  0.00    +0.000 N 
ATOM     22  C7  UNL     1      30.722  -9.016 -37.621  0.00  0.00    +0.000 C 
ATOM     23  O2  UNL     1      31.221  -7.911 -37.275  0.00  0.00    +0.000 OA
ATOM     24  H8  UNL     1      29.881 -10.861 -36.914  0.00  0.00    +0.000 HD
BRANCH  21  27
ATOM     25  N1  UNL     1      28.137  -9.078 -35.014  0.00  0.00    +0.000 NA
ATOM     26  C6  UNL     1      29.313  -9.191 -34.466  0.00  0.00    +0.000 C 
ATOM     27  N2  UNL     1      30.421  -9.658 -35.245  0.00  0.00    +0.000 N 
ATOM     28  H7  UNL     1      31.343  -9.778 -34.770  0.00  0.00    +0.000 HD
BRANCH  25  32
ATOM     29  C2  UNL     1      24.522  -7.671 -33.275  0.00  0.00    +0.000 A 
ATOM     30  C3  UNL     1      25.572  -6.769 -33.538  0.00  0.00    +0.000 A 
ATOM     31  C4  UNL     1      26.768  -7.225 -34.102  0.00  0.00    +0.000 A 
ATOM     32  C5  UNL     1      26.941  -8.590 -34.390  0.00  0.00    +0.000 A 
ATOM     33  C25 UNL     1      25.884  -9.478 -34.160  0.00  0.00    +0.000 A 
ATOM     34  C26 UNL     1      24.689  -9.022 -33.596  0.00  0.00    +0.000 A 
BRANCH  29  36
ATOM     35  C1  UNL     1      22.653  -6.032 -33.002  0.00  0.00    +0.000 C 
ATOM     36  O1  UNL     1      23.305  -7.265 -32.709  0.00  0.00    +0.000 OA
ENDBRANCH  29  36
ENDBRANCH  25  32
BRANCH  26  37
ATOM     37  S1  UNL     1      29.578  -8.886 -32.712  0.00  0.00    +0.000 S 
ATOM     38  H6  UNL     1      28.202  -8.977 -32.434  0.00  0.00    +0.000 HD
ENDBRANCH  26  37
ENDBRANCH  21  27
ENDBRANCH   1  22
TORSDOF 6
ENDMDL
MODEL 5
REMARK VINA RESULT:    -6.636      4.625      8.968
REMARK INTER + INTRA:          -9.587
REMARK INTER:                  -8.987
REMARK INTRA:                  -0.600
REMARK UNBOUND:                -0.817
REMARK  Name = resultss/4CJN/ligands/lig_426_t1.pdb
REMARK  7 active torsions:
REMARK  status: ('A' for Active; 'I' for Inactive)
REMARK    1  A    between atoms: C1_1  and  O1_2
REMARK    2  A    between atoms: O1_2  and  C2_3
REMARK    3  A    between atoms: C5_6  and  N1_7
REMARK    4  A    between atoms: C6_8  and  S1_9
REMARK    5  A    between atoms: N2_10  and  N3_11
REMARK    6  A    between atoms: C7_12  and  C8_14
REMARK    7  A    between atoms: C18_25  and  C19_26
REMARK                            x       y       z     vdW  Elec       q    Type
REMARK                         _______ _______ _______ _____ _____    ______ ____
ROOT
ATOM      1  C8  UNL     1      24.780  -7.603 -40.001  0.00  0.00    +0.000 A 
ATOM      2  C9  UNL     1      23.857  -7.204 -40.992  0.00  0.00    +0.000 A 
ATOM      3  C10 UNL     1      24.196  -7.454 -42.316  0.00  0.00    +0.000 A 
ATOM      4  C11 UNL     1      25.377  -8.073 -42.666  0.00  0.00    +0.000 A 
ATOM      5  N4  UNL     1      25.515  -8.148 -44.012  0.00  0.00    +0.000 N 
ATOM      6  C12 UNL     1      24.392  -7.582 -44.505  0.00  0.00    +0.000 A 
ATOM      7  C13 UNL     1      24.058  -7.406 -45.847  0.00  0.00    +0.000 A 
ATOM      8  C14 UNL     1      22.838  -6.772 -46.145  0.00  0.00    +0.000 A 
ATOM      9  C15 UNL     1      21.988  -6.326 -45.108  0.00  0.00    +0.000 A 
ATOM     10  C16 UNL     1      22.348  -6.509 -43.760  0.00  0.00    +0.000 A 
ATOM     11  C17 UNL     1      23.558  -7.147 -43.496  0.00  0.00    +0.000 A 
ATOM     12  C18 UNL     1      26.278  -8.480 -41.673  0.00  0.00    +0.000 A 
ATOM     13  N5  UNL     1      25.948  -8.219 -40.372  0.00  0.00    +0.000 NA
ATOM     14  H10 UNL     1      26.321  -8.519 -44.561  0.00  0.00    +0.000 HD
ENDROOT
BRANCH  12  15
ATOM     15  C19 UNL     1      27.552  -9.167 -41.973  0.00  0.00    +0.000 A 
ATOM     16  C20 UNL     1      27.984 -10.263 -41.207  0.00  0.00    +0.000 A 
ATOM     17  C21 UNL     1      29.206 -10.882 -41.487  0.00  0.00    +0.000 A 
ATOM     18  C22 UNL     1      30.011 -10.406 -42.524  0.00  0.00    +0.000 A 
ATOM     19  C23 UNL     1      29.601  -9.302 -43.277  0.00  0.00    +0.000 A 
ATOM     20  C24 UNL     1      28.380  -8.679 -43.000  0.00  0.00    +0.000 A 
ENDBRANCH  12  15
BRANCH   1  22
ATOM     21  N3  UNL     1      24.256  -8.459 -37.678  0.00  0.00    +0.000 N 
ATOM     22  C7  UNL     1      24.505  -7.360 -38.569  0.00  0.00    +0.000 C 
ATOM     23  O2  UNL     1      24.492  -6.180 -38.124  0.00  0.00    +0.000 OA
ATOM     24  H8  UNL     1      24.268  -9.432 -38.056  0.00  0.00    +0.000 HD
BRANCH  21  27
ATOM     25  N1  UNL     1      26.274  -8.469 -35.701  0.00  0.00    +0.000 NA
ATOM     26  C6  UNL     1      25.039  -8.287 -35.328  0.00  0.00    +0.000 C 
ATOM     27  N2  UNL     1      23.997  -8.248 -36.310  0.00  0.00    +0.000 N 
ATOM     28  H7  UNL     1      23.021  -8.060 -35.987  0.00  0.00    +0.000 HD
BRANCH  25  32
ATOM     29  C2  UNL     1      29.751  -8.717 -33.269  0.00  0.00    +0.000 A 
ATOM     30  C3  UNL     1      29.123  -9.895 -33.717  0.00  0.00    +0.000 A 
ATOM     31  C4  UNL     1      27.974  -9.823 -34.510  0.00  0.00    +0.000 A 
ATOM     32  C5  UNL     1      27.423  -8.575 -34.848  0.00  0.00    +0.000 A 
ATOM     33  C25 UNL     1      28.069  -7.406 -34.431  0.00  0.00    +0.000 A 
ATOM     34  C26 UNL     1      29.217  -7.477 -33.638  0.00  0.00    +0.000 A 
BRANCH  29  36
ATOM     35  C1  UNL     1      31.766  -9.861 -32.328  0.00  0.00    +0.000 C 
ATOM     36  O1  UNL     1      30.904  -8.736 -32.469  0.00  0.00    +0.000 OA
ENDBRANCH  29  36
ENDBRANCH  25  32
BRANCH  26  37
ATOM     37  S1  UNL     1      24.601  -7.966 -33.612  0.00  0.00    +0.000 S 
ATOM     38  H6  UNL     1      23.475  -8.807 -33.687  0.00  0.00    +0.000 HD
ENDBRANCH  26  37
ENDBRANCH  21  27
ENDBRANCH   1  22
TORSDOF 6
ENDMDL
MODEL 6
REMARK VINA RESULT:    -6.593      3.647      6.559
REMARK INTER + INTRA:          -9.530
REMARK INTER:                  -8.967
REMARK INTRA:                  -0.563
REMARK UNBOUND:                -0.817
REMARK  Name = resultss/4CJN/ligands/lig_426_t1.pdb
REMARK  7 active torsions:
REMARK  status: ('A' for Active; 'I' for Inactive)
REMARK    1  A    between atoms: C1_1  and  O1_2
REMARK    2  A    between atoms: O1_2  and  C2_3
REMARK    3  A    between atoms: C5_6  and  N1_7
REMARK    4  A    between atoms: C6_8  and  S1_9
REMARK    5  A    between atoms: N2_10  and  N3_11
REMARK    6  A    between atoms: C7_12  and  C8_14
REMARK    7  A    between atoms: C18_25  and  C19_26
REMARK                            x       y       z     vdW  Elec       q    Type
REMARK                         _______ _______ _______ _____ _____    ______ ____
ROOT
ATOM      1  C8  UNL     1      27.925  -9.735 -36.959  0.00  0.00    +0.000 A 
ATOM      2  C9  UNL     1      26.593  -9.304 -36.771  0.00  0.00    +0.000 A 
ATOM      3  C10 UNL     1      26.274  -8.743 -35.540  0.00  0.00    +0.000 A 
ATOM      4  C11 UNL     1      27.207  -8.598 -34.536  0.00  0.00    +0.000 A 
ATOM      5  N4  UNL     1      26.647  -8.090 -33.412  0.00  0.00    +0.000 N 
ATOM      6  C12 UNL     1      25.348  -7.898 -33.730  0.00  0.00    +0.000 A 
ATOM      7  C13 UNL     1      24.344  -7.400 -32.902  0.00  0.00    +0.000 A 
ATOM      8  C14 UNL     1      23.044  -7.298 -33.431  0.00  0.00    +0.000 A 
ATOM      9  C15 UNL     1      22.775  -7.697 -34.760  0.00  0.00    +0.000 A 
ATOM     10  C16 UNL     1      23.804  -8.203 -35.576  0.00  0.00    +0.000 A 
ATOM     11  C17 UNL     1      25.082  -8.286 -35.027  0.00  0.00    +0.000 A 
ATOM     12  C18 UNL     1      28.530  -9.014 -34.740  0.00  0.00    +0.000 A 
ATOM     13  N5  UNL     1      28.837  -9.579 -35.947  0.00  0.00    +0.000 NA
ATOM     14  H10 UNL     1      27.096  -7.916 -32.486  0.00  0.00    +0.000 HD
ENDROOT
BRANCH  12  15
ATOM     15  C19 UNL     1      29.586  -8.871 -33.717  0.00  0.00    +0.000 A 
ATOM     16  C20 UNL     1      29.974  -7.605 -33.245  0.00  0.00    +0.000 A 
ATOM     17  C21 UNL     1      30.995  -7.487 -32.298  0.00  0.00    +0.000 A 
ATOM     18  C22 UNL     1      31.646  -8.628 -31.823  0.00  0.00    +0.000 A 
ATOM     19  C23 UNL     1      31.284  -9.889 -32.303  0.00  0.00    +0.000 A 
ATOM     20  C24 UNL     1      30.263 -10.012 -33.251  0.00  0.00    +0.000 A 
ENDBRANCH  12  15
BRANCH   1  22
ATOM     21  N3  UNL     1      29.560  -9.943 -38.880  0.00  0.00    +0.000 N 
ATOM     22  C7  UNL     1      28.347 -10.357 -38.232  0.00  0.00    +0.000 C 
ATOM     23  O2  UNL     1      27.637 -11.260 -38.754  0.00  0.00    +0.000 OA
ATOM     24  H8  UNL     1      30.139  -9.194 -38.440  0.00  0.00    +0.000 HD
BRANCH  21  27
ATOM     25  N1  UNL     1      28.630  -9.098 -41.410  0.00  0.00    +0.000 NA
ATOM     26  C6  UNL     1      29.468 -10.094 -41.356  0.00  0.00    +0.000 C 
ATOM     27  N2  UNL     1      29.980 -10.526 -40.090  0.00  0.00    +0.000 N 
ATOM     28  H7  UNL     1      30.682 -11.300 -40.080  0.00  0.00    +0.000 HD
BRANCH  25  32
ATOM     29  C2  UNL     1      26.783  -7.411 -44.847  0.00  0.00    +0.000 A 
ATOM     30  C3  UNL     1      26.014  -8.153 -43.929  0.00  0.00    +0.000 A 
ATOM     31  C4  UNL     1      26.615  -8.719 -42.801  0.00  0.00    +0.000 A 
ATOM     32  C5  UNL     1      27.995  -8.572 -42.584  0.00  0.00    +0.000 A 
ATOM     33  C25 UNL     1      28.751  -7.805 -43.478  0.00  0.00    +0.000 A 
ATOM     34  C26 UNL     1      28.151  -7.239 -44.607  0.00  0.00    +0.000 A 
BRANCH  29  36
ATOM     35  C1  UNL     1      26.714  -7.034 -47.318  0.00  0.00    +0.000 C 
ATOM     36  O1  UNL     1      26.228  -6.826 -45.995  0.00  0.00    +0.000 OA
ENDBRANCH  29  36
ENDBRANCH  25  32
BRANCH  26  37
ATOM     37  S1  UNL     1      30.104 -10.884 -42.844  0.00  0.00    +0.000 S 
ATOM     38  H6  UNL     1      30.059 -12.158 -42.249  0.00  0.00    +0.000 HD
ENDBRANCH  26  37
ENDBRANCH  21  27
ENDBRANCH   1  22
TORSDOF 6
ENDMDL
MODEL 7
REMARK VINA RESULT:    -6.451      3.808      9.130
REMARK INTER + INTRA:          -9.342
REMARK INTER:                  -8.603
REMARK INTRA:                  -0.739
REMARK UNBOUND:                -0.817
REMARK  Name = resultss/4CJN/ligands/lig_426_t1.pdb
REMARK  7 active torsions:
REMARK  status: ('A' for Active; 'I' for Inactive)
REMARK    1  A    between atoms: C1_1  and  O1_2
REMARK    2  A    between atoms: O1_2  and  C2_3
REMARK    3  A    between atoms: C5_6  and  N1_7
REMARK    4  A    between atoms: C6_8  and  S1_9
REMARK    5  A    between atoms: N2_10  and  N3_11
REMARK    6  A    between atoms: C7_12  and  C8_14
REMARK    7  A    between atoms: C18_25  and  C19_26
REMARK                            x       y       z     vdW  Elec       q    Type
REMARK                         _______ _______ _______ _____ _____    ______ ____
ROOT
ATOM      1  C8  UNL     1      27.794  -9.689 -40.109  0.00  0.00    +0.000 A 
ATOM      2  C9  UNL     1      27.107  -8.807 -40.971  0.00  0.00    +0.000 A 
ATOM      3  C10 UNL     1      27.662  -8.581 -42.225  0.00  0.00    +0.000 A 
ATOM      4  C11 UNL     1      28.830  -9.190 -42.630  0.00  0.00    +0.000 A 
ATOM      5  N4  UNL     1      29.207  -8.764 -43.860  0.00  0.00    +0.000 N 
ATOM      6  C12 UNL     1      28.247  -7.891 -44.232  0.00  0.00    +0.000 A 
ATOM      7  C13 UNL     1      28.183  -7.167 -45.421  0.00  0.00    +0.000 A 
ATOM      8  C14 UNL     1      27.097  -6.290 -45.601  0.00  0.00    +0.000 A 
ATOM      9  C15 UNL     1      26.111  -6.151 -44.599  0.00  0.00    +0.000 A 
ATOM     10  C16 UNL     1      26.199  -6.888 -43.403  0.00  0.00    +0.000 A 
ATOM     11  C17 UNL     1      27.282  -7.753 -43.256  0.00  0.00    +0.000 A 
ATOM     12  C18 UNL     1      29.495 -10.077 -41.772  0.00  0.00    +0.000 A 
ATOM     13  N5  UNL     1      28.954 -10.286 -40.534  0.00  0.00    +0.000 NA
ATOM     14  H10 UNL     1      30.066  -9.015 -44.397  0.00  0.00    +0.000 HD
ENDROOT
BRANCH  12  15
ATOM     15  C19 UNL     1      30.739 -10.780 -42.147  0.00  0.00    +0.000 A 
ATOM     16  C20 UNL     1      32.000 -10.223 -41.870  0.00  0.00    +0.000 A 
ATOM     17  C21 UNL     1      33.166 -10.889 -42.258  0.00  0.00    +0.000 A 
ATOM     18  C22 UNL     1      33.085 -12.108 -42.936  0.00  0.00    +0.000 A 
ATOM     19  C23 UNL     1      31.836 -12.658 -43.236  0.00  0.00    +0.000 A 
ATOM     20  C24 UNL     1      30.667 -11.996 -42.850  0.00  0.00    +0.000 A 
ENDBRANCH  12  15
BRANCH   1  22
ATOM     21  N3  UNL     1      26.412  -9.042 -38.089  0.00  0.00    +0.000 N 
ATOM     22  C7  UNL     1      27.282  -9.974 -38.751  0.00  0.00    +0.000 C 
ATOM     23  O2  UNL     1      27.609 -11.045 -38.170  0.00  0.00    +0.000 OA
ATOM     24  H8  UNL     1      26.149  -8.159 -38.579  0.00  0.00    +0.000 HD
BRANCH  21  27
ATOM     25  N1  UNL     1      27.951  -8.730 -35.740  0.00  0.00    +0.000 NA
ATOM     26  C6  UNL     1      26.725  -9.158 -35.629  0.00  0.00    +0.000 C 
ATOM     27  N2  UNL     1      25.911  -9.298 -36.799  0.00  0.00    +0.000 N 
ATOM     28  H7  UNL     1      24.919  -9.604 -36.676  0.00  0.00    +0.000 HD
BRANCH  25  32
ATOM     29  C2  UNL     1      30.852  -8.179 -32.683  0.00  0.00    +0.000 A 
ATOM     30  C3  UNL     1      30.650  -9.459 -33.237  0.00  0.00    +0.000 A 
ATOM     31  C4  UNL     1      29.692  -9.651 -34.236  0.00  0.00    +0.000 A 
ATOM     32  C5  UNL     1      28.906  -8.574 -34.681  0.00  0.00    +0.000 A 
ATOM     33  C25 UNL     1      29.133  -7.297 -34.155  0.00  0.00    +0.000 A 
ATOM     34  C26 UNL     1      30.090  -7.105 -33.155  0.00  0.00    +0.000 A 
BRANCH  29  36
ATOM     35  C1  UNL     1      32.821  -8.850 -31.296  0.00  0.00    +0.000 C 
ATOM     36  O1  UNL     1      31.798  -7.935 -31.676  0.00  0.00    +0.000 OA
ENDBRANCH  29  36
ENDBRANCH  25  32
BRANCH  26  37
ATOM     37  S1  UNL     1      25.970  -9.474 -34.026  0.00  0.00    +0.000 S 
ATOM     38  H6  UNL     1      25.740 -10.825 -34.342  0.00  0.00    +0.000 HD
ENDBRANCH  26  37
ENDBRANCH  21  27
ENDBRANCH   1  22
TORSDOF 6
ENDMDL
MODEL 8
REMARK VINA RESULT:    -6.277      2.818      5.279
REMARK INTER + INTRA:          -9.113
REMARK INTER:                  -8.766
REMARK INTRA:                  -0.348
REMARK UNBOUND:                -0.817
REMARK  Name = resultss/4CJN/ligands/lig_426_t1.pdb
REMARK  7 active torsions:
REMARK  status: ('A' for Active; 'I' for Inactive)
REMARK    1  A    between atoms: C1_1  and  O1_2
REMARK    2  A    between atoms: O1_2  and  C2_3
REMARK    3  A    between atoms: C5_6  and  N1_7
REMARK    4  A    between atoms: C6_8  and  S1_9
REMARK    5  A    between atoms: N2_10  and  N3_11
REMARK    6  A    between atoms: C7_12  and  C8_14
REMARK    7  A    between atoms: C18_25  and  C19_26
REMARK                            x       y       z     vdW  Elec       q    Type
REMARK                         _______ _______ _______ _____ _____    ______ ____
ROOT
ATOM      1  C8  UNL     1      27.398  -8.010 -37.696  0.00  0.00    +0.000 A 
ATOM      2  C9  UNL     1      26.070  -7.898 -37.231  0.00  0.00    +0.000 A 
ATOM      3  C10 UNL     1      25.833  -8.216 -35.898  0.00  0.00    +0.000 A 
ATOM      4  C11 UNL     1      26.843  -8.617 -35.050  0.00  0.00    +0.000 A 
ATOM      5  N4  UNL     1      26.360  -8.934 -33.824  0.00  0.00    +0.000 N 
ATOM      6  C12 UNL     1      25.031  -8.707 -33.908  0.00  0.00    +0.000 A 
ATOM      7  C13 UNL     1      24.080  -8.896 -32.907  0.00  0.00    +0.000 A 
ATOM      8  C14 UNL     1      22.736  -8.615 -33.212  0.00  0.00    +0.000 A 
ATOM      9  C15 UNL     1      22.371  -8.163 -34.500  0.00  0.00    +0.000 A 
ATOM     10  C16 UNL     1      23.347  -7.986 -35.499  0.00  0.00    +0.000 A 
ATOM     11  C17 UNL     1      24.671  -8.265 -35.164  0.00  0.00    +0.000 A 
ATOM     12  C18 UNL     1      28.161  -8.707 -35.518  0.00  0.00    +0.000 A 
ATOM     13  N5  UNL     1      28.387  -8.408 -36.833  0.00  0.00    +0.000 NA
ATOM     14  H10 UNL     1      26.879  -9.308 -33.000  0.00  0.00    +0.000 HD
ENDROOT
BRANCH  12  15
ATOM     15  C19 UNL     1      29.295  -9.110 -34.661  0.00  0.00    +0.000 A 
ATOM     16  C20 UNL     1      29.142  -9.239 -33.270  0.00  0.00    +0.000 A 
ATOM     17  C21 UNL     1      30.233  -9.593 -32.470  0.00  0.00    +0.000 A 
ATOM     18  C22 UNL     1      31.486  -9.808 -33.049  0.00  0.00    +0.000 A 
ATOM     19  C23 UNL     1      31.653  -9.660 -34.428  0.00  0.00    +0.000 A 
ATOM     20  C24 UNL     1      30.564  -9.306 -35.232  0.00  0.00    +0.000 A 
ENDBRANCH  12  15
BRANCH   1  22
ATOM     21  N3  UNL     1      27.244  -8.537 -40.167  0.00  0.00    +0.000 N 
ATOM     22  C7  UNL     1      27.736  -7.706 -39.103  0.00  0.00    +0.000 C 
ATOM     23  O2  UNL     1      28.460  -6.709 -39.373  0.00  0.00    +0.000 OA
ATOM     24  H8  UNL     1      26.647  -9.360 -39.933  0.00  0.00    +0.000 HD
BRANCH  21  27
ATOM     25  N1  UNL     1      29.382  -9.762 -41.549  0.00  0.00    +0.000 NA
ATOM     26  C6  UNL     1      28.660  -8.878 -42.178  0.00  0.00    +0.000 C 
ATOM     27  N2  UNL     1      27.551  -8.261 -41.513  0.00  0.00    +0.000 N 
ATOM     28  H7  UNL     1      26.965  -7.587 -42.054  0.00  0.00    +0.000 HD
BRANCH  25  32
ATOM     29  C2  UNL     1      32.787 -11.876 -42.966  0.00  0.00    +0.000 A 
ATOM     30  C3  UNL     1      32.955 -10.694 -42.218  0.00  0.00    +0.000 A 
ATOM     31  C4  UNL     1      31.841  -9.988 -41.755  0.00  0.00    +0.000 A 
ATOM     32  C5  UNL     1      30.543 -10.438 -42.052  0.00  0.00    +0.000 A 
ATOM     33  C25 UNL     1      30.379 -11.631 -42.765  0.00  0.00    +0.000 A 
ATOM     34  C26 UNL     1      31.492 -12.337 -43.228  0.00  0.00    +0.000 A 
BRANCH  29  36
ATOM     35  C1  UNL     1      33.898 -13.262 -44.725  0.00  0.00    +0.000 C 
ATOM     36  O1  UNL     1      33.872 -12.619 -43.454  0.00  0.00    +0.000 OA
ENDBRANCH  29  36
ENDBRANCH  25  32
BRANCH  26  37
ATOM     37  S1  UNL     1      28.938  -8.482 -43.912  0.00  0.00    +0.000 S 
ATOM     38  H6  UNL     1      28.020  -9.460 -44.336  0.00  0.00    +0.000 HD
ENDBRANCH  26  37
ENDBRANCH  21  27
ENDBRANCH   1  22
TORSDOF 6
ENDMDL
MODEL 9
REMARK VINA RESULT:    -5.987      4.284      8.964
REMARK INTER + INTRA:          -8.730
REMARK INTER:                  -7.842
REMARK INTRA:                  -0.888
REMARK UNBOUND:                -0.817
REMARK  Name = resultss/4CJN/ligands/lig_426_t1.pdb
REMARK  7 active torsions:
REMARK  status: ('A' for Active; 'I' for Inactive)
REMARK    1  A    between atoms: C1_1  and  O1_2
REMARK    2  A    between atoms: O1_2  and  C2_3
REMARK    3  A    between atoms: C5_6  and  N1_7
REMARK    4  A    between atoms: C6_8  and  S1_9
REMARK    5  A    between atoms: N2_10  and  N3_11
REMARK    6  A    between atoms: C7_12  and  C8_14
REMARK    7  A    between atoms: C18_25  and  C19_26
REMARK                            x       y       z     vdW  Elec       q    Type
REMARK                         _______ _______ _______ _____ _____    ______ ____
ROOT
ATOM      1  C8  UNL     1      31.070  -8.708 -39.765  0.00  0.00    +0.000 A 
ATOM      2  C9  UNL     1      32.079  -9.417 -40.453  0.00  0.00    +0.000 A 
ATOM      3  C10 UNL     1      31.685 -10.203 -41.528  0.00  0.00    +0.000 A 
ATOM      4  C11 UNL     1      30.368 -10.294 -41.926  0.00  0.00    +0.000 A 
ATOM      5  N4  UNL     1      30.222 -11.169 -42.950  0.00  0.00    +0.000 N 
ATOM      6  C12 UNL     1      31.471 -11.615 -43.205  0.00  0.00    +0.000 A 
ATOM      7  C13 UNL     1      31.852 -12.547 -44.168  0.00  0.00    +0.000 A 
ATOM      8  C14 UNL     1      33.215 -12.887 -44.253  0.00  0.00    +0.000 A 
ATOM      9  C15 UNL     1      34.158 -12.301 -43.379  0.00  0.00    +0.000 A 
ATOM     10  C16 UNL     1      33.750 -11.367 -42.409  0.00  0.00    +0.000 A 
ATOM     11  C17 UNL     1      32.395 -11.044 -42.353  0.00  0.00    +0.000 A 
ATOM     12  C18 UNL     1      29.377  -9.572 -41.247  0.00  0.00    +0.000 A 
ATOM     13  N5  UNL     1      29.767  -8.811 -40.181  0.00  0.00    +0.000 NA
ATOM     14  H10 UNL     1      29.342 -11.472 -43.423  0.00  0.00    +0.000 HD
ENDROOT
BRANCH  12  15
ATOM     15  C19 UNL     1      27.950  -9.606 -41.631  0.00  0.00    +0.000 A 
ATOM     16  C20 UNL     1      27.489  -8.926 -42.771  0.00  0.00    +0.000 A 
ATOM     17  C21 UNL     1      26.131  -8.944 -43.104  0.00  0.00    +0.000 A 
ATOM     18  C22 UNL     1      25.222  -9.630 -42.296  0.00  0.00    +0.000 A 
ATOM     19  C23 UNL     1      25.667 -10.290 -41.147  0.00  0.00    +0.000 A 
ATOM     20  C24 UNL     1      27.024 -10.274 -40.810  0.00  0.00    +0.000 A 
ENDBRANCH  12  15
BRANCH   1  22
ATOM     21  N3  UNL     1      30.449  -7.674 -37.540  0.00  0.00    +0.000 N 
ATOM     22  C7  UNL     1      31.400  -7.859 -38.600  0.00  0.00    +0.000 C 
ATOM     23  O2  UNL     1      32.526  -7.295 -38.535  0.00  0.00    +0.000 OA
ATOM     24  H8  UNL     1      29.519  -8.145 -37.604  0.00  0.00    +0.000 HD
BRANCH  21  27
ATOM     25  N1  UNL     1      31.620  -8.689 -35.178  0.00  0.00    +0.000 NA
ATOM     26  C6  UNL     1      31.315  -7.424 -35.227  0.00  0.00    +0.000 C 
ATOM     27  N2  UNL     1      30.746  -6.873 -36.421  0.00  0.00    +0.000 N 
ATOM     28  H7  UNL     1      30.550  -5.848 -36.446  0.00  0.00    +0.000 HD
BRANCH  25  32
ATOM     29  C2  UNL     1      33.261 -10.891 -31.933  0.00  0.00    +0.000 A 
ATOM     30  C3  UNL     1      31.864 -10.769 -32.063  0.00  0.00    +0.000 A 
ATOM     31  C4  UNL     1      31.316 -10.039 -33.122  0.00  0.00    +0.000 A 
ATOM     32  C5  UNL     1      32.154  -9.403 -34.053  0.00  0.00    +0.000 A 
ATOM     33  C25 UNL     1      33.541  -9.555 -33.942  0.00  0.00    +0.000 A 
ATOM     34  C26 UNL     1      34.089 -10.283 -32.883  0.00  0.00    +0.000 A 
BRANCH  29  36
ATOM     35  C1  UNL     1      33.752 -13.019 -30.716  0.00  0.00    +0.000 C 
ATOM     36  O1  UNL     1      33.860 -11.609 -30.887  0.00  0.00    +0.000 OA
ENDBRANCH  29  36
ENDBRANCH  25  32
BRANCH  26  37
ATOM     37  S1  UNL     1      31.691  -6.302 -33.870  0.00  0.00    +0.000 S 
ATOM     38  H6  UNL     1      32.095  -7.362 -33.037  0.00  0.00    +0.000 HD
ENDBRANCH  26  37
ENDBRANCH  21  27
ENDBRANCH   1  22
TORSDOF 6
ENDMDL
