MODEL 1
REMARK VINA RESULT:    -6.693      0.000      0.000
REMARK INTER + INTRA:         -11.026
REMARK INTER:                  -9.628
REMARK INTRA:                  -1.398
REMARK UNBOUND:                -1.398
REMARK  Name = resultss/4CJN/ligands/lig_271_t1.pdb
REMARK  9 active torsions:
REMARK  status: ('A' for Active; 'I' for Inactive)
REMARK    1  A    between atoms: C1_1  and  O1_2
REMARK    2  A    between atoms: O1_2  and  C2_3
REMARK    3  A    between atoms: C2_3  and  C3_5
REMARK    4  A    between atoms: C6_8  and  C7_9
REMARK    5  A    between atoms: C7_9  and  N1_10
REMARK    6  A    between atoms: C8_11  and  O3_12
REMARK    7  A    between atoms: C8_11  and  C9_13
REMARK    8  A    between atoms: C10_14  and  N2_15
REMARK    9  A    between atoms: C11_16  and  C12_18
REMARK                            x       y       z     vdW  Elec       q    Type
REMARK                         _______ _______ _______ _____ _____    ______ ____
ROOT
ATOM      1  C9  UNL     1      28.305  -8.703 -41.271  0.00  0.00    +0.000 A 
ATOM      2  C10 UNL     1      27.259  -9.096 -40.435  0.00  0.00    +0.000 A 
ATOM      3  S1  UNL     1      25.793  -8.848 -41.238  0.00  0.00    +0.000 S 
ATOM      4  C17 UNL     1      26.482  -8.284 -42.665  0.00  0.00    +0.000 A 
ATOM      5  C18 UNL     1      27.864  -8.233 -42.520  0.00  0.00    +0.000 A 
ATOM      6  C19 UNL     1      28.768  -7.792 -43.643  0.00  0.00    +0.000 C 
ATOM      7  C20 UNL     1      28.000  -6.976 -44.699  0.00  0.00    +0.000 C 
ATOM      8  C21 UNL     1      26.668  -7.651 -45.073  0.00  0.00    +0.000 C 
ATOM      9  C22 UNL     1      25.738  -7.759 -43.854  0.00  0.00    +0.000 C 
ENDROOT
BRANCH   2  10
ATOM     10  N2  UNL     1      27.417  -9.574 -39.089  0.00  0.00    +0.000 N 
ATOM     11  C11 UNL     1      27.073  -8.811 -37.918  0.00  0.00    +0.000 C 
ATOM     12  O4  UNL     1      26.296  -7.823 -38.017  0.00  0.00    +0.000 OA
ATOM     13  H9  UNL     1      27.740 -10.559 -38.961  0.00  0.00    +0.000 HD
BRANCH  11  14
ATOM     14  C12 UNL     1      27.596  -9.191 -36.581  0.00  0.00    +0.000 A 
ATOM     15  C13 UNL     1      28.982  -9.264 -36.358  0.00  0.00    +0.000 A 
ATOM     16  C14 UNL     1      29.473  -9.630 -35.102  0.00  0.00    +0.000 A 
ATOM     17  C15 UNL     1      28.577  -9.930 -34.077  0.00  0.00    +0.000 A 
ATOM     18  N3  UNL     1      27.240  -9.869 -34.306  0.00  0.00    +0.000 NA
ATOM     19  C16 UNL     1      26.734  -9.513 -35.516  0.00  0.00    +0.000 A 
ENDBRANCH  11  14
ENDBRANCH   2  10
BRANCH   1  21
ATOM     20  N1  UNL     1      30.458  -9.804 -41.090  0.00  0.00    +0.000 NA
ATOM     21  C8  UNL     1      29.725  -8.750 -40.879  0.00  0.00    +0.000 C 
BRANCH  21  22
ATOM     22  O3  UNL     1      30.282  -7.638 -40.258  0.00  0.00    +0.000 OA
ATOM     23  H8  UNL     1      31.233  -7.657 -39.907  0.00  0.00    +0.000 HD
ENDBRANCH  21  22
BRANCH  20  24
ATOM     24  C7  UNL     1      29.979 -11.030 -41.722  0.00  0.00    +0.000 C 
BRANCH  24  28
ATOM     25  C3  UNL     1      32.647 -12.178 -44.923  0.00  0.00    +0.000 A 
ATOM     26  C4  UNL     1      32.094 -13.151 -44.072  0.00  0.00    +0.000 A 
ATOM     27  C5  UNL     1      31.237 -12.780 -43.031  0.00  0.00    +0.000 A 
ATOM     28  C6  UNL     1      30.925 -11.429 -42.817  0.00  0.00    +0.000 A 
ATOM     29  C23 UNL     1      31.461 -10.456 -43.672  0.00  0.00    +0.000 A 
ATOM     30  C24 UNL     1      32.320 -10.825 -44.713  0.00  0.00    +0.000 A 
BRANCH  25  31
ATOM     31  C2  UNL     1      33.552 -12.574 -46.024  0.00  0.00    +0.000 C 
ATOM     32  O2  UNL     1      33.748 -11.790 -46.995  0.00  0.00    +0.000 OA
BRANCH  31  34
ATOM     33  C1  UNL     1      33.854 -14.882 -46.865  0.00  0.00    +0.000 C 
ATOM     34  O1  UNL     1      34.195 -13.816 -45.986  0.00  0.00    +0.000 OA
ENDBRANCH  31  34
ENDBRANCH  25  31
ENDBRANCH  24  28
ENDBRANCH  20  24
ENDBRANCH   1  21
TORSDOF 8
ENDMDL
MODEL 2
REMARK VINA RESULT:    -6.546      1.982      5.761
REMARK INTER + INTRA:         -10.814
REMARK INTER:                  -9.403
REMARK INTRA:                  -1.412
REMARK UNBOUND:                -1.398
REMARK  Name = resultss/4CJN/ligands/lig_271_t1.pdb
REMARK  9 active torsions:
REMARK  status: ('A' for Active; 'I' for Inactive)
REMARK    1  A    between atoms: C1_1  and  O1_2
REMARK    2  A    between atoms: O1_2  and  C2_3
REMARK    3  A    between atoms: C2_3  and  C3_5
REMARK    4  A    between atoms: C6_8  and  C7_9
REMARK    5  A    between atoms: C7_9  and  N1_10
REMARK    6  A    between atoms: C8_11  and  O3_12
REMARK    7  A    between atoms: C8_11  and  C9_13
REMARK    8  A    between atoms: C10_14  and  N2_15
REMARK    9  A    between atoms: C11_16  and  C12_18
REMARK                            x       y       z     vdW  Elec       q    Type
REMARK                         _______ _______ _______ _____ _____    ______ ____
ROOT
ATOM      1  C9  UNL     1      28.759  -8.276 -40.011  0.00  0.00    +0.000 A 
ATOM      2  C10 UNL     1      27.437  -8.093 -40.420  0.00  0.00    +0.000 A 
ATOM      3  S1  UNL     1      26.405  -8.644 -39.200  0.00  0.00    +0.000 S 
ATOM      4  C17 UNL     1      27.630  -9.077 -38.133  0.00  0.00    +0.000 A 
ATOM      5  C18 UNL     1      28.864  -8.844 -38.730  0.00  0.00    +0.000 A 
ATOM      6  C19 UNL     1      30.162  -9.108 -38.009  0.00  0.00    +0.000 C 
ATOM      7  C20 UNL     1      29.965 -10.078 -36.829  0.00  0.00    +0.000 C 
ATOM      8  C21 UNL     1      28.739  -9.693 -35.982  0.00  0.00    +0.000 C 
ATOM      9  C22 UNL     1      27.447  -9.759 -36.812  0.00  0.00    +0.000 C 
ENDROOT
BRANCH   2  10
ATOM     10  N2  UNL     1      27.036  -7.573 -41.699  0.00  0.00    +0.000 N 
ATOM     11  C11 UNL     1      26.859  -8.381 -42.876  0.00  0.00    +0.000 C 
ATOM     12  O4  UNL     1      26.711  -9.628 -42.766  0.00  0.00    +0.000 OA
ATOM     13  H9  UNL     1      26.797  -6.557 -41.754  0.00  0.00    +0.000 HD
BRANCH  11  14
ATOM     14  C12 UNL     1      26.816  -7.762 -44.225  0.00  0.00    +0.000 A 
ATOM     15  C13 UNL     1      28.005  -7.538 -44.939  0.00  0.00    +0.000 A 
ATOM     16  C14 UNL     1      27.965  -6.947 -46.205  0.00  0.00    +0.000 A 
ATOM     17  C15 UNL     1      26.737  -6.574 -46.747  0.00  0.00    +0.000 A 
ATOM     18  N3  UNL     1      25.594  -6.781 -46.044  0.00  0.00    +0.000 NA
ATOM     19  C16 UNL     1      25.603  -7.358 -44.813  0.00  0.00    +0.000 A 
ENDBRANCH  11  14
ENDBRANCH   2  10
BRANCH   1  21
ATOM     20  N1  UNL     1      30.541  -8.832 -41.559  0.00  0.00    +0.000 NA
ATOM     21  C8  UNL     1      29.926  -7.936 -40.845  0.00  0.00    +0.000 C 
BRANCH  21  22
ATOM     22  O3  UNL     1      30.381  -6.622 -40.850  0.00  0.00    +0.000 OA
ATOM     23  H8  UNL     1      30.897  -6.251 -41.639  0.00  0.00    +0.000 HD
ENDBRANCH  21  22
BRANCH  20  24
ATOM     24  C7  UNL     1      30.161 -10.240 -41.623  0.00  0.00    +0.000 C 
BRANCH  24  28
ATOM     25  C3  UNL     1      32.397 -12.199 -44.761  0.00  0.00    +0.000 A 
ATOM     26  C4  UNL     1      31.684 -12.956 -43.815  0.00  0.00    +0.000 A 
ATOM     27  C5  UNL     1      30.966 -12.324 -42.794  0.00  0.00    +0.000 A 
ATOM     28  C6  UNL     1      30.957 -10.924 -42.696  0.00  0.00    +0.000 A 
ATOM     29  C23 UNL     1      31.654 -10.164 -43.646  0.00  0.00    +0.000 A 
ATOM     30  C24 UNL     1      32.374 -10.795 -44.666  0.00  0.00    +0.000 A 
BRANCH  25  31
ATOM     31  C2  UNL     1      33.155 -12.871 -45.839  0.00  0.00    +0.000 C 
ATOM     32  O2  UNL     1      33.572 -12.206 -46.828  0.00  0.00    +0.000 OA
BRANCH  31  34
ATOM     33  C1  UNL     1      33.141 -15.137 -46.835  0.00  0.00    +0.000 C 
ATOM     34  O1  UNL     1      33.411 -14.244 -45.760  0.00  0.00    +0.000 OA
ENDBRANCH  31  34
ENDBRANCH  25  31
ENDBRANCH  24  28
ENDBRANCH  20  24
ENDBRANCH   1  21
TORSDOF 8
ENDMDL
MODEL 3
REMARK VINA RESULT:    -6.512      3.914      7.456
REMARK INTER + INTRA:         -10.766
REMARK INTER:                  -9.550
REMARK INTRA:                  -1.215
REMARK UNBOUND:                -1.398
REMARK  Name = resultss/4CJN/ligands/lig_271_t1.pdb
REMARK  9 active torsions:
REMARK  status: ('A' for Active; 'I' for Inactive)
REMARK    1  A    between atoms: C1_1  and  O1_2
REMARK    2  A    between atoms: O1_2  and  C2_3
REMARK    3  A    between atoms: C2_3  and  C3_5
REMARK    4  A    between atoms: C6_8  and  C7_9
REMARK    5  A    between atoms: C7_9  and  N1_10
REMARK    6  A    between atoms: C8_11  and  O3_12
REMARK    7  A    between atoms: C8_11  and  C9_13
REMARK    8  A    between atoms: C10_14  and  N2_15
REMARK    9  A    between atoms: C11_16  and  C12_18
REMARK                            x       y       z     vdW  Elec       q    Type
REMARK                         _______ _______ _______ _____ _____    ______ ____
ROOT
ATOM      1  C9  UNL     1      27.238  -9.710 -39.618  0.00  0.00    +0.000 A 
ATOM      2  C10 UNL     1      26.143  -8.886 -39.355  0.00  0.00    +0.000 A 
ATOM      3  S1  UNL     1      26.030  -7.719 -40.572  0.00  0.00    +0.000 S 
ATOM      4  C17 UNL     1      27.343  -8.281 -41.460  0.00  0.00    +0.000 A 
ATOM      5  C18 UNL     1      27.920  -9.358 -40.795  0.00  0.00    +0.000 A 
ATOM      6  C19 UNL     1      29.106 -10.099 -41.359  0.00  0.00    +0.000 C 
ATOM      7  C20 UNL     1      29.854  -9.255 -42.406  0.00  0.00    +0.000 C 
ATOM      8  C21 UNL     1      28.880  -8.600 -43.401  0.00  0.00    +0.000 C 
ATOM      9  C22 UNL     1      27.916  -7.640 -42.685  0.00  0.00    +0.000 C 
ENDROOT
BRANCH   2  10
ATOM     10  N2  UNL     1      25.295  -8.990 -38.199  0.00  0.00    +0.000 N 
ATOM     11  C11 UNL     1      25.138  -7.947 -37.220  0.00  0.00    +0.000 C 
ATOM     12  O4  UNL     1      25.466  -6.763 -37.504  0.00  0.00    +0.000 OA
ATOM     13  H9  UNL     1      24.710  -9.850 -38.105  0.00  0.00    +0.000 HD
BRANCH  11  14
ATOM     14  C12 UNL     1      24.563  -8.239 -35.882  0.00  0.00    +0.000 A 
ATOM     15  C13 UNL     1      25.339  -8.881 -34.902  0.00  0.00    +0.000 A 
ATOM     16  C14 UNL     1      24.795  -9.164 -33.647  0.00  0.00    +0.000 A 
ATOM     17  C15 UNL     1      23.473  -8.812 -33.380  0.00  0.00    +0.000 A 
ATOM     18  N3  UNL     1      22.726  -8.204 -34.336  0.00  0.00    +0.000 NA
ATOM     19  C16 UNL     1      23.231  -7.914 -35.565  0.00  0.00    +0.000 A 
ENDBRANCH  11  14
ENDBRANCH   2  10
BRANCH   1  21
ATOM     20  N1  UNL     1      28.242 -10.604 -37.600  0.00  0.00    +0.000 NA
ATOM     21  C8  UNL     1      27.655 -10.819 -38.741  0.00  0.00    +0.000 C 
BRANCH  21  22
ATOM     22  O3  UNL     1      27.422 -12.124 -39.160  0.00  0.00    +0.000 OA
ATOM     23  H8  UNL     1      27.199 -12.330 -40.127  0.00  0.00    +0.000 HD
ENDBRANCH  21  22
BRANCH  20  24
ATOM     24  C7  UNL     1      28.547  -9.282 -37.064  0.00  0.00    +0.000 C 
BRANCH  24  28
ATOM     25  C3  UNL     1      30.800  -9.773 -33.408  0.00  0.00    +0.000 A 
ATOM     26  C4  UNL     1      29.394  -9.792 -33.387  0.00  0.00    +0.000 A 
ATOM     27  C5  UNL     1      28.664  -9.625 -34.568  0.00  0.00    +0.000 A 
ATOM     28  C6  UNL     1      29.326  -9.427 -35.789  0.00  0.00    +0.000 A 
ATOM     29  C23 UNL     1      30.728  -9.424 -35.818  0.00  0.00    +0.000 A 
ATOM     30  C24 UNL     1      31.460  -9.588 -34.638  0.00  0.00    +0.000 A 
BRANCH  25  31
ATOM     31  C2  UNL     1      31.569  -9.950 -32.157  0.00  0.00    +0.000 C 
ATOM     32  O2  UNL     1      32.339  -9.034 -31.753  0.00  0.00    +0.000 OA
BRANCH  31  34
ATOM     33  C1  UNL     1      32.476 -12.107 -31.349  0.00  0.00    +0.000 C 
ATOM     34  O1  UNL     1      31.441 -11.133 -31.421  0.00  0.00    +0.000 OA
ENDBRANCH  31  34
ENDBRANCH  25  31
ENDBRANCH  24  28
ENDBRANCH  20  24
ENDBRANCH   1  21
TORSDOF 8
ENDMDL
MODEL 4
REMARK VINA RESULT:    -6.458      3.277      5.690
REMARK INTER + INTRA:         -10.688
REMARK INTER:                  -9.060
REMARK INTRA:                  -1.628
REMARK UNBOUND:                -1.398
REMARK  Name = resultss/4CJN/ligands/lig_271_t1.pdb
REMARK  9 active torsions:
REMARK  status: ('A' for Active; 'I' for Inactive)
REMARK    1  A    between atoms: C1_1  and  O1_2
REMARK    2  A    between atoms: O1_2  and  C2_3
REMARK    3  A    between atoms: C2_3  and  C3_5
REMARK    4  A    between atoms: C6_8  and  C7_9
REMARK    5  A    between atoms: C7_9  and  N1_10
REMARK    6  A    between atoms: C8_11  and  O3_12
REMARK    7  A    between atoms: C8_11  and  C9_13
REMARK    8  A    between atoms: C10_14  and  N2_15
REMARK    9  A    between atoms: C11_16  and  C12_18
REMARK                            x       y       z     vdW  Elec       q    Type
REMARK                         _______ _______ _______ _____ _____    ______ ____
ROOT
ATOM      1  C9  UNL     1      29.011  -9.945 -40.365  0.00  0.00    +0.000 A 
ATOM      2  C10 UNL     1      29.489  -9.381 -39.181  0.00  0.00    +0.000 A 
ATOM      3  S1  UNL     1      31.176  -9.305 -39.252  0.00  0.00    +0.000 S 
ATOM      4  C17 UNL     1      31.303  -9.946 -40.802  0.00  0.00    +0.000 A 
ATOM      5  C18 UNL     1      30.036 -10.276 -41.269  0.00  0.00    +0.000 A 
ATOM      6  C19 UNL     1      29.818 -10.849 -42.646  0.00  0.00    +0.000 C 
ATOM      7  C20 UNL     1      31.111 -11.460 -43.215  0.00  0.00    +0.000 C 
ATOM      8  C21 UNL     1      32.314 -10.522 -43.011  0.00  0.00    +0.000 C 
ATOM      9  C22 UNL     1      32.578 -10.272 -41.517  0.00  0.00    +0.000 C 
ENDROOT
BRANCH   2  10
ATOM     10  N2  UNL     1      28.669  -8.989 -38.068  0.00  0.00    +0.000 N 
ATOM     11  C11 UNL     1      27.821  -9.893 -37.336  0.00  0.00    +0.000 C 
ATOM     12  O4  UNL     1      28.014 -11.137 -37.412  0.00  0.00    +0.000 OA
ATOM     13  H9  UNL     1      28.747  -8.003 -37.733  0.00  0.00    +0.000 HD
BRANCH  11  14
ATOM     14  C12 UNL     1      26.735  -9.379 -36.462  0.00  0.00    +0.000 A 
ATOM     15  C13 UNL     1      26.752  -9.642 -35.082  0.00  0.00    +0.000 A 
ATOM     16  C14 UNL     1      25.726  -9.166 -34.263  0.00  0.00    +0.000 A 
ATOM     17  C15 UNL     1      24.681  -8.438 -34.829  0.00  0.00    +0.000 A 
ATOM     18  N3  UNL     1      24.665  -8.200 -36.165  0.00  0.00    +0.000 NA
ATOM     19  C16 UNL     1      25.653  -8.648 -36.986  0.00  0.00    +0.000 A 
ENDBRANCH  11  14
ENDBRANCH   2  10
BRANCH   1  21
ATOM     20  N1  UNL     1      26.791  -9.251 -41.052  0.00  0.00    +0.000 NA
ATOM     21  C8  UNL     1      27.583 -10.194 -40.633  0.00  0.00    +0.000 C 
BRANCH  21  22
ATOM     22  O3  UNL     1      27.078 -11.471 -40.418  0.00  0.00    +0.000 OA
ATOM     23  H8  UNL     1      26.603 -11.977 -41.157  0.00  0.00    +0.000 HD
ENDBRANCH  21  22
BRANCH  20  24
ATOM     24  C7  UNL     1      27.207  -7.874 -41.300  0.00  0.00    +0.000 C 
BRANCH  24  28
ATOM     25  C3  UNL     1      27.077  -7.155 -45.561  0.00  0.00    +0.000 A 
ATOM     26  C4  UNL     1      28.302  -7.404 -44.917  0.00  0.00    +0.000 A 
ATOM     27  C5  UNL     1      28.346  -7.629 -43.537  0.00  0.00    +0.000 A 
ATOM     28  C6  UNL     1      27.168  -7.599 -42.776  0.00  0.00    +0.000 A 
ATOM     29  C23 UNL     1      25.942  -7.367 -43.415  0.00  0.00    +0.000 A 
ATOM     30  C24 UNL     1      25.897  -7.140 -44.795  0.00  0.00    +0.000 A 
BRANCH  25  31
ATOM     31  C2  UNL     1      27.034  -6.918 -47.020  0.00  0.00    +0.000 C 
ATOM     32  O2  UNL     1      27.970  -6.287 -47.586  0.00  0.00    +0.000 OA
BRANCH  31  34
ATOM     33  C1  UNL     1      24.886  -6.557 -48.197  0.00  0.00    +0.000 C 
ATOM     34  O1  UNL     1      25.956  -7.395 -47.773  0.00  0.00    +0.000 OA
ENDBRANCH  31  34
ENDBRANCH  25  31
ENDBRANCH  24  28
ENDBRANCH  20  24
ENDBRANCH   1  21
TORSDOF 8
ENDMDL
MODEL 5
REMARK VINA RESULT:    -6.406      2.718      6.646
REMARK INTER + INTRA:         -10.613
REMARK INTER:                  -8.016
REMARK INTRA:                  -2.597
REMARK UNBOUND:                -1.398
REMARK  Name = resultss/4CJN/ligands/lig_271_t1.pdb
REMARK  9 active torsions:
REMARK  status: ('A' for Active; 'I' for Inactive)
REMARK    1  A    between atoms: C1_1  and  O1_2
REMARK    2  A    between atoms: O1_2  and  C2_3
REMARK    3  A    between atoms: C2_3  and  C3_5
REMARK    4  A    between atoms: C6_8  and  C7_9
REMARK    5  A    between atoms: C7_9  and  N1_10
REMARK    6  A    between atoms: C8_11  and  O3_12
REMARK    7  A    between atoms: C8_11  and  C9_13
REMARK    8  A    between atoms: C10_14  and  N2_15
REMARK    9  A    between atoms: C11_16  and  C12_18
REMARK                            x       y       z     vdW  Elec       q    Type
REMARK                         _______ _______ _______ _____ _____    ______ ____
ROOT
ATOM      1  C9  UNL     1      26.111  -7.690 -36.222  0.00  0.00    +0.000 A 
ATOM      2  C10 UNL     1      25.457  -7.219 -37.362  0.00  0.00    +0.000 A 
ATOM      3  S1  UNL     1      23.791  -7.220 -37.078  0.00  0.00    +0.000 S 
ATOM      4  C17 UNL     1      23.895  -7.776 -35.494  0.00  0.00    +0.000 A 
ATOM      5  C18 UNL     1      25.228  -8.017 -35.179  0.00  0.00    +0.000 A 
ATOM      6  C19 UNL     1      25.649  -8.498 -33.813  0.00  0.00    +0.000 C 
ATOM      7  C20 UNL     1      24.473  -9.137 -33.052  0.00  0.00    +0.000 C 
ATOM      8  C21 UNL     1      23.204  -8.271 -33.147  0.00  0.00    +0.000 C 
ATOM      9  C22 UNL     1      22.741  -8.122 -34.605  0.00  0.00    +0.000 C 
ENDROOT
BRANCH   2  10
ATOM     10  N2  UNL     1      26.107  -6.853 -38.591  0.00  0.00    +0.000 N 
ATOM     11  C11 UNL     1      26.023  -7.621 -39.805  0.00  0.00    +0.000 C 
ATOM     12  O4  UNL     1      25.099  -8.466 -39.952  0.00  0.00    +0.000 OA
ATOM     13  H9  UNL     1      26.615  -5.940 -38.616  0.00  0.00    +0.000 HD
BRANCH  11  14
ATOM     14  C12 UNL     1      26.995  -7.410 -40.908  0.00  0.00    +0.000 A 
ATOM     15  C13 UNL     1      28.212  -6.752 -40.663  0.00  0.00    +0.000 A 
ATOM     16  C14 UNL     1      29.122  -6.546 -41.703  0.00  0.00    +0.000 A 
ATOM     17  C15 UNL     1      28.807  -6.990 -42.986  0.00  0.00    +0.000 A 
ATOM     18  N3  UNL     1      27.622  -7.612 -43.217  0.00  0.00    +0.000 NA
ATOM     19  C16 UNL     1      26.720  -7.830 -42.223  0.00  0.00    +0.000 A 
ENDBRANCH  11  14
ENDBRANCH   2  10
BRANCH   1  21
ATOM     20  N1  UNL     1      28.181  -8.877 -36.653  0.00  0.00    +0.000 NA
ATOM     21  C8  UNL     1      27.572  -7.854 -36.128  0.00  0.00    +0.000 C 
BRANCH  21  22
ATOM     22  O3  UNL     1      28.309  -6.890 -35.448  0.00  0.00    +0.000 OA
ATOM     23  H8  UNL     1      29.311  -6.983 -35.333  0.00  0.00    +0.000 HD
ENDBRANCH  21  22
BRANCH  20  24
ATOM     24  C7  UNL     1      27.512  -9.953 -37.378  0.00  0.00    +0.000 C 
BRANCH  24  28
ATOM     25  C3  UNL     1      29.585 -10.641 -41.107  0.00  0.00    +0.000 A 
ATOM     26  C4  UNL     1      28.288 -11.147 -40.909  0.00  0.00    +0.000 A 
ATOM     27  C5  UNL     1      27.619 -10.931 -39.700  0.00  0.00    +0.000 A 
ATOM     28  C6  UNL     1      28.239 -10.215 -38.665  0.00  0.00    +0.000 A 
ATOM     29  C23 UNL     1      29.526  -9.696 -38.863  0.00  0.00    +0.000 A 
ATOM     30  C24 UNL     1      30.197  -9.912 -40.071  0.00  0.00    +0.000 A 
BRANCH  25  31
ATOM     31  C2  UNL     1      30.290 -10.871 -42.387  0.00  0.00    +0.000 C 
ATOM     32  O2  UNL     1      30.330  -9.959 -43.260  0.00  0.00    +0.000 OA
BRANCH  31  34
ATOM     33  C1  UNL     1      31.770 -12.318 -43.746  0.00  0.00    +0.000 C 
ATOM     34  O1  UNL     1      30.914 -12.099 -42.629  0.00  0.00    +0.000 OA
ENDBRANCH  31  34
ENDBRANCH  25  31
ENDBRANCH  24  28
ENDBRANCH  20  24
ENDBRANCH   1  21
TORSDOF 8
ENDMDL
MODEL 6
REMARK VINA RESULT:    -6.358      2.236      3.314
REMARK INTER + INTRA:         -10.544
REMARK INTER:                  -8.654
REMARK INTRA:                  -1.890
REMARK UNBOUND:                -1.398
REMARK  Name = resultss/4CJN/ligands/lig_271_t1.pdb
REMARK  9 active torsions:
REMARK  status: ('A' for Active; 'I' for Inactive)
REMARK    1  A    between atoms: C1_1  and  O1_2
REMARK    2  A    between atoms: O1_2  and  C2_3
REMARK    3  A    between atoms: C2_3  and  C3_5
REMARK    4  A    between atoms: C6_8  and  C7_9
REMARK    5  A    between atoms: C7_9  and  N1_10
REMARK    6  A    between atoms: C8_11  and  O3_12
REMARK    7  A    between atoms: C8_11  and  C9_13
REMARK    8  A    between atoms: C10_14  and  N2_15
REMARK    9  A    between atoms: C11_16  and  C12_18
REMARK                            x       y       z     vdW  Elec       q    Type
REMARK                         _______ _______ _______ _____ _____    ______ ____
ROOT
ATOM      1  C9  UNL     1      26.516  -8.043 -40.186  0.00  0.00    +0.000 A 
ATOM      2  C10 UNL     1      25.205  -8.446 -39.929  0.00  0.00    +0.000 A 
ATOM      3  S1  UNL     1      24.353  -8.500 -41.388  0.00  0.00    +0.000 S 
ATOM      4  C17 UNL     1      25.655  -8.055 -42.355  0.00  0.00    +0.000 A 
ATOM      5  C18 UNL     1      26.762  -7.810 -41.550  0.00  0.00    +0.000 A 
ATOM      6  C19 UNL     1      28.098  -7.418 -42.130  0.00  0.00    +0.000 C 
ATOM      7  C20 UNL     1      27.952  -6.859 -43.557  0.00  0.00    +0.000 C 
ATOM      8  C21 UNL     1      27.029  -7.743 -44.416  0.00  0.00    +0.000 C 
ATOM      9  C22 UNL     1      25.610  -7.798 -43.829  0.00  0.00    +0.000 C 
ENDROOT
BRANCH   2  10
ATOM     10  N2  UNL     1      24.667  -8.710 -38.623  0.00  0.00    +0.000 N 
ATOM     11  C11 UNL     1      24.347  -7.686 -37.663  0.00  0.00    +0.000 C 
ATOM     12  O4  UNL     1      24.198  -6.493 -38.042  0.00  0.00    +0.000 OA
ATOM     13  H9  UNL     1      24.434  -9.700 -38.387  0.00  0.00    +0.000 HD
BRANCH  11  14
ATOM     14  C12 UNL     1      24.157  -8.021 -36.228  0.00  0.00    +0.000 A 
ATOM     15  C13 UNL     1      22.914  -7.807 -35.609  0.00  0.00    +0.000 A 
ATOM     16  C14 UNL     1      22.740  -8.114 -34.258  0.00  0.00    +0.000 A 
ATOM     17  C15 UNL     1      23.812  -8.624 -33.528  0.00  0.00    +0.000 A 
ATOM     18  N3  UNL     1      25.014  -8.815 -34.130  0.00  0.00    +0.000 NA
ATOM     19  C16 UNL     1      25.211  -8.529 -35.445  0.00  0.00    +0.000 A 
ENDBRANCH  11  14
ENDBRANCH   2  10
BRANCH   1  21
ATOM     20  N1  UNL     1      28.335  -8.817 -38.781  0.00  0.00    +0.000 NA
ATOM     21  C8  UNL     1      27.533  -7.856 -39.136  0.00  0.00    +0.000 C 
BRANCH  21  22
ATOM     22  O3  UNL     1      27.621  -6.619 -38.506  0.00  0.00    +0.000 OA
ATOM     23  H8  UNL     1      26.792  -6.069 -38.318  0.00  0.00    +0.000 HD
ENDBRANCH  21  22
BRANCH  20  24
ATOM     24  C7  UNL     1      28.327 -10.156 -39.362  0.00  0.00    +0.000 C 
BRANCH  24  28
ATOM     25  C3  UNL     1      31.555 -10.559 -42.208  0.00  0.00    +0.000 A 
ATOM     26  C4  UNL     1      31.716  -9.771 -41.055  0.00  0.00    +0.000 A 
ATOM     27  C5  UNL     1      30.670  -9.634 -40.137  0.00  0.00    +0.000 A 
ATOM     28  C6  UNL     1      29.441 -10.273 -40.361  0.00  0.00    +0.000 A 
ATOM     29  C23 UNL     1      29.280 -11.072 -41.502  0.00  0.00    +0.000 A 
ATOM     30  C24 UNL     1      30.325 -11.209 -42.422  0.00  0.00    +0.000 A 
BRANCH  25  31
ATOM     31  C2  UNL     1      32.663 -10.702 -43.177  0.00  0.00    +0.000 C 
ATOM     32  O2  UNL     1      33.801 -10.224 -42.911  0.00  0.00    +0.000 OA
BRANCH  31  34
ATOM     33  C1  UNL     1      32.868 -12.714 -44.606  0.00  0.00    +0.000 C 
ATOM     34  O1  UNL     1      32.450 -11.371 -44.387  0.00  0.00    +0.000 OA
ENDBRANCH  31  34
ENDBRANCH  25  31
ENDBRANCH  24  28
ENDBRANCH  20  24
ENDBRANCH   1  21
TORSDOF 8
ENDMDL
MODEL 7
REMARK VINA RESULT:    -6.311      2.750      8.345
REMARK INTER + INTRA:         -10.477
REMARK INTER:                  -9.190
REMARK INTRA:                  -1.287
REMARK UNBOUND:                -1.398
REMARK  Name = resultss/4CJN/ligands/lig_271_t1.pdb
REMARK  9 active torsions:
REMARK  status: ('A' for Active; 'I' for Inactive)
REMARK    1  A    between atoms: C1_1  and  O1_2
REMARK    2  A    between atoms: O1_2  and  C2_3
REMARK    3  A    between atoms: C2_3  and  C3_5
REMARK    4  A    between atoms: C6_8  and  C7_9
REMARK    5  A    between atoms: C7_9  and  N1_10
REMARK    6  A    between atoms: C8_11  and  O3_12
REMARK    7  A    between atoms: C8_11  and  C9_13
REMARK    8  A    between atoms: C10_14  and  N2_15
REMARK    9  A    between atoms: C11_16  and  C12_18
REMARK                            x       y       z     vdW  Elec       q    Type
REMARK                         _______ _______ _______ _____ _____    ______ ____
ROOT
ATOM      1  C9  UNL     1      27.413  -9.963 -41.164  0.00  0.00    +0.000 A 
ATOM      2  C10 UNL     1      28.344  -9.854 -42.199  0.00  0.00    +0.000 A 
ATOM      3  S1  UNL     1      27.913  -8.553 -43.188  0.00  0.00    +0.000 S 
ATOM      4  C17 UNL     1      26.571  -8.097 -42.284  0.00  0.00    +0.000 A 
ATOM      5  C18 UNL     1      26.408  -8.982 -41.224  0.00  0.00    +0.000 A 
ATOM      6  C19 UNL     1      25.302  -8.819 -40.212  0.00  0.00    +0.000 C 
ATOM      7  C20 UNL     1      24.163  -7.938 -40.757  0.00  0.00    +0.000 C 
ATOM      8  C21 UNL     1      24.709  -6.667 -41.432  0.00  0.00    +0.000 C 
ATOM      9  C22 UNL     1      25.597  -7.016 -42.638  0.00  0.00    +0.000 C 
ENDROOT
BRANCH   2  10
ATOM     10  N2  UNL     1      29.449 -10.748 -42.408  0.00  0.00    +0.000 N 
ATOM     11  C11 UNL     1      30.824 -10.398 -42.167  0.00  0.00    +0.000 C 
ATOM     12  O4  UNL     1      31.102  -9.409 -41.436  0.00  0.00    +0.000 OA
ATOM     13  H9  UNL     1      29.230 -11.730 -42.687  0.00  0.00    +0.000 HD
BRANCH  11  14
ATOM     14  C12 UNL     1      31.928 -11.207 -42.744  0.00  0.00    +0.000 A 
ATOM     15  C13 UNL     1      31.646 -12.258 -43.633  0.00  0.00    +0.000 A 
ATOM     16  C14 UNL     1      32.684 -13.024 -44.169  0.00  0.00    +0.000 A 
ATOM     17  C15 UNL     1      34.000 -12.742 -43.805  0.00  0.00    +0.000 A 
ATOM     18  N3  UNL     1      34.263 -11.734 -42.935  0.00  0.00    +0.000 NA
ATOM     19  C16 UNL     1      33.272 -10.970 -42.401  0.00  0.00    +0.000 A 
ENDBRANCH  11  14
ENDBRANCH   2  10
BRANCH   1  21
ATOM     20  N1  UNL     1      28.069 -10.827 -38.996  0.00  0.00    +0.000 NA
ATOM     21  C8  UNL     1      27.460 -11.012 -40.130  0.00  0.00    +0.000 C 
BRANCH  21  22
ATOM     22  O3  UNL     1      26.846 -12.232 -40.390  0.00  0.00    +0.000 OA
ATOM     23  H8  UNL     1      27.275 -12.913 -41.005  0.00  0.00    +0.000 HD
ENDBRANCH  21  22
BRANCH  20  24
ATOM     24  C7  UNL     1      28.756  -9.596 -38.619  0.00  0.00    +0.000 C 
BRANCH  24  28
ATOM     25  C3  UNL     1      29.580  -9.591 -34.375  0.00  0.00    +0.000 A 
ATOM     26  C4  UNL     1      30.620  -9.404 -35.303  0.00  0.00    +0.000 A 
ATOM     27  C5  UNL     1      30.356  -9.414 -36.677  0.00  0.00    +0.000 A 
ATOM     28  C6  UNL     1      29.050  -9.619 -37.146  0.00  0.00    +0.000 A 
ATOM     29  C23 UNL     1      28.007  -9.790 -36.225  0.00  0.00    +0.000 A 
ATOM     30  C24 UNL     1      28.269  -9.783 -34.851  0.00  0.00    +0.000 A 
BRANCH  25  31
ATOM     31  C2  UNL     1      29.863  -9.580 -32.924  0.00  0.00    +0.000 C 
ATOM     32  O2  UNL     1      29.357  -8.688 -32.187  0.00  0.00    +0.000 OA
BRANCH  31  34
ATOM     33  C1  UNL     1      32.044 -10.311 -32.009  0.00  0.00    +0.000 C 
ATOM     34  O1  UNL     1      30.689 -10.562 -32.367  0.00  0.00    +0.000 OA
ENDBRANCH  31  34
ENDBRANCH  25  31
ENDBRANCH  24  28
ENDBRANCH  20  24
ENDBRANCH   1  21
TORSDOF 8
ENDMDL
MODEL 8
REMARK VINA RESULT:    -6.228      3.135      6.465
REMARK INTER + INTRA:         -10.356
REMARK INTER:                  -9.347
REMARK INTRA:                  -1.010
REMARK UNBOUND:                -1.398
REMARK  Name = resultss/4CJN/ligands/lig_271_t1.pdb
REMARK  9 active torsions:
REMARK  status: ('A' for Active; 'I' for Inactive)
REMARK    1  A    between atoms: C1_1  and  O1_2
REMARK    2  A    between atoms: O1_2  and  C2_3
REMARK    3  A    between atoms: C2_3  and  C3_5
REMARK    4  A    between atoms: C6_8  and  C7_9
REMARK    5  A    between atoms: C7_9  and  N1_10
REMARK    6  A    between atoms: C8_11  and  O3_12
REMARK    7  A    between atoms: C8_11  and  C9_13
REMARK    8  A    between atoms: C10_14  and  N2_15
REMARK    9  A    between atoms: C11_16  and  C12_18
REMARK                            x       y       z     vdW  Elec       q    Type
REMARK                         _______ _______ _______ _____ _____    ______ ____
ROOT
ATOM      1  C9  UNL     1      29.872 -10.330 -40.882  0.00  0.00    +0.000 A 
ATOM      2  C10 UNL     1      30.339  -9.631 -39.767  0.00  0.00    +0.000 A 
ATOM      3  S1  UNL     1      32.000  -9.371 -39.939  0.00  0.00    +0.000 S 
ATOM      4  C17 UNL     1      32.125 -10.104 -41.448  0.00  0.00    +0.000 A 
ATOM      5  C18 UNL     1      30.883 -10.607 -41.819  0.00  0.00    +0.000 A 
ATOM      6  C19 UNL     1      30.666 -11.300 -43.141  0.00  0.00    +0.000 C 
ATOM      7  C20 UNL     1      31.992 -11.800 -43.741  0.00  0.00    +0.000 C 
ATOM      8  C21 UNL     1      33.086 -10.720 -43.668  0.00  0.00    +0.000 C 
ATOM      9  C22 UNL     1      33.392 -10.335 -42.212  0.00  0.00    +0.000 C 
ENDROOT
BRANCH   2  10
ATOM     10  N2  UNL     1      29.534  -9.255 -38.637  0.00  0.00    +0.000 N 
ATOM     11  C11 UNL     1      29.690  -9.810 -37.319  0.00  0.00    +0.000 C 
ATOM     12  O4  UNL     1      30.760 -10.399 -37.007  0.00  0.00    +0.000 OA
ATOM     13  H9  UNL     1      28.841  -8.485 -38.772  0.00  0.00    +0.000 HD
BRANCH  11  14
ATOM     14  C12 UNL     1      28.615  -9.673 -36.303  0.00  0.00    +0.000 A 
ATOM     15  C13 UNL     1      28.939  -9.484 -34.949  0.00  0.00    +0.000 A 
ATOM     16  C14 UNL     1      27.928  -9.364 -33.993  0.00  0.00    +0.000 A 
ATOM     17  C15 UNL     1      26.595  -9.443 -34.394  0.00  0.00    +0.000 A 
ATOM     18  N3  UNL     1      26.290  -9.638 -35.703  0.00  0.00    +0.000 NA
ATOM     19  C16 UNL     1      27.255  -9.755 -36.654  0.00  0.00    +0.000 A 
ENDBRANCH  11  14
ENDBRANCH   2  10
BRANCH   1  21
ATOM     20  N1  UNL     1      27.620 -10.054 -41.739  0.00  0.00    +0.000 NA
ATOM     21  C8  UNL     1      28.472 -10.757 -41.051  0.00  0.00    +0.000 C 
BRANCH  21  22
ATOM     22  O3  UNL     1      28.058 -11.938 -40.445  0.00  0.00    +0.000 OA
ATOM     23  H8  UNL     1      27.810 -11.963 -39.463  0.00  0.00    +0.000 HD
ENDBRANCH  21  22
BRANCH  20  24
ATOM     24  C7  UNL     1      27.938  -8.796 -42.407  0.00  0.00    +0.000 C 
BRANCH  24  28
ATOM     25  C3  UNL     1      24.567  -7.502 -44.784  0.00  0.00    +0.000 A 
ATOM     26  C4  UNL     1      24.387  -8.416 -43.730  0.00  0.00    +0.000 A 
ATOM     27  C5  UNL     1      25.478  -8.841 -42.965  0.00  0.00    +0.000 A 
ATOM     28  C6  UNL     1      26.769  -8.368 -43.247  0.00  0.00    +0.000 A 
ATOM     29  C23 UNL     1      26.952  -7.446 -44.286  0.00  0.00    +0.000 A 
ATOM     30  C24 UNL     1      25.862  -7.021 -45.054  0.00  0.00    +0.000 A 
BRANCH  25  31
ATOM     31  C2  UNL     1      23.411  -7.054 -45.591  0.00  0.00    +0.000 C 
ATOM     32  O2  UNL     1      22.622  -6.181 -45.134  0.00  0.00    +0.000 OA
BRANCH  31  34
ATOM     33  C1  UNL     1      23.733  -7.018 -48.045  0.00  0.00    +0.000 C 
ATOM     34  O1  UNL     1      23.195  -7.598 -46.862  0.00  0.00    +0.000 OA
ENDBRANCH  31  34
ENDBRANCH  25  31
ENDBRANCH  24  28
ENDBRANCH  20  24
ENDBRANCH   1  21
TORSDOF 8
ENDMDL
MODEL 9
REMARK VINA RESULT:    -6.160      2.675      4.534
REMARK INTER + INTRA:         -10.259
REMARK INTER:                  -7.980
REMARK INTRA:                  -2.278
REMARK UNBOUND:                -1.398
REMARK  Name = resultss/4CJN/ligands/lig_271_t1.pdb
REMARK  9 active torsions:
REMARK  status: ('A' for Active; 'I' for Inactive)
REMARK    1  A    between atoms: C1_1  and  O1_2
REMARK    2  A    between atoms: O1_2  and  C2_3
REMARK    3  A    between atoms: C2_3  and  C3_5
REMARK    4  A    between atoms: C6_8  and  C7_9
REMARK    5  A    between atoms: C7_9  and  N1_10
REMARK    6  A    between atoms: C8_11  and  O3_12
REMARK    7  A    between atoms: C8_11  and  C9_13
REMARK    8  A    between atoms: C10_14  and  N2_15
REMARK    9  A    between atoms: C11_16  and  C12_18
REMARK                            x       y       z     vdW  Elec       q    Type
REMARK                         _______ _______ _______ _____ _____    ______ ____
ROOT
ATOM      1  C9  UNL     1      28.778  -8.344 -38.625  0.00  0.00    +0.000 A 
ATOM      2  C10 UNL     1      28.264  -8.983 -37.495  0.00  0.00    +0.000 A 
ATOM      3  S1  UNL     1      29.483  -9.918 -36.792  0.00  0.00    +0.000 S 
ATOM      4  C17 UNL     1      30.679  -9.483 -37.892  0.00  0.00    +0.000 A 
ATOM      5  C18 UNL     1      30.133  -8.640 -38.854  0.00  0.00    +0.000 A 
ATOM      6  C19 UNL     1      30.967  -8.054 -39.965  0.00  0.00    +0.000 C 
ATOM      7  C20 UNL     1      32.261  -8.859 -40.185  0.00  0.00    +0.000 C 
ATOM      8  C21 UNL     1      32.963  -9.172 -38.851  0.00  0.00    +0.000 C 
ATOM      9  C22 UNL     1      32.070 -10.033 -37.942  0.00  0.00    +0.000 C 
ENDROOT
BRANCH   2  10
ATOM     10  N2  UNL     1      26.900  -8.895 -37.051  0.00  0.00    +0.000 N 
ATOM     11  C11 UNL     1      26.422  -7.918 -36.109  0.00  0.00    +0.000 C 
ATOM     12  O4  UNL     1      27.096  -6.876 -35.887  0.00  0.00    +0.000 OA
ATOM     13  H9  UNL     1      26.206  -9.539 -37.493  0.00  0.00    +0.000 HD
BRANCH  11  14
ATOM     14  C12 UNL     1      25.123  -8.104 -35.413  0.00  0.00    +0.000 A 
ATOM     15  C13 UNL     1      25.080  -8.706 -34.144  0.00  0.00    +0.000 A 
ATOM     16  C14 UNL     1      23.857  -8.888 -33.493  0.00  0.00    +0.000 A 
ATOM     17  C15 UNL     1      22.681  -8.477 -34.118  0.00  0.00    +0.000 A 
ATOM     18  N3  UNL     1      22.731  -7.908 -35.350  0.00  0.00    +0.000 NA
ATOM     19  C16 UNL     1      23.907  -7.715 -36.005  0.00  0.00    +0.000 A 
ENDBRANCH  11  14
ENDBRANCH   2  10
BRANCH   1  21
ATOM     20  N1  UNL     1      27.202  -7.957 -40.427  0.00  0.00    +0.000 NA
ATOM     21  C8  UNL     1      27.980  -7.471 -39.504  0.00  0.00    +0.000 C 
BRANCH  21  22
ATOM     22  O3  UNL     1      28.078  -6.094 -39.343  0.00  0.00    +0.000 OA
ATOM     23  H8  UNL     1      27.665  -5.630 -38.542  0.00  0.00    +0.000 HD
ENDBRANCH  21  22
BRANCH  20  24
ATOM     24  C7  UNL     1      27.029  -9.381 -40.695  0.00  0.00    +0.000 C 
BRANCH  24  28
ATOM     25  C3  UNL     1      30.409 -10.787 -42.993  0.00  0.00    +0.000 A 
ATOM     26  C4  UNL     1      29.747  -9.600 -43.353  0.00  0.00    +0.000 A 
ATOM     27  C5  UNL     1      28.648  -9.148 -42.614  0.00  0.00    +0.000 A 
ATOM     28  C6  UNL     1      28.187  -9.880 -41.510  0.00  0.00    +0.000 A 
ATOM     29  C23 UNL     1      28.853 -11.056 -41.137  0.00  0.00    +0.000 A 
ATOM     30  C24 UNL     1      29.951 -11.511 -41.875  0.00  0.00    +0.000 A 
BRANCH  25  31
ATOM     31  C2  UNL     1      31.571 -11.263 -43.775  0.00  0.00    +0.000 C 
ATOM     32  O2  UNL     1      32.359 -10.431 -44.307  0.00  0.00    +0.000 OA
BRANCH  31  34
ATOM     33  C1  UNL     1      32.726 -13.162 -44.866  0.00  0.00    +0.000 C 
ATOM     34  O1  UNL     1      31.798 -12.635 -43.924  0.00  0.00    +0.000 OA
ENDBRANCH  31  34
ENDBRANCH  25  31
ENDBRANCH  24  28
ENDBRANCH  20  24
ENDBRANCH   1  21
TORSDOF 8
ENDMDL
