MODEL 1
REMARK VINA RESULT:    -6.860      0.000      0.000
REMARK INTER + INTRA:         -11.335
REMARK INTER:                  -9.868
REMARK INTRA:                  -1.467
REMARK UNBOUND:                -1.467
REMARK  Name = resultss/4CJN/ligands/lig_271_t2.pdb
REMARK  9 active torsions:
REMARK  status: ('A' for Active; 'I' for Inactive)
REMARK    1  A    between atoms: C1_1  and  O1_2
REMARK    2  A    between atoms: O1_2  and  C2_3
REMARK    3  A    between atoms: C2_3  and  C3_5
REMARK    4  A    between atoms: C6_8  and  C7_9
REMARK    5  A    between atoms: C7_9  and  N1_10
REMARK    6  A    between atoms: C8_11  and  C9_13
REMARK    7  A    between atoms: C10_14  and  N2_15
REMARK    8  A    between atoms: C11_16  and  O4_17
REMARK    9  A    between atoms: C11_16  and  C12_18
REMARK                            x       y       z     vdW  Elec       q    Type
REMARK                         _______ _______ _______ _____ _____    ______ ____
ROOT
ATOM      1  C9  UNL     1      27.285  -8.616 -40.527  0.00  0.00    +0.000 A 
ATOM      2  C10 UNL     1      26.833  -8.788 -39.219  0.00  0.00    +0.000 A 
ATOM      3  S1  UNL     1      25.158  -8.591 -39.175  0.00  0.00    +0.000 S 
ATOM      4  C17 UNL     1      24.980  -8.391 -40.832  0.00  0.00    +0.000 A 
ATOM      5  C18 UNL     1      26.232  -8.396 -41.443  0.00  0.00    +0.000 A 
ATOM      6  C19 UNL     1      26.370  -8.368 -42.947  0.00  0.00    +0.000 C 
ATOM      7  C20 UNL     1      25.097  -7.839 -43.631  0.00  0.00    +0.000 C 
ATOM      8  C21 UNL     1      23.831  -8.484 -43.043  0.00  0.00    +0.000 C 
ATOM      9  C22 UNL     1      23.687  -8.152 -41.550  0.00  0.00    +0.000 C 
ENDROOT
BRANCH   1  11
ATOM     10  N1  UNL     1      29.414  -9.957 -40.756  0.00  0.00    +0.000 N 
ATOM     11  C8  UNL     1      28.711  -8.717 -40.893  0.00  0.00    +0.000 C 
ATOM     12  O3  UNL     1      29.301  -7.705 -41.360  0.00  0.00    +0.000 OA
ATOM     13  H8  UNL     1      28.871 -10.848 -40.696  0.00  0.00    +0.000 HD
BRANCH  10  14
ATOM     14  C7  UNL     1      30.869 -10.017 -40.648  0.00  0.00    +0.000 C 
BRANCH  14  18
ATOM     15  C3  UNL     1      32.574 -11.552 -44.312  0.00  0.00    +0.000 A 
ATOM     16  C4  UNL     1      33.372 -10.843 -43.397  0.00  0.00    +0.000 A 
ATOM     17  C5  UNL     1      32.818 -10.329 -42.221  0.00  0.00    +0.000 A 
ATOM     18  C6  UNL     1      31.455 -10.508 -41.943  0.00  0.00    +0.000 A 
ATOM     19  C23 UNL     1      30.656 -11.220 -42.850  0.00  0.00    +0.000 A 
ATOM     20  C24 UNL     1      31.209 -11.736 -44.025  0.00  0.00    +0.000 A 
BRANCH  15  21
ATOM     21  C2  UNL     1      33.166 -12.100 -45.552  0.00  0.00    +0.000 C 
ATOM     22  O2  UNL     1      33.276 -11.372 -46.578  0.00  0.00    +0.000 OA
BRANCH  21  24
ATOM     23  C1  UNL     1      32.950 -14.433 -46.352  0.00  0.00    +0.000 C 
ATOM     24  O1  UNL     1      33.605 -13.429 -45.588  0.00  0.00    +0.000 OA
ENDBRANCH  21  24
ENDBRANCH  15  21
ENDBRANCH  14  18
ENDBRANCH  10  14
ENDBRANCH   1  11
BRANCH   2  25
ATOM     25  N2  UNL     1      27.695  -8.860 -38.075  0.00  0.00    +0.000 NA
ATOM     26  C11 UNL     1      28.167  -9.937 -37.513  0.00  0.00    +0.000 C 
BRANCH  26  27
ATOM     27  C12 UNL     1      28.950  -9.822 -36.259  0.00  0.00    +0.000 A 
ATOM     28  C13 UNL     1      28.306  -9.863 -35.011  0.00  0.00    +0.000 A 
ATOM     29  C14 UNL     1      29.048  -9.756 -33.832  0.00  0.00    +0.000 A 
ATOM     30  C15 UNL     1      30.433  -9.609 -33.907  0.00  0.00    +0.000 A 
ATOM     31  N3  UNL     1      31.048  -9.571 -35.117  0.00  0.00    +0.000 NA
ATOM     32  C16 UNL     1      30.350  -9.673 -36.280  0.00  0.00    +0.000 A 
ENDBRANCH  26  27
BRANCH  26  33
ATOM     33  O4  UNL     1      27.989 -11.201 -38.084  0.00  0.00    +0.000 OA
ATOM     34  H9  UNL     1      27.736 -12.021 -37.549  0.00  0.00    +0.000 HD
ENDBRANCH  26  33
ENDBRANCH   2  25
TORSDOF 8
ENDMDL
MODEL 2
REMARK VINA RESULT:    -6.614      3.108      5.217
REMARK INTER + INTRA:         -10.981
REMARK INTER:                  -8.381
REMARK INTRA:                  -2.600
REMARK UNBOUND:                -1.467
REMARK  Name = resultss/4CJN/ligands/lig_271_t2.pdb
REMARK  9 active torsions:
REMARK  status: ('A' for Active; 'I' for Inactive)
REMARK    1  A    between atoms: C1_1  and  O1_2
REMARK    2  A    between atoms: O1_2  and  C2_3
REMARK    3  A    between atoms: C2_3  and  C3_5
REMARK    4  A    between atoms: C6_8  and  C7_9
REMARK    5  A    between atoms: C7_9  and  N1_10
REMARK    6  A    between atoms: C8_11  and  C9_13
REMARK    7  A    between atoms: C10_14  and  N2_15
REMARK    8  A    between atoms: C11_16  and  O4_17
REMARK    9  A    between atoms: C11_16  and  C12_18
REMARK                            x       y       z     vdW  Elec       q    Type
REMARK                         _______ _______ _______ _____ _____    ______ ____
ROOT
ATOM      1  C9  UNL     1      25.775  -8.495 -36.809  0.00  0.00    +0.000 A 
ATOM      2  C10 UNL     1      26.967  -9.114 -36.433  0.00  0.00    +0.000 A 
ATOM      3  S1  UNL     1      26.920  -9.466 -34.783  0.00  0.00    +0.000 S 
ATOM      4  C17 UNL     1      25.345  -8.932 -34.554  0.00  0.00    +0.000 A 
ATOM      5  C18 UNL     1      24.853  -8.398 -35.743  0.00  0.00    +0.000 A 
ATOM      6  C19 UNL     1      23.412  -7.961 -35.868  0.00  0.00    +0.000 C 
ATOM      7  C20 UNL     1      22.768  -7.704 -34.493  0.00  0.00    +0.000 C 
ATOM      8  C21 UNL     1      23.087  -8.834 -33.500  0.00  0.00    +0.000 C 
ATOM      9  C22 UNL     1      24.599  -8.940 -33.255  0.00  0.00    +0.000 C 
ENDROOT
BRANCH   1  11
ATOM     10  N1  UNL     1      25.799  -8.915 -39.300  0.00  0.00    +0.000 N 
ATOM     11  C8  UNL     1      25.512  -8.055 -38.192  0.00  0.00    +0.000 C 
ATOM     12  O3  UNL     1      24.999  -6.920 -38.391  0.00  0.00    +0.000 OA
ATOM     13  H8  UNL     1      25.899  -9.943 -39.135  0.00  0.00    +0.000 HD
BRANCH  10  14
ATOM     14  C7  UNL     1      26.006  -8.401 -40.651  0.00  0.00    +0.000 C 
BRANCH  14  18
ATOM     15  C3  UNL     1      29.452 -10.336 -42.402  0.00  0.00    +0.000 A 
ATOM     16  C4  UNL     1      28.864  -9.224 -43.030  0.00  0.00    +0.000 A 
ATOM     17  C5  UNL     1      27.737  -8.609 -42.475  0.00  0.00    +0.000 A 
ATOM     18  C6  UNL     1      27.175  -9.100 -41.288  0.00  0.00    +0.000 A 
ATOM     19  C23 UNL     1      27.761 -10.206 -40.655  0.00  0.00    +0.000 A 
ATOM     20  C24 UNL     1      28.889 -10.820 -41.207  0.00  0.00    +0.000 A 
BRANCH  15  21
ATOM     21  C2  UNL     1      30.648 -10.980 -42.989  0.00  0.00    +0.000 C 
ATOM     22  O2  UNL     1      31.384 -10.339 -43.790  0.00  0.00    +0.000 OA
BRANCH  21  24
ATOM     23  C1  UNL     1      31.935 -13.061 -43.361  0.00  0.00    +0.000 C 
ATOM     24  O1  UNL     1      30.963 -12.302 -42.654  0.00  0.00    +0.000 OA
ENDBRANCH  21  24
ENDBRANCH  15  21
ENDBRANCH  14  18
ENDBRANCH  10  14
ENDBRANCH   1  11
BRANCH   2  25
ATOM     25  N2  UNL     1      28.129  -9.192 -37.270  0.00  0.00    +0.000 NA
ATOM     26  C11 UNL     1      29.073  -8.300 -37.389  0.00  0.00    +0.000 C 
BRANCH  26  27
ATOM     27  C12 UNL     1      30.141  -8.499 -38.397  0.00  0.00    +0.000 A 
ATOM     28  C13 UNL     1      30.250  -7.637 -39.501  0.00  0.00    +0.000 A 
ATOM     29  C14 UNL     1      31.259  -7.828 -40.447  0.00  0.00    +0.000 A 
ATOM     30  C15 UNL     1      32.157  -8.883 -40.285  0.00  0.00    +0.000 A 
ATOM     31  N3  UNL     1      32.047  -9.711 -39.215  0.00  0.00    +0.000 NA
ATOM     32  C16 UNL     1      31.074  -9.549 -38.279  0.00  0.00    +0.000 A 
ENDBRANCH  26  27
BRANCH  26  33
ATOM     33  O4  UNL     1      29.128  -7.174 -36.562  0.00  0.00    +0.000 OA
ATOM     34  H9  UNL     1      29.271  -6.236 -36.910  0.00  0.00    +0.000 HD
ENDBRANCH  26  33
ENDBRANCH   2  25
TORSDOF 8
ENDMDL
MODEL 3
REMARK VINA RESULT:    -6.356      1.880      5.662
REMARK INTER + INTRA:         -10.610
REMARK INTER:                  -9.058
REMARK INTRA:                  -1.552
REMARK UNBOUND:                -1.467
REMARK  Name = resultss/4CJN/ligands/lig_271_t2.pdb
REMARK  9 active torsions:
REMARK  status: ('A' for Active; 'I' for Inactive)
REMARK    1  A    between atoms: C1_1  and  O1_2
REMARK    2  A    between atoms: O1_2  and  C2_3
REMARK    3  A    between atoms: C2_3  and  C3_5
REMARK    4  A    between atoms: C6_8  and  C7_9
REMARK    5  A    between atoms: C7_9  and  N1_10
REMARK    6  A    between atoms: C8_11  and  C9_13
REMARK    7  A    between atoms: C10_14  and  N2_15
REMARK    8  A    between atoms: C11_16  and  O4_17
REMARK    9  A    between atoms: C11_16  and  C12_18
REMARK                            x       y       z     vdW  Elec       q    Type
REMARK                         _______ _______ _______ _____ _____    ______ ____
ROOT
ATOM      1  C9  UNL     1      28.223  -8.511 -38.741  0.00  0.00    +0.000 A 
ATOM      2  C10 UNL     1      27.035  -8.208 -39.406  0.00  0.00    +0.000 A 
ATOM      3  S1  UNL     1      25.725  -8.586 -38.413  0.00  0.00    +0.000 S 
ATOM      4  C17 UNL     1      26.656  -9.037 -37.090  0.00  0.00    +0.000 A 
ATOM      5  C18 UNL     1      28.007  -8.975 -37.425  0.00  0.00    +0.000 A 
ATOM      6  C19 UNL     1      29.081  -9.199 -36.386  0.00  0.00    +0.000 C 
ATOM      7  C20 UNL     1      28.546  -9.961 -35.160  0.00  0.00    +0.000 C 
ATOM      8  C21 UNL     1      27.201  -9.389 -34.683  0.00  0.00    +0.000 C 
ATOM      9  C22 UNL     1      26.129  -9.520 -35.774  0.00  0.00    +0.000 C 
ENDROOT
BRANCH   1  11
ATOM     10  N1  UNL     1      30.233  -9.379 -40.002  0.00  0.00    +0.000 N 
ATOM     11  C8  UNL     1      29.550  -8.301 -39.351  0.00  0.00    +0.000 C 
ATOM     12  O3  UNL     1      30.067  -7.152 -39.324  0.00  0.00    +0.000 OA
ATOM     13  H8  UNL     1      29.687 -10.213 -40.317  0.00  0.00    +0.000 HD
BRANCH  10  14
ATOM     14  C7  UNL     1      31.680  -9.376 -40.200  0.00  0.00    +0.000 C 
BRANCH  14  18
ATOM     15  C3  UNL     1      32.672 -11.159 -44.011  0.00  0.00    +0.000 A 
ATOM     16  C4  UNL     1      31.333 -10.890 -43.677  0.00  0.00    +0.000 A 
ATOM     17  C5  UNL     1      31.009 -10.332 -42.437  0.00  0.00    +0.000 A 
ATOM     18  C6  UNL     1      32.016 -10.040 -41.507  0.00  0.00    +0.000 A 
ATOM     19  C23 UNL     1      33.354 -10.301 -41.837  0.00  0.00    +0.000 A 
ATOM     20  C24 UNL     1      33.680 -10.857 -43.077  0.00  0.00    +0.000 A 
BRANCH  15  21
ATOM     21  C2  UNL     1      33.012 -11.743 -45.326  0.00  0.00    +0.000 C 
ATOM     22  O2  UNL     1      32.976 -11.028 -46.367  0.00  0.00    +0.000 OA
BRANCH  21  24
ATOM     23  C1  UNL     1      32.639 -14.035 -46.187  0.00  0.00    +0.000 C 
ATOM     24  O1  UNL     1      33.375 -13.092 -45.418  0.00  0.00    +0.000 OA
ENDBRANCH  21  24
ENDBRANCH  15  21
ENDBRANCH  14  18
ENDBRANCH  10  14
ENDBRANCH   1  11
BRANCH   2  25
ATOM     25  N2  UNL     1      26.958  -7.878 -40.800  0.00  0.00    +0.000 NA
ATOM     26  C11 UNL     1      27.216  -8.663 -41.809  0.00  0.00    +0.000 C 
BRANCH  26  27
ATOM     27  C12 UNL     1      27.197  -8.111 -43.184  0.00  0.00    +0.000 A 
ATOM     28  C13 UNL     1      28.392  -7.962 -43.909  0.00  0.00    +0.000 A 
ATOM     29  C14 UNL     1      28.369  -7.443 -45.205  0.00  0.00    +0.000 A 
ATOM     30  C15 UNL     1      27.149  -7.074 -45.773  0.00  0.00    +0.000 A 
ATOM     31  N3  UNL     1      25.998  -7.222 -45.067  0.00  0.00    +0.000 NA
ATOM     32  C16 UNL     1      25.992  -7.724 -43.803  0.00  0.00    +0.000 A 
ENDBRANCH  26  27
BRANCH  26  33
ATOM     33  O4  UNL     1      27.473 -10.026 -41.632  0.00  0.00    +0.000 OA
ATOM     34  H9  UNL     1      28.208 -10.520 -42.119  0.00  0.00    +0.000 HD
ENDBRANCH  26  33
ENDBRANCH   2  25
TORSDOF 8
ENDMDL
MODEL 4
REMARK VINA RESULT:    -6.313      2.520      8.090
REMARK INTER + INTRA:         -10.549
REMARK INTER:                  -8.938
REMARK INTRA:                  -1.611
REMARK UNBOUND:                -1.467
REMARK  Name = resultss/4CJN/ligands/lig_271_t2.pdb
REMARK  9 active torsions:
REMARK  status: ('A' for Active; 'I' for Inactive)
REMARK    1  A    between atoms: C1_1  and  O1_2
REMARK    2  A    between atoms: O1_2  and  C2_3
REMARK    3  A    between atoms: C2_3  and  C3_5
REMARK    4  A    between atoms: C6_8  and  C7_9
REMARK    5  A    between atoms: C7_9  and  N1_10
REMARK    6  A    between atoms: C8_11  and  C9_13
REMARK    7  A    between atoms: C10_14  and  N2_15
REMARK    8  A    between atoms: C11_16  and  O4_17
REMARK    9  A    between atoms: C11_16  and  C12_18
REMARK                            x       y       z     vdW  Elec       q    Type
REMARK                         _______ _______ _______ _____ _____    ______ ____
ROOT
ATOM      1  C9  UNL     1      28.350  -8.998 -40.812  0.00  0.00    +0.000 A 
ATOM      2  C10 UNL     1      28.576  -9.337 -42.146  0.00  0.00    +0.000 A 
ATOM      3  S1  UNL     1      27.130  -9.219 -43.007  0.00  0.00    +0.000 S 
ATOM      4  C17 UNL     1      26.228  -8.634 -41.718  0.00  0.00    +0.000 A 
ATOM      5  C18 UNL     1      27.018  -8.593 -40.571  0.00  0.00    +0.000 A 
ATOM      6  C19 UNL     1      26.505  -7.983 -39.288  0.00  0.00    +0.000 C 
ATOM      7  C20 UNL     1      24.968  -7.911 -39.259  0.00  0.00    +0.000 C 
ATOM      8  C21 UNL     1      24.403  -7.368 -40.582  0.00  0.00    +0.000 C 
ATOM      9  C22 UNL     1      24.770  -8.289 -41.756  0.00  0.00    +0.000 C 
ENDROOT
BRANCH   1  11
ATOM     10  N1  UNL     1      29.615 -10.156 -38.957  0.00  0.00    +0.000 N 
ATOM     11  C8  UNL     1      29.421  -9.012 -39.797  0.00  0.00    +0.000 C 
ATOM     12  O3  UNL     1      30.189  -8.018 -39.695  0.00  0.00    +0.000 OA
ATOM     13  H8  UNL     1      29.222 -11.079 -39.252  0.00  0.00    +0.000 HD
BRANCH  10  14
ATOM     14  C7  UNL     1      30.305 -10.070 -37.673  0.00  0.00    +0.000 C 
BRANCH  14  18
ATOM     15  C3  UNL     1      27.439  -8.988 -34.623  0.00  0.00    +0.000 A 
ATOM     16  C4  UNL     1      28.797  -8.654 -34.475  0.00  0.00    +0.000 A 
ATOM     17  C5  UNL     1      29.729  -9.020 -35.451  0.00  0.00    +0.000 A 
ATOM     18  C6  UNL     1      29.320  -9.733 -36.588  0.00  0.00    +0.000 A 
ATOM     19  C23 UNL     1      27.966 -10.064 -36.742  0.00  0.00    +0.000 A 
ATOM     20  C24 UNL     1      27.033  -9.696 -35.768  0.00  0.00    +0.000 A 
BRANCH  15  21
ATOM     21  C2  UNL     1      26.456  -8.593 -33.591  0.00  0.00    +0.000 C 
ATOM     22  O2  UNL     1      26.707  -7.632 -32.810  0.00  0.00    +0.000 OA
BRANCH  21  24
ATOM     23  C1  UNL     1      23.981  -8.651 -33.634  0.00  0.00    +0.000 C 
ATOM     24  O1  UNL     1      25.244  -9.285 -33.480  0.00  0.00    +0.000 OA
ENDBRANCH  21  24
ENDBRANCH  15  21
ENDBRANCH  14  18
ENDBRANCH  10  14
ENDBRANCH   1  11
BRANCH   2  25
ATOM     25  N2  UNL     1      29.787  -9.936 -42.627  0.00  0.00    +0.000 NA
ATOM     26  C11 UNL     1      30.277 -11.097 -42.292  0.00  0.00    +0.000 C 
BRANCH  26  27
ATOM     27  C12 UNL     1      31.608 -11.502 -42.804  0.00  0.00    +0.000 A 
ATOM     28  C13 UNL     1      31.742 -12.633 -43.627  0.00  0.00    +0.000 A 
ATOM     29  C14 UNL     1      32.997 -13.009 -44.108  0.00  0.00    +0.000 A 
ATOM     30  C15 UNL     1      34.117 -12.251 -43.763  0.00  0.00    +0.000 A 
ATOM     31  N3  UNL     1      33.980 -11.159 -42.967  0.00  0.00    +0.000 NA
ATOM     32  C16 UNL     1      32.769 -10.771 -42.484  0.00  0.00    +0.000 A 
ENDBRANCH  26  27
BRANCH  26  33
ATOM     33  O4  UNL     1      29.561 -11.992 -41.490  0.00  0.00    +0.000 OA
ATOM     34  H9  UNL     1      29.933 -12.880 -41.182  0.00  0.00    +0.000 HD
ENDBRANCH  26  33
ENDBRANCH   2  25
TORSDOF 8
ENDMDL
MODEL 5
REMARK VINA RESULT:    -6.233      4.292      8.821
REMARK INTER + INTRA:         -10.433
REMARK INTER:                  -9.369
REMARK INTRA:                  -1.064
REMARK UNBOUND:                -1.467
REMARK  Name = resultss/4CJN/ligands/lig_271_t2.pdb
REMARK  9 active torsions:
REMARK  status: ('A' for Active; 'I' for Inactive)
REMARK    1  A    between atoms: C1_1  and  O1_2
REMARK    2  A    between atoms: O1_2  and  C2_3
REMARK    3  A    between atoms: C2_3  and  C3_5
REMARK    4  A    between atoms: C6_8  and  C7_9
REMARK    5  A    between atoms: C7_9  and  N1_10
REMARK    6  A    between atoms: C8_11  and  C9_13
REMARK    7  A    between atoms: C10_14  and  N2_15
REMARK    8  A    between atoms: C11_16  and  O4_17
REMARK    9  A    between atoms: C11_16  and  C12_18
REMARK                            x       y       z     vdW  Elec       q    Type
REMARK                         _______ _______ _______ _____ _____    ______ ____
ROOT
ATOM      1  C9  UNL     1      25.786  -8.626 -36.310  0.00  0.00    +0.000 A 
ATOM      2  C10 UNL     1      25.300  -7.989 -37.452  0.00  0.00    +0.000 A 
ATOM      3  S1  UNL     1      23.750  -7.395 -37.146  0.00  0.00    +0.000 S 
ATOM      4  C17 UNL     1      23.726  -7.848 -35.529  0.00  0.00    +0.000 A 
ATOM      5  C18 UNL     1      24.894  -8.540 -35.217  0.00  0.00    +0.000 A 
ATOM      6  C19 UNL     1      25.204  -8.953 -33.798  0.00  0.00    +0.000 C 
ATOM      7  C20 UNL     1      23.940  -8.987 -32.919  0.00  0.00    +0.000 C 
ATOM      8  C21 UNL     1      23.078  -7.730 -33.124  0.00  0.00    +0.000 C 
ATOM      9  C22 UNL     1      22.590  -7.628 -34.577  0.00  0.00    +0.000 C 
ENDROOT
BRANCH   1  11
ATOM     10  N1  UNL     1      28.248  -8.546 -35.751  0.00  0.00    +0.000 N 
ATOM     11  C8  UNL     1      27.116  -9.261 -36.261  0.00  0.00    +0.000 C 
ATOM     12  O3  UNL     1      27.245 -10.455 -36.645  0.00  0.00    +0.000 OA
ATOM     13  H8  UNL     1      28.091  -7.713 -35.139  0.00  0.00    +0.000 HD
BRANCH  10  14
ATOM     14  C7  UNL     1      29.619  -8.913 -36.094  0.00  0.00    +0.000 C 
BRANCH  14  18
ATOM     15  C3  UNL     1      31.821 -10.038 -32.548  0.00  0.00    +0.000 A 
ATOM     16  C4  UNL     1      30.415 -10.010 -32.534  0.00  0.00    +0.000 A 
ATOM     17  C5  UNL     1      29.702  -9.627 -33.674  0.00  0.00    +0.000 A 
ATOM     18  C6  UNL     1      30.381  -9.259 -34.845  0.00  0.00    +0.000 A 
ATOM     19  C23 UNL     1      31.784  -9.292 -34.865  0.00  0.00    +0.000 A 
ATOM     20  C24 UNL     1      32.498  -9.676 -33.727  0.00  0.00    +0.000 A 
BRANCH  15  21
ATOM     21  C2  UNL     1      32.571 -10.450 -31.342  0.00  0.00    +0.000 C 
ATOM     22  O2  UNL     1      33.579  -9.788 -30.965  0.00  0.00    +0.000 OA
BRANCH  21  24
ATOM     23  C1  UNL     1      32.753 -12.857 -30.792  0.00  0.00    +0.000 C 
ATOM     24  O1  UNL     1      32.163 -11.576 -30.616  0.00  0.00    +0.000 OA
ENDBRANCH  21  24
ENDBRANCH  15  21
ENDBRANCH  14  18
ENDBRANCH  10  14
ENDBRANCH   1  11
BRANCH   2  25
ATOM     25  N2  UNL     1      25.924  -8.067 -38.741  0.00  0.00    +0.000 NA
ATOM     26  C11 UNL     1      25.513  -8.749 -39.773  0.00  0.00    +0.000 C 
BRANCH  26  27
ATOM     27  C12 UNL     1      26.355  -8.806 -40.991  0.00  0.00    +0.000 A 
ATOM     28  C13 UNL     1      27.463  -9.668 -41.053  0.00  0.00    +0.000 A 
ATOM     29  C14 UNL     1      28.252  -9.719 -42.204  0.00  0.00    +0.000 A 
ATOM     30  C15 UNL     1      27.930  -8.906 -43.291  0.00  0.00    +0.000 A 
ATOM     31  N3  UNL     1      26.857  -8.075 -43.224  0.00  0.00    +0.000 NA
ATOM     32  C16 UNL     1      26.072  -8.005 -42.116  0.00  0.00    +0.000 A 
ENDBRANCH  26  27
BRANCH  26  33
ATOM     33  O4  UNL     1      24.275  -9.399 -39.777  0.00  0.00    +0.000 OA
ATOM     34  H9  UNL     1      24.162 -10.380 -39.559  0.00  0.00    +0.000 HD
ENDBRANCH  26  33
ENDBRANCH   2  25
TORSDOF 8
ENDMDL
MODEL 6
REMARK VINA RESULT:    -6.122      3.741      7.108
REMARK INTER + INTRA:         -10.273
REMARK INTER:                  -7.568
REMARK INTRA:                  -2.705
REMARK UNBOUND:                -1.467
REMARK  Name = resultss/4CJN/ligands/lig_271_t2.pdb
REMARK  9 active torsions:
REMARK  status: ('A' for Active; 'I' for Inactive)
REMARK    1  A    between atoms: C1_1  and  O1_2
REMARK    2  A    between atoms: O1_2  and  C2_3
REMARK    3  A    between atoms: C2_3  and  C3_5
REMARK    4  A    between atoms: C6_8  and  C7_9
REMARK    5  A    between atoms: C7_9  and  N1_10
REMARK    6  A    between atoms: C8_11  and  C9_13
REMARK    7  A    between atoms: C10_14  and  N2_15
REMARK    8  A    between atoms: C11_16  and  O4_17
REMARK    9  A    between atoms: C11_16  and  C12_18
REMARK                            x       y       z     vdW  Elec       q    Type
REMARK                         _______ _______ _______ _____ _____    ______ ____
ROOT
ATOM      1  C9  UNL     1      27.737  -8.640 -36.577  0.00  0.00    +0.000 A 
ATOM      2  C10 UNL     1      26.856  -7.607 -36.895  0.00  0.00    +0.000 A 
ATOM      3  S1  UNL     1      26.510  -6.717 -35.503  0.00  0.00    +0.000 S 
ATOM      4  C17 UNL     1      27.558  -7.571 -34.507  0.00  0.00    +0.000 A 
ATOM      5  C18 UNL     1      28.140  -8.615 -35.223  0.00  0.00    +0.000 A 
ATOM      6  C19 UNL     1      29.227  -9.470 -34.615  0.00  0.00    +0.000 C 
ATOM      7  C20 UNL     1      29.227  -9.394 -33.078  0.00  0.00    +0.000 C 
ATOM      8  C21 UNL     1      29.102  -7.942 -32.585  0.00  0.00    +0.000 C 
ATOM      9  C22 UNL     1      27.778  -7.317 -33.047  0.00  0.00    +0.000 C 
ENDROOT
BRANCH   1  11
ATOM     10  N1  UNL     1      29.016  -9.165 -38.692  0.00  0.00    +0.000 N 
ATOM     11  C8  UNL     1      28.225  -9.604 -37.581  0.00  0.00    +0.000 C 
ATOM     12  O3  UNL     1      27.966 -10.830 -37.437  0.00  0.00    +0.000 OA
ATOM     13  H8  UNL     1      29.503  -8.241 -38.638  0.00  0.00    +0.000 HD
BRANCH  10  14
ATOM     14  C7  UNL     1      29.127  -9.942 -39.923  0.00  0.00    +0.000 C 
BRANCH  14  18
ATOM     15  C3  UNL     1      27.342  -7.714 -43.169  0.00  0.00    +0.000 A 
ATOM     16  C4  UNL     1      27.583  -9.093 -43.299  0.00  0.00    +0.000 A 
ATOM     17  C5  UNL     1      28.179  -9.811 -42.258  0.00  0.00    +0.000 A 
ATOM     18  C6  UNL     1      28.550  -9.162 -41.072  0.00  0.00    +0.000 A 
ATOM     19  C23 UNL     1      28.307  -7.788 -40.935  0.00  0.00    +0.000 A 
ATOM     20  C24 UNL     1      27.710  -7.069 -41.974  0.00  0.00    +0.000 A 
BRANCH  15  21
ATOM     21  C2  UNL     1      26.706  -6.959 -44.271  0.00  0.00    +0.000 C 
ATOM     22  O2  UNL     1      26.088  -5.885 -44.029  0.00  0.00    +0.000 OA
BRANCH  21  24
ATOM     23  C1  UNL     1      27.871  -7.114 -46.450  0.00  0.00    +0.000 C 
ATOM     24  O1  UNL     1      26.791  -7.437 -45.584  0.00  0.00    +0.000 OA
ENDBRANCH  21  24
ENDBRANCH  15  21
ENDBRANCH  14  18
ENDBRANCH  10  14
ENDBRANCH   1  11
BRANCH   2  25
ATOM     25  N2  UNL     1      26.167  -7.497 -38.148  0.00  0.00    +0.000 NA
ATOM     26  C11 UNL     1      25.062  -8.097 -38.492  0.00  0.00    +0.000 C 
BRANCH  26  27
ATOM     27  C12 UNL     1      24.558  -7.956 -39.879  0.00  0.00    +0.000 A 
ATOM     28  C13 UNL     1      24.583  -9.049 -40.762  0.00  0.00    +0.000 A 
ATOM     29  C14 UNL     1      24.105  -8.912 -42.066  0.00  0.00    +0.000 A 
ATOM     30  C15 UNL     1      23.604  -7.679 -42.485  0.00  0.00    +0.000 A 
ATOM     31  N3  UNL     1      23.583  -6.627 -41.627  0.00  0.00    +0.000 NA
ATOM     32  C16 UNL     1      24.042  -6.733 -40.351  0.00  0.00    +0.000 A 
ENDBRANCH  26  27
BRANCH  26  33
ATOM     33  O4  UNL     1      24.314  -8.841 -37.575  0.00  0.00    +0.000 OA
ATOM     34  H9  UNL     1      23.348  -9.096 -37.724  0.00  0.00    +0.000 HD
ENDBRANCH  26  33
ENDBRANCH   2  25
TORSDOF 8
ENDMDL
MODEL 7
REMARK VINA RESULT:    -6.092      1.699      5.790
REMARK INTER + INTRA:         -10.230
REMARK INTER:                  -8.907
REMARK INTRA:                  -1.323
REMARK UNBOUND:                -1.467
REMARK  Name = resultss/4CJN/ligands/lig_271_t2.pdb
REMARK  9 active torsions:
REMARK  status: ('A' for Active; 'I' for Inactive)
REMARK    1  A    between atoms: C1_1  and  O1_2
REMARK    2  A    between atoms: O1_2  and  C2_3
REMARK    3  A    between atoms: C2_3  and  C3_5
REMARK    4  A    between atoms: C6_8  and  C7_9
REMARK    5  A    between atoms: C7_9  and  N1_10
REMARK    6  A    between atoms: C8_11  and  C9_13
REMARK    7  A    between atoms: C10_14  and  N2_15
REMARK    8  A    between atoms: C11_16  and  O4_17
REMARK    9  A    between atoms: C11_16  and  C12_18
REMARK                            x       y       z     vdW  Elec       q    Type
REMARK                         _______ _______ _______ _____ _____    ______ ____
ROOT
ATOM      1  C9  UNL     1      29.257  -8.935 -37.406  0.00  0.00    +0.000 A 
ATOM      2  C10 UNL     1      27.876  -9.076 -37.538  0.00  0.00    +0.000 A 
ATOM      3  S1  UNL     1      27.222  -9.591 -36.069  0.00  0.00    +0.000 S 
ATOM      4  C17 UNL     1      28.672  -9.537 -35.225  0.00  0.00    +0.000 A 
ATOM      5  C18 UNL     1      29.707  -9.191 -36.091  0.00  0.00    +0.000 A 
ATOM      6  C19 UNL     1      31.105  -8.937 -35.579  0.00  0.00    +0.000 C 
ATOM      7  C20 UNL     1      31.336  -9.574 -34.196  0.00  0.00    +0.000 C 
ATOM      8  C21 UNL     1      30.164  -9.289 -33.242  0.00  0.00    +0.000 C 
ATOM      9  C22 UNL     1      28.857  -9.890 -33.781  0.00  0.00    +0.000 C 
ENDROOT
BRANCH   1  11
ATOM     10  N1  UNL     1      30.920  -9.458 -39.234  0.00  0.00    +0.000 N 
ATOM     11  C8  UNL     1      30.120  -8.506 -38.522  0.00  0.00    +0.000 C 
ATOM     12  O3  UNL     1      30.126  -7.294 -38.868  0.00  0.00    +0.000 OA
ATOM     13  H8  UNL     1      30.673 -10.473 -39.181  0.00  0.00    +0.000 HD
BRANCH  10  14
ATOM     14  C7  UNL     1      32.101  -9.065 -39.997  0.00  0.00    +0.000 C 
BRANCH  14  18
ATOM     15  C3  UNL     1      32.509 -11.471 -43.565  0.00  0.00    +0.000 A 
ATOM     16  C4  UNL     1      31.235 -11.134 -43.075  0.00  0.00    +0.000 A 
ATOM     17  C5  UNL     1      31.101 -10.373 -41.910  0.00  0.00    +0.000 A 
ATOM     18  C6  UNL     1      32.238  -9.941 -41.211  0.00  0.00    +0.000 A 
ATOM     19  C23 UNL     1      33.511 -10.270 -41.700  0.00  0.00    +0.000 A 
ATOM     20  C24 UNL     1      33.647 -11.029 -42.865  0.00  0.00    +0.000 A 
BRANCH  15  21
ATOM     21  C2  UNL     1      32.647 -12.271 -44.802  0.00  0.00    +0.000 C 
ATOM     22  O2  UNL     1      32.157 -13.433 -44.862  0.00  0.00    +0.000 OA
BRANCH  21  24
ATOM     23  C1  UNL     1      34.138 -12.527 -46.761  0.00  0.00    +0.000 C 
ATOM     24  O1  UNL     1      33.321 -11.738 -45.907  0.00  0.00    +0.000 OA
ENDBRANCH  21  24
ENDBRANCH  15  21
ENDBRANCH  14  18
ENDBRANCH  10  14
ENDBRANCH   1  11
BRANCH   2  25
ATOM     25  N2  UNL     1      27.181  -9.038 -38.792  0.00  0.00    +0.000 NA
ATOM     26  C11 UNL     1      27.266  -9.903 -39.764  0.00  0.00    +0.000 C 
BRANCH  26  27
ATOM     27  C12 UNL     1      26.562  -9.635 -41.041  0.00  0.00    +0.000 A 
ATOM     28  C13 UNL     1      27.102  -8.739 -41.978  0.00  0.00    +0.000 A 
ATOM     29  C14 UNL     1      26.436  -8.492 -43.181  0.00  0.00    +0.000 A 
ATOM     30  C15 UNL     1      25.230  -9.143 -43.441  0.00  0.00    +0.000 A 
ATOM     31  N3  UNL     1      24.715 -10.009 -42.530  0.00  0.00    +0.000 NA
ATOM     32  C16 UNL     1      25.342 -10.268 -41.351  0.00  0.00    +0.000 A 
ENDBRANCH  26  27
BRANCH  26  33
ATOM     33  O4  UNL     1      27.974 -11.100 -39.622  0.00  0.00    +0.000 OA
ATOM     34  H9  UNL     1      28.765 -11.349 -40.199  0.00  0.00    +0.000 HD
ENDBRANCH  26  33
ENDBRANCH   2  25
TORSDOF 8
ENDMDL
MODEL 8
REMARK VINA RESULT:    -5.988      3.007      7.983
REMARK INTER + INTRA:         -10.080
REMARK INTER:                  -7.701
REMARK INTRA:                  -2.380
REMARK UNBOUND:                -1.467
REMARK  Name = resultss/4CJN/ligands/lig_271_t2.pdb
REMARK  9 active torsions:
REMARK  status: ('A' for Active; 'I' for Inactive)
REMARK    1  A    between atoms: C1_1  and  O1_2
REMARK    2  A    between atoms: O1_2  and  C2_3
REMARK    3  A    between atoms: C2_3  and  C3_5
REMARK    4  A    between atoms: C6_8  and  C7_9
REMARK    5  A    between atoms: C7_9  and  N1_10
REMARK    6  A    between atoms: C8_11  and  C9_13
REMARK    7  A    between atoms: C10_14  and  N2_15
REMARK    8  A    between atoms: C11_16  and  O4_17
REMARK    9  A    between atoms: C11_16  and  C12_18
REMARK                            x       y       z     vdW  Elec       q    Type
REMARK                         _______ _______ _______ _____ _____    ______ ____
ROOT
ATOM      1  C9  UNL     1      31.417  -9.764 -41.029  0.00  0.00    +0.000 A 
ATOM      2  C10 UNL     1      30.073  -9.753 -41.398  0.00  0.00    +0.000 A 
ATOM      3  S1  UNL     1      29.914 -10.382 -42.956  0.00  0.00    +0.000 S 
ATOM      4  C17 UNL     1      31.538 -10.772 -43.133  0.00  0.00    +0.000 A 
ATOM      5  C18 UNL     1      32.248 -10.348 -42.012  0.00  0.00    +0.000 A 
ATOM      6  C19 UNL     1      33.710 -10.685 -41.837  0.00  0.00    +0.000 C 
ATOM      7  C20 UNL     1      34.379 -11.052 -43.174  0.00  0.00    +0.000 C 
ATOM      8  C21 UNL     1      33.515 -12.028 -43.989  0.00  0.00    +0.000 C 
ATOM      9  C22 UNL     1      32.160 -11.398 -44.343  0.00  0.00    +0.000 C 
ENDROOT
BRANCH   1  11
ATOM     10  N1  UNL     1      31.604  -9.995 -38.520  0.00  0.00    +0.000 N 
ATOM     11  C8  UNL     1      31.885  -9.267 -39.721  0.00  0.00    +0.000 C 
ATOM     12  O3  UNL     1      32.565  -8.207 -39.670  0.00  0.00    +0.000 OA
ATOM     13  H8  UNL     1      31.348 -11.007 -38.584  0.00  0.00    +0.000 HD
BRANCH  10  14
ATOM     14  C7  UNL     1      31.615  -9.360 -37.205  0.00  0.00    +0.000 C 
BRANCH  14  18
ATOM     15  C3  UNL     1      27.626  -9.488 -35.544  0.00  0.00    +0.000 A 
ATOM     16  C4  UNL     1      28.581  -8.590 -35.035  0.00  0.00    +0.000 A 
ATOM     17  C5  UNL     1      29.877  -8.561 -35.558  0.00  0.00    +0.000 A 
ATOM     18  C6  UNL     1      30.243  -9.434 -36.592  0.00  0.00    +0.000 A 
ATOM     19  C23 UNL     1      29.292 -10.328 -37.107  0.00  0.00    +0.000 A 
ATOM     20  C24 UNL     1      27.995 -10.356 -36.587  0.00  0.00    +0.000 A 
BRANCH  15  21
ATOM     21  C2  UNL     1      26.253  -9.510 -34.992  0.00  0.00    +0.000 C 
ATOM     22  O2  UNL     1      25.837 -10.527 -34.370  0.00  0.00    +0.000 OA
BRANCH  21  24
ATOM     23  C1  UNL     1      25.212  -7.432 -34.141  0.00  0.00    +0.000 C 
ATOM     24  O1  UNL     1      25.415  -8.402 -35.160  0.00  0.00    +0.000 OA
ENDBRANCH  21  24
ENDBRANCH  15  21
ENDBRANCH  14  18
ENDBRANCH  10  14
ENDBRANCH   1  11
BRANCH   2  25
ATOM     25  N2  UNL     1      29.045  -9.074 -40.664  0.00  0.00    +0.000 NA
ATOM     26  C11 UNL     1      27.938  -9.588 -40.204  0.00  0.00    +0.000 C 
BRANCH  26  27
ATOM     27  C12 UNL     1      26.932  -8.702 -39.570  0.00  0.00    +0.000 A 
ATOM     28  C13 UNL     1      27.337  -7.611 -38.783  0.00  0.00    +0.000 A 
ATOM     29  C14 UNL     1      26.386  -6.779 -38.190  0.00  0.00    +0.000 A 
ATOM     30  C15 UNL     1      25.030  -7.042 -38.386  0.00  0.00    +0.000 A 
ATOM     31  N3  UNL     1      24.646  -8.098 -39.148  0.00  0.00    +0.000 NA
ATOM     32  C16 UNL     1      25.551  -8.925 -39.737  0.00  0.00    +0.000 A 
ENDBRANCH  26  27
BRANCH  26  33
ATOM     33  O4  UNL     1      27.689 -10.963 -40.256  0.00  0.00    +0.000 OA
ATOM     34  H9  UNL     1      28.310 -11.623 -40.703  0.00  0.00    +0.000 HD
ENDBRANCH  26  33
ENDBRANCH   2  25
TORSDOF 8
ENDMDL
MODEL 9
REMARK VINA RESULT:    -5.968      4.162      7.540
REMARK INTER + INTRA:         -10.051
REMARK INTER:                  -8.561
REMARK INTRA:                  -1.490
REMARK UNBOUND:                -1.467
REMARK  Name = resultss/4CJN/ligands/lig_271_t2.pdb
REMARK  9 active torsions:
REMARK  status: ('A' for Active; 'I' for Inactive)
REMARK    1  A    between atoms: C1_1  and  O1_2
REMARK    2  A    between atoms: O1_2  and  C2_3
REMARK    3  A    between atoms: C2_3  and  C3_5
REMARK    4  A    between atoms: C6_8  and  C7_9
REMARK    5  A    between atoms: C7_9  and  N1_10
REMARK    6  A    between atoms: C8_11  and  C9_13
REMARK    7  A    between atoms: C10_14  and  N2_15
REMARK    8  A    between atoms: C11_16  and  O4_17
REMARK    9  A    between atoms: C11_16  and  C12_18
REMARK                            x       y       z     vdW  Elec       q    Type
REMARK                         _______ _______ _______ _____ _____    ______ ____
ROOT
ATOM      1  C9  UNL     1      27.459  -8.030 -39.102  0.00  0.00    +0.000 A 
ATOM      2  C10 UNL     1      26.194  -8.519 -38.776  0.00  0.00    +0.000 A 
ATOM      3  S1  UNL     1      25.482  -9.192 -40.150  0.00  0.00    +0.000 S 
ATOM      4  C17 UNL     1      26.815  -8.964 -41.145  0.00  0.00    +0.000 A 
ATOM      5  C18 UNL     1      27.813  -8.289 -40.446  0.00  0.00    +0.000 A 
ATOM      6  C19 UNL     1      29.178  -8.065 -41.052  0.00  0.00    +0.000 C 
ATOM      7  C20 UNL     1      29.154  -8.187 -42.586  0.00  0.00    +0.000 C 
ATOM      8  C21 UNL     1      28.367  -9.427 -43.041  0.00  0.00    +0.000 C 
ATOM      9  C22 UNL     1      26.901  -9.343 -42.592  0.00  0.00    +0.000 C 
ENDROOT
BRANCH   1  11
ATOM     10  N1  UNL     1      28.724  -8.052 -36.915  0.00  0.00    +0.000 N 
ATOM     11  C8  UNL     1      28.334  -7.372 -38.114  0.00  0.00    +0.000 C 
ATOM     12  O3  UNL     1      28.766  -6.210 -38.349  0.00  0.00    +0.000 OA
ATOM     13  H8  UNL     1      28.654  -9.094 -36.875  0.00  0.00    +0.000 HD
BRANCH  10  14
ATOM     14  C7  UNL     1      29.171  -7.334 -35.725  0.00  0.00    +0.000 C 
BRANCH  14  18
ATOM     15  C3  UNL     1      31.182  -9.964 -32.944  0.00  0.00    +0.000 A 
ATOM     16  C4  UNL     1      31.835  -9.525 -34.110  0.00  0.00    +0.000 A 
ATOM     17  C5  UNL     1      31.179  -8.691 -35.020  0.00  0.00    +0.000 A 
ATOM     18  C6  UNL     1      29.857  -8.287 -34.785  0.00  0.00    +0.000 A 
ATOM     19  C23 UNL     1      29.203  -8.717 -33.621  0.00  0.00    +0.000 A 
ATOM     20  C24 UNL     1      29.858  -9.549 -32.709  0.00  0.00    +0.000 A 
BRANCH  15  21
ATOM     21  C2  UNL     1      31.881 -10.841 -31.981  0.00  0.00    +0.000 C 
ATOM     22  O2  UNL     1      32.560 -10.339 -31.042  0.00  0.00    +0.000 OA
BRANCH  21  24
ATOM     23  C1  UNL     1      32.658 -13.126 -31.425  0.00  0.00    +0.000 C 
ATOM     24  O1  UNL     1      31.790 -12.232 -32.110  0.00  0.00    +0.000 OA
ENDBRANCH  21  24
ENDBRANCH  15  21
ENDBRANCH  14  18
ENDBRANCH  10  14
ENDBRANCH   1  11
BRANCH   2  25
ATOM     25  N2  UNL     1      25.525  -8.249 -37.537  0.00  0.00    +0.000 NA
ATOM     26  C11 UNL     1      25.578  -8.958 -36.444  0.00  0.00    +0.000 C 
BRANCH  26  27
ATOM     27  C12 UNL     1      24.720  -8.589 -35.293  0.00  0.00    +0.000 A 
ATOM     28  C13 UNL     1      25.071  -8.976 -33.989  0.00  0.00    +0.000 A 
ATOM     29  C14 UNL     1      24.261  -8.624 -32.907  0.00  0.00    +0.000 A 
ATOM     30  C15 UNL     1      23.100  -7.885 -33.135  0.00  0.00    +0.000 A 
ATOM     31  N3  UNL     1      22.768  -7.513 -34.398  0.00  0.00    +0.000 NA
ATOM     32  C16 UNL     1      23.539  -7.842 -35.469  0.00  0.00    +0.000 A 
ENDBRANCH  26  27
BRANCH  26  33
ATOM     33  O4  UNL     1      26.454 -10.040 -36.313  0.00  0.00    +0.000 OA
ATOM     34  H9  UNL     1      26.782 -10.384 -35.421  0.00  0.00    +0.000 HD
ENDBRANCH  26  33
ENDBRANCH   2  25
TORSDOF 8
ENDMDL
