MODEL 1
REMARK VINA RESULT:    -5.007      0.000      0.000
REMARK INTER + INTRA:         -10.089
REMARK INTER:                  -8.227
REMARK INTRA:                  -1.862
REMARK UNBOUND:                -1.862
REMARK  Name = resultss/4CJN/ligands/lig_138_t0.pdb
REMARK  13 active torsions:
REMARK  status: ('A' for Active; 'I' for Inactive)
REMARK    1  A    between atoms: O1_1  and  C1_2
REMARK    2  A    between atoms: C1_2  and  C2_3
REMARK    3  A    between atoms: C3_4  and  O2_5
REMARK    4  A    between atoms: C4_6  and  O3_7
REMARK    5  A    between atoms: C5_8  and  O4_9
REMARK    6  A    between atoms: N1_11  and  C7_12
REMARK    7  A    between atoms: C7_12  and  C8_13
REMARK    8  A    between atoms: C8_13  and  C9_14
REMARK    9  A    between atoms: C9_14  and  C10_15
REMARK   10  A    between atoms: C10_15  and  C11_16
REMARK   11  A    between atoms: C11_16  and  O5_17
REMARK   12  A    between atoms: O5_17  and  C12_18
REMARK   13  A    between atoms: C12_18  and  C13_19
REMARK                            x       y       z     vdW  Elec       q    Type
REMARK                         _______ _______ _______ _____ _____    ______ ____
ROOT
ATOM      1  C7  UNL     1      28.144  -8.848 -38.209  0.00  0.00    +0.000 C 
ENDROOT
BRANCH   1   7
ATOM      2  C2  UNL     1      28.181  -9.279 -40.683  0.00  0.00    +0.000 C 
ATOM      3  C3  UNL     1      27.395  -9.034 -42.001  0.00  0.00    +0.000 C 
ATOM      4  C4  UNL     1      25.933  -9.490 -41.898  0.00  0.00    +0.000 C 
ATOM      5  C5  UNL     1      25.263  -8.815 -40.693  0.00  0.00    +0.000 C 
ATOM      6  C6  UNL     1      26.047  -9.112 -39.407  0.00  0.00    +0.000 C 
ATOM      7  N1  UNL     1      27.461  -8.685 -39.515  0.00  0.00    +0.000 NA
BRANCH   3   8
ATOM      8  O2  UNL     1      28.009  -9.677 -43.089  0.00  0.00    +0.000 OA
ATOM      9  H6  UNL     1      28.736 -10.241 -42.715  0.00  0.00    +0.000 HD
ENDBRANCH   3   8
BRANCH   4  10
ATOM     10  O3  UNL     1      25.263  -9.130 -43.079  0.00  0.00    +0.000 OA
ATOM     11  H8  UNL     1      24.310  -9.378 -42.961  0.00  0.00    +0.000 HD
ENDBRANCH   4  10
BRANCH   5  12
ATOM     12  O4  UNL     1      23.949  -9.292 -40.563  0.00  0.00    +0.000 OA
ATOM     13  H10 UNL     1      23.383  -8.514 -40.324  0.00  0.00    +0.000 HD
ENDBRANCH   5  12
BRANCH   2  14
ATOM     14  C1  UNL     1      28.642 -10.754 -40.496  0.00  0.00    +0.000 C 
BRANCH  14  15
ATOM     15  O1  UNL     1      29.908 -10.984 -41.043  0.00  0.00    +0.000 OA
ATOM     16  H1  UNL     1      30.557 -10.850 -40.304  0.00  0.00    +0.000 HD
ENDBRANCH  14  15
ENDBRANCH   2  14
ENDBRANCH   1   7
BRANCH   1  17
ATOM     17  C8  UNL     1      27.955  -7.624 -37.292  0.00  0.00    +0.000 C 
BRANCH  17  18
ATOM     18  C9  UNL     1      28.554  -7.853 -35.891  0.00  0.00    +0.000 C 
BRANCH  18  19
ATOM     19  C10 UNL     1      28.982  -9.314 -35.651  0.00  0.00    +0.000 C 
BRANCH  19  20
ATOM     20  C11 UNL     1      28.110 -10.006 -34.594  0.00  0.00    +0.000 C 
BRANCH  20  21
ATOM     21  O5  UNL     1      26.794 -10.197 -35.075  0.00  0.00    +0.000 OA
BRANCH  21  22
ATOM     22  C12 UNL     1      25.822 -10.034 -34.054  0.00  0.00    +0.000 C 
BRANCH  22  23
ATOM     23  C13 UNL     1      24.966  -8.773 -34.317  0.00  0.00    +0.000 C 
ATOM     24  C14 UNL     1      23.539  -8.947 -33.724  0.00  0.00    +0.000 C 
ATOM     25  C15 UNL     1      22.691  -7.686 -34.003  0.00  0.00    +0.000 C 
ATOM     26  C16 UNL     1      23.366  -6.458 -33.356  0.00  0.00    +0.000 C 
ATOM     27  C17 UNL     1      24.776  -6.266 -33.955  0.00  0.00    +0.000 C 
ATOM     28  C18 UNL     1      24.664  -6.051 -35.480  0.00  0.00    +0.000 C 
ATOM     29  C19 UNL     1      23.990  -7.281 -36.129  0.00  0.00    +0.000 C 
ATOM     30  C20 UNL     1      22.581  -7.470 -35.529  0.00  0.00    +0.000 C 
ATOM     31  C21 UNL     1      24.843  -8.538 -35.850  0.00  0.00    +0.000 C 
ATOM     32  C22 UNL     1      25.630  -7.523 -33.673  0.00  0.00    +0.000 C 
ENDBRANCH  22  23
ENDBRANCH  21  22
ENDBRANCH  20  21
ENDBRANCH  19  20
ENDBRANCH  18  19
ENDBRANCH  17  18
ENDBRANCH   1  17
TORSDOF 13
ENDMDL
MODEL 2
REMARK VINA RESULT:    -4.953      1.911      3.457
REMARK INTER + INTRA:         -10.000
REMARK INTER:                  -8.846
REMARK INTRA:                  -1.155
REMARK UNBOUND:                -1.862
REMARK  Name = resultss/4CJN/ligands/lig_138_t0.pdb
REMARK  13 active torsions:
REMARK  status: ('A' for Active; 'I' for Inactive)
REMARK    1  A    between atoms: O1_1  and  C1_2
REMARK    2  A    between atoms: C1_2  and  C2_3
REMARK    3  A    between atoms: C3_4  and  O2_5
REMARK    4  A    between atoms: C4_6  and  O3_7
REMARK    5  A    between atoms: C5_8  and  O4_9
REMARK    6  A    between atoms: N1_11  and  C7_12
REMARK    7  A    between atoms: C7_12  and  C8_13
REMARK    8  A    between atoms: C8_13  and  C9_14
REMARK    9  A    between atoms: C9_14  and  C10_15
REMARK   10  A    between atoms: C10_15  and  C11_16
REMARK   11  A    between atoms: C11_16  and  O5_17
REMARK   12  A    between atoms: O5_17  and  C12_18
REMARK   13  A    between atoms: C12_18  and  C13_19
REMARK                            x       y       z     vdW  Elec       q    Type
REMARK                         _______ _______ _______ _____ _____    ______ ____
ROOT
ATOM      1  C7  UNL     1      28.040  -8.501 -41.431  0.00  0.00    +0.000 C 
ENDROOT
BRANCH   1   7
ATOM      2  C2  UNL     1      25.706  -9.240 -41.990  0.00  0.00    +0.000 C 
ATOM      3  C3  UNL     1      24.656  -9.288 -43.134  0.00  0.00    +0.000 C 
ATOM      4  C4  UNL     1      24.416  -7.908 -43.760  0.00  0.00    +0.000 C 
ATOM      5  C5  UNL     1      25.751  -7.311 -44.227  0.00  0.00    +0.000 C 
ATOM      6  C6  UNL     1      26.747  -7.245 -43.060  0.00  0.00    +0.000 C 
ATOM      7  N1  UNL     1      26.965  -8.576 -42.449  0.00  0.00    +0.000 NA
BRANCH   3   8
ATOM      8  O2  UNL     1      23.433  -9.815 -42.684  0.00  0.00    +0.000 OA
ATOM      9  H6  UNL     1      23.173 -10.525 -43.328  0.00  0.00    +0.000 HD
ENDBRANCH   3   8
BRANCH   4  10
ATOM     10  O3  UNL     1      23.550  -8.052 -44.855  0.00  0.00    +0.000 OA
ATOM     11  H8  UNL     1      23.277  -9.006 -44.889  0.00  0.00    +0.000 HD
ENDBRANCH   4  10
BRANCH   5  12
ATOM     12  O4  UNL     1      25.533  -6.019 -44.732  0.00  0.00    +0.000 OA
ATOM     13  H10 UNL     1      24.605  -5.768 -44.488  0.00  0.00    +0.000 HD
ENDBRANCH   5  12
BRANCH   2  14
ATOM     14  C1  UNL     1      25.136  -8.715 -40.641  0.00  0.00    +0.000 C 
BRANCH  14  15
ATOM     15  O1  UNL     1      24.214  -9.602 -40.076  0.00  0.00    +0.000 OA
ATOM     16  H1  UNL     1      24.372 -10.479 -40.513  0.00  0.00    +0.000 HD
ENDBRANCH  14  15
ENDBRANCH   2  14
ENDBRANCH   1   7
BRANCH   1  17
ATOM     17  C8  UNL     1      29.134  -9.563 -41.655  0.00  0.00    +0.000 C 
BRANCH  17  18
ATOM     18  C9  UNL     1      29.483 -10.316 -40.356  0.00  0.00    +0.000 C 
BRANCH  18  19
ATOM     19  C10 UNL     1      28.774  -9.738 -39.116  0.00  0.00    +0.000 C 
BRANCH  19  20
ATOM     20  C11 UNL     1      27.855 -10.767 -38.442  0.00  0.00    +0.000 C 
BRANCH  20  21
ATOM     21  O5  UNL     1      27.340 -10.261 -37.227  0.00  0.00    +0.000 OA
BRANCH  21  22
ATOM     22  C12 UNL     1      26.660  -9.028 -37.406  0.00  0.00    +0.000 C 
BRANCH  22  23
ATOM     23  C13 UNL     1      26.039  -8.552 -36.072  0.00  0.00    +0.000 C 
ATOM     24  C14 UNL     1      26.120  -9.675 -34.999  0.00  0.00    +0.000 C 
ATOM     25  C15 UNL     1      25.487  -9.191 -33.676  0.00  0.00    +0.000 C 
ATOM     26  C16 UNL     1      26.244  -7.944 -33.168  0.00  0.00    +0.000 C 
ATOM     27  C17 UNL     1      26.150  -6.818 -34.220  0.00  0.00    +0.000 C 
ATOM     28  C18 UNL     1      24.666  -6.459 -34.462  0.00  0.00    +0.000 C 
ATOM     29  C19 UNL     1      23.910  -7.706 -34.972  0.00  0.00    +0.000 C 
ATOM     30  C20 UNL     1      24.004  -8.831 -33.919  0.00  0.00    +0.000 C 
ATOM     31  C21 UNL     1      24.544  -8.185 -36.296  0.00  0.00    +0.000 C 
ATOM     32  C22 UNL     1      26.788  -7.295 -35.544  0.00  0.00    +0.000 C 
ENDBRANCH  22  23
ENDBRANCH  21  22
ENDBRANCH  20  21
ENDBRANCH  19  20
ENDBRANCH  18  19
ENDBRANCH  17  18
ENDBRANCH   1  17
TORSDOF 13
ENDMDL
MODEL 3
REMARK VINA RESULT:    -4.949      1.745      4.357
REMARK INTER + INTRA:          -9.994
REMARK INTER:                  -8.018
REMARK INTRA:                  -1.976
REMARK UNBOUND:                -1.862
REMARK  Name = resultss/4CJN/ligands/lig_138_t0.pdb
REMARK  13 active torsions:
REMARK  status: ('A' for Active; 'I' for Inactive)
REMARK    1  A    between atoms: O1_1  and  C1_2
REMARK    2  A    between atoms: C1_2  and  C2_3
REMARK    3  A    between atoms: C3_4  and  O2_5
REMARK    4  A    between atoms: C4_6  and  O3_7
REMARK    5  A    between atoms: C5_8  and  O4_9
REMARK    6  A    between atoms: N1_11  and  C7_12
REMARK    7  A    between atoms: C7_12  and  C8_13
REMARK    8  A    between atoms: C8_13  and  C9_14
REMARK    9  A    between atoms: C9_14  and  C10_15
REMARK   10  A    between atoms: C10_15  and  C11_16
REMARK   11  A    between atoms: C11_16  and  O5_17
REMARK   12  A    between atoms: O5_17  and  C12_18
REMARK   13  A    between atoms: C12_18  and  C13_19
REMARK                            x       y       z     vdW  Elec       q    Type
REMARK                         _______ _______ _______ _____ _____    ______ ____
ROOT
ATOM      1  C7  UNL     1      25.379  -7.561 -39.386  0.00  0.00    +0.000 C 
ENDROOT
BRANCH   1   7
ATOM      2  C2  UNL     1      26.505  -9.765 -39.814  0.00  0.00    +0.000 C 
ATOM      3  C3  UNL     1      27.855 -10.522 -39.670  0.00  0.00    +0.000 C 
ATOM      4  C4  UNL     1      29.022  -9.752 -40.301  0.00  0.00    +0.000 C 
ATOM      5  C5  UNL     1      29.089  -8.336 -39.712  0.00  0.00    +0.000 C 
ATOM      6  C6  UNL     1      27.751  -7.609 -39.908  0.00  0.00    +0.000 C 
ATOM      7  N1  UNL     1      26.625  -8.362 -39.310  0.00  0.00    +0.000 NA
BRANCH   3   8
ATOM      8  O2  UNL     1      27.783 -11.806 -40.235  0.00  0.00    +0.000 OA
ATOM      9  H6  UNL     1      27.392 -12.402 -39.543  0.00  0.00    +0.000 HD
ENDBRANCH   3   8
BRANCH   4  10
ATOM     10  O3  UNL     1      30.217 -10.438 -40.029  0.00  0.00    +0.000 OA
ATOM     11  H8  UNL     1      30.925  -9.754 -39.905  0.00  0.00    +0.000 HD
ENDBRANCH   4  10
BRANCH   5  12
ATOM     12  O4  UNL     1      30.113  -7.615 -40.346  0.00  0.00    +0.000 OA
ATOM     13  H10 UNL     1      29.685  -7.074 -41.058  0.00  0.00    +0.000 HD
ENDBRANCH   5  12
BRANCH   2  14
ATOM     14  C1  UNL     1      25.855  -9.910 -41.220  0.00  0.00    +0.000 C 
BRANCH  14  15
ATOM     15  O1  UNL     1      25.044 -11.045 -41.312  0.00  0.00    +0.000 OA
ATOM     16  H1  UNL     1      25.225 -11.581 -40.496  0.00  0.00    +0.000 HD
ENDBRANCH  14  15
ENDBRANCH   2  14
ENDBRANCH   1   7
BRANCH   1  17
ATOM     17  C8  UNL     1      24.944  -7.023 -38.009  0.00  0.00    +0.000 C 
BRANCH  17  18
ATOM     18  C9  UNL     1      24.395  -8.138 -37.098  0.00  0.00    +0.000 C 
BRANCH  18  19
ATOM     19  C10 UNL     1      23.217  -7.672 -36.220  0.00  0.00    +0.000 C 
BRANCH  19  20
ATOM     20  C11 UNL     1      23.451  -7.968 -34.732  0.00  0.00    +0.000 C 
BRANCH  20  21
ATOM     21  O5  UNL     1      24.488  -7.158 -34.216  0.00  0.00    +0.000 OA
BRANCH  21  22
ATOM     22  C12 UNL     1      25.274  -7.843 -33.253  0.00  0.00    +0.000 C 
BRANCH  22  23
ATOM     23  C13 UNL     1      26.671  -8.172 -33.829  0.00  0.00    +0.000 C 
ATOM     24  C14 UNL     1      27.749  -8.129 -32.709  0.00  0.00    +0.000 C 
ATOM     25  C15 UNL     1      29.140  -8.449 -33.299  0.00  0.00    +0.000 C 
ATOM     26  C16 UNL     1      29.119  -9.857 -33.933  0.00  0.00    +0.000 C 
ATOM     27  C17 UNL     1      28.065  -9.901 -35.060  0.00  0.00    +0.000 C 
ATOM     28  C18 UNL     1      28.418  -8.853 -36.139  0.00  0.00    +0.000 C 
ATOM     29  C19 UNL     1      28.437  -7.444 -35.505  0.00  0.00    +0.000 C 
ATOM     30  C20 UNL     1      29.492  -7.402 -34.379  0.00  0.00    +0.000 C 
ATOM     31  C21 UNL     1      27.043  -7.128 -34.919  0.00  0.00    +0.000 C 
ATOM     32  C22 UNL     1      26.670  -9.588 -34.474  0.00  0.00    +0.000 C 
ENDBRANCH  22  23
ENDBRANCH  21  22
ENDBRANCH  20  21
ENDBRANCH  19  20
ENDBRANCH  18  19
ENDBRANCH  17  18
ENDBRANCH   1  17
TORSDOF 13
ENDMDL
MODEL 4
REMARK VINA RESULT:    -4.911      1.958      3.177
REMARK INTER + INTRA:          -9.932
REMARK INTER:                  -7.798
REMARK INTRA:                  -2.134
REMARK UNBOUND:                -1.862
REMARK  Name = resultss/4CJN/ligands/lig_138_t0.pdb
REMARK  13 active torsions:
REMARK  status: ('A' for Active; 'I' for Inactive)
REMARK    1  A    between atoms: O1_1  and  C1_2
REMARK    2  A    between atoms: C1_2  and  C2_3
REMARK    3  A    between atoms: C3_4  and  O2_5
REMARK    4  A    between atoms: C4_6  and  O3_7
REMARK    5  A    between atoms: C5_8  and  O4_9
REMARK    6  A    between atoms: N1_11  and  C7_12
REMARK    7  A    between atoms: C7_12  and  C8_13
REMARK    8  A    between atoms: C8_13  and  C9_14
REMARK    9  A    between atoms: C9_14  and  C10_15
REMARK   10  A    between atoms: C10_15  and  C11_16
REMARK   11  A    between atoms: C11_16  and  O5_17
REMARK   12  A    between atoms: O5_17  and  C12_18
REMARK   13  A    between atoms: C12_18  and  C13_19
REMARK                            x       y       z     vdW  Elec       q    Type
REMARK                         _______ _______ _______ _____ _____    ______ ____
ROOT
ATOM      1  C7  UNL     1      29.427  -8.966 -40.205  0.00  0.00    +0.000 C 
ENDROOT
BRANCH   1   7
ATOM      2  C2  UNL     1      27.337 -10.247 -40.753  0.00  0.00    +0.000 C 
ATOM      3  C3  UNL     1      25.851 -10.082 -41.176  0.00  0.00    +0.000 C 
ATOM      4  C4  UNL     1      25.082  -9.141 -40.239  0.00  0.00    +0.000 C 
ATOM      5  C5  UNL     1      25.809  -7.792 -40.147  0.00  0.00    +0.000 C 
ATOM      6  C6  UNL     1      27.261  -7.994 -39.690  0.00  0.00    +0.000 C 
ATOM      7  N1  UNL     1      27.995  -8.914 -40.588  0.00  0.00    +0.000 NA
BRANCH   3   8
ATOM      8  O2  UNL     1      25.195 -11.323 -41.232  0.00  0.00    +0.000 OA
ATOM      9  H6  UNL     1      24.328 -11.168 -41.691  0.00  0.00    +0.000 HD
ENDBRANCH   3   8
BRANCH   4  10
ATOM     10  O3  UNL     1      23.788  -8.951 -40.751  0.00  0.00    +0.000 OA
ATOM     11  H8  UNL     1      23.438  -9.846 -40.999  0.00  0.00    +0.000 HD
ENDBRANCH   4  10
BRANCH   5  12
ATOM     12  O4  UNL     1      25.140  -6.963 -39.233  0.00  0.00    +0.000 OA
ATOM     13  H10 UNL     1      25.364  -7.296 -38.326  0.00  0.00    +0.000 HD
ENDBRANCH   5  12
BRANCH   2  14
ATOM     14  C1  UNL     1      27.543 -11.237 -39.570  0.00  0.00    +0.000 C 
BRANCH  14  15
ATOM     15  O1  UNL     1      27.571 -12.569 -39.996  0.00  0.00    +0.000 OA
ATOM     16  H1  UNL     1      26.736 -12.711 -40.514  0.00  0.00    +0.000 HD
ENDBRANCH  14  15
ENDBRANCH   2  14
ENDBRANCH   1   7
BRANCH   1  17
ATOM     17  C8  UNL     1      29.688  -8.328 -38.826  0.00  0.00    +0.000 C 
BRANCH  17  18
ATOM     18  C9  UNL     1      30.494  -9.258 -37.900  0.00  0.00    +0.000 C 
BRANCH  18  19
ATOM     19  C10 UNL     1      31.187  -8.507 -36.747  0.00  0.00    +0.000 C 
BRANCH  19  20
ATOM     20  C11 UNL     1      31.508  -9.431 -35.564  0.00  0.00    +0.000 C 
BRANCH  20  21
ATOM     21  O5  UNL     1      30.363  -9.636 -34.761  0.00  0.00    +0.000 OA
BRANCH  21  22
ATOM     22  C12 UNL     1      29.772  -8.413 -34.351  0.00  0.00    +0.000 C 
BRANCH  22  23
ATOM     23  C13 UNL     1      28.243  -8.445 -34.581  0.00  0.00    +0.000 C 
ATOM     24  C14 UNL     1      27.834  -7.433 -35.689  0.00  0.00    +0.000 C 
ATOM     25  C15 UNL     1      26.305  -7.468 -35.901  0.00  0.00    +0.000 C 
ATOM     26  C16 UNL     1      25.875  -8.889 -36.325  0.00  0.00    +0.000 C 
ATOM     27  C17 UNL     1      26.259  -9.897 -35.220  0.00  0.00    +0.000 C 
ATOM     28  C18 UNL     1      25.550  -9.513 -33.902  0.00  0.00    +0.000 C 
ATOM     29  C19 UNL     1      25.981  -8.091 -33.477  0.00  0.00    +0.000 C 
ATOM     30  C20 UNL     1      25.596  -7.086 -34.582  0.00  0.00    +0.000 C 
ATOM     31  C21 UNL     1      27.510  -8.063 -33.263  0.00  0.00    +0.000 C 
ATOM     32  C22 UNL     1      27.789  -9.870 -35.008  0.00  0.00    +0.000 C 
ENDBRANCH  22  23
ENDBRANCH  21  22
ENDBRANCH  20  21
ENDBRANCH  19  20
ENDBRANCH  18  19
ENDBRANCH  17  18
ENDBRANCH   1  17
TORSDOF 13
ENDMDL
MODEL 5
REMARK VINA RESULT:    -4.893      2.164      6.898
REMARK INTER + INTRA:          -9.901
REMARK INTER:                  -8.072
REMARK INTRA:                  -1.829
REMARK UNBOUND:                -1.862
REMARK  Name = resultss/4CJN/ligands/lig_138_t0.pdb
REMARK  13 active torsions:
REMARK  status: ('A' for Active; 'I' for Inactive)
REMARK    1  A    between atoms: O1_1  and  C1_2
REMARK    2  A    between atoms: C1_2  and  C2_3
REMARK    3  A    between atoms: C3_4  and  O2_5
REMARK    4  A    between atoms: C4_6  and  O3_7
REMARK    5  A    between atoms: C5_8  and  O4_9
REMARK    6  A    between atoms: N1_11  and  C7_12
REMARK    7  A    between atoms: C7_12  and  C8_13
REMARK    8  A    between atoms: C8_13  and  C9_14
REMARK    9  A    between atoms: C9_14  and  C10_15
REMARK   10  A    between atoms: C10_15  and  C11_16
REMARK   11  A    between atoms: C11_16  and  O5_17
REMARK   12  A    between atoms: O5_17  and  C12_18
REMARK   13  A    between atoms: C12_18  and  C13_19
REMARK                            x       y       z     vdW  Elec       q    Type
REMARK                         _______ _______ _______ _____ _____    ______ ____
ROOT
ATOM      1  C7  UNL     1      27.975  -8.325 -35.788  0.00  0.00    +0.000 C 
ENDROOT
BRANCH   1   7
ATOM      2  C2  UNL     1      26.160  -8.589 -34.072  0.00  0.00    +0.000 C 
ATOM      3  C3  UNL     1      24.654  -8.930 -33.894  0.00  0.00    +0.000 C 
ATOM      4  C4  UNL     1      23.754  -8.057 -34.778  0.00  0.00    +0.000 C 
ATOM      5  C5  UNL     1      24.201  -8.165 -36.242  0.00  0.00    +0.000 C 
ATOM      6  C6  UNL     1      25.682  -7.783 -36.380  0.00  0.00    +0.000 C 
ATOM      7  N1  UNL     1      26.547  -8.618 -35.516  0.00  0.00    +0.000 NA
BRANCH   3   8
ATOM      8  O2  UNL     1      24.256  -8.804 -32.552  0.00  0.00    +0.000 OA
ATOM      9  H6  UNL     1      23.377  -8.341 -32.557  0.00  0.00    +0.000 HD
ENDBRANCH   3   8
BRANCH   4  10
ATOM     10  O3  UNL     1      22.428  -8.502 -34.651  0.00  0.00    +0.000 OA
ATOM     11  H8  UNL     1      21.889  -8.012 -35.325  0.00  0.00    +0.000 HD
ENDBRANCH   4  10
BRANCH   5  12
ATOM     12  O4  UNL     1      23.419  -7.308 -37.033  0.00  0.00    +0.000 OA
ATOM     13  H10 UNL     1      22.921  -7.881 -37.671  0.00  0.00    +0.000 HD
ENDBRANCH   5  12
BRANCH   2  14
ATOM     14  C1  UNL     1      26.608  -7.318 -33.292  0.00  0.00    +0.000 C 
BRANCH  14  15
ATOM     15  O1  UNL     1      26.977  -7.610 -31.975  0.00  0.00    +0.000 OA
ATOM     16  H1  UNL     1      27.491  -8.458 -32.014  0.00  0.00    +0.000 HD
ENDBRANCH  14  15
ENDBRANCH   2  14
ENDBRANCH   1   7
BRANCH   1  17
ATOM     17  C8  UNL     1      28.333  -8.490 -37.277  0.00  0.00    +0.000 C 
BRANCH  17  18
ATOM     18  C9  UNL     1      28.861  -9.902 -37.593  0.00  0.00    +0.000 C 
BRANCH  18  19
ATOM     19  C10 UNL     1      30.359  -9.918 -37.953  0.00  0.00    +0.000 C 
BRANCH  19  20
ATOM     20  C11 UNL     1      30.597  -9.665 -39.449  0.00  0.00    +0.000 C 
BRANCH  20  21
ATOM     21  O5  UNL     1      29.644 -10.354 -40.233  0.00  0.00    +0.000 OA
BRANCH  21  22
ATOM     22  C12 UNL     1      29.355  -9.674 -41.444  0.00  0.00    +0.000 C 
BRANCH  22  23
ATOM     23  C13 UNL     1      27.872  -9.238 -41.481  0.00  0.00    +0.000 C 
ATOM     24  C14 UNL     1      26.981 -10.259 -40.719  0.00  0.00    +0.000 C 
ATOM     25  C15 UNL     1      25.502  -9.818 -40.773  0.00  0.00    +0.000 C 
ATOM     26  C16 UNL     1      25.355  -8.426 -40.119  0.00  0.00    +0.000 C 
ATOM     27  C17 UNL     1      26.221  -7.401 -40.884  0.00  0.00    +0.000 C 
ATOM     28  C18 UNL     1      25.760  -7.333 -42.357  0.00  0.00    +0.000 C 
ATOM     29  C19 UNL     1      25.908  -8.724 -43.011  0.00  0.00    +0.000 C 
ATOM     30  C20 UNL     1      25.041  -9.747 -42.246  0.00  0.00    +0.000 C 
ATOM     31  C21 UNL     1      27.389  -9.160 -42.958  0.00  0.00    +0.000 C 
ATOM     32  C22 UNL     1      27.703  -7.836 -40.827  0.00  0.00    +0.000 C 
ENDBRANCH  22  23
ENDBRANCH  21  22
ENDBRANCH  20  21
ENDBRANCH  19  20
ENDBRANCH  18  19
ENDBRANCH  17  18
ENDBRANCH   1  17
TORSDOF 13
ENDMDL
MODEL 6
REMARK VINA RESULT:    -4.858      3.991     10.185
REMARK INTER + INTRA:          -9.843
REMARK INTER:                  -8.997
REMARK INTRA:                  -0.846
REMARK UNBOUND:                -1.862
REMARK  Name = resultss/4CJN/ligands/lig_138_t0.pdb
REMARK  13 active torsions:
REMARK  status: ('A' for Active; 'I' for Inactive)
REMARK    1  A    between atoms: O1_1  and  C1_2
REMARK    2  A    between atoms: C1_2  and  C2_3
REMARK    3  A    between atoms: C3_4  and  O2_5
REMARK    4  A    between atoms: C4_6  and  O3_7
REMARK    5  A    between atoms: C5_8  and  O4_9
REMARK    6  A    between atoms: N1_11  and  C7_12
REMARK    7  A    between atoms: C7_12  and  C8_13
REMARK    8  A    between atoms: C8_13  and  C9_14
REMARK    9  A    between atoms: C9_14  and  C10_15
REMARK   10  A    between atoms: C10_15  and  C11_16
REMARK   11  A    between atoms: C11_16  and  O5_17
REMARK   12  A    between atoms: O5_17  and  C12_18
REMARK   13  A    between atoms: C12_18  and  C13_19
REMARK                            x       y       z     vdW  Elec       q    Type
REMARK                         _______ _______ _______ _____ _____    ______ ____
ROOT
ATOM      1  C7  UNL     1      27.151  -9.448 -37.231  0.00  0.00    +0.000 C 
ENDROOT
BRANCH   1   7
ATOM      2  C2  UNL     1      26.799  -8.748 -34.845  0.00  0.00    +0.000 C 
ATOM      3  C3  UNL     1      27.513  -8.132 -33.610  0.00  0.00    +0.000 C 
ATOM      4  C4  UNL     1      28.798  -8.887 -33.246  0.00  0.00    +0.000 C 
ATOM      5  C5  UNL     1      29.722  -8.960 -34.470  0.00  0.00    +0.000 C 
ATOM      6  C6  UNL     1      28.993  -9.609 -35.655  0.00  0.00    +0.000 C 
ATOM      7  N1  UNL     1      27.746  -8.886 -35.994  0.00  0.00    +0.000 NA
BRANCH   3   8
ATOM      8  O2  UNL     1      26.662  -8.094 -32.493  0.00  0.00    +0.000 OA
ATOM      9  H6  UNL     1      26.674  -9.003 -32.092  0.00  0.00    +0.000 HD
ENDBRANCH   3   8
BRANCH   4  10
ATOM     10  O3  UNL     1      29.444  -8.204 -32.203  0.00  0.00    +0.000 OA
ATOM     11  H8  UNL     1      30.224  -7.735 -32.598  0.00  0.00    +0.000 HD
ENDBRANCH   4  10
BRANCH   5  12
ATOM     12  O4  UNL     1      30.862  -9.714 -34.150  0.00  0.00    +0.000 OA
ATOM     13  H10 UNL     1      31.061 -10.283 -34.938  0.00  0.00    +0.000 HD
ENDBRANCH   5  12
BRANCH   2  14
ATOM     14  C1  UNL     1      25.970 -10.023 -34.514  0.00  0.00    +0.000 C 
BRANCH  14  15
ATOM     15  O1  UNL     1      24.702  -9.712 -34.011  0.00  0.00    +0.000 OA
ATOM     16  H1  UNL     1      24.470  -8.820 -34.380  0.00  0.00    +0.000 HD
ENDBRANCH  14  15
ENDBRANCH   2  14
ENDBRANCH   1   7
BRANCH   1  17
ATOM     17  C8  UNL     1      28.221  -9.865 -38.259  0.00  0.00    +0.000 C 
BRANCH  17  18
ATOM     18  C9  UNL     1      27.631 -10.730 -39.390  0.00  0.00    +0.000 C 
BRANCH  18  19
ATOM     19  C10 UNL     1      28.437 -10.637 -40.700  0.00  0.00    +0.000 C 
BRANCH  19  20
ATOM     20  C11 UNL     1      29.652  -9.708 -40.568  0.00  0.00    +0.000 C 
BRANCH  20  21
ATOM     21  O5  UNL     1      30.781 -10.262 -41.213  0.00  0.00    +0.000 OA
BRANCH  21  22
ATOM     22  C12 UNL     1      30.448 -10.855 -42.459  0.00  0.00    +0.000 C 
BRANCH  22  23
ATOM     23  C13 UNL     1      31.726 -11.294 -43.210  0.00  0.00    +0.000 C 
ATOM     24  C14 UNL     1      31.848 -10.545 -44.567  0.00  0.00    +0.000 C 
ATOM     25  C15 UNL     1      33.123 -11.000 -45.312  0.00  0.00    +0.000 C 
ATOM     26  C16 UNL     1      34.364 -10.691 -44.446  0.00  0.00    +0.000 C 
ATOM     27  C17 UNL     1      34.260 -11.449 -43.104  0.00  0.00    +0.000 C 
ATOM     28  C18 UNL     1      34.181 -12.968 -43.374  0.00  0.00    +0.000 C 
ATOM     29  C19 UNL     1      32.939 -13.277 -44.239  0.00  0.00    +0.000 C 
ATOM     30  C20 UNL     1      33.045 -12.520 -45.579  0.00  0.00    +0.000 C 
ATOM     31  C21 UNL     1      31.667 -12.823 -43.489  0.00  0.00    +0.000 C 
ATOM     32  C22 UNL     1      32.989 -10.992 -42.353  0.00  0.00    +0.000 C 
ENDBRANCH  22  23
ENDBRANCH  21  22
ENDBRANCH  20  21
ENDBRANCH  19  20
ENDBRANCH  18  19
ENDBRANCH  17  18
ENDBRANCH   1  17
TORSDOF 13
ENDMDL
MODEL 7
REMARK VINA RESULT:    -4.854      2.153      7.534
REMARK INTER + INTRA:          -9.837
REMARK INTER:                  -8.044
REMARK INTRA:                  -1.793
REMARK UNBOUND:                -1.862
REMARK  Name = resultss/4CJN/ligands/lig_138_t0.pdb
REMARK  13 active torsions:
REMARK  status: ('A' for Active; 'I' for Inactive)
REMARK    1  A    between atoms: O1_1  and  C1_2
REMARK    2  A    between atoms: C1_2  and  C2_3
REMARK    3  A    between atoms: C3_4  and  O2_5
REMARK    4  A    between atoms: C4_6  and  O3_7
REMARK    5  A    between atoms: C5_8  and  O4_9
REMARK    6  A    between atoms: N1_11  and  C7_12
REMARK    7  A    between atoms: C7_12  and  C8_13
REMARK    8  A    between atoms: C8_13  and  C9_14
REMARK    9  A    between atoms: C9_14  and  C10_15
REMARK   10  A    between atoms: C10_15  and  C11_16
REMARK   11  A    between atoms: C11_16  and  O5_17
REMARK   12  A    between atoms: O5_17  and  C12_18
REMARK   13  A    between atoms: C12_18  and  C13_19
REMARK                            x       y       z     vdW  Elec       q    Type
REMARK                         _______ _______ _______ _____ _____    ______ ____
ROOT
ATOM      1  C7  UNL     1      26.664  -6.691 -37.121  0.00  0.00    +0.000 C 
ENDROOT
BRANCH   1   7
ATOM      2  C2  UNL     1      26.070  -8.740 -35.796  0.00  0.00    +0.000 C 
ATOM      3  C3  UNL     1      25.159  -9.261 -34.650  0.00  0.00    +0.000 C 
ATOM      4  C4  UNL     1      25.294  -8.421 -33.374  0.00  0.00    +0.000 C 
ATOM      5  C5  UNL     1      25.029  -6.943 -33.694  0.00  0.00    +0.000 C 
ATOM      6  C6  UNL     1      25.974  -6.457 -34.803  0.00  0.00    +0.000 C 
ATOM      7  N1  UNL     1      25.852  -7.279 -36.028  0.00  0.00    +0.000 NA
BRANCH   3   8
ATOM      8  O2  UNL     1      25.430 -10.608 -34.354  0.00  0.00    +0.000 OA
ATOM      9  H6  UNL     1      26.121 -10.910 -35.000  0.00  0.00    +0.000 HD
ENDBRANCH   3   8
BRANCH   4  10
ATOM     10  O3  UNL     1      24.360  -8.878 -32.430  0.00  0.00    +0.000 OA
ATOM     11  H8  UNL     1      24.426  -9.868 -32.409  0.00  0.00    +0.000 HD
ENDBRANCH   4  10
BRANCH   5  12
ATOM     12  O4  UNL     1      25.227  -6.172 -32.537  0.00  0.00    +0.000 OA
ATOM     13  H10 UNL     1      24.330  -5.886 -32.227  0.00  0.00    +0.000 HD
ENDBRANCH   5  12
BRANCH   2  14
ATOM     14  C1  UNL     1      27.558  -9.173 -35.655  0.00  0.00    +0.000 C 
BRANCH  14  15
ATOM     15  O1  UNL     1      27.820 -10.382 -36.307  0.00  0.00    +0.000 OA
ATOM     16  H1  UNL     1      27.206 -10.415 -37.086  0.00  0.00    +0.000 HD
ENDBRANCH  14  15
ENDBRANCH   2  14
ENDBRANCH   1   7
BRANCH   1  17
ATOM     17  C8  UNL     1      25.791  -6.087 -38.238  0.00  0.00    +0.000 C 
BRANCH  17  18
ATOM     18  C9  UNL     1      24.875  -7.140 -38.890  0.00  0.00    +0.000 C 
BRANCH  18  19
ATOM     19  C10 UNL     1      24.005  -6.561 -40.023  0.00  0.00    +0.000 C 
BRANCH  19  20
ATOM     20  C11 UNL     1      23.832  -7.552 -41.184  0.00  0.00    +0.000 C 
BRANCH  20  21
ATOM     21  O5  UNL     1      24.876  -7.407 -42.126  0.00  0.00    +0.000 OA
BRANCH  21  22
ATOM     22  C12 UNL     1      25.376  -8.660 -42.567  0.00  0.00    +0.000 C 
BRANCH  22  23
ATOM     23  C13 UNL     1      26.752  -8.952 -41.925  0.00  0.00    +0.000 C 
ATOM     24  C14 UNL     1      26.610  -9.980 -40.767  0.00  0.00    +0.000 C 
ATOM     25  C15 UNL     1      27.989 -10.254 -40.127  0.00  0.00    +0.000 C 
ATOM     26  C16 UNL     1      28.949 -10.820 -41.196  0.00  0.00    +0.000 C 
ATOM     27  C17 UNL     1      29.112  -9.795 -42.340  0.00  0.00    +0.000 C 
ATOM     28  C18 UNL     1      29.686  -8.477 -41.774  0.00  0.00    +0.000 C 
ATOM     29  C19 UNL     1      28.724  -7.910 -40.706  0.00  0.00    +0.000 C 
ATOM     30  C20 UNL     1      28.563  -8.935 -39.564  0.00  0.00    +0.000 C 
ATOM     31  C21 UNL     1      27.348  -7.635 -41.351  0.00  0.00    +0.000 C 
ATOM     32  C22 UNL     1      27.735  -9.522 -42.987  0.00  0.00    +0.000 C 
ENDBRANCH  22  23
ENDBRANCH  21  22
ENDBRANCH  20  21
ENDBRANCH  19  20
ENDBRANCH  18  19
ENDBRANCH  17  18
ENDBRANCH   1  17
TORSDOF 13
ENDMDL
MODEL 8
REMARK VINA RESULT:    -4.757      1.586      3.816
REMARK INTER + INTRA:          -9.678
REMARK INTER:                  -7.904
REMARK INTRA:                  -1.774
REMARK UNBOUND:                -1.862
REMARK  Name = resultss/4CJN/ligands/lig_138_t0.pdb
REMARK  13 active torsions:
REMARK  status: ('A' for Active; 'I' for Inactive)
REMARK    1  A    between atoms: O1_1  and  C1_2
REMARK    2  A    between atoms: C1_2  and  C2_3
REMARK    3  A    between atoms: C3_4  and  O2_5
REMARK    4  A    between atoms: C4_6  and  O3_7
REMARK    5  A    between atoms: C5_8  and  O4_9
REMARK    6  A    between atoms: N1_11  and  C7_12
REMARK    7  A    between atoms: C7_12  and  C8_13
REMARK    8  A    between atoms: C8_13  and  C9_14
REMARK    9  A    between atoms: C9_14  and  C10_15
REMARK   10  A    between atoms: C10_15  and  C11_16
REMARK   11  A    between atoms: C11_16  and  O5_17
REMARK   12  A    between atoms: O5_17  and  C12_18
REMARK   13  A    between atoms: C12_18  and  C13_19
REMARK                            x       y       z     vdW  Elec       q    Type
REMARK                         _______ _______ _______ _____ _____    ______ ____
ROOT
ATOM      1  C7  UNL     1      26.259  -7.989 -37.923  0.00  0.00    +0.000 C 
ENDROOT
BRANCH   1   7
ATOM      2  C2  UNL     1      27.332  -9.004 -39.954  0.00  0.00    +0.000 C 
ATOM      3  C3  UNL     1      27.195  -9.145 -41.495  0.00  0.00    +0.000 C 
ATOM      4  C4  UNL     1      25.813  -9.668 -41.909  0.00  0.00    +0.000 C 
ATOM      5  C5  UNL     1      24.719  -8.772 -41.312  0.00  0.00    +0.000 C 
ATOM      6  C6  UNL     1      24.866  -8.689 -39.786  0.00  0.00    +0.000 C 
ATOM      7  N1  UNL     1      26.206  -8.198 -39.390  0.00  0.00    +0.000 NA
BRANCH   3   8
ATOM      8  O2  UNL     1      28.189  -9.986 -42.022  0.00  0.00    +0.000 OA
ATOM      9  H6  UNL     1      27.950 -10.913 -41.758  0.00  0.00    +0.000 HD
ENDBRANCH   3   8
BRANCH   4  10
ATOM     10  O3  UNL     1      25.726  -9.656 -43.311  0.00  0.00    +0.000 OA
ATOM     11  H8  UNL     1      26.293  -8.908 -43.632  0.00  0.00    +0.000 HD
ENDBRANCH   4  10
BRANCH   5  12
ATOM     12  O4  UNL     1      23.458  -9.298 -41.634  0.00  0.00    +0.000 OA
ATOM     13  H10 UNL     1      22.960  -8.582 -42.106  0.00  0.00    +0.000 HD
ENDBRANCH   5  12
BRANCH   2  14
ATOM     14  C1  UNL     1      27.612 -10.351 -39.227  0.00  0.00    +0.000 C 
BRANCH  14  15
ATOM     15  O1  UNL     1      28.969 -10.685 -39.238  0.00  0.00    +0.000 OA
ATOM     16  H1  UNL     1      29.324 -10.431 -38.347  0.00  0.00    +0.000 HD
ENDBRANCH  14  15
ENDBRANCH   2  14
ENDBRANCH   1   7
BRANCH   1  17
ATOM     17  C8  UNL     1      24.979  -8.474 -37.215  0.00  0.00    +0.000 C 
BRANCH  17  18
ATOM     18  C9  UNL     1      24.227  -7.320 -36.524  0.00  0.00    +0.000 C 
BRANCH  18  19
ATOM     19  C10 UNL     1      23.083  -7.807 -35.614  0.00  0.00    +0.000 C 
BRANCH  19  20
ATOM     20  C11 UNL     1      23.411  -7.626 -34.125  0.00  0.00    +0.000 C 
BRANCH  20  21
ATOM     21  O5  UNL     1      24.784  -7.341 -33.944  0.00  0.00    +0.000 OA
BRANCH  21  22
ATOM     22  C12 UNL     1      25.456  -8.373 -33.238  0.00  0.00    +0.000 C 
BRANCH  22  23
ATOM     23  C13 UNL     1      26.946  -8.429 -33.648  0.00  0.00    +0.000 C 
ATOM     24  C14 UNL     1      27.248  -9.732 -34.440  0.00  0.00    +0.000 C 
ATOM     25  C15 UNL     1      28.741  -9.781 -34.834  0.00  0.00    +0.000 C 
ATOM     26  C16 UNL     1      29.082  -8.558 -35.714  0.00  0.00    +0.000 C 
ATOM     27  C17 UNL     1      28.805  -7.260 -34.925  0.00  0.00    +0.000 C 
ATOM     28  C18 UNL     1      29.672  -7.236 -33.647  0.00  0.00    +0.000 C 
ATOM     29  C19 UNL     1      29.330  -8.458 -32.767  0.00  0.00    +0.000 C 
ATOM     30  C20 UNL     1      29.608  -9.755 -33.556  0.00  0.00    +0.000 C 
ATOM     31  C21 UNL     1      27.837  -8.404 -32.373  0.00  0.00    +0.000 C 
ATOM     32  C22 UNL     1      27.311  -7.204 -34.535  0.00  0.00    +0.000 C 
ENDBRANCH  22  23
ENDBRANCH  21  22
ENDBRANCH  20  21
ENDBRANCH  19  20
ENDBRANCH  18  19
ENDBRANCH  17  18
ENDBRANCH   1  17
TORSDOF 13
ENDMDL
MODEL 9
REMARK VINA RESULT:    -4.720      2.904      7.696
REMARK INTER + INTRA:          -9.617
REMARK INTER:                  -8.122
REMARK INTRA:                  -1.495
REMARK UNBOUND:                -1.862
REMARK  Name = resultss/4CJN/ligands/lig_138_t0.pdb
REMARK  13 active torsions:
REMARK  status: ('A' for Active; 'I' for Inactive)
REMARK    1  A    between atoms: O1_1  and  C1_2
REMARK    2  A    between atoms: C1_2  and  C2_3
REMARK    3  A    between atoms: C3_4  and  O2_5
REMARK    4  A    between atoms: C4_6  and  O3_7
REMARK    5  A    between atoms: C5_8  and  O4_9
REMARK    6  A    between atoms: N1_11  and  C7_12
REMARK    7  A    between atoms: C7_12  and  C8_13
REMARK    8  A    between atoms: C8_13  and  C9_14
REMARK    9  A    between atoms: C9_14  and  C10_15
REMARK   10  A    between atoms: C10_15  and  C11_16
REMARK   11  A    between atoms: C11_16  and  O5_17
REMARK   12  A    between atoms: O5_17  and  C12_18
REMARK   13  A    between atoms: C12_18  and  C13_19
REMARK                            x       y       z     vdW  Elec       q    Type
REMARK                         _______ _______ _______ _____ _____    ______ ____
ROOT
ATOM      1  C7  UNL     1      28.489  -8.652 -36.493  0.00  0.00    +0.000 C 
ENDROOT
BRANCH   1   7
ATOM      2  C2  UNL     1      26.901  -8.530 -34.551  0.00  0.00    +0.000 C 
ATOM      3  C3  UNL     1      26.653  -7.828 -33.187  0.00  0.00    +0.000 C 
ATOM      4  C4  UNL     1      27.862  -7.941 -32.249  0.00  0.00    +0.000 C 
ATOM      5  C5  UNL     1      29.117  -7.407 -32.953  0.00  0.00    +0.000 C 
ATOM      6  C6  UNL     1      29.348  -8.152 -34.276  0.00  0.00    +0.000 C 
ATOM      7  N1  UNL     1      28.174  -8.053 -35.173  0.00  0.00    +0.000 NA
BRANCH   3   8
ATOM      8  O2  UNL     1      25.514  -8.344 -32.546  0.00  0.00    +0.000 OA
ATOM      9  H6  UNL     1      25.708  -9.296 -32.341  0.00  0.00    +0.000 HD
ENDBRANCH   3   8
BRANCH   4  10
ATOM     10  O3  UNL     1      27.608  -7.186 -31.092  0.00  0.00    +0.000 OA
ATOM     11  H8  UNL     1      26.985  -6.457 -31.349  0.00  0.00    +0.000 HD
ENDBRANCH   4  10
BRANCH   5  12
ATOM     12  O4  UNL     1      30.231  -7.580 -32.116  0.00  0.00    +0.000 OA
ATOM     13  H10 UNL     1      30.594  -6.676 -31.930  0.00  0.00    +0.000 HD
ENDBRANCH   5  12
BRANCH   2  14
ATOM     14  C1  UNL     1      26.729 -10.076 -34.497  0.00  0.00    +0.000 C 
BRANCH  14  15
ATOM     15  O1  UNL     1      25.384 -10.458 -34.484  0.00  0.00    +0.000 OA
ATOM     16  H1  UNL     1      25.082 -10.376 -33.542  0.00  0.00    +0.000 HD
ENDBRANCH  14  15
ENDBRANCH   2  14
ENDBRANCH   1   7
BRANCH   1  17
ATOM     17  C8  UNL     1      29.695  -9.610 -36.428  0.00  0.00    +0.000 C 
BRANCH  17  18
ATOM     18  C9  UNL     1      30.174 -10.032 -37.831  0.00  0.00    +0.000 C 
BRANCH  18  19
ATOM     19  C10 UNL     1      31.118  -9.000 -38.479  0.00  0.00    +0.000 C 
BRANCH  19  20
ATOM     20  C11 UNL     1      31.572  -9.431 -39.881  0.00  0.00    +0.000 C 
BRANCH  20  21
ATOM     21  O5  UNL     1      30.815  -8.774 -40.878  0.00  0.00    +0.000 OA
BRANCH  21  22
ATOM     22  C12 UNL     1      30.010  -9.677 -41.620  0.00  0.00    +0.000 C 
BRANCH  22  23
ATOM     23  C13 UNL     1      28.512  -9.334 -41.452  0.00  0.00    +0.000 C 
ATOM     24  C14 UNL     1      28.341  -7.952 -40.759  0.00  0.00    +0.000 C 
ATOM     25  C15 UNL     1      26.841  -7.627 -40.588  0.00  0.00    +0.000 C 
ATOM     26  C16 UNL     1      26.160  -7.589 -41.973  0.00  0.00    +0.000 C 
ATOM     27  C17 UNL     1      26.308  -8.965 -42.660  0.00  0.00    +0.000 C 
ATOM     28  C18 UNL     1      25.644 -10.052 -41.786  0.00  0.00    +0.000 C 
ATOM     29  C19 UNL     1      26.326 -10.090 -40.400  0.00  0.00    +0.000 C 
ATOM     30  C20 UNL     1      26.177  -8.715 -39.716  0.00  0.00    +0.000 C 
ATOM     31  C21 UNL     1      27.825 -10.419 -40.576  0.00  0.00    +0.000 C 
ATOM     32  C22 UNL     1      27.807  -9.292 -42.839  0.00  0.00    +0.000 C 
ENDBRANCH  22  23
ENDBRANCH  21  22
ENDBRANCH  20  21
ENDBRANCH  19  20
ENDBRANCH  18  19
ENDBRANCH  17  18
ENDBRANCH   1  17
TORSDOF 13
ENDMDL
