MODEL 1
REMARK VINA RESULT:    -5.461      0.000      0.000
REMARK INTER + INTRA:          -6.549
REMARK INTER:                  -6.259
REMARK INTRA:                  -0.290
REMARK UNBOUND:                -0.290
REMARK  Name = resultss/4CJN/ligands/lig_36_t0.pdb
REMARK  4 active torsions:
REMARK  status: ('A' for Active; 'I' for Inactive)
REMARK    1  A    between atoms: C2_3  and  C3_4
REMARK    2  A    between atoms: C6_7  and  O2_8
REMARK    3  A    between atoms: C12_15  and  O4_16
REMARK    4  A    between atoms: C14_18  and  O5_19
REMARK                            x       y       z     vdW  Elec       q    Type
REMARK                         _______ _______ _______ _____ _____    ______ ____
ROOT
ATOM      1  O1  UNL     1      25.243  -8.349 -38.334  0.00  0.00    +0.000 OA
ATOM      2  C1  UNL     1      25.777  -8.833 -37.299  0.00  0.00    +0.000 A 
ATOM      3  C2  UNL     1      27.017  -9.495 -37.395  0.00  0.00    +0.000 A 
ATOM      4  C9  UNL     1      27.561 -10.059 -36.233  0.00  0.00    +0.000 A 
ATOM      5  O3  UNL     1      26.932  -9.962 -35.070  0.00  0.00    +0.000 OA
ATOM      6  C10 UNL     1      25.768  -9.339 -34.930  0.00  0.00    +0.000 A 
ATOM      7  C11 UNL     1      25.173  -9.282 -33.666  0.00  0.00    +0.000 A 
ATOM      8  C12 UNL     1      23.945  -8.635 -33.492  0.00  0.00    +0.000 A 
ATOM      9  C13 UNL     1      23.310  -8.041 -34.586  0.00  0.00    +0.000 A 
ATOM     10  C14 UNL     1      23.890  -8.087 -35.862  0.00  0.00    +0.000 A 
ATOM     11  C15 UNL     1      25.133  -8.741 -36.046  0.00  0.00    +0.000 A 
ENDROOT
BRANCH   3  12
ATOM     12  C3  UNL     1      27.747  -9.610 -38.684  0.00  0.00    +0.000 A 
ATOM     13  C4  UNL     1      27.606 -10.761 -39.478  0.00  0.00    +0.000 A 
ATOM     14  C5  UNL     1      28.298 -10.877 -40.687  0.00  0.00    +0.000 A 
ATOM     15  C6  UNL     1      29.143  -9.849 -41.115  0.00  0.00    +0.000 A 
ATOM     16  C7  UNL     1      29.296  -8.700 -40.326  0.00  0.00    +0.000 A 
ATOM     17  C8  UNL     1      28.604  -8.583 -39.117  0.00  0.00    +0.000 A 
BRANCH  15  18
ATOM     18  O2  UNL     1      29.827  -9.976 -42.322  0.00  0.00    +0.000 OA
ATOM     19  H3  UNL     1      29.359  -9.858 -43.212  0.00  0.00    +0.000 HD
ENDBRANCH  15  18
ENDBRANCH   3  12
BRANCH   8  20
ATOM     20  O4  UNL     1      23.347  -8.574 -32.235  0.00  0.00    +0.000 OA
ATOM     21  H8  UNL     1      22.356  -8.747 -32.111  0.00  0.00    +0.000 HD
ENDBRANCH   8  20
BRANCH  10  22
ATOM     22  O5  UNL     1      23.231  -7.484 -36.933  0.00  0.00    +0.000 OA
ATOM     23  H10 UNL     1      22.794  -8.030 -37.667  0.00  0.00    +0.000 HD
ENDBRANCH  10  22
TORSDOF 4
ENDMDL
MODEL 2
REMARK VINA RESULT:    -5.420      1.734      2.378
REMARK INTER + INTRA:          -6.502
REMARK INTER:                  -6.211
REMARK INTRA:                  -0.291
REMARK UNBOUND:                -0.290
REMARK  Name = resultss/4CJN/ligands/lig_36_t0.pdb
REMARK  4 active torsions:
REMARK  status: ('A' for Active; 'I' for Inactive)
REMARK    1  A    between atoms: C2_3  and  C3_4
REMARK    2  A    between atoms: C6_7  and  O2_8
REMARK    3  A    between atoms: C12_15  and  O4_16
REMARK    4  A    between atoms: C14_18  and  O5_19
REMARK                            x       y       z     vdW  Elec       q    Type
REMARK                         _______ _______ _______ _____ _____    ______ ____
ROOT
ATOM      1  O1  UNL     1      27.258 -10.444 -36.400  0.00  0.00    +0.000 OA
ATOM      2  C1  UNL     1      27.110  -9.191 -36.366  0.00  0.00    +0.000 A 
ATOM      3  C2  UNL     1      27.766  -8.383 -37.315  0.00  0.00    +0.000 A 
ATOM      4  C9  UNL     1      27.614  -6.993 -37.223  0.00  0.00    +0.000 A 
ATOM      5  O3  UNL     1      26.862  -6.451 -36.273  0.00  0.00    +0.000 OA
ATOM      6  C10 UNL     1      26.218  -7.174 -35.365  0.00  0.00    +0.000 A 
ATOM      7  C11 UNL     1      25.445  -6.522 -34.399  0.00  0.00    +0.000 A 
ATOM      8  C12 UNL     1      24.758  -7.259 -33.429  0.00  0.00    +0.000 A 
ATOM      9  C13 UNL     1      24.844  -8.654 -33.425  0.00  0.00    +0.000 A 
ATOM     10  C14 UNL     1      25.614  -9.327 -34.385  0.00  0.00    +0.000 A 
ATOM     11  C15 UNL     1      26.312  -8.587 -35.370  0.00  0.00    +0.000 A 
ENDROOT
BRANCH   3  12
ATOM     12  C3  UNL     1      28.606  -8.964 -38.394  0.00  0.00    +0.000 A 
ATOM     13  C4  UNL     1      28.025  -9.348 -39.615  0.00  0.00    +0.000 A 
ATOM     14  C5  UNL     1      28.811  -9.903 -40.629  0.00  0.00    +0.000 A 
ATOM     15  C6  UNL     1      30.183 -10.085 -40.436  0.00  0.00    +0.000 A 
ATOM     16  C7  UNL     1      30.770  -9.712 -39.219  0.00  0.00    +0.000 A 
ATOM     17  C8  UNL     1      29.986  -9.156 -38.204  0.00  0.00    +0.000 A 
BRANCH  15  18
ATOM     18  O2  UNL     1      30.955 -10.640 -41.455  0.00  0.00    +0.000 OA
ATOM     19  H3  UNL     1      30.572 -10.811 -42.377  0.00  0.00    +0.000 HD
ENDBRANCH  15  18
ENDBRANCH   3  12
BRANCH   8  20
ATOM     20  O4  UNL     1      23.986  -6.616 -32.464  0.00  0.00    +0.000 OA
ATOM     21  H8  UNL     1      23.083  -6.215 -32.689  0.00  0.00    +0.000 HD
ENDBRANCH   8  20
BRANCH  10  22
ATOM     22  O5  UNL     1      25.678 -10.720 -34.353  0.00  0.00    +0.000 OA
ATOM     23  H10 UNL     1      26.415 -11.231 -34.827  0.00  0.00    +0.000 HD
ENDBRANCH  10  22
TORSDOF 4
ENDMDL
MODEL 3
REMARK VINA RESULT:    -5.417      2.793      5.812
REMARK INTER + INTRA:          -6.498
REMARK INTER:                  -6.475
REMARK INTRA:                  -0.023
REMARK UNBOUND:                -0.290
REMARK  Name = resultss/4CJN/ligands/lig_36_t0.pdb
REMARK  4 active torsions:
REMARK  status: ('A' for Active; 'I' for Inactive)
REMARK    1  A    between atoms: C2_3  and  C3_4
REMARK    2  A    between atoms: C6_7  and  O2_8
REMARK    3  A    between atoms: C12_15  and  O4_16
REMARK    4  A    between atoms: C14_18  and  O5_19
REMARK                            x       y       z     vdW  Elec       q    Type
REMARK                         _______ _______ _______ _____ _____    ______ ____
ROOT
ATOM      1  O1  UNL     1      25.969  -8.116 -37.368  0.00  0.00    +0.000 OA
ATOM      2  C1  UNL     1      26.392  -8.989 -38.175  0.00  0.00    +0.000 A 
ATOM      3  C2  UNL     1      27.447  -9.841 -37.794  0.00  0.00    +0.000 A 
ATOM      4  C9  UNL     1      27.920 -10.771 -38.729  0.00  0.00    +0.000 A 
ATOM      5  O3  UNL     1      27.383 -10.855 -39.939  0.00  0.00    +0.000 OA
ATOM      6  C10 UNL     1      26.382 -10.079 -40.338  0.00  0.00    +0.000 A 
ATOM      7  C11 UNL     1      25.872 -10.235 -41.631  0.00  0.00    +0.000 A 
ATOM      8  C12 UNL     1      24.820  -9.429 -42.077  0.00  0.00    +0.000 A 
ATOM      9  C13 UNL     1      24.274  -8.464 -41.227  0.00  0.00    +0.000 A 
ATOM     10  C14 UNL     1      24.771  -8.292 -39.926  0.00  0.00    +0.000 A 
ATOM     11  C15 UNL     1      25.836  -9.104 -39.467  0.00  0.00    +0.000 A 
ENDROOT
BRANCH   3  12
ATOM     12  C3  UNL     1      28.061  -9.775 -36.443  0.00  0.00    +0.000 A 
ATOM     13  C4  UNL     1      29.448  -9.597 -36.303  0.00  0.00    +0.000 A 
ATOM     14  C5  UNL     1      30.030  -9.543 -35.034  0.00  0.00    +0.000 A 
ATOM     15  C6  UNL     1      29.237  -9.670 -33.889  0.00  0.00    +0.000 A 
ATOM     16  C7  UNL     1      27.854  -9.855 -34.019  0.00  0.00    +0.000 A 
ATOM     17  C8  UNL     1      27.269  -9.909 -35.288  0.00  0.00    +0.000 A 
BRANCH  15  18
ATOM     18  O2  UNL     1      29.830  -9.615 -32.630  0.00  0.00    +0.000 OA
ATOM     19  H3  UNL     1      30.154 -10.451 -32.159  0.00  0.00    +0.000 HD
ENDBRANCH  15  18
ENDBRANCH   3  12
BRANCH   8  20
ATOM     20  O4  UNL     1      24.308  -9.579 -43.364  0.00  0.00    +0.000 OA
ATOM     21  H8  UNL     1      24.031  -8.778 -43.921  0.00  0.00    +0.000 HD
ENDBRANCH   8  20
BRANCH  10  22
ATOM     22  O5  UNL     1      24.202  -7.320 -39.102  0.00  0.00    +0.000 OA
ATOM     23  H10 UNL     1      23.224  -7.063 -39.177  0.00  0.00    +0.000 HD
ENDBRANCH  10  22
TORSDOF 4
ENDMDL
MODEL 4
REMARK VINA RESULT:    -5.388      1.533      2.514
REMARK INTER + INTRA:          -6.465
REMARK INTER:                  -6.174
REMARK INTRA:                  -0.290
REMARK UNBOUND:                -0.290
REMARK  Name = resultss/4CJN/ligands/lig_36_t0.pdb
REMARK  4 active torsions:
REMARK  status: ('A' for Active; 'I' for Inactive)
REMARK    1  A    between atoms: C2_3  and  C3_4
REMARK    2  A    between atoms: C6_7  and  O2_8
REMARK    3  A    between atoms: C12_15  and  O4_16
REMARK    4  A    between atoms: C14_18  and  O5_19
REMARK                            x       y       z     vdW  Elec       q    Type
REMARK                         _______ _______ _______ _____ _____    ______ ____
ROOT
ATOM      1  O1  UNL     1      26.391  -9.995 -36.802  0.00  0.00    +0.000 OA
ATOM      2  C1  UNL     1      25.727  -8.923 -36.772  0.00  0.00    +0.000 A 
ATOM      3  C2  UNL     1      25.655  -8.112 -37.922  0.00  0.00    +0.000 A 
ATOM      4  C9  UNL     1      24.944  -6.907 -37.842  0.00  0.00    +0.000 A 
ATOM      5  O3  UNL     1      24.344  -6.543 -36.716  0.00  0.00    +0.000 OA
ATOM      6  C10 UNL     1      24.377  -7.280 -35.612  0.00  0.00    +0.000 A 
ATOM      7  C11 UNL     1      23.715  -6.823 -34.469  0.00  0.00    +0.000 A 
ATOM      8  C12 UNL     1      23.736  -7.578 -33.291  0.00  0.00    +0.000 A 
ATOM      9  C13 UNL     1      24.421  -8.795 -33.258  0.00  0.00    +0.000 A 
ATOM     10  C14 UNL     1      25.091  -9.272 -34.394  0.00  0.00    +0.000 A 
ATOM     11  C15 UNL     1      25.074  -8.513 -35.590  0.00  0.00    +0.000 A 
ENDROOT
BRANCH   3  12
ATOM     12  C3  UNL     1      26.309  -8.500 -39.198  0.00  0.00    +0.000 A 
ATOM     13  C4  UNL     1      25.612  -9.269 -40.147  0.00  0.00    +0.000 A 
ATOM     14  C5  UNL     1      26.228  -9.643 -41.344  0.00  0.00    +0.000 A 
ATOM     15  C6  UNL     1      27.546  -9.260 -41.609  0.00  0.00    +0.000 A 
ATOM     16  C7  UNL     1      28.251  -8.500 -40.665  0.00  0.00    +0.000 A 
ATOM     17  C8  UNL     1      27.637  -8.124 -39.467  0.00  0.00    +0.000 A 
BRANCH  15  18
ATOM     18  O2  UNL     1      28.147  -9.639 -42.806  0.00  0.00    +0.000 OA
ATOM     19  H3  UNL     1      27.610  -9.754 -43.657  0.00  0.00    +0.000 HD
ENDBRANCH  15  18
ENDBRANCH   3  12
BRANCH   8  20
ATOM     20  O4  UNL     1      23.079  -7.128 -32.148  0.00  0.00    +0.000 OA
ATOM     21  H8  UNL     1      23.463  -6.387 -31.573  0.00  0.00    +0.000 HD
ENDBRANCH   8  20
BRANCH  10  22
ATOM     22  O5  UNL     1      25.764 -10.492 -34.327  0.00  0.00    +0.000 OA
ATOM     23  H10 UNL     1      25.266 -11.375 -34.303  0.00  0.00    +0.000 HD
ENDBRANCH  10  22
TORSDOF 4
ENDMDL
MODEL 5
REMARK VINA RESULT:    -5.311      2.959      3.811
REMARK INTER + INTRA:          -6.377
REMARK INTER:                  -6.090
REMARK INTRA:                  -0.287
REMARK UNBOUND:                -0.290
REMARK  Name = resultss/4CJN/ligands/lig_36_t0.pdb
REMARK  4 active torsions:
REMARK  status: ('A' for Active; 'I' for Inactive)
REMARK    1  A    between atoms: C2_3  and  C3_4
REMARK    2  A    between atoms: C6_7  and  O2_8
REMARK    3  A    between atoms: C12_15  and  O4_16
REMARK    4  A    between atoms: C14_18  and  O5_19
REMARK                            x       y       z     vdW  Elec       q    Type
REMARK                         _______ _______ _______ _____ _____    ______ ____
ROOT
ATOM      1  O1  UNL     1      24.811  -8.772 -38.308  0.00  0.00    +0.000 OA
ATOM      2  C1  UNL     1      26.042  -9.048 -38.327  0.00  0.00    +0.000 A 
ATOM      3  C2  UNL     1      26.723  -9.126 -39.558  0.00  0.00    +0.000 A 
ATOM      4  C9  UNL     1      28.080  -9.476 -39.545  0.00  0.00    +0.000 A 
ATOM      5  O3  UNL     1      28.711  -9.717 -38.404  0.00  0.00    +0.000 OA
ATOM      6  C10 UNL     1      28.113  -9.644 -37.221  0.00  0.00    +0.000 A 
ATOM      7  C11 UNL     1      28.853  -9.911 -36.065  0.00  0.00    +0.000 A 
ATOM      8  C12 UNL     1      28.247  -9.844 -34.807  0.00  0.00    +0.000 A 
ATOM      9  C13 UNL     1      26.895  -9.509 -34.703  0.00  0.00    +0.000 A 
ATOM     10  C14 UNL     1      26.134  -9.237 -35.850  0.00  0.00    +0.000 A 
ATOM     11  C15 UNL     1      26.741  -9.303 -37.127  0.00  0.00    +0.000 A 
ENDROOT
BRANCH   3  12
ATOM     12  C3  UNL     1      26.042  -8.854 -40.850  0.00  0.00    +0.000 A 
ATOM     13  C4  UNL     1      25.360  -9.883 -41.522  0.00  0.00    +0.000 A 
ATOM     14  C5  UNL     1      24.726  -9.632 -42.742  0.00  0.00    +0.000 A 
ATOM     15  C6  UNL     1      24.768  -8.355 -43.308  0.00  0.00    +0.000 A 
ATOM     16  C7  UNL     1      25.452  -7.325 -42.649  0.00  0.00    +0.000 A 
ATOM     17  C8  UNL     1      26.087  -7.573 -41.428  0.00  0.00    +0.000 A 
BRANCH  15  18
ATOM     18  O2  UNL     1      24.132  -8.119 -44.525  0.00  0.00    +0.000 OA
ATOM     19  H3  UNL     1      23.217  -8.503 -44.728  0.00  0.00    +0.000 HD
ENDBRANCH  15  18
ENDBRANCH   3  12
BRANCH   8  20
ATOM     20  O4  UNL     1      28.980 -10.109 -33.651  0.00  0.00    +0.000 OA
ATOM     21  H8  UNL     1      29.563 -10.934 -33.572  0.00  0.00    +0.000 HD
ENDBRANCH   8  20
BRANCH  10  22
ATOM     22  O5  UNL     1      24.786  -8.904 -35.711  0.00  0.00    +0.000 OA
ATOM     23  H10 UNL     1      24.140  -8.960 -36.491  0.00  0.00    +0.000 HD
ENDBRANCH  10  22
TORSDOF 4
ENDMDL
MODEL 6
REMARK VINA RESULT:    -5.258      5.228      6.635
REMARK INTER + INTRA:          -6.316
REMARK INTER:                  -6.069
REMARK INTRA:                  -0.248
REMARK UNBOUND:                -0.290
REMARK  Name = resultss/4CJN/ligands/lig_36_t0.pdb
REMARK  4 active torsions:
REMARK  status: ('A' for Active; 'I' for Inactive)
REMARK    1  A    between atoms: C2_3  and  C3_4
REMARK    2  A    between atoms: C6_7  and  O2_8
REMARK    3  A    between atoms: C12_15  and  O4_16
REMARK    4  A    between atoms: C14_18  and  O5_19
REMARK                            x       y       z     vdW  Elec       q    Type
REMARK                         _______ _______ _______ _____ _____    ______ ____
ROOT
ATOM      1  O1  UNL     1      26.760  -9.741 -40.800  0.00  0.00    +0.000 OA
ATOM      2  C1  UNL     1      26.639  -9.145 -41.905  0.00  0.00    +0.000 A 
ATOM      3  C2  UNL     1      27.782  -8.877 -42.684  0.00  0.00    +0.000 A 
ATOM      4  C9  UNL     1      27.617  -8.177 -43.887  0.00  0.00    +0.000 A 
ATOM      5  O3  UNL     1      26.415  -7.784 -44.288  0.00  0.00    +0.000 OA
ATOM      6  C10 UNL     1      25.310  -8.023 -43.591  0.00  0.00    +0.000 A 
ATOM      7  C11 UNL     1      24.082  -7.576 -44.087  0.00  0.00    +0.000 A 
ATOM      8  C12 UNL     1      22.903  -7.812 -43.372  0.00  0.00    +0.000 A 
ATOM      9  C13 UNL     1      22.952  -8.499 -42.157  0.00  0.00    +0.000 A 
ATOM     10  C14 UNL     1      24.174  -8.956 -41.641  0.00  0.00    +0.000 A 
ATOM     11  C15 UNL     1      25.372  -8.721 -42.359  0.00  0.00    +0.000 A 
ENDROOT
BRANCH   3  12
ATOM     12  C3  UNL     1      29.139  -9.313 -42.264  0.00  0.00    +0.000 A 
ATOM     13  C4  UNL     1      29.852  -8.577 -41.302  0.00  0.00    +0.000 A 
ATOM     14  C5  UNL     1      31.132  -8.978 -40.910  0.00  0.00    +0.000 A 
ATOM     15  C6  UNL     1      31.717 -10.116 -41.475  0.00  0.00    +0.000 A 
ATOM     16  C7  UNL     1      31.016 -10.852 -42.440  0.00  0.00    +0.000 A 
ATOM     17  C8  UNL     1      29.735 -10.452 -42.833  0.00  0.00    +0.000 A 
BRANCH  15  18
ATOM     18  O2  UNL     1      32.994 -10.505 -41.076  0.00  0.00    +0.000 OA
ATOM     19  H3  UNL     1      33.822 -10.187 -41.564  0.00  0.00    +0.000 HD
ENDBRANCH  15  18
ENDBRANCH   3  12
BRANCH   8  20
ATOM     20  O4  UNL     1      21.676  -7.369 -43.861  0.00  0.00    +0.000 OA
ATOM     21  H8  UNL     1      21.236  -6.528 -43.505  0.00  0.00    +0.000 HD
ENDBRANCH   8  20
BRANCH  10  22
ATOM     22  O5  UNL     1      24.189  -9.639 -40.425  0.00  0.00    +0.000 OA
ATOM     23  H10 UNL     1      23.984 -10.631 -40.368  0.00  0.00    +0.000 HD
ENDBRANCH  10  22
TORSDOF 4
ENDMDL
MODEL 7
REMARK VINA RESULT:    -5.257      1.620      7.012
REMARK INTER + INTRA:          -6.315
REMARK INTER:                  -6.052
REMARK INTRA:                  -0.263
REMARK UNBOUND:                -0.290
REMARK  Name = resultss/4CJN/ligands/lig_36_t0.pdb
REMARK  4 active torsions:
REMARK  status: ('A' for Active; 'I' for Inactive)
REMARK    1  A    between atoms: C2_3  and  C3_4
REMARK    2  A    between atoms: C6_7  and  O2_8
REMARK    3  A    between atoms: C12_15  and  O4_16
REMARK    4  A    between atoms: C14_18  and  O5_19
REMARK                            x       y       z     vdW  Elec       q    Type
REMARK                         _______ _______ _______ _____ _____    ______ ____
ROOT
ATOM      1  O1  UNL     1      26.494  -9.977 -36.550  0.00  0.00    +0.000 OA
ATOM      2  C1  UNL     1      26.264  -9.161 -37.485  0.00  0.00    +0.000 A 
ATOM      3  C2  UNL     1      25.432  -8.048 -37.252  0.00  0.00    +0.000 A 
ATOM      4  C9  UNL     1      25.163  -7.184 -38.323  0.00  0.00    +0.000 A 
ATOM      5  O3  UNL     1      25.686  -7.403 -39.522  0.00  0.00    +0.000 OA
ATOM      6  C10 UNL     1      26.482  -8.432 -39.784  0.00  0.00    +0.000 A 
ATOM      7  C11 UNL     1      26.993  -8.587 -41.077  0.00  0.00    +0.000 A 
ATOM      8  C12 UNL     1      27.831  -9.664 -41.380  0.00  0.00    +0.000 A 
ATOM      9  C13 UNL     1      28.162 -10.590 -40.388  0.00  0.00    +0.000 A 
ATOM     10  C14 UNL     1      27.661 -10.453 -39.085  0.00  0.00    +0.000 A 
ATOM     11  C15 UNL     1      26.811  -9.365 -38.770  0.00  0.00    +0.000 A 
ENDROOT
BRANCH   3  12
ATOM     12  C3  UNL     1      24.841  -7.775 -35.917  0.00  0.00    +0.000 A 
ATOM     13  C4  UNL     1      23.498  -8.102 -35.657  0.00  0.00    +0.000 A 
ATOM     14  C5  UNL     1      22.936  -7.839 -34.405  0.00  0.00    +0.000 A 
ATOM     15  C6  UNL     1      23.703  -7.244 -33.399  0.00  0.00    +0.000 A 
ATOM     16  C7  UNL     1      25.040  -6.907 -33.652  0.00  0.00    +0.000 A 
ATOM     17  C8  UNL     1      25.605  -7.170 -34.904  0.00  0.00    +0.000 A 
BRANCH  15  18
ATOM     18  O2  UNL     1      23.131  -6.987 -32.156  0.00  0.00    +0.000 OA
ATOM     19  H3  UNL     1      23.101  -6.051 -31.768  0.00  0.00    +0.000 HD
ENDBRANCH  15  18
ENDBRANCH   3  12
BRANCH   8  20
ATOM     20  O4  UNL     1      28.344  -9.824 -42.666  0.00  0.00    +0.000 OA
ATOM     21  H8  UNL     1      28.564  -9.026 -43.252  0.00  0.00    +0.000 HD
ENDBRANCH   8  20
BRANCH  10  22
ATOM     22  O5  UNL     1      28.011 -11.394 -38.117  0.00  0.00    +0.000 OA
ATOM     23  H10 UNL     1      27.475 -12.244 -37.980  0.00  0.00    +0.000 HD
ENDBRANCH  10  22
TORSDOF 4
ENDMDL
MODEL 8
REMARK VINA RESULT:    -4.958      3.584      6.350
REMARK INTER + INTRA:          -5.972
REMARK INTER:                  -5.707
REMARK INTRA:                  -0.265
REMARK UNBOUND:                -0.290
REMARK  Name = resultss/4CJN/ligands/lig_36_t0.pdb
REMARK  4 active torsions:
REMARK  status: ('A' for Active; 'I' for Inactive)
REMARK    1  A    between atoms: C2_3  and  C3_4
REMARK    2  A    between atoms: C6_7  and  O2_8
REMARK    3  A    between atoms: C12_15  and  O4_16
REMARK    4  A    between atoms: C14_18  and  O5_19
REMARK                            x       y       z     vdW  Elec       q    Type
REMARK                         _______ _______ _______ _____ _____    ______ ____
ROOT
ATOM      1  O1  UNL     1      25.586  -6.944 -33.137  0.00  0.00    +0.000 OA
ATOM      2  C1  UNL     1      26.085  -7.837 -33.876  0.00  0.00    +0.000 A 
ATOM      3  C2  UNL     1      25.389  -8.263 -35.024  0.00  0.00    +0.000 A 
ATOM      4  C9  UNL     1      25.951  -9.286 -35.799  0.00  0.00    +0.000 A 
ATOM      5  O3  UNL     1      27.113  -9.833 -35.467  0.00  0.00    +0.000 OA
ATOM      6  C10 UNL     1      27.808  -9.456 -34.401  0.00  0.00    +0.000 A 
ATOM      7  C11 UNL     1      29.027 -10.083 -34.124  0.00  0.00    +0.000 A 
ATOM      8  C12 UNL     1      29.777  -9.707 -33.006  0.00  0.00    +0.000 A 
ATOM      9  C13 UNL     1      29.308  -8.699 -32.160  0.00  0.00    +0.000 A 
ATOM     10  C14 UNL     1      28.088  -8.057 -32.419  0.00  0.00    +0.000 A 
ATOM     11  C15 UNL     1      27.322  -8.432 -33.550  0.00  0.00    +0.000 A 
ENDROOT
BRANCH   3  12
ATOM     12  C3  UNL     1      24.090  -7.662 -35.423  0.00  0.00    +0.000 A 
ATOM     13  C4  UNL     1      24.049  -6.646 -36.394  0.00  0.00    +0.000 A 
ATOM     14  C5  UNL     1      22.830  -6.072 -36.765  0.00  0.00    +0.000 A 
ATOM     15  C6  UNL     1      21.639  -6.502 -36.172  0.00  0.00    +0.000 A 
ATOM     16  C7  UNL     1      21.672  -7.510 -35.198  0.00  0.00    +0.000 A 
ATOM     17  C8  UNL     1      22.890  -8.085 -34.825  0.00  0.00    +0.000 A 
BRANCH  15  18
ATOM     18  O2  UNL     1      20.431  -5.922 -36.552  0.00  0.00    +0.000 OA
ATOM     19  H3  UNL     1      20.183  -5.803 -37.527  0.00  0.00    +0.000 HD
ENDBRANCH  15  18
ENDBRANCH   3  12
BRANCH   8  20
ATOM     20  O4  UNL     1      30.992 -10.328 -32.725  0.00  0.00    +0.000 OA
ATOM     21  H8  UNL     1      31.668 -10.523 -33.455  0.00  0.00    +0.000 HD
ENDBRANCH   8  20
BRANCH  10  22
ATOM     22  O5  UNL     1      27.648  -7.053 -31.556  0.00  0.00    +0.000 OA
ATOM     23  H10 UNL     1      27.487  -6.105 -31.878  0.00  0.00    +0.000 HD
ENDBRANCH  10  22
TORSDOF 4
ENDMDL
MODEL 9
REMARK VINA RESULT:    -4.916      2.422      6.792
REMARK INTER + INTRA:          -5.924
REMARK INTER:                  -5.655
REMARK INTRA:                  -0.268
REMARK UNBOUND:                -0.290
REMARK  Name = resultss/4CJN/ligands/lig_36_t0.pdb
REMARK  4 active torsions:
REMARK  status: ('A' for Active; 'I' for Inactive)
REMARK    1  A    between atoms: C2_3  and  C3_4
REMARK    2  A    between atoms: C6_7  and  O2_8
REMARK    3  A    between atoms: C12_15  and  O4_16
REMARK    4  A    between atoms: C14_18  and  O5_19
REMARK                            x       y       z     vdW  Elec       q    Type
REMARK                         _______ _______ _______ _____ _____    ______ ____
ROOT
ATOM      1  O1  UNL     1      27.655 -10.484 -36.604  0.00  0.00    +0.000 OA
ATOM      2  C1  UNL     1      27.644  -9.417 -37.277  0.00  0.00    +0.000 A 
ATOM      3  C2  UNL     1      27.606  -8.174 -36.616  0.00  0.00    +0.000 A 
ATOM      4  C9  UNL     1      27.553  -7.009 -37.395  0.00  0.00    +0.000 A 
ATOM      5  O3  UNL     1      27.548  -7.075 -38.720  0.00  0.00    +0.000 OA
ATOM      6  C10 UNL     1      27.593  -8.224 -39.384  0.00  0.00    +0.000 A 
ATOM      7  C11 UNL     1      27.587  -8.203 -40.782  0.00  0.00    +0.000 A 
ATOM      8  C12 UNL     1      27.630  -9.399 -41.506  0.00  0.00    +0.000 A 
ATOM      9  C13 UNL     1      27.681 -10.620 -40.830  0.00  0.00    +0.000 A 
ATOM     10  C14 UNL     1      27.688 -10.663 -39.428  0.00  0.00    +0.000 A 
ATOM     11  C15 UNL     1      27.644  -9.457 -38.688  0.00  0.00    +0.000 A 
ENDROOT
BRANCH   3  12
ATOM     12  C3  UNL     1      27.619  -8.071 -35.134  0.00  0.00    +0.000 A 
ATOM     13  C4  UNL     1      26.424  -7.847 -34.430  0.00  0.00    +0.000 A 
ATOM     14  C5  UNL     1      26.433  -7.741 -33.036  0.00  0.00    +0.000 A 
ATOM     15  C6  UNL     1      27.634  -7.853 -32.330  0.00  0.00    +0.000 A 
ATOM     16  C7  UNL     1      28.832  -8.070 -33.024  0.00  0.00    +0.000 A 
ATOM     17  C8  UNL     1      28.825  -8.176 -34.418  0.00  0.00    +0.000 A 
BRANCH  15  18
ATOM     18  O2  UNL     1      27.629  -7.746 -30.941  0.00  0.00    +0.000 OA
ATOM     19  H3  UNL     1      27.073  -8.364 -30.363  0.00  0.00    +0.000 HD
ENDBRANCH  15  18
ENDBRANCH   3  12
BRANCH   8  20
ATOM     20  O4  UNL     1      27.625  -9.385 -42.900  0.00  0.00    +0.000 OA
ATOM     21  H8  UNL     1      27.448 -10.226 -43.437  0.00  0.00    +0.000 HD
ENDBRANCH   8  20
BRANCH  10  22
ATOM     22  O5  UNL     1      27.741 -11.899 -38.784  0.00  0.00    +0.000 OA
ATOM     23  H10 UNL     1      26.907 -12.454 -38.625  0.00  0.00    +0.000 HD
ENDBRANCH  10  22
TORSDOF 4
ENDMDL
