MODEL 1
REMARK VINA RESULT:    -6.148      0.000      0.000
REMARK INTER + INTRA:          -8.369
REMARK INTER:                  -7.765
REMARK INTRA:                  -0.604
REMARK UNBOUND:                -0.604
REMARK  Name = resultss/4CJN/ligands/lig_228_t0.pdb
REMARK  8 active torsions:
REMARK  status: ('A' for Active; 'I' for Inactive)
REMARK    1  A    between atoms: C6_8  and  C7_9
REMARK    2  A    between atoms: C11_13  and  C12_14
REMARK    3  A    between atoms: C12_14  and  O3_15
REMARK    4  A    between atoms: C14_17  and  O4_18
REMARK    5  A    between atoms: O4_18  and  C15_19
REMARK    6  A    between atoms: C15_19  and  C16_21
REMARK    7  A    between atoms: C16_21  and  C17_22
REMARK    8  A    between atoms: C18_23  and  C19_24
REMARK                            x       y       z     vdW  Elec       q    Type
REMARK                         _______ _______ _______ _____ _____    ______ ____
ROOT
ATOM      1  C1  UNL     1      32.841  -9.780 -41.113  0.00  0.00    +0.000 C 
ATOM      2  C2  UNL     1      31.585  -9.769 -40.653  0.00  0.00    +0.000 C 
ATOM      3  C3  UNL     1      31.206  -9.408 -39.292  0.00  0.00    +0.000 C 
ATOM      4  O1  UNL     1      31.993  -9.007 -38.396  0.00  0.00    +0.000 OA
ATOM      5  O2  UNL     1      29.850  -9.595 -39.093  0.00  0.00    +0.000 OA
ATOM      6  C4  UNL     1      29.245  -9.806 -40.362  0.00  0.00    +0.000 C 
ATOM      7  C5  UNL     1      27.985 -10.633 -40.333  0.00  0.00    +0.000 C 
ATOM      8  C6  UNL     1      26.788 -10.051 -40.108  0.00  0.00    +0.000 C 
ATOM      9  C7  UNL     1      26.642  -8.931 -39.109  0.00  0.00    +0.000 C 
ATOM     10  C8  UNL     1      25.650 -10.346 -41.069  0.00  0.00    +0.000 C 
ATOM     11  C9  UNL     1      25.754  -9.489 -42.354  0.00  0.00    +0.000 C 
ATOM     12  C10 UNL     1      27.103  -9.655 -43.028  0.00  0.00    +0.000 C 
ATOM     13  C11 UNL     1      28.072  -8.697 -43.075  0.00  0.00    +0.000 C 
ATOM     14  C13 UNL     1      29.532  -9.041 -43.387  0.00  0.00    +0.000 C 
ATOM     15  C14 UNL     1      30.092 -10.364 -42.797  0.00  0.00    +0.000 C 
ATOM     16  C20 UNL     1      30.359 -10.413 -41.252  0.00  0.00    +0.000 C 
ENDROOT
BRANCH  13  17
ATOM     17  C12 UNL     1      27.716  -7.223 -42.996  0.00  0.00    +0.000 C 
BRANCH  17  18
ATOM     18  O3  UNL     1      27.862  -6.733 -41.693  0.00  0.00    +0.000 OA
ATOM     19  H15 UNL     1      28.513  -5.983 -41.736  0.00  0.00    +0.000 HD
ENDBRANCH  17  18
ENDBRANCH  13  17
BRANCH  15  20
ATOM     20  O4  UNL     1      31.269 -10.709 -43.530  0.00  0.00    +0.000 OA
BRANCH  20  21
ATOM     21  C15 UNL     1      31.692 -12.025 -43.762  0.00  0.00    +0.000 C 
ATOM     22  O5  UNL     1      31.355 -12.949 -42.970  0.00  0.00    +0.000 OA
BRANCH  21  23
ATOM     23  C16 UNL     1      32.534 -12.322 -44.948  0.00  0.00    +0.000 C 
ATOM     24  C17 UNL     1      33.286 -11.190 -45.604  0.00  0.00    +0.000 C 
ATOM     25  C18 UNL     1      32.550 -13.567 -45.471  0.00  0.00    +0.000 C 
ATOM     26  C19 UNL     1      33.330 -13.943 -46.699  0.00  0.00    +0.000 C 
ENDBRANCH  21  23
ENDBRANCH  20  21
ENDBRANCH  15  20
TORSDOF 5
ENDMDL
MODEL 2
REMARK VINA RESULT:    -5.810      3.451      5.648
REMARK INTER + INTRA:          -7.942
REMARK INTER:                  -7.270
REMARK INTRA:                  -0.672
REMARK UNBOUND:                -0.604
REMARK  Name = resultss/4CJN/ligands/lig_228_t0.pdb
REMARK  8 active torsions:
REMARK  status: ('A' for Active; 'I' for Inactive)
REMARK    1  A    between atoms: C6_8  and  C7_9
REMARK    2  A    between atoms: C11_13  and  C12_14
REMARK    3  A    between atoms: C12_14  and  O3_15
REMARK    4  A    between atoms: C14_17  and  O4_18
REMARK    5  A    between atoms: O4_18  and  C15_19
REMARK    6  A    between atoms: C15_19  and  C16_21
REMARK    7  A    between atoms: C16_21  and  C17_22
REMARK    8  A    between atoms: C18_23  and  C19_24
REMARK                            x       y       z     vdW  Elec       q    Type
REMARK                         _______ _______ _______ _____ _____    ______ ____
ROOT
ATOM      1  C1  UNL     1      30.910 -10.031 -37.824  0.00  0.00    +0.000 C 
ATOM      2  C2  UNL     1      30.072  -9.792 -36.810  0.00  0.00    +0.000 C 
ATOM      3  C3  UNL     1      30.490  -9.508 -35.442  0.00  0.00    +0.000 C 
ATOM      4  O1  UNL     1      31.679  -9.393 -35.050  0.00  0.00    +0.000 OA
ATOM      5  O2  UNL     1      29.394  -9.411 -34.603  0.00  0.00    +0.000 OA
ATOM      6  C4  UNL     1      28.227  -9.340 -35.411  0.00  0.00    +0.000 C 
ATOM      7  C5  UNL     1      26.973  -9.866 -34.761  0.00  0.00    +0.000 C 
ATOM      8  C6  UNL     1      26.214  -9.060 -33.987  0.00  0.00    +0.000 C 
ATOM      9  C7  UNL     1      26.843  -8.054 -33.059  0.00  0.00    +0.000 C 
ATOM     10  C8  UNL     1      24.723  -8.988 -34.266  0.00  0.00    +0.000 C 
ATOM     11  C9  UNL     1      24.411  -8.038 -35.448  0.00  0.00    +0.000 C 
ATOM     12  C10 UNL     1      25.187  -8.425 -36.694  0.00  0.00    +0.000 C 
ATOM     13  C11 UNL     1      26.220  -7.706 -37.220  0.00  0.00    +0.000 C 
ATOM     14  C13 UNL     1      27.218  -8.329 -38.201  0.00  0.00    +0.000 C 
ATOM     15  C14 UNL     1      27.644  -9.801 -37.944  0.00  0.00    +0.000 C 
ATOM     16  C20 UNL     1      28.593 -10.078 -36.725  0.00  0.00    +0.000 C 
ENDROOT
BRANCH  13  17
ATOM     17  C12 UNL     1      26.322  -6.209 -36.995  0.00  0.00    +0.000 C 
BRANCH  17  18
ATOM     18  O3  UNL     1      27.187  -5.910 -35.937  0.00  0.00    +0.000 OA
ATOM     19  H15 UNL     1      26.804  -5.124 -35.462  0.00  0.00    +0.000 HD
ENDBRANCH  17  18
ENDBRANCH  13  17
BRANCH  15  20
ATOM     20  O4  UNL     1      28.203 -10.315 -39.153  0.00  0.00    +0.000 OA
BRANCH  20  21
ATOM     21  C15 UNL     1      27.543 -10.303 -40.391  0.00  0.00    +0.000 C 
ATOM     22  O5  UNL     1      26.291 -10.456 -40.443  0.00  0.00    +0.000 OA
BRANCH  21  23
ATOM     23  C16 UNL     1      28.329 -10.105 -41.634  0.00  0.00    +0.000 C 
ATOM     24  C17 UNL     1      27.683  -9.386 -42.793  0.00  0.00    +0.000 C 
ATOM     25  C18 UNL     1      29.565 -10.639 -41.745  0.00  0.00    +0.000 C 
ATOM     26  C19 UNL     1      30.407 -10.535 -42.985  0.00  0.00    +0.000 C 
ENDBRANCH  21  23
ENDBRANCH  20  21
ENDBRANCH  15  20
TORSDOF 5
ENDMDL
MODEL 3
REMARK VINA RESULT:    -5.517      2.085      3.972
REMARK INTER + INTRA:          -7.572
REMARK INTER:                  -7.050
REMARK INTRA:                  -0.522
REMARK UNBOUND:                -0.604
REMARK  Name = resultss/4CJN/ligands/lig_228_t0.pdb
REMARK  8 active torsions:
REMARK  status: ('A' for Active; 'I' for Inactive)
REMARK    1  A    between atoms: C6_8  and  C7_9
REMARK    2  A    between atoms: C11_13  and  C12_14
REMARK    3  A    between atoms: C12_14  and  O3_15
REMARK    4  A    between atoms: C14_17  and  O4_18
REMARK    5  A    between atoms: O4_18  and  C15_19
REMARK    6  A    between atoms: C15_19  and  C16_21
REMARK    7  A    between atoms: C16_21  and  C17_22
REMARK    8  A    between atoms: C18_23  and  C19_24
REMARK                            x       y       z     vdW  Elec       q    Type
REMARK                         _______ _______ _______ _____ _____    ______ ____
ROOT
ATOM      1  C1  UNL     1      27.635 -10.409 -39.243  0.00  0.00    +0.000 C 
ATOM      2  C2  UNL     1      26.895  -9.680 -40.084  0.00  0.00    +0.000 C 
ATOM      3  C3  UNL     1      25.691  -8.948 -39.705  0.00  0.00    +0.000 C 
ATOM      4  O1  UNL     1      25.227  -8.858 -38.540  0.00  0.00    +0.000 OA
ATOM      5  O2  UNL     1      25.091  -8.380 -40.815  0.00  0.00    +0.000 OA
ATOM      6  C4  UNL     1      26.004  -8.467 -41.901  0.00  0.00    +0.000 C 
ATOM      7  C5  UNL     1      25.363  -8.516 -43.264  0.00  0.00    +0.000 C 
ATOM      8  C6  UNL     1      25.046  -7.376 -43.914  0.00  0.00    +0.000 C 
ATOM      9  C7  UNL     1      24.491  -6.187 -43.173  0.00  0.00    +0.000 C 
ATOM     10  C8  UNL     1      25.512  -7.210 -45.349  0.00  0.00    +0.000 C 
ATOM     11  C9  UNL     1      26.992  -6.760 -45.418  0.00  0.00    +0.000 C 
ATOM     12  C10 UNL     1      27.898  -7.705 -44.649  0.00  0.00    +0.000 C 
ATOM     13  C11 UNL     1      28.523  -7.400 -43.476  0.00  0.00    +0.000 C 
ATOM     14  C13 UNL     1      29.071  -8.488 -42.547  0.00  0.00    +0.000 C 
ATOM     15  C14 UNL     1      28.232  -9.788 -42.404  0.00  0.00    +0.000 C 
ATOM     16  C20 UNL     1      26.891  -9.700 -41.593  0.00  0.00    +0.000 C 
ENDROOT
BRANCH  13  17
ATOM     17  C12 UNL     1      28.863  -5.963 -43.125  0.00  0.00    +0.000 C 
BRANCH  17  18
ATOM     18  O3  UNL     1      29.633  -5.892 -41.958  0.00  0.00    +0.000 OA
ATOM     19  H15 UNL     1      29.019  -6.065 -41.195  0.00  0.00    +0.000 HD
ENDBRANCH  17  18
ENDBRANCH  13  17
BRANCH  15  20
ATOM     20  O4  UNL     1      29.083 -10.804 -41.874  0.00  0.00    +0.000 OA
BRANCH  20  21
ATOM     21  C15 UNL     1      30.484 -10.737 -41.878  0.00  0.00    +0.000 C 
ATOM     22  O5  UNL     1      31.094 -10.167 -40.930  0.00  0.00    +0.000 OA
BRANCH  21  23
ATOM     23  C16 UNL     1      31.240 -11.344 -43.001  0.00  0.00    +0.000 C 
ATOM     24  C17 UNL     1      31.280 -12.848 -43.119  0.00  0.00    +0.000 C 
ATOM     25  C18 UNL     1      31.947 -10.558 -43.843  0.00  0.00    +0.000 C 
ATOM     26  C19 UNL     1      32.783 -11.091 -44.972  0.00  0.00    +0.000 C 
ENDBRANCH  21  23
ENDBRANCH  20  21
ENDBRANCH  15  20
TORSDOF 5
ENDMDL
MODEL 4
REMARK VINA RESULT:    -5.454      2.850      5.310
REMARK INTER + INTRA:          -7.493
REMARK INTER:                  -6.569
REMARK INTRA:                  -0.924
REMARK UNBOUND:                -0.604
REMARK  Name = resultss/4CJN/ligands/lig_228_t0.pdb
REMARK  8 active torsions:
REMARK  status: ('A' for Active; 'I' for Inactive)
REMARK    1  A    between atoms: C6_8  and  C7_9
REMARK    2  A    between atoms: C11_13  and  C12_14
REMARK    3  A    between atoms: C12_14  and  O3_15
REMARK    4  A    between atoms: C14_17  and  O4_18
REMARK    5  A    between atoms: O4_18  and  C15_19
REMARK    6  A    between atoms: C15_19  and  C16_21
REMARK    7  A    between atoms: C16_21  and  C17_22
REMARK    8  A    between atoms: C18_23  and  C19_24
REMARK                            x       y       z     vdW  Elec       q    Type
REMARK                         _______ _______ _______ _____ _____    ______ ____
ROOT
ATOM      1  C1  UNL     1      29.462  -9.867 -42.625  0.00  0.00    +0.000 C 
ATOM      2  C2  UNL     1      29.388  -9.882 -41.290  0.00  0.00    +0.000 C 
ATOM      3  C3  UNL     1      30.542  -9.910 -40.398  0.00  0.00    +0.000 C 
ATOM      4  O1  UNL     1      31.746  -9.865 -40.759  0.00  0.00    +0.000 OA
ATOM      5  O2  UNL     1      30.141 -10.028 -39.079  0.00  0.00    +0.000 OA
ATOM      6  C4  UNL     1      28.739  -9.797 -39.023  0.00  0.00    +0.000 C 
ATOM      7  C5  UNL     1      28.030 -10.481 -37.883  0.00  0.00    +0.000 C 
ATOM      8  C6  UNL     1      27.950  -9.889 -36.673  0.00  0.00    +0.000 C 
ATOM      9  C7  UNL     1      29.109  -9.108 -36.109  0.00  0.00    +0.000 C 
ATOM     10  C8  UNL     1      26.588  -9.783 -36.010  0.00  0.00    +0.000 C 
ATOM     11  C9  UNL     1      25.770  -8.595 -36.574  0.00  0.00    +0.000 C 
ATOM     12  C10 UNL     1      25.645  -8.672 -38.085  0.00  0.00    +0.000 C 
ATOM     13  C11 UNL     1      26.269  -7.833 -38.960  0.00  0.00    +0.000 C 
ATOM     14  C13 UNL     1      26.446  -8.196 -40.438  0.00  0.00    +0.000 C 
ATOM     15  C14 UNL     1      26.766  -9.679 -40.772  0.00  0.00    +0.000 C 
ATOM     16  C20 UNL     1      28.201 -10.209 -40.418  0.00  0.00    +0.000 C 
ENDROOT
BRANCH  13  17
ATOM     17  C12 UNL     1      26.656  -6.424 -38.548  0.00  0.00    +0.000 C 
BRANCH  17  18
ATOM     18  O3  UNL     1      28.006  -6.352 -38.186  0.00  0.00    +0.000 OA
ATOM     19  H15 UNL     1      28.303  -7.280 -37.988  0.00  0.00    +0.000 HD
ENDBRANCH  17  18
ENDBRANCH  13  17
BRANCH  15  20
ATOM     20  O4  UNL     1      26.470  -9.893 -42.152  0.00  0.00    +0.000 OA
BRANCH  20  21
ATOM     21  C15 UNL     1      25.366  -9.336 -42.814  0.00  0.00    +0.000 C 
ATOM     22  O5  UNL     1      24.209  -9.802 -42.620  0.00  0.00    +0.000 OA
BRANCH  21  23
ATOM     23  C16 UNL     1      25.571  -8.193 -43.739  0.00  0.00    +0.000 C 
ATOM     24  C17 UNL     1      24.360  -7.520 -44.339  0.00  0.00    +0.000 C 
ATOM     25  C18 UNL     1      26.822  -7.828 -44.096  0.00  0.00    +0.000 C 
ATOM     26  C19 UNL     1      27.119  -6.721 -45.067  0.00  0.00    +0.000 C 
ENDBRANCH  21  23
ENDBRANCH  20  21
ENDBRANCH  15  20
TORSDOF 5
ENDMDL
MODEL 5
REMARK VINA RESULT:    -5.414      2.909      7.655
REMARK INTER + INTRA:          -7.442
REMARK INTER:                  -6.682
REMARK INTRA:                  -0.760
REMARK UNBOUND:                -0.604
REMARK  Name = resultss/4CJN/ligands/lig_228_t0.pdb
REMARK  8 active torsions:
REMARK  status: ('A' for Active; 'I' for Inactive)
REMARK    1  A    between atoms: C6_8  and  C7_9
REMARK    2  A    between atoms: C11_13  and  C12_14
REMARK    3  A    between atoms: C12_14  and  O3_15
REMARK    4  A    between atoms: C14_17  and  O4_18
REMARK    5  A    between atoms: O4_18  and  C15_19
REMARK    6  A    between atoms: C15_19  and  C16_21
REMARK    7  A    between atoms: C16_21  and  C17_22
REMARK    8  A    between atoms: C18_23  and  C19_24
REMARK                            x       y       z     vdW  Elec       q    Type
REMARK                         _______ _______ _______ _____ _____    ______ ____
ROOT
ATOM      1  C1  UNL     1      24.580  -8.886 -40.178  0.00  0.00    +0.000 C 
ATOM      2  C2  UNL     1      25.713  -9.248 -40.788  0.00  0.00    +0.000 C 
ATOM      3  C3  UNL     1      25.805  -9.664 -42.183  0.00  0.00    +0.000 C 
ATOM      4  O1  UNL     1      24.853  -9.682 -43.004  0.00  0.00    +0.000 OA
ATOM      5  O2  UNL     1      27.090 -10.077 -42.489  0.00  0.00    +0.000 OA
ATOM      6  C4  UNL     1      27.943  -9.688 -41.421  0.00  0.00    +0.000 C 
ATOM      7  C5  UNL     1      29.164 -10.553 -41.238  0.00  0.00    +0.000 C 
ATOM      8  C6  UNL     1      30.292 -10.300 -41.935  0.00  0.00    +0.000 C 
ATOM      9  C7  UNL     1      30.237  -9.858 -43.374  0.00  0.00    +0.000 C 
ATOM     10  C8  UNL     1      31.602 -10.199 -41.174  0.00  0.00    +0.000 C 
ATOM     11  C9  UNL     1      31.772  -8.807 -40.517  0.00  0.00    +0.000 C 
ATOM     12  C10 UNL     1      30.590  -8.460 -39.631  0.00  0.00    +0.000 C 
ATOM     13  C11 UNL     1      29.658  -7.506 -39.916  0.00  0.00    +0.000 C 
ATOM     14  C13 UNL     1      28.292  -7.481 -39.223  0.00  0.00    +0.000 C 
ATOM     15  C14 UNL     1      27.614  -8.849 -38.940  0.00  0.00    +0.000 C 
ATOM     16  C20 UNL     1      27.032  -9.637 -40.167  0.00  0.00    +0.000 C 
ENDROOT
BRANCH  13  17
ATOM     17  C12 UNL     1      30.000  -6.322 -40.802  0.00  0.00    +0.000 C 
BRANCH  17  18
ATOM     18  O3  UNL     1      29.491  -6.489 -42.095  0.00  0.00    +0.000 OA
ATOM     19  H15 UNL     1      28.749  -7.149 -42.031  0.00  0.00    +0.000 HD
ENDBRANCH  17  18
ENDBRANCH  13  17
BRANCH  15  20
ATOM     20  O4  UNL     1      26.611  -8.645 -37.944  0.00  0.00    +0.000 OA
BRANCH  20  21
ATOM     21  C15 UNL     1      26.550  -9.353 -36.735  0.00  0.00    +0.000 C 
ATOM     22  O5  UNL     1      27.355 -10.301 -36.513  0.00  0.00    +0.000 OA
BRANCH  21  23
ATOM     23  C16 UNL     1      25.536  -8.976 -35.719  0.00  0.00    +0.000 C 
ATOM     24  C17 UNL     1      24.407  -8.061 -36.127  0.00  0.00    +0.000 C 
ATOM     25  C18 UNL     1      25.680  -9.379 -34.437  0.00  0.00    +0.000 C 
ATOM     26  C19 UNL     1      24.733  -8.998 -33.335  0.00  0.00    +0.000 C 
ENDBRANCH  21  23
ENDBRANCH  20  21
ENDBRANCH  15  20
TORSDOF 5
ENDMDL
MODEL 6
REMARK VINA RESULT:    -5.303      6.446     10.505
REMARK INTER + INTRA:          -7.302
REMARK INTER:                  -6.670
REMARK INTRA:                  -0.632
REMARK UNBOUND:                -0.604
REMARK  Name = resultss/4CJN/ligands/lig_228_t0.pdb
REMARK  8 active torsions:
REMARK  status: ('A' for Active; 'I' for Inactive)
REMARK    1  A    between atoms: C6_8  and  C7_9
REMARK    2  A    between atoms: C11_13  and  C12_14
REMARK    3  A    between atoms: C12_14  and  O3_15
REMARK    4  A    between atoms: C14_17  and  O4_18
REMARK    5  A    between atoms: O4_18  and  C15_19
REMARK    6  A    between atoms: C15_19  and  C16_21
REMARK    7  A    between atoms: C16_21  and  C17_22
REMARK    8  A    between atoms: C18_23  and  C19_24
REMARK                            x       y       z     vdW  Elec       q    Type
REMARK                         _______ _______ _______ _____ _____    ______ ____
ROOT
ATOM      1  C1  UNL     1      24.790  -8.243 -37.138  0.00  0.00    +0.000 C 
ATOM      2  C2  UNL     1      26.094  -8.400 -36.886  0.00  0.00    +0.000 C 
ATOM      3  C3  UNL     1      27.162  -8.058 -37.818  0.00  0.00    +0.000 C 
ATOM      4  O1  UNL     1      27.006  -7.522 -38.945  0.00  0.00    +0.000 OA
ATOM      5  O2  UNL     1      28.395  -8.434 -37.313  0.00  0.00    +0.000 OA
ATOM      6  C4  UNL     1      28.224  -8.767 -35.941  0.00  0.00    +0.000 C 
ATOM      7  C5  UNL     1      29.216  -9.767 -35.404  0.00  0.00    +0.000 C 
ATOM      8  C6  UNL     1      30.410  -9.357 -34.926  0.00  0.00    +0.000 C 
ATOM      9  C7  UNL     1      31.175  -8.242 -35.591  0.00  0.00    +0.000 C 
ATOM     10  C8  UNL     1      30.841  -9.842 -33.553  0.00  0.00    +0.000 C 
ATOM     11  C9  UNL     1      30.178  -9.017 -32.423  0.00  0.00    +0.000 C 
ATOM     12  C10 UNL     1      28.666  -9.006 -32.555  0.00  0.00    +0.000 C 
ATOM     13  C11 UNL     1      27.925  -7.919 -32.915  0.00  0.00    +0.000 C 
ATOM     14  C13 UNL     1      26.489  -8.057 -33.430  0.00  0.00    +0.000 C 
ATOM     15  C14 UNL     1      26.178  -9.268 -34.352  0.00  0.00    +0.000 C 
ATOM     16  C20 UNL     1      26.751  -9.232 -35.813  0.00  0.00    +0.000 C 
ENDROOT
BRANCH  13  17
ATOM     17  C12 UNL     1      28.428  -6.511 -32.653  0.00  0.00    +0.000 C 
BRANCH  17  18
ATOM     18  O3  UNL     1      28.389  -6.201 -31.289  0.00  0.00    +0.000 OA
ATOM     19  H15 UNL     1      29.265  -5.791 -31.060  0.00  0.00    +0.000 HD
ENDBRANCH  17  18
ENDBRANCH  13  17
BRANCH  15  20
ATOM     20  O4  UNL     1      24.763  -9.459 -34.364  0.00  0.00    +0.000 OA
BRANCH  20  21
ATOM     21  C15 UNL     1      23.880  -8.848 -33.462  0.00  0.00    +0.000 C 
ATOM     22  O5  UNL     1      23.754  -9.302 -32.291  0.00  0.00    +0.000 OA
BRANCH  21  23
ATOM     23  C16 UNL     1      23.100  -7.662 -33.896  0.00  0.00    +0.000 C 
ATOM     24  C17 UNL     1      23.140  -6.417 -33.043  0.00  0.00    +0.000 C 
ATOM     25  C18 UNL     1      22.306  -7.736 -34.986  0.00  0.00    +0.000 C 
ATOM     26  C19 UNL     1      21.442  -6.604 -35.464  0.00  0.00    +0.000 C 
ENDBRANCH  21  23
ENDBRANCH  20  21
ENDBRANCH  15  20
TORSDOF 5
ENDMDL
MODEL 7
REMARK VINA RESULT:    -5.261      2.816      7.287
REMARK INTER + INTRA:          -7.249
REMARK INTER:                  -6.471
REMARK INTRA:                  -0.777
REMARK UNBOUND:                -0.604
REMARK  Name = resultss/4CJN/ligands/lig_228_t0.pdb
REMARK  8 active torsions:
REMARK  status: ('A' for Active; 'I' for Inactive)
REMARK    1  A    between atoms: C6_8  and  C7_9
REMARK    2  A    between atoms: C11_13  and  C12_14
REMARK    3  A    between atoms: C12_14  and  O3_15
REMARK    4  A    between atoms: C14_17  and  O4_18
REMARK    5  A    between atoms: O4_18  and  C15_19
REMARK    6  A    between atoms: C15_19  and  C16_21
REMARK    7  A    between atoms: C16_21  and  C17_22
REMARK    8  A    between atoms: C18_23  and  C19_24
REMARK                            x       y       z     vdW  Elec       q    Type
REMARK                         _______ _______ _______ _____ _____    ______ ____
ROOT
ATOM      1  C1  UNL     1      30.168  -9.277 -36.069  0.00  0.00    +0.000 C 
ATOM      2  C2  UNL     1      30.281  -9.341 -37.400  0.00  0.00    +0.000 C 
ATOM      3  C3  UNL     1      31.442  -9.867 -38.108  0.00  0.00    +0.000 C 
ATOM      4  O1  UNL     1      32.456 -10.379 -37.568  0.00  0.00    +0.000 OA
ATOM      5  O2  UNL     1      31.304  -9.700 -39.474  0.00  0.00    +0.000 OA
ATOM      6  C4  UNL     1      29.957  -9.330 -39.737  0.00  0.00    +0.000 C 
ATOM      7  C5  UNL     1      29.758  -8.507 -40.984  0.00  0.00    +0.000 C 
ATOM      8  C6  UNL     1      29.591  -9.108 -42.181  0.00  0.00    +0.000 C 
ATOM      9  C7  UNL     1      30.374 -10.342 -42.549  0.00  0.00    +0.000 C 
ATOM     10  C8  UNL     1      28.411  -8.690 -43.040  0.00  0.00    +0.000 C 
ATOM     11  C9  UNL     1      27.102  -9.381 -42.584  0.00  0.00    +0.000 C 
ATOM     12  C10 UNL     1      26.827  -9.138 -41.112  0.00  0.00    +0.000 C 
ATOM     13  C11 UNL     1      26.918 -10.087 -40.137  0.00  0.00    +0.000 C 
ATOM     14  C13 UNL     1      27.040  -9.713 -38.656  0.00  0.00    +0.000 C 
ATOM     15  C14 UNL     1      27.911  -8.476 -38.305  0.00  0.00    +0.000 C 
ATOM     16  C20 UNL     1      29.467  -8.621 -38.448  0.00  0.00    +0.000 C 
ENDROOT
BRANCH  13  17
ATOM     17  C12 UNL     1      26.723 -11.557 -40.459  0.00  0.00    +0.000 C 
BRANCH  17  18
ATOM     18  O3  UNL     1      27.757 -12.337 -39.931  0.00  0.00    +0.000 OA
ATOM     19  H15 UNL     1      28.237 -12.743 -40.701  0.00  0.00    +0.000 HD
ENDBRANCH  17  18
ENDBRANCH  13  17
BRANCH  15  20
ATOM     20  O4  UNL     1      27.557  -8.048 -36.990  0.00  0.00    +0.000 OA
BRANCH  20  21
ATOM     21  C15 UNL     1      26.243  -8.015 -36.501  0.00  0.00    +0.000 C 
ATOM     22  O5  UNL     1      25.350  -7.378 -37.127  0.00  0.00    +0.000 OA
BRANCH  21  23
ATOM     23  C16 UNL     1      25.912  -8.737 -35.248  0.00  0.00    +0.000 C 
ATOM     24  C17 UNL     1      26.784  -9.895 -34.827  0.00  0.00    +0.000 C 
ATOM     25  C18 UNL     1      24.800  -8.411 -34.553  0.00  0.00    +0.000 C 
ATOM     26  C19 UNL     1      24.361  -9.125 -33.306  0.00  0.00    +0.000 C 
ENDBRANCH  21  23
ENDBRANCH  20  21
ENDBRANCH  15  20
TORSDOF 5
ENDMDL
MODEL 8
REMARK VINA RESULT:    -5.024      3.133      6.175
REMARK INTER + INTRA:          -6.949
REMARK INTER:                  -5.909
REMARK INTRA:                  -1.040
REMARK UNBOUND:                -0.604
REMARK  Name = resultss/4CJN/ligands/lig_228_t0.pdb
REMARK  8 active torsions:
REMARK  status: ('A' for Active; 'I' for Inactive)
REMARK    1  A    between atoms: C6_8  and  C7_9
REMARK    2  A    between atoms: C11_13  and  C12_14
REMARK    3  A    between atoms: C12_14  and  O3_15
REMARK    4  A    between atoms: C14_17  and  O4_18
REMARK    5  A    between atoms: O4_18  and  C15_19
REMARK    6  A    between atoms: C15_19  and  C16_21
REMARK    7  A    between atoms: C16_21  and  C17_22
REMARK    8  A    between atoms: C18_23  and  C19_24
REMARK                            x       y       z     vdW  Elec       q    Type
REMARK                         _______ _______ _______ _____ _____    ______ ____
ROOT
ATOM      1  C1  UNL     1      27.610 -10.859 -40.425  0.00  0.00    +0.000 C 
ATOM      2  C2  UNL     1      27.012  -9.910 -39.697  0.00  0.00    +0.000 C 
ATOM      3  C3  UNL     1      25.647  -9.442 -39.911  0.00  0.00    +0.000 C 
ATOM      4  O1  UNL     1      24.841  -9.903 -40.759  0.00  0.00    +0.000 OA
ATOM      5  O2  UNL     1      25.353  -8.383 -39.071  0.00  0.00    +0.000 OA
ATOM      6  C4  UNL     1      26.382  -8.298 -38.094  0.00  0.00    +0.000 C 
ATOM      7  C5  UNL     1      26.607  -6.919 -37.529  0.00  0.00    +0.000 C 
ATOM      8  C6  UNL     1      25.880  -6.484 -36.477  0.00  0.00    +0.000 C 
ATOM      9  C7  UNL     1      24.415  -6.813 -36.353  0.00  0.00    +0.000 C 
ATOM     10  C8  UNL     1      26.616  -5.895 -35.286  0.00  0.00    +0.000 C 
ATOM     11  C9  UNL     1      27.175  -7.002 -34.359  0.00  0.00    +0.000 C 
ATOM     12  C10 UNL     1      28.051  -7.979 -35.122  0.00  0.00    +0.000 C 
ATOM     13  C11 UNL     1      27.714  -9.271 -35.402  0.00  0.00    +0.000 C 
ATOM     14  C13 UNL     1      28.421 -10.068 -36.502  0.00  0.00    +0.000 C 
ATOM     15  C14 UNL     1      28.804  -9.304 -37.799  0.00  0.00    +0.000 C 
ATOM     16  C20 UNL     1      27.641  -8.898 -38.772  0.00  0.00    +0.000 C 
ENDROOT
BRANCH  13  17
ATOM     17  C12 UNL     1      26.745 -10.033 -34.516  0.00  0.00    +0.000 C 
BRANCH  17  18
ATOM     18  O3  UNL     1      25.469 -10.089 -35.086  0.00  0.00    +0.000 OA
ATOM     19  H15 UNL     1      25.504 -10.772 -35.808  0.00  0.00    +0.000 HD
ENDBRANCH  17  18
ENDBRANCH  13  17
BRANCH  15  20
ATOM     20  O4  UNL     1      29.797 -10.069 -38.483  0.00  0.00    +0.000 OA
BRANCH  20  21
ATOM     21  C15 UNL     1      30.861  -9.509 -39.205  0.00  0.00    +0.000 C 
ATOM     22  O5  UNL     1      31.931  -9.192 -38.614  0.00  0.00    +0.000 OA
BRANCH  21  23
ATOM     23  C16 UNL     1      30.719  -9.296 -40.667  0.00  0.00    +0.000 C 
ATOM     24  C17 UNL     1      30.282  -7.939 -41.163  0.00  0.00    +0.000 C 
ATOM     25  C18 UNL     1      30.895 -10.329 -41.520  0.00  0.00    +0.000 C 
ATOM     26  C19 UNL     1      30.718 -10.217 -43.008  0.00  0.00    +0.000 C 
ENDBRANCH  21  23
ENDBRANCH  20  21
ENDBRANCH  15  20
TORSDOF 5
ENDMDL
MODEL 9
REMARK VINA RESULT:    -4.974      2.964      6.135
REMARK INTER + INTRA:          -6.886
REMARK INTER:                  -6.147
REMARK INTRA:                  -0.739
REMARK UNBOUND:                -0.604
REMARK  Name = resultss/4CJN/ligands/lig_228_t0.pdb
REMARK  8 active torsions:
REMARK  status: ('A' for Active; 'I' for Inactive)
REMARK    1  A    between atoms: C6_8  and  C7_9
REMARK    2  A    between atoms: C11_13  and  C12_14
REMARK    3  A    between atoms: C12_14  and  O3_15
REMARK    4  A    between atoms: C14_17  and  O4_18
REMARK    5  A    between atoms: O4_18  and  C15_19
REMARK    6  A    between atoms: C15_19  and  C16_21
REMARK    7  A    between atoms: C16_21  and  C17_22
REMARK    8  A    between atoms: C18_23  and  C19_24
REMARK                            x       y       z     vdW  Elec       q    Type
REMARK                         _______ _______ _______ _____ _____    ______ ____
ROOT
ATOM      1  C1  UNL     1      28.965  -9.099 -43.334  0.00  0.00    +0.000 C 
ATOM      2  C2  UNL     1      29.018  -9.422 -42.038  0.00  0.00    +0.000 C 
ATOM      3  C3  UNL     1      30.155 -10.068 -41.392  0.00  0.00    +0.000 C 
ATOM      4  O1  UNL     1      31.247 -10.351 -41.948  0.00  0.00    +0.000 OA
ATOM      5  O2  UNL     1      29.866 -10.368 -40.072  0.00  0.00    +0.000 OA
ATOM      6  C4  UNL     1      28.667  -9.691 -39.720  0.00  0.00    +0.000 C 
ATOM      7  C5  UNL     1      27.863 -10.352 -38.630  0.00  0.00    +0.000 C 
ATOM      8  C6  UNL     1      28.127 -10.092 -37.332  0.00  0.00    +0.000 C 
ATOM      9  C7  UNL     1      29.543  -9.926 -36.842  0.00  0.00    +0.000 C 
ATOM     10  C8  UNL     1      26.974  -9.694 -36.427  0.00  0.00    +0.000 C 
ATOM     11  C9  UNL     1      26.616  -8.196 -36.587  0.00  0.00    +0.000 C 
ATOM     12  C10 UNL     1      26.328  -7.844 -38.035  0.00  0.00    +0.000 C 
ATOM     13  C11 UNL     1      27.137  -7.079 -38.824  0.00  0.00    +0.000 C 
ATOM     14  C13 UNL     1      27.023  -7.098 -40.352  0.00  0.00    +0.000 C 
ATOM     15  C14 UNL     1      26.728  -8.466 -41.026  0.00  0.00    +0.000 C 
ATOM     16  C20 UNL     1      27.884  -9.528 -41.048  0.00  0.00    +0.000 C 
ENDROOT
BRANCH  13  17
ATOM     17  C12 UNL     1      28.063  -6.041 -38.218  0.00  0.00    +0.000 C 
BRANCH  17  18
ATOM     18  O3  UNL     1      29.369  -6.529 -38.103  0.00  0.00    +0.000 OA
ATOM     19  H15 UNL     1      29.981  -5.762 -38.268  0.00  0.00    +0.000 HD
ENDBRANCH  17  18
ENDBRANCH  13  17
BRANCH  15  20
ATOM     20  O4  UNL     1      26.243  -8.211 -42.345  0.00  0.00    +0.000 OA
BRANCH  20  21
ATOM     21  C15 UNL     1      25.080  -8.784 -42.879  0.00  0.00    +0.000 C 
ATOM     22  O5  UNL     1      24.995 -10.036 -43.017  0.00  0.00    +0.000 OA
BRANCH  21  23
ATOM     23  C16 UNL     1      23.951  -7.906 -43.276  0.00  0.00    +0.000 C 
ATOM     24  C17 UNL     1      24.225  -6.746 -44.202  0.00  0.00    +0.000 C 
ATOM     25  C18 UNL     1      22.725  -8.100 -42.743  0.00  0.00    +0.000 C 
ATOM     26  C19 UNL     1      21.539  -7.228 -43.046  0.00  0.00    +0.000 C 
ENDBRANCH  21  23
ENDBRANCH  20  21
ENDBRANCH  15  20
TORSDOF 5
ENDMDL
