MODEL 1
REMARK VINA RESULT:    -6.825      0.000      0.000
REMARK INTER + INTRA:          -9.762
REMARK INTER:                  -9.020
REMARK INTRA:                  -0.742
REMARK UNBOUND:                -0.742
REMARK  Name = resultss/4CJN/ligands/lig_425_t1.pdb
REMARK  7 active torsions:
REMARK  status: ('A' for Active; 'I' for Inactive)
REMARK    1  A    between atoms: C1_1  and  O1_2
REMARK    2  A    between atoms: O1_2  and  C2_3
REMARK    3  A    between atoms: C6_7  and  N1_8
REMARK    4  A    between atoms: C7_9  and  S1_10
REMARK    5  A    between atoms: N2_11  and  N3_12
REMARK    6  A    between atoms: C8_13  and  C9_15
REMARK    7  A    between atoms: C19_26  and  C20_27
REMARK                            x       y       z     vdW  Elec       q    Type
REMARK                         _______ _______ _______ _____ _____    ______ ____
ROOT
ATOM      1  C9  UNL     1      28.320  -9.395 -36.523  0.00  0.00    +0.000 A 
ATOM      2  C10 UNL     1      29.297  -8.834 -35.670  0.00  0.00    +0.000 A 
ATOM      3  C11 UNL     1      28.844  -8.137 -34.556  0.00  0.00    +0.000 A 
ATOM      4  C12 UNL     1      27.503  -7.999 -34.275  0.00  0.00    +0.000 A 
ATOM      5  N4  UNL     1      27.306  -7.236 -33.173  0.00  0.00    +0.000 N 
ATOM      6  C13 UNL     1      28.549  -6.907 -32.754  0.00  0.00    +0.000 A 
ATOM      7  C14 UNL     1      28.885  -6.117 -31.657  0.00  0.00    +0.000 A 
ATOM      8  C15 UNL     1      30.252  -5.883 -31.408  0.00  0.00    +0.000 A 
ATOM      9  C16 UNL     1      31.241  -6.432 -32.255  0.00  0.00    +0.000 A 
ATOM     10  C17 UNL     1      30.877  -7.221 -33.360  0.00  0.00    +0.000 A 
ATOM     11  C18 UNL     1      29.519  -7.442 -33.577  0.00  0.00    +0.000 A 
ATOM     12  C19 UNL     1      26.543  -8.571 -35.119  0.00  0.00    +0.000 A 
ATOM     13  N5  UNL     1      26.990  -9.244 -36.223  0.00  0.00    +0.000 NA
ATOM     14  H11 UNL     1      26.402  -6.929 -32.750  0.00  0.00    +0.000 HD
ENDROOT
BRANCH  12  15
ATOM     15  C20 UNL     1      25.090  -8.474 -34.869  0.00  0.00    +0.000 A 
ATOM     16  C21 UNL     1      24.553  -8.964 -33.667  0.00  0.00    +0.000 A 
ATOM     17  C22 UNL     1      23.181  -8.866 -33.415  0.00  0.00    +0.000 A 
ATOM     18  C23 UNL     1      22.338  -8.259 -34.350  0.00  0.00    +0.000 A 
ATOM     19  C24 UNL     1      22.866  -7.749 -35.537  0.00  0.00    +0.000 A 
ATOM     20  C25 UNL     1      24.236  -7.850 -35.796  0.00  0.00    +0.000 A 
ENDBRANCH  12  15
BRANCH   1  22
ATOM     21  N3  UNL     1      29.899  -9.810 -38.457  0.00  0.00    +0.000 N 
ATOM     22  C8  UNL     1      28.714 -10.159 -37.726  0.00  0.00    +0.000 C 
ATOM     23  O2  UNL     1      28.002 -11.124 -38.117  0.00  0.00    +0.000 OA
ATOM     24  H9  UNL     1      30.538  -9.080 -38.068  0.00  0.00    +0.000 HD
BRANCH  21  27
ATOM     25  N1  UNL     1      28.844  -8.949 -40.935  0.00  0.00    +0.000 NA
ATOM     26  C7  UNL     1      29.589 -10.017 -40.910  0.00  0.00    +0.000 C 
ATOM     27  N2  UNL     1      30.210 -10.422 -39.685  0.00  0.00    +0.000 N 
ATOM     28  H8  UNL     1      30.883 -11.221 -39.712  0.00  0.00    +0.000 HD
BRANCH  25  33
ATOM     29  C2  UNL     1      26.081  -8.371 -43.382  0.00  0.00    +0.000 A 
ATOM     30  C3  UNL     1      26.722  -7.544 -44.326  0.00  0.00    +0.000 A 
ATOM     31  C4  UNL     1      28.060  -7.182 -44.148  0.00  0.00    +0.000 A 
ATOM     32  C5  UNL     1      28.765  -7.629 -43.028  0.00  0.00    +0.000 A 
ATOM     33  C6  UNL     1      28.130  -8.432 -42.067  0.00  0.00    +0.000 A 
ATOM     34  C26 UNL     1      26.799  -8.819 -42.266  0.00  0.00    +0.000 A 
BRANCH  29  36
ATOM     35  C1  UNL     1      23.838  -8.926 -42.426  0.00  0.00    +0.000 C 
ATOM     36  O1  UNL     1      24.742  -8.766 -43.515  0.00  0.00    +0.000 OA
ENDBRANCH  29  36
ENDBRANCH  25  33
BRANCH  26  37
ATOM     37  S1  UNL     1      29.969 -10.944 -42.406  0.00  0.00    +0.000 S 
ATOM     38  H7  UNL     1      29.490 -12.144 -41.849  0.00  0.00    +0.000 HD
ENDBRANCH  26  37
ENDBRANCH  21  27
ENDBRANCH   1  22
TORSDOF 6
ENDMDL
MODEL 2
REMARK VINA RESULT:    -6.599      1.035      4.241
REMARK INTER + INTRA:          -9.463
REMARK INTER:                  -8.798
REMARK INTRA:                  -0.665
REMARK UNBOUND:                -0.742
REMARK  Name = resultss/4CJN/ligands/lig_425_t1.pdb
REMARK  7 active torsions:
REMARK  status: ('A' for Active; 'I' for Inactive)
REMARK    1  A    between atoms: C1_1  and  O1_2
REMARK    2  A    between atoms: O1_2  and  C2_3
REMARK    3  A    between atoms: C6_7  and  N1_8
REMARK    4  A    between atoms: C7_9  and  S1_10
REMARK    5  A    between atoms: N2_11  and  N3_12
REMARK    6  A    between atoms: C8_13  and  C9_15
REMARK    7  A    between atoms: C19_26  and  C20_27
REMARK                            x       y       z     vdW  Elec       q    Type
REMARK                         _______ _______ _______ _____ _____    ______ ____
ROOT
ATOM      1  C9  UNL     1      27.966  -9.676 -36.861  0.00  0.00    +0.000 A 
ATOM      2  C10 UNL     1      26.619  -9.284 -36.697  0.00  0.00    +0.000 A 
ATOM      3  C11 UNL     1      26.282  -8.650 -35.507  0.00  0.00    +0.000 A 
ATOM      4  C12 UNL     1      27.214  -8.396 -34.524  0.00  0.00    +0.000 A 
ATOM      5  N4  UNL     1      26.641  -7.820 -33.439  0.00  0.00    +0.000 N 
ATOM      6  C13 UNL     1      25.333  -7.701 -33.762  0.00  0.00    +0.000 A 
ATOM      7  C14 UNL     1      24.316  -7.175 -32.967  0.00  0.00    +0.000 A 
ATOM      8  C15 UNL     1      23.010  -7.162 -33.494  0.00  0.00    +0.000 A 
ATOM      9  C16 UNL     1      22.750  -7.675 -34.785  0.00  0.00    +0.000 A 
ATOM     10  C17 UNL     1      23.792  -8.205 -35.565  0.00  0.00    +0.000 A 
ATOM     11  C18 UNL     1      25.075  -8.198 -35.023  0.00  0.00    +0.000 A 
ATOM     12  C19 UNL     1      28.550  -8.776 -34.704  0.00  0.00    +0.000 A 
ATOM     13  N5  UNL     1      28.877  -9.414 -35.869  0.00  0.00    +0.000 NA
ATOM     14  H11 UNL     1      27.088  -7.557 -32.534  0.00  0.00    +0.000 HD
ENDROOT
BRANCH  12  15
ATOM     15  C20 UNL     1      29.601  -8.521 -33.697  0.00  0.00    +0.000 A 
ATOM     16  C21 UNL     1      30.307  -9.599 -33.136  0.00  0.00    +0.000 A 
ATOM     17  C22 UNL     1      31.312  -9.367 -32.190  0.00  0.00    +0.000 A 
ATOM     18  C23 UNL     1      31.634  -8.061 -31.814  0.00  0.00    +0.000 A 
ATOM     19  C24 UNL     1      30.953  -6.984 -32.383  0.00  0.00    +0.000 A 
ATOM     20  C25 UNL     1      29.943  -7.209 -33.324  0.00  0.00    +0.000 A 
ENDBRANCH  12  15
BRANCH   1  22
ATOM     21  N3  UNL     1      29.660  -9.995 -38.714  0.00  0.00    +0.000 N 
ATOM     22  C8  UNL     1      28.413 -10.350 -38.100  0.00  0.00    +0.000 C 
ATOM     23  O2  UNL     1      27.691 -11.242 -38.623  0.00  0.00    +0.000 OA
ATOM     24  H9  UNL     1      30.300  -9.333 -38.219  0.00  0.00    +0.000 HD
BRANCH  21  27
ATOM     25  N1  UNL     1      28.705  -8.962 -41.167  0.00  0.00    +0.000 NA
ATOM     26  C7  UNL     1      29.461 -10.022 -41.188  0.00  0.00    +0.000 C 
ATOM     27  N2  UNL     1      30.033 -10.511 -39.969  0.00  0.00    +0.000 N 
ATOM     28  H8  UNL     1      30.716 -11.301 -40.025  0.00  0.00    +0.000 HD
BRANCH  25  33
ATOM     29  C2  UNL     1      26.001  -8.127 -43.606  0.00  0.00    +0.000 A 
ATOM     30  C3  UNL     1      26.705  -7.330 -44.530  0.00  0.00    +0.000 A 
ATOM     31  C4  UNL     1      28.065  -7.073 -44.342  0.00  0.00    +0.000 A 
ATOM     32  C5  UNL     1      28.731  -7.595 -43.231  0.00  0.00    +0.000 A 
ATOM     33  C6  UNL     1      28.035  -8.369 -42.289  0.00  0.00    +0.000 A 
ATOM     34  C26 UNL     1      26.680  -8.651 -42.499  0.00  0.00    +0.000 A 
BRANCH  29  36
ATOM     35  C1  UNL     1      23.761  -8.730 -42.669  0.00  0.00    +0.000 C 
ATOM     36  O1  UNL     1      24.636  -8.417 -43.749  0.00  0.00    +0.000 OA
ENDBRANCH  29  36
ENDBRANCH  25  33
BRANCH  26  37
ATOM     37  S1  UNL     1      29.918 -10.832 -42.729  0.00  0.00    +0.000 S 
ATOM     38  H7  UNL     1      30.936 -11.573 -42.101  0.00  0.00    +0.000 HD
ENDBRANCH  26  37
ENDBRANCH  21  27
ENDBRANCH   1  22
TORSDOF 6
ENDMDL
MODEL 3
REMARK VINA RESULT:    -6.587      2.900      4.065
REMARK INTER + INTRA:          -9.448
REMARK INTER:                  -8.757
REMARK INTRA:                  -0.690
REMARK UNBOUND:                -0.742
REMARK  Name = resultss/4CJN/ligands/lig_425_t1.pdb
REMARK  7 active torsions:
REMARK  status: ('A' for Active; 'I' for Inactive)
REMARK    1  A    between atoms: C1_1  and  O1_2
REMARK    2  A    between atoms: O1_2  and  C2_3
REMARK    3  A    between atoms: C6_7  and  N1_8
REMARK    4  A    between atoms: C7_9  and  S1_10
REMARK    5  A    between atoms: N2_11  and  N3_12
REMARK    6  A    between atoms: C8_13  and  C9_15
REMARK    7  A    between atoms: C19_26  and  C20_27
REMARK                            x       y       z     vdW  Elec       q    Type
REMARK                         _______ _______ _______ _____ _____    ______ ____
ROOT
ATOM      1  C9  UNL     1      27.593  -8.526 -37.207  0.00  0.00    +0.000 A 
ATOM      2  C10 UNL     1      28.842  -8.895 -36.659  0.00  0.00    +0.000 A 
ATOM      3  C11 UNL     1      28.927  -8.987 -35.275  0.00  0.00    +0.000 A 
ATOM      4  C12 UNL     1      27.846  -8.744 -34.457  0.00  0.00    +0.000 A 
ATOM      5  N4  UNL     1      28.185  -8.841 -33.149  0.00  0.00    +0.000 N 
ATOM      6  C13 UNL     1      29.498  -9.167 -33.157  0.00  0.00    +0.000 A 
ATOM      7  C14 UNL     1      30.319  -9.370 -32.050  0.00  0.00    +0.000 A 
ATOM      8  C15 UNL     1      31.672  -9.685 -32.283  0.00  0.00    +0.000 A 
ATOM      9  C16 UNL     1      32.170  -9.783 -33.602  0.00  0.00    +0.000 A 
ATOM     10  C17 UNL     1      31.322  -9.568 -34.703  0.00  0.00    +0.000 A 
ATOM     11  C18 UNL     1      29.988  -9.265 -34.443  0.00  0.00    +0.000 A 
ATOM     12  C19 UNL     1      26.608  -8.393 -35.011  0.00  0.00    +0.000 A 
ATOM     13  N5  UNL     1      26.529  -8.288 -36.373  0.00  0.00    +0.000 NA
ATOM     14  H11 UNL     1      27.588  -8.670 -32.311  0.00  0.00    +0.000 HD
ENDROOT
BRANCH  12  15
ATOM     15  C20 UNL     1      25.405  -8.133 -34.193  0.00  0.00    +0.000 A 
ATOM     16  C21 UNL     1      24.959  -6.814 -34.006  0.00  0.00    +0.000 A 
ATOM     17  C22 UNL     1      23.815  -6.558 -33.243  0.00  0.00    +0.000 A 
ATOM     18  C23 UNL     1      23.097  -7.615 -32.680  0.00  0.00    +0.000 A 
ATOM     19  C24 UNL     1      23.520  -8.930 -32.879  0.00  0.00    +0.000 A 
ATOM     20  C25 UNL     1      24.666  -9.192 -33.636  0.00  0.00    +0.000 A 
ENDBRANCH  12  15
BRANCH   1  22
ATOM     21  N3  UNL     1      28.267  -9.131 -39.570  0.00  0.00    +0.000 N 
ATOM     22  C8  UNL     1      27.411  -8.412 -38.671  0.00  0.00    +0.000 C 
ATOM     23  O2  UNL     1      26.499  -7.673 -39.133  0.00  0.00    +0.000 OA
ATOM     24  H9  UNL     1      28.949  -9.820 -39.180  0.00  0.00    +0.000 HD
BRANCH  21  27
ATOM     25  N1  UNL     1      30.187 -10.154 -41.375  0.00  0.00    +0.000 NA
ATOM     26  C7  UNL     1      29.249  -9.377 -41.836  0.00  0.00    +0.000 C 
ATOM     27  N2  UNL     1      28.211  -8.921 -40.960  0.00  0.00    +0.000 N 
ATOM     28  H8  UNL     1      27.416  -8.384 -41.374  0.00  0.00    +0.000 HD
BRANCH  25  33
ATOM     29  C2  UNL     1      32.185 -12.288 -43.702  0.00  0.00    +0.000 A 
ATOM     30  C3  UNL     1      33.482 -11.785 -43.487  0.00  0.00    +0.000 A 
ATOM     31  C4  UNL     1      33.690 -10.744 -42.577  0.00  0.00    +0.000 A 
ATOM     32  C5  UNL     1      32.610 -10.191 -41.885  0.00  0.00    +0.000 A 
ATOM     33  C6  UNL     1      31.308 -10.667 -42.111  0.00  0.00    +0.000 A 
ATOM     34  C26 UNL     1      31.110 -11.731 -42.998  0.00  0.00    +0.000 A 
BRANCH  29  36
ATOM     35  C1  UNL     1      32.760 -13.679 -45.699  0.00  0.00    +0.000 C 
ATOM     36  O1  UNL     1      31.922 -13.332 -44.601  0.00  0.00    +0.000 OA
ENDBRANCH  29  36
ENDBRANCH  25  33
BRANCH  26  37
ATOM     37  S1  UNL     1      29.139  -8.953 -43.582  0.00  0.00    +0.000 S 
ATOM     38  H7  UNL     1      29.601 -10.223 -43.974  0.00  0.00    +0.000 HD
ENDBRANCH  26  37
ENDBRANCH  21  27
ENDBRANCH   1  22
TORSDOF 6
ENDMDL
MODEL 4
REMARK VINA RESULT:    -6.582      3.080      8.441
REMARK INTER + INTRA:          -9.441
REMARK INTER:                  -8.976
REMARK INTRA:                  -0.465
REMARK UNBOUND:                -0.742
REMARK  Name = resultss/4CJN/ligands/lig_425_t1.pdb
REMARK  7 active torsions:
REMARK  status: ('A' for Active; 'I' for Inactive)
REMARK    1  A    between atoms: C1_1  and  O1_2
REMARK    2  A    between atoms: O1_2  and  C2_3
REMARK    3  A    between atoms: C6_7  and  N1_8
REMARK    4  A    between atoms: C7_9  and  S1_10
REMARK    5  A    between atoms: N2_11  and  N3_12
REMARK    6  A    between atoms: C8_13  and  C9_15
REMARK    7  A    between atoms: C19_26  and  C20_27
REMARK                            x       y       z     vdW  Elec       q    Type
REMARK                         _______ _______ _______ _____ _____    ______ ____
ROOT
ATOM      1  C9  UNL     1      29.944  -9.136 -38.968  0.00  0.00    +0.000 A 
ATOM      2  C10 UNL     1      31.138  -9.511 -39.623  0.00  0.00    +0.000 A 
ATOM      3  C11 UNL     1      31.045  -9.853 -40.967  0.00  0.00    +0.000 A 
ATOM      4  C12 UNL     1      29.849  -9.823 -41.649  0.00  0.00    +0.000 A 
ATOM      5  N4  UNL     1      29.999 -10.249 -42.926  0.00  0.00    +0.000 N 
ATOM      6  C13 UNL     1      31.316 -10.534 -43.043  0.00  0.00    +0.000 A 
ATOM      7  C14 UNL     1      31.973 -11.022 -44.171  0.00  0.00    +0.000 A 
ATOM      8  C15 UNL     1      33.356 -11.269 -44.070  0.00  0.00    +0.000 A 
ATOM      9  C16 UNL     1      34.042 -11.033 -42.857  0.00  0.00    +0.000 A 
ATOM     10  C17 UNL     1      33.356 -10.546 -41.731  0.00  0.00    +0.000 A 
ATOM     11  C18 UNL     1      31.990 -10.303 -41.862  0.00  0.00    +0.000 A 
ATOM     12  C19 UNL     1      28.673  -9.436 -40.993  0.00  0.00    +0.000 A 
ATOM     13  N5  UNL     1      28.763  -9.114 -39.667  0.00  0.00    +0.000 NA
ATOM     14  H11 UNL     1      29.265 -10.372 -43.659  0.00  0.00    +0.000 HD
ENDROOT
BRANCH  12  15
ATOM     15  C20 UNL     1      27.361  -9.368 -41.668  0.00  0.00    +0.000 A 
ATOM     16  C21 UNL     1      26.271 -10.089 -41.151  0.00  0.00    +0.000 A 
ATOM     17  C22 UNL     1      25.021 -10.023 -41.776  0.00  0.00    +0.000 A 
ATOM     18  C23 UNL     1      24.844  -9.221 -42.907  0.00  0.00    +0.000 A 
ATOM     19  C24 UNL     1      25.916  -8.484 -43.414  0.00  0.00    +0.000 A 
ATOM     20  C25 UNL     1      27.169  -8.552 -42.797  0.00  0.00    +0.000 A 
ENDBRANCH  12  15
BRANCH   1  22
ATOM     21  N3  UNL     1      29.338  -9.589 -36.553  0.00  0.00    +0.000 N 
ATOM     22  C8  UNL     1      29.953  -8.748 -37.540  0.00  0.00    +0.000 C 
ATOM     23  O2  UNL     1      30.502  -7.669 -37.187  0.00  0.00    +0.000 OA
ATOM     24  H9  UNL     1      28.980 -10.528 -36.838  0.00  0.00    +0.000 HD
BRANCH  21  27
ATOM     25  N1  UNL     1      26.837  -9.129 -35.316  0.00  0.00    +0.000 NA
ATOM     26  C7  UNL     1      27.923  -8.861 -34.649  0.00  0.00    +0.000 C 
ATOM     27  N2  UNL     1      29.201  -9.170 -35.217  0.00  0.00    +0.000 N 
ATOM     28  H8  UNL     1      30.050  -9.039 -34.622  0.00  0.00    +0.000 HD
BRANCH  25  33
ATOM     29  C2  UNL     1      23.401  -7.663 -35.289  0.00  0.00    +0.000 A 
ATOM     30  C3  UNL     1      22.892  -8.185 -34.084  0.00  0.00    +0.000 A 
ATOM     31  C4  UNL     1      23.685  -9.017 -33.289  0.00  0.00    +0.000 A 
ATOM     32  C5  UNL     1      24.982  -9.344 -33.691  0.00  0.00    +0.000 A 
ATOM     33  C6  UNL     1      25.491  -8.852 -34.904  0.00  0.00    +0.000 A 
ATOM     34  C26 UNL     1      24.705  -7.993 -35.680  0.00  0.00    +0.000 A 
BRANCH  29  36
ATOM     35  C1  UNL     1      21.265  -6.536 -35.939  0.00  0.00    +0.000 C 
ATOM     36  O1  UNL     1      22.648  -6.822 -36.122  0.00  0.00    +0.000 OA
ENDBRANCH  29  36
ENDBRANCH  25  33
BRANCH  26  37
ATOM     37  S1  UNL     1      27.869  -8.220 -32.967  0.00  0.00    +0.000 S 
ATOM     38  H7  UNL     1      29.021  -7.438 -33.171  0.00  0.00    +0.000 HD
ENDBRANCH  26  37
ENDBRANCH  21  27
ENDBRANCH   1  22
TORSDOF 6
ENDMDL
MODEL 5
REMARK VINA RESULT:    -6.516      3.604      6.664
REMARK INTER + INTRA:          -9.353
REMARK INTER:                  -8.792
REMARK INTRA:                  -0.561
REMARK UNBOUND:                -0.742
REMARK  Name = resultss/4CJN/ligands/lig_425_t1.pdb
REMARK  7 active torsions:
REMARK  status: ('A' for Active; 'I' for Inactive)
REMARK    1  A    between atoms: C1_1  and  O1_2
REMARK    2  A    between atoms: O1_2  and  C2_3
REMARK    3  A    between atoms: C6_7  and  N1_8
REMARK    4  A    between atoms: C7_9  and  S1_10
REMARK    5  A    between atoms: N2_11  and  N3_12
REMARK    6  A    between atoms: C8_13  and  C9_15
REMARK    7  A    between atoms: C19_26  and  C20_27
REMARK                            x       y       z     vdW  Elec       q    Type
REMARK                         _______ _______ _______ _____ _____    ______ ____
ROOT
ATOM      1  C9  UNL     1      25.060  -7.938 -39.893  0.00  0.00    +0.000 A 
ATOM      2  C10 UNL     1      24.904  -8.067 -38.495  0.00  0.00    +0.000 A 
ATOM      3  C11 UNL     1      25.946  -8.659 -37.792  0.00  0.00    +0.000 A 
ATOM      4  C12 UNL     1      27.095  -9.096 -38.415  0.00  0.00    +0.000 A 
ATOM      5  N4  UNL     1      27.940  -9.685 -37.534  0.00  0.00    +0.000 N 
ATOM      6  C13 UNL     1      27.310  -9.597 -36.341  0.00  0.00    +0.000 A 
ATOM      7  C14 UNL     1      27.768 -10.073 -35.113  0.00  0.00    +0.000 A 
ATOM      8  C15 UNL     1      26.939  -9.892 -33.988  0.00  0.00    +0.000 A 
ATOM      9  C16 UNL     1      25.684  -9.255 -34.114  0.00  0.00    +0.000 A 
ATOM     10  C17 UNL     1      25.242  -8.789 -35.365  0.00  0.00    +0.000 A 
ATOM     11  C18 UNL     1      26.085  -8.974 -36.459  0.00  0.00    +0.000 A 
ATOM     12  C19 UNL     1      27.245  -8.949 -39.800  0.00  0.00    +0.000 A 
ATOM     13  N5  UNL     1      26.212  -8.380 -40.493  0.00  0.00    +0.000 NA
ATOM     14  H11 UNL     1      28.858 -10.143 -37.725  0.00  0.00    +0.000 HD
ENDROOT
BRANCH  12  15
ATOM     15  C20 UNL     1      28.455  -9.382 -40.528  0.00  0.00    +0.000 A 
ATOM     16  C21 UNL     1      29.588  -8.552 -40.558  0.00  0.00    +0.000 A 
ATOM     17  C22 UNL     1      30.743  -8.958 -41.236  0.00  0.00    +0.000 A 
ATOM     18  C23 UNL     1      30.783 -10.203 -41.869  0.00  0.00    +0.000 A 
ATOM     19  C24 UNL     1      29.670 -11.044 -41.825  0.00  0.00    +0.000 A 
ATOM     20  C25 UNL     1      28.511 -10.640 -41.155  0.00  0.00    +0.000 A 
ENDBRANCH  12  15
BRANCH   1  22
ATOM     21  N3  UNL     1      23.159  -8.118 -41.555  0.00  0.00    +0.000 N 
ATOM     22  C8  UNL     1      24.003  -7.312 -40.719  0.00  0.00    +0.000 C 
ATOM     23  O2  UNL     1      23.844  -6.062 -40.690  0.00  0.00    +0.000 OA
ATOM     24  H9  UNL     1      23.227  -9.159 -41.493  0.00  0.00    +0.000 HD
BRANCH  21  27
ATOM     25  N1  UNL     1      23.779  -7.608 -44.266  0.00  0.00    +0.000 NA
ATOM     26  C7  UNL     1      22.629  -7.209 -43.802  0.00  0.00    +0.000 C 
ATOM     27  N2  UNL     1      22.253  -7.534 -42.460  0.00  0.00    +0.000 N 
ATOM     28  H8  UNL     1      21.287  -7.291 -42.144  0.00  0.00    +0.000 HD
BRANCH  25  33
ATOM     29  C2  UNL     1      26.145  -6.485 -46.930  0.00  0.00    +0.000 A 
ATOM     30  C3  UNL     1      25.365  -6.682 -48.087  0.00  0.00    +0.000 A 
ATOM     31  C4  UNL     1      24.066  -7.185 -47.981  0.00  0.00    +0.000 A 
ATOM     32  C5  UNL     1      23.538  -7.505 -46.728  0.00  0.00    +0.000 A 
ATOM     33  C6  UNL     1      24.314  -7.338 -45.570  0.00  0.00    +0.000 A 
ATOM     34  C26 UNL     1      25.603  -6.803 -45.678  0.00  0.00    +0.000 A 
BRANCH  29  36
ATOM     35  C1  UNL     1      28.323  -5.884 -45.858  0.00  0.00    +0.000 C 
ATOM     36  O1  UNL     1      27.453  -5.981 -46.981  0.00  0.00    +0.000 OA
ENDBRANCH  29  36
ENDBRANCH  25  33
BRANCH  26  37
ATOM     37  S1  UNL     1      21.430  -6.358 -44.841  0.00  0.00    +0.000 S 
ATOM     38  H7  UNL     1      20.464  -7.361 -44.641  0.00  0.00    +0.000 HD
ENDBRANCH  26  37
ENDBRANCH  21  27
ENDBRANCH   1  22
TORSDOF 6
ENDMDL
MODEL 6
REMARK VINA RESULT:    -6.470      3.970      6.962
REMARK INTER + INTRA:          -9.293
REMARK INTER:                  -9.274
REMARK INTRA:                  -0.020
REMARK UNBOUND:                -0.742
REMARK  Name = resultss/4CJN/ligands/lig_425_t1.pdb
REMARK  7 active torsions:
REMARK  status: ('A' for Active; 'I' for Inactive)
REMARK    1  A    between atoms: C1_1  and  O1_2
REMARK    2  A    between atoms: O1_2  and  C2_3
REMARK    3  A    between atoms: C6_7  and  N1_8
REMARK    4  A    between atoms: C7_9  and  S1_10
REMARK    5  A    between atoms: N2_11  and  N3_12
REMARK    6  A    between atoms: C8_13  and  C9_15
REMARK    7  A    between atoms: C19_26  and  C20_27
REMARK                            x       y       z     vdW  Elec       q    Type
REMARK                         _______ _______ _______ _____ _____    ______ ____
ROOT
ATOM      1  C9  UNL     1      25.113  -7.907 -40.006  0.00  0.00    +0.000 A 
ATOM      2  C10 UNL     1      25.205  -8.005 -38.600  0.00  0.00    +0.000 A 
ATOM      3  C11 UNL     1      26.327  -8.638 -38.079  0.00  0.00    +0.000 A 
ATOM      4  C12 UNL     1      27.323  -9.143 -38.886  0.00  0.00    +0.000 A 
ATOM      5  N4  UNL     1      28.283  -9.760 -38.155  0.00  0.00    +0.000 N 
ATOM      6  C13 UNL     1      27.883  -9.620 -36.871  0.00  0.00    +0.000 A 
ATOM      7  C14 UNL     1      28.531 -10.097 -35.733  0.00  0.00    +0.000 A 
ATOM      8  C15 UNL     1      27.927  -9.856 -34.483  0.00  0.00    +0.000 A 
ATOM      9  C16 UNL     1      26.702  -9.157 -34.400  0.00  0.00    +0.000 A 
ATOM     10  C17 UNL     1      26.065  -8.691 -35.563  0.00  0.00    +0.000 A 
ATOM     11  C18 UNL     1      26.688  -8.937 -36.784  0.00  0.00    +0.000 A 
ATOM     12  C19 UNL     1      27.228  -9.028 -40.278  0.00  0.00    +0.000 A 
ATOM     13  N5  UNL     1      26.116  -8.418 -40.790  0.00  0.00    +0.000 NA
ATOM     14  H11 UNL     1      29.130 -10.268 -38.495  0.00  0.00    +0.000 HD
ENDROOT
BRANCH  12  15
ATOM     15  C20 UNL     1      28.266  -9.535 -41.200  0.00  0.00    +0.000 A 
ATOM     16  C21 UNL     1      28.682  -8.747 -42.286  0.00  0.00    +0.000 A 
ATOM     17  C22 UNL     1      29.672  -9.213 -43.157  0.00  0.00    +0.000 A 
ATOM     18  C23 UNL     1      30.268 -10.458 -42.940  0.00  0.00    +0.000 A 
ATOM     19  C24 UNL     1      29.876 -11.238 -41.851  0.00  0.00    +0.000 A 
ATOM     20  C25 UNL     1      28.883 -10.779 -40.980  0.00  0.00    +0.000 A 
ENDBRANCH  12  15
BRANCH   1  22
ATOM     21  N3  UNL     1      23.089  -7.974 -41.525  0.00  0.00    +0.000 N 
ATOM     22  C8  UNL     1      23.956  -7.242 -40.645  0.00  0.00    +0.000 C 
ATOM     23  O2  UNL     1      23.730  -6.022 -40.419  0.00  0.00    +0.000 OA
ATOM     24  H9  UNL     1      23.220  -9.006 -41.624  0.00  0.00    +0.000 HD
BRANCH  21  27
ATOM     25  N1  UNL     1      23.302  -7.391 -44.283  0.00  0.00    +0.000 NA
ATOM     26  C7  UNL     1      22.254  -6.969 -43.635  0.00  0.00    +0.000 C 
ATOM     27  N2  UNL     1      22.077  -7.329 -42.260  0.00  0.00    +0.000 N 
ATOM     28  H8  UNL     1      21.182  -7.064 -41.791  0.00  0.00    +0.000 HD
BRANCH  25  33
ATOM     29  C2  UNL     1      22.943  -6.939 -47.974  0.00  0.00    +0.000 A 
ATOM     30  C3  UNL     1      24.268  -6.636 -48.342  0.00  0.00    +0.000 A 
ATOM     31  C4  UNL     1      25.271  -6.583 -47.370  0.00  0.00    +0.000 A 
ATOM     32  C5  UNL     1      24.962  -6.817 -46.029  0.00  0.00    +0.000 A 
ATOM     33  C6  UNL     1      23.639  -7.094 -45.646  0.00  0.00    +0.000 A 
ATOM     34  C26 UNL     1      22.644  -7.179 -46.627  0.00  0.00    +0.000 A 
BRANCH  29  36
ATOM     35  C1  UNL     1      20.560  -6.598 -48.655  0.00  0.00    +0.000 C 
ATOM     36  O1  UNL     1      21.900  -7.008 -48.910  0.00  0.00    +0.000 OA
ENDBRANCH  29  36
ENDBRANCH  25  33
BRANCH  26  37
ATOM     37  S1  UNL     1      20.943  -6.042 -44.449  0.00  0.00    +0.000 S 
ATOM     38  H7  UNL     1      21.041  -6.825 -45.615  0.00  0.00    +0.000 HD
ENDBRANCH  26  37
ENDBRANCH  21  27
ENDBRANCH   1  22
TORSDOF 6
ENDMDL
MODEL 7
REMARK VINA RESULT:    -6.322      3.441      8.787
REMARK INTER + INTRA:          -9.097
REMARK INTER:                  -8.453
REMARK INTRA:                  -0.644
REMARK UNBOUND:                -0.742
REMARK  Name = resultss/4CJN/ligands/lig_425_t1.pdb
REMARK  7 active torsions:
REMARK  status: ('A' for Active; 'I' for Inactive)
REMARK    1  A    between atoms: C1_1  and  O1_2
REMARK    2  A    between atoms: O1_2  and  C2_3
REMARK    3  A    between atoms: C6_7  and  N1_8
REMARK    4  A    between atoms: C7_9  and  S1_10
REMARK    5  A    between atoms: N2_11  and  N3_12
REMARK    6  A    between atoms: C8_13  and  C9_15
REMARK    7  A    between atoms: C19_26  and  C20_27
REMARK                            x       y       z     vdW  Elec       q    Type
REMARK                         _______ _______ _______ _____ _____    ______ ____
ROOT
ATOM      1  C9  UNL     1      26.726  -8.802 -37.967  0.00  0.00    +0.000 A 
ATOM      2  C10 UNL     1      27.949  -9.197 -38.553  0.00  0.00    +0.000 A 
ATOM      3  C11 UNL     1      28.005  -9.234 -39.941  0.00  0.00    +0.000 A 
ATOM      4  C12 UNL     1      26.927  -8.891 -40.727  0.00  0.00    +0.000 A 
ATOM      5  N4  UNL     1      27.203  -9.058 -42.043  0.00  0.00    +0.000 N 
ATOM      6  C13 UNL     1      28.482  -9.496 -42.074  0.00  0.00    +0.000 A 
ATOM      7  C14 UNL     1      29.230  -9.826 -43.203  0.00  0.00    +0.000 A 
ATOM      8  C15 UNL     1      30.548 -10.284 -43.009  0.00  0.00    +0.000 A 
ATOM      9  C16 UNL     1      31.081 -10.407 -41.706  0.00  0.00    +0.000 A 
ATOM     10  C17 UNL     1      30.304 -10.074 -40.582  0.00  0.00    +0.000 A 
ATOM     11  C18 UNL     1      29.008  -9.617 -40.805  0.00  0.00    +0.000 A 
ATOM     12  C19 UNL     1      25.723  -8.486 -40.135  0.00  0.00    +0.000 A 
ATOM     13  N5  UNL     1      25.664  -8.465 -38.769  0.00  0.00    +0.000 NA
ATOM     14  H11 UNL     1      26.570  -8.918 -42.861  0.00  0.00    +0.000 HD
ENDROOT
BRANCH  12  15
ATOM     15  C20 UNL     1      24.534  -8.092 -40.918  0.00  0.00    +0.000 A 
ATOM     16  C21 UNL     1      23.969  -6.819 -40.739  0.00  0.00    +0.000 A 
ATOM     17  C22 UNL     1      22.850  -6.432 -41.484  0.00  0.00    +0.000 A 
ATOM     18  C23 UNL     1      22.300  -7.304 -42.427  0.00  0.00    +0.000 A 
ATOM     19  C24 UNL     1      22.869  -8.562 -42.628  0.00  0.00    +0.000 A 
ATOM     20  C25 UNL     1      23.984  -8.957 -41.882  0.00  0.00    +0.000 A 
ENDBRANCH  12  15
BRANCH   1  22
ATOM     21  N3  UNL     1      26.957  -7.539 -35.786  0.00  0.00    +0.000 N 
ATOM     22  C8  UNL     1      26.580  -8.727 -36.496  0.00  0.00    +0.000 C 
ATOM     23  O2  UNL     1      26.124  -9.717 -35.861  0.00  0.00    +0.000 OA
ATOM     24  H9  UNL     1      27.234  -6.689 -36.328  0.00  0.00    +0.000 HD
BRANCH  21  27
ATOM     25  N1  UNL     1      29.234  -8.175 -34.234  0.00  0.00    +0.000 NA
ATOM     26  C7  UNL     1      28.114  -7.914 -33.622  0.00  0.00    +0.000 C 
ATOM     27  N2  UNL     1      26.971  -7.500 -34.379  0.00  0.00    +0.000 N 
ATOM     28  H8  UNL     1      26.116  -7.199 -33.859  0.00  0.00    +0.000 HD
BRANCH  25  33
ATOM     29  C2  UNL     1      31.689 -10.422 -32.536  0.00  0.00    +0.000 A 
ATOM     30  C3  UNL     1      32.767  -9.539 -32.329  0.00  0.00    +0.000 A 
ATOM     31  C4  UNL     1      32.678  -8.211 -32.752  0.00  0.00    +0.000 A 
ATOM     32  C5  UNL     1      31.523  -7.753 -33.391  0.00  0.00    +0.000 A 
ATOM     33  C6  UNL     1      30.452  -8.630 -33.627  0.00  0.00    +0.000 A 
ATOM     34  C26 UNL     1      30.533  -9.952 -33.173  0.00  0.00    +0.000 A 
BRANCH  29  36
ATOM     35  C1  UNL     1      32.110 -12.201 -30.829  0.00  0.00    +0.000 C 
ATOM     36  O1  UNL     1      31.726 -11.764 -32.130  0.00  0.00    +0.000 OA
ENDBRANCH  29  36
ENDBRANCH  25  33
BRANCH  26  37
ATOM     37  S1  UNL     1      27.985  -7.936 -31.827  0.00  0.00    +0.000 S 
ATOM     38  H7  UNL     1      29.381  -8.042 -31.674  0.00  0.00    +0.000 HD
ENDBRANCH  26  37
ENDBRANCH  21  27
ENDBRANCH   1  22
TORSDOF 6
ENDMDL
MODEL 8
REMARK VINA RESULT:    -6.245      2.684      5.677
REMARK INTER + INTRA:          -8.996
REMARK INTER:                  -8.686
REMARK INTRA:                  -0.310
REMARK UNBOUND:                -0.742
REMARK  Name = resultss/4CJN/ligands/lig_425_t1.pdb
REMARK  7 active torsions:
REMARK  status: ('A' for Active; 'I' for Inactive)
REMARK    1  A    between atoms: C1_1  and  O1_2
REMARK    2  A    between atoms: O1_2  and  C2_3
REMARK    3  A    between atoms: C6_7  and  N1_8
REMARK    4  A    between atoms: C7_9  and  S1_10
REMARK    5  A    between atoms: N2_11  and  N3_12
REMARK    6  A    between atoms: C8_13  and  C9_15
REMARK    7  A    between atoms: C19_26  and  C20_27
REMARK                            x       y       z     vdW  Elec       q    Type
REMARK                         _______ _______ _______ _____ _____    ______ ____
ROOT
ATOM      1  C9  UNL     1      27.169  -8.061 -37.922  0.00  0.00    +0.000 A 
ATOM      2  C10 UNL     1      25.876  -7.957 -37.364  0.00  0.00    +0.000 A 
ATOM      3  C11 UNL     1      25.737  -8.271 -36.017  0.00  0.00    +0.000 A 
ATOM      4  C12 UNL     1      26.808  -8.657 -35.242  0.00  0.00    +0.000 A 
ATOM      5  N4  UNL     1      26.419  -8.963 -33.981  0.00  0.00    +0.000 N 
ATOM      6  C13 UNL     1      25.084  -8.746 -33.970  0.00  0.00    +0.000 A 
ATOM      7  C14 UNL     1      24.212  -8.929 -32.898  0.00  0.00    +0.000 A 
ATOM      8  C15 UNL     1      22.846  -8.660 -33.108  0.00  0.00    +0.000 A 
ATOM      9  C16 UNL     1      22.385  -8.226 -34.372  0.00  0.00    +0.000 A 
ATOM     10  C17 UNL     1      23.283  -8.055 -35.439  0.00  0.00    +0.000 A 
ATOM     11  C18 UNL     1      24.630  -8.320 -35.200  0.00  0.00    +0.000 A 
ATOM     12  C19 UNL     1      28.089  -8.743 -35.802  0.00  0.00    +0.000 A 
ATOM     13  N5  UNL     1      28.222  -8.448 -37.131  0.00  0.00    +0.000 NA
ATOM     14  H11 UNL     1      27.001  -9.323 -33.192  0.00  0.00    +0.000 HD
ENDROOT
BRANCH  12  15
ATOM     15  C20 UNL     1      29.282  -9.137 -35.025  0.00  0.00    +0.000 A 
ATOM     16  C21 UNL     1      30.545  -9.151 -35.641  0.00  0.00    +0.000 A 
ATOM     17  C22 UNL     1      31.682  -9.512 -34.910  0.00  0.00    +0.000 A 
ATOM     18  C23 UNL     1      31.571  -9.840 -33.557  0.00  0.00    +0.000 A 
ATOM     19  C24 UNL     1      30.324  -9.808 -32.931  0.00  0.00    +0.000 A 
ATOM     20  C25 UNL     1      29.183  -9.453 -33.658  0.00  0.00    +0.000 A 
ENDBRANCH  12  15
BRANCH   1  22
ATOM     21  N3  UNL     1      27.022  -8.658 -40.377  0.00  0.00    +0.000 N 
ATOM     22  C8  UNL     1      27.409  -7.738 -39.346  0.00  0.00    +0.000 C 
ATOM     23  O2  UNL     1      27.960  -6.647 -39.657  0.00  0.00    +0.000 OA
ATOM     24  H9  UNL     1      26.472  -9.509 -40.118  0.00  0.00    +0.000 HD
BRANCH  21  27
ATOM     25  N1  UNL     1      29.348  -9.738 -41.566  0.00  0.00    +0.000 NA
ATOM     26  C7  UNL     1      28.606  -8.931 -42.268  0.00  0.00    +0.000 C 
ATOM     27  N2  UNL     1      27.375  -8.443 -41.722  0.00  0.00    +0.000 N 
ATOM     28  H8  UNL     1      26.748  -7.880 -42.340  0.00  0.00    +0.000 HD
BRANCH  25  33
ATOM     29  C2  UNL     1      31.864 -12.028 -43.110  0.00  0.00    +0.000 A 
ATOM     30  C3  UNL     1      33.068 -11.463 -42.645  0.00  0.00    +0.000 A 
ATOM     31  C4  UNL     1      33.042 -10.331 -41.828  0.00  0.00    +0.000 A 
ATOM     32  C5  UNL     1      31.823  -9.747 -41.476  0.00  0.00    +0.000 A 
ATOM     33  C6  UNL     1      30.617 -10.285 -41.954  0.00  0.00    +0.000 A 
ATOM     34  C26 UNL     1      30.647 -11.439 -42.746  0.00  0.00    +0.000 A 
BRANCH  29  36
ATOM     35  C1  UNL     1      32.563 -13.300 -45.147  0.00  0.00    +0.000 C 
ATOM     36  O1  UNL     1      31.834 -13.165 -43.930  0.00  0.00    +0.000 OA
ENDBRANCH  29  36
ENDBRANCH  25  33
BRANCH  26  37
ATOM     37  S1  UNL     1      29.015  -8.499 -43.967  0.00  0.00    +0.000 S 
ATOM     38  H7  UNL     1      27.665  -8.550 -44.362  0.00  0.00    +0.000 HD
ENDBRANCH  26  37
ENDBRANCH  21  27
ENDBRANCH   1  22
TORSDOF 6
ENDMDL
MODEL 9
REMARK VINA RESULT:    -6.056      3.029      9.575
REMARK INTER + INTRA:          -8.745
REMARK INTER:                  -8.102
REMARK INTRA:                  -0.643
REMARK UNBOUND:                -0.742
REMARK  Name = resultss/4CJN/ligands/lig_425_t1.pdb
REMARK  7 active torsions:
REMARK  status: ('A' for Active; 'I' for Inactive)
REMARK    1  A    between atoms: C1_1  and  O1_2
REMARK    2  A    between atoms: O1_2  and  C2_3
REMARK    3  A    between atoms: C6_7  and  N1_8
REMARK    4  A    between atoms: C7_9  and  S1_10
REMARK    5  A    between atoms: N2_11  and  N3_12
REMARK    6  A    between atoms: C8_13  and  C9_15
REMARK    7  A    between atoms: C19_26  and  C20_27
REMARK                            x       y       z     vdW  Elec       q    Type
REMARK                         _______ _______ _______ _____ _____    ______ ____
ROOT
ATOM      1  C9  UNL     1      26.409  -8.326 -42.069  0.00  0.00    +0.000 A 
ATOM      2  C10 UNL     1      27.028  -8.030 -43.304  0.00  0.00    +0.000 A 
ATOM      3  C11 UNL     1      26.253  -7.395 -44.268  0.00  0.00    +0.000 A 
ATOM      4  C12 UNL     1      24.938  -7.052 -44.040  0.00  0.00    +0.000 A 
ATOM      5  N4  UNL     1      24.376  -6.496 -45.141  0.00  0.00    +0.000 N 
ATOM      6  C13 UNL     1      25.366  -6.479 -46.062  0.00  0.00    +0.000 A 
ATOM      7  C14 UNL     1      25.286  -6.011 -47.372  0.00  0.00    +0.000 A 
ATOM      8  C15 UNL     1      26.439  -6.105 -48.176  0.00  0.00    +0.000 A 
ATOM      9  C16 UNL     1      27.631  -6.663 -47.661  0.00  0.00    +0.000 A 
ATOM     10  C17 UNL     1      27.685  -7.134 -46.337  0.00  0.00    +0.000 A 
ATOM     11  C18 UNL     1      26.532  -7.022 -45.563  0.00  0.00    +0.000 A 
ATOM     12  C19 UNL     1      24.338  -7.338 -42.807  0.00  0.00    +0.000 A 
ATOM     13  N5  UNL     1      25.098  -7.976 -41.865  0.00  0.00    +0.000 NA
ATOM     14  H11 UNL     1      23.391  -6.181 -45.276  0.00  0.00    +0.000 HD
ENDROOT
BRANCH  12  15
ATOM     15  C20 UNL     1      22.938  -6.986 -42.493  0.00  0.00    +0.000 A 
ATOM     16  C21 UNL     1      22.648  -6.232 -41.343  0.00  0.00    +0.000 A 
ATOM     17  C22 UNL     1      21.327  -5.884 -41.042  0.00  0.00    +0.000 A 
ATOM     18  C23 UNL     1      20.290  -6.266 -41.897  0.00  0.00    +0.000 A 
ATOM     19  C24 UNL     1      20.571  -6.996 -43.053  0.00  0.00    +0.000 A 
ATOM     20  C25 UNL     1      21.889  -7.352 -43.355  0.00  0.00    +0.000 A 
ENDBRANCH  12  15
BRANCH   1  22
ATOM     21  N3  UNL     1      27.937  -8.223 -40.055  0.00  0.00    +0.000 N 
ATOM     22  C8  UNL     1      27.162  -8.994 -40.985  0.00  0.00    +0.000 C 
ATOM     23  O2  UNL     1      27.126 -10.250 -40.878  0.00  0.00    +0.000 OA
ATOM     24  H9  UNL     1      27.877  -7.180 -40.085  0.00  0.00    +0.000 HD
BRANCH  21  27
ATOM     25  N1  UNL     1      27.252  -8.549 -37.331  0.00  0.00    +0.000 NA
ATOM     26  C7  UNL     1      28.440  -8.912 -37.724  0.00  0.00    +0.000 C 
ATOM     27  N2  UNL     1      28.780  -8.843 -39.114  0.00  0.00    +0.000 N 
ATOM     28  H8  UNL     1      29.701  -9.233 -39.417  0.00  0.00    +0.000 HD
BRANCH  25  33
ATOM     29  C2  UNL     1      26.697  -7.415 -33.816  0.00  0.00    +0.000 A 
ATOM     30  C3  UNL     1      25.951  -8.491 -33.297  0.00  0.00    +0.000 A 
ATOM     31  C4  UNL     1      25.635  -9.583 -34.110  0.00  0.00    +0.000 A 
ATOM     32  C5  UNL     1      26.048  -9.607 -35.444  0.00  0.00    +0.000 A 
ATOM     33  C6  UNL     1      26.770  -8.528 -35.980  0.00  0.00    +0.000 A 
ATOM     34  C26 UNL     1      27.112  -7.452 -35.153  0.00  0.00    +0.000 A 
BRANCH  29  36
ATOM     35  C1  UNL     1      28.357  -6.023 -32.563  0.00  0.00    +0.000 C 
ATOM     36  O1  UNL     1      27.043  -6.297 -33.042  0.00  0.00    +0.000 OA
ENDBRANCH  29  36
ENDBRANCH  25  33
BRANCH  26  37
ATOM     37  S1  UNL     1      29.641  -9.621 -36.586  0.00  0.00    +0.000 S 
ATOM     38  H7  UNL     1      29.307 -10.934 -36.967  0.00  0.00    +0.000 HD
ENDBRANCH  26  37
ENDBRANCH  21  27
ENDBRANCH   1  22
TORSDOF 6
ENDMDL
