MODEL 1
REMARK VINA RESULT:    -6.118      0.000      0.000
REMARK INTER + INTRA:         -13.994
REMARK INTER:                 -10.232
REMARK INTRA:                  -3.763
REMARK UNBOUND:                -3.763
REMARK  Name = resultss/4CJN/ligands/lig_335_t1.pdb
REMARK  14 active torsions:
REMARK  status: ('A' for Active; 'I' for Inactive)
REMARK    1  A    between atoms: C1_1  and  O1_2
REMARK    2  A    between atoms: O1_2  and  C2_3
REMARK    3  A    between atoms: C4_5  and  C5_6
REMARK    4  A    between atoms: N2_16  and  N3_17
REMARK    5  A    between atoms: N3_17  and  C13_18
REMARK    6  A    between atoms: C21_26  and  O3_27
REMARK    7  A    between atoms: O3_27  and  C22_28
REMARK    8  A    between atoms: C22_28  and  C23_29
REMARK    9  A    between atoms: N4_31  and  C25_32
REMARK   10  A    between atoms: C25_32  and  C26_33
REMARK   11  A    between atoms: C26_33  and  O4_34
REMARK   12  A    between atoms: N5_35  and  C27_36
REMARK   13  A    between atoms: C27_36  and  C28_37
REMARK   14  A    between atoms: C31_40  and  C32_41
REMARK                            x       y       z     vdW  Elec       q    Type
REMARK                         _______ _______ _______ _____ _____    ______ ____
ROOT
ATOM      1  C2  UNL     1      30.479  -8.894 -38.721  0.00  0.00    +0.000 A 
ATOM      2  C3  UNL     1      29.244  -8.322 -39.086  0.00  0.00    +0.000 A 
ATOM      3  C4  UNL     1      29.190  -7.249 -39.992  0.00  0.00    +0.000 A 
ATOM      4  C19 UNL     1      30.383  -6.767 -40.551  0.00  0.00    +0.000 A 
ATOM      5  C20 UNL     1      31.610  -7.329 -40.194  0.00  0.00    +0.000 A 
ATOM      6  C21 UNL     1      31.666  -8.392 -39.273  0.00  0.00    +0.000 A 
ENDROOT
BRANCH   3   7
ATOM      7  C5  UNL     1      27.863  -6.651 -40.403  0.00  0.00    +0.000 C 
ATOM      8  N1  UNL     1      27.233  -5.978 -39.262  0.00  0.00    +0.000 N 
ATOM      9  C6  UNL     1      26.218  -6.587 -38.456  0.00  0.00    +0.000 A 
ATOM     10  C7  UNL     1      25.850  -6.010 -37.230  0.00  0.00    +0.000 A 
ATOM     11  C8  UNL     1      24.867  -6.609 -36.438  0.00  0.00    +0.000 A 
ATOM     12  C9  UNL     1      24.244  -7.784 -36.866  0.00  0.00    +0.000 A 
ATOM     13  C10 UNL     1      24.600  -8.360 -38.089  0.00  0.00    +0.000 A 
ATOM     14  C11 UNL     1      25.588  -7.761 -38.890  0.00  0.00    +0.000 A 
ATOM     15  C12 UNL     1      25.974  -8.330 -40.192  0.00  0.00    +0.000 C 
ATOM     16  O2  UNL     1      25.388  -9.358 -40.630  0.00  0.00    +0.000 OA
ATOM     17  N2  UNL     1      26.999  -7.699 -40.981  0.00  0.00    +0.000 N 
ATOM     18  H6  UNL     1      27.652  -5.073 -38.946  0.00  0.00    +0.000 HD
BRANCH  17  19
ATOM     19  N3  UNL     1      27.373  -8.300 -42.201  0.00  0.00    +0.000 N 
ATOM     20  H11 UNL     1      26.848  -8.056 -43.070  0.00  0.00    +0.000 HD
BRANCH  19  21
ATOM     21  C13 UNL     1      28.428  -9.269 -42.293  0.00  0.00    +0.000 A 
ATOM     22  C14 UNL     1      28.456 -10.389 -41.443  0.00  0.00    +0.000 A 
ATOM     23  C15 UNL     1      29.499 -11.315 -41.536  0.00  0.00    +0.000 A 
ATOM     24  C16 UNL     1      30.525 -11.125 -42.467  0.00  0.00    +0.000 A 
ATOM     25  C17 UNL     1      30.513 -10.003 -43.300  0.00  0.00    +0.000 A 
ATOM     26  C18 UNL     1      29.473  -9.073 -43.209  0.00  0.00    +0.000 A 
ENDBRANCH  19  21
ENDBRANCH  17  19
ENDBRANCH   3   7
BRANCH   1  28
ATOM     27  C1  UNL     1      29.508 -10.381 -36.956  0.00  0.00    +0.000 C 
ATOM     28  O1  UNL     1      30.565  -9.962 -37.815  0.00  0.00    +0.000 OA
ENDBRANCH   1  28
BRANCH   6  29
ATOM     29  O3  UNL     1      32.882  -8.976 -38.884  0.00  0.00    +0.000 OA
BRANCH  29  30
ATOM     30  C22 UNL     1      33.794  -8.400 -37.952  0.00  0.00    +0.000 C 
BRANCH  30  31
ATOM     31  C23 UNL     1      33.456  -8.869 -36.578  0.00  0.00    +0.000 A 
ATOM     32  C24 UNL     1      32.675  -8.214 -35.653  0.00  0.00    +0.000 A 
ATOM     33  N4  UNL     1      32.681  -8.985 -34.552  0.00  0.00    +0.000 N 
ATOM     34  N6  UNL     1      33.422 -10.056 -34.791  0.00  0.00    +0.000 NA
ATOM     35  N7  UNL     1      33.916 -10.008 -36.020  0.00  0.00    +0.000 NA
BRANCH  33  36
ATOM     36  C25 UNL     1      31.951  -8.751 -33.311  0.00  0.00    +0.000 C 
BRANCH  36  37
ATOM     37  C26 UNL     1      30.960  -9.861 -33.082  0.00  0.00    +0.000 C 
ATOM     38  N5  UNL     1      29.705  -9.775 -33.422  0.00  0.00    +0.000 NA
BRANCH  37  39
ATOM     39  O4  UNL     1      31.426 -11.044 -32.515  0.00  0.00    +0.000 OA
ATOM     40  H24 UNL     1      31.797 -11.062 -31.572  0.00  0.00    +0.000 HD
ENDBRANCH  37  39
BRANCH  38  41
ATOM     41  C27 UNL     1      29.057  -8.614 -34.027  0.00  0.00    +0.000 C 
BRANCH  41  42
ATOM     42  C28 UNL     1      27.574  -8.707 -33.817  0.00  0.00    +0.000 A 
ATOM     43  C29 UNL     1      26.897  -7.708 -33.101  0.00  0.00    +0.000 A 
ATOM     44  C30 UNL     1      25.512  -7.783 -32.924  0.00  0.00    +0.000 A 
ATOM     45  C31 UNL     1      24.783  -8.845 -33.482  0.00  0.00    +0.000 A 
ATOM     46  C32 UNL     1      23.306  -8.950 -33.255  0.00  0.00    +0.000 C 
ATOM     47  C33 UNL     1      25.460  -9.843 -34.199  0.00  0.00    +0.000 A 
ATOM     48  C34 UNL     1      26.845  -9.768 -34.377  0.00  0.00    +0.000 A 
ENDBRANCH  41  42
ENDBRANCH  38  41
ENDBRANCH  36  37
ENDBRANCH  33  36
ENDBRANCH  30  31
ENDBRANCH  29  30
ENDBRANCH   6  29
TORSDOF 12
ENDMDL
MODEL 2
REMARK VINA RESULT:    -5.976      2.828      9.706
REMARK INTER + INTRA:         -13.757
REMARK INTER:                 -11.977
REMARK INTRA:                  -1.779
REMARK UNBOUND:                -3.763
REMARK  Name = resultss/4CJN/ligands/lig_335_t1.pdb
REMARK  14 active torsions:
REMARK  status: ('A' for Active; 'I' for Inactive)
REMARK    1  A    between atoms: C1_1  and  O1_2
REMARK    2  A    between atoms: O1_2  and  C2_3
REMARK    3  A    between atoms: C4_5  and  C5_6
REMARK    4  A    between atoms: N2_16  and  N3_17
REMARK    5  A    between atoms: N3_17  and  C13_18
REMARK    6  A    between atoms: C21_26  and  O3_27
REMARK    7  A    between atoms: O3_27  and  C22_28
REMARK    8  A    between atoms: C22_28  and  C23_29
REMARK    9  A    between atoms: N4_31  and  C25_32
REMARK   10  A    between atoms: C25_32  and  C26_33
REMARK   11  A    between atoms: C26_33  and  O4_34
REMARK   12  A    between atoms: N5_35  and  C27_36
REMARK   13  A    between atoms: C27_36  and  C28_37
REMARK   14  A    between atoms: C31_40  and  C32_41
REMARK                            x       y       z     vdW  Elec       q    Type
REMARK                         _______ _______ _______ _____ _____    ______ ____
ROOT
ATOM      1  C2  UNL     1      25.307  -7.025 -37.300  0.00  0.00    +0.000 A 
ATOM      2  C3  UNL     1      26.159  -6.434 -36.347  0.00  0.00    +0.000 A 
ATOM      3  C4  UNL     1      27.131  -7.199 -35.680  0.00  0.00    +0.000 A 
ATOM      4  C19 UNL     1      27.261  -8.560 -35.994  0.00  0.00    +0.000 A 
ATOM      5  C20 UNL     1      26.420  -9.153 -36.937  0.00  0.00    +0.000 A 
ATOM      6  C21 UNL     1      25.434  -8.391 -37.593  0.00  0.00    +0.000 A 
ENDROOT
BRANCH   3   7
ATOM      7  C5  UNL     1      28.062  -6.560 -34.675  0.00  0.00    +0.000 C 
ATOM      8  N1  UNL     1      29.453  -6.928 -34.966  0.00  0.00    +0.000 N 
ATOM      9  C6  UNL     1      30.142  -7.984 -34.286  0.00  0.00    +0.000 A 
ATOM     10  C7  UNL     1      31.363  -8.465 -34.785  0.00  0.00    +0.000 A 
ATOM     11  C8  UNL     1      32.031  -9.501 -34.129  0.00  0.00    +0.000 A 
ATOM     12  C9  UNL     1      31.487 -10.062 -32.970  0.00  0.00    +0.000 A 
ATOM     13  C10 UNL     1      30.275  -9.582 -32.463  0.00  0.00    +0.000 A 
ATOM     14  C11 UNL     1      29.599  -8.539 -33.119  0.00  0.00    +0.000 A 
ATOM     15  C12 UNL     1      28.331  -7.997 -32.602  0.00  0.00    +0.000 C 
ATOM     16  O2  UNL     1      27.845  -8.445 -31.528  0.00  0.00    +0.000 OA
ATOM     17  N2  UNL     1      27.658  -6.938 -33.306  0.00  0.00    +0.000 N 
ATOM     18  H6  UNL     1      29.901  -6.490 -35.803  0.00  0.00    +0.000 HD
BRANCH  17  19
ATOM     19  N3  UNL     1      26.422  -6.478 -32.806  0.00  0.00    +0.000 N 
ATOM     20  H11 UNL     1      26.414  -5.690 -32.118  0.00  0.00    +0.000 HD
BRANCH  19  21
ATOM     21  C13 UNL     1      25.169  -7.074 -33.173  0.00  0.00    +0.000 A 
ATOM     22  C14 UNL     1      25.035  -8.471 -33.267  0.00  0.00    +0.000 A 
ATOM     23  C15 UNL     1      23.812  -9.035 -33.640  0.00  0.00    +0.000 A 
ATOM     24  C16 UNL     1      22.720  -8.211 -33.933  0.00  0.00    +0.000 A 
ATOM     25  C17 UNL     1      22.854  -6.822 -33.860  0.00  0.00    +0.000 A 
ATOM     26  C18 UNL     1      24.076  -6.254 -33.489  0.00  0.00    +0.000 A 
ENDBRANCH  19  21
ENDBRANCH  17  19
ENDBRANCH   3   7
BRANCH   1  28
ATOM     27  C1  UNL     1      23.081  -5.883 -37.408  0.00  0.00    +0.000 C 
ATOM     28  O1  UNL     1      24.323  -6.288 -37.977  0.00  0.00    +0.000 OA
ENDBRANCH   1  28
BRANCH   6  29
ATOM     29  O3  UNL     1      24.565  -8.955 -38.540  0.00  0.00    +0.000 OA
BRANCH  29  30
ATOM     30  C22 UNL     1      24.574  -8.644 -39.930  0.00  0.00    +0.000 C 
BRANCH  30  31
ATOM     31  C23 UNL     1      25.967  -8.756 -40.451  0.00  0.00    +0.000 A 
ATOM     32  C24 UNL     1      26.567  -9.884 -40.963  0.00  0.00    +0.000 A 
ATOM     33  N4  UNL     1      27.827  -9.527 -41.267  0.00  0.00    +0.000 N 
ATOM     34  N6  UNL     1      27.988  -8.248 -40.962  0.00  0.00    +0.000 NA
ATOM     35  N7  UNL     1      26.869  -7.752 -40.452  0.00  0.00    +0.000 NA
BRANCH  33  36
ATOM     36  C25 UNL     1      28.849 -10.357 -41.893  0.00  0.00    +0.000 C 
BRANCH  36  37
ATOM     37  C26 UNL     1      29.467  -9.622 -43.052  0.00  0.00    +0.000 C 
ATOM     38  N5  UNL     1      30.662  -9.882 -43.503  0.00  0.00    +0.000 NA
BRANCH  37  39
ATOM     39  O4  UNL     1      28.704  -8.646 -43.688  0.00  0.00    +0.000 OA
ATOM     40  H24 UNL     1      27.796  -8.376 -43.328  0.00  0.00    +0.000 HD
ENDBRANCH  37  39
BRANCH  38  41
ATOM     41  C27 UNL     1      31.589 -10.870 -42.958  0.00  0.00    +0.000 C 
BRANCH  41  42
ATOM     42  C28 UNL     1      32.250 -11.607 -44.086  0.00  0.00    +0.000 A 
ATOM     43  C29 UNL     1      33.100 -10.929 -44.973  0.00  0.00    +0.000 A 
ATOM     44  C30 UNL     1      33.732 -11.618 -46.011  0.00  0.00    +0.000 A 
ATOM     45  C31 UNL     1      33.543 -13.001 -46.161  0.00  0.00    +0.000 A 
ATOM     46  C32 UNL     1      34.185 -13.734 -47.299  0.00  0.00    +0.000 C 
ATOM     47  C33 UNL     1      32.694 -13.680 -45.273  0.00  0.00    +0.000 A 
ATOM     48  C34 UNL     1      32.062 -12.990 -44.235  0.00  0.00    +0.000 A 
ENDBRANCH  41  42
ENDBRANCH  38  41
ENDBRANCH  36  37
ENDBRANCH  33  36
ENDBRANCH  30  31
ENDBRANCH  29  30
ENDBRANCH   6  29
TORSDOF 12
ENDMDL
MODEL 3
REMARK VINA RESULT:    -5.630      2.549      7.920
REMARK INTER + INTRA:         -13.177
REMARK INTER:                  -9.525
REMARK INTRA:                  -3.652
REMARK UNBOUND:                -3.763
REMARK  Name = resultss/4CJN/ligands/lig_335_t1.pdb
REMARK  14 active torsions:
REMARK  status: ('A' for Active; 'I' for Inactive)
REMARK    1  A    between atoms: C1_1  and  O1_2
REMARK    2  A    between atoms: O1_2  and  C2_3
REMARK    3  A    between atoms: C4_5  and  C5_6
REMARK    4  A    between atoms: N2_16  and  N3_17
REMARK    5  A    between atoms: N3_17  and  C13_18
REMARK    6  A    between atoms: C21_26  and  O3_27
REMARK    7  A    between atoms: O3_27  and  C22_28
REMARK    8  A    between atoms: C22_28  and  C23_29
REMARK    9  A    between atoms: N4_31  and  C25_32
REMARK   10  A    between atoms: C25_32  and  C26_33
REMARK   11  A    between atoms: C26_33  and  O4_34
REMARK   12  A    between atoms: N5_35  and  C27_36
REMARK   13  A    between atoms: C27_36  and  C28_37
REMARK   14  A    between atoms: C31_40  and  C32_41
REMARK                            x       y       z     vdW  Elec       q    Type
REMARK                         _______ _______ _______ _____ _____    ______ ____
ROOT
ATOM      1  C2  UNL     1      30.437  -7.369 -38.190  0.00  0.00    +0.000 A 
ATOM      2  C3  UNL     1      29.984  -7.401 -36.857  0.00  0.00    +0.000 A 
ATOM      3  C4  UNL     1      28.746  -6.836 -36.505  0.00  0.00    +0.000 A 
ATOM      4  C19 UNL     1      27.951  -6.260 -37.507  0.00  0.00    +0.000 A 
ATOM      5  C20 UNL     1      28.394  -6.224 -38.830  0.00  0.00    +0.000 A 
ATOM      6  C21 UNL     1      29.642  -6.773 -39.180  0.00  0.00    +0.000 A 
ENDROOT
BRANCH   3   7
ATOM      7  C5  UNL     1      28.248  -6.893 -35.079  0.00  0.00    +0.000 C 
ATOM      8  N1  UNL     1      29.277  -6.393 -34.161  0.00  0.00    +0.000 N 
ATOM      9  C6  UNL     1      30.159  -7.252 -33.429  0.00  0.00    +0.000 A 
ATOM     10  C7  UNL     1      31.287  -6.722 -32.784  0.00  0.00    +0.000 A 
ATOM     11  C8  UNL     1      32.154  -7.561 -32.080  0.00  0.00    +0.000 A 
ATOM     12  C9  UNL     1      31.899  -8.933 -32.012  0.00  0.00    +0.000 A 
ATOM     13  C10 UNL     1      30.774  -9.467 -32.647  0.00  0.00    +0.000 A 
ATOM     14  C11 UNL     1      29.898  -8.628 -33.357  0.00  0.00    +0.000 A 
ATOM     15  C12 UNL     1      28.693  -9.154 -34.020  0.00  0.00    +0.000 C 
ATOM     16  O2  UNL     1      28.408 -10.379 -33.929  0.00  0.00    +0.000 OA
ATOM     17  N2  UNL     1      27.825  -8.269 -34.750  0.00  0.00    +0.000 N 
ATOM     18  H6  UNL     1      29.460  -5.363 -34.157  0.00  0.00    +0.000 HD
BRANCH  17  19
ATOM     19  N3  UNL     1      26.707  -8.818 -35.411  0.00  0.00    +0.000 N 
ATOM     20  H11 UNL     1      26.851  -9.342 -36.304  0.00  0.00    +0.000 HD
BRANCH  19  21
ATOM     21  C13 UNL     1      25.365  -8.654 -34.928  0.00  0.00    +0.000 A 
ATOM     22  C14 UNL     1      24.390  -8.010 -35.709  0.00  0.00    +0.000 A 
ATOM     23  C15 UNL     1      23.092  -7.846 -35.217  0.00  0.00    +0.000 A 
ATOM     24  C16 UNL     1      22.761  -8.312 -33.940  0.00  0.00    +0.000 A 
ATOM     25  C17 UNL     1      23.732  -8.936 -33.152  0.00  0.00    +0.000 A 
ATOM     26  C18 UNL     1      25.032  -9.099 -33.640  0.00  0.00    +0.000 A 
ENDBRANCH  19  21
ENDBRANCH  17  19
ENDBRANCH   3   7
BRANCH   1  28
ATOM     27  C1  UNL     1      31.907  -9.307 -38.783  0.00  0.00    +0.000 C 
ATOM     28  O1  UNL     1      31.672  -7.918 -38.570  0.00  0.00    +0.000 OA
ENDBRANCH   1  28
BRANCH   6  29
ATOM     29  O3  UNL     1      30.123  -6.748 -40.498  0.00  0.00    +0.000 OA
BRANCH  29  30
ATOM     30  C22 UNL     1      29.631  -5.889 -41.522  0.00  0.00    +0.000 C 
BRANCH  30  31
ATOM     31  C23 UNL     1      28.662  -6.639 -42.372  0.00  0.00    +0.000 A 
ATOM     32  C24 UNL     1      27.352  -6.298 -42.624  0.00  0.00    +0.000 A 
ATOM     33  N4  UNL     1      26.858  -7.278 -43.400  0.00  0.00    +0.000 N 
ATOM     34  N6  UNL     1      27.815  -8.169 -43.615  0.00  0.00    +0.000 NA
ATOM     35  N7  UNL     1      28.927  -7.808 -42.990  0.00  0.00    +0.000 NA
BRANCH  33  36
ATOM     36  C25 UNL     1      25.524  -7.349 -43.985  0.00  0.00    +0.000 C 
BRANCH  36  37
ATOM     37  C26 UNL     1      24.484  -7.253 -42.900  0.00  0.00    +0.000 C 
ATOM     38  N5  UNL     1      24.170  -8.255 -42.127  0.00  0.00    +0.000 NA
BRANCH  37  39
ATOM     39  O4  UNL     1      23.863  -6.024 -42.697  0.00  0.00    +0.000 OA
ATOM     40  H24 UNL     1      22.853  -5.944 -42.686  0.00  0.00    +0.000 HD
ENDBRANCH  37  39
BRANCH  38  41
ATOM     41  C27 UNL     1      24.725  -9.604 -42.201  0.00  0.00    +0.000 C 
BRANCH  41  42
ATOM     42  C28 UNL     1      25.658  -9.822 -41.047  0.00  0.00    +0.000 A 
ATOM     43  C29 UNL     1      26.691 -10.767 -41.141  0.00  0.00    +0.000 A 
ATOM     44  C30 UNL     1      27.574 -10.956 -40.073  0.00  0.00    +0.000 A 
ATOM     45  C31 UNL     1      27.451 -10.184 -38.908  0.00  0.00    +0.000 A 
ATOM     46  C32 UNL     1      28.369 -10.416 -37.746  0.00  0.00    +0.000 C 
ATOM     47  C33 UNL     1      26.419  -9.237 -38.814  0.00  0.00    +0.000 A 
ATOM     48  C34 UNL     1      25.536  -9.049 -39.881  0.00  0.00    +0.000 A 
ENDBRANCH  41  42
ENDBRANCH  38  41
ENDBRANCH  36  37
ENDBRANCH  33  36
ENDBRANCH  30  31
ENDBRANCH  29  30
ENDBRANCH   6  29
TORSDOF 12
ENDMDL
MODEL 4
REMARK VINA RESULT:    -5.617      3.019      9.200
REMARK INTER + INTRA:         -13.155
REMARK INTER:                 -10.815
REMARK INTRA:                  -2.340
REMARK UNBOUND:                -3.763
REMARK  Name = resultss/4CJN/ligands/lig_335_t1.pdb
REMARK  14 active torsions:
REMARK  status: ('A' for Active; 'I' for Inactive)
REMARK    1  A    between atoms: C1_1  and  O1_2
REMARK    2  A    between atoms: O1_2  and  C2_3
REMARK    3  A    between atoms: C4_5  and  C5_6
REMARK    4  A    between atoms: N2_16  and  N3_17
REMARK    5  A    between atoms: N3_17  and  C13_18
REMARK    6  A    between atoms: C21_26  and  O3_27
REMARK    7  A    between atoms: O3_27  and  C22_28
REMARK    8  A    between atoms: C22_28  and  C23_29
REMARK    9  A    between atoms: N4_31  and  C25_32
REMARK   10  A    between atoms: C25_32  and  C26_33
REMARK   11  A    between atoms: C26_33  and  O4_34
REMARK   12  A    between atoms: N5_35  and  C27_36
REMARK   13  A    between atoms: C27_36  and  C28_37
REMARK   14  A    between atoms: C31_40  and  C32_41
REMARK                            x       y       z     vdW  Elec       q    Type
REMARK                         _______ _______ _______ _____ _____    ______ ____
ROOT
ATOM      1  C2  UNL     1      26.470  -8.698 -36.777  0.00  0.00    +0.000 A 
ATOM      2  C3  UNL     1      27.216  -7.966 -35.834  0.00  0.00    +0.000 A 
ATOM      3  C4  UNL     1      26.838  -6.661 -35.476  0.00  0.00    +0.000 A 
ATOM      4  C19 UNL     1      25.688  -6.101 -36.053  0.00  0.00    +0.000 A 
ATOM      5  C20 UNL     1      24.944  -6.821 -36.990  0.00  0.00    +0.000 A 
ATOM      6  C21 UNL     1      25.333  -8.122 -37.362  0.00  0.00    +0.000 A 
ENDROOT
BRANCH   3   7
ATOM      7  C5  UNL     1      27.624  -5.883 -34.444  0.00  0.00    +0.000 C 
ATOM      8  N1  UNL     1      29.051  -5.885 -34.785  0.00  0.00    +0.000 N 
ATOM      9  C6  UNL     1      29.996  -6.785 -34.195  0.00  0.00    +0.000 A 
ATOM     10  C7  UNL     1      31.278  -6.924 -34.748  0.00  0.00    +0.000 A 
ATOM     11  C8  UNL     1      32.197  -7.809 -34.181  0.00  0.00    +0.000 A 
ATOM     12  C9  UNL     1      31.844  -8.559 -33.056  0.00  0.00    +0.000 A 
ATOM     13  C10 UNL     1      30.571  -8.421 -32.495  0.00  0.00    +0.000 A 
ATOM     14  C11 UNL     1      29.642  -7.531 -33.062  0.00  0.00    +0.000 A 
ATOM     15  C12 UNL     1      28.300  -7.346 -32.485  0.00  0.00    +0.000 C 
ATOM     16  O2  UNL     1      27.973  -7.967 -31.437  0.00  0.00    +0.000 OA
ATOM     17  N2  UNL     1      27.369  -6.436 -33.099  0.00  0.00    +0.000 N 
ATOM     18  H6  UNL     1      29.352  -5.298 -35.596  0.00  0.00    +0.000 HD
BRANCH  17  19
ATOM     19  N3  UNL     1      26.077  -6.322 -32.545  0.00  0.00    +0.000 N 
ATOM     20  H11 UNL     1      25.928  -5.685 -31.730  0.00  0.00    +0.000 HD
BRANCH  19  21
ATOM     21  C13 UNL     1      24.958  -7.077 -33.032  0.00  0.00    +0.000 A 
ATOM     22  C14 UNL     1      25.028  -8.477 -33.150  0.00  0.00    +0.000 A 
ATOM     23  C15 UNL     1      23.934  -9.196 -33.640  0.00  0.00    +0.000 A 
ATOM     24  C16 UNL     1      22.769  -8.525 -34.026  0.00  0.00    +0.000 A 
ATOM     25  C17 UNL     1      22.701  -7.132 -33.929  0.00  0.00    +0.000 A 
ATOM     26  C18 UNL     1      23.794  -6.409 -33.441  0.00  0.00    +0.000 A 
ENDBRANCH  19  21
ENDBRANCH  17  19
ENDBRANCH   3   7
BRANCH   1  28
ATOM     27  C1  UNL     1      28.149 -10.410 -37.497  0.00  0.00    +0.000 C 
ATOM     28  O1  UNL     1      26.827 -10.001 -37.159  0.00  0.00    +0.000 OA
ENDBRANCH   1  28
BRANCH   6  29
ATOM     29  O3  UNL     1      24.614  -8.872 -38.306  0.00  0.00    +0.000 OA
BRANCH  29  30
ATOM     30  C22 UNL     1      24.597  -8.606 -39.706  0.00  0.00    +0.000 C 
BRANCH  30  31
ATOM     31  C23 UNL     1      25.890  -9.044 -40.307  0.00  0.00    +0.000 A 
ATOM     32  C24 UNL     1      26.981  -8.252 -40.580  0.00  0.00    +0.000 A 
ATOM     33  N4  UNL     1      27.891  -9.060 -41.150  0.00  0.00    +0.000 N 
ATOM     34  N6  UNL     1      27.386 -10.283 -41.218  0.00  0.00    +0.000 NA
ATOM     35  N7  UNL     1      26.159 -10.301 -40.718  0.00  0.00    +0.000 NA
BRANCH  33  36
ATOM     36  C25 UNL     1      29.242  -8.705 -41.570  0.00  0.00    +0.000 C 
BRANCH  36  37
ATOM     37  C26 UNL     1      29.464  -9.134 -42.996  0.00  0.00    +0.000 C 
ATOM     38  N5  UNL     1      29.087  -8.420 -44.020  0.00  0.00    +0.000 NA
BRANCH  37  39
ATOM     39  O4  UNL     1      30.138 -10.331 -43.220  0.00  0.00    +0.000 OA
ATOM     40  H24 UNL     1      29.843 -10.969 -43.951  0.00  0.00    +0.000 HD
ENDBRANCH  37  39
BRANCH  38  41
ATOM     41  C27 UNL     1      28.376  -7.146 -43.963  0.00  0.00    +0.000 C 
BRANCH  41  42
ATOM     42  C28 UNL     1      27.276  -7.144 -44.985  0.00  0.00    +0.000 A 
ATOM     43  C29 UNL     1      25.933  -7.137 -44.578  0.00  0.00    +0.000 A 
ATOM     44  C30 UNL     1      24.909  -7.114 -45.529  0.00  0.00    +0.000 A 
ATOM     45  C31 UNL     1      25.214  -7.072 -46.898  0.00  0.00    +0.000 A 
ATOM     46  C32 UNL     1      24.118  -7.091 -47.920  0.00  0.00    +0.000 C 
ATOM     47  C33 UNL     1      26.558  -7.078 -47.305  0.00  0.00    +0.000 A 
ATOM     48  C34 UNL     1      27.582  -7.101 -46.354  0.00  0.00    +0.000 A 
ENDBRANCH  41  42
ENDBRANCH  38  41
ENDBRANCH  36  37
ENDBRANCH  33  36
ENDBRANCH  30  31
ENDBRANCH  29  30
ENDBRANCH   6  29
TORSDOF 12
ENDMDL
MODEL 5
REMARK VINA RESULT:    -5.421      2.158      4.978
REMARK INTER + INTRA:         -12.828
REMARK INTER:                  -9.692
REMARK INTRA:                  -3.136
REMARK UNBOUND:                -3.763
REMARK  Name = resultss/4CJN/ligands/lig_335_t1.pdb
REMARK  14 active torsions:
REMARK  status: ('A' for Active; 'I' for Inactive)
REMARK    1  A    between atoms: C1_1  and  O1_2
REMARK    2  A    between atoms: O1_2  and  C2_3
REMARK    3  A    between atoms: C4_5  and  C5_6
REMARK    4  A    between atoms: N2_16  and  N3_17
REMARK    5  A    between atoms: N3_17  and  C13_18
REMARK    6  A    between atoms: C21_26  and  O3_27
REMARK    7  A    between atoms: O3_27  and  C22_28
REMARK    8  A    between atoms: C22_28  and  C23_29
REMARK    9  A    between atoms: N4_31  and  C25_32
REMARK   10  A    between atoms: C25_32  and  C26_33
REMARK   11  A    between atoms: C26_33  and  O4_34
REMARK   12  A    between atoms: N5_35  and  C27_36
REMARK   13  A    between atoms: C27_36  and  C28_37
REMARK   14  A    between atoms: C31_40  and  C32_41
REMARK                            x       y       z     vdW  Elec       q    Type
REMARK                         _______ _______ _______ _____ _____    ______ ____
ROOT
ATOM      1  C2  UNL     1      25.437  -7.863 -36.990  0.00  0.00    +0.000 A 
ATOM      2  C3  UNL     1      25.519  -7.805 -38.395  0.00  0.00    +0.000 A 
ATOM      3  C4  UNL     1      26.739  -7.518 -39.032  0.00  0.00    +0.000 A 
ATOM      4  C19 UNL     1      27.885  -7.312 -38.249  0.00  0.00    +0.000 A 
ATOM      5  C20 UNL     1      27.811  -7.367 -36.856  0.00  0.00    +0.000 A 
ATOM      6  C21 UNL     1      26.586  -7.638 -36.217  0.00  0.00    +0.000 A 
ENDROOT
BRANCH   3   7
ATOM      7  C5  UNL     1      26.834  -7.481 -40.540  0.00  0.00    +0.000 C 
ATOM      8  N1  UNL     1      25.882  -6.505 -41.085  0.00  0.00    +0.000 N 
ATOM      9  C6  UNL     1      24.599  -6.870 -41.607  0.00  0.00    +0.000 A 
ATOM     10  C7  UNL     1      23.634  -5.883 -41.861  0.00  0.00    +0.000 A 
ATOM     11  C8  UNL     1      22.379  -6.238 -42.359  0.00  0.00    +0.000 A 
ATOM     12  C9  UNL     1      22.079  -7.580 -42.610  0.00  0.00    +0.000 A 
ATOM     13  C10 UNL     1      23.038  -8.568 -42.366  0.00  0.00    +0.000 A 
ATOM     14  C11 UNL     1      24.303  -8.216 -41.865  0.00  0.00    +0.000 A 
ATOM     15  C12 UNL     1      25.343  -9.228 -41.615  0.00  0.00    +0.000 C 
ATOM     16  O2  UNL     1      25.120 -10.440 -41.885  0.00  0.00    +0.000 OA
ATOM     17  N2  UNL     1      26.623  -8.835 -41.089  0.00  0.00    +0.000 N 
ATOM     18  H6  UNL     1      26.102  -5.492 -40.951  0.00  0.00    +0.000 HD
BRANCH  17  19
ATOM     19  N3  UNL     1      27.575  -9.839 -40.819  0.00  0.00    +0.000 N 
ATOM     20  H11 UNL     1      27.488 -10.399 -39.941  0.00  0.00    +0.000 HD
BRANCH  19  21
ATOM     21  C13 UNL     1      28.690 -10.101 -41.685  0.00  0.00    +0.000 A 
ATOM     22  C14 UNL     1      28.950  -9.278 -42.795  0.00  0.00    +0.000 A 
ATOM     23  C15 UNL     1      30.031  -9.556 -43.637  0.00  0.00    +0.000 A 
ATOM     24  C16 UNL     1      30.850 -10.661 -43.385  0.00  0.00    +0.000 A 
ATOM     25  C17 UNL     1      30.584 -11.493 -42.294  0.00  0.00    +0.000 A 
ATOM     26  C18 UNL     1      29.503 -11.220 -41.451  0.00  0.00    +0.000 A 
ENDBRANCH  19  21
ENDBRANCH  17  19
ENDBRANCH   3   7
BRANCH   1  28
ATOM     27  C1  UNL     1      23.113  -7.262 -36.279  0.00  0.00    +0.000 C 
ATOM     28  O1  UNL     1      24.232  -8.142 -36.326  0.00  0.00    +0.000 OA
ENDBRANCH   1  28
BRANCH   6  29
ATOM     29  O3  UNL     1      26.472  -7.693 -34.819  0.00  0.00    +0.000 OA
BRANCH  29  30
ATOM     30  C22 UNL     1      26.932  -8.773 -34.012  0.00  0.00    +0.000 C 
BRANCH  30  31
ATOM     31  C23 UNL     1      28.232  -8.400 -33.385  0.00  0.00    +0.000 A 
ATOM     32  C24 UNL     1      29.297  -9.237 -33.139  0.00  0.00    +0.000 A 
ATOM     33  N4  UNL     1      30.228  -8.482 -32.530  0.00  0.00    +0.000 N 
ATOM     34  N6  UNL     1      29.759  -7.248 -32.413  0.00  0.00    +0.000 NA
ATOM     35  N7  UNL     1      28.537  -7.171 -32.920  0.00  0.00    +0.000 NA
BRANCH  33  36
ATOM     36  C25 UNL     1      31.564  -8.896 -32.117  0.00  0.00    +0.000 C 
BRANCH  36  37
ATOM     37  C26 UNL     1      32.018 -10.064 -32.951  0.00  0.00    +0.000 C 
ATOM     38  N5  UNL     1      32.751  -9.932 -34.020  0.00  0.00    +0.000 NA
BRANCH  37  39
ATOM     39  O4  UNL     1      31.664 -11.343 -32.529  0.00  0.00    +0.000 OA
ATOM     40  H24 UNL     1      31.021 -11.481 -31.758  0.00  0.00    +0.000 HD
ENDBRANCH  37  39
BRANCH  38  41
ATOM     41  C27 UNL     1      33.210  -8.671 -34.595  0.00  0.00    +0.000 C 
BRANCH  41  42
ATOM     42  C28 UNL     1      32.635  -8.514 -35.972  0.00  0.00    +0.000 A 
ATOM     43  C29 UNL     1      32.823  -7.320 -36.686  0.00  0.00    +0.000 A 
ATOM     44  C30 UNL     1      32.306  -7.180 -37.977  0.00  0.00    +0.000 A 
ATOM     45  C31 UNL     1      31.616  -8.242 -38.581  0.00  0.00    +0.000 A 
ATOM     46  C32 UNL     1      31.022  -8.079 -39.948  0.00  0.00    +0.000 C 
ATOM     47  C33 UNL     1      31.429  -9.437 -37.869  0.00  0.00    +0.000 A 
ATOM     48  C34 UNL     1      31.946  -9.576 -36.578  0.00  0.00    +0.000 A 
ENDBRANCH  41  42
ENDBRANCH  38  41
ENDBRANCH  36  37
ENDBRANCH  33  36
ENDBRANCH  30  31
ENDBRANCH  29  30
ENDBRANCH   6  29
TORSDOF 12
ENDMDL
MODEL 6
REMARK VINA RESULT:    -5.418      1.912      3.118
REMARK INTER + INTRA:         -12.823
REMARK INTER:                 -10.697
REMARK INTRA:                  -2.126
REMARK UNBOUND:                -3.763
REMARK  Name = resultss/4CJN/ligands/lig_335_t1.pdb
REMARK  14 active torsions:
REMARK  status: ('A' for Active; 'I' for Inactive)
REMARK    1  A    between atoms: C1_1  and  O1_2
REMARK    2  A    between atoms: O1_2  and  C2_3
REMARK    3  A    between atoms: C4_5  and  C5_6
REMARK    4  A    between atoms: N2_16  and  N3_17
REMARK    5  A    between atoms: N3_17  and  C13_18
REMARK    6  A    between atoms: C21_26  and  O3_27
REMARK    7  A    between atoms: O3_27  and  C22_28
REMARK    8  A    between atoms: C22_28  and  C23_29
REMARK    9  A    between atoms: N4_31  and  C25_32
REMARK   10  A    between atoms: C25_32  and  C26_33
REMARK   11  A    between atoms: C26_33  and  O4_34
REMARK   12  A    between atoms: N5_35  and  C27_36
REMARK   13  A    between atoms: C27_36  and  C28_37
REMARK   14  A    between atoms: C31_40  and  C32_41
REMARK                            x       y       z     vdW  Elec       q    Type
REMARK                         _______ _______ _______ _____ _____    ______ ____
ROOT
ATOM      1  C2  UNL     1      32.605  -8.174 -39.239  0.00  0.00    +0.000 A 
ATOM      2  C3  UNL     1      31.837  -8.696 -40.298  0.00  0.00    +0.000 A 
ATOM      3  C4  UNL     1      30.566  -8.171 -40.590  0.00  0.00    +0.000 A 
ATOM      4  C19 UNL     1      30.079  -7.099 -39.827  0.00  0.00    +0.000 A 
ATOM      5  C20 UNL     1      30.835  -6.577 -38.776  0.00  0.00    +0.000 A 
ATOM      6  C21 UNL     1      32.100  -7.114 -38.471  0.00  0.00    +0.000 A 
ENDROOT
BRANCH   3   7
ATOM      7  C5  UNL     1      29.752  -8.714 -41.743  0.00  0.00    +0.000 C 
ATOM      8  N1  UNL     1      28.552  -7.895 -41.946  0.00  0.00    +0.000 N 
ATOM      9  C6  UNL     1      27.263  -8.252 -41.433  0.00  0.00    +0.000 A 
ATOM     10  C7  UNL     1      26.221  -7.311 -41.424  0.00  0.00    +0.000 A 
ATOM     11  C8  UNL     1      24.968  -7.654 -40.914  0.00  0.00    +0.000 A 
ATOM     12  C9  UNL     1      24.744  -8.938 -40.411  0.00  0.00    +0.000 A 
ATOM     13  C10 UNL     1      25.775  -9.883 -40.423  0.00  0.00    +0.000 A 
ATOM     14  C11 UNL     1      27.038  -9.543 -40.936  0.00  0.00    +0.000 A 
ATOM     15  C12 UNL     1      28.140 -10.519 -40.981  0.00  0.00    +0.000 C 
ATOM     16  O2  UNL     1      27.951 -11.702 -40.586  0.00  0.00    +0.000 OA
ATOM     17  N2  UNL     1      29.426 -10.134 -41.501  0.00  0.00    +0.000 N 
ATOM     18  H6  UNL     1      28.683  -6.944 -42.362  0.00  0.00    +0.000 HD
BRANCH  17  19
ATOM     19  N3  UNL     1      30.469 -11.082 -41.484  0.00  0.00    +0.000 N 
ATOM     20  H11 UNL     1      30.744 -11.519 -40.575  0.00  0.00    +0.000 HD
BRANCH  19  21
ATOM     21  C13 UNL     1      31.201 -11.448 -42.663  0.00  0.00    +0.000 A 
ATOM     22  C14 UNL     1      31.388 -12.799 -43.007  0.00  0.00    +0.000 A 
ATOM     23  C15 UNL     1      32.116 -13.138 -44.151  0.00  0.00    +0.000 A 
ATOM     24  C16 UNL     1      32.670 -12.135 -44.952  0.00  0.00    +0.000 A 
ATOM     25  C17 UNL     1      32.503 -10.791 -44.605  0.00  0.00    +0.000 A 
ATOM     26  C18 UNL     1      31.778 -10.448 -43.460  0.00  0.00    +0.000 A 
ENDBRANCH  19  21
ENDBRANCH  17  19
ENDBRANCH   3   7
BRANCH   1  28
ATOM     27  C1  UNL     1      34.104  -9.914 -38.242  0.00  0.00    +0.000 C 
ATOM     28  O1  UNL     1      33.874  -8.681 -38.919  0.00  0.00    +0.000 OA
ENDBRANCH   1  28
BRANCH   6  29
ATOM     29  O3  UNL     1      32.884  -6.621 -37.417  0.00  0.00    +0.000 OA
BRANCH  29  30
ATOM     30  C22 UNL     1      32.402  -6.374 -36.099  0.00  0.00    +0.000 C 
BRANCH  30  31
ATOM     31  C23 UNL     1      31.945  -7.658 -35.492  0.00  0.00    +0.000 A 
ATOM     32  C24 UNL     1      30.670  -7.960 -35.070  0.00  0.00    +0.000 A 
ATOM     33  N4  UNL     1      30.735  -9.202 -34.559  0.00  0.00    +0.000 N 
ATOM     34  N6  UNL     1      31.982  -9.637 -34.668  0.00  0.00    +0.000 NA
ATOM     35  N7  UNL     1      32.746  -8.710 -35.226  0.00  0.00    +0.000 NA
BRANCH  33  36
ATOM     36  C25 UNL     1      29.631  -9.995 -34.033  0.00  0.00    +0.000 C 
BRANCH  36  37
ATOM     37  C26 UNL     1      28.673  -9.106 -33.286  0.00  0.00    +0.000 C 
ATOM     38  N5  UNL     1      27.428  -8.948 -33.639  0.00  0.00    +0.000 NA
BRANCH  37  39
ATOM     39  O4  UNL     1      29.139  -8.457 -32.146  0.00  0.00    +0.000 OA
ATOM     40  H24 UNL     1      29.892  -7.780 -32.200  0.00  0.00    +0.000 HD
ENDBRANCH  37  39
BRANCH  38  41
ATOM     41  C27 UNL     1      26.781  -9.554 -34.799  0.00  0.00    +0.000 C 
BRANCH  41  42
ATOM     42  C28 UNL     1      25.457  -8.887 -35.035  0.00  0.00    +0.000 A 
ATOM     43  C29 UNL     1      25.123  -8.410 -36.312  0.00  0.00    +0.000 A 
ATOM     44  C30 UNL     1      23.882  -7.808 -36.537  0.00  0.00    +0.000 A 
ATOM     45  C31 UNL     1      22.949  -7.698 -35.495  0.00  0.00    +0.000 A 
ATOM     46  C32 UNL     1      21.636  -7.012 -35.724  0.00  0.00    +0.000 C 
ATOM     47  C33 UNL     1      23.282  -8.176 -34.219  0.00  0.00    +0.000 A 
ATOM     48  C34 UNL     1      24.523  -8.778 -33.993  0.00  0.00    +0.000 A 
ENDBRANCH  41  42
ENDBRANCH  38  41
ENDBRANCH  36  37
ENDBRANCH  33  36
ENDBRANCH  30  31
ENDBRANCH  29  30
ENDBRANCH   6  29
TORSDOF 12
ENDMDL
MODEL 7
REMARK VINA RESULT:    -5.402      2.250      3.239
REMARK INTER + INTRA:         -12.797
REMARK INTER:                  -9.935
REMARK INTRA:                  -2.862
REMARK UNBOUND:                -3.763
REMARK  Name = resultss/4CJN/ligands/lig_335_t1.pdb
REMARK  14 active torsions:
REMARK  status: ('A' for Active; 'I' for Inactive)
REMARK    1  A    between atoms: C1_1  and  O1_2
REMARK    2  A    between atoms: O1_2  and  C2_3
REMARK    3  A    between atoms: C4_5  and  C5_6
REMARK    4  A    between atoms: N2_16  and  N3_17
REMARK    5  A    between atoms: N3_17  and  C13_18
REMARK    6  A    between atoms: C21_26  and  O3_27
REMARK    7  A    between atoms: O3_27  and  C22_28
REMARK    8  A    between atoms: C22_28  and  C23_29
REMARK    9  A    between atoms: N4_31  and  C25_32
REMARK   10  A    between atoms: C25_32  and  C26_33
REMARK   11  A    between atoms: C26_33  and  O4_34
REMARK   12  A    between atoms: N5_35  and  C27_36
REMARK   13  A    between atoms: C27_36  and  C28_37
REMARK   14  A    between atoms: C31_40  and  C32_41
REMARK                            x       y       z     vdW  Elec       q    Type
REMARK                         _______ _______ _______ _____ _____    ______ ____
ROOT
ATOM      1  C2  UNL     1      32.818  -8.752 -38.901  0.00  0.00    +0.000 A 
ATOM      2  C3  UNL     1      32.071  -9.076 -40.050  0.00  0.00    +0.000 A 
ATOM      3  C4  UNL     1      30.784  -8.544 -40.243  0.00  0.00    +0.000 A 
ATOM      4  C19 UNL     1      30.260  -7.663 -39.286  0.00  0.00    +0.000 A 
ATOM      5  C20 UNL     1      30.994  -7.338 -38.145  0.00  0.00    +0.000 A 
ATOM      6  C21 UNL     1      32.276  -7.884 -37.942  0.00  0.00    +0.000 A 
ENDROOT
BRANCH   3   7
ATOM      7  C5  UNL     1      29.991  -8.871 -41.489  0.00  0.00    +0.000 C 
ATOM      8  N1  UNL     1      28.864  -7.944 -41.631  0.00  0.00    +0.000 N 
ATOM      9  C6  UNL     1      27.529  -8.264 -41.221  0.00  0.00    +0.000 A 
ATOM     10  C7  UNL     1      26.558  -7.255 -41.131  0.00  0.00    +0.000 A 
ATOM     11  C8  UNL     1      25.259  -7.563 -40.720  0.00  0.00    +0.000 A 
ATOM     12  C9  UNL     1      24.921  -8.881 -40.400  0.00  0.00    +0.000 A 
ATOM     13  C10 UNL     1      25.881  -9.892 -40.494  0.00  0.00    +0.000 A 
ATOM     14  C11 UNL     1      27.190  -9.587 -40.907  0.00  0.00    +0.000 A 
ATOM     15  C12 UNL     1      28.221 -10.630 -41.036  0.00  0.00    +0.000 C 
ATOM     16  O2  UNL     1      27.930 -11.836 -40.808  0.00  0.00    +0.000 OA
ATOM     17  N2  UNL     1      29.555 -10.282 -41.449  0.00  0.00    +0.000 N 
ATOM     18  H6  UNL     1      29.082  -6.960 -41.913  0.00  0.00    +0.000 HD
BRANCH  17  19
ATOM     19  N3  UNL     1      30.526 -11.301 -41.515  0.00  0.00    +0.000 N 
ATOM     20  H11 UNL     1      30.735 -11.860 -40.657  0.00  0.00    +0.000 HD
BRANCH  19  21
ATOM     21  C13 UNL     1      31.273 -11.582 -42.708  0.00  0.00    +0.000 A 
ATOM     22  C14 UNL     1      31.530 -12.906 -43.104  0.00  0.00    +0.000 A 
ATOM     23  C15 UNL     1      32.272 -13.161 -44.261  0.00  0.00    +0.000 A 
ATOM     24  C16 UNL     1      32.771 -12.100 -45.023  0.00  0.00    +0.000 A 
ATOM     25  C17 UNL     1      32.535 -10.782 -44.622  0.00  0.00    +0.000 A 
ATOM     26  C18 UNL     1      31.796 -10.522 -43.465  0.00  0.00    +0.000 A 
ENDBRANCH  19  21
ENDBRANCH  17  19
ENDBRANCH   3   7
BRANCH   1  28
ATOM     27  C1  UNL     1      34.369 -10.585 -38.191  0.00  0.00    +0.000 C 
ATOM     28  O1  UNL     1      34.102  -9.272 -38.677  0.00  0.00    +0.000 OA
ENDBRANCH   1  28
BRANCH   6  29
ATOM     29  O3  UNL     1      33.040  -7.587 -36.802  0.00  0.00    +0.000 OA
BRANCH  29  30
ATOM     30  C22 UNL     1      32.888  -6.412 -36.011  0.00  0.00    +0.000 C 
BRANCH  30  31
ATOM     31  C23 UNL     1      32.672  -6.800 -34.587  0.00  0.00    +0.000 A 
ATOM     32  C24 UNL     1      32.776  -8.065 -34.055  0.00  0.00    +0.000 A 
ATOM     33  N4  UNL     1      32.459  -7.946 -32.754  0.00  0.00    +0.000 N 
ATOM     34  N6  UNL     1      32.179  -6.675 -32.503  0.00  0.00    +0.000 NA
ATOM     35  N7  UNL     1      32.293  -5.953 -33.609  0.00  0.00    +0.000 NA
BRANCH  33  36
ATOM     36  C25 UNL     1      32.476  -8.998 -31.744  0.00  0.00    +0.000 C 
BRANCH  36  37
ATOM     37  C26 UNL     1      31.794 -10.230 -32.277  0.00  0.00    +0.000 C 
ATOM     38  N5  UNL     1      30.521 -10.272 -32.557  0.00  0.00    +0.000 NA
BRANCH  37  39
ATOM     39  O4  UNL     1      32.575 -11.358 -32.513  0.00  0.00    +0.000 OA
ATOM     40  H24 UNL     1      32.833 -11.983 -31.758  0.00  0.00    +0.000 HD
ENDBRANCH  37  39
BRANCH  38  41
ATOM     41  C27 UNL     1      29.565  -9.184 -32.374  0.00  0.00    +0.000 C 
BRANCH  41  42
ATOM     42  C28 UNL     1      28.911  -8.870 -33.688  0.00  0.00    +0.000 A 
ATOM     43  C29 UNL     1      28.969  -7.571 -34.214  0.00  0.00    +0.000 A 
ATOM     44  C30 UNL     1      28.379  -7.282 -35.448  0.00  0.00    +0.000 A 
ATOM     45  C31 UNL     1      27.745  -8.295 -36.183  0.00  0.00    +0.000 A 
ATOM     46  C32 UNL     1      27.073  -7.979 -37.485  0.00  0.00    +0.000 C 
ATOM     47  C33 UNL     1      27.688  -9.596 -35.658  0.00  0.00    +0.000 A 
ATOM     48  C34 UNL     1      28.279  -9.884 -34.424  0.00  0.00    +0.000 A 
ENDBRANCH  41  42
ENDBRANCH  38  41
ENDBRANCH  36  37
ENDBRANCH  33  36
ENDBRANCH  30  31
ENDBRANCH  29  30
ENDBRANCH   6  29
TORSDOF 12
ENDMDL
MODEL 8
REMARK VINA RESULT:    -5.296      2.761      9.320
REMARK INTER + INTRA:         -12.620
REMARK INTER:                  -9.990
REMARK INTRA:                  -2.630
REMARK UNBOUND:                -3.763
REMARK  Name = resultss/4CJN/ligands/lig_335_t1.pdb
REMARK  14 active torsions:
REMARK  status: ('A' for Active; 'I' for Inactive)
REMARK    1  A    between atoms: C1_1  and  O1_2
REMARK    2  A    between atoms: O1_2  and  C2_3
REMARK    3  A    between atoms: C4_5  and  C5_6
REMARK    4  A    between atoms: N2_16  and  N3_17
REMARK    5  A    between atoms: N3_17  and  C13_18
REMARK    6  A    between atoms: C21_26  and  O3_27
REMARK    7  A    between atoms: O3_27  and  C22_28
REMARK    8  A    between atoms: C22_28  and  C23_29
REMARK    9  A    between atoms: N4_31  and  C25_32
REMARK   10  A    between atoms: C25_32  and  C26_33
REMARK   11  A    between atoms: C26_33  and  O4_34
REMARK   12  A    between atoms: N5_35  and  C27_36
REMARK   13  A    between atoms: C27_36  and  C28_37
REMARK   14  A    between atoms: C31_40  and  C32_41
REMARK                            x       y       z     vdW  Elec       q    Type
REMARK                         _______ _______ _______ _____ _____    ______ ____
ROOT
ATOM      1  C2  UNL     1      26.442  -7.172 -37.760  0.00  0.00    +0.000 A 
ATOM      2  C3  UNL     1      27.192  -6.548 -36.744  0.00  0.00    +0.000 A 
ATOM      3  C4  UNL     1      27.897  -7.313 -35.799  0.00  0.00    +0.000 A 
ATOM      4  C19 UNL     1      27.865  -8.712 -35.894  0.00  0.00    +0.000 A 
ATOM      5  C20 UNL     1      27.123  -9.337 -36.898  0.00  0.00    +0.000 A 
ATOM      6  C21 UNL     1      26.403  -8.572 -37.834  0.00  0.00    +0.000 A 
ENDROOT
BRANCH   3   7
ATOM      7  C5  UNL     1      28.723  -6.644 -34.723  0.00  0.00    +0.000 C 
ATOM      8  N1  UNL     1      30.125  -7.065 -34.824  0.00  0.00    +0.000 N 
ATOM      9  C6  UNL     1      30.693  -8.099 -34.012  0.00  0.00    +0.000 A 
ATOM     10  C7  UNL     1      31.947  -8.640 -34.334  0.00  0.00    +0.000 A 
ATOM     11  C8  UNL     1      32.497  -9.656 -33.549  0.00  0.00    +0.000 A 
ATOM     12  C9  UNL     1      31.801 -10.136 -32.437  0.00  0.00    +0.000 A 
ATOM     13  C10 UNL     1      30.554  -9.597 -32.106  0.00  0.00    +0.000 A 
ATOM     14  C11 UNL     1      29.996  -8.574 -32.892  0.00  0.00    +0.000 A 
ATOM     15  C12 UNL     1      28.694  -7.971 -32.562  0.00  0.00    +0.000 C 
ATOM     16  O2  UNL     1      28.069  -8.345 -31.532  0.00  0.00    +0.000 OA
ATOM     17  N2  UNL     1      28.145  -6.934 -33.395  0.00  0.00    +0.000 N 
ATOM     18  H6  UNL     1      30.684  -6.686 -35.623  0.00  0.00    +0.000 HD
BRANCH  17  19
ATOM     19  N3  UNL     1      26.875  -6.415 -33.073  0.00  0.00    +0.000 N 
ATOM     20  H11 UNL     1      26.810  -5.590 -32.434  0.00  0.00    +0.000 HD
BRANCH  19  21
ATOM     21  C13 UNL     1      25.656  -6.997 -33.557  0.00  0.00    +0.000 A 
ATOM     22  C14 UNL     1      24.713  -6.222 -34.255  0.00  0.00    +0.000 A 
ATOM     23  C15 UNL     1      23.524  -6.801 -34.707  0.00  0.00    +0.000 A 
ATOM     24  C16 UNL     1      23.262  -8.152 -34.456  0.00  0.00    +0.000 A 
ATOM     25  C17 UNL     1      24.187  -8.922 -33.746  0.00  0.00    +0.000 A 
ATOM     26  C18 UNL     1      25.377  -8.346 -33.291  0.00  0.00    +0.000 A 
ENDBRANCH  19  21
ENDBRANCH  17  19
ENDBRANCH   3   7
BRANCH   1  28
ATOM     27  C1  UNL     1      24.405  -5.932 -38.521  0.00  0.00    +0.000 C 
ATOM     28  O1  UNL     1      25.724  -6.434 -38.714  0.00  0.00    +0.000 OA
ENDBRANCH   1  28
BRANCH   6  29
ATOM     29  O3  UNL     1      25.640  -9.165 -38.852  0.00  0.00    +0.000 OA
BRANCH  29  30
ATOM     30  C22 UNL     1      26.184  -9.875 -39.961  0.00  0.00    +0.000 C 
BRANCH  30  31
ATOM     31  C23 UNL     1      25.477  -9.459 -41.207  0.00  0.00    +0.000 A 
ATOM     32  C24 UNL     1      25.177  -8.173 -41.592  0.00  0.00    +0.000 A 
ATOM     33  N4  UNL     1      24.507  -8.282 -42.753  0.00  0.00    +0.000 N 
ATOM     34  N6  UNL     1      24.407  -9.566 -43.062  0.00  0.00    +0.000 NA
ATOM     35  N7  UNL     1      24.983 -10.310 -42.130  0.00  0.00    +0.000 NA
BRANCH  33  36
ATOM     36  C25 UNL     1      24.020  -7.193 -43.592  0.00  0.00    +0.000 C 
BRANCH  36  37
ATOM     37  C26 UNL     1      24.640  -7.286 -44.961  0.00  0.00    +0.000 C 
ATOM     38  N5  UNL     1      25.770  -6.714 -45.270  0.00  0.00    +0.000 NA
BRANCH  37  39
ATOM     39  O4  UNL     1      23.986  -8.052 -45.923  0.00  0.00    +0.000 OA
ATOM     40  H24 UNL     1      22.975  -8.063 -45.984  0.00  0.00    +0.000 HD
ENDBRANCH  37  39
BRANCH  38  41
ATOM     41  C27 UNL     1      26.581  -5.883 -44.385  0.00  0.00    +0.000 C 
BRANCH  41  42
ATOM     42  C28 UNL     1      27.563  -6.749 -43.651  0.00  0.00    +0.000 A 
ATOM     43  C29 UNL     1      28.172  -6.288 -42.474  0.00  0.00    +0.000 A 
ATOM     44  C30 UNL     1      29.070  -7.103 -41.779  0.00  0.00    +0.000 A 
ATOM     45  C31 UNL     1      29.351  -8.399 -42.237  0.00  0.00    +0.000 A 
ATOM     46  C32 UNL     1      30.346  -9.257 -41.517  0.00  0.00    +0.000 C 
ATOM     47  C33 UNL     1      28.741  -8.861 -43.413  0.00  0.00    +0.000 A 
ATOM     48  C34 UNL     1      27.843  -8.047 -44.109  0.00  0.00    +0.000 A 
ENDBRANCH  41  42
ENDBRANCH  38  41
ENDBRANCH  36  37
ENDBRANCH  33  36
ENDBRANCH  30  31
ENDBRANCH  29  30
ENDBRANCH   6  29
TORSDOF 12
ENDMDL
MODEL 9
REMARK VINA RESULT:    -5.156      2.409      8.939
REMARK INTER + INTRA:         -12.385
REMARK INTER:                  -8.486
REMARK INTRA:                  -3.899
REMARK UNBOUND:                -3.763
REMARK  Name = resultss/4CJN/ligands/lig_335_t1.pdb
REMARK  14 active torsions:
REMARK  status: ('A' for Active; 'I' for Inactive)
REMARK    1  A    between atoms: C1_1  and  O1_2
REMARK    2  A    between atoms: O1_2  and  C2_3
REMARK    3  A    between atoms: C4_5  and  C5_6
REMARK    4  A    between atoms: N2_16  and  N3_17
REMARK    5  A    between atoms: N3_17  and  C13_18
REMARK    6  A    between atoms: C21_26  and  O3_27
REMARK    7  A    between atoms: O3_27  and  C22_28
REMARK    8  A    between atoms: C22_28  and  C23_29
REMARK    9  A    between atoms: N4_31  and  C25_32
REMARK   10  A    between atoms: C25_32  and  C26_33
REMARK   11  A    between atoms: C26_33  and  O4_34
REMARK   12  A    between atoms: N5_35  and  C27_36
REMARK   13  A    between atoms: C27_36  and  C28_37
REMARK   14  A    between atoms: C31_40  and  C32_41
REMARK                            x       y       z     vdW  Elec       q    Type
REMARK                         _______ _______ _______ _____ _____    ______ ____
ROOT
ATOM      1  C2  UNL     1      26.202  -6.694 -37.588  0.00  0.00    +0.000 A 
ATOM      2  C3  UNL     1      27.425  -6.360 -36.975  0.00  0.00    +0.000 A 
ATOM      3  C4  UNL     1      28.551  -7.189 -37.119  0.00  0.00    +0.000 A 
ATOM      4  C19 UNL     1      28.449  -8.346 -37.905  0.00  0.00    +0.000 A 
ATOM      5  C20 UNL     1      27.240  -8.684 -38.515  0.00  0.00    +0.000 A 
ATOM      6  C21 UNL     1      26.108  -7.864 -38.357  0.00  0.00    +0.000 A 
ENDROOT
BRANCH   3   7
ATOM      7  C5  UNL     1      29.871  -6.818 -36.482  0.00  0.00    +0.000 C 
ATOM      8  N1  UNL     1      30.928  -6.765 -37.499  0.00  0.00    +0.000 N 
ATOM      9  C6  UNL     1      31.840  -7.843 -37.738  0.00  0.00    +0.000 A 
ATOM     10  C7  UNL     1      32.644  -7.845 -38.889  0.00  0.00    +0.000 A 
ATOM     11  C8  UNL     1      33.525  -8.901 -39.129  0.00  0.00    +0.000 A 
ATOM     12  C9  UNL     1      33.613  -9.960 -38.222  0.00  0.00    +0.000 A 
ATOM     13  C10 UNL     1      32.820  -9.962 -37.070  0.00  0.00    +0.000 A 
ATOM     14  C11 UNL     1      31.932  -8.901 -36.823  0.00  0.00    +0.000 A 
ATOM     15  C12 UNL     1      31.096  -8.861 -35.611  0.00  0.00    +0.000 C 
ATOM     16  O2  UNL     1      31.195  -9.775 -34.747  0.00  0.00    +0.000 OA
ATOM     17  N2  UNL     1      30.187  -7.767 -35.395  0.00  0.00    +0.000 N 
ATOM     18  H6  UNL     1      30.914  -5.959 -38.165  0.00  0.00    +0.000 HD
BRANCH  17  19
ATOM     19  N3  UNL     1      29.371  -7.788 -34.246  0.00  0.00    +0.000 N 
ATOM     20  H11 UNL     1      29.743  -7.397 -33.351  0.00  0.00    +0.000 HD
BRANCH  19  21
ATOM     21  C13 UNL     1      28.055  -8.361 -34.244  0.00  0.00    +0.000 A 
ATOM     22  C14 UNL     1      27.825  -9.643 -34.773  0.00  0.00    +0.000 A 
ATOM     23  C15 UNL     1      26.535 -10.181 -34.776  0.00  0.00    +0.000 A 
ATOM     24  C16 UNL     1      25.465  -9.440 -34.263  0.00  0.00    +0.000 A 
ATOM     25  C17 UNL     1      25.685  -8.158 -33.754  0.00  0.00    +0.000 A 
ATOM     26  C18 UNL     1      26.973  -7.616 -33.751  0.00  0.00    +0.000 A 
ENDBRANCH  19  21
ENDBRANCH  17  19
ENDBRANCH   3   7
BRANCH   1  28
ATOM     27  C1  UNL     1      24.148  -5.952 -36.364  0.00  0.00    +0.000 C 
ATOM     28  O1  UNL     1      25.060  -5.889 -37.457  0.00  0.00    +0.000 OA
ENDBRANCH   1  28
BRANCH   6  29
ATOM     29  O3  UNL     1      24.873  -8.176 -38.948  0.00  0.00    +0.000 OA
BRANCH  29  30
ATOM     30  C22 UNL     1      24.660  -9.257 -39.850  0.00  0.00    +0.000 C 
BRANCH  30  31
ATOM     31  C23 UNL     1      24.729  -8.751 -41.252  0.00  0.00    +0.000 A 
ATOM     32  C24 UNL     1      24.847  -7.438 -41.648  0.00  0.00    +0.000 A 
ATOM     33  N4  UNL     1      24.830  -7.455 -42.992  0.00  0.00    +0.000 N 
ATOM     34  N6  UNL     1      24.712  -8.711 -43.396  0.00  0.00    +0.000 NA
ATOM     35  N7  UNL     1      24.639  -9.525 -42.353  0.00  0.00    +0.000 NA
BRANCH  33  36
ATOM     36  C25 UNL     1      24.983  -6.314 -43.887  0.00  0.00    +0.000 C 
BRANCH  36  37
ATOM     37  C26 UNL     1      25.786  -6.716 -45.096  0.00  0.00    +0.000 C 
ATOM     38  N5  UNL     1      27.073  -6.531 -45.188  0.00  0.00    +0.000 NA
BRANCH  37  39
ATOM     39  O4  UNL     1      25.118  -7.349 -46.141  0.00  0.00    +0.000 OA
ATOM     40  H24 UNL     1      24.123  -7.534 -46.090  0.00  0.00    +0.000 HD
ENDBRANCH  37  39
BRANCH  38  41
ATOM     41  C27 UNL     1      27.922  -5.890 -44.188  0.00  0.00    +0.000 C 
BRANCH  41  42
ATOM     42  C28 UNL     1      28.543  -6.942 -43.316  0.00  0.00    +0.000 A 
ATOM     43  C29 UNL     1      29.039  -6.606 -42.047  0.00  0.00    +0.000 A 
ATOM     44  C30 UNL     1      29.598  -7.589 -41.225  0.00  0.00    +0.000 A 
ATOM     45  C31 UNL     1      29.645  -8.925 -41.652  0.00  0.00    +0.000 A 
ATOM     46  C32 UNL     1      30.284  -9.973 -40.791  0.00  0.00    +0.000 C 
ATOM     47  C33 UNL     1      29.148  -9.262 -42.920  0.00  0.00    +0.000 A 
ATOM     48  C34 UNL     1      28.589  -8.279 -43.742  0.00  0.00    +0.000 A 
ENDBRANCH  41  42
ENDBRANCH  38  41
ENDBRANCH  36  37
ENDBRANCH  33  36
ENDBRANCH  30  31
ENDBRANCH  29  30
ENDBRANCH   6  29
TORSDOF 12
ENDMDL
