MODEL 1
REMARK VINA RESULT:    -5.966      0.000      0.000
REMARK INTER + INTRA:          -9.941
REMARK INTER:                  -7.884
REMARK INTRA:                  -2.057
REMARK UNBOUND:                -2.057
REMARK  Name = resultss/4CJN/ligands/lig_264_t2.pdb
REMARK  6 active torsions:
REMARK  status: ('A' for Active; 'I' for Inactive)
REMARK    1  A    between atoms: C1_2  and  C17_22
REMARK    2  A    between atoms: N1_3  and  C2_4
REMARK    3  A    between atoms: C5_8  and  C6_9
REMARK    4  A    between atoms: C6_9  and  O2_10
REMARK    5  A    between atoms: N2_11  and  C7_12
REMARK    6  A    between atoms: C7_12  and  C8_13
REMARK                            x       y       z     vdW  Elec       q    Type
REMARK                         _______ _______ _______ _____ _____    ______ ____
ROOT
ATOM      1  C2  UNL     1      25.414  -8.788 -39.287  0.00  0.00    +0.000 A 
ATOM      2  S1  UNL     1      24.670  -8.049 -40.632  0.00  0.00    +0.000 S 
ATOM      3  C3  UNL     1      25.886  -8.504 -41.688  0.00  0.00    +0.000 A 
ATOM      4  C4  UNL     1      26.841  -9.209 -41.055  0.00  0.00    +0.000 A 
ATOM      5  C5  UNL     1      26.620  -9.399 -39.683  0.00  0.00    +0.000 A 
ATOM      6  C14 UNL     1      27.946  -9.583 -41.967  0.00  0.00    +0.000 C 
ATOM      7  C15 UNL     1      27.508  -8.975 -43.325  0.00  0.00    +0.000 C 
ATOM      8  C16 UNL     1      26.145  -8.271 -43.117  0.00  0.00    +0.000 C 
ENDROOT
BRANCH   1  11
ATOM      9  O1  UNL     1      25.797  -6.957 -37.108  0.00  0.00    +0.000 OA
ATOM     10  C1  UNL     1      25.058  -7.962 -36.915  0.00  0.00    +0.000 C 
ATOM     11  N1  UNL     1      24.821  -8.897 -37.983  0.00  0.00    +0.000 N 
ATOM     12  H1  UNL     1      24.138  -9.670 -37.830  0.00  0.00    +0.000 HD
BRANCH  10  13
ATOM     13  C17 UNL     1      24.447  -8.159 -35.578  0.00  0.00    +0.000 A 
ATOM     14  C18 UNL     1      25.196  -8.732 -34.537  0.00  0.00    +0.000 A 
ATOM     15  C19 UNL     1      24.622  -8.924 -33.280  0.00  0.00    +0.000 A 
ATOM     16  C20 UNL     1      23.294  -8.549 -33.071  0.00  0.00    +0.000 A 
ATOM     17  N3  UNL     1      22.573  -8.010 -34.088  0.00  0.00    +0.000 NA
ATOM     18  C21 UNL     1      23.109  -7.810 -35.321  0.00  0.00    +0.000 A 
ENDBRANCH  10  13
ENDBRANCH   1  11
BRANCH   5  19
ATOM     19  C6  UNL     1      27.564 -10.093 -38.779  0.00  0.00    +0.000 C 
ATOM     20  N2  UNL     1      28.114  -9.428 -37.805  0.00  0.00    +0.000 NA
BRANCH  19  21
ATOM     21  O2  UNL     1      27.830 -11.451 -38.975  0.00  0.00    +0.000 OA
ATOM     22  H2  UNL     1      28.711 -11.885 -38.728  0.00  0.00    +0.000 HD
ENDBRANCH  19  21
BRANCH  20  23
ATOM     23  C7  UNL     1      29.045  -9.976 -36.827  0.00  0.00    +0.000 C 
BRANCH  23  24
ATOM     24  C8  UNL     1      28.910  -9.211 -35.543  0.00  0.00    +0.000 A 
ATOM     25  C9  UNL     1      28.741  -7.817 -35.560  0.00  0.00    +0.000 A 
ATOM     26  C10 UNL     1      28.570  -7.113 -34.364  0.00  0.00    +0.000 A 
ATOM     27  C11 UNL     1      28.555  -7.798 -33.145  0.00  0.00    +0.000 A 
ATOM     28  C12 UNL     1      28.706  -9.187 -33.121  0.00  0.00    +0.000 A 
ATOM     29  C13 UNL     1      28.878  -9.894 -34.316  0.00  0.00    +0.000 A 
ENDBRANCH  23  24
ENDBRANCH  20  23
ENDBRANCH   5  19
TORSDOF 6
ENDMDL
MODEL 2
REMARK VINA RESULT:    -5.735      2.393      6.467
REMARK INTER + INTRA:          -9.636
REMARK INTER:                  -7.748
REMARK INTRA:                  -1.888
REMARK UNBOUND:                -2.057
REMARK  Name = resultss/4CJN/ligands/lig_264_t2.pdb
REMARK  6 active torsions:
REMARK  status: ('A' for Active; 'I' for Inactive)
REMARK    1  A    between atoms: C1_2  and  C17_22
REMARK    2  A    between atoms: N1_3  and  C2_4
REMARK    3  A    between atoms: C5_8  and  C6_9
REMARK    4  A    between atoms: C6_9  and  O2_10
REMARK    5  A    between atoms: N2_11  and  C7_12
REMARK    6  A    between atoms: C7_12  and  C8_13
REMARK                            x       y       z     vdW  Elec       q    Type
REMARK                         _______ _______ _______ _____ _____    ______ ____
ROOT
ATOM      1  C2  UNL     1      24.014  -7.932 -37.039  0.00  0.00    +0.000 A 
ATOM      2  S1  UNL     1      22.852  -6.745 -36.656  0.00  0.00    +0.000 S 
ATOM      3  C3  UNL     1      23.327  -6.643 -35.055  0.00  0.00    +0.000 A 
ATOM      4  C4  UNL     1      24.350  -7.478 -34.798  0.00  0.00    +0.000 A 
ATOM      5  C5  UNL     1      24.780  -8.237 -35.897  0.00  0.00    +0.000 A 
ATOM      6  C14 UNL     1      24.757  -7.432 -33.375  0.00  0.00    +0.000 C 
ATOM      7  C15 UNL     1      23.784  -6.391 -32.761  0.00  0.00    +0.000 C 
ATOM      8  C16 UNL     1      22.853  -5.883 -33.889  0.00  0.00    +0.000 C 
ENDROOT
BRANCH   1  11
ATOM      9  O1  UNL     1      25.575  -6.616 -39.058  0.00  0.00    +0.000 OA
ATOM     10  C1  UNL     1      25.045  -7.723 -39.347  0.00  0.00    +0.000 C 
ATOM     11  N1  UNL     1      24.269  -8.430 -38.362  0.00  0.00    +0.000 N 
ATOM     12  H1  UNL     1      23.915  -9.383 -38.593  0.00  0.00    +0.000 HD
BRANCH  10  13
ATOM     13  C17 UNL     1      25.233  -8.275 -40.711  0.00  0.00    +0.000 A 
ATOM     14  C18 UNL     1      26.383  -7.952 -41.450  0.00  0.00    +0.000 A 
ATOM     15  C19 UNL     1      26.559  -8.465 -42.736  0.00  0.00    +0.000 A 
ATOM     16  C20 UNL     1      25.578  -9.293 -43.282  0.00  0.00    +0.000 A 
ATOM     17  N3  UNL     1      24.461  -9.587 -42.566  0.00  0.00    +0.000 NA
ATOM     18  C21 UNL     1      24.267  -9.102 -41.310  0.00  0.00    +0.000 A 
ENDBRANCH  10  13
ENDBRANCH   1  11
BRANCH   5  19
ATOM     19  C6  UNL     1      25.850  -9.259 -35.832  0.00  0.00    +0.000 C 
ATOM     20  N2  UNL     1      26.895  -9.132 -36.596  0.00  0.00    +0.000 NA
BRANCH  19  21
ATOM     21  O2  UNL     1      25.727 -10.325 -34.937  0.00  0.00    +0.000 OA
ATOM     22  H2  UNL     1      25.920 -10.243 -33.946  0.00  0.00    +0.000 HD
ENDBRANCH  19  21
BRANCH  20  23
ATOM     23  C7  UNL     1      28.033 -10.042 -36.632  0.00  0.00    +0.000 C 
BRANCH  23  24
ATOM     24  C8  UNL     1      28.470 -10.221 -38.056  0.00  0.00    +0.000 A 
ATOM     25  C9  UNL     1      27.608 -10.811 -38.996  0.00  0.00    +0.000 A 
ATOM     26  C10 UNL     1      28.003 -10.934 -40.332  0.00  0.00    +0.000 A 
ATOM     27  C11 UNL     1      29.253 -10.460 -40.739  0.00  0.00    +0.000 A 
ATOM     28  C12 UNL     1      30.108  -9.856 -39.813  0.00  0.00    +0.000 A 
ATOM     29  C13 UNL     1      29.718  -9.732 -38.477  0.00  0.00    +0.000 A 
ENDBRANCH  23  24
ENDBRANCH  20  23
ENDBRANCH   5  19
TORSDOF 6
ENDMDL
MODEL 3
REMARK VINA RESULT:    -5.712      2.620      7.559
REMARK INTER + INTRA:          -9.606
REMARK INTER:                  -7.349
REMARK INTRA:                  -2.257
REMARK UNBOUND:                -2.057
REMARK  Name = resultss/4CJN/ligands/lig_264_t2.pdb
REMARK  6 active torsions:
REMARK  status: ('A' for Active; 'I' for Inactive)
REMARK    1  A    between atoms: C1_2  and  C17_22
REMARK    2  A    between atoms: N1_3  and  C2_4
REMARK    3  A    between atoms: C5_8  and  C6_9
REMARK    4  A    between atoms: C6_9  and  O2_10
REMARK    5  A    between atoms: N2_11  and  C7_12
REMARK    6  A    between atoms: C7_12  and  C8_13
REMARK                            x       y       z     vdW  Elec       q    Type
REMARK                         _______ _______ _______ _____ _____    ______ ____
ROOT
ATOM      1  C2  UNL     1      27.265  -9.564 -37.159  0.00  0.00    +0.000 A 
ATOM      2  S1  UNL     1      27.559  -9.903 -35.514  0.00  0.00    +0.000 S 
ATOM      3  C3  UNL     1      26.133  -9.191 -35.003  0.00  0.00    +0.000 A 
ATOM      4  C4  UNL     1      25.430  -8.709 -36.044  0.00  0.00    +0.000 A 
ATOM      5  C5  UNL     1      26.033  -8.895 -37.297  0.00  0.00    +0.000 A 
ATOM      6  C14 UNL     1      24.185  -8.038 -35.606  0.00  0.00    +0.000 C 
ATOM      7  C15 UNL     1      24.225  -8.188 -34.062  0.00  0.00    +0.000 C 
ATOM      8  C16 UNL     1      25.517  -8.954 -33.689  0.00  0.00    +0.000 C 
ENDROOT
BRANCH   1  11
ATOM      9  O1  UNL     1      29.305  -8.048 -38.496  0.00  0.00    +0.000 OA
ATOM     10  C1  UNL     1      29.080  -9.222 -38.898  0.00  0.00    +0.000 C 
ATOM     11  N1  UNL     1      28.080 -10.028 -38.247  0.00  0.00    +0.000 N 
ATOM     12  H1  UNL     1      27.972 -11.024 -38.537  0.00  0.00    +0.000 HD
BRANCH  10  13
ATOM     13  C17 UNL     1      29.857  -9.750 -40.045  0.00  0.00    +0.000 A 
ATOM     14  C18 UNL     1      29.267 -10.659 -40.939  0.00  0.00    +0.000 A 
ATOM     15  C19 UNL     1      29.999 -11.161 -42.017  0.00  0.00    +0.000 A 
ATOM     16  C20 UNL     1      31.323 -10.758 -42.190  0.00  0.00    +0.000 A 
ATOM     17  N3  UNL     1      31.890  -9.891 -41.312  0.00  0.00    +0.000 NA
ATOM     18  C21 UNL     1      31.199  -9.385 -40.256  0.00  0.00    +0.000 A 
ENDBRANCH  10  13
ENDBRANCH   1  11
BRANCH   5  19
ATOM     19  C6  UNL     1      25.468  -8.396 -38.571  0.00  0.00    +0.000 C 
ATOM     20  N2  UNL     1      26.105  -7.470 -39.227  0.00  0.00    +0.000 NA
BRANCH  19  21
ATOM     21  O2  UNL     1      24.277  -8.943 -39.056  0.00  0.00    +0.000 OA
ATOM     22  H2  UNL     1      24.245  -9.659 -39.771  0.00  0.00    +0.000 HD
ENDBRANCH  19  21
BRANCH  20  23
ATOM     23  C7  UNL     1      25.686  -6.893 -40.498  0.00  0.00    +0.000 C 
BRANCH  23  24
ATOM     24  C8  UNL     1      26.649  -7.319 -41.567  0.00  0.00    +0.000 A 
ATOM     25  C9  UNL     1      27.926  -6.739 -41.647  0.00  0.00    +0.000 A 
ATOM     26  C10 UNL     1      28.836  -7.170 -42.617  0.00  0.00    +0.000 A 
ATOM     27  C11 UNL     1      28.481  -8.190 -43.505  0.00  0.00    +0.000 A 
ATOM     28  C12 UNL     1      27.219  -8.784 -43.421  0.00  0.00    +0.000 A 
ATOM     29  C13 UNL     1      26.306  -8.354 -42.453  0.00  0.00    +0.000 A 
ENDBRANCH  23  24
ENDBRANCH  20  23
ENDBRANCH   5  19
TORSDOF 6
ENDMDL
MODEL 4
REMARK VINA RESULT:    -5.686      1.830      4.255
REMARK INTER + INTRA:          -9.571
REMARK INTER:                  -8.027
REMARK INTRA:                  -1.544
REMARK UNBOUND:                -2.057
REMARK  Name = resultss/4CJN/ligands/lig_264_t2.pdb
REMARK  6 active torsions:
REMARK  status: ('A' for Active; 'I' for Inactive)
REMARK    1  A    between atoms: C1_2  and  C17_22
REMARK    2  A    between atoms: N1_3  and  C2_4
REMARK    3  A    between atoms: C5_8  and  C6_9
REMARK    4  A    between atoms: C6_9  and  O2_10
REMARK    5  A    between atoms: N2_11  and  C7_12
REMARK    6  A    between atoms: C7_12  and  C8_13
REMARK                            x       y       z     vdW  Elec       q    Type
REMARK                         _______ _______ _______ _____ _____    ______ ____
ROOT
ATOM      1  C2  UNL     1      27.817  -9.530 -38.627  0.00  0.00    +0.000 A 
ATOM      2  S1  UNL     1      29.070  -9.970 -39.697  0.00  0.00    +0.000 S 
ATOM      3  C3  UNL     1      28.181  -9.593 -41.063  0.00  0.00    +0.000 A 
ATOM      4  C4  UNL     1      26.960  -9.133 -40.736  0.00  0.00    +0.000 A 
ATOM      5  C5  UNL     1      26.701  -9.078 -39.358  0.00  0.00    +0.000 A 
ATOM      6  C14 UNL     1      26.144  -8.833 -41.935  0.00  0.00    +0.000 C 
ATOM      7  C15 UNL     1      27.091  -9.193 -43.109  0.00  0.00    +0.000 C 
ATOM      8  C16 UNL     1      28.430  -9.689 -42.509  0.00  0.00    +0.000 C 
ENDROOT
BRANCH   1  11
ATOM      9  O1  UNL     1      29.430  -7.680 -37.137  0.00  0.00    +0.000 OA
ATOM     10  C1  UNL     1      28.779  -8.549 -36.495  0.00  0.00    +0.000 C 
ATOM     11  N1  UNL     1      27.942  -9.486 -37.197  0.00  0.00    +0.000 N 
ATOM     12  H1  UNL     1      27.344 -10.137 -36.642  0.00  0.00    +0.000 HD
BRANCH  10  13
ATOM     13  C17 UNL     1      28.895  -8.586 -35.017  0.00  0.00    +0.000 A 
ATOM     14  C18 UNL     1      28.625  -7.434 -34.259  0.00  0.00    +0.000 A 
ATOM     15  C19 UNL     1      28.739  -7.465 -32.868  0.00  0.00    +0.000 A 
ATOM     16  C20 UNL     1      29.134  -8.648 -32.241  0.00  0.00    +0.000 A 
ATOM     17  N3  UNL     1      29.408  -9.752 -32.984  0.00  0.00    +0.000 NA
ATOM     18  C21 UNL     1      29.301  -9.749 -34.339  0.00  0.00    +0.000 A 
ENDBRANCH  10  13
ENDBRANCH   1  11
BRANCH   5  19
ATOM     19  C6  UNL     1      25.408  -8.660 -38.773  0.00  0.00    +0.000 C 
ATOM     20  N2  UNL     1      25.405  -7.865 -37.743  0.00  0.00    +0.000 NA
BRANCH  19  21
ATOM     21  O2  UNL     1      24.216  -9.108 -39.351  0.00  0.00    +0.000 OA
ATOM     22  H2  UNL     1      23.970 -10.087 -39.426  0.00  0.00    +0.000 HD
ENDBRANCH  19  21
BRANCH  20  23
ATOM     23  C7  UNL     1      24.216  -7.355 -37.071  0.00  0.00    +0.000 C 
BRANCH  23  24
ATOM     24  C8  UNL     1      24.102  -8.004 -35.723  0.00  0.00    +0.000 A 
ATOM     25  C9  UNL     1      25.243  -8.510 -35.078  0.00  0.00    +0.000 A 
ATOM     26  C10 UNL     1      25.139  -9.074 -33.803  0.00  0.00    +0.000 A 
ATOM     27  C11 UNL     1      23.899  -9.125 -33.159  0.00  0.00    +0.000 A 
ATOM     28  C12 UNL     1      22.763  -8.607 -33.786  0.00  0.00    +0.000 A 
ATOM     29  C13 UNL     1      22.863  -8.044 -35.062  0.00  0.00    +0.000 A 
ENDBRANCH  23  24
ENDBRANCH  20  23
ENDBRANCH   5  19
TORSDOF 6
ENDMDL
MODEL 5
REMARK VINA RESULT:    -5.565      3.049      6.967
REMARK INTER + INTRA:          -9.412
REMARK INTER:                  -7.236
REMARK INTRA:                  -2.176
REMARK UNBOUND:                -2.057
REMARK  Name = resultss/4CJN/ligands/lig_264_t2.pdb
REMARK  6 active torsions:
REMARK  status: ('A' for Active; 'I' for Inactive)
REMARK    1  A    between atoms: C1_2  and  C17_22
REMARK    2  A    between atoms: N1_3  and  C2_4
REMARK    3  A    between atoms: C5_8  and  C6_9
REMARK    4  A    between atoms: C6_9  and  O2_10
REMARK    5  A    between atoms: N2_11  and  C7_12
REMARK    6  A    between atoms: C7_12  and  C8_13
REMARK                            x       y       z     vdW  Elec       q    Type
REMARK                         _______ _______ _______ _____ _____    ______ ____
ROOT
ATOM      1  C2  UNL     1      27.966  -9.188 -36.793  0.00  0.00    +0.000 A 
ATOM      2  S1  UNL     1      27.356  -9.266 -35.203  0.00  0.00    +0.000 S 
ATOM      3  C3  UNL     1      28.874  -9.421 -34.514  0.00  0.00    +0.000 A 
ATOM      4  C4  UNL     1      29.836  -9.408 -35.454  0.00  0.00    +0.000 A 
ATOM      5  C5  UNL     1      29.372  -9.278 -36.771  0.00  0.00    +0.000 A 
ATOM      6  C14 UNL     1      31.183  -9.586 -34.865  0.00  0.00    +0.000 C 
ATOM      7  C15 UNL     1      30.894  -9.717 -33.347  0.00  0.00    +0.000 C 
ATOM      8  C16 UNL     1      29.364  -9.602 -33.140  0.00  0.00    +0.000 C 
ENDROOT
BRANCH   1  11
ATOM      9  O1  UNL     1      27.618 -10.954 -39.031  0.00  0.00    +0.000 OA
ATOM     10  C1  UNL     1      27.043  -9.831 -39.067  0.00  0.00    +0.000 C 
ATOM     11  N1  UNL     1      27.173  -8.919 -37.961  0.00  0.00    +0.000 N 
ATOM     12  H1  UNL     1      26.619  -8.036 -37.971  0.00  0.00    +0.000 HD
BRANCH  10  13
ATOM     13  C17 UNL     1      26.243  -9.472 -40.262  0.00  0.00    +0.000 A 
ATOM     14  C18 UNL     1      25.936  -8.127 -40.528  0.00  0.00    +0.000 A 
ATOM     15  C19 UNL     1      25.178  -7.786 -41.650  0.00  0.00    +0.000 A 
ATOM     16  C20 UNL     1      24.719  -8.797 -42.496  0.00  0.00    +0.000 A 
ATOM     17  N3  UNL     1      25.007 -10.096 -42.222  0.00  0.00    +0.000 NA
ATOM     18  C21 UNL     1      25.746 -10.453 -41.138  0.00  0.00    +0.000 A 
ENDBRANCH  10  13
ENDBRANCH   1  11
BRANCH   5  19
ATOM     19  C6  UNL     1      30.247  -9.297 -37.965  0.00  0.00    +0.000 C 
ATOM     20  N2  UNL     1      30.236  -8.280 -38.776  0.00  0.00    +0.000 NA
BRANCH  19  21
ATOM     21  O2  UNL     1      31.082 -10.396 -38.186  0.00  0.00    +0.000 OA
ATOM     22  H2  UNL     1      31.374 -11.028 -37.451  0.00  0.00    +0.000 HD
ENDBRANCH  19  21
BRANCH  20  23
ATOM     23  C7  UNL     1      31.051  -8.147 -39.977  0.00  0.00    +0.000 C 
BRANCH  23  24
ATOM     24  C8  UNL     1      30.200  -8.436 -41.178  0.00  0.00    +0.000 A 
ATOM     25  C9  UNL     1      30.011  -9.757 -41.615  0.00  0.00    +0.000 A 
ATOM     26  C10 UNL     1      29.180 -10.026 -42.707  0.00  0.00    +0.000 A 
ATOM     27  C11 UNL     1      28.525  -8.980 -43.362  0.00  0.00    +0.000 A 
ATOM     28  C12 UNL     1      28.694  -7.664 -42.922  0.00  0.00    +0.000 A 
ATOM     29  C13 UNL     1      29.524  -7.391 -41.831  0.00  0.00    +0.000 A 
ENDBRANCH  23  24
ENDBRANCH  20  23
ENDBRANCH   5  19
TORSDOF 6
ENDMDL
MODEL 6
REMARK VINA RESULT:    -5.551      2.562      5.777
REMARK INTER + INTRA:          -9.393
REMARK INTER:                  -8.268
REMARK INTRA:                  -1.125
REMARK UNBOUND:                -2.057
REMARK  Name = resultss/4CJN/ligands/lig_264_t2.pdb
REMARK  6 active torsions:
REMARK  status: ('A' for Active; 'I' for Inactive)
REMARK    1  A    between atoms: C1_2  and  C17_22
REMARK    2  A    between atoms: N1_3  and  C2_4
REMARK    3  A    between atoms: C5_8  and  C6_9
REMARK    4  A    between atoms: C6_9  and  O2_10
REMARK    5  A    between atoms: N2_11  and  C7_12
REMARK    6  A    between atoms: C7_12  and  C8_13
REMARK                            x       y       z     vdW  Elec       q    Type
REMARK                         _______ _______ _______ _____ _____    ______ ____
ROOT
ATOM      1  C2  UNL     1      28.808  -8.697 -35.597  0.00  0.00    +0.000 A 
ATOM      2  S1  UNL     1      30.088  -8.297 -34.544  0.00  0.00    +0.000 S 
ATOM      3  C3  UNL     1      31.260  -8.932 -35.556  0.00  0.00    +0.000 A 
ATOM      4  C4  UNL     1      30.714  -9.435 -36.677  0.00  0.00    +0.000 A 
ATOM      5  C5  UNL     1      29.317  -9.327 -36.751  0.00  0.00    +0.000 A 
ATOM      6  C14 UNL     1      31.733 -10.039 -37.565  0.00  0.00    +0.000 C 
ATOM      7  C15 UNL     1      33.056  -9.823 -36.786  0.00  0.00    +0.000 C 
ATOM      8  C16 UNL     1      32.720  -9.088 -35.465  0.00  0.00    +0.000 C 
ENDROOT
BRANCH   1  11
ATOM      9  O1  UNL     1      26.705 -10.401 -34.638  0.00  0.00    +0.000 OA
ATOM     10  C1  UNL     1      26.414  -9.209 -34.935  0.00  0.00    +0.000 C 
ATOM     11  N1  UNL     1      27.438  -8.313 -35.402  0.00  0.00    +0.000 N 
ATOM     12  H1  UNL     1      27.194  -7.310 -35.556  0.00  0.00    +0.000 HD
BRANCH  10  13
ATOM     13  C17 UNL     1      25.009  -8.758 -34.796  0.00  0.00    +0.000 A 
ATOM     14  C18 UNL     1      24.307  -8.990 -33.601  0.00  0.00    +0.000 A 
ATOM     15  C19 UNL     1      22.982  -8.571 -33.470  0.00  0.00    +0.000 A 
ATOM     16  C20 UNL     1      22.360  -7.929 -34.541  0.00  0.00    +0.000 A 
ATOM     17  N3  UNL     1      23.041  -7.723 -35.698  0.00  0.00    +0.000 NA
ATOM     18  C21 UNL     1      24.333  -8.118 -35.851  0.00  0.00    +0.000 A 
ENDBRANCH  10  13
ENDBRANCH   1  11
BRANCH   5  19
ATOM     19  C6  UNL     1      28.501  -9.862 -37.863  0.00  0.00    +0.000 C 
ATOM     20  N2  UNL     1      28.253  -9.102 -38.891  0.00  0.00    +0.000 NA
BRANCH  19  21
ATOM     21  O2  UNL     1      28.031 -11.177 -37.800  0.00  0.00    +0.000 OA
ATOM     22  H2  UNL     1      27.096 -11.446 -38.081  0.00  0.00    +0.000 HD
ENDBRANCH  19  21
BRANCH  20  23
ATOM     23  C7  UNL     1      27.484  -9.492 -40.066  0.00  0.00    +0.000 C 
BRANCH  23  24
ATOM     24  C8  UNL     1      28.430  -9.782 -41.193  0.00  0.00    +0.000 A 
ATOM     25  C9  UNL     1      28.549  -8.887 -42.270  0.00  0.00    +0.000 A 
ATOM     26  C10 UNL     1      29.464  -9.139 -43.297  0.00  0.00    +0.000 A 
ATOM     27  C11 UNL     1      30.274 -10.277 -43.249  0.00  0.00    +0.000 A 
ATOM     28  C12 UNL     1      30.174 -11.162 -42.173  0.00  0.00    +0.000 A 
ATOM     29  C13 UNL     1      29.259 -10.915 -41.145  0.00  0.00    +0.000 A 
ENDBRANCH  23  24
ENDBRANCH  20  23
ENDBRANCH   5  19
TORSDOF 6
ENDMDL
MODEL 7
REMARK VINA RESULT:    -5.549      3.535      5.655
REMARK INTER + INTRA:          -9.390
REMARK INTER:                  -8.186
REMARK INTRA:                  -1.204
REMARK UNBOUND:                -2.057
REMARK  Name = resultss/4CJN/ligands/lig_264_t2.pdb
REMARK  6 active torsions:
REMARK  status: ('A' for Active; 'I' for Inactive)
REMARK    1  A    between atoms: C1_2  and  C17_22
REMARK    2  A    between atoms: N1_3  and  C2_4
REMARK    3  A    between atoms: C5_8  and  C6_9
REMARK    4  A    between atoms: C6_9  and  O2_10
REMARK    5  A    between atoms: N2_11  and  C7_12
REMARK    6  A    between atoms: C7_12  and  C8_13
REMARK                            x       y       z     vdW  Elec       q    Type
REMARK                         _______ _______ _______ _____ _____    ______ ____
ROOT
ATOM      1  C2  UNL     1      26.067  -8.179 -42.441  0.00  0.00    +0.000 A 
ATOM      2  S1  UNL     1      27.326  -8.338 -43.580  0.00  0.00    +0.000 S 
ATOM      3  C3  UNL     1      28.213  -9.378 -42.614  0.00  0.00    +0.000 A 
ATOM      4  C4  UNL     1      27.580  -9.618 -41.451  0.00  0.00    +0.000 A 
ATOM      5  C5  UNL     1      26.351  -8.958 -41.302  0.00  0.00    +0.000 A 
ATOM      6  C14 UNL     1      28.371 -10.504 -40.566  0.00  0.00    +0.000 C 
ATOM      7  C15 UNL     1      29.649 -10.789 -41.398  0.00  0.00    +0.000 C 
ATOM      8  C16 UNL     1      29.520 -10.037 -42.745  0.00  0.00    +0.000 C 
ENDROOT
BRANCH   1  11
ATOM      9  O1  UNL     1      23.526  -9.390 -43.010  0.00  0.00    +0.000 OA
ATOM     10  C1  UNL     1      23.588  -8.130 -42.976  0.00  0.00    +0.000 C 
ATOM     11  N1  UNL     1      24.835  -7.478 -42.676  0.00  0.00    +0.000 N 
ATOM     12  H1  UNL     1      24.845  -6.441 -42.566  0.00  0.00    +0.000 HD
BRANCH  10  13
ATOM     13  C17 UNL     1      22.362  -7.343 -43.252  0.00  0.00    +0.000 A 
ATOM     14  C18 UNL     1      21.517  -6.960 -42.197  0.00  0.00    +0.000 A 
ATOM     15  C19 UNL     1      20.359  -6.224 -42.454  0.00  0.00    +0.000 A 
ATOM     16  C20 UNL     1      20.045  -5.883 -43.770  0.00  0.00    +0.000 A 
ATOM     17  N3  UNL     1      20.860  -6.271 -44.786  0.00  0.00    +0.000 NA
ATOM     18  C21 UNL     1      21.995  -6.986 -44.561  0.00  0.00    +0.000 A 
ENDBRANCH  10  13
ENDBRANCH   1  11
BRANCH   5  19
ATOM     19  C6  UNL     1      25.513  -9.031 -40.084  0.00  0.00    +0.000 C 
ATOM     20  N2  UNL     1      25.964  -8.526 -38.973  0.00  0.00    +0.000 NA
BRANCH  19  21
ATOM     21  O2  UNL     1      24.247  -9.619 -40.156  0.00  0.00    +0.000 OA
ATOM     22  H2  UNL     1      23.403  -9.098 -40.360  0.00  0.00    +0.000 HD
ENDBRANCH  19  21
BRANCH  20  23
ATOM     23  C7  UNL     1      25.250  -8.505 -37.702  0.00  0.00    +0.000 C 
BRANCH  23  24
ATOM     24  C8  UNL     1      26.141  -9.069 -36.635  0.00  0.00    +0.000 A 
ATOM     25  C9  UNL     1      27.491  -9.344 -36.907  0.00  0.00    +0.000 A 
ATOM     26  C10 UNL     1      28.329  -9.827 -35.896  0.00  0.00    +0.000 A 
ATOM     27  C11 UNL     1      27.827 -10.027 -34.607  0.00  0.00    +0.000 A 
ATOM     28  C12 UNL     1      26.489  -9.739 -34.324  0.00  0.00    +0.000 A 
ATOM     29  C13 UNL     1      25.648  -9.257 -35.333  0.00  0.00    +0.000 A 
ENDBRANCH  23  24
ENDBRANCH  20  23
ENDBRANCH   5  19
TORSDOF 6
ENDMDL
MODEL 8
REMARK VINA RESULT:    -5.530      2.536      6.325
REMARK INTER + INTRA:          -9.365
REMARK INTER:                  -8.055
REMARK INTRA:                  -1.311
REMARK UNBOUND:                -2.057
REMARK  Name = resultss/4CJN/ligands/lig_264_t2.pdb
REMARK  6 active torsions:
REMARK  status: ('A' for Active; 'I' for Inactive)
REMARK    1  A    between atoms: C1_2  and  C17_22
REMARK    2  A    between atoms: N1_3  and  C2_4
REMARK    3  A    between atoms: C5_8  and  C6_9
REMARK    4  A    between atoms: C6_9  and  O2_10
REMARK    5  A    between atoms: N2_11  and  C7_12
REMARK    6  A    between atoms: C7_12  and  C8_13
REMARK                            x       y       z     vdW  Elec       q    Type
REMARK                         _______ _______ _______ _____ _____    ______ ____
ROOT
ATOM      1  C2  UNL     1      27.011  -8.271 -40.496  0.00  0.00    +0.000 A 
ATOM      2  S1  UNL     1      28.648  -8.661 -40.772  0.00  0.00    +0.000 S 
ATOM      3  C3  UNL     1      28.875  -9.267 -39.229  0.00  0.00    +0.000 A 
ATOM      4  C4  UNL     1      27.743  -9.192 -38.507  0.00  0.00    +0.000 A 
ATOM      5  C5  UNL     1      26.649  -8.632 -39.183  0.00  0.00    +0.000 A 
ATOM      6  C14 UNL     1      27.937  -9.686 -37.124  0.00  0.00    +0.000 C 
ATOM      7  C15 UNL     1      29.432 -10.099 -37.101  0.00  0.00    +0.000 C 
ATOM      8  C16 UNL     1      30.029  -9.815 -38.501  0.00  0.00    +0.000 C 
ENDROOT
BRANCH   1  11
ATOM      9  O1  UNL     1      25.189  -9.881 -42.023  0.00  0.00    +0.000 OA
ATOM     10  C1  UNL     1      25.220  -8.641 -42.254  0.00  0.00    +0.000 C 
ATOM     11  N1  UNL     1      26.104  -7.791 -41.501  0.00  0.00    +0.000 N 
ATOM     12  H1  UNL     1      26.050  -6.759 -41.645  0.00  0.00    +0.000 HD
BRANCH  10  13
ATOM     13  C17 UNL     1      24.339  -8.084 -43.309  0.00  0.00    +0.000 A 
ATOM     14  C18 UNL     1      24.890  -7.614 -44.513  0.00  0.00    +0.000 A 
ATOM     15  C19 UNL     1      24.064  -7.084 -45.505  0.00  0.00    +0.000 A 
ATOM     16  C20 UNL     1      22.688  -7.017 -45.284  0.00  0.00    +0.000 A 
ATOM     17  N3  UNL     1      22.166  -7.460 -44.110  0.00  0.00    +0.000 NA
ATOM     18  C21 UNL     1      22.949  -7.983 -43.129  0.00  0.00    +0.000 A 
ENDBRANCH  10  13
ENDBRANCH   1  11
BRANCH   5  19
ATOM     19  C6  UNL     1      25.323  -8.399 -38.566  0.00  0.00    +0.000 C 
ATOM     20  N2  UNL     1      25.228  -7.588 -37.553  0.00  0.00    +0.000 NA
BRANCH  19  21
ATOM     21  O2  UNL     1      24.198  -9.037 -39.097  0.00  0.00    +0.000 OA
ATOM     22  H2  UNL     1      23.562  -8.590 -39.746  0.00  0.00    +0.000 HD
ENDBRANCH  19  21
BRANCH  20  23
ATOM     23  C7  UNL     1      23.995  -7.247 -36.856  0.00  0.00    +0.000 C 
BRANCH  23  24
ATOM     24  C8  UNL     1      23.987  -7.928 -35.519  0.00  0.00    +0.000 A 
ATOM     25  C9  UNL     1      25.192  -8.327 -34.917  0.00  0.00    +0.000 A 
ATOM     26  C10 UNL     1      25.183  -8.921 -33.651  0.00  0.00    +0.000 A 
ATOM     27  C11 UNL     1      23.975  -9.109 -32.974  0.00  0.00    +0.000 A 
ATOM     28  C12 UNL     1      22.774  -8.698 -33.559  0.00  0.00    +0.000 A 
ATOM     29  C13 UNL     1      22.779  -8.105 -34.825  0.00  0.00    +0.000 A 
ENDBRANCH  23  24
ENDBRANCH  20  23
ENDBRANCH   5  19
TORSDOF 6
ENDMDL
MODEL 9
REMARK VINA RESULT:    -5.519      1.996      2.626
REMARK INTER + INTRA:          -9.351
REMARK INTER:                  -7.300
REMARK INTRA:                  -2.051
REMARK UNBOUND:                -2.057
REMARK  Name = resultss/4CJN/ligands/lig_264_t2.pdb
REMARK  6 active torsions:
REMARK  status: ('A' for Active; 'I' for Inactive)
REMARK    1  A    between atoms: C1_2  and  C17_22
REMARK    2  A    between atoms: N1_3  and  C2_4
REMARK    3  A    between atoms: C5_8  and  C6_9
REMARK    4  A    between atoms: C6_9  and  O2_10
REMARK    5  A    between atoms: N2_11  and  C7_12
REMARK    6  A    between atoms: C7_12  and  C8_13
REMARK                            x       y       z     vdW  Elec       q    Type
REMARK                         _______ _______ _______ _____ _____    ______ ____
ROOT
ATOM      1  C2  UNL     1      28.083  -9.952 -39.223  0.00  0.00    +0.000 A 
ATOM      2  S1  UNL     1      27.404 -10.225 -40.763  0.00  0.00    +0.000 S 
ATOM      3  C3  UNL     1      28.891 -10.247 -41.532  0.00  0.00    +0.000 A 
ATOM      4  C4  UNL     1      29.893 -10.062 -40.655  0.00  0.00    +0.000 A 
ATOM      5  C5  UNL     1      29.487  -9.888 -39.323  0.00  0.00    +0.000 A 
ATOM      6  C14 UNL     1      31.214 -10.037 -41.324  0.00  0.00    +0.000 C 
ATOM      7  C15 UNL     1      30.859 -10.246 -42.819  0.00  0.00    +0.000 C 
ATOM      8  C16 UNL     1      29.321 -10.385 -42.931  0.00  0.00    +0.000 C 
ENDROOT
BRANCH   1  11
ATOM      9  O1  UNL     1      26.548  -7.749 -38.203  0.00  0.00    +0.000 OA
ATOM     10  C1  UNL     1      26.600  -8.805 -37.514  0.00  0.00    +0.000 C 
ATOM     11  N1  UNL     1      27.341  -9.942 -37.993  0.00  0.00    +0.000 N 
ATOM     12  H1  UNL     1      27.297 -10.833 -37.451  0.00  0.00    +0.000 HD
BRANCH  10  13
ATOM     13  C17 UNL     1      25.891  -8.849 -36.213  0.00  0.00    +0.000 A 
ATOM     14  C18 UNL     1      26.285  -9.765 -35.224  0.00  0.00    +0.000 A 
ATOM     15  C19 UNL     1      25.616  -9.812 -34.000  0.00  0.00    +0.000 A 
ATOM     16  C20 UNL     1      24.545  -8.946 -33.774  0.00  0.00    +0.000 A 
ATOM     17  N3  UNL     1      24.160  -8.074 -34.742  0.00  0.00    +0.000 NA
ATOM     18  C21 UNL     1      24.798  -8.007 -35.941  0.00  0.00    +0.000 A 
ENDBRANCH  10  13
ENDBRANCH   1  11
BRANCH   5  19
ATOM     19  C6  UNL     1      30.413  -9.612 -38.202  0.00  0.00    +0.000 C 
ATOM     20  N2  UNL     1      30.193  -8.584 -37.436  0.00  0.00    +0.000 NA
BRANCH  19  21
ATOM     21  O2  UNL     1      31.491 -10.473 -37.975  0.00  0.00    +0.000 OA
ATOM     22  H2  UNL     1      31.481 -11.453 -38.228  0.00  0.00    +0.000 HD
ENDBRANCH  19  21
BRANCH  20  23
ATOM     23  C7  UNL     1      31.003  -8.196 -36.288  0.00  0.00    +0.000 C 
BRANCH  23  24
ATOM     24  C8  UNL     1      30.163  -8.283 -35.048  0.00  0.00    +0.000 A 
ATOM     25  C9  UNL     1      30.250  -9.404 -34.206  0.00  0.00    +0.000 A 
ATOM     26  C10 UNL     1      29.498  -9.460 -33.028  0.00  0.00    +0.000 A 
ATOM     27  C11 UNL     1      28.665  -8.395 -32.678  0.00  0.00    +0.000 A 
ATOM     28  C12 UNL     1      28.586  -7.268 -33.501  0.00  0.00    +0.000 A 
ATOM     29  C13 UNL     1      29.335  -7.208 -34.680  0.00  0.00    +0.000 A 
ENDBRANCH  23  24
ENDBRANCH  20  23
ENDBRANCH   5  19
TORSDOF 6
ENDMDL
