MODEL 1
REMARK VINA RESULT:    -6.720      0.000      0.000
REMARK INTER + INTRA:          -9.023
REMARK INTER:                  -9.273
REMARK INTRA:                   0.250
REMARK UNBOUND:                 0.250
REMARK  Name = resultss/4CJN/ligands/lig_373_t0.pdb
REMARK  9 active torsions:
REMARK  status: ('A' for Active; 'I' for Inactive)
REMARK    1  A    between atoms: C1_1  and  C2_2
REMARK    2  A    between atoms: C2_2  and  O1_3
REMARK    3  A    between atoms: O1_3  and  C3_4
REMARK    4  A    between atoms: C5_6  and  C6_7
REMARK    5  A    between atoms: C6_7  and  C7_8
REMARK    6  A    between atoms: C6_7  and  C16_21
REMARK    7  A    between atoms: C8_9  and  O2_10
REMARK    8  A    between atoms: C17_22  and  O5_23
REMARK    9  A    between atoms: C27_36  and  O8_37
REMARK                            x       y       z     vdW  Elec       q    Type
REMARK                         _______ _______ _______ _____ _____    ______ ____
ROOT
ATOM      1  C6  UNL     1      28.041  -8.089 -40.124  0.00  0.00    +0.000 C 
ENDROOT
BRANCH   1   2
ATOM      2  C7  UNL     1      29.394  -8.657 -40.583  0.00  0.00    +0.000 A 
ATOM      3  C8  UNL     1      29.438  -9.748 -41.492  0.00  0.00    +0.000 A 
ATOM      4  C9  UNL     1      30.678 -10.292 -41.863  0.00  0.00    +0.000 A 
ATOM      5  C10 UNL     1      30.778 -11.393 -42.736  0.00  0.00    +0.000 A 
ATOM      6  C11 UNL     1      32.032 -11.906 -43.082  0.00  0.00    +0.000 A 
ATOM      7 CL1  UNL     1      32.149 -13.279 -44.167  0.00  0.00    +0.000 Cl
ATOM      8  C12 UNL     1      33.194 -11.326 -42.564  0.00  0.00    +0.000 A 
ATOM      9  C13 UNL     1      33.105 -10.231 -41.701  0.00  0.00    +0.000 A 
ATOM     10  C14 UNL     1      31.854  -9.711 -41.349  0.00  0.00    +0.000 A 
ATOM     11  O3  UNL     1      31.785  -8.666 -40.540  0.00  0.00    +0.000 OA
ATOM     12  C15 UNL     1      30.639  -8.121 -40.152  0.00  0.00    +0.000 A 
ATOM     13  O4  UNL     1      30.689  -7.108 -39.406  0.00  0.00    +0.000 OA
BRANCH   3  14
ATOM     14  O2  UNL     1      28.276 -10.302 -42.046  0.00  0.00    +0.000 OA
ATOM     15  H8  UNL     1      27.550 -10.757 -41.511  0.00  0.00    +0.000 HD
ENDBRANCH   3  14
ENDBRANCH   1   2
BRANCH   1  16
ATOM     16  C16 UNL     1      27.641  -8.547 -38.715  0.00  0.00    +0.000 A 
ATOM     17  C17 UNL     1      27.184  -7.598 -37.773  0.00  0.00    +0.000 A 
ATOM     18  C18 UNL     1      26.819  -8.026 -36.474  0.00  0.00    +0.000 A 
ATOM     19  C19 UNL     1      26.399  -7.142 -35.455  0.00  0.00    +0.000 A 
ATOM     20  C20 UNL     1      26.049  -7.633 -34.191  0.00  0.00    +0.000 A 
ATOM     21 CL2  UNL     1      25.530  -6.525 -32.933  0.00  0.00    +0.000 Cl
ATOM     22  C21 UNL     1      26.115  -9.002 -33.927  0.00  0.00    +0.000 A 
ATOM     23  C22 UNL     1      26.532  -9.886 -34.921  0.00  0.00    +0.000 A 
ATOM     24  C23 UNL     1      26.885  -9.410 -36.187  0.00  0.00    +0.000 A 
ATOM     25  O6  UNL     1      27.275 -10.272 -37.114  0.00  0.00    +0.000 OA
ATOM     26  C24 UNL     1      27.637  -9.910 -38.336  0.00  0.00    +0.000 A 
ATOM     27  O7  UNL     1      27.963 -10.810 -39.153  0.00  0.00    +0.000 OA
BRANCH  17  28
ATOM     28  O5  UNL     1      27.100  -6.256 -38.166  0.00  0.00    +0.000 OA
ATOM     29  H12 UNL     1      27.877  -5.700 -38.490  0.00  0.00    +0.000 HD
ENDBRANCH  17  28
ENDBRANCH   1  16
BRANCH   1  32
ATOM     30  C3  UNL     1      26.011  -7.603 -43.340  0.00  0.00    +0.000 A 
ATOM     31  C4  UNL     1      27.002  -7.489 -42.345  0.00  0.00    +0.000 A 
ATOM     32  C5  UNL     1      26.915  -8.219 -41.145  0.00  0.00    +0.000 A 
ATOM     33  C25 UNL     1      25.814  -9.077 -40.955  0.00  0.00    +0.000 A 
ATOM     34  C26 UNL     1      24.822  -9.182 -41.931  0.00  0.00    +0.000 A 
ATOM     35  C27 UNL     1      24.914  -8.452 -43.117  0.00  0.00    +0.000 A 
BRANCH  35  36
ATOM     36  O8  UNL     1      23.903  -8.587 -44.069  0.00  0.00    +0.000 OA
ATOM     37  H18 UNL     1      23.951  -9.270 -44.816  0.00  0.00    +0.000 HD
ENDBRANCH  35  36
BRANCH  30  38
ATOM     38  O1  UNL     1      26.080  -6.894 -44.552  0.00  0.00    +0.000 OA
BRANCH  38  40
ATOM     39  C1  UNL     1      27.981  -7.149 -46.046  0.00  0.00    +0.000 C 
ATOM     40  C2  UNL     1      27.237  -6.239 -45.073  0.00  0.00    +0.000 C 
ENDBRANCH  38  40
ENDBRANCH  30  38
ENDBRANCH   1  32
TORSDOF 8
ENDMDL
MODEL 2
REMARK VINA RESULT:    -6.270      2.515      5.938
REMARK INTER + INTRA:          -8.403
REMARK INTER:                  -8.616
REMARK INTRA:                   0.212
REMARK UNBOUND:                 0.250
REMARK  Name = resultss/4CJN/ligands/lig_373_t0.pdb
REMARK  9 active torsions:
REMARK  status: ('A' for Active; 'I' for Inactive)
REMARK    1  A    between atoms: C1_1  and  C2_2
REMARK    2  A    between atoms: C2_2  and  O1_3
REMARK    3  A    between atoms: O1_3  and  C3_4
REMARK    4  A    between atoms: C5_6  and  C6_7
REMARK    5  A    between atoms: C6_7  and  C7_8
REMARK    6  A    between atoms: C6_7  and  C16_21
REMARK    7  A    between atoms: C8_9  and  O2_10
REMARK    8  A    between atoms: C17_22  and  O5_23
REMARK    9  A    between atoms: C27_36  and  O8_37
REMARK                            x       y       z     vdW  Elec       q    Type
REMARK                         _______ _______ _______ _____ _____    ______ ____
ROOT
ATOM      1  C6  UNL     1      28.547 -10.018 -40.946  0.00  0.00    +0.000 C 
ENDROOT
BRANCH   1   2
ATOM      2  C7  UNL     1      27.529  -9.430 -41.936  0.00  0.00    +0.000 A 
ATOM      3  C8  UNL     1      27.976  -8.709 -43.075  0.00  0.00    +0.000 A 
ATOM      4  C9  UNL     1      27.036  -8.132 -43.944  0.00  0.00    +0.000 A 
ATOM      5  C10 UNL     1      27.425  -7.381 -45.070  0.00  0.00    +0.000 A 
ATOM      6  C11 UNL     1      26.457  -6.822 -45.912  0.00  0.00    +0.000 A 
ATOM      7 CL1  UNL     1      26.948  -5.885 -47.311  0.00  0.00    +0.000 Cl
ATOM      8  C12 UNL     1      25.099  -7.009 -45.639  0.00  0.00    +0.000 A 
ATOM      9  C13 UNL     1      24.704  -7.757 -44.527  0.00  0.00    +0.000 A 
ATOM     10  C14 UNL     1      25.665  -8.319 -43.680  0.00  0.00    +0.000 A 
ATOM     11  O3  UNL     1      25.277  -9.035 -42.636  0.00  0.00    +0.000 OA
ATOM     12  C15 UNL     1      26.125  -9.593 -41.781  0.00  0.00    +0.000 A 
ATOM     13  O4  UNL     1      25.648 -10.280 -40.840  0.00  0.00    +0.000 OA
BRANCH   3  14
ATOM     14  O2  UNL     1      29.337  -8.558 -43.372  0.00  0.00    +0.000 OA
ATOM     15  H8  UNL     1      29.801  -8.988 -44.161  0.00  0.00    +0.000 HD
ENDBRANCH   3  14
ENDBRANCH   1   2
BRANCH   1  16
ATOM     16  C16 UNL     1      28.729  -9.161 -39.686  0.00  0.00    +0.000 A 
ATOM     17  C17 UNL     1      28.632  -9.760 -38.410  0.00  0.00    +0.000 A 
ATOM     18  C18 UNL     1      28.797  -8.965 -37.251  0.00  0.00    +0.000 A 
ATOM     19  C19 UNL     1      28.669  -9.469 -35.938  0.00  0.00    +0.000 A 
ATOM     20  C20 UNL     1      28.848  -8.626 -34.834  0.00  0.00    +0.000 A 
ATOM     21 CL2  UNL     1      28.685  -9.263 -33.208  0.00  0.00    +0.000 Cl
ATOM     22  C21 UNL     1      29.153  -7.277 -35.024  0.00  0.00    +0.000 A 
ATOM     23  C22 UNL     1      29.278  -6.763 -36.314  0.00  0.00    +0.000 A 
ATOM     24  C23 UNL     1      29.102  -7.594 -37.425  0.00  0.00    +0.000 A 
ATOM     25  O6  UNL     1      29.229  -7.080 -38.639  0.00  0.00    +0.000 OA
ATOM     26  C24 UNL     1      29.069  -7.789 -39.748  0.00  0.00    +0.000 A 
ATOM     27  O7  UNL     1      29.242  -7.214 -40.854  0.00  0.00    +0.000 OA
BRANCH  17  28
ATOM     28  O5  UNL     1      28.382 -11.137 -38.338  0.00  0.00    +0.000 OA
ATOM     29  H12 UNL     1      28.998 -11.814 -37.912  0.00  0.00    +0.000 HD
ENDBRANCH  17  28
ENDBRANCH   1  16
BRANCH   1  32
ATOM     30  C3  UNL     1      32.308 -10.235 -41.663  0.00  0.00    +0.000 A 
ATOM     31  C4  UNL     1      31.057  -9.840 -41.147  0.00  0.00    +0.000 A 
ATOM     32  C5  UNL     1      29.867 -10.457 -41.574  0.00  0.00    +0.000 A 
ATOM     33  C25 UNL     1      29.946 -11.488 -42.530  0.00  0.00    +0.000 A 
ATOM     34  C26 UNL     1      31.180 -11.873 -43.056  0.00  0.00    +0.000 A 
ATOM     35  C27 UNL     1      32.357 -11.253 -42.631  0.00  0.00    +0.000 A 
BRANCH  35  36
ATOM     36  O8  UNL     1      33.570 -11.669 -43.179  0.00  0.00    +0.000 OA
ATOM     37  H18 UNL     1      34.382 -11.064 -43.216  0.00  0.00    +0.000 HD
ENDBRANCH  35  36
BRANCH  30  38
ATOM     38  O1  UNL     1      33.513  -9.643 -41.246  0.00  0.00    +0.000 OA
BRANCH  38  40
ATOM     39  C1  UNL     1      34.082  -8.503 -39.176  0.00  0.00    +0.000 C 
ATOM     40  C2  UNL     1      34.125  -9.807 -39.967  0.00  0.00    +0.000 C 
ENDBRANCH  38  40
ENDBRANCH  30  38
ENDBRANCH   1  32
TORSDOF 8
ENDMDL
MODEL 3
REMARK VINA RESULT:    -6.148      2.883      6.134
REMARK INTER + INTRA:          -8.234
REMARK INTER:                  -8.625
REMARK INTRA:                   0.391
REMARK UNBOUND:                 0.250
REMARK  Name = resultss/4CJN/ligands/lig_373_t0.pdb
REMARK  9 active torsions:
REMARK  status: ('A' for Active; 'I' for Inactive)
REMARK    1  A    between atoms: C1_1  and  C2_2
REMARK    2  A    between atoms: C2_2  and  O1_3
REMARK    3  A    between atoms: O1_3  and  C3_4
REMARK    4  A    between atoms: C5_6  and  C6_7
REMARK    5  A    between atoms: C6_7  and  C7_8
REMARK    6  A    between atoms: C6_7  and  C16_21
REMARK    7  A    between atoms: C8_9  and  O2_10
REMARK    8  A    between atoms: C17_22  and  O5_23
REMARK    9  A    between atoms: C27_36  and  O8_37
REMARK                            x       y       z     vdW  Elec       q    Type
REMARK                         _______ _______ _______ _____ _____    ______ ____
ROOT
ATOM      1  C6  UNL     1      27.495  -9.769 -38.942  0.00  0.00    +0.000 C 
ENDROOT
BRANCH   1   2
ATOM      2  C7  UNL     1      28.691  -9.762 -39.908  0.00  0.00    +0.000 A 
ATOM      3  C8  UNL     1      28.928 -10.875 -40.759  0.00  0.00    +0.000 A 
ATOM      4  C9  UNL     1      30.053 -10.879 -41.598  0.00  0.00    +0.000 A 
ATOM      5  C10 UNL     1      30.352 -11.969 -42.438  0.00  0.00    +0.000 A 
ATOM      6  C11 UNL     1      31.483 -11.935 -43.260  0.00  0.00    +0.000 A 
ATOM      7 CL1  UNL     1      31.853 -13.298 -44.301  0.00  0.00    +0.000 Cl
ATOM      8  C12 UNL     1      32.321 -10.816 -43.254  0.00  0.00    +0.000 A 
ATOM      9  C13 UNL     1      32.030  -9.727 -42.428  0.00  0.00    +0.000 A 
ATOM     10  C14 UNL     1      30.901  -9.753 -41.602  0.00  0.00    +0.000 A 
ATOM     11  O3  UNL     1      30.630  -8.711 -40.832  0.00  0.00    +0.000 OA
ATOM     12  C15 UNL     1      29.585  -8.661 -40.015  0.00  0.00    +0.000 A 
ATOM     13  O4  UNL     1      29.403  -7.607 -39.352  0.00  0.00    +0.000 OA
BRANCH   3  14
ATOM     14  O2  UNL     1      28.065 -11.978 -40.797  0.00  0.00    +0.000 OA
ATOM     15  H8  UNL     1      27.257 -12.092 -40.202  0.00  0.00    +0.000 HD
ENDBRANCH   3  14
ENDBRANCH   1   2
BRANCH   1  16
ATOM     16  C16 UNL     1      26.420  -8.736 -39.305  0.00  0.00    +0.000 A 
ATOM     17  C17 UNL     1      25.453  -9.045 -40.288  0.00  0.00    +0.000 A 
ATOM     18  C18 UNL     1      24.465  -8.088 -40.621  0.00  0.00    +0.000 A 
ATOM     19  C19 UNL     1      23.492  -8.292 -41.623  0.00  0.00    +0.000 A 
ATOM     20  C20 UNL     1      22.541  -7.302 -41.901  0.00  0.00    +0.000 A 
ATOM     21 CL2  UNL     1      21.337  -7.567 -43.149  0.00  0.00    +0.000 Cl
ATOM     22  C21 UNL     1      22.550  -6.101 -41.188  0.00  0.00    +0.000 A 
ATOM     23  C22 UNL     1      23.508  -5.883 -40.199  0.00  0.00    +0.000 A 
ATOM     24  C23 UNL     1      24.463  -6.863 -39.912  0.00  0.00    +0.000 A 
ATOM     25  O6  UNL     1      25.360  -6.630 -38.965  0.00  0.00    +0.000 OA
ATOM     26  C24 UNL     1      26.307  -7.495 -38.634  0.00  0.00    +0.000 A 
ATOM     27  O7  UNL     1      27.092  -7.191 -37.699  0.00  0.00    +0.000 OA
BRANCH  17  28
ATOM     28  O5  UNL     1      25.502 -10.306 -40.897  0.00  0.00    +0.000 OA
ATOM     29  H12 UNL     1      24.705 -10.796 -41.274  0.00  0.00    +0.000 HD
ENDBRANCH  17  28
ENDBRANCH   1  16
BRANCH   1  32
ATOM     30  C3  UNL     1      27.149  -9.988 -35.130  0.00  0.00    +0.000 A 
ATOM     31  C4  UNL     1      26.854  -9.947 -36.508  0.00  0.00    +0.000 A 
ATOM     32  C5  UNL     1      27.869  -9.759 -37.463  0.00  0.00    +0.000 A 
ATOM     33  C25 UNL     1      29.197  -9.614 -37.018  0.00  0.00    +0.000 A 
ATOM     34  C26 UNL     1      29.493  -9.638 -35.655  0.00  0.00    +0.000 A 
ATOM     35  C27 UNL     1      28.480  -9.822 -34.711  0.00  0.00    +0.000 A 
BRANCH  35  36
ATOM     36  O8  UNL     1      28.818  -9.842 -33.358  0.00  0.00    +0.000 OA
ATOM     37  H18 UNL     1      29.774  -9.744 -33.038  0.00  0.00    +0.000 HD
ENDBRANCH  35  36
BRANCH  30  38
ATOM     38  O1  UNL     1      26.155 -10.186 -34.155  0.00  0.00    +0.000 OA
BRANCH  38  40
ATOM     39  C1  UNL     1      25.773  -7.848 -33.610  0.00  0.00    +0.000 C 
ATOM     40  C2  UNL     1      25.162  -9.237 -33.770  0.00  0.00    +0.000 C 
ENDBRANCH  38  40
ENDBRANCH  30  38
ENDBRANCH   1  32
TORSDOF 8
ENDMDL
MODEL 4
REMARK VINA RESULT:    -6.072      1.154      2.107
REMARK INTER + INTRA:          -8.130
REMARK INTER:                  -8.441
REMARK INTRA:                   0.310
REMARK UNBOUND:                 0.250
REMARK  Name = resultss/4CJN/ligands/lig_373_t0.pdb
REMARK  9 active torsions:
REMARK  status: ('A' for Active; 'I' for Inactive)
REMARK    1  A    between atoms: C1_1  and  C2_2
REMARK    2  A    between atoms: C2_2  and  O1_3
REMARK    3  A    between atoms: O1_3  and  C3_4
REMARK    4  A    between atoms: C5_6  and  C6_7
REMARK    5  A    between atoms: C6_7  and  C7_8
REMARK    6  A    between atoms: C6_7  and  C16_21
REMARK    7  A    between atoms: C8_9  and  O2_10
REMARK    8  A    between atoms: C17_22  and  O5_23
REMARK    9  A    between atoms: C27_36  and  O8_37
REMARK                            x       y       z     vdW  Elec       q    Type
REMARK                         _______ _______ _______ _____ _____    ______ ____
ROOT
ATOM      1  C6  UNL     1      29.155  -8.167 -40.848  0.00  0.00    +0.000 C 
ENDROOT
BRANCH   1   2
ATOM      2  C7  UNL     1      30.406  -8.965 -41.253  0.00  0.00    +0.000 A 
ATOM      3  C8  UNL     1      30.328  -9.937 -42.287  0.00  0.00    +0.000 A 
ATOM      4  C9  UNL     1      31.464 -10.695 -42.612  0.00  0.00    +0.000 A 
ATOM      5  C10 UNL     1      31.434 -11.693 -43.606  0.00  0.00    +0.000 A 
ATOM      6  C11 UNL     1      32.587 -12.427 -43.901  0.00  0.00    +0.000 A 
ATOM      7 CL1  UNL     1      32.543 -13.671 -45.137  0.00  0.00    +0.000 Cl
ATOM      8  C12 UNL     1      33.776 -12.172 -43.211  0.00  0.00    +0.000 A 
ATOM      9  C13 UNL     1      33.817 -11.181 -42.227  0.00  0.00    +0.000 A 
ATOM     10  C14 UNL     1      32.668 -10.442 -41.925  0.00  0.00    +0.000 A 
ATOM     11  O3  UNL     1      32.723  -9.498 -40.998  0.00  0.00    +0.000 OA
ATOM     12  C15 UNL     1      31.676  -8.760 -40.648  0.00  0.00    +0.000 A 
ATOM     13  O4  UNL     1      31.848  -7.868 -39.778  0.00  0.00    +0.000 OA
BRANCH   3  14
ATOM     14  O2  UNL     1      29.148 -10.162 -43.008  0.00  0.00    +0.000 OA
ATOM     15  H8  UNL     1      28.223 -10.172 -42.601  0.00  0.00    +0.000 HD
ENDBRANCH   3  14
ENDBRANCH   1   2
BRANCH   1  16
ATOM     16  C16 UNL     1      28.534  -8.648 -39.530  0.00  0.00    +0.000 A 
ATOM     17  C17 UNL     1      28.216  -7.709 -38.522  0.00  0.00    +0.000 A 
ATOM     18  C18 UNL     1      27.645  -8.158 -37.307  0.00  0.00    +0.000 A 
ATOM     19  C19 UNL     1      27.342  -7.299 -36.228  0.00  0.00    +0.000 A 
ATOM     20  C20 UNL     1      26.775  -7.809 -35.053  0.00  0.00    +0.000 A 
ATOM     21 CL2  UNL     1      26.403  -6.731 -33.719  0.00  0.00    +0.000 Cl
ATOM     22  C21 UNL     1      26.509  -9.174 -34.938  0.00  0.00    +0.000 A 
ATOM     23  C22 UNL     1      26.808 -10.036 -35.993  0.00  0.00    +0.000 A 
ATOM     24  C23 UNL     1      27.374  -9.540 -37.171  0.00  0.00    +0.000 A 
ATOM     25  O6  UNL     1      27.645 -10.380 -38.158  0.00  0.00    +0.000 OA
ATOM     26  C24 UNL     1      28.191 -10.001 -39.305  0.00  0.00    +0.000 A 
ATOM     27  O7  UNL     1      28.381 -10.874 -40.193  0.00  0.00    +0.000 OA
BRANCH  17  28
ATOM     28  O5  UNL     1      28.471  -6.354 -38.769  0.00  0.00    +0.000 OA
ATOM     29  H12 UNL     1      28.561  -5.645 -38.057  0.00  0.00    +0.000 HD
ENDBRANCH  17  28
ENDBRANCH   1  16
BRANCH   1  32
ATOM     30  C3  UNL     1      25.868  -8.388 -42.809  0.00  0.00    +0.000 A 
ATOM     31  C4  UNL     1      26.864  -8.568 -41.828  0.00  0.00    +0.000 A 
ATOM     32  C5  UNL     1      28.132  -7.975 -41.964  0.00  0.00    +0.000 A 
ATOM     33  C25 UNL     1      28.392  -7.189 -43.104  0.00  0.00    +0.000 A 
ATOM     34  C26 UNL     1      27.415  -7.020 -44.085  0.00  0.00    +0.000 A 
ATOM     35  C27 UNL     1      26.159  -7.615 -43.945  0.00  0.00    +0.000 A 
BRANCH  35  36
ATOM     36  O8  UNL     1      25.209  -7.420 -44.947  0.00  0.00    +0.000 OA
ATOM     37  H18 UNL     1      25.171  -8.000 -45.777  0.00  0.00    +0.000 HD
ENDBRANCH  35  36
BRANCH  30  38
ATOM     38  O1  UNL     1      24.588  -8.959 -42.692  0.00  0.00    +0.000 OA
BRANCH  38  40
ATOM     39  C1  UNL     1      22.417  -7.865 -42.698  0.00  0.00    +0.000 C 
ATOM     40  C2  UNL     1      23.532  -8.481 -41.859  0.00  0.00    +0.000 C 
ENDBRANCH  38  40
ENDBRANCH  30  38
ENDBRANCH   1  32
TORSDOF 8
ENDMDL
MODEL 5
REMARK VINA RESULT:    -5.860      2.798      6.130
REMARK INTER + INTRA:          -7.838
REMARK INTER:                  -8.253
REMARK INTRA:                   0.415
REMARK UNBOUND:                 0.250
REMARK  Name = resultss/4CJN/ligands/lig_373_t0.pdb
REMARK  9 active torsions:
REMARK  status: ('A' for Active; 'I' for Inactive)
REMARK    1  A    between atoms: C1_1  and  C2_2
REMARK    2  A    between atoms: C2_2  and  O1_3
REMARK    3  A    between atoms: O1_3  and  C3_4
REMARK    4  A    between atoms: C5_6  and  C6_7
REMARK    5  A    between atoms: C6_7  and  C7_8
REMARK    6  A    between atoms: C6_7  and  C16_21
REMARK    7  A    between atoms: C8_9  and  O2_10
REMARK    8  A    between atoms: C17_22  and  O5_23
REMARK    9  A    between atoms: C27_36  and  O8_37
REMARK                            x       y       z     vdW  Elec       q    Type
REMARK                         _______ _______ _______ _____ _____    ______ ____
ROOT
ATOM      1  C6  UNL     1      28.575  -9.894 -40.974  0.00  0.00    +0.000 C 
ENDROOT
BRANCH   1   2
ATOM      2  C7  UNL     1      27.624  -9.191 -41.956  0.00  0.00    +0.000 A 
ATOM      3  C8  UNL     1      26.242  -9.069 -41.646  0.00  0.00    +0.000 A 
ATOM      4  C9  UNL     1      25.374  -8.472 -42.574  0.00  0.00    +0.000 A 
ATOM      5  C10 UNL     1      23.992  -8.354 -42.332  0.00  0.00    +0.000 A 
ATOM      6  C11 UNL     1      23.160  -7.752 -43.281  0.00  0.00    +0.000 A 
ATOM      7 CL1  UNL     1      21.438  -7.611 -42.975  0.00  0.00    +0.000 Cl
ATOM      8  C12 UNL     1      23.698  -7.262 -44.475  0.00  0.00    +0.000 A 
ATOM      9  C13 UNL     1      25.068  -7.370 -44.722  0.00  0.00    +0.000 A 
ATOM     10  C14 UNL     1      25.908  -7.971 -43.778  0.00  0.00    +0.000 A 
ATOM     11  O3  UNL     1      27.207  -8.057 -44.019  0.00  0.00    +0.000 OA
ATOM     12  C15 UNL     1      28.067  -8.620 -43.180  0.00  0.00    +0.000 A 
ATOM     13  O4  UNL     1      29.286  -8.619 -43.495  0.00  0.00    +0.000 OA
BRANCH   3  14
ATOM     14  O2  UNL     1      25.710  -9.521 -40.432  0.00  0.00    +0.000 OA
ATOM     15  H8  UNL     1      26.196 -10.127 -39.785  0.00  0.00    +0.000 HD
ENDBRANCH   3  14
ENDBRANCH   1   2
BRANCH   1  16
ATOM     16  C16 UNL     1      28.800  -9.103 -39.679  0.00  0.00    +0.000 A 
ATOM     17  C17 UNL     1      28.711  -9.760 -38.431  0.00  0.00    +0.000 A 
ATOM     18  C18 UNL     1      28.917  -9.025 -37.240  0.00  0.00    +0.000 A 
ATOM     19  C19 UNL     1      28.799  -9.587 -35.950  0.00  0.00    +0.000 A 
ATOM     20  C20 UNL     1      29.019  -8.802 -34.811  0.00  0.00    +0.000 A 
ATOM     21 CL2  UNL     1      28.869  -9.513 -33.214  0.00  0.00    +0.000 Cl
ATOM     22  C21 UNL     1      29.353  -7.453 -34.942  0.00  0.00    +0.000 A 
ATOM     23  C22 UNL     1      29.468  -6.882 -36.209  0.00  0.00    +0.000 A 
ATOM     24  C23 UNL     1      29.251  -7.655 -37.354  0.00  0.00    +0.000 A 
ATOM     25  O6  UNL     1      29.369  -7.087 -38.545  0.00  0.00    +0.000 OA
ATOM     26  C24 UNL     1      29.173  -7.738 -39.683  0.00  0.00    +0.000 A 
ATOM     27  O7  UNL     1      29.340  -7.115 -40.764  0.00  0.00    +0.000 OA
BRANCH  17  28
ATOM     28  O5  UNL     1      28.430 -11.132 -38.420  0.00  0.00    +0.000 OA
ATOM     29  H12 UNL     1      28.693 -11.770 -37.683  0.00  0.00    +0.000 HD
ENDBRANCH  17  28
ENDBRANCH   1  16
BRANCH   1  32
ATOM     30  C3  UNL     1      32.313 -10.286 -41.733  0.00  0.00    +0.000 A 
ATOM     31  C4  UNL     1      31.087  -9.820 -41.218  0.00  0.00    +0.000 A 
ATOM     32  C5  UNL     1      29.868 -10.412 -41.599  0.00  0.00    +0.000 A 
ATOM     33  C25 UNL     1      29.894 -11.488 -42.507  0.00  0.00    +0.000 A 
ATOM     34  C26 UNL     1      31.104 -11.943 -43.031  0.00  0.00    +0.000 A 
ATOM     35  C27 UNL     1      32.310 -11.349 -42.652  0.00  0.00    +0.000 A 
BRANCH  35  36
ATOM     36  O8  UNL     1      33.498 -11.835 -43.197  0.00  0.00    +0.000 OA
ATOM     37  H18 UNL     1      33.846 -11.527 -44.097  0.00  0.00    +0.000 HD
ENDBRANCH  35  36
BRANCH  30  38
ATOM     38  O1  UNL     1      33.546  -9.721 -41.360  0.00  0.00    +0.000 OA
BRANCH  38  40
ATOM     39  C1  UNL     1      34.099  -7.687 -40.149  0.00  0.00    +0.000 C 
ATOM     40  C2  UNL     1      33.868  -9.193 -40.074  0.00  0.00    +0.000 C 
ENDBRANCH  38  40
ENDBRANCH  30  38
ENDBRANCH   1  32
TORSDOF 8
ENDMDL
MODEL 6
REMARK VINA RESULT:    -5.840      3.081      9.360
REMARK INTER + INTRA:          -7.810
REMARK INTER:                  -8.581
REMARK INTRA:                   0.771
REMARK UNBOUND:                 0.250
REMARK  Name = resultss/4CJN/ligands/lig_373_t0.pdb
REMARK  9 active torsions:
REMARK  status: ('A' for Active; 'I' for Inactive)
REMARK    1  A    between atoms: C1_1  and  C2_2
REMARK    2  A    between atoms: C2_2  and  O1_3
REMARK    3  A    between atoms: O1_3  and  C3_4
REMARK    4  A    between atoms: C5_6  and  C6_7
REMARK    5  A    between atoms: C6_7  and  C7_8
REMARK    6  A    between atoms: C6_7  and  C16_21
REMARK    7  A    between atoms: C8_9  and  O2_10
REMARK    8  A    between atoms: C17_22  and  O5_23
REMARK    9  A    between atoms: C27_36  and  O8_37
REMARK                            x       y       z     vdW  Elec       q    Type
REMARK                         _______ _______ _______ _____ _____    ______ ____
ROOT
ATOM      1  C6  UNL     1      29.109  -7.716 -36.840  0.00  0.00    +0.000 C 
ENDROOT
BRANCH   1   2
ATOM      2  C7  UNL     1      27.876  -8.207 -36.063  0.00  0.00    +0.000 A 
ATOM      3  C8  UNL     1      27.004  -7.273 -35.442  0.00  0.00    +0.000 A 
ATOM      4  C9  UNL     1      25.912  -7.736 -34.692  0.00  0.00    +0.000 A 
ATOM      5  C10 UNL     1      25.035  -6.854 -34.031  0.00  0.00    +0.000 A 
ATOM      6  C11 UNL     1      23.957  -7.355 -33.293  0.00  0.00    +0.000 A 
ATOM      7 CL1  UNL     1      22.871  -6.252 -32.468  0.00  0.00    +0.000 Cl
ATOM      8  C12 UNL     1      23.744  -8.734 -33.211  0.00  0.00    +0.000 A 
ATOM      9  C13 UNL     1      24.606  -9.616 -33.869  0.00  0.00    +0.000 A 
ATOM     10  C14 UNL     1      25.687  -9.124 -34.608  0.00  0.00    +0.000 A 
ATOM     11  O3  UNL     1      26.489  -9.970 -35.235  0.00  0.00    +0.000 OA
ATOM     12  C15 UNL     1      27.539  -9.584 -35.949  0.00  0.00    +0.000 A 
ATOM     13  O4  UNL     1      28.216 -10.471 -36.531  0.00  0.00    +0.000 OA
BRANCH   3  14
ATOM     14  O2  UNL     1      27.193  -5.889 -35.560  0.00  0.00    +0.000 OA
ATOM     15  H8  UNL     1      27.028  -5.360 -36.405  0.00  0.00    +0.000 HD
ENDBRANCH   3  14
ENDBRANCH   1   2
BRANCH   1  16
ATOM     16  C16 UNL     1      29.018  -7.981 -38.348  0.00  0.00    +0.000 A 
ATOM     17  C17 UNL     1      29.666  -9.109 -38.902  0.00  0.00    +0.000 A 
ATOM     18  C18 UNL     1      29.582  -9.348 -40.294  0.00  0.00    +0.000 A 
ATOM     19  C19 UNL     1      30.237 -10.419 -40.939  0.00  0.00    +0.000 A 
ATOM     20  C20 UNL     1      30.109 -10.600 -42.322  0.00  0.00    +0.000 A 
ATOM     21 CL2  UNL     1      30.929 -11.935 -43.112  0.00  0.00    +0.000 Cl
ATOM     22  C21 UNL     1      29.333  -9.717 -43.076  0.00  0.00    +0.000 A 
ATOM     23  C22 UNL     1      28.684  -8.652 -42.454  0.00  0.00    +0.000 A 
ATOM     24  C23 UNL     1      28.804  -8.460 -41.074  0.00  0.00    +0.000 A 
ATOM     25  O6  UNL     1      28.174  -7.441 -40.509  0.00  0.00    +0.000 OA
ATOM     26  C24 UNL     1      28.239  -7.176 -39.212  0.00  0.00    +0.000 A 
ATOM     27  O7  UNL     1      27.578  -6.201 -38.768  0.00  0.00    +0.000 OA
BRANCH  17  28
ATOM     28  O5  UNL     1      30.368  -9.963 -38.041  0.00  0.00    +0.000 OA
ATOM     29  H12 UNL     1      30.943  -9.660 -37.269  0.00  0.00    +0.000 HD
ENDBRANCH  17  28
ENDBRANCH   1  16
BRANCH   1  32
ATOM     30  C3  UNL     1      31.667  -9.472 -34.587  0.00  0.00    +0.000 A 
ATOM     31  C4  UNL     1      30.456  -9.030 -35.158  0.00  0.00    +0.000 A 
ATOM     32  C5  UNL     1      30.449  -8.123 -36.233  0.00  0.00    +0.000 A 
ATOM     33  C25 UNL     1      31.680  -7.663 -36.738  0.00  0.00    +0.000 A 
ATOM     34  C26 UNL     1      32.881  -8.085 -36.166  0.00  0.00    +0.000 A 
ATOM     35  C27 UNL     1      32.881  -8.983 -35.097  0.00  0.00    +0.000 A 
BRANCH  35  36
ATOM     36  O8  UNL     1      34.103  -9.382 -34.555  0.00  0.00    +0.000 OA
ATOM     37  H18 UNL     1      34.756  -9.964 -35.066  0.00  0.00    +0.000 HD
ENDBRANCH  35  36
BRANCH  30  38
ATOM     38  O1  UNL     1      31.703 -10.386 -33.519  0.00  0.00    +0.000 OA
BRANCH  38  40
ATOM     39  C1  UNL     1      32.144 -11.261 -31.294  0.00  0.00    +0.000 C 
ATOM     40  C2  UNL     1      31.745 -10.050 -32.132  0.00  0.00    +0.000 C 
ENDBRANCH  38  40
ENDBRANCH  30  38
ENDBRANCH   1  32
TORSDOF 8
ENDMDL
MODEL 7
REMARK VINA RESULT:    -5.778      2.744      7.005
REMARK INTER + INTRA:          -7.724
REMARK INTER:                  -8.393
REMARK INTRA:                   0.669
REMARK UNBOUND:                 0.250
REMARK  Name = resultss/4CJN/ligands/lig_373_t0.pdb
REMARK  9 active torsions:
REMARK  status: ('A' for Active; 'I' for Inactive)
REMARK    1  A    between atoms: C1_1  and  C2_2
REMARK    2  A    between atoms: C2_2  and  O1_3
REMARK    3  A    between atoms: O1_3  and  C3_4
REMARK    4  A    between atoms: C5_6  and  C6_7
REMARK    5  A    between atoms: C6_7  and  C7_8
REMARK    6  A    between atoms: C6_7  and  C16_21
REMARK    7  A    between atoms: C8_9  and  O2_10
REMARK    8  A    between atoms: C17_22  and  O5_23
REMARK    9  A    between atoms: C27_36  and  O8_37
REMARK                            x       y       z     vdW  Elec       q    Type
REMARK                         _______ _______ _______ _____ _____    ______ ____
ROOT
ATOM      1  C6  UNL     1      26.439  -8.900 -38.784  0.00  0.00    +0.000 C 
ENDROOT
BRANCH   1   2
ATOM      2  C7  UNL     1      25.548  -8.238 -37.720  0.00  0.00    +0.000 A 
ATOM      3  C8  UNL     1      25.386  -8.847 -36.447  0.00  0.00    +0.000 A 
ATOM      4  C9  UNL     1      24.529  -8.261 -35.503  0.00  0.00    +0.000 A 
ATOM      5  C10 UNL     1      24.308  -8.839 -34.237  0.00  0.00    +0.000 A 
ATOM      6  C11 UNL     1      23.446  -8.224 -33.323  0.00  0.00    +0.000 A 
ATOM      7 CL1  UNL     1      23.172  -8.950 -31.750  0.00  0.00    +0.000 Cl
ATOM      8  C12 UNL     1      22.801  -7.030 -33.662  0.00  0.00    +0.000 A 
ATOM      9  C13 UNL     1      23.017  -6.447 -34.913  0.00  0.00    +0.000 A 
ATOM     10  C14 UNL     1      23.878  -7.056 -35.833  0.00  0.00    +0.000 A 
ATOM     11  O3  UNL     1      24.083  -6.487 -37.011  0.00  0.00    +0.000 OA
ATOM     12  C15 UNL     1      24.876  -7.005 -37.941  0.00  0.00    +0.000 A 
ATOM     13  O4  UNL     1      25.025  -6.364 -39.013  0.00  0.00    +0.000 OA
BRANCH   3  14
ATOM     14  O2  UNL     1      26.066 -10.019 -36.091  0.00  0.00    +0.000 OA
ATOM     15  H8  UNL     1      26.839 -10.057 -35.442  0.00  0.00    +0.000 HD
ENDBRANCH   3  14
ENDBRANCH   1   2
BRANCH   1  16
ATOM     16  C16 UNL     1      27.916  -8.501 -38.668  0.00  0.00    +0.000 A 
ATOM     17  C17 UNL     1      28.882  -9.478 -38.338  0.00  0.00    +0.000 A 
ATOM     18  C18 UNL     1      30.243  -9.104 -38.229  0.00  0.00    +0.000 A 
ATOM     19  C19 UNL     1      31.268 -10.001 -37.856  0.00  0.00    +0.000 A 
ATOM     20  C20 UNL     1      32.595  -9.565 -37.769  0.00  0.00    +0.000 A 
ATOM     21 CL2  UNL     1      33.860 -10.690 -37.305  0.00  0.00    +0.000 Cl
ATOM     22  C21 UNL     1      32.917  -8.236 -38.049  0.00  0.00    +0.000 A 
ATOM     23  C22 UNL     1      31.916  -7.337 -38.414  0.00  0.00    +0.000 A 
ATOM     24  C23 UNL     1      30.586  -7.759 -38.503  0.00  0.00    +0.000 A 
ATOM     25  O6  UNL     1      29.655  -6.884 -38.855  0.00  0.00    +0.000 OA
ATOM     26  C24 UNL     1      28.370  -7.192 -38.955  0.00  0.00    +0.000 A 
ATOM     27  O7  UNL     1      27.569  -6.296 -39.326  0.00  0.00    +0.000 OA
BRANCH  17  28
ATOM     28  O5  UNL     1      28.455 -10.797 -38.137  0.00  0.00    +0.000 OA
ATOM     29  H12 UNL     1      29.007 -11.619 -38.330  0.00  0.00    +0.000 HD
ENDBRANCH  17  28
ENDBRANCH   1  16
BRANCH   1  32
ATOM     30  C3  UNL     1      26.374  -8.638 -42.609  0.00  0.00    +0.000 A 
ATOM     31  C4  UNL     1      26.814  -8.679 -41.271  0.00  0.00    +0.000 A 
ATOM     32  C5  UNL     1      25.900  -8.816 -40.210  0.00  0.00    +0.000 A 
ATOM     33  C25 UNL     1      24.528  -8.917 -40.509  0.00  0.00    +0.000 A 
ATOM     34  C26 UNL     1      24.085  -8.861 -41.831  0.00  0.00    +0.000 A 
ATOM     35  C27 UNL     1      24.998  -8.721 -42.879  0.00  0.00    +0.000 A 
BRANCH  35  36
ATOM     36  O8  UNL     1      24.516  -8.672 -44.187  0.00  0.00    +0.000 OA
ATOM     37  H18 UNL     1      24.960  -8.115 -44.907  0.00  0.00    +0.000 HD
ENDBRANCH  35  36
BRANCH  30  38
ATOM     38  O1  UNL     1      27.267  -8.513 -43.689  0.00  0.00    +0.000 OA
BRANCH  38  40
ATOM     39  C1  UNL     1      27.957  -7.236 -45.639  0.00  0.00    +0.000 C 
ATOM     40  C2  UNL     1      27.898  -7.306 -44.116  0.00  0.00    +0.000 C 
ENDBRANCH  38  40
ENDBRANCH  30  38
ENDBRANCH   1  32
TORSDOF 8
ENDMDL
MODEL 8
REMARK VINA RESULT:    -5.692      2.602      5.846
REMARK INTER + INTRA:          -7.606
REMARK INTER:                  -8.282
REMARK INTRA:                   0.676
REMARK UNBOUND:                 0.250
REMARK  Name = resultss/4CJN/ligands/lig_373_t0.pdb
REMARK  9 active torsions:
REMARK  status: ('A' for Active; 'I' for Inactive)
REMARK    1  A    between atoms: C1_1  and  C2_2
REMARK    2  A    between atoms: C2_2  and  O1_3
REMARK    3  A    between atoms: O1_3  and  C3_4
REMARK    4  A    between atoms: C5_6  and  C6_7
REMARK    5  A    between atoms: C6_7  and  C7_8
REMARK    6  A    between atoms: C6_7  and  C16_21
REMARK    7  A    between atoms: C8_9  and  O2_10
REMARK    8  A    between atoms: C17_22  and  O5_23
REMARK    9  A    between atoms: C27_36  and  O8_37
REMARK                            x       y       z     vdW  Elec       q    Type
REMARK                         _______ _______ _______ _____ _____    ______ ____
ROOT
ATOM      1  C6  UNL     1      27.796  -9.017 -41.353  0.00  0.00    +0.000 C 
ENDROOT
BRANCH   1   2
ATOM      2  C7  UNL     1      27.292  -8.213 -42.563  0.00  0.00    +0.000 A 
ATOM      3  C8  UNL     1      25.953  -8.368 -43.014  0.00  0.00    +0.000 A 
ATOM      4  C9  UNL     1      25.520  -7.668 -44.151  0.00  0.00    +0.000 A 
ATOM      5  C10 UNL     1      24.214  -7.808 -44.660  0.00  0.00    +0.000 A 
ATOM      6  C11 UNL     1      23.820  -7.093 -45.795  0.00  0.00    +0.000 A 
ATOM      7 CL1  UNL     1      22.193  -7.275 -46.426  0.00  0.00    +0.000 Cl
ATOM      8  C12 UNL     1      24.721  -6.233 -46.430  0.00  0.00    +0.000 A 
ATOM      9  C13 UNL     1      26.017  -6.083 -45.930  0.00  0.00    +0.000 A 
ATOM     10  C14 UNL     1      26.420  -6.795 -44.794  0.00  0.00    +0.000 A 
ATOM     11  O3  UNL     1      27.647  -6.636 -44.325  0.00  0.00    +0.000 OA
ATOM     12  C15 UNL     1      28.108  -7.280 -43.260  0.00  0.00    +0.000 A 
ATOM     13  O4  UNL     1      29.281  -7.029 -42.879  0.00  0.00    +0.000 OA
BRANCH   3  14
ATOM     14  O2  UNL     1      25.037  -9.196 -42.353  0.00  0.00    +0.000 OA
ATOM     15  H8  UNL     1      24.227  -9.614 -42.789  0.00  0.00    +0.000 HD
ENDBRANCH   3  14
ENDBRANCH   1   2
BRANCH   1  16
ATOM     16  C16 UNL     1      27.360  -8.422 -40.008  0.00  0.00    +0.000 A 
ATOM     17  C17 UNL     1      27.084  -9.280 -38.919  0.00  0.00    +0.000 A 
ATOM     18  C18 UNL     1      26.679  -8.726 -37.681  0.00  0.00    +0.000 A 
ATOM     19  C19 UNL     1      26.337  -9.508 -36.555  0.00  0.00    +0.000 A 
ATOM     20  C20 UNL     1      25.946  -8.895 -35.359  0.00  0.00    +0.000 A 
ATOM     21 CL2  UNL     1      25.523  -9.876 -33.967  0.00  0.00    +0.000 Cl
ATOM     22  C21 UNL     1      25.888  -7.503 -35.270  0.00  0.00    +0.000 A 
ATOM     23  C22 UNL     1      26.218  -6.718 -36.374  0.00  0.00    +0.000 A 
ATOM     24  C23 UNL     1      26.610  -7.317 -37.574  0.00  0.00    +0.000 A 
ATOM     25  O6  UNL     1      26.920  -6.547 -38.607  0.00  0.00    +0.000 OA
ATOM     26  C24 UNL     1      27.292  -7.027 -39.785  0.00  0.00    +0.000 A 
ATOM     27  O7  UNL     1      27.596  -6.210 -40.693  0.00  0.00    +0.000 OA
BRANCH  17  28
ATOM     28  O5  UNL     1      27.234 -10.660 -39.103  0.00  0.00    +0.000 OA
ATOM     29  H12 UNL     1      26.601 -11.362 -38.749  0.00  0.00    +0.000 HD
ENDBRANCH  17  28
ENDBRANCH   1  16
BRANCH   1  32
ATOM     30  C3  UNL     1      31.106 -10.524 -42.570  0.00  0.00    +0.000 A 
ATOM     31  C4  UNL     1      29.741 -10.192 -42.453  0.00  0.00    +0.000 A 
ATOM     32  C5  UNL     1      29.278  -9.380 -41.402  0.00  0.00    +0.000 A 
ATOM     33  C25 UNL     1      30.208  -8.897 -40.461  0.00  0.00    +0.000 A 
ATOM     34  C26 UNL     1      31.558  -9.235 -40.563  0.00  0.00    +0.000 A 
ATOM     35  C27 UNL     1      32.010 -10.044 -41.607  0.00  0.00    +0.000 A 
BRANCH  35  36
ATOM     36  O8  UNL     1      33.368 -10.357 -41.675  0.00  0.00    +0.000 OA
ATOM     37  H18 UNL     1      34.046  -9.965 -41.032  0.00  0.00    +0.000 HD
ENDBRANCH  35  36
BRANCH  30  38
ATOM     38  O1  UNL     1      31.597 -11.323 -43.617  0.00  0.00    +0.000 OA
BRANCH  38  40
ATOM     39  C1  UNL     1      32.447 -13.250 -44.832  0.00  0.00    +0.000 C 
ATOM     40  C2  UNL     1      31.683 -12.748 -43.610  0.00  0.00    +0.000 C 
ENDBRANCH  38  40
ENDBRANCH  30  38
ENDBRANCH   1  32
TORSDOF 8
ENDMDL
MODEL 9
REMARK VINA RESULT:    -5.537      2.671      6.264
REMARK INTER + INTRA:          -7.392
REMARK INTER:                  -7.879
REMARK INTRA:                   0.487
REMARK UNBOUND:                 0.250
REMARK  Name = resultss/4CJN/ligands/lig_373_t0.pdb
REMARK  9 active torsions:
REMARK  status: ('A' for Active; 'I' for Inactive)
REMARK    1  A    between atoms: C1_1  and  C2_2
REMARK    2  A    between atoms: C2_2  and  O1_3
REMARK    3  A    between atoms: O1_3  and  C3_4
REMARK    4  A    between atoms: C5_6  and  C6_7
REMARK    5  A    between atoms: C6_7  and  C7_8
REMARK    6  A    between atoms: C6_7  and  C16_21
REMARK    7  A    between atoms: C8_9  and  O2_10
REMARK    8  A    between atoms: C17_22  and  O5_23
REMARK    9  A    between atoms: C27_36  and  O8_37
REMARK                            x       y       z     vdW  Elec       q    Type
REMARK                         _______ _______ _______ _____ _____    ______ ____
ROOT
ATOM      1  C6  UNL     1      27.040  -8.823 -39.722  0.00  0.00    +0.000 C 
ENDROOT
BRANCH   1   2
ATOM      2  C7  UNL     1      28.482  -9.112 -40.170  0.00  0.00    +0.000 A 
ATOM      3  C8  UNL     1      28.733 -10.058 -41.200  0.00  0.00    +0.000 A 
ATOM      4  C9  UNL     1      30.057 -10.351 -41.564  0.00  0.00    +0.000 A 
ATOM      5  C10 UNL     1      30.363 -11.303 -42.557  0.00  0.00    +0.000 A 
ATOM      6  C11 UNL     1      31.695 -11.566 -42.891  0.00  0.00    +0.000 A 
ATOM      7 CL1  UNL     1      32.070 -12.756 -44.125  0.00  0.00    +0.000 Cl
ATOM      8  C12 UNL     1      32.729 -10.884 -42.244  0.00  0.00    +0.000 A 
ATOM      9  C13 UNL     1      32.435  -9.935 -41.262  0.00  0.00    +0.000 A 
ATOM     10  C14 UNL     1      31.105  -9.665 -40.920  0.00  0.00    +0.000 A 
ATOM     11  O3  UNL     1      30.840  -8.755 -39.996  0.00  0.00    +0.000 OA
ATOM     12  C15 UNL     1      29.607  -8.448 -39.610  0.00  0.00    +0.000 A 
ATOM     13  O4  UNL     1      29.467  -7.543 -38.746  0.00  0.00    +0.000 OA
BRANCH   3  14
ATOM     14  O2  UNL     1      27.696 -10.710 -41.879  0.00  0.00    +0.000 OA
ATOM     15  H8  UNL     1      27.074 -10.262 -42.539  0.00  0.00    +0.000 HD
ENDBRANCH   3  14
ENDBRANCH   1   2
BRANCH   1  16
ATOM     16  C16 UNL     1      26.224  -8.054 -40.769  0.00  0.00    +0.000 A 
ATOM     17  C17 UNL     1      24.842  -8.314 -40.911  0.00  0.00    +0.000 A 
ATOM     18  C18 UNL     1      24.095  -7.604 -41.881  0.00  0.00    +0.000 A 
ATOM     19  C19 UNL     1      22.723  -7.833 -42.125  0.00  0.00    +0.000 A 
ATOM     20  C20 UNL     1      22.042  -7.092 -43.099  0.00  0.00    +0.000 A 
ATOM     21 CL2  UNL     1      20.338  -7.386 -43.393  0.00  0.00    +0.000 Cl
ATOM     22  C21 UNL     1      22.718  -6.121 -43.841  0.00  0.00    +0.000 A 
ATOM     23  C22 UNL     1      24.073  -5.887 -43.615  0.00  0.00    +0.000 A 
ATOM     24  C23 UNL     1      24.764  -6.620 -42.645  0.00  0.00    +0.000 A 
ATOM     25  O6  UNL     1      26.052  -6.375 -42.450  0.00  0.00    +0.000 OA
ATOM     26  C24 UNL     1      26.788  -7.027 -41.561  0.00  0.00    +0.000 A 
ATOM     27  O7  UNL     1      27.996  -6.698 -41.430  0.00  0.00    +0.000 OA
BRANCH  17  28
ATOM     28  O5  UNL     1      24.254  -9.268 -40.071  0.00  0.00    +0.000 OA
ATOM     29  H12 UNL     1      24.011 -10.208 -40.345  0.00  0.00    +0.000 HD
ENDBRANCH  17  28
ENDBRANCH   1  16
BRANCH   1  32
ATOM     30  C3  UNL     1      27.019  -8.621 -35.893  0.00  0.00    +0.000 A 
ATOM     31  C4  UNL     1      27.085  -9.108 -37.214  0.00  0.00    +0.000 A 
ATOM     32  C5  UNL     1      26.912  -8.248 -38.314  0.00  0.00    +0.000 A 
ATOM     33  C25 UNL     1      26.673  -6.881 -38.073  0.00  0.00    +0.000 A 
ATOM     34  C26 UNL     1      26.591  -6.397 -36.767  0.00  0.00    +0.000 A 
ATOM     35  C27 UNL     1      26.761  -7.257 -35.679  0.00  0.00    +0.000 A 
BRANCH  35  36
ATOM     36  O8  UNL     1      26.674  -6.733 -34.389  0.00  0.00    +0.000 OA
ATOM     37  H18 UNL     1      27.458  -6.276 -33.937  0.00  0.00    +0.000 HD
ENDBRANCH  35  36
BRANCH  30  38
ATOM     38  O1  UNL     1      27.201  -9.456 -34.776  0.00  0.00    +0.000 OA
BRANCH  38  40
ATOM     39  C1  UNL     1      29.119  -9.072 -33.333  0.00  0.00    +0.000 C 
ATOM     40  C2  UNL     1      28.443 -10.003 -34.335  0.00  0.00    +0.000 C 
ENDBRANCH  38  40
ENDBRANCH  30  38
ENDBRANCH   1  32
TORSDOF 8
ENDMDL
