MODEL 1
REMARK VINA RESULT:    -5.546      0.000      0.000
REMARK INTER + INTRA:          -8.754
REMARK INTER:                  -8.139
REMARK INTRA:                  -0.615
REMARK UNBOUND:                -0.615
REMARK  Name = resultss/4CJN/ligands/lig_49_t0.pdb
REMARK  11 active torsions:
REMARK  status: ('A' for Active; 'I' for Inactive)
REMARK    1  A    between atoms: O1_1  and  C1_2
REMARK    2  A    between atoms: C1_2  and  C2_3
REMARK    3  A    between atoms: C2_3  and  O2_4
REMARK    4  A    between atoms: C4_6  and  N1_7
REMARK    5  A    between atoms: N1_7  and  C5_8
REMARK    6  A    between atoms: C5_8  and  C6_9
REMARK    7  A    between atoms: C6_9  and  O3_10
REMARK    8  A    between atoms: C6_9  and  C7_11
REMARK    9  A    between atoms: C13_17  and  O4_18
REMARK   10  A    between atoms: C14_19  and  O5_20
REMARK   11  A    between atoms: C15_21  and  O6_22
REMARK                            x       y       z     vdW  Elec       q    Type
REMARK                         _______ _______ _______ _____ _____    ______ ____
ROOT
ATOM      1  C2  UNL     1      25.606  -8.933 -34.706  0.00  0.00    +0.000 C 
ATOM      2  C3  UNL     1      26.439  -8.382 -35.894  0.00  0.00    +0.000 C 
ATOM      3  C4  UNL     1      27.898  -8.921 -35.911  0.00  0.00    +0.000 C 
ATOM      4  C13 UNL     1      28.543  -8.943 -34.484  0.00  0.00    +0.000 C 
ATOM      5  C14 UNL     1      27.770  -8.089 -33.459  0.00  0.00    +0.000 C 
ATOM      6  C15 UNL     1      26.269  -8.498 -33.342  0.00  0.00    +0.000 C 
ENDROOT
BRANCH   1   7
ATOM      7  O2  UNL     1      25.586 -10.343 -34.749  0.00  0.00    +0.000 OA
ATOM      8  H4  UNL     1      25.725 -10.693 -33.830  0.00  0.00    +0.000 HD
ENDBRANCH   1   7
BRANCH   3   9
ATOM      9  N1  UNL     1      27.963 -10.256 -36.545  0.00  0.00    +0.000 NA
ATOM     10  H8  UNL     1      26.992 -10.626 -36.670  0.00  0.00    +0.000 HD
BRANCH   9  11
ATOM     11  C5  UNL     1      28.564 -10.190 -37.887  0.00  0.00    +0.000 C 
BRANCH  11  12
ATOM     12  C6  UNL     1      27.596 -10.754 -38.936  0.00  0.00    +0.000 C 
BRANCH  12  13
ATOM     13  C7  UNL     1      27.963 -10.282 -40.329  0.00  0.00    +0.000 A 
ATOM     14  C8  UNL     1      27.057  -9.519 -41.088  0.00  0.00    +0.000 A 
ATOM     15  C9  UNL     1      27.389  -9.114 -42.385  0.00  0.00    +0.000 A 
ATOM     16  C10 UNL     1      28.621  -9.474 -42.937  0.00  0.00    +0.000 A 
ATOM     17  C11 UNL     1      29.523 -10.241 -42.194  0.00  0.00    +0.000 A 
ATOM     18  C12 UNL     1      29.196 -10.647 -40.897  0.00  0.00    +0.000 A 
ENDBRANCH  12  13
BRANCH  12  19
ATOM     19  O3  UNL     1      27.621 -12.157 -38.879  0.00  0.00    +0.000 OA
ATOM     20  H12 UNL     1      27.103 -12.484 -39.660  0.00  0.00    +0.000 HD
ENDBRANCH  12  19
ENDBRANCH  11  12
ENDBRANCH   9  11
ENDBRANCH   3   9
BRANCH   4  21
ATOM     21  O4  UNL     1      28.752 -10.249 -33.998  0.00  0.00    +0.000 OA
ATOM     22  H19 UNL     1      28.031 -10.831 -34.348  0.00  0.00    +0.000 HD
ENDBRANCH   4  21
BRANCH   5  23
ATOM     23  O5  UNL     1      28.396  -8.188 -32.206  0.00  0.00    +0.000 OA
ATOM     24  H21 UNL     1      28.377  -7.280 -31.801  0.00  0.00    +0.000 HD
ENDBRANCH   5  23
BRANCH   6  25
ATOM     25  O6  UNL     1      25.554  -7.468 -32.699  0.00  0.00    +0.000 OA
ATOM     26  H23 UNL     1      25.755  -7.521 -31.728  0.00  0.00    +0.000 HD
ENDBRANCH   6  25
BRANCH   1  27
ATOM     27  C1  UNL     1      24.138  -8.426 -34.807  0.00  0.00    +0.000 C 
BRANCH  27  28
ATOM     28  O1  UNL     1      23.286  -9.140 -33.948  0.00  0.00    +0.000 OA
ATOM     29  H1  UNL     1      22.724  -8.474 -33.473  0.00  0.00    +0.000 HD
ENDBRANCH  27  28
ENDBRANCH   1  27
TORSDOF 11
ENDMDL
MODEL 2
REMARK VINA RESULT:    -5.447      1.663      2.375
REMARK INTER + INTRA:          -8.609
REMARK INTER:                  -7.879
REMARK INTRA:                  -0.730
REMARK UNBOUND:                -0.615
REMARK  Name = resultss/4CJN/ligands/lig_49_t0.pdb
REMARK  11 active torsions:
REMARK  status: ('A' for Active; 'I' for Inactive)
REMARK    1  A    between atoms: O1_1  and  C1_2
REMARK    2  A    between atoms: C1_2  and  C2_3
REMARK    3  A    between atoms: C2_3  and  O2_4
REMARK    4  A    between atoms: C4_6  and  N1_7
REMARK    5  A    between atoms: N1_7  and  C5_8
REMARK    6  A    between atoms: C5_8  and  C6_9
REMARK    7  A    between atoms: C6_9  and  O3_10
REMARK    8  A    between atoms: C6_9  and  C7_11
REMARK    9  A    between atoms: C13_17  and  O4_18
REMARK   10  A    between atoms: C14_19  and  O5_20
REMARK   11  A    between atoms: C15_21  and  O6_22
REMARK                            x       y       z     vdW  Elec       q    Type
REMARK                         _______ _______ _______ _____ _____    ______ ____
ROOT
ATOM      1  C2  UNL     1      24.908  -7.713 -36.609  0.00  0.00    +0.000 C 
ATOM      2  C3  UNL     1      26.460  -7.695 -36.600  0.00  0.00    +0.000 C 
ATOM      3  C4  UNL     1      27.075  -8.944 -35.906  0.00  0.00    +0.000 C 
ATOM      4  C13 UNL     1      26.318  -9.330 -34.591  0.00  0.00    +0.000 C 
ATOM      5  C14 UNL     1      25.406  -8.202 -34.067  0.00  0.00    +0.000 C 
ATOM      6  C15 UNL     1      24.366  -7.726 -35.126  0.00  0.00    +0.000 C 
ENDROOT
BRANCH   1   7
ATOM      7  O2  UNL     1      24.446  -8.882 -37.250  0.00  0.00    +0.000 OA
ATOM      8  H4  UNL     1      23.648  -8.655 -37.794  0.00  0.00    +0.000 HD
ENDBRANCH   1   7
BRANCH   3   9
ATOM      9  N1  UNL     1      27.140 -10.091 -36.838  0.00  0.00    +0.000 NA
ATOM     10  H8  UNL     1      26.168 -10.364 -37.118  0.00  0.00    +0.000 HD
BRANCH   9  11
ATOM     11  C5  UNL     1      27.851  -9.742 -38.079  0.00  0.00    +0.000 C 
BRANCH  11  12
ATOM     12  C6  UNL     1      27.400 -10.653 -39.230  0.00  0.00    +0.000 C 
BRANCH  12  13
ATOM     13  C7  UNL     1      28.074 -10.264 -40.530  0.00  0.00    +0.000 A 
ATOM     14  C8  UNL     1      29.468 -10.379 -40.678  0.00  0.00    +0.000 A 
ATOM     15  C9  UNL     1      30.087  -9.987 -41.869  0.00  0.00    +0.000 A 
ATOM     16  C10 UNL     1      29.322  -9.471 -42.918  0.00  0.00    +0.000 A 
ATOM     17  C11 UNL     1      27.938  -9.342 -42.777  0.00  0.00    +0.000 A 
ATOM     18  C12 UNL     1      27.315  -9.734 -41.589  0.00  0.00    +0.000 A 
ENDBRANCH  12  13
BRANCH  12  19
ATOM     19  O3  UNL     1      27.703 -11.985 -38.908  0.00  0.00    +0.000 OA
ATOM     20  H12 UNL     1      27.014 -12.287 -38.260  0.00  0.00    +0.000 HD
ENDBRANCH  12  19
ENDBRANCH  11  12
ENDBRANCH   9  11
ENDBRANCH   3   9
BRANCH   4  21
ATOM     21  O4  UNL     1      25.609 -10.543 -34.702  0.00  0.00    +0.000 OA
ATOM     22  H19 UNL     1      24.735 -10.436 -34.249  0.00  0.00    +0.000 HD
ENDBRANCH   4  21
BRANCH   5  23
ATOM     23  O5  UNL     1      24.746  -8.640 -32.906  0.00  0.00    +0.000 OA
ATOM     24  H21 UNL     1      23.786  -8.408 -33.015  0.00  0.00    +0.000 HD
ENDBRANCH   5  23
BRANCH   6  25
ATOM     25  O6  UNL     1      23.839  -6.479 -34.735  0.00  0.00    +0.000 OA
ATOM     26  H23 UNL     1      23.690  -5.943 -35.557  0.00  0.00    +0.000 HD
ENDBRANCH   6  25
BRANCH   1  27
ATOM     27  C1  UNL     1      24.367  -6.485 -37.397  0.00  0.00    +0.000 C 
BRANCH  27  28
ATOM     28  O1  UNL     1      22.974  -6.553 -37.565  0.00  0.00    +0.000 OA
ATOM     29  H1  UNL     1      22.661  -7.368 -37.094  0.00  0.00    +0.000 HD
ENDBRANCH  27  28
ENDBRANCH   1  27
TORSDOF 11
ENDMDL
MODEL 3
REMARK VINA RESULT:    -5.277      3.936      6.500
REMARK INTER + INTRA:          -8.359
REMARK INTER:                  -7.697
REMARK INTRA:                  -0.663
REMARK UNBOUND:                -0.615
REMARK  Name = resultss/4CJN/ligands/lig_49_t0.pdb
REMARK  11 active torsions:
REMARK  status: ('A' for Active; 'I' for Inactive)
REMARK    1  A    between atoms: O1_1  and  C1_2
REMARK    2  A    between atoms: C1_2  and  C2_3
REMARK    3  A    between atoms: C2_3  and  O2_4
REMARK    4  A    between atoms: C4_6  and  N1_7
REMARK    5  A    between atoms: N1_7  and  C5_8
REMARK    6  A    between atoms: C5_8  and  C6_9
REMARK    7  A    between atoms: C6_9  and  O3_10
REMARK    8  A    between atoms: C6_9  and  C7_11
REMARK    9  A    between atoms: C13_17  and  O4_18
REMARK   10  A    between atoms: C14_19  and  O5_20
REMARK   11  A    between atoms: C15_21  and  O6_22
REMARK                            x       y       z     vdW  Elec       q    Type
REMARK                         _______ _______ _______ _____ _____    ______ ____
ROOT
ATOM      1  C2  UNL     1      26.252  -8.821 -39.844  0.00  0.00    +0.000 C 
ATOM      2  C3  UNL     1      27.302  -9.921 -40.157  0.00  0.00    +0.000 C 
ATOM      3  C4  UNL     1      27.817  -9.865 -41.624  0.00  0.00    +0.000 C 
ATOM      4  C13 UNL     1      26.664  -9.608 -42.652  0.00  0.00    +0.000 C 
ATOM      5  C14 UNL     1      25.261  -9.851 -42.059  0.00  0.00    +0.000 C 
ATOM      6  C15 UNL     1      24.993  -9.004 -40.777  0.00  0.00    +0.000 C 
ENDROOT
BRANCH   1   7
ATOM      7  O2  UNL     1      26.802  -7.547 -40.101  0.00  0.00    +0.000 OA
ATOM      8  H4  UNL     1      27.771  -7.648 -40.289  0.00  0.00    +0.000 HD
ENDBRANCH   1   7
BRANCH   3   9
ATOM      9  N1  UNL     1      28.893  -8.861 -41.771  0.00  0.00    +0.000 NA
ATOM     10  H8  UNL     1      29.347  -8.704 -40.841  0.00  0.00    +0.000 HD
BRANCH   9  11
ATOM     11  C5  UNL     1      29.951  -9.329 -42.681  0.00  0.00    +0.000 C 
BRANCH  11  12
ATOM     12  C6  UNL     1      30.529 -10.663 -42.191  0.00  0.00    +0.000 C 
BRANCH  12  13
ATOM     13  C7  UNL     1      31.393 -11.309 -43.255  0.00  0.00    +0.000 A 
ATOM     14  C8  UNL     1      31.439 -12.709 -43.388  0.00  0.00    +0.000 A 
ATOM     15  C9  UNL     1      32.264 -13.300 -44.351  0.00  0.00    +0.000 A 
ATOM     16  C10 UNL     1      33.054 -12.501 -45.182  0.00  0.00    +0.000 A 
ATOM     17  C11 UNL     1      33.023 -11.110 -45.049  0.00  0.00    +0.000 A 
ATOM     18  C12 UNL     1      32.198 -10.515 -44.090  0.00  0.00    +0.000 A 
ENDBRANCH  12  13
BRANCH  12  19
ATOM     19  O3  UNL     1      31.282 -10.439 -41.027  0.00  0.00    +0.000 OA
ATOM     20  H12 UNL     1      32.193 -10.176 -41.323  0.00  0.00    +0.000 HD
ENDBRANCH  12  19
ENDBRANCH  11  12
ENDBRANCH   9  11
ENDBRANCH   3   9
BRANCH   4  21
ATOM     21  O4  UNL     1      26.743  -8.339 -43.258  0.00  0.00    +0.000 OA
ATOM     22  H19 UNL     1      26.190  -8.351 -44.079  0.00  0.00    +0.000 HD
ENDBRANCH   4  21
BRANCH   5  23
ATOM     23  O5  UNL     1      24.289  -9.572 -43.034  0.00  0.00    +0.000 OA
ATOM     24  H21 UNL     1      24.020 -10.442 -43.430  0.00  0.00    +0.000 HD
ENDBRANCH   5  23
BRANCH   6  25
ATOM     25  O6  UNL     1      23.885  -9.537 -40.089  0.00  0.00    +0.000 OA
ATOM     26  H23 UNL     1      24.178 -10.378 -39.650  0.00  0.00    +0.000 HD
ENDBRANCH   6  25
BRANCH   1  27
ATOM     27  C1  UNL     1      25.854  -8.880 -38.340  0.00  0.00    +0.000 C 
BRANCH  27  28
ATOM     28  O1  UNL     1      24.809  -7.989 -38.048  0.00  0.00    +0.000 OA
ATOM     29  H1  UNL     1      24.310  -8.364 -37.277  0.00  0.00    +0.000 HD
ENDBRANCH  27  28
ENDBRANCH   1  27
TORSDOF 11
ENDMDL
MODEL 4
REMARK VINA RESULT:    -5.200      2.485      6.983
REMARK INTER + INTRA:          -8.246
REMARK INTER:                  -7.407
REMARK INTRA:                  -0.839
REMARK UNBOUND:                -0.615
REMARK  Name = resultss/4CJN/ligands/lig_49_t0.pdb
REMARK  11 active torsions:
REMARK  status: ('A' for Active; 'I' for Inactive)
REMARK    1  A    between atoms: O1_1  and  C1_2
REMARK    2  A    between atoms: C1_2  and  C2_3
REMARK    3  A    between atoms: C2_3  and  O2_4
REMARK    4  A    between atoms: C4_6  and  N1_7
REMARK    5  A    between atoms: N1_7  and  C5_8
REMARK    6  A    between atoms: C5_8  and  C6_9
REMARK    7  A    between atoms: C6_9  and  O3_10
REMARK    8  A    between atoms: C6_9  and  C7_11
REMARK    9  A    between atoms: C13_17  and  O4_18
REMARK   10  A    between atoms: C14_19  and  O5_20
REMARK   11  A    between atoms: C15_21  and  O6_22
REMARK                            x       y       z     vdW  Elec       q    Type
REMARK                         _______ _______ _______ _____ _____    ______ ____
ROOT
ATOM      1  C2  UNL     1      27.715  -9.136 -39.037  0.00  0.00    +0.000 C 
ATOM      2  C3  UNL     1      27.182  -8.022 -38.098  0.00  0.00    +0.000 C 
ATOM      3  C4  UNL     1      25.628  -7.972 -38.040  0.00  0.00    +0.000 C 
ATOM      4  C13 UNL     1      24.973  -8.145 -39.452  0.00  0.00    +0.000 C 
ATOM      5  C14 UNL     1      25.971  -7.939 -40.610  0.00  0.00    +0.000 C 
ATOM      6  C15 UNL     1      27.212  -8.878 -40.511  0.00  0.00    +0.000 C 
ENDROOT
BRANCH   1   7
ATOM      7  O2  UNL     1      27.219 -10.391 -38.623  0.00  0.00    +0.000 OA
ATOM      8  H4  UNL     1      26.536 -10.697 -39.276  0.00  0.00    +0.000 HD
ENDBRANCH   1   7
BRANCH   3   9
ATOM      9  N1  UNL     1      25.100  -8.968 -37.083  0.00  0.00    +0.000 NA
ATOM     10  H8  UNL     1      25.507  -9.907 -37.302  0.00  0.00    +0.000 HD
BRANCH   9  11
ATOM     11  C5  UNL     1      25.494  -8.653 -35.700  0.00  0.00    +0.000 C 
BRANCH  11  12
ATOM     12  C6  UNL     1      26.272  -9.824 -35.084  0.00  0.00    +0.000 C 
BRANCH  12  13
ATOM     13  C7  UNL     1      27.344  -9.330 -34.134  0.00  0.00    +0.000 A 
ATOM     14  C8  UNL     1      27.086  -8.263 -33.254  0.00  0.00    +0.000 A 
ATOM     15  C9  UNL     1      28.091  -7.790 -32.405  0.00  0.00    +0.000 A 
ATOM     16  C10 UNL     1      29.362  -8.371 -32.431  0.00  0.00    +0.000 A 
ATOM     17  C11 UNL     1      29.631  -9.423 -33.310  0.00  0.00    +0.000 A 
ATOM     18  C12 UNL     1      28.629  -9.901 -34.160  0.00  0.00    +0.000 A 
ENDBRANCH  12  13
BRANCH  12  19
ATOM     19  O3  UNL     1      25.375 -10.665 -34.404  0.00  0.00    +0.000 OA
ATOM     20  H12 UNL     1      25.795 -10.886 -33.532  0.00  0.00    +0.000 HD
ENDBRANCH  12  19
ENDBRANCH  11  12
ENDBRANCH   9  11
ENDBRANCH   3   9
BRANCH   4  21
ATOM     21  O4  UNL     1      24.284  -9.366 -39.589  0.00  0.00    +0.000 OA
ATOM     22  H19 UNL     1      24.615  -9.990 -38.896  0.00  0.00    +0.000 HD
ENDBRANCH   4  21
BRANCH   5  23
ATOM     23  O5  UNL     1      25.310  -8.140 -41.833  0.00  0.00    +0.000 OA
ATOM     24  H21 UNL     1      25.423  -9.099 -42.068  0.00  0.00    +0.000 HD
ENDBRANCH   5  23
BRANCH   6  25
ATOM     25  O6  UNL     1      28.232  -8.392 -41.351  0.00  0.00    +0.000 OA
ATOM     26  H23 UNL     1      28.719  -7.682 -40.856  0.00  0.00    +0.000 HD
ENDBRANCH   6  25
BRANCH   1  27
ATOM     27  C1  UNL     1      29.269  -9.187 -38.972  0.00  0.00    +0.000 C 
BRANCH  27  28
ATOM     28  O1  UNL     1      29.775 -10.328 -39.617  0.00  0.00    +0.000 OA
ATOM     29  H1  UNL     1      30.675 -10.505 -39.237  0.00  0.00    +0.000 HD
ENDBRANCH  27  28
ENDBRANCH   1  27
TORSDOF 11
ENDMDL
MODEL 5
REMARK VINA RESULT:    -5.162      3.207      7.035
REMARK INTER + INTRA:          -8.190
REMARK INTER:                  -7.284
REMARK INTRA:                  -0.907
REMARK UNBOUND:                -0.615
REMARK  Name = resultss/4CJN/ligands/lig_49_t0.pdb
REMARK  11 active torsions:
REMARK  status: ('A' for Active; 'I' for Inactive)
REMARK    1  A    between atoms: O1_1  and  C1_2
REMARK    2  A    between atoms: C1_2  and  C2_3
REMARK    3  A    between atoms: C2_3  and  O2_4
REMARK    4  A    between atoms: C4_6  and  N1_7
REMARK    5  A    between atoms: N1_7  and  C5_8
REMARK    6  A    between atoms: C5_8  and  C6_9
REMARK    7  A    between atoms: C6_9  and  O3_10
REMARK    8  A    between atoms: C6_9  and  C7_11
REMARK    9  A    between atoms: C13_17  and  O4_18
REMARK   10  A    between atoms: C14_19  and  O5_20
REMARK   11  A    between atoms: C15_21  and  O6_22
REMARK                            x       y       z     vdW  Elec       q    Type
REMARK                         _______ _______ _______ _____ _____    ______ ____
ROOT
ATOM      1  C2  UNL     1      25.098  -8.993 -41.005  0.00  0.00    +0.000 C 
ATOM      2  C3  UNL     1      26.448  -8.484 -40.432  0.00  0.00    +0.000 C 
ATOM      3  C4  UNL     1      26.376  -8.159 -38.913  0.00  0.00    +0.000 C 
ATOM      4  C13 UNL     1      25.060  -7.403 -38.526  0.00  0.00    +0.000 C 
ATOM      5  C14 UNL     1      24.323  -6.811 -39.745  0.00  0.00    +0.000 C 
ATOM      6  C15 UNL     1      23.990  -7.882 -40.828  0.00  0.00    +0.000 C 
ENDROOT
BRANCH   1   7
ATOM      7  O2  UNL     1      24.680 -10.140 -40.298  0.00  0.00    +0.000 OA
ATOM      8  H4  UNL     1      23.835  -9.931 -39.820  0.00  0.00    +0.000 HD
ENDBRANCH   1   7
BRANCH   3   9
ATOM      9  N1  UNL     1      26.545  -9.383 -38.100  0.00  0.00    +0.000 NA
ATOM     10  H8  UNL     1      26.974 -10.133 -38.691  0.00  0.00    +0.000 HD
BRANCH   9  11
ATOM     11  C5  UNL     1      27.464  -9.162 -36.971  0.00  0.00    +0.000 C 
BRANCH  11  12
ATOM     12  C6  UNL     1      26.979  -9.921 -35.728  0.00  0.00    +0.000 C 
BRANCH  12  13
ATOM     13  C7  UNL     1      27.552  -9.318 -34.461  0.00  0.00    +0.000 A 
ATOM     14  C8  UNL     1      26.819  -8.369 -33.725  0.00  0.00    +0.000 A 
ATOM     15  C9  UNL     1      27.367  -7.792 -32.575  0.00  0.00    +0.000 A 
ATOM     16  C10 UNL     1      28.651  -8.150 -32.155  0.00  0.00    +0.000 A 
ATOM     17  C11 UNL     1      29.391  -9.083 -32.887  0.00  0.00    +0.000 A 
ATOM     18  C12 UNL     1      28.846  -9.664 -34.036  0.00  0.00    +0.000 A 
ENDBRANCH  12  13
BRANCH  12  19
ATOM     19  O3  UNL     1      25.576  -9.889 -35.688  0.00  0.00    +0.000 OA
ATOM     20  H12 UNL     1      25.255 -10.376 -36.491  0.00  0.00    +0.000 HD
ENDBRANCH  12  19
ENDBRANCH  11  12
ENDBRANCH   9  11
ENDBRANCH   3   9
BRANCH   4  21
ATOM     21  O4  UNL     1      24.190  -8.186 -37.741  0.00  0.00    +0.000 OA
ATOM     22  H19 UNL     1      23.297  -7.758 -37.744  0.00  0.00    +0.000 HD
ENDBRANCH   4  21
BRANCH   5  23
ATOM     23  O5  UNL     1      23.145  -6.179 -39.313  0.00  0.00    +0.000 OA
ATOM     24  H21 UNL     1      22.538  -6.894 -38.984  0.00  0.00    +0.000 HD
ENDBRANCH   5  23
BRANCH   6  25
ATOM     25  O6  UNL     1      23.675  -7.237 -42.040  0.00  0.00    +0.000 OA
ATOM     26  H23 UNL     1      23.658  -7.927 -42.754  0.00  0.00    +0.000 HD
ENDBRANCH   6  25
BRANCH   1  27
ATOM     27  C1  UNL     1      25.271  -9.385 -42.501  0.00  0.00    +0.000 C 
BRANCH  27  28
ATOM     28  O1  UNL     1      24.126 -10.028 -43.001  0.00  0.00    +0.000 OA
ATOM     29  H1  UNL     1      23.337  -9.552 -42.632  0.00  0.00    +0.000 HD
ENDBRANCH  27  28
ENDBRANCH   1  27
TORSDOF 11
ENDMDL
MODEL 6
REMARK VINA RESULT:    -5.140      2.531      6.889
REMARK INTER + INTRA:          -8.159
REMARK INTER:                  -7.110
REMARK INTRA:                  -1.049
REMARK UNBOUND:                -0.615
REMARK  Name = resultss/4CJN/ligands/lig_49_t0.pdb
REMARK  11 active torsions:
REMARK  status: ('A' for Active; 'I' for Inactive)
REMARK    1  A    between atoms: O1_1  and  C1_2
REMARK    2  A    between atoms: C1_2  and  C2_3
REMARK    3  A    between atoms: C2_3  and  O2_4
REMARK    4  A    between atoms: C4_6  and  N1_7
REMARK    5  A    between atoms: N1_7  and  C5_8
REMARK    6  A    between atoms: C5_8  and  C6_9
REMARK    7  A    between atoms: C6_9  and  O3_10
REMARK    8  A    between atoms: C6_9  and  C7_11
REMARK    9  A    between atoms: C13_17  and  O4_18
REMARK   10  A    between atoms: C14_19  and  O5_20
REMARK   11  A    between atoms: C15_21  and  O6_22
REMARK                            x       y       z     vdW  Elec       q    Type
REMARK                         _______ _______ _______ _____ _____    ______ ____
ROOT
ATOM      1  C2  UNL     1      27.715  -9.479 -39.993  0.00  0.00    +0.000 C 
ATOM      2  C3  UNL     1      27.339  -8.203 -39.195  0.00  0.00    +0.000 C 
ATOM      3  C4  UNL     1      25.808  -8.066 -38.959  0.00  0.00    +0.000 C 
ATOM      4  C13 UNL     1      24.973  -8.433 -40.232  0.00  0.00    +0.000 C 
ATOM      5  C14 UNL     1      25.820  -8.468 -41.520  0.00  0.00    +0.000 C 
ATOM      6  C15 UNL     1      27.036  -9.439 -41.417  0.00  0.00    +0.000 C 
ENDROOT
BRANCH   1   7
ATOM      7  O2  UNL     1      27.240 -10.624 -39.318  0.00  0.00    +0.000 OA
ATOM      8  H4  UNL     1      26.271 -10.509 -39.135  0.00  0.00    +0.000 HD
ENDBRANCH   1   7
BRANCH   3   9
ATOM      9  N1  UNL     1      25.378  -8.867 -37.791  0.00  0.00    +0.000 NA
ATOM     10  H8  UNL     1      25.497  -9.884 -38.008  0.00  0.00    +0.000 HD
BRANCH   9  11
ATOM     11  C5  UNL     1      26.207  -8.589 -36.608  0.00  0.00    +0.000 C 
BRANCH  11  12
ATOM     12  C6  UNL     1      26.647  -9.900 -35.941  0.00  0.00    +0.000 C 
BRANCH  12  13
ATOM     13  C7  UNL     1      28.063  -9.795 -35.410  0.00  0.00    +0.000 A 
ATOM     14  C8  UNL     1      28.308  -9.767 -34.026  0.00  0.00    +0.000 A 
ATOM     15  C9  UNL     1      29.614  -9.636 -33.542  0.00  0.00    +0.000 A 
ATOM     16  C10 UNL     1      30.683  -9.525 -34.435  0.00  0.00    +0.000 A 
ATOM     17  C11 UNL     1      30.448  -9.540 -35.813  0.00  0.00    +0.000 A 
ATOM     18  C12 UNL     1      29.144  -9.672 -36.300  0.00  0.00    +0.000 A 
ENDBRANCH  12  13
BRANCH  12  19
ATOM     19  O3  UNL     1      25.760 -10.205 -34.896  0.00  0.00    +0.000 OA
ATOM     20  H12 UNL     1      25.563 -11.176 -34.963  0.00  0.00    +0.000 HD
ENDBRANCH  12  19
ENDBRANCH  11  12
ENDBRANCH   9  11
ENDBRANCH   3   9
BRANCH   4  21
ATOM     21  O4  UNL     1      24.236  -9.624 -40.079  0.00  0.00    +0.000 OA
ATOM     22  H19 UNL     1      23.689  -9.759 -40.892  0.00  0.00    +0.000 HD
ENDBRANCH   4  21
BRANCH   5  23
ATOM     23  O5  UNL     1      25.003  -8.831 -42.603  0.00  0.00    +0.000 OA
ATOM     24  H21 UNL     1      24.609  -9.716 -42.383  0.00  0.00    +0.000 HD
ENDBRANCH   5  23
BRANCH   6  25
ATOM     25  O6  UNL     1      27.955  -9.146 -42.444  0.00  0.00    +0.000 OA
ATOM     26  H23 UNL     1      28.803  -8.857 -42.018  0.00  0.00    +0.000 HD
ENDBRANCH   6  25
BRANCH   1  27
ATOM     27  C1  UNL     1      29.263  -9.597 -40.109  0.00  0.00    +0.000 C 
BRANCH  27  28
ATOM     28  O1  UNL     1      29.645 -10.803 -40.718  0.00  0.00    +0.000 OA
ATOM     29  H1  UNL     1      30.635 -10.797 -40.787  0.00  0.00    +0.000 HD
ENDBRANCH  27  28
ENDBRANCH   1  27
TORSDOF 11
ENDMDL
MODEL 7
REMARK VINA RESULT:    -5.004      4.078      7.785
REMARK INTER + INTRA:          -7.959
REMARK INTER:                  -6.928
REMARK INTRA:                  -1.031
REMARK UNBOUND:                -0.615
REMARK  Name = resultss/4CJN/ligands/lig_49_t0.pdb
REMARK  11 active torsions:
REMARK  status: ('A' for Active; 'I' for Inactive)
REMARK    1  A    between atoms: O1_1  and  C1_2
REMARK    2  A    between atoms: C1_2  and  C2_3
REMARK    3  A    between atoms: C2_3  and  O2_4
REMARK    4  A    between atoms: C4_6  and  N1_7
REMARK    5  A    between atoms: N1_7  and  C5_8
REMARK    6  A    between atoms: C5_8  and  C6_9
REMARK    7  A    between atoms: C6_9  and  O3_10
REMARK    8  A    between atoms: C6_9  and  C7_11
REMARK    9  A    between atoms: C13_17  and  O4_18
REMARK   10  A    between atoms: C14_19  and  O5_20
REMARK   11  A    between atoms: C15_21  and  O6_22
REMARK                            x       y       z     vdW  Elec       q    Type
REMARK                         _______ _______ _______ _____ _____    ______ ____
ROOT
ATOM      1  C2  UNL     1      24.725  -9.085 -41.069  0.00  0.00    +0.000 C 
ATOM      2  C3  UNL     1      25.359  -7.682 -40.869  0.00  0.00    +0.000 C 
ATOM      3  C4  UNL     1      24.299  -6.547 -40.776  0.00  0.00    +0.000 C 
ATOM      4  C13 UNL     1      23.153  -6.713 -41.831  0.00  0.00    +0.000 C 
ATOM      5  C14 UNL     1      23.509  -7.705 -42.957  0.00  0.00    +0.000 C 
ATOM      6  C15 UNL     1      23.907  -9.113 -42.419  0.00  0.00    +0.000 C 
ENDROOT
BRANCH   1   7
ATOM      7  O2  UNL     1      23.830  -9.362 -40.013  0.00  0.00    +0.000 OA
ATOM      8  H4  UNL     1      23.895 -10.325 -39.784  0.00  0.00    +0.000 HD
ENDBRANCH   1   7
BRANCH   3   9
ATOM      9  N1  UNL     1      23.750  -6.444 -39.406  0.00  0.00    +0.000 NA
ATOM     10  H8  UNL     1      23.138  -7.272 -39.217  0.00  0.00    +0.000 HD
BRANCH   9  11
ATOM     11  C5  UNL     1      24.817  -6.469 -38.392  0.00  0.00    +0.000 C 
BRANCH  11  12
ATOM     12  C6  UNL     1      24.322  -7.155 -37.111  0.00  0.00    +0.000 C 
BRANCH  12  13
ATOM     13  C7  UNL     1      25.362  -8.114 -36.567  0.00  0.00    +0.000 A 
ATOM     14  C8  UNL     1      26.385  -8.606 -37.396  0.00  0.00    +0.000 A 
ATOM     15  C9  UNL     1      27.322  -9.517 -36.897  0.00  0.00    +0.000 A 
ATOM     16  C10 UNL     1      27.241  -9.948 -35.570  0.00  0.00    +0.000 A 
ATOM     17  C11 UNL     1      26.221  -9.473 -34.742  0.00  0.00    +0.000 A 
ATOM     18  C12 UNL     1      25.283  -8.561 -35.236  0.00  0.00    +0.000 A 
ENDBRANCH  12  13
BRANCH  12  19
ATOM     19  O3  UNL     1      24.019  -6.175 -36.152  0.00  0.00    +0.000 OA
ATOM     20  H12 UNL     1      24.811  -6.102 -35.557  0.00  0.00    +0.000 HD
ENDBRANCH  12  19
ENDBRANCH  11  12
ENDBRANCH   9  11
ENDBRANCH   3   9
BRANCH   4  21
ATOM     21  O4  UNL     1      21.913  -7.037 -41.245  0.00  0.00    +0.000 OA
ATOM     22  H19 UNL     1      21.240  -6.382 -41.560  0.00  0.00    +0.000 HD
ENDBRANCH   4  21
BRANCH   5  23
ATOM     23  O5  UNL     1      22.421  -7.815 -43.839  0.00  0.00    +0.000 OA
ATOM     24  H21 UNL     1      22.659  -8.513 -44.505  0.00  0.00    +0.000 HD
ENDBRANCH   5  23
BRANCH   6  25
ATOM     25  O6  UNL     1      24.568  -9.831 -43.435  0.00  0.00    +0.000 OA
ATOM     26  H23 UNL     1      24.965  -9.172 -44.061  0.00  0.00    +0.000 HD
ENDBRANCH   6  25
BRANCH   1  27
ATOM     27  C1  UNL     1      25.835 -10.176 -41.059  0.00  0.00    +0.000 C 
BRANCH  27  28
ATOM     28  O1  UNL     1      25.290 -11.467 -41.147  0.00  0.00    +0.000 OA
ATOM     29  H1  UNL     1      24.641 -11.461 -41.898  0.00  0.00    +0.000 HD
ENDBRANCH  27  28
ENDBRANCH   1  27
TORSDOF 11
ENDMDL
MODEL 8
REMARK VINA RESULT:    -4.966      3.156      4.920
REMARK INTER + INTRA:          -7.903
REMARK INTER:                  -6.799
REMARK INTRA:                  -1.104
REMARK UNBOUND:                -0.615
REMARK  Name = resultss/4CJN/ligands/lig_49_t0.pdb
REMARK  11 active torsions:
REMARK  status: ('A' for Active; 'I' for Inactive)
REMARK    1  A    between atoms: O1_1  and  C1_2
REMARK    2  A    between atoms: C1_2  and  C2_3
REMARK    3  A    between atoms: C2_3  and  O2_4
REMARK    4  A    between atoms: C4_6  and  N1_7
REMARK    5  A    between atoms: N1_7  and  C5_8
REMARK    6  A    between atoms: C5_8  and  C6_9
REMARK    7  A    between atoms: C6_9  and  O3_10
REMARK    8  A    between atoms: C6_9  and  C7_11
REMARK    9  A    between atoms: C13_17  and  O4_18
REMARK   10  A    between atoms: C14_19  and  O5_20
REMARK   11  A    between atoms: C15_21  and  O6_22
REMARK                            x       y       z     vdW  Elec       q    Type
REMARK                         _______ _______ _______ _____ _____    ______ ____
ROOT
ATOM      1  C2  UNL     1      23.792  -7.232 -36.199  0.00  0.00    +0.000 C 
ATOM      2  C3  UNL     1      25.204  -6.626 -35.981  0.00  0.00    +0.000 C 
ATOM      3  C4  UNL     1      26.276  -7.700 -35.639  0.00  0.00    +0.000 C 
ATOM      4  C13 UNL     1      25.749  -8.768 -34.623  0.00  0.00    +0.000 C 
ATOM      5  C14 UNL     1      24.462  -8.327 -33.897  0.00  0.00    +0.000 C 
ATOM      6  C15 UNL     1      23.311  -7.954 -34.880  0.00  0.00    +0.000 C 
ENDROOT
BRANCH   1   7
ATOM      7  O2  UNL     1      23.837  -8.195 -37.229  0.00  0.00    +0.000 OA
ATOM      8  H4  UNL     1      24.174  -9.050 -36.854  0.00  0.00    +0.000 HD
ENDBRANCH   1   7
BRANCH   3   9
ATOM      9  N1  UNL     1      26.793  -8.344 -36.867  0.00  0.00    +0.000 NA
ATOM     10  H8  UNL     1      26.370  -7.878 -37.704  0.00  0.00    +0.000 HD
BRANCH   9  11
ATOM     11  C5  UNL     1      28.251  -8.185 -36.990  0.00  0.00    +0.000 C 
BRANCH  11  12
ATOM     12  C6  UNL     1      28.954  -9.539 -36.821  0.00  0.00    +0.000 C 
BRANCH  12  13
ATOM     13  C7  UNL     1      29.770  -9.576 -35.545  0.00  0.00    +0.000 A 
ATOM     14  C8  UNL     1      29.141  -9.722 -34.295  0.00  0.00    +0.000 A 
ATOM     15  C9  UNL     1      29.898  -9.721 -33.119  0.00  0.00    +0.000 A 
ATOM     16  C10 UNL     1      31.286  -9.567 -33.180  0.00  0.00    +0.000 A 
ATOM     17  C11 UNL     1      31.918  -9.409 -34.415  0.00  0.00    +0.000 A 
ATOM     18  C12 UNL     1      31.166  -9.411 -35.594  0.00  0.00    +0.000 A 
ENDBRANCH  12  13
BRANCH  12  19
ATOM     19  O3  UNL     1      27.989 -10.560 -36.806  0.00  0.00    +0.000 OA
ATOM     20  H12 UNL     1      27.152 -10.157 -36.454  0.00  0.00    +0.000 HD
ENDBRANCH  12  19
ENDBRANCH  11  12
ENDBRANCH   9  11
ENDBRANCH   3   9
BRANCH   4  21
ATOM     21  O4  UNL     1      25.590 -10.043 -35.202  0.00  0.00    +0.000 OA
ATOM     22  H19 UNL     1      25.787 -10.725 -34.512  0.00  0.00    +0.000 HD
ENDBRANCH   4  21
BRANCH   5  23
ATOM     23  O5  UNL     1      24.043  -9.350 -33.030  0.00  0.00    +0.000 OA
ATOM     24  H21 UNL     1      24.263  -9.054 -32.107  0.00  0.00    +0.000 HD
ENDBRANCH   5  23
BRANCH   6  25
ATOM     25  O6  UNL     1      22.327  -7.218 -34.191  0.00  0.00    +0.000 OA
ATOM     26  H23 UNL     1      22.446  -6.261 -34.426  0.00  0.00    +0.000 HD
ENDBRANCH   6  25
BRANCH   1  27
ATOM     27  C1  UNL     1      22.795  -6.116 -36.627  0.00  0.00    +0.000 C 
BRANCH  27  28
ATOM     28  O1  UNL     1      21.519  -6.638 -36.892  0.00  0.00    +0.000 OA
ATOM     29  H1  UNL     1      21.390  -6.613 -37.876  0.00  0.00    +0.000 HD
ENDBRANCH  27  28
ENDBRANCH   1  27
TORSDOF 11
ENDMDL
MODEL 9
REMARK VINA RESULT:    -4.847      2.438      7.531
REMARK INTER + INTRA:          -7.729
REMARK INTER:                  -6.913
REMARK INTRA:                  -0.816
REMARK UNBOUND:                -0.615
REMARK  Name = resultss/4CJN/ligands/lig_49_t0.pdb
REMARK  11 active torsions:
REMARK  status: ('A' for Active; 'I' for Inactive)
REMARK    1  A    between atoms: O1_1  and  C1_2
REMARK    2  A    between atoms: C1_2  and  C2_3
REMARK    3  A    between atoms: C2_3  and  O2_4
REMARK    4  A    between atoms: C4_6  and  N1_7
REMARK    5  A    between atoms: N1_7  and  C5_8
REMARK    6  A    between atoms: C5_8  and  C6_9
REMARK    7  A    between atoms: C6_9  and  O3_10
REMARK    8  A    between atoms: C6_9  and  C7_11
REMARK    9  A    between atoms: C13_17  and  O4_18
REMARK   10  A    between atoms: C14_19  and  O5_20
REMARK   11  A    between atoms: C15_21  and  O6_22
REMARK                            x       y       z     vdW  Elec       q    Type
REMARK                         _______ _______ _______ _____ _____    ______ ____
ROOT
ATOM      1  C2  UNL     1      27.733  -9.617 -39.899  0.00  0.00    +0.000 C 
ATOM      2  C3  UNL     1      27.395  -8.148 -39.528  0.00  0.00    +0.000 C 
ATOM      3  C4  UNL     1      25.867  -7.900 -39.373  0.00  0.00    +0.000 C 
ATOM      4  C13 UNL     1      25.031  -8.607 -40.493  0.00  0.00    +0.000 C 
ATOM      5  C14 UNL     1      25.889  -9.053 -41.695  0.00  0.00    +0.000 C 
ATOM      6  C15 UNL     1      27.069  -9.985 -41.282  0.00  0.00    +0.000 C 
ENDROOT
BRANCH   1   7
ATOM      7  O2  UNL     1      27.212 -10.490 -38.921  0.00  0.00    +0.000 OA
ATOM      8  H4  UNL     1      27.100  -9.989 -38.071  0.00  0.00    +0.000 HD
ENDBRANCH   1   7
BRANCH   3   9
ATOM      9  N1  UNL     1      25.398  -8.299 -38.028  0.00  0.00    +0.000 NA
ATOM     10  H8  UNL     1      25.464  -9.340 -37.934  0.00  0.00    +0.000 HD
BRANCH   9  11
ATOM     11  C5  UNL     1      26.244  -7.728 -36.968  0.00  0.00    +0.000 C 
BRANCH  11  12
ATOM     12  C6  UNL     1      26.262  -8.650 -35.741  0.00  0.00    +0.000 C 
BRANCH  12  13
ATOM     13  C7  UNL     1      25.166  -8.280 -34.762  0.00  0.00    +0.000 A 
ATOM     14  C8  UNL     1      24.590  -6.997 -34.783  0.00  0.00    +0.000 A 
ATOM     15  C9  UNL     1      23.602  -6.651 -33.856  0.00  0.00    +0.000 A 
ATOM     16  C10 UNL     1      23.187  -7.579 -32.897  0.00  0.00    +0.000 A 
ATOM     17  C11 UNL     1      23.761  -8.852 -32.861  0.00  0.00    +0.000 A 
ATOM     18  C12 UNL     1      24.748  -9.203 -33.787  0.00  0.00    +0.000 A 
ENDBRANCH  12  13
BRANCH  12  19
ATOM     19  O3  UNL     1      26.105  -9.980 -36.163  0.00  0.00    +0.000 OA
ATOM     20  H12 UNL     1      25.596 -10.448 -35.450  0.00  0.00    +0.000 HD
ENDBRANCH  12  19
ENDBRANCH  11  12
ENDBRANCH   9  11
ENDBRANCH   3   9
BRANCH   4  21
ATOM     21  O4  UNL     1      24.253  -9.674 -40.004  0.00  0.00    +0.000 OA
ATOM     22  H19 UNL     1      23.358  -9.323 -39.764  0.00  0.00    +0.000 HD
ENDBRANCH   4  21
BRANCH   5  23
ATOM     23  O5  UNL     1      25.069  -9.701 -42.635  0.00  0.00    +0.000 OA
ATOM     24  H21 UNL     1      24.404 -10.230 -42.122  0.00  0.00    +0.000 HD
ENDBRANCH   5  23
BRANCH   6  25
ATOM     25  O6  UNL     1      28.007 -10.043 -42.332  0.00  0.00    +0.000 OA
ATOM     26  H23 UNL     1      28.546  -9.211 -42.302  0.00  0.00    +0.000 HD
ENDBRANCH   6  25
BRANCH   1  27
ATOM     27  C1  UNL     1      29.277  -9.811 -39.944  0.00  0.00    +0.000 C 
BRANCH  27  28
ATOM     28  O1  UNL     1      29.776 -10.268 -38.714  0.00  0.00    +0.000 OA
ATOM     29  H1  UNL     1      29.047 -10.776 -38.272  0.00  0.00    +0.000 HD
ENDBRANCH  27  28
ENDBRANCH   1  27
TORSDOF 11
ENDMDL
