MODEL 1
REMARK VINA RESULT:    -4.054      0.000      0.000
REMARK INTER + INTRA:          -5.751
REMARK INTER:                  -5.357
REMARK INTRA:                  -0.394
REMARK UNBOUND:                -0.394
REMARK  Name = resultss/4CJN/ligands/lig_125_t0.pdb
REMARK  8 active torsions:
REMARK  status: ('A' for Active; 'I' for Inactive)
REMARK    1  A    between atoms: O1_1  and  C1_2
REMARK    2  A    between atoms: C1_2  and  C2_3
REMARK    3  A    between atoms: C2_3  and  N1_4
REMARK    4  A    between atoms: C4_6  and  O2_7
REMARK    5  A    between atoms: C5_8  and  O3_9
REMARK    6  A    between atoms: C6_10  and  O4_11
REMARK    7  A    between atoms: C7_12  and  C8_13
REMARK    8  A    between atoms: C8_13  and  O5_14
REMARK                            x       y       z     vdW  Elec       q    Type
REMARK                         _______ _______ _______ _____ _____    ______ ____
ROOT
ATOM      1  N1  UNL     1      27.207  -7.481 -34.042  0.00  0.00    +0.000 NA
ATOM      2  C3  UNL     1      26.285  -6.902 -33.036  0.00  0.00    +0.000 C 
ATOM      3  C4  UNL     1      24.828  -7.214 -33.383  0.00  0.00    +0.000 C 
ATOM      4  C5  UNL     1      24.624  -8.735 -33.404  0.00  0.00    +0.000 C 
ATOM      5  C6  UNL     1      25.609  -9.387 -34.392  0.00  0.00    +0.000 C 
ATOM      6  C7  UNL     1      27.079  -8.969 -34.101  0.00  0.00    +0.000 C 
ENDROOT
BRANCH   3   7
ATOM      7  O2  UNL     1      23.954  -6.601 -32.467  0.00  0.00    +0.000 OA
ATOM      8  H9  UNL     1      24.254  -6.844 -31.552  0.00  0.00    +0.000 HD
ENDBRANCH   3   7
BRANCH   4   9
ATOM      9  O3  UNL     1      23.293  -9.054 -33.735  0.00  0.00    +0.000 OA
ATOM     10  H11 UNL     1      23.314  -9.808 -34.382  0.00  0.00    +0.000 HD
ENDBRANCH   4   9
BRANCH   5  11
ATOM     11  O4  UNL     1      25.493 -10.785 -34.297  0.00  0.00    +0.000 OA
ATOM     12  H13 UNL     1      25.788 -11.161 -35.167  0.00  0.00    +0.000 HD
ENDBRANCH   5  11
BRANCH   1  13
ATOM     13  C2  UNL     1      28.591  -7.028 -33.737  0.00  0.00    +0.000 C 
BRANCH  13  14
ATOM     14  C1  UNL     1      28.984  -7.428 -32.315  0.00  0.00    +0.000 C 
BRANCH  14  15
ATOM     15  O1  UNL     1      30.176  -8.164 -32.340  0.00  0.00    +0.000 OA
ATOM     16  H1  UNL     1      30.213  -8.656 -31.479  0.00  0.00    +0.000 HD
ENDBRANCH  14  15
ENDBRANCH  13  14
ENDBRANCH   1  13
BRANCH   6  17
ATOM     17  C8  UNL     1      27.985  -9.574 -35.218  0.00  0.00    +0.000 C 
BRANCH  17  18
ATOM     18  O5  UNL     1      27.213 -10.096 -36.265  0.00  0.00    +0.000 OA
ATOM     19  H17 UNL     1      27.710  -9.910 -37.104  0.00  0.00    +0.000 HD
ENDBRANCH  17  18
ENDBRANCH   6  17
TORSDOF 8
ENDMDL
MODEL 2
REMARK VINA RESULT:    -3.997      2.579      4.162
REMARK INTER + INTRA:          -5.676
REMARK INTER:                  -5.342
REMARK INTRA:                  -0.335
REMARK UNBOUND:                -0.394
REMARK  Name = resultss/4CJN/ligands/lig_125_t0.pdb
REMARK  8 active torsions:
REMARK  status: ('A' for Active; 'I' for Inactive)
REMARK    1  A    between atoms: O1_1  and  C1_2
REMARK    2  A    between atoms: C1_2  and  C2_3
REMARK    3  A    between atoms: C2_3  and  N1_4
REMARK    4  A    between atoms: C4_6  and  O2_7
REMARK    5  A    between atoms: C5_8  and  O3_9
REMARK    6  A    between atoms: C6_10  and  O4_11
REMARK    7  A    between atoms: C7_12  and  C8_13
REMARK    8  A    between atoms: C8_13  and  O5_14
REMARK                            x       y       z     vdW  Elec       q    Type
REMARK                         _______ _______ _______ _____ _____    ______ ____
ROOT
ATOM      1  N1  UNL     1      24.750  -8.393 -36.070  0.00  0.00    +0.000 NA
ATOM      2  C3  UNL     1      23.926  -7.161 -36.066  0.00  0.00    +0.000 C 
ATOM      3  C4  UNL     1      23.066  -7.080 -34.803  0.00  0.00    +0.000 C 
ATOM      4  C5  UNL     1      23.976  -7.055 -33.568  0.00  0.00    +0.000 C 
ATOM      5  C6  UNL     1      24.897  -8.289 -33.565  0.00  0.00    +0.000 C 
ATOM      6  C7  UNL     1      25.681  -8.427 -34.902  0.00  0.00    +0.000 C 
ENDROOT
BRANCH   3   7
ATOM      7  O2  UNL     1      22.233  -5.947 -34.839  0.00  0.00    +0.000 OA
ATOM      8  H9  UNL     1      21.434  -6.140 -34.280  0.00  0.00    +0.000 HD
ENDBRANCH   3   7
BRANCH   4   9
ATOM      9  O3  UNL     1      23.211  -6.995 -32.388  0.00  0.00    +0.000 OA
ATOM     10  H11 UNL     1      22.381  -7.520 -32.537  0.00  0.00    +0.000 HD
ENDBRANCH   4   9
BRANCH   5  11
ATOM     11  O4  UNL     1      25.807  -8.177 -32.499  0.00  0.00    +0.000 OA
ATOM     12  H13 UNL     1      25.640  -8.944 -31.891  0.00  0.00    +0.000 HD
ENDBRANCH   5  11
BRANCH   1  13
ATOM     13  C2  UNL     1      25.452  -8.493 -37.378  0.00  0.00    +0.000 C 
BRANCH  13  14
ATOM     14  C1  UNL     1      24.583  -7.919 -38.497  0.00  0.00    +0.000 C 
BRANCH  14  15
ATOM     15  O1  UNL     1      24.182  -8.946 -39.362  0.00  0.00    +0.000 OA
ATOM     16  H1  UNL     1      23.498  -9.468 -38.868  0.00  0.00    +0.000 HD
ENDBRANCH  14  15
ENDBRANCH  13  14
ENDBRANCH   1  13
BRANCH   6  17
ATOM     17  C8  UNL     1      26.488  -9.761 -34.856  0.00  0.00    +0.000 C 
BRANCH  17  18
ATOM     18  O5  UNL     1      25.704 -10.807 -34.348  0.00  0.00    +0.000 OA
ATOM     19  H17 UNL     1      25.517 -11.416 -35.109  0.00  0.00    +0.000 HD
ENDBRANCH  17  18
ENDBRANCH   6  17
TORSDOF 8
ENDMDL
MODEL 3
REMARK VINA RESULT:    -3.941     12.931     14.380
REMARK INTER + INTRA:          -5.602
REMARK INTER:                  -5.153
REMARK INTRA:                  -0.449
REMARK UNBOUND:                -0.394
REMARK  Name = resultss/4CJN/ligands/lig_125_t0.pdb
REMARK  8 active torsions:
REMARK  status: ('A' for Active; 'I' for Inactive)
REMARK    1  A    between atoms: O1_1  and  C1_2
REMARK    2  A    between atoms: C1_2  and  C2_3
REMARK    3  A    between atoms: C2_3  and  N1_4
REMARK    4  A    between atoms: C4_6  and  O2_7
REMARK    5  A    between atoms: C5_8  and  O3_9
REMARK    6  A    between atoms: C6_10  and  O4_11
REMARK    7  A    between atoms: C7_12  and  C8_13
REMARK    8  A    between atoms: C8_13  and  O5_14
REMARK                            x       y       z     vdW  Elec       q    Type
REMARK                         _______ _______ _______ _____ _____    ______ ____
ROOT
ATOM      1  N1  UNL     1      20.461  -6.822 -45.518  0.00  0.00    +0.000 NA
ATOM      2  C3  UNL     1      21.830  -6.525 -45.034  0.00  0.00    +0.000 C 
ATOM      3  C4  UNL     1      22.861  -7.420 -45.724  0.00  0.00    +0.000 C 
ATOM      4  C5  UNL     1      22.821  -7.170 -47.238  0.00  0.00    +0.000 C 
ATOM      5  C6  UNL     1      21.397  -7.405 -47.774  0.00  0.00    +0.000 C 
ATOM      6  C7  UNL     1      20.340  -6.578 -46.988  0.00  0.00    +0.000 C 
ENDROOT
BRANCH   3   7
ATOM      7  O2  UNL     1      24.150  -7.185 -45.210  0.00  0.00    +0.000 OA
ATOM      8  H9  UNL     1      24.101  -6.387 -44.620  0.00  0.00    +0.000 HD
ENDBRANCH   3   7
BRANCH   4   9
ATOM      9  O3  UNL     1      23.751  -7.991 -47.903  0.00  0.00    +0.000 OA
ATOM     10  H11 UNL     1      24.470  -7.406 -48.261  0.00  0.00    +0.000 HD
ENDBRANCH   4   9
BRANCH   5  11
ATOM     11  O4  UNL     1      21.354  -7.045 -49.133  0.00  0.00    +0.000 OA
ATOM     12  H13 UNL     1      22.018  -7.612 -49.605  0.00  0.00    +0.000 HD
ENDBRANCH   5  11
BRANCH   1  13
ATOM     13  C2  UNL     1      19.489  -6.031 -44.715  0.00  0.00    +0.000 C 
BRANCH  13  14
ATOM     14  C1  UNL     1      18.724  -6.941 -43.754  0.00  0.00    +0.000 C 
BRANCH  14  15
ATOM     15  O1  UNL     1      18.272  -8.079 -44.435  0.00  0.00    +0.000 OA
ATOM     16  H1  UNL     1      19.084  -8.538 -44.773  0.00  0.00    +0.000 HD
ENDBRANCH  14  15
ENDBRANCH  13  14
ENDBRANCH   1  13
BRANCH   6  17
ATOM     17  C8  UNL     1      18.925  -6.971 -47.514  0.00  0.00    +0.000 C 
BRANCH  17  18
ATOM     18  O5  UNL     1      18.644  -8.318 -47.246  0.00  0.00    +0.000 OA
ATOM     19  H17 UNL     1      19.398  -8.662 -46.700  0.00  0.00    +0.000 HD
ENDBRANCH  17  18
ENDBRANCH   6  17
TORSDOF 8
ENDMDL
MODEL 4
REMARK VINA RESULT:    -3.914     11.828     13.195
REMARK INTER + INTRA:          -5.567
REMARK INTER:                  -5.183
REMARK INTRA:                  -0.385
REMARK UNBOUND:                -0.394
REMARK  Name = resultss/4CJN/ligands/lig_125_t0.pdb
REMARK  8 active torsions:
REMARK  status: ('A' for Active; 'I' for Inactive)
REMARK    1  A    between atoms: O1_1  and  C1_2
REMARK    2  A    between atoms: C1_2  and  C2_3
REMARK    3  A    between atoms: C2_3  and  N1_4
REMARK    4  A    between atoms: C4_6  and  O2_7
REMARK    5  A    between atoms: C5_8  and  O3_9
REMARK    6  A    between atoms: C6_10  and  O4_11
REMARK    7  A    between atoms: C7_12  and  C8_13
REMARK    8  A    between atoms: C8_13  and  O5_14
REMARK                            x       y       z     vdW  Elec       q    Type
REMARK                         _______ _______ _______ _____ _____    ______ ____
ROOT
ATOM      1  N1  UNL     1      20.699  -7.114 -45.562  0.00  0.00    +0.000 NA
ATOM      2  C3  UNL     1      20.621  -6.602 -44.173  0.00  0.00    +0.000 C 
ATOM      3  C4  UNL     1      21.719  -7.216 -43.300  0.00  0.00    +0.000 C 
ATOM      4  C5  UNL     1      23.094  -6.844 -43.874  0.00  0.00    +0.000 C 
ATOM      5  C6  UNL     1      23.194  -7.301 -45.341  0.00  0.00    +0.000 C 
ATOM      6  C7  UNL     1      22.008  -6.768 -46.195  0.00  0.00    +0.000 C 
ENDROOT
BRANCH   3   7
ATOM      7  O2  UNL     1      21.597  -6.783 -41.967  0.00  0.00    +0.000 OA
ATOM      8  H9  UNL     1      20.628  -6.677 -41.770  0.00  0.00    +0.000 HD
ENDBRANCH   3   7
BRANCH   4   9
ATOM      9  O3  UNL     1      24.125  -7.407 -43.099  0.00  0.00    +0.000 OA
ATOM     10  H11 UNL     1      24.224  -6.854 -42.280  0.00  0.00    +0.000 HD
ENDBRANCH   4   9
BRANCH   5  11
ATOM     11  O4  UNL     1      24.405  -6.836 -45.883  0.00  0.00    +0.000 OA
ATOM     12  H13 UNL     1      24.535  -5.909 -45.553  0.00  0.00    +0.000 HD
ENDBRANCH   5  11
BRANCH   1  13
ATOM     13  C2  UNL     1      19.529  -6.601 -46.325  0.00  0.00    +0.000 C 
BRANCH  13  14
ATOM     14  C1  UNL     1      18.307  -7.487 -46.089  0.00  0.00    +0.000 C 
BRANCH  14  15
ATOM     15  O1  UNL     1      18.394  -8.639 -46.884  0.00  0.00    +0.000 OA
ATOM     16  H1  UNL     1      18.408  -8.323 -47.824  0.00  0.00    +0.000 HD
ENDBRANCH  14  15
ENDBRANCH  13  14
ENDBRANCH   1  13
BRANCH   6  17
ATOM     17  C8  UNL     1      22.127  -7.377 -47.626  0.00  0.00    +0.000 C 
BRANCH  17  18
ATOM     18  O5  UNL     1      22.950  -8.513 -47.623  0.00  0.00    +0.000 OA
ATOM     19  H17 UNL     1      22.354  -9.295 -47.757  0.00  0.00    +0.000 HD
ENDBRANCH  17  18
ENDBRANCH   6  17
TORSDOF 8
ENDMDL
MODEL 5
REMARK VINA RESULT:    -3.840      5.200      7.719
REMARK INTER + INTRA:          -5.469
REMARK INTER:                  -5.097
REMARK INTRA:                  -0.372
REMARK UNBOUND:                -0.394
REMARK  Name = resultss/4CJN/ligands/lig_125_t0.pdb
REMARK  8 active torsions:
REMARK  status: ('A' for Active; 'I' for Inactive)
REMARK    1  A    between atoms: O1_1  and  C1_2
REMARK    2  A    between atoms: C1_2  and  C2_3
REMARK    3  A    between atoms: C2_3  and  N1_4
REMARK    4  A    between atoms: C4_6  and  O2_7
REMARK    5  A    between atoms: C5_8  and  O3_9
REMARK    6  A    between atoms: C6_10  and  O4_11
REMARK    7  A    between atoms: C7_12  and  C8_13
REMARK    8  A    between atoms: C8_13  and  O5_14
REMARK                            x       y       z     vdW  Elec       q    Type
REMARK                         _______ _______ _______ _____ _____    ______ ____
ROOT
ATOM      1  N1  UNL     1      26.008  -8.870 -40.406  0.00  0.00    +0.000 NA
ATOM      2  C3  UNL     1      26.721 -10.040 -40.972  0.00  0.00    +0.000 C 
ATOM      3  C4  UNL     1      28.033 -10.296 -40.227  0.00  0.00    +0.000 C 
ATOM      4  C5  UNL     1      27.733 -10.584 -38.750  0.00  0.00    +0.000 C 
ATOM      5  C6  UNL     1      26.935  -9.419 -38.137  0.00  0.00    +0.000 C 
ATOM      6  C7  UNL     1      25.662  -9.090 -38.969  0.00  0.00    +0.000 C 
ENDROOT
BRANCH   3   7
ATOM      7  O2  UNL     1      28.741 -11.361 -40.814  0.00  0.00    +0.000 OA
ATOM      8  H9  UNL     1      29.684 -11.071 -40.933  0.00  0.00    +0.000 HD
ENDBRANCH   3   7
BRANCH   4   9
ATOM      9  O3  UNL     1      28.924 -10.810 -38.035  0.00  0.00    +0.000 OA
ATOM     10  H11 UNL     1      29.293 -11.684 -38.329  0.00  0.00    +0.000 HD
ENDBRANCH   4   9
BRANCH   5  11
ATOM     11  O4  UNL     1      26.559  -9.761 -36.826  0.00  0.00    +0.000 OA
ATOM     12  H13 UNL     1      26.425  -8.912 -36.330  0.00  0.00    +0.000 HD
ENDBRANCH   5  11
BRANCH   1  13
ATOM     13  C2  UNL     1      24.820  -8.580 -41.254  0.00  0.00    +0.000 C 
BRANCH  13  14
ATOM     14  C1  UNL     1      24.903  -9.351 -42.571  0.00  0.00    +0.000 C 
BRANCH  14  15
ATOM     15  O1  UNL     1      23.712 -10.058 -42.784  0.00  0.00    +0.000 OA
ATOM     16  H1  UNL     1      22.976  -9.430 -42.563  0.00  0.00    +0.000 HD
ENDBRANCH  14  15
ENDBRANCH  13  14
ENDBRANCH   1  13
BRANCH   6  17
ATOM     17  C8  UNL     1      24.988  -7.828 -38.347  0.00  0.00    +0.000 C 
BRANCH  17  18
ATOM     18  O5  UNL     1      23.987  -8.189 -37.434  0.00  0.00    +0.000 OA
ATOM     19  H17 UNL     1      23.247  -7.538 -37.552  0.00  0.00    +0.000 HD
ENDBRANCH  17  18
ENDBRANCH   6  17
TORSDOF 8
ENDMDL
MODEL 6
REMARK VINA RESULT:    -3.764      6.539      9.063
REMARK INTER + INTRA:          -5.368
REMARK INTER:                  -5.035
REMARK INTRA:                  -0.334
REMARK UNBOUND:                -0.394
REMARK  Name = resultss/4CJN/ligands/lig_125_t0.pdb
REMARK  8 active torsions:
REMARK  status: ('A' for Active; 'I' for Inactive)
REMARK    1  A    between atoms: O1_1  and  C1_2
REMARK    2  A    between atoms: C1_2  and  C2_3
REMARK    3  A    between atoms: C2_3  and  N1_4
REMARK    4  A    between atoms: C4_6  and  O2_7
REMARK    5  A    between atoms: C5_8  and  O3_9
REMARK    6  A    between atoms: C6_10  and  O4_11
REMARK    7  A    between atoms: C7_12  and  C8_13
REMARK    8  A    between atoms: C8_13  and  O5_14
REMARK                            x       y       z     vdW  Elec       q    Type
REMARK                         _______ _______ _______ _____ _____    ______ ____
ROOT
ATOM      1  N1  UNL     1      26.754  -8.570 -41.818  0.00  0.00    +0.000 NA
ATOM      2  C3  UNL     1      27.691  -9.045 -42.863  0.00  0.00    +0.000 C 
ATOM      3  C4  UNL     1      29.065  -9.360 -42.266  0.00  0.00    +0.000 C 
ATOM      4  C5  UNL     1      28.921 -10.465 -41.211  0.00  0.00    +0.000 C 
ATOM      5  C6  UNL     1      27.904 -10.039 -40.136  0.00  0.00    +0.000 C 
ATOM      6  C7  UNL     1      26.547  -9.608 -40.763  0.00  0.00    +0.000 C 
ENDROOT
BRANCH   3   7
ATOM      7  O2  UNL     1      29.971  -9.740 -43.273  0.00  0.00    +0.000 OA
ATOM      8  H9  UNL     1      29.455  -9.876 -44.111  0.00  0.00    +0.000 HD
ENDBRANCH   3   7
BRANCH   4   9
ATOM      9  O3  UNL     1      30.168 -10.767 -40.633  0.00  0.00    +0.000 OA
ATOM     10  H11 UNL     1      30.233 -10.269 -39.775  0.00  0.00    +0.000 HD
ENDBRANCH   4   9
BRANCH   5  11
ATOM     11  O4  UNL     1      27.692 -11.114 -39.256  0.00  0.00    +0.000 OA
ATOM     12  H13 UNL     1      27.037 -11.721 -39.690  0.00  0.00    +0.000 HD
ENDBRANCH   5  11
BRANCH   1  13
ATOM     13  C2  UNL     1      25.487  -8.144 -42.472  0.00  0.00    +0.000 C 
BRANCH  13  14
ATOM     14  C1  UNL     1      24.920  -9.276 -43.328  0.00  0.00    +0.000 C 
BRANCH  14  15
ATOM     15  O1  UNL     1      23.750  -9.776 -42.739  0.00  0.00    +0.000 OA
ATOM     16  H1  UNL     1      23.313  -9.003 -42.296  0.00  0.00    +0.000 HD
ENDBRANCH  14  15
ENDBRANCH  13  14
ENDBRANCH   1  13
BRANCH   6  17
ATOM     17  C8  UNL     1      25.628  -9.080 -39.618  0.00  0.00    +0.000 C 
BRANCH  17  18
ATOM     18  O5  UNL     1      24.296  -9.470 -39.821  0.00  0.00    +0.000 OA
ATOM     19  H17 UNL     1      23.778  -9.119 -39.050  0.00  0.00    +0.000 HD
ENDBRANCH  17  18
ENDBRANCH   6  17
TORSDOF 8
ENDMDL
MODEL 7
REMARK VINA RESULT:    -3.755      1.286      3.964
REMARK INTER + INTRA:          -5.356
REMARK INTER:                  -4.869
REMARK INTRA:                  -0.487
REMARK UNBOUND:                -0.394
REMARK  Name = resultss/4CJN/ligands/lig_125_t0.pdb
REMARK  8 active torsions:
REMARK  status: ('A' for Active; 'I' for Inactive)
REMARK    1  A    between atoms: O1_1  and  C1_2
REMARK    2  A    between atoms: C1_2  and  C2_3
REMARK    3  A    between atoms: C2_3  and  N1_4
REMARK    4  A    between atoms: C4_6  and  O2_7
REMARK    5  A    between atoms: C5_8  and  O3_9
REMARK    6  A    between atoms: C6_10  and  O4_11
REMARK    7  A    between atoms: C7_12  and  C8_13
REMARK    8  A    between atoms: C8_13  and  O5_14
REMARK                            x       y       z     vdW  Elec       q    Type
REMARK                         _______ _______ _______ _____ _____    ______ ____
ROOT
ATOM      1  N1  UNL     1      25.971  -7.799 -33.401  0.00  0.00    +0.000 NA
ATOM      2  C3  UNL     1      26.846  -6.846 -32.678  0.00  0.00    +0.000 C 
ATOM      3  C4  UNL     1      28.007  -7.575 -31.997  0.00  0.00    +0.000 C 
ATOM      4  C5  UNL     1      28.851  -8.293 -33.059  0.00  0.00    +0.000 C 
ATOM      5  C6  UNL     1      27.966  -9.249 -33.879  0.00  0.00    +0.000 C 
ATOM      6  C7  UNL     1      26.724  -8.521 -34.471  0.00  0.00    +0.000 C 
ENDROOT
BRANCH   3   7
ATOM      7  O2  UNL     1      28.792  -6.676 -31.252  0.00  0.00    +0.000 OA
ATOM      8  H9  UNL     1      29.558  -7.184 -30.873  0.00  0.00    +0.000 HD
ENDBRANCH   3   7
BRANCH   4   9
ATOM      9  O3  UNL     1      29.920  -8.985 -32.460  0.00  0.00    +0.000 OA
ATOM     10  H11 UNL     1      30.301  -9.601 -33.141  0.00  0.00    +0.000 HD
ENDBRANCH   4   9
BRANCH   5  11
ATOM     11  O4  UNL     1      28.729  -9.794 -34.926  0.00  0.00    +0.000 OA
ATOM     12  H13 UNL     1      28.167  -9.765 -35.743  0.00  0.00    +0.000 HD
ENDBRANCH   5  11
BRANCH   1  13
ATOM     13  C2  UNL     1      24.788  -7.060 -33.919  0.00  0.00    +0.000 C 
BRANCH  13  14
ATOM     14  C1  UNL     1      23.531  -7.452 -33.142  0.00  0.00    +0.000 C 
BRANCH  14  15
ATOM     15  O1  UNL     1      23.712  -8.708 -32.548  0.00  0.00    +0.000 OA
ATOM     16  H1  UNL     1      22.964  -9.275 -32.872  0.00  0.00    +0.000 HD
ENDBRANCH  14  15
ENDBRANCH  13  14
ENDBRANCH   1  13
BRANCH   6  17
ATOM     17  C8  UNL     1      25.828  -9.585 -35.177  0.00  0.00    +0.000 C 
BRANCH  17  18
ATOM     18  O5  UNL     1      25.546 -10.656 -34.317  0.00  0.00    +0.000 OA
ATOM     19  H17 UNL     1      25.579 -10.295 -33.393  0.00  0.00    +0.000 HD
ENDBRANCH  17  18
ENDBRANCH   6  17
TORSDOF 8
ENDMDL
MODEL 8
REMARK VINA RESULT:    -3.733      6.148      7.893
REMARK INTER + INTRA:          -5.327
REMARK INTER:                  -4.833
REMARK INTRA:                  -0.494
REMARK UNBOUND:                -0.394
REMARK  Name = resultss/4CJN/ligands/lig_125_t0.pdb
REMARK  8 active torsions:
REMARK  status: ('A' for Active; 'I' for Inactive)
REMARK    1  A    between atoms: O1_1  and  C1_2
REMARK    2  A    between atoms: C1_2  and  C2_3
REMARK    3  A    between atoms: C2_3  and  N1_4
REMARK    4  A    between atoms: C4_6  and  O2_7
REMARK    5  A    between atoms: C5_8  and  O3_9
REMARK    6  A    between atoms: C6_10  and  O4_11
REMARK    7  A    between atoms: C7_12  and  C8_13
REMARK    8  A    between atoms: C8_13  and  O5_14
REMARK                            x       y       z     vdW  Elec       q    Type
REMARK                         _______ _______ _______ _____ _____    ______ ____
ROOT
ATOM      1  N1  UNL     1      27.963  -9.650 -41.597  0.00  0.00    +0.000 NA
ATOM      2  C3  UNL     1      26.892  -9.417 -42.596  0.00  0.00    +0.000 C 
ATOM      3  C4  UNL     1      25.534  -9.878 -42.062  0.00  0.00    +0.000 C 
ATOM      4  C5  UNL     1      25.190  -9.085 -40.793  0.00  0.00    +0.000 C 
ATOM      5  C6  UNL     1      26.310  -9.248 -39.749  0.00  0.00    +0.000 C 
ATOM      6  C7  UNL     1      27.705  -8.888 -40.338  0.00  0.00    +0.000 C 
ENDROOT
BRANCH   3   7
ATOM      7  O2  UNL     1      24.535  -9.722 -43.040  0.00  0.00    +0.000 OA
ATOM      8  H9  UNL     1      24.982  -9.501 -43.899  0.00  0.00    +0.000 HD
ENDBRANCH   3   7
BRANCH   4   9
ATOM      9  O3  UNL     1      23.950  -9.498 -40.270  0.00  0.00    +0.000 OA
ATOM     10  H11 UNL     1      23.974  -9.358 -39.287  0.00  0.00    +0.000 HD
ENDBRANCH   4   9
BRANCH   5  11
ATOM     11  O4  UNL     1      26.037  -8.412 -38.652  0.00  0.00    +0.000 OA
ATOM     12  H13 UNL     1      25.188  -7.938 -38.851  0.00  0.00    +0.000 HD
ENDBRANCH   5  11
BRANCH   1  13
ATOM     13  C2  UNL     1      29.274  -9.321 -42.219  0.00  0.00    +0.000 C 
BRANCH  13  14
ATOM     14  C1  UNL     1      30.062 -10.598 -42.511  0.00  0.00    +0.000 C 
BRANCH  14  15
ATOM     15  O1  UNL     1      29.834 -11.540 -41.498  0.00  0.00    +0.000 OA
ATOM     16  H1  UNL     1      29.054 -12.077 -41.793  0.00  0.00    +0.000 HD
ENDBRANCH  14  15
ENDBRANCH  13  14
ENDBRANCH   1  13
BRANCH   6  17
ATOM     17  C8  UNL     1      28.783  -9.198 -39.255  0.00  0.00    +0.000 C 
BRANCH  17  18
ATOM     18  O5  UNL     1      28.810 -10.566 -38.947  0.00  0.00    +0.000 OA
ATOM     19  H17 UNL     1      28.095 -10.719 -38.275  0.00  0.00    +0.000 HD
ENDBRANCH  17  18
ENDBRANCH   6  17
TORSDOF 8
ENDMDL
MODEL 9
REMARK VINA RESULT:    -3.725      1.454      3.380
REMARK INTER + INTRA:          -5.317
REMARK INTER:                  -4.839
REMARK INTRA:                  -0.478
REMARK UNBOUND:                -0.394
REMARK  Name = resultss/4CJN/ligands/lig_125_t0.pdb
REMARK  8 active torsions:
REMARK  status: ('A' for Active; 'I' for Inactive)
REMARK    1  A    between atoms: O1_1  and  C1_2
REMARK    2  A    between atoms: C1_2  and  C2_3
REMARK    3  A    between atoms: C2_3  and  N1_4
REMARK    4  A    between atoms: C4_6  and  O2_7
REMARK    5  A    between atoms: C5_8  and  O3_9
REMARK    6  A    between atoms: C6_10  and  O4_11
REMARK    7  A    between atoms: C7_12  and  C8_13
REMARK    8  A    between atoms: C8_13  and  O5_14
REMARK                            x       y       z     vdW  Elec       q    Type
REMARK                         _______ _______ _______ _____ _____    ______ ____
ROOT
ATOM      1  N1  UNL     1      28.606  -7.713 -34.099  0.00  0.00    +0.000 NA
ATOM      2  C3  UNL     1      28.389  -8.404 -35.392  0.00  0.00    +0.000 C 
ATOM      3  C4  UNL     1      27.603  -9.702 -35.195  0.00  0.00    +0.000 C 
ATOM      4  C5  UNL     1      26.232  -9.380 -34.584  0.00  0.00    +0.000 C 
ATOM      5  C6  UNL     1      26.410  -8.603 -33.267  0.00  0.00    +0.000 C 
ATOM      6  C7  UNL     1      27.308  -7.347 -33.454  0.00  0.00    +0.000 C 
ENDROOT
BRANCH   3   7
ATOM      7  O2  UNL     1      27.463 -10.390 -36.414  0.00  0.00    +0.000 OA
ATOM      8  H9  UNL     1      28.079  -9.972 -37.071  0.00  0.00    +0.000 HD
ENDBRANCH   3   7
BRANCH   4   9
ATOM      9  O3  UNL     1      25.490 -10.558 -34.378  0.00  0.00    +0.000 OA
ATOM     10  H11 UNL     1      26.099 -11.329 -34.526  0.00  0.00    +0.000 HD
ENDBRANCH   4   9
BRANCH   5  11
ATOM     11  O4  UNL     1      25.146  -8.207 -32.796  0.00  0.00    +0.000 OA
ATOM     12  H13 UNL     1      24.486  -8.441 -33.499  0.00  0.00    +0.000 HD
ENDBRANCH   5  11
BRANCH   1  13
ATOM     13  C2  UNL     1      29.493  -6.540 -34.328  0.00  0.00    +0.000 C 
BRANCH  13  14
ATOM     14  C1  UNL     1      30.875  -6.789 -33.722  0.00  0.00    +0.000 C 
BRANCH  14  15
ATOM     15  O1  UNL     1      30.807  -7.843 -32.801  0.00  0.00    +0.000 OA
ATOM     16  H1  UNL     1      29.922  -8.269 -32.936  0.00  0.00    +0.000 HD
ENDBRANCH  14  15
ENDBRANCH  13  14
ENDBRANCH   1  13
BRANCH   6  17
ATOM     17  C8  UNL     1      27.532  -6.696 -32.054  0.00  0.00    +0.000 C 
BRANCH  17  18
ATOM     18  O5  UNL     1      27.614  -7.674 -31.052  0.00  0.00    +0.000 OA
ATOM     19  H17 UNL     1      26.707  -8.067 -30.964  0.00  0.00    +0.000 HD
ENDBRANCH  17  18
ENDBRANCH   6  17
TORSDOF 8
ENDMDL
