MODEL 1
REMARK VINA RESULT:    -5.754      0.000      0.000
REMARK INTER + INTRA:          -9.168
REMARK INTER:                  -7.941
REMARK INTRA:                  -1.227
REMARK UNBOUND:                -1.227
REMARK  Name = resultss/4CJN/ligands/lig_231_t0.pdb
REMARK  11 active torsions:
REMARK  status: ('A' for Active; 'I' for Inactive)
REMARK    1  A    between atoms: C6_8  and  C7_9
REMARK    2  A    between atoms: C9_11  and  O3_12
REMARK    3  A    between atoms: C11_14  and  C12_15
REMARK    4  A    between atoms: C14_17  and  O4_18
REMARK    5  A    between atoms: O4_18  and  C15_19
REMARK    6  A    between atoms: C15_19  and  C16_21
REMARK    7  A    between atoms: C16_21  and  C19_24
REMARK    8  A    between atoms: C17_22  and  C18_23
REMARK    9  A    between atoms: C19_24  and  O6_25
REMARK   10  A    between atoms: O6_25  and  C20_26
REMARK   11  A    between atoms: C20_26  and  C21_27
REMARK                            x       y       z     vdW  Elec       q    Type
REMARK                         _______ _______ _______ _____ _____    ______ ____
ROOT
ATOM      1  C1  UNL     1      25.252  -6.339 -36.329  0.00  0.00    +0.000 C 
ATOM      2  C2  UNL     1      25.685  -7.552 -35.981  0.00  0.00    +0.000 C 
ATOM      3  C3  UNL     1      24.984  -8.455 -35.093  0.00  0.00    +0.000 C 
ATOM      4  O1  UNL     1      23.847  -8.252 -34.592  0.00  0.00    +0.000 OA
ATOM      5  O2  UNL     1      25.751  -9.563 -34.810  0.00  0.00    +0.000 OA
ATOM      6  C4  UNL     1      26.922  -9.565 -35.616  0.00  0.00    +0.000 C 
ATOM      7  C5  UNL     1      28.135 -10.055 -34.865  0.00  0.00    +0.000 C 
ATOM      8  C6  UNL     1      28.778  -9.403 -33.870  0.00  0.00    +0.000 C 
ATOM      9  C7  UNL     1      28.160  -8.285 -33.068  0.00  0.00    +0.000 C 
ATOM     10  C8  UNL     1      30.278  -9.606 -33.765  0.00  0.00    +0.000 C 
ATOM     11  C9  UNL     1      31.092  -8.590 -34.619  0.00  0.00    +0.000 C 
ATOM     12  C10 UNL     1      30.325  -8.038 -35.817  0.00  0.00    +0.000 C 
ATOM     13  C11 UNL     1      29.943  -8.743 -36.911  0.00  0.00    +0.000 C 
ATOM     14  C12 UNL     1      30.507 -10.105 -37.233  0.00  0.00    +0.000 C 
ATOM     15  C13 UNL     1      29.069  -8.071 -37.960  0.00  0.00    +0.000 C 
ATOM     16  C14 UNL     1      27.523  -8.056 -37.707  0.00  0.00    +0.000 C 
ATOM     17  C22 UNL     1      27.062  -8.118 -36.216  0.00  0.00    +0.000 C 
ENDROOT
BRANCH  11  18
ATOM     18  O3  UNL     1      31.472  -7.520 -33.791  0.00  0.00    +0.000 OA
ATOM     19  H11 UNL     1      31.160  -6.685 -34.233  0.00  0.00    +0.000 HD
ENDBRANCH  11  18
BRANCH  16  20
ATOM     20  O4  UNL     1      26.862  -9.067 -38.478  0.00  0.00    +0.000 OA
BRANCH  20  21
ATOM     21  C15 UNL     1      27.111  -9.287 -39.841  0.00  0.00    +0.000 C 
ATOM     22  O5  UNL     1      26.943  -8.342 -40.661  0.00  0.00    +0.000 OA
BRANCH  21  23
ATOM     23  C16 UNL     1      27.568 -10.633 -40.300  0.00  0.00    +0.000 C 
ATOM     24  C17 UNL     1      28.807 -10.882 -40.780  0.00  0.00    +0.000 C 
ATOM     25  C18 UNL     1      29.892  -9.861 -40.954  0.00  0.00    +0.000 C 
BRANCH  23  26
ATOM     26  C19 UNL     1      26.612 -11.800 -40.217  0.00  0.00    +0.000 C 
BRANCH  26  27
ATOM     27  O6  UNL     1      27.330 -13.019 -40.024  0.00  0.00    +0.000 OA
BRANCH  27  28
ATOM     28  C20 UNL     1      26.702 -14.257 -39.868  0.00  0.00    +0.000 C 
ATOM     29  C21 UNL     1      25.460 -14.558 -40.634  0.00  0.00    +0.000 C 
ATOM     30  O7  UNL     1      27.153 -15.108 -39.057  0.00  0.00    +0.000 OA
ENDBRANCH  27  28
ENDBRANCH  26  27
ENDBRANCH  23  26
ENDBRANCH  21  23
ENDBRANCH  20  21
ENDBRANCH  16  20
TORSDOF 7
ENDMDL
MODEL 2
REMARK VINA RESULT:    -5.567      2.225      2.683
REMARK INTER + INTRA:          -8.911
REMARK INTER:                  -7.524
REMARK INTRA:                  -1.386
REMARK UNBOUND:                -1.227
REMARK  Name = resultss/4CJN/ligands/lig_231_t0.pdb
REMARK  11 active torsions:
REMARK  status: ('A' for Active; 'I' for Inactive)
REMARK    1  A    between atoms: C6_8  and  C7_9
REMARK    2  A    between atoms: C9_11  and  O3_12
REMARK    3  A    between atoms: C11_14  and  C12_15
REMARK    4  A    between atoms: C14_17  and  O4_18
REMARK    5  A    between atoms: O4_18  and  C15_19
REMARK    6  A    between atoms: C15_19  and  C16_21
REMARK    7  A    between atoms: C16_21  and  C19_24
REMARK    8  A    between atoms: C17_22  and  C18_23
REMARK    9  A    between atoms: C19_24  and  O6_25
REMARK   10  A    between atoms: O6_25  and  C20_26
REMARK   11  A    between atoms: C20_26  and  C21_27
REMARK                            x       y       z     vdW  Elec       q    Type
REMARK                         _______ _______ _______ _____ _____    ______ ____
ROOT
ATOM      1  C1  UNL     1      26.451  -6.641 -38.140  0.00  0.00    +0.000 C 
ATOM      2  C2  UNL     1      26.760  -7.782 -37.521  0.00  0.00    +0.000 C 
ATOM      3  C3  UNL     1      25.816  -8.833 -37.208  0.00  0.00    +0.000 C 
ATOM      4  O1  UNL     1      24.601  -8.847 -37.537  0.00  0.00    +0.000 OA
ATOM      5  O2  UNL     1      26.405  -9.811 -36.439  0.00  0.00    +0.000 OA
ATOM      6  C4  UNL     1      27.804  -9.578 -36.338  0.00  0.00    +0.000 C 
ATOM      7  C5  UNL     1      28.343  -9.898 -34.967  0.00  0.00    +0.000 C 
ATOM      8  C6  UNL     1      28.109  -9.201 -33.831  0.00  0.00    +0.000 C 
ATOM      9  C7  UNL     1      26.955  -8.244 -33.662  0.00  0.00    +0.000 C 
ATOM     10  C8  UNL     1      29.224  -9.158 -32.803  0.00  0.00    +0.000 C 
ATOM     11  C9  UNL     1      30.215  -7.978 -33.028  0.00  0.00    +0.000 C 
ATOM     12  C10 UNL     1      30.286  -7.499 -34.475  0.00  0.00    +0.000 C 
ATOM     13  C11 UNL     1      30.789  -8.201 -35.521  0.00  0.00    +0.000 C 
ATOM     14  C12 UNL     1      31.642  -9.432 -35.335  0.00  0.00    +0.000 C 
ATOM     15  C13 UNL     1      30.667  -7.630 -36.926  0.00  0.00    +0.000 C 
ATOM     16  C14 UNL     1      29.324  -7.884 -37.691  0.00  0.00    +0.000 C 
ATOM     17  C22 UNL     1      28.051  -8.099 -36.812  0.00  0.00    +0.000 C 
ENDROOT
BRANCH  11  18
ATOM     18  O3  UNL     1      29.817  -6.904 -32.214  0.00  0.00    +0.000 OA
ATOM     19  H11 UNL     1      28.828  -6.832 -32.290  0.00  0.00    +0.000 HD
ENDBRANCH  11  18
BRANCH  16  20
ATOM     20  O4  UNL     1      29.462  -8.949 -38.640  0.00  0.00    +0.000 OA
BRANCH  20  21
ATOM     21  C15 UNL     1      28.957  -8.892 -39.948  0.00  0.00    +0.000 C 
ATOM     22  O5  UNL     1      28.967  -7.792 -40.568  0.00  0.00    +0.000 OA
BRANCH  21  23
ATOM     23  C16 UNL     1      28.416 -10.130 -40.585  0.00  0.00    +0.000 C 
ATOM     24  C17 UNL     1      29.139 -10.938 -41.391  0.00  0.00    +0.000 C 
ATOM     25  C18 UNL     1      30.566 -10.712 -41.793  0.00  0.00    +0.000 C 
BRANCH  23  26
ATOM     26  C19 UNL     1      26.983 -10.528 -40.313  0.00  0.00    +0.000 C 
BRANCH  26  27
ATOM     27  O6  UNL     1      26.086  -9.544 -40.828  0.00  0.00    +0.000 OA
BRANCH  27  28
ATOM     28  C20 UNL     1      25.687  -9.502 -42.167  0.00  0.00    +0.000 C 
ATOM     29  C21 UNL     1      26.432  -8.646 -43.133  0.00  0.00    +0.000 C 
ATOM     30  O7  UNL     1      24.681 -10.149 -42.558  0.00  0.00    +0.000 OA
ENDBRANCH  27  28
ENDBRANCH  26  27
ENDBRANCH  23  26
ENDBRANCH  21  23
ENDBRANCH  20  21
ENDBRANCH  16  20
TORSDOF 7
ENDMDL
MODEL 3
REMARK VINA RESULT:    -5.418      1.547      2.380
REMARK INTER + INTRA:          -8.705
REMARK INTER:                  -7.028
REMARK INTRA:                  -1.676
REMARK UNBOUND:                -1.227
REMARK  Name = resultss/4CJN/ligands/lig_231_t0.pdb
REMARK  11 active torsions:
REMARK  status: ('A' for Active; 'I' for Inactive)
REMARK    1  A    between atoms: C6_8  and  C7_9
REMARK    2  A    between atoms: C9_11  and  O3_12
REMARK    3  A    between atoms: C11_14  and  C12_15
REMARK    4  A    between atoms: C14_17  and  O4_18
REMARK    5  A    between atoms: O4_18  and  C15_19
REMARK    6  A    between atoms: C15_19  and  C16_21
REMARK    7  A    between atoms: C16_21  and  C19_24
REMARK    8  A    between atoms: C17_22  and  C18_23
REMARK    9  A    between atoms: C19_24  and  O6_25
REMARK   10  A    between atoms: O6_25  and  C20_26
REMARK   11  A    between atoms: C20_26  and  C21_27
REMARK                            x       y       z     vdW  Elec       q    Type
REMARK                         _______ _______ _______ _____ _____    ______ ____
ROOT
ATOM      1  C1  UNL     1      25.224  -6.315 -35.360  0.00  0.00    +0.000 C 
ATOM      2  C2  UNL     1      25.709  -7.530 -35.098  0.00  0.00    +0.000 C 
ATOM      3  C3  UNL     1      25.131  -8.465 -34.157  0.00  0.00    +0.000 C 
ATOM      4  O1  UNL     1      24.062  -8.291 -33.517  0.00  0.00    +0.000 OA
ATOM      5  O2  UNL     1      25.940  -9.568 -33.999  0.00  0.00    +0.000 OA
ATOM      6  C4  UNL     1      27.005  -9.533 -34.940  0.00  0.00    +0.000 C 
ATOM      7  C5  UNL     1      28.305 -10.024 -34.355  0.00  0.00    +0.000 C 
ATOM      8  C6  UNL     1      29.057  -9.388 -33.427  0.00  0.00    +0.000 C 
ATOM      9  C7  UNL     1      28.527  -8.300 -32.527  0.00  0.00    +0.000 C 
ATOM     10  C8  UNL     1      30.561  -9.572 -33.509  0.00  0.00    +0.000 C 
ATOM     11  C9  UNL     1      31.253  -8.522 -34.429  0.00  0.00    +0.000 C 
ATOM     12  C10 UNL     1      30.340  -7.951 -35.510  0.00  0.00    +0.000 C 
ATOM     13  C11 UNL     1      29.836  -8.634 -36.567  0.00  0.00    +0.000 C 
ATOM     14  C12 UNL     1      30.373  -9.979 -36.992  0.00  0.00    +0.000 C 
ATOM     15  C13 UNL     1      28.835  -7.949 -37.485  0.00  0.00    +0.000 C 
ATOM     16  C14 UNL     1      27.331  -7.963 -37.047  0.00  0.00    +0.000 C 
ATOM     17  C22 UNL     1      27.054  -8.069 -35.513  0.00  0.00    +0.000 C 
ENDROOT
BRANCH  11  18
ATOM     18  O3  UNL     1      31.718  -7.468 -33.624  0.00  0.00    +0.000 OA
ATOM     19  H11 UNL     1      30.924  -6.932 -33.359  0.00  0.00    +0.000 HD
ENDBRANCH  11  18
BRANCH  16  20
ATOM     20  O4  UNL     1      26.593  -8.964 -37.759  0.00  0.00    +0.000 OA
BRANCH  20  21
ATOM     21  C15 UNL     1      25.505  -8.674 -38.596  0.00  0.00    +0.000 C 
ATOM     22  O5  UNL     1      24.344  -8.614 -38.105  0.00  0.00    +0.000 OA
BRANCH  21  23
ATOM     23  C16 UNL     1      25.737  -8.442 -40.054  0.00  0.00    +0.000 C 
ATOM     24  C17 UNL     1      26.055  -7.239 -40.582  0.00  0.00    +0.000 C 
ATOM     25  C18 UNL     1      26.194  -5.961 -39.809  0.00  0.00    +0.000 C 
BRANCH  23  26
ATOM     26  C19 UNL     1      25.630  -9.609 -41.008  0.00  0.00    +0.000 C 
BRANCH  26  27
ATOM     27  O6  UNL     1      26.928 -10.017 -41.443  0.00  0.00    +0.000 OA
BRANCH  27  28
ATOM     28  C20 UNL     1      27.843 -10.662 -40.608  0.00  0.00    +0.000 C 
ATOM     29  C21 UNL     1      29.260 -10.199 -40.567  0.00  0.00    +0.000 C 
ATOM     30  O7  UNL     1      27.495 -11.656 -39.919  0.00  0.00    +0.000 OA
ENDBRANCH  27  28
ENDBRANCH  26  27
ENDBRANCH  23  26
ENDBRANCH  21  23
ENDBRANCH  20  21
ENDBRANCH  16  20
TORSDOF 7
ENDMDL
MODEL 4
REMARK VINA RESULT:    -5.357      2.390      6.981
REMARK INTER + INTRA:          -8.620
REMARK INTER:                  -7.188
REMARK INTRA:                  -1.431
REMARK UNBOUND:                -1.227
REMARK  Name = resultss/4CJN/ligands/lig_231_t0.pdb
REMARK  11 active torsions:
REMARK  status: ('A' for Active; 'I' for Inactive)
REMARK    1  A    between atoms: C6_8  and  C7_9
REMARK    2  A    between atoms: C9_11  and  O3_12
REMARK    3  A    between atoms: C11_14  and  C12_15
REMARK    4  A    between atoms: C14_17  and  O4_18
REMARK    5  A    between atoms: O4_18  and  C15_19
REMARK    6  A    between atoms: C15_19  and  C16_21
REMARK    7  A    between atoms: C16_21  and  C19_24
REMARK    8  A    between atoms: C17_22  and  C18_23
REMARK    9  A    between atoms: C19_24  and  O6_25
REMARK   10  A    between atoms: O6_25  and  C20_26
REMARK   11  A    between atoms: C20_26  and  C21_27
REMARK                            x       y       z     vdW  Elec       q    Type
REMARK                         _______ _______ _______ _____ _____    ______ ____
ROOT
ATOM      1  C1  UNL     1      29.962  -7.546 -36.672  0.00  0.00    +0.000 C 
ATOM      2  C2  UNL     1      29.586  -8.531 -37.489  0.00  0.00    +0.000 C 
ATOM      3  C3  UNL     1      30.449  -9.599 -37.946  0.00  0.00    +0.000 C 
ATOM      4  O1  UNL     1      31.639  -9.784 -37.581  0.00  0.00    +0.000 OA
ATOM      5  O2  UNL     1      29.816 -10.373 -38.893  0.00  0.00    +0.000 OA
ATOM      6  C4  UNL     1      28.450  -9.993 -39.001  0.00  0.00    +0.000 C 
ATOM      7  C5  UNL     1      27.956 -10.025 -40.425  0.00  0.00    +0.000 C 
ATOM      8  C6  UNL     1      28.308  -9.171 -41.414  0.00  0.00    +0.000 C 
ATOM      9  C7  UNL     1      29.549  -8.314 -41.374  0.00  0.00    +0.000 C 
ATOM     10  C8  UNL     1      27.256  -8.849 -42.459  0.00  0.00    +0.000 C 
ATOM     11  C9  UNL     1      26.362  -7.635 -42.068  0.00  0.00    +0.000 C 
ATOM     12  C10 UNL     1      26.259  -7.403 -40.564  0.00  0.00    +0.000 C 
ATOM     13  C11 UNL     1      25.643  -8.220 -39.673  0.00  0.00    +0.000 C 
ATOM     14  C12 UNL     1      24.696  -9.315 -40.099  0.00  0.00    +0.000 C 
ATOM     15  C13 UNL     1      25.743  -7.908 -38.187  0.00  0.00    +0.000 C 
ATOM     16  C14 UNL     1      27.018  -8.415 -37.430  0.00  0.00    +0.000 C 
ATOM     17  C22 UNL     1      28.310  -8.599 -38.288  0.00  0.00    +0.000 C 
ENDROOT
BRANCH  11  18
ATOM     18  O3  UNL     1      26.894  -6.482 -42.670  0.00  0.00    +0.000 OA
ATOM     19  H11 UNL     1      27.746  -6.276 -42.201  0.00  0.00    +0.000 HD
ENDBRANCH  11  18
BRANCH  16  20
ATOM     20  O4  UNL     1      26.738  -9.607 -36.686  0.00  0.00    +0.000 OA
BRANCH  20  21
ATOM     21  C15 UNL     1      26.447  -9.612 -35.313  0.00  0.00    +0.000 C 
ATOM     22  O5  UNL     1      25.789 -10.571 -34.822  0.00  0.00    +0.000 OA
BRANCH  21  23
ATOM     23  C16 UNL     1      26.920  -8.484 -34.454  0.00  0.00    +0.000 C 
ATOM     24  C17 UNL     1      28.091  -8.493 -33.780  0.00  0.00    +0.000 C 
ATOM     25  C18 UNL     1      29.074  -9.626 -33.761  0.00  0.00    +0.000 C 
BRANCH  23  26
ATOM     26  C19 UNL     1      26.061  -7.246 -34.331  0.00  0.00    +0.000 C 
BRANCH  26  27
ATOM     27  O6  UNL     1      25.206  -7.345 -33.192  0.00  0.00    +0.000 OA
BRANCH  27  28
ATOM     28  C20 UNL     1      23.815  -7.431 -33.288  0.00  0.00    +0.000 C 
ATOM     29  C21 UNL     1      23.195  -8.079 -34.478  0.00  0.00    +0.000 C 
ATOM     30  O7  UNL     1      23.078  -6.932 -32.397  0.00  0.00    +0.000 OA
ENDBRANCH  27  28
ENDBRANCH  26  27
ENDBRANCH  23  26
ENDBRANCH  21  23
ENDBRANCH  20  21
ENDBRANCH  16  20
TORSDOF 7
ENDMDL
MODEL 5
REMARK VINA RESULT:    -5.342      2.191      6.936
REMARK INTER + INTRA:          -8.599
REMARK INTER:                  -6.865
REMARK INTRA:                  -1.735
REMARK UNBOUND:                -1.227
REMARK  Name = resultss/4CJN/ligands/lig_231_t0.pdb
REMARK  11 active torsions:
REMARK  status: ('A' for Active; 'I' for Inactive)
REMARK    1  A    between atoms: C6_8  and  C7_9
REMARK    2  A    between atoms: C9_11  and  O3_12
REMARK    3  A    between atoms: C11_14  and  C12_15
REMARK    4  A    between atoms: C14_17  and  O4_18
REMARK    5  A    between atoms: O4_18  and  C15_19
REMARK    6  A    between atoms: C15_19  and  C16_21
REMARK    7  A    between atoms: C16_21  and  C19_24
REMARK    8  A    between atoms: C17_22  and  C18_23
REMARK    9  A    between atoms: C19_24  and  O6_25
REMARK   10  A    between atoms: O6_25  and  C20_26
REMARK   11  A    between atoms: C20_26  and  C21_27
REMARK                            x       y       z     vdW  Elec       q    Type
REMARK                         _______ _______ _______ _____ _____    ______ ____
ROOT
ATOM      1  C1  UNL     1      30.757  -8.607 -40.709  0.00  0.00    +0.000 C 
ATOM      2  C2  UNL     1      29.685  -9.397 -40.627  0.00  0.00    +0.000 C 
ATOM      3  C3  UNL     1      29.560 -10.688 -41.270  0.00  0.00    +0.000 C 
ATOM      4  O1  UNL     1      30.464 -11.268 -41.927  0.00  0.00    +0.000 OA
ATOM      5  O2  UNL     1      28.287 -11.191 -41.123  0.00  0.00    +0.000 OA
ATOM      6  C4  UNL     1      27.537 -10.372 -40.235  0.00  0.00    +0.000 C 
ATOM      7  C5  UNL     1      26.102 -10.217 -40.670  0.00  0.00    +0.000 C 
ATOM      8  C6  UNL     1      25.661  -9.519 -41.742  0.00  0.00    +0.000 C 
ATOM      9  C7  UNL     1      26.541  -9.130 -42.905  0.00  0.00    +0.000 C 
ATOM     10  C8  UNL     1      24.306  -8.848 -41.622  0.00  0.00    +0.000 C 
ATOM     11  C9  UNL     1      24.389  -7.408 -41.033  0.00  0.00    +0.000 C 
ATOM     12  C10 UNL     1      25.608  -7.175 -40.145  0.00  0.00    +0.000 C 
ATOM     13  C11 UNL     1      25.834  -7.747 -38.937  0.00  0.00    +0.000 C 
ATOM     14  C12 UNL     1      24.749  -8.454 -38.161  0.00  0.00    +0.000 C 
ATOM     15  C13 UNL     1      27.164  -7.507 -38.238  0.00  0.00    +0.000 C 
ATOM     16  C14 UNL     1      28.367  -8.424 -38.646  0.00  0.00    +0.000 C 
ATOM     17  C22 UNL     1      28.329  -9.021 -40.089  0.00  0.00    +0.000 C 
ENDROOT
BRANCH  11  18
ATOM     18  O3  UNL     1      24.423  -6.495 -42.100  0.00  0.00    +0.000 OA
ATOM     19  H11 UNL     1      24.048  -6.961 -42.894  0.00  0.00    +0.000 HD
ENDBRANCH  11  18
BRANCH  16  20
ATOM     20  O4  UNL     1      28.579  -9.461 -37.680  0.00  0.00    +0.000 OA
BRANCH  20  21
ATOM     21  C15 UNL     1      29.701  -9.519 -36.840  0.00  0.00    +0.000 C 
ATOM     22  O5  UNL     1      30.769 -10.039 -37.269  0.00  0.00    +0.000 OA
BRANCH  21  23
ATOM     23  C16 UNL     1      29.616  -8.967 -35.455  0.00  0.00    +0.000 C 
ATOM     24  C17 UNL     1      29.914  -7.688 -35.136  0.00  0.00    +0.000 C 
ATOM     25  C18 UNL     1      30.398  -6.644 -36.098  0.00  0.00    +0.000 C 
BRANCH  23  26
ATOM     26  C19 UNL     1      29.157  -9.870 -34.333  0.00  0.00    +0.000 C 
BRANCH  26  27
ATOM     27  O6  UNL     1      27.888  -9.441 -33.837  0.00  0.00    +0.000 OA
BRANCH  27  28
ATOM     28  C20 UNL     1      26.744  -9.364 -34.635  0.00  0.00    +0.000 C 
ATOM     29  C21 UNL     1      25.996  -8.078 -34.730  0.00  0.00    +0.000 C 
ATOM     30  O7  UNL     1      26.316 -10.378 -35.244  0.00  0.00    +0.000 OA
ENDBRANCH  27  28
ENDBRANCH  26  27
ENDBRANCH  23  26
ENDBRANCH  21  23
ENDBRANCH  20  21
ENDBRANCH  16  20
TORSDOF 7
ENDMDL
MODEL 6
REMARK VINA RESULT:    -5.317      1.874      2.785
REMARK INTER + INTRA:          -8.565
REMARK INTER:                  -7.443
REMARK INTRA:                  -1.122
REMARK UNBOUND:                -1.227
REMARK  Name = resultss/4CJN/ligands/lig_231_t0.pdb
REMARK  11 active torsions:
REMARK  status: ('A' for Active; 'I' for Inactive)
REMARK    1  A    between atoms: C6_8  and  C7_9
REMARK    2  A    between atoms: C9_11  and  O3_12
REMARK    3  A    between atoms: C11_14  and  C12_15
REMARK    4  A    between atoms: C14_17  and  O4_18
REMARK    5  A    between atoms: O4_18  and  C15_19
REMARK    6  A    between atoms: C15_19  and  C16_21
REMARK    7  A    between atoms: C16_21  and  C19_24
REMARK    8  A    between atoms: C17_22  and  C18_23
REMARK    9  A    between atoms: C19_24  and  O6_25
REMARK   10  A    between atoms: O6_25  and  C20_26
REMARK   11  A    between atoms: C20_26  and  C21_27
REMARK                            x       y       z     vdW  Elec       q    Type
REMARK                         _______ _______ _______ _____ _____    ______ ____
ROOT
ATOM      1  C1  UNL     1      24.875  -6.510 -35.649  0.00  0.00    +0.000 C 
ATOM      2  C2  UNL     1      25.406  -7.693 -35.332  0.00  0.00    +0.000 C 
ATOM      3  C3  UNL     1      24.869  -8.600 -34.340  0.00  0.00    +0.000 C 
ATOM      4  O1  UNL     1      23.798  -8.432 -33.700  0.00  0.00    +0.000 OA
ATOM      5  O2  UNL     1      25.718  -9.664 -34.135  0.00  0.00    +0.000 OA
ATOM      6  C4  UNL     1      26.774  -9.638 -35.086  0.00  0.00    +0.000 C 
ATOM      7  C5  UNL     1      28.095 -10.052 -34.489  0.00  0.00    +0.000 C 
ATOM      8  C6  UNL     1      28.830  -9.344 -33.600  0.00  0.00    +0.000 C 
ATOM      9  C7  UNL     1      28.267  -8.232 -32.751  0.00  0.00    +0.000 C 
ATOM     10  C8  UNL     1      30.339  -9.478 -33.687  0.00  0.00    +0.000 C 
ATOM     11  C9  UNL     1      30.987  -8.452 -34.663  0.00  0.00    +0.000 C 
ATOM     12  C10 UNL     1      30.046  -7.968 -35.763  0.00  0.00    +0.000 C 
ATOM     13  C11 UNL     1      29.559  -8.721 -36.781  0.00  0.00    +0.000 C 
ATOM     14  C12 UNL     1      30.141 -10.065 -37.144  0.00  0.00    +0.000 C 
ATOM     15  C13 UNL     1      28.528  -8.118 -37.723  0.00  0.00    +0.000 C 
ATOM     16  C14 UNL     1      27.028  -8.164 -37.271  0.00  0.00    +0.000 C 
ATOM     17  C22 UNL     1      26.766  -8.203 -35.731  0.00  0.00    +0.000 C 
ENDROOT
BRANCH  11  18
ATOM     18  O3  UNL     1      31.419  -7.343 -33.916  0.00  0.00    +0.000 OA
ATOM     19  H11 UNL     1      30.797  -7.251 -33.145  0.00  0.00    +0.000 HD
ENDBRANCH  11  18
BRANCH  16  20
ATOM     20  O4  UNL     1      26.322  -9.224 -37.926  0.00  0.00    +0.000 OA
BRANCH  20  21
ATOM     21  C15 UNL     1      25.752  -9.102 -39.203  0.00  0.00    +0.000 C 
ATOM     22  O5  UNL     1      24.500  -8.991 -39.314  0.00  0.00    +0.000 OA
BRANCH  21  23
ATOM     23  C16 UNL     1      26.635  -9.106 -40.408  0.00  0.00    +0.000 C 
ATOM     24  C17 UNL     1      27.451 -10.130 -40.739  0.00  0.00    +0.000 C 
ATOM     25  C18 UNL     1      27.622 -11.394 -39.949  0.00  0.00    +0.000 C 
BRANCH  23  26
ATOM     26  C19 UNL     1      26.617  -7.910 -41.333  0.00  0.00    +0.000 C 
BRANCH  26  27
ATOM     27  O6  UNL     1      26.139  -8.287 -42.624  0.00  0.00    +0.000 OA
BRANCH  27  28
ATOM     28  C20 UNL     1      24.828  -8.709 -42.859  0.00  0.00    +0.000 C 
ATOM     29  C21 UNL     1      23.723  -7.709 -42.891  0.00  0.00    +0.000 C 
ATOM     30  O7  UNL     1      24.563  -9.931 -43.004  0.00  0.00    +0.000 OA
ENDBRANCH  27  28
ENDBRANCH  26  27
ENDBRANCH  23  26
ENDBRANCH  21  23
ENDBRANCH  20  21
ENDBRANCH  16  20
TORSDOF 7
ENDMDL
MODEL 7
REMARK VINA RESULT:    -5.312      2.529      4.834
REMARK INTER + INTRA:          -8.558
REMARK INTER:                  -6.790
REMARK INTRA:                  -1.767
REMARK UNBOUND:                -1.227
REMARK  Name = resultss/4CJN/ligands/lig_231_t0.pdb
REMARK  11 active torsions:
REMARK  status: ('A' for Active; 'I' for Inactive)
REMARK    1  A    between atoms: C6_8  and  C7_9
REMARK    2  A    between atoms: C9_11  and  O3_12
REMARK    3  A    between atoms: C11_14  and  C12_15
REMARK    4  A    between atoms: C14_17  and  O4_18
REMARK    5  A    between atoms: O4_18  and  C15_19
REMARK    6  A    between atoms: C15_19  and  C16_21
REMARK    7  A    between atoms: C16_21  and  C19_24
REMARK    8  A    between atoms: C17_22  and  C18_23
REMARK    9  A    between atoms: C19_24  and  O6_25
REMARK   10  A    between atoms: O6_25  and  C20_26
REMARK   11  A    between atoms: C20_26  and  C21_27
REMARK                            x       y       z     vdW  Elec       q    Type
REMARK                         _______ _______ _______ _____ _____    ______ ____
ROOT
ATOM      1  C1  UNL     1      27.817 -10.980 -38.944  0.00  0.00    +0.000 C 
ATOM      2  C2  UNL     1      28.032  -9.922 -38.160  0.00  0.00    +0.000 C 
ATOM      3  C3  UNL     1      29.271  -9.647 -37.465  0.00  0.00    +0.000 C 
ATOM      4  O1  UNL     1      30.329 -10.323 -37.561  0.00  0.00    +0.000 OA
ATOM      5  O2  UNL     1      29.134  -8.567 -36.622  0.00  0.00    +0.000 OA
ATOM      6  C4  UNL     1      27.872  -7.945 -36.826  0.00  0.00    +0.000 C 
ATOM      7  C5  UNL     1      27.252  -7.469 -35.536  0.00  0.00    +0.000 C 
ATOM      8  C6  UNL     1      26.748  -8.251 -34.553  0.00  0.00    +0.000 C 
ATOM      9  C7  UNL     1      27.090  -9.711 -34.391  0.00  0.00    +0.000 C 
ATOM     10  C8  UNL     1      25.565  -7.707 -33.774  0.00  0.00    +0.000 C 
ATOM     11  C9  UNL     1      24.193  -8.064 -34.421  0.00  0.00    +0.000 C 
ATOM     12  C10 UNL     1      24.265  -8.306 -35.926  0.00  0.00    +0.000 C 
ATOM     13  C11 UNL     1      24.535  -7.370 -36.870  0.00  0.00    +0.000 C 
ATOM     14  C12 UNL     1      24.485  -5.890 -36.579  0.00  0.00    +0.000 C 
ATOM     15  C13 UNL     1      24.697  -7.802 -38.319  0.00  0.00    +0.000 C 
ATOM     16  C14 UNL     1      26.106  -8.327 -38.760  0.00  0.00    +0.000 C 
ATOM     17  C22 UNL     1      26.993  -8.961 -37.642  0.00  0.00    +0.000 C 
ENDROOT
BRANCH  11  18
ATOM     18  O3  UNL     1      23.699  -9.223 -33.798  0.00  0.00    +0.000 OA
ATOM     19  H11 UNL     1      23.061  -8.927 -33.096  0.00  0.00    +0.000 HD
ENDBRANCH  11  18
BRANCH  16  20
ATOM     20  O4  UNL     1      26.837  -7.318 -39.467  0.00  0.00    +0.000 OA
BRANCH  20  21
ATOM     21  C15 UNL     1      26.891  -7.238 -40.867  0.00  0.00    +0.000 C 
ATOM     22  O5  UNL     1      26.304  -6.288 -41.456  0.00  0.00    +0.000 OA
BRANCH  21  23
ATOM     23  C16 UNL     1      27.639  -8.277 -41.637  0.00  0.00    +0.000 C 
ATOM     24  C17 UNL     1      27.055  -9.348 -42.217  0.00  0.00    +0.000 C 
ATOM     25  C18 UNL     1      25.593  -9.679 -42.157  0.00  0.00    +0.000 C 
BRANCH  23  26
ATOM     26  C19 UNL     1      29.134  -8.130 -41.803  0.00  0.00    +0.000 C 
BRANCH  26  27
ATOM     27  O6  UNL     1      29.822  -9.023 -40.926  0.00  0.00    +0.000 OA
BRANCH  27  28
ATOM     28  C20 UNL     1      30.724  -9.990 -41.375  0.00  0.00    +0.000 C 
ATOM     29  C21 UNL     1      30.231 -11.142 -42.182  0.00  0.00    +0.000 C 
ATOM     30  O7  UNL     1      31.944  -9.920 -41.074  0.00  0.00    +0.000 OA
ENDBRANCH  27  28
ENDBRANCH  26  27
ENDBRANCH  23  26
ENDBRANCH  21  23
ENDBRANCH  20  21
ENDBRANCH  16  20
TORSDOF 7
ENDMDL
MODEL 8
REMARK VINA RESULT:    -5.312      2.481      4.724
REMARK INTER + INTRA:          -8.557
REMARK INTER:                  -7.074
REMARK INTRA:                  -1.484
REMARK UNBOUND:                -1.227
REMARK  Name = resultss/4CJN/ligands/lig_231_t0.pdb
REMARK  11 active torsions:
REMARK  status: ('A' for Active; 'I' for Inactive)
REMARK    1  A    between atoms: C6_8  and  C7_9
REMARK    2  A    between atoms: C9_11  and  O3_12
REMARK    3  A    between atoms: C11_14  and  C12_15
REMARK    4  A    between atoms: C14_17  and  O4_18
REMARK    5  A    between atoms: O4_18  and  C15_19
REMARK    6  A    between atoms: C15_19  and  C16_21
REMARK    7  A    between atoms: C16_21  and  C19_24
REMARK    8  A    between atoms: C17_22  and  C18_23
REMARK    9  A    between atoms: C19_24  and  O6_25
REMARK   10  A    between atoms: O6_25  and  C20_26
REMARK   11  A    between atoms: C20_26  and  C21_27
REMARK                            x       y       z     vdW  Elec       q    Type
REMARK                         _______ _______ _______ _____ _____    ______ ____
ROOT
ATOM      1  C1  UNL     1      27.955 -11.163 -38.482  0.00  0.00    +0.000 C 
ATOM      2  C2  UNL     1      28.225 -10.007 -37.874  0.00  0.00    +0.000 C 
ATOM      3  C3  UNL     1      29.545  -9.581 -37.460  0.00  0.00    +0.000 C 
ATOM      4  O1  UNL     1      30.617 -10.204 -37.679  0.00  0.00    +0.000 OA
ATOM      5  O2  UNL     1      29.480  -8.416 -36.730  0.00  0.00    +0.000 OA
ATOM      6  C4  UNL     1      28.158  -7.894 -36.759  0.00  0.00    +0.000 C 
ATOM      7  C5  UNL     1      27.747  -7.299 -35.435  0.00  0.00    +0.000 C 
ATOM      8  C6  UNL     1      27.490  -7.981 -34.295  0.00  0.00    +0.000 C 
ATOM      9  C7  UNL     1      27.967  -9.389 -34.041  0.00  0.00    +0.000 C 
ATOM     10  C8  UNL     1      26.430  -7.413 -33.372  0.00  0.00    +0.000 C 
ATOM     11  C9  UNL     1      24.995  -7.922 -33.704  0.00  0.00    +0.000 C 
ATOM     12  C10 UNL     1      24.812  -8.341 -35.160  0.00  0.00    +0.000 C 
ATOM     13  C11 UNL     1      24.833  -7.514 -36.235  0.00  0.00    +0.000 C 
ATOM     14  C12 UNL     1      24.724  -6.014 -36.104  0.00  0.00    +0.000 C 
ATOM     15  C13 UNL     1      24.763  -8.111 -37.632  0.00  0.00    +0.000 C 
ATOM     16  C14 UNL     1      26.105  -8.607 -38.271  0.00  0.00    +0.000 C 
ATOM     17  C22 UNL     1      27.226  -9.050 -37.277  0.00  0.00    +0.000 C 
ENDROOT
BRANCH  11  18
ATOM     18  O3  UNL     1      24.713  -9.021 -32.876  0.00  0.00    +0.000 OA
ATOM     19  H11 UNL     1      24.909  -8.741 -31.943  0.00  0.00    +0.000 HD
ENDBRANCH  11  18
BRANCH  16  20
ATOM     20  O4  UNL     1      26.617  -7.653 -39.209  0.00  0.00    +0.000 OA
BRANCH  20  21
ATOM     21  C15 UNL     1      26.438  -7.760 -40.597  0.00  0.00    +0.000 C 
ATOM     22  O5  UNL     1      26.146  -6.729 -41.265  0.00  0.00    +0.000 OA
BRANCH  21  23
ATOM     23  C16 UNL     1      26.595  -9.089 -41.261  0.00  0.00    +0.000 C 
ATOM     24  C17 UNL     1      27.776  -9.570 -41.707  0.00  0.00    +0.000 C 
ATOM     25  C18 UNL     1      29.090  -8.851 -41.637  0.00  0.00    +0.000 C 
BRANCH  23  26
ATOM     26  C19 UNL     1      25.378  -9.968 -41.440  0.00  0.00    +0.000 C 
BRANCH  26  27
ATOM     27  O6  UNL     1      24.876  -9.858 -42.772  0.00  0.00    +0.000 OA
BRANCH  27  28
ATOM     28  C20 UNL     1      24.255  -8.706 -43.260  0.00  0.00    +0.000 C 
ATOM     29  C21 UNL     1      22.932  -8.291 -42.714  0.00  0.00    +0.000 C 
ATOM     30  O7  UNL     1      24.783  -8.034 -44.185  0.00  0.00    +0.000 OA
ENDBRANCH  27  28
ENDBRANCH  26  27
ENDBRANCH  23  26
ENDBRANCH  21  23
ENDBRANCH  20  21
ENDBRANCH  16  20
TORSDOF 7
ENDMDL
MODEL 9
REMARK VINA RESULT:    -5.299      2.514      6.733
REMARK INTER + INTRA:          -8.540
REMARK INTER:                  -7.052
REMARK INTRA:                  -1.488
REMARK UNBOUND:                -1.227
REMARK  Name = resultss/4CJN/ligands/lig_231_t0.pdb
REMARK  11 active torsions:
REMARK  status: ('A' for Active; 'I' for Inactive)
REMARK    1  A    between atoms: C6_8  and  C7_9
REMARK    2  A    between atoms: C9_11  and  O3_12
REMARK    3  A    between atoms: C11_14  and  C12_15
REMARK    4  A    between atoms: C14_17  and  O4_18
REMARK    5  A    between atoms: O4_18  and  C15_19
REMARK    6  A    between atoms: C15_19  and  C16_21
REMARK    7  A    between atoms: C16_21  and  C19_24
REMARK    8  A    between atoms: C17_22  and  C18_23
REMARK    9  A    between atoms: C19_24  and  O6_25
REMARK   10  A    between atoms: O6_25  and  C20_26
REMARK   11  A    between atoms: C20_26  and  C21_27
REMARK                            x       y       z     vdW  Elec       q    Type
REMARK                         _______ _______ _______ _____ _____    ______ ____
ROOT
ATOM      1  C1  UNL     1      25.517  -8.835 -36.502  0.00  0.00    +0.000 C 
ATOM      2  C2  UNL     1      25.925  -8.064 -37.512  0.00  0.00    +0.000 C 
ATOM      3  C3  UNL     1      25.821  -6.621 -37.542  0.00  0.00    +0.000 C 
ATOM      4  O1  UNL     1      25.404  -5.898 -36.601  0.00  0.00    +0.000 OA
ATOM      5  O2  UNL     1      26.188  -6.127 -38.774  0.00  0.00    +0.000 OA
ATOM      6  C4  UNL     1      26.725  -7.169 -39.579  0.00  0.00    +0.000 C 
ATOM      7  C5  UNL     1      26.309  -7.050 -41.024  0.00  0.00    +0.000 C 
ATOM      8  C6  UNL     1      25.067  -7.258 -41.520  0.00  0.00    +0.000 C 
ATOM      9  C7  UNL     1      23.817  -7.235 -40.676  0.00  0.00    +0.000 C 
ATOM     10  C8  UNL     1      24.968  -7.832 -42.921  0.00  0.00    +0.000 C 
ATOM     11  C9  UNL     1      24.968  -9.389 -42.943  0.00  0.00    +0.000 C 
ATOM     12  C10 UNL     1      25.662 -10.023 -41.741  0.00  0.00    +0.000 C 
ATOM     13  C11 UNL     1      26.989  -9.968 -41.468  0.00  0.00    +0.000 C 
ATOM     14  C12 UNL     1      28.009  -9.537 -42.494  0.00  0.00    +0.000 C 
ATOM     15  C13 UNL     1      27.503 -10.545 -40.157  0.00  0.00    +0.000 C 
ATOM     16  C14 UNL     1      27.433  -9.625 -38.891  0.00  0.00    +0.000 C 
ATOM     17  C22 UNL     1      26.324  -8.525 -38.890  0.00  0.00    +0.000 C 
ENDROOT
BRANCH  11  18
ATOM     18  O3  UNL     1      23.634  -9.830 -42.981  0.00  0.00    +0.000 OA
ATOM     19  H11 UNL     1      23.396 -10.118 -42.060  0.00  0.00    +0.000 HD
ENDBRANCH  11  18
BRANCH  16  20
ATOM     20  O4  UNL     1      28.712  -9.048 -38.598  0.00  0.00    +0.000 OA
BRANCH  20  21
ATOM     21  C15 UNL     1      29.467  -9.375 -37.462  0.00  0.00    +0.000 C 
ATOM     22  O5  UNL     1      30.402 -10.217 -37.561  0.00  0.00    +0.000 OA
BRANCH  21  23
ATOM     23  C16 UNL     1      29.154  -8.722 -36.155  0.00  0.00    +0.000 C 
ATOM     24  C17 UNL     1      29.174  -7.385 -35.959  0.00  0.00    +0.000 C 
ATOM     25  C18 UNL     1      29.535  -6.361 -36.994  0.00  0.00    +0.000 C 
BRANCH  23  26
ATOM     26  C19 UNL     1      28.775  -9.588 -34.975  0.00  0.00    +0.000 C 
BRANCH  26  27
ATOM     27  O6  UNL     1      29.937  -9.938 -34.222  0.00  0.00    +0.000 OA
BRANCH  27  28
ATOM     28  C20 UNL     1      30.112  -9.584 -32.882  0.00  0.00    +0.000 C 
ATOM     29  C21 UNL     1      29.554  -8.297 -32.379  0.00  0.00    +0.000 C 
ATOM     30  O7  UNL     1      30.770 -10.322 -32.103  0.00  0.00    +0.000 OA
ENDBRANCH  27  28
ENDBRANCH  26  27
ENDBRANCH  23  26
ENDBRANCH  21  23
ENDBRANCH  20  21
ENDBRANCH  16  20
TORSDOF 7
ENDMDL
