MODEL 1
REMARK VINA RESULT:    -6.820      0.000      0.000
REMARK INTER + INTRA:         -13.972
REMARK INTER:                 -11.205
REMARK INTRA:                  -2.767
REMARK UNBOUND:                -2.767
REMARK  Name = resultss/4CJN/ligands/lig_341_t0.pdb
REMARK  13 active torsions:
REMARK  status: ('A' for Active; 'I' for Inactive)
REMARK    1  A    between atoms: C1_1  and  C2_2
REMARK    2  A    between atoms: C2_2  and  C3_3
REMARK    3  A    between atoms: C6_6  and  N1_7
REMARK    4  A    between atoms: C7_8  and  C8_10
REMARK    5  A    between atoms: C8_10  and  N2_11
REMARK    6  A    between atoms: C10_13  and  C11_14
REMARK    7  A    between atoms: C11_14  and  O2_15
REMARK    8  A    between atoms: O2_15  and  C12_16
REMARK    9  A    between atoms: C15_19  and  C16_20
REMARK   10  A    between atoms: N4_30  and  N5_31
REMARK   11  A    between atoms: N5_31  and  C24_32
REMARK   12  A    between atoms: C31_39  and  O4_40
REMARK   13  A    between atoms: O4_40  and  C32_41
REMARK                            x       y       z     vdW  Elec       q    Type
REMARK                         _______ _______ _______ _____ _____    ______ ____
ROOT
ATOM      1  C12 UNL     1      31.117  -8.287 -40.468  0.00  0.00    +0.000 A 
ATOM      2  C13 UNL     1      30.558  -7.005 -40.302  0.00  0.00    +0.000 A 
ATOM      3  C14 UNL     1      29.464  -6.605 -41.070  0.00  0.00    +0.000 A 
ATOM      4  C15 UNL     1      28.981  -7.431 -42.102  0.00  0.00    +0.000 A 
ATOM      5  C30 UNL     1      29.504  -8.726 -42.219  0.00  0.00    +0.000 A 
ATOM      6  C31 UNL     1      30.542  -9.173 -41.383  0.00  0.00    +0.000 A 
ENDROOT
BRANCH   4   7
ATOM      7  C16 UNL     1      27.858  -7.018 -43.044  0.00  0.00    +0.000 C 
ATOM      8  N3  UNL     1      28.257  -7.283 -44.430  0.00  0.00    +0.000 N 
ATOM      9  C17 UNL     1      27.288  -7.188 -45.481  0.00  0.00    +0.000 A 
ATOM     10  C18 UNL     1      27.682  -6.883 -46.790  0.00  0.00    +0.000 A 
ATOM     11  C19 UNL     1      26.725  -6.765 -47.803  0.00  0.00    +0.000 A 
ATOM     12  C20 UNL     1      25.376  -6.977 -47.518  0.00  0.00    +0.000 A 
ATOM     13  C21 UNL     1      24.975  -7.287 -46.215  0.00  0.00    +0.000 A 
ATOM     14  C22 UNL     1      25.933  -7.394 -45.187  0.00  0.00    +0.000 A 
ATOM     15  C23 UNL     1      25.556  -7.698 -43.793  0.00  0.00    +0.000 C 
ATOM     16  O3  UNL     1      24.358  -7.966 -43.513  0.00  0.00    +0.000 OA
ATOM     17  N4  UNL     1      26.556  -7.657 -42.745  0.00  0.00    +0.000 N 
ATOM     18  H17 UNL     1      29.268  -7.312 -44.677  0.00  0.00    +0.000 HD
BRANCH  17  19
ATOM     19  N5  UNL     1      26.134  -7.770 -41.398  0.00  0.00    +0.000 N 
ATOM     20  H22 UNL     1      25.570  -6.986 -40.990  0.00  0.00    +0.000 HD
BRANCH  19  21
ATOM     21  C24 UNL     1      26.641  -8.782 -40.503  0.00  0.00    +0.000 A 
ATOM     22  C25 UNL     1      26.806 -10.121 -40.917  0.00  0.00    +0.000 A 
ATOM     23  C26 UNL     1      27.295 -11.079 -40.030  0.00  0.00    +0.000 A 
ATOM     24  C27 UNL     1      27.644 -10.718 -38.726  0.00  0.00    +0.000 A 
ATOM     25  C28 UNL     1      27.516  -9.388 -38.315  0.00  0.00    +0.000 A 
ATOM     26  C29 UNL     1      27.014  -8.426 -39.198  0.00  0.00    +0.000 A 
ENDBRANCH  19  21
ENDBRANCH  17  19
ENDBRANCH   4   7
BRANCH   6  27
ATOM     27  O4  UNL     1      31.031 -10.485 -41.442  0.00  0.00    +0.000 OA
ATOM     28  C32 UNL     1      31.389 -11.158 -42.648  0.00  0.00    +0.000 C 
ENDBRANCH   6  27
BRANCH   1  29
ATOM     29  O2  UNL     1      32.227  -8.720 -39.725  0.00  0.00    +0.000 OA
BRANCH  29  30
ATOM     30  C11 UNL     1      32.944  -7.901 -38.789  0.00  0.00    +0.000 C 
BRANCH  30  33
ATOM     31  N2  UNL     1      31.887  -8.802 -35.430  0.00  0.00    +0.000 N 
ATOM     32  C9  UNL     1      32.344  -9.185 -36.636  0.00  0.00    +0.000 A 
ATOM     33  C10 UNL     1      32.407  -8.036 -37.398  0.00  0.00    +0.000 A 
ATOM     34  N6  UNL     1      32.034  -6.992 -36.634  0.00  0.00    +0.000 NA
ATOM     35  N7  UNL     1      31.715  -7.487 -35.445  0.00  0.00    +0.000 NA
BRANCH  31  36
ATOM     36  C8  UNL     1      31.673  -9.647 -34.260  0.00  0.00    +0.000 C 
BRANCH  36  38
ATOM     37  N1  UNL     1      29.274  -8.817 -34.535  0.00  0.00    +0.000 N 
ATOM     38  C7  UNL     1      30.269  -9.495 -33.749  0.00  0.00    +0.000 C 
ATOM     39  O1  UNL     1      29.974  -9.963 -32.616  0.00  0.00    +0.000 OA
ATOM     40  H8  UNL     1      29.595  -8.193 -35.309  0.00  0.00    +0.000 HD
BRANCH  37  44
ATOM     41  C3  UNL     1      25.113  -8.887 -33.651  0.00  0.00    +0.000 A 
ATOM     42  C4  UNL     1      25.715  -9.965 -34.316  0.00  0.00    +0.000 A 
ATOM     43  C5  UNL     1      27.086  -9.937 -34.602  0.00  0.00    +0.000 A 
ATOM     44  C6  UNL     1      27.871  -8.829 -34.231  0.00  0.00    +0.000 A 
ATOM     45  C33 UNL     1      27.277  -7.775 -33.517  0.00  0.00    +0.000 A 
ATOM     46  C34 UNL     1      25.911  -7.802 -33.225  0.00  0.00    +0.000 A 
BRANCH  41  48
ATOM     47  C1  UNL     1      22.826  -8.182 -34.387  0.00  0.00    +0.000 C 
ATOM     48  C2  UNL     1      23.641  -8.914 -33.327  0.00  0.00    +0.000 C 
ENDBRANCH  41  48
ENDBRANCH  37  44
ENDBRANCH  36  38
ENDBRANCH  31  36
ENDBRANCH  30  33
ENDBRANCH  29  30
ENDBRANCH   1  29
TORSDOF 11
ENDMDL
MODEL 2
REMARK VINA RESULT:    -6.654      1.265      2.288
REMARK INTER + INTRA:         -13.700
REMARK INTER:                 -11.026
REMARK INTRA:                  -2.674
REMARK UNBOUND:                -2.767
REMARK  Name = resultss/4CJN/ligands/lig_341_t0.pdb
REMARK  13 active torsions:
REMARK  status: ('A' for Active; 'I' for Inactive)
REMARK    1  A    between atoms: C1_1  and  C2_2
REMARK    2  A    between atoms: C2_2  and  C3_3
REMARK    3  A    between atoms: C6_6  and  N1_7
REMARK    4  A    between atoms: C7_8  and  C8_10
REMARK    5  A    between atoms: C8_10  and  N2_11
REMARK    6  A    between atoms: C10_13  and  C11_14
REMARK    7  A    between atoms: C11_14  and  O2_15
REMARK    8  A    between atoms: O2_15  and  C12_16
REMARK    9  A    between atoms: C15_19  and  C16_20
REMARK   10  A    between atoms: N4_30  and  N5_31
REMARK   11  A    between atoms: N5_31  and  C24_32
REMARK   12  A    between atoms: C31_39  and  O4_40
REMARK   13  A    between atoms: O4_40  and  C32_41
REMARK                            x       y       z     vdW  Elec       q    Type
REMARK                         _______ _______ _______ _____ _____    ______ ____
ROOT
ATOM      1  C12 UNL     1      30.767  -8.089 -40.053  0.00  0.00    +0.000 A 
ATOM      2  C13 UNL     1      30.505  -8.952 -41.135  0.00  0.00    +0.000 A 
ATOM      3  C14 UNL     1      29.611  -8.577 -42.138  0.00  0.00    +0.000 A 
ATOM      4  C15 UNL     1      28.870  -7.387 -42.021  0.00  0.00    +0.000 A 
ATOM      5  C30 UNL     1      29.182  -6.508 -40.974  0.00  0.00    +0.000 A 
ATOM      6  C31 UNL     1      30.153  -6.835 -40.011  0.00  0.00    +0.000 A 
ENDROOT
BRANCH   4   7
ATOM      7  C16 UNL     1      27.805  -6.965 -43.024  0.00  0.00    +0.000 C 
ATOM      8  N3  UNL     1      28.320  -7.130 -44.387  0.00  0.00    +0.000 N 
ATOM      9  C17 UNL     1      27.430  -7.013 -45.505  0.00  0.00    +0.000 A 
ATOM     10  C18 UNL     1      27.909  -6.615 -46.759  0.00  0.00    +0.000 A 
ATOM     11  C19 UNL     1      27.028  -6.476 -47.836  0.00  0.00    +0.000 A 
ATOM     12  C20 UNL     1      25.672  -6.759 -47.670  0.00  0.00    +0.000 A 
ATOM     13  C21 UNL     1      25.188  -7.162 -46.422  0.00  0.00    +0.000 A 
ATOM     14  C22 UNL     1      26.068  -7.291 -45.330  0.00  0.00    +0.000 A 
ATOM     15  C23 UNL     1      25.600  -7.692 -43.989  0.00  0.00    +0.000 C 
ATOM     16  O3  UNL     1      24.397  -8.025 -43.820  0.00  0.00    +0.000 OA
ATOM     17  N4  UNL     1      26.514  -7.673 -42.865  0.00  0.00    +0.000 N 
ATOM     18  H17 UNL     1      29.347  -7.103 -44.555  0.00  0.00    +0.000 HD
BRANCH  17  19
ATOM     19  N5  UNL     1      25.996  -7.882 -41.564  0.00  0.00    +0.000 N 
ATOM     20  H22 UNL     1      25.306  -7.188 -41.190  0.00  0.00    +0.000 HD
BRANCH  19  21
ATOM     21  C24 UNL     1      26.548  -8.855 -40.651  0.00  0.00    +0.000 A 
ATOM     22  C25 UNL     1      26.876  -8.519 -39.321  0.00  0.00    +0.000 A 
ATOM     23  C26 UNL     1      27.410  -9.478 -38.462  0.00  0.00    +0.000 A 
ATOM     24  C27 UNL     1      27.610 -10.787 -38.906  0.00  0.00    +0.000 A 
ATOM     25  C28 UNL     1      27.257 -11.141 -40.211  0.00  0.00    +0.000 A 
ATOM     26  C29 UNL     1      26.732 -10.178 -41.080  0.00  0.00    +0.000 A 
ENDBRANCH  19  21
ENDBRANCH  17  19
ENDBRANCH   4   7
BRANCH   6  27
ATOM     27  O4  UNL     1      30.523  -5.941 -38.997  0.00  0.00    +0.000 OA
ATOM     28  C32 UNL     1      29.911  -5.885 -37.709  0.00  0.00    +0.000 C 
ENDBRANCH   6  27
BRANCH   1  29
ATOM     29  O2  UNL     1      31.649  -8.437 -39.017  0.00  0.00    +0.000 OA
BRANCH  29  30
ATOM     30  C11 UNL     1      31.684  -9.724 -38.383  0.00  0.00    +0.000 C 
BRANCH  30  33
ATOM     31  N2  UNL     1      30.627  -9.610 -34.907  0.00  0.00    +0.000 N 
ATOM     32  C9  UNL     1      30.299  -9.602 -36.211  0.00  0.00    +0.000 A 
ATOM     33  C10 UNL     1      31.495  -9.625 -36.901  0.00  0.00    +0.000 A 
ATOM     34  N6  UNL     1      32.504  -9.690 -36.010  0.00  0.00    +0.000 NA
ATOM     35  N7  UNL     1      31.948  -9.671 -34.806  0.00  0.00    +0.000 NA
BRANCH  31  36
ATOM     36  C8  UNL     1      29.713  -9.623 -33.770  0.00  0.00    +0.000 C 
BRANCH  36  38
ATOM     37  N1  UNL     1      27.270  -9.704 -34.505  0.00  0.00    +0.000 N 
ATOM     38  C7  UNL     1      28.424  -8.937 -34.120  0.00  0.00    +0.000 C 
ATOM     39  O1  UNL     1      28.367  -7.678 -34.081  0.00  0.00    +0.000 OA
ATOM     40  H8  UNL     1      27.412 -10.692 -34.815  0.00  0.00    +0.000 HD
BRANCH  37  44
ATOM     41  C3  UNL     1      23.351  -8.082 -34.840  0.00  0.00    +0.000 A 
ATOM     42  C4  UNL     1      23.759  -8.711 -33.655  0.00  0.00    +0.000 A 
ATOM     43  C5  UNL     1      25.052  -9.241 -33.550  0.00  0.00    +0.000 A 
ATOM     44  C6  UNL     1      25.950  -9.152 -34.630  0.00  0.00    +0.000 A 
ATOM     45  C33 UNL     1      25.558  -8.474 -35.795  0.00  0.00    +0.000 A 
ATOM     46  C34 UNL     1      24.271  -7.939 -35.901  0.00  0.00    +0.000 A 
BRANCH  41  48
ATOM     47  C1  UNL     1      21.879  -6.507 -36.114  0.00  0.00    +0.000 C 
ATOM     48  C2  UNL     1      21.967  -7.497 -34.957  0.00  0.00    +0.000 C 
ENDBRANCH  41  48
ENDBRANCH  37  44
ENDBRANCH  36  38
ENDBRANCH  31  36
ENDBRANCH  30  33
ENDBRANCH  29  30
ENDBRANCH   1  29
TORSDOF 11
ENDMDL
MODEL 3
REMARK VINA RESULT:    -6.316      1.769      2.776
REMARK INTER + INTRA:         -13.144
REMARK INTER:                 -10.842
REMARK INTRA:                  -2.303
REMARK UNBOUND:                -2.767
REMARK  Name = resultss/4CJN/ligands/lig_341_t0.pdb
REMARK  13 active torsions:
REMARK  status: ('A' for Active; 'I' for Inactive)
REMARK    1  A    between atoms: C1_1  and  C2_2
REMARK    2  A    between atoms: C2_2  and  C3_3
REMARK    3  A    between atoms: C6_6  and  N1_7
REMARK    4  A    between atoms: C7_8  and  C8_10
REMARK    5  A    between atoms: C8_10  and  N2_11
REMARK    6  A    between atoms: C10_13  and  C11_14
REMARK    7  A    between atoms: C11_14  and  O2_15
REMARK    8  A    between atoms: O2_15  and  C12_16
REMARK    9  A    between atoms: C15_19  and  C16_20
REMARK   10  A    between atoms: N4_30  and  N5_31
REMARK   11  A    between atoms: N5_31  and  C24_32
REMARK   12  A    between atoms: C31_39  and  O4_40
REMARK   13  A    between atoms: O4_40  and  C32_41
REMARK                            x       y       z     vdW  Elec       q    Type
REMARK                         _______ _______ _______ _____ _____    ______ ____
ROOT
ATOM      1  C12 UNL     1      29.083  -9.597 -39.373  0.00  0.00    +0.000 A 
ATOM      2  C13 UNL     1      28.474 -10.403 -40.356  0.00  0.00    +0.000 A 
ATOM      3  C14 UNL     1      27.596  -9.843 -41.284  0.00  0.00    +0.000 A 
ATOM      4  C15 UNL     1      27.215  -8.493 -41.178  0.00  0.00    +0.000 A 
ATOM      5  C30 UNL     1      27.871  -7.688 -40.236  0.00  0.00    +0.000 A 
ATOM      6  C31 UNL     1      28.830  -8.223 -39.359  0.00  0.00    +0.000 A 
ENDROOT
BRANCH   4   7
ATOM      7  C16 UNL     1      26.186  -7.841 -42.091  0.00  0.00    +0.000 C 
ATOM      8  N3  UNL     1      26.675  -7.855 -43.473  0.00  0.00    +0.000 N 
ATOM      9  C17 UNL     1      25.794  -7.503 -44.546  0.00  0.00    +0.000 A 
ATOM     10  C18 UNL     1      26.298  -6.973 -45.740  0.00  0.00    +0.000 A 
ATOM     11  C19 UNL     1      25.426  -6.606 -46.770  0.00  0.00    +0.000 A 
ATOM     12  C20 UNL     1      24.052  -6.792 -46.622  0.00  0.00    +0.000 A 
ATOM     13  C21 UNL     1      23.541  -7.325 -45.435  0.00  0.00    +0.000 A 
ATOM     14  C22 UNL     1      24.413  -7.684 -44.388  0.00  0.00    +0.000 A 
ATOM     15  C23 UNL     1      23.919  -8.231 -43.109  0.00  0.00    +0.000 C 
ATOM     16  O3  UNL     1      22.693  -8.478 -42.967  0.00  0.00    +0.000 OA
ATOM     17  N4  UNL     1      24.838  -8.451 -42.010  0.00  0.00    +0.000 N 
ATOM     18  H17 UNL     1      27.700  -7.893 -43.654  0.00  0.00    +0.000 HD
BRANCH  17  19
ATOM     19  N5  UNL     1      24.311  -8.798 -40.743  0.00  0.00    +0.000 N 
ATOM     20  H22 UNL     1      23.587  -9.554 -40.699  0.00  0.00    +0.000 HD
BRANCH  19  21
ATOM     21  C24 UNL     1      24.542  -8.006 -39.558  0.00  0.00    +0.000 A 
ATOM     22  C25 UNL     1      24.248  -6.626 -39.522  0.00  0.00    +0.000 A 
ATOM     23  C26 UNL     1      24.484  -5.885 -38.365  0.00  0.00    +0.000 A 
ATOM     24  C27 UNL     1      24.997  -6.506 -37.224  0.00  0.00    +0.000 A 
ATOM     25  C28 UNL     1      25.261  -7.878 -37.237  0.00  0.00    +0.000 A 
ATOM     26  C29 UNL     1      25.037  -8.623 -38.400  0.00  0.00    +0.000 A 
ENDBRANCH  19  21
ENDBRANCH  17  19
ENDBRANCH   4   7
BRANCH   6  27
ATOM     27  O4  UNL     1      29.543  -7.421 -38.458  0.00  0.00    +0.000 OA
ATOM     28  C32 UNL     1      29.007  -6.905 -37.240  0.00  0.00    +0.000 C 
ENDBRANCH   6  27
BRANCH   1  29
ATOM     29  O2  UNL     1      29.960 -10.127 -38.413  0.00  0.00    +0.000 OA
BRANCH  29  30
ATOM     30  C11 UNL     1      31.382  -9.932 -38.421  0.00  0.00    +0.000 C 
BRANCH  30  33
ATOM     31  N2  UNL     1      32.100  -9.362 -34.904  0.00  0.00    +0.000 N 
ATOM     32  C9  UNL     1      31.207  -9.377 -35.909  0.00  0.00    +0.000 A 
ATOM     33  C10 UNL     1      31.924  -9.694 -37.046  0.00  0.00    +0.000 A 
ATOM     34  N6  UNL     1      33.208  -9.904 -36.699  0.00  0.00    +0.000 NA
ATOM     35  N7  UNL     1      33.289  -9.688 -35.393  0.00  0.00    +0.000 NA
BRANCH  31  36
ATOM     36  C8  UNL     1      31.833  -9.107 -33.492  0.00  0.00    +0.000 C 
BRANCH  36  38
ATOM     37  N1  UNL     1      29.428  -8.315 -33.821  0.00  0.00    +0.000 N 
ATOM     38  C7  UNL     1      30.363  -9.217 -33.204  0.00  0.00    +0.000 C 
ATOM     39  O1  UNL     1      29.958 -10.106 -32.407  0.00  0.00    +0.000 OA
ATOM     40  H8  UNL     1      29.793  -7.425 -34.228  0.00  0.00    +0.000 HD
BRANCH  37  44
ATOM     41  C3  UNL     1      25.204  -8.812 -33.693  0.00  0.00    +0.000 A 
ATOM     42  C4  UNL     1      25.801  -7.663 -33.151  0.00  0.00    +0.000 A 
ATOM     43  C5  UNL     1      27.192  -7.505 -33.198  0.00  0.00    +0.000 A 
ATOM     44  C6  UNL     1      28.004  -8.494 -33.784  0.00  0.00    +0.000 A 
ATOM     45  C33 UNL     1      27.401  -9.617 -34.375  0.00  0.00    +0.000 A 
ATOM     46  C34 UNL     1      26.013  -9.775 -34.334  0.00  0.00    +0.000 A 
BRANCH  41  48
ATOM     47  C1  UNL     1      23.182  -8.988 -32.228  0.00  0.00    +0.000 C 
ATOM     48  C2  UNL     1      23.708  -8.984 -33.659  0.00  0.00    +0.000 C 
ENDBRANCH  41  48
ENDBRANCH  37  44
ENDBRANCH  36  38
ENDBRANCH  31  36
ENDBRANCH  30  33
ENDBRANCH  29  30
ENDBRANCH   1  29
TORSDOF 11
ENDMDL
MODEL 4
REMARK VINA RESULT:    -5.985      3.031      6.345
REMARK INTER + INTRA:         -12.601
REMARK INTER:                 -10.046
REMARK INTRA:                  -2.555
REMARK UNBOUND:                -2.767
REMARK  Name = resultss/4CJN/ligands/lig_341_t0.pdb
REMARK  13 active torsions:
REMARK  status: ('A' for Active; 'I' for Inactive)
REMARK    1  A    between atoms: C1_1  and  C2_2
REMARK    2  A    between atoms: C2_2  and  C3_3
REMARK    3  A    between atoms: C6_6  and  N1_7
REMARK    4  A    between atoms: C7_8  and  C8_10
REMARK    5  A    between atoms: C8_10  and  N2_11
REMARK    6  A    between atoms: C10_13  and  C11_14
REMARK    7  A    between atoms: C11_14  and  O2_15
REMARK    8  A    between atoms: O2_15  and  C12_16
REMARK    9  A    between atoms: C15_19  and  C16_20
REMARK   10  A    between atoms: N4_30  and  N5_31
REMARK   11  A    between atoms: N5_31  and  C24_32
REMARK   12  A    between atoms: C31_39  and  O4_40
REMARK   13  A    between atoms: O4_40  and  C32_41
REMARK                            x       y       z     vdW  Elec       q    Type
REMARK                         _______ _______ _______ _____ _____    ______ ____
ROOT
ATOM      1  C12 UNL     1      26.965  -7.881 -41.489  0.00  0.00    +0.000 A 
ATOM      2  C13 UNL     1      28.210  -7.227 -41.587  0.00  0.00    +0.000 A 
ATOM      3  C14 UNL     1      29.386  -7.963 -41.734  0.00  0.00    +0.000 A 
ATOM      4  C15 UNL     1      29.358  -9.368 -41.665  0.00  0.00    +0.000 A 
ATOM      5  C30 UNL     1      28.112 -10.009 -41.628  0.00  0.00    +0.000 A 
ATOM      6  C31 UNL     1      26.914  -9.274 -41.579  0.00  0.00    +0.000 A 
ENDROOT
BRANCH   4   7
ATOM      7  C16 UNL     1      30.612 -10.231 -41.715  0.00  0.00    +0.000 C 
ATOM      8  N3  UNL     1      30.682 -10.923 -43.005  0.00  0.00    +0.000 N 
ATOM      9  C17 UNL     1      31.879 -11.617 -43.379  0.00  0.00    +0.000 A 
ATOM     10  C18 UNL     1      31.829 -12.700 -44.264  0.00  0.00    +0.000 A 
ATOM     11  C19 UNL     1      33.000 -13.388 -44.600  0.00  0.00    +0.000 A 
ATOM     12  C20 UNL     1      34.225 -12.980 -44.073  0.00  0.00    +0.000 A 
ATOM     13  C21 UNL     1      34.283 -11.896 -43.192  0.00  0.00    +0.000 A 
ATOM     14  C22 UNL     1      33.106 -11.207 -42.840  0.00  0.00    +0.000 A 
ATOM     15  C23 UNL     1      33.115 -10.071 -41.898  0.00  0.00    +0.000 C 
ATOM     16  O3  UNL     1      34.209  -9.631 -41.459  0.00  0.00    +0.000 OA
ATOM     17  N4  UNL     1      31.865  -9.486 -41.455  0.00  0.00    +0.000 N 
ATOM     18  H17 UNL     1      29.806 -11.105 -43.538  0.00  0.00    +0.000 HD
BRANCH  17  19
ATOM     19  N5  UNL     1      31.896  -8.526 -40.414  0.00  0.00    +0.000 N 
ATOM     20  H22 UNL     1      32.204  -7.552 -40.649  0.00  0.00    +0.000 HD
BRANCH  19  21
ATOM     21  C24 UNL     1      31.759  -8.880 -39.021  0.00  0.00    +0.000 A 
ATOM     22  C25 UNL     1      32.782  -9.558 -38.326  0.00  0.00    +0.000 A 
ATOM     23  C26 UNL     1      32.621  -9.890 -36.981  0.00  0.00    +0.000 A 
ATOM     24  C27 UNL     1      31.451  -9.538 -36.305  0.00  0.00    +0.000 A 
ATOM     25  C28 UNL     1      30.445  -8.836 -36.974  0.00  0.00    +0.000 A 
ATOM     26  C29 UNL     1      30.597  -8.512 -38.326  0.00  0.00    +0.000 A 
ENDBRANCH  19  21
ENDBRANCH  17  19
ENDBRANCH   4   7
BRANCH   6  27
ATOM     27  O4  UNL     1      25.659  -9.897 -41.608  0.00  0.00    +0.000 OA
ATOM     28  C32 UNL     1      24.674  -9.678 -42.618  0.00  0.00    +0.000 C 
ENDBRANCH   6  27
BRANCH   1  29
ATOM     29  O2  UNL     1      25.763  -7.175 -41.327  0.00  0.00    +0.000 OA
BRANCH  29  30
ATOM     30  C11 UNL     1      25.501  -6.258 -40.254  0.00  0.00    +0.000 C 
BRANCH  30  33
ATOM     31  N2  UNL     1      24.533  -7.406 -36.944  0.00  0.00    +0.000 N 
ATOM     32  C9  UNL     1      24.915  -6.397 -37.747  0.00  0.00    +0.000 A 
ATOM     33  C10 UNL     1      25.147  -6.966 -38.984  0.00  0.00    +0.000 A 
ATOM     34  N6  UNL     1      24.863  -8.281 -38.911  0.00  0.00    +0.000 NA
ATOM     35  N7  UNL     1      24.501  -8.522 -37.659  0.00  0.00    +0.000 NA
BRANCH  31  36
ATOM     36  C8  UNL     1      24.146  -7.315 -35.540  0.00  0.00    +0.000 C 
BRANCH  36  38
ATOM     37  N1  UNL     1      26.489  -8.272 -35.210  0.00  0.00    +0.000 N 
ATOM     38  C7  UNL     1      25.285  -7.720 -34.650  0.00  0.00    +0.000 C 
ATOM     39  O1  UNL     1      25.171  -7.577 -33.402  0.00  0.00    +0.000 OA
ATOM     40  H8  UNL     1      26.454  -8.653 -36.182  0.00  0.00    +0.000 HD
BRANCH  37  44
ATOM     41  C3  UNL     1      30.073  -8.888 -33.001  0.00  0.00    +0.000 A 
ATOM     42  C4  UNL     1      29.350  -9.982 -33.500  0.00  0.00    +0.000 A 
ATOM     43  C5  UNL     1      28.173  -9.772 -34.228  0.00  0.00    +0.000 A 
ATOM     44  C6  UNL     1      27.700  -8.468 -34.463  0.00  0.00    +0.000 A 
ATOM     45  C33 UNL     1      28.453  -7.372 -34.010  0.00  0.00    +0.000 A 
ATOM     46  C34 UNL     1      29.632  -7.577 -33.288  0.00  0.00    +0.000 A 
BRANCH  41  48
ATOM     47  C1  UNL     1      31.811 -10.554 -32.312  0.00  0.00    +0.000 C 
ATOM     48  C2  UNL     1      31.349  -9.103 -32.228  0.00  0.00    +0.000 C 
ENDBRANCH  41  48
ENDBRANCH  37  44
ENDBRANCH  36  38
ENDBRANCH  31  36
ENDBRANCH  30  33
ENDBRANCH  29  30
ENDBRANCH   1  29
TORSDOF 11
ENDMDL
MODEL 5
REMARK VINA RESULT:    -5.761      2.660      4.367
REMARK INTER + INTRA:         -12.233
REMARK INTER:                  -9.294
REMARK INTRA:                  -2.940
REMARK UNBOUND:                -2.767
REMARK  Name = resultss/4CJN/ligands/lig_341_t0.pdb
REMARK  13 active torsions:
REMARK  status: ('A' for Active; 'I' for Inactive)
REMARK    1  A    between atoms: C1_1  and  C2_2
REMARK    2  A    between atoms: C2_2  and  C3_3
REMARK    3  A    between atoms: C6_6  and  N1_7
REMARK    4  A    between atoms: C7_8  and  C8_10
REMARK    5  A    between atoms: C8_10  and  N2_11
REMARK    6  A    between atoms: C10_13  and  C11_14
REMARK    7  A    between atoms: C11_14  and  O2_15
REMARK    8  A    between atoms: O2_15  and  C12_16
REMARK    9  A    between atoms: C15_19  and  C16_20
REMARK   10  A    between atoms: N4_30  and  N5_31
REMARK   11  A    between atoms: N5_31  and  C24_32
REMARK   12  A    between atoms: C31_39  and  O4_40
REMARK   13  A    between atoms: O4_40  and  C32_41
REMARK                            x       y       z     vdW  Elec       q    Type
REMARK                         _______ _______ _______ _____ _____    ______ ____
ROOT
ATOM      1  C12 UNL     1      33.008  -8.823 -37.578  0.00  0.00    +0.000 A 
ATOM      2  C13 UNL     1      32.133  -9.885 -37.277  0.00  0.00    +0.000 A 
ATOM      3  C14 UNL     1      30.919 -10.015 -37.952  0.00  0.00    +0.000 A 
ATOM      4  C15 UNL     1      30.498  -9.021 -38.855  0.00  0.00    +0.000 A 
ATOM      5  C30 UNL     1      31.400  -8.002 -39.192  0.00  0.00    +0.000 A 
ATOM      6  C31 UNL     1      32.667  -7.919 -38.588  0.00  0.00    +0.000 A 
ENDROOT
BRANCH   4   7
ATOM      7  C16 UNL     1      29.144  -9.045 -39.550  0.00  0.00    +0.000 C 
ATOM      8  N3  UNL     1      28.576  -7.693 -39.567  0.00  0.00    +0.000 N 
ATOM      9  C17 UNL     1      27.415  -7.417 -40.360  0.00  0.00    +0.000 A 
ATOM     10  C18 UNL     1      26.540  -6.382 -40.007  0.00  0.00    +0.000 A 
ATOM     11  C19 UNL     1      25.394  -6.140 -40.772  0.00  0.00    +0.000 A 
ATOM     12  C20 UNL     1      25.133  -6.911 -41.904  0.00  0.00    +0.000 A 
ATOM     13  C21 UNL     1      26.005  -7.943 -42.265  0.00  0.00    +0.000 A 
ATOM     14  C22 UNL     1      27.153  -8.201 -41.492  0.00  0.00    +0.000 A 
ATOM     15  C23 UNL     1      28.092  -9.292 -41.821  0.00  0.00    +0.000 C 
ATOM     16  O3  UNL     1      27.927  -9.962 -42.874  0.00  0.00    +0.000 OA
ATOM     17  N4  UNL     1      29.179  -9.612 -40.918  0.00  0.00    +0.000 N 
ATOM     18  H17 UNL     1      28.867  -7.005 -38.841  0.00  0.00    +0.000 HD
BRANCH  17  19
ATOM     19  N5  UNL     1      29.947 -10.776 -41.165  0.00  0.00    +0.000 N 
ATOM     20  H22 UNL     1      29.765 -11.622 -40.574  0.00  0.00    +0.000 HD
BRANCH  19  21
ATOM     21  C24 UNL     1      31.115 -10.775 -42.013  0.00  0.00    +0.000 A 
ATOM     22  C25 UNL     1      32.386 -10.409 -41.521  0.00  0.00    +0.000 A 
ATOM     23  C26 UNL     1      33.497 -10.414 -42.364  0.00  0.00    +0.000 A 
ATOM     24  C27 UNL     1      33.365 -10.800 -43.700  0.00  0.00    +0.000 A 
ATOM     25  C28 UNL     1      32.118 -11.197 -44.189  0.00  0.00    +0.000 A 
ATOM     26  C29 UNL     1      30.998 -11.181 -43.350  0.00  0.00    +0.000 A 
ENDBRANCH  19  21
ENDBRANCH  17  19
ENDBRANCH   4   7
BRANCH   6  27
ATOM     27  O4  UNL     1      33.605  -6.947 -38.960  0.00  0.00    +0.000 OA
ATOM     28  C32 UNL     1      33.370  -5.932 -39.936  0.00  0.00    +0.000 C 
ENDBRANCH   6  27
BRANCH   1  29
ATOM     29  O2  UNL     1      34.231  -8.651 -36.911  0.00  0.00    +0.000 OA
BRANCH  29  30
ATOM     30  C11 UNL     1      34.364  -8.089 -35.597  0.00  0.00    +0.000 C 
BRANCH  30  33
ATOM     31  N2  UNL     1      32.145  -9.695 -33.207  0.00  0.00    +0.000 N 
ATOM     32  C9  UNL     1      32.416  -8.644 -34.000  0.00  0.00    +0.000 A 
ATOM     33  C10 UNL     1      33.650  -8.904 -34.563  0.00  0.00    +0.000 A 
ATOM     34  N6  UNL     1      34.071 -10.110 -34.136  0.00  0.00    +0.000 NA
ATOM     35  N7  UNL     1      33.141 -10.565 -33.308  0.00  0.00    +0.000 NA
BRANCH  31  36
ATOM     36  C8  UNL     1      30.940  -9.911 -32.413  0.00  0.00    +0.000 C 
BRANCH  36  38
ATOM     37  N1  UNL     1      29.219  -9.780 -34.293  0.00  0.00    +0.000 N 
ATOM     38  C7  UNL     1      29.754  -9.260 -33.064  0.00  0.00    +0.000 C 
ATOM     39  O1  UNL     1      29.237  -8.245 -32.524  0.00  0.00    +0.000 OA
ATOM     40  H8  UNL     1      29.820 -10.413 -34.867  0.00  0.00    +0.000 HD
BRANCH  37  44
ATOM     41  C3  UNL     1      25.516  -8.538 -35.983  0.00  0.00    +0.000 A 
ATOM     42  C4  UNL     1      26.731  -8.119 -36.548  0.00  0.00    +0.000 A 
ATOM     43  C5  UNL     1      27.945  -8.534 -35.988  0.00  0.00    +0.000 A 
ATOM     44  C6  UNL     1      27.963  -9.368 -34.855  0.00  0.00    +0.000 A 
ATOM     45  C33 UNL     1      26.748  -9.829 -34.323  0.00  0.00    +0.000 A 
ATOM     46  C34 UNL     1      25.533  -9.422 -34.882  0.00  0.00    +0.000 A 
BRANCH  41  48
ATOM     47  C1  UNL     1      23.164  -7.826 -35.508  0.00  0.00    +0.000 C 
ATOM     48  C2  UNL     1      24.204  -8.108 -36.586  0.00  0.00    +0.000 C 
ENDBRANCH  41  48
ENDBRANCH  37  44
ENDBRANCH  36  38
ENDBRANCH  31  36
ENDBRANCH  30  33
ENDBRANCH  29  30
ENDBRANCH   1  29
TORSDOF 11
ENDMDL
MODEL 6
REMARK VINA RESULT:    -5.643      4.652     11.067
REMARK INTER + INTRA:         -12.039
REMARK INTER:                 -10.565
REMARK INTRA:                  -1.475
REMARK UNBOUND:                -2.767
REMARK  Name = resultss/4CJN/ligands/lig_341_t0.pdb
REMARK  13 active torsions:
REMARK  status: ('A' for Active; 'I' for Inactive)
REMARK    1  A    between atoms: C1_1  and  C2_2
REMARK    2  A    between atoms: C2_2  and  C3_3
REMARK    3  A    between atoms: C6_6  and  N1_7
REMARK    4  A    between atoms: C7_8  and  C8_10
REMARK    5  A    between atoms: C8_10  and  N2_11
REMARK    6  A    between atoms: C10_13  and  C11_14
REMARK    7  A    between atoms: C11_14  and  O2_15
REMARK    8  A    between atoms: O2_15  and  C12_16
REMARK    9  A    between atoms: C15_19  and  C16_20
REMARK   10  A    between atoms: N4_30  and  N5_31
REMARK   11  A    between atoms: N5_31  and  C24_32
REMARK   12  A    between atoms: C31_39  and  O4_40
REMARK   13  A    between atoms: O4_40  and  C32_41
REMARK                            x       y       z     vdW  Elec       q    Type
REMARK                         _______ _______ _______ _____ _____    ______ ____
ROOT
ATOM      1  C12 UNL     1      25.775  -7.658 -41.981  0.00  0.00    +0.000 A 
ATOM      2  C13 UNL     1      24.848  -8.486 -41.315  0.00  0.00    +0.000 A 
ATOM      3  C14 UNL     1      24.755  -8.466 -39.923  0.00  0.00    +0.000 A 
ATOM      4  C15 UNL     1      25.665  -7.711 -39.161  0.00  0.00    +0.000 A 
ATOM      5  C30 UNL     1      26.542  -6.848 -39.832  0.00  0.00    +0.000 A 
ATOM      6  C31 UNL     1      26.575  -6.788 -41.236  0.00  0.00    +0.000 A 
ENDROOT
BRANCH   4   7
ATOM      7  C16 UNL     1      25.688  -7.722 -37.638  0.00  0.00    +0.000 C 
ATOM      8  N3  UNL     1      24.336  -7.972 -37.128  0.00  0.00    +0.000 N 
ATOM      9  C17 UNL     1      24.140  -8.249 -35.735  0.00  0.00    +0.000 A 
ATOM     10  C18 UNL     1      22.922  -7.951 -35.113  0.00  0.00    +0.000 A 
ATOM     11  C19 UNL     1      22.750  -8.200 -33.747  0.00  0.00    +0.000 A 
ATOM     12  C20 UNL     1      23.784  -8.771 -33.007  0.00  0.00    +0.000 A 
ATOM     13  C21 UNL     1      25.002  -9.077 -33.622  0.00  0.00    +0.000 A 
ATOM     14  C22 UNL     1      25.185  -8.817 -34.994  0.00  0.00    +0.000 A 
ATOM     15  C23 UNL     1      26.459  -9.103 -35.683  0.00  0.00    +0.000 C 
ATOM     16  O3  UNL     1      27.388  -9.684 -35.064  0.00  0.00    +0.000 OA
ATOM     17  N4  UNL     1      26.650  -8.687 -37.058  0.00  0.00    +0.000 N 
ATOM     18  H17 UNL     1      23.512  -7.724 -37.714  0.00  0.00    +0.000 HD
BRANCH  17  19
ATOM     19  N5  UNL     1      27.940  -8.807 -37.631  0.00  0.00    +0.000 N 
ATOM     20  H22 UNL     1      28.697  -8.173 -37.281  0.00  0.00    +0.000 HD
BRANCH  19  21
ATOM     21  C24 UNL     1      28.195  -9.579 -38.823  0.00  0.00    +0.000 A 
ATOM     22  C25 UNL     1      29.141  -9.165 -39.785  0.00  0.00    +0.000 A 
ATOM     23  C26 UNL     1      29.365  -9.930 -40.929  0.00  0.00    +0.000 A 
ATOM     24  C27 UNL     1      28.667 -11.124 -41.126  0.00  0.00    +0.000 A 
ATOM     25  C28 UNL     1      27.752 -11.561 -40.164  0.00  0.00    +0.000 A 
ATOM     26  C29 UNL     1      27.515 -10.790 -39.020  0.00  0.00    +0.000 A 
ENDBRANCH  19  21
ENDBRANCH  17  19
ENDBRANCH   4   7
BRANCH   6  27
ATOM     27  O4  UNL     1      27.398  -5.884 -41.922  0.00  0.00    +0.000 OA
ATOM     28  C32 UNL     1      28.618  -6.238 -42.572  0.00  0.00    +0.000 C 
ENDBRANCH   6  27
BRANCH   1  29
ATOM     29  O2  UNL     1      25.908  -7.661 -43.378  0.00  0.00    +0.000 OA
BRANCH  29  30
ATOM     30  C11 UNL     1      25.536  -6.566 -44.229  0.00  0.00    +0.000 C 
BRANCH  30  33
ATOM     31  N2  UNL     1      22.679  -7.198 -46.386  0.00  0.00    +0.000 N 
ATOM     32  C9  UNL     1      23.978  -6.873 -46.260  0.00  0.00    +0.000 A 
ATOM     33  C10 UNL     1      24.220  -6.801 -44.903  0.00  0.00    +0.000 A 
ATOM     34  N6  UNL     1      23.088  -7.123 -44.247  0.00  0.00    +0.000 NA
ATOM     35  N7  UNL     1      22.166  -7.352 -45.172  0.00  0.00    +0.000 NA
BRANCH  31  36
ATOM     36  C8  UNL     1      21.944  -7.423 -47.625  0.00  0.00    +0.000 C 
BRANCH  36  38
ATOM     37  N1  UNL     1      19.585  -7.792 -46.723  0.00  0.00    +0.000 N 
ATOM     38  C7  UNL     1      20.513  -6.993 -47.476  0.00  0.00    +0.000 C 
ATOM     39  O1  UNL     1      20.132  -5.925 -48.027  0.00  0.00    +0.000 OA
ATOM     40  H8  UNL     1      19.830  -8.790 -46.533  0.00  0.00    +0.000 HD
BRANCH  37  44
ATOM     41  C3  UNL     1      15.715  -6.468 -45.550  0.00  0.00    +0.000 A 
ATOM     42  C4  UNL     1      16.747  -6.570 -44.605  0.00  0.00    +0.000 A 
ATOM     43  C5  UNL     1      18.019  -7.004 -44.999  0.00  0.00    +0.000 A 
ATOM     44  C6  UNL     1      18.275  -7.346 -46.339  0.00  0.00    +0.000 A 
ATOM     45  C33 UNL     1      17.256  -7.192 -47.294  0.00  0.00    +0.000 A 
ATOM     46  C34 UNL     1      15.986  -6.753 -46.906  0.00  0.00    +0.000 A 
BRANCH  41  48
ATOM     47  C1  UNL     1      14.167  -6.052 -43.627  0.00  0.00    +0.000 C 
ATOM     48  C2  UNL     1      14.346  -5.989 -45.139  0.00  0.00    +0.000 C 
ENDBRANCH  41  48
ENDBRANCH  37  44
ENDBRANCH  36  38
ENDBRANCH  31  36
ENDBRANCH  30  33
ENDBRANCH  29  30
ENDBRANCH   1  29
TORSDOF 11
ENDMDL
MODEL 7
REMARK VINA RESULT:    -5.314      2.585      9.917
REMARK INTER + INTRA:         -11.499
REMARK INTER:                  -9.507
REMARK INTRA:                  -1.992
REMARK UNBOUND:                -2.767
REMARK  Name = resultss/4CJN/ligands/lig_341_t0.pdb
REMARK  13 active torsions:
REMARK  status: ('A' for Active; 'I' for Inactive)
REMARK    1  A    between atoms: C1_1  and  C2_2
REMARK    2  A    between atoms: C2_2  and  C3_3
REMARK    3  A    between atoms: C6_6  and  N1_7
REMARK    4  A    between atoms: C7_8  and  C8_10
REMARK    5  A    between atoms: C8_10  and  N2_11
REMARK    6  A    between atoms: C10_13  and  C11_14
REMARK    7  A    between atoms: C11_14  and  O2_15
REMARK    8  A    between atoms: O2_15  and  C12_16
REMARK    9  A    between atoms: C15_19  and  C16_20
REMARK   10  A    between atoms: N4_30  and  N5_31
REMARK   11  A    between atoms: N5_31  and  C24_32
REMARK   12  A    between atoms: C31_39  and  O4_40
REMARK   13  A    between atoms: O4_40  and  C32_41
REMARK                            x       y       z     vdW  Elec       q    Type
REMARK                         _______ _______ _______ _____ _____    ______ ____
ROOT
ATOM      1  C12 UNL     1      28.620  -7.435 -40.200  0.00  0.00    +0.000 A 
ATOM      2  C13 UNL     1      28.342  -6.128 -39.752  0.00  0.00    +0.000 A 
ATOM      3  C14 UNL     1      27.735  -5.919 -38.513  0.00  0.00    +0.000 A 
ATOM      4  C15 UNL     1      27.283  -7.011 -37.750  0.00  0.00    +0.000 A 
ATOM      5  C30 UNL     1      27.617  -8.305 -38.175  0.00  0.00    +0.000 A 
ATOM      6  C31 UNL     1      28.316  -8.521 -39.375  0.00  0.00    +0.000 A 
ENDROOT
BRANCH   4   7
ATOM      7  C16 UNL     1      26.523  -6.856 -36.440  0.00  0.00    +0.000 C 
ATOM      8  N3  UNL     1      25.303  -7.668 -36.480  0.00  0.00    +0.000 N 
ATOM      9  C17 UNL     1      24.537  -7.864 -35.284  0.00  0.00    +0.000 A 
ATOM     10  C18 UNL     1      23.163  -8.123 -35.352  0.00  0.00    +0.000 A 
ATOM     11  C19 UNL     1      22.419  -8.284 -34.178  0.00  0.00    +0.000 A 
ATOM     12  C20 UNL     1      23.051  -8.215 -32.937  0.00  0.00    +0.000 A 
ATOM     13  C21 UNL     1      24.423  -7.962 -32.861  0.00  0.00    +0.000 A 
ATOM     14  C22 UNL     1      25.175  -7.785 -34.039  0.00  0.00    +0.000 A 
ATOM     15  C23 UNL     1      26.623  -7.495 -34.010  0.00  0.00    +0.000 C 
ATOM     16  O3  UNL     1      27.238  -7.496 -32.912  0.00  0.00    +0.000 OA
ATOM     17  N4  UNL     1      27.325  -7.179 -35.237  0.00  0.00    +0.000 N 
ATOM     18  H17 UNL     1      24.874  -7.905 -37.398  0.00  0.00    +0.000 HD
BRANCH  17  19
ATOM     19  N5  UNL     1      28.664  -6.726 -35.156  0.00  0.00    +0.000 N 
ATOM     20  H22 UNL     1      28.831  -5.703 -34.999  0.00  0.00    +0.000 HD
BRANCH  19  21
ATOM     21  C24 UNL     1      29.791  -7.552 -35.517  0.00  0.00    +0.000 A 
ATOM     22  C25 UNL     1      30.764  -7.115 -36.441  0.00  0.00    +0.000 A 
ATOM     23  C26 UNL     1      31.841  -7.936 -36.773  0.00  0.00    +0.000 A 
ATOM     24  C27 UNL     1      31.976  -9.194 -36.180  0.00  0.00    +0.000 A 
ATOM     25  C28 UNL     1      31.037  -9.624 -35.239  0.00  0.00    +0.000 A 
ATOM     26  C29 UNL     1      29.949  -8.808 -34.911  0.00  0.00    +0.000 A 
ENDBRANCH  19  21
ENDBRANCH  17  19
ENDBRANCH   4   7
BRANCH   6  27
ATOM     27  O4  UNL     1      28.716  -9.802 -39.781  0.00  0.00    +0.000 OA
ATOM     28  C32 UNL     1      27.819 -10.836 -40.184  0.00  0.00    +0.000 C 
ENDBRANCH   6  27
BRANCH   1  29
ATOM     29  O2  UNL     1      29.216  -7.686 -41.446  0.00  0.00    +0.000 OA
BRANCH  29  30
ATOM     30  C11 UNL     1      28.527  -7.612 -42.702  0.00  0.00    +0.000 C 
BRANCH  30  33
ATOM     31  N2  UNL     1      25.002  -8.401 -42.302  0.00  0.00    +0.000 N 
ATOM     32  C9  UNL     1      26.032  -7.574 -42.052  0.00  0.00    +0.000 A 
ATOM     33  C10 UNL     1      27.142  -8.172 -42.617  0.00  0.00    +0.000 A 
ATOM     34  N6  UNL     1      26.754  -9.309 -43.225  0.00  0.00    +0.000 NA
ATOM     35  N7  UNL     1      25.450  -9.428 -43.012  0.00  0.00    +0.000 NA
BRANCH  31  36
ATOM     36  C8  UNL     1      23.604  -8.201 -41.935  0.00  0.00    +0.000 C 
BRANCH  36  38
ATOM     37  N1  UNL     1      23.387  -7.159 -44.255  0.00  0.00    +0.000 N 
ATOM     38  C7  UNL     1      22.786  -7.843 -43.143  0.00  0.00    +0.000 C 
ATOM     39  O1  UNL     1      21.562  -8.142 -43.166  0.00  0.00    +0.000 OA
ATOM     40  H8  UNL     1      24.296  -6.667 -44.102  0.00  0.00    +0.000 HD
BRANCH  37  44
ATOM     41  C3  UNL     1      21.516  -6.664 -48.044  0.00  0.00    +0.000 A 
ATOM     42  C4  UNL     1      22.769  -7.288 -47.948  0.00  0.00    +0.000 A 
ATOM     43  C5  UNL     1      23.378  -7.450 -46.697  0.00  0.00    +0.000 A 
ATOM     44  C6  UNL     1      22.746  -6.987 -45.528  0.00  0.00    +0.000 A 
ATOM     45  C33 UNL     1      21.468  -6.411 -45.621  0.00  0.00    +0.000 A 
ATOM     46  C34 UNL     1      20.854  -6.253 -46.867  0.00  0.00    +0.000 A 
BRANCH  41  48
ATOM     47  C1  UNL     1      19.328  -6.576 -49.259  0.00  0.00    +0.000 C 
ATOM     48  C2  UNL     1      20.846  -6.497 -49.384  0.00  0.00    +0.000 C 
ENDBRANCH  41  48
ENDBRANCH  37  44
ENDBRANCH  36  38
ENDBRANCH  31  36
ENDBRANCH  30  33
ENDBRANCH  29  30
ENDBRANCH   1  29
TORSDOF 11
ENDMDL
MODEL 8
REMARK VINA RESULT:    -5.029      4.277      9.755
REMARK INTER + INTRA:         -11.031
REMARK INTER:                  -9.596
REMARK INTRA:                  -1.435
REMARK UNBOUND:                -2.767
REMARK  Name = resultss/4CJN/ligands/lig_341_t0.pdb
REMARK  13 active torsions:
REMARK  status: ('A' for Active; 'I' for Inactive)
REMARK    1  A    between atoms: C1_1  and  C2_2
REMARK    2  A    between atoms: C2_2  and  C3_3
REMARK    3  A    between atoms: C6_6  and  N1_7
REMARK    4  A    between atoms: C7_8  and  C8_10
REMARK    5  A    between atoms: C8_10  and  N2_11
REMARK    6  A    between atoms: C10_13  and  C11_14
REMARK    7  A    between atoms: C11_14  and  O2_15
REMARK    8  A    between atoms: O2_15  and  C12_16
REMARK    9  A    between atoms: C15_19  and  C16_20
REMARK   10  A    between atoms: N4_30  and  N5_31
REMARK   11  A    between atoms: N5_31  and  C24_32
REMARK   12  A    between atoms: C31_39  and  O4_40
REMARK   13  A    between atoms: O4_40  and  C32_41
REMARK                            x       y       z     vdW  Elec       q    Type
REMARK                         _______ _______ _______ _____ _____    ______ ____
ROOT
ATOM      1  C12 UNL     1      27.316  -7.253 -41.273  0.00  0.00    +0.000 A 
ATOM      2  C13 UNL     1      27.333  -5.998 -40.632  0.00  0.00    +0.000 A 
ATOM      3  C14 UNL     1      27.048  -5.895 -39.270  0.00  0.00    +0.000 A 
ATOM      4  C15 UNL     1      26.622  -7.024 -38.546  0.00  0.00    +0.000 A 
ATOM      5  C30 UNL     1      26.666  -8.275 -39.177  0.00  0.00    +0.000 A 
ATOM      6  C31 UNL     1      27.048  -8.401 -40.524  0.00  0.00    +0.000 A 
ENDROOT
BRANCH   4   7
ATOM      7  C16 UNL     1      26.196  -6.967 -37.085  0.00  0.00    +0.000 C 
ATOM      8  N3  UNL     1      24.937  -7.696 -36.911  0.00  0.00    +0.000 N 
ATOM      9  C17 UNL     1      24.450  -7.974 -35.592  0.00  0.00    +0.000 A 
ATOM     10  C18 UNL     1      23.080  -8.142 -35.357  0.00  0.00    +0.000 A 
ATOM     11  C19 UNL     1      22.614  -8.385 -34.061  0.00  0.00    +0.000 A 
ATOM     12  C20 UNL     1      23.515  -8.488 -33.002  0.00  0.00    +0.000 A 
ATOM     13  C21 UNL     1      24.885  -8.326 -33.229  0.00  0.00    +0.000 A 
ATOM     14  C22 UNL     1      25.360  -8.068 -34.530  0.00  0.00    +0.000 A 
ATOM     15  C23 UNL     1      26.795  -7.870 -34.816  0.00  0.00    +0.000 C 
ATOM     16  O3  UNL     1      27.643  -8.026 -33.899  0.00  0.00    +0.000 OA
ATOM     17  N4  UNL     1      27.222  -7.465 -36.140  0.00  0.00    +0.000 N 
ATOM     18  H17 UNL     1      24.291  -7.806 -37.720  0.00  0.00    +0.000 HD
BRANCH  17  19
ATOM     19  N5  UNL     1      28.577  -7.104 -36.336  0.00  0.00    +0.000 N 
ATOM     20  H22 UNL     1      28.866  -6.124 -36.101  0.00  0.00    +0.000 HD
BRANCH  19  21
ATOM     21  C24 UNL     1      29.510  -7.934 -37.060  0.00  0.00    +0.000 A 
ATOM     22  C25 UNL     1      30.226  -7.444 -38.174  0.00  0.00    +0.000 A 
ATOM     23  C26 UNL     1      31.118  -8.270 -38.856  0.00  0.00    +0.000 A 
ATOM     24  C27 UNL     1      31.325  -9.585 -38.434  0.00  0.00    +0.000 A 
ATOM     25  C28 UNL     1      30.647 -10.070 -37.312  0.00  0.00    +0.000 A 
ATOM     26  C29 UNL     1      29.741  -9.249 -36.631  0.00  0.00    +0.000 A 
ENDBRANCH  19  21
ENDBRANCH  17  19
ENDBRANCH   4   7
BRANCH   6  27
ATOM     27  O4  UNL     1      27.161  -9.650 -41.150  0.00  0.00    +0.000 OA
ATOM     28  C32 UNL     1      28.139 -10.634 -40.814  0.00  0.00    +0.000 C 
ENDBRANCH   6  27
BRANCH   1  29
ATOM     29  O2  UNL     1      27.584  -7.394 -42.643  0.00  0.00    +0.000 OA
BRANCH  29  30
ATOM     30  C11 UNL     1      27.012  -6.570 -43.669  0.00  0.00    +0.000 C 
BRANCH  30  33
ATOM     31  N2  UNL     1      23.529  -6.881 -44.661  0.00  0.00    +0.000 N 
ATOM     32  C9  UNL     1      24.651  -6.142 -44.615  0.00  0.00    +0.000 A 
ATOM     33  C10 UNL     1      25.572  -6.898 -43.916  0.00  0.00    +0.000 A 
ATOM     34  N6  UNL     1      25.007  -8.078 -43.598  0.00  0.00    +0.000 NA
ATOM     35  N7  UNL     1      23.762  -8.038 -44.055  0.00  0.00    +0.000 NA
BRANCH  31  36
ATOM     36  C8  UNL     1      22.272  -6.535 -45.317  0.00  0.00    +0.000 C 
BRANCH  36  38
ATOM     37  N1  UNL     1      19.811  -6.460 -44.644  0.00  0.00    +0.000 N 
ATOM     38  C7  UNL     1      21.196  -6.287 -44.299  0.00  0.00    +0.000 C 
ATOM     39  O1  UNL     1      21.521  -5.915 -43.139  0.00  0.00    +0.000 OA
ATOM     40  H8  UNL     1      19.550  -6.474 -45.656  0.00  0.00    +0.000 HD
BRANCH  37  44
ATOM     41  C3  UNL     1      16.673  -6.474 -41.771  0.00  0.00    +0.000 A 
ATOM     42  C4  UNL     1      17.920  -5.913 -41.457  0.00  0.00    +0.000 A 
ATOM     43  C5  UNL     1      18.947  -5.910 -42.408  0.00  0.00    +0.000 A 
ATOM     44  C6  UNL     1      18.744  -6.470 -43.683  0.00  0.00    +0.000 A 
ATOM     45  C33 UNL     1      17.479  -6.983 -44.013  0.00  0.00    +0.000 A 
ATOM     46  C34 UNL     1      16.449  -6.983 -43.069  0.00  0.00    +0.000 A 
BRANCH  41  48
ATOM     47  C1  UNL     1      16.030  -6.994 -39.407  0.00  0.00    +0.000 C 
ATOM     48  C2  UNL     1      15.556  -6.470 -40.759  0.00  0.00    +0.000 C 
ENDBRANCH  41  48
ENDBRANCH  37  44
ENDBRANCH  36  38
ENDBRANCH  31  36
ENDBRANCH  30  33
ENDBRANCH  29  30
ENDBRANCH   1  29
TORSDOF 11
ENDMDL
MODEL 9
REMARK VINA RESULT:    -4.517      3.784     11.384
REMARK INTER + INTRA:         -10.189
REMARK INTER:                  -8.839
REMARK INTRA:                  -1.349
REMARK UNBOUND:                -2.767
REMARK  Name = resultss/4CJN/ligands/lig_341_t0.pdb
REMARK  13 active torsions:
REMARK  status: ('A' for Active; 'I' for Inactive)
REMARK    1  A    between atoms: C1_1  and  C2_2
REMARK    2  A    between atoms: C2_2  and  C3_3
REMARK    3  A    between atoms: C6_6  and  N1_7
REMARK    4  A    between atoms: C7_8  and  C8_10
REMARK    5  A    between atoms: C8_10  and  N2_11
REMARK    6  A    between atoms: C10_13  and  C11_14
REMARK    7  A    between atoms: C11_14  and  O2_15
REMARK    8  A    between atoms: O2_15  and  C12_16
REMARK    9  A    between atoms: C15_19  and  C16_20
REMARK   10  A    between atoms: N4_30  and  N5_31
REMARK   11  A    between atoms: N5_31  and  C24_32
REMARK   12  A    between atoms: C31_39  and  O4_40
REMARK   13  A    between atoms: O4_40  and  C32_41
REMARK                            x       y       z     vdW  Elec       q    Type
REMARK                         _______ _______ _______ _____ _____    ______ ____
ROOT
ATOM      1  C12 UNL     1      26.667  -7.949 -39.544  0.00  0.00    +0.000 A 
ATOM      2  C13 UNL     1      26.804  -6.860 -38.660  0.00  0.00    +0.000 A 
ATOM      3  C14 UNL     1      27.588  -6.975 -37.512  0.00  0.00    +0.000 A 
ATOM      4  C15 UNL     1      28.153  -8.214 -37.158  0.00  0.00    +0.000 A 
ATOM      5  C30 UNL     1      28.062  -9.273 -38.072  0.00  0.00    +0.000 A 
ATOM      6  C31 UNL     1      27.356  -9.137 -39.280  0.00  0.00    +0.000 A 
ENDROOT
BRANCH   4   7
ATOM      7  C16 UNL     1      28.934  -8.438 -35.870  0.00  0.00    +0.000 C 
ATOM      8  N3  UNL     1      30.000  -7.437 -35.760  0.00  0.00    +0.000 N 
ATOM      9  C17 UNL     1      30.726  -7.300 -34.533  0.00  0.00    +0.000 A 
ATOM     10  C18 UNL     1      32.037  -6.809 -34.530  0.00  0.00    +0.000 A 
ATOM     11  C19 UNL     1      32.747  -6.706 -33.329  0.00  0.00    +0.000 A 
ATOM     12  C20 UNL     1      32.141  -7.069 -32.127  0.00  0.00    +0.000 A 
ATOM     13  C21 UNL     1      30.830  -7.555 -32.120  0.00  0.00    +0.000 A 
ATOM     14  C22 UNL     1      30.115  -7.674 -33.328  0.00  0.00    +0.000 A 
ATOM     15  C23 UNL     1      28.737  -8.202 -33.374  0.00  0.00    +0.000 C 
ATOM     16  O3  UNL     1      28.134  -8.471 -32.302  0.00  0.00    +0.000 OA
ATOM     17  N4  UNL     1      28.093  -8.440 -34.651  0.00  0.00    +0.000 N 
ATOM     18  H17 UNL     1      30.380  -6.995 -36.623  0.00  0.00    +0.000 HD
BRANCH  17  19
ATOM     19  N5  UNL     1      26.850  -9.117 -34.668  0.00  0.00    +0.000 N 
ATOM     20  H22 UNL     1      26.796 -10.038 -35.166  0.00  0.00    +0.000 HD
BRANCH  19  21
ATOM     21  C24 UNL     1      25.616  -8.495 -34.250  0.00  0.00    +0.000 A 
ATOM     22  C25 UNL     1      24.690  -9.170 -33.426  0.00  0.00    +0.000 A 
ATOM     23  C26 UNL     1      23.505  -8.545 -33.040  0.00  0.00    +0.000 A 
ATOM     24  C27 UNL     1      23.231  -7.239 -33.450  0.00  0.00    +0.000 A 
ATOM     25  C28 UNL     1      24.156  -6.549 -34.238  0.00  0.00    +0.000 A 
ATOM     26  C29 UNL     1      25.341  -7.176 -34.639  0.00  0.00    +0.000 A 
ENDBRANCH  19  21
ENDBRANCH  17  19
ENDBRANCH   4   7
BRANCH   6  27
ATOM     27  O4  UNL     1      27.310 -10.162 -40.234  0.00  0.00    +0.000 OA
ATOM     28  C32 UNL     1      28.327 -10.404 -41.206  0.00  0.00    +0.000 C 
ENDBRANCH   6  27
BRANCH   1  29
ATOM     29  O2  UNL     1      25.876  -7.877 -40.701  0.00  0.00    +0.000 OA
BRANCH  29  30
ATOM     30  C11 UNL     1      26.196  -7.081 -41.852  0.00  0.00    +0.000 C 
BRANCH  30  33
ATOM     31  N2  UNL     1      24.315  -7.386 -44.947  0.00  0.00    +0.000 N 
ATOM     32  C9  UNL     1      25.336  -6.832 -44.270  0.00  0.00    +0.000 A 
ATOM     33  C10 UNL     1      25.241  -7.316 -42.980  0.00  0.00    +0.000 A 
ATOM     34  N6  UNL     1      24.205  -8.175 -42.919  0.00  0.00    +0.000 NA
ATOM     35  N7  UNL     1      23.655  -8.192 -44.126  0.00  0.00    +0.000 NA
BRANCH  31  36
ATOM     36  C8  UNL     1      23.999  -7.212 -46.361  0.00  0.00    +0.000 C 
BRANCH  36  38
ATOM     37  N1  UNL     1      21.762  -7.311 -47.587  0.00  0.00    +0.000 N 
ATOM     38  C7  UNL     1      22.574  -6.768 -46.532  0.00  0.00    +0.000 C 
ATOM     39  O1  UNL     1      22.100  -5.906 -45.743  0.00  0.00    +0.000 OA
ATOM     40  H8  UNL     1      22.240  -7.780 -48.389  0.00  0.00    +0.000 HD
BRANCH  37  44
ATOM     41  C3  UNL     1      17.551  -6.752 -47.828  0.00  0.00    +0.000 A 
ATOM     42  C4  UNL     1      18.161  -7.031 -46.595  0.00  0.00    +0.000 A 
ATOM     43  C5  UNL     1      19.548  -7.212 -46.523  0.00  0.00    +0.000 A 
ATOM     44  C6  UNL     1      20.342  -7.119 -47.681  0.00  0.00    +0.000 A 
ATOM     45  C33 UNL     1      19.737  -6.786 -48.904  0.00  0.00    +0.000 A 
ATOM     46  C34 UNL     1      18.354  -6.600 -48.979  0.00  0.00    +0.000 A 
BRANCH  41  48
ATOM     47  C1  UNL     1      15.383  -7.683 -48.664  0.00  0.00    +0.000 C 
ATOM     48  C2  UNL     1      16.061  -6.542 -47.913  0.00  0.00    +0.000 C 
ENDBRANCH  41  48
ENDBRANCH  37  44
ENDBRANCH  36  38
ENDBRANCH  31  36
ENDBRANCH  30  33
ENDBRANCH  29  30
ENDBRANCH   1  29
TORSDOF 11
ENDMDL
