MODEL 1
REMARK VINA RESULT:    -6.009      0.000      0.000
REMARK INTER + INTRA:          -6.184
REMARK INTER:                  -6.184
REMARK INTRA:                   0.000
REMARK UNBOUND:                 0.000
REMARK  Name = resultss/4CJN/ligands/lig_360_t1.pdb
REMARK  1 active torsions:
REMARK  status: ('A' for Active; 'I' for Inactive)
REMARK    1  A    between atoms: C11_15  and  O5_16
REMARK                            x       y       z     vdW  Elec       q    Type
REMARK                         _______ _______ _______ _____ _____    ______ ____
ROOT
ATOM      1  O1  UNL     1      30.724  -9.653 -40.031  0.00  0.00    +0.000 OA
ATOM      2  C1  UNL     1      29.891  -9.673 -39.088  0.00  0.00    +0.000 A 
ATOM      3  O2  UNL     1      30.309  -9.699 -37.820  0.00  0.00    +0.000 OA
ATOM      4  C2  UNL     1      29.473  -9.722 -36.770  0.00  0.00    +0.000 A 
ATOM      5  C3  UNL     1      30.059  -9.751 -35.383  0.00  0.00    +0.000 C 
ATOM      6  C4  UNL     1      29.023  -9.774 -34.288  0.00  0.00    +0.000 C 
ATOM      7  O3  UNL     1      29.402  -9.799 -33.086  0.00  0.00    +0.000 OA
ATOM      8  C5  UNL     1      27.579  -9.768 -34.584  0.00  0.00    +0.000 C 
ATOM      9  C6  UNL     1      27.133  -9.742 -35.839  0.00  0.00    +0.000 C 
ATOM     10  C7  UNL     1      28.069  -9.717 -36.973  0.00  0.00    +0.000 A 
ATOM     11  C8  UNL     1      27.626  -9.690 -38.292  0.00  0.00    +0.000 A 
ATOM     12  O4  UNL     1      26.382  -9.680 -38.732  0.00  0.00    +0.000 OA
ATOM     13  C9  UNL     1      26.449  -9.653 -40.048  0.00  0.00    +0.000 A 
ATOM     14  C10 UNL     1      25.388  -9.633 -40.950  0.00  0.00    +0.000 A 
ATOM     15  C11 UNL     1      25.690  -9.605 -42.329  0.00  0.00    +0.000 A 
ATOM     16  C12 UNL     1      27.036  -9.595 -42.763  0.00  0.00    +0.000 A 
ATOM     17  C13 UNL     1      28.092  -9.615 -41.833  0.00  0.00    +0.000 A 
ATOM     18  C14 UNL     1      27.759  -9.644 -40.480  0.00  0.00    +0.000 A 
ATOM     19  C15 UNL     1      28.520  -9.667 -39.334  0.00  0.00    +0.000 A 
ENDROOT
BRANCH  15  20
ATOM     20  O5  UNL     1      24.667  -9.585 -43.273  0.00  0.00    +0.000 OA
ATOM     21  H6  UNL     1      24.629 -10.262 -44.026  0.00  0.00    +0.000 HD
ENDBRANCH  15  20
TORSDOF 1
ENDMDL
MODEL 2
REMARK VINA RESULT:    -5.805      2.724      6.599
REMARK INTER + INTRA:          -5.975
REMARK INTER:                  -5.975
REMARK INTRA:                   0.000
REMARK UNBOUND:                 0.000
REMARK  Name = resultss/4CJN/ligands/lig_360_t1.pdb
REMARK  1 active torsions:
REMARK  status: ('A' for Active; 'I' for Inactive)
REMARK    1  A    between atoms: C11_15  and  O5_16
REMARK                            x       y       z     vdW  Elec       q    Type
REMARK                         _______ _______ _______ _____ _____    ______ ____
ROOT
ATOM      1  O1  UNL     1      27.981 -10.387 -36.489  0.00  0.00    +0.000 OA
ATOM      2  C1  UNL     1      27.187  -9.829 -37.290  0.00  0.00    +0.000 A 
ATOM      3  O2  UNL     1      27.405  -9.889 -38.606  0.00  0.00    +0.000 OA
ATOM      4  C2  UNL     1      26.597  -9.316 -39.512  0.00  0.00    +0.000 A 
ATOM      5  C3  UNL     1      26.944  -9.448 -40.973  0.00  0.00    +0.000 C 
ATOM      6  C4  UNL     1      25.965  -8.764 -41.892  0.00  0.00    +0.000 C 
ATOM      7  O3  UNL     1      26.157  -8.812 -43.137  0.00  0.00    +0.000 OA
ATOM      8  C5  UNL     1      24.788  -8.043 -41.376  0.00  0.00    +0.000 C 
ATOM      9  C6  UNL     1      24.544  -7.967 -40.068  0.00  0.00    +0.000 C 
ATOM     10  C7  UNL     1      25.445  -8.604 -39.094  0.00  0.00    +0.000 A 
ATOM     11  C8  UNL     1      25.210  -8.538 -37.724  0.00  0.00    +0.000 A 
ATOM     12  O4  UNL     1      24.215  -7.939 -37.097  0.00  0.00    +0.000 OA
ATOM     13  C9  UNL     1      24.408  -8.141 -35.809  0.00  0.00    +0.000 A 
ATOM     14  C10 UNL     1      23.613  -7.698 -34.754  0.00  0.00    +0.000 A 
ATOM     15  C11 UNL     1      24.008  -8.031 -33.441  0.00  0.00    +0.000 A 
ATOM     16  C12 UNL     1      25.179  -8.794 -33.221  0.00  0.00    +0.000 A 
ATOM     17  C13 UNL     1      25.966  -9.231 -34.302  0.00  0.00    +0.000 A 
ATOM     18  C14 UNL     1      25.548  -8.885 -35.586  0.00  0.00    +0.000 A 
ATOM     19  C15 UNL     1      26.065  -9.140 -36.835  0.00  0.00    +0.000 A 
ENDROOT
BRANCH  15  20
ATOM     20  O5  UNL     1      23.250  -7.612 -32.350  0.00  0.00    +0.000 OA
ATOM     21  H6  UNL     1      22.254  -7.450 -32.430  0.00  0.00    +0.000 HD
ENDBRANCH  15  20
TORSDOF 1
ENDMDL
MODEL 3
REMARK VINA RESULT:    -5.737      1.918      3.508
REMARK INTER + INTRA:          -5.905
REMARK INTER:                  -5.905
REMARK INTRA:                   0.000
REMARK UNBOUND:                 0.000
REMARK  Name = resultss/4CJN/ligands/lig_360_t1.pdb
REMARK  1 active torsions:
REMARK  status: ('A' for Active; 'I' for Inactive)
REMARK    1  A    between atoms: C11_15  and  O5_16
REMARK                            x       y       z     vdW  Elec       q    Type
REMARK                         _______ _______ _______ _____ _____    ______ ____
ROOT
ATOM      1  O1  UNL     1      24.694  -8.148 -40.260  0.00  0.00    +0.000 OA
ATOM      2  C1  UNL     1      25.366  -8.555 -39.277  0.00  0.00    +0.000 A 
ATOM      3  O2  UNL     1      24.898  -8.408 -38.034  0.00  0.00    +0.000 OA
ATOM      4  C2  UNL     1      25.565  -8.820 -36.945  0.00  0.00    +0.000 A 
ATOM      5  C3  UNL     1      24.940  -8.601 -35.592  0.00  0.00    +0.000 C 
ATOM      6  C4  UNL     1      25.781  -9.104 -34.447  0.00  0.00    +0.000 C 
ATOM      7  O3  UNL     1      25.353  -8.973 -33.269  0.00  0.00    +0.000 OA
ATOM      8  C5  UNL     1      27.088  -9.747 -34.667  0.00  0.00    +0.000 C 
ATOM      9  C6  UNL     1      27.580  -9.908 -35.895  0.00  0.00    +0.000 C 
ATOM     10  C7  UNL     1      26.830  -9.447 -37.074  0.00  0.00    +0.000 A 
ATOM     11  C8  UNL     1      27.324  -9.604 -38.366  0.00  0.00    +0.000 A 
ATOM     12  O4  UNL     1      28.464 -10.152 -38.740  0.00  0.00    +0.000 OA
ATOM     13  C9  UNL     1      28.503 -10.078 -40.056  0.00  0.00    +0.000 A 
ATOM     14  C10 UNL     1      29.515 -10.529 -40.900  0.00  0.00    +0.000 A 
ATOM     15  C11 UNL     1      29.349 -10.347 -42.290  0.00  0.00    +0.000 A 
ATOM     16  C12 UNL     1      28.183  -9.725 -42.793  0.00  0.00    +0.000 A 
ATOM     17  C13 UNL     1      27.173  -9.278 -41.920  0.00  0.00    +0.000 A 
ATOM     18  C14 UNL     1      27.368  -9.472 -40.554  0.00  0.00    +0.000 A 
ATOM     19  C15 UNL     1      26.605  -9.167 -39.451  0.00  0.00    +0.000 A 
ENDROOT
BRANCH  15  20
ATOM     20  O5  UNL     1      30.331 -10.778 -43.178  0.00  0.00    +0.000 OA
ATOM     21  H6  UNL     1      31.289 -10.921 -42.880  0.00  0.00    +0.000 HD
ENDBRANCH  15  20
TORSDOF 1
ENDMDL
MODEL 4
REMARK VINA RESULT:    -5.711      3.546      7.702
REMARK INTER + INTRA:          -5.877
REMARK INTER:                  -5.877
REMARK INTRA:                   0.000
REMARK UNBOUND:                 0.000
REMARK  Name = resultss/4CJN/ligands/lig_360_t1.pdb
REMARK  1 active torsions:
REMARK  status: ('A' for Active; 'I' for Inactive)
REMARK    1  A    between atoms: C11_15  and  O5_16
REMARK                            x       y       z     vdW  Elec       q    Type
REMARK                         _______ _______ _______ _____ _____    ______ ____
ROOT
ATOM      1  O1  UNL     1      24.555  -9.262 -39.707  0.00  0.00    +0.000 OA
ATOM      2  C1  UNL     1      24.595  -8.909 -40.915  0.00  0.00    +0.000 A 
ATOM      3  O2  UNL     1      23.515  -8.382 -41.498  0.00  0.00    +0.000 OA
ATOM      4  C2  UNL     1      23.493  -7.987 -42.781  0.00  0.00    +0.000 A 
ATOM      5  C3  UNL     1      22.217  -7.405 -43.333  0.00  0.00    +0.000 C 
ATOM      6  C4  UNL     1      22.314  -6.999 -44.782  0.00  0.00    +0.000 C 
ATOM      7  O3  UNL     1      21.304  -6.499 -45.346  0.00  0.00    +0.000 OA
ATOM      8  C5  UNL     1      23.556  -7.168 -45.555  0.00  0.00    +0.000 C 
ATOM      9  C6  UNL     1      24.649  -7.691 -45.000  0.00  0.00    +0.000 C 
ATOM     10  C7  UNL     1      24.649  -8.117 -43.591  0.00  0.00    +0.000 A 
ATOM     11  C8  UNL     1      25.778  -8.666 -42.989  0.00  0.00    +0.000 A 
ATOM     12  O4  UNL     1      26.961  -8.887 -43.530  0.00  0.00    +0.000 OA
ATOM     13  C9  UNL     1      27.712  -9.417 -42.585  0.00  0.00    +0.000 A 
ATOM     14  C10 UNL     1      29.042  -9.818 -42.686  0.00  0.00    +0.000 A 
ATOM     15  C11 UNL     1      29.659 -10.366 -41.540  0.00  0.00    +0.000 A 
ATOM     16  C12 UNL     1      28.932 -10.494 -40.333  0.00  0.00    +0.000 A 
ATOM     17  C13 UNL     1      27.589 -10.082 -40.255  0.00  0.00    +0.000 A 
ATOM     18  C14 UNL     1      27.010  -9.546 -41.404  0.00  0.00    +0.000 A 
ATOM     19  C15 UNL     1      25.754  -9.056 -41.673  0.00  0.00    +0.000 A 
ENDROOT
BRANCH  15  20
ATOM     20  O5  UNL     1      30.986 -10.783 -41.586  0.00  0.00    +0.000 OA
ATOM     21  H6  UNL     1      31.231 -11.766 -41.615  0.00  0.00    +0.000 HD
ENDBRANCH  15  20
TORSDOF 1
ENDMDL
MODEL 5
REMARK VINA RESULT:    -5.632      2.890      6.152
REMARK INTER + INTRA:          -5.796
REMARK INTER:                  -5.796
REMARK INTRA:                   0.000
REMARK UNBOUND:                 0.000
REMARK  Name = resultss/4CJN/ligands/lig_360_t1.pdb
REMARK  1 active torsions:
REMARK  status: ('A' for Active; 'I' for Inactive)
REMARK    1  A    between atoms: C11_15  and  O5_16
REMARK                            x       y       z     vdW  Elec       q    Type
REMARK                         _______ _______ _______ _____ _____    ______ ____
ROOT
ATOM      1  O1  UNL     1      24.278  -7.505 -38.455  0.00  0.00    +0.000 OA
ATOM      2  C1  UNL     1      25.335  -8.062 -38.059  0.00  0.00    +0.000 A 
ATOM      3  O2  UNL     1      26.349  -8.262 -38.905  0.00  0.00    +0.000 OA
ATOM      4  C2  UNL     1      27.501  -8.850 -38.546  0.00  0.00    +0.000 A 
ATOM      5  C3  UNL     1      28.577  -9.022 -39.587  0.00  0.00    +0.000 C 
ATOM      6  C4  UNL     1      29.822  -9.694 -39.066  0.00  0.00    +0.000 C 
ATOM      7  O3  UNL     1      30.787  -9.888 -39.852  0.00  0.00    +0.000 OA
ATOM      8  C5  UNL     1      29.941 -10.128 -37.663  0.00  0.00    +0.000 C 
ATOM      9  C6  UNL     1      28.946  -9.943 -36.796  0.00  0.00    +0.000 C 
ATOM     10  C7  UNL     1      27.693  -9.295 -37.214  0.00  0.00    +0.000 A 
ATOM     11  C8  UNL     1      26.640  -9.091 -36.327  0.00  0.00    +0.000 A 
ATOM     12  O4  UNL     1      26.579  -9.414 -35.048  0.00  0.00    +0.000 OA
ATOM     13  C9  UNL     1      25.394  -9.029 -34.620  0.00  0.00    +0.000 A 
ATOM     14  C10 UNL     1      24.875  -9.159 -33.334  0.00  0.00    +0.000 A 
ATOM     15  C11 UNL     1      23.572  -8.673 -33.092  0.00  0.00    +0.000 A 
ATOM     16  C12 UNL     1      22.831  -8.072 -34.136  0.00  0.00    +0.000 A 
ATOM     17  C13 UNL     1      23.376  -7.950 -35.427  0.00  0.00    +0.000 A 
ATOM     18  C14 UNL     1      24.664  -8.442 -35.633  0.00  0.00    +0.000 A 
ATOM     19  C15 UNL     1      25.480  -8.484 -36.740  0.00  0.00    +0.000 A 
ENDROOT
BRANCH  15  20
ATOM     20  O5  UNL     1      23.005  -8.779 -31.824  0.00  0.00    +0.000 OA
ATOM     21  H6  UNL     1      22.693  -7.961 -31.314  0.00  0.00    +0.000 HD
ENDBRANCH  15  20
TORSDOF 1
ENDMDL
MODEL 6
REMARK VINA RESULT:    -5.563      1.521      6.864
REMARK INTER + INTRA:          -5.726
REMARK INTER:                  -5.726
REMARK INTRA:                   0.000
REMARK UNBOUND:                 0.000
REMARK  Name = resultss/4CJN/ligands/lig_360_t1.pdb
REMARK  1 active torsions:
REMARK  status: ('A' for Active; 'I' for Inactive)
REMARK    1  A    between atoms: C11_15  and  O5_16
REMARK                            x       y       z     vdW  Elec       q    Type
REMARK                         _______ _______ _______ _____ _____    ______ ____
ROOT
ATOM      1  O1  UNL     1      24.214  -8.095 -36.225  0.00  0.00    +0.000 OA
ATOM      2  C1  UNL     1      24.959  -8.543 -37.135  0.00  0.00    +0.000 A 
ATOM      3  O2  UNL     1      24.525  -8.594 -38.397  0.00  0.00    +0.000 OA
ATOM      4  C2  UNL     1      25.270  -9.060 -39.412  0.00  0.00    +0.000 A 
ATOM      5  C3  UNL     1      24.676  -9.069 -40.797  0.00  0.00    +0.000 C 
ATOM      6  C4  UNL     1      25.606  -9.615 -41.851  0.00  0.00    +0.000 C 
ATOM      7  O3  UNL     1      25.211  -9.668 -43.046  0.00  0.00    +0.000 OA
ATOM      8  C5  UNL     1      26.963 -10.085 -41.522  0.00  0.00    +0.000 C 
ATOM      9  C6  UNL     1      27.422 -10.046 -40.272  0.00  0.00    +0.000 C 
ATOM     10  C7  UNL     1      26.587  -9.530 -39.176  0.00  0.00    +0.000 A 
ATOM     11  C8  UNL     1      27.045  -9.480 -37.863  0.00  0.00    +0.000 A 
ATOM     12  O4  UNL     1      28.222  -9.856 -37.398  0.00  0.00    +0.000 OA
ATOM     13  C9  UNL     1      28.203  -9.624 -36.100  0.00  0.00    +0.000 A 
ATOM     14  C10 UNL     1      29.225  -9.861 -35.183  0.00  0.00    +0.000 A 
ATOM     15  C11 UNL     1      28.990  -9.535 -33.830  0.00  0.00    +0.000 A 
ATOM     16  C12 UNL     1      27.748  -8.983 -33.435  0.00  0.00    +0.000 A 
ATOM     17  C13 UNL     1      26.731  -8.753 -34.380  0.00  0.00    +0.000 A 
ATOM     18  C14 UNL     1      26.995  -9.086 -35.707  0.00  0.00    +0.000 A 
ATOM     19  C15 UNL     1      26.247  -8.995 -36.858  0.00  0.00    +0.000 A 
ENDROOT
BRANCH  15  20
ATOM     20  O5  UNL     1      29.976  -9.752 -32.872  0.00  0.00    +0.000 OA
ATOM     21  H6  UNL     1      30.653  -9.036 -32.638  0.00  0.00    +0.000 HD
ENDBRANCH  15  20
TORSDOF 1
ENDMDL
MODEL 7
REMARK VINA RESULT:    -5.560      3.110      4.631
REMARK INTER + INTRA:          -5.723
REMARK INTER:                  -5.723
REMARK INTRA:                   0.000
REMARK UNBOUND:                 0.000
REMARK  Name = resultss/4CJN/ligands/lig_360_t1.pdb
REMARK  1 active torsions:
REMARK  status: ('A' for Active; 'I' for Inactive)
REMARK    1  A    between atoms: C11_15  and  O5_16
REMARK                            x       y       z     vdW  Elec       q    Type
REMARK                         _______ _______ _______ _____ _____    ______ ____
ROOT
ATOM      1  O1  UNL     1      24.232  -6.806 -39.169  0.00  0.00    +0.000 OA
ATOM      2  C1  UNL     1      24.507  -7.358 -38.073  0.00  0.00    +0.000 A 
ATOM      3  O2  UNL     1      23.846  -7.020 -36.963  0.00  0.00    +0.000 OA
ATOM      4  C2  UNL     1      24.092  -7.570 -35.764  0.00  0.00    +0.000 A 
ATOM      5  C3  UNL     1      23.282  -7.110 -34.579  0.00  0.00    +0.000 C 
ATOM      6  C4  UNL     1      23.649  -7.799 -33.290  0.00  0.00    +0.000 C 
ATOM      7  O3  UNL     1      23.033  -7.491 -32.234  0.00  0.00    +0.000 OA
ATOM      8  C5  UNL     1      24.706  -8.824 -33.230  0.00  0.00    +0.000 C 
ATOM      9  C6  UNL     1      25.382  -9.182 -34.320  0.00  0.00    +0.000 C 
ATOM     10  C7  UNL     1      25.094  -8.564 -35.624  0.00  0.00    +0.000 A 
ATOM     11  C8  UNL     1      25.788  -8.921 -36.776  0.00  0.00    +0.000 A 
ATOM     12  O4  UNL     1      26.754  -9.812 -36.900  0.00  0.00    +0.000 OA
ATOM     13  C9  UNL     1      27.104  -9.810 -38.171  0.00  0.00    +0.000 A 
ATOM     14  C10 UNL     1      28.087 -10.588 -38.780  0.00  0.00    +0.000 A 
ATOM     15  C11 UNL     1      28.299 -10.424 -40.166  0.00  0.00    +0.000 A 
ATOM     16  C12 UNL     1      27.525  -9.494 -40.899  0.00  0.00    +0.000 A 
ATOM     17  C13 UNL     1      26.538  -8.719 -40.263  0.00  0.00    +0.000 A 
ATOM     18  C14 UNL     1      26.355  -8.905 -38.894  0.00  0.00    +0.000 A 
ATOM     19  C15 UNL     1      25.500  -8.330 -37.982  0.00  0.00    +0.000 A 
ENDROOT
BRANCH  15  20
ATOM     20  O5  UNL     1      29.268 -11.176 -40.823  0.00  0.00    +0.000 OA
ATOM     21  H6  UNL     1      29.974 -10.738 -41.404  0.00  0.00    +0.000 HD
ENDBRANCH  15  20
TORSDOF 1
ENDMDL
MODEL 8
REMARK VINA RESULT:    -5.350      0.837      6.122
REMARK INTER + INTRA:          -5.506
REMARK INTER:                  -5.506
REMARK INTRA:                   0.000
REMARK UNBOUND:                 0.000
REMARK  Name = resultss/4CJN/ligands/lig_360_t1.pdb
REMARK  1 active torsions:
REMARK  status: ('A' for Active; 'I' for Inactive)
REMARK    1  A    between atoms: C11_15  and  O5_16
REMARK                            x       y       z     vdW  Elec       q    Type
REMARK                         _______ _______ _______ _____ _____    ______ ____
ROOT
ATOM      1  O1  UNL     1      31.122  -9.640 -39.482  0.00  0.00    +0.000 OA
ATOM      2  C1  UNL     1      29.864  -9.630 -39.514  0.00  0.00    +0.000 A 
ATOM      3  O2  UNL     1      29.220  -9.617 -40.684  0.00  0.00    +0.000 OA
ATOM      4  C2  UNL     1      27.881  -9.606 -40.785  0.00  0.00    +0.000 A 
ATOM      5  C3  UNL     1      27.263  -9.591 -42.160  0.00  0.00    +0.000 C 
ATOM      6  C4  UNL     1      25.756  -9.580 -42.146  0.00  0.00    +0.000 C 
ATOM      7  O3  UNL     1      25.133  -9.568 -43.241  0.00  0.00    +0.000 OA
ATOM      8  C5  UNL     1      24.990  -9.584 -40.887  0.00  0.00    +0.000 C 
ATOM      9  C6  UNL     1      25.606  -9.597 -39.705  0.00  0.00    +0.000 C 
ATOM     10  C7  UNL     1      27.075  -9.609 -39.619  0.00  0.00    +0.000 A 
ATOM     11  C8  UNL     1      27.740  -9.623 -38.397  0.00  0.00    +0.000 A 
ATOM     12  O4  UNL     1      27.215  -9.629 -37.186  0.00  0.00    +0.000 OA
ATOM     13  C9  UNL     1      28.225  -9.642 -36.339  0.00  0.00    +0.000 A 
ATOM     14  C10 UNL     1      28.164  -9.652 -34.948  0.00  0.00    +0.000 A 
ATOM     15  C11 UNL     1      29.379  -9.666 -34.230  0.00  0.00    +0.000 A 
ATOM     16  C12 UNL     1      30.614  -9.671 -34.921  0.00  0.00    +0.000 A 
ATOM     17  C13 UNL     1      30.651  -9.660 -36.328  0.00  0.00    +0.000 A 
ATOM     18  C14 UNL     1      29.433  -9.646 -37.005  0.00  0.00    +0.000 A 
ATOM     19  C15 UNL     1      29.111  -9.634 -38.342  0.00  0.00    +0.000 A 
ENDROOT
BRANCH  15  20
ATOM     20  O5  UNL     1      29.375  -9.677 -32.838  0.00  0.00    +0.000 OA
ATOM     21  H6  UNL     1      29.454  -8.820 -32.302  0.00  0.00    +0.000 HD
ENDBRANCH  15  20
TORSDOF 1
ENDMDL
MODEL 9
REMARK VINA RESULT:    -5.327      3.869      7.775
REMARK INTER + INTRA:          -5.483
REMARK INTER:                  -5.483
REMARK INTRA:                   0.000
REMARK UNBOUND:                 0.000
REMARK  Name = resultss/4CJN/ligands/lig_360_t1.pdb
REMARK  1 active torsions:
REMARK  status: ('A' for Active; 'I' for Inactive)
REMARK    1  A    between atoms: C11_15  and  O5_16
REMARK                            x       y       z     vdW  Elec       q    Type
REMARK                         _______ _______ _______ _____ _____    ______ ____
ROOT
ATOM      1  O1  UNL     1      27.670  -7.157 -45.686  0.00  0.00    +0.000 OA
ATOM      2  C1  UNL     1      26.646  -7.406 -44.999  0.00  0.00    +0.000 A 
ATOM      3  O2  UNL     1      25.447  -6.970 -45.393  0.00  0.00    +0.000 OA
ATOM      4  C2  UNL     1      24.318  -7.201 -44.706  0.00  0.00    +0.000 A 
ATOM      5  C3  UNL     1      23.020  -6.660 -45.248  0.00  0.00    +0.000 C 
ATOM      6  C4  UNL     1      21.823  -6.983 -44.390  0.00  0.00    +0.000 C 
ATOM      7  O3  UNL     1      20.685  -6.579 -44.749  0.00  0.00    +0.000 OA
ATOM      8  C5  UNL     1      21.948  -7.759 -43.144  0.00  0.00    +0.000 C 
ATOM      9  C6  UNL     1      23.130  -8.207 -42.725  0.00  0.00    +0.000 C 
ATOM     10  C7  UNL     1      24.355  -7.941 -43.496  0.00  0.00    +0.000 A 
ATOM     11  C8  UNL     1      25.601  -8.398 -43.079  0.00  0.00    +0.000 A 
ATOM     12  O4  UNL     1      25.889  -9.100 -41.999  0.00  0.00    +0.000 OA
ATOM     13  C9  UNL     1      27.192  -9.301 -42.019  0.00  0.00    +0.000 A 
ATOM     14  C10 UNL     1      27.957  -9.995 -41.084  0.00  0.00    +0.000 A 
ATOM     15  C11 UNL     1      29.348 -10.089 -41.303  0.00  0.00    +0.000 A 
ATOM     16  C12 UNL     1      29.931  -9.493 -42.446  0.00  0.00    +0.000 A 
ATOM     17  C13 UNL     1      29.138  -8.798 -43.378  0.00  0.00    +0.000 A 
ATOM     18  C14 UNL     1      27.769  -8.722 -43.131  0.00  0.00    +0.000 A 
ATOM     19  C15 UNL     1      26.729  -8.137 -43.816  0.00  0.00    +0.000 A 
ENDROOT
BRANCH  15  20
ATOM     20  O5  UNL     1      30.158 -10.770 -40.399  0.00  0.00    +0.000 OA
ATOM     21  H6  UNL     1      31.124 -10.990 -40.615  0.00  0.00    +0.000 HD
ENDBRANCH  15  20
TORSDOF 1
ENDMDL
