MODEL 1
REMARK VINA RESULT:    -5.739      0.000      0.000
REMARK INTER + INTRA:          -6.410
REMARK INTER:                  -6.410
REMARK INTRA:                   0.000
REMARK UNBOUND:                 0.000
REMARK  Name = resultss/4CJN/ligands/lig_318_t0.pdb
REMARK  4 active torsions:
REMARK  status: ('A' for Active; 'I' for Inactive)
REMARK    1  A    between atoms: C3_4  and  O2_5
REMARK    2  A    between atoms: C5_7  and  O3_8
REMARK    3  A    between atoms: C11_15  and  O5_16
REMARK    4  A    between atoms: C12_17  and  O6_18
REMARK                            x       y       z     vdW  Elec       q    Type
REMARK                         _______ _______ _______ _____ _____    ______ ____
ROOT
ATOM      1  O1  UNL     1      24.791  -8.519 -38.158  0.00  0.00    +0.000 OA
ATOM      2  C1  UNL     1      25.401  -8.723 -37.079  0.00  0.00    +0.000 A 
ATOM      3  C2  UNL     1      24.779  -8.407 -35.842  0.00  0.00    +0.000 A 
ATOM      4  C3  UNL     1      23.464  -7.859 -35.712  0.00  0.00    +0.000 A 
ATOM      5  C4  UNL     1      22.902  -7.704 -34.439  0.00  0.00    +0.000 A 
ATOM      6  C5  UNL     1      23.627  -8.009 -33.289  0.00  0.00    +0.000 A 
ATOM      7  C6  UNL     1      24.933  -8.483 -33.402  0.00  0.00    +0.000 A 
ATOM      8  C7  UNL     1      25.508  -8.685 -34.658  0.00  0.00    +0.000 A 
ATOM      9  O4  UNL     1      26.750  -9.140 -34.716  0.00  0.00    +0.000 OA
ATOM     10  C8  UNL     1      27.374  -9.408 -35.853  0.00  0.00    +0.000 A 
ATOM     11  C9  UNL     1      28.701  -9.836 -35.796  0.00  0.00    +0.000 A 
ATOM     12  C10 UNL     1      29.400 -10.118 -36.964  0.00  0.00    +0.000 A 
ATOM     13  C11 UNL     1      28.769 -10.023 -38.203  0.00  0.00    +0.000 A 
ATOM     14  C12 UNL     1      27.418  -9.635 -38.287  0.00  0.00    +0.000 A 
ATOM     15  C13 UNL     1      26.713  -9.263 -37.098  0.00  0.00    +0.000 A 
ENDROOT
BRANCH   4  16
ATOM     16  O2  UNL     1      22.679  -7.432 -36.788  0.00  0.00    +0.000 OA
ATOM     17  H1  UNL     1      21.797  -6.950 -36.705  0.00  0.00    +0.000 HD
ENDBRANCH   4  16
BRANCH   6  18
ATOM     18  O3  UNL     1      23.042  -7.825 -32.038  0.00  0.00    +0.000 OA
ATOM     19  H3  UNL     1      22.668  -8.605 -31.509  0.00  0.00    +0.000 HD
ENDBRANCH   6  18
BRANCH  13  20
ATOM     20  O5  UNL     1      29.502 -10.340 -39.348  0.00  0.00    +0.000 OA
ATOM     21  H7  UNL     1      30.490 -10.561 -39.316  0.00  0.00    +0.000 HD
ENDBRANCH  13  20
BRANCH  14  22
ATOM     22  O6  UNL     1      26.825  -9.667 -39.554  0.00  0.00    +0.000 OA
ATOM     23  H8  UNL     1      27.245  -9.291 -40.392  0.00  0.00    +0.000 HD
ENDBRANCH  14  22
TORSDOF 4
ENDMDL
MODEL 2
REMARK VINA RESULT:    -5.409      6.022      8.479
REMARK INTER + INTRA:          -6.042
REMARK INTER:                  -6.042
REMARK INTRA:                   0.000
REMARK UNBOUND:                 0.000
REMARK  Name = resultss/4CJN/ligands/lig_318_t0.pdb
REMARK  4 active torsions:
REMARK  status: ('A' for Active; 'I' for Inactive)
REMARK    1  A    between atoms: C3_4  and  O2_5
REMARK    2  A    between atoms: C5_7  and  O3_8
REMARK    3  A    between atoms: C11_15  and  O5_16
REMARK    4  A    between atoms: C12_17  and  O6_18
REMARK                            x       y       z     vdW  Elec       q    Type
REMARK                         _______ _______ _______ _____ _____    ______ ____
ROOT
ATOM      1  O1  UNL     1      25.418 -10.359 -41.203  0.00  0.00    +0.000 OA
ATOM      2  C1  UNL     1      26.151  -9.721 -41.998  0.00  0.00    +0.000 A 
ATOM      3  C2  UNL     1      27.564  -9.824 -41.898  0.00  0.00    +0.000 A 
ATOM      4  C3  UNL     1      28.253 -10.627 -40.936  0.00  0.00    +0.000 A 
ATOM      5  C4  UNL     1      29.646 -10.753 -41.010  0.00  0.00    +0.000 A 
ATOM      6  C5  UNL     1      30.383 -10.052 -41.962  0.00  0.00    +0.000 A 
ATOM      7  C6  UNL     1      29.728  -9.216 -42.865  0.00  0.00    +0.000 A 
ATOM      8  C7  UNL     1      28.337  -9.100 -42.842  0.00  0.00    +0.000 A 
ATOM      9  O4  UNL     1      27.758  -8.296 -43.721  0.00  0.00    +0.000 OA
ATOM     10  C8  UNL     1      26.445  -8.147 -43.815  0.00  0.00    +0.000 A 
ATOM     11  C9  UNL     1      25.948  -7.233 -44.746  0.00  0.00    +0.000 A 
ATOM     12  C10 UNL     1      24.578  -7.034 -44.872  0.00  0.00    +0.000 A 
ATOM     13  C11 UNL     1      23.684  -7.779 -44.105  0.00  0.00    +0.000 A 
ATOM     14  C12 UNL     1      24.157  -8.738 -43.188  0.00  0.00    +0.000 A 
ATOM     15  C13 UNL     1      25.566  -8.892 -42.991  0.00  0.00    +0.000 A 
ENDROOT
BRANCH   4  16
ATOM     16  O2  UNL     1      27.629 -11.301 -39.881  0.00  0.00    +0.000 OA
ATOM     17  H1  UNL     1      27.608 -10.984 -38.924  0.00  0.00    +0.000 HD
ENDBRANCH   4  16
BRANCH   6  18
ATOM     18  O3  UNL     1      31.770 -10.188 -41.995  0.00  0.00    +0.000 OA
ATOM     19  H3  UNL     1      32.364  -9.462 -42.378  0.00  0.00    +0.000 HD
ENDBRANCH   6  18
BRANCH  13  20
ATOM     20  O5  UNL     1      22.316  -7.563 -44.283  0.00  0.00    +0.000 OA
ATOM     21  H7  UNL     1      21.614  -8.190 -43.907  0.00  0.00    +0.000 HD
ENDBRANCH  13  20
BRANCH  14  22
ATOM     22  O6  UNL     1      23.199  -9.519 -42.534  0.00  0.00    +0.000 OA
ATOM     23  H8  UNL     1      22.779 -10.352 -42.920  0.00  0.00    +0.000 HD
ENDBRANCH  14  22
TORSDOF 4
ENDMDL
MODEL 3
REMARK VINA RESULT:    -5.317      4.636      6.412
REMARK INTER + INTRA:          -5.939
REMARK INTER:                  -5.939
REMARK INTRA:                   0.000
REMARK UNBOUND:                 0.000
REMARK  Name = resultss/4CJN/ligands/lig_318_t0.pdb
REMARK  4 active torsions:
REMARK  status: ('A' for Active; 'I' for Inactive)
REMARK    1  A    between atoms: C3_4  and  O2_5
REMARK    2  A    between atoms: C5_7  and  O3_8
REMARK    3  A    between atoms: C11_15  and  O5_16
REMARK    4  A    between atoms: C12_17  and  O6_18
REMARK                            x       y       z     vdW  Elec       q    Type
REMARK                         _______ _______ _______ _____ _____    ______ ____
ROOT
ATOM      1  O1  UNL     1      26.990  -9.264 -39.085  0.00  0.00    +0.000 OA
ATOM      2  C1  UNL     1      27.087  -9.276 -40.337  0.00  0.00    +0.000 A 
ATOM      3  C2  UNL     1      25.932  -9.080 -41.140  0.00  0.00    +0.000 A 
ATOM      4  C3  UNL     1      24.616  -8.856 -40.627  0.00  0.00    +0.000 A 
ATOM      5  C4  UNL     1      23.572  -8.550 -41.508  0.00  0.00    +0.000 A 
ATOM      6  C5  UNL     1      23.776  -8.527 -42.886  0.00  0.00    +0.000 A 
ATOM      7  C6  UNL     1      25.041  -8.806 -43.402  0.00  0.00    +0.000 A 
ATOM      8  C7  UNL     1      26.111  -9.077 -42.547  0.00  0.00    +0.000 A 
ATOM      9  O4  UNL     1      27.294  -9.334 -43.082  0.00  0.00    +0.000 OA
ATOM     10  C8  UNL     1      28.383  -9.560 -42.363  0.00  0.00    +0.000 A 
ATOM     11  C9  UNL     1      29.568  -9.870 -43.034  0.00  0.00    +0.000 A 
ATOM     12  C10 UNL     1      30.733 -10.127 -42.321  0.00  0.00    +0.000 A 
ATOM     13  C11 UNL     1      30.744 -10.030 -40.931  0.00  0.00    +0.000 A 
ATOM     14  C12 UNL     1      29.574  -9.677 -40.231  0.00  0.00    +0.000 A 
ATOM     15  C13 UNL     1      28.350  -9.491 -40.949  0.00  0.00    +0.000 A 
ENDROOT
BRANCH   4  16
ATOM     16  O2  UNL     1      24.273  -8.944 -39.273  0.00  0.00    +0.000 OA
ATOM     17  H1  UNL     1      23.610  -8.345 -38.804  0.00  0.00    +0.000 HD
ENDBRANCH   4  16
BRANCH   6  18
ATOM     18  O3  UNL     1      22.710  -8.235 -43.735  0.00  0.00    +0.000 OA
ATOM     19  H3  UNL     1      21.861  -8.787 -43.727  0.00  0.00    +0.000 HD
ENDBRANCH   6  18
BRANCH  13  20
ATOM     20  O5  UNL     1      31.944 -10.271 -40.258  0.00  0.00    +0.000 OA
ATOM     21  H7  UNL     1      32.684 -10.838 -40.654  0.00  0.00    +0.000 HD
ENDBRANCH  13  20
BRANCH  14  22
ATOM     22  O6  UNL     1      29.691  -9.496 -38.849  0.00  0.00    +0.000 OA
ATOM     23  H8  UNL     1      29.672  -8.599 -38.385  0.00  0.00    +0.000 HD
ENDBRANCH  14  22
TORSDOF 4
ENDMDL
MODEL 4
REMARK VINA RESULT:    -5.317      7.613      8.999
REMARK INTER + INTRA:          -5.939
REMARK INTER:                  -5.939
REMARK INTRA:                   0.000
REMARK UNBOUND:                 0.000
REMARK  Name = resultss/4CJN/ligands/lig_318_t0.pdb
REMARK  4 active torsions:
REMARK  status: ('A' for Active; 'I' for Inactive)
REMARK    1  A    between atoms: C3_4  and  O2_5
REMARK    2  A    between atoms: C5_7  and  O3_8
REMARK    3  A    between atoms: C11_15  and  O5_16
REMARK    4  A    between atoms: C12_17  and  O6_18
REMARK                            x       y       z     vdW  Elec       q    Type
REMARK                         _______ _______ _______ _____ _____    ______ ____
ROOT
ATOM      1  O1  UNL     1      22.601  -7.324 -46.124  0.00  0.00    +0.000 OA
ATOM      2  C1  UNL     1      23.585  -7.143 -45.366  0.00  0.00    +0.000 A 
ATOM      3  C2  UNL     1      23.383  -6.950 -43.973  0.00  0.00    +0.000 A 
ATOM      4  C3  UNL     1      22.104  -6.948 -43.332  0.00  0.00    +0.000 A 
ATOM      5  C4  UNL     1      22.030  -6.874 -41.936  0.00  0.00    +0.000 A 
ATOM      6  C5  UNL     1      23.179  -6.731 -41.160  0.00  0.00    +0.000 A 
ATOM      7  C6  UNL     1      24.427  -6.667 -41.779  0.00  0.00    +0.000 A 
ATOM      8  C7  UNL     1      24.536  -6.778 -43.167  0.00  0.00    +0.000 A 
ATOM      9  O4  UNL     1      25.742  -6.715 -43.709  0.00  0.00    +0.000 OA
ATOM     10  C8  UNL     1      25.963  -6.852 -45.008  0.00  0.00    +0.000 A 
ATOM     11  C9  UNL     1      27.271  -6.717 -45.476  0.00  0.00    +0.000 A 
ATOM     12  C10 UNL     1      27.549  -6.840 -46.832  0.00  0.00    +0.000 A 
ATOM     13  C11 UNL     1      26.533  -7.149 -47.734  0.00  0.00    +0.000 A 
ATOM     14  C12 UNL     1      25.211  -7.332 -47.284  0.00  0.00    +0.000 A 
ATOM     15  C13 UNL     1      24.899  -7.126 -45.903  0.00  0.00    +0.000 A 
ENDROOT
BRANCH   4  16
ATOM     16  O2  UNL     1      20.882  -6.994 -44.012  0.00  0.00    +0.000 OA
ATOM     17  H1  UNL     1      20.235  -7.767 -43.987  0.00  0.00    +0.000 HD
ENDBRANCH   4  16
BRANCH   6  18
ATOM     18  O3  UNL     1      23.066  -6.643 -39.774  0.00  0.00    +0.000 OA
ATOM     19  H3  UNL     1      22.219  -6.307 -39.332  0.00  0.00    +0.000 HD
ENDBRANCH   6  18
BRANCH  13  20
ATOM     20  O5  UNL     1      26.862  -7.289 -49.084  0.00  0.00    +0.000 OA
ATOM     21  H7  UNL     1      27.812  -7.451 -49.397  0.00  0.00    +0.000 HD
ENDBRANCH  13  20
BRANCH  14  22
ATOM     22  O6  UNL     1      24.268  -7.744 -48.233  0.00  0.00    +0.000 OA
ATOM     23  H8  UNL     1      24.455  -7.845 -49.219  0.00  0.00    +0.000 HD
ENDBRANCH  14  22
TORSDOF 4
ENDMDL
MODEL 5
REMARK VINA RESULT:    -5.301      1.917      6.128
REMARK INTER + INTRA:          -5.921
REMARK INTER:                  -5.921
REMARK INTRA:                   0.000
REMARK UNBOUND:                 0.000
REMARK  Name = resultss/4CJN/ligands/lig_318_t0.pdb
REMARK  4 active torsions:
REMARK  status: ('A' for Active; 'I' for Inactive)
REMARK    1  A    between atoms: C3_4  and  O2_5
REMARK    2  A    between atoms: C5_7  and  O3_8
REMARK    3  A    between atoms: C11_15  and  O5_16
REMARK    4  A    between atoms: C12_17  and  O6_18
REMARK                            x       y       z     vdW  Elec       q    Type
REMARK                         _______ _______ _______ _____ _____    ______ ____
ROOT
ATOM      1  O1  UNL     1      27.977 -10.385 -36.935  0.00  0.00    +0.000 OA
ATOM      2  C1  UNL     1      27.001  -9.762 -37.420  0.00  0.00    +0.000 A 
ATOM      3  C2  UNL     1      26.908  -9.574 -38.825  0.00  0.00    +0.000 A 
ATOM      4  C3  UNL     1      27.864 -10.055 -39.774  0.00  0.00    +0.000 A 
ATOM      5  C4  UNL     1      27.608  -9.921 -41.143  0.00  0.00    +0.000 A 
ATOM      6  C5  UNL     1      26.468  -9.265 -41.603  0.00  0.00    +0.000 A 
ATOM      7  C6  UNL     1      25.560  -8.735 -40.687  0.00  0.00    +0.000 A 
ATOM      8  C7  UNL     1      25.768  -8.886 -39.314  0.00  0.00    +0.000 A 
ATOM      9  O4  UNL     1      24.877  -8.370 -38.483  0.00  0.00    +0.000 OA
ATOM     10  C8  UNL     1      24.954  -8.493 -37.166  0.00  0.00    +0.000 A 
ATOM     11  C9  UNL     1      23.985  -7.864 -36.383  0.00  0.00    +0.000 A 
ATOM     12  C10 UNL     1      24.032  -7.955 -34.997  0.00  0.00    +0.000 A 
ATOM     13  C11 UNL     1      25.019  -8.716 -34.375  0.00  0.00    +0.000 A 
ATOM     14  C12 UNL     1      25.985  -9.397 -35.142  0.00  0.00    +0.000 A 
ATOM     15  C13 UNL     1      25.995  -9.242 -36.564  0.00  0.00    +0.000 A 
ENDROOT
BRANCH   4  16
ATOM     16  O2  UNL     1      29.084 -10.647 -39.430  0.00  0.00    +0.000 OA
ATOM     17  H1  UNL     1      29.594 -10.469 -38.578  0.00  0.00    +0.000 HD
ENDBRANCH   4  16
BRANCH   6  18
ATOM     18  O3  UNL     1      26.254  -9.135 -42.973  0.00  0.00    +0.000 OA
ATOM     19  H3  UNL     1      25.374  -8.792 -43.342  0.00  0.00    +0.000 HD
ENDBRANCH   6  18
BRANCH  13  20
ATOM     20  O5  UNL     1      25.013  -8.801 -32.981  0.00  0.00    +0.000 OA
ATOM     21  H7  UNL     1      24.773  -9.654 -32.490  0.00  0.00    +0.000 HD
ENDBRANCH  13  20
BRANCH  14  22
ATOM     22  O6  UNL     1      26.876 -10.225 -34.451  0.00  0.00    +0.000 OA
ATOM     23  H8  UNL     1      27.080 -10.151 -33.465  0.00  0.00    +0.000 HD
ENDBRANCH  14  22
TORSDOF 4
ENDMDL
MODEL 6
REMARK VINA RESULT:    -5.236      2.132      4.014
REMARK INTER + INTRA:          -5.848
REMARK INTER:                  -5.848
REMARK INTRA:                   0.000
REMARK UNBOUND:                 0.000
REMARK  Name = resultss/4CJN/ligands/lig_318_t0.pdb
REMARK  4 active torsions:
REMARK  status: ('A' for Active; 'I' for Inactive)
REMARK    1  A    between atoms: C3_4  and  O2_5
REMARK    2  A    between atoms: C5_7  and  O3_8
REMARK    3  A    between atoms: C11_15  and  O5_16
REMARK    4  A    between atoms: C12_17  and  O6_18
REMARK                            x       y       z     vdW  Elec       q    Type
REMARK                         _______ _______ _______ _____ _____    ______ ____
ROOT
ATOM      1  O1  UNL     1      24.574  -8.873 -37.848  0.00  0.00    +0.000 OA
ATOM      2  C1  UNL     1      25.780  -9.195 -37.987  0.00  0.00    +0.000 A 
ATOM      3  C2  UNL     1      26.613  -9.337 -36.846  0.00  0.00    +0.000 A 
ATOM      4  C3  UNL     1      26.181  -9.142 -35.497  0.00  0.00    +0.000 A 
ATOM      5  C4  UNL     1      27.055  -9.431 -34.441  0.00  0.00    +0.000 A 
ATOM      6  C5  UNL     1      28.365  -9.840 -34.683  0.00  0.00    +0.000 A 
ATOM      7  C6  UNL     1      28.817  -9.971 -35.995  0.00  0.00    +0.000 A 
ATOM      8  C7  UNL     1      27.958  -9.727 -37.068  0.00  0.00    +0.000 A 
ATOM      9  O4  UNL     1      28.431  -9.868 -38.297  0.00  0.00    +0.000 OA
ATOM     10  C8  UNL     1      27.692  -9.705 -39.383  0.00  0.00    +0.000 A 
ATOM     11  C9  UNL     1      28.309  -9.829 -40.630  0.00  0.00    +0.000 A 
ATOM     12  C10 UNL     1      27.576  -9.654 -41.797  0.00  0.00    +0.000 A 
ATOM     13  C11 UNL     1      26.206  -9.402 -41.739  0.00  0.00    +0.000 A 
ATOM     14  C12 UNL     1      25.550  -9.314 -40.496  0.00  0.00    +0.000 A 
ATOM     15  C13 UNL     1      26.310  -9.410 -39.287  0.00  0.00    +0.000 A 
ENDROOT
BRANCH   4  16
ATOM     16  O2  UNL     1      24.922  -8.650 -35.136  0.00  0.00    +0.000 OA
ATOM     17  H1  UNL     1      24.447  -7.887 -35.594  0.00  0.00    +0.000 HD
ENDBRANCH   4  16
BRANCH   6  18
ATOM     18  O3  UNL     1      29.212 -10.102 -33.608  0.00  0.00    +0.000 OA
ATOM     19  H3  UNL     1      30.161  -9.748 -33.583  0.00  0.00    +0.000 HD
ENDBRANCH   6  18
BRANCH  13  20
ATOM     20  O5  UNL     1      25.505  -9.259 -42.938  0.00  0.00    +0.000 OA
ATOM     21  H7  UNL     1      25.805  -9.702 -43.798  0.00  0.00    +0.000 HD
ENDBRANCH  13  20
BRANCH  14  22
ATOM     22  O6  UNL     1      24.159  -9.165 -40.521  0.00  0.00    +0.000 OA
ATOM     23  H8  UNL     1      23.531  -9.743 -41.059  0.00  0.00    +0.000 HD
ENDBRANCH  14  22
TORSDOF 4
ENDMDL
MODEL 7
REMARK VINA RESULT:    -5.129      1.320      5.626
REMARK INTER + INTRA:          -5.728
REMARK INTER:                  -5.728
REMARK INTRA:                   0.000
REMARK UNBOUND:                 0.000
REMARK  Name = resultss/4CJN/ligands/lig_318_t0.pdb
REMARK  4 active torsions:
REMARK  status: ('A' for Active; 'I' for Inactive)
REMARK    1  A    between atoms: C3_4  and  O2_5
REMARK    2  A    between atoms: C5_7  and  O3_8
REMARK    3  A    between atoms: C11_15  and  O5_16
REMARK    4  A    between atoms: C12_17  and  O6_18
REMARK                            x       y       z     vdW  Elec       q    Type
REMARK                         _______ _______ _______ _____ _____    ______ ____
ROOT
ATOM      1  O1  UNL     1      24.569  -7.563 -38.317  0.00  0.00    +0.000 OA
ATOM      2  C1  UNL     1      25.368  -8.323 -37.717  0.00  0.00    +0.000 A 
ATOM      3  C2  UNL     1      26.420  -8.953 -38.433  0.00  0.00    +0.000 A 
ATOM      4  C3  UNL     1      26.662  -8.788 -39.833  0.00  0.00    +0.000 A 
ATOM      5  C4  UNL     1      27.803  -9.358 -40.411  0.00  0.00    +0.000 A 
ATOM      6  C5  UNL     1      28.675 -10.144 -39.660  0.00  0.00    +0.000 A 
ATOM      7  C6  UNL     1      28.414 -10.366 -38.308  0.00  0.00    +0.000 A 
ATOM      8  C7  UNL     1      27.306  -9.779 -37.694  0.00  0.00    +0.000 A 
ATOM      9  O4  UNL     1      27.101 -10.015 -36.408  0.00  0.00    +0.000 OA
ATOM     10  C8  UNL     1      26.108  -9.475 -35.719  0.00  0.00    +0.000 A 
ATOM     11  C9  UNL     1      25.958  -9.834 -34.378  0.00  0.00    +0.000 A 
ATOM     12  C10 UNL     1      24.923  -9.303 -33.619  0.00  0.00    +0.000 A 
ATOM     13  C11 UNL     1      24.052  -8.367 -34.173  0.00  0.00    +0.000 A 
ATOM     14  C12 UNL     1      24.205  -7.954 -35.511  0.00  0.00    +0.000 A 
ATOM     15  C13 UNL     1      25.216  -8.556 -36.325  0.00  0.00    +0.000 A 
ENDROOT
BRANCH   4  16
ATOM     16  O2  UNL     1      25.810  -8.099 -40.703  0.00  0.00    +0.000 OA
ATOM     17  H1  UNL     1      25.614  -7.110 -40.658  0.00  0.00    +0.000 HD
ENDBRANCH   4  16
BRANCH   6  18
ATOM     18  O3  UNL     1      29.791 -10.710 -40.272  0.00  0.00    +0.000 OA
ATOM     19  H3  UNL     1      30.571 -11.061 -39.729  0.00  0.00    +0.000 HD
ENDBRANCH   6  18
BRANCH  13  20
ATOM     20  O5  UNL     1      23.042  -7.840 -33.365  0.00  0.00    +0.000 OA
ATOM     21  H7  UNL     1      22.318  -7.231 -33.728  0.00  0.00    +0.000 HD
ENDBRANCH  13  20
BRANCH  14  22
ATOM     22  O6  UNL     1      23.359  -6.934 -35.962  0.00  0.00    +0.000 OA
ATOM     23  H8  UNL     1      23.644  -6.182 -36.571  0.00  0.00    +0.000 HD
ENDBRANCH  14  22
TORSDOF 4
ENDMDL
MODEL 8
REMARK VINA RESULT:    -5.126      1.938      5.321
REMARK INTER + INTRA:          -5.725
REMARK INTER:                  -5.725
REMARK INTRA:                   0.000
REMARK UNBOUND:                 0.000
REMARK  Name = resultss/4CJN/ligands/lig_318_t0.pdb
REMARK  4 active torsions:
REMARK  status: ('A' for Active; 'I' for Inactive)
REMARK    1  A    between atoms: C3_4  and  O2_5
REMARK    2  A    between atoms: C5_7  and  O3_8
REMARK    3  A    between atoms: C11_15  and  O5_16
REMARK    4  A    between atoms: C12_17  and  O6_18
REMARK                            x       y       z     vdW  Elec       q    Type
REMARK                         _______ _______ _______ _____ _____    ______ ____
ROOT
ATOM      1  O1  UNL     1      26.333  -9.194 -37.027  0.00  0.00    +0.000 OA
ATOM      2  C1  UNL     1      26.275  -8.830 -35.827  0.00  0.00    +0.000 A 
ATOM      3  C2  UNL     1      27.389  -9.031 -34.970  0.00  0.00    +0.000 A 
ATOM      4  C3  UNL     1      28.623  -9.632 -35.371  0.00  0.00    +0.000 A 
ATOM      5  C4  UNL     1      29.699  -9.667 -34.477  0.00  0.00    +0.000 A 
ATOM      6  C5  UNL     1      29.570  -9.188 -33.174  0.00  0.00    +0.000 A 
ATOM      7  C6  UNL     1      28.351  -8.658 -32.752  0.00  0.00    +0.000 A 
ATOM      8  C7  UNL     1      27.271  -8.574 -33.633  0.00  0.00    +0.000 A 
ATOM      9  O4  UNL     1      26.135  -8.061 -33.188  0.00  0.00    +0.000 OA
ATOM     10  C8  UNL     1      25.064  -7.895 -33.949  0.00  0.00    +0.000 A 
ATOM     11  C9  UNL     1      23.904  -7.390 -33.361  0.00  0.00    +0.000 A 
ATOM     12  C10 UNL     1      22.752  -7.210 -34.118  0.00  0.00    +0.000 A 
ATOM     13  C11 UNL     1      22.757  -7.486 -35.484  0.00  0.00    +0.000 A 
ATOM     14  C12 UNL     1      23.926  -7.956 -36.113  0.00  0.00    +0.000 A 
ATOM     15  C13 UNL     1      25.093  -8.223 -35.327  0.00  0.00    +0.000 A 
ENDROOT
BRANCH   4  16
ATOM     16  O2  UNL     1      28.840 -10.227 -36.619  0.00  0.00    +0.000 OA
ATOM     17  H1  UNL     1      29.737 -10.305 -37.074  0.00  0.00    +0.000 HD
ENDBRANCH   4  16
BRANCH   6  18
ATOM     18  O3  UNL     1      30.657  -9.254 -32.306  0.00  0.00    +0.000 OA
ATOM     19  H3  UNL     1      31.301 -10.036 -32.323  0.00  0.00    +0.000 HD
ENDBRANCH   6  18
BRANCH  13  20
ATOM     20  O5  UNL     1      21.585  -7.266 -36.210  0.00  0.00    +0.000 OA
ATOM     21  H7  UNL     1      21.528  -7.421 -37.209  0.00  0.00    +0.000 HD
ENDBRANCH  13  20
BRANCH  14  22
ATOM     22  O6  UNL     1      23.883  -8.107 -37.502  0.00  0.00    +0.000 OA
ATOM     23  H8  UNL     1      23.058  -8.360 -38.026  0.00  0.00    +0.000 HD
ENDBRANCH  14  22
TORSDOF 4
ENDMDL
MODEL 9
REMARK VINA RESULT:    -5.011      2.405      6.398
REMARK INTER + INTRA:          -5.597
REMARK INTER:                  -5.597
REMARK INTRA:                   0.000
REMARK UNBOUND:                 0.000
REMARK  Name = resultss/4CJN/ligands/lig_318_t0.pdb
REMARK  4 active torsions:
REMARK  status: ('A' for Active; 'I' for Inactive)
REMARK    1  A    between atoms: C3_4  and  O2_5
REMARK    2  A    between atoms: C5_7  and  O3_8
REMARK    3  A    between atoms: C11_15  and  O5_16
REMARK    4  A    between atoms: C12_17  and  O6_18
REMARK                            x       y       z     vdW  Elec       q    Type
REMARK                         _______ _______ _______ _____ _____    ______ ____
ROOT
ATOM      1  O1  UNL     1      25.093  -8.823 -40.042  0.00  0.00    +0.000 OA
ATOM      2  C1  UNL     1      26.219  -9.190 -39.623  0.00  0.00    +0.000 A 
ATOM      3  C2  UNL     1      27.240  -9.538 -40.546  0.00  0.00    +0.000 A 
ATOM      4  C3  UNL     1      27.096  -9.502 -41.968  0.00  0.00    +0.000 A 
ATOM      5  C4  UNL     1      28.207  -9.745 -42.784  0.00  0.00    +0.000 A 
ATOM      6  C5  UNL     1      29.441 -10.092 -42.235  0.00  0.00    +0.000 A 
ATOM      7  C6  UNL     1      29.578 -10.193 -40.852  0.00  0.00    +0.000 A 
ATOM      8  C7  UNL     1      28.497  -9.918 -40.011  0.00  0.00    +0.000 A 
ATOM      9  O4  UNL     1      28.675 -10.024 -38.703  0.00  0.00    +0.000 OA
ATOM     10  C8  UNL     1      27.732  -9.745 -37.816  0.00  0.00    +0.000 A 
ATOM     11  C9  UNL     1      28.016  -9.941 -36.463  0.00  0.00    +0.000 A 
ATOM     12  C10 UNL     1      27.054  -9.673 -35.497  0.00  0.00    +0.000 A 
ATOM     13  C11 UNL     1      25.811  -9.159 -35.864  0.00  0.00    +0.000 A 
ATOM     14  C12 UNL     1      25.513  -8.912 -37.218  0.00  0.00    +0.000 A 
ATOM     15  C13 UNL     1      26.466  -9.261 -38.227  0.00  0.00    +0.000 A 
ENDROOT
BRANCH   4  16
ATOM     16  O2  UNL     1      25.888  -9.257 -42.631  0.00  0.00    +0.000 OA
ATOM     17  H1  UNL     1      24.979  -9.252 -42.194  0.00  0.00    +0.000 HD
ENDBRANCH   4  16
BRANCH   6  18
ATOM     18  O3  UNL     1      30.521 -10.344 -43.078  0.00  0.00    +0.000 OA
ATOM     19  H3  UNL     1      30.835 -11.288 -43.269  0.00  0.00    +0.000 HD
ENDBRANCH   6  18
BRANCH  13  20
ATOM     20  O5  UNL     1      24.884  -8.881 -34.858  0.00  0.00    +0.000 OA
ATOM     21  H7  UNL     1      23.940  -8.574 -35.059  0.00  0.00    +0.000 HD
ENDBRANCH  13  20
BRANCH  14  22
ATOM     22  O6  UNL     1      24.288  -8.297 -37.497  0.00  0.00    +0.000 OA
ATOM     23  H8  UNL     1      24.187  -7.373 -37.891  0.00  0.00    +0.000 HD
ENDBRANCH  14  22
TORSDOF 4
ENDMDL
