MODEL 1
REMARK VINA RESULT:    -5.595      0.000      0.000
REMARK INTER + INTRA:          -6.687
REMARK INTER:                  -6.577
REMARK INTRA:                  -0.110
REMARK UNBOUND:                -0.110
REMARK  Name = resultss/4CJN/ligands/lig_305_t0.pdb
REMARK  6 active torsions:
REMARK  status: ('A' for Active; 'I' for Inactive)
REMARK    1  A    between atoms: C1_1  and  O1_2
REMARK    2  A    between atoms: O1_2  and  C2_3
REMARK    3  A    between atoms: C4_5  and  O2_6
REMARK    4  A    between atoms: C8_11  and  O4_12
REMARK    5  A    between atoms: C9_13  and  O5_14
REMARK    6  A    between atoms: O5_14  and  C10_15
REMARK                            x       y       z     vdW  Elec       q    Type
REMARK                         _______ _______ _______ _____ _____    ______ ____
ROOT
ATOM      1  C2  UNL     1      28.262  -9.815 -34.712  0.00  0.00    +0.000 A 
ATOM      2  C3  UNL     1      26.942  -9.436 -34.464  0.00  0.00    +0.000 A 
ATOM      3  C4  UNL     1      26.029  -9.252 -35.507  0.00  0.00    +0.000 A 
ATOM      4  C5  UNL     1      26.465  -9.378 -36.858  0.00  0.00    +0.000 A 
ATOM      5  C6  UNL     1      25.664  -9.075 -37.987  0.00  0.00    +0.000 A 
ATOM      6  O3  UNL     1      24.562  -8.487 -37.835  0.00  0.00    +0.000 OA
ATOM      7  C7  UNL     1      26.147  -9.348 -39.290  0.00  0.00    +0.000 A 
ATOM      8  C8  UNL     1      25.373  -9.192 -40.481  0.00  0.00    +0.000 A 
ATOM      9  C9  UNL     1      25.981  -9.341 -41.739  0.00  0.00    +0.000 A 
ATOM     10  C11 UNL     1      27.333  -9.712 -41.823  0.00  0.00    +0.000 A 
ATOM     11  C12 UNL     1      28.073  -9.938 -40.668  0.00  0.00    +0.000 A 
ATOM     12  C13 UNL     1      27.496  -9.755 -39.411  0.00  0.00    +0.000 A 
ATOM     13  O6  UNL     1      28.246  -9.949 -38.335  0.00  0.00    +0.000 OA
ATOM     14  C14 UNL     1      27.799  -9.786 -37.099  0.00  0.00    +0.000 A 
ATOM     15  C15 UNL     1      28.680 -10.006 -36.037  0.00  0.00    +0.000 A 
ENDROOT
BRANCH   1  17
ATOM     16  C1  UNL     1      29.485  -8.974 -32.698  0.00  0.00    +0.000 C 
ATOM     17  O1  UNL     1      29.119 -10.000 -33.616  0.00  0.00    +0.000 OA
ENDBRANCH   1  17
BRANCH   3  18
ATOM     18  O2  UNL     1      24.705  -8.988 -35.142  0.00  0.00    +0.000 OA
ATOM     19  H5  UNL     1      24.385  -8.908 -34.188  0.00  0.00    +0.000 HD
ENDBRANCH   3  18
BRANCH   8  20
ATOM     20  O4  UNL     1      23.999  -8.933 -40.471  0.00  0.00    +0.000 OA
ATOM     21  H6  UNL     1      23.504  -8.470 -41.221  0.00  0.00    +0.000 HD
ENDBRANCH   8  20
BRANCH   9  22
ATOM     22  O5  UNL     1      25.197  -9.132 -42.885  0.00  0.00    +0.000 OA
ATOM     23  C10 UNL     1      25.265  -7.972 -43.710  0.00  0.00    +0.000 C 
ENDBRANCH   9  22
TORSDOF 4
ENDMDL
MODEL 2
REMARK VINA RESULT:    -5.273      4.348      5.660
REMARK INTER + INTRA:          -6.308
REMARK INTER:                  -6.210
REMARK INTRA:                  -0.097
REMARK UNBOUND:                -0.110
REMARK  Name = resultss/4CJN/ligands/lig_305_t0.pdb
REMARK  6 active torsions:
REMARK  status: ('A' for Active; 'I' for Inactive)
REMARK    1  A    between atoms: C1_1  and  O1_2
REMARK    2  A    between atoms: O1_2  and  C2_3
REMARK    3  A    between atoms: C4_5  and  O2_6
REMARK    4  A    between atoms: C8_11  and  O4_12
REMARK    5  A    between atoms: C9_13  and  O5_14
REMARK    6  A    between atoms: O5_14  and  C10_15
REMARK                            x       y       z     vdW  Elec       q    Type
REMARK                         _______ _______ _______ _____ _____    ______ ____
ROOT
ATOM      1  C2  UNL     1      30.274  -9.970 -41.722  0.00  0.00    +0.000 A 
ATOM      2  C3  UNL     1      29.472 -10.733 -40.872  0.00  0.00    +0.000 A 
ATOM      3  C4  UNL     1      28.077 -10.700 -40.963  0.00  0.00    +0.000 A 
ATOM      4  C5  UNL     1      27.450  -9.815 -41.887  0.00  0.00    +0.000 A 
ATOM      5  C6  UNL     1      26.052  -9.598 -41.962  0.00  0.00    +0.000 A 
ATOM      6  O3  UNL     1      25.298 -10.052 -41.063  0.00  0.00    +0.000 OA
ATOM      7  C7  UNL     1      25.515  -8.790 -42.994  0.00  0.00    +0.000 A 
ATOM      8  C8  UNL     1      24.118  -8.610 -43.227  0.00  0.00    +0.000 A 
ATOM      9  C9  UNL     1      23.678  -7.672 -44.177  0.00  0.00    +0.000 A 
ATOM     10  C11 UNL     1      24.616  -6.965 -44.947  0.00  0.00    +0.000 A 
ATOM     11  C12 UNL     1      25.977  -7.191 -44.778  0.00  0.00    +0.000 A 
ATOM     12  C13 UNL     1      26.432  -8.087 -43.811  0.00  0.00    +0.000 A 
ATOM     13  O6  UNL     1      27.739  -8.248 -43.661  0.00  0.00    +0.000 OA
ATOM     14  C14 UNL     1      28.272  -9.062 -42.761  0.00  0.00    +0.000 A 
ATOM     15  C15 UNL     1      29.664  -9.146 -42.679  0.00  0.00    +0.000 A 
ENDROOT
BRANCH   1  17
ATOM     16  C1  UNL     1      32.523 -10.716 -42.522  0.00  0.00    +0.000 C 
ATOM     17  O1  UNL     1      31.667 -10.066 -41.588  0.00  0.00    +0.000 OA
ENDBRANCH   1  17
BRANCH   3  18
ATOM     18  O2  UNL     1      27.375 -11.591 -40.146  0.00  0.00    +0.000 OA
ATOM     19  H5  UNL     1      27.469 -12.596 -40.189  0.00  0.00    +0.000 HD
ENDBRANCH   3  18
BRANCH   8  20
ATOM     20  O4  UNL     1      23.131  -9.358 -42.577  0.00  0.00    +0.000 OA
ATOM     21  H6  UNL     1      22.953 -10.337 -42.752  0.00  0.00    +0.000 HD
ENDBRANCH   8  20
BRANCH   9  22
ATOM     22  O5  UNL     1      22.296  -7.489 -44.341  0.00  0.00    +0.000 OA
ATOM     23  C10 UNL     1      21.699  -6.730 -45.389  0.00  0.00    +0.000 C 
ENDBRANCH   9  22
TORSDOF 4
ENDMDL
MODEL 3
REMARK VINA RESULT:    -5.261      1.844      6.103
REMARK INTER + INTRA:          -6.294
REMARK INTER:                  -6.193
REMARK INTRA:                  -0.101
REMARK UNBOUND:                -0.110
REMARK  Name = resultss/4CJN/ligands/lig_305_t0.pdb
REMARK  6 active torsions:
REMARK  status: ('A' for Active; 'I' for Inactive)
REMARK    1  A    between atoms: C1_1  and  O1_2
REMARK    2  A    between atoms: O1_2  and  C2_3
REMARK    3  A    between atoms: C4_5  and  O2_6
REMARK    4  A    between atoms: C8_11  and  O4_12
REMARK    5  A    between atoms: C9_13  and  O5_14
REMARK    6  A    between atoms: O5_14  and  C10_15
REMARK                            x       y       z     vdW  Elec       q    Type
REMARK                         _______ _______ _______ _____ _____    ______ ____
ROOT
ATOM      1  C2  UNL     1      29.474 -10.293 -42.290  0.00  0.00    +0.000 A 
ATOM      2  C3  UNL     1      28.283  -9.802 -42.824  0.00  0.00    +0.000 A 
ATOM      3  C4  UNL     1      27.238  -9.370 -42.000  0.00  0.00    +0.000 A 
ATOM      4  C5  UNL     1      27.353  -9.502 -40.586  0.00  0.00    +0.000 A 
ATOM      5  C6  UNL     1      26.306  -9.231 -39.671  0.00  0.00    +0.000 A 
ATOM      6  O3  UNL     1      25.138  -9.036 -40.095  0.00  0.00    +0.000 OA
ATOM      7  C7  UNL     1      26.555  -9.275 -38.278  0.00  0.00    +0.000 A 
ATOM      8  C8  UNL     1      25.603  -8.902 -37.281  0.00  0.00    +0.000 A 
ATOM      9  C9  UNL     1      25.885  -9.122 -35.921  0.00  0.00    +0.000 A 
ATOM     10  C11 UNL     1      27.132  -9.644 -35.541  0.00  0.00    +0.000 A 
ATOM     11  C12 UNL     1      28.092  -9.939 -36.503  0.00  0.00    +0.000 A 
ATOM     12  C13 UNL     1      27.814  -9.766 -37.858  0.00  0.00    +0.000 A 
ATOM     13  O6  UNL     1      28.746 -10.091 -38.743  0.00  0.00    +0.000 OA
ATOM     14  C14 UNL     1      28.575  -9.980 -40.052  0.00  0.00    +0.000 A 
ATOM     15  C15 UNL     1      29.620 -10.364 -40.897  0.00  0.00    +0.000 A 
ENDROOT
BRANCH   1  17
ATOM     16  C1  UNL     1      31.317 -11.834 -42.988  0.00  0.00    +0.000 C 
ATOM     17  O1  UNL     1      30.487 -10.691 -43.175  0.00  0.00    +0.000 OA
ENDBRANCH   1  17
BRANCH   3  18
ATOM     18  O2  UNL     1      26.138  -8.787 -42.637  0.00  0.00    +0.000 OA
ATOM     19  H5  UNL     1      25.186  -9.106 -42.532  0.00  0.00    +0.000 HD
ENDBRANCH   3  18
BRANCH   8  20
ATOM     20  O4  UNL     1      24.388  -8.277 -37.579  0.00  0.00    +0.000 OA
ATOM     21  H6  UNL     1      24.306  -7.332 -37.927  0.00  0.00    +0.000 HD
ENDBRANCH   8  20
BRANCH   9  22
ATOM     22  O5  UNL     1      24.902  -8.787 -34.976  0.00  0.00    +0.000 OA
ATOM     23  C10 UNL     1      24.888  -9.245 -33.627  0.00  0.00    +0.000 C 
ENDBRANCH   9  22
TORSDOF 4
ENDMDL
MODEL 4
REMARK VINA RESULT:    -5.258      1.888      3.686
REMARK INTER + INTRA:          -6.291
REMARK INTER:                  -6.176
REMARK INTRA:                  -0.116
REMARK UNBOUND:                -0.110
REMARK  Name = resultss/4CJN/ligands/lig_305_t0.pdb
REMARK  6 active torsions:
REMARK  status: ('A' for Active; 'I' for Inactive)
REMARK    1  A    between atoms: C1_1  and  O1_2
REMARK    2  A    between atoms: O1_2  and  C2_3
REMARK    3  A    between atoms: C4_5  and  O2_6
REMARK    4  A    between atoms: C8_11  and  O4_12
REMARK    5  A    between atoms: C9_13  and  O5_14
REMARK    6  A    between atoms: O5_14  and  C10_15
REMARK                            x       y       z     vdW  Elec       q    Type
REMARK                         _______ _______ _______ _____ _____    ______ ____
ROOT
ATOM      1  C2  UNL     1      23.999  -8.067 -34.961  0.00  0.00    +0.000 A 
ATOM      2  C3  UNL     1      25.098  -8.648 -34.328  0.00  0.00    +0.000 A 
ATOM      3  C4  UNL     1      26.176  -9.156 -35.061  0.00  0.00    +0.000 A 
ATOM      4  C5  UNL     1      26.125  -9.153 -36.485  0.00  0.00    +0.000 A 
ATOM      5  C6  UNL     1      27.092  -9.768 -37.319  0.00  0.00    +0.000 A 
ATOM      6  O3  UNL     1      27.963 -10.525 -36.817  0.00  0.00    +0.000 OA
ATOM      7  C7  UNL     1      27.019  -9.607 -38.724  0.00  0.00    +0.000 A 
ATOM      8  C8  UNL     1      28.008 -10.083 -39.638  0.00  0.00    +0.000 A 
ATOM      9  C9  UNL     1      27.778 -10.012 -41.023  0.00  0.00    +0.000 A 
ATOM     10  C11 UNL     1      26.606  -9.409 -41.507  0.00  0.00    +0.000 A 
ATOM     11  C12 UNL     1      25.673  -8.876 -40.624  0.00  0.00    +0.000 A 
ATOM     12  C13 UNL     1      25.866  -8.975 -39.246  0.00  0.00    +0.000 A 
ATOM     13  O6  UNL     1      24.936  -8.483 -38.439  0.00  0.00    +0.000 OA
ATOM     14  C14 UNL     1      25.017  -8.541 -37.118  0.00  0.00    +0.000 A 
ATOM     15  C15 UNL     1      23.973  -8.002 -36.362  0.00  0.00    +0.000 A 
ENDROOT
BRANCH   1  17
ATOM     16  C1  UNL     1      23.154  -6.899 -32.918  0.00  0.00    +0.000 C 
ATOM     17  O1  UNL     1      22.961  -7.562 -34.163  0.00  0.00    +0.000 OA
ENDBRANCH   1  17
BRANCH   3  18
ATOM     18  O2  UNL     1      27.276  -9.607 -34.325  0.00  0.00    +0.000 OA
ATOM     19  H5  UNL     1      28.173  -9.142 -34.301  0.00  0.00    +0.000 HD
ENDBRANCH   3  18
BRANCH   8  20
ATOM     20  O4  UNL     1      29.244 -10.594 -39.231  0.00  0.00    +0.000 OA
ATOM     21  H6  UNL     1      30.101 -10.496 -39.757  0.00  0.00    +0.000 HD
ENDBRANCH   8  20
BRANCH   9  22
ATOM     22  O5  UNL     1      28.753 -10.536 -41.887  0.00  0.00    +0.000 OA
ATOM     23  C10 UNL     1      29.568  -9.753 -42.755  0.00  0.00    +0.000 C 
ENDBRANCH   9  22
TORSDOF 4
ENDMDL
MODEL 5
REMARK VINA RESULT:    -5.219      2.089      3.993
REMARK INTER + INTRA:          -6.245
REMARK INTER:                  -6.146
REMARK INTRA:                  -0.099
REMARK UNBOUND:                -0.110
REMARK  Name = resultss/4CJN/ligands/lig_305_t0.pdb
REMARK  6 active torsions:
REMARK  status: ('A' for Active; 'I' for Inactive)
REMARK    1  A    between atoms: C1_1  and  O1_2
REMARK    2  A    between atoms: O1_2  and  C2_3
REMARK    3  A    between atoms: C4_5  and  O2_6
REMARK    4  A    between atoms: C8_11  and  O4_12
REMARK    5  A    between atoms: C9_13  and  O5_14
REMARK    6  A    between atoms: O5_14  and  C10_15
REMARK                            x       y       z     vdW  Elec       q    Type
REMARK                         _______ _______ _______ _____ _____    ______ ____
ROOT
ATOM      1  C2  UNL     1      26.448  -9.509 -34.778  0.00  0.00    +0.000 A 
ATOM      2  C3  UNL     1      27.773  -9.607 -34.353  0.00  0.00    +0.000 A 
ATOM      3  C4  UNL     1      28.828  -9.682 -35.268  0.00  0.00    +0.000 A 
ATOM      4  C5  UNL     1      28.549  -9.739 -36.664  0.00  0.00    +0.000 A 
ATOM      5  C6  UNL     1      29.527  -9.959 -37.665  0.00  0.00    +0.000 A 
ATOM      6  O3  UNL     1      30.691 -10.310 -37.339  0.00  0.00    +0.000 OA
ATOM      7  C7  UNL     1      29.170  -9.877 -39.033  0.00  0.00    +0.000 A 
ATOM      8  C8  UNL     1      30.103  -9.963 -40.112  0.00  0.00    +0.000 A 
ATOM      9  C9  UNL     1      29.640 -10.024 -41.438  0.00  0.00    +0.000 A 
ATOM     10  C11 UNL     1      28.265  -9.929 -41.704  0.00  0.00    +0.000 A 
ATOM     11  C12 UNL     1      27.357  -9.770 -40.663  0.00  0.00    +0.000 A 
ATOM     12  C13 UNL     1      27.795  -9.749 -39.339  0.00  0.00    +0.000 A 
ATOM     13  O6  UNL     1      26.893  -9.629 -38.375  0.00  0.00    +0.000 OA
ATOM     14  C14 UNL     1      27.203  -9.615 -37.087  0.00  0.00    +0.000 A 
ATOM     15  C15 UNL     1      26.171  -9.496 -36.153  0.00  0.00    +0.000 A 
ENDROOT
BRANCH   1  17
ATOM     16  C1  UNL     1      24.366  -8.484 -33.846  0.00  0.00    +0.000 C 
ATOM     17  O1  UNL     1      25.440  -9.417 -33.805  0.00  0.00    +0.000 OA
ENDBRANCH   1  17
BRANCH   3  18
ATOM     18  O2  UNL     1      30.121  -9.658 -34.736  0.00  0.00    +0.000 OA
ATOM     19  H5  UNL     1      30.615  -8.814 -34.482  0.00  0.00    +0.000 HD
ENDBRANCH   3  18
BRANCH   8  20
ATOM     20  O4  UNL     1      31.489  -9.950 -39.928  0.00  0.00    +0.000 OA
ATOM     21  H6  UNL     1      32.052 -10.779 -39.800  0.00  0.00    +0.000 HD
ENDBRANCH   8  20
BRANCH   9  22
ATOM     22  O5  UNL     1      30.587 -10.157 -42.466  0.00  0.00    +0.000 OA
ATOM     23  C10 UNL     1      30.981 -11.397 -43.047  0.00  0.00    +0.000 C 
ENDBRANCH   9  22
TORSDOF 4
ENDMDL
MODEL 6
REMARK VINA RESULT:    -5.148      5.142      8.055
REMARK INTER + INTRA:          -6.161
REMARK INTER:                  -6.047
REMARK INTRA:                  -0.114
REMARK UNBOUND:                -0.110
REMARK  Name = resultss/4CJN/ligands/lig_305_t0.pdb
REMARK  6 active torsions:
REMARK  status: ('A' for Active; 'I' for Inactive)
REMARK    1  A    between atoms: C1_1  and  O1_2
REMARK    2  A    between atoms: O1_2  and  C2_3
REMARK    3  A    between atoms: C4_5  and  O2_6
REMARK    4  A    between atoms: C8_11  and  O4_12
REMARK    5  A    between atoms: C9_13  and  O5_14
REMARK    6  A    between atoms: O5_14  and  C10_15
REMARK                            x       y       z     vdW  Elec       q    Type
REMARK                         _______ _______ _______ _____ _____    ______ ____
ROOT
ATOM      1  C2  UNL     1      24.415  -7.334 -33.984  0.00  0.00    +0.000 A 
ATOM      2  C3  UNL     1      24.550  -8.676 -34.339  0.00  0.00    +0.000 A 
ATOM      3  C4  UNL     1      25.750  -9.366 -34.139  0.00  0.00    +0.000 A 
ATOM      4  C5  UNL     1      26.887  -8.672 -33.633  0.00  0.00    +0.000 A 
ATOM      5  C6  UNL     1      28.183  -9.235 -33.526  0.00  0.00    +0.000 A 
ATOM      6  O3  UNL     1      28.432 -10.345 -34.064  0.00  0.00    +0.000 OA
ATOM      7  C7  UNL     1      29.222  -8.505 -32.898  0.00  0.00    +0.000 A 
ATOM      8  C8  UNL     1      30.524  -9.029 -32.634  0.00  0.00    +0.000 A 
ATOM      9  C9  UNL     1      31.536  -8.185 -32.145  0.00  0.00    +0.000 A 
ATOM     10  C11 UNL     1      31.245  -6.843 -31.849  0.00  0.00    +0.000 A 
ATOM     11  C12 UNL     1      29.960  -6.345 -32.033  0.00  0.00    +0.000 A 
ATOM     12  C13 UNL     1      28.954  -7.158 -32.556  0.00  0.00    +0.000 A 
ATOM     13  O6  UNL     1      27.751  -6.635 -32.747  0.00  0.00    +0.000 OA
ATOM     14  C14 UNL     1      26.734  -7.317 -33.253  0.00  0.00    +0.000 A 
ATOM     15  C15 UNL     1      25.511  -6.662 -33.423  0.00  0.00    +0.000 A 
ENDROOT
BRANCH   1  17
ATOM     16  C1  UNL     1      22.191  -7.168 -35.116  0.00  0.00    +0.000 C 
ATOM     17  O1  UNL     1      23.176  -6.710 -34.196  0.00  0.00    +0.000 OA
ENDBRANCH   1  17
BRANCH   3  18
ATOM     18  O2  UNL     1      25.740 -10.735 -34.420  0.00  0.00    +0.000 OA
ATOM     19  H5  UNL     1      25.159 -11.409 -33.942  0.00  0.00    +0.000 HD
ENDBRANCH   3  18
BRANCH   8  20
ATOM     20  O4  UNL     1      30.854 -10.377 -32.800  0.00  0.00    +0.000 OA
ATOM     21  H6  UNL     1      31.748 -10.706 -33.138  0.00  0.00    +0.000 HD
ENDBRANCH   8  20
BRANCH   9  22
ATOM     22  O5  UNL     1      32.815  -8.727 -31.945  0.00  0.00    +0.000 OA
ATOM     23  C10 UNL     1      33.543  -8.653 -30.723  0.00  0.00    +0.000 C 
ENDBRANCH   9  22
TORSDOF 4
ENDMDL
MODEL 7
REMARK VINA RESULT:    -5.065      2.036      6.592
REMARK INTER + INTRA:          -6.064
REMARK INTER:                  -5.955
REMARK INTRA:                  -0.109
REMARK UNBOUND:                -0.110
REMARK  Name = resultss/4CJN/ligands/lig_305_t0.pdb
REMARK  6 active torsions:
REMARK  status: ('A' for Active; 'I' for Inactive)
REMARK    1  A    between atoms: C1_1  and  O1_2
REMARK    2  A    between atoms: O1_2  and  C2_3
REMARK    3  A    between atoms: C4_5  and  O2_6
REMARK    4  A    between atoms: C8_11  and  O4_12
REMARK    5  A    between atoms: C9_13  and  O5_14
REMARK    6  A    between atoms: O5_14  and  C10_15
REMARK                            x       y       z     vdW  Elec       q    Type
REMARK                         _______ _______ _______ _____ _____    ______ ____
ROOT
ATOM      1  C2  UNL     1      27.026  -8.558 -41.988  0.00  0.00    +0.000 A 
ATOM      2  C3  UNL     1      27.721  -9.681 -41.538  0.00  0.00    +0.000 A 
ATOM      3  C4  UNL     1      27.607 -10.126 -40.216  0.00  0.00    +0.000 A 
ATOM      4  C5  UNL     1      26.829  -9.380 -39.285  0.00  0.00    +0.000 A 
ATOM      5  C6  UNL     1      26.762  -9.659 -37.897  0.00  0.00    +0.000 A 
ATOM      6  O3  UNL     1      27.557 -10.488 -37.384  0.00  0.00    +0.000 OA
ATOM      7  C7  UNL     1      25.866  -8.935 -37.072  0.00  0.00    +0.000 A 
ATOM      8  C8  UNL     1      25.637  -9.221 -35.692  0.00  0.00    +0.000 A 
ATOM      9  C9  UNL     1      24.845  -8.357 -34.916  0.00  0.00    +0.000 A 
ATOM     10  C11 UNL     1      24.222  -7.251 -35.517  0.00  0.00    +0.000 A 
ATOM     11  C12 UNL     1      24.380  -7.009 -36.877  0.00  0.00    +0.000 A 
ATOM     12  C13 UNL     1      25.195  -7.833 -37.653  0.00  0.00    +0.000 A 
ATOM     13  O6  UNL     1      25.345  -7.547 -38.939  0.00  0.00    +0.000 OA
ATOM     14  C14 UNL     1      26.109  -8.256 -39.757  0.00  0.00    +0.000 A 
ATOM     15  C15 UNL     1      26.205  -7.858 -41.093  0.00  0.00    +0.000 A 
ENDROOT
BRANCH   1  17
ATOM     16  C1  UNL     1      28.412  -7.831 -43.939  0.00  0.00    +0.000 C 
ATOM     17  O1  UNL     1      27.172  -8.179 -43.332  0.00  0.00    +0.000 OA
ENDBRANCH   1  17
BRANCH   3  18
ATOM     18  O2  UNL     1      28.251 -11.326 -39.902  0.00  0.00    +0.000 OA
ATOM     19  H5  UNL     1      28.454 -12.055 -40.572  0.00  0.00    +0.000 HD
ENDBRANCH   3  18
BRANCH   8  20
ATOM     20  O4  UNL     1      26.133 -10.363 -35.055  0.00  0.00    +0.000 OA
ATOM     21  H6  UNL     1      26.342 -10.417 -34.068  0.00  0.00    +0.000 HD
ENDBRANCH   8  20
BRANCH   9  22
ATOM     22  O5  UNL     1      24.685  -8.647 -33.552  0.00  0.00    +0.000 OA
ATOM     23  C10 UNL     1      23.428  -8.819 -32.904  0.00  0.00    +0.000 C 
ENDBRANCH   9  22
TORSDOF 4
ENDMDL
MODEL 8
REMARK VINA RESULT:    -5.026      2.144      3.671
REMARK INTER + INTRA:          -6.018
REMARK INTER:                  -5.912
REMARK INTRA:                  -0.106
REMARK UNBOUND:                -0.110
REMARK  Name = resultss/4CJN/ligands/lig_305_t0.pdb
REMARK  6 active torsions:
REMARK  status: ('A' for Active; 'I' for Inactive)
REMARK    1  A    between atoms: C1_1  and  O1_2
REMARK    2  A    between atoms: O1_2  and  C2_3
REMARK    3  A    between atoms: C4_5  and  O2_6
REMARK    4  A    between atoms: C8_11  and  O4_12
REMARK    5  A    between atoms: C9_13  and  O5_14
REMARK    6  A    between atoms: O5_14  and  C10_15
REMARK                            x       y       z     vdW  Elec       q    Type
REMARK                         _______ _______ _______ _____ _____    ______ ____
ROOT
ATOM      1  C2  UNL     1      28.303  -9.197 -37.380  0.00  0.00    +0.000 A 
ATOM      2  C3  UNL     1      28.408 -10.377 -38.116  0.00  0.00    +0.000 A 
ATOM      3  C4  UNL     1      27.602 -10.611 -39.236  0.00  0.00    +0.000 A 
ATOM      4  C5  UNL     1      26.598  -9.665 -39.593  0.00  0.00    +0.000 A 
ATOM      5  C6  UNL     1      25.639  -9.867 -40.616  0.00  0.00    +0.000 A 
ATOM      6  O3  UNL     1      25.512 -11.004 -41.141  0.00  0.00    +0.000 OA
ATOM      7  C7  UNL     1      24.759  -8.818 -40.979  0.00  0.00    +0.000 A 
ATOM      8  C8  UNL     1      23.842  -8.882 -42.072  0.00  0.00    +0.000 A 
ATOM      9  C9  UNL     1      22.904  -7.854 -42.264  0.00  0.00    +0.000 A 
ATOM     10  C11 UNL     1      22.915  -6.730 -41.422  0.00  0.00    +0.000 A 
ATOM     11  C12 UNL     1      23.854  -6.627 -40.401  0.00  0.00    +0.000 A 
ATOM     12  C13 UNL     1      24.766  -7.657 -40.171  0.00  0.00    +0.000 A 
ATOM     13  O6  UNL     1      25.622  -7.532 -39.167  0.00  0.00    +0.000 OA
ATOM     14  C14 UNL     1      26.516  -8.459 -38.855  0.00  0.00    +0.000 A 
ATOM     15  C15 UNL     1      27.363  -8.231 -37.767  0.00  0.00    +0.000 A 
ENDROOT
BRANCH   1  17
ATOM     16  C1  UNL     1      28.974  -9.643 -35.013  0.00  0.00    +0.000 C 
ATOM     17  O1  UNL     1      29.156  -9.020 -36.280  0.00  0.00    +0.000 OA
ENDBRANCH   1  17
BRANCH   3  18
ATOM     18  O2  UNL     1      27.870 -11.770 -39.969  0.00  0.00    +0.000 OA
ATOM     19  H5  UNL     1      28.569 -11.834 -40.696  0.00  0.00    +0.000 HD
ENDBRANCH   3  18
BRANCH   8  20
ATOM     20  O4  UNL     1      23.847  -9.915 -43.015  0.00  0.00    +0.000 OA
ATOM     21  H6  UNL     1      23.024 -10.428 -43.298  0.00  0.00    +0.000 HD
ENDBRANCH   8  20
BRANCH   9  22
ATOM     22  O5  UNL     1      21.988  -7.978 -43.321  0.00  0.00    +0.000 OA
ATOM     23  C10 UNL     1      21.769  -6.988 -44.322  0.00  0.00    +0.000 C 
ENDBRANCH   9  22
TORSDOF 4
ENDMDL
MODEL 9
REMARK VINA RESULT:    -4.970      1.687      7.167
REMARK INTER + INTRA:          -5.952
REMARK INTER:                  -5.845
REMARK INTRA:                  -0.108
REMARK UNBOUND:                -0.110
REMARK  Name = resultss/4CJN/ligands/lig_305_t0.pdb
REMARK  6 active torsions:
REMARK  status: ('A' for Active; 'I' for Inactive)
REMARK    1  A    between atoms: C1_1  and  O1_2
REMARK    2  A    between atoms: O1_2  and  C2_3
REMARK    3  A    between atoms: C4_5  and  O2_6
REMARK    4  A    between atoms: C8_11  and  O4_12
REMARK    5  A    between atoms: C9_13  and  O5_14
REMARK    6  A    between atoms: O5_14  and  C10_15
REMARK                            x       y       z     vdW  Elec       q    Type
REMARK                         _______ _______ _______ _____ _____    ______ ____
ROOT
ATOM      1  C2  UNL     1      27.488  -9.792 -41.528  0.00  0.00    +0.000 A 
ATOM      2  C3  UNL     1      28.879  -9.884 -41.595  0.00  0.00    +0.000 A 
ATOM      3  C4  UNL     1      29.661  -9.949 -40.437  0.00  0.00    +0.000 A 
ATOM      4  C5  UNL     1      29.039  -9.842 -39.159  0.00  0.00    +0.000 A 
ATOM      5  C6  UNL     1      29.746  -9.753 -37.933  0.00  0.00    +0.000 A 
ATOM      6  O3  UNL     1      30.991  -9.570 -37.938  0.00  0.00    +0.000 OA
ATOM      7  C7  UNL     1      29.039  -9.772 -36.706  0.00  0.00    +0.000 A 
ATOM      8  C8  UNL     1      29.662  -9.808 -35.422  0.00  0.00    +0.000 A 
ATOM      9  C9  UNL     1      28.884  -9.673 -34.259  0.00  0.00    +0.000 A 
ATOM     10  C11 UNL     1      27.488  -9.572 -34.359  0.00  0.00    +0.000 A 
ATOM     11  C12 UNL     1      26.868  -9.611 -35.603  0.00  0.00    +0.000 A 
ATOM     12  C13 UNL     1      27.626  -9.704 -36.769  0.00  0.00    +0.000 A 
ATOM     13  O6  UNL     1      26.998  -9.705 -37.937  0.00  0.00    +0.000 OA
ATOM     14  C14 UNL     1      27.627  -9.773 -39.100  0.00  0.00    +0.000 A 
ATOM     15  C15 UNL     1      26.865  -9.754 -40.272  0.00  0.00    +0.000 A 
ENDROOT
BRANCH   1  17
ATOM     16  C1  UNL     1      25.394  -9.378 -42.832  0.00  0.00    +0.000 C 
ATOM     17  O1  UNL     1      26.765  -9.751 -42.730  0.00  0.00    +0.000 OA
ENDBRANCH   1  17
BRANCH   3  18
ATOM     18  O2  UNL     1      31.031 -10.159 -40.617  0.00  0.00    +0.000 OA
ATOM     19  H5  UNL     1      31.423 -10.886 -41.198  0.00  0.00    +0.000 HD
ENDBRANCH   3  18
BRANCH   8  20
ATOM     20  O4  UNL     1      31.033 -10.017 -35.243  0.00  0.00    +0.000 OA
ATOM     21  H6  UNL     1      31.503 -10.891 -35.427  0.00  0.00    +0.000 HD
ENDBRANCH   8  20
BRANCH   9  22
ATOM     22  O5  UNL     1      29.541  -9.664 -33.018  0.00  0.00    +0.000 OA
ATOM     23  C10 UNL     1      29.906  -8.486 -32.304  0.00  0.00    +0.000 C 
ENDBRANCH   9  22
TORSDOF 4
ENDMDL
