MODEL 1
REMARK VINA RESULT:    -5.831      0.000      0.000
REMARK INTER + INTRA:          -7.458
REMARK INTER:                  -7.024
REMARK INTRA:                  -0.434
REMARK UNBOUND:                -0.434
REMARK  Name = resultss/4CJN/ligands/lig_379_t0.pdb
REMARK  4 active torsions:
REMARK  status: ('A' for Active; 'I' for Inactive)
REMARK    1  A    between atoms: N1_1  and  S1_2
REMARK    2  A    between atoms: S1_2  and  C1_5
REMARK    3  A    between atoms: C4_8  and  N2_9
REMARK    4  A    between atoms: C8_15  and  C9_16
REMARK                            x       y       z     vdW  Elec       q    Type
REMARK                         _______ _______ _______ _____ _____    ______ ____
ROOT
ATOM      1  N2  UNL     1      27.624 -10.618 -38.390  0.00  0.00    +0.000 NA
ATOM      2  C5  UNL     1      27.543  -9.927 -39.489  0.00  0.00    +0.000 C 
ATOM      3  N3  UNL     1      27.020 -10.512 -40.673  0.00  0.00    +0.000 N 
ATOM      4  C6  UNL     1      26.926  -9.556 -41.712  0.00  0.00    +0.000 C 
ATOM      5  O3  UNL     1      26.399  -9.835 -42.822  0.00  0.00    +0.000 OA
ATOM      6  C7  UNL     1      27.422  -8.227 -41.335  0.00  0.00    +0.000 C 
ATOM      7  C8  UNL     1      27.508  -7.142 -42.119  0.00  0.00    +0.000 C 
ATOM      8  S2  UNL     1      27.890  -8.157 -39.601  0.00  0.00    +0.000 S 
ATOM      9  H5  UNL     1      26.705 -11.504 -40.754  0.00  0.00    +0.000 HD
ENDROOT
BRANCH   7  10
ATOM     10  C9  UNL     1      27.241  -7.124 -43.569  0.00  0.00    +0.000 A 
ATOM     11  C10 UNL     1      28.265  -7.378 -44.499  0.00  0.00    +0.000 A 
ATOM     12  C11 UNL     1      28.004  -7.305 -45.871  0.00  0.00    +0.000 A 
ATOM     13  C12 UNL     1      26.729  -6.956 -46.324  0.00  0.00    +0.000 A 
ATOM     14  F1  UNL     1      26.479  -6.883 -47.655  0.00  0.00    +0.000 F 
ATOM     15  C13 UNL     1      25.715  -6.672 -45.404  0.00  0.00    +0.000 A 
ATOM     16  C14 UNL     1      25.972  -6.744 -44.032  0.00  0.00    +0.000 A 
ENDBRANCH   7  10
BRANCH   1  20
ATOM     17  C1  UNL     1      29.107  -9.350 -34.619  0.00  0.00    +0.000 A 
ATOM     18  C2  UNL     1      30.003  -9.625 -35.661  0.00  0.00    +0.000 A 
ATOM     19  C3  UNL     1      29.525 -10.035 -36.909  0.00  0.00    +0.000 A 
ATOM     20  C4  UNL     1      28.143 -10.157 -37.134  0.00  0.00    +0.000 A 
ATOM     21  C15 UNL     1      27.254  -9.922 -36.078  0.00  0.00    +0.000 A 
ATOM     22  C16 UNL     1      27.731  -9.513 -34.829  0.00  0.00    +0.000 A 
BRANCH  17  23
ATOM     23  S1  UNL     1      29.711  -8.851 -33.043  0.00  0.00    +0.000 S 
ATOM     24  O1  UNL     1      30.833  -7.866 -33.216  0.00  0.00    +0.000 OA
ATOM     25  O2  UNL     1      30.233 -10.048 -32.297  0.00  0.00    +0.000 OA
BRANCH  23  26
ATOM     26  N1  UNL     1      28.431  -8.117 -32.142  0.00  0.00    +0.000 NA
ATOM     27  H1  UNL     1      28.754  -8.050 -31.152  0.00  0.00    +0.000 HD
ATOM     28  H2  UNL     1      28.332  -7.139 -32.495  0.00  0.00    +0.000 HD
ENDBRANCH  23  26
ENDBRANCH  17  23
ENDBRANCH   1  20
TORSDOF 4
ENDMDL
MODEL 2
REMARK VINA RESULT:    -5.529      4.137      4.714
REMARK INTER + INTRA:          -7.094
REMARK INTER:                  -6.651
REMARK INTRA:                  -0.443
REMARK UNBOUND:                -0.434
REMARK  Name = resultss/4CJN/ligands/lig_379_t0.pdb
REMARK  4 active torsions:
REMARK  status: ('A' for Active; 'I' for Inactive)
REMARK    1  A    between atoms: N1_1  and  S1_2
REMARK    2  A    between atoms: S1_2  and  C1_5
REMARK    3  A    between atoms: C4_8  and  N2_9
REMARK    4  A    between atoms: C8_15  and  C9_16
REMARK                            x       y       z     vdW  Elec       q    Type
REMARK                         _______ _______ _______ _____ _____    ______ ____
ROOT
ATOM      1  N2  UNL     1      27.747  -9.191 -39.220  0.00  0.00    +0.000 NA
ATOM      2  C5  UNL     1      28.649  -9.638 -40.044  0.00  0.00    +0.000 C 
ATOM      3  N3  UNL     1      28.327  -9.878 -41.407  0.00  0.00    +0.000 N 
ATOM      4  C6  UNL     1      29.477 -10.258 -42.140  0.00  0.00    +0.000 C 
ATOM      5  O3  UNL     1      29.439 -10.427 -43.388  0.00  0.00    +0.000 OA
ATOM      6  C7  UNL     1      30.691 -10.352 -41.322  0.00  0.00    +0.000 C 
ATOM      7  C8  UNL     1      31.911 -10.737 -41.725  0.00  0.00    +0.000 C 
ATOM      8  S2  UNL     1      30.398  -9.824 -39.629  0.00  0.00    +0.000 S 
ATOM      9  H5  UNL     1      27.379  -9.749 -41.823  0.00  0.00    +0.000 HD
ENDROOT
BRANCH   7  10
ATOM     10  C9  UNL     1      32.229 -11.277 -43.060  0.00  0.00    +0.000 A 
ATOM     11  C10 UNL     1      32.012 -12.632 -43.365  0.00  0.00    +0.000 A 
ATOM     12  C11 UNL     1      32.368 -13.137 -44.620  0.00  0.00    +0.000 A 
ATOM     13  C12 UNL     1      32.964 -12.301 -45.568  0.00  0.00    +0.000 A 
ATOM     14  F1  UNL     1      33.312 -12.792 -46.783  0.00  0.00    +0.000 F 
ATOM     15  C13 UNL     1      33.211 -10.960 -45.259  0.00  0.00    +0.000 A 
ATOM     16  C14 UNL     1      32.856 -10.451 -44.005  0.00  0.00    +0.000 A 
ENDBRANCH   7  10
BRANCH   1  20
ATOM     17  C1  UNL     1      28.390  -8.477 -35.085  0.00  0.00    +0.000 A 
ATOM     18  C2  UNL     1      28.493  -7.418 -35.997  0.00  0.00    +0.000 A 
ATOM     19  C3  UNL     1      28.275  -7.640 -37.360  0.00  0.00    +0.000 A 
ATOM     20  C4  UNL     1      27.933  -8.922 -37.823  0.00  0.00    +0.000 A 
ATOM     21  C15 UNL     1      27.873  -9.986 -36.914  0.00  0.00    +0.000 A 
ATOM     22  C16 UNL     1      28.092  -9.765 -35.551  0.00  0.00    +0.000 A 
BRANCH  17  23
ATOM     23  S1  UNL     1      28.683  -8.200 -33.371  0.00  0.00    +0.000 S 
ATOM     24  O1  UNL     1      27.374  -8.065 -32.647  0.00  0.00    +0.000 OA
ATOM     25  O2  UNL     1      29.467  -6.929 -33.190  0.00  0.00    +0.000 OA
BRANCH  23  26
ATOM     26  N1  UNL     1      29.572  -9.530 -32.717  0.00  0.00    +0.000 NA
ATOM     27  H1  UNL     1      28.885 -10.142 -32.224  0.00  0.00    +0.000 HD
ATOM     28  H2  UNL     1      29.939 -10.078 -33.526  0.00  0.00    +0.000 HD
ENDBRANCH  23  26
ENDBRANCH  17  23
ENDBRANCH   1  20
TORSDOF 4
ENDMDL
MODEL 3
REMARK VINA RESULT:    -5.426      2.295      2.750
REMARK INTER + INTRA:          -6.971
REMARK INTER:                  -6.647
REMARK INTRA:                  -0.324
REMARK UNBOUND:                -0.434
REMARK  Name = resultss/4CJN/ligands/lig_379_t0.pdb
REMARK  4 active torsions:
REMARK  status: ('A' for Active; 'I' for Inactive)
REMARK    1  A    between atoms: N1_1  and  S1_2
REMARK    2  A    between atoms: S1_2  and  C1_5
REMARK    3  A    between atoms: C4_8  and  N2_9
REMARK    4  A    between atoms: C8_15  and  C9_16
REMARK                            x       y       z     vdW  Elec       q    Type
REMARK                         _______ _______ _______ _____ _____    ______ ____
ROOT
ATOM      1  N2  UNL     1      27.705 -10.758 -39.023  0.00  0.00    +0.000 NA
ATOM      2  C5  UNL     1      26.913 -10.044 -39.768  0.00  0.00    +0.000 C 
ATOM      3  N3  UNL     1      26.344 -10.591 -40.949  0.00  0.00    +0.000 N 
ATOM      4  C6  UNL     1      25.437  -9.682 -41.543  0.00  0.00    +0.000 C 
ATOM      5  O3  UNL     1      24.747  -9.999 -42.549  0.00  0.00    +0.000 OA
ATOM      6  C7  UNL     1      25.338  -8.402 -40.833  0.00  0.00    +0.000 C 
ATOM      7  C8  UNL     1      24.607  -7.334 -41.186  0.00  0.00    +0.000 C 
ATOM      8  S2  UNL     1      26.307  -8.401 -39.319  0.00  0.00    +0.000 S 
ATOM      9  H5  UNL     1      26.535 -11.552 -41.307  0.00  0.00    +0.000 HD
ENDROOT
BRANCH   7  10
ATOM     10  C9  UNL     1      23.860  -7.202 -42.450  0.00  0.00    +0.000 A 
ATOM     11  C10 UNL     1      24.499  -6.786 -43.631  0.00  0.00    +0.000 A 
ATOM     12  C11 UNL     1      23.764  -6.616 -44.808  0.00  0.00    +0.000 A 
ATOM     13  C12 UNL     1      22.384  -6.838 -44.810  0.00  0.00    +0.000 A 
ATOM     14  F1  UNL     1      21.671  -6.671 -45.952  0.00  0.00    +0.000 F 
ATOM     15  C13 UNL     1      21.737  -7.222 -43.632  0.00  0.00    +0.000 A 
ATOM     16  C14 UNL     1      22.469  -7.393 -42.452  0.00  0.00    +0.000 A 
ENDBRANCH   7  10
BRANCH   1  20
ATOM     17  C1  UNL     1      29.593  -9.583 -35.406  0.00  0.00    +0.000 A 
ATOM     18  C2  UNL     1      30.354  -9.713 -36.576  0.00  0.00    +0.000 A 
ATOM     19  C3  UNL     1      29.741 -10.091 -37.774  0.00  0.00    +0.000 A 
ATOM     20  C4  UNL     1      28.356 -10.325 -37.819  0.00  0.00    +0.000 A 
ATOM     21  C15 UNL     1      27.608 -10.236 -36.639  0.00  0.00    +0.000 A 
ATOM     22  C16 UNL     1      28.220  -9.858 -35.440  0.00  0.00    +0.000 A 
BRANCH  17  23
ATOM     23  S1  UNL     1      30.369  -9.124 -33.894  0.00  0.00    +0.000 S 
ATOM     24  O1  UNL     1      29.484  -9.489 -32.736  0.00  0.00    +0.000 OA
ATOM     25  O2  UNL     1      30.602  -7.639 -33.873  0.00  0.00    +0.000 OA
BRANCH  23  26
ATOM     26  N1  UNL     1      31.880  -9.952 -33.749  0.00  0.00    +0.000 NA
ATOM     27  H1  UNL     1      32.562  -9.273 -33.345  0.00  0.00    +0.000 HD
ATOM     28  H2  UNL     1      31.747 -10.707 -33.040  0.00  0.00    +0.000 HD
ENDBRANCH  23  26
ENDBRANCH  17  23
ENDBRANCH   1  20
TORSDOF 4
ENDMDL
MODEL 4
REMARK VINA RESULT:    -5.406      3.211      4.233
REMARK INTER + INTRA:          -6.946
REMARK INTER:                  -6.622
REMARK INTRA:                  -0.324
REMARK UNBOUND:                -0.434
REMARK  Name = resultss/4CJN/ligands/lig_379_t0.pdb
REMARK  4 active torsions:
REMARK  status: ('A' for Active; 'I' for Inactive)
REMARK    1  A    between atoms: N1_1  and  S1_2
REMARK    2  A    between atoms: S1_2  and  C1_5
REMARK    3  A    between atoms: C4_8  and  N2_9
REMARK    4  A    between atoms: C8_15  and  C9_16
REMARK                            x       y       z     vdW  Elec       q    Type
REMARK                         _______ _______ _______ _____ _____    ______ ____
ROOT
ATOM      1  N2  UNL     1      29.677  -7.937 -35.170  0.00  0.00    +0.000 NA
ATOM      2  C5  UNL     1      29.198  -8.339 -36.311  0.00  0.00    +0.000 C 
ATOM      3  N3  UNL     1      28.352  -7.493 -37.077  0.00  0.00    +0.000 N 
ATOM      4  C6  UNL     1      28.036  -8.085 -38.323  0.00  0.00    +0.000 C 
ATOM      5  O3  UNL     1      27.375  -7.468 -39.200  0.00  0.00    +0.000 OA
ATOM      6  C7  UNL     1      28.613  -9.422 -38.501  0.00  0.00    +0.000 C 
ATOM      7  C8  UNL     1      28.445 -10.245 -39.547  0.00  0.00    +0.000 C 
ATOM      8  S2  UNL     1      29.678  -9.879 -37.126  0.00  0.00    +0.000 S 
ATOM      9  H5  UNL     1      28.040  -6.542 -36.781  0.00  0.00    +0.000 HD
ENDROOT
BRANCH   7  10
ATOM     10  C9  UNL     1      27.521 -10.003 -40.671  0.00  0.00    +0.000 A 
ATOM     11  C10 UNL     1      27.984  -9.477 -41.890  0.00  0.00    +0.000 A 
ATOM     12  C11 UNL     1      27.084  -9.206 -42.926  0.00  0.00    +0.000 A 
ATOM     13  C12 UNL     1      25.717  -9.436 -42.746  0.00  0.00    +0.000 A 
ATOM     14  F1  UNL     1      24.846  -9.170 -43.751  0.00  0.00    +0.000 F 
ATOM     15  C13 UNL     1      25.248  -9.930 -41.525  0.00  0.00    +0.000 A 
ATOM     16  C14 UNL     1      26.144 -10.202 -40.486  0.00  0.00    +0.000 A 
ENDBRANCH   7  10
BRANCH   1  20
ATOM     17  C1  UNL     1      32.128 -10.275 -32.610  0.00  0.00    +0.000 A 
ATOM     18  C2  UNL     1      32.715  -9.521 -33.635  0.00  0.00    +0.000 A 
ATOM     19  C3  UNL     1      31.918  -8.741 -34.479  0.00  0.00    +0.000 A 
ATOM     20  C4  UNL     1      30.526  -8.693 -34.294  0.00  0.00    +0.000 A 
ATOM     21  C15 UNL     1      29.940  -9.481 -33.295  0.00  0.00    +0.000 A 
ATOM     22  C16 UNL     1      30.736 -10.261 -32.452  0.00  0.00    +0.000 A 
BRANCH  17  23
ATOM     23  S1  UNL     1      33.131 -11.270 -31.561  0.00  0.00    +0.000 S 
ATOM     24  O1  UNL     1      34.272 -10.454 -31.023  0.00  0.00    +0.000 OA
ATOM     25  O2  UNL     1      33.692 -12.426 -32.342  0.00  0.00    +0.000 OA
BRANCH  23  26
ATOM     26  N1  UNL     1      32.177 -11.864 -30.248  0.00  0.00    +0.000 NA
ATOM     27  H1  UNL     1      31.225 -11.448 -30.350  0.00  0.00    +0.000 HD
ATOM     28  H2  UNL     1      32.073 -12.894 -30.388  0.00  0.00    +0.000 HD
ENDBRANCH  23  26
ENDBRANCH  17  23
ENDBRANCH   1  20
TORSDOF 4
ENDMDL
MODEL 5
REMARK VINA RESULT:    -4.626      2.786      3.358
REMARK INTER + INTRA:          -6.007
REMARK INTER:                  -5.624
REMARK INTRA:                  -0.382
REMARK UNBOUND:                -0.434
REMARK  Name = resultss/4CJN/ligands/lig_379_t0.pdb
REMARK  4 active torsions:
REMARK  status: ('A' for Active; 'I' for Inactive)
REMARK    1  A    between atoms: N1_1  and  S1_2
REMARK    2  A    between atoms: S1_2  and  C1_5
REMARK    3  A    between atoms: C4_8  and  N2_9
REMARK    4  A    between atoms: C8_15  and  C9_16
REMARK                            x       y       z     vdW  Elec       q    Type
REMARK                         _______ _______ _______ _____ _____    ______ ____
ROOT
ATOM      1  N2  UNL     1      24.903  -9.217 -38.113  0.00  0.00    +0.000 NA
ATOM      2  C5  UNL     1      24.782  -8.671 -39.288  0.00  0.00    +0.000 C 
ATOM      3  N3  UNL     1      24.236  -9.407 -40.374  0.00  0.00    +0.000 N 
ATOM      4  C6  UNL     1      24.101  -8.591 -41.522  0.00  0.00    +0.000 C 
ATOM      5  O3  UNL     1      23.548  -9.015 -42.572  0.00  0.00    +0.000 OA
ATOM      6  C7  UNL     1      24.587  -7.220 -41.330  0.00  0.00    +0.000 C 
ATOM      7  C8  UNL     1      24.636  -6.242 -42.247  0.00  0.00    +0.000 C 
ATOM      8  S2  UNL     1      25.100  -6.926 -39.633  0.00  0.00    +0.000 S 
ATOM      9  H5  UNL     1      23.934 -10.404 -40.320  0.00  0.00    +0.000 HD
ENDROOT
BRANCH   7  10
ATOM     10  C9  UNL     1      24.330  -6.411 -43.679  0.00  0.00    +0.000 A 
ATOM     11  C10 UNL     1      23.019  -6.258 -44.164  0.00  0.00    +0.000 A 
ATOM     12  C11 UNL     1      22.739  -6.473 -45.517  0.00  0.00    +0.000 A 
ATOM     13  C12 UNL     1      23.759  -6.865 -46.390  0.00  0.00    +0.000 A 
ATOM     14  F1  UNL     1      23.485  -7.076 -47.701  0.00  0.00    +0.000 F 
ATOM     15  C13 UNL     1      25.058  -7.049 -45.907  0.00  0.00    +0.000 A 
ATOM     16  C14 UNL     1      25.342  -6.835 -44.555  0.00  0.00    +0.000 A 
ENDBRANCH   7  10
BRANCH   1  20
ATOM     17  C1  UNL     1      26.455  -7.456 -34.576  0.00  0.00    +0.000 A 
ATOM     18  C2  UNL     1      27.333  -7.990 -35.528  0.00  0.00    +0.000 A 
ATOM     19  C3  UNL     1      26.833  -8.565 -36.701  0.00  0.00    +0.000 A 
ATOM     20  C4  UNL     1      25.449  -8.594 -36.941  0.00  0.00    +0.000 A 
ATOM     21  C15 UNL     1      24.574  -8.097 -35.967  0.00  0.00    +0.000 A 
ATOM     22  C16 UNL     1      25.073  -7.523 -34.794  0.00  0.00    +0.000 A 
BRANCH  17  23
ATOM     23  S1  UNL     1      27.085  -6.749 -33.092  0.00  0.00    +0.000 S 
ATOM     24  O1  UNL     1      26.035  -5.883 -32.454  0.00  0.00    +0.000 OA
ATOM     25  O2  UNL     1      28.285  -5.898 -33.405  0.00  0.00    +0.000 OA
BRANCH  23  26
ATOM     26  N1  UNL     1      27.535  -8.010 -32.000  0.00  0.00    +0.000 NA
ATOM     27  H1  UNL     1      28.468  -7.755 -31.606  0.00  0.00    +0.000 HD
ATOM     28  H2  UNL     1      26.855  -7.985 -31.208  0.00  0.00    +0.000 HD
ENDBRANCH  23  26
ENDBRANCH  17  23
ENDBRANCH   1  20
TORSDOF 4
ENDMDL
MODEL 6
REMARK VINA RESULT:    -3.848      2.464      3.507
REMARK INTER + INTRA:          -5.070
REMARK INTER:                  -4.757
REMARK INTRA:                  -0.313
REMARK UNBOUND:                -0.434
REMARK  Name = resultss/4CJN/ligands/lig_379_t0.pdb
REMARK  4 active torsions:
REMARK  status: ('A' for Active; 'I' for Inactive)
REMARK    1  A    between atoms: N1_1  and  S1_2
REMARK    2  A    between atoms: S1_2  and  C1_5
REMARK    3  A    between atoms: C4_8  and  N2_9
REMARK    4  A    between atoms: C8_15  and  C9_16
REMARK                            x       y       z     vdW  Elec       q    Type
REMARK                         _______ _______ _______ _____ _____    ______ ____
ROOT
ATOM      1  N2  UNL     1      28.624  -9.921 -35.402  0.00  0.00    +0.000 NA
ATOM      2  C5  UNL     1      28.357  -9.423 -36.573  0.00  0.00    +0.000 C 
ATOM      3  N3  UNL     1      27.365 -10.014 -37.401  0.00  0.00    +0.000 N 
ATOM      4  C6  UNL     1      27.166  -9.253 -38.577  0.00  0.00    +0.000 C 
ATOM      5  O3  UNL     1      26.264  -9.544 -39.408  0.00  0.00    +0.000 OA
ATOM      6  C7  UNL     1      28.045  -8.083 -38.676  0.00  0.00    +0.000 C 
ATOM      7  C8  UNL     1      28.123  -7.211 -39.692  0.00  0.00    +0.000 C 
ATOM      8  S2  UNL     1      29.045  -7.872 -37.196  0.00  0.00    +0.000 S 
ATOM      9  H5  UNL     1      26.823 -10.872 -37.155  0.00  0.00    +0.000 HD
ENDROOT
BRANCH   7  10
ATOM     10  C9  UNL     1      27.419  -7.351 -40.981  0.00  0.00    +0.000 A 
ATOM     11  C10 UNL     1      26.174  -6.735 -41.198  0.00  0.00    +0.000 A 
ATOM     12  C11 UNL     1      25.498  -6.923 -42.408  0.00  0.00    +0.000 A 
ATOM     13  C12 UNL     1      26.047  -7.743 -43.398  0.00  0.00    +0.000 A 
ATOM     14  F1  UNL     1      25.388  -7.926 -44.569  0.00  0.00    +0.000 F 
ATOM     15  C13 UNL     1      27.269  -8.384 -43.174  0.00  0.00    +0.000 A 
ATOM     16  C14 UNL     1      27.949  -8.199 -41.966  0.00  0.00    +0.000 A 
ENDBRANCH   7  10
BRANCH   1  20
ATOM     17  C1  UNL     1      31.583  -8.412 -32.757  0.00  0.00    +0.000 A 
ATOM     18  C2  UNL     1      30.227  -8.187 -32.484  0.00  0.00    +0.000 A 
ATOM     19  C3  UNL     1      29.244  -8.686 -33.343  0.00  0.00    +0.000 A 
ATOM     20  C4  UNL     1      29.607  -9.433 -34.477  0.00  0.00    +0.000 A 
ATOM     21  C15 UNL     1      30.964  -9.620 -34.769  0.00  0.00    +0.000 A 
ATOM     22  C16 UNL     1      31.948  -9.120 -33.910  0.00  0.00    +0.000 A 
BRANCH  17  23
ATOM     23  S1  UNL     1      32.820  -7.767 -31.684  0.00  0.00    +0.000 S 
ATOM     24  O1  UNL     1      32.305  -6.534 -30.997  0.00  0.00    +0.000 OA
ATOM     25  O2  UNL     1      34.042  -7.401 -32.480  0.00  0.00    +0.000 OA
BRANCH  23  26
ATOM     26  N1  UNL     1      33.232  -8.958 -30.501  0.00  0.00    +0.000 NA
ATOM     27  H1  UNL     1      33.807  -9.683 -30.985  0.00  0.00    +0.000 HD
ATOM     28  H2  UNL     1      33.857  -8.493 -29.805  0.00  0.00    +0.000 HD
ENDBRANCH  23  26
ENDBRANCH  17  23
ENDBRANCH   1  20
TORSDOF 4
ENDMDL
MODEL 7
REMARK VINA RESULT:    -3.657      2.416      3.022
REMARK INTER + INTRA:          -4.839
REMARK INTER:                  -4.490
REMARK INTRA:                  -0.349
REMARK UNBOUND:                -0.434
REMARK  Name = resultss/4CJN/ligands/lig_379_t0.pdb
REMARK  4 active torsions:
REMARK  status: ('A' for Active; 'I' for Inactive)
REMARK    1  A    between atoms: N1_1  and  S1_2
REMARK    2  A    between atoms: S1_2  and  C1_5
REMARK    3  A    between atoms: C4_8  and  N2_9
REMARK    4  A    between atoms: C8_15  and  C9_16
REMARK                            x       y       z     vdW  Elec       q    Type
REMARK                         _______ _______ _______ _____ _____    ______ ____
ROOT
ATOM      1  N2  UNL     1      29.827  -9.502 -38.861  0.00  0.00    +0.000 NA
ATOM      2  C5  UNL     1      28.742  -9.080 -39.442  0.00  0.00    +0.000 C 
ATOM      3  N3  UNL     1      28.419  -9.499 -40.761  0.00  0.00    +0.000 N 
ATOM      4  C6  UNL     1      27.152  -9.007 -41.153  0.00  0.00    +0.000 C 
ATOM      5  O3  UNL     1      26.626  -9.336 -42.250  0.00  0.00    +0.000 OA
ATOM      6  C7  UNL     1      26.509  -8.163 -40.140  0.00  0.00    +0.000 C 
ATOM      7  C8  UNL     1      25.338  -7.518 -40.246  0.00  0.00    +0.000 C 
ATOM      8  S2  UNL     1      27.465  -8.102 -38.618  0.00  0.00    +0.000 S 
ATOM      9  H5  UNL     1      29.016 -10.124 -41.346  0.00  0.00    +0.000 HD
ENDROOT
BRANCH   7  10
ATOM     10  C9  UNL     1      24.532  -7.429 -41.478  0.00  0.00    +0.000 A 
ATOM     11  C10 UNL     1      23.450  -8.299 -41.702  0.00  0.00    +0.000 A 
ATOM     12  C11 UNL     1      22.730  -8.233 -42.899  0.00  0.00    +0.000 A 
ATOM     13  C12 UNL     1      23.099  -7.318 -43.889  0.00  0.00    +0.000 A 
ATOM     14  F1  UNL     1      22.402  -7.257 -45.051  0.00  0.00    +0.000 F 
ATOM     15  C13 UNL     1      24.193  -6.472 -43.685  0.00  0.00    +0.000 A 
ATOM     16  C14 UNL     1      24.916  -6.534 -42.489  0.00  0.00    +0.000 A 
ENDBRANCH   7  10
BRANCH   1  20
ATOM     17  C1  UNL     1      31.109  -8.338 -34.984  0.00  0.00    +0.000 A 
ATOM     18  C2  UNL     1      30.264  -9.446 -35.133  0.00  0.00    +0.000 A 
ATOM     19  C3  UNL     1      29.842  -9.843 -36.405  0.00  0.00    +0.000 A 
ATOM     20  C4  UNL     1      30.277  -9.146 -37.545  0.00  0.00    +0.000 A 
ATOM     21  C15 UNL     1      31.087  -8.014 -37.389  0.00  0.00    +0.000 A 
ATOM     22  C16 UNL     1      31.508  -7.616 -36.117  0.00  0.00    +0.000 A 
BRANCH  17  23
ATOM     23  S1  UNL     1      31.624  -7.828 -33.380  0.00  0.00    +0.000 S 
ATOM     24  O1  UNL     1      32.328  -6.504 -33.468  0.00  0.00    +0.000 OA
ATOM     25  O2  UNL     1      32.575  -8.842 -32.807  0.00  0.00    +0.000 OA
BRANCH  23  26
ATOM     26  N1  UNL     1      30.242  -7.681 -32.353  0.00  0.00    +0.000 NA
ATOM     27  H1  UNL     1      30.509  -7.040 -31.573  0.00  0.00    +0.000 HD
ATOM     28  H2  UNL     1      29.502  -7.194 -32.905  0.00  0.00    +0.000 HD
ENDBRANCH  23  26
ENDBRANCH  17  23
ENDBRANCH   1  20
TORSDOF 4
ENDMDL
