MODEL 1
REMARK VINA RESULT:    -4.087      0.000      0.000
REMARK INTER + INTRA:          -5.749
REMARK INTER:                  -5.401
REMARK INTRA:                  -0.348
REMARK UNBOUND:                -0.348
REMARK  Name = resultss/4CJN/ligands/lig_14_t0.pdb
REMARK  8 active torsions:
REMARK  status: ('A' for Active; 'I' for Inactive)
REMARK    1  A    between atoms: C1_1  and  C2_2
REMARK    2  A    between atoms: C2_2  and  C3_3
REMARK    3  A    between atoms: C3_3  and  C4_4
REMARK    4  A    between atoms: C4_4  and  N1_5
REMARK    5  A    between atoms: C6_7  and  O1_8
REMARK    6  A    between atoms: C7_9  and  O2_10
REMARK    7  A    between atoms: C8_11  and  C9_12
REMARK    8  A    between atoms: C9_12  and  O3_13
REMARK                            x       y       z     vdW  Elec       q    Type
REMARK                         _______ _______ _______ _____ _____    ______ ____
ROOT
ATOM      1  N1  UNL     1      26.401  -7.975 -42.484  0.00  0.00    +0.000 NA
ATOM      2  C5  UNL     1      26.233  -8.531 -41.124  0.00  0.00    +0.000 C 
ATOM      3  C6  UNL     1      25.024  -9.464 -41.138  0.00  0.00    +0.000 C 
ATOM      4  C7  UNL     1      24.235  -9.032 -42.365  0.00  0.00    +0.000 C 
ATOM      5  C8  UNL     1      25.322  -8.536 -43.322  0.00  0.00    +0.000 C 
ENDROOT
BRANCH   3   6
ATOM      6  O1  UNL     1      24.266  -9.387 -39.955  0.00  0.00    +0.000 OA
ATOM      7  H13 UNL     1      24.834  -9.698 -39.202  0.00  0.00    +0.000 HD
ENDBRANCH   3   6
BRANCH   4   8
ATOM      8  O2  UNL     1      23.466 -10.080 -42.906  0.00  0.00    +0.000 OA
ATOM      9  H15 UNL     1      23.434  -9.966 -43.892  0.00  0.00    +0.000 HD
ENDBRANCH   4   8
BRANCH   1  10
ATOM     10  C4  UNL     1      27.744  -8.230 -43.058  0.00  0.00    +0.000 C 
BRANCH  10  11
ATOM     11  C3  UNL     1      28.269  -9.617 -42.656  0.00  0.00    +0.000 C 
BRANCH  11  13
ATOM     12  C1  UNL     1      30.268 -11.122 -42.336  0.00  0.00    +0.000 C 
ATOM     13  C2  UNL     1      29.783  -9.769 -42.849  0.00  0.00    +0.000 C 
ENDBRANCH  11  13
ENDBRANCH  10  11
ENDBRANCH   1  10
BRANCH   5  14
ATOM     14  C9  UNL     1      24.794  -7.461 -44.287  0.00  0.00    +0.000 C 
BRANCH  14  15
ATOM     15  O3  UNL     1      23.792  -7.984 -45.116  0.00  0.00    +0.000 OA
ATOM     16  H19 UNL     1      23.357  -7.210 -45.560  0.00  0.00    +0.000 HD
ENDBRANCH  14  15
ENDBRANCH   5  14
TORSDOF 7
ENDMDL
MODEL 2
REMARK VINA RESULT:    -4.075      1.654      3.247
REMARK INTER + INTRA:          -5.734
REMARK INTER:                  -5.418
REMARK INTRA:                  -0.315
REMARK UNBOUND:                -0.348
REMARK  Name = resultss/4CJN/ligands/lig_14_t0.pdb
REMARK  8 active torsions:
REMARK  status: ('A' for Active; 'I' for Inactive)
REMARK    1  A    between atoms: C1_1  and  C2_2
REMARK    2  A    between atoms: C2_2  and  C3_3
REMARK    3  A    between atoms: C3_3  and  C4_4
REMARK    4  A    between atoms: C4_4  and  N1_5
REMARK    5  A    between atoms: C6_7  and  O1_8
REMARK    6  A    between atoms: C7_9  and  O2_10
REMARK    7  A    between atoms: C8_11  and  C9_12
REMARK    8  A    between atoms: C9_12  and  O3_13
REMARK                            x       y       z     vdW  Elec       q    Type
REMARK                         _______ _______ _______ _____ _____    ______ ____
ROOT
ATOM      1  N1  UNL     1      27.244  -9.506 -41.914  0.00  0.00    +0.000 NA
ATOM      2  C5  UNL     1      26.160  -9.468 -42.918  0.00  0.00    +0.000 C 
ATOM      3  C6  UNL     1      24.828  -9.369 -42.176  0.00  0.00    +0.000 C 
ATOM      4  C7  UNL     1      25.148  -9.859 -40.772  0.00  0.00    +0.000 C 
ATOM      5  C8  UNL     1      26.610  -9.443 -40.582  0.00  0.00    +0.000 C 
ENDROOT
BRANCH   3   6
ATOM      6  O1  UNL     1      23.808 -10.120 -42.789  0.00  0.00    +0.000 OA
ATOM      7  H13 UNL     1      24.044 -10.240 -43.747  0.00  0.00    +0.000 HD
ENDBRANCH   3   6
BRANCH   4   8
ATOM      8  O2  UNL     1      24.292  -9.304 -39.801  0.00  0.00    +0.000 OA
ATOM      9  H15 UNL     1      24.824  -9.125 -38.982  0.00  0.00    +0.000 HD
ENDBRANCH   4   8
BRANCH   1  10
ATOM     10  C4  UNL     1      28.254  -8.437 -42.103  0.00  0.00    +0.000 C 
BRANCH  10  11
ATOM     11  C3  UNL     1      29.403  -8.909 -43.007  0.00  0.00    +0.000 C 
BRANCH  11  13
ATOM     12  C1  UNL     1      31.123 -10.693 -43.485  0.00  0.00    +0.000 C 
ATOM     13  C2  UNL     1      29.860 -10.342 -42.704  0.00  0.00    +0.000 C 
ENDBRANCH  11  13
ENDBRANCH  10  11
ENDBRANCH   1  10
BRANCH   5  14
ATOM     14  C9  UNL     1      27.350 -10.371 -39.604  0.00  0.00    +0.000 C 
BRANCH  14  15
ATOM     15  O3  UNL     1      27.678 -11.587 -40.221  0.00  0.00    +0.000 OA
ATOM     16  H19 UNL     1      27.279 -11.561 -41.130  0.00  0.00    +0.000 HD
ENDBRANCH  14  15
ENDBRANCH   5  14
TORSDOF 7
ENDMDL
MODEL 3
REMARK VINA RESULT:    -3.881      7.267      8.522
REMARK INTER + INTRA:          -5.477
REMARK INTER:                  -5.153
REMARK INTRA:                  -0.324
REMARK UNBOUND:                -0.348
REMARK  Name = resultss/4CJN/ligands/lig_14_t0.pdb
REMARK  8 active torsions:
REMARK  status: ('A' for Active; 'I' for Inactive)
REMARK    1  A    between atoms: C1_1  and  C2_2
REMARK    2  A    between atoms: C2_2  and  C3_3
REMARK    3  A    between atoms: C3_3  and  C4_4
REMARK    4  A    between atoms: C4_4  and  N1_5
REMARK    5  A    between atoms: C6_7  and  O1_8
REMARK    6  A    between atoms: C7_9  and  O2_10
REMARK    7  A    between atoms: C8_11  and  C9_12
REMARK    8  A    between atoms: C9_12  and  O3_13
REMARK                            x       y       z     vdW  Elec       q    Type
REMARK                         _______ _______ _______ _____ _____    ______ ____
ROOT
ATOM      1  N1  UNL     1      27.874  -8.091 -34.911  0.00  0.00    +0.000 NA
ATOM      2  C5  UNL     1      27.182  -7.564 -33.715  0.00  0.00    +0.000 C 
ATOM      3  C6  UNL     1      26.084  -8.552 -33.327  0.00  0.00    +0.000 C 
ATOM      4  C7  UNL     1      25.845  -9.360 -34.593  0.00  0.00    +0.000 C 
ATOM      5  C8  UNL     1      27.221  -9.367 -35.267  0.00  0.00    +0.000 C 
ENDROOT
BRANCH   3   6
ATOM      6  O1  UNL     1      24.917  -7.914 -32.867  0.00  0.00    +0.000 OA
ATOM      7  H13 UNL     1      24.848  -7.032 -33.318  0.00  0.00    +0.000 HD
ENDBRANCH   3   6
BRANCH   4   8
ATOM      8  O2  UNL     1      25.362 -10.654 -34.323  0.00  0.00    +0.000 OA
ATOM      9  H15 UNL     1      25.745 -10.955 -33.458  0.00  0.00    +0.000 HD
ENDBRANCH   4   8
BRANCH   1  10
ATOM     10  C4  UNL     1      29.336  -8.246 -34.720  0.00  0.00    +0.000 C 
BRANCH  10  11
ATOM     11  C3  UNL     1      29.677  -9.615 -34.112  0.00  0.00    +0.000 C 
BRANCH  11  13
ATOM     12  C1  UNL     1      31.542  -9.970 -32.450  0.00  0.00    +0.000 C 
ATOM     13  C2  UNL     1      30.091  -9.533 -32.637  0.00  0.00    +0.000 C 
ENDBRANCH  11  13
ENDBRANCH  10  11
ENDBRANCH   1  10
BRANCH   5  14
ATOM     14  C9  UNL     1      27.112  -9.493 -36.796  0.00  0.00    +0.000 C 
BRANCH  14  15
ATOM     15  O3  UNL     1      27.666 -10.703 -37.237  0.00  0.00    +0.000 OA
ATOM     16  H19 UNL     1      28.120 -11.111 -36.453  0.00  0.00    +0.000 HD
ENDBRANCH  14  15
ENDBRANCH   5  14
TORSDOF 7
ENDMDL
MODEL 4
REMARK VINA RESULT:    -3.810      1.791      2.501
REMARK INTER + INTRA:          -5.384
REMARK INTER:                  -4.997
REMARK INTRA:                  -0.387
REMARK UNBOUND:                -0.348
REMARK  Name = resultss/4CJN/ligands/lig_14_t0.pdb
REMARK  8 active torsions:
REMARK  status: ('A' for Active; 'I' for Inactive)
REMARK    1  A    between atoms: C1_1  and  C2_2
REMARK    2  A    between atoms: C2_2  and  C3_3
REMARK    3  A    between atoms: C3_3  and  C4_4
REMARK    4  A    between atoms: C4_4  and  N1_5
REMARK    5  A    between atoms: C6_7  and  O1_8
REMARK    6  A    between atoms: C7_9  and  O2_10
REMARK    7  A    between atoms: C8_11  and  C9_12
REMARK    8  A    between atoms: C9_12  and  O3_13
REMARK                            x       y       z     vdW  Elec       q    Type
REMARK                         _______ _______ _______ _____ _____    ______ ____
ROOT
ATOM      1  N1  UNL     1      27.512  -9.647 -40.798  0.00  0.00    +0.000 NA
ATOM      2  C5  UNL     1      27.493  -9.037 -39.451  0.00  0.00    +0.000 C 
ATOM      3  C6  UNL     1      26.035  -8.868 -39.026  0.00  0.00    +0.000 C 
ATOM      4  C7  UNL     1      25.259  -8.918 -40.333  0.00  0.00    +0.000 C 
ATOM      5  C8  UNL     1      26.107  -9.845 -41.208  0.00  0.00    +0.000 C 
ENDROOT
BRANCH   3   6
ATOM      6  O1  UNL     1      25.813  -7.677 -38.311  0.00  0.00    +0.000 OA
ATOM      7  H13 UNL     1      25.020  -7.224 -38.702  0.00  0.00    +0.000 HD
ENDBRANCH   3   6
BRANCH   4   8
ATOM      8  O2  UNL     1      23.943  -9.384 -40.158  0.00  0.00    +0.000 OA
ATOM      9  H15 UNL     1      23.419  -9.153 -40.970  0.00  0.00    +0.000 HD
ENDBRANCH   4   8
BRANCH   1  10
ATOM     10  C4  UNL     1      28.295 -10.904 -40.860  0.00  0.00    +0.000 C 
BRANCH  10  11
ATOM     11  C3  UNL     1      29.733 -10.642 -41.335  0.00  0.00    +0.000 C 
BRANCH  11  13
ATOM     12  C1  UNL     1      31.142 -10.674 -43.427  0.00  0.00    +0.000 C 
ATOM     13  C2  UNL     1      29.816 -10.236 -42.812  0.00  0.00    +0.000 C 
ENDBRANCH  11  13
ENDBRANCH  10  11
ENDBRANCH   1  10
BRANCH   5  14
ATOM     14  C9  UNL     1      25.948  -9.529 -42.705  0.00  0.00    +0.000 C 
BRANCH  14  15
ATOM     15  O3  UNL     1      24.645  -9.812 -43.138  0.00  0.00    +0.000 OA
ATOM     16  H19 UNL     1      24.029  -9.390 -42.483  0.00  0.00    +0.000 HD
ENDBRANCH  14  15
ENDBRANCH   5  14
TORSDOF 7
ENDMDL
MODEL 5
REMARK VINA RESULT:    -3.626      5.129      6.569
REMARK INTER + INTRA:          -5.139
REMARK INTER:                  -4.760
REMARK INTRA:                  -0.379
REMARK UNBOUND:                -0.348
REMARK  Name = resultss/4CJN/ligands/lig_14_t0.pdb
REMARK  8 active torsions:
REMARK  status: ('A' for Active; 'I' for Inactive)
REMARK    1  A    between atoms: C1_1  and  C2_2
REMARK    2  A    between atoms: C2_2  and  C3_3
REMARK    3  A    between atoms: C3_3  and  C4_4
REMARK    4  A    between atoms: C4_4  and  N1_5
REMARK    5  A    between atoms: C6_7  and  O1_8
REMARK    6  A    between atoms: C7_9  and  O2_10
REMARK    7  A    between atoms: C8_11  and  C9_12
REMARK    8  A    between atoms: C9_12  and  O3_13
REMARK                            x       y       z     vdW  Elec       q    Type
REMARK                         _______ _______ _______ _____ _____    ______ ____
ROOT
ATOM      1  N1  UNL     1      27.153  -8.677 -36.992  0.00  0.00    +0.000 NA
ATOM      2  C5  UNL     1      28.333  -9.128 -36.224  0.00  0.00    +0.000 C 
ATOM      3  C6  UNL     1      27.843  -9.995 -35.065  0.00  0.00    +0.000 C 
ATOM      4  C7  UNL     1      26.381  -9.607 -34.904  0.00  0.00    +0.000 C 
ATOM      5  C8  UNL     1      25.959  -9.237 -36.329  0.00  0.00    +0.000 C 
ENDROOT
BRANCH   3   6
ATOM      6  O1  UNL     1      28.586  -9.797 -33.887  0.00  0.00    +0.000 OA
ATOM      7  H13 UNL     1      28.456 -10.589 -33.301  0.00  0.00    +0.000 HD
ENDBRANCH   3   6
BRANCH   4   8
ATOM      8  O2  UNL     1      25.606 -10.648 -34.358  0.00  0.00    +0.000 OA
ATOM      9  H15 UNL     1      24.984 -10.257 -33.691  0.00  0.00    +0.000 HD
ENDBRANCH   4   8
BRANCH   1  10
ATOM     10  C4  UNL     1      27.217  -9.041 -38.428  0.00  0.00    +0.000 C 
BRANCH  10  11
ATOM     11  C3  UNL     1      28.209 -10.190 -38.668  0.00  0.00    +0.000 C 
BRANCH  11  13
ATOM     12  C1  UNL     1      28.787 -10.853 -41.033  0.00  0.00    +0.000 C 
ATOM     13  C2  UNL     1      29.142  -9.942 -39.861  0.00  0.00    +0.000 C 
ENDBRANCH  11  13
ENDBRANCH  10  11
ENDBRANCH   1  10
BRANCH   5  14
ATOM     14  C9  UNL     1      24.819  -8.204 -36.341  0.00  0.00    +0.000 C 
BRANCH  14  15
ATOM     15  O3  UNL     1      23.896  -8.469 -35.320  0.00  0.00    +0.000 OA
ATOM     16  H19 UNL     1      23.836  -7.643 -34.771  0.00  0.00    +0.000 HD
ENDBRANCH  14  15
ENDBRANCH   5  14
TORSDOF 7
ENDMDL
MODEL 6
REMARK VINA RESULT:    -3.618      4.859      6.683
REMARK INTER + INTRA:          -5.130
REMARK INTER:                  -4.894
REMARK INTRA:                  -0.236
REMARK UNBOUND:                -0.348
REMARK  Name = resultss/4CJN/ligands/lig_14_t0.pdb
REMARK  8 active torsions:
REMARK  status: ('A' for Active; 'I' for Inactive)
REMARK    1  A    between atoms: C1_1  and  C2_2
REMARK    2  A    between atoms: C2_2  and  C3_3
REMARK    3  A    between atoms: C3_3  and  C4_4
REMARK    4  A    between atoms: C4_4  and  N1_5
REMARK    5  A    between atoms: C6_7  and  O1_8
REMARK    6  A    between atoms: C7_9  and  O2_10
REMARK    7  A    between atoms: C8_11  and  C9_12
REMARK    8  A    between atoms: C9_12  and  O3_13
REMARK                            x       y       z     vdW  Elec       q    Type
REMARK                         _______ _______ _______ _____ _____    ______ ____
ROOT
ATOM      1  N1  UNL     1      26.111  -9.194 -37.016  0.00  0.00    +0.000 NA
ATOM      2  C5  UNL     1      24.939  -8.527 -37.622  0.00  0.00    +0.000 C 
ATOM      3  C6  UNL     1      24.292  -7.643 -36.558  0.00  0.00    +0.000 C 
ATOM      4  C7  UNL     1      24.804  -8.209 -35.242  0.00  0.00    +0.000 C 
ATOM      5  C8  UNL     1      26.190  -8.748 -35.610  0.00  0.00    +0.000 C 
ENDROOT
BRANCH   3   6
ATOM      6  O1  UNL     1      22.887  -7.642 -36.634  0.00  0.00    +0.000 OA
ATOM      7  H13 UNL     1      22.556  -6.784 -36.256  0.00  0.00    +0.000 HD
ENDBRANCH   3   6
BRANCH   4   8
ATOM      8  O2  UNL     1      24.848  -7.241 -34.222  0.00  0.00    +0.000 OA
ATOM      9  H15 UNL     1      25.713  -7.331 -33.743  0.00  0.00    +0.000 HD
ENDBRANCH   4   8
BRANCH   1  10
ATOM     10  C4  UNL     1      27.372  -8.944 -37.754  0.00  0.00    +0.000 C 
BRANCH  10  11
ATOM     11  C3  UNL     1      27.939 -10.243 -38.347  0.00  0.00    +0.000 C 
BRANCH  11  13
ATOM     12  C1  UNL     1      28.545 -10.710 -40.751  0.00  0.00    +0.000 C 
ATOM     13  C2  UNL     1      27.403 -10.550 -39.751  0.00  0.00    +0.000 C 
ENDBRANCH  11  13
ENDBRANCH  10  11
ENDBRANCH   1  10
BRANCH   5  14
ATOM     14  C9  UNL     1      26.609  -9.922 -34.709  0.00  0.00    +0.000 C 
BRANCH  14  15
ATOM     15  O3  UNL     1      25.493 -10.680 -34.327  0.00  0.00    +0.000 OA
ATOM     16  H19 UNL     1      24.691 -10.136 -34.547  0.00  0.00    +0.000 HD
ENDBRANCH  14  15
ENDBRANCH   5  14
TORSDOF 7
ENDMDL
MODEL 7
REMARK VINA RESULT:    -3.613      2.125      3.737
REMARK INTER + INTRA:          -5.122
REMARK INTER:                  -4.703
REMARK INTRA:                  -0.419
REMARK UNBOUND:                -0.348
REMARK  Name = resultss/4CJN/ligands/lig_14_t0.pdb
REMARK  8 active torsions:
REMARK  status: ('A' for Active; 'I' for Inactive)
REMARK    1  A    between atoms: C1_1  and  C2_2
REMARK    2  A    between atoms: C2_2  and  C3_3
REMARK    3  A    between atoms: C3_3  and  C4_4
REMARK    4  A    between atoms: C4_4  and  N1_5
REMARK    5  A    between atoms: C6_7  and  O1_8
REMARK    6  A    between atoms: C7_9  and  O2_10
REMARK    7  A    between atoms: C8_11  and  C9_12
REMARK    8  A    between atoms: C9_12  and  O3_13
REMARK                            x       y       z     vdW  Elec       q    Type
REMARK                         _______ _______ _______ _____ _____    ______ ____
ROOT
ATOM      1  N1  UNL     1      25.452  -8.036 -43.191  0.00  0.00    +0.000 NA
ATOM      2  C5  UNL     1      24.477  -7.682 -44.245  0.00  0.00    +0.000 C 
ATOM      3  C6  UNL     1      23.172  -7.269 -43.565  0.00  0.00    +0.000 C 
ATOM      4  C7  UNL     1      23.269  -7.876 -42.174  0.00  0.00    +0.000 C 
ATOM      5  C8  UNL     1      24.775  -7.860 -41.891  0.00  0.00    +0.000 C 
ENDROOT
BRANCH   3   6
ATOM      6  O1  UNL     1      22.033  -7.707 -44.266  0.00  0.00    +0.000 OA
ATOM      7  H13 UNL     1      21.943  -8.687 -44.130  0.00  0.00    +0.000 HD
ENDBRANCH   3   6
BRANCH   4   8
ATOM      8  O2  UNL     1      22.527  -7.155 -41.220  0.00  0.00    +0.000 OA
ATOM      9  H15 UNL     1      23.162  -6.673 -40.628  0.00  0.00    +0.000 HD
ENDBRANCH   4   8
BRANCH   1  10
ATOM     10  C4  UNL     1      26.711  -7.258 -43.275  0.00  0.00    +0.000 C 
BRANCH  10  11
ATOM     11  C3  UNL     1      27.672  -7.863 -44.311  0.00  0.00    +0.000 C 
BRANCH  11  13
ATOM     12  C1  UNL     1      27.486  -7.138 -46.720  0.00  0.00    +0.000 C 
ATOM     13  C2  UNL     1      28.134  -6.852 -45.368  0.00  0.00    +0.000 C 
ENDBRANCH  11  13
ENDBRANCH  10  11
ENDBRANCH   1  10
BRANCH   5  14
ATOM     14  C9  UNL     1      25.190  -8.983 -40.926  0.00  0.00    +0.000 C 
BRANCH  14  15
ATOM     15  O3  UNL     1      24.081  -9.473 -40.223  0.00  0.00    +0.000 OA
ATOM     16  H19 UNL     1      23.323  -8.865 -40.429  0.00  0.00    +0.000 HD
ENDBRANCH  14  15
ENDBRANCH   5  14
TORSDOF 7
ENDMDL
MODEL 8
REMARK VINA RESULT:    -3.555      6.804      8.425
REMARK INTER + INTRA:          -5.047
REMARK INTER:                  -4.808
REMARK INTRA:                  -0.239
REMARK UNBOUND:                -0.348
REMARK  Name = resultss/4CJN/ligands/lig_14_t0.pdb
REMARK  8 active torsions:
REMARK  status: ('A' for Active; 'I' for Inactive)
REMARK    1  A    between atoms: C1_1  and  C2_2
REMARK    2  A    between atoms: C2_2  and  C3_3
REMARK    3  A    between atoms: C3_3  and  C4_4
REMARK    4  A    between atoms: C4_4  and  N1_5
REMARK    5  A    between atoms: C6_7  and  O1_8
REMARK    6  A    between atoms: C7_9  and  O2_10
REMARK    7  A    between atoms: C8_11  and  C9_12
REMARK    8  A    between atoms: C9_12  and  O3_13
REMARK                            x       y       z     vdW  Elec       q    Type
REMARK                         _______ _______ _______ _____ _____    ______ ____
ROOT
ATOM      1  N1  UNL     1      25.673  -9.098 -34.619  0.00  0.00    +0.000 NA
ATOM      2  C5  UNL     1      25.725  -8.944 -36.089  0.00  0.00    +0.000 C 
ATOM      3  C6  UNL     1      24.673  -7.913 -36.496  0.00  0.00    +0.000 C 
ATOM      4  C7  UNL     1      23.712  -7.878 -35.318  0.00  0.00    +0.000 C 
ATOM      5  C8  UNL     1      24.614  -8.198 -34.122  0.00  0.00    +0.000 C 
ENDROOT
BRANCH   3   6
ATOM      6  O1  UNL     1      24.033  -8.240 -37.705  0.00  0.00    +0.000 OA
ATOM      7  H13 UNL     1      23.515  -7.448 -38.006  0.00  0.00    +0.000 HD
ENDBRANCH   3   6
BRANCH   4   8
ATOM      8  O2  UNL     1      23.060  -6.637 -35.193  0.00  0.00    +0.000 OA
ATOM      9  H15 UNL     1      23.365  -6.048 -35.933  0.00  0.00    +0.000 HD
ENDBRANCH   4   8
BRANCH   1  10
ATOM     10  C4  UNL     1      26.977  -8.846 -33.959  0.00  0.00    +0.000 C 
BRANCH  10  11
ATOM     11  C3  UNL     1      28.052  -9.826 -34.455  0.00  0.00    +0.000 C 
BRANCH  11  13
ATOM     12  C1  UNL     1      30.544  -9.499 -34.669  0.00  0.00    +0.000 C 
ATOM     13  C2  UNL     1      29.381  -9.695 -33.700  0.00  0.00    +0.000 C 
ENDBRANCH  11  13
ENDBRANCH  10  11
ENDBRANCH   1  10
BRANCH   5  14
ATOM     14  C9  UNL     1      23.838  -8.880 -32.982  0.00  0.00    +0.000 C 
BRANCH  14  15
ATOM     15  O3  UNL     1      23.192  -7.929 -32.180  0.00  0.00    +0.000 OA
ATOM     16  H19 UNL     1      23.140  -8.316 -31.267  0.00  0.00    +0.000 HD
ENDBRANCH  14  15
ENDBRANCH   5  14
TORSDOF 7
ENDMDL
MODEL 9
REMARK VINA RESULT:    -3.541      6.884      8.126
REMARK INTER + INTRA:          -5.028
REMARK INTER:                  -4.607
REMARK INTRA:                  -0.421
REMARK UNBOUND:                -0.348
REMARK  Name = resultss/4CJN/ligands/lig_14_t0.pdb
REMARK  8 active torsions:
REMARK  status: ('A' for Active; 'I' for Inactive)
REMARK    1  A    between atoms: C1_1  and  C2_2
REMARK    2  A    between atoms: C2_2  and  C3_3
REMARK    3  A    between atoms: C3_3  and  C4_4
REMARK    4  A    between atoms: C4_4  and  N1_5
REMARK    5  A    between atoms: C6_7  and  O1_8
REMARK    6  A    between atoms: C7_9  and  O2_10
REMARK    7  A    between atoms: C8_11  and  C9_12
REMARK    8  A    between atoms: C9_12  and  O3_13
REMARK                            x       y       z     vdW  Elec       q    Type
REMARK                         _______ _______ _______ _____ _____    ______ ____
ROOT
ATOM      1  N1  UNL     1      26.508  -8.447 -34.840  0.00  0.00    +0.000 NA
ATOM      2  C5  UNL     1      26.252  -7.905 -33.489  0.00  0.00    +0.000 C 
ATOM      3  C6  UNL     1      24.745  -7.942 -33.239  0.00  0.00    +0.000 C 
ATOM      4  C7  UNL     1      24.140  -8.032 -34.631  0.00  0.00    +0.000 C 
ATOM      5  C8  UNL     1      25.199  -8.805 -35.424  0.00  0.00    +0.000 C 
ENDROOT
BRANCH   3   6
ATOM      6  O1  UNL     1      24.286  -6.822 -32.523  0.00  0.00    +0.000 OA
ATOM      7  H13 UNL     1      24.992  -6.124 -32.552  0.00  0.00    +0.000 HD
ENDBRANCH   3   6
BRANCH   4   8
ATOM      8  O2  UNL     1      22.885  -8.670 -34.632  0.00  0.00    +0.000 OA
ATOM      9  H15 UNL     1      23.032  -9.648 -34.539  0.00  0.00    +0.000 HD
ENDBRANCH   4   8
BRANCH   1  10
ATOM     10  C4  UNL     1      27.452  -9.591 -34.842  0.00  0.00    +0.000 C 
BRANCH  10  11
ATOM     11  C3  UNL     1      28.900  -9.118 -35.047  0.00  0.00    +0.000 C 
BRANCH  11  13
ATOM     12  C1  UNL     1      29.644  -9.113 -32.636  0.00  0.00    +0.000 C 
ATOM     13  C2  UNL     1      29.878  -9.708 -34.022  0.00  0.00    +0.000 C 
ENDBRANCH  11  13
ENDBRANCH  10  11
ENDBRANCH   1  10
BRANCH   5  14
ATOM     14  C9  UNL     1      25.175  -8.446 -36.919  0.00  0.00    +0.000 C 
BRANCH  14  15
ATOM     15  O3  UNL     1      23.878  -8.111 -37.330  0.00  0.00    +0.000 OA
ATOM     16  H19 UNL     1      23.262  -8.733 -36.862  0.00  0.00    +0.000 HD
ENDBRANCH  14  15
ENDBRANCH   5  14
TORSDOF 7
ENDMDL
