MODEL 1
REMARK VINA RESULT:    -6.643      0.000      0.000
REMARK INTER + INTRA:         -14.549
REMARK INTER:                 -12.081
REMARK INTRA:                  -2.468
REMARK UNBOUND:                -2.468
REMARK  Name = resultss/4CJN/ligands/lig_101_t0.pdb
REMARK  18 active torsions:
REMARK  status: ('A' for Active; 'I' for Inactive)
REMARK    1  A    between atoms: C6_6  and  C7_7
REMARK    2  A    between atoms: C6_6  and  C8_8
REMARK    3  A    between atoms: C8_8  and  O1_9
REMARK    4  A    between atoms: O1_9  and  C9_10
REMARK    5  A    between atoms: C9_10  and  C10_12
REMARK    6  A    between atoms: C15_18  and  O3_19
REMARK    7  A    between atoms: O3_19  and  C16_20
REMARK    8  A    between atoms: C16_20  and  C17_22
REMARK    9  A    between atoms: C24_30  and  C25_31
REMARK   10  A    between atoms: C26_32  and  C27_33
REMARK   11  A    between atoms: C28_34  and  C29_35
REMARK   12  A    between atoms: C32_38  and  C33_39
REMARK   13  A    between atoms: C33_39  and  C34_40
REMARK   14  A    between atoms: C35_41  and  C36_42
REMARK   15  A    between atoms: C36_42  and  C37_43
REMARK   16  A    between atoms: C37_43  and  C38_44
REMARK   17  A    between atoms: C38_44  and  C39_45
REMARK   18  A    between atoms: C40_46  and  C41_47
REMARK                            x       y       z     vdW  Elec       q    Type
REMARK                         _______ _______ _______ _____ _____    ______ ____
ROOT
ATOM      1  C1  UNL     1      29.687  -9.635 -43.701  0.00  0.00    +0.000 C 
ATOM      2  C2  UNL     1      29.247  -9.484 -42.437  0.00  0.00    +0.000 C 
ATOM      3  C3  UNL     1      30.166  -9.986 -41.330  0.00  0.00    +0.000 C 
ATOM      4  C4  UNL     1      29.525 -10.082 -39.930  0.00  0.00    +0.000 C 
ATOM      5  C5  UNL     1      28.563  -8.899 -39.670  0.00  0.00    +0.000 C 
ATOM      6  C6  UNL     1      28.136  -8.585 -38.172  0.00  0.00    +0.000 C 
ATOM      7  C7  UNL     1      29.409  -8.401 -37.298  0.00  0.00    +0.000 C 
ATOM      8  C15 UNL     1      27.331  -7.208 -38.130  0.00  0.00    +0.000 C 
ATOM      9  C22 UNL     1      26.862  -6.714 -39.514  0.00  0.00    +0.000 C 
ATOM     10  C23 UNL     1      26.304  -7.865 -40.345  0.00  0.00    +0.000 C 
ATOM     11  C24 UNL     1      27.394  -8.916 -40.733  0.00  0.00    +0.000 C 
ATOM     12  C25 UNL     1      26.696 -10.309 -40.838  0.00  0.00    +0.000 C 
ATOM     13  C26 UNL     1      28.057  -8.564 -42.118  0.00  0.00    +0.000 C 
ENDROOT
BRANCH  13  14
ATOM     14  C27 UNL     1      27.072  -8.405 -43.269  0.00  0.00    +0.000 C 
ATOM     15  C28 UNL     1      26.923  -7.290 -43.995  0.00  0.00    +0.000 C 
BRANCH  15  16
ATOM     16  C29 UNL     1      25.919  -7.215 -45.067  0.00  0.00    +0.000 C 
ATOM     17  C30 UNL     1      24.603  -7.133 -44.884  0.00  0.00    +0.000 C 
ATOM     18  C31 UNL     1      23.984  -7.015 -46.217  0.00  0.00    +0.000 C 
ATOM     19  C32 UNL     1      22.697  -6.813 -46.521  0.00  0.00    +0.000 C 
ATOM     20  O5  UNL     1      24.974  -7.067 -47.190  0.00  0.00    +0.000 OA
ATOM     21  C42 UNL     1      26.170  -7.183 -46.505  0.00  0.00    +0.000 C 
ATOM     22  O6  UNL     1      27.295  -7.267 -47.066  0.00  0.00    +0.000 OA
BRANCH  19  23
ATOM     23  C33 UNL     1      21.605  -6.646 -45.534  0.00  0.00    +0.000 C 
ATOM     24  C34 UNL     1      21.818  -7.006 -44.086  0.00  0.00    +0.000 C 
ATOM     25  C35 UNL     1      20.408  -6.232 -45.993  0.00  0.00    +0.000 C 
BRANCH  25  26
ATOM     26  C36 UNL     1      19.150  -6.115 -45.169  0.00  0.00    +0.000 C 
BRANCH  26  27
ATOM     27  C37 UNL     1      18.173  -7.248 -45.527  0.00  0.00    +0.000 C 
BRANCH  27  28
ATOM     28  C38 UNL     1      18.225  -7.628 -47.011  0.00  0.00    +0.000 C 
BRANCH  28  29
ATOM     29  C39 UNL     1      16.871  -7.530 -47.660  0.00  0.00    +0.000 C 
ATOM     30  C40 UNL     1      15.821  -6.997 -47.017  0.00  0.00    +0.000 C 
ATOM     31  C41 UNL     1      14.486  -6.890 -47.679  0.00  0.00    +0.000 C 
ENDBRANCH  28  29
ENDBRANCH  27  28
ENDBRANCH  26  27
ENDBRANCH  25  26
ENDBRANCH  19  23
ENDBRANCH  15  16
ENDBRANCH  13  14
BRANCH   6  32
ATOM     32  C8  UNL     1      27.302  -9.728 -37.516  0.00  0.00    +0.000 C 
BRANCH  32  33
ATOM     33  O1  UNL     1      27.947 -10.238 -36.353  0.00  0.00    +0.000 OA
BRANCH  33  34
ATOM     34  C9  UNL     1      27.482 -10.005 -35.055  0.00  0.00    +0.000 C 
ATOM     35  O2  UNL     1      26.295 -10.304 -34.746  0.00  0.00    +0.000 OA
BRANCH  34  36
ATOM     36  C10 UNL     1      28.384  -9.398 -34.052  0.00  0.00    +0.000 A 
ATOM     37  C11 UNL     1      27.920  -8.387 -33.196  0.00  0.00    +0.000 A 
ATOM     38  C12 UNL     1      28.780  -7.818 -32.252  0.00  0.00    +0.000 A 
ATOM     39  C13 UNL     1      30.093  -8.279 -32.159  0.00  0.00    +0.000 A 
ATOM     40  N1  UNL     1      30.528  -9.266 -32.986  0.00  0.00    +0.000 NA
ATOM     41  C14 UNL     1      29.716  -9.826 -33.921  0.00  0.00    +0.000 A 
ENDBRANCH  34  36
ENDBRANCH  33  34
ENDBRANCH  32  33
ENDBRANCH   6  32
BRANCH   8  42
ATOM     42  O3  UNL     1      26.176  -7.290 -37.284  0.00  0.00    +0.000 OA
BRANCH  42  43
ATOM     43  C16 UNL     1      26.077  -6.705 -36.017  0.00  0.00    +0.000 C 
ATOM     44  O4  UNL     1      26.961  -5.898 -35.617  0.00  0.00    +0.000 OA
BRANCH  43  45
ATOM     45  C17 UNL     1      24.933  -7.050 -35.146  0.00  0.00    +0.000 A 
ATOM     46  C18 UNL     1      23.860  -7.812 -35.636  0.00  0.00    +0.000 A 
ATOM     47  C19 UNL     1      22.774  -8.105 -34.808  0.00  0.00    +0.000 A 
ATOM     48  C20 UNL     1      22.767  -7.631 -33.494  0.00  0.00    +0.000 A 
ATOM     49  N2  UNL     1      23.809  -6.890 -33.033  0.00  0.00    +0.000 NA
ATOM     50  C21 UNL     1      24.879  -6.592 -33.817  0.00  0.00    +0.000 A 
ENDBRANCH  43  45
ENDBRANCH  42  43
ENDBRANCH   8  42
TORSDOF 14
ENDMDL
MODEL 2
REMARK VINA RESULT:    -6.643      1.639      2.809
REMARK INTER + INTRA:         -14.548
REMARK INTER:                 -11.366
REMARK INTRA:                  -3.182
REMARK UNBOUND:                -2.468
REMARK  Name = resultss/4CJN/ligands/lig_101_t0.pdb
REMARK  18 active torsions:
REMARK  status: ('A' for Active; 'I' for Inactive)
REMARK    1  A    between atoms: C6_6  and  C7_7
REMARK    2  A    between atoms: C6_6  and  C8_8
REMARK    3  A    between atoms: C8_8  and  O1_9
REMARK    4  A    between atoms: O1_9  and  C9_10
REMARK    5  A    between atoms: C9_10  and  C10_12
REMARK    6  A    between atoms: C15_18  and  O3_19
REMARK    7  A    between atoms: O3_19  and  C16_20
REMARK    8  A    between atoms: C16_20  and  C17_22
REMARK    9  A    between atoms: C24_30  and  C25_31
REMARK   10  A    between atoms: C26_32  and  C27_33
REMARK   11  A    between atoms: C28_34  and  C29_35
REMARK   12  A    between atoms: C32_38  and  C33_39
REMARK   13  A    between atoms: C33_39  and  C34_40
REMARK   14  A    between atoms: C35_41  and  C36_42
REMARK   15  A    between atoms: C36_42  and  C37_43
REMARK   16  A    between atoms: C37_43  and  C38_44
REMARK   17  A    between atoms: C38_44  and  C39_45
REMARK   18  A    between atoms: C40_46  and  C41_47
REMARK                            x       y       z     vdW  Elec       q    Type
REMARK                         _______ _______ _______ _____ _____    ______ ____
ROOT
ATOM      1  C1  UNL     1      30.062  -9.726 -43.512  0.00  0.00    +0.000 C 
ATOM      2  C2  UNL     1      29.488  -9.455 -42.324  0.00  0.00    +0.000 C 
ATOM      3  C3  UNL     1      30.202  -9.983 -41.085  0.00  0.00    +0.000 C 
ATOM      4  C4  UNL     1      29.386  -9.929 -39.777  0.00  0.00    +0.000 C 
ATOM      5  C5  UNL     1      28.537  -8.639 -39.698  0.00  0.00    +0.000 C 
ATOM      6  C6  UNL     1      27.964  -8.194 -38.284  0.00  0.00    +0.000 C 
ATOM      7  C7  UNL     1      29.132  -8.092 -37.262  0.00  0.00    +0.000 C 
ATOM      8  C15 UNL     1      27.318  -6.741 -38.409  0.00  0.00    +0.000 C 
ATOM      9  C22 UNL     1      27.082  -6.283 -39.863  0.00  0.00    +0.000 C 
ATOM     10  C23 UNL     1      26.507  -7.418 -40.706  0.00  0.00    +0.000 C 
ATOM     11  C24 UNL     1      27.513  -8.597 -40.902  0.00  0.00    +0.000 C 
ATOM     12  C25 UNL     1      26.684  -9.914 -41.032  0.00  0.00    +0.000 C 
ATOM     13  C26 UNL     1      28.378  -8.398 -42.204  0.00  0.00    +0.000 C 
ENDROOT
BRANCH  13  14
ATOM     14  C27 UNL     1      27.566  -8.207 -43.479  0.00  0.00    +0.000 C 
ATOM     15  C28 UNL     1      27.121  -7.027 -43.927  0.00  0.00    +0.000 C 
BRANCH  15  16
ATOM     16  C29 UNL     1      26.311  -6.940 -45.152  0.00  0.00    +0.000 C 
ATOM     17  C30 UNL     1      24.983  -7.007 -45.203  0.00  0.00    +0.000 C 
ATOM     18  C31 UNL     1      24.590  -6.814 -46.611  0.00  0.00    +0.000 C 
ATOM     19  C32 UNL     1      23.359  -6.708 -47.123  0.00  0.00    +0.000 C 
ATOM     20  O5  UNL     1      25.730  -6.669 -47.391  0.00  0.00    +0.000 OA
ATOM     21  C42 UNL     1      26.797  -6.737 -46.514  0.00  0.00    +0.000 C 
ATOM     22  O6  UNL     1      28.004  -6.654 -46.868  0.00  0.00    +0.000 OA
BRANCH  19  23
ATOM     23  C33 UNL     1      22.103  -6.750 -46.338  0.00  0.00    +0.000 C 
ATOM     24  C34 UNL     1      20.891  -7.473 -46.867  0.00  0.00    +0.000 C 
ATOM     25  C35 UNL     1      22.069  -6.063 -45.180  0.00  0.00    +0.000 C 
BRANCH  25  26
ATOM     26  C36 UNL     1      20.854  -5.888 -44.304  0.00  0.00    +0.000 C 
BRANCH  26  27
ATOM     27  C37 UNL     1      21.009  -6.705 -43.010  0.00  0.00    +0.000 C 
BRANCH  27  28
ATOM     28  C38 UNL     1      22.359  -6.473 -42.321  0.00  0.00    +0.000 C 
BRANCH  28  29
ATOM     29  C39 UNL     1      23.021  -7.769 -41.936  0.00  0.00    +0.000 C 
ATOM     30  C40 UNL     1      23.636  -8.540 -42.845  0.00  0.00    +0.000 C 
ATOM     31  C41 UNL     1      24.303  -9.816 -42.448  0.00  0.00    +0.000 C 
ENDBRANCH  28  29
ENDBRANCH  27  28
ENDBRANCH  26  27
ENDBRANCH  25  26
ENDBRANCH  19  23
ENDBRANCH  15  16
ENDBRANCH  13  14
BRANCH   6  32
ATOM     32  C8  UNL     1      26.935  -9.204 -37.690  0.00  0.00    +0.000 C 
BRANCH  32  33
ATOM     33  O1  UNL     1      27.502  -9.954 -36.621  0.00  0.00    +0.000 OA
BRANCH  33  34
ATOM     34  C9  UNL     1      26.971  -9.968 -35.328  0.00  0.00    +0.000 C 
ATOM     35  O2  UNL     1      25.796 -10.384 -35.132  0.00  0.00    +0.000 OA
BRANCH  34  36
ATOM     36  C10 UNL     1      27.789  -9.483 -34.195  0.00  0.00    +0.000 A 
ATOM     37  C11 UNL     1      27.268  -8.546 -33.289  0.00  0.00    +0.000 A 
ATOM     38  C12 UNL     1      28.048  -8.093 -32.222  0.00  0.00    +0.000 A 
ATOM     39  C13 UNL     1      29.340  -8.595 -32.059  0.00  0.00    +0.000 A 
ATOM     40  N1  UNL     1      29.830  -9.508 -32.937  0.00  0.00    +0.000 NA
ATOM     41  C14 UNL     1      29.096  -9.956 -33.989  0.00  0.00    +0.000 A 
ENDBRANCH  34  36
ENDBRANCH  33  34
ENDBRANCH  32  33
ENDBRANCH   6  32
BRANCH   8  42
ATOM     42  O3  UNL     1      26.066  -6.652 -37.717  0.00  0.00    +0.000 OA
BRANCH  42  43
ATOM     43  C16 UNL     1      25.932  -6.478 -36.335  0.00  0.00    +0.000 C 
ATOM     44  O4  UNL     1      26.856  -5.933 -35.670  0.00  0.00    +0.000 OA
BRANCH  43  45
ATOM     45  C17 UNL     1      24.705  -6.951 -35.659  0.00  0.00    +0.000 A 
ATOM     46  C18 UNL     1      24.550  -6.811 -34.271  0.00  0.00    +0.000 A 
ATOM     47  C19 UNL     1      23.397  -7.288 -33.644  0.00  0.00    +0.000 A 
ATOM     48  C20 UNL     1      22.406  -7.905 -34.411  0.00  0.00    +0.000 A 
ATOM     49  N2  UNL     1      22.570  -8.039 -35.753  0.00  0.00    +0.000 NA
ATOM     50  C21 UNL     1      23.682  -7.582 -36.389  0.00  0.00    +0.000 A 
ENDBRANCH  43  45
ENDBRANCH  42  43
ENDBRANCH   8  42
TORSDOF 14
ENDMDL
MODEL 3
REMARK VINA RESULT:    -6.467      3.763     12.453
REMARK INTER + INTRA:         -14.228
REMARK INTER:                 -11.679
REMARK INTRA:                  -2.549
REMARK UNBOUND:                -2.468
REMARK  Name = resultss/4CJN/ligands/lig_101_t0.pdb
REMARK  18 active torsions:
REMARK  status: ('A' for Active; 'I' for Inactive)
REMARK    1  A    between atoms: C6_6  and  C7_7
REMARK    2  A    between atoms: C6_6  and  C8_8
REMARK    3  A    between atoms: C8_8  and  O1_9
REMARK    4  A    between atoms: O1_9  and  C9_10
REMARK    5  A    between atoms: C9_10  and  C10_12
REMARK    6  A    between atoms: C15_18  and  O3_19
REMARK    7  A    between atoms: O3_19  and  C16_20
REMARK    8  A    between atoms: C16_20  and  C17_22
REMARK    9  A    between atoms: C24_30  and  C25_31
REMARK   10  A    between atoms: C26_32  and  C27_33
REMARK   11  A    between atoms: C28_34  and  C29_35
REMARK   12  A    between atoms: C32_38  and  C33_39
REMARK   13  A    between atoms: C33_39  and  C34_40
REMARK   14  A    between atoms: C35_41  and  C36_42
REMARK   15  A    between atoms: C36_42  and  C37_43
REMARK   16  A    between atoms: C37_43  and  C38_44
REMARK   17  A    between atoms: C38_44  and  C39_45
REMARK   18  A    between atoms: C40_46  and  C41_47
REMARK                            x       y       z     vdW  Elec       q    Type
REMARK                         _______ _______ _______ _____ _____    ______ ____
ROOT
ATOM      1  C1  UNL     1      29.071 -10.800 -38.453  0.00  0.00    +0.000 C 
ATOM      2  C2  UNL     1      28.297 -10.113 -39.315  0.00  0.00    +0.000 C 
ATOM      3  C3  UNL     1      28.551 -10.350 -40.799  0.00  0.00    +0.000 C 
ATOM      4  C4  UNL     1      27.877  -9.344 -41.754  0.00  0.00    +0.000 C 
ATOM      5  C5  UNL     1      26.465  -8.956 -41.257  0.00  0.00    +0.000 C 
ATOM      6  C6  UNL     1      25.458  -8.280 -42.283  0.00  0.00    +0.000 C 
ATOM      7  C7  UNL     1      25.317  -9.183 -43.541  0.00  0.00    +0.000 C 
ATOM      8  C15 UNL     1      24.013  -8.174 -41.614  0.00  0.00    +0.000 C 
ATOM      9  C22 UNL     1      24.011  -8.400 -40.088  0.00  0.00    +0.000 C 
ATOM     10  C23 UNL     1      25.181  -7.677 -39.428  0.00  0.00    +0.000 C 
ATOM     11  C24 UNL     1      26.568  -8.270 -39.836  0.00  0.00    +0.000 C 
ATOM     12  C25 UNL     1      27.610  -7.108 -39.804  0.00  0.00    +0.000 C 
ATOM     13  C26 UNL     1      27.021  -9.400 -38.836  0.00  0.00    +0.000 C 
ENDROOT
BRANCH  13  14
ATOM     14  C27 UNL     1      27.063  -8.973 -37.375  0.00  0.00    +0.000 C 
ATOM     15  C28 UNL     1      26.108  -9.240 -36.477  0.00  0.00    +0.000 C 
BRANCH  15  16
ATOM     16  C29 UNL     1      26.215  -8.755 -35.092  0.00  0.00    +0.000 C 
ATOM     17  C30 UNL     1      27.349  -8.626 -34.407  0.00  0.00    +0.000 C 
ATOM     18  C31 UNL     1      27.002  -8.051 -33.094  0.00  0.00    +0.000 C 
ATOM     19  C32 UNL     1      27.825  -7.661 -32.115  0.00  0.00    +0.000 C 
ATOM     20  O5  UNL     1      25.626  -7.881 -33.015  0.00  0.00    +0.000 OA
ATOM     21  C42 UNL     1      25.124  -8.301 -34.234  0.00  0.00    +0.000 C 
ATOM     22  O6  UNL     1      23.898  -8.300 -34.526  0.00  0.00    +0.000 OA
BRANCH  19  23
ATOM     23  C33 UNL     1      29.305  -7.717 -32.172  0.00  0.00    +0.000 C 
ATOM     24  C34 UNL     1      30.131  -6.486 -31.899  0.00  0.00    +0.000 C 
ATOM     25  C35 UNL     1      29.870  -8.882 -32.544  0.00  0.00    +0.000 C 
BRANCH  25  26
ATOM     26  C36 UNL     1      31.344  -9.103 -32.773  0.00  0.00    +0.000 C 
BRANCH  26  27
ATOM     27  C37 UNL     1      31.719 -10.560 -32.456  0.00  0.00    +0.000 C 
BRANCH  27  28
ATOM     28  C38 UNL     1      32.072 -10.774 -30.979  0.00  0.00    +0.000 C 
BRANCH  28  29
ATOM     29  C39 UNL     1      32.414 -12.210 -30.688  0.00  0.00    +0.000 C 
ATOM     30  C40 UNL     1      32.640 -13.091 -31.673  0.00  0.00    +0.000 C 
ATOM     31  C41 UNL     1      32.995 -14.511 -31.372  0.00  0.00    +0.000 C 
ENDBRANCH  28  29
ENDBRANCH  27  28
ENDBRANCH  26  27
ENDBRANCH  25  26
ENDBRANCH  19  23
ENDBRANCH  15  16
ENDBRANCH  13  14
BRANCH   6  32
ATOM     32  C8  UNL     1      25.935  -6.882 -42.784  0.00  0.00    +0.000 C 
BRANCH  32  33
ATOM     33  O1  UNL     1      25.918  -6.808 -44.206  0.00  0.00    +0.000 OA
BRANCH  33  34
ATOM     34  C9  UNL     1      27.052  -6.525 -44.973  0.00  0.00    +0.000 C 
ATOM     35  O2  UNL     1      28.176  -6.395 -44.413  0.00  0.00    +0.000 OA
BRANCH  34  36
ATOM     36  C10 UNL     1      26.926  -6.370 -46.438  0.00  0.00    +0.000 A 
ATOM     37  C11 UNL     1      28.043  -6.030 -47.217  0.00  0.00    +0.000 A 
ATOM     38  C12 UNL     1      27.914  -5.883 -48.601  0.00  0.00    +0.000 A 
ATOM     39  C13 UNL     1      26.671  -6.098 -49.198  0.00  0.00    +0.000 A 
ATOM     40  N1  UNL     1      25.600  -6.437 -48.434  0.00  0.00    +0.000 NA
ATOM     41  C14 UNL     1      25.696  -6.573 -47.086  0.00  0.00    +0.000 A 
ENDBRANCH  34  36
ENDBRANCH  33  34
ENDBRANCH  32  33
ENDBRANCH   6  32
BRANCH   8  42
ATOM     42  O3  UNL     1      23.401  -6.902 -41.866  0.00  0.00    +0.000 OA
BRANCH  42  43
ATOM     43  C16 UNL     1      22.050  -6.719 -42.180  0.00  0.00    +0.000 C 
ATOM     44  O4  UNL     1      21.211  -6.480 -41.268  0.00  0.00    +0.000 OA
BRANCH  43  45
ATOM     45  C17 UNL     1      21.611  -6.823 -43.588  0.00  0.00    +0.000 A 
ATOM     46  C18 UNL     1      22.548  -6.834 -44.634  0.00  0.00    +0.000 A 
ATOM     47  C19 UNL     1      22.115  -6.903 -45.960  0.00  0.00    +0.000 A 
ATOM     48  C20 UNL     1      20.746  -6.960 -46.232  0.00  0.00    +0.000 A 
ATOM     49  N2  UNL     1      19.849  -6.944 -45.211  0.00  0.00    +0.000 NA
ATOM     50  C21 UNL     1      20.243  -6.879 -43.911  0.00  0.00    +0.000 A 
ENDBRANCH  43  45
ENDBRANCH  42  43
ENDBRANCH   8  42
TORSDOF 14
ENDMDL
MODEL 4
REMARK VINA RESULT:    -6.403      3.599     11.564
REMARK INTER + INTRA:         -14.111
REMARK INTER:                 -10.544
REMARK INTRA:                  -3.567
REMARK UNBOUND:                -2.468
REMARK  Name = resultss/4CJN/ligands/lig_101_t0.pdb
REMARK  18 active torsions:
REMARK  status: ('A' for Active; 'I' for Inactive)
REMARK    1  A    between atoms: C6_6  and  C7_7
REMARK    2  A    between atoms: C6_6  and  C8_8
REMARK    3  A    between atoms: C8_8  and  O1_9
REMARK    4  A    between atoms: O1_9  and  C9_10
REMARK    5  A    between atoms: C9_10  and  C10_12
REMARK    6  A    between atoms: C15_18  and  O3_19
REMARK    7  A    between atoms: O3_19  and  C16_20
REMARK    8  A    between atoms: C16_20  and  C17_22
REMARK    9  A    between atoms: C24_30  and  C25_31
REMARK   10  A    between atoms: C26_32  and  C27_33
REMARK   11  A    between atoms: C28_34  and  C29_35
REMARK   12  A    between atoms: C32_38  and  C33_39
REMARK   13  A    between atoms: C33_39  and  C34_40
REMARK   14  A    between atoms: C35_41  and  C36_42
REMARK   15  A    between atoms: C36_42  and  C37_43
REMARK   16  A    between atoms: C37_43  and  C38_44
REMARK   17  A    between atoms: C38_44  and  C39_45
REMARK   18  A    between atoms: C40_46  and  C41_47
REMARK                            x       y       z     vdW  Elec       q    Type
REMARK                         _______ _______ _______ _____ _____    ______ ____
ROOT
ATOM      1  C1  UNL     1      28.767 -10.892 -38.651  0.00  0.00    +0.000 C 
ATOM      2  C2  UNL     1      27.994 -10.174 -39.488  0.00  0.00    +0.000 C 
ATOM      3  C3  UNL     1      28.209 -10.401 -40.980  0.00  0.00    +0.000 C 
ATOM      4  C4  UNL     1      27.543  -9.367 -41.910  0.00  0.00    +0.000 C 
ATOM      5  C5  UNL     1      26.154  -8.944 -41.377  0.00  0.00    +0.000 C 
ATOM      6  C6  UNL     1      25.145  -8.228 -42.375  0.00  0.00    +0.000 C 
ATOM      7  C7  UNL     1      24.951  -9.113 -43.638  0.00  0.00    +0.000 C 
ATOM      8  C15 UNL     1      23.719  -8.088 -41.673  0.00  0.00    +0.000 C 
ATOM      9  C22 UNL     1      23.743  -8.331 -40.150  0.00  0.00    +0.000 C 
ATOM     10  C23 UNL     1      24.947  -7.649 -39.508  0.00  0.00    +0.000 C 
ATOM     11  C24 UNL     1      26.307  -8.277 -39.953  0.00  0.00    +0.000 C 
ATOM     12  C25 UNL     1      27.383  -7.145 -39.932  0.00  0.00    +0.000 C 
ATOM     13  C26 UNL     1      26.750  -9.430 -38.975  0.00  0.00    +0.000 C 
ENDROOT
BRANCH  13  14
ATOM     14  C27 UNL     1      26.836  -9.020 -37.510  0.00  0.00    +0.000 C 
ATOM     15  C28 UNL     1      25.865  -9.211 -36.609  0.00  0.00    +0.000 C 
BRANCH  15  16
ATOM     16  C29 UNL     1      26.020  -8.748 -35.221  0.00  0.00    +0.000 C 
ATOM     17  C30 UNL     1      27.159  -8.752 -34.531  0.00  0.00    +0.000 C 
ATOM     18  C31 UNL     1      26.873  -8.149 -33.216  0.00  0.00    +0.000 C 
ATOM     19  C32 UNL     1      27.731  -7.858 -32.232  0.00  0.00    +0.000 C 
ATOM     20  O5  UNL     1      25.525  -7.825 -33.141  0.00  0.00    +0.000 OA
ATOM     21  C42 UNL     1      24.984  -8.179 -34.364  0.00  0.00    +0.000 C 
ATOM     22  O6  UNL     1      23.767  -8.039 -34.661  0.00  0.00    +0.000 OA
BRANCH  19  23
ATOM     23  C33 UNL     1      29.195  -8.081 -32.284  0.00  0.00    +0.000 C 
ATOM     24  C34 UNL     1      30.153  -6.955 -31.991  0.00  0.00    +0.000 C 
ATOM     25  C35 UNL     1      29.627  -9.297 -32.670  0.00  0.00    +0.000 C 
BRANCH  25  26
ATOM     26  C36 UNL     1      31.069  -9.680 -32.897  0.00  0.00    +0.000 C 
BRANCH  26  27
ATOM     27  C37 UNL     1      31.529  -9.214 -34.289  0.00  0.00    +0.000 C 
BRANCH  27  28
ATOM     28  C38 UNL     1      30.414  -9.292 -35.339  0.00  0.00    +0.000 C 
BRANCH  28  29
ATOM     29  C39 UNL     1      30.662  -8.353 -36.488  0.00  0.00    +0.000 C 
ATOM     30  C40 UNL     1      29.851  -7.314 -36.733  0.00  0.00    +0.000 C 
ATOM     31  C41 UNL     1      30.117  -6.378 -37.867  0.00  0.00    +0.000 C 
ENDBRANCH  28  29
ENDBRANCH  27  28
ENDBRANCH  26  27
ENDBRANCH  25  26
ENDBRANCH  19  23
ENDBRANCH  15  16
ENDBRANCH  13  14
BRANCH   6  32
ATOM     32  C8  UNL     1      25.651  -6.839 -42.872  0.00  0.00    +0.000 C 
BRANCH  32  33
ATOM     33  O1  UNL     1      25.664  -6.771 -44.294  0.00  0.00    +0.000 OA
BRANCH  33  34
ATOM     34  C9  UNL     1      26.836  -6.652 -45.045  0.00  0.00    +0.000 C 
ATOM     35  O2  UNL     1      27.960  -6.685 -44.471  0.00  0.00    +0.000 OA
BRANCH  34  36
ATOM     36  C10 UNL     1      26.753  -6.479 -46.512  0.00  0.00    +0.000 A 
ATOM     37  C11 UNL     1      27.870  -6.046 -47.243  0.00  0.00    +0.000 A 
ATOM     38  C12 UNL     1      27.782  -5.883 -48.628  0.00  0.00    +0.000 A 
ATOM     39  C13 UNL     1      26.580  -6.173 -49.274  0.00  0.00    +0.000 A 
ATOM     40  N1  UNL     1      25.508  -6.601 -48.557  0.00  0.00    +0.000 NA
ATOM     41  C14 UNL     1      25.565  -6.756 -47.208  0.00  0.00    +0.000 A 
ENDBRANCH  34  36
ENDBRANCH  33  34
ENDBRANCH  32  33
ENDBRANCH   6  32
BRANCH   8  42
ATOM     42  O3  UNL     1      23.138  -6.797 -41.898  0.00  0.00    +0.000 OA
BRANCH  42  43
ATOM     43  C16 UNL     1      21.767  -6.557 -42.043  0.00  0.00    +0.000 C 
ATOM     44  O4  UNL     1      21.057  -6.294 -41.033  0.00  0.00    +0.000 OA
BRANCH  43  45
ATOM     45  C17 UNL     1      21.156  -6.628 -43.387  0.00  0.00    +0.000 A 
ATOM     46  C18 UNL     1      19.773  -6.450 -43.559  0.00  0.00    +0.000 A 
ATOM     47  C19 UNL     1      19.208  -6.549 -44.831  0.00  0.00    +0.000 A 
ATOM     48  C20 UNL     1      20.029  -6.826 -45.927  0.00  0.00    +0.000 A 
ATOM     49  N2  UNL     1      21.365  -7.000 -45.747  0.00  0.00    +0.000 NA
ATOM     50  C21 UNL     1      21.942  -6.908 -44.519  0.00  0.00    +0.000 A 
ENDBRANCH  43  45
ENDBRANCH  42  43
ENDBRANCH   8  42
TORSDOF 14
ENDMDL
MODEL 5
REMARK VINA RESULT:    -5.632      3.056     10.484
REMARK INTER + INTRA:         -12.709
REMARK INTER:                  -9.621
REMARK INTRA:                  -3.088
REMARK UNBOUND:                -2.468
REMARK  Name = resultss/4CJN/ligands/lig_101_t0.pdb
REMARK  18 active torsions:
REMARK  status: ('A' for Active; 'I' for Inactive)
REMARK    1  A    between atoms: C6_6  and  C7_7
REMARK    2  A    between atoms: C6_6  and  C8_8
REMARK    3  A    between atoms: C8_8  and  O1_9
REMARK    4  A    between atoms: O1_9  and  C9_10
REMARK    5  A    between atoms: C9_10  and  C10_12
REMARK    6  A    between atoms: C15_18  and  O3_19
REMARK    7  A    between atoms: O3_19  and  C16_20
REMARK    8  A    between atoms: C16_20  and  C17_22
REMARK    9  A    between atoms: C24_30  and  C25_31
REMARK   10  A    between atoms: C26_32  and  C27_33
REMARK   11  A    between atoms: C28_34  and  C29_35
REMARK   12  A    between atoms: C32_38  and  C33_39
REMARK   13  A    between atoms: C33_39  and  C34_40
REMARK   14  A    between atoms: C35_41  and  C36_42
REMARK   15  A    between atoms: C36_42  and  C37_43
REMARK   16  A    between atoms: C37_43  and  C38_44
REMARK   17  A    between atoms: C38_44  and  C39_45
REMARK   18  A    between atoms: C40_46  and  C41_47
REMARK                            x       y       z     vdW  Elec       q    Type
REMARK                         _______ _______ _______ _____ _____    ______ ____
ROOT
ATOM      1  C1  UNL     1      29.595 -11.133 -41.441  0.00  0.00    +0.000 C 
ATOM      2  C2  UNL     1      28.611 -10.244 -41.203  0.00  0.00    +0.000 C 
ATOM      3  C3  UNL     1      27.600 -10.028 -42.323  0.00  0.00    +0.000 C 
ATOM      4  C4  UNL     1      26.676  -8.805 -42.154  0.00  0.00    +0.000 C 
ATOM      5  C5  UNL     1      26.256  -8.617 -40.677  0.00  0.00    +0.000 C 
ATOM      6  C6  UNL     1      25.002  -7.696 -40.356  0.00  0.00    +0.000 C 
ATOM      7  C7  UNL     1      23.773  -8.194 -41.169  0.00  0.00    +0.000 C 
ATOM      8  C15 UNL     1      24.630  -7.829 -38.810  0.00  0.00    +0.000 C 
ATOM      9  C22 UNL     1      25.730  -8.493 -37.956  0.00  0.00    +0.000 C 
ATOM     10  C23 UNL     1      27.110  -7.965 -38.337  0.00  0.00    +0.000 C 
ATOM     11  C24 UNL     1      27.537  -8.375 -39.783  0.00  0.00    +0.000 C 
ATOM     12  C25 UNL     1      28.458  -7.246 -40.345  0.00  0.00    +0.000 C 
ATOM     13  C26 UNL     1      28.331  -9.736 -39.779  0.00  0.00    +0.000 C 
ENDROOT
BRANCH  13  14
ATOM     14  C27 UNL     1      29.550  -9.755 -38.865  0.00  0.00    +0.000 C 
ATOM     15  C28 UNL     1      30.434  -8.756 -38.756  0.00  0.00    +0.000 C 
BRANCH  15  16
ATOM     16  C29 UNL     1      31.605  -8.876 -37.873  0.00  0.00    +0.000 C 
ATOM     17  C30 UNL     1      31.576  -8.812 -36.544  0.00  0.00    +0.000 C 
ATOM     18  C31 UNL     1      32.953  -9.043 -36.068  0.00  0.00    +0.000 C 
ATOM     19  C32 UNL     1      33.386  -9.164 -34.808  0.00  0.00    +0.000 C 
ATOM     20  O5  UNL     1      33.796  -9.207 -37.159  0.00  0.00    +0.000 OA
ATOM     21  C42 UNL     1      32.988  -9.114 -38.277  0.00  0.00    +0.000 C 
ATOM     22  O6  UNL     1      33.412  -9.205 -39.460  0.00  0.00    +0.000 OA
BRANCH  19  23
ATOM     23  C33 UNL     1      32.528  -9.103 -33.602  0.00  0.00    +0.000 C 
ATOM     24  C34 UNL     1      32.116 -10.366 -32.888  0.00  0.00    +0.000 C 
ATOM     25  C35 UNL     1      32.078  -7.893 -33.217  0.00  0.00    +0.000 C 
BRANCH  25  26
ATOM     26  C36 UNL     1      31.104  -7.641 -32.093  0.00  0.00    +0.000 C 
BRANCH  26  27
ATOM     27  C37 UNL     1      29.964  -6.726 -32.572  0.00  0.00    +0.000 C 
BRANCH  27  28
ATOM     28  C38 UNL     1      28.585  -7.385 -32.453  0.00  0.00    +0.000 C 
BRANCH  28  29
ATOM     29  C39 UNL     1      28.146  -7.999 -33.754  0.00  0.00    +0.000 C 
ATOM     30  C40 UNL     1      28.338  -9.301 -34.016  0.00  0.00    +0.000 C 
ATOM     31  C41 UNL     1      27.882  -9.903 -35.305  0.00  0.00    +0.000 C 
ENDBRANCH  28  29
ENDBRANCH  27  28
ENDBRANCH  26  27
ENDBRANCH  25  26
ENDBRANCH  19  23
ENDBRANCH  15  16
ENDBRANCH  13  14
BRANCH   6  32
ATOM     32  C8  UNL     1      25.220  -6.201 -40.742  0.00  0.00    +0.000 C 
BRANCH  32  33
ATOM     33  O1  UNL     1      24.577  -5.884 -41.973  0.00  0.00    +0.000 OA
BRANCH  33  34
ATOM     34  C9  UNL     1      25.176  -6.074 -43.221  0.00  0.00    +0.000 C 
ATOM     35  O2  UNL     1      26.416  -5.883 -43.362  0.00  0.00    +0.000 OA
BRANCH  34  36
ATOM     36  C10 UNL     1      24.348  -6.488 -44.375  0.00  0.00    +0.000 A 
ATOM     37  C11 UNL     1      22.981  -6.172 -44.421  0.00  0.00    +0.000 A 
ATOM     38  C12 UNL     1      22.206  -6.569 -45.514  0.00  0.00    +0.000 A 
ATOM     39  C13 UNL     1      22.810  -7.263 -46.563  0.00  0.00    +0.000 A 
ATOM     40  N1  UNL     1      24.136  -7.554 -46.512  0.00  0.00    +0.000 NA
ATOM     41  C14 UNL     1      24.909  -7.190 -45.455  0.00  0.00    +0.000 A 
ENDBRANCH  34  36
ENDBRANCH  33  34
ENDBRANCH  32  33
ENDBRANCH   6  32
BRANCH   8  42
ATOM     42  O3  UNL     1      24.332  -6.556 -38.222  0.00  0.00    +0.000 OA
BRANCH  42  43
ATOM     43  C16 UNL     1      23.306  -6.329 -37.298  0.00  0.00    +0.000 C 
ATOM     44  O4  UNL     1      22.178  -5.918 -37.687  0.00  0.00    +0.000 OA
BRANCH  43  45
ATOM     45  C17 UNL     1      23.560  -6.561 -35.860  0.00  0.00    +0.000 A 
ATOM     46  C18 UNL     1      22.595  -7.181 -35.050  0.00  0.00    +0.000 A 
ATOM     47  C19 UNL     1      22.839  -7.367 -33.688  0.00  0.00    +0.000 A 
ATOM     48  C20 UNL     1      24.048  -6.930 -33.143  0.00  0.00    +0.000 A 
ATOM     49  N2  UNL     1      24.973  -6.326 -33.936  0.00  0.00    +0.000 NA
ATOM     50  C21 UNL     1      24.762  -6.134 -35.266  0.00  0.00    +0.000 A 
ENDBRANCH  43  45
ENDBRANCH  42  43
ENDBRANCH   8  42
TORSDOF 14
ENDMDL
MODEL 6
REMARK VINA RESULT:    -4.994      4.141      7.583
REMARK INTER + INTRA:         -11.548
REMARK INTER:                  -8.963
REMARK INTRA:                  -2.585
REMARK UNBOUND:                -2.468
REMARK  Name = resultss/4CJN/ligands/lig_101_t0.pdb
REMARK  18 active torsions:
REMARK  status: ('A' for Active; 'I' for Inactive)
REMARK    1  A    between atoms: C6_6  and  C7_7
REMARK    2  A    between atoms: C6_6  and  C8_8
REMARK    3  A    between atoms: C8_8  and  O1_9
REMARK    4  A    between atoms: O1_9  and  C9_10
REMARK    5  A    between atoms: C9_10  and  C10_12
REMARK    6  A    between atoms: C15_18  and  O3_19
REMARK    7  A    between atoms: O3_19  and  C16_20
REMARK    8  A    between atoms: C16_20  and  C17_22
REMARK    9  A    between atoms: C24_30  and  C25_31
REMARK   10  A    between atoms: C26_32  and  C27_33
REMARK   11  A    between atoms: C28_34  and  C29_35
REMARK   12  A    between atoms: C32_38  and  C33_39
REMARK   13  A    between atoms: C33_39  and  C34_40
REMARK   14  A    between atoms: C35_41  and  C36_42
REMARK   15  A    between atoms: C36_42  and  C37_43
REMARK   16  A    between atoms: C37_43  and  C38_44
REMARK   17  A    between atoms: C38_44  and  C39_45
REMARK   18  A    between atoms: C40_46  and  C41_47
REMARK                            x       y       z     vdW  Elec       q    Type
REMARK                         _______ _______ _______ _____ _____    ______ ____
ROOT
ATOM      1  C1  UNL     1      23.448  -7.784 -36.132  0.00  0.00    +0.000 C 
ATOM      2  C2  UNL     1      24.745  -7.934 -35.801  0.00  0.00    +0.000 C 
ATOM      3  C3  UNL     1      25.041  -8.310 -34.354  0.00  0.00    +0.000 C 
ATOM      4  C4  UNL     1      26.516  -8.179 -33.925  0.00  0.00    +0.000 C 
ATOM      5  C5  UNL     1      27.473  -8.620 -35.057  0.00  0.00    +0.000 C 
ATOM      6  C6  UNL     1      28.981  -8.957 -34.688  0.00  0.00    +0.000 C 
ATOM      7  C7  UNL     1      29.011 -10.026 -33.559  0.00  0.00    +0.000 C 
ATOM      8  C15 UNL     1      29.707  -9.592 -35.959  0.00  0.00    +0.000 C 
ATOM      9  C22 UNL     1      28.934  -9.406 -37.281  0.00  0.00    +0.000 C 
ATOM     10  C23 UNL     1      28.369  -7.992 -37.388  0.00  0.00    +0.000 C 
ATOM     11  C24 UNL     1      27.261  -7.701 -36.325  0.00  0.00    +0.000 C 
ATOM     12  C25 UNL     1      27.320  -6.179 -35.981  0.00  0.00    +0.000 C 
ATOM     13  C26 UNL     1      25.829  -8.050 -36.884  0.00  0.00    +0.000 C 
ENDROOT
BRANCH  13  14
ATOM     14  C27 UNL     1      25.474  -7.354 -38.192  0.00  0.00    +0.000 C 
ATOM     15  C28 UNL     1      24.927  -7.962 -39.252  0.00  0.00    +0.000 C 
BRANCH  15  16
ATOM     16  C29 UNL     1      24.651  -7.217 -40.491  0.00  0.00    +0.000 C 
ATOM     17  C30 UNL     1      25.421  -7.215 -41.576  0.00  0.00    +0.000 C 
ATOM     18  C31 UNL     1      24.739  -6.394 -42.593  0.00  0.00    +0.000 C 
ATOM     19  C32 UNL     1      25.093  -6.186 -43.866  0.00  0.00    +0.000 C 
ATOM     20  O5  UNL     1      23.563  -5.883 -42.059  0.00  0.00    +0.000 OA
ATOM     21  C42 UNL     1      23.487  -6.381 -40.772  0.00  0.00    +0.000 C 
ATOM     22  O6  UNL     1      22.548  -6.120 -39.972  0.00  0.00    +0.000 OA
BRANCH  19  23
ATOM     23  C33 UNL     1      26.276  -6.781 -44.530  0.00  0.00    +0.000 C 
ATOM     24  C34 UNL     1      26.345  -6.880 -46.033  0.00  0.00    +0.000 C 
ATOM     25  C35 UNL     1      27.243  -7.289 -43.742  0.00  0.00    +0.000 C 
BRANCH  25  26
ATOM     26  C36 UNL     1      28.461  -8.037 -44.226  0.00  0.00    +0.000 C 
BRANCH  26  27
ATOM     27  C37 UNL     1      29.367  -8.401 -43.037  0.00  0.00    +0.000 C 
BRANCH  27  28
ATOM     28  C38 UNL     1      29.724  -9.892 -43.000  0.00  0.00    +0.000 C 
BRANCH  28  29
ATOM     29  C39 UNL     1      28.973 -10.620 -41.919  0.00  0.00    +0.000 C 
ATOM     30  C40 UNL     1      28.070  -9.995 -41.149  0.00  0.00    +0.000 C 
ATOM     31  C41 UNL     1      27.318 -10.732 -40.089  0.00  0.00    +0.000 C 
ENDBRANCH  28  29
ENDBRANCH  27  28
ENDBRANCH  26  27
ENDBRANCH  25  26
ENDBRANCH  19  23
ENDBRANCH  15  16
ENDBRANCH  13  14
BRANCH   6  32
ATOM     32  C8  UNL     1      29.777  -7.724 -34.161  0.00  0.00    +0.000 C 
BRANCH  32  33
ATOM     33  O1  UNL     1      30.084  -7.859 -32.777  0.00  0.00    +0.000 OA
BRANCH  33  34
ATOM     34  C9  UNL     1      31.336  -7.553 -32.236  0.00  0.00    +0.000 C 
ATOM     35  O2  UNL     1      31.585  -6.379 -31.845  0.00  0.00    +0.000 OA
BRANCH  34  36
ATOM     36  C10 UNL     1      32.368  -8.608 -32.136  0.00  0.00    +0.000 A 
ATOM     37  C11 UNL     1      33.118  -8.761 -30.959  0.00  0.00    +0.000 A 
ATOM     38  C12 UNL     1      34.092  -9.760 -30.874  0.00  0.00    +0.000 A 
ATOM     39  C13 UNL     1      34.294 -10.612 -31.960  0.00  0.00    +0.000 A 
ATOM     40  N1  UNL     1      33.554 -10.460 -33.089  0.00  0.00    +0.000 NA
ATOM     41  C14 UNL     1      32.610  -9.490 -33.203  0.00  0.00    +0.000 A 
ENDBRANCH  34  36
ENDBRANCH  33  34
ENDBRANCH  32  33
ENDBRANCH   6  32
BRANCH   8  42
ATOM     42  O3  UNL     1      31.023  -9.055 -36.146  0.00  0.00    +0.000 OA
BRANCH  42  43
ATOM     43  C16 UNL     1      31.405  -8.246 -37.221  0.00  0.00    +0.000 C 
ATOM     44  O4  UNL     1      31.091  -7.023 -37.241  0.00  0.00    +0.000 OA
BRANCH  43  45
ATOM     45  C17 UNL     1      32.168  -8.838 -38.340  0.00  0.00    +0.000 A 
ATOM     46  C18 UNL     1      31.640  -8.857 -39.641  0.00  0.00    +0.000 A 
ATOM     47  C19 UNL     1      32.362  -9.445 -40.681  0.00  0.00    +0.000 A 
ATOM     48  C20 UNL     1      33.609 -10.014 -40.413  0.00  0.00    +0.000 A 
ATOM     49  N2  UNL     1      34.108  -9.994 -39.150  0.00  0.00    +0.000 NA
ATOM     50  C21 UNL     1      33.427  -9.426 -38.118  0.00  0.00    +0.000 A 
ENDBRANCH  43  45
ENDBRANCH  42  43
ENDBRANCH   8  42
TORSDOF 14
ENDMDL
MODEL 7
REMARK VINA RESULT:    -4.765      2.435      4.063
REMARK INTER + INTRA:         -11.133
REMARK INTER:                  -7.283
REMARK INTRA:                  -3.849
REMARK UNBOUND:                -2.468
REMARK  Name = resultss/4CJN/ligands/lig_101_t0.pdb
REMARK  18 active torsions:
REMARK  status: ('A' for Active; 'I' for Inactive)
REMARK    1  A    between atoms: C6_6  and  C7_7
REMARK    2  A    between atoms: C6_6  and  C8_8
REMARK    3  A    between atoms: C8_8  and  O1_9
REMARK    4  A    between atoms: O1_9  and  C9_10
REMARK    5  A    between atoms: C9_10  and  C10_12
REMARK    6  A    between atoms: C15_18  and  O3_19
REMARK    7  A    between atoms: O3_19  and  C16_20
REMARK    8  A    between atoms: C16_20  and  C17_22
REMARK    9  A    between atoms: C24_30  and  C25_31
REMARK   10  A    between atoms: C26_32  and  C27_33
REMARK   11  A    between atoms: C28_34  and  C29_35
REMARK   12  A    between atoms: C32_38  and  C33_39
REMARK   13  A    between atoms: C33_39  and  C34_40
REMARK   14  A    between atoms: C35_41  and  C36_42
REMARK   15  A    between atoms: C36_42  and  C37_43
REMARK   16  A    between atoms: C37_43  and  C38_44
REMARK   17  A    between atoms: C38_44  and  C39_45
REMARK   18  A    between atoms: C40_46  and  C41_47
REMARK                            x       y       z     vdW  Elec       q    Type
REMARK                         _______ _______ _______ _____ _____    ______ ____
ROOT
ATOM      1  C1  UNL     1      30.562 -10.149 -44.613  0.00  0.00    +0.000 C 
ATOM      2  C2  UNL     1      30.417  -9.848 -43.308  0.00  0.00    +0.000 C 
ATOM      3  C3  UNL     1      31.410 -10.490 -42.346  0.00  0.00    +0.000 C 
ATOM      4  C4  UNL     1      31.047 -10.381 -40.851  0.00  0.00    +0.000 C 
ATOM      5  C5  UNL     1      30.420  -9.006 -40.523  0.00  0.00    +0.000 C 
ATOM      6  C6  UNL     1      30.366  -8.539 -39.005  0.00  0.00    +0.000 C 
ATOM      7  C7  UNL     1      31.795  -8.599 -38.394  0.00  0.00    +0.000 C 
ATOM      8  C15 UNL     1      29.888  -7.018 -38.936  0.00  0.00    +0.000 C 
ATOM      9  C22 UNL     1      29.272  -6.495 -40.251  0.00  0.00    +0.000 C 
ATOM     10  C23 UNL     1      28.337  -7.532 -40.866  0.00  0.00    +0.000 C 
ATOM     11  C24 UNL     1      29.089  -8.812 -41.353  0.00  0.00    +0.000 C 
ATOM     12  C25 UNL     1      28.112 -10.021 -41.211  0.00  0.00    +0.000 C 
ATOM     13  C26 UNL     1      29.529  -8.676 -42.860  0.00  0.00    +0.000 C 
ENDROOT
BRANCH  13  14
ATOM     14  C27 UNL     1      28.394  -8.357 -43.824  0.00  0.00    +0.000 C 
ATOM     15  C28 UNL     1      28.223  -7.178 -44.434  0.00  0.00    +0.000 C 
BRANCH  15  16
ATOM     16  C29 UNL     1      27.074  -6.946 -45.323  0.00  0.00    +0.000 C 
ATOM     17  C30 UNL     1      25.796  -6.967 -44.951  0.00  0.00    +0.000 C 
ATOM     18  C31 UNL     1      24.991  -6.624 -46.138  0.00  0.00    +0.000 C 
ATOM     19  C32 UNL     1      23.670  -6.431 -46.218  0.00  0.00    +0.000 C 
ATOM     20  O5  UNL     1      25.833  -6.437 -47.227  0.00  0.00    +0.000 OA
ATOM     21  C42 UNL     1      27.116  -6.624 -46.747  0.00  0.00    +0.000 C 
ATOM     22  O6  UNL     1      28.152  -6.543 -47.461  0.00  0.00    +0.000 OA
BRANCH  19  23
ATOM     23  C33 UNL     1      22.726  -6.512 -45.078  0.00  0.00    +0.000 C 
ATOM     24  C34 UNL     1      21.341  -7.076 -45.268  0.00  0.00    +0.000 C 
ATOM     25  C35 UNL     1      23.129  -6.002 -43.899  0.00  0.00    +0.000 C 
BRANCH  25  26
ATOM     26  C36 UNL     1      22.275  -5.885 -42.661  0.00  0.00    +0.000 C 
BRANCH  26  27
ATOM     27  C37 UNL     1      22.721  -6.914 -41.608  0.00  0.00    +0.000 C 
BRANCH  27  28
ATOM     28  C38 UNL     1      24.246  -7.045 -41.517  0.00  0.00    +0.000 C 
BRANCH  28  29
ATOM     29  C39 UNL     1      24.661  -7.972 -40.407  0.00  0.00    +0.000 C 
ATOM     30  C40 UNL     1      24.501  -7.639 -39.118  0.00  0.00    +0.000 C 
ATOM     31  C41 UNL     1      24.903  -8.575 -38.024  0.00  0.00    +0.000 C 
ENDBRANCH  28  29
ENDBRANCH  27  28
ENDBRANCH  26  27
ENDBRANCH  25  26
ENDBRANCH  19  23
ENDBRANCH  15  16
ENDBRANCH  13  14
BRANCH   6  32
ATOM     32  C8  UNL     1      29.458  -9.441 -38.115  0.00  0.00    +0.000 C 
BRANCH  32  33
ATOM     33  O1  UNL     1      30.173  -9.953 -36.995  0.00  0.00    +0.000 OA
BRANCH  33  34
ATOM     34  C9  UNL     1      29.716  -9.845 -35.679  0.00  0.00    +0.000 C 
ATOM     35  O2  UNL     1      28.487  -9.982 -35.424  0.00  0.00    +0.000 OA
BRANCH  34  36
ATOM     36  C10 UNL     1      30.677  -9.561 -34.591  0.00  0.00    +0.000 A 
ATOM     37  C11 UNL     1      30.273  -9.631 -33.248  0.00  0.00    +0.000 A 
ATOM     38  C12 UNL     1      31.187  -9.359 -32.226  0.00  0.00    +0.000 A 
ATOM     39  C13 UNL     1      32.504  -9.038 -32.555  0.00  0.00    +0.000 A 
ATOM     40  N1  UNL     1      32.885  -8.983 -33.859  0.00  0.00    +0.000 NA
ATOM     41  C14 UNL     1      32.013  -9.230 -34.871  0.00  0.00    +0.000 A 
ENDBRANCH  34  36
ENDBRANCH  33  34
ENDBRANCH  32  33
ENDBRANCH   6  32
BRANCH   8  42
ATOM     42  O3  UNL     1      28.928  -6.807 -37.893  0.00  0.00    +0.000 OA
BRANCH  42  43
ATOM     43  C16 UNL     1      29.243  -6.386 -36.597  0.00  0.00    +0.000 C 
ATOM     44  O4  UNL     1      30.374  -5.884 -36.348  0.00  0.00    +0.000 OA
BRANCH  43  45
ATOM     45  C17 UNL     1      28.245  -6.546 -35.518  0.00  0.00    +0.000 A 
ATOM     46  C18 UNL     1      26.892  -6.769 -35.818  0.00  0.00    +0.000 A 
ATOM     47  C19 UNL     1      25.957  -6.890 -34.787  0.00  0.00    +0.000 A 
ATOM     48  C20 UNL     1      26.383  -6.785 -33.461  0.00  0.00    +0.000 A 
ATOM     49  N2  UNL     1      27.695  -6.564 -33.183  0.00  0.00    +0.000 NA
ATOM     50  C21 UNL     1      28.626  -6.444 -34.167  0.00  0.00    +0.000 A 
ENDBRANCH  43  45
ENDBRANCH  42  43
ENDBRANCH   8  42
TORSDOF 14
ENDMDL
MODEL 8
REMARK VINA RESULT:    -4.625      4.875      9.067
REMARK INTER + INTRA:         -10.878
REMARK INTER:                  -7.954
REMARK INTRA:                  -2.924
REMARK UNBOUND:                -2.468
REMARK  Name = resultss/4CJN/ligands/lig_101_t0.pdb
REMARK  18 active torsions:
REMARK  status: ('A' for Active; 'I' for Inactive)
REMARK    1  A    between atoms: C6_6  and  C7_7
REMARK    2  A    between atoms: C6_6  and  C8_8
REMARK    3  A    between atoms: C8_8  and  O1_9
REMARK    4  A    between atoms: O1_9  and  C9_10
REMARK    5  A    between atoms: C9_10  and  C10_12
REMARK    6  A    between atoms: C15_18  and  O3_19
REMARK    7  A    between atoms: O3_19  and  C16_20
REMARK    8  A    between atoms: C16_20  and  C17_22
REMARK    9  A    between atoms: C24_30  and  C25_31
REMARK   10  A    between atoms: C26_32  and  C27_33
REMARK   11  A    between atoms: C28_34  and  C29_35
REMARK   12  A    between atoms: C32_38  and  C33_39
REMARK   13  A    between atoms: C33_39  and  C34_40
REMARK   14  A    between atoms: C35_41  and  C36_42
REMARK   15  A    between atoms: C36_42  and  C37_43
REMARK   16  A    between atoms: C37_43  and  C38_44
REMARK   17  A    between atoms: C38_44  and  C39_45
REMARK   18  A    between atoms: C40_46  and  C41_47
REMARK                            x       y       z     vdW  Elec       q    Type
REMARK                         _______ _______ _______ _____ _____    ______ ____
ROOT
ATOM      1  C1  UNL     1      24.630  -8.632 -39.912  0.00  0.00    +0.000 C 
ATOM      2  C2  UNL     1      25.343  -8.499 -38.777  0.00  0.00    +0.000 C 
ATOM      3  C3  UNL     1      24.609  -7.917 -37.575  0.00  0.00    +0.000 C 
ATOM      4  C4  UNL     1      25.506  -7.494 -36.393  0.00  0.00    +0.000 C 
ATOM      5  C5  UNL     1      26.673  -8.488 -36.189  0.00  0.00    +0.000 C 
ATOM      6  C6  UNL     1      27.449  -8.473 -34.802  0.00  0.00    +0.000 C 
ATOM      7  C7  UNL     1      26.431  -8.646 -33.639  0.00  0.00    +0.000 C 
ATOM      8  C15 UNL     1      28.449  -9.714 -34.743  0.00  0.00    +0.000 C 
ATOM      9  C22 UNL     1      28.689 -10.392 -36.108  0.00  0.00    +0.000 C 
ATOM     10  C23 UNL     1      28.874  -9.351 -37.209  0.00  0.00    +0.000 C 
ATOM     11  C24 UNL     1      27.577  -8.525 -37.486  0.00  0.00    +0.000 C 
ATOM     12  C25 UNL     1      28.011  -7.102 -37.957  0.00  0.00    +0.000 C 
ATOM     13  C26 UNL     1      26.702  -9.198 -38.610  0.00  0.00    +0.000 C 
ENDROOT
BRANCH  13  14
ATOM     14  C27 UNL     1      27.436  -9.444 -39.921  0.00  0.00    +0.000 C 
ATOM     15  C28 UNL     1      28.264  -8.569 -40.505  0.00  0.00    +0.000 C 
BRANCH  15  16
ATOM     16  C29 UNL     1      28.903  -8.877 -41.794  0.00  0.00    +0.000 C 
ATOM     17  C30 UNL     1      29.971  -9.654 -41.957  0.00  0.00    +0.000 C 
ATOM     18  C31 UNL     1      30.232  -9.738 -43.406  0.00  0.00    +0.000 C 
ATOM     19  C32 UNL     1      31.143 -10.481 -44.045  0.00  0.00    +0.000 C 
ATOM     20  O5  UNL     1      29.306  -8.957 -44.086  0.00  0.00    +0.000 OA
ATOM     21  C42 UNL     1      28.478  -8.424 -43.115  0.00  0.00    +0.000 C 
ATOM     22  O6  UNL     1      27.516  -7.648 -43.362  0.00  0.00    +0.000 OA
BRANCH  19  23
ATOM     23  C33 UNL     1      32.091 -11.414 -43.392  0.00  0.00    +0.000 C 
ATOM     24  C34 UNL     1      31.777 -12.885 -43.296  0.00  0.00    +0.000 C 
ATOM     25  C35 UNL     1      33.196 -10.887 -42.831  0.00  0.00    +0.000 C 
BRANCH  25  26
ATOM     26  C36 UNL     1      34.216 -11.653 -42.024  0.00  0.00    +0.000 C 
BRANCH  26  27
ATOM     27  C37 UNL     1      34.378 -11.016 -40.633  0.00  0.00    +0.000 C 
BRANCH  27  28
ATOM     28  C38 UNL     1      33.802  -9.597 -40.559  0.00  0.00    +0.000 C 
BRANCH  28  29
ATOM     29  C39 UNL     1      32.964  -9.398 -39.325  0.00  0.00    +0.000 C 
ATOM     30  C40 UNL     1      33.364  -9.845 -38.126  0.00  0.00    +0.000 C 
ATOM     31  C41 UNL     1      32.530  -9.627 -36.905  0.00  0.00    +0.000 C 
ENDBRANCH  28  29
ENDBRANCH  27  28
ENDBRANCH  26  27
ENDBRANCH  25  26
ENDBRANCH  19  23
ENDBRANCH  15  16
ENDBRANCH  13  14
BRANCH   6  32
ATOM     32  C8  UNL     1      28.212  -7.139 -34.538  0.00  0.00    +0.000 C 
BRANCH  32  33
ATOM     33  O1  UNL     1      29.442  -7.095 -35.256  0.00  0.00    +0.000 OA
BRANCH  33  34
ATOM     34  C9  UNL     1      30.570  -6.408 -34.800  0.00  0.00    +0.000 C 
ATOM     35  O2  UNL     1      30.573  -5.891 -33.648  0.00  0.00    +0.000 OA
BRANCH  34  36
ATOM     36  C10 UNL     1      31.755  -6.282 -35.677  0.00  0.00    +0.000 A 
ATOM     37  C11 UNL     1      33.048  -6.268 -35.130  0.00  0.00    +0.000 A 
ATOM     38  C12 UNL     1      34.161  -6.148 -35.967  0.00  0.00    +0.000 A 
ATOM     39  C13 UNL     1      33.973  -6.061 -37.346  0.00  0.00    +0.000 A 
ATOM     40  N1  UNL     1      32.717  -6.086 -37.864  0.00  0.00    +0.000 NA
ATOM     41  C14 UNL     1      31.618  -6.190 -37.072  0.00  0.00    +0.000 A 
ENDBRANCH  34  36
ENDBRANCH  33  34
ENDBRANCH  32  33
ENDBRANCH   6  32
BRANCH   8  42
ATOM     42  O3  UNL     1      29.728  -9.344 -34.211  0.00  0.00    +0.000 OA
BRANCH  42  43
ATOM     43  C16 UNL     1      30.147  -9.599 -32.901  0.00  0.00    +0.000 C 
ATOM     44  O4  UNL     1      29.308  -9.633 -31.959  0.00  0.00    +0.000 OA
BRANCH  43  45
ATOM     45  C17 UNL     1      31.584  -9.815 -32.628  0.00  0.00    +0.000 A 
ATOM     46  C18 UNL     1      32.552  -9.544 -33.609  0.00  0.00    +0.000 A 
ATOM     47  C19 UNL     1      33.902  -9.781 -33.344  0.00  0.00    +0.000 A 
ATOM     48  C20 UNL     1      34.277 -10.288 -32.098  0.00  0.00    +0.000 A 
ATOM     49  N2  UNL     1      33.332 -10.551 -31.158  0.00  0.00    +0.000 NA
ATOM     50  C21 UNL     1      32.010 -10.328 -31.389  0.00  0.00    +0.000 A 
ENDBRANCH  43  45
ENDBRANCH  42  43
ENDBRANCH   8  42
TORSDOF 14
ENDMDL
MODEL 9
REMARK VINA RESULT:    -4.135      4.856      8.958
REMARK INTER + INTRA:          -9.986
REMARK INTER:                 -10.204
REMARK INTRA:                   0.218
REMARK UNBOUND:                -2.468
REMARK  Name = resultss/4CJN/ligands/lig_101_t0.pdb
REMARK  18 active torsions:
REMARK  status: ('A' for Active; 'I' for Inactive)
REMARK    1  A    between atoms: C6_6  and  C7_7
REMARK    2  A    between atoms: C6_6  and  C8_8
REMARK    3  A    between atoms: C8_8  and  O1_9
REMARK    4  A    between atoms: O1_9  and  C9_10
REMARK    5  A    between atoms: C9_10  and  C10_12
REMARK    6  A    between atoms: C15_18  and  O3_19
REMARK    7  A    between atoms: O3_19  and  C16_20
REMARK    8  A    between atoms: C16_20  and  C17_22
REMARK    9  A    between atoms: C24_30  and  C25_31
REMARK   10  A    between atoms: C26_32  and  C27_33
REMARK   11  A    between atoms: C28_34  and  C29_35
REMARK   12  A    between atoms: C32_38  and  C33_39
REMARK   13  A    between atoms: C33_39  and  C34_40
REMARK   14  A    between atoms: C35_41  and  C36_42
REMARK   15  A    between atoms: C36_42  and  C37_43
REMARK   16  A    between atoms: C37_43  and  C38_44
REMARK   17  A    between atoms: C38_44  and  C39_45
REMARK   18  A    between atoms: C40_46  and  C41_47
REMARK                            x       y       z     vdW  Elec       q    Type
REMARK                         _______ _______ _______ _____ _____    ______ ____
ROOT
ATOM      1  C1  UNL     1      24.730  -8.957 -39.981  0.00  0.00    +0.000 C 
ATOM      2  C2  UNL     1      25.362  -8.748 -38.810  0.00  0.00    +0.000 C 
ATOM      3  C3  UNL     1      24.504  -8.258 -37.649  0.00  0.00    +0.000 C 
ATOM      4  C4  UNL     1      25.282  -7.741 -36.422  0.00  0.00    +0.000 C 
ATOM      5  C5  UNL     1      26.542  -8.597 -36.154  0.00  0.00    +0.000 C 
ATOM      6  C6  UNL     1      27.236  -8.501 -34.728  0.00  0.00    +0.000 C 
ATOM      7  C7  UNL     1      26.184  -8.793 -33.621  0.00  0.00    +0.000 C 
ATOM      8  C15 UNL     1      28.366  -9.621 -34.613  0.00  0.00    +0.000 C 
ATOM      9  C22 UNL     1      28.753 -10.261 -35.962  0.00  0.00    +0.000 C 
ATOM     10  C23 UNL     1      28.878  -9.202 -37.053  0.00  0.00    +0.000 C 
ATOM     11  C24 UNL     1      27.512  -8.527 -37.401  0.00  0.00    +0.000 C 
ATOM     12  C25 UNL     1      27.807  -7.062 -37.851  0.00  0.00    +0.000 C 
ATOM     13  C26 UNL     1      26.780  -9.291 -38.568  0.00  0.00    +0.000 C 
ENDROOT
BRANCH  13  14
ATOM     14  C27 UNL     1      27.607  -9.446 -39.838  0.00  0.00    +0.000 C 
ATOM     15  C28 UNL     1      27.803  -8.478 -40.741  0.00  0.00    +0.000 C 
BRANCH  15  16
ATOM     16  C29 UNL     1      28.587  -8.729 -41.961  0.00  0.00    +0.000 C 
ATOM     17  C30 UNL     1      29.731  -9.406 -42.014  0.00  0.00    +0.000 C 
ATOM     18  C31 UNL     1      30.135  -9.469 -43.430  0.00  0.00    +0.000 C 
ATOM     19  C32 UNL     1      31.166 -10.128 -43.972  0.00  0.00    +0.000 C 
ATOM     20  O5  UNL     1      29.213  -8.776 -44.203  0.00  0.00    +0.000 OA
ATOM     21  C42 UNL     1      28.251  -8.319 -43.321  0.00  0.00    +0.000 C 
ATOM     22  O6  UNL     1      27.251  -7.634 -43.666  0.00  0.00    +0.000 OA
BRANCH  19  23
ATOM     23  C33 UNL     1      32.128 -10.969 -43.222  0.00  0.00    +0.000 C 
ATOM     24  C34 UNL     1      32.929 -10.390 -42.084  0.00  0.00    +0.000 C 
ATOM     25  C35 UNL     1      32.306 -12.236 -43.642  0.00  0.00    +0.000 C 
BRANCH  25  26
ATOM     26  C36 UNL     1      33.320 -13.205 -43.086  0.00  0.00    +0.000 C 
BRANCH  26  27
ATOM     27  C37 UNL     1      34.311 -13.627 -44.185  0.00  0.00    +0.000 C 
BRANCH  27  28
ATOM     28  C38 UNL     1      33.718 -13.508 -45.594  0.00  0.00    +0.000 C 
BRANCH  28  29
ATOM     29  C39 UNL     1      34.355 -14.479 -46.552  0.00  0.00    +0.000 C 
ATOM     30  C40 UNL     1      33.625 -15.376 -47.231  0.00  0.00    +0.000 C 
ATOM     31  C41 UNL     1      34.267 -16.323 -48.191  0.00  0.00    +0.000 C 
ENDBRANCH  28  29
ENDBRANCH  27  28
ENDBRANCH  26  27
ENDBRANCH  25  26
ENDBRANCH  19  23
ENDBRANCH  15  16
ENDBRANCH  13  14
BRANCH   6  32
ATOM     32  C8  UNL     1      27.828  -7.090 -34.425  0.00  0.00    +0.000 C 
BRANCH  32  33
ATOM     33  O1  UNL     1      29.215  -7.167 -34.111  0.00  0.00    +0.000 OA
BRANCH  33  34
ATOM     34  C9  UNL     1      30.201  -6.479 -34.824  0.00  0.00    +0.000 C 
ATOM     35  O2  UNL     1      29.950  -6.030 -35.977  0.00  0.00    +0.000 OA
BRANCH  34  36
ATOM     36  C10 UNL     1      31.540  -6.289 -34.224  0.00  0.00    +0.000 A 
ATOM     37  C11 UNL     1      31.700  -6.274 -32.830  0.00  0.00    +0.000 A 
ATOM     38  C12 UNL     1      32.969  -6.093 -32.272  0.00  0.00    +0.000 A 
ATOM     39  C13 UNL     1      34.071  -5.947 -33.114  0.00  0.00    +0.000 A 
ATOM     40  N1  UNL     1      33.905  -5.974 -34.462  0.00  0.00    +0.000 NA
ATOM     41  C14 UNL     1      32.681  -6.137 -35.030  0.00  0.00    +0.000 A 
ENDBRANCH  34  36
ENDBRANCH  33  34
ENDBRANCH  32  33
ENDBRANCH   6  32
BRANCH   8  42
ATOM     42  O3  UNL     1      29.564  -9.111 -34.014  0.00  0.00    +0.000 OA
BRANCH  42  43
ATOM     43  C16 UNL     1      30.048  -9.489 -32.757  0.00  0.00    +0.000 C 
ATOM     44  O4  UNL     1      29.322  -9.365 -31.732  0.00  0.00    +0.000 OA
BRANCH  43  45
ATOM     45  C17 UNL     1      31.421 -10.024 -32.638  0.00  0.00    +0.000 A 
ATOM     46  C18 UNL     1      31.793 -10.816 -31.540  0.00  0.00    +0.000 A 
ATOM     47  C19 UNL     1      33.101 -11.289 -31.429  0.00  0.00    +0.000 A 
ATOM     48  C20 UNL     1      34.033 -10.966 -32.418  0.00  0.00    +0.000 A 
ATOM     49  N2  UNL     1      33.663 -10.195 -33.474  0.00  0.00    +0.000 NA
ATOM     50  C21 UNL     1      32.395  -9.722 -33.608  0.00  0.00    +0.000 A 
ENDBRANCH  43  45
ENDBRANCH  42  43
ENDBRANCH   8  42
TORSDOF 14
ENDMDL
