MODEL 1
REMARK VINA RESULT:    -8.720      0.000      0.000
REMARK INTER + INTRA:         -11.809
REMARK INTER:                 -11.779
REMARK INTRA:                  -0.030
REMARK UNBOUND:                -0.030
REMARK  Name = resultss/4CJN/ligands/lig_414_t0.pdb
REMARK  6 active torsions:
REMARK  status: ('A' for Active; 'I' for Inactive)
REMARK    1  A    between atoms: C1_2  and  C9_15
REMARK    2  A    between atoms: N1_3  and  N2_4
REMARK    3  A    between atoms: N2_4  and  C2_5
REMARK    4  A    between atoms: C2_5  and  N3_7
REMARK    5  A    between atoms: N3_7  and  C3_8
REMARK    6  A    between atoms: C19_26  and  C20_27
REMARK                            x       y       z     vdW  Elec       q    Type
REMARK                         _______ _______ _______ _____ _____    ______ ____
ROOT
ATOM      1  C9  UNL     1      27.686  -9.920 -37.736  0.00  0.00    +0.000 A 
ATOM      2  C10 UNL     1      28.920  -9.870 -37.051  0.00  0.00    +0.000 A 
ATOM      3  C11 UNL     1      28.890  -9.511 -35.709  0.00  0.00    +0.000 A 
ATOM      4  C12 UNL     1      27.714  -9.207 -35.058  0.00  0.00    +0.000 A 
ATOM      5  N4  UNL     1      27.929  -8.953 -33.745  0.00  0.00    +0.000 N 
ATOM      6  C13 UNL     1      29.263  -9.084 -33.583  0.00  0.00    +0.000 A 
ATOM      7  C14 UNL     1      29.985  -8.934 -32.400  0.00  0.00    +0.000 A 
ATOM      8  C15 UNL     1      31.377  -9.136 -32.447  0.00  0.00    +0.000 A 
ATOM      9  C16 UNL     1      32.011  -9.486 -33.661  0.00  0.00    +0.000 A 
ATOM     10  C17 UNL     1      31.262  -9.638 -34.841  0.00  0.00    +0.000 A 
ATOM     11  C18 UNL     1      29.887  -9.424 -34.765  0.00  0.00    +0.000 A 
ATOM     12  C19 UNL     1      26.496  -9.244 -35.751  0.00  0.00    +0.000 A 
ATOM     13  N5  UNL     1      26.527  -9.612 -37.068  0.00  0.00    +0.000 NA
ATOM     14  H9  UNL     1      27.226  -8.740 -33.004  0.00  0.00    +0.000 HD
ENDROOT
BRANCH  12  15
ATOM     15  C20 UNL     1      25.201  -8.915 -35.121  0.00  0.00    +0.000 A 
ATOM     16  C21 UNL     1      24.910  -9.325 -33.808  0.00  0.00    +0.000 A 
ATOM     17  C22 UNL     1      23.689  -8.983 -33.216  0.00  0.00    +0.000 A 
ATOM     18  C23 UNL     1      22.757  -8.219 -33.924  0.00  0.00    +0.000 A 
ATOM     19  C24 UNL     1      23.048  -7.789 -35.221  0.00  0.00    +0.000 A 
ATOM     20  C25 UNL     1      24.267  -8.128 -35.816  0.00  0.00    +0.000 A 
ENDBRANCH  12  15
BRANCH   1  22
ATOM     21  O1  UNL     1      26.584 -10.073 -39.831  0.00  0.00    +0.000 OA
ATOM     22  C1  UNL     1      27.624 -10.313 -39.158  0.00  0.00    +0.000 C 
ATOM     23  N1  UNL     1      28.735 -10.979 -39.779  0.00  0.00    +0.000 N 
ATOM     24  H1  UNL     1      29.446 -11.444 -39.172  0.00  0.00    +0.000 HD
BRANCH  23  25
ATOM     25  N2  UNL     1      28.758 -11.259 -41.157  0.00  0.00    +0.000 N 
ATOM     26  H2  UNL     1      27.990 -11.844 -41.556  0.00  0.00    +0.000 HD
BRANCH  25  27
ATOM     27  C2  UNL     1      29.848 -10.881 -42.009  0.00  0.00    +0.000 C 
ATOM     28  S1  UNL     1      29.829  -9.381 -42.678  0.00  0.00    +0.000 S 
BRANCH  27  29
ATOM     29  N3  UNL     1      30.949 -11.785 -42.231  0.00  0.00    +0.000 N 
ATOM     30  H3  UNL     1      31.201 -12.461 -41.477  0.00  0.00    +0.000 HD
BRANCH  29  31
ATOM     31  C3  UNL     1      31.763 -11.807 -43.414  0.00  0.00    +0.000 A 
ATOM     32  C4  UNL     1      32.552 -10.690 -43.727  0.00  0.00    +0.000 A 
ATOM     33  C5  UNL     1      33.379 -10.704 -44.855  0.00  0.00    +0.000 A 
ATOM     34  C6  UNL     1      33.437 -11.840 -45.667  0.00  0.00    +0.000 A 
ATOM     35  C7  UNL     1      32.675 -12.969 -45.346  0.00  0.00    +0.000 A 
ATOM     36 BR1  UNL     1      32.776 -14.530 -46.441  0.00  0.00    +0.000 Br
ATOM     37  C8  UNL     1      31.848 -12.957 -44.218  0.00  0.00    +0.000 A 
ENDBRANCH  29  31
ENDBRANCH  27  29
ENDBRANCH  25  27
ENDBRANCH  23  25
ENDBRANCH   1  22
TORSDOF 6
ENDMDL
MODEL 2
REMARK VINA RESULT:    -8.455      1.783      4.793
REMARK INTER + INTRA:         -11.450
REMARK INTER:                 -10.689
REMARK INTRA:                  -0.762
REMARK UNBOUND:                -0.030
REMARK  Name = resultss/4CJN/ligands/lig_414_t0.pdb
REMARK  6 active torsions:
REMARK  status: ('A' for Active; 'I' for Inactive)
REMARK    1  A    between atoms: C1_2  and  C9_15
REMARK    2  A    between atoms: N1_3  and  N2_4
REMARK    3  A    between atoms: N2_4  and  C2_5
REMARK    4  A    between atoms: C2_5  and  N3_7
REMARK    5  A    between atoms: N3_7  and  C3_8
REMARK    6  A    between atoms: C19_26  and  C20_27
REMARK                            x       y       z     vdW  Elec       q    Type
REMARK                         _______ _______ _______ _____ _____    ______ ____
ROOT
ATOM      1  C9  UNL     1      30.639  -9.694 -36.966  0.00  0.00    +0.000 A 
ATOM      2  C10 UNL     1      29.241  -9.499 -36.974  0.00  0.00    +0.000 A 
ATOM      3  C11 UNL     1      28.614  -9.328 -35.745  0.00  0.00    +0.000 A 
ATOM      4  C12 UNL     1      29.312  -9.350 -34.558  0.00  0.00    +0.000 A 
ATOM      5  N4  UNL     1      28.500  -9.095 -33.504  0.00  0.00    +0.000 N 
ATOM      6  C13 UNL     1      27.274  -8.930 -34.046  0.00  0.00    +0.000 A 
ATOM      7  C14 UNL     1      26.090  -8.635 -33.373  0.00  0.00    +0.000 A 
ATOM      8  C15 UNL     1      24.917  -8.483 -34.137  0.00  0.00    +0.000 A 
ATOM      9  C16 UNL     1      24.953  -8.623 -35.543  0.00  0.00    +0.000 A 
ATOM     10  C17 UNL     1      26.161  -8.915 -36.201  0.00  0.00    +0.000 A 
ATOM     11  C18 UNL     1      27.304  -9.067 -35.418  0.00  0.00    +0.000 A 
ATOM     12  C19 UNL     1      30.698  -9.559 -34.560  0.00  0.00    +0.000 A 
ATOM     13  N5  UNL     1      31.314  -9.714 -35.771  0.00  0.00    +0.000 NA
ATOM     14  H9  UNL     1      28.756  -9.005 -32.496  0.00  0.00    +0.000 HD
ENDROOT
BRANCH  12  15
ATOM     15  C20 UNL     1      31.506  -9.611 -33.324  0.00  0.00    +0.000 A 
ATOM     16  C21 UNL     1      31.494 -10.749 -32.498  0.00  0.00    +0.000 A 
ATOM     17  C22 UNL     1      32.285 -10.793 -31.345  0.00  0.00    +0.000 A 
ATOM     18  C23 UNL     1      33.102  -9.709 -31.015  0.00  0.00    +0.000 A 
ATOM     19  C24 UNL     1      33.137  -8.583 -31.841  0.00  0.00    +0.000 A 
ATOM     20  C25 UNL     1      32.349  -8.535 -32.995  0.00  0.00    +0.000 A 
ENDBRANCH  12  15
BRANCH   1  22
ATOM     21  O1  UNL     1      32.650  -9.845 -38.216  0.00  0.00    +0.000 OA
ATOM     22  C1  UNL     1      31.388  -9.862 -38.228  0.00  0.00    +0.000 C 
ATOM     23  N1  UNL     1      30.690 -10.034 -39.471  0.00  0.00    +0.000 N 
ATOM     24  H1  UNL     1      29.689  -9.747 -39.531  0.00  0.00    +0.000 HD
BRANCH  23  25
ATOM     25  N2  UNL     1      31.368 -10.317 -40.671  0.00  0.00    +0.000 N 
ATOM     26  H2  UNL     1      32.390 -10.103 -40.725  0.00  0.00    +0.000 HD
BRANCH  25  27
ATOM     27  C2  UNL     1      30.698 -10.770 -41.855  0.00  0.00    +0.000 C 
ATOM     28  S1  UNL     1      29.445  -9.876 -42.431  0.00  0.00    +0.000 S 
BRANCH  27  29
ATOM     29  N3  UNL     1      31.148 -11.955 -42.541  0.00  0.00    +0.000 N 
ATOM     30  H3  UNL     1      30.920 -12.888 -42.132  0.00  0.00    +0.000 HD
BRANCH  29  31
ATOM     31  C3  UNL     1      31.930 -11.956 -43.746  0.00  0.00    +0.000 A 
ATOM     32  C4  UNL     1      32.613 -10.791 -44.124  0.00  0.00    +0.000 A 
ATOM     33  C5  UNL     1      33.407 -10.780 -45.275  0.00  0.00    +0.000 A 
ATOM     34  C6  UNL     1      33.538 -11.939 -46.046  0.00  0.00    +0.000 A 
ATOM     35  C7  UNL     1      32.883 -13.113 -45.661  0.00  0.00    +0.000 A 
ATOM     36 BR1  UNL     1      33.084 -14.702 -46.700  0.00  0.00    +0.000 Br
ATOM     37  C8  UNL     1      32.088 -13.126 -44.510  0.00  0.00    +0.000 A 
ENDBRANCH  29  31
ENDBRANCH  27  29
ENDBRANCH  25  27
ENDBRANCH  23  25
ENDBRANCH   1  22
TORSDOF 6
ENDMDL
MODEL 3
REMARK VINA RESULT:    -8.106      4.433      7.220
REMARK INTER + INTRA:         -10.979
REMARK INTER:                  -9.941
REMARK INTRA:                  -1.038
REMARK UNBOUND:                -0.030
REMARK  Name = resultss/4CJN/ligands/lig_414_t0.pdb
REMARK  6 active torsions:
REMARK  status: ('A' for Active; 'I' for Inactive)
REMARK    1  A    between atoms: C1_2  and  C9_15
REMARK    2  A    between atoms: N1_3  and  N2_4
REMARK    3  A    between atoms: N2_4  and  C2_5
REMARK    4  A    between atoms: C2_5  and  N3_7
REMARK    5  A    between atoms: N3_7  and  C3_8
REMARK    6  A    between atoms: C19_26  and  C20_27
REMARK                            x       y       z     vdW  Elec       q    Type
REMARK                         _______ _______ _______ _____ _____    ______ ____
ROOT
ATOM      1  C9  UNL     1      26.496  -9.706 -40.389  0.00  0.00    +0.000 A 
ATOM      2  C10 UNL     1      26.438  -9.644 -38.980  0.00  0.00    +0.000 A 
ATOM      3  C11 UNL     1      27.629  -9.818 -38.285  0.00  0.00    +0.000 A 
ATOM      4  C12 UNL     1      28.825 -10.048 -38.928  0.00  0.00    +0.000 A 
ATOM      5  N4  UNL     1      29.852 -10.118 -38.048  0.00  0.00    +0.000 N 
ATOM      6  C13 UNL     1      29.280  -9.947 -36.837  0.00  0.00    +0.000 A 
ATOM      7  C14 UNL     1      29.921  -9.924 -35.599  0.00  0.00    +0.000 A 
ATOM      8  C15 UNL     1      29.134  -9.709 -34.453  0.00  0.00    +0.000 A 
ATOM      9  C16 UNL     1      27.738  -9.519 -34.565  0.00  0.00    +0.000 A 
ATOM     10  C17 UNL     1      27.114  -9.540 -35.825  0.00  0.00    +0.000 A 
ATOM     11  C18 UNL     1      27.917  -9.761 -36.941  0.00  0.00    +0.000 A 
ATOM     12  C19 UNL     1      28.869 -10.123 -40.327  0.00  0.00    +0.000 A 
ATOM     13  N5  UNL     1      27.698  -9.938 -41.009  0.00  0.00    +0.000 NA
ATOM     14  H9  UNL     1      30.869 -10.239 -38.248  0.00  0.00    +0.000 HD
ENDROOT
BRANCH  12  15
ATOM     15  C20 UNL     1      30.113 -10.383 -41.081  0.00  0.00    +0.000 A 
ATOM     16  C21 UNL     1      30.117 -11.232 -42.201  0.00  0.00    +0.000 A 
ATOM     17  C22 UNL     1      31.298 -11.448 -42.919  0.00  0.00    +0.000 A 
ATOM     18  C23 UNL     1      32.479 -10.807 -42.535  0.00  0.00    +0.000 A 
ATOM     19  C24 UNL     1      32.479  -9.944 -41.436  0.00  0.00    +0.000 A 
ATOM     20  C25 UNL     1      31.301  -9.726 -40.715  0.00  0.00    +0.000 A 
ENDBRANCH  12  15
BRANCH   1  22
ATOM     21  O1  UNL     1      25.029 -10.304 -42.156  0.00  0.00    +0.000 OA
ATOM     22  C1  UNL     1      25.281  -9.511 -41.207  0.00  0.00    +0.000 C 
ATOM     23  N1  UNL     1      24.390  -8.417 -40.938  0.00  0.00    +0.000 N 
ATOM     24  H1  UNL     1      24.741  -7.607 -40.381  0.00  0.00    +0.000 HD
BRANCH  23  25
ATOM     25  N2  UNL     1      23.167  -8.270 -41.617  0.00  0.00    +0.000 N 
ATOM     26  H2  UNL     1      22.333  -8.784 -41.252  0.00  0.00    +0.000 HD
BRANCH  25  27
ATOM     27  C2  UNL     1      23.043  -7.547 -42.849  0.00  0.00    +0.000 C 
ATOM     28  S1  UNL     1      22.331  -6.067 -42.815  0.00  0.00    +0.000 S 
BRANCH  27  29
ATOM     29  N3  UNL     1      23.573  -8.094 -44.073  0.00  0.00    +0.000 N 
ATOM     30  H3  UNL     1      23.113  -8.936 -44.486  0.00  0.00    +0.000 HD
BRANCH  29  31
ATOM     31  C3  UNL     1      24.724  -7.587 -44.765  0.00  0.00    +0.000 A 
ATOM     32  C4  UNL     1      25.962  -7.551 -44.106  0.00  0.00    +0.000 A 
ATOM     33  C5  UNL     1      27.104  -7.093 -44.773  0.00  0.00    +0.000 A 
ATOM     34  C6  UNL     1      27.019  -6.685 -46.107  0.00  0.00    +0.000 A 
ATOM     35  C7  UNL     1      25.794  -6.744 -46.780  0.00  0.00    +0.000 A 
ATOM     36 BR1  UNL     1      25.684  -6.211 -48.610  0.00  0.00    +0.000 Br
ATOM     37  C8  UNL     1      24.651  -7.201 -46.115  0.00  0.00    +0.000 A 
ENDBRANCH  29  31
ENDBRANCH  27  29
ENDBRANCH  25  27
ENDBRANCH  23  25
ENDBRANCH   1  22
TORSDOF 6
ENDMDL
MODEL 4
REMARK VINA RESULT:    -8.056      2.191      2.629
REMARK INTER + INTRA:         -10.912
REMARK INTER:                  -9.908
REMARK INTRA:                  -1.004
REMARK UNBOUND:                -0.030
REMARK  Name = resultss/4CJN/ligands/lig_414_t0.pdb
REMARK  6 active torsions:
REMARK  status: ('A' for Active; 'I' for Inactive)
REMARK    1  A    between atoms: C1_2  and  C9_15
REMARK    2  A    between atoms: N1_3  and  N2_4
REMARK    3  A    between atoms: N2_4  and  C2_5
REMARK    4  A    between atoms: C2_5  and  N3_7
REMARK    5  A    between atoms: N3_7  and  C3_8
REMARK    6  A    between atoms: C19_26  and  C20_27
REMARK                            x       y       z     vdW  Elec       q    Type
REMARK                         _______ _______ _______ _____ _____    ______ ____
ROOT
ATOM      1  C9  UNL     1      27.487  -9.839 -37.755  0.00  0.00    +0.000 A 
ATOM      2  C10 UNL     1      28.752  -9.807 -37.131  0.00  0.00    +0.000 A 
ATOM      3  C11 UNL     1      28.789  -9.483 -35.779  0.00  0.00    +0.000 A 
ATOM      4  C12 UNL     1      27.647  -9.197 -35.064  0.00  0.00    +0.000 A 
ATOM      5  N4  UNL     1      27.926  -8.978 -33.757  0.00  0.00    +0.000 N 
ATOM      6  C13 UNL     1      29.267  -9.112 -33.664  0.00  0.00    +0.000 A 
ATOM      7  C14 UNL     1      30.047  -8.993 -32.515  0.00  0.00    +0.000 A 
ATOM      8  C15 UNL     1      31.435  -9.193 -32.636  0.00  0.00    +0.000 A 
ATOM      9  C16 UNL     1      32.008  -9.511 -33.888  0.00  0.00    +0.000 A 
ATOM     10  C17 UNL     1      31.201  -9.632 -35.033  0.00  0.00    +0.000 A 
ATOM     11  C18 UNL     1      29.832  -9.421 -34.884  0.00  0.00    +0.000 A 
ATOM     12  C19 UNL     1      26.397  -9.217 -35.697  0.00  0.00    +0.000 A 
ATOM     13  N5  UNL     1      26.362  -9.549 -37.023  0.00  0.00    +0.000 NA
ATOM     14  H9  UNL     1      27.261  -8.784 -32.977  0.00  0.00    +0.000 HD
ENDROOT
BRANCH  12  15
ATOM     15  C20 UNL     1      25.134  -8.905 -34.995  0.00  0.00    +0.000 A 
ATOM     16  C21 UNL     1      24.914  -9.336 -33.675  0.00  0.00    +0.000 A 
ATOM     17  C22 UNL     1      23.724  -9.010 -33.016  0.00  0.00    +0.000 A 
ATOM     18  C23 UNL     1      22.752  -8.241 -33.662  0.00  0.00    +0.000 A 
ATOM     19  C24 UNL     1      22.973  -7.791 -34.966  0.00  0.00    +0.000 A 
ATOM     20  C25 UNL     1      24.161  -8.113 -35.629  0.00  0.00    +0.000 A 
ENDBRANCH  12  15
BRANCH   1  22
ATOM     21  O1  UNL     1      28.045 -11.136 -39.661  0.00  0.00    +0.000 OA
ATOM     22  C1  UNL     1      27.354 -10.195 -39.182  0.00  0.00    +0.000 C 
ATOM     23  N1  UNL     1      26.453  -9.469 -40.033  0.00  0.00    +0.000 N 
ATOM     24  H1  UNL     1      26.125  -8.526 -39.731  0.00  0.00    +0.000 HD
BRANCH  23  25
ATOM     25  N2  UNL     1      26.213  -9.857 -41.363  0.00  0.00    +0.000 N 
ATOM     26  H2  UNL     1      26.007 -10.863 -41.557  0.00  0.00    +0.000 HD
BRANCH  25  27
ATOM     27  C2  UNL     1      26.356  -8.959 -42.473  0.00  0.00    +0.000 C 
ATOM     28  S1  UNL     1      25.012  -8.557 -43.329  0.00  0.00    +0.000 S 
BRANCH  27  29
ATOM     29  N3  UNL     1      27.643  -8.394 -42.793  0.00  0.00    +0.000 N 
ATOM     30  H3  UNL     1      27.682  -7.562 -43.424  0.00  0.00    +0.000 HD
BRANCH  29  31
ATOM     31  C3  UNL     1      28.901  -8.912 -42.334  0.00  0.00    +0.000 A 
ATOM     32  C4  UNL     1      29.573  -8.262 -41.288  0.00  0.00    +0.000 A 
ATOM     33  C5  UNL     1      30.782  -8.770 -40.803  0.00  0.00    +0.000 A 
ATOM     34  C6  UNL     1      31.319  -9.940 -41.348  0.00  0.00    +0.000 A 
ATOM     35  C7  UNL     1      30.642 -10.610 -42.372  0.00  0.00    +0.000 A 
ATOM     36 BR1  UNL     1      31.363 -12.222 -43.097  0.00  0.00    +0.000 Br
ATOM     37  C8  UNL     1      29.432 -10.104 -42.859  0.00  0.00    +0.000 A 
ENDBRANCH  29  31
ENDBRANCH  27  29
ENDBRANCH  25  27
ENDBRANCH  23  25
ENDBRANCH   1  22
TORSDOF 6
ENDMDL
MODEL 5
REMARK VINA RESULT:    -7.900      1.875      2.484
REMARK INTER + INTRA:         -10.701
REMARK INTER:                  -9.828
REMARK INTRA:                  -0.873
REMARK UNBOUND:                -0.030
REMARK  Name = resultss/4CJN/ligands/lig_414_t0.pdb
REMARK  6 active torsions:
REMARK  status: ('A' for Active; 'I' for Inactive)
REMARK    1  A    between atoms: C1_2  and  C9_15
REMARK    2  A    between atoms: N1_3  and  N2_4
REMARK    3  A    between atoms: N2_4  and  C2_5
REMARK    4  A    between atoms: C2_5  and  N3_7
REMARK    5  A    between atoms: N3_7  and  C3_8
REMARK    6  A    between atoms: C19_26  and  C20_27
REMARK                            x       y       z     vdW  Elec       q    Type
REMARK                         _______ _______ _______ _____ _____    ______ ____
ROOT
ATOM      1  C9  UNL     1      30.644  -9.090 -37.095  0.00  0.00    +0.000 A 
ATOM      2  C10 UNL     1      31.771  -9.326 -36.278  0.00  0.00    +0.000 A 
ATOM      3  C11 UNL     1      31.551  -9.450 -34.911  0.00  0.00    +0.000 A 
ATOM      4  C12 UNL     1      30.294  -9.343 -34.359  0.00  0.00    +0.000 A 
ATOM      5  N4  UNL     1      30.322  -9.565 -33.023  0.00  0.00    +0.000 N 
ATOM      6  C13 UNL     1      31.622  -9.795 -32.739  0.00  0.00    +0.000 A 
ATOM      7  C14 UNL     1      32.172 -10.089 -31.492  0.00  0.00    +0.000 A 
ATOM      8  C15 UNL     1      33.559 -10.316 -31.421  0.00  0.00    +0.000 A 
ATOM      9  C16 UNL     1      34.359 -10.251 -32.584  0.00  0.00    +0.000 A 
ATOM     10  C17 UNL     1      33.782  -9.959 -33.832  0.00  0.00    +0.000 A 
ATOM     11  C18 UNL     1      32.407  -9.732 -33.872  0.00  0.00    +0.000 A 
ATOM     12  C19 UNL     1      29.184  -9.094 -35.177  0.00  0.00    +0.000 A 
ATOM     13  N5  UNL     1      29.401  -8.986 -36.524  0.00  0.00    +0.000 NA
ATOM     14  H9  UNL     1      29.522  -9.594 -32.354  0.00  0.00    +0.000 HD
ENDROOT
BRANCH  12  15
ATOM     15  C20 UNL     1      27.811  -8.952 -34.651  0.00  0.00    +0.000 A 
ATOM     16  C21 UNL     1      26.890 -10.011 -34.735  0.00  0.00    +0.000 A 
ATOM     17  C22 UNL     1      25.602  -9.870 -34.209  0.00  0.00    +0.000 A 
ATOM     18  C23 UNL     1      25.227  -8.678 -33.584  0.00  0.00    +0.000 A 
ATOM     19  C24 UNL     1      26.143  -7.628 -33.476  0.00  0.00    +0.000 A 
ATOM     20  C25 UNL     1      27.432  -7.765 -34.000  0.00  0.00    +0.000 A 
ENDBRANCH  12  15
BRANCH   1  22
ATOM     21  O1  UNL     1      30.365  -7.931 -39.146  0.00  0.00    +0.000 OA
ATOM     22  C1  UNL     1      30.784  -8.967 -38.561  0.00  0.00    +0.000 C 
ATOM     23  N1  UNL     1      31.382 -10.025 -39.327  0.00  0.00    +0.000 N 
ATOM     24  H1  UNL     1      31.442 -10.979 -38.907  0.00  0.00    +0.000 HD
BRANCH  23  25
ATOM     25  N2  UNL     1      31.639  -9.892 -40.703  0.00  0.00    +0.000 N 
ATOM     26  H2  UNL     1      32.312  -9.155 -41.012  0.00  0.00    +0.000 HD
BRANCH  25  27
ATOM     27  C2  UNL     1      30.931 -10.639 -41.702  0.00  0.00    +0.000 C 
ATOM     28  S1  UNL     1      29.463 -10.088 -42.192  0.00  0.00    +0.000 S 
BRANCH  27  29
ATOM     29  N3  UNL     1      31.522 -11.817 -42.288  0.00  0.00    +0.000 N 
ATOM     30  H3  UNL     1      31.513 -12.707 -41.742  0.00  0.00    +0.000 HD
BRANCH  29  31
ATOM     31  C3  UNL     1      32.165 -11.858 -43.571  0.00  0.00    +0.000 A 
ATOM     32  C4  UNL     1      32.892 -10.742 -44.013  0.00  0.00    +0.000 A 
ATOM     33  C5  UNL     1      33.555 -10.774 -45.244  0.00  0.00    +0.000 A 
ATOM     34  C6  UNL     1      33.509 -11.926 -46.034  0.00  0.00    +0.000 A 
ATOM     35  C7  UNL     1      32.810 -13.053 -45.589  0.00  0.00    +0.000 A 
ATOM     36 BR1  UNL     1      32.771 -14.635 -46.657  0.00  0.00    +0.000 Br
ATOM     37  C8  UNL     1      32.147 -13.023 -44.358  0.00  0.00    +0.000 A 
ENDBRANCH  29  31
ENDBRANCH  27  29
ENDBRANCH  25  27
ENDBRANCH  23  25
ENDBRANCH   1  22
TORSDOF 6
ENDMDL
MODEL 6
REMARK VINA RESULT:    -7.861      2.754      4.899
REMARK INTER + INTRA:         -10.648
REMARK INTER:                  -9.848
REMARK INTRA:                  -0.800
REMARK UNBOUND:                -0.030
REMARK  Name = resultss/4CJN/ligands/lig_414_t0.pdb
REMARK  6 active torsions:
REMARK  status: ('A' for Active; 'I' for Inactive)
REMARK    1  A    between atoms: C1_2  and  C9_15
REMARK    2  A    between atoms: N1_3  and  N2_4
REMARK    3  A    between atoms: N2_4  and  C2_5
REMARK    4  A    between atoms: C2_5  and  N3_7
REMARK    5  A    between atoms: N3_7  and  C3_8
REMARK    6  A    between atoms: C19_26  and  C20_27
REMARK                            x       y       z     vdW  Elec       q    Type
REMARK                         _______ _______ _______ _____ _____    ______ ____
ROOT
ATOM      1  C9  UNL     1      27.798  -9.286 -38.015  0.00  0.00    +0.000 A 
ATOM      2  C10 UNL     1      27.230  -9.111 -36.735  0.00  0.00    +0.000 A 
ATOM      3  C11 UNL     1      25.916  -8.659 -36.676  0.00  0.00    +0.000 A 
ATOM      4  C12 UNL     1      25.186  -8.384 -37.812  0.00  0.00    +0.000 A 
ATOM      5  N4  UNL     1      23.916  -8.025 -37.505  0.00  0.00    +0.000 N 
ATOM      6  C13 UNL     1      23.864  -8.060 -36.156  0.00  0.00    +0.000 A 
ATOM      7  C14 UNL     1      22.762  -7.781 -35.349  0.00  0.00    +0.000 A 
ATOM      8  C15 UNL     1      22.919  -7.899 -33.955  0.00  0.00    +0.000 A 
ATOM      9  C16 UNL     1      24.159  -8.293 -33.403  0.00  0.00    +0.000 A 
ATOM     10  C17 UNL     1      25.255  -8.575 -34.237  0.00  0.00    +0.000 A 
ATOM     11  C18 UNL     1      25.072  -8.444 -35.612  0.00  0.00    +0.000 A 
ATOM     12  C19 UNL     1      25.764  -8.547 -39.078  0.00  0.00    +0.000 A 
ATOM     13  N5  UNL     1      27.052  -9.005 -39.132  0.00  0.00    +0.000 NA
ATOM     14  H9  UNL     1      23.131  -7.804 -38.156  0.00  0.00    +0.000 HD
ENDROOT
BRANCH  12  15
ATOM     15  C20 UNL     1      25.045  -8.256 -40.335  0.00  0.00    +0.000 A 
ATOM     16  C21 UNL     1      24.564  -9.295 -41.152  0.00  0.00    +0.000 A 
ATOM     17  C22 UNL     1      23.862  -9.002 -42.325  0.00  0.00    +0.000 A 
ATOM     18  C23 UNL     1      23.623  -7.673 -42.686  0.00  0.00    +0.000 A 
ATOM     19  C24 UNL     1      24.078  -6.635 -41.869  0.00  0.00    +0.000 A 
ATOM     20  C25 UNL     1      24.780  -6.923 -40.694  0.00  0.00    +0.000 A 
ENDBRANCH  12  15
BRANCH   1  22
ATOM     21  O1  UNL     1      29.736 -10.397 -37.218  0.00  0.00    +0.000 OA
ATOM     22  C1  UNL     1      29.180  -9.783 -38.169  0.00  0.00    +0.000 C 
ATOM     23  N1  UNL     1      29.902  -9.561 -39.391  0.00  0.00    +0.000 N 
ATOM     24  H1  UNL     1      29.575  -8.811 -40.040  0.00  0.00    +0.000 HD
BRANCH  23  25
ATOM     25  N2  UNL     1      31.171 -10.122 -39.617  0.00  0.00    +0.000 N 
ATOM     26  H2  UNL     1      31.635 -10.631 -38.831  0.00  0.00    +0.000 HD
BRANCH  25  27
ATOM     27  C2  UNL     1      31.905  -9.923 -40.834  0.00  0.00    +0.000 C 
ATOM     28  S1  UNL     1      33.469  -9.432 -40.729  0.00  0.00    +0.000 S 
BRANCH  27  29
ATOM     29  N3  UNL     1      31.290 -10.193 -42.109  0.00  0.00    +0.000 N 
ATOM     30  H3  UNL     1      30.390  -9.717 -42.343  0.00  0.00    +0.000 HD
BRANCH  29  31
ATOM     31  C3  UNL     1      31.806 -11.107 -43.089  0.00  0.00    +0.000 A 
ATOM     32  C4  UNL     1      31.462 -12.465 -43.012  0.00  0.00    +0.000 A 
ATOM     33  C5  UNL     1      31.926 -13.366 -43.976  0.00  0.00    +0.000 A 
ATOM     34  C6  UNL     1      32.721 -12.914 -45.032  0.00  0.00    +0.000 A 
ATOM     35  C7  UNL     1      33.045 -11.557 -45.133  0.00  0.00    +0.000 A 
ATOM     36 BR1  UNL     1      34.108 -10.935 -46.592  0.00  0.00    +0.000 Br
ATOM     37  C8  UNL     1      32.582 -10.654 -44.170  0.00  0.00    +0.000 A 
ENDBRANCH  29  31
ENDBRANCH  27  29
ENDBRANCH  25  27
ENDBRANCH  23  25
ENDBRANCH   1  22
TORSDOF 6
ENDMDL
MODEL 7
REMARK VINA RESULT:    -7.850      4.153      6.685
REMARK INTER + INTRA:         -10.633
REMARK INTER:                  -9.079
REMARK INTRA:                  -1.554
REMARK UNBOUND:                -0.030
REMARK  Name = resultss/4CJN/ligands/lig_414_t0.pdb
REMARK  6 active torsions:
REMARK  status: ('A' for Active; 'I' for Inactive)
REMARK    1  A    between atoms: C1_2  and  C9_15
REMARK    2  A    between atoms: N1_3  and  N2_4
REMARK    3  A    between atoms: N2_4  and  C2_5
REMARK    4  A    between atoms: C2_5  and  N3_7
REMARK    5  A    between atoms: N3_7  and  C3_8
REMARK    6  A    between atoms: C19_26  and  C20_27
REMARK                            x       y       z     vdW  Elec       q    Type
REMARK                         _______ _______ _______ _____ _____    ______ ____
ROOT
ATOM      1  C9  UNL     1      26.104  -8.893 -39.425  0.00  0.00    +0.000 A 
ATOM      2  C10 UNL     1      26.170  -8.920 -38.015  0.00  0.00    +0.000 A 
ATOM      3  C11 UNL     1      27.377  -9.302 -37.441  0.00  0.00    +0.000 A 
ATOM      4  C12 UNL     1      28.471  -9.651 -38.201  0.00  0.00    +0.000 A 
ATOM      5  N4  UNL     1      29.546  -9.920 -37.422  0.00  0.00    +0.000 N 
ATOM      6  C13 UNL     1      29.105  -9.754 -36.157  0.00  0.00    +0.000 A 
ATOM      7  C14 UNL     1      29.841  -9.904 -34.982  0.00  0.00    +0.000 A 
ATOM      8  C15 UNL     1      29.189  -9.661 -33.759  0.00  0.00    +0.000 A 
ATOM      9  C16 UNL     1      27.830  -9.273 -33.735  0.00  0.00    +0.000 A 
ATOM     10  C17 UNL     1      27.108  -9.123 -34.933  0.00  0.00    +0.000 A 
ATOM     11  C18 UNL     1      27.779  -9.376 -36.127  0.00  0.00    +0.000 A 
ATOM     12  C19 UNL     1      28.391  -9.636 -39.600  0.00  0.00    +0.000 A 
ATOM     13  N5  UNL     1      27.206  -9.245 -40.163  0.00  0.00    +0.000 NA
ATOM     14  H9  UNL     1      30.516 -10.166 -37.719  0.00  0.00    +0.000 HD
ENDROOT
BRANCH  12  15
ATOM     15  C20 UNL     1      29.520 -10.013 -40.476  0.00  0.00    +0.000 A 
ATOM     16  C21 UNL     1      29.356 -10.962 -41.500  0.00  0.00    +0.000 A 
ATOM     17  C22 UNL     1      30.427 -11.288 -42.338  0.00  0.00    +0.000 A 
ATOM     18  C23 UNL     1      31.665 -10.662 -42.168  0.00  0.00    +0.000 A 
ATOM     19  C24 UNL     1      31.830  -9.702 -41.167  0.00  0.00    +0.000 A 
ATOM     20  C25 UNL     1      30.762  -9.372 -40.328  0.00  0.00    +0.000 A 
ENDBRANCH  12  15
BRANCH   1  22
ATOM     21  O1  UNL     1      24.352  -7.355 -39.863  0.00  0.00    +0.000 OA
ATOM     22  C1  UNL     1      24.867  -8.478 -40.118  0.00  0.00    +0.000 C 
ATOM     23  N1  UNL     1      24.240  -9.348 -41.074  0.00  0.00    +0.000 N 
ATOM     24  H1  UNL     1      24.476 -10.365 -41.059  0.00  0.00    +0.000 HD
BRANCH  23  25
ATOM     25  N2  UNL     1      23.134  -8.938 -41.838  0.00  0.00    +0.000 N 
ATOM     26  H2  UNL     1      22.186  -9.280 -41.562  0.00  0.00    +0.000 HD
BRANCH  25  27
ATOM     27  C2  UNL     1      23.262  -8.173 -43.045  0.00  0.00    +0.000 C 
ATOM     28  S1  UNL     1      22.262  -6.888 -43.263  0.00  0.00    +0.000 S 
BRANCH  27  29
ATOM     29  N3  UNL     1      24.277  -8.503 -44.014  0.00  0.00    +0.000 N 
ATOM     30  H3  UNL     1      24.183  -9.391 -44.556  0.00  0.00    +0.000 HD
BRANCH  29  31
ATOM     31  C3  UNL     1      25.447  -7.713 -44.275  0.00  0.00    +0.000 A 
ATOM     32  C4  UNL     1      25.528  -6.975 -45.465  0.00  0.00    +0.000 A 
ATOM     33  C5  UNL     1      26.644  -6.172 -45.723  0.00  0.00    +0.000 A 
ATOM     34  C6  UNL     1      27.677  -6.086 -44.786  0.00  0.00    +0.000 A 
ATOM     35  C7  UNL     1      27.591  -6.796 -43.584  0.00  0.00    +0.000 A 
ATOM     36 BR1  UNL     1      28.991  -6.657 -42.292  0.00  0.00    +0.000 Br
ATOM     37  C8  UNL     1      26.477  -7.600 -43.323  0.00  0.00    +0.000 A 
ENDBRANCH  29  31
ENDBRANCH  27  29
ENDBRANCH  25  27
ENDBRANCH  23  25
ENDBRANCH   1  22
TORSDOF 6
ENDMDL
MODEL 8
REMARK VINA RESULT:    -7.818      3.293      4.643
REMARK INTER + INTRA:         -10.590
REMARK INTER:                  -8.930
REMARK INTRA:                  -1.661
REMARK UNBOUND:                -0.030
REMARK  Name = resultss/4CJN/ligands/lig_414_t0.pdb
REMARK  6 active torsions:
REMARK  status: ('A' for Active; 'I' for Inactive)
REMARK    1  A    between atoms: C1_2  and  C9_15
REMARK    2  A    between atoms: N1_3  and  N2_4
REMARK    3  A    between atoms: N2_4  and  C2_5
REMARK    4  A    between atoms: C2_5  and  N3_7
REMARK    5  A    between atoms: N3_7  and  C3_8
REMARK    6  A    between atoms: C19_26  and  C20_27
REMARK                            x       y       z     vdW  Elec       q    Type
REMARK                         _______ _______ _______ _____ _____    ______ ____
ROOT
ATOM      1  C9  UNL     1      30.277  -9.191 -36.849  0.00  0.00    +0.000 A 
ATOM      2  C10 UNL     1      31.401  -9.422 -36.026  0.00  0.00    +0.000 A 
ATOM      3  C11 UNL     1      31.179  -9.529 -34.658  0.00  0.00    +0.000 A 
ATOM      4  C12 UNL     1      29.920  -9.412 -34.110  0.00  0.00    +0.000 A 
ATOM      5  N4  UNL     1      29.945  -9.618 -32.772  0.00  0.00    +0.000 N 
ATOM      6  C13 UNL     1      31.244  -9.849 -32.483  0.00  0.00    +0.000 A 
ATOM      7  C14 UNL     1      31.791 -10.130 -31.231  0.00  0.00    +0.000 A 
ATOM      8  C15 UNL     1      33.177 -10.361 -31.154  0.00  0.00    +0.000 A 
ATOM      9  C16 UNL     1      33.979 -10.311 -32.317  0.00  0.00    +0.000 A 
ATOM     10  C17 UNL     1      33.405 -10.032 -33.569  0.00  0.00    +0.000 A 
ATOM     11  C18 UNL     1      32.032  -9.801 -33.614  0.00  0.00    +0.000 A 
ATOM     12  C19 UNL     1      28.813  -9.168 -34.934  0.00  0.00    +0.000 A 
ATOM     13  N5  UNL     1      29.033  -9.077 -36.281  0.00  0.00    +0.000 NA
ATOM     14  H9  UNL     1      29.143  -9.636 -32.104  0.00  0.00    +0.000 HD
ENDROOT
BRANCH  12  15
ATOM     15  C20 UNL     1      27.439  -9.016 -34.412  0.00  0.00    +0.000 A 
ATOM     16  C21 UNL     1      26.516 -10.074 -34.482  0.00  0.00    +0.000 A 
ATOM     17  C22 UNL     1      25.228  -9.923 -33.960  0.00  0.00    +0.000 A 
ATOM     18  C23 UNL     1      24.854  -8.721 -33.353  0.00  0.00    +0.000 A 
ATOM     19  C24 UNL     1      25.772  -7.672 -33.259  0.00  0.00    +0.000 A 
ATOM     20  C25 UNL     1      27.062  -7.819 -33.779  0.00  0.00    +0.000 A 
ENDBRANCH  12  15
BRANCH   1  22
ATOM     21  O1  UNL     1      30.153  -7.998 -38.895  0.00  0.00    +0.000 OA
ATOM     22  C1  UNL     1      30.420  -9.086 -38.315  0.00  0.00    +0.000 C 
ATOM     23  N1  UNL     1      30.848 -10.218 -39.088  0.00  0.00    +0.000 N 
ATOM     24  H1  UNL     1      30.771 -11.172 -38.670  0.00  0.00    +0.000 HD
BRANCH  23  25
ATOM     25  N2  UNL     1      31.110 -10.121 -40.467  0.00  0.00    +0.000 N 
ATOM     26  H2  UNL     1      31.986  -9.640 -40.772  0.00  0.00    +0.000 HD
BRANCH  25  27
ATOM     27  C2  UNL     1      30.174 -10.543 -41.468  0.00  0.00    +0.000 C 
ATOM     28  S1  UNL     1      30.660 -10.546 -43.037  0.00  0.00    +0.000 S 
BRANCH  27  29
ATOM     29  N3  UNL     1      28.857 -10.994 -41.092  0.00  0.00    +0.000 N 
ATOM     30  H3  UNL     1      28.701 -12.016 -40.946  0.00  0.00    +0.000 HD
BRANCH  29  31
ATOM     31  C3  UNL     1      27.714 -10.140 -40.934  0.00  0.00    +0.000 A 
ATOM     32  C4  UNL     1      27.025  -9.694 -42.071  0.00  0.00    +0.000 A 
ATOM     33  C5  UNL     1      25.888  -8.890 -41.938  0.00  0.00    +0.000 A 
ATOM     34  C6  UNL     1      25.422  -8.541 -40.667  0.00  0.00    +0.000 A 
ATOM     35  C7  UNL     1      26.087  -9.005 -39.527  0.00  0.00    +0.000 A 
ATOM     36 BR1  UNL     1      25.433  -8.551 -37.791  0.00  0.00    +0.000 Br
ATOM     37  C8  UNL     1      27.223  -9.810 -39.658  0.00  0.00    +0.000 A 
ENDBRANCH  29  31
ENDBRANCH  27  29
ENDBRANCH  25  27
ENDBRANCH  23  25
ENDBRANCH   1  22
TORSDOF 6
ENDMDL
MODEL 9
REMARK VINA RESULT:    -7.653      3.563      4.369
REMARK INTER + INTRA:         -10.367
REMARK INTER:                  -8.552
REMARK INTRA:                  -1.816
REMARK UNBOUND:                -0.030
REMARK  Name = resultss/4CJN/ligands/lig_414_t0.pdb
REMARK  6 active torsions:
REMARK  status: ('A' for Active; 'I' for Inactive)
REMARK    1  A    between atoms: C1_2  and  C9_15
REMARK    2  A    between atoms: N1_3  and  N2_4
REMARK    3  A    between atoms: N2_4  and  C2_5
REMARK    4  A    between atoms: C2_5  and  N3_7
REMARK    5  A    between atoms: N3_7  and  C3_8
REMARK    6  A    between atoms: C19_26  and  C20_27
REMARK                            x       y       z     vdW  Elec       q    Type
REMARK                         _______ _______ _______ _____ _____    ______ ____
ROOT
ATOM      1  C9  UNL     1      25.317  -8.321 -38.549  0.00  0.00    +0.000 A 
ATOM      2  C10 UNL     1      26.699  -8.607 -38.591  0.00  0.00    +0.000 A 
ATOM      3  C11 UNL     1      27.364  -8.718 -37.376  0.00  0.00    +0.000 A 
ATOM      4  C12 UNL     1      26.718  -8.552 -36.170  0.00  0.00    +0.000 A 
ATOM      5  N4  UNL     1      27.555  -8.773 -35.129  0.00  0.00    +0.000 N 
ATOM      6  C13 UNL     1      28.746  -9.062 -35.698  0.00  0.00    +0.000 A 
ATOM      7  C14 UNL     1      29.936  -9.378 -35.046  0.00  0.00    +0.000 A 
ATOM      8  C15 UNL     1      31.064  -9.669 -35.836  0.00  0.00    +0.000 A 
ATOM      9  C16 UNL     1      30.979  -9.642 -37.247  0.00  0.00    +0.000 A 
ATOM     10  C17 UNL     1      29.766  -9.326 -37.883  0.00  0.00    +0.000 A 
ATOM     11  C18 UNL     1      28.668  -9.037 -37.075  0.00  0.00    +0.000 A 
ATOM     12  C19 UNL     1      25.349  -8.254 -36.140  0.00  0.00    +0.000 A 
ATOM     13  N5  UNL     1      24.695  -8.159 -37.337  0.00  0.00    +0.000 NA
ATOM     14  H9  UNL     1      27.337  -8.763 -34.108  0.00  0.00    +0.000 HD
ENDROOT
BRANCH  12  15
ATOM     15  C20 UNL     1      24.598  -8.048 -34.884  0.00  0.00    +0.000 A 
ATOM     16  C21 UNL     1      24.037  -6.796 -34.573  0.00  0.00    +0.000 A 
ATOM     17  C22 UNL     1      23.307  -6.625 -33.393  0.00  0.00    +0.000 A 
ATOM     18  C23 UNL     1      23.118  -7.701 -32.522  0.00  0.00    +0.000 A 
ATOM     19  C24 UNL     1      23.653  -8.954 -32.835  0.00  0.00    +0.000 A 
ATOM     20  C25 UNL     1      24.384  -9.130 -34.014  0.00  0.00    +0.000 A 
ENDBRANCH  12  15
BRANCH   1  22
ATOM     21  O1  UNL     1      24.084  -7.083 -40.154  0.00  0.00    +0.000 OA
ATOM     22  C1  UNL     1      24.528  -8.207 -39.793  0.00  0.00    +0.000 C 
ATOM     23  N1  UNL     1      24.253  -9.371 -40.589  0.00  0.00    +0.000 N 
ATOM     24  H1  UNL     1      24.345 -10.314 -40.152  0.00  0.00    +0.000 HD
BRANCH  23  25
ATOM     25  N2  UNL     1      23.610  -9.282 -41.837  0.00  0.00    +0.000 N 
ATOM     26  H2  UNL     1      22.687  -9.758 -41.954  0.00  0.00    +0.000 HD
BRANCH  25  27
ATOM     27  C2  UNL     1      24.219  -8.672 -42.984  0.00  0.00    +0.000 C 
ATOM     28  S1  UNL     1      23.398  -7.480 -43.760  0.00  0.00    +0.000 S 
BRANCH  27  29
ATOM     29  N3  UNL     1      25.538  -9.071 -43.409  0.00  0.00    +0.000 N 
ATOM     30  H3  UNL     1      25.626  -9.730 -44.215  0.00  0.00    +0.000 HD
BRANCH  29  31
ATOM     31  C3  UNL     1      26.760  -8.656 -42.781  0.00  0.00    +0.000 A 
ATOM     32  C4  UNL     1      26.888  -7.335 -42.328  0.00  0.00    +0.000 A 
ATOM     33  C5  UNL     1      28.057  -6.919 -41.682  0.00  0.00    +0.000 A 
ATOM     34  C6  UNL     1      29.099  -7.826 -41.470  0.00  0.00    +0.000 A 
ATOM     35  C7  UNL     1      28.969  -9.153 -41.893  0.00  0.00    +0.000 A 
ATOM     36 BR1  UNL     1      30.383 -10.397 -41.578  0.00  0.00    +0.000 Br
ATOM     37  C8  UNL     1      27.801  -9.571 -42.539  0.00  0.00    +0.000 A 
ENDBRANCH  29  31
ENDBRANCH  27  29
ENDBRANCH  25  27
ENDBRANCH  23  25
ENDBRANCH   1  22
TORSDOF 6
ENDMDL
