MODEL 1
REMARK VINA RESULT:    -5.397      0.000      0.000
REMARK INTER + INTRA:          -6.756
REMARK INTER:                  -6.501
REMARK INTRA:                  -0.255
REMARK UNBOUND:                -0.255
REMARK  Name = resultss/4CJN/ligands/lig_325_t1.pdb
REMARK  7 active torsions:
REMARK  status: ('A' for Active; 'I' for Inactive)
REMARK    1  A    between atoms: C1_1  and  O1_2
REMARK    2  A    between atoms: O1_2  and  C2_3
REMARK    3  A    between atoms: C6_8  and  O3_9
REMARK    4  A    between atoms: C8_11  and  O4_12
REMARK    5  A    between atoms: O4_12  and  C9_13
REMARK    6  A    between atoms: C10_14  and  O5_15
REMARK    7  A    between atoms: O5_15  and  C11_16
REMARK                            x       y       z     vdW  Elec       q    Type
REMARK                         _______ _______ _______ _____ _____    ______ ____
ROOT
ATOM      1  C2  UNL     1      27.015  -9.631 -41.735  0.00  0.00    +0.000 A 
ATOM      2  C3  UNL     1      28.398  -9.823 -41.841  0.00  0.00    +0.000 A 
ATOM      3  C4  UNL     1      29.213  -9.957 -40.709  0.00  0.00    +0.000 A 
ATOM      4  O2  UNL     1      30.452 -10.125 -40.870  0.00  0.00    +0.000 OA
ATOM      5  C5  UNL     1      28.643  -9.892 -39.420  0.00  0.00    +0.000 A 
ATOM      6  C6  UNL     1      29.370 -10.050 -38.224  0.00  0.00    +0.000 A 
ATOM      7  C7  UNL     1      28.704  -9.882 -36.976  0.00  0.00    +0.000 A 
ATOM      8  C8  UNL     1      29.390  -9.809 -35.728  0.00  0.00    +0.000 A 
ATOM      9  C10 UNL     1      28.642  -9.774 -34.519  0.00  0.00    +0.000 A 
ATOM     10  C12 UNL     1      27.239  -9.712 -34.574  0.00  0.00    +0.000 A 
ATOM     11  C13 UNL     1      26.579  -9.664 -35.794  0.00  0.00    +0.000 A 
ATOM     12  C14 UNL     1      27.289  -9.733 -36.988  0.00  0.00    +0.000 A 
ATOM     13  O6  UNL     1      26.607  -9.647 -38.123  0.00  0.00    +0.000 OA
ATOM     14  C15 UNL     1      27.182  -9.692 -39.313  0.00  0.00    +0.000 A 
ATOM     15  C16 UNL     1      26.410  -9.567 -40.467  0.00  0.00    +0.000 A 
ENDROOT
BRANCH   1  17
ATOM     16  C1  UNL     1      24.880  -9.226 -42.976  0.00  0.00    +0.000 C 
ATOM     17  O1  UNL     1      26.274  -9.507 -42.922  0.00  0.00    +0.000 OA
ENDBRANCH   1  17
BRANCH   6  18
ATOM     18  O3  UNL     1      30.714 -10.427 -38.308  0.00  0.00    +0.000 OA
ATOM     19  H5  UNL     1      31.472  -9.764 -38.383  0.00  0.00    +0.000 HD
ENDBRANCH   6  18
BRANCH   8  20
ATOM     20  O4  UNL     1      30.795  -9.715 -35.741  0.00  0.00    +0.000 OA
ATOM     21  C9  UNL     1      31.585  -8.541 -35.578  0.00  0.00    +0.000 C 
ENDBRANCH   8  20
BRANCH   9  22
ATOM     22  O5  UNL     1      29.304  -9.799 -33.281  0.00  0.00    +0.000 OA
ATOM     23  C11 UNL     1      29.555  -8.660 -32.462  0.00  0.00    +0.000 C 
ENDBRANCH   9  22
TORSDOF 4
ENDMDL
MODEL 2
REMARK VINA RESULT:    -5.196      1.761      7.198
REMARK INTER + INTRA:          -6.514
REMARK INTER:                  -6.265
REMARK INTRA:                  -0.250
REMARK UNBOUND:                -0.255
REMARK  Name = resultss/4CJN/ligands/lig_325_t1.pdb
REMARK  7 active torsions:
REMARK  status: ('A' for Active; 'I' for Inactive)
REMARK    1  A    between atoms: C1_1  and  O1_2
REMARK    2  A    between atoms: O1_2  and  C2_3
REMARK    3  A    between atoms: C6_8  and  O3_9
REMARK    4  A    between atoms: C8_11  and  O4_12
REMARK    5  A    between atoms: O4_12  and  C9_13
REMARK    6  A    between atoms: C10_14  and  O5_15
REMARK    7  A    between atoms: O5_15  and  C11_16
REMARK                            x       y       z     vdW  Elec       q    Type
REMARK                         _______ _______ _______ _____ _____    ______ ____
ROOT
ATOM      1  C2  UNL     1      28.129  -9.772 -34.761  0.00  0.00    +0.000 A 
ATOM      2  C3  UNL     1      26.847  -9.253 -34.539  0.00  0.00    +0.000 A 
ATOM      3  C4  UNL     1      25.978  -8.957 -35.598  0.00  0.00    +0.000 A 
ATOM      4  O2  UNL     1      24.837  -8.490 -35.335  0.00  0.00    +0.000 OA
ATOM      5  C5  UNL     1      26.391  -9.175 -36.930  0.00  0.00    +0.000 A 
ATOM      6  C6  UNL     1      25.581  -8.944 -38.058  0.00  0.00    +0.000 A 
ATOM      7  C7  UNL     1      26.132  -9.120 -39.361  0.00  0.00    +0.000 A 
ATOM      8  C8  UNL     1      25.467  -8.708 -40.552  0.00  0.00    +0.000 A 
ATOM      9  C10 UNL     1      26.026  -9.041 -41.817  0.00  0.00    +0.000 A 
ATOM     10  C12 UNL     1      27.275  -9.683 -41.874  0.00  0.00    +0.000 A 
ATOM     11  C13 UNL     1      27.975  -9.977 -40.713  0.00  0.00    +0.000 A 
ATOM     12  C14 UNL     1      27.431  -9.692 -39.465  0.00  0.00    +0.000 A 
ATOM     13  O6  UNL     1      28.160  -9.963 -38.390  0.00  0.00    +0.000 OA
ATOM     14  C15 UNL     1      27.744  -9.726 -37.159  0.00  0.00    +0.000 A 
ATOM     15  C16 UNL     1      28.573 -10.008 -36.074  0.00  0.00    +0.000 A 
ENDROOT
BRANCH   1  17
ATOM     16  C1  UNL     1      29.419  -9.049 -32.742  0.00  0.00    +0.000 C 
ATOM     17  O1  UNL     1      28.933 -10.040 -33.642  0.00  0.00    +0.000 OA
ENDBRANCH   1  17
BRANCH   6  18
ATOM     18  O3  UNL     1      24.240  -8.606 -37.855  0.00  0.00    +0.000 OA
ATOM     19  H5  UNL     1      23.558  -9.245 -37.470  0.00  0.00    +0.000 HD
ENDBRANCH   6  18
BRANCH   8  20
ATOM     20  O4  UNL     1      24.299  -7.929 -40.432  0.00  0.00    +0.000 OA
ATOM     21  C9  UNL     1      24.182  -6.518 -40.577  0.00  0.00    +0.000 C 
ENDBRANCH   8  20
BRANCH   9  22
ATOM     22  O5  UNL     1      25.334  -8.725 -42.998  0.00  0.00    +0.000 OA
ATOM     23  C11 UNL     1      25.641  -7.635 -43.862  0.00  0.00    +0.000 C 
ENDBRANCH   9  22
TORSDOF 4
ENDMDL
MODEL 3
REMARK VINA RESULT:    -5.129      2.920      4.778
REMARK INTER + INTRA:          -6.434
REMARK INTER:                  -6.438
REMARK INTRA:                   0.004
REMARK UNBOUND:                -0.255
REMARK  Name = resultss/4CJN/ligands/lig_325_t1.pdb
REMARK  7 active torsions:
REMARK  status: ('A' for Active; 'I' for Inactive)
REMARK    1  A    between atoms: C1_1  and  O1_2
REMARK    2  A    between atoms: O1_2  and  C2_3
REMARK    3  A    between atoms: C6_8  and  O3_9
REMARK    4  A    between atoms: C8_11  and  O4_12
REMARK    5  A    between atoms: O4_12  and  C9_13
REMARK    6  A    between atoms: C10_14  and  O5_15
REMARK    7  A    between atoms: O5_15  and  C11_16
REMARK                            x       y       z     vdW  Elec       q    Type
REMARK                         _______ _______ _______ _____ _____    ______ ____
ROOT
ATOM      1  C2  UNL     1      27.953 -10.465 -40.283  0.00  0.00    +0.000 A 
ATOM      2  C3  UNL     1      26.997  -9.674 -40.933  0.00  0.00    +0.000 A 
ATOM      3  C4  UNL     1      26.023  -8.962 -40.221  0.00  0.00    +0.000 A 
ATOM      4  O2  UNL     1      25.188  -8.269 -40.863  0.00  0.00    +0.000 OA
ATOM      5  C5  UNL     1      25.984  -9.036 -38.812  0.00  0.00    +0.000 A 
ATOM      6  C6  UNL     1      25.069  -8.331 -38.006  0.00  0.00    +0.000 A 
ATOM      7  C7  UNL     1      25.069  -8.548 -36.598  0.00  0.00    +0.000 A 
ATOM      8  C8  UNL     1      24.051  -8.052 -35.732  0.00  0.00    +0.000 A 
ATOM      9  C10 UNL     1      24.197  -8.198 -34.324  0.00  0.00    +0.000 A 
ATOM     10  C12 UNL     1      25.291  -8.917 -33.813  0.00  0.00    +0.000 A 
ATOM     11  C13 UNL     1      26.218  -9.500 -34.666  0.00  0.00    +0.000 A 
ATOM     12  C14 UNL     1      26.114  -9.339 -36.044  0.00  0.00    +0.000 A 
ATOM     13  O6  UNL     1      27.008  -9.948 -36.811  0.00  0.00    +0.000 OA
ATOM     14  C15 UNL     1      26.997  -9.869 -38.130  0.00  0.00    +0.000 A 
ATOM     15  C16 UNL     1      27.950 -10.558 -38.879  0.00  0.00    +0.000 A 
ENDROOT
BRANCH   1  17
ATOM     16  C1  UNL     1      30.104 -10.573 -41.557  0.00  0.00    +0.000 C 
ATOM     17  O1  UNL     1      28.893 -11.144 -41.074  0.00  0.00    +0.000 OA
ENDBRANCH   1  17
BRANCH   6  18
ATOM     18  O3  UNL     1      24.230  -7.395 -38.618  0.00  0.00    +0.000 OA
ATOM     19  H5  UNL     1      24.563  -6.531 -39.022  0.00  0.00    +0.000 HD
ENDBRANCH   6  18
BRANCH   8  20
ATOM     20  O4  UNL     1      22.901  -7.480 -36.309  0.00  0.00    +0.000 OA
ATOM     21  C9  UNL     1      22.510  -6.111 -36.284  0.00  0.00    +0.000 C 
ENDBRANCH   8  20
BRANCH   9  22
ATOM     22  O5  UNL     1      23.251  -7.631 -33.456  0.00  0.00    +0.000 OA
ATOM     23  C11 UNL     1      23.397  -6.381 -32.788  0.00  0.00    +0.000 C 
ENDBRANCH   9  22
TORSDOF 4
ENDMDL
MODEL 4
REMARK VINA RESULT:    -5.076      2.692      6.703
REMARK INTER + INTRA:          -6.370
REMARK INTER:                  -6.141
REMARK INTRA:                  -0.230
REMARK UNBOUND:                -0.255
REMARK  Name = resultss/4CJN/ligands/lig_325_t1.pdb
REMARK  7 active torsions:
REMARK  status: ('A' for Active; 'I' for Inactive)
REMARK    1  A    between atoms: C1_1  and  O1_2
REMARK    2  A    between atoms: O1_2  and  C2_3
REMARK    3  A    between atoms: C6_8  and  O3_9
REMARK    4  A    between atoms: C8_11  and  O4_12
REMARK    5  A    between atoms: O4_12  and  C9_13
REMARK    6  A    between atoms: C10_14  and  O5_15
REMARK    7  A    between atoms: O5_15  and  C11_16
REMARK                            x       y       z     vdW  Elec       q    Type
REMARK                         _______ _______ _______ _____ _____    ______ ____
ROOT
ATOM      1  C2  UNL     1      24.093  -8.179 -34.192  0.00  0.00    +0.000 A 
ATOM      2  C3  UNL     1      25.135  -9.073 -33.918  0.00  0.00    +0.000 A 
ATOM      3  C4  UNL     1      25.973  -9.561 -34.930  0.00  0.00    +0.000 A 
ATOM      4  O2  UNL     1      26.892 -10.366 -34.620  0.00  0.00    +0.000 OA
ATOM      5  C5  UNL     1      25.773  -9.156 -36.267  0.00  0.00    +0.000 A 
ATOM      6  C6  UNL     1      26.581  -9.560 -37.346  0.00  0.00    +0.000 A 
ATOM      7  C7  UNL     1      26.234  -9.154 -38.668  0.00  0.00    +0.000 A 
ATOM      8  C8  UNL     1      26.857  -9.684 -39.836  0.00  0.00    +0.000 A 
ATOM      9  C10 UNL     1      26.546  -9.128 -41.108  0.00  0.00    +0.000 A 
ATOM     10  C12 UNL     1      25.557  -8.135 -41.206  0.00  0.00    +0.000 A 
ATOM     11  C13 UNL     1      24.868  -7.706 -40.080  0.00  0.00    +0.000 A 
ATOM     12  C14 UNL     1      25.182  -8.210 -38.822  0.00  0.00    +0.000 A 
ATOM     13  O6  UNL     1      24.467  -7.789 -37.786  0.00  0.00    +0.000 OA
ATOM     14  C15 UNL     1      24.674  -8.209 -36.551  0.00  0.00    +0.000 A 
ATOM     15  C16 UNL     1      23.867  -7.748 -35.512  0.00  0.00    +0.000 A 
ENDROOT
BRANCH   1  17
ATOM     16  C1  UNL     1      22.977  -6.379 -32.859  0.00  0.00    +0.000 C 
ATOM     17  O1  UNL     1      23.302  -7.741 -33.118  0.00  0.00    +0.000 OA
ENDBRANCH   1  17
BRANCH   6  18
ATOM     18  O3  UNL     1      27.735 -10.300 -37.072  0.00  0.00    +0.000 OA
ATOM     19  H5  UNL     1      28.523  -9.931 -36.557  0.00  0.00    +0.000 HD
ENDBRANCH   6  18
BRANCH   8  20
ATOM     20  O4  UNL     1      27.724 -10.785 -39.692  0.00  0.00    +0.000 OA
ATOM     21  C9  UNL     1      27.474 -12.136 -40.067  0.00  0.00    +0.000 C 
ENDBRANCH   8  20
BRANCH   9  22
ATOM     22  O5  UNL     1      27.223  -9.574 -42.255  0.00  0.00    +0.000 OA
ATOM     23  C11 UNL     1      28.501  -9.114 -42.683  0.00  0.00    +0.000 C 
ENDBRANCH   9  22
TORSDOF 4
ENDMDL
MODEL 5
REMARK VINA RESULT:    -5.044      4.700      9.174
REMARK INTER + INTRA:          -6.332
REMARK INTER:                  -6.109
REMARK INTRA:                  -0.223
REMARK UNBOUND:                -0.255
REMARK  Name = resultss/4CJN/ligands/lig_325_t1.pdb
REMARK  7 active torsions:
REMARK  status: ('A' for Active; 'I' for Inactive)
REMARK    1  A    between atoms: C1_1  and  O1_2
REMARK    2  A    between atoms: O1_2  and  C2_3
REMARK    3  A    between atoms: C6_8  and  O3_9
REMARK    4  A    between atoms: C8_11  and  O4_12
REMARK    5  A    between atoms: O4_12  and  C9_13
REMARK    6  A    between atoms: C10_14  and  O5_15
REMARK    7  A    between atoms: O5_15  and  C11_16
REMARK                            x       y       z     vdW  Elec       q    Type
REMARK                         _______ _______ _______ _____ _____    ______ ____
ROOT
ATOM      1  C2  UNL     1      28.667  -9.520 -41.948  0.00  0.00    +0.000 A 
ATOM      2  C3  UNL     1      27.618 -10.171 -41.287  0.00  0.00    +0.000 A 
ATOM      3  C4  UNL     1      26.281  -9.977 -41.657  0.00  0.00    +0.000 A 
ATOM      4  O2  UNL     1      25.381 -10.590 -41.022  0.00  0.00    +0.000 OA
ATOM      5  C5  UNL     1      25.963  -9.100 -42.716  0.00  0.00    +0.000 A 
ATOM      6  C6  UNL     1      24.656  -8.866 -43.186  0.00  0.00    +0.000 A 
ATOM      7  C7  UNL     1      24.445  -7.896 -44.208  0.00  0.00    +0.000 A 
ATOM      8  C8  UNL     1      23.152  -7.436 -44.593  0.00  0.00    +0.000 A 
ATOM      9  C10 UNL     1      23.023  -6.567 -45.712  0.00  0.00    +0.000 A 
ATOM     10  C12 UNL     1      24.178  -6.095 -46.358  0.00  0.00    +0.000 A 
ATOM     11  C13 UNL     1      25.441  -6.451 -45.905  0.00  0.00    +0.000 A 
ATOM     12  C14 UNL     1      25.589  -7.328 -44.836  0.00  0.00    +0.000 A 
ATOM     13  O6  UNL     1      26.819  -7.606 -44.424  0.00  0.00    +0.000 OA
ATOM     14  C15 UNL     1      27.074  -8.418 -43.413  0.00  0.00    +0.000 A 
ATOM     15  C16 UNL     1      28.390  -8.644 -43.013  0.00  0.00    +0.000 A 
ENDROOT
BRANCH   1  17
ATOM     16  C1  UNL     1      30.919 -10.579 -42.213  0.00  0.00    +0.000 C 
ATOM     17  O1  UNL     1      29.978  -9.773 -41.513  0.00  0.00    +0.000 OA
ENDBRANCH   1  17
BRANCH   6  18
ATOM     18  O3  UNL     1      23.615  -9.643 -42.668  0.00  0.00    +0.000 OA
ATOM     19  H5  UNL     1      22.661  -9.583 -42.997  0.00  0.00    +0.000 HD
ENDBRANCH   6  18
BRANCH   8  20
ATOM     20  O4  UNL     1      22.045  -7.818 -43.811  0.00  0.00    +0.000 OA
ATOM     21  C9  UNL     1      21.343  -7.023 -42.860  0.00  0.00    +0.000 C 
ENDBRANCH   8  20
BRANCH   9  22
ATOM     22  O5  UNL     1      21.749  -6.183 -46.162  0.00  0.00    +0.000 OA
ATOM     23  C11 UNL     1      21.082  -6.729 -47.296  0.00  0.00    +0.000 C 
ENDBRANCH   9  22
TORSDOF 4
ENDMDL
MODEL 6
REMARK VINA RESULT:    -4.899      1.614      3.474
REMARK INTER + INTRA:          -6.156
REMARK INTER:                  -6.184
REMARK INTRA:                   0.027
REMARK UNBOUND:                -0.255
REMARK  Name = resultss/4CJN/ligands/lig_325_t1.pdb
REMARK  7 active torsions:
REMARK  status: ('A' for Active; 'I' for Inactive)
REMARK    1  A    between atoms: C1_1  and  O1_2
REMARK    2  A    between atoms: O1_2  and  C2_3
REMARK    3  A    between atoms: C6_8  and  O3_9
REMARK    4  A    between atoms: C8_11  and  O4_12
REMARK    5  A    between atoms: O4_12  and  C9_13
REMARK    6  A    between atoms: C10_14  and  O5_15
REMARK    7  A    between atoms: O5_15  and  C11_16
REMARK                            x       y       z     vdW  Elec       q    Type
REMARK                         _______ _______ _______ _____ _____    ______ ____
ROOT
ATOM      1  C2  UNL     1      30.336 -10.204 -42.217  0.00  0.00    +0.000 A 
ATOM      2  C3  UNL     1      28.940 -10.298 -42.185  0.00  0.00    +0.000 A 
ATOM      3  C4  UNL     1      28.222 -10.211 -40.985  0.00  0.00    +0.000 A 
ATOM      4  O2  UNL     1      26.965 -10.305 -41.022  0.00  0.00    +0.000 OA
ATOM      5  C5  UNL     1      28.907 -10.030 -39.765  0.00  0.00    +0.000 A 
ATOM      6  C6  UNL     1      28.276  -9.895 -38.514  0.00  0.00    +0.000 A 
ATOM      7  C7  UNL     1      29.074  -9.802 -37.337  0.00  0.00    +0.000 A 
ATOM      8  C8  UNL     1      28.534  -9.879 -36.020  0.00  0.00    +0.000 A 
ATOM      9  C10 UNL     1      29.381  -9.643 -34.901  0.00  0.00    +0.000 A 
ATOM     10  C12 UNL     1      30.756  -9.435 -35.106  0.00  0.00    +0.000 A 
ATOM     11  C13 UNL     1      31.298  -9.478 -36.383  0.00  0.00    +0.000 A 
ATOM     12  C14 UNL     1      30.482  -9.672 -37.493  0.00  0.00    +0.000 A 
ATOM     13  O6  UNL     1      31.060  -9.738 -38.685  0.00  0.00    +0.000 OA
ATOM     14  C15 UNL     1      30.382  -9.929 -39.804  0.00  0.00    +0.000 A 
ATOM     15  C16 UNL     1      31.054 -10.018 -41.022  0.00  0.00    +0.000 A 
ENDROOT
BRANCH   1  17
ATOM     16  C1  UNL     1      32.020 -11.219 -43.764  0.00  0.00    +0.000 C 
ATOM     17  O1  UNL     1      30.975 -10.301 -43.463  0.00  0.00    +0.000 OA
ENDBRANCH   1  17
BRANCH   6  18
ATOM     18  O3  UNL     1      26.882  -9.799 -38.480  0.00  0.00    +0.000 OA
ATOM     19  H5  UNL     1      26.270 -10.604 -38.474  0.00  0.00    +0.000 HD
ENDBRANCH   6  18
BRANCH   8  20
ATOM     20  O4  UNL     1      27.183 -10.247 -35.870  0.00  0.00    +0.000 OA
ATOM     21  C9  UNL     1      26.177  -9.562 -35.131  0.00  0.00    +0.000 C 
ENDBRANCH   8  20
BRANCH   9  22
ATOM     22  O5  UNL     1      28.844  -9.621 -33.604  0.00  0.00    +0.000 OA
ATOM     23  C11 UNL     1      29.382  -8.891 -32.506  0.00  0.00    +0.000 C 
ENDBRANCH   9  22
TORSDOF 4
ENDMDL
MODEL 7
REMARK VINA RESULT:    -4.836      1.466      3.107
REMARK INTER + INTRA:          -6.081
REMARK INTER:                  -6.055
REMARK INTRA:                  -0.026
REMARK UNBOUND:                -0.255
REMARK  Name = resultss/4CJN/ligands/lig_325_t1.pdb
REMARK  7 active torsions:
REMARK  status: ('A' for Active; 'I' for Inactive)
REMARK    1  A    between atoms: C1_1  and  O1_2
REMARK    2  A    between atoms: O1_2  and  C2_3
REMARK    3  A    between atoms: C6_8  and  O3_9
REMARK    4  A    between atoms: C8_11  and  O4_12
REMARK    5  A    between atoms: O4_12  and  C9_13
REMARK    6  A    between atoms: C10_14  and  O5_15
REMARK    7  A    between atoms: O5_15  and  C11_16
REMARK                            x       y       z     vdW  Elec       q    Type
REMARK                         _______ _______ _______ _____ _____    ______ ____
ROOT
ATOM      1  C2  UNL     1      27.277  -9.100 -42.012  0.00  0.00    +0.000 A 
ATOM      2  C3  UNL     1      25.988  -9.129 -41.466  0.00  0.00    +0.000 A 
ATOM      3  C4  UNL     1      25.774  -9.224 -40.085  0.00  0.00    +0.000 A 
ATOM      4  O2  UNL     1      24.590  -9.249 -39.654  0.00  0.00    +0.000 OA
ATOM      5  C5  UNL     1      26.875  -9.300 -39.205  0.00  0.00    +0.000 A 
ATOM      6  C6  UNL     1      26.766  -9.362 -37.803  0.00  0.00    +0.000 A 
ATOM      7  C7  UNL     1      27.945  -9.521 -37.018  0.00  0.00    +0.000 A 
ATOM      8  C8  UNL     1      27.920  -9.807 -35.622  0.00  0.00    +0.000 A 
ATOM      9  C10 UNL     1      29.139  -9.818 -34.887  0.00  0.00    +0.000 A 
ATOM     10  C12 UNL     1      30.357  -9.644 -35.566  0.00  0.00    +0.000 A 
ATOM     11  C13 UNL     1      30.385  -9.483 -36.945  0.00  0.00    +0.000 A 
ATOM     12  C14 UNL     1      29.203  -9.434 -37.677  0.00  0.00    +0.000 A 
ATOM     13  O6  UNL     1      29.292  -9.313 -38.995  0.00  0.00    +0.000 OA
ATOM     14  C15 UNL     1      28.235  -9.265 -39.786  0.00  0.00    +0.000 A 
ATOM     15  C16 UNL     1      28.399  -9.167 -41.167  0.00  0.00    +0.000 A 
ENDROOT
BRANCH   1  17
ATOM     16  C1  UNL     1      28.038  -7.928 -44.088  0.00  0.00    +0.000 C 
ATOM     17  O1  UNL     1      27.399  -9.002 -43.408  0.00  0.00    +0.000 OA
ENDBRANCH   1  17
BRANCH   6  18
ATOM     18  O3  UNL     1      25.502  -9.205 -37.227  0.00  0.00    +0.000 OA
ATOM     19  H5  UNL     1      25.158  -8.322 -36.875  0.00  0.00    +0.000 HD
ENDBRANCH   6  18
BRANCH   8  20
ATOM     20  O4  UNL     1      26.685 -10.129 -35.025  0.00  0.00    +0.000 OA
ATOM     21  C9  UNL     1      25.947  -9.349 -34.091  0.00  0.00    +0.000 C 
ENDBRANCH   8  20
BRANCH   9  22
ATOM     22  O5  UNL     1      29.120 -10.003 -33.496  0.00  0.00    +0.000 OA
ATOM     23  C11 UNL     1      29.391  -8.992 -32.530  0.00  0.00    +0.000 C 
ENDBRANCH   9  22
TORSDOF 4
ENDMDL
MODEL 8
REMARK VINA RESULT:    -4.828      1.908      3.838
REMARK INTER + INTRA:          -6.071
REMARK INTER:                  -6.036
REMARK INTRA:                  -0.036
REMARK UNBOUND:                -0.255
REMARK  Name = resultss/4CJN/ligands/lig_325_t1.pdb
REMARK  7 active torsions:
REMARK  status: ('A' for Active; 'I' for Inactive)
REMARK    1  A    between atoms: C1_1  and  O1_2
REMARK    2  A    between atoms: O1_2  and  C2_3
REMARK    3  A    between atoms: C6_8  and  O3_9
REMARK    4  A    between atoms: C8_11  and  O4_12
REMARK    5  A    between atoms: O4_12  and  C9_13
REMARK    6  A    between atoms: C10_14  and  O5_15
REMARK    7  A    between atoms: O5_15  and  C11_16
REMARK                            x       y       z     vdW  Elec       q    Type
REMARK                         _______ _______ _______ _____ _____    ______ ____
ROOT
ATOM      1  C2  UNL     1      29.524 -10.204 -42.252  0.00  0.00    +0.000 A 
ATOM      2  C3  UNL     1      28.287  -9.671 -42.635  0.00  0.00    +0.000 A 
ATOM      3  C4  UNL     1      27.328  -9.282 -41.690  0.00  0.00    +0.000 A 
ATOM      4  O2  UNL     1      26.231  -8.811 -42.097  0.00  0.00    +0.000 OA
ATOM      5  C5  UNL     1      27.595  -9.430 -40.312  0.00  0.00    +0.000 A 
ATOM      6  C6  UNL     1      26.714  -9.036 -39.287  0.00  0.00    +0.000 A 
ATOM      7  C7  UNL     1      27.054  -9.311 -37.931  0.00  0.00    +0.000 A 
ATOM      8  C8  UNL     1      26.140  -9.149 -36.849  0.00  0.00    +0.000 A 
ATOM      9  C10 UNL     1      26.601  -9.317 -35.513  0.00  0.00    +0.000 A 
ATOM     10  C12 UNL     1      27.922  -9.737 -35.284  0.00  0.00    +0.000 A 
ATOM     11  C13 UNL     1      28.774 -10.008 -36.345  0.00  0.00    +0.000 A 
ATOM     12  C14 UNL     1      28.356  -9.816 -37.658  0.00  0.00    +0.000 A 
ATOM     13  O6  UNL     1      29.202 -10.125 -38.633  0.00  0.00    +0.000 OA
ATOM     14  C15 UNL     1      28.904  -9.990 -39.913  0.00  0.00    +0.000 A 
ATOM     15  C16 UNL     1      29.829 -10.360 -40.888  0.00  0.00    +0.000 A 
ENDROOT
BRANCH   1  17
ATOM     16  C1  UNL     1      31.379 -11.619 -43.157  0.00  0.00    +0.000 C 
ATOM     17  O1  UNL     1      30.426 -10.567 -43.265  0.00  0.00    +0.000 OA
ENDBRANCH   1  17
BRANCH   6  18
ATOM     18  O3  UNL     1      25.557  -8.334 -39.639  0.00  0.00    +0.000 OA
ATOM     19  H5  UNL     1      24.639  -8.563 -39.283  0.00  0.00    +0.000 HD
ENDBRANCH   6  18
BRANCH   8  20
ATOM     20  O4  UNL     1      24.790  -8.882 -37.146  0.00  0.00    +0.000 OA
ATOM     21  C9  UNL     1      24.024  -7.750 -36.749  0.00  0.00    +0.000 C 
ENDBRANCH   8  20
BRANCH   9  22
ATOM     22  O5  UNL     1      25.737  -9.067 -34.435  0.00  0.00    +0.000 OA
ATOM     23  C11 UNL     1      25.886  -8.007 -33.494  0.00  0.00    +0.000 C 
ENDBRANCH   9  22
TORSDOF 4
ENDMDL
MODEL 9
REMARK VINA RESULT:    -4.444      1.527      6.481
REMARK INTER + INTRA:          -5.609
REMARK INTER:                  -5.586
REMARK INTRA:                  -0.022
REMARK UNBOUND:                -0.255
REMARK  Name = resultss/4CJN/ligands/lig_325_t1.pdb
REMARK  7 active torsions:
REMARK  status: ('A' for Active; 'I' for Inactive)
REMARK    1  A    between atoms: C1_1  and  O1_2
REMARK    2  A    between atoms: O1_2  and  C2_3
REMARK    3  A    between atoms: C6_8  and  O3_9
REMARK    4  A    between atoms: C8_11  and  O4_12
REMARK    5  A    between atoms: O4_12  and  C9_13
REMARK    6  A    between atoms: C10_14  and  O5_15
REMARK    7  A    between atoms: O5_15  and  C11_16
REMARK                            x       y       z     vdW  Elec       q    Type
REMARK                         _______ _______ _______ _____ _____    ______ ____
ROOT
ATOM      1  C2  UNL     1      28.186  -8.481 -33.470  0.00  0.00    +0.000 A 
ATOM      2  C3  UNL     1      29.353  -9.080 -33.961  0.00  0.00    +0.000 A 
ATOM      3  C4  UNL     1      29.468  -9.483 -35.298  0.00  0.00    +0.000 A 
ATOM      4  O2  UNL     1      30.544 -10.018 -35.679  0.00  0.00    +0.000 OA
ATOM      5  C5  UNL     1      28.388  -9.295 -36.186  0.00  0.00    +0.000 A 
ATOM      6  C6  UNL     1      28.418  -9.633 -37.553  0.00  0.00    +0.000 A 
ATOM      7  C7  UNL     1      27.238  -9.476 -38.336  0.00  0.00    +0.000 A 
ATOM      8  C8  UNL     1      27.107  -9.986 -39.661  0.00  0.00    +0.000 A 
ATOM      9  C10 UNL     1      25.947  -9.670 -40.421  0.00  0.00    +0.000 A 
ATOM     10  C12 UNL     1      24.904  -8.943 -39.822  0.00  0.00    +0.000 A 
ATOM     11  C13 UNL     1      24.986  -8.549 -38.494  0.00  0.00    +0.000 A 
ATOM     12  C14 UNL     1      26.125  -8.817 -37.743  0.00  0.00    +0.000 A 
ATOM     13  O6  UNL     1      26.133  -8.447 -36.469  0.00  0.00    +0.000 OA
ATOM     14  C15 UNL     1      27.159  -8.660 -35.664  0.00  0.00    +0.000 A 
ATOM     15  C16 UNL     1      27.090  -8.271 -34.327  0.00  0.00    +0.000 A 
ENDROOT
BRANCH   1  17
ATOM     16  C1  UNL     1      27.994  -6.771 -31.653  0.00  0.00    +0.000 C 
ATOM     17  O1  UNL     1      28.156  -8.107 -32.117  0.00  0.00    +0.000 OA
ENDBRANCH   1  17
BRANCH   6  18
ATOM     18  O3  UNL     1      29.630 -10.057 -38.105  0.00  0.00    +0.000 OA
ATOM     19  H5  UNL     1      30.476  -9.504 -38.080  0.00  0.00    +0.000 HD
ENDBRANCH   6  18
BRANCH   8  20
ATOM     20  O4  UNL     1      28.114 -10.840 -40.152  0.00  0.00    +0.000 OA
ATOM     21  C9  UNL     1      28.979 -10.610 -41.260  0.00  0.00    +0.000 C 
ENDBRANCH   8  20
BRANCH   9  22
ATOM     22  O5  UNL     1      25.848 -10.086 -41.759  0.00  0.00    +0.000 OA
ATOM     23  C11 UNL     1      25.499  -9.245 -42.855  0.00  0.00    +0.000 C 
ENDBRANCH   9  22
TORSDOF 4
ENDMDL
