MODEL 1
REMARK VINA RESULT:    -4.982      0.000      0.000
REMARK INTER + INTRA:          -8.148
REMARK INTER:                  -7.020
REMARK INTRA:                  -1.128
REMARK UNBOUND:                -1.128
REMARK  Name = resultss/4CJN/ligands/lig_63_t0.pdb
REMARK  12 active torsions:
REMARK  status: ('A' for Active; 'I' for Inactive)
REMARK    1  A    between atoms: C1_1  and  C2_2
REMARK    2  A    between atoms: C4_4  and  O1_5
REMARK    3  A    between atoms: C5_6  and  O2_7
REMARK    4  A    between atoms: C6_8  and  O3_9
REMARK    5  A    between atoms: C7_10  and  N1_11
REMARK    6  A    between atoms: N1_11  and  C8_12
REMARK    7  A    between atoms: C10_14  and  O4_15
REMARK    8  A    between atoms: C10_14  and  C11_16
REMARK    9  A    between atoms: C11_16  and  O5_17
REMARK   10  A    between atoms: C12_18  and  O6_19
REMARK   11  A    between atoms: C13_20  and  O7_21
REMARK   12  A    between atoms: C14_22  and  O8_23
REMARK                            x       y       z     vdW  Elec       q    Type
REMARK                         _______ _______ _______ _____ _____    ______ ____
ROOT
ATOM      1  C8  UNL     1      26.243  -7.623 -36.578  0.00  0.00    +0.000 C 
ATOM      2  C9  UNL     1      25.879  -9.076 -36.163  0.00  0.00    +0.000 C 
ATOM      3  C10 UNL     1      26.062  -9.373 -34.647  0.00  0.00    +0.000 C 
ATOM      4  C12 UNL     1      27.534  -9.062 -34.175  0.00  0.00    +0.000 C 
ATOM      5  C13 UNL     1      28.344  -8.231 -35.202  0.00  0.00    +0.000 C 
ATOM      6  C14 UNL     1      27.487  -7.090 -35.780  0.00  0.00    +0.000 C 
ENDROOT
BRANCH   1   7
ATOM      7  N1  UNL     1      26.457  -7.527 -38.047  0.00  0.00    +0.000 NA
ATOM      8  H14 UNL     1      25.533  -7.255 -38.452  0.00  0.00    +0.000 HD
BRANCH   7  15
ATOM      9  C1  UNL     1      26.282  -7.954 -41.068  0.00  0.00    +0.000 C 
ATOM     10  C2  UNL     1      26.100  -9.074 -40.021  0.00  0.00    +0.000 C 
ATOM     11  C3  UNL     1      26.464 -10.464 -40.617  0.00  0.00    +0.000 C 
ATOM     12  C4  UNL     1      27.841 -11.014 -40.172  0.00  0.00    +0.000 C 
ATOM     13  C5  UNL     1      28.863  -9.881 -39.983  0.00  0.00    +0.000 C 
ATOM     14  C6  UNL     1      28.411  -8.847 -38.908  0.00  0.00    +0.000 C 
ATOM     15  C7  UNL     1      26.868  -8.806 -38.689  0.00  0.00    +0.000 C 
BRANCH  12  16
ATOM     16  O1  UNL     1      27.718 -11.743 -38.976  0.00  0.00    +0.000 OA
ATOM     17  H8  UNL     1      28.354 -11.343 -38.328  0.00  0.00    +0.000 HD
ENDBRANCH  12  16
BRANCH  13  18
ATOM     18  O2  UNL     1      30.102 -10.439 -39.625  0.00  0.00    +0.000 OA
ATOM     19  H10 UNL     1      30.681  -9.689 -39.330  0.00  0.00    +0.000 HD
ENDBRANCH  13  18
BRANCH  14  20
ATOM     20  O3  UNL     1      28.877  -7.568 -39.259  0.00  0.00    +0.000 OA
ATOM     21  H12 UNL     1      29.777  -7.465 -38.855  0.00  0.00    +0.000 HD
ENDBRANCH  14  20
ENDBRANCH   7  15
ENDBRANCH   1   7
BRANCH   3  22
ATOM     22  O4  UNL     1      25.749 -10.730 -34.413  0.00  0.00    +0.000 OA
ATOM     23  H18 UNL     1      25.877 -11.237 -35.257  0.00  0.00    +0.000 HD
ENDBRANCH   3  22
BRANCH   4  24
ATOM     24  O6  UNL     1      28.227 -10.258 -33.910  0.00  0.00    +0.000 OA
ATOM     25  H23 UNL     1      27.605 -11.009 -34.097  0.00  0.00    +0.000 HD
ENDBRANCH   4  24
BRANCH   5  26
ATOM     26  O7  UNL     1      29.479  -7.689 -34.575  0.00  0.00    +0.000 OA
ATOM     27  H25 UNL     1      29.197  -6.841 -34.144  0.00  0.00    +0.000 HD
ENDBRANCH   5  26
BRANCH   6  28
ATOM     28  O8  UNL     1      28.295  -6.262 -36.582  0.00  0.00    +0.000 OA
ATOM     29  H27 UNL     1      28.837  -5.694 -35.975  0.00  0.00    +0.000 HD
ENDBRANCH   6  28
BRANCH   3  30
ATOM     30  C11 UNL     1      25.037  -8.537 -33.834  0.00  0.00    +0.000 C 
BRANCH  30  31
ATOM     31  O5  UNL     1      25.616  -8.042 -32.655  0.00  0.00    +0.000 OA
ATOM     32  H21 UNL     1      25.267  -8.594 -31.907  0.00  0.00    +0.000 HD
ENDBRANCH  30  31
ENDBRANCH   3  30
TORSDOF 11
ENDMDL
MODEL 2
REMARK VINA RESULT:    -4.743      2.096      6.256
REMARK INTER + INTRA:          -7.812
REMARK INTER:                  -7.380
REMARK INTRA:                  -0.432
REMARK UNBOUND:                -1.128
REMARK  Name = resultss/4CJN/ligands/lig_63_t0.pdb
REMARK  12 active torsions:
REMARK  status: ('A' for Active; 'I' for Inactive)
REMARK    1  A    between atoms: C1_1  and  C2_2
REMARK    2  A    between atoms: C4_4  and  O1_5
REMARK    3  A    between atoms: C5_6  and  O2_7
REMARK    4  A    between atoms: C6_8  and  O3_9
REMARK    5  A    between atoms: C7_10  and  N1_11
REMARK    6  A    between atoms: N1_11  and  C8_12
REMARK    7  A    between atoms: C10_14  and  O4_15
REMARK    8  A    between atoms: C10_14  and  C11_16
REMARK    9  A    between atoms: C11_16  and  O5_17
REMARK   10  A    between atoms: C12_18  and  O6_19
REMARK   11  A    between atoms: C13_20  and  O7_21
REMARK   12  A    between atoms: C14_22  and  O8_23
REMARK                            x       y       z     vdW  Elec       q    Type
REMARK                         _______ _______ _______ _____ _____    ______ ____
ROOT
ATOM      1  C8  UNL     1      26.750  -9.303 -38.993  0.00  0.00    +0.000 C 
ATOM      2  C9  UNL     1      26.403  -8.327 -40.153  0.00  0.00    +0.000 C 
ATOM      3  C10 UNL     1      26.209  -9.016 -41.533  0.00  0.00    +0.000 C 
ATOM      4  C12 UNL     1      27.479  -9.859 -41.938  0.00  0.00    +0.000 C 
ATOM      5  C13 UNL     1      28.461 -10.090 -40.761  0.00  0.00    +0.000 C 
ATOM      6  C14 UNL     1      27.698 -10.459 -39.476  0.00  0.00    +0.000 C 
ENDROOT
BRANCH   1   7
ATOM      7  N1  UNL     1      27.330  -8.571 -37.836  0.00  0.00    +0.000 NA
ATOM      8  H14 UNL     1      28.350  -8.795 -37.840  0.00  0.00    +0.000 HD
BRANCH   7  15
ATOM      9  C1  UNL     1      28.025  -7.089 -35.255  0.00  0.00    +0.000 C 
ATOM     10  C2  UNL     1      27.732  -8.603 -35.335  0.00  0.00    +0.000 C 
ATOM     11  C3  UNL     1      27.198  -9.143 -33.978  0.00  0.00    +0.000 C 
ATOM     12  C4  UNL     1      25.671  -9.399 -33.943  0.00  0.00    +0.000 C 
ATOM     13  C5  UNL     1      24.912  -8.376 -34.804  0.00  0.00    +0.000 C 
ATOM     14  C6  UNL     1      25.351  -8.415 -36.299  0.00  0.00    +0.000 C 
ATOM     15  C7  UNL     1      26.785  -8.988 -36.514  0.00  0.00    +0.000 C 
BRANCH  12  16
ATOM     16  O1  UNL     1      25.378 -10.700 -34.388  0.00  0.00    +0.000 OA
ATOM     17  H8  UNL     1      25.055 -11.208 -33.598  0.00  0.00    +0.000 HD
ENDBRANCH  12  16
BRANCH  13  18
ATOM     18  O2  UNL     1      23.533  -8.625 -34.699  0.00  0.00    +0.000 OA
ATOM     19  H10 UNL     1      23.351  -9.456 -35.210  0.00  0.00    +0.000 HD
ENDBRANCH  13  18
BRANCH  14  20
ATOM     20  O3  UNL     1      25.266  -7.124 -36.849  0.00  0.00    +0.000 OA
ATOM     21  H12 UNL     1      24.388  -7.060 -37.305  0.00  0.00    +0.000 HD
ENDBRANCH  14  20
ENDBRANCH   7  15
ENDBRANCH   1   7
BRANCH   3  22
ATOM     22  O4  UNL     1      25.952  -8.022 -42.502  0.00  0.00    +0.000 OA
ATOM     23  H18 UNL     1      25.920  -7.138 -42.050  0.00  0.00    +0.000 HD
ENDBRANCH   3  22
BRANCH   4  24
ATOM     24  O6  UNL     1      28.171  -9.229 -42.990  0.00  0.00    +0.000 OA
ATOM     25  H23 UNL     1      29.016  -8.868 -42.615  0.00  0.00    +0.000 HD
ENDBRANCH   4  24
BRANCH   5  26
ATOM     26  O7  UNL     1      29.349 -11.129 -41.090  0.00  0.00    +0.000 OA
ATOM     27  H25 UNL     1      28.850 -11.981 -40.991  0.00  0.00    +0.000 HD
ENDBRANCH   5  26
BRANCH   6  28
ATOM     28  O8  UNL     1      28.620 -10.818 -38.475  0.00  0.00    +0.000 OA
ATOM     29  H27 UNL     1      28.945  -9.979 -38.053  0.00  0.00    +0.000 HD
ENDBRANCH   6  28
BRANCH   3  30
ATOM     30  C11 UNL     1      24.947  -9.918 -41.482  0.00  0.00    +0.000 C 
BRANCH  30  31
ATOM     31  O5  UNL     1      23.889  -9.265 -40.828  0.00  0.00    +0.000 OA
ATOM     32  H21 UNL     1      23.117  -9.890 -40.832  0.00  0.00    +0.000 HD
ENDBRANCH  30  31
ENDBRANCH   3  30
TORSDOF 11
ENDMDL
MODEL 3
REMARK VINA RESULT:    -4.729      1.650      6.002
REMARK INTER + INTRA:          -7.792
REMARK INTER:                  -6.916
REMARK INTRA:                  -0.876
REMARK UNBOUND:                -1.128
REMARK  Name = resultss/4CJN/ligands/lig_63_t0.pdb
REMARK  12 active torsions:
REMARK  status: ('A' for Active; 'I' for Inactive)
REMARK    1  A    between atoms: C1_1  and  C2_2
REMARK    2  A    between atoms: C4_4  and  O1_5
REMARK    3  A    between atoms: C5_6  and  O2_7
REMARK    4  A    between atoms: C6_8  and  O3_9
REMARK    5  A    between atoms: C7_10  and  N1_11
REMARK    6  A    between atoms: N1_11  and  C8_12
REMARK    7  A    between atoms: C10_14  and  O4_15
REMARK    8  A    between atoms: C10_14  and  C11_16
REMARK    9  A    between atoms: C11_16  and  O5_17
REMARK   10  A    between atoms: C12_18  and  O6_19
REMARK   11  A    between atoms: C13_20  and  O7_21
REMARK   12  A    between atoms: C14_22  and  O8_23
REMARK                            x       y       z     vdW  Elec       q    Type
REMARK                         _______ _______ _______ _____ _____    ______ ____
ROOT
ATOM      1  C8  UNL     1      27.076  -7.918 -39.254  0.00  0.00    +0.000 C 
ATOM      2  C9  UNL     1      28.297  -8.805 -38.881  0.00  0.00    +0.000 C 
ATOM      3  C10 UNL     1      28.854  -9.655 -40.058  0.00  0.00    +0.000 C 
ATOM      4  C12 UNL     1      27.733 -10.569 -40.687  0.00  0.00    +0.000 C 
ATOM      5  C13 UNL     1      26.302 -10.177 -40.241  0.00  0.00    +0.000 C 
ATOM      6  C14 UNL     1      26.121  -8.648 -40.266  0.00  0.00    +0.000 C 
ENDROOT
BRANCH   1   7
ATOM      7  N1  UNL     1      26.346  -7.478 -38.036  0.00  0.00    +0.000 NA
ATOM      8  H14 UNL     1      26.509  -6.448 -37.962  0.00  0.00    +0.000 HD
BRANCH   7  15
ATOM      9  C1  UNL     1      26.141  -6.051 -35.341  0.00  0.00    +0.000 C 
ATOM     10  C2  UNL     1      27.268  -7.036 -35.718  0.00  0.00    +0.000 C 
ATOM     11  C3  UNL     1      27.874  -7.707 -34.452  0.00  0.00    +0.000 C 
ATOM     12  C4  UNL     1      27.415  -9.166 -34.216  0.00  0.00    +0.000 C 
ATOM     13  C5  UNL     1      25.963  -9.379 -34.672  0.00  0.00    +0.000 C 
ATOM     14  C6  UNL     1      25.766  -9.075 -36.188  0.00  0.00    +0.000 C 
ATOM     15  C7  UNL     1      26.833  -8.100 -36.774  0.00  0.00    +0.000 C 
BRANCH  12  16
ATOM     16  O1  UNL     1      28.258 -10.065 -34.893  0.00  0.00    +0.000 OA
ATOM     17  H8  UNL     1      29.126  -9.601 -35.028  0.00  0.00    +0.000 HD
ENDBRANCH  12  16
BRANCH  13  18
ATOM     18  O2  UNL     1      25.585 -10.703 -34.393  0.00  0.00    +0.000 OA
ATOM     19  H10 UNL     1      26.235 -11.054 -33.730  0.00  0.00    +0.000 HD
ENDBRANCH  13  18
BRANCH  14  20
ATOM     20  O3  UNL     1      24.477  -8.554 -36.400  0.00  0.00    +0.000 OA
ATOM     21  H12 UNL     1      24.057  -9.099 -37.114  0.00  0.00    +0.000 HD
ENDBRANCH  14  20
ENDBRANCH   7  15
ENDBRANCH   1   7
BRANCH   3  22
ATOM     22  O4  UNL     1      29.919 -10.448 -39.578  0.00  0.00    +0.000 OA
ATOM     23  H18 UNL     1      30.207 -10.094 -38.695  0.00  0.00    +0.000 HD
ENDBRANCH   3  22
BRANCH   4  24
ATOM     24  O6  UNL     1      27.958 -11.919 -40.356  0.00  0.00    +0.000 OA
ATOM     25  H23 UNL     1      27.474 -12.472 -41.023  0.00  0.00    +0.000 HD
ENDBRANCH   4  24
BRANCH   5  26
ATOM     26  O7  UNL     1      25.364 -10.770 -41.103  0.00  0.00    +0.000 OA
ATOM     27  H25 UNL     1      24.793 -10.041 -41.460  0.00  0.00    +0.000 HD
ENDBRANCH   5  26
BRANCH   6  28
ATOM     28  O8  UNL     1      24.772  -8.335 -40.014  0.00  0.00    +0.000 OA
ATOM     29  H27 UNL     1      24.614  -8.452 -39.040  0.00  0.00    +0.000 HD
ENDBRANCH   6  28
BRANCH   3  30
ATOM     30  C11 UNL     1      29.457  -8.710 -41.132  0.00  0.00    +0.000 C 
BRANCH  30  31
ATOM     31  O5  UNL     1      29.231  -9.209 -42.425  0.00  0.00    +0.000 OA
ATOM     32  H21 UNL     1      30.102  -9.189 -42.899  0.00  0.00    +0.000 HD
ENDBRANCH  30  31
ENDBRANCH   3  30
TORSDOF 11
ENDMDL
MODEL 4
REMARK VINA RESULT:    -4.713      2.188      3.592
REMARK INTER + INTRA:          -7.770
REMARK INTER:                  -6.753
REMARK INTRA:                  -1.018
REMARK UNBOUND:                -1.128
REMARK  Name = resultss/4CJN/ligands/lig_63_t0.pdb
REMARK  12 active torsions:
REMARK  status: ('A' for Active; 'I' for Inactive)
REMARK    1  A    between atoms: C1_1  and  C2_2
REMARK    2  A    between atoms: C4_4  and  O1_5
REMARK    3  A    between atoms: C5_6  and  O2_7
REMARK    4  A    between atoms: C6_8  and  O3_9
REMARK    5  A    between atoms: C7_10  and  N1_11
REMARK    6  A    between atoms: N1_11  and  C8_12
REMARK    7  A    between atoms: C10_14  and  O4_15
REMARK    8  A    between atoms: C10_14  and  C11_16
REMARK    9  A    between atoms: C11_16  and  O5_17
REMARK   10  A    between atoms: C12_18  and  O6_19
REMARK   11  A    between atoms: C13_20  and  O7_21
REMARK   12  A    between atoms: C14_22  and  O8_23
REMARK                            x       y       z     vdW  Elec       q    Type
REMARK                         _______ _______ _______ _____ _____    ______ ____
ROOT
ATOM      1  C8  UNL     1      27.180  -7.525 -35.728  0.00  0.00    +0.000 C 
ATOM      2  C9  UNL     1      25.829  -6.759 -35.654  0.00  0.00    +0.000 C 
ATOM      3  C10 UNL     1      25.048  -6.964 -34.325  0.00  0.00    +0.000 C 
ATOM      4  C12 UNL     1      24.784  -8.493 -34.045  0.00  0.00    +0.000 C 
ATOM      5  C13 UNL     1      25.629  -9.435 -34.940  0.00  0.00    +0.000 C 
ATOM      6  C14 UNL     1      27.082  -8.934 -35.042  0.00  0.00    +0.000 C 
ENDROOT
BRANCH   1   7
ATOM      7  N1  UNL     1      27.653  -7.636 -37.133  0.00  0.00    +0.000 NA
ATOM      8  H14 UNL     1      28.364  -6.879 -37.255  0.00  0.00    +0.000 HD
BRANCH   7  15
ATOM      9  C1  UNL     1      28.309  -7.160 -40.081  0.00  0.00    +0.000 C 
ATOM     10  C2  UNL     1      27.088  -6.555 -39.354  0.00  0.00    +0.000 C 
ATOM     11  C3  UNL     1      25.935  -6.251 -40.353  0.00  0.00    +0.000 C 
ATOM     12  C4  UNL     1      24.769  -7.269 -40.318  0.00  0.00    +0.000 C 
ATOM     13  C5  UNL     1      25.273  -8.689 -40.015  0.00  0.00    +0.000 C 
ATOM     14  C6  UNL     1      26.005  -8.780 -38.642  0.00  0.00    +0.000 C 
ATOM     15  C7  UNL     1      26.591  -7.419 -38.154  0.00  0.00    +0.000 C 
BRANCH  12  16
ATOM     16  O1  UNL     1      23.814  -6.893 -39.357  0.00  0.00    +0.000 OA
ATOM     17  H8  UNL     1      23.002  -6.610 -39.853  0.00  0.00    +0.000 HD
ENDBRANCH  12  16
BRANCH  13  18
ATOM     18  O2  UNL     1      24.184  -9.576 -40.042  0.00  0.00    +0.000 OA
ATOM     19  H10 UNL     1      24.254 -10.094 -40.886  0.00  0.00    +0.000 HD
ENDBRANCH  13  18
BRANCH  14  20
ATOM     20  O3  UNL     1      27.029  -9.740 -38.717  0.00  0.00    +0.000 OA
ATOM     21  H12 UNL     1      26.902 -10.360 -37.953  0.00  0.00    +0.000 HD
ENDBRANCH  14  20
ENDBRANCH   7  15
ENDBRANCH   1   7
BRANCH   3  22
ATOM     22  O4  UNL     1      23.826  -6.262 -34.407  0.00  0.00    +0.000 OA
ATOM     23  H18 UNL     1      23.453  -6.165 -33.491  0.00  0.00    +0.000 HD
ENDBRANCH   3  22
BRANCH   4  24
ATOM     24  O6  UNL     1      23.421  -8.796 -34.227  0.00  0.00    +0.000 OA
ATOM     25  H23 UNL     1      23.014  -8.887 -33.326  0.00  0.00    +0.000 HD
ENDBRANCH   4  24
BRANCH   5  26
ATOM     26  O7  UNL     1      25.621 -10.730 -34.395  0.00  0.00    +0.000 OA
ATOM     27  H25 UNL     1      24.766 -11.155 -34.666  0.00  0.00    +0.000 HD
ENDBRANCH   5  26
BRANCH   6  28
ATOM     28  O8  UNL     1      27.857  -9.891 -35.723  0.00  0.00    +0.000 OA
ATOM     29  H27 UNL     1      28.797  -9.781 -35.424  0.00  0.00    +0.000 HD
ENDBRANCH   6  28
BRANCH   3  30
ATOM     30  C11 UNL     1      25.847  -6.323 -33.158  0.00  0.00    +0.000 C 
BRANCH  30  31
ATOM     31  O5  UNL     1      24.985  -5.883 -32.141  0.00  0.00    +0.000 OA
ATOM     32  H21 UNL     1      25.456  -6.028 -31.280  0.00  0.00    +0.000 HD
ENDBRANCH  30  31
ENDBRANCH   3  30
TORSDOF 11
ENDMDL
MODEL 5
REMARK VINA RESULT:    -4.684      1.384      2.148
REMARK INTER + INTRA:          -7.728
REMARK INTER:                  -6.712
REMARK INTRA:                  -1.017
REMARK UNBOUND:                -1.128
REMARK  Name = resultss/4CJN/ligands/lig_63_t0.pdb
REMARK  12 active torsions:
REMARK  status: ('A' for Active; 'I' for Inactive)
REMARK    1  A    between atoms: C1_1  and  C2_2
REMARK    2  A    between atoms: C4_4  and  O1_5
REMARK    3  A    between atoms: C5_6  and  O2_7
REMARK    4  A    between atoms: C6_8  and  O3_9
REMARK    5  A    between atoms: C7_10  and  N1_11
REMARK    6  A    between atoms: N1_11  and  C8_12
REMARK    7  A    between atoms: C10_14  and  O4_15
REMARK    8  A    between atoms: C10_14  and  C11_16
REMARK    9  A    between atoms: C11_16  and  O5_17
REMARK   10  A    between atoms: C12_18  and  O6_19
REMARK   11  A    between atoms: C13_20  and  O7_21
REMARK   12  A    between atoms: C14_22  and  O8_23
REMARK                            x       y       z     vdW  Elec       q    Type
REMARK                         _______ _______ _______ _____ _____    ______ ____
ROOT
ATOM      1  C8  UNL     1      27.819  -7.553 -36.380  0.00  0.00    +0.000 C 
ATOM      2  C9  UNL     1      26.333  -7.974 -36.563  0.00  0.00    +0.000 C 
ATOM      3  C10 UNL     1      25.593  -8.303 -35.235  0.00  0.00    +0.000 C 
ATOM      4  C12 UNL     1      26.346  -9.425 -34.421  0.00  0.00    +0.000 C 
ATOM      5  C13 UNL     1      27.784  -9.693 -34.933  0.00  0.00    +0.000 C 
ATOM      6  C14 UNL     1      28.513  -8.370 -35.232  0.00  0.00    +0.000 C 
ENDROOT
BRANCH   1   7
ATOM      7  N1  UNL     1      28.567  -7.669 -37.660  0.00  0.00    +0.000 NA
ATOM      8  H14 UNL     1      28.694  -6.690 -38.005  0.00  0.00    +0.000 HD
BRANCH   7  15
ATOM      9  C1  UNL     1      29.546  -7.731 -40.555  0.00  0.00    +0.000 C 
ATOM     10  C2  UNL     1      28.061  -7.810 -40.138  0.00  0.00    +0.000 C 
ATOM     11  C3  UNL     1      27.216  -8.551 -41.213  0.00  0.00    +0.000 C 
ATOM     12  C4  UNL     1      26.837 -10.005 -40.843  0.00  0.00    +0.000 C 
ATOM     13  C5  UNL     1      27.948 -10.684 -40.026  0.00  0.00    +0.000 C 
ATOM     14  C6  UNL     1      28.248  -9.934 -38.694  0.00  0.00    +0.000 C 
ATOM     15  C7  UNL     1      27.848  -8.427 -38.721  0.00  0.00    +0.000 C 
BRANCH  12  16
ATOM     16  O1  UNL     1      25.633 -10.033 -40.117  0.00  0.00    +0.000 OA
ATOM     17  H8  UNL     1      25.559 -10.938 -39.716  0.00  0.00    +0.000 HD
ENDBRANCH  12  16
BRANCH  13  18
ATOM     18  O2  UNL     1      27.573 -12.012 -39.759  0.00  0.00    +0.000 OA
ATOM     19  H10 UNL     1      27.373 -12.436 -40.633  0.00  0.00    +0.000 HD
ENDBRANCH  13  18
BRANCH  14  20
ATOM     20  O3  UNL     1      29.613 -10.059 -38.380  0.00  0.00    +0.000 OA
ATOM     21  H12 UNL     1      29.830  -9.336 -37.737  0.00  0.00    +0.000 HD
ENDBRANCH  14  20
ENDBRANCH   7  15
ENDBRANCH   1   7
BRANCH   3  22
ATOM     22  O4  UNL     1      24.279  -8.719 -35.542  0.00  0.00    +0.000 OA
ATOM     23  H18 UNL     1      24.325  -9.450 -36.214  0.00  0.00    +0.000 HD
ENDBRANCH   3  22
BRANCH   4  24
ATOM     24  O6  UNL     1      25.618 -10.630 -34.460  0.00  0.00    +0.000 OA
ATOM     25  H23 UNL     1      25.835 -11.080 -35.318  0.00  0.00    +0.000 HD
ENDBRANCH   4  24
BRANCH   5  26
ATOM     26  O7  UNL     1      28.501 -10.410 -33.960  0.00  0.00    +0.000 OA
ATOM     27  H25 UNL     1      28.729 -11.291 -34.356  0.00  0.00    +0.000 HD
ENDBRANCH   5  26
BRANCH   6  28
ATOM     28  O8  UNL     1      29.860  -8.641 -35.538  0.00  0.00    +0.000 OA
ATOM     29  H27 UNL     1      30.012  -9.610 -35.385  0.00  0.00    +0.000 HD
ENDBRANCH   6  28
BRANCH   3  30
ATOM     30  C11 UNL     1      25.460  -7.009 -34.389  0.00  0.00    +0.000 C 
BRANCH  30  31
ATOM     31  O5  UNL     1      25.668  -7.276 -33.026  0.00  0.00    +0.000 OA
ATOM     32  H21 UNL     1      25.862  -8.246 -32.948  0.00  0.00    +0.000 HD
ENDBRANCH  30  31
ENDBRANCH   3  30
TORSDOF 11
ENDMDL
MODEL 6
REMARK VINA RESULT:    -4.621      1.905      2.854
REMARK INTER + INTRA:          -7.641
REMARK INTER:                  -6.996
REMARK INTRA:                  -0.645
REMARK UNBOUND:                -1.128
REMARK  Name = resultss/4CJN/ligands/lig_63_t0.pdb
REMARK  12 active torsions:
REMARK  status: ('A' for Active; 'I' for Inactive)
REMARK    1  A    between atoms: C1_1  and  C2_2
REMARK    2  A    between atoms: C4_4  and  O1_5
REMARK    3  A    between atoms: C5_6  and  O2_7
REMARK    4  A    between atoms: C6_8  and  O3_9
REMARK    5  A    between atoms: C7_10  and  N1_11
REMARK    6  A    between atoms: N1_11  and  C8_12
REMARK    7  A    between atoms: C10_14  and  O4_15
REMARK    8  A    between atoms: C10_14  and  C11_16
REMARK    9  A    between atoms: C11_16  and  O5_17
REMARK   10  A    between atoms: C12_18  and  O6_19
REMARK   11  A    between atoms: C13_20  and  O7_21
REMARK   12  A    between atoms: C14_22  and  O8_23
REMARK                            x       y       z     vdW  Elec       q    Type
REMARK                         _______ _______ _______ _____ _____    ______ ____
ROOT
ATOM      1  C8  UNL     1      26.529  -8.755 -37.366  0.00  0.00    +0.000 C 
ATOM      2  C9  UNL     1      27.166  -8.064 -36.127  0.00  0.00    +0.000 C 
ATOM      3  C10 UNL     1      26.449  -8.374 -34.782  0.00  0.00    +0.000 C 
ATOM      4  C12 UNL     1      24.919  -7.997 -34.847  0.00  0.00    +0.000 C 
ATOM      5  C13 UNL     1      24.413  -7.738 -36.289  0.00  0.00    +0.000 C 
ATOM      6  C14 UNL     1      24.963  -8.799 -37.260  0.00  0.00    +0.000 C 
ENDROOT
BRANCH   1   7
ATOM      7  N1  UNL     1      26.972  -8.101 -38.626  0.00  0.00    +0.000 NA
ATOM      8  H14 UNL     1      26.103  -7.742 -39.081  0.00  0.00    +0.000 HD
BRANCH   7  15
ATOM      9  C1  UNL     1      27.725  -7.218 -41.454  0.00  0.00    +0.000 C 
ATOM     10  C2  UNL     1      27.313  -8.656 -41.075  0.00  0.00    +0.000 C 
ATOM     11  C3  UNL     1      27.924  -9.693 -42.060  0.00  0.00    +0.000 C 
ATOM     12  C4  UNL     1      29.139 -10.472 -41.502  0.00  0.00    +0.000 C 
ATOM     13  C5  UNL     1      29.986  -9.595 -40.566  0.00  0.00    +0.000 C 
ATOM     14  C6  UNL     1      29.173  -9.075 -39.343  0.00  0.00    +0.000 C 
ATOM     15  C7  UNL     1      27.634  -9.022 -39.592  0.00  0.00    +0.000 C 
BRANCH  12  16
ATOM     16  O1  UNL     1      28.715 -11.623 -40.815  0.00  0.00    +0.000 OA
ATOM     17  H8  UNL     1      27.962 -12.008 -41.335  0.00  0.00    +0.000 HD
ENDBRANCH  12  16
BRANCH  13  18
ATOM     18  O2  UNL     1      31.097 -10.335 -40.127  0.00  0.00    +0.000 OA
ATOM     19  H10 UNL     1      30.786 -11.268 -39.992  0.00  0.00    +0.000 HD
ENDBRANCH  13  18
BRANCH  14  20
ATOM     20  O3  UNL     1      29.639  -7.801 -38.974  0.00  0.00    +0.000 OA
ATOM     21  H12 UNL     1      29.447  -7.689 -38.008  0.00  0.00    +0.000 HD
ENDBRANCH  14  20
ENDBRANCH   7  15
ENDBRANCH   1   7
BRANCH   3  22
ATOM     22  O4  UNL     1      27.088  -7.650 -33.753  0.00  0.00    +0.000 OA
ATOM     23  H18 UNL     1      27.143  -6.695 -34.021  0.00  0.00    +0.000 HD
ENDBRANCH   3  22
BRANCH   4  24
ATOM     24  O6  UNL     1      24.661  -6.855 -34.064  0.00  0.00    +0.000 OA
ATOM     25  H23 UNL     1      25.073  -6.080 -34.526  0.00  0.00    +0.000 HD
ENDBRANCH   4  24
BRANCH   5  26
ATOM     26  O7  UNL     1      23.008  -7.777 -36.305  0.00  0.00    +0.000 OA
ATOM     27  H25 UNL     1      22.724  -8.386 -35.575  0.00  0.00    +0.000 HD
ENDBRANCH   5  26
BRANCH   6  28
ATOM     28  O8  UNL     1      24.359  -8.632 -38.521  0.00  0.00    +0.000 OA
ATOM     29  H27 UNL     1      24.976  -8.089 -39.078  0.00  0.00    +0.000 HD
ENDBRANCH   6  28
BRANCH   3  30
ATOM     30  C11 UNL     1      26.629  -9.878 -34.442  0.00  0.00    +0.000 C 
BRANCH  30  31
ATOM     31  O5  UNL     1      25.385 -10.518 -34.322  0.00  0.00    +0.000 OA
ATOM     32  H21 UNL     1      24.720  -9.949 -34.792  0.00  0.00    +0.000 HD
ENDBRANCH  30  31
ENDBRANCH   3  30
TORSDOF 11
ENDMDL
MODEL 7
REMARK VINA RESULT:    -4.599      2.485      6.380
REMARK INTER + INTRA:          -7.610
REMARK INTER:                  -6.963
REMARK INTRA:                  -0.647
REMARK UNBOUND:                -1.128
REMARK  Name = resultss/4CJN/ligands/lig_63_t0.pdb
REMARK  12 active torsions:
REMARK  status: ('A' for Active; 'I' for Inactive)
REMARK    1  A    between atoms: C1_1  and  C2_2
REMARK    2  A    between atoms: C4_4  and  O1_5
REMARK    3  A    between atoms: C5_6  and  O2_7
REMARK    4  A    between atoms: C6_8  and  O3_9
REMARK    5  A    between atoms: C7_10  and  N1_11
REMARK    6  A    between atoms: N1_11  and  C8_12
REMARK    7  A    between atoms: C10_14  and  O4_15
REMARK    8  A    between atoms: C10_14  and  C11_16
REMARK    9  A    between atoms: C11_16  and  O5_17
REMARK   10  A    between atoms: C12_18  and  O6_19
REMARK   11  A    between atoms: C13_20  and  O7_21
REMARK   12  A    between atoms: C14_22  and  O8_23
REMARK                            x       y       z     vdW  Elec       q    Type
REMARK                         _______ _______ _______ _____ _____    ______ ____
ROOT
ATOM      1  C8  UNL     1      25.667  -7.611 -39.042  0.00  0.00    +0.000 C 
ATOM      2  C9  UNL     1      26.339  -8.997 -38.831  0.00  0.00    +0.000 C 
ATOM      3  C10 UNL     1      26.767  -9.708 -40.145  0.00  0.00    +0.000 C 
ATOM      4  C12 UNL     1      25.547  -9.878 -41.130  0.00  0.00    +0.000 C 
ATOM      5  C13 UNL     1      24.317  -9.021 -40.735  0.00  0.00    +0.000 C 
ATOM      6  C14 UNL     1      24.750  -7.604 -40.318  0.00  0.00    +0.000 C 
ENDROOT
BRANCH   1   7
ATOM      7  N1  UNL     1      24.915  -7.193 -37.829  0.00  0.00    +0.000 NA
ATOM      8  H14 UNL     1      25.220  -6.213 -37.629  0.00  0.00    +0.000 HD
BRANCH   7  15
ATOM      9  C1  UNL     1      26.297  -6.010 -35.373  0.00  0.00    +0.000 C 
ATOM     10  C2  UNL     1      26.445  -7.477 -35.830  0.00  0.00    +0.000 C 
ATOM     11  C3  UNL     1      26.799  -8.405 -34.633  0.00  0.00    +0.000 C 
ATOM     12  C4  UNL     1      25.616  -9.255 -34.109  0.00  0.00    +0.000 C 
ATOM     13  C5  UNL     1      24.284  -8.498 -34.227  0.00  0.00    +0.000 C 
ATOM     14  C6  UNL     1      23.952  -8.107 -35.699  0.00  0.00    +0.000 C 
ATOM     15  C7  UNL     1      25.208  -8.008 -36.618  0.00  0.00    +0.000 C 
BRANCH  12  16
ATOM     16  O1  UNL     1      25.532 -10.471 -34.811  0.00  0.00    +0.000 OA
ATOM     17  H8  UNL     1      24.895 -10.328 -35.559  0.00  0.00    +0.000 HD
ENDBRANCH  12  16
BRANCH  13  18
ATOM     18  O2  UNL     1      23.256  -9.295 -33.696  0.00  0.00    +0.000 OA
ATOM     19  H10 UNL     1      22.608  -8.680 -33.264  0.00  0.00    +0.000 HD
ENDBRANCH  13  18
BRANCH  14  20
ATOM     20  O3  UNL     1      23.252  -6.887 -35.716  0.00  0.00    +0.000 OA
ATOM     21  H12 UNL     1      23.784  -6.239 -35.186  0.00  0.00    +0.000 HD
ENDBRANCH  14  20
ENDBRANCH   7  15
ENDBRANCH   1   7
BRANCH   3  22
ATOM     22  O4  UNL     1      27.312 -10.969 -39.819  0.00  0.00    +0.000 OA
ATOM     23  H18 UNL     1      26.582 -11.643 -39.823  0.00  0.00    +0.000 HD
ENDBRANCH   3  22
BRANCH   4  24
ATOM     24  O6  UNL     1      25.157 -11.229 -41.199  0.00  0.00    +0.000 OA
ATOM     25  H23 UNL     1      25.975 -11.780 -41.093  0.00  0.00    +0.000 HD
ENDBRANCH   4  24
BRANCH   5  26
ATOM     26  O7  UNL     1      23.436  -8.937 -41.827  0.00  0.00    +0.000 OA
ATOM     27  H25 UNL     1      23.554  -8.036 -42.228  0.00  0.00    +0.000 HD
ENDBRANCH   5  26
BRANCH   6  28
ATOM     28  O8  UNL     1      23.605  -6.808 -40.122  0.00  0.00    +0.000 OA
ATOM     29  H27 UNL     1      23.913  -5.910 -39.830  0.00  0.00    +0.000 HD
ENDBRANCH   6  28
BRANCH   3  30
ATOM     30  C11 UNL     1      27.906  -8.896 -40.819  0.00  0.00    +0.000 C 
BRANCH  30  31
ATOM     31  O5  UNL     1      27.612  -8.642 -42.168  0.00  0.00    +0.000 OA
ATOM     32  H21 UNL     1      28.308  -8.018 -42.503  0.00  0.00    +0.000 HD
ENDBRANCH  30  31
ENDBRANCH   3  30
TORSDOF 11
ENDMDL
MODEL 8
REMARK VINA RESULT:    -4.440      1.886      6.300
REMARK INTER + INTRA:          -7.385
REMARK INTER:                  -6.745
REMARK INTRA:                  -0.641
REMARK UNBOUND:                -1.128
REMARK  Name = resultss/4CJN/ligands/lig_63_t0.pdb
REMARK  12 active torsions:
REMARK  status: ('A' for Active; 'I' for Inactive)
REMARK    1  A    between atoms: C1_1  and  C2_2
REMARK    2  A    between atoms: C4_4  and  O1_5
REMARK    3  A    between atoms: C5_6  and  O2_7
REMARK    4  A    between atoms: C6_8  and  O3_9
REMARK    5  A    between atoms: C7_10  and  N1_11
REMARK    6  A    between atoms: N1_11  and  C8_12
REMARK    7  A    between atoms: C10_14  and  O4_15
REMARK    8  A    between atoms: C10_14  and  C11_16
REMARK    9  A    between atoms: C11_16  and  O5_17
REMARK   10  A    between atoms: C12_18  and  O6_19
REMARK   11  A    between atoms: C13_20  and  O7_21
REMARK   12  A    between atoms: C14_22  and  O8_23
REMARK                            x       y       z     vdW  Elec       q    Type
REMARK                         _______ _______ _______ _____ _____    ______ ____
ROOT
ATOM      1  C8  UNL     1      26.207  -8.740 -38.198  0.00  0.00    +0.000 C 
ATOM      2  C9  UNL     1      27.550  -9.492 -37.978  0.00  0.00    +0.000 C 
ATOM      3  C10 UNL     1      28.404  -9.668 -39.265  0.00  0.00    +0.000 C 
ATOM      4  C12 UNL     1      27.589 -10.400 -40.399  0.00  0.00    +0.000 C 
ATOM      5  C13 UNL     1      26.067 -10.468 -40.114  0.00  0.00    +0.000 C 
ATOM      6  C14 UNL     1      25.552  -9.121 -39.574  0.00  0.00    +0.000 C 
ENDROOT
BRANCH   1   7
ATOM      7  N1  UNL     1      25.272  -8.976 -37.066  0.00  0.00    +0.000 NA
ATOM      8  H14 UNL     1      24.318  -8.767 -37.437  0.00  0.00    +0.000 HD
BRANCH   7  15
ATOM      9  C1  UNL     1      22.990  -8.097 -35.232  0.00  0.00    +0.000 C 
ATOM     10  C2  UNL     1      24.238  -7.241 -35.536  0.00  0.00    +0.000 C 
ATOM     11  C3  UNL     1      24.531  -6.245 -34.378  0.00  0.00    +0.000 C 
ATOM     12  C4  UNL     1      25.705  -6.658 -33.457  0.00  0.00    +0.000 C 
ATOM     13  C5  UNL     1      25.785  -8.184 -33.299  0.00  0.00    +0.000 C 
ATOM     14  C6  UNL     1      25.992  -8.912 -34.662  0.00  0.00    +0.000 C 
ATOM     15  C7  UNL     1      25.499  -8.089 -35.891  0.00  0.00    +0.000 C 
BRANCH  12  16
ATOM     16  O1  UNL     1      26.924  -6.171 -33.962  0.00  0.00    +0.000 OA
ATOM     17  H8  UNL     1      27.371  -5.688 -33.218  0.00  0.00    +0.000 HD
ENDBRANCH  12  16
BRANCH  13  18
ATOM     18  O2  UNL     1      26.835  -8.499 -32.420  0.00  0.00    +0.000 OA
ATOM     19  H10 UNL     1      27.648  -8.050 -32.769  0.00  0.00    +0.000 HD
ENDBRANCH  13  18
BRANCH  14  20
ATOM     20  O3  UNL     1      25.345 -10.159 -34.633  0.00  0.00    +0.000 OA
ATOM     21  H12 UNL     1      25.642 -10.622 -33.808  0.00  0.00    +0.000 HD
ENDBRANCH  14  20
ENDBRANCH   7  15
ENDBRANCH   1   7
BRANCH   3  22
ATOM     22  O4  UNL     1      29.563 -10.406 -38.940  0.00  0.00    +0.000 OA
ATOM     23  H18 UNL     1      29.741 -10.308 -37.968  0.00  0.00    +0.000 HD
ENDBRANCH   3  22
BRANCH   4  24
ATOM     24  O6  UNL     1      28.074 -11.709 -40.585  0.00  0.00    +0.000 OA
ATOM     25  H23 UNL     1      28.456 -12.009 -39.719  0.00  0.00    +0.000 HD
ENDBRANCH   4  24
BRANCH   5  26
ATOM     26  O7  UNL     1      25.382 -10.787 -41.299  0.00  0.00    +0.000 OA
ATOM     27  H25 UNL     1      24.990 -11.690 -41.175  0.00  0.00    +0.000 HD
ENDBRANCH   5  26
BRANCH   6  28
ATOM     28  O8  UNL     1      24.148  -9.164 -39.479  0.00  0.00    +0.000 OA
ATOM     29  H27 UNL     1      23.824  -8.228 -39.415  0.00  0.00    +0.000 HD
ENDBRANCH   6  28
BRANCH   3  30
ATOM     30  C11 UNL     1      28.889  -8.276 -39.751  0.00  0.00    +0.000 C 
BRANCH  30  31
ATOM     31  O5  UNL     1      28.658  -8.115 -41.127  0.00  0.00    +0.000 OA
ATOM     32  H21 UNL     1      28.263  -7.213 -41.250  0.00  0.00    +0.000 HD
ENDBRANCH  30  31
ENDBRANCH   3  30
TORSDOF 11
ENDMDL
MODEL 9
REMARK VINA RESULT:    -4.313      1.994      6.202
REMARK INTER + INTRA:          -7.206
REMARK INTER:                  -6.646
REMARK INTRA:                  -0.560
REMARK UNBOUND:                -1.128
REMARK  Name = resultss/4CJN/ligands/lig_63_t0.pdb
REMARK  12 active torsions:
REMARK  status: ('A' for Active; 'I' for Inactive)
REMARK    1  A    between atoms: C1_1  and  C2_2
REMARK    2  A    between atoms: C4_4  and  O1_5
REMARK    3  A    between atoms: C5_6  and  O2_7
REMARK    4  A    between atoms: C6_8  and  O3_9
REMARK    5  A    between atoms: C7_10  and  N1_11
REMARK    6  A    between atoms: N1_11  and  C8_12
REMARK    7  A    between atoms: C10_14  and  O4_15
REMARK    8  A    between atoms: C10_14  and  C11_16
REMARK    9  A    between atoms: C11_16  and  O5_17
REMARK   10  A    between atoms: C12_18  and  O6_19
REMARK   11  A    between atoms: C13_20  and  O7_21
REMARK   12  A    between atoms: C14_22  and  O8_23
REMARK                            x       y       z     vdW  Elec       q    Type
REMARK                         _______ _______ _______ _____ _____    ______ ____
ROOT
ATOM      1  C8  UNL     1      27.005  -8.578 -38.793  0.00  0.00    +0.000 C 
ATOM      2  C9  UNL     1      26.006  -9.606 -39.396  0.00  0.00    +0.000 C 
ATOM      3  C10 UNL     1      26.488 -10.266 -40.719  0.00  0.00    +0.000 C 
ATOM      4  C12 UNL     1      26.826  -9.181 -41.812  0.00  0.00    +0.000 C 
ATOM      5  C13 UNL     1      26.933  -7.746 -41.238  0.00  0.00    +0.000 C 
ATOM      6  C14 UNL     1      27.721  -7.744 -39.915  0.00  0.00    +0.000 C 
ENDROOT
BRANCH   1   7
ATOM      7  N1  UNL     1      26.329  -7.695 -37.806  0.00  0.00    +0.000 NA
ATOM      8  H14 UNL     1      26.985  -6.898 -37.641  0.00  0.00    +0.000 HD
BRANCH   7  15
ATOM      9  C1  UNL     1      26.988  -6.308 -35.163  0.00  0.00    +0.000 C 
ATOM     10  C2  UNL     1      27.041  -7.836 -35.379  0.00  0.00    +0.000 C 
ATOM     11  C3  UNL     1      26.821  -8.600 -34.042  0.00  0.00    +0.000 C 
ATOM     12  C4  UNL     1      25.410  -9.216 -33.878  0.00  0.00    +0.000 C 
ATOM     13  C5  UNL     1      24.334  -8.338 -34.537  0.00  0.00    +0.000 C 
ATOM     14  C6  UNL     1      24.578  -8.147 -36.065  0.00  0.00    +0.000 C 
ATOM     15  C7  UNL     1      26.067  -8.339 -36.489  0.00  0.00    +0.000 C 
BRANCH  12  16
ATOM     16  O1  UNL     1      25.369 -10.509 -34.431  0.00  0.00    +0.000 OA
ATOM     17  H8  UNL     1      24.803 -10.456 -35.245  0.00  0.00    +0.000 HD
ENDBRANCH  12  16
BRANCH  13  18
ATOM     18  O2  UNL     1      23.074  -8.919 -34.319  0.00  0.00    +0.000 OA
ATOM     19  H10 UNL     1      22.396  -8.239 -34.571  0.00  0.00    +0.000 HD
ENDBRANCH  13  18
BRANCH  14  20
ATOM     20  O3  UNL     1      24.131  -6.873 -36.457  0.00  0.00    +0.000 OA
ATOM     21  H12 UNL     1      23.644  -6.485 -35.685  0.00  0.00    +0.000 HD
ENDBRANCH  14  20
ENDBRANCH   7  15
ENDBRANCH   1   7
BRANCH   3  22
ATOM     22  O4  UNL     1      25.476 -11.134 -41.185  0.00  0.00    +0.000 OA
ATOM     23  H18 UNL     1      25.729 -12.068 -40.962  0.00  0.00    +0.000 HD
ENDBRANCH   3  22
BRANCH   4  24
ATOM     24  O6  UNL     1      25.852  -9.192 -42.830  0.00  0.00    +0.000 OA
ATOM     25  H23 UNL     1      26.311  -9.435 -43.676  0.00  0.00    +0.000 HD
ENDBRANCH   4  24
BRANCH   5  26
ATOM     26  O7  UNL     1      27.584  -6.918 -42.169  0.00  0.00    +0.000 OA
ATOM     27  H25 UNL     1      28.517  -6.799 -41.851  0.00  0.00    +0.000 HD
ENDBRANCH   5  26
BRANCH   6  28
ATOM     28  O8  UNL     1      27.939  -6.415 -39.506  0.00  0.00    +0.000 OA
ATOM     29  H27 UNL     1      27.447  -5.824 -40.134  0.00  0.00    +0.000 HD
ENDBRANCH   6  28
BRANCH   3  30
ATOM     30  C11 UNL     1      27.728 -11.153 -40.426  0.00  0.00    +0.000 C 
BRANCH  30  31
ATOM     31  O5  UNL     1      27.341 -12.437 -40.008  0.00  0.00    +0.000 OA
ATOM     32  H21 UNL     1      27.546 -12.499 -39.039  0.00  0.00    +0.000 HD
ENDBRANCH  30  31
ENDBRANCH   3  30
TORSDOF 11
ENDMDL
