MODEL 1
REMARK VINA RESULT:    -6.104      0.000      0.000
REMARK INTER + INTRA:          -8.575
REMARK INTER:                  -7.888
REMARK INTRA:                  -0.686
REMARK UNBOUND:                -0.686
REMARK  Name = resultss/4CJN/ligands/lig_392_t2.pdb
REMARK  6 active torsions:
REMARK  status: ('A' for Active; 'I' for Inactive)
REMARK    1  A    between atoms: C1_1  and  C2_2
REMARK    2  A    between atoms: C5_5  and  S1_6
REMARK    3  A    between atoms: S1_6  and  O3_9
REMARK    4  A    between atoms: O3_9  and  C6_10
REMARK    5  A    between atoms: C9_13  and  C10_14
REMARK    6  A    between atoms: N1_15  and  N2_16
REMARK                            x       y       z     vdW  Elec       q    Type
REMARK                         _______ _______ _______ _____ _____    ______ ____
ROOT
ATOM      1  C6  UNL     1      26.296  -8.542 -38.743  0.00  0.00    +0.000 A 
ATOM      2  C7  UNL     1      27.312  -9.323 -38.163  0.00  0.00    +0.000 A 
ATOM      3  C8  UNL     1      27.233  -9.698 -36.819  0.00  0.00    +0.000 A 
ATOM      4  C9  UNL     1      26.148  -9.286 -36.026  0.00  0.00    +0.000 A 
ATOM      5  C14 UNL     1      25.123  -8.532 -36.616  0.00  0.00    +0.000 A 
ATOM      6  C15 UNL     1      25.203  -8.156 -37.959  0.00  0.00    +0.000 A 
ENDROOT
BRANCH   4   7
ATOM      7  C10 UNL     1      26.018  -9.689 -34.608  0.00  0.00    +0.000 C 
ATOM      8  N1  UNL     1      26.794  -9.256 -33.661  0.00  0.00    +0.000 NA
BRANCH   8   9
ATOM      9  N2  UNL     1      27.832  -8.338 -33.882  0.00  0.00    +0.000 NA
ATOM     10  C11 UNL     1      29.073  -8.644 -33.672  0.00  0.00    +0.000 C 
ATOM     11  N3  UNL     1      29.485  -9.919 -33.209  0.00  0.00    +0.000 N 
ATOM     12  C12 UNL     1      30.892  -9.969 -33.077  0.00  0.00    +0.000 C 
ATOM     13  O4  UNL     1      31.482 -11.008 -32.679  0.00  0.00    +0.000 OA
ATOM     14  C13 UNL     1      31.629  -8.722 -33.437  0.00  0.00    +0.000 C 
ATOM     15  S2  UNL     1      30.390  -7.472 -33.958  0.00  0.00    +0.000 S 
ATOM     16  H9  UNL     1      28.849 -10.718 -32.992  0.00  0.00    +0.000 HD
ENDBRANCH   8   9
ENDBRANCH   4   7
BRANCH   1  17
ATOM     17  O3  UNL     1      26.325  -8.133 -40.083  0.00  0.00    +0.000 OA
BRANCH  17  18
ATOM     18  S1  UNL     1      26.196  -9.184 -41.428  0.00  0.00    +0.000 S 
ATOM     19  O1  UNL     1      25.508  -8.462 -42.552  0.00  0.00    +0.000 OA
ATOM     20  O2  UNL     1      25.406 -10.404 -41.047  0.00  0.00    +0.000 OA
BRANCH  18  25
ATOM     21  C1  UNL     1      31.744 -10.881 -43.209  0.00  0.00    +0.000 C 
ATOM     22  C2  UNL     1      30.387 -10.440 -42.749  0.00  0.00    +0.000 A 
ATOM     23  C3  UNL     1      29.703  -9.425 -43.435  0.00  0.00    +0.000 A 
ATOM     24  C4  UNL     1      28.421  -9.039 -43.029  0.00  0.00    +0.000 A 
ATOM     25  C5  UNL     1      27.805  -9.675 -41.944  0.00  0.00    +0.000 A 
ATOM     26  C16 UNL     1      28.481 -10.696 -41.264  0.00  0.00    +0.000 A 
ATOM     27  C17 UNL     1      29.761 -11.083 -41.669  0.00  0.00    +0.000 A 
ENDBRANCH  18  25
ENDBRANCH  17  18
ENDBRANCH   1  17
TORSDOF 5
ENDMDL
MODEL 2
REMARK VINA RESULT:    -6.103      4.268      5.991
REMARK INTER + INTRA:          -8.573
REMARK INTER:                  -8.102
REMARK INTRA:                  -0.470
REMARK UNBOUND:                -0.686
REMARK  Name = resultss/4CJN/ligands/lig_392_t2.pdb
REMARK  6 active torsions:
REMARK  status: ('A' for Active; 'I' for Inactive)
REMARK    1  A    between atoms: C1_1  and  C2_2
REMARK    2  A    between atoms: C5_5  and  S1_6
REMARK    3  A    between atoms: S1_6  and  O3_9
REMARK    4  A    between atoms: O3_9  and  C6_10
REMARK    5  A    between atoms: C9_13  and  C10_14
REMARK    6  A    between atoms: N1_15  and  N2_16
REMARK                            x       y       z     vdW  Elec       q    Type
REMARK                         _______ _______ _______ _____ _____    ______ ____
ROOT
ATOM      1  C6  UNL     1      28.639  -8.855 -42.771  0.00  0.00    +0.000 A 
ATOM      2  C7  UNL     1      27.450  -9.576 -42.983  0.00  0.00    +0.000 A 
ATOM      3  C8  UNL     1      26.236  -9.099 -42.479  0.00  0.00    +0.000 A 
ATOM      4  C9  UNL     1      26.191  -7.904 -41.740  0.00  0.00    +0.000 A 
ATOM      5  C14 UNL     1      27.374  -7.174 -41.556  0.00  0.00    +0.000 A 
ATOM      6  C15 UNL     1      28.587  -7.651 -42.059  0.00  0.00    +0.000 A 
ENDROOT
BRANCH   4   7
ATOM      7  C10 UNL     1      24.920  -7.356 -41.217  0.00  0.00    +0.000 C 
ATOM      8  N1  UNL     1      24.545  -7.460 -39.978  0.00  0.00    +0.000 NA
BRANCH   8   9
ATOM      9  N2  UNL     1      25.321  -8.091 -38.994  0.00  0.00    +0.000 NA
ATOM     10  C11 UNL     1      24.944  -8.147 -37.756  0.00  0.00    +0.000 C 
ATOM     11  N3  UNL     1      23.727  -7.584 -37.294  0.00  0.00    +0.000 N 
ATOM     12  C12 UNL     1      23.576  -7.800 -35.905  0.00  0.00    +0.000 C 
ATOM     13  O4  UNL     1      22.565  -7.386 -35.278  0.00  0.00    +0.000 OA
ATOM     14  C13 UNL     1      24.680  -8.547 -35.233  0.00  0.00    +0.000 C 
ATOM     15  S2  UNL     1      25.936  -8.954 -36.508  0.00  0.00    +0.000 S 
ATOM     16  H9  UNL     1      23.032  -7.079 -37.887  0.00  0.00    +0.000 HD
ENDBRANCH   8   9
ENDBRANCH   4   7
BRANCH   1  17
ATOM     17  O3  UNL     1      29.883  -9.287 -43.249  0.00  0.00    +0.000 OA
BRANCH  17  18
ATOM     18  S1  UNL     1      30.840 -10.505 -42.521  0.00  0.00    +0.000 S 
ATOM     19  O1  UNL     1      29.939 -11.491 -41.831  0.00  0.00    +0.000 OA
ATOM     20  O2  UNL     1      31.779  -9.889 -41.523  0.00  0.00    +0.000 OA
BRANCH  18  25
ATOM     21  C1  UNL     1      34.070 -13.361 -46.793  0.00  0.00    +0.000 C 
ATOM     22  C2  UNL     1      33.247 -12.653 -45.758  0.00  0.00    +0.000 A 
ATOM     23  C3  UNL     1      32.461 -13.387 -44.857  0.00  0.00    +0.000 A 
ATOM     24  C4  UNL     1      31.721 -12.729 -43.868  0.00  0.00    +0.000 A 
ATOM     25  C5  UNL     1      31.775 -11.333 -43.760  0.00  0.00    +0.000 A 
ATOM     26  C16 UNL     1      32.568 -10.599 -44.651  0.00  0.00    +0.000 A 
ATOM     27  C17 UNL     1      33.307 -11.255 -45.639  0.00  0.00    +0.000 A 
ENDBRANCH  18  25
ENDBRANCH  17  18
ENDBRANCH   1  17
TORSDOF 5
ENDMDL
MODEL 3
REMARK VINA RESULT:    -6.079      4.866      8.726
REMARK INTER + INTRA:          -8.542
REMARK INTER:                  -7.931
REMARK INTRA:                  -0.612
REMARK UNBOUND:                -0.686
REMARK  Name = resultss/4CJN/ligands/lig_392_t2.pdb
REMARK  6 active torsions:
REMARK  status: ('A' for Active; 'I' for Inactive)
REMARK    1  A    between atoms: C1_1  and  C2_2
REMARK    2  A    between atoms: C5_5  and  S1_6
REMARK    3  A    between atoms: S1_6  and  O3_9
REMARK    4  A    between atoms: O3_9  and  C6_10
REMARK    5  A    between atoms: C9_13  and  C10_14
REMARK    6  A    between atoms: N1_15  and  N2_16
REMARK                            x       y       z     vdW  Elec       q    Type
REMARK                         _______ _______ _______ _____ _____    ______ ____
ROOT
ATOM      1  C6  UNL     1      28.318 -10.299 -38.567  0.00  0.00    +0.000 A 
ATOM      2  C7  UNL     1      29.363  -9.392 -38.820  0.00  0.00    +0.000 A 
ATOM      3  C8  UNL     1      29.655  -8.999 -40.130  0.00  0.00    +0.000 A 
ATOM      4  C9  UNL     1      28.920  -9.519 -41.210  0.00  0.00    +0.000 A 
ATOM      5  C14 UNL     1      27.861 -10.400 -40.951  0.00  0.00    +0.000 A 
ATOM      6  C15 UNL     1      27.570 -10.793 -39.642  0.00  0.00    +0.000 A 
ENDROOT
BRANCH   4   7
ATOM      7  C10 UNL     1      29.183  -9.103 -42.606  0.00  0.00    +0.000 C 
ATOM      8  N1  UNL     1      30.086  -9.649 -43.364  0.00  0.00    +0.000 NA
BRANCH   8   9
ATOM      9  N2  UNL     1      30.899 -10.712 -42.941  0.00  0.00    +0.000 NA
ATOM     10  C11 UNL     1      31.827 -11.207 -43.697  0.00  0.00    +0.000 C 
ATOM     11  N3  UNL     1      32.100 -10.722 -45.001  0.00  0.00    +0.000 N 
ATOM     12  C12 UNL     1      33.164 -11.445 -45.587  0.00  0.00    +0.000 C 
ATOM     13  O4  UNL     1      33.579 -11.185 -46.747  0.00  0.00    +0.000 OA
ATOM     14  C13 UNL     1      33.762 -12.527 -44.750  0.00  0.00    +0.000 C 
ATOM     15  S2  UNL     1      32.861 -12.558 -43.151  0.00  0.00    +0.000 S 
ATOM     16  H9  UNL     1      31.594  -9.940 -45.473  0.00  0.00    +0.000 HD
ENDBRANCH   8   9
ENDBRANCH   4   7
BRANCH   1  17
ATOM     17  O3  UNL     1      27.984 -10.730 -37.276  0.00  0.00    +0.000 OA
BRANCH  17  18
ATOM     18  S1  UNL     1      27.531  -9.698 -35.988  0.00  0.00    +0.000 S 
ATOM     19  O1  UNL     1      26.336 -10.280 -35.288  0.00  0.00    +0.000 OA
ATOM     20  O2  UNL     1      27.194  -8.334 -36.522  0.00  0.00    +0.000 OA
BRANCH  18  25
ATOM     21  C1  UNL     1      32.136  -9.226 -32.063  0.00  0.00    +0.000 C 
ATOM     22  C2  UNL     1      30.999  -9.310 -33.038  0.00  0.00    +0.000 A 
ATOM     23  C3  UNL     1      31.251  -9.517 -34.402  0.00  0.00    +0.000 A 
ATOM     24  C4  UNL     1      30.190  -9.633 -35.306  0.00  0.00    +0.000 A 
ATOM     25  C5  UNL     1      28.867  -9.560 -34.851  0.00  0.00    +0.000 A 
ATOM     26  C16 UNL     1      28.612  -9.365 -33.488  0.00  0.00    +0.000 A 
ATOM     27  C17 UNL     1      29.672  -9.249 -32.584  0.00  0.00    +0.000 A 
ENDBRANCH  18  25
ENDBRANCH  17  18
ENDBRANCH   1  17
TORSDOF 5
ENDMDL
MODEL 4
REMARK VINA RESULT:    -5.966      5.399      8.395
REMARK INTER + INTRA:          -8.397
REMARK INTER:                  -7.639
REMARK INTRA:                  -0.758
REMARK UNBOUND:                -0.686
REMARK  Name = resultss/4CJN/ligands/lig_392_t2.pdb
REMARK  6 active torsions:
REMARK  status: ('A' for Active; 'I' for Inactive)
REMARK    1  A    between atoms: C1_1  and  C2_2
REMARK    2  A    between atoms: C5_5  and  S1_6
REMARK    3  A    between atoms: S1_6  and  O3_9
REMARK    4  A    between atoms: O3_9  and  C6_10
REMARK    5  A    between atoms: C9_13  and  C10_14
REMARK    6  A    between atoms: N1_15  and  N2_16
REMARK                            x       y       z     vdW  Elec       q    Type
REMARK                         _______ _______ _______ _____ _____    ______ ____
ROOT
ATOM      1  C6  UNL     1      27.673  -9.562 -40.449  0.00  0.00    +0.000 A 
ATOM      2  C7  UNL     1      27.025 -10.293 -41.461  0.00  0.00    +0.000 A 
ATOM      3  C8  UNL     1      25.755  -9.913 -41.904  0.00  0.00    +0.000 A 
ATOM      4  C9  UNL     1      25.102  -8.807 -41.331  0.00  0.00    +0.000 A 
ATOM      5  C14 UNL     1      25.762  -8.064 -40.342  0.00  0.00    +0.000 A 
ATOM      6  C15 UNL     1      27.032  -8.445 -39.900  0.00  0.00    +0.000 A 
ENDROOT
BRANCH   4   7
ATOM      7  C10 UNL     1      23.770  -8.360 -41.796  0.00  0.00    +0.000 C 
ATOM      8  N1  UNL     1      23.587  -7.564 -42.806  0.00  0.00    +0.000 NA
BRANCH   8   9
ATOM      9  N2  UNL     1      24.642  -7.056 -43.580  0.00  0.00    +0.000 NA
ATOM     10  C11 UNL     1      24.644  -7.140 -44.873  0.00  0.00    +0.000 C 
ATOM     11  N3  UNL     1      23.593  -7.743 -45.608  0.00  0.00    +0.000 N 
ATOM     12  C12 UNL     1      23.861  -7.687 -46.996  0.00  0.00    +0.000 C 
ATOM     13  O4  UNL     1      23.061  -8.163 -47.843  0.00  0.00    +0.000 OA
ATOM     14  C13 UNL     1      25.143  -7.031 -47.390  0.00  0.00    +0.000 C 
ATOM     15  S2  UNL     1      25.989  -6.490 -45.853  0.00  0.00    +0.000 S 
ATOM     16  H9  UNL     1      22.735  -8.171 -45.196  0.00  0.00    +0.000 HD
ENDBRANCH   8   9
ENDBRANCH   4   7
BRANCH   1  17
ATOM     17  O3  UNL     1      28.943  -9.900 -39.964  0.00  0.00    +0.000 OA
BRANCH  17  18
ATOM     18  S1  UNL     1      30.413  -9.222 -40.521  0.00  0.00    +0.000 S 
ATOM     19  O1  UNL     1      31.324  -8.993 -39.348  0.00  0.00    +0.000 OA
ATOM     20  O2  UNL     1      30.141  -7.918 -41.217  0.00  0.00    +0.000 OA
BRANCH  18  25
ATOM     21  C1  UNL     1      33.053 -13.050 -44.421  0.00  0.00    +0.000 C 
ATOM     22  C2  UNL     1      32.405 -12.125 -43.433  0.00  0.00    +0.000 A 
ATOM     23  C3  UNL     1      33.172 -11.166 -42.755  0.00  0.00    +0.000 A 
ATOM     24  C4  UNL     1      32.563 -10.279 -41.861  0.00  0.00    +0.000 A 
ATOM     25  C5  UNL     1      31.179 -10.332 -41.650  0.00  0.00    +0.000 A 
ATOM     26  C16 UNL     1      30.409 -11.281 -42.335  0.00  0.00    +0.000 A 
ATOM     27  C17 UNL     1      31.017 -12.167 -43.228  0.00  0.00    +0.000 A 
ENDBRANCH  18  25
ENDBRANCH  17  18
ENDBRANCH   1  17
TORSDOF 5
ENDMDL
MODEL 5
REMARK VINA RESULT:    -5.887      4.497      9.187
REMARK INTER + INTRA:          -8.295
REMARK INTER:                  -7.461
REMARK INTRA:                  -0.834
REMARK UNBOUND:                -0.686
REMARK  Name = resultss/4CJN/ligands/lig_392_t2.pdb
REMARK  6 active torsions:
REMARK  status: ('A' for Active; 'I' for Inactive)
REMARK    1  A    between atoms: C1_1  and  C2_2
REMARK    2  A    between atoms: C5_5  and  S1_6
REMARK    3  A    between atoms: S1_6  and  O3_9
REMARK    4  A    between atoms: O3_9  and  C6_10
REMARK    5  A    between atoms: C9_13  and  C10_14
REMARK    6  A    between atoms: N1_15  and  N2_16
REMARK                            x       y       z     vdW  Elec       q    Type
REMARK                         _______ _______ _______ _____ _____    ______ ____
ROOT
ATOM      1  C6  UNL     1      27.709  -8.470 -38.417  0.00  0.00    +0.000 A 
ATOM      2  C7  UNL     1      26.362  -8.095 -38.570  0.00  0.00    +0.000 A 
ATOM      3  C8  UNL     1      25.559  -8.722 -39.527  0.00  0.00    +0.000 A 
ATOM      4  C9  UNL     1      26.092  -9.722 -40.360  0.00  0.00    +0.000 A 
ATOM      5  C14 UNL     1      27.427 -10.113 -40.185  0.00  0.00    +0.000 A 
ATOM      6  C15 UNL     1      28.229  -9.485 -39.229  0.00  0.00    +0.000 A 
ENDROOT
BRANCH   4   7
ATOM      7  C10 UNL     1      25.262 -10.426 -41.364  0.00  0.00    +0.000 C 
ATOM      8  N1  UNL     1      24.987  -9.944 -42.538  0.00  0.00    +0.000 NA
BRANCH   8   9
ATOM      9  N2  UNL     1      25.467  -8.705 -42.989  0.00  0.00    +0.000 NA
ATOM     10  C11 UNL     1      24.730  -7.896 -43.681  0.00  0.00    +0.000 C 
ATOM     11  N3  UNL     1      23.389  -8.187 -44.037  0.00  0.00    +0.000 N 
ATOM     12  C12 UNL     1      22.831  -7.125 -44.785  0.00  0.00    +0.000 C 
ATOM     13  O4  UNL     1      21.646  -7.166 -45.208  0.00  0.00    +0.000 OA
ATOM     14  C13 UNL     1      23.727  -5.958 -45.037  0.00  0.00    +0.000 C 
ATOM     15  S2  UNL     1      25.346  -6.318 -44.249  0.00  0.00    +0.000 S 
ATOM     16  H9  UNL     1      22.874  -9.061 -43.787  0.00  0.00    +0.000 HD
ENDBRANCH   8   9
ENDBRANCH   4   7
BRANCH   1  17
ATOM     17  O3  UNL     1      28.561  -7.874 -37.478  0.00  0.00    +0.000 OA
BRANCH  17  18
ATOM     18  S1  UNL     1      28.844  -8.471 -35.899  0.00  0.00    +0.000 S 
ATOM     19  O1  UNL     1      29.744  -7.516 -35.166  0.00  0.00    +0.000 OA
ATOM     20  O2  UNL     1      29.492  -9.825 -35.974  0.00  0.00    +0.000 OA
BRANCH  18  25
ATOM     21  C1  UNL     1      23.567  -8.948 -32.939  0.00  0.00    +0.000 C 
ATOM     22  C2  UNL     1      24.855  -8.831 -33.699  0.00  0.00    +0.000 A 
ATOM     23  C3  UNL     1      25.369  -7.568 -34.030  0.00  0.00    +0.000 A 
ATOM     24  C4  UNL     1      26.589  -7.458 -34.706  0.00  0.00    +0.000 A 
ATOM     25  C5  UNL     1      27.314  -8.609 -35.042  0.00  0.00    +0.000 A 
ATOM     26  C16 UNL     1      26.809  -9.870 -34.703  0.00  0.00    +0.000 A 
ATOM     27  C17 UNL     1      25.591  -9.982 -34.027  0.00  0.00    +0.000 A 
ENDBRANCH  18  25
ENDBRANCH  17  18
ENDBRANCH   1  17
TORSDOF 5
ENDMDL
MODEL 6
REMARK VINA RESULT:    -5.766      4.251      7.600
REMARK INTER + INTRA:          -8.138
REMARK INTER:                  -7.821
REMARK INTRA:                  -0.317
REMARK UNBOUND:                -0.686
REMARK  Name = resultss/4CJN/ligands/lig_392_t2.pdb
REMARK  6 active torsions:
REMARK  status: ('A' for Active; 'I' for Inactive)
REMARK    1  A    between atoms: C1_1  and  C2_2
REMARK    2  A    between atoms: C5_5  and  S1_6
REMARK    3  A    between atoms: S1_6  and  O3_9
REMARK    4  A    between atoms: O3_9  and  C6_10
REMARK    5  A    between atoms: C9_13  and  C10_14
REMARK    6  A    between atoms: N1_15  and  N2_16
REMARK                            x       y       z     vdW  Elec       q    Type
REMARK                         _______ _______ _______ _____ _____    ______ ____
ROOT
ATOM      1  C6  UNL     1      26.595  -9.036 -37.032  0.00  0.00    +0.000 A 
ATOM      2  C7  UNL     1      27.592 -10.028 -37.017  0.00  0.00    +0.000 A 
ATOM      3  C8  UNL     1      28.031 -10.605 -38.212  0.00  0.00    +0.000 A 
ATOM      4  C9  UNL     1      27.470 -10.214 -39.441  0.00  0.00    +0.000 A 
ATOM      5  C14 UNL     1      26.497  -9.205 -39.454  0.00  0.00    +0.000 A 
ATOM      6  C15 UNL     1      26.058  -8.628 -38.259  0.00  0.00    +0.000 A 
ENDROOT
BRANCH   4   7
ATOM      7  C10 UNL     1      27.931 -10.784 -40.727  0.00  0.00    +0.000 C 
ATOM      8  N1  UNL     1      29.101 -10.550 -41.241  0.00  0.00    +0.000 NA
BRANCH   8   9
ATOM      9  N2  UNL     1      30.064  -9.742 -40.617  0.00  0.00    +0.000 NA
ATOM     10  C11 UNL     1      31.324  -9.832 -40.905  0.00  0.00    +0.000 C 
ATOM     11  N3  UNL     1      31.832 -10.741 -41.867  0.00  0.00    +0.000 N 
ATOM     12  C12 UNL     1      33.236 -10.615 -41.976  0.00  0.00    +0.000 C 
ATOM     13  O4  UNL     1      33.903 -11.326 -42.773  0.00  0.00    +0.000 OA
ATOM     14  C13 UNL     1      33.874  -9.592 -41.096  0.00  0.00    +0.000 C 
ATOM     15  S2  UNL     1      32.544  -8.799 -40.109  0.00  0.00    +0.000 S 
ATOM     16  H9  UNL     1      31.260 -11.415 -42.423  0.00  0.00    +0.000 HD
ENDBRANCH   8   9
ENDBRANCH   4   7
BRANCH   1  17
ATOM     17  O3  UNL     1      26.115  -8.426 -35.865  0.00  0.00    +0.000 OA
BRANCH  17  18
ATOM     18  S1  UNL     1      26.211  -9.105 -34.297  0.00  0.00    +0.000 S 
ATOM     19  O1  UNL     1      25.921 -10.577 -34.380  0.00  0.00    +0.000 OA
ATOM     20  O2  UNL     1      25.213  -8.440 -33.392  0.00  0.00    +0.000 OA
BRANCH  18  25
ATOM     21  C1  UNL     1      31.796  -8.264 -32.076  0.00  0.00    +0.000 C 
ATOM     22  C2  UNL     1      30.407  -8.487 -32.598  0.00  0.00    +0.000 A 
ATOM     23  C3  UNL     1      29.406  -7.530 -32.375  0.00  0.00    +0.000 A 
ATOM     24  C4  UNL     1      28.121  -7.720 -32.893  0.00  0.00    +0.000 A 
ATOM     25  C5  UNL     1      27.829  -8.861 -33.652  0.00  0.00    +0.000 A 
ATOM     26  C16 UNL     1      28.830  -9.813 -33.886  0.00  0.00    +0.000 A 
ATOM     27  C17 UNL     1      30.115  -9.623 -33.370  0.00  0.00    +0.000 A 
ENDBRANCH  18  25
ENDBRANCH  17  18
ENDBRANCH   1  17
TORSDOF 5
ENDMDL
MODEL 7
REMARK VINA RESULT:    -5.711      2.370      3.321
REMARK INTER + INTRA:          -8.067
REMARK INTER:                  -7.404
REMARK INTRA:                  -0.663
REMARK UNBOUND:                -0.686
REMARK  Name = resultss/4CJN/ligands/lig_392_t2.pdb
REMARK  6 active torsions:
REMARK  status: ('A' for Active; 'I' for Inactive)
REMARK    1  A    between atoms: C1_1  and  C2_2
REMARK    2  A    between atoms: C5_5  and  S1_6
REMARK    3  A    between atoms: S1_6  and  O3_9
REMARK    4  A    between atoms: O3_9  and  C6_10
REMARK    5  A    between atoms: C9_13  and  C10_14
REMARK    6  A    between atoms: N1_15  and  N2_16
REMARK                            x       y       z     vdW  Elec       q    Type
REMARK                         _______ _______ _______ _____ _____    ______ ____
ROOT
ATOM      1  C6  UNL     1      27.235  -8.225 -38.651  0.00  0.00    +0.000 A 
ATOM      2  C7  UNL     1      28.542  -8.053 -38.160  0.00  0.00    +0.000 A 
ATOM      3  C8  UNL     1      28.902  -8.569 -36.911  0.00  0.00    +0.000 A 
ATOM      4  C9  UNL     1      27.957  -9.251 -36.124  0.00  0.00    +0.000 A 
ATOM      5  C14 UNL     1      26.664  -9.445 -36.628  0.00  0.00    +0.000 A 
ATOM      6  C15 UNL     1      26.305  -8.929 -37.876  0.00  0.00    +0.000 A 
ENDROOT
BRANCH   4   7
ATOM      7  C10 UNL     1      28.311  -9.835 -34.810  0.00  0.00    +0.000 C 
ATOM      8  N1  UNL     1      28.156  -9.214 -33.679  0.00  0.00    +0.000 NA
BRANCH   8   9
ATOM      9  N2  UNL     1      27.615  -7.923 -33.583  0.00  0.00    +0.000 NA
ATOM     10  C11 UNL     1      26.344  -7.723 -33.433  0.00  0.00    +0.000 C 
ATOM     11  N3  UNL     1      25.401  -8.779 -33.352  0.00  0.00    +0.000 N 
ATOM     12  C12 UNL     1      24.094  -8.266 -33.185  0.00  0.00    +0.000 C 
ATOM     13  O4  UNL     1      23.094  -9.025 -33.088  0.00  0.00    +0.000 OA
ATOM     14  C13 UNL     1      23.975  -6.779 -33.128  0.00  0.00    +0.000 C 
ATOM     15  S2  UNL     1      25.661  -6.077 -33.308  0.00  0.00    +0.000 S 
ATOM     16  H9  UNL     1      25.627  -9.797 -33.406  0.00  0.00    +0.000 HD
ENDBRANCH   8   9
ENDBRANCH   4   7
BRANCH   1  17
ATOM     17  O3  UNL     1      26.819  -7.727 -39.892  0.00  0.00    +0.000 OA
BRANCH  17  18
ATOM     18  S1  UNL     1      26.486  -8.687 -41.268  0.00  0.00    +0.000 S 
ATOM     19  O1  UNL     1      25.921  -7.814 -42.353  0.00  0.00    +0.000 OA
ATOM     20  O2  UNL     1      25.498  -9.762 -40.913  0.00  0.00    +0.000 OA
BRANCH  18  25
ATOM     21  C1  UNL     1      31.625 -11.261 -43.221  0.00  0.00    +0.000 C 
ATOM     22  C2  UNL     1      30.338 -10.645 -42.758  0.00  0.00    +0.000 A 
ATOM     23  C3  UNL     1      29.681 -11.148 -41.625  0.00  0.00    +0.000 A 
ATOM     24  C4  UNL     1      28.500 -10.551 -41.170  0.00  0.00    +0.000 A 
ATOM     25  C5  UNL     1      27.975  -9.435 -41.835  0.00  0.00    +0.000 A 
ATOM     26  C16 UNL     1      28.636  -8.923 -42.959  0.00  0.00    +0.000 A 
ATOM     27  C17 UNL     1      29.815  -9.519 -43.413  0.00  0.00    +0.000 A 
ENDBRANCH  18  25
ENDBRANCH  17  18
ENDBRANCH   1  17
TORSDOF 5
ENDMDL
MODEL 8
REMARK VINA RESULT:    -5.651      3.866      8.635
REMARK INTER + INTRA:          -7.989
REMARK INTER:                  -7.228
REMARK INTRA:                  -0.761
REMARK UNBOUND:                -0.686
REMARK  Name = resultss/4CJN/ligands/lig_392_t2.pdb
REMARK  6 active torsions:
REMARK  status: ('A' for Active; 'I' for Inactive)
REMARK    1  A    between atoms: C1_1  and  C2_2
REMARK    2  A    between atoms: C5_5  and  S1_6
REMARK    3  A    between atoms: S1_6  and  O3_9
REMARK    4  A    between atoms: O3_9  and  C6_10
REMARK    5  A    between atoms: C9_13  and  C10_14
REMARK    6  A    between atoms: N1_15  and  N2_16
REMARK                            x       y       z     vdW  Elec       q    Type
REMARK                         _______ _______ _______ _____ _____    ______ ____
ROOT
ATOM      1  C6  UNL     1      29.145 -10.022 -37.490  0.00  0.00    +0.000 A 
ATOM      2  C7  UNL     1      27.871 -10.447 -37.908  0.00  0.00    +0.000 A 
ATOM      3  C8  UNL     1      27.537 -10.449 -39.265  0.00  0.00    +0.000 A 
ATOM      4  C9  UNL     1      28.464 -10.011 -40.228  0.00  0.00    +0.000 A 
ATOM      5  C14 UNL     1      29.743  -9.616 -39.810  0.00  0.00    +0.000 A 
ATOM      6  C15 UNL     1      30.076  -9.613 -38.453  0.00  0.00    +0.000 A 
ENDROOT
BRANCH   4   7
ATOM      7  C10 UNL     1      28.155 -10.027 -41.675  0.00  0.00    +0.000 C 
ATOM      8  N1  UNL     1      27.393  -9.151 -42.260  0.00  0.00    +0.000 NA
BRANCH   8   9
ATOM      9  N2  UNL     1      26.796  -8.080 -41.579  0.00  0.00    +0.000 NA
ATOM     10  C11 UNL     1      25.528  -7.832 -41.670  0.00  0.00    +0.000 C 
ATOM     11  N3  UNL     1      24.644  -8.614 -42.455  0.00  0.00    +0.000 N 
ATOM     12  C12 UNL     1      23.324  -8.115 -42.361  0.00  0.00    +0.000 C 
ATOM     13  O4  UNL     1      22.368  -8.657 -42.977  0.00  0.00    +0.000 OA
ATOM     14  C13 UNL     1      23.135  -6.918 -41.491  0.00  0.00    +0.000 C 
ATOM     15  S2  UNL     1      24.774  -6.467 -40.798  0.00  0.00    +0.000 S 
ATOM     16  H9  UNL     1      24.916  -9.445 -43.025  0.00  0.00    +0.000 HD
ENDBRANCH   8   9
ENDBRANCH   4   7
BRANCH   1  17
ATOM     17  O3  UNL     1      29.533  -9.995 -36.144  0.00  0.00    +0.000 OA
BRANCH  17  18
ATOM     18  S1  UNL     1      29.265  -8.685 -35.077  0.00  0.00    +0.000 S 
ATOM     19  O1  UNL     1      29.476  -7.395 -35.818  0.00  0.00    +0.000 OA
ATOM     20  O2  UNL     1      30.218  -8.767 -33.918  0.00  0.00    +0.000 OA
BRANCH  18  25
ATOM     21  C1  UNL     1      23.570  -8.911 -32.991  0.00  0.00    +0.000 C 
ATOM     22  C2  UNL     1      24.966  -8.845 -33.535  0.00  0.00    +0.000 A 
ATOM     23  C3  UNL     1      25.724  -7.673 -33.396  0.00  0.00    +0.000 A 
ATOM     24  C4  UNL     1      27.039  -7.623 -33.870  0.00  0.00    +0.000 A 
ATOM     25  C5  UNL     1      27.614  -8.750 -34.473  0.00  0.00    +0.000 A 
ATOM     26  C16 UNL     1      26.863  -9.925 -34.603  0.00  0.00    +0.000 A 
ATOM     27  C17 UNL     1      25.549  -9.976 -34.129  0.00  0.00    +0.000 A 
ENDBRANCH  18  25
ENDBRANCH  17  18
ENDBRANCH   1  17
TORSDOF 5
ENDMDL
MODEL 9
REMARK VINA RESULT:    -5.591      2.984      4.421
REMARK INTER + INTRA:          -7.912
REMARK INTER:                  -7.172
REMARK INTRA:                  -0.740
REMARK UNBOUND:                -0.686
REMARK  Name = resultss/4CJN/ligands/lig_392_t2.pdb
REMARK  6 active torsions:
REMARK  status: ('A' for Active; 'I' for Inactive)
REMARK    1  A    between atoms: C1_1  and  C2_2
REMARK    2  A    between atoms: C5_5  and  S1_6
REMARK    3  A    between atoms: S1_6  and  O3_9
REMARK    4  A    between atoms: O3_9  and  C6_10
REMARK    5  A    between atoms: C9_13  and  C10_14
REMARK    6  A    between atoms: N1_15  and  N2_16
REMARK                            x       y       z     vdW  Elec       q    Type
REMARK                         _______ _______ _______ _____ _____    ______ ____
ROOT
ATOM      1  C6  UNL     1      29.520  -9.411 -36.275  0.00  0.00    +0.000 A 
ATOM      2  C7  UNL     1      30.197  -8.296 -35.749  0.00  0.00    +0.000 A 
ATOM      3  C8  UNL     1      29.855  -7.792 -34.490  0.00  0.00    +0.000 A 
ATOM      4  C9  UNL     1      28.820  -8.382 -33.744  0.00  0.00    +0.000 A 
ATOM      5  C14 UNL     1      28.167  -9.510 -34.259  0.00  0.00    +0.000 A 
ATOM      6  C15 UNL     1      28.508 -10.013 -35.517  0.00  0.00    +0.000 A 
ENDROOT
BRANCH   4   7
ATOM      7  C10 UNL     1      28.451  -7.892 -32.396  0.00  0.00    +0.000 C 
ATOM      8  N1  UNL     1      27.520  -7.013 -32.178  0.00  0.00    +0.000 NA
BRANCH   8   9
ATOM      9  N2  UNL     1      26.746  -6.447 -33.203  0.00  0.00    +0.000 NA
ATOM     10  C11 UNL     1      25.561  -6.886 -33.487  0.00  0.00    +0.000 C 
ATOM     11  N3  UNL     1      24.950  -7.962 -32.795  0.00  0.00    +0.000 N 
ATOM     12  C12 UNL     1      23.660  -8.219 -33.315  0.00  0.00    +0.000 C 
ATOM     13  O4  UNL     1      22.931  -9.134 -32.851  0.00  0.00    +0.000 OA
ATOM     14  C13 UNL     1      23.220  -7.341 -34.440  0.00  0.00    +0.000 C 
ATOM     15  S2  UNL     1      24.580  -6.160 -34.791  0.00  0.00    +0.000 S 
ATOM     16  H9  UNL     1      25.380  -8.497 -32.009  0.00  0.00    +0.000 HD
ENDBRANCH   8   9
ENDBRANCH   4   7
BRANCH   1  17
ATOM     17  O3  UNL     1      29.817  -9.956 -37.531  0.00  0.00    +0.000 OA
BRANCH  17  18
ATOM     18  S1  UNL     1      28.900  -9.693 -38.952  0.00  0.00    +0.000 S 
ATOM     19  O1  UNL     1      28.480  -8.251 -39.007  0.00  0.00    +0.000 OA
ATOM     20  O2  UNL     1      27.684 -10.577 -38.945  0.00  0.00    +0.000 OA
BRANCH  18  25
ATOM     21  C1  UNL     1      32.285 -10.997 -43.817  0.00  0.00    +0.000 C 
ATOM     22  C2  UNL     1      31.458 -10.702 -42.601  0.00  0.00    +0.000 A 
ATOM     23  C3  UNL     1      32.003  -9.968 -41.537  0.00  0.00    +0.000 A 
ATOM     24  C4  UNL     1      31.220  -9.662 -40.418  0.00  0.00    +0.000 A 
ATOM     25  C5  UNL     1      29.882 -10.072 -40.361  0.00  0.00    +0.000 A 
ATOM     26  C16 UNL     1      29.332 -10.795 -41.428  0.00  0.00    +0.000 A 
ATOM     27  C17 UNL     1      30.113 -11.101 -42.546  0.00  0.00    +0.000 A 
ENDBRANCH  18  25
ENDBRANCH  17  18
ENDBRANCH   1  17
TORSDOF 5
ENDMDL
