MODEL 1
REMARK VINA RESULT:    -5.633      0.000      0.000
REMARK INTER + INTRA:          -9.254
REMARK INTER:                  -7.938
REMARK INTRA:                  -1.315
REMARK UNBOUND:                -1.315
REMARK  Name = resultss/4CJN/ligands/lig_231_t1.pdb
REMARK  11 active torsions:
REMARK  status: ('A' for Active; 'I' for Inactive)
REMARK    1  A    between atoms: C6_8  and  C7_9
REMARK    2  A    between atoms: C9_11  and  O3_12
REMARK    3  A    between atoms: C11_14  and  C12_15
REMARK    4  A    between atoms: C14_17  and  O4_18
REMARK    5  A    between atoms: O4_18  and  C15_19
REMARK    6  A    between atoms: C15_19  and  C16_21
REMARK    7  A    between atoms: C16_21  and  C19_24
REMARK    8  A    between atoms: C17_22  and  C18_23
REMARK    9  A    between atoms: C19_24  and  O6_25
REMARK   10  A    between atoms: O6_25  and  C20_26
REMARK   11  A    between atoms: C20_26  and  O7_28
REMARK                            x       y       z     vdW  Elec       q    Type
REMARK                         _______ _______ _______ _____ _____    ______ ____
ROOT
ATOM      1  C1  UNL     1      30.708 -10.015 -37.962  0.00  0.00    +0.000 C 
ATOM      2  C2  UNL     1      30.232  -9.001 -37.240  0.00  0.00    +0.000 C 
ATOM      3  C3  UNL     1      31.025  -8.081 -36.456  0.00  0.00    +0.000 C 
ATOM      4  O1  UNL     1      32.280  -8.091 -36.363  0.00  0.00    +0.000 OA
ATOM      5  O2  UNL     1      30.216  -7.194 -35.779  0.00  0.00    +0.000 OA
ATOM      6  C4  UNL     1      28.861  -7.350 -36.188  0.00  0.00    +0.000 C 
ATOM      7  C5  UNL     1      27.892  -7.251 -35.031  0.00  0.00    +0.000 C 
ATOM      8  C6  UNL     1      27.678  -8.210 -34.094  0.00  0.00    +0.000 C 
ATOM      9  C7  UNL     1      28.721  -9.223 -33.690  0.00  0.00    +0.000 C 
ATOM     10  C8  UNL     1      26.254  -8.425 -33.612  0.00  0.00    +0.000 C 
ATOM     11  C9  UNL     1      25.443  -9.420 -34.507  0.00  0.00    +0.000 C 
ATOM     12  C10 UNL     1      25.840  -9.373 -35.978  0.00  0.00    +0.000 C 
ATOM     13  C11 UNL     1      25.672  -8.291 -36.771  0.00  0.00    +0.000 C 
ATOM     14  C12 UNL     1      24.619  -7.256 -36.439  0.00  0.00    +0.000 C 
ATOM     15  C13 UNL     1      26.443  -8.114 -38.075  0.00  0.00    +0.000 C 
ATOM     16  C14 UNL     1      27.872  -8.732 -38.218  0.00  0.00    +0.000 C 
ATOM     17  C22 UNL     1      28.784  -8.710 -36.954  0.00  0.00    +0.000 C 
ENDROOT
BRANCH  11  18
ATOM     18  O3  UNL     1      25.643 -10.730 -34.042  0.00  0.00    +0.000 OA
ATOM     19  H11 UNL     1      26.601 -10.947 -34.189  0.00  0.00    +0.000 HD
ENDBRANCH  11  18
BRANCH  16  20
ATOM     20  O4  UNL     1      28.559  -8.069 -39.283  0.00  0.00    +0.000 OA
BRANCH  20  21
ATOM     21  C15 UNL     1      28.478  -8.443 -40.629  0.00  0.00    +0.000 C 
ATOM     22  O5  UNL     1      28.612  -7.569 -41.529  0.00  0.00    +0.000 OA
BRANCH  21  23
ATOM     23  C16 UNL     1      28.212  -9.856 -41.015  0.00  0.00    +0.000 C 
ATOM     24  C17 UNL     1      29.168 -10.703 -41.456  0.00  0.00    +0.000 C 
ATOM     25  C18 UNL     1      30.623 -10.372 -41.591  0.00  0.00    +0.000 C 
BRANCH  23  26
ATOM     26  C19 UNL     1      26.783 -10.342 -40.993  0.00  0.00    +0.000 C 
BRANCH  26  27
ATOM     27  O6  UNL     1      26.058  -9.707 -42.041  0.00  0.00    +0.000 OA
BRANCH  27  28
ATOM     28  C20 UNL     1      24.687  -9.435 -41.978  0.00  0.00    +0.000 C 
ATOM     29  C21 UNL     1      24.244  -8.556 -41.087  0.00  0.00    +0.000 C 
BRANCH  28  30
ATOM     30  O7  UNL     1      23.773 -10.060 -42.827  0.00  0.00    +0.000 OA
ATOM     31  H27 UNL     1      23.545 -11.042 -42.751  0.00  0.00    +0.000 HD
ENDBRANCH  28  30
ENDBRANCH  27  28
ENDBRANCH  26  27
ENDBRANCH  23  26
ENDBRANCH  21  23
ENDBRANCH  20  21
ENDBRANCH  16  20
TORSDOF 8
ENDMDL
MODEL 2
REMARK VINA RESULT:    -5.573      2.020      4.142
REMARK INTER + INTRA:          -9.169
REMARK INTER:                  -7.330
REMARK INTRA:                  -1.839
REMARK UNBOUND:                -1.315
REMARK  Name = resultss/4CJN/ligands/lig_231_t1.pdb
REMARK  11 active torsions:
REMARK  status: ('A' for Active; 'I' for Inactive)
REMARK    1  A    between atoms: C6_8  and  C7_9
REMARK    2  A    between atoms: C9_11  and  O3_12
REMARK    3  A    between atoms: C11_14  and  C12_15
REMARK    4  A    between atoms: C14_17  and  O4_18
REMARK    5  A    between atoms: O4_18  and  C15_19
REMARK    6  A    between atoms: C15_19  and  C16_21
REMARK    7  A    between atoms: C16_21  and  C19_24
REMARK    8  A    between atoms: C17_22  and  C18_23
REMARK    9  A    between atoms: C19_24  and  O6_25
REMARK   10  A    between atoms: O6_25  and  C20_26
REMARK   11  A    between atoms: C20_26  and  O7_28
REMARK                            x       y       z     vdW  Elec       q    Type
REMARK                         _______ _______ _______ _____ _____    ______ ____
ROOT
ATOM      1  C1  UNL     1      27.494  -7.443 -38.504  0.00  0.00    +0.000 C 
ATOM      2  C2  UNL     1      27.307  -8.308 -37.508  0.00  0.00    +0.000 C 
ATOM      3  C3  UNL     1      26.085  -9.034 -37.242  0.00  0.00    +0.000 C 
ATOM      4  O1  UNL     1      25.031  -8.971 -37.928  0.00  0.00    +0.000 OA
ATOM      5  O2  UNL     1      26.207  -9.794 -36.099  0.00  0.00    +0.000 OA
ATOM      6  C4  UNL     1      27.549  -9.759 -35.624  0.00  0.00    +0.000 C 
ATOM      7  C5  UNL     1      27.628  -9.657 -34.117  0.00  0.00    +0.000 C 
ATOM      8  C6  UNL     1      27.382  -8.540 -33.386  0.00  0.00    +0.000 C 
ATOM      9  C7  UNL     1      26.456  -7.437 -33.839  0.00  0.00    +0.000 C 
ATOM     10  C8  UNL     1      28.264  -8.274 -32.178  0.00  0.00    +0.000 C 
ATOM     11  C9  UNL     1      29.576  -7.498 -32.531  0.00  0.00    +0.000 C 
ATOM     12  C10 UNL     1      30.118  -7.821 -33.918  0.00  0.00    +0.000 C 
ATOM     13  C11 UNL     1      30.565  -9.042 -34.289  0.00  0.00    +0.000 C 
ATOM     14  C12 UNL     1      31.064 -10.021 -33.248  0.00  0.00    +0.000 C 
ATOM     15  C13 UNL     1      30.692  -9.449 -35.753  0.00  0.00    +0.000 C 
ATOM     16  C14 UNL     1      29.725  -8.831 -36.814  0.00  0.00    +0.000 C 
ATOM     17  C22 UNL     1      28.252  -8.579 -36.369  0.00  0.00    +0.000 C 
ENDROOT
BRANCH  11  18
ATOM     18  O3  UNL     1      29.328  -6.117 -32.469  0.00  0.00    +0.000 OA
ATOM     19  H11 UNL     1      28.500  -5.994 -31.934  0.00  0.00    +0.000 HD
ENDBRANCH  11  18
BRANCH  16  20
ATOM     20  O4  UNL     1      29.710  -9.670 -37.972  0.00  0.00    +0.000 OA
BRANCH  20  21
ATOM     21  C15 UNL     1      30.681  -9.644 -38.978  0.00  0.00    +0.000 C 
ATOM     22  O5  UNL     1      31.896  -9.812 -38.678  0.00  0.00    +0.000 OA
BRANCH  21  23
ATOM     23  C16 UNL     1      30.306  -9.398 -40.398  0.00  0.00    +0.000 C 
ATOM     24  C17 UNL     1      30.290  -8.173 -40.966  0.00  0.00    +0.000 C 
ATOM     25  C18 UNL     1      30.673  -6.896 -40.282  0.00  0.00    +0.000 C 
BRANCH  23  26
ATOM     26  C19 UNL     1      29.836 -10.573 -41.221  0.00  0.00    +0.000 C 
BRANCH  26  27
ATOM     27  O6  UNL     1      28.447 -10.427 -41.495  0.00  0.00    +0.000 OA
BRANCH  27  28
ATOM     28  C20 UNL     1      27.441 -10.720 -40.567  0.00  0.00    +0.000 C 
ATOM     29  C21 UNL     1      26.196 -10.335 -40.824  0.00  0.00    +0.000 C 
BRANCH  28  30
ATOM     30  O7  UNL     1      27.708 -11.406 -39.382  0.00  0.00    +0.000 OA
ATOM     31  H27 UNL     1      28.643 -11.496 -39.006  0.00  0.00    +0.000 HD
ENDBRANCH  28  30
ENDBRANCH  27  28
ENDBRANCH  26  27
ENDBRANCH  23  26
ENDBRANCH  21  23
ENDBRANCH  20  21
ENDBRANCH  16  20
TORSDOF 8
ENDMDL
MODEL 3
REMARK VINA RESULT:    -5.431      2.057      6.359
REMARK INTER + INTRA:          -8.970
REMARK INTER:                  -7.930
REMARK INTRA:                  -1.040
REMARK UNBOUND:                -1.315
REMARK  Name = resultss/4CJN/ligands/lig_231_t1.pdb
REMARK  11 active torsions:
REMARK  status: ('A' for Active; 'I' for Inactive)
REMARK    1  A    between atoms: C6_8  and  C7_9
REMARK    2  A    between atoms: C9_11  and  O3_12
REMARK    3  A    between atoms: C11_14  and  C12_15
REMARK    4  A    between atoms: C14_17  and  O4_18
REMARK    5  A    between atoms: O4_18  and  C15_19
REMARK    6  A    between atoms: C15_19  and  C16_21
REMARK    7  A    between atoms: C16_21  and  C19_24
REMARK    8  A    between atoms: C17_22  and  C18_23
REMARK    9  A    between atoms: C19_24  and  O6_25
REMARK   10  A    between atoms: O6_25  and  C20_26
REMARK   11  A    between atoms: C20_26  and  O7_28
REMARK                            x       y       z     vdW  Elec       q    Type
REMARK                         _______ _______ _______ _____ _____    ______ ____
ROOT
ATOM      1  C1  UNL     1      31.216  -7.511 -39.484  0.00  0.00    +0.000 C 
ATOM      2  C2  UNL     1      30.499  -8.481 -40.051  0.00  0.00    +0.000 C 
ATOM      3  C3  UNL     1      31.037  -9.613 -40.771  0.00  0.00    +0.000 C 
ATOM      4  O1  UNL     1      32.260  -9.858 -40.944  0.00  0.00    +0.000 OA
ATOM      5  O2  UNL     1      30.022 -10.391 -41.287  0.00  0.00    +0.000 OA
ATOM      6  C4  UNL     1      28.760  -9.932 -40.813  0.00  0.00    +0.000 C 
ATOM      7  C5  UNL     1      27.695  -9.959 -41.886  0.00  0.00    +0.000 C 
ATOM      8  C6  UNL     1      27.584  -9.078 -42.913  0.00  0.00    +0.000 C 
ATOM      9  C7  UNL     1      28.760  -8.334 -43.499  0.00  0.00    +0.000 C 
ATOM     10  C8  UNL     1      26.190  -8.639 -43.326  0.00  0.00    +0.000 C 
ATOM     11  C9  UNL     1      25.658  -7.419 -42.503  0.00  0.00    +0.000 C 
ATOM     12  C10 UNL     1      26.162  -7.392 -41.065  0.00  0.00    +0.000 C 
ATOM     13  C11 UNL     1      25.864  -8.333 -40.142  0.00  0.00    +0.000 C 
ATOM     14  C12 UNL     1      24.612  -9.171 -40.283  0.00  0.00    +0.000 C 
ATOM     15  C13 UNL     1      26.696  -8.522 -38.877  0.00  0.00    +0.000 C 
ATOM     16  C14 UNL     1      28.222  -8.183 -38.899  0.00  0.00    +0.000 C 
ATOM     17  C22 UNL     1      29.004  -8.512 -40.208  0.00  0.00    +0.000 C 
ENDROOT
BRANCH  11  18
ATOM     18  O3  UNL     1      26.059  -6.228 -43.129  0.00  0.00    +0.000 OA
ATOM     19  H11 UNL     1      25.452  -6.088 -43.903  0.00  0.00    +0.000 HD
ENDBRANCH  11  18
BRANCH  16  20
ATOM     20  O4  UNL     1      28.861  -8.854 -37.810  0.00  0.00    +0.000 OA
BRANCH  20  21
ATOM     21  C15 UNL     1      28.190  -9.365 -36.694  0.00  0.00    +0.000 C 
ATOM     22  O5  UNL     1      27.656 -10.508 -36.755  0.00  0.00    +0.000 OA
BRANCH  21  23
ATOM     23  C16 UNL     1      28.075  -8.571 -35.440  0.00  0.00    +0.000 C 
ATOM     24  C17 UNL     1      28.929  -8.688 -34.400  0.00  0.00    +0.000 C 
ATOM     25  C18 UNL     1      30.122  -9.594 -34.357  0.00  0.00    +0.000 C 
BRANCH  23  26
ATOM     26  C19 UNL     1      26.892  -7.646 -35.292  0.00  0.00    +0.000 C 
BRANCH  26  27
ATOM     27  O6  UNL     1      25.694  -8.412 -35.318  0.00  0.00    +0.000 OA
BRANCH  27  28
ATOM     28  C20 UNL     1      25.323  -9.305 -34.306  0.00  0.00    +0.000 C 
ATOM     29  C21 UNL     1      24.702  -8.838 -33.230  0.00  0.00    +0.000 C 
BRANCH  28  30
ATOM     30  O7  UNL     1      25.588 -10.672 -34.398  0.00  0.00    +0.000 OA
ATOM     31  H27 UNL     1      26.372 -11.040 -34.920  0.00  0.00    +0.000 HD
ENDBRANCH  28  30
ENDBRANCH  27  28
ENDBRANCH  26  27
ENDBRANCH  23  26
ENDBRANCH  21  23
ENDBRANCH  20  21
ENDBRANCH  16  20
TORSDOF 8
ENDMDL
MODEL 4
REMARK VINA RESULT:    -5.371      2.202      3.428
REMARK INTER + INTRA:          -8.884
REMARK INTER:                  -7.857
REMARK INTRA:                  -1.028
REMARK UNBOUND:                -1.315
REMARK  Name = resultss/4CJN/ligands/lig_231_t1.pdb
REMARK  11 active torsions:
REMARK  status: ('A' for Active; 'I' for Inactive)
REMARK    1  A    between atoms: C6_8  and  C7_9
REMARK    2  A    between atoms: C9_11  and  O3_12
REMARK    3  A    between atoms: C11_14  and  C12_15
REMARK    4  A    between atoms: C14_17  and  O4_18
REMARK    5  A    between atoms: O4_18  and  C15_19
REMARK    6  A    between atoms: C15_19  and  C16_21
REMARK    7  A    between atoms: C16_21  and  C19_24
REMARK    8  A    between atoms: C17_22  and  C18_23
REMARK    9  A    between atoms: C19_24  and  O6_25
REMARK   10  A    between atoms: O6_25  and  C20_26
REMARK   11  A    between atoms: C20_26  and  O7_28
REMARK                            x       y       z     vdW  Elec       q    Type
REMARK                         _______ _______ _______ _____ _____    ______ ____
ROOT
ATOM      1  C1  UNL     1      29.355  -9.640 -35.461  0.00  0.00    +0.000 C 
ATOM      2  C2  UNL     1      28.757  -8.449 -35.464  0.00  0.00    +0.000 C 
ATOM      3  C3  UNL     1      29.409  -7.180 -35.230  0.00  0.00    +0.000 C 
ATOM      4  O1  UNL     1      30.639  -7.017 -35.014  0.00  0.00    +0.000 OA
ATOM      5  O2  UNL     1      28.493  -6.151 -35.236  0.00  0.00    +0.000 OA
ATOM      6  C4  UNL     1      27.213  -6.633 -35.634  0.00  0.00    +0.000 C 
ATOM      7  C5  UNL     1      26.088  -6.022 -34.829  0.00  0.00    +0.000 C 
ATOM      8  C6  UNL     1      25.766  -6.343 -33.550  0.00  0.00    +0.000 C 
ATOM      9  C7  UNL     1      26.765  -6.874 -32.550  0.00  0.00    +0.000 C 
ATOM     10  C8  UNL     1      24.294  -6.402 -33.182  0.00  0.00    +0.000 C 
ATOM     11  C9  UNL     1      23.642  -7.795 -33.469  0.00  0.00    +0.000 C 
ATOM     12  C10 UNL     1      24.241  -8.508 -34.676  0.00  0.00    +0.000 C 
ATOM     13  C11 UNL     1      24.162  -8.044 -35.943  0.00  0.00    +0.000 C 
ATOM     14  C12 UNL     1      23.048  -7.100 -36.343  0.00  0.00    +0.000 C 
ATOM     15  C13 UNL     1      25.105  -8.521 -37.043  0.00  0.00    +0.000 C 
ATOM     16  C14 UNL     1      26.554  -8.978 -36.673  0.00  0.00    +0.000 C 
ATOM     17  C22 UNL     1      27.278  -8.192 -35.538  0.00  0.00    +0.000 C 
ENDROOT
BRANCH  11  18
ATOM     18  O3  UNL     1      23.805  -8.624 -32.347  0.00  0.00    +0.000 OA
ATOM     19  H11 UNL     1      23.357  -8.171 -31.584  0.00  0.00    +0.000 HD
ENDBRANCH  11  18
BRANCH  16  20
ATOM     20  O4  UNL     1      27.369  -8.928 -37.847  0.00  0.00    +0.000 OA
BRANCH  20  21
ATOM     21  C15 UNL     1      27.647 -10.030 -38.663  0.00  0.00    +0.000 C 
ATOM     22  O5  UNL     1      27.706 -11.184 -38.155  0.00  0.00    +0.000 OA
BRANCH  21  23
ATOM     23  C16 UNL     1      27.896  -9.859 -40.121  0.00  0.00    +0.000 C 
ATOM     24  C17 UNL     1      26.913  -9.773 -41.043  0.00  0.00    +0.000 C 
ATOM     25  C18 UNL     1      25.444  -9.802 -40.748  0.00  0.00    +0.000 C 
BRANCH  23  26
ATOM     26  C19 UNL     1      29.327  -9.868 -40.601  0.00  0.00    +0.000 C 
BRANCH  26  27
ATOM     27  O6  UNL     1      29.585 -11.092 -41.280  0.00  0.00    +0.000 OA
BRANCH  27  28
ATOM     28  C20 UNL     1      30.449 -11.203 -42.376  0.00  0.00    +0.000 C 
ATOM     29  C21 UNL     1      30.511 -10.205 -43.250  0.00  0.00    +0.000 C 
BRANCH  28  30
ATOM     30  O7  UNL     1      31.245 -12.331 -42.575  0.00  0.00    +0.000 OA
ATOM     31  H27 UNL     1      31.455 -12.692 -43.495  0.00  0.00    +0.000 HD
ENDBRANCH  28  30
ENDBRANCH  27  28
ENDBRANCH  26  27
ENDBRANCH  23  26
ENDBRANCH  21  23
ENDBRANCH  20  21
ENDBRANCH  16  20
TORSDOF 8
ENDMDL
MODEL 5
REMARK VINA RESULT:    -5.329      1.699      5.817
REMARK INTER + INTRA:          -8.825
REMARK INTER:                  -7.257
REMARK INTRA:                  -1.568
REMARK UNBOUND:                -1.315
REMARK  Name = resultss/4CJN/ligands/lig_231_t1.pdb
REMARK  11 active torsions:
REMARK  status: ('A' for Active; 'I' for Inactive)
REMARK    1  A    between atoms: C6_8  and  C7_9
REMARK    2  A    between atoms: C9_11  and  O3_12
REMARK    3  A    between atoms: C11_14  and  C12_15
REMARK    4  A    between atoms: C14_17  and  O4_18
REMARK    5  A    between atoms: O4_18  and  C15_19
REMARK    6  A    between atoms: C15_19  and  C16_21
REMARK    7  A    between atoms: C16_21  and  C19_24
REMARK    8  A    between atoms: C17_22  and  C18_23
REMARK    9  A    between atoms: C19_24  and  O6_25
REMARK   10  A    between atoms: O6_25  and  C20_26
REMARK   11  A    between atoms: C20_26  and  O7_28
REMARK                            x       y       z     vdW  Elec       q    Type
REMARK                         _______ _______ _______ _____ _____    ______ ____
ROOT
ATOM      1  C1  UNL     1      31.312  -7.184 -37.137  0.00  0.00    +0.000 C 
ATOM      2  C2  UNL     1      30.525  -8.252 -37.264  0.00  0.00    +0.000 C 
ATOM      3  C3  UNL     1      30.932  -9.625 -37.066  0.00  0.00    +0.000 C 
ATOM      4  O1  UNL     1      32.082 -10.006 -36.721  0.00  0.00    +0.000 OA
ATOM      5  O2  UNL     1      29.893 -10.487 -37.342  0.00  0.00    +0.000 OA
ATOM      6  C4  UNL     1      28.694  -9.756 -37.577  0.00  0.00    +0.000 C 
ATOM      7  C5  UNL     1      27.880 -10.328 -38.716  0.00  0.00    +0.000 C 
ATOM      8  C6  UNL     1      28.168 -10.203 -40.037  0.00  0.00    +0.000 C 
ATOM      9  C7  UNL     1      29.569 -10.017 -40.567  0.00  0.00    +0.000 C 
ATOM     10  C8  UNL     1      27.012  -9.993 -40.999  0.00  0.00    +0.000 C 
ATOM     11  C9  UNL     1      26.610  -8.489 -41.161  0.00  0.00    +0.000 C 
ATOM     12  C10 UNL     1      26.817  -7.666 -39.895  0.00  0.00    +0.000 C 
ATOM     13  C11 UNL     1      26.145  -7.874 -38.741  0.00  0.00    +0.000 C 
ATOM     14  C12 UNL     1      24.792  -8.552 -38.756  0.00  0.00    +0.000 C 
ATOM     15  C13 UNL     1      26.651  -7.350 -37.401  0.00  0.00    +0.000 C 
ATOM     16  C14 UNL     1      28.189  -7.189 -37.166  0.00  0.00    +0.000 C 
ATOM     17  C22 UNL     1      29.120  -8.268 -37.799  0.00  0.00    +0.000 C 
ENDROOT
BRANCH  11  18
ATOM     18  O3  UNL     1      27.376  -7.913 -42.187  0.00  0.00    +0.000 OA
ATOM     19  H11 UNL     1      26.758  -7.727 -42.942  0.00  0.00    +0.000 HD
ENDBRANCH  11  18
BRANCH  16  20
ATOM     20  O4  UNL     1      28.440  -7.145 -35.759  0.00  0.00    +0.000 OA
BRANCH  20  21
ATOM     21  C15 UNL     1      27.533  -7.570 -34.781  0.00  0.00    +0.000 C 
ATOM     22  O5  UNL     1      26.881  -6.715 -34.120  0.00  0.00    +0.000 OA
BRANCH  21  23
ATOM     23  C16 UNL     1      27.342  -9.019 -34.493  0.00  0.00    +0.000 C 
ATOM     24  C17 UNL     1      28.315  -9.819 -34.006  0.00  0.00    +0.000 C 
ATOM     25  C18 UNL     1      29.704  -9.378 -33.655  0.00  0.00    +0.000 C 
BRANCH  23  26
ATOM     26  C19 UNL     1      26.013  -9.642 -34.844  0.00  0.00    +0.000 C 
BRANCH  26  27
ATOM     27  O6  UNL     1      25.204  -9.705 -33.675  0.00  0.00    +0.000 OA
BRANCH  27  28
ATOM     28  C20 UNL     1      24.091  -8.883 -33.459  0.00  0.00    +0.000 C 
ATOM     29  C21 UNL     1      23.625  -8.153 -34.464  0.00  0.00    +0.000 C 
BRANCH  28  30
ATOM     30  O7  UNL     1      23.459  -8.812 -32.217  0.00  0.00    +0.000 OA
ATOM     31  H27 UNL     1      22.561  -9.243 -32.039  0.00  0.00    +0.000 HD
ENDBRANCH  28  30
ENDBRANCH  27  28
ENDBRANCH  26  27
ENDBRANCH  23  26
ENDBRANCH  21  23
ENDBRANCH  20  21
ENDBRANCH  16  20
TORSDOF 8
ENDMDL
MODEL 6
REMARK VINA RESULT:    -5.212      2.102      6.888
REMARK INTER + INTRA:          -8.660
REMARK INTER:                  -7.250
REMARK INTRA:                  -1.410
REMARK UNBOUND:                -1.315
REMARK  Name = resultss/4CJN/ligands/lig_231_t1.pdb
REMARK  11 active torsions:
REMARK  status: ('A' for Active; 'I' for Inactive)
REMARK    1  A    between atoms: C6_8  and  C7_9
REMARK    2  A    between atoms: C9_11  and  O3_12
REMARK    3  A    between atoms: C11_14  and  C12_15
REMARK    4  A    between atoms: C14_17  and  O4_18
REMARK    5  A    between atoms: O4_18  and  C15_19
REMARK    6  A    between atoms: C15_19  and  C16_21
REMARK    7  A    between atoms: C16_21  and  C19_24
REMARK    8  A    between atoms: C17_22  and  C18_23
REMARK    9  A    between atoms: C19_24  and  O6_25
REMARK   10  A    between atoms: O6_25  and  C20_26
REMARK   11  A    between atoms: C20_26  and  O7_28
REMARK                            x       y       z     vdW  Elec       q    Type
REMARK                         _______ _______ _______ _____ _____    ______ ____
ROOT
ATOM      1  C1  UNL     1      24.855  -8.470 -37.413  0.00  0.00    +0.000 C 
ATOM      2  C2  UNL     1      25.551  -7.851 -38.367  0.00  0.00    +0.000 C 
ATOM      3  C3  UNL     1      25.010  -6.926 -39.338  0.00  0.00    +0.000 C 
ATOM      4  O1  UNL     1      23.809  -6.554 -39.405  0.00  0.00    +0.000 OA
ATOM      5  O2  UNL     1      25.985  -6.520 -40.222  0.00  0.00    +0.000 OA
ATOM      6  C4  UNL     1      27.259  -7.006 -39.809  0.00  0.00    +0.000 C 
ATOM      7  C5  UNL     1      28.101  -7.484 -40.971  0.00  0.00    +0.000 C 
ATOM      8  C6  UNL     1      27.923  -8.645 -41.652  0.00  0.00    +0.000 C 
ATOM      9  C7  UNL     1      26.587  -9.335 -41.782  0.00  0.00    +0.000 C 
ATOM     10  C8  UNL     1      29.161  -9.407 -42.090  0.00  0.00    +0.000 C 
ATOM     11  C9  UNL     1      29.707 -10.381 -40.994  0.00  0.00    +0.000 C 
ATOM     12  C10 UNL     1      29.481  -9.881 -39.572  0.00  0.00    +0.000 C 
ATOM     13  C11 UNL     1      30.044  -8.761 -39.067  0.00  0.00    +0.000 C 
ATOM     14  C12 UNL     1      31.329  -8.220 -39.657  0.00  0.00    +0.000 C 
ATOM     15  C13 UNL     1      29.489  -8.059 -37.832  0.00  0.00    +0.000 C 
ATOM     16  C14 UNL     1      27.959  -8.139 -37.521  0.00  0.00    +0.000 C 
ATOM     17  C22 UNL     1      26.985  -8.110 -38.738  0.00  0.00    +0.000 C 
ENDROOT
BRANCH  11  18
ATOM     18  O3  UNL     1      29.072 -11.628 -41.125  0.00  0.00    +0.000 OA
ATOM     19  H11 UNL     1      28.750 -11.886 -40.221  0.00  0.00    +0.000 HD
ENDBRANCH  11  18
BRANCH  16  20
ATOM     20  O4  UNL     1      27.610  -7.070 -36.638  0.00  0.00    +0.000 OA
BRANCH  20  21
ATOM     21  C15 UNL     1      27.828  -7.085 -35.256  0.00  0.00    +0.000 C 
ATOM     22  O5  UNL     1      28.685  -6.308 -34.750  0.00  0.00    +0.000 OA
BRANCH  21  23
ATOM     23  C16 UNL     1      27.078  -8.021 -34.373  0.00  0.00    +0.000 C 
ATOM     24  C17 UNL     1      27.525  -9.250 -34.034  0.00  0.00    +0.000 C 
ATOM     25  C18 UNL     1      28.835  -9.841 -34.458  0.00  0.00    +0.000 C 
BRANCH  23  26
ATOM     26  C19 UNL     1      25.706  -7.605 -33.900  0.00  0.00    +0.000 C 
BRANCH  26  27
ATOM     27  O6  UNL     1      25.002  -8.753 -33.442  0.00  0.00    +0.000 OA
BRANCH  27  28
ATOM     28  C20 UNL     1      23.638  -8.750 -33.127  0.00  0.00    +0.000 C 
ATOM     29  C21 UNL     1      22.756  -8.487 -34.084  0.00  0.00    +0.000 C 
BRANCH  28  30
ATOM     30  O7  UNL     1      23.180  -9.017 -31.836  0.00  0.00    +0.000 OA
ATOM     31  H27 UNL     1      23.460  -8.466 -31.036  0.00  0.00    +0.000 HD
ENDBRANCH  28  30
ENDBRANCH  27  28
ENDBRANCH  26  27
ENDBRANCH  23  26
ENDBRANCH  21  23
ENDBRANCH  20  21
ENDBRANCH  16  20
TORSDOF 8
ENDMDL
MODEL 7
REMARK VINA RESULT:    -5.209      1.847      4.655
REMARK INTER + INTRA:          -8.656
REMARK INTER:                  -7.230
REMARK INTRA:                  -1.426
REMARK UNBOUND:                -1.315
REMARK  Name = resultss/4CJN/ligands/lig_231_t1.pdb
REMARK  11 active torsions:
REMARK  status: ('A' for Active; 'I' for Inactive)
REMARK    1  A    between atoms: C6_8  and  C7_9
REMARK    2  A    between atoms: C9_11  and  O3_12
REMARK    3  A    between atoms: C11_14  and  C12_15
REMARK    4  A    between atoms: C14_17  and  O4_18
REMARK    5  A    between atoms: O4_18  and  C15_19
REMARK    6  A    between atoms: C15_19  and  C16_21
REMARK    7  A    between atoms: C16_21  and  C19_24
REMARK    8  A    between atoms: C17_22  and  C18_23
REMARK    9  A    between atoms: C19_24  and  O6_25
REMARK   10  A    between atoms: O6_25  and  C20_26
REMARK   11  A    between atoms: C20_26  and  O7_28
REMARK                            x       y       z     vdW  Elec       q    Type
REMARK                         _______ _______ _______ _____ _____    ______ ____
ROOT
ATOM      1  C1  UNL     1      24.722  -6.927 -35.237  0.00  0.00    +0.000 C 
ATOM      2  C2  UNL     1      25.403  -8.034 -34.942  0.00  0.00    +0.000 C 
ATOM      3  C3  UNL     1      24.993  -9.048 -33.997  0.00  0.00    +0.000 C 
ATOM      4  O1  UNL     1      23.922  -9.042 -33.334  0.00  0.00    +0.000 OA
ATOM      5  O2  UNL     1      25.956 -10.026 -33.880  0.00  0.00    +0.000 OA
ATOM      6  C4  UNL     1      26.983  -9.825 -34.846  0.00  0.00    +0.000 C 
ATOM      7  C5  UNL     1      28.364 -10.090 -34.288  0.00  0.00    +0.000 C 
ATOM      8  C6  UNL     1      29.048  -9.272 -33.449  0.00  0.00    +0.000 C 
ATOM      9  C7  UNL     1      28.379  -8.316 -32.492  0.00  0.00    +0.000 C 
ATOM     10  C8  UNL     1      30.547  -9.135 -33.656  0.00  0.00    +0.000 C 
ATOM     11  C9  UNL     1      30.927  -8.032 -34.699  0.00  0.00    +0.000 C 
ATOM     12  C10 UNL     1      29.901  -7.873 -35.815  0.00  0.00    +0.000 C 
ATOM     13  C11 UNL     1      29.612  -8.836 -36.718  0.00  0.00    +0.000 C 
ATOM     14  C12 UNL     1      30.626  -9.914 -37.035  0.00  0.00    +0.000 C 
ATOM     15  C13 UNL     1      28.321  -8.826 -37.530  0.00  0.00    +0.000 C 
ATOM     16  C14 UNL     1      27.032  -8.183 -36.923  0.00  0.00    +0.000 C 
ATOM     17  C22 UNL     1      26.797  -8.373 -35.393  0.00  0.00    +0.000 C 
ENDROOT
BRANCH  11  18
ATOM     18  O3  UNL     1      31.054  -6.797 -34.042  0.00  0.00    +0.000 OA
ATOM     19  H11 UNL     1      31.539  -6.188 -34.659  0.00  0.00    +0.000 HD
ENDBRANCH  11  18
BRANCH  16  20
ATOM     20  O4  UNL     1      25.890  -8.688 -37.621  0.00  0.00    +0.000 OA
BRANCH  20  21
ATOM     21  C15 UNL     1      25.385  -8.142 -38.806  0.00  0.00    +0.000 C 
ATOM     22  O5  UNL     1      24.377  -7.383 -38.764  0.00  0.00    +0.000 OA
BRANCH  21  23
ATOM     23  C16 UNL     1      26.006  -8.461 -40.121  0.00  0.00    +0.000 C 
ATOM     24  C17 UNL     1      26.753  -7.586 -40.828  0.00  0.00    +0.000 C 
ATOM     25  C18 UNL     1      27.098  -6.193 -40.394  0.00  0.00    +0.000 C 
BRANCH  23  26
ATOM     26  C19 UNL     1      25.713  -9.809 -40.736  0.00  0.00    +0.000 C 
BRANCH  26  27
ATOM     27  O6  UNL     1      26.908 -10.334 -41.302  0.00  0.00    +0.000 OA
BRANCH  27  28
ATOM     28  C20 UNL     1      27.943 -10.893 -40.543  0.00  0.00    +0.000 C 
ATOM     29  C21 UNL     1      29.195 -10.530 -40.795  0.00  0.00    +0.000 C 
BRANCH  28  30
ATOM     30  O7  UNL     1      27.695 -11.819 -39.529  0.00  0.00    +0.000 OA
ATOM     31  H27 UNL     1      26.771 -12.183 -39.340  0.00  0.00    +0.000 HD
ENDBRANCH  28  30
ENDBRANCH  27  28
ENDBRANCH  26  27
ENDBRANCH  23  26
ENDBRANCH  21  23
ENDBRANCH  20  21
ENDBRANCH  16  20
TORSDOF 8
ENDMDL
MODEL 8
REMARK VINA RESULT:    -5.184      1.538      3.815
REMARK INTER + INTRA:          -8.620
REMARK INTER:                  -7.433
REMARK INTRA:                  -1.187
REMARK UNBOUND:                -1.315
REMARK  Name = resultss/4CJN/ligands/lig_231_t1.pdb
REMARK  11 active torsions:
REMARK  status: ('A' for Active; 'I' for Inactive)
REMARK    1  A    between atoms: C6_8  and  C7_9
REMARK    2  A    between atoms: C9_11  and  O3_12
REMARK    3  A    between atoms: C11_14  and  C12_15
REMARK    4  A    between atoms: C14_17  and  O4_18
REMARK    5  A    between atoms: O4_18  and  C15_19
REMARK    6  A    between atoms: C15_19  and  C16_21
REMARK    7  A    between atoms: C16_21  and  C19_24
REMARK    8  A    between atoms: C17_22  and  C18_23
REMARK    9  A    between atoms: C19_24  and  O6_25
REMARK   10  A    between atoms: O6_25  and  C20_26
REMARK   11  A    between atoms: C20_26  and  O7_28
REMARK                            x       y       z     vdW  Elec       q    Type
REMARK                         _______ _______ _______ _____ _____    ______ ____
ROOT
ATOM      1  C1  UNL     1      25.638  -5.883 -37.096  0.00  0.00    +0.000 C 
ATOM      2  C2  UNL     1      25.981  -7.160 -36.926  0.00  0.00    +0.000 C 
ATOM      3  C3  UNL     1      25.069  -8.244 -36.634  0.00  0.00    +0.000 C 
ATOM      4  O1  UNL     1      23.819  -8.141 -36.524  0.00  0.00    +0.000 OA
ATOM      5  O2  UNL     1      25.756  -9.424 -36.451  0.00  0.00    +0.000 OA
ATOM      6  C4  UNL     1      27.134  -9.247 -36.768  0.00  0.00    +0.000 C 
ATOM      7  C5  UNL     1      28.047  -9.968 -35.802  0.00  0.00    +0.000 C 
ATOM      8  C6  UNL     1      28.329  -9.571 -34.535  0.00  0.00    +0.000 C 
ATOM      9  C7  UNL     1      27.386  -8.746 -33.693  0.00  0.00    +0.000 C 
ATOM     10  C8  UNL     1      29.751  -9.756 -34.033  0.00  0.00    +0.000 C 
ATOM     11  C9  UNL     1      30.691  -8.557 -34.390  0.00  0.00    +0.000 C 
ATOM     12  C10 UNL     1      30.342  -7.885 -35.712  0.00  0.00    +0.000 C 
ATOM     13  C11 UNL     1      30.421  -8.498 -36.915  0.00  0.00    +0.000 C 
ATOM     14  C12 UNL     1      31.348  -9.678 -37.111  0.00  0.00    +0.000 C 
ATOM     15  C13 UNL     1      29.681  -7.976 -38.142  0.00  0.00    +0.000 C 
ATOM     16  C14 UNL     1      28.331  -7.209 -37.961  0.00  0.00    +0.000 C 
ATOM     17  C22 UNL     1      27.379  -7.705 -36.830  0.00  0.00    +0.000 C 
ENDROOT
BRANCH  11  18
ATOM     18  O3  UNL     1      30.615  -7.590 -33.375  0.00  0.00    +0.000 OA
ATOM     19  H11 UNL     1      29.968  -6.900 -33.679  0.00  0.00    +0.000 HD
ENDBRANCH  11  18
BRANCH  16  20
ATOM     20  O4  UNL     1      27.614  -7.235 -39.198  0.00  0.00    +0.000 OA
BRANCH  20  21
ATOM     21  C15 UNL     1      27.964  -8.027 -40.297  0.00  0.00    +0.000 C 
ATOM     22  O5  UNL     1      28.675  -7.539 -41.218  0.00  0.00    +0.000 OA
BRANCH  21  23
ATOM     23  C16 UNL     1      27.490  -9.435 -40.407  0.00  0.00    +0.000 C 
ATOM     24  C17 UNL     1      28.308 -10.483 -40.649  0.00  0.00    +0.000 C 
ATOM     25  C18 UNL     1      29.796 -10.401 -40.810  0.00  0.00    +0.000 C 
BRANCH  23  26
ATOM     26  C19 UNL     1      26.005  -9.692 -40.326  0.00  0.00    +0.000 C 
BRANCH  26  27
ATOM     27  O6  UNL     1      25.567 -10.287 -41.542  0.00  0.00    +0.000 OA
BRANCH  27  28
ATOM     28  C20 UNL     1      24.870  -9.590 -42.537  0.00  0.00    +0.000 C 
ATOM     29  C21 UNL     1      25.484  -8.608 -43.186  0.00  0.00    +0.000 C 
BRANCH  28  30
ATOM     30  O7  UNL     1      23.551  -9.902 -42.867  0.00  0.00    +0.000 OA
ATOM     31  H27 UNL     1      23.123 -10.784 -42.619  0.00  0.00    +0.000 HD
ENDBRANCH  28  30
ENDBRANCH  27  28
ENDBRANCH  26  27
ENDBRANCH  23  26
ENDBRANCH  21  23
ENDBRANCH  20  21
ENDBRANCH  16  20
TORSDOF 8
ENDMDL
MODEL 9
REMARK VINA RESULT:    -5.163      1.601      4.204
REMARK INTER + INTRA:          -8.591
REMARK INTER:                  -7.616
REMARK INTRA:                  -0.975
REMARK UNBOUND:                -1.315
REMARK  Name = resultss/4CJN/ligands/lig_231_t1.pdb
REMARK  11 active torsions:
REMARK  status: ('A' for Active; 'I' for Inactive)
REMARK    1  A    between atoms: C6_8  and  C7_9
REMARK    2  A    between atoms: C9_11  and  O3_12
REMARK    3  A    between atoms: C11_14  and  C12_15
REMARK    4  A    between atoms: C14_17  and  O4_18
REMARK    5  A    between atoms: O4_18  and  C15_19
REMARK    6  A    between atoms: C15_19  and  C16_21
REMARK    7  A    between atoms: C16_21  and  C19_24
REMARK    8  A    between atoms: C17_22  and  C18_23
REMARK    9  A    between atoms: C19_24  and  O6_25
REMARK   10  A    between atoms: O6_25  and  C20_26
REMARK   11  A    between atoms: C20_26  and  O7_28
REMARK                            x       y       z     vdW  Elec       q    Type
REMARK                         _______ _______ _______ _____ _____    ______ ____
ROOT
ATOM      1  C1  UNL     1      25.141  -6.924 -35.455  0.00  0.00    +0.000 C 
ATOM      2  C2  UNL     1      25.824  -8.011 -35.097  0.00  0.00    +0.000 C 
ATOM      3  C3  UNL     1      25.330  -9.073 -34.248  0.00  0.00    +0.000 C 
ATOM      4  O1  UNL     1      24.176  -9.135 -33.748  0.00  0.00    +0.000 OA
ATOM      5  O2  UNL     1      26.311 -10.014 -34.021  0.00  0.00    +0.000 OA
ATOM      6  C4  UNL     1      27.455  -9.737 -34.824  0.00  0.00    +0.000 C 
ATOM      7  C5  UNL     1      28.752  -9.963 -34.080  0.00  0.00    +0.000 C 
ATOM      8  C6  UNL     1      29.272  -9.146 -33.129  0.00  0.00    +0.000 C 
ATOM      9  C7  UNL     1      28.429  -8.252 -32.251  0.00  0.00    +0.000 C 
ATOM     10  C8  UNL     1      30.776  -8.940 -33.114  0.00  0.00    +0.000 C 
ATOM     11  C9  UNL     1      31.250  -7.787 -34.060  0.00  0.00    +0.000 C 
ATOM     12  C10 UNL     1      30.388  -7.633 -35.307  0.00  0.00    +0.000 C 
ATOM     13  C11 UNL     1      30.276  -8.576 -36.269  0.00  0.00    +0.000 C 
ATOM     14  C12 UNL     1      31.373  -9.599 -36.467  0.00  0.00    +0.000 C 
ATOM     15  C13 UNL     1      29.115  -8.592 -37.258  0.00  0.00    +0.000 C 
ATOM     16  C14 UNL     1      27.723  -8.025 -36.826  0.00  0.00    +0.000 C 
ATOM     17  C22 UNL     1      27.282  -8.276 -35.351  0.00  0.00    +0.000 C 
ENDROOT
BRANCH  11  18
ATOM     18  O3  UNL     1      31.225  -6.571 -33.357  0.00  0.00    +0.000 OA
ATOM     19  H11 UNL     1      31.808  -6.683 -32.561  0.00  0.00    +0.000 HD
ENDBRANCH  11  18
BRANCH  16  20
ATOM     20  O4  UNL     1      26.718  -8.552 -37.694  0.00  0.00    +0.000 OA
BRANCH  20  21
ATOM     21  C15 UNL     1      26.643  -8.289 -39.066  0.00  0.00    +0.000 C 
ATOM     22  O5  UNL     1      27.040  -7.177 -39.512  0.00  0.00    +0.000 OA
BRANCH  21  23
ATOM     23  C16 UNL     1      26.079  -9.295 -40.009  0.00  0.00    +0.000 C 
ATOM     24  C17 UNL     1      26.825 -10.222 -40.648  0.00  0.00    +0.000 C 
ATOM     25  C18 UNL     1      28.304 -10.403 -40.488  0.00  0.00    +0.000 C 
BRANCH  23  26
ATOM     26  C19 UNL     1      24.606  -9.219 -40.330  0.00  0.00    +0.000 C 
BRANCH  26  27
ATOM     27  O6  UNL     1      24.412  -8.335 -41.428  0.00  0.00    +0.000 OA
BRANCH  27  28
ATOM     28  C20 UNL     1      24.115  -8.766 -42.726  0.00  0.00    +0.000 C 
ATOM     29  C21 UNL     1      24.251  -7.914 -43.735  0.00  0.00    +0.000 C 
BRANCH  28  30
ATOM     30  O7  UNL     1      23.681 -10.065 -42.989  0.00  0.00    +0.000 OA
ATOM     31  H27 UNL     1      24.323 -10.838 -43.109  0.00  0.00    +0.000 HD
ENDBRANCH  28  30
ENDBRANCH  27  28
ENDBRANCH  26  27
ENDBRANCH  23  26
ENDBRANCH  21  23
ENDBRANCH  20  21
ENDBRANCH  16  20
TORSDOF 8
ENDMDL
