MODEL 1
REMARK VINA RESULT:    -8.057      0.000      0.000
REMARK INTER + INTRA:         -12.283
REMARK INTER:                 -11.825
REMARK INTRA:                  -0.459
REMARK UNBOUND:                -0.459
REMARK  Name = resultss/4CJN/ligands/lig_437_t0.pdb
REMARK  10 active torsions:
REMARK  status: ('A' for Active; 'I' for Inactive)
REMARK    1  A    between atoms: C1_1  and  O1_2
REMARK    2  A    between atoms: O1_2  and  C2_3
REMARK    3  A    between atoms: C5_6  and  N1_7
REMARK    4  A    between atoms: N1_7  and  C6_8
REMARK    5  A    between atoms: C6_8  and  N2_10
REMARK    6  A    between atoms: N2_10  and  N3_11
REMARK    7  A    between atoms: C7_12  and  C8_14
REMARK    8  A    between atoms: C18_25  and  C19_26
REMARK    9  A    between atoms: C25_33  and  O3_34
REMARK   10  A    between atoms: O3_34  and  C26_35
REMARK                            x       y       z     vdW  Elec       q    Type
REMARK                         _______ _______ _______ _____ _____    ______ ____
ROOT
ATOM      1  N3  UNL     1      29.106 -10.681 -39.758  0.00  0.00    +0.000 N 
ATOM      2  C7  UNL     1      27.885 -10.301 -39.113  0.00  0.00    +0.000 C 
ATOM      3  O2  UNL     1      26.809 -10.299 -39.769  0.00  0.00    +0.000 OA
ATOM      4  H8  UNL     1      29.983 -10.780 -39.198  0.00  0.00    +0.000 HD
ENDROOT
BRANCH   2   5
ATOM      5  C8  UNL     1      27.874  -9.929 -37.688  0.00  0.00    +0.000 A 
ATOM      6  C9  UNL     1      29.067  -9.935 -36.937  0.00  0.00    +0.000 A 
ATOM      7  C10 UNL     1      28.974  -9.587 -35.596  0.00  0.00    +0.000 A 
ATOM      8  C11 UNL     1      27.772  -9.254 -35.007  0.00  0.00    +0.000 A 
ATOM      9  N4  UNL     1      27.926  -9.006 -33.684  0.00  0.00    +0.000 N 
ATOM     10  C12 UNL     1      29.244  -9.172 -33.452  0.00  0.00    +0.000 A 
ATOM     11  C13 UNL     1      29.913  -9.009 -32.239  0.00  0.00    +0.000 A 
ATOM     12  C14 UNL     1      31.309  -9.206 -32.222  0.00  0.00    +0.000 A 
ATOM     13  C15 UNL     1      31.999  -9.558 -33.405  0.00  0.00    +0.000 A 
ATOM     14  C16 UNL     1      31.302  -9.725 -34.618  0.00  0.00    +0.000 A 
ATOM     15  C17 UNL     1      29.921  -9.521 -34.603  0.00  0.00    +0.000 A 
ATOM     16  C18 UNL     1      26.597  -9.236 -35.768  0.00  0.00    +0.000 A 
ATOM     17  N5  UNL     1      26.689  -9.584 -37.087  0.00  0.00    +0.000 NA
ATOM     18  H10 UNL     1      27.194  -8.761 -32.982  0.00  0.00    +0.000 HD
BRANCH  16  19
ATOM     19  C19 UNL     1      25.274  -8.910 -35.191  0.00  0.00    +0.000 A 
ATOM     20  C20 UNL     1      24.357  -8.155 -35.943  0.00  0.00    +0.000 A 
ATOM     21  C21 UNL     1      23.098  -7.844 -35.416  0.00  0.00    +0.000 A 
ATOM     22  C22 UNL     1      22.753  -8.268 -34.130  0.00  0.00    +0.000 A 
ATOM     23  C23 UNL     1      23.672  -8.992 -33.363  0.00  0.00    +0.000 A 
ATOM     24  C24 UNL     1      24.931  -9.307 -33.886  0.00  0.00    +0.000 A 
ENDBRANCH  16  19
ENDBRANCH   2   5
BRANCH   1  25
ATOM     25  N2  UNL     1      29.102 -11.120 -41.090  0.00  0.00    +0.000 N 
ATOM     26  H7  UNL     1      28.341 -11.763 -41.408  0.00  0.00    +0.000 HD
BRANCH  25  27
ATOM     27  C6  UNL     1      30.117 -10.710 -42.015  0.00  0.00    +0.000 C 
ATOM     28  S1  UNL     1      29.755  -9.653 -43.223  0.00  0.00    +0.000 S 
BRANCH  27  29
ATOM     29  N1  UNL     1      31.416 -11.319 -41.949  0.00  0.00    +0.000 N 
ATOM     30  H6  UNL     1      31.835 -11.489 -41.007  0.00  0.00    +0.000 HD
BRANCH  29  34
ATOM     31  C2  UNL     1      33.528 -12.692 -45.372  0.00  0.00    +0.000 A 
ATOM     32  C3  UNL     1      32.351 -13.326 -44.963  0.00  0.00    +0.000 A 
ATOM     33  C4  UNL     1      31.659 -12.874 -43.837  0.00  0.00    +0.000 A 
ATOM     34  C5  UNL     1      32.131 -11.774 -43.108  0.00  0.00    +0.000 A 
ATOM     35  C25 UNL     1      33.297 -11.106 -43.521  0.00  0.00    +0.000 A 
ATOM     36  C27 UNL     1      33.996 -11.574 -44.654  0.00  0.00    +0.000 A 
BRANCH  31  38
ATOM     37  C1  UNL     1      33.717 -14.273 -47.303  0.00  0.00    +0.000 C 
ATOM     38  O1  UNL     1      34.199 -13.204 -46.494  0.00  0.00    +0.000 OA
ENDBRANCH  31  38
BRANCH  35  39
ATOM     39  O3  UNL     1      33.738  -9.999 -42.779  0.00  0.00    +0.000 OA
ATOM     40  C26 UNL     1      34.379 -10.080 -41.509  0.00  0.00    +0.000 C 
ENDBRANCH  35  39
ENDBRANCH  29  34
ENDBRANCH  27  29
ENDBRANCH  25  27
ENDBRANCH   1  25
TORSDOF 8
ENDMDL
MODEL 2
REMARK VINA RESULT:    -7.768      3.106      4.771
REMARK INTER + INTRA:         -11.859
REMARK INTER:                 -10.409
REMARK INTRA:                  -1.450
REMARK UNBOUND:                -0.459
REMARK  Name = resultss/4CJN/ligands/lig_437_t0.pdb
REMARK  10 active torsions:
REMARK  status: ('A' for Active; 'I' for Inactive)
REMARK    1  A    between atoms: C1_1  and  O1_2
REMARK    2  A    between atoms: O1_2  and  C2_3
REMARK    3  A    between atoms: C5_6  and  N1_7
REMARK    4  A    between atoms: N1_7  and  C6_8
REMARK    5  A    between atoms: C6_8  and  N2_10
REMARK    6  A    between atoms: N2_10  and  N3_11
REMARK    7  A    between atoms: C7_12  and  C8_14
REMARK    8  A    between atoms: C18_25  and  C19_26
REMARK    9  A    between atoms: C25_33  and  O3_34
REMARK   10  A    between atoms: O3_34  and  C26_35
REMARK                            x       y       z     vdW  Elec       q    Type
REMARK                         _______ _______ _______ _____ _____    ______ ____
ROOT
ATOM      1  N3  UNL     1      29.144 -10.636 -39.812  0.00  0.00    +0.000 N 
ATOM      2  C7  UNL     1      27.916 -10.470 -39.094  0.00  0.00    +0.000 C 
ATOM      3  O2  UNL     1      26.821 -10.706 -39.672  0.00  0.00    +0.000 OA
ATOM      4  H8  UNL     1      30.057 -10.538 -39.313  0.00  0.00    +0.000 HD
ENDROOT
BRANCH   2   5
ATOM      5  C8  UNL     1      27.922 -10.040 -37.686  0.00  0.00    +0.000 A 
ATOM      6  C9  UNL     1      29.127 -10.003 -36.954  0.00  0.00    +0.000 A 
ATOM      7  C10 UNL     1      29.050  -9.601 -35.627  0.00  0.00    +0.000 A 
ATOM      8  C11 UNL     1      27.854  -9.259 -35.033  0.00  0.00    +0.000 A 
ATOM      9  N4  UNL     1      28.025  -8.956 -33.724  0.00  0.00    +0.000 N 
ATOM     10  C12 UNL     1      29.348  -9.097 -33.506  0.00  0.00    +0.000 A 
ATOM     11  C13 UNL     1      30.034  -8.878 -32.312  0.00  0.00    +0.000 A 
ATOM     12  C14 UNL     1      31.432  -9.058 -32.308  0.00  0.00    +0.000 A 
ATOM     13  C15 UNL     1      32.108  -9.450 -33.487  0.00  0.00    +0.000 A 
ATOM     14  C16 UNL     1      31.395  -9.674 -34.681  0.00  0.00    +0.000 A 
ATOM     15  C17 UNL     1      30.012  -9.485 -34.652  0.00  0.00    +0.000 A 
ATOM     16  C18 UNL     1      26.666  -9.285 -35.775  0.00  0.00    +0.000 A 
ATOM     17  N5  UNL     1      26.743  -9.684 -37.080  0.00  0.00    +0.000 NA
ATOM     18  H10 UNL     1      27.301  -8.690 -33.020  0.00  0.00    +0.000 HD
BRANCH  16  19
ATOM     19  C19 UNL     1      25.349  -8.950 -35.191  0.00  0.00    +0.000 A 
ATOM     20  C20 UNL     1      24.435  -8.183 -35.935  0.00  0.00    +0.000 A 
ATOM     21  C21 UNL     1      23.182  -7.863 -35.401  0.00  0.00    +0.000 A 
ATOM     22  C22 UNL     1      22.838  -8.292 -34.116  0.00  0.00    +0.000 A 
ATOM     23  C23 UNL     1      23.754  -9.028 -33.357  0.00  0.00    +0.000 A 
ATOM     24  C24 UNL     1      25.008  -9.350 -33.886  0.00  0.00    +0.000 A 
ENDBRANCH  16  19
ENDBRANCH   2   5
BRANCH   1  25
ATOM     25  N2  UNL     1      29.141 -11.131 -41.124  0.00  0.00    +0.000 N 
ATOM     26  H7  UNL     1      28.703 -12.060 -41.315  0.00  0.00    +0.000 HD
BRANCH  25  27
ATOM     27  C6  UNL     1      29.730 -10.391 -42.202  0.00  0.00    +0.000 C 
ATOM     28  S1  UNL     1      31.037 -10.993 -43.000  0.00  0.00    +0.000 S 
BRANCH  27  29
ATOM     29  N1  UNL     1      29.243  -9.073 -42.498  0.00  0.00    +0.000 N 
ATOM     30  H6  UNL     1      29.912  -8.378 -42.900  0.00  0.00    +0.000 HD
BRANCH  29  34
ATOM     31  C2  UNL     1      25.172  -7.934 -42.061  0.00  0.00    +0.000 A 
ATOM     32  C3  UNL     1      25.530  -8.973 -42.925  0.00  0.00    +0.000 A 
ATOM     33  C4  UNL     1      26.868  -9.345 -43.069  0.00  0.00    +0.000 A 
ATOM     34  C5  UNL     1      27.870  -8.687 -42.341  0.00  0.00    +0.000 A 
ATOM     35  C25 UNL     1      27.526  -7.660 -41.444  0.00  0.00    +0.000 A 
ATOM     36  C27 UNL     1      26.173  -7.284 -41.312  0.00  0.00    +0.000 A 
BRANCH  31  38
ATOM     37  C1  UNL     1      22.783  -8.154 -42.773  0.00  0.00    +0.000 C 
ATOM     38  O1  UNL     1      23.816  -7.583 -41.974  0.00  0.00    +0.000 OA
ENDBRANCH  31  38
BRANCH  35  39
ATOM     39  O3  UNL     1      28.549  -7.028 -40.720  0.00  0.00    +0.000 OA
ATOM     40  C26 UNL     1      28.513  -6.780 -39.318  0.00  0.00    +0.000 C 
ENDBRANCH  35  39
ENDBRANCH  29  34
ENDBRANCH  27  29
ENDBRANCH  25  27
ENDBRANCH   1  25
TORSDOF 8
ENDMDL
MODEL 3
REMARK VINA RESULT:    -7.757      2.699      4.952
REMARK INTER + INTRA:         -11.843
REMARK INTER:                 -10.037
REMARK INTRA:                  -1.806
REMARK UNBOUND:                -0.459
REMARK  Name = resultss/4CJN/ligands/lig_437_t0.pdb
REMARK  10 active torsions:
REMARK  status: ('A' for Active; 'I' for Inactive)
REMARK    1  A    between atoms: C1_1  and  O1_2
REMARK    2  A    between atoms: O1_2  and  C2_3
REMARK    3  A    between atoms: C5_6  and  N1_7
REMARK    4  A    between atoms: N1_7  and  C6_8
REMARK    5  A    between atoms: C6_8  and  N2_10
REMARK    6  A    between atoms: N2_10  and  N3_11
REMARK    7  A    between atoms: C7_12  and  C8_14
REMARK    8  A    between atoms: C18_25  and  C19_26
REMARK    9  A    between atoms: C25_33  and  O3_34
REMARK   10  A    between atoms: O3_34  and  C26_35
REMARK                            x       y       z     vdW  Elec       q    Type
REMARK                         _______ _______ _______ _____ _____    ______ ____
ROOT
ATOM      1  N3  UNL     1      30.106  -9.986 -38.728  0.00  0.00    +0.000 N 
ATOM      2  C7  UNL     1      29.394  -9.772 -37.503  0.00  0.00    +0.000 C 
ATOM      3  O2  UNL     1      29.975  -9.969 -36.403  0.00  0.00    +0.000 OA
ATOM      4  H8  UNL     1      29.663  -9.731 -39.640  0.00  0.00    +0.000 HD
ENDROOT
BRANCH   2   5
ATOM      5  C8  UNL     1      27.995  -9.310 -37.520  0.00  0.00    +0.000 A 
ATOM      6  C9  UNL     1      27.281  -9.146 -36.316  0.00  0.00    +0.000 A 
ATOM      7  C10 UNL     1      25.962  -8.722 -36.415  0.00  0.00    +0.000 A 
ATOM      8  C11 UNL     1      25.360  -8.476 -37.631  0.00  0.00    +0.000 A 
ATOM      9  N4  UNL     1      24.061  -8.128 -37.474  0.00  0.00    +0.000 N 
ATOM     10  C12 UNL     1      23.857  -8.143 -36.141  0.00  0.00    +0.000 A 
ATOM     11  C13 UNL     1      22.677  -7.834 -35.465  0.00  0.00    +0.000 A 
ATOM     12  C14 UNL     1      22.688  -7.885 -34.057  0.00  0.00    +0.000 A 
ATOM     13  C15 UNL     1      23.866  -8.242 -33.361  0.00  0.00    +0.000 A 
ATOM     14  C16 UNL     1      25.045  -8.558 -34.063  0.00  0.00    +0.000 A 
ATOM     15  C17 UNL     1      25.003  -8.495 -35.457  0.00  0.00    +0.000 A 
ATOM     16  C18 UNL     1      26.085  -8.628 -38.819  0.00  0.00    +0.000 A 
ATOM     17  N5  UNL     1      27.383  -9.050 -38.721  0.00  0.00    +0.000 NA
ATOM     18  H10 UNL     1      23.353  -7.913 -38.211  0.00  0.00    +0.000 HD
BRANCH  16  19
ATOM     19  C19 UNL     1      25.492  -8.402 -40.155  0.00  0.00    +0.000 A 
ATOM     20  C20 UNL     1      25.405  -7.094 -40.663  0.00  0.00    +0.000 A 
ATOM     21  C21 UNL     1      24.854  -6.862 -41.928  0.00  0.00    +0.000 A 
ATOM     22  C22 UNL     1      24.370  -7.930 -42.687  0.00  0.00    +0.000 A 
ATOM     23  C23 UNL     1      24.423  -9.232 -42.176  0.00  0.00    +0.000 A 
ATOM     24  C24 UNL     1      24.974  -9.468 -40.912  0.00  0.00    +0.000 A 
ENDBRANCH  16  19
ENDBRANCH   2   5
BRANCH   1  25
ATOM     25  N2  UNL     1      31.463 -10.339 -38.711  0.00  0.00    +0.000 N 
ATOM     26  H7  UNL     1      31.768 -11.149 -38.124  0.00  0.00    +0.000 HD
BRANCH  25  27
ATOM     27  C6  UNL     1      32.433  -9.612 -39.475  0.00  0.00    +0.000 C 
ATOM     28  S1  UNL     1      33.749  -8.960 -38.732  0.00  0.00    +0.000 S 
BRANCH  27  29
ATOM     29  N1  UNL     1      32.187  -9.359 -40.867  0.00  0.00    +0.000 N 
ATOM     30  H6  UNL     1      32.044  -8.370 -41.171  0.00  0.00    +0.000 HD
BRANCH  29  34
ATOM     31  C2  UNL     1      32.251 -12.387 -43.848  0.00  0.00    +0.000 A 
ATOM     32  C3  UNL     1      33.426 -11.722 -43.487  0.00  0.00    +0.000 A 
ATOM     33  C4  UNL     1      33.403 -10.726 -42.508  0.00  0.00    +0.000 A 
ATOM     34  C5  UNL     1      32.202 -10.387 -41.868  0.00  0.00    +0.000 A 
ATOM     35  C25 UNL     1      31.016 -11.066 -42.197  0.00  0.00    +0.000 A 
ATOM     36  C27 UNL     1      31.046 -12.065 -43.194  0.00  0.00    +0.000 A 
BRANCH  31  38
ATOM     37  C1  UNL     1      33.299 -13.370 -45.897  0.00  0.00    +0.000 C 
ATOM     38  O1  UNL     1      32.325 -13.361 -44.857  0.00  0.00    +0.000 OA
ENDBRANCH  31  38
BRANCH  35  39
ATOM     39  O3  UNL     1      29.831 -10.714 -41.531  0.00  0.00    +0.000 OA
ATOM     40  C26 UNL     1      28.751  -9.999 -42.124  0.00  0.00    +0.000 C 
ENDBRANCH  35  39
ENDBRANCH  29  34
ENDBRANCH  27  29
ENDBRANCH  25  27
ENDBRANCH   1  25
TORSDOF 8
ENDMDL
MODEL 4
REMARK VINA RESULT:    -7.737      3.228      4.545
REMARK INTER + INTRA:         -11.814
REMARK INTER:                 -10.507
REMARK INTRA:                  -1.307
REMARK UNBOUND:                -0.459
REMARK  Name = resultss/4CJN/ligands/lig_437_t0.pdb
REMARK  10 active torsions:
REMARK  status: ('A' for Active; 'I' for Inactive)
REMARK    1  A    between atoms: C1_1  and  O1_2
REMARK    2  A    between atoms: O1_2  and  C2_3
REMARK    3  A    between atoms: C5_6  and  N1_7
REMARK    4  A    between atoms: N1_7  and  C6_8
REMARK    5  A    between atoms: C6_8  and  N2_10
REMARK    6  A    between atoms: N2_10  and  N3_11
REMARK    7  A    between atoms: C7_12  and  C8_14
REMARK    8  A    between atoms: C18_25  and  C19_26
REMARK    9  A    between atoms: C25_33  and  O3_34
REMARK   10  A    between atoms: O3_34  and  C26_35
REMARK                            x       y       z     vdW  Elec       q    Type
REMARK                         _______ _______ _______ _____ _____    ______ ____
ROOT
ATOM      1  N3  UNL     1      28.982 -10.310 -39.686  0.00  0.00    +0.000 N 
ATOM      2  C7  UNL     1      28.071 -10.791 -38.692  0.00  0.00    +0.000 C 
ATOM      3  O2  UNL     1      27.293 -11.743 -38.968  0.00  0.00    +0.000 OA
ATOM      4  H8  UNL     1      29.696  -9.589 -39.435  0.00  0.00    +0.000 HD
ENDROOT
BRANCH   2   5
ATOM      5  C8  UNL     1      28.047 -10.193 -37.346  0.00  0.00    +0.000 A 
ATOM      6  C9  UNL     1      29.243 -10.006 -36.624  0.00  0.00    +0.000 A 
ATOM      7  C10 UNL     1      29.137  -9.450 -35.355  0.00  0.00    +0.000 A 
ATOM      8  C11 UNL     1      27.920  -9.100 -34.808  0.00  0.00    +0.000 A 
ATOM      9  N4  UNL     1      28.068  -8.631 -33.545  0.00  0.00    +0.000 N 
ATOM     10  C12 UNL     1      29.395  -8.677 -33.311  0.00  0.00    +0.000 A 
ATOM     11  C13 UNL     1      30.061  -8.279 -32.152  0.00  0.00    +0.000 A 
ATOM     12  C14 UNL     1      31.466  -8.386 -32.127  0.00  0.00    +0.000 A 
ATOM     13  C15 UNL     1      32.169  -8.883 -33.249  0.00  0.00    +0.000 A 
ATOM     14  C16 UNL     1      31.476  -9.287 -34.406  0.00  0.00    +0.000 A 
ATOM     15  C17 UNL     1      30.085  -9.167 -34.402  0.00  0.00    +0.000 A 
ATOM     16  C18 UNL     1      26.741  -9.277 -35.541  0.00  0.00    +0.000 A 
ATOM     17  N5  UNL     1      26.846  -9.828 -36.788  0.00  0.00    +0.000 NA
ATOM     18  H10 UNL     1      27.327  -8.319 -32.879  0.00  0.00    +0.000 HD
BRANCH  16  19
ATOM     19  C19 UNL     1      25.404  -8.941 -35.003  0.00  0.00    +0.000 A 
ATOM     20  C20 UNL     1      24.515  -8.179 -35.780  0.00  0.00    +0.000 A 
ATOM     21  C21 UNL     1      23.244  -7.859 -35.290  0.00  0.00    +0.000 A 
ATOM     22  C22 UNL     1      22.858  -8.283 -34.015  0.00  0.00    +0.000 A 
ATOM     23  C23 UNL     1      23.749  -9.015 -33.223  0.00  0.00    +0.000 A 
ATOM     24  C24 UNL     1      25.021  -9.337 -33.709  0.00  0.00    +0.000 A 
ENDBRANCH  16  19
ENDBRANCH   2   5
BRANCH   1  25
ATOM     25  N2  UNL     1      29.067 -10.937 -40.938  0.00  0.00    +0.000 N 
ATOM     26  H7  UNL     1      28.722 -11.919 -41.037  0.00  0.00    +0.000 HD
BRANCH  25  27
ATOM     27  C6  UNL     1      29.617 -10.261 -42.076  0.00  0.00    +0.000 C 
ATOM     28  S1  UNL     1      30.662 -11.046 -43.077  0.00  0.00    +0.000 S 
BRANCH  27  29
ATOM     29  N1  UNL     1      29.343  -8.864 -42.265  0.00  0.00    +0.000 N 
ATOM     30  H6  UNL     1      29.966  -8.170 -41.794  0.00  0.00    +0.000 HD
BRANCH  29  34
ATOM     31  C2  UNL     1      26.288  -7.396 -44.829  0.00  0.00    +0.000 A 
ATOM     32  C3  UNL     1      27.635  -7.263 -45.181  0.00  0.00    +0.000 A 
ATOM     33  C4  UNL     1      28.638  -7.745 -44.337  0.00  0.00    +0.000 A 
ATOM     34  C5  UNL     1      28.306  -8.376 -43.129  0.00  0.00    +0.000 A 
ATOM     35  C25 UNL     1      26.956  -8.545 -42.773  0.00  0.00    +0.000 A 
ATOM     36  C27 UNL     1      25.950  -8.048 -43.627  0.00  0.00    +0.000 A 
BRANCH  31  38
ATOM     37  C1  UNL     1      23.990  -7.363 -45.820  0.00  0.00    +0.000 C 
ATOM     38  O1  UNL     1      25.322  -6.870 -45.701  0.00  0.00    +0.000 OA
ENDBRANCH  31  38
BRANCH  35  39
ATOM     39  O3  UNL     1      26.655  -9.193 -41.565  0.00  0.00    +0.000 OA
ATOM     40  C26 UNL     1      25.501  -9.997 -41.344  0.00  0.00    +0.000 C 
ENDBRANCH  35  39
ENDBRANCH  29  34
ENDBRANCH  27  29
ENDBRANCH  25  27
ENDBRANCH   1  25
TORSDOF 8
ENDMDL
MODEL 5
REMARK VINA RESULT:    -7.544      3.682      4.583
REMARK INTER + INTRA:         -11.530
REMARK INTER:                  -9.562
REMARK INTRA:                  -1.968
REMARK UNBOUND:                -0.459
REMARK  Name = resultss/4CJN/ligands/lig_437_t0.pdb
REMARK  10 active torsions:
REMARK  status: ('A' for Active; 'I' for Inactive)
REMARK    1  A    between atoms: C1_1  and  O1_2
REMARK    2  A    between atoms: O1_2  and  C2_3
REMARK    3  A    between atoms: C5_6  and  N1_7
REMARK    4  A    between atoms: N1_7  and  C6_8
REMARK    5  A    between atoms: C6_8  and  N2_10
REMARK    6  A    between atoms: N2_10  and  N3_11
REMARK    7  A    between atoms: C7_12  and  C8_14
REMARK    8  A    between atoms: C18_25  and  C19_26
REMARK    9  A    between atoms: C25_33  and  O3_34
REMARK   10  A    between atoms: O3_34  and  C26_35
REMARK                            x       y       z     vdW  Elec       q    Type
REMARK                         _______ _______ _______ _____ _____    ______ ____
ROOT
ATOM      1  N3  UNL     1      24.472  -9.348 -39.885  0.00  0.00    +0.000 N 
ATOM      2  C7  UNL     1      25.155  -8.238 -39.290  0.00  0.00    +0.000 C 
ATOM      3  O2  UNL     1      25.236  -7.148 -39.917  0.00  0.00    +0.000 OA
ATOM      4  H8  UNL     1      24.316 -10.221 -39.333  0.00  0.00    +0.000 HD
ENDROOT
BRANCH   2   5
ATOM      5  C8  UNL     1      25.749  -8.357 -37.947  0.00  0.00    +0.000 A 
ATOM      6  C9  UNL     1      27.114  -8.674 -37.794  0.00  0.00    +0.000 A 
ATOM      7  C10 UNL     1      27.597  -8.783 -36.496  0.00  0.00    +0.000 A 
ATOM      8  C11 UNL     1      26.787  -8.600 -35.395  0.00  0.00    +0.000 A 
ATOM      9  N4  UNL     1      27.469  -8.811 -34.244  0.00  0.00    +0.000 N 
ATOM     10  C12 UNL     1      28.724  -9.114 -34.635  0.00  0.00    +0.000 A 
ATOM     11  C13 UNL     1      29.817  -9.396 -33.817  0.00  0.00    +0.000 A 
ATOM     12  C14 UNL     1      31.055  -9.661 -34.435  0.00  0.00    +0.000 A 
ATOM     13  C15 UNL     1      31.173  -9.639 -35.844  0.00  0.00    +0.000 A 
ATOM     14  C16 UNL     1      30.054  -9.360 -36.652  0.00  0.00    +0.000 A 
ATOM     15  C17 UNL     1      28.842  -9.099 -36.010  0.00  0.00    +0.000 A 
ATOM     16  C18 UNL     1      25.436  -8.270 -35.561  0.00  0.00    +0.000 A 
ATOM     17  N5  UNL     1      24.961  -8.167 -36.839  0.00  0.00    +0.000 NA
ATOM     18  H10 UNL     1      27.113  -8.772 -33.263  0.00  0.00    +0.000 HD
BRANCH  16  19
ATOM     19  C19 UNL     1      24.511  -8.082 -34.422  0.00  0.00    +0.000 A 
ATOM     20  C20 UNL     1      24.057  -6.791 -34.102  0.00  0.00    +0.000 A 
ATOM     21  C21 UNL     1      23.176  -6.596 -33.033  0.00  0.00    +0.000 A 
ATOM     22  C22 UNL     1      22.755  -7.685 -32.266  0.00  0.00    +0.000 A 
ATOM     23  C23 UNL     1      23.226  -8.969 -32.557  0.00  0.00    +0.000 A 
ATOM     24  C24 UNL     1      24.107  -9.169 -33.625  0.00  0.00    +0.000 A 
ENDBRANCH  16  19
ENDBRANCH   2   5
BRANCH   1  25
ATOM     25  N2  UNL     1      23.830  -9.207 -41.125  0.00  0.00    +0.000 N 
ATOM     26  H7  UNL     1      22.788  -9.277 -41.166  0.00  0.00    +0.000 HD
BRANCH  25  27
ATOM     27  C6  UNL     1      24.574  -8.977 -42.328  0.00  0.00    +0.000 C 
ATOM     28  S1  UNL     1      24.080  -7.826 -43.396  0.00  0.00    +0.000 S 
BRANCH  27  29
ATOM     29  N1  UNL     1      25.678  -9.836 -42.648  0.00  0.00    +0.000 N 
ATOM     30  H6  UNL     1      25.496 -10.673 -43.247  0.00  0.00    +0.000 HD
BRANCH  29  34
ATOM     31  C2  UNL     1      29.688  -9.020 -41.500  0.00  0.00    +0.000 A 
ATOM     32  C3  UNL     1      29.100  -8.330 -42.564  0.00  0.00    +0.000 A 
ATOM     33  C4  UNL     1      27.783  -8.600 -42.941  0.00  0.00    +0.000 A 
ATOM     34  C5  UNL     1      27.030  -9.562 -42.251  0.00  0.00    +0.000 A 
ATOM     35  C25 UNL     1      27.595 -10.245 -41.160  0.00  0.00    +0.000 A 
ATOM     36  C27 UNL     1      28.929  -9.972 -40.791  0.00  0.00    +0.000 A 
BRANCH  31  38
ATOM     37  C1  UNL     1      31.428  -7.799 -40.178  0.00  0.00    +0.000 C 
ATOM     38  O1  UNL     1      31.023  -8.729 -41.179  0.00  0.00    +0.000 OA
ENDBRANCH  31  38
BRANCH  35  39
ATOM     39  O3  UNL     1      26.813 -11.192 -40.481  0.00  0.00    +0.000 OA
ATOM     40  C26 UNL     1      27.305 -12.422 -39.956  0.00  0.00    +0.000 C 
ENDBRANCH  35  39
ENDBRANCH  29  34
ENDBRANCH  27  29
ENDBRANCH  25  27
ENDBRANCH   1  25
TORSDOF 8
ENDMDL
MODEL 6
REMARK VINA RESULT:    -7.449      6.186     11.603
REMARK INTER + INTRA:         -11.392
REMARK INTER:                 -10.836
REMARK INTRA:                  -0.556
REMARK UNBOUND:                -0.459
REMARK  Name = resultss/4CJN/ligands/lig_437_t0.pdb
REMARK  10 active torsions:
REMARK  status: ('A' for Active; 'I' for Inactive)
REMARK    1  A    between atoms: C1_1  and  O1_2
REMARK    2  A    between atoms: O1_2  and  C2_3
REMARK    3  A    between atoms: C5_6  and  N1_7
REMARK    4  A    between atoms: N1_7  and  C6_8
REMARK    5  A    between atoms: C6_8  and  N2_10
REMARK    6  A    between atoms: N2_10  and  N3_11
REMARK    7  A    between atoms: C7_12  and  C8_14
REMARK    8  A    between atoms: C18_25  and  C19_26
REMARK    9  A    between atoms: C25_33  and  O3_34
REMARK   10  A    between atoms: O3_34  and  C26_35
REMARK                            x       y       z     vdW  Elec       q    Type
REMARK                         _______ _______ _______ _____ _____    ______ ____
ROOT
ATOM      1  N3  UNL     1      24.292  -8.237 -39.448  0.00  0.00    +0.000 N 
ATOM      2  C7  UNL     1      24.629  -8.836 -40.704  0.00  0.00    +0.000 C 
ATOM      3  O2  UNL     1      25.327  -9.885 -40.727  0.00  0.00    +0.000 OA
ATOM      4  H8  UNL     1      23.634  -7.426 -39.416  0.00  0.00    +0.000 HD
ENDROOT
BRANCH   2   5
ATOM      5  C8  UNL     1      24.154  -8.245 -41.967  0.00  0.00    +0.000 A 
ATOM      6  C9  UNL     1      22.790  -7.937 -42.146  0.00  0.00    +0.000 A 
ATOM      7  C10 UNL     1      22.417  -7.396 -43.369  0.00  0.00    +0.000 A 
ATOM      8  C11 UNL     1      23.329  -7.172 -44.380  0.00  0.00    +0.000 A 
ATOM      9  N4  UNL     1      22.720  -6.692 -45.491  0.00  0.00    +0.000 N 
ATOM     10  C12 UNL     1      21.416  -6.603 -45.161  0.00  0.00    +0.000 A 
ATOM     11  C13 UNL     1      20.373  -6.140 -45.963  0.00  0.00    +0.000 A 
ATOM     12  C14 UNL     1      19.078  -6.103 -45.409  0.00  0.00    +0.000 A 
ATOM     13  C15 UNL     1      18.855  -6.525 -44.078  0.00  0.00    +0.000 A 
ATOM     14  C16 UNL     1      19.921  -6.997 -43.287  0.00  0.00    +0.000 A 
ATOM     15  C17 UNL     1      21.192  -7.019 -43.864  0.00  0.00    +0.000 A 
ATOM     16  C18 UNL     1      24.683  -7.467 -44.184  0.00  0.00    +0.000 A 
ATOM     17  N5  UNL     1      25.048  -8.004 -42.980  0.00  0.00    +0.000 NA
ATOM     18  H10 UNL     1      23.149  -6.457 -46.414  0.00  0.00    +0.000 HD
BRANCH  16  19
ATOM     19  C19 UNL     1      25.706  -7.270 -45.235  0.00  0.00    +0.000 A 
ATOM     20  C20 UNL     1      27.067  -7.247 -44.882  0.00  0.00    +0.000 A 
ATOM     21  C21 UNL     1      28.048  -7.069 -45.864  0.00  0.00    +0.000 A 
ATOM     22  C22 UNL     1      27.678  -6.896 -47.200  0.00  0.00    +0.000 A 
ATOM     23  C23 UNL     1      26.325  -6.886 -47.555  0.00  0.00    +0.000 A 
ATOM     24  C24 UNL     1      25.340  -7.064 -46.577  0.00  0.00    +0.000 A 
ENDBRANCH  16  19
ENDBRANCH   2   5
BRANCH   1  25
ATOM     25  N2  UNL     1      24.669  -8.849 -38.243  0.00  0.00    +0.000 N 
ATOM     26  H7  UNL     1      24.915  -9.865 -38.247  0.00  0.00    +0.000 HD
BRANCH  25  27
ATOM     27  C6  UNL     1      24.719  -8.112 -37.015  0.00  0.00    +0.000 C 
ATOM     28  S1  UNL     1      24.832  -6.470 -37.041  0.00  0.00    +0.000 S 
BRANCH  27  29
ATOM     29  N1  UNL     1      24.790  -8.824 -35.770  0.00  0.00    +0.000 N 
ATOM     30  H6  UNL     1      23.964  -9.394 -35.479  0.00  0.00    +0.000 HD
BRANCH  29  34
ATOM     31  C2  UNL     1      28.262  -8.880 -33.320  0.00  0.00    +0.000 A 
ATOM     32  C3  UNL     1      27.130  -8.157 -32.931  0.00  0.00    +0.000 A 
ATOM     33  C4  UNL     1      25.990  -8.138 -33.737  0.00  0.00    +0.000 A 
ATOM     34  C5  UNL     1      25.964  -8.852 -34.944  0.00  0.00    +0.000 A 
ATOM     35  C25 UNL     1      27.082  -9.608 -35.337  0.00  0.00    +0.000 A 
ATOM     36  C27 UNL     1      28.232  -9.615 -34.521  0.00  0.00    +0.000 A 
BRANCH  31  38
ATOM     37  C1  UNL     1      30.657  -9.404 -32.817  0.00  0.00    +0.000 C 
ATOM     38  O1  UNL     1      29.390  -8.842 -32.485  0.00  0.00    +0.000 OA
ENDBRANCH  31  38
BRANCH  35  39
ATOM     39  O3  UNL     1      27.020 -10.323 -36.545  0.00  0.00    +0.000 OA
ATOM     40  C26 UNL     1      27.994 -10.245 -37.581  0.00  0.00    +0.000 C 
ENDBRANCH  35  39
ENDBRANCH  29  34
ENDBRANCH  27  29
ENDBRANCH  25  27
ENDBRANCH   1  25
TORSDOF 8
ENDMDL
MODEL 7
REMARK VINA RESULT:    -7.343      4.215      6.190
REMARK INTER + INTRA:         -11.236
REMARK INTER:                 -10.005
REMARK INTRA:                  -1.231
REMARK UNBOUND:                -0.459
REMARK  Name = resultss/4CJN/ligands/lig_437_t0.pdb
REMARK  10 active torsions:
REMARK  status: ('A' for Active; 'I' for Inactive)
REMARK    1  A    between atoms: C1_1  and  O1_2
REMARK    2  A    between atoms: O1_2  and  C2_3
REMARK    3  A    between atoms: C5_6  and  N1_7
REMARK    4  A    between atoms: N1_7  and  C6_8
REMARK    5  A    between atoms: C6_8  and  N2_10
REMARK    6  A    between atoms: N2_10  and  N3_11
REMARK    7  A    between atoms: C7_12  and  C8_14
REMARK    8  A    between atoms: C18_25  and  C19_26
REMARK    9  A    between atoms: C25_33  and  O3_34
REMARK   10  A    between atoms: O3_34  and  C26_35
REMARK                            x       y       z     vdW  Elec       q    Type
REMARK                         _______ _______ _______ _____ _____    ______ ____
ROOT
ATOM      1  N3  UNL     1      26.432  -9.473 -40.111  0.00  0.00    +0.000 N 
ATOM      2  C7  UNL     1      27.451 -10.020 -39.267  0.00  0.00    +0.000 C 
ATOM      3  O2  UNL     1      28.332 -10.773 -39.762  0.00  0.00    +0.000 OA
ATOM      4  H8  UNL     1      25.758  -8.772 -39.729  0.00  0.00    +0.000 HD
ENDROOT
BRANCH   2   5
ATOM      5  C8  UNL     1      27.485  -9.699 -37.830  0.00  0.00    +0.000 A 
ATOM      6  C9  UNL     1      28.696  -9.761 -37.111  0.00  0.00    +0.000 A 
ATOM      7  C10 UNL     1      28.646  -9.458 -35.756  0.00  0.00    +0.000 A 
ATOM      8  C11 UNL     1      27.467  -9.120 -35.125  0.00  0.00    +0.000 A 
ATOM      9  N4  UNL     1      27.661  -8.923 -33.798  0.00  0.00    +0.000 N 
ATOM     10  C12 UNL     1      28.980  -9.128 -33.607  0.00  0.00    +0.000 A 
ATOM     11  C13 UNL     1      29.684  -9.024 -32.407  0.00  0.00    +0.000 A 
ATOM     12  C14 UNL     1      31.074  -9.253 -32.433  0.00  0.00    +0.000 A 
ATOM     13  C15 UNL     1      31.725  -9.579 -33.646  0.00  0.00    +0.000 A 
ATOM     14  C16 UNL     1      30.994  -9.686 -34.845  0.00  0.00    +0.000 A 
ATOM     15  C17 UNL     1      29.619  -9.450 -34.786  0.00  0.00    +0.000 A 
ATOM     16  C18 UNL     1      26.274  -9.047 -35.853  0.00  0.00    +0.000 A 
ATOM     17  N5  UNL     1      26.324  -9.349 -37.186  0.00  0.00    +0.000 NA
ATOM     18  H10 UNL     1      26.953  -8.686 -33.068  0.00  0.00    +0.000 HD
BRANCH  16  19
ATOM     19  C19 UNL     1      24.974  -8.711 -35.230  0.00  0.00    +0.000 A 
ATOM     20  C20 UNL     1      24.695  -9.155 -33.926  0.00  0.00    +0.000 A 
ATOM     21  C21 UNL     1      23.473  -8.839 -33.319  0.00  0.00    +0.000 A 
ATOM     22  C22 UNL     1      22.517  -8.095 -34.015  0.00  0.00    +0.000 A 
ATOM     23  C23 UNL     1      22.775  -7.677 -35.325  0.00  0.00    +0.000 A 
ATOM     24  C24 UNL     1      23.995  -7.990 -35.936  0.00  0.00    +0.000 A 
ENDBRANCH  16  19
ENDBRANCH   2   5
BRANCH   1  25
ATOM     25  N2  UNL     1      26.451  -9.707 -41.494  0.00  0.00    +0.000 N 
ATOM     26  H7  UNL     1      25.988 -10.566 -41.869  0.00  0.00    +0.000 HD
BRANCH  25  27
ATOM     27  C6  UNL     1      27.094  -8.798 -42.396  0.00  0.00    +0.000 C 
ATOM     28  S1  UNL     1      28.605  -9.126 -42.961  0.00  0.00    +0.000 S 
BRANCH  27  29
ATOM     29  N1  UNL     1      26.460  -7.548 -42.707  0.00  0.00    +0.000 N 
ATOM     30  H6  UNL     1      26.984  -6.665 -42.510  0.00  0.00    +0.000 HD
BRANCH  29  34
ATOM     31  C2  UNL     1      22.671  -7.248 -44.608  0.00  0.00    +0.000 A 
ATOM     32  C3  UNL     1      23.847  -7.240 -45.364  0.00  0.00    +0.000 A 
ATOM     33  C4  UNL     1      25.091  -7.337 -44.738  0.00  0.00    +0.000 A 
ATOM     34  C5  UNL     1      25.177  -7.453 -43.342  0.00  0.00    +0.000 A 
ATOM     35  C25 UNL     1      24.003  -7.493 -42.568  0.00  0.00    +0.000 A 
ATOM     36  C27 UNL     1      22.751  -7.385 -43.208  0.00  0.00    +0.000 A 
BRANCH  31  38
ATOM     37  C1  UNL     1      21.318  -7.013 -46.700  0.00  0.00    +0.000 C 
ATOM     38  O1  UNL     1      21.448  -7.121 -45.285  0.00  0.00    +0.000 OA
ENDBRANCH  31  38
BRANCH  35  39
ATOM     39  O3  UNL     1      24.120  -7.623 -41.175  0.00  0.00    +0.000 OA
ATOM     40  C26 UNL     1      23.870  -6.576 -40.242  0.00  0.00    +0.000 C 
ENDBRANCH  35  39
ENDBRANCH  29  34
ENDBRANCH  27  29
ENDBRANCH  25  27
ENDBRANCH   1  25
TORSDOF 8
ENDMDL
MODEL 8
REMARK VINA RESULT:    -7.331      4.186     10.460
REMARK INTER + INTRA:         -11.218
REMARK INTER:                  -9.814
REMARK INTRA:                  -1.403
REMARK UNBOUND:                -0.459
REMARK  Name = resultss/4CJN/ligands/lig_437_t0.pdb
REMARK  10 active torsions:
REMARK  status: ('A' for Active; 'I' for Inactive)
REMARK    1  A    between atoms: C1_1  and  O1_2
REMARK    2  A    between atoms: O1_2  and  C2_3
REMARK    3  A    between atoms: C5_6  and  N1_7
REMARK    4  A    between atoms: N1_7  and  C6_8
REMARK    5  A    between atoms: C6_8  and  N2_10
REMARK    6  A    between atoms: N2_10  and  N3_11
REMARK    7  A    between atoms: C7_12  and  C8_14
REMARK    8  A    between atoms: C18_25  and  C19_26
REMARK    9  A    between atoms: C25_33  and  O3_34
REMARK   10  A    between atoms: O3_34  and  C26_35
REMARK                            x       y       z     vdW  Elec       q    Type
REMARK                         _______ _______ _______ _____ _____    ______ ____
ROOT
ATOM      1  N3  UNL     1      25.429  -8.358 -38.821  0.00  0.00    +0.000 N 
ATOM      2  C7  UNL     1      25.181  -8.943 -40.105  0.00  0.00    +0.000 C 
ATOM      3  O2  UNL     1      24.188  -9.703 -40.261  0.00  0.00    +0.000 OA
ATOM      4  H8  UNL     1      26.191  -7.651 -38.708  0.00  0.00    +0.000 HD
ENDROOT
BRANCH   2   5
ATOM      5  C8  UNL     1      26.068  -8.654 -41.244  0.00  0.00    +0.000 A 
ATOM      6  C9  UNL     1      25.583  -7.959 -42.371  0.00  0.00    +0.000 A 
ATOM      7  C10 UNL     1      26.475  -7.737 -43.411  0.00  0.00    +0.000 A 
ATOM      8  C11 UNL     1      27.781  -8.179 -43.364  0.00  0.00    +0.000 A 
ATOM      9  N4  UNL     1      28.438  -7.893 -44.513  0.00  0.00    +0.000 N 
ATOM     10  C12 UNL     1      27.532  -7.251 -45.279  0.00  0.00    +0.000 A 
ATOM     11  C13 UNL     1      27.727  -6.730 -46.558  0.00  0.00    +0.000 A 
ATOM     12  C14 UNL     1      26.648  -6.066 -47.174  0.00  0.00    +0.000 A 
ATOM     13  C15 UNL     1      25.408  -5.940 -46.507  0.00  0.00    +0.000 A 
ATOM     14  C16 UNL     1      25.229  -6.481 -45.218  0.00  0.00    +0.000 A 
ATOM     15  C17 UNL     1      26.319  -7.130 -44.634  0.00  0.00    +0.000 A 
ATOM     16  C18 UNL     1      28.255  -8.855 -42.233  0.00  0.00    +0.000 A 
ATOM     17  N5  UNL     1      27.374  -9.076 -41.210  0.00  0.00    +0.000 NA
ATOM     18  H10 UNL     1      29.421  -8.128 -44.774  0.00  0.00    +0.000 HD
BRANCH  16  19
ATOM     19  C19 UNL     1      29.637  -9.372 -42.129  0.00  0.00    +0.000 A 
ATOM     20  C20 UNL     1      30.501  -8.851 -41.150  0.00  0.00    +0.000 A 
ATOM     21  C21 UNL     1      31.809  -9.334 -41.033  0.00  0.00    +0.000 A 
ATOM     22  C22 UNL     1      32.269 -10.328 -41.901  0.00  0.00    +0.000 A 
ATOM     23  C23 UNL     1      31.425 -10.830 -42.898  0.00  0.00    +0.000 A 
ATOM     24  C24 UNL     1      30.117 -10.350 -43.019  0.00  0.00    +0.000 A 
ENDBRANCH  16  19
ENDBRANCH   2   5
BRANCH   1  25
ATOM     25  N2  UNL     1      24.534  -8.562 -37.760  0.00  0.00    +0.000 N 
ATOM     26  H7  UNL     1      23.660  -9.108 -37.933  0.00  0.00    +0.000 HD
BRANCH  25  27
ATOM     27  C6  UNL     1      24.795  -8.036 -36.453  0.00  0.00    +0.000 C 
ATOM     28  S1  UNL     1      23.579  -7.929 -35.349  0.00  0.00    +0.000 S 
BRANCH  27  29
ATOM     29  N1  UNL     1      26.092  -7.496 -36.157  0.00  0.00    +0.000 N 
ATOM     30  H6  UNL     1      26.363  -6.590 -36.602  0.00  0.00    +0.000 HD
BRANCH  29  34
ATOM     31  C2  UNL     1      28.796  -9.253 -33.389  0.00  0.00    +0.000 A 
ATOM     32  C3  UNL     1      28.219  -8.007 -33.125  0.00  0.00    +0.000 A 
ATOM     33  C4  UNL     1      27.332  -7.431 -34.036  0.00  0.00    +0.000 A 
ATOM     34  C5  UNL     1      27.001  -8.098 -35.224  0.00  0.00    +0.000 A 
ATOM     35  C25 UNL     1      27.548  -9.365 -35.493  0.00  0.00    +0.000 A 
ATOM     36  C27 UNL     1      28.451  -9.937 -34.572  0.00  0.00    +0.000 A 
BRANCH  31  38
ATOM     37  C1  UNL     1      31.013 -10.236 -32.770  0.00  0.00    +0.000 C 
ATOM     38  O1  UNL     1      29.702  -9.775 -32.453  0.00  0.00    +0.000 OA
ENDBRANCH  31  38
BRANCH  35  39
ATOM     39  O3  UNL     1      27.189 -10.014 -36.685  0.00  0.00    +0.000 OA
ATOM     40  C26 UNL     1      28.111 -10.451 -37.678  0.00  0.00    +0.000 C 
ENDBRANCH  35  39
ENDBRANCH  29  34
ENDBRANCH  27  29
ENDBRANCH  25  27
ENDBRANCH   1  25
TORSDOF 8
ENDMDL
MODEL 9
REMARK VINA RESULT:    -7.316      2.161      3.021
REMARK INTER + INTRA:         -11.196
REMARK INTER:                  -9.483
REMARK INTRA:                  -1.713
REMARK UNBOUND:                -0.459
REMARK  Name = resultss/4CJN/ligands/lig_437_t0.pdb
REMARK  10 active torsions:
REMARK  status: ('A' for Active; 'I' for Inactive)
REMARK    1  A    between atoms: C1_1  and  O1_2
REMARK    2  A    between atoms: O1_2  and  C2_3
REMARK    3  A    between atoms: C5_6  and  N1_7
REMARK    4  A    between atoms: N1_7  and  C6_8
REMARK    5  A    between atoms: C6_8  and  N2_10
REMARK    6  A    between atoms: N2_10  and  N3_11
REMARK    7  A    between atoms: C7_12  and  C8_14
REMARK    8  A    between atoms: C18_25  and  C19_26
REMARK    9  A    between atoms: C25_33  and  O3_34
REMARK   10  A    between atoms: O3_34  and  C26_35
REMARK                            x       y       z     vdW  Elec       q    Type
REMARK                         _______ _______ _______ _____ _____    ______ ____
ROOT
ATOM      1  N3  UNL     1      26.316  -9.253 -39.466  0.00  0.00    +0.000 N 
ATOM      2  C7  UNL     1      27.151 -10.060 -38.627  0.00  0.00    +0.000 C 
ATOM      3  O2  UNL     1      27.671 -11.109 -39.092  0.00  0.00    +0.000 OA
ATOM      4  H8  UNL     1      25.961  -8.333 -39.119  0.00  0.00    +0.000 HD
ENDROOT
BRANCH   2   5
ATOM      5  C8  UNL     1      27.417  -9.666 -37.233  0.00  0.00    +0.000 A 
ATOM      6  C9  UNL     1      28.721  -9.745 -36.704  0.00  0.00    +0.000 A 
ATOM      7  C10 UNL     1      28.890  -9.370 -35.377  0.00  0.00    +0.000 A 
ATOM      8  C11 UNL     1      27.836  -8.945 -34.595  0.00  0.00    +0.000 A 
ATOM      9  N4  UNL     1      28.238  -8.688 -33.328  0.00  0.00    +0.000 N 
ATOM     10  C12 UNL     1      29.562  -8.942 -33.326  0.00  0.00    +0.000 A 
ATOM     11  C13 UNL     1      30.445  -8.808 -32.254  0.00  0.00    +0.000 A 
ATOM     12  C14 UNL     1      31.805  -9.101 -32.477  0.00  0.00    +0.000 A 
ATOM     13  C15 UNL     1      32.250  -9.519 -33.753  0.00  0.00    +0.000 A 
ATOM     14  C16 UNL     1      31.340  -9.656 -34.819  0.00  0.00    +0.000 A 
ATOM     15  C17 UNL     1      30.000  -9.355 -34.568  0.00  0.00    +0.000 A 
ATOM     16  C18 UNL     1      26.548  -8.857 -35.138  0.00  0.00    +0.000 A 
ATOM     17  N5  UNL     1      26.382  -9.230 -36.443  0.00  0.00    +0.000 NA
ATOM     18  H10 UNL     1      27.660  -8.382 -32.514  0.00  0.00    +0.000 HD
BRANCH  16  19
ATOM     19  C19 UNL     1      25.373  -8.430 -34.347  0.00  0.00    +0.000 A 
ATOM     20  C20 UNL     1      25.016  -7.071 -34.313  0.00  0.00    +0.000 A 
ATOM     21  C21 UNL     1      23.903  -6.651 -33.576  0.00  0.00    +0.000 A 
ATOM     22  C22 UNL     1      23.149  -7.580 -32.856  0.00  0.00    +0.000 A 
ATOM     23  C23 UNL     1      23.516  -8.930 -32.858  0.00  0.00    +0.000 A 
ATOM     24  C24 UNL     1      24.628  -9.355 -33.594  0.00  0.00    +0.000 A 
ENDBRANCH  16  19
ENDBRANCH   2   5
BRANCH   1  25
ATOM     25  N2  UNL     1      26.134  -9.581 -40.817  0.00  0.00    +0.000 N 
ATOM     26  H7  UNL     1      25.730 -10.513 -41.063  0.00  0.00    +0.000 HD
BRANCH  25  27
ATOM     27  C6  UNL     1      26.495  -8.667 -41.862  0.00  0.00    +0.000 C 
ATOM     28  S1  UNL     1      25.463  -8.399 -43.116  0.00  0.00    +0.000 S 
BRANCH  27  29
ATOM     29  N1  UNL     1      27.806  -8.083 -41.864  0.00  0.00    +0.000 N 
ATOM     30  H6  UNL     1      27.887  -7.051 -41.726  0.00  0.00    +0.000 HD
BRANCH  29  34
ATOM     31  C2  UNL     1      31.361 -10.389 -42.188  0.00  0.00    +0.000 A 
ATOM     32  C3  UNL     1      30.474 -10.296 -43.265  0.00  0.00    +0.000 A 
ATOM     33  C4  UNL     1      29.306  -9.540 -43.157  0.00  0.00    +0.000 A 
ATOM     34  C5  UNL     1      29.012  -8.855 -41.968  0.00  0.00    +0.000 A 
ATOM     35  C25 UNL     1      29.906  -8.912 -40.885  0.00  0.00    +0.000 A 
ATOM     36  C27 UNL     1      31.080  -9.687 -41.000  0.00  0.00    +0.000 A 
BRANCH  31  38
ATOM     37  C1  UNL     1      32.524 -12.461 -42.977  0.00  0.00    +0.000 C 
ATOM     38  O1  UNL     1      32.507 -11.185 -42.341  0.00  0.00    +0.000 OA
ENDBRANCH  31  38
BRANCH  35  39
ATOM     39  O3  UNL     1      29.591  -8.206 -39.713  0.00  0.00    +0.000 OA
ATOM     40  C26 UNL     1      30.521  -7.435 -38.959  0.00  0.00    +0.000 C 
ENDBRANCH  35  39
ENDBRANCH  29  34
ENDBRANCH  27  29
ENDBRANCH  25  27
ENDBRANCH   1  25
TORSDOF 8
ENDMDL
