MODEL 1
REMARK VINA RESULT:    -5.905      0.000      0.000
REMARK INTER + INTRA:          -6.077
REMARK INTER:                  -6.077
REMARK INTRA:                   0.000
REMARK UNBOUND:                 0.000
REMARK  Name = resultss/4CJN/ligands/lig_360_t2.pdb
REMARK  1 active torsions:
REMARK  status: ('A' for Active; 'I' for Inactive)
REMARK    1  A    between atoms: C4_6  and  O3_7
REMARK                            x       y       z     vdW  Elec       q    Type
REMARK                         _______ _______ _______ _____ _____    ______ ____
ROOT
ATOM      1  O1  UNL     1      28.410 -10.022 -35.982  0.00  0.00    +0.000 OA
ATOM      2  C1  UNL     1      27.255  -9.521 -35.961  0.00  0.00    +0.000 A 
ATOM      3  O2  UNL     1      26.669  -9.231 -34.795  0.00  0.00    +0.000 OA
ATOM      4  C2  UNL     1      25.442  -8.696 -34.710  0.00  0.00    +0.000 A 
ATOM      5  C3  UNL     1      24.885  -8.416 -33.458  0.00  0.00    +0.000 A 
ATOM      6  C4  UNL     1      23.604  -7.857 -33.366  0.00  0.00    +0.000 A 
ATOM      7  C5  UNL     1      22.874  -7.574 -34.532  0.00  0.00    +0.000 A 
ATOM      8  C6  UNL     1      23.418  -7.849 -35.791  0.00  0.00    +0.000 A 
ATOM      9  C7  UNL     1      24.698  -8.408 -35.884  0.00  0.00    +0.000 A 
ATOM     10  C8  UNL     1      25.305  -8.708 -37.101  0.00  0.00    +0.000 A 
ATOM     11  O4  UNL     1      24.826  -8.537 -38.315  0.00  0.00    +0.000 OA
ATOM     12  C9  UNL     1      25.749  -8.963 -39.157  0.00  0.00    +0.000 A 
ATOM     13  C10 UNL     1      25.648  -8.964 -40.653  0.00  0.00    +0.000 C 
ATOM     14  C11 UNL     1      26.903  -9.528 -41.292  0.00  0.00    +0.000 C 
ATOM     15  O5  UNL     1      26.969  -9.595 -42.549  0.00  0.00    +0.000 OA
ATOM     16  C12 UNL     1      28.058 -10.005 -40.485  0.00  0.00    +0.000 C 
ATOM     17  C13 UNL     1      28.042  -9.958 -39.146  0.00  0.00    +0.000 C 
ATOM     18  C14 UNL     1      26.857  -9.423 -38.474  0.00  0.00    +0.000 A 
ATOM     19  C15 UNL     1      26.561  -9.255 -37.141  0.00  0.00    +0.000 A 
ENDROOT
BRANCH   6  20
ATOM     20  O3  UNL     1      23.064  -7.584 -32.110  0.00  0.00    +0.000 OA
ATOM     21  H2  UNL     1      22.662  -6.681 -31.891  0.00  0.00    +0.000 HD
ENDBRANCH   6  20
TORSDOF 1
ENDMDL
MODEL 2
REMARK VINA RESULT:    -5.868      2.998      3.863
REMARK INTER + INTRA:          -6.040
REMARK INTER:                  -6.040
REMARK INTRA:                   0.000
REMARK UNBOUND:                 0.000
REMARK  Name = resultss/4CJN/ligands/lig_360_t2.pdb
REMARK  1 active torsions:
REMARK  status: ('A' for Active; 'I' for Inactive)
REMARK    1  A    between atoms: C4_6  and  O3_7
REMARK                            x       y       z     vdW  Elec       q    Type
REMARK                         _______ _______ _______ _____ _____    ______ ____
ROOT
ATOM      1  O1  UNL     1      30.783  -9.673 -39.807  0.00  0.00    +0.000 OA
ATOM      2  C1  UNL     1      29.939  -9.697 -38.873  0.00  0.00    +0.000 A 
ATOM      3  O2  UNL     1      30.346  -9.727 -37.600  0.00  0.00    +0.000 OA
ATOM      4  C2  UNL     1      29.494  -9.753 -36.564  0.00  0.00    +0.000 A 
ATOM      5  C3  UNL     1      29.984  -9.783 -35.254  0.00  0.00    +0.000 A 
ATOM      6  C4  UNL     1      29.098  -9.810 -34.170  0.00  0.00    +0.000 A 
ATOM      7  C5  UNL     1      27.712  -9.806 -34.395  0.00  0.00    +0.000 A 
ATOM      8  C6  UNL     1      27.206  -9.776 -35.699  0.00  0.00    +0.000 A 
ATOM      9  C7  UNL     1      28.091  -9.749 -36.783  0.00  0.00    +0.000 A 
ATOM     10  C8  UNL     1      27.663  -9.718 -38.108  0.00  0.00    +0.000 A 
ATOM     11  O4  UNL     1      26.429  -9.708 -38.566  0.00  0.00    +0.000 OA
ATOM     12  C9  UNL     1      26.508  -9.676 -39.884  0.00  0.00    +0.000 A 
ATOM     13  C10 UNL     1      25.351  -9.654 -40.837  0.00  0.00    +0.000 C 
ATOM     14  C11 UNL     1      25.822  -9.619 -42.279  0.00  0.00    +0.000 C 
ATOM     15  O5  UNL     1      24.963  -9.598 -43.200  0.00  0.00    +0.000 OA
ATOM     16  C12 UNL     1      27.266  -9.609 -42.640  0.00  0.00    +0.000 C 
ATOM     17  C13 UNL     1      28.222  -9.631 -41.702  0.00  0.00    +0.000 C 
ATOM     18  C14 UNL     1      27.825  -9.664 -40.293  0.00  0.00    +0.000 A 
ATOM     19  C15 UNL     1      28.569  -9.692 -39.135  0.00  0.00    +0.000 A 
ENDROOT
BRANCH   6  20
ATOM     20  O3  UNL     1      29.604  -9.841 -32.872  0.00  0.00    +0.000 OA
ATOM     21  H2  UNL     1      29.896  -8.994 -32.398  0.00  0.00    +0.000 HD
ENDBRANCH   6  20
TORSDOF 1
ENDMDL
MODEL 3
REMARK VINA RESULT:    -5.847      1.627      3.245
REMARK INTER + INTRA:          -6.018
REMARK INTER:                  -6.018
REMARK INTRA:                   0.000
REMARK UNBOUND:                 0.000
REMARK  Name = resultss/4CJN/ligands/lig_360_t2.pdb
REMARK  1 active torsions:
REMARK  status: ('A' for Active; 'I' for Inactive)
REMARK    1  A    between atoms: C4_6  and  O3_7
REMARK                            x       y       z     vdW  Elec       q    Type
REMARK                         _______ _______ _______ _____ _____    ______ ____
ROOT
ATOM      1  O1  UNL     1      24.495  -8.197 -39.906  0.00  0.00    +0.000 OA
ATOM      2  C1  UNL     1      25.214  -8.559 -38.938  0.00  0.00    +0.000 A 
ATOM      3  O2  UNL     1      24.783  -8.397 -37.684  0.00  0.00    +0.000 OA
ATOM      4  C2  UNL     1      25.504  -8.763 -36.614  0.00  0.00    +0.000 A 
ATOM      5  C3  UNL     1      24.995  -8.567 -35.325  0.00  0.00    +0.000 A 
ATOM      6  C4  UNL     1      25.746  -8.948 -34.205  0.00  0.00    +0.000 A 
ATOM      7  C5  UNL     1      27.012  -9.531 -34.373  0.00  0.00    +0.000 A 
ATOM      8  C6  UNL     1      27.534  -9.733 -35.654  0.00  0.00    +0.000 A 
ATOM      9  C7  UNL     1      26.785  -9.353 -36.775  0.00  0.00    +0.000 A 
ATOM     10  C8  UNL     1      27.238  -9.523 -38.080  0.00  0.00    +0.000 A 
ATOM     11  O4  UNL     1      28.379 -10.039 -38.486  0.00  0.00    +0.000 OA
ATOM     12  C9  UNL     1      28.373  -9.996 -39.806  0.00  0.00    +0.000 A 
ATOM     13  C10 UNL     1      29.467 -10.477 -40.711  0.00  0.00    +0.000 C 
ATOM     14  C11 UNL     1      29.111 -10.267 -42.171  0.00  0.00    +0.000 C 
ATOM     15  O5  UNL     1      29.934 -10.622 -43.055  0.00  0.00    +0.000 OA
ATOM     16  C12 UNL     1      27.821  -9.657 -42.591  0.00  0.00    +0.000 C 
ATOM     17  C13 UNL     1      26.908  -9.261 -41.694  0.00  0.00    +0.000 C 
ATOM     18  C14 UNL     1      27.198  -9.439 -40.270  0.00  0.00    +0.000 A 
ATOM     19  C15 UNL     1      26.468  -9.134 -39.144  0.00  0.00    +0.000 A 
ENDROOT
BRANCH   6  20
ATOM     20  O3  UNL     1      25.223  -8.745 -32.930  0.00  0.00    +0.000 OA
ATOM     21  H2  UNL     1      24.275  -9.017 -32.696  0.00  0.00    +0.000 HD
ENDBRANCH   6  20
TORSDOF 1
ENDMDL
MODEL 4
REMARK VINA RESULT:    -5.636      4.834      7.440
REMARK INTER + INTRA:          -5.801
REMARK INTER:                  -5.801
REMARK INTRA:                   0.000
REMARK UNBOUND:                 0.000
REMARK  Name = resultss/4CJN/ligands/lig_360_t2.pdb
REMARK  1 active torsions:
REMARK  status: ('A' for Active; 'I' for Inactive)
REMARK    1  A    between atoms: C4_6  and  O3_7
REMARK                            x       y       z     vdW  Elec       q    Type
REMARK                         _______ _______ _______ _____ _____    ______ ____
ROOT
ATOM      1  O1  UNL     1      24.619  -9.618 -40.002  0.00  0.00    +0.000 OA
ATOM      2  C1  UNL     1      25.584  -9.503 -40.802  0.00  0.00    +0.000 A 
ATOM      3  O2  UNL     1      26.796  -9.955 -40.464  0.00  0.00    +0.000 OA
ATOM      4  C2  UNL     1      27.860  -9.860 -41.274  0.00  0.00    +0.000 A 
ATOM      5  C3  UNL     1      29.102 -10.355 -40.861  0.00  0.00    +0.000 A 
ATOM      6  C4  UNL     1      30.216 -10.256 -41.705  0.00  0.00    +0.000 A 
ATOM      7  C5  UNL     1      30.089  -9.661 -42.971  0.00  0.00    +0.000 A 
ATOM      8  C6  UNL     1      28.855  -9.162 -43.397  0.00  0.00    +0.000 A 
ATOM      9  C7  UNL     1      27.740  -9.259 -42.555  0.00  0.00    +0.000 A 
ATOM     10  C8  UNL     1      26.480  -8.786 -42.911  0.00  0.00    +0.000 A 
ATOM     11  O4  UNL     1      26.117  -8.196 -44.030  0.00  0.00    +0.000 OA
ATOM     12  C9  UNL     1      24.829  -7.923 -43.921  0.00  0.00    +0.000 A 
ATOM     13  C10 UNL     1      23.979  -7.250 -44.956  0.00  0.00    +0.000 C 
ATOM     14  C11 UNL     1      22.545  -7.102 -44.483  0.00  0.00    +0.000 C 
ATOM     15  O5  UNL     1      21.706  -6.553 -45.245  0.00  0.00    +0.000 OA
ATOM     16  C12 UNL     1      22.097  -7.585 -43.149  0.00  0.00    +0.000 C 
ATOM     17  C13 UNL     1      22.946  -8.176 -42.298  0.00  0.00    +0.000 C 
ATOM     18  C14 UNL     1      24.343  -8.346 -42.701  0.00  0.00    +0.000 A 
ATOM     19  C15 UNL     1      25.420  -8.904 -42.051  0.00  0.00    +0.000 A 
ENDROOT
BRANCH   6  20
ATOM     20  O3  UNL     1      31.445 -10.755 -41.277  0.00  0.00    +0.000 OA
ATOM     21  H2  UNL     1      31.750 -10.658 -40.316  0.00  0.00    +0.000 HD
ENDBRANCH   6  20
TORSDOF 1
ENDMDL
MODEL 5
REMARK VINA RESULT:    -5.631      0.960      6.158
REMARK INTER + INTRA:          -5.796
REMARK INTER:                  -5.796
REMARK INTRA:                   0.000
REMARK UNBOUND:                 0.000
REMARK  Name = resultss/4CJN/ligands/lig_360_t2.pdb
REMARK  1 active torsions:
REMARK  status: ('A' for Active; 'I' for Inactive)
REMARK    1  A    between atoms: C4_6  and  O3_7
REMARK                            x       y       z     vdW  Elec       q    Type
REMARK                         _______ _______ _______ _____ _____    ______ ____
ROOT
ATOM      1  O1  UNL     1      28.009 -10.344 -36.314  0.00  0.00    +0.000 OA
ATOM      2  C1  UNL     1      27.265  -9.854 -37.203  0.00  0.00    +0.000 A 
ATOM      3  O2  UNL     1      27.582  -9.989 -38.495  0.00  0.00    +0.000 OA
ATOM      4  C2  UNL     1      26.828  -9.489 -39.485  0.00  0.00    +0.000 A 
ATOM      5  C3  UNL     1      27.215  -9.664 -40.818  0.00  0.00    +0.000 A 
ATOM      6  C4  UNL     1      26.430  -9.143 -41.855  0.00  0.00    +0.000 A 
ATOM      7  C5  UNL     1      25.250  -8.443 -41.559  0.00  0.00    +0.000 A 
ATOM      8  C6  UNL     1      24.850  -8.258 -40.232  0.00  0.00    +0.000 A 
ATOM      9  C7  UNL     1      25.633  -8.779 -39.194  0.00  0.00    +0.000 A 
ATOM     10  C8  UNL     1      25.300  -8.636 -37.850  0.00  0.00    +0.000 A 
ATOM     11  O4  UNL     1      24.255  -8.027 -37.330  0.00  0.00    +0.000 OA
ATOM     12  C9  UNL     1      24.354  -8.145 -36.018  0.00  0.00    +0.000 A 
ATOM     13  C10 UNL     1      23.388  -7.605 -35.007  0.00  0.00    +0.000 C 
ATOM     14  C11 UNL     1      23.826  -7.933 -33.592  0.00  0.00    +0.000 C 
ATOM     15  O5  UNL     1      23.114  -7.544 -32.629  0.00  0.00    +0.000 OA
ATOM     16  C12 UNL     1      25.070  -8.698 -33.306  0.00  0.00    +0.000 C 
ATOM     17  C13 UNL     1      25.865  -9.136 -34.291  0.00  0.00    +0.000 C 
ATOM     18  C14 UNL     1      25.491  -8.849 -35.677  0.00  0.00    +0.000 A 
ATOM     19  C15 UNL     1      26.099  -9.163 -36.871  0.00  0.00    +0.000 A 
ENDROOT
BRANCH   6  20
ATOM     20  O3  UNL     1      26.832  -9.328 -43.176  0.00  0.00    +0.000 OA
ATOM     21  H2  UNL     1      26.175  -9.606 -43.895  0.00  0.00    +0.000 HD
ENDBRANCH   6  20
TORSDOF 1
ENDMDL
MODEL 6
REMARK VINA RESULT:    -5.510      2.619      6.153
REMARK INTER + INTRA:          -5.671
REMARK INTER:                  -5.671
REMARK INTRA:                   0.000
REMARK UNBOUND:                 0.000
REMARK  Name = resultss/4CJN/ligands/lig_360_t2.pdb
REMARK  1 active torsions:
REMARK  status: ('A' for Active; 'I' for Inactive)
REMARK    1  A    between atoms: C4_6  and  O3_7
REMARK                            x       y       z     vdW  Elec       q    Type
REMARK                         _______ _______ _______ _____ _____    ______ ____
ROOT
ATOM      1  O1  UNL     1      25.295  -8.825 -36.438  0.00  0.00    +0.000 OA
ATOM      2  C1  UNL     1      25.791  -9.057 -37.572  0.00  0.00    +0.000 A 
ATOM      3  O2  UNL     1      25.013  -9.056 -38.659  0.00  0.00    +0.000 OA
ATOM      4  C2  UNL     1      25.484  -9.296 -39.891  0.00  0.00    +0.000 A 
ATOM      5  C3  UNL     1      24.617  -9.280 -40.989  0.00  0.00    +0.000 A 
ATOM      6  C4  UNL     1      25.106  -9.530 -42.277  0.00  0.00    +0.000 A 
ATOM      7  C5  UNL     1      26.471  -9.798 -42.472  0.00  0.00    +0.000 A 
ATOM      8  C6  UNL     1      27.350  -9.818 -41.385  0.00  0.00    +0.000 A 
ATOM      9  C7  UNL     1      26.863  -9.568 -40.096  0.00  0.00    +0.000 A 
ATOM     10  C8  UNL     1      27.676  -9.571 -38.966  0.00  0.00    +0.000 A 
ATOM     11  O4  UNL     1      28.972  -9.793 -38.895  0.00  0.00    +0.000 OA
ATOM     12  C9  UNL     1      29.311  -9.692 -37.623  0.00  0.00    +0.000 A 
ATOM     13  C10 UNL     1      30.689  -9.866 -37.060  0.00  0.00    +0.000 C 
ATOM     14  C11 UNL     1      30.700  -9.678 -35.554  0.00  0.00    +0.000 C 
ATOM     15  O5  UNL     1      31.790  -9.794 -34.934  0.00  0.00    +0.000 OA
ATOM     16  C12 UNL     1      29.465  -9.360 -34.787  0.00  0.00    +0.000 C 
ATOM     17  C13 UNL     1      28.279  -9.226 -35.395  0.00  0.00    +0.000 C 
ATOM     18  C14 UNL     1      28.209  -9.397 -36.847  0.00  0.00    +0.000 A 
ATOM     19  C15 UNL     1      27.152  -9.320 -37.726  0.00  0.00    +0.000 A 
ENDROOT
BRANCH   6  20
ATOM     20  O3  UNL     1      24.227  -9.510 -43.359  0.00  0.00    +0.000 OA
ATOM     21  H2  UNL     1      23.231  -9.643 -43.234  0.00  0.00    +0.000 HD
ENDBRANCH   6  20
TORSDOF 1
ENDMDL
MODEL 7
REMARK VINA RESULT:    -5.395      1.983      6.303
REMARK INTER + INTRA:          -5.553
REMARK INTER:                  -5.553
REMARK INTRA:                   0.000
REMARK UNBOUND:                 0.000
REMARK  Name = resultss/4CJN/ligands/lig_360_t2.pdb
REMARK  1 active torsions:
REMARK  status: ('A' for Active; 'I' for Inactive)
REMARK    1  A    between atoms: C4_6  and  O3_7
REMARK                            x       y       z     vdW  Elec       q    Type
REMARK                         _______ _______ _______ _____ _____    ______ ____
ROOT
ATOM      1  O1  UNL     1      28.817 -10.430 -40.391  0.00  0.00    +0.000 OA
ATOM      2  C1  UNL     1      27.690  -9.890 -40.538  0.00  0.00    +0.000 A 
ATOM      3  O2  UNL     1      27.200  -9.679 -41.763  0.00  0.00    +0.000 OA
ATOM      4  C2  UNL     1      26.006  -9.108 -41.981  0.00  0.00    +0.000 A 
ATOM      5  C3  UNL     1      25.549  -8.916 -43.289  0.00  0.00    +0.000 A 
ATOM      6  C4  UNL     1      24.303  -8.320 -43.521  0.00  0.00    +0.000 A 
ATOM      7  C5  UNL     1      23.505  -7.914 -42.439  0.00  0.00    +0.000 A 
ATOM      8  C6  UNL     1      23.948  -8.100 -41.125  0.00  0.00    +0.000 A 
ATOM      9  C7  UNL     1      25.194  -8.695 -40.892  0.00  0.00    +0.000 A 
ATOM     10  C8  UNL     1      25.701  -8.912 -39.614  0.00  0.00    +0.000 A 
ATOM     11  O4  UNL     1      25.146  -8.621 -38.456  0.00  0.00    +0.000 OA
ATOM     12  C9  UNL     1      25.990  -9.007 -37.516  0.00  0.00    +0.000 A 
ATOM     13  C10 UNL     1      25.784  -8.878 -36.038  0.00  0.00    +0.000 C 
ATOM     14  C11 UNL     1      26.966  -9.431 -35.263  0.00  0.00    +0.000 C 
ATOM     15  O5  UNL     1      26.941  -9.393 -34.005  0.00  0.00    +0.000 OA
ATOM     16  C12 UNL     1      28.153 -10.017 -35.943  0.00  0.00    +0.000 C 
ATOM     17  C13 UNL     1      28.233 -10.084 -37.278  0.00  0.00    +0.000 C 
ATOM     18  C14 UNL     1      27.121  -9.565 -38.077  0.00  0.00    +0.000 A 
ATOM     19  C15 UNL     1      26.927  -9.499 -39.438  0.00  0.00    +0.000 A 
ENDROOT
BRANCH   6  20
ATOM     20  O3  UNL     1      23.864  -8.137 -44.831  0.00  0.00    +0.000 OA
ATOM     21  H2  UNL     1      23.445  -8.892 -45.360  0.00  0.00    +0.000 HD
ENDBRANCH   6  20
TORSDOF 1
ENDMDL
MODEL 8
REMARK VINA RESULT:    -5.356      1.673      6.542
REMARK INTER + INTRA:          -5.513
REMARK INTER:                  -5.513
REMARK INTRA:                   0.000
REMARK UNBOUND:                 0.000
REMARK  Name = resultss/4CJN/ligands/lig_360_t2.pdb
REMARK  1 active torsions:
REMARK  status: ('A' for Active; 'I' for Inactive)
REMARK    1  A    between atoms: C4_6  and  O3_7
REMARK                            x       y       z     vdW  Elec       q    Type
REMARK                         _______ _______ _______ _____ _____    ______ ____
ROOT
ATOM      1  O1  UNL     1      24.600  -8.545 -38.542  0.00  0.00    +0.000 OA
ATOM      2  C1  UNL     1      25.674  -8.731 -37.912  0.00  0.00    +0.000 A 
ATOM      3  O2  UNL     1      26.777  -9.112 -38.562  0.00  0.00    +0.000 OA
ATOM      4  C2  UNL     1      27.949  -9.325 -37.945  0.00  0.00    +0.000 A 
ATOM      5  C3  UNL     1      29.069  -9.722 -38.684  0.00  0.00    +0.000 A 
ATOM      6  C4  UNL     1      30.294  -9.946 -38.042  0.00  0.00    +0.000 A 
ATOM      7  C5  UNL     1      30.402  -9.772 -36.653  0.00  0.00    +0.000 A 
ATOM      8  C6  UNL     1      29.292  -9.376 -35.901  0.00  0.00    +0.000 A 
ATOM      9  C7  UNL     1      28.067  -9.151 -36.541  0.00  0.00    +0.000 A 
ATOM     10  C8  UNL     1      26.919  -8.756 -35.859  0.00  0.00    +0.000 A 
ATOM     11  O4  UNL     1      26.773  -8.531 -34.570  0.00  0.00    +0.000 OA
ATOM     12  C9  UNL     1      25.514  -8.178 -34.381  0.00  0.00    +0.000 A 
ATOM     13  C10 UNL     1      24.884  -7.824 -33.068  0.00  0.00    +0.000 C 
ATOM     14  C11 UNL     1      23.419  -7.469 -33.235  0.00  0.00    +0.000 C 
ATOM     15  O5  UNL     1      22.750  -7.148 -32.216  0.00  0.00    +0.000 OA
ATOM     16  C12 UNL     1      22.746  -7.487 -34.562  0.00  0.00    +0.000 C 
ATOM     17  C13 UNL     1      23.407  -7.820 -35.677  0.00  0.00    +0.000 C 
ATOM     18  C14 UNL     1      24.825  -8.172 -35.577  0.00  0.00    +0.000 A 
ATOM     19  C15 UNL     1      25.743  -8.549 -36.531  0.00  0.00    +0.000 A 
ENDROOT
BRANCH   6  20
ATOM     20  O3  UNL     1      31.398 -10.341 -38.794  0.00  0.00    +0.000 OA
ATOM     21  H2  UNL     1      32.343 -10.232 -38.446  0.00  0.00    +0.000 HD
ENDBRANCH   6  20
TORSDOF 1
ENDMDL
MODEL 9
REMARK VINA RESULT:    -5.243      1.891      3.349
REMARK INTER + INTRA:          -5.397
REMARK INTER:                  -5.397
REMARK INTRA:                   0.000
REMARK UNBOUND:                 0.000
REMARK  Name = resultss/4CJN/ligands/lig_360_t2.pdb
REMARK  1 active torsions:
REMARK  status: ('A' for Active; 'I' for Inactive)
REMARK    1  A    between atoms: C4_6  and  O3_7
REMARK                            x       y       z     vdW  Elec       q    Type
REMARK                         _______ _______ _______ _____ _____    ______ ____
ROOT
ATOM      1  O1  UNL     1      24.594  -8.706 -37.331  0.00  0.00    +0.000 OA
ATOM      2  C1  UNL     1      25.642  -8.746 -36.635  0.00  0.00    +0.000 A 
ATOM      3  O2  UNL     1      25.600  -8.428 -35.338  0.00  0.00    +0.000 OA
ATOM      4  C2  UNL     1      26.683  -8.452 -34.547  0.00  0.00    +0.000 A 
ATOM      5  C3  UNL     1      26.572  -8.108 -33.195  0.00  0.00    +0.000 A 
ATOM      6  C4  UNL     1      27.702  -8.132 -32.367  0.00  0.00    +0.000 A 
ATOM      7  C5  UNL     1      28.951  -8.502 -32.891  0.00  0.00    +0.000 A 
ATOM      8  C6  UNL     1      29.077  -8.848 -34.240  0.00  0.00    +0.000 A 
ATOM      9  C7  UNL     1      27.950  -8.825 -35.069  0.00  0.00    +0.000 A 
ATOM     10  C8  UNL     1      27.998  -9.156 -36.421  0.00  0.00    +0.000 A 
ATOM     11  O4  UNL     1      29.041  -9.529 -37.132  0.00  0.00    +0.000 OA
ATOM     12  C9  UNL     1      28.613  -9.739 -38.363  0.00  0.00    +0.000 A 
ATOM     13  C10 UNL     1      29.449 -10.180 -39.526  0.00  0.00    +0.000 C 
ATOM     14  C11 UNL     1      28.616 -10.317 -40.787  0.00  0.00    +0.000 C 
ATOM     15  O5  UNL     1      29.180 -10.682 -41.853  0.00  0.00    +0.000 OA
ATOM     16  C12 UNL     1      27.155 -10.035 -40.805  0.00  0.00    +0.000 C 
ATOM     17  C13 UNL     1      26.504  -9.645 -39.702  0.00  0.00    +0.000 C 
ATOM     18  C14 UNL     1      27.257  -9.496 -38.456  0.00  0.00    +0.000 A 
ATOM     19  C15 UNL     1      26.866  -9.117 -37.191  0.00  0.00    +0.000 A 
ENDROOT
BRANCH   6  20
ATOM     20  O3  UNL     1      27.572  -7.787 -31.023  0.00  0.00    +0.000 OA
ATOM     21  H2  UNL     1      27.254  -6.867 -30.741  0.00  0.00    +0.000 HD
ENDBRANCH   6  20
TORSDOF 1
ENDMDL
