MODEL 1
REMARK VINA RESULT:    -6.189      0.000      0.000
REMARK INTER + INTRA:          -8.434
REMARK INTER:                  -7.998
REMARK INTRA:                  -0.436
REMARK UNBOUND:                -0.436
REMARK  Name = resultss/4CJN/ligands/lig_171_t0.pdb
REMARK  5 active torsions:
REMARK  status: ('A' for Active; 'I' for Inactive)
REMARK    1  A    between atoms: C1_2  and  C9_15
REMARK    2  A    between atoms: N1_3  and  N2_4
REMARK    3  A    between atoms: C2_5  and  C3_6
REMARK    4  A    between atoms: C6_9  and  N3_10
REMARK    5  A    between atoms: C12_18  and  C13_19
REMARK                            x       y       z     vdW  Elec       q    Type
REMARK                         _______ _______ _______ _____ _____    ______ ____
ROOT
ATOM      1  O1  UNL     1      24.622  -8.885 -38.705  0.00  0.00    +0.000 OA
ATOM      2  C1  UNL     1      25.381  -8.720 -39.699  0.00  0.00    +0.000 C 
ATOM      3  N1  UNL     1      26.799  -8.915 -39.550  0.00  0.00    +0.000 N 
ATOM      4  H1  UNL     1      27.341  -9.259 -40.373  0.00  0.00    +0.000 HD
ENDROOT
BRANCH   2   5
ATOM      5  C9  UNL     1      24.794  -8.377 -41.017  0.00  0.00    +0.000 A 
ATOM      6  C10 UNL     1      25.201  -9.063 -42.173  0.00  0.00    +0.000 A 
ATOM      7  C11 UNL     1      24.649  -8.750 -43.419  0.00  0.00    +0.000 A 
ATOM      8  C12 UNL     1      23.672  -7.745 -43.535  0.00  0.00    +0.000 A 
ATOM      9  C20 UNL     1      23.258  -7.067 -42.377  0.00  0.00    +0.000 A 
ATOM     10  C21 UNL     1      23.810  -7.379 -41.132  0.00  0.00    +0.000 A 
BRANCH   8  11
ATOM     11  C13 UNL     1      23.079  -7.404 -44.850  0.00  0.00    +0.000 A 
ATOM     12  N4  UNL     1      21.741  -7.297 -45.056  0.00  0.00    +0.000 NA
ATOM     13  C14 UNL     1      21.462  -6.976 -46.344  0.00  0.00    +0.000 A 
ATOM     14  C15 UNL     1      20.174  -6.799 -46.852  0.00  0.00    +0.000 A 
ATOM     15  C16 UNL     1      20.022  -6.467 -48.210  0.00  0.00    +0.000 A 
ATOM     16  C17 UNL     1      21.152  -6.317 -49.039  0.00  0.00    +0.000 A 
ATOM     17  C18 UNL     1      22.444  -6.498 -48.517  0.00  0.00    +0.000 A 
ATOM     18  C19 UNL     1      22.565  -6.826 -47.169  0.00  0.00    +0.000 A 
ATOM     19  S1  UNL     1      23.956  -7.101 -46.275  0.00  0.00    +0.000 S 
ENDBRANCH   8  11
ENDBRANCH   2   5
BRANCH   3  20
ATOM     20  N2  UNL     1      27.457  -8.885 -38.306  0.00  0.00    +0.000 NA
ATOM     21  C2  UNL     1      27.994  -9.931 -37.751  0.00  0.00    +0.000 C 
BRANCH  21  22
ATOM     22  C3  UNL     1      28.686  -9.831 -36.451  0.00  0.00    +0.000 A 
ATOM     23  C4  UNL     1      27.938  -9.896 -35.267  0.00  0.00    +0.000 A 
ATOM     24  C5  UNL     1      28.568  -9.805 -34.022  0.00  0.00    +0.000 A 
ATOM     25  C6  UNL     1      29.964  -9.648 -33.940  0.00  0.00    +0.000 A 
ATOM     26  C7  UNL     1      30.712  -9.583 -35.127  0.00  0.00    +0.000 A 
ATOM     27  C8  UNL     1      30.080  -9.674 -36.371  0.00  0.00    +0.000 A 
BRANCH  25  28
ATOM     28  N3  UNL     1      30.618  -9.554 -32.661  0.00  0.00    +0.000 N 
ATOM     29  O2  UNL     1      30.800  -8.444 -32.118  0.00  0.00    +0.000 OA
ATOM     30  O3  UNL     1      31.055 -10.686 -32.014  0.00  0.00    +0.000 OA
ENDBRANCH  25  28
ENDBRANCH  21  22
ENDBRANCH   3  20
TORSDOF 5
ENDMDL
MODEL 2
REMARK VINA RESULT:    -6.017      1.603      2.301
REMARK INTER + INTRA:          -8.212
REMARK INTER:                  -7.764
REMARK INTRA:                  -0.448
REMARK UNBOUND:                -0.436
REMARK  Name = resultss/4CJN/ligands/lig_171_t0.pdb
REMARK  5 active torsions:
REMARK  status: ('A' for Active; 'I' for Inactive)
REMARK    1  A    between atoms: C1_2  and  C9_15
REMARK    2  A    between atoms: N1_3  and  N2_4
REMARK    3  A    between atoms: C2_5  and  C3_6
REMARK    4  A    between atoms: C6_9  and  N3_10
REMARK    5  A    between atoms: C12_18  and  C13_19
REMARK                            x       y       z     vdW  Elec       q    Type
REMARK                         _______ _______ _______ _____ _____    ______ ____
ROOT
ATOM      1  O1  UNL     1      27.824 -10.937 -40.246  0.00  0.00    +0.000 OA
ATOM      2  C1  UNL     1      27.715  -9.696 -40.447  0.00  0.00    +0.000 C 
ATOM      3  N1  UNL     1      28.543  -8.781 -39.708  0.00  0.00    +0.000 N 
ATOM      4  H1  UNL     1      28.822  -7.884 -40.164  0.00  0.00    +0.000 HD
ENDROOT
BRANCH   2   5
ATOM      5  C9  UNL     1      26.769  -9.204 -41.477  0.00  0.00    +0.000 A 
ATOM      6  C10 UNL     1      25.424  -9.612 -41.456  0.00  0.00    +0.000 A 
ATOM      7  C11 UNL     1      24.524  -9.149 -42.420  0.00  0.00    +0.000 A 
ATOM      8  C12 UNL     1      24.947  -8.261 -43.425  0.00  0.00    +0.000 A 
ATOM      9  C20 UNL     1      26.289  -7.845 -43.439  0.00  0.00    +0.000 A 
ATOM     10  C21 UNL     1      27.189  -8.309 -42.476  0.00  0.00    +0.000 A 
BRANCH   8  11
ATOM     11  C13 UNL     1      24.002  -7.763 -44.452  0.00  0.00    +0.000 A 
ATOM     12  N4  UNL     1      24.281  -7.766 -45.781  0.00  0.00    +0.000 NA
ATOM     13  C14 UNL     1      23.252  -7.259 -46.506  0.00  0.00    +0.000 A 
ATOM     14  C15 UNL     1      23.250  -7.136 -47.896  0.00  0.00    +0.000 A 
ATOM     15  C16 UNL     1      22.116  -6.592 -48.525  0.00  0.00    +0.000 A 
ATOM     16  C17 UNL     1      21.005  -6.181 -47.762  0.00  0.00    +0.000 A 
ATOM     17  C18 UNL     1      21.018  -6.310 -46.363  0.00  0.00    +0.000 A 
ATOM     18  C19 UNL     1      22.153  -6.852 -45.767  0.00  0.00    +0.000 A 
ATOM     19  S1  UNL     1      22.457  -7.126 -44.141  0.00  0.00    +0.000 S 
ENDBRANCH   8  11
ENDBRANCH   2   5
BRANCH   3  20
ATOM     20  N2  UNL     1      29.181  -9.119 -38.499  0.00  0.00    +0.000 NA
ATOM     21  C2  UNL     1      28.753  -8.744 -37.331  0.00  0.00    +0.000 C 
BRANCH  21  22
ATOM     22  C3  UNL     1      29.459  -9.146 -36.097  0.00  0.00    +0.000 A 
ATOM     23  C4  UNL     1      30.860  -9.178 -36.086  0.00  0.00    +0.000 A 
ATOM     24  C5  UNL     1      31.553  -9.554 -34.932  0.00  0.00    +0.000 A 
ATOM     25  C6  UNL     1      30.853  -9.903 -33.762  0.00  0.00    +0.000 A 
ATOM     26  C7  UNL     1      29.449  -9.869 -33.775  0.00  0.00    +0.000 A 
ATOM     27  C8  UNL     1      28.757  -9.494 -34.930  0.00  0.00    +0.000 A 
BRANCH  25  28
ATOM     28  N3  UNL     1      31.562 -10.290 -32.570  0.00  0.00    +0.000 N 
ATOM     29  O2  UNL     1      31.665 -11.494 -32.252  0.00  0.00    +0.000 OA
ATOM     30  O3  UNL     1      32.139  -9.340 -31.760  0.00  0.00    +0.000 OA
ENDBRANCH  25  28
ENDBRANCH  21  22
ENDBRANCH   3  20
TORSDOF 5
ENDMDL
MODEL 3
REMARK VINA RESULT:    -6.016      4.201     12.681
REMARK INTER + INTRA:          -8.210
REMARK INTER:                  -7.740
REMARK INTRA:                  -0.471
REMARK UNBOUND:                -0.436
REMARK  Name = resultss/4CJN/ligands/lig_171_t0.pdb
REMARK  5 active torsions:
REMARK  status: ('A' for Active; 'I' for Inactive)
REMARK    1  A    between atoms: C1_2  and  C9_15
REMARK    2  A    between atoms: N1_3  and  N2_4
REMARK    3  A    between atoms: C2_5  and  C3_6
REMARK    4  A    between atoms: C6_9  and  N3_10
REMARK    5  A    between atoms: C12_18  and  C13_19
REMARK                            x       y       z     vdW  Elec       q    Type
REMARK                         _______ _______ _______ _____ _____    ______ ____
ROOT
ATOM      1  O1  UNL     1      25.305 -10.435 -42.051  0.00  0.00    +0.000 OA
ATOM      2  C1  UNL     1      25.029  -9.634 -41.116  0.00  0.00    +0.000 C 
ATOM      3  N1  UNL     1      23.871  -8.787 -41.225  0.00  0.00    +0.000 N 
ATOM      4  H1  UNL     1      23.370  -8.516 -40.350  0.00  0.00    +0.000 HD
ENDROOT
BRANCH   2   5
ATOM      5  C9  UNL     1      25.874  -9.615 -39.898  0.00  0.00    +0.000 A 
ATOM      6  C10 UNL     1      25.571  -8.741 -38.840  0.00  0.00    +0.000 A 
ATOM      7  C11 UNL     1      26.360  -8.720 -37.686  0.00  0.00    +0.000 A 
ATOM      8  C12 UNL     1      27.467  -9.578 -37.561  0.00  0.00    +0.000 A 
ATOM      9  C20 UNL     1      27.762 -10.459 -38.614  0.00  0.00    +0.000 A 
ATOM     10  C21 UNL     1      26.974 -10.480 -39.768  0.00  0.00    +0.000 A 
BRANCH   8  11
ATOM     11  C13 UNL     1      28.309  -9.565 -36.342  0.00  0.00    +0.000 A 
ATOM     12  N4  UNL     1      29.667  -9.549 -36.378  0.00  0.00    +0.000 NA
ATOM     13  C14 UNL     1      30.196  -9.539 -35.129  0.00  0.00    +0.000 A 
ATOM     14  C15 UNL     1      31.564  -9.522 -34.851  0.00  0.00    +0.000 A 
ATOM     15  C16 UNL     1      31.981  -9.513 -33.509  0.00  0.00    +0.000 A 
ATOM     16  C17 UNL     1      31.033  -9.522 -32.466  0.00  0.00    +0.000 A 
ATOM     17  C18 UNL     1      29.659  -9.539 -32.757  0.00  0.00    +0.000 A 
ATOM     18  C19 UNL     1      29.273  -9.547 -34.095  0.00  0.00    +0.000 A 
ATOM     19  S1  UNL     1      27.728  -9.568 -34.744  0.00  0.00    +0.000 S 
ENDBRANCH   8  11
ENDBRANCH   2   5
BRANCH   3  20
ATOM     20  N2  UNL     1      23.245  -8.487 -42.450  0.00  0.00    +0.000 NA
ATOM     21  C2  UNL     1      23.604  -7.502 -43.218  0.00  0.00    +0.000 C 
BRANCH  21  22
ATOM     22  C3  UNL     1      22.917  -7.249 -44.500  0.00  0.00    +0.000 A 
ATOM     23  C4  UNL     1      23.583  -7.521 -45.704  0.00  0.00    +0.000 A 
ATOM     24  C5  UNL     1      22.954  -7.290 -46.931  0.00  0.00    +0.000 A 
ATOM     25  C6  UNL     1      21.642  -6.784 -46.977  0.00  0.00    +0.000 A 
ATOM     26  C7  UNL     1      20.977  -6.512 -45.770  0.00  0.00    +0.000 A 
ATOM     27  C8  UNL     1      21.606  -6.743 -44.543  0.00  0.00    +0.000 A 
BRANCH  25  28
ATOM     28  N3  UNL     1      20.991  -6.545 -48.238  0.00  0.00    +0.000 N 
ATOM     29  O2  UNL     1      21.547  -6.857 -49.312  0.00  0.00    +0.000 OA
ATOM     30  O3  UNL     1      19.742  -5.969 -48.282  0.00  0.00    +0.000 OA
ENDBRANCH  25  28
ENDBRANCH  21  22
ENDBRANCH   3  20
TORSDOF 5
ENDMDL
MODEL 4
REMARK VINA RESULT:    -6.013      4.272     12.579
REMARK INTER + INTRA:          -8.206
REMARK INTER:                  -7.761
REMARK INTRA:                  -0.445
REMARK UNBOUND:                -0.436
REMARK  Name = resultss/4CJN/ligands/lig_171_t0.pdb
REMARK  5 active torsions:
REMARK  status: ('A' for Active; 'I' for Inactive)
REMARK    1  A    between atoms: C1_2  and  C9_15
REMARK    2  A    between atoms: N1_3  and  N2_4
REMARK    3  A    between atoms: C2_5  and  C3_6
REMARK    4  A    between atoms: C6_9  and  N3_10
REMARK    5  A    between atoms: C12_18  and  C13_19
REMARK                            x       y       z     vdW  Elec       q    Type
REMARK                         _______ _______ _______ _____ _____    ______ ____
ROOT
ATOM      1  O1  UNL     1      25.015 -10.198 -42.550  0.00  0.00    +0.000 OA
ATOM      2  C1  UNL     1      24.757  -9.528 -41.512  0.00  0.00    +0.000 C 
ATOM      3  N1  UNL     1      23.516  -8.806 -41.423  0.00  0.00    +0.000 N 
ATOM      4  H1  UNL     1      23.082  -8.679 -40.482  0.00  0.00    +0.000 HD
ENDROOT
BRANCH   2   5
ATOM      5  C9  UNL     1      25.715  -9.538 -40.381  0.00  0.00    +0.000 A 
ATOM      6  C10 UNL     1      26.835 -10.386 -40.409  0.00  0.00    +0.000 A 
ATOM      7  C11 UNL     1      27.746 -10.397 -39.349  0.00  0.00    +0.000 A 
ATOM      8  C12 UNL     1      27.562  -9.555 -38.238  0.00  0.00    +0.000 A 
ATOM      9  C20 UNL     1      26.448  -8.699 -38.216  0.00  0.00    +0.000 A 
ATOM     10  C21 UNL     1      25.536  -8.689 -39.275  0.00  0.00    +0.000 A 
BRANCH   8  11
ATOM     11  C13 UNL     1      28.521  -9.558 -37.109  0.00  0.00    +0.000 A 
ATOM     12  N4  UNL     1      28.137  -9.623 -35.808  0.00  0.00    +0.000 NA
ATOM     13  C14 UNL     1      29.207  -9.611 -34.974  0.00  0.00    +0.000 A 
ATOM     14  C15 UNL     1      29.123  -9.667 -33.581  0.00  0.00    +0.000 A 
ATOM     15  C16 UNL     1      30.311  -9.647 -32.831  0.00  0.00    +0.000 A 
ATOM     16  C17 UNL     1      31.562  -9.571 -33.476  0.00  0.00    +0.000 A 
ATOM     17  C18 UNL     1      31.634  -9.516 -34.878  0.00  0.00    +0.000 A 
ATOM     18  C19 UNL     1      30.442  -9.537 -35.596  0.00  0.00    +0.000 A 
ATOM     19  S1  UNL     1      30.214  -9.484 -37.256  0.00  0.00    +0.000 S 
ENDBRANCH   8  11
ENDBRANCH   2   5
BRANCH   3  20
ATOM     20  N2  UNL     1      22.742  -8.456 -42.546  0.00  0.00    +0.000 NA
ATOM     21  C2  UNL     1      22.088  -7.337 -42.648  0.00  0.00    +0.000 C 
BRANCH  21  22
ATOM     22  C3  UNL     1      21.307  -7.022 -43.861  0.00  0.00    +0.000 A 
ATOM     23  C4  UNL     1      19.915  -6.882 -43.766  0.00  0.00    +0.000 A 
ATOM     24  C5  UNL     1      19.152  -6.583 -44.899  0.00  0.00    +0.000 A 
ATOM     25  C6  UNL     1      19.771  -6.415 -46.151  0.00  0.00    +0.000 A 
ATOM     26  C7  UNL     1      21.165  -6.555 -46.245  0.00  0.00    +0.000 A 
ATOM     27  C8  UNL     1      21.927  -6.855 -45.111  0.00  0.00    +0.000 A 
BRANCH  25  28
ATOM     28  N3  UNL     1      18.989  -6.107 -47.321  0.00  0.00    +0.000 N 
ATOM     29  O2  UNL     1      19.527  -6.035 -48.446  0.00  0.00    +0.000 OA
ATOM     30  O3  UNL     1      17.636  -5.884 -47.218  0.00  0.00    +0.000 OA
ENDBRANCH  25  28
ENDBRANCH  21  22
ENDBRANCH   3  20
TORSDOF 5
ENDMDL
MODEL 5
REMARK VINA RESULT:    -5.983      5.516     12.030
REMARK INTER + INTRA:          -8.167
REMARK INTER:                  -7.729
REMARK INTRA:                  -0.438
REMARK UNBOUND:                -0.436
REMARK  Name = resultss/4CJN/ligands/lig_171_t0.pdb
REMARK  5 active torsions:
REMARK  status: ('A' for Active; 'I' for Inactive)
REMARK    1  A    between atoms: C1_2  and  C9_15
REMARK    2  A    between atoms: N1_3  and  N2_4
REMARK    3  A    between atoms: C2_5  and  C3_6
REMARK    4  A    between atoms: C6_9  and  N3_10
REMARK    5  A    between atoms: C12_18  and  C13_19
REMARK                            x       y       z     vdW  Elec       q    Type
REMARK                         _______ _______ _______ _____ _____    ______ ____
ROOT
ATOM      1  O1  UNL     1      23.499  -8.554 -41.385  0.00  0.00    +0.000 OA
ATOM      2  C1  UNL     1      24.213  -8.446 -42.420  0.00  0.00    +0.000 C 
ATOM      3  N1  UNL     1      23.650  -7.873 -43.614  0.00  0.00    +0.000 N 
ATOM      4  H1  UNL     1      24.282  -7.347 -44.257  0.00  0.00    +0.000 HD
ENDROOT
BRANCH   2   5
ATOM      5  C9  UNL     1      25.634  -8.866 -42.374  0.00  0.00    +0.000 A 
ATOM      6  C10 UNL     1      26.100  -9.675 -41.323  0.00  0.00    +0.000 A 
ATOM      7  C11 UNL     1      27.436 -10.080 -41.275  0.00  0.00    +0.000 A 
ATOM      8  C12 UNL     1      28.338  -9.690 -42.281  0.00  0.00    +0.000 A 
ATOM      9  C20 UNL     1      27.870  -8.891 -43.337  0.00  0.00    +0.000 A 
ATOM     10  C21 UNL     1      26.534  -8.485 -43.385  0.00  0.00    +0.000 A 
BRANCH   8  11
ATOM     11  C13 UNL     1      29.758 -10.114 -42.240  0.00  0.00    +0.000 A 
ATOM     12  N4  UNL     1      30.234 -11.182 -42.932  0.00  0.00    +0.000 NA
ATOM     13  C14 UNL     1      31.564 -11.355 -42.723  0.00  0.00    +0.000 A 
ATOM     14  C15 UNL     1      32.328 -12.370 -43.301  0.00  0.00    +0.000 A 
ATOM     15  C16 UNL     1      33.699 -12.438 -43.001  0.00  0.00    +0.000 A 
ATOM     16  C17 UNL     1      34.288 -11.497 -42.132  0.00  0.00    +0.000 A 
ATOM     17  C18 UNL     1      33.509 -10.479 -41.556  0.00  0.00    +0.000 A 
ATOM     18  C19 UNL     1      32.154 -10.435 -41.871  0.00  0.00    +0.000 A 
ATOM     19  S1  UNL     1      30.987  -9.353 -41.344  0.00  0.00    +0.000 S 
ENDBRANCH   8  11
ENDBRANCH   2   5
BRANCH   3  20
ATOM     20  N2  UNL     1      22.265  -7.787 -43.852  0.00  0.00    +0.000 NA
ATOM     21  C2  UNL     1      21.666  -6.694 -44.220  0.00  0.00    +0.000 C 
BRANCH  21  22
ATOM     22  C3  UNL     1      20.211  -6.673 -44.470  0.00  0.00    +0.000 A 
ATOM     23  C4  UNL     1      19.739  -6.673 -45.790  0.00  0.00    +0.000 A 
ATOM     24  C5  UNL     1      18.367  -6.654 -46.055  0.00  0.00    +0.000 A 
ATOM     25  C6  UNL     1      17.437  -6.636 -44.999  0.00  0.00    +0.000 A 
ATOM     26  C7  UNL     1      17.911  -6.637 -43.676  0.00  0.00    +0.000 A 
ATOM     27  C8  UNL     1      19.284  -6.656 -43.413  0.00  0.00    +0.000 A 
BRANCH  25  28
ATOM     28  N3  UNL     1      16.023  -6.617 -45.266  0.00  0.00    +0.000 N 
ATOM     29  O2  UNL     1      15.242  -5.987 -44.522  0.00  0.00    +0.000 OA
ATOM     30  O3  UNL     1      15.506  -7.294 -46.347  0.00  0.00    +0.000 OA
ENDBRANCH  25  28
ENDBRANCH  21  22
ENDBRANCH   3  20
TORSDOF 5
ENDMDL
MODEL 6
REMARK VINA RESULT:    -5.888      2.939      3.742
REMARK INTER + INTRA:          -8.044
REMARK INTER:                  -7.587
REMARK INTRA:                  -0.458
REMARK UNBOUND:                -0.436
REMARK  Name = resultss/4CJN/ligands/lig_171_t0.pdb
REMARK  5 active torsions:
REMARK  status: ('A' for Active; 'I' for Inactive)
REMARK    1  A    between atoms: C1_2  and  C9_15
REMARK    2  A    between atoms: N1_3  and  N2_4
REMARK    3  A    between atoms: C2_5  and  C3_6
REMARK    4  A    between atoms: C6_9  and  N3_10
REMARK    5  A    between atoms: C12_18  and  C13_19
REMARK                            x       y       z     vdW  Elec       q    Type
REMARK                         _______ _______ _______ _____ _____    ______ ____
ROOT
ATOM      1  O1  UNL     1      27.615 -10.260 -38.530  0.00  0.00    +0.000 OA
ATOM      2  C1  UNL     1      28.484  -9.835 -39.340  0.00  0.00    +0.000 C 
ATOM      3  N1  UNL     1      29.879  -9.936 -39.003  0.00  0.00    +0.000 N 
ATOM      4  H1  UNL     1      30.568 -10.060 -39.777  0.00  0.00    +0.000 HD
ENDROOT
BRANCH   2   5
ATOM      5  C9  UNL     1      28.054  -9.283 -40.648  0.00  0.00    +0.000 A 
ATOM      6  C10 UNL     1      26.902  -9.779 -41.282  0.00  0.00    +0.000 A 
ATOM      7  C11 UNL     1      26.487  -9.261 -42.512  0.00  0.00    +0.000 A 
ATOM      8  C12 UNL     1      27.213  -8.229 -43.134  0.00  0.00    +0.000 A 
ATOM      9  C20 UNL     1      28.358  -7.726 -42.495  0.00  0.00    +0.000 A 
ATOM     10  C21 UNL     1      28.773  -8.245 -41.265  0.00  0.00    +0.000 A 
BRANCH   8  11
ATOM     11  C13 UNL     1      26.782  -7.672 -44.438  0.00  0.00    +0.000 A 
ATOM     12  N4  UNL     1      27.649  -7.363 -45.436  0.00  0.00    +0.000 NA
ATOM     13  C14 UNL     1      27.001  -6.871 -46.522  0.00  0.00    +0.000 A 
ATOM     14  C15 UNL     1      27.630  -6.468 -47.701  0.00  0.00    +0.000 A 
ATOM     15  C16 UNL     1      26.840  -5.975 -48.754  0.00  0.00    +0.000 A 
ATOM     16  C17 UNL     1      25.440  -5.890 -48.617  0.00  0.00    +0.000 A 
ATOM     17  C18 UNL     1      24.818  -6.298 -47.426  0.00  0.00    +0.000 A 
ATOM     18  C19 UNL     1      25.624  -6.783 -46.400  0.00  0.00    +0.000 A 
ATOM     19  S1  UNL     1      25.175  -7.337 -44.883  0.00  0.00    +0.000 S 
ENDBRANCH   8  11
ENDBRANCH   2   5
BRANCH   3  20
ATOM     20  N2  UNL     1      30.346 -10.103 -37.686  0.00  0.00    +0.000 NA
ATOM     21  C2  UNL     1      30.521  -9.118 -36.855  0.00  0.00    +0.000 C 
BRANCH  21  22
ATOM     22  C3  UNL     1      30.999  -9.360 -35.479  0.00  0.00    +0.000 A 
ATOM     23  C4  UNL     1      30.074  -9.683 -34.476  0.00  0.00    +0.000 A 
ATOM     24  C5  UNL     1      30.501  -9.918 -33.166  0.00  0.00    +0.000 A 
ATOM     25  C6  UNL     1      31.866  -9.835 -32.834  0.00  0.00    +0.000 A 
ATOM     26  C7  UNL     1      32.791  -9.512 -33.841  0.00  0.00    +0.000 A 
ATOM     27  C8  UNL     1      32.363  -9.277 -35.151  0.00  0.00    +0.000 A 
BRANCH  25  28
ATOM     28  N3  UNL     1      32.310 -10.077 -31.486  0.00  0.00    +0.000 N 
ATOM     29  O2  UNL     1      33.049  -9.257 -30.902  0.00  0.00    +0.000 OA
ATOM     30  O3  UNL     1      31.927 -11.216 -30.818  0.00  0.00    +0.000 OA
ENDBRANCH  25  28
ENDBRANCH  21  22
ENDBRANCH   3  20
TORSDOF 5
ENDMDL
MODEL 7
REMARK VINA RESULT:    -5.709      6.994     13.467
REMARK INTER + INTRA:          -7.814
REMARK INTER:                  -7.379
REMARK INTRA:                  -0.435
REMARK UNBOUND:                -0.436
REMARK  Name = resultss/4CJN/ligands/lig_171_t0.pdb
REMARK  5 active torsions:
REMARK  status: ('A' for Active; 'I' for Inactive)
REMARK    1  A    between atoms: C1_2  and  C9_15
REMARK    2  A    between atoms: N1_3  and  N2_4
REMARK    3  A    between atoms: C2_5  and  C3_6
REMARK    4  A    between atoms: C6_9  and  N3_10
REMARK    5  A    between atoms: C12_18  and  C13_19
REMARK                            x       y       z     vdW  Elec       q    Type
REMARK                         _______ _______ _______ _____ _____    ______ ____
ROOT
ATOM      1  O1  UNL     1      22.487  -8.985 -34.010  0.00  0.00    +0.000 OA
ATOM      2  C1  UNL     1      23.313  -8.116 -34.404  0.00  0.00    +0.000 C 
ATOM      3  N1  UNL     1      22.847  -6.983 -35.157  0.00  0.00    +0.000 N 
ATOM      4  H1  UNL     1      23.361  -6.080 -35.064  0.00  0.00    +0.000 HD
ENDROOT
BRANCH   2   5
ATOM      5  C9  UNL     1      24.744  -8.252 -34.040  0.00  0.00    +0.000 A 
ATOM      6  C10 UNL     1      25.441  -9.435 -34.338  0.00  0.00    +0.000 A 
ATOM      7  C11 UNL     1      26.792  -9.569 -34.004  0.00  0.00    +0.000 A 
ATOM      8  C12 UNL     1      27.478  -8.520 -33.367  0.00  0.00    +0.000 A 
ATOM      9  C20 UNL     1      26.784  -7.334 -33.079  0.00  0.00    +0.000 A 
ATOM     10  C21 UNL     1      25.433  -7.200 -33.413  0.00  0.00    +0.000 A 
BRANCH   8  11
ATOM     11  C13 UNL     1      28.910  -8.651 -33.008  0.00  0.00    +0.000 A 
ATOM     12  N4  UNL     1      29.561  -9.843 -32.974  0.00  0.00    +0.000 NA
ATOM     13  C14 UNL     1      30.861  -9.689 -32.617  0.00  0.00    +0.000 A 
ATOM     14  C15 UNL     1      31.776 -10.735 -32.497  0.00  0.00    +0.000 A 
ATOM     15  C16 UNL     1      33.097 -10.438 -32.118  0.00  0.00    +0.000 A 
ATOM     16  C17 UNL     1      33.485  -9.107 -31.865  0.00  0.00    +0.000 A 
ATOM     17  C18 UNL     1      32.555  -8.062 -31.989  0.00  0.00    +0.000 A 
ATOM     18  C19 UNL     1      31.254  -8.384 -32.366  0.00  0.00    +0.000 A 
ATOM     19  S1  UNL     1      29.942  -7.366 -32.592  0.00  0.00    +0.000 S 
ENDBRANCH   8  11
ENDBRANCH   2   5
BRANCH   3  20
ATOM     20  N2  UNL     1      21.613  -6.960 -35.835  0.00  0.00    +0.000 NA
ATOM     21  C2  UNL     1      21.093  -5.883 -36.345  0.00  0.00    +0.000 C 
BRANCH  21  22
ATOM     22  C3  UNL     1      19.802  -5.927 -37.059  0.00  0.00    +0.000 A 
ATOM     23  C4  UNL     1      19.792  -6.000 -38.459  0.00  0.00    +0.000 A 
ATOM     24  C5  UNL     1      18.583  -6.044 -39.159  0.00  0.00    +0.000 A 
ATOM     25  C6  UNL     1      17.357  -6.017 -38.469  0.00  0.00    +0.000 A 
ATOM     26  C7  UNL     1      17.369  -5.944 -37.066  0.00  0.00    +0.000 A 
ATOM     27  C8  UNL     1      18.578  -5.900 -36.367  0.00  0.00    +0.000 A 
BRANCH  25  28
ATOM     28  N3  UNL     1      16.109  -6.063 -39.186  0.00  0.00    +0.000 N 
ATOM     29  O2  UNL     1      15.023  -5.929 -38.584  0.00  0.00    +0.000 OA
ATOM     30  O3  UNL     1      16.092  -6.255 -40.548  0.00  0.00    +0.000 OA
ENDBRANCH  25  28
ENDBRANCH  21  22
ENDBRANCH   3  20
TORSDOF 5
ENDMDL
MODEL 8
REMARK VINA RESULT:    -5.642      1.428      2.194
REMARK INTER + INTRA:          -7.727
REMARK INTER:                  -7.285
REMARK INTRA:                  -0.442
REMARK UNBOUND:                -0.436
REMARK  Name = resultss/4CJN/ligands/lig_171_t0.pdb
REMARK  5 active torsions:
REMARK  status: ('A' for Active; 'I' for Inactive)
REMARK    1  A    between atoms: C1_2  and  C9_15
REMARK    2  A    between atoms: N1_3  and  N2_4
REMARK    3  A    between atoms: C2_5  and  C3_6
REMARK    4  A    between atoms: C6_9  and  N3_10
REMARK    5  A    between atoms: C12_18  and  C13_19
REMARK                            x       y       z     vdW  Elec       q    Type
REMARK                         _______ _______ _______ _____ _____    ______ ____
ROOT
ATOM      1  O1  UNL     1      27.022 -10.381 -40.170  0.00  0.00    +0.000 OA
ATOM      2  C1  UNL     1      26.759  -9.150 -40.268  0.00  0.00    +0.000 C 
ATOM      3  N1  UNL     1      27.568  -8.192 -39.562  0.00  0.00    +0.000 N 
ATOM      4  H1  UNL     1      27.694  -7.245 -39.982  0.00  0.00    +0.000 HD
ENDROOT
BRANCH   2   5
ATOM      5  C9  UNL     1      25.651  -8.709 -41.150  0.00  0.00    +0.000 A 
ATOM      6  C10 UNL     1      24.537  -8.045 -40.608  0.00  0.00    +0.000 A 
ATOM      7  C11 UNL     1      23.491  -7.621 -41.432  0.00  0.00    +0.000 A 
ATOM      8  C12 UNL     1      23.538  -7.846 -42.820  0.00  0.00    +0.000 A 
ATOM      9  C20 UNL     1      24.657  -8.500 -43.362  0.00  0.00    +0.000 A 
ATOM     10  C21 UNL     1      25.702  -8.925 -42.537  0.00  0.00    +0.000 A 
BRANCH   8  11
ATOM     11  C13 UNL     1      22.435  -7.401 -43.703  0.00  0.00    +0.000 A 
ATOM     12  N4  UNL     1      21.132  -7.396 -43.319  0.00  0.00    +0.000 NA
ATOM     13  C14 UNL     1      20.324  -6.944 -44.311  0.00  0.00    +0.000 A 
ATOM     14  C15 UNL     1      18.937  -6.827 -44.208  0.00  0.00    +0.000 A 
ATOM     15  C16 UNL     1      18.215  -6.343 -45.313  0.00  0.00    +0.000 A 
ATOM     16  C17 UNL     1      18.884  -5.984 -46.501  0.00  0.00    +0.000 A 
ATOM     17  C18 UNL     1      20.280  -6.106 -46.593  0.00  0.00    +0.000 A 
ATOM     18  C19 UNL     1      20.970  -6.587 -45.484  0.00  0.00    +0.000 A 
ATOM     19  S1  UNL     1      22.616  -6.839 -45.298  0.00  0.00    +0.000 S 
ENDBRANCH   8  11
ENDBRANCH   2   5
BRANCH   3  20
ATOM     20  N2  UNL     1      28.376  -8.526 -38.459  0.00  0.00    +0.000 NA
ATOM     21  C2  UNL     1      27.907  -8.768 -37.272  0.00  0.00    +0.000 C 
BRANCH  21  22
ATOM     22  C3  UNL     1      28.807  -9.129 -36.158  0.00  0.00    +0.000 A 
ATOM     23  C4  UNL     1      30.190  -9.191 -36.383  0.00  0.00    +0.000 A 
ATOM     24  C5  UNL     1      31.064  -9.530 -35.346  0.00  0.00    +0.000 A 
ATOM     25  C6  UNL     1      30.569  -9.812 -34.059  0.00  0.00    +0.000 A 
ATOM     26  C7  UNL     1      29.183  -9.749 -33.836  0.00  0.00    +0.000 A 
ATOM     27  C8  UNL     1      28.310  -9.410 -34.874  0.00  0.00    +0.000 A 
BRANCH  25  28
ATOM     28  N3  UNL     1      31.465 -10.160 -32.988  0.00  0.00    +0.000 N 
ATOM     29  O2  UNL     1      31.427 -11.295 -32.469  0.00  0.00    +0.000 OA
ATOM     30  O3  UNL     1      32.379  -9.247 -32.516  0.00  0.00    +0.000 OA
ENDBRANCH  25  28
ENDBRANCH  21  22
ENDBRANCH   3  20
TORSDOF 5
ENDMDL
MODEL 9
REMARK VINA RESULT:    -5.599      4.133     13.029
REMARK INTER + INTRA:          -7.671
REMARK INTER:                  -7.247
REMARK INTRA:                  -0.424
REMARK UNBOUND:                -0.436
REMARK  Name = resultss/4CJN/ligands/lig_171_t0.pdb
REMARK  5 active torsions:
REMARK  status: ('A' for Active; 'I' for Inactive)
REMARK    1  A    between atoms: C1_2  and  C9_15
REMARK    2  A    between atoms: N1_3  and  N2_4
REMARK    3  A    between atoms: C2_5  and  C3_6
REMARK    4  A    between atoms: C6_9  and  N3_10
REMARK    5  A    between atoms: C12_18  and  C13_19
REMARK                            x       y       z     vdW  Elec       q    Type
REMARK                         _______ _______ _______ _____ _____    ______ ____
ROOT
ATOM      1  O1  UNL     1      27.417 -10.844 -40.018  0.00  0.00    +0.000 OA
ATOM      2  C1  UNL     1      27.241  -9.873 -39.231  0.00  0.00    +0.000 C 
ATOM      3  N1  UNL     1      26.198  -8.920 -39.500  0.00  0.00    +0.000 N 
ATOM      4  H1  UNL     1      25.734  -8.451 -38.691  0.00  0.00    +0.000 HD
ENDROOT
BRANCH   2   5
ATOM      5  C9  UNL     1      28.082  -9.759 -38.014  0.00  0.00    +0.000 A 
ATOM      6  C10 UNL     1      29.477  -9.637 -38.126  0.00  0.00    +0.000 A 
ATOM      7  C11 UNL     1      30.276  -9.523 -36.985  0.00  0.00    +0.000 A 
ATOM      8  C12 UNL     1      29.697  -9.523 -35.704  0.00  0.00    +0.000 A 
ATOM      9  C20 UNL     1      28.301  -9.634 -35.593  0.00  0.00    +0.000 A 
ATOM     10  C21 UNL     1      27.502  -9.749 -36.734  0.00  0.00    +0.000 A 
BRANCH   8  11
ATOM     11  C13 UNL     1      30.534  -9.403 -34.487  0.00  0.00    +0.000 A 
ATOM     12  N4  UNL     1      30.805 -10.450 -33.666  0.00  0.00    +0.000 NA
ATOM     13  C14 UNL     1      31.592 -10.075 -32.626  0.00  0.00    +0.000 A 
ATOM     14  C15 UNL     1      32.035 -10.936 -31.621  0.00  0.00    +0.000 A 
ATOM     15  C16 UNL     1      32.847 -10.418 -30.597  0.00  0.00    +0.000 A 
ATOM     16  C17 UNL     1      33.206  -9.055 -30.590  0.00  0.00    +0.000 A 
ATOM     17  C18 UNL     1      32.754  -8.198 -31.608  0.00  0.00    +0.000 A 
ATOM     18  C19 UNL     1      31.951  -8.737 -32.609  0.00  0.00    +0.000 A 
ATOM     19  S1  UNL     1      31.270  -7.972 -33.936  0.00  0.00    +0.000 S 
ENDBRANCH   8  11
ENDBRANCH   2   5
BRANCH   3  20
ATOM     20  N2  UNL     1      25.615  -8.750 -40.770  0.00  0.00    +0.000 NA
ATOM     21  C2  UNL     1      25.669  -7.638 -41.442  0.00  0.00    +0.000 C 
BRANCH  21  22
ATOM     22  C3  UNL     1      25.051  -7.528 -42.779  0.00  0.00    +0.000 A 
ATOM     23  C4  UNL     1      25.872  -7.464 -43.914  0.00  0.00    +0.000 A 
ATOM     24  C5  UNL     1      25.311  -7.360 -45.190  0.00  0.00    +0.000 A 
ATOM     25  C6  UNL     1      23.915  -7.319 -45.355  0.00  0.00    +0.000 A 
ATOM     26  C7  UNL     1      23.094  -7.384 -44.217  0.00  0.00    +0.000 A 
ATOM     27  C8  UNL     1      23.655  -7.487 -42.941  0.00  0.00    +0.000 A 
BRANCH  25  28
ATOM     28  N3  UNL     1      23.334  -7.213 -46.668  0.00  0.00    +0.000 N 
ATOM     29  O2  UNL     1      23.563  -8.078 -47.539  0.00  0.00    +0.000 OA
ATOM     30  O3  UNL     1      22.515  -6.154 -46.986  0.00  0.00    +0.000 OA
ENDBRANCH  25  28
ENDBRANCH  21  22
ENDBRANCH   3  20
TORSDOF 5
ENDMDL
