MODEL 1
REMARK VINA RESULT:    -6.421      0.000      0.000
REMARK INTER + INTRA:          -9.659
REMARK INTER:                  -8.298
REMARK INTRA:                  -1.361
REMARK UNBOUND:                -1.361
REMARK  Name = resultss/4CJN/ligands/lig_268_t0.pdb
REMARK  5 active torsions:
REMARK  status: ('A' for Active; 'I' for Inactive)
REMARK    1  A    between atoms: C1_2  and  C17_23
REMARK    2  A    between atoms: N1_3  and  C2_4
REMARK    3  A    between atoms: C5_8  and  C6_9
REMARK    4  A    between atoms: N2_11  and  C7_12
REMARK    5  A    between atoms: C7_12  and  C8_13
REMARK                            x       y       z     vdW  Elec       q    Type
REMARK                         _______ _______ _______ _____ _____    ______ ____
ROOT
ATOM      1  C2  UNL     1      26.970  -8.668 -38.890  0.00  0.00    +0.000 A 
ATOM      2  S1  UNL     1      27.345  -9.618 -40.234  0.00  0.00    +0.000 S 
ATOM      3  C3  UNL     1      26.050  -9.103 -41.169  0.00  0.00    +0.000 A 
ATOM      4  C4  UNL     1      25.285  -8.197 -40.440  0.00  0.00    +0.000 A 
ATOM      5  C5  UNL     1      25.819  -7.919 -39.164  0.00  0.00    +0.000 A 
ATOM      6  C13 UNL     1      24.030  -7.585 -41.013  0.00  0.00    +0.000 C 
ATOM      7  C14 UNL     1      23.477  -8.417 -42.182  0.00  0.00    +0.000 C 
ATOM      8  C15 UNL     1      24.590  -8.789 -43.176  0.00  0.00    +0.000 C 
ATOM      9  C16 UNL     1      25.662  -9.661 -42.505  0.00  0.00    +0.000 C 
ENDROOT
BRANCH   1  12
ATOM     10  O1  UNL     1      26.547 -10.037 -36.383  0.00  0.00    +0.000 OA
ATOM     11  C1  UNL     1      27.626  -9.408 -36.559  0.00  0.00    +0.000 C 
ATOM     12  N1  UNL     1      27.773  -8.551 -37.704  0.00  0.00    +0.000 N 
ATOM     13  H1  UNL     1      28.479  -7.784 -37.662  0.00  0.00    +0.000 HD
BRANCH  11  14
ATOM     14  C17 UNL     1      28.710  -9.528 -35.554  0.00  0.00    +0.000 A 
ATOM     15  C18 UNL     1      30.060  -9.382 -35.913  0.00  0.00    +0.000 A 
ATOM     16  C19 UNL     1      31.062  -9.506 -34.948  0.00  0.00    +0.000 A 
ATOM     17  C20 UNL     1      30.708  -9.783 -33.627  0.00  0.00    +0.000 A 
ATOM     18  N4  UNL     1      29.401  -9.933 -33.291  0.00  0.00    +0.000 NA
ATOM     19  C21 UNL     1      28.407  -9.818 -34.212  0.00  0.00    +0.000 A 
ENDBRANCH  11  14
ENDBRANCH   1  12
BRANCH   5  20
ATOM     20  C6  UNL     1      25.204  -6.986 -38.201  0.00  0.00    +0.000 C 
ATOM     21  O2  UNL     1      25.823  -5.938 -37.870  0.00  0.00    +0.000 OA
ATOM     22  N2  UNL     1      23.910  -7.261 -37.649  0.00  0.00    +0.000 N 
ATOM     23  H2  UNL     1      23.309  -7.988 -38.096  0.00  0.00    +0.000 HD
BRANCH  22  24
ATOM     24  C7  UNL     1      23.399  -6.563 -36.473  0.00  0.00    +0.000 C 
BRANCH  24  25
ATOM     25  C8  UNL     1      23.613  -7.402 -35.248  0.00  0.00    +0.000 A 
ATOM     26  C9  UNL     1      22.556  -8.140 -34.696  0.00  0.00    +0.000 A 
ATOM     27  C10 UNL     1      22.794  -8.950 -33.585  0.00  0.00    +0.000 A 
ATOM     28  C11 UNL     1      24.076  -9.019 -33.037  0.00  0.00    +0.000 A 
ATOM     29  C12 UNL     1      25.107  -8.275 -33.616  0.00  0.00    +0.000 A 
ATOM     30  N3  UNL     1      24.857  -7.494 -34.701  0.00  0.00    +0.000 NA
ENDBRANCH  24  25
ENDBRANCH  22  24
ENDBRANCH   5  20
TORSDOF 5
ENDMDL
MODEL 2
REMARK VINA RESULT:    -6.276      1.675      6.547
REMARK INTER + INTRA:          -9.471
REMARK INTER:                  -8.129
REMARK INTRA:                  -1.341
REMARK UNBOUND:                -1.361
REMARK  Name = resultss/4CJN/ligands/lig_268_t0.pdb
REMARK  5 active torsions:
REMARK  status: ('A' for Active; 'I' for Inactive)
REMARK    1  A    between atoms: C1_2  and  C17_23
REMARK    2  A    between atoms: N1_3  and  C2_4
REMARK    3  A    between atoms: C5_8  and  C6_9
REMARK    4  A    between atoms: N2_11  and  C7_12
REMARK    5  A    between atoms: C7_12  and  C8_13
REMARK                            x       y       z     vdW  Elec       q    Type
REMARK                         _______ _______ _______ _____ _____    ______ ____
ROOT
ATOM      1  C2  UNL     1      28.238  -9.641 -36.445  0.00  0.00    +0.000 A 
ATOM      2  S1  UNL     1      29.895  -9.613 -36.769  0.00  0.00    +0.000 S 
ATOM      3  C3  UNL     1      30.379  -9.582 -35.162  0.00  0.00    +0.000 A 
ATOM      4  C4  UNL     1      29.254  -9.568 -34.341  0.00  0.00    +0.000 A 
ATOM      5  C5  UNL     1      28.041  -9.637 -35.059  0.00  0.00    +0.000 A 
ATOM      6  C13 UNL     1      29.377  -9.508 -32.838  0.00  0.00    +0.000 C 
ATOM      7  C14 UNL     1      30.753  -8.978 -32.403  0.00  0.00    +0.000 C 
ATOM      8  C15 UNL     1      31.888  -9.678 -33.170  0.00  0.00    +0.000 C 
ATOM      9  C16 UNL     1      31.787  -9.408 -34.678  0.00  0.00    +0.000 C 
ENDROOT
BRANCH   1  12
ATOM     10  O1  UNL     1      27.108  -7.525 -38.053  0.00  0.00    +0.000 OA
ATOM     11  C1  UNL     1      26.824  -8.722 -38.333  0.00  0.00    +0.000 C 
ATOM     12  N1  UNL     1      27.201  -9.775 -37.430  0.00  0.00    +0.000 N 
ATOM     13  H1  UNL     1      26.674 -10.675 -37.470  0.00  0.00    +0.000 HD
BRANCH  11  14
ATOM     14  C17 UNL     1      26.064  -9.017 -39.573  0.00  0.00    +0.000 A 
ATOM     15  C18 UNL     1      24.849  -8.372 -39.856  0.00  0.00    +0.000 A 
ATOM     16  C19 UNL     1      24.151  -8.673 -41.028  0.00  0.00    +0.000 A 
ATOM     17  C20 UNL     1      24.669  -9.624 -41.907  0.00  0.00    +0.000 A 
ATOM     18  N4  UNL     1      25.839 -10.250 -41.620  0.00  0.00    +0.000 NA
ATOM     19  C21 UNL     1      26.538  -9.976 -40.486  0.00  0.00    +0.000 A 
ENDBRANCH  11  14
ENDBRANCH   1  12
BRANCH   5  20
ATOM     20  C6  UNL     1      26.710  -9.649 -34.423  0.00  0.00    +0.000 C 
ATOM     21  O2  UNL     1      26.019 -10.704 -34.448  0.00  0.00    +0.000 OA
ATOM     22  N2  UNL     1      26.206  -8.474 -33.775  0.00  0.00    +0.000 N 
ATOM     23  H2  UNL     1      26.862  -7.694 -33.550  0.00  0.00    +0.000 HD
BRANCH  22  24
ATOM     24  C7  UNL     1      24.797  -8.322 -33.421  0.00  0.00    +0.000 C 
BRANCH  24  25
ATOM     25  C8  UNL     1      24.049  -7.697 -34.560  0.00  0.00    +0.000 A 
ATOM     26  C9  UNL     1      22.647  -7.740 -34.600  0.00  0.00    +0.000 A 
ATOM     27  C10 UNL     1      21.973  -7.108 -35.647  0.00  0.00    +0.000 A 
ATOM     28  C11 UNL     1      22.697  -6.441 -36.637  0.00  0.00    +0.000 A 
ATOM     29  C12 UNL     1      24.091  -6.413 -36.562  0.00  0.00    +0.000 A 
ATOM     30  N3  UNL     1      24.731  -7.031 -35.532  0.00  0.00    +0.000 NA
ENDBRANCH  24  25
ENDBRANCH  22  24
ENDBRANCH   5  20
TORSDOF 5
ENDMDL
MODEL 3
REMARK VINA RESULT:    -6.159      4.696      7.781
REMARK INTER + INTRA:          -9.320
REMARK INTER:                  -8.256
REMARK INTRA:                  -1.064
REMARK UNBOUND:                -1.361
REMARK  Name = resultss/4CJN/ligands/lig_268_t0.pdb
REMARK  5 active torsions:
REMARK  status: ('A' for Active; 'I' for Inactive)
REMARK    1  A    between atoms: C1_2  and  C17_23
REMARK    2  A    between atoms: N1_3  and  C2_4
REMARK    3  A    between atoms: C5_8  and  C6_9
REMARK    4  A    between atoms: N2_11  and  C7_12
REMARK    5  A    between atoms: C7_12  and  C8_13
REMARK                            x       y       z     vdW  Elec       q    Type
REMARK                         _______ _______ _______ _____ _____    ______ ____
ROOT
ATOM      1  C2  UNL     1      28.917  -9.794 -39.030  0.00  0.00    +0.000 A 
ATOM      2  S1  UNL     1      27.230  -9.776 -39.068  0.00  0.00    +0.000 S 
ATOM      3  C3  UNL     1      27.102  -9.553 -40.727  0.00  0.00    +0.000 A 
ATOM      4  C4  UNL     1      28.377  -9.464 -41.281  0.00  0.00    +0.000 A 
ATOM      5  C5  UNL     1      29.408  -9.635 -40.332  0.00  0.00    +0.000 A 
ATOM      6  C13 UNL     1      28.580  -9.230 -42.757  0.00  0.00    +0.000 C 
ATOM      7  C14 UNL     1      27.325  -8.631 -43.413  0.00  0.00    +0.000 C 
ATOM      8  C15 UNL     1      26.059  -9.396 -42.994  0.00  0.00    +0.000 C 
ATOM      9  C16 UNL     1      25.830  -9.302 -41.478  0.00  0.00    +0.000 C 
ENDROOT
BRANCH   1  12
ATOM     10  O1  UNL     1      30.111  -7.830 -37.282  0.00  0.00    +0.000 OA
ATOM     11  C1  UNL     1      30.116  -9.041 -36.931  0.00  0.00    +0.000 C 
ATOM     12  N1  UNL     1      29.720 -10.058 -37.867  0.00  0.00    +0.000 N 
ATOM     13  H1  UNL     1      30.057 -11.032 -37.713  0.00  0.00    +0.000 HD
BRANCH  11  14
ATOM     14  C17 UNL     1      30.575  -9.400 -35.567  0.00  0.00    +0.000 A 
ATOM     15  C18 UNL     1      29.661  -9.640 -34.527  0.00  0.00    +0.000 A 
ATOM     16  C19 UNL     1      30.120  -9.971 -33.250  0.00  0.00    +0.000 A 
ATOM     17  C20 UNL     1      31.493 -10.053 -33.018  0.00  0.00    +0.000 A 
ATOM     18  N4  UNL     1      32.369  -9.809 -34.026  0.00  0.00    +0.000 NA
ATOM     19  C21 UNL     1      31.948  -9.485 -35.278  0.00  0.00    +0.000 A 
ENDBRANCH  11  14
ENDBRANCH   1  12
BRANCH   5  20
ATOM     20  C6  UNL     1      30.844  -9.596 -40.664  0.00  0.00    +0.000 C 
ATOM     21  O2  UNL     1      31.559  -8.656 -40.219  0.00  0.00    +0.000 OA
ATOM     22  N2  UNL     1      31.428 -10.618 -41.482  0.00  0.00    +0.000 N 
ATOM     23  H2  UNL     1      30.899 -11.503 -41.647  0.00  0.00    +0.000 HD
BRANCH  22  24
ATOM     24  C7  UNL     1      32.740 -10.465 -42.104  0.00  0.00    +0.000 C 
BRANCH  24  25
ATOM     25  C8  UNL     1      32.846 -11.364 -43.301  0.00  0.00    +0.000 A 
ATOM     26  C9  UNL     1      31.990 -12.467 -43.440  0.00  0.00    +0.000 A 
ATOM     27  C10 UNL     1      32.077 -13.260 -44.586  0.00  0.00    +0.000 A 
ATOM     28  C11 UNL     1      33.008 -12.947 -45.578  0.00  0.00    +0.000 A 
ATOM     29  C12 UNL     1      33.840 -11.838 -45.409  0.00  0.00    +0.000 A 
ATOM     30  N3  UNL     1      33.738 -11.075 -44.287  0.00  0.00    +0.000 NA
ENDBRANCH  24  25
ENDBRANCH  22  24
ENDBRANCH   5  20
TORSDOF 5
ENDMDL
MODEL 4
REMARK VINA RESULT:    -6.146      2.567      6.394
REMARK INTER + INTRA:          -9.304
REMARK INTER:                  -7.770
REMARK INTRA:                  -1.534
REMARK UNBOUND:                -1.361
REMARK  Name = resultss/4CJN/ligands/lig_268_t0.pdb
REMARK  5 active torsions:
REMARK  status: ('A' for Active; 'I' for Inactive)
REMARK    1  A    between atoms: C1_2  and  C17_23
REMARK    2  A    between atoms: N1_3  and  C2_4
REMARK    3  A    between atoms: C5_8  and  C6_9
REMARK    4  A    between atoms: N2_11  and  C7_12
REMARK    5  A    between atoms: C7_12  and  C8_13
REMARK                            x       y       z     vdW  Elec       q    Type
REMARK                         _______ _______ _______ _____ _____    ______ ____
ROOT
ATOM      1  C2  UNL     1      26.905  -8.741 -36.580  0.00  0.00    +0.000 A 
ATOM      2  S1  UNL     1      26.894  -9.189 -34.952  0.00  0.00    +0.000 S 
ATOM      3  C3  UNL     1      25.279  -8.817 -34.687  0.00  0.00    +0.000 A 
ATOM      4  C4  UNL     1      24.723  -8.312 -35.860  0.00  0.00    +0.000 A 
ATOM      5  C5  UNL     1      25.628  -8.299 -36.943  0.00  0.00    +0.000 A 
ATOM      6  C13 UNL     1      23.285  -7.858 -35.917  0.00  0.00    +0.000 C 
ATOM      7  C14 UNL     1      22.729  -7.559 -34.515  0.00  0.00    +0.000 C 
ATOM      8  C15 UNL     1      23.066  -8.690 -33.530  0.00  0.00    +0.000 C 
ATOM      9  C16 UNL     1      24.585  -8.843 -33.359  0.00  0.00    +0.000 C 
ENDROOT
BRANCH   1  12
ATOM     10  O1  UNL     1      27.679 -11.174 -37.930  0.00  0.00    +0.000 OA
ATOM     11  C1  UNL     1      28.224 -10.088 -38.270  0.00  0.00    +0.000 C 
ATOM     12  N1  UNL     1      28.014  -8.906 -37.480  0.00  0.00    +0.000 N 
ATOM     13  H1  UNL     1      28.718  -8.139 -37.539  0.00  0.00    +0.000 HD
BRANCH  11  14
ATOM     14  C17 UNL     1      29.112 -10.063 -39.457  0.00  0.00    +0.000 A 
ATOM     15  C18 UNL     1      28.789 -10.768 -40.628  0.00  0.00    +0.000 A 
ATOM     16  C19 UNL     1      29.646 -10.732 -41.730  0.00  0.00    +0.000 A 
ATOM     17  C20 UNL     1      30.827  -9.994 -41.653  0.00  0.00    +0.000 A 
ATOM     18  N4  UNL     1      31.138  -9.324 -40.513  0.00  0.00    +0.000 NA
ATOM     19  C21 UNL     1      30.320  -9.344 -39.426  0.00  0.00    +0.000 A 
ENDBRANCH  11  14
ENDBRANCH   1  12
BRANCH   5  20
ATOM     20  C6  UNL     1      25.282  -7.822 -38.295  0.00  0.00    +0.000 C 
ATOM     21  O2  UNL     1      25.369  -6.592 -38.561  0.00  0.00    +0.000 OA
ATOM     22  N2  UNL     1      24.856  -8.747 -39.304  0.00  0.00    +0.000 N 
ATOM     23  H2  UNL     1      25.011  -9.769 -39.157  0.00  0.00    +0.000 HD
BRANCH  22  24
ATOM     24  C7  UNL     1      24.201  -8.313 -40.535  0.00  0.00    +0.000 C 
BRANCH  24  25
ATOM     25  C8  UNL     1      25.213  -8.188 -41.635  0.00  0.00    +0.000 A 
ATOM     26  C9  UNL     1      25.752  -9.333 -42.240  0.00  0.00    +0.000 A 
ATOM     27  C10 UNL     1      26.655  -9.188 -43.294  0.00  0.00    +0.000 A 
ATOM     28  C11 UNL     1      27.011  -7.912 -43.734  0.00  0.00    +0.000 A 
ATOM     29  C12 UNL     1      26.450  -6.794 -43.113  0.00  0.00    +0.000 A 
ATOM     30  N3  UNL     1      25.568  -6.955 -42.090  0.00  0.00    +0.000 NA
ENDBRANCH  24  25
ENDBRANCH  22  24
ENDBRANCH   5  20
TORSDOF 5
ENDMDL
MODEL 5
REMARK VINA RESULT:    -6.131      3.748      8.776
REMARK INTER + INTRA:          -9.284
REMARK INTER:                  -7.851
REMARK INTRA:                  -1.433
REMARK UNBOUND:                -1.361
REMARK  Name = resultss/4CJN/ligands/lig_268_t0.pdb
REMARK  5 active torsions:
REMARK  status: ('A' for Active; 'I' for Inactive)
REMARK    1  A    between atoms: C1_2  and  C17_23
REMARK    2  A    between atoms: N1_3  and  C2_4
REMARK    3  A    between atoms: C5_8  and  C6_9
REMARK    4  A    between atoms: N2_11  and  C7_12
REMARK    5  A    between atoms: C7_12  and  C8_13
REMARK                            x       y       z     vdW  Elec       q    Type
REMARK                         _______ _______ _______ _____ _____    ______ ____
ROOT
ATOM      1  C2  UNL     1      28.578  -9.234 -37.890  0.00  0.00    +0.000 A 
ATOM      2  S1  UNL     1      27.583  -9.610 -36.578  0.00  0.00    +0.000 S 
ATOM      3  C3  UNL     1      28.798  -9.537 -35.422  0.00  0.00    +0.000 A 
ATOM      4  C4  UNL     1      30.009  -9.242 -36.042  0.00  0.00    +0.000 A 
ATOM      5  C5  UNL     1      29.885  -9.035 -37.433  0.00  0.00    +0.000 A 
ATOM      6  C13 UNL     1      31.293  -9.144 -35.256  0.00  0.00    +0.000 C 
ATOM      7  C14 UNL     1      31.185  -9.865 -33.902  0.00  0.00    +0.000 C 
ATOM      8  C15 UNL     1      29.886  -9.485 -33.171  0.00  0.00    +0.000 C 
ATOM      9  C16 UNL     1      28.651  -9.911 -33.978  0.00  0.00    +0.000 C 
ENDROOT
BRANCH   1  12
ATOM     10  O1  UNL     1      27.694 -11.268 -39.740  0.00  0.00    +0.000 OA
ATOM     11  C1  UNL     1      27.517 -10.056 -40.038  0.00  0.00    +0.000 C 
ATOM     12  N1  UNL     1      28.130  -9.028 -39.240  0.00  0.00    +0.000 N 
ATOM     13  H1  UNL     1      28.286  -8.092 -39.673  0.00  0.00    +0.000 HD
BRANCH  11  14
ATOM     14  C17 UNL     1      26.715  -9.712 -41.237  0.00  0.00    +0.000 A 
ATOM     15  C18 UNL     1      27.241  -8.910 -42.264  0.00  0.00    +0.000 A 
ATOM     16  C19 UNL     1      26.462  -8.596 -43.379  0.00  0.00    +0.000 A 
ATOM     17  C20 UNL     1      25.157  -9.081 -43.460  0.00  0.00    +0.000 A 
ATOM     18  N4  UNL     1      24.652  -9.846 -42.458  0.00  0.00    +0.000 NA
ATOM     19  C21 UNL     1      25.390 -10.165 -41.360  0.00  0.00    +0.000 A 
ENDBRANCH  11  14
ENDBRANCH   1  12
BRANCH   5  20
ATOM     20  C6  UNL     1      31.018  -8.699 -38.317  0.00  0.00    +0.000 C 
ATOM     21  O2  UNL     1      31.384  -7.497 -38.427  0.00  0.00    +0.000 OA
ATOM     22  N2  UNL     1      31.702  -9.729 -39.042  0.00  0.00    +0.000 N 
ATOM     23  H2  UNL     1      31.556 -10.726 -38.771  0.00  0.00    +0.000 HD
BRANCH  22  24
ATOM     24  C7  UNL     1      32.597  -9.435 -40.158  0.00  0.00    +0.000 C 
BRANCH  24  25
ATOM     25  C8  UNL     1      32.154 -10.185 -41.379  0.00  0.00    +0.000 A 
ATOM     26  C9  UNL     1      30.794 -10.259 -41.715  0.00  0.00    +0.000 A 
ATOM     27  C10 UNL     1      30.413 -10.923 -42.882  0.00  0.00    +0.000 A 
ATOM     28  C11 UNL     1      31.384 -11.502 -43.701  0.00  0.00    +0.000 A 
ATOM     29  C12 UNL     1      32.729 -11.404 -43.339  0.00  0.00    +0.000 A 
ATOM     30  N3  UNL     1      33.082 -10.749 -42.199  0.00  0.00    +0.000 NA
ENDBRANCH  24  25
ENDBRANCH  22  24
ENDBRANCH   5  20
TORSDOF 5
ENDMDL
MODEL 6
REMARK VINA RESULT:    -6.106      2.563      7.989
REMARK INTER + INTRA:          -9.251
REMARK INTER:                  -7.671
REMARK INTRA:                  -1.580
REMARK UNBOUND:                -1.361
REMARK  Name = resultss/4CJN/ligands/lig_268_t0.pdb
REMARK  5 active torsions:
REMARK  status: ('A' for Active; 'I' for Inactive)
REMARK    1  A    between atoms: C1_2  and  C17_23
REMARK    2  A    between atoms: N1_3  and  C2_4
REMARK    3  A    between atoms: C5_8  and  C6_9
REMARK    4  A    between atoms: N2_11  and  C7_12
REMARK    5  A    between atoms: C7_12  and  C8_13
REMARK                            x       y       z     vdW  Elec       q    Type
REMARK                         _______ _______ _______ _____ _____    ______ ____
ROOT
ATOM      1  C2  UNL     1      25.965  -8.827 -36.632  0.00  0.00    +0.000 A 
ATOM      2  S1  UNL     1      25.373  -8.157 -35.201  0.00  0.00    +0.000 S 
ATOM      3  C3  UNL     1      26.790  -8.356 -34.324  0.00  0.00    +0.000 A 
ATOM      4  C4  UNL     1      27.747  -8.973 -35.126  0.00  0.00    +0.000 A 
ATOM      5  C5  UNL     1      27.298  -9.210 -36.443  0.00  0.00    +0.000 A 
ATOM      6  C13 UNL     1      29.119  -9.312 -34.597  0.00  0.00    +0.000 C 
ATOM      7  C14 UNL     1      29.135  -9.366 -33.060  0.00  0.00    +0.000 C 
ATOM      8  C15 UNL     1      28.435  -8.139 -32.452  0.00  0.00    +0.000 C 
ATOM      9  C16 UNL     1      26.955  -8.088 -32.859  0.00  0.00    +0.000 C 
ENDROOT
BRANCH   1  12
ATOM     10  O1  UNL     1      26.400  -7.135 -38.932  0.00  0.00    +0.000 OA
ATOM     11  C1  UNL     1      25.654  -8.145 -39.051  0.00  0.00    +0.000 C 
ATOM     12  N1  UNL     1      25.256  -8.880 -37.881  0.00  0.00    +0.000 N 
ATOM     13  H1  UNL     1      24.389  -9.459 -37.931  0.00  0.00    +0.000 HD
BRANCH  11  14
ATOM     14  C17 UNL     1      25.162  -8.531 -40.396  0.00  0.00    +0.000 A 
ATOM     15  C18 UNL     1      25.946  -9.307 -41.266  0.00  0.00    +0.000 A 
ATOM     16  C19 UNL     1      25.461  -9.651 -42.530  0.00  0.00    +0.000 A 
ATOM     17  C20 UNL     1      24.196  -9.211 -42.920  0.00  0.00    +0.000 A 
ATOM     18  N4  UNL     1      23.450  -8.452 -42.077  0.00  0.00    +0.000 NA
ATOM     19  C21 UNL     1      23.899  -8.102 -40.841  0.00  0.00    +0.000 A 
ENDBRANCH  11  14
ENDBRANCH   1  12
BRANCH   5  20
ATOM     20  C6  UNL     1      28.123  -9.842 -37.490  0.00  0.00    +0.000 C 
ATOM     21  O2  UNL     1      27.950 -11.060 -37.767  0.00  0.00    +0.000 OA
ATOM     22  N2  UNL     1      29.112  -9.078 -38.194  0.00  0.00    +0.000 N 
ATOM     23  H2  UNL     1      29.089  -8.036 -38.134  0.00  0.00    +0.000 HD
BRANCH  22  24
ATOM     24  C7  UNL     1      30.161  -9.706 -38.992  0.00  0.00    +0.000 C 
BRANCH  24  25
ATOM     25  C8  UNL     1      29.879  -9.509 -40.452  0.00  0.00    +0.000 A 
ATOM     26  C9  UNL     1      29.797 -10.611 -41.316  0.00  0.00    +0.000 A 
ATOM     27  C10 UNL     1      29.485 -10.404 -42.661  0.00  0.00    +0.000 A 
ATOM     28  C11 UNL     1      29.258  -9.109 -43.130  0.00  0.00    +0.000 A 
ATOM     29  C12 UNL     1      29.341  -8.035 -42.240  0.00  0.00    +0.000 A 
ATOM     30  N3  UNL     1      29.642  -8.257 -40.932  0.00  0.00    +0.000 NA
ENDBRANCH  24  25
ENDBRANCH  22  24
ENDBRANCH   5  20
TORSDOF 5
ENDMDL
MODEL 7
REMARK VINA RESULT:    -6.063      2.588      7.555
REMARK INTER + INTRA:          -9.197
REMARK INTER:                  -8.109
REMARK INTRA:                  -1.088
REMARK UNBOUND:                -1.361
REMARK  Name = resultss/4CJN/ligands/lig_268_t0.pdb
REMARK  5 active torsions:
REMARK  status: ('A' for Active; 'I' for Inactive)
REMARK    1  A    between atoms: C1_2  and  C17_23
REMARK    2  A    between atoms: N1_3  and  C2_4
REMARK    3  A    between atoms: C5_8  and  C6_9
REMARK    4  A    between atoms: N2_11  and  C7_12
REMARK    5  A    between atoms: C7_12  and  C8_13
REMARK                            x       y       z     vdW  Elec       q    Type
REMARK                         _______ _______ _______ _____ _____    ______ ____
ROOT
ATOM      1  C2  UNL     1      28.771  -9.666 -34.828  0.00  0.00    +0.000 A 
ATOM      2  S1  UNL     1      30.034  -9.598 -33.709  0.00  0.00    +0.000 S 
ATOM      3  C3  UNL     1      31.263  -9.515 -34.849  0.00  0.00    +0.000 A 
ATOM      4  C4  UNL     1      30.712  -9.564 -36.127  0.00  0.00    +0.000 A 
ATOM      5  C5  UNL     1      29.302  -9.614 -36.122  0.00  0.00    +0.000 A 
ATOM      6  C13 UNL     1      31.581  -9.541 -37.360  0.00  0.00    +0.000 C 
ATOM      7  C14 UNL     1      33.028  -9.953 -37.042  0.00  0.00    +0.000 C 
ATOM      8  C15 UNL     1      33.556  -9.216 -35.800  0.00  0.00    +0.000 C 
ATOM      9  C16 UNL     1      32.731  -9.568 -34.553  0.00  0.00    +0.000 C 
ENDROOT
BRANCH   1  12
ATOM     10  O1  UNL     1      27.264  -7.425 -33.805  0.00  0.00    +0.000 OA
ATOM     11  C1  UNL     1      26.643  -8.454 -34.188  0.00  0.00    +0.000 C 
ATOM     12  N1  UNL     1      27.371  -9.653 -34.503  0.00  0.00    +0.000 N 
ATOM     13  H1  UNL     1      26.866 -10.564 -34.464  0.00  0.00    +0.000 HD
BRANCH  11  14
ATOM     14  C17 UNL     1      25.162  -8.421 -34.264  0.00  0.00    +0.000 A 
ATOM     15  C18 UNL     1      24.365  -8.931 -33.226  0.00  0.00    +0.000 A 
ATOM     16  C19 UNL     1      22.972  -8.893 -33.326  0.00  0.00    +0.000 A 
ATOM     17  C20 UNL     1      22.383  -8.351 -34.467  0.00  0.00    +0.000 A 
ATOM     18  N4  UNL     1      23.161  -7.870 -35.471  0.00  0.00    +0.000 NA
ATOM     19  C21 UNL     1      24.519  -7.895 -35.399  0.00  0.00    +0.000 A 
ENDBRANCH  11  14
ENDBRANCH   1  12
BRANCH   5  20
ATOM     20  C6  UNL     1      28.478  -9.661 -37.345  0.00  0.00    +0.000 C 
ATOM     21  O2  UNL     1      27.659  -8.731 -37.579  0.00  0.00    +0.000 OA
ATOM     22  N2  UNL     1      28.608 -10.752 -38.265  0.00  0.00    +0.000 N 
ATOM     23  H2  UNL     1      29.437 -11.383 -38.194  0.00  0.00    +0.000 HD
BRANCH  22  24
ATOM     24  C7  UNL     1      27.616 -11.021 -39.302  0.00  0.00    +0.000 C 
BRANCH  24  25
ATOM     25  C8  UNL     1      28.055 -10.411 -40.600  0.00  0.00    +0.000 A 
ATOM     26  C9  UNL     1      29.189 -10.897 -41.268  0.00  0.00    +0.000 A 
ATOM     27  C10 UNL     1      29.548 -10.343 -42.498  0.00  0.00    +0.000 A 
ATOM     28  C11 UNL     1      28.778  -9.317 -43.049  0.00  0.00    +0.000 A 
ATOM     29  C12 UNL     1      27.652  -8.862 -42.360  0.00  0.00    +0.000 A 
ATOM     30  N3  UNL     1      27.315  -9.417 -41.164  0.00  0.00    +0.000 NA
ENDBRANCH  24  25
ENDBRANCH  22  24
ENDBRANCH   5  20
TORSDOF 5
ENDMDL
MODEL 8
REMARK VINA RESULT:    -6.023      3.764      7.569
REMARK INTER + INTRA:          -9.145
REMARK INTER:                  -7.785
REMARK INTRA:                  -1.360
REMARK UNBOUND:                -1.361
REMARK  Name = resultss/4CJN/ligands/lig_268_t0.pdb
REMARK  5 active torsions:
REMARK  status: ('A' for Active; 'I' for Inactive)
REMARK    1  A    between atoms: C1_2  and  C17_23
REMARK    2  A    between atoms: N1_3  and  C2_4
REMARK    3  A    between atoms: C5_8  and  C6_9
REMARK    4  A    between atoms: N2_11  and  C7_12
REMARK    5  A    between atoms: C7_12  and  C8_13
REMARK                            x       y       z     vdW  Elec       q    Type
REMARK                         _______ _______ _______ _____ _____    ______ ____
ROOT
ATOM      1  C2  UNL     1      30.488  -9.969 -37.774  0.00  0.00    +0.000 A 
ATOM      2  S1  UNL     1      31.741  -9.708 -36.673  0.00  0.00    +0.000 S 
ATOM      3  C3  UNL     1      30.748  -9.497 -35.336  0.00  0.00    +0.000 A 
ATOM      4  C4  UNL     1      29.416  -9.602 -35.729  0.00  0.00    +0.000 A 
ATOM      5  C5  UNL     1      29.263  -9.903 -37.099  0.00  0.00    +0.000 A 
ATOM      6  C13 UNL     1      28.288  -9.423 -34.743  0.00  0.00    +0.000 C 
ATOM      7  C14 UNL     1      28.747  -8.661 -33.489  0.00  0.00    +0.000 C 
ATOM      8  C15 UNL     1      30.068  -9.228 -32.944  0.00  0.00    +0.000 C 
ATOM      9  C16 UNL     1      31.201  -9.077 -33.971  0.00  0.00    +0.000 C 
ENDROOT
BRANCH   1  12
ATOM     10  O1  UNL     1      31.213  -8.194 -39.934  0.00  0.00    +0.000 OA
ATOM     11  C1  UNL     1      31.210  -9.438 -40.142  0.00  0.00    +0.000 C 
ATOM     12  N1  UNL     1      30.656 -10.326 -39.155  0.00  0.00    +0.000 N 
ATOM     13  H1  UNL     1      30.331 -11.268 -39.464  0.00  0.00    +0.000 HD
BRANCH  11  14
ATOM     14  C17 UNL     1      31.740  -9.961 -41.425  0.00  0.00    +0.000 A 
ATOM     15  C18 UNL     1      30.883 -10.301 -42.485  0.00  0.00    +0.000 A 
ATOM     16  C19 UNL     1      31.407 -10.797 -43.681  0.00  0.00    +0.000 A 
ATOM     17  C20 UNL     1      32.787 -10.956 -43.808  0.00  0.00    +0.000 A 
ATOM     18  N4  UNL     1      33.607 -10.635 -42.774  0.00  0.00    +0.000 NA
ATOM     19  C21 UNL     1      33.122 -10.151 -41.599  0.00  0.00    +0.000 A 
ENDBRANCH  11  14
ENDBRANCH   1  12
BRANCH   5  20
ATOM     20  C6  UNL     1      27.956 -10.077 -37.760  0.00  0.00    +0.000 C 
ATOM     21  O2  UNL     1      27.585 -11.231 -38.110  0.00  0.00    +0.000 OA
ATOM     22  N2  UNL     1      27.109  -8.946 -38.000  0.00  0.00    +0.000 N 
ATOM     23  H2  UNL     1      27.305  -8.048 -37.506  0.00  0.00    +0.000 HD
BRANCH  22  24
ATOM     24  C7  UNL     1      25.977  -9.000 -38.921  0.00  0.00    +0.000 C 
BRANCH  24  25
ATOM     25  C8  UNL     1      26.467  -8.937 -40.337  0.00  0.00    +0.000 A 
ATOM     26  C9  UNL     1      25.766  -9.590 -41.362  0.00  0.00    +0.000 A 
ATOM     27  C10 UNL     1      26.217  -9.475 -42.679  0.00  0.00    +0.000 A 
ATOM     28  C11 UNL     1      27.353  -8.716 -42.960  0.00  0.00    +0.000 A 
ATOM     29  C12 UNL     1      28.023  -8.075 -41.915  0.00  0.00    +0.000 A 
ATOM     30  N3  UNL     1      27.566  -8.194 -40.639  0.00  0.00    +0.000 NA
ENDBRANCH  24  25
ENDBRANCH  22  24
ENDBRANCH   5  20
TORSDOF 5
ENDMDL
MODEL 9
REMARK VINA RESULT:    -5.988      3.908      6.840
REMARK INTER + INTRA:          -9.099
REMARK INTER:                  -8.196
REMARK INTRA:                  -0.903
REMARK UNBOUND:                -1.361
REMARK  Name = resultss/4CJN/ligands/lig_268_t0.pdb
REMARK  5 active torsions:
REMARK  status: ('A' for Active; 'I' for Inactive)
REMARK    1  A    between atoms: C1_2  and  C17_23
REMARK    2  A    between atoms: N1_3  and  C2_4
REMARK    3  A    between atoms: C5_8  and  C6_9
REMARK    4  A    between atoms: N2_11  and  C7_12
REMARK    5  A    between atoms: C7_12  and  C8_13
REMARK                            x       y       z     vdW  Elec       q    Type
REMARK                         _______ _______ _______ _____ _____    ______ ____
ROOT
ATOM      1  C2  UNL     1      27.726  -8.605 -38.736  0.00  0.00    +0.000 A 
ATOM      2  S1  UNL     1      26.063  -8.653 -39.023  0.00  0.00    +0.000 S 
ATOM      3  C3  UNL     1      26.186  -8.888 -40.681  0.00  0.00    +0.000 A 
ATOM      4  C4  UNL     1      27.530  -8.909 -41.046  0.00  0.00    +0.000 A 
ATOM      5  C5  UNL     1      28.406  -8.785 -39.947  0.00  0.00    +0.000 A 
ATOM      6  C13 UNL     1      27.952  -9.073 -42.485  0.00  0.00    +0.000 C 
ATOM      7  C14 UNL     1      26.814  -8.713 -43.454  0.00  0.00    +0.000 C 
ATOM      8  C15 UNL     1      25.493  -9.380 -43.033  0.00  0.00    +0.000 C 
ATOM      9  C16 UNL     1      25.042  -8.890 -41.648  0.00  0.00    +0.000 C 
ENDROOT
BRANCH   1  12
ATOM     10  O1  UNL     1      27.387 -10.453 -36.544  0.00  0.00    +0.000 OA
ATOM     11  C1  UNL     1      28.290  -9.576 -36.467  0.00  0.00    +0.000 C 
ATOM     12  N1  UNL     1      28.344  -8.520 -37.442  0.00  0.00    +0.000 N 
ATOM     13  H1  UNL     1      28.831  -7.634 -37.186  0.00  0.00    +0.000 HD
BRANCH  11  14
ATOM     14  C17 UNL     1      29.256  -9.624 -35.342  0.00  0.00    +0.000 A 
ATOM     15  C18 UNL     1      30.633  -9.441 -35.552  0.00  0.00    +0.000 A 
ATOM     16  C19 UNL     1      31.521  -9.497 -34.476  0.00  0.00    +0.000 A 
ATOM     17  C20 UNL     1      31.028  -9.742 -33.195  0.00  0.00    +0.000 A 
ATOM     18  N4  UNL     1      29.697  -9.928 -33.002  0.00  0.00    +0.000 NA
ATOM     19  C21 UNL     1      28.811  -9.879 -34.033  0.00  0.00    +0.000 A 
ENDBRANCH  11  14
ENDBRANCH   1  12
BRANCH   5  20
ATOM     20  C6  UNL     1      29.877  -8.788 -40.065  0.00  0.00    +0.000 C 
ATOM     21  O2  UNL     1      30.541  -7.828 -39.588  0.00  0.00    +0.000 OA
ATOM     22  N2  UNL     1      30.550  -9.876 -40.712  0.00  0.00    +0.000 N 
ATOM     23  H2  UNL     1      30.030 -10.764 -40.889  0.00  0.00    +0.000 HD
BRANCH  22  24
ATOM     24  C7  UNL     1      31.942  -9.787 -41.142  0.00  0.00    +0.000 C 
BRANCH  24  25
ATOM     25  C8  UNL     1      32.207 -10.791 -42.225  0.00  0.00    +0.000 A 
ATOM     26  C9  UNL     1      31.207 -11.692 -42.621  0.00  0.00    +0.000 A 
ATOM     27  C10 UNL     1      31.464 -12.583 -43.664  0.00  0.00    +0.000 A 
ATOM     28  C11 UNL     1      32.706 -12.568 -44.301  0.00  0.00    +0.000 A 
ATOM     29  C12 UNL     1      33.676 -11.653 -43.885  0.00  0.00    +0.000 A 
ATOM     30  N3  UNL     1      33.406 -10.789 -42.870  0.00  0.00    +0.000 NA
ENDBRANCH  24  25
ENDBRANCH  22  24
ENDBRANCH   5  20
TORSDOF 5
ENDMDL
