MODEL 1
REMARK VINA RESULT:    -5.498      0.000      0.000
REMARK INTER + INTRA:          -5.819
REMARK INTER:                  -5.819
REMARK INTRA:                   0.000
REMARK UNBOUND:                 0.000
REMARK  Name = resultss/4CJN/ligands/lig_295_t1.pdb
REMARK  2 active torsions:
REMARK  status: ('A' for Active; 'I' for Inactive)
REMARK    1  A    between atoms: C11_15  and  O5_16
REMARK    2  A    between atoms: C12_17  and  O6_18
REMARK                            x       y       z     vdW  Elec       q    Type
REMARK                         _______ _______ _______ _____ _____    ______ ____
ROOT
ATOM      1  O1  UNL     1      27.439  -8.999 -34.445  0.00  0.00    +0.000 OA
ATOM      2  C1  UNL     1      26.572  -8.877 -35.349  0.00  0.00    +0.000 A 
ATOM      3  C2  UNL     1      26.915  -9.181 -36.685  0.00  0.00    +0.000 A 
ATOM      4  C3  UNL     1      28.249  -9.745 -37.054  0.00  0.00    +0.000 C 
ATOM      5  O2  UNL     1      29.116  -9.979 -36.170  0.00  0.00    +0.000 OA
ATOM      6  C4  UNL     1      28.611 -10.011 -38.487  0.00  0.00    +0.000 C 
ATOM      7  C5  UNL     1      27.379 -10.167 -39.325  0.00  0.00    +0.000 C 
ATOM      8  O3  UNL     1      27.341 -11.008 -40.210  0.00  0.00    +0.000 OA
ATOM      9  C6  UNL     1      26.237  -9.211 -39.145  0.00  0.00    +0.000 C 
ATOM     10  C7  UNL     1      25.955  -8.946 -37.691  0.00  0.00    +0.000 A 
ATOM     11  O4  UNL     1      24.774  -8.430 -37.379  0.00  0.00    +0.000 OA
ATOM     12  C8  UNL     1      24.407  -8.144 -36.138  0.00  0.00    +0.000 A 
ATOM     13  C9  UNL     1      23.148  -7.576 -35.929  0.00  0.00    +0.000 A 
ATOM     14  C10 UNL     1      22.732  -7.239 -34.647  0.00  0.00    +0.000 A 
ATOM     15  C11 UNL     1      23.547  -7.506 -33.548  0.00  0.00    +0.000 A 
ATOM     16  C12 UNL     1      24.805  -8.117 -33.724  0.00  0.00    +0.000 A 
ATOM     17  C13 UNL     1      25.273  -8.396 -35.045  0.00  0.00    +0.000 A 
ENDROOT
BRANCH  15  18
ATOM     18  O5  UNL     1      23.079  -7.173 -32.275  0.00  0.00    +0.000 OA
ATOM     19  H7  UNL     1      22.178  -6.734 -32.126  0.00  0.00    +0.000 HD
ENDBRANCH  15  18
BRANCH  16  20
ATOM     20  O6  UNL     1      25.521  -8.453 -32.570  0.00  0.00    +0.000 OA
ATOM     21  H8  UNL     1      26.477  -8.772 -32.564  0.00  0.00    +0.000 HD
ENDBRANCH  16  20
TORSDOF 2
ENDMDL
MODEL 2
REMARK VINA RESULT:    -5.489      2.240      4.218
REMARK INTER + INTRA:          -5.810
REMARK INTER:                  -5.810
REMARK INTRA:                   0.000
REMARK UNBOUND:                 0.000
REMARK  Name = resultss/4CJN/ligands/lig_295_t1.pdb
REMARK  2 active torsions:
REMARK  status: ('A' for Active; 'I' for Inactive)
REMARK    1  A    between atoms: C11_15  and  O5_16
REMARK    2  A    between atoms: C12_17  and  O6_18
REMARK                            x       y       z     vdW  Elec       q    Type
REMARK                         _______ _______ _______ _____ _____    ______ ____
ROOT
ATOM      1  O1  UNL     1      26.151  -9.407 -36.514  0.00  0.00    +0.000 OA
ATOM      2  C1  UNL     1      26.044  -8.765 -35.437  0.00  0.00    +0.000 A 
ATOM      3  C2  UNL     1      27.092  -8.820 -34.491  0.00  0.00    +0.000 A 
ATOM      4  C3  UNL     1      28.375  -9.534 -34.766  0.00  0.00    +0.000 C 
ATOM      5  O2  UNL     1      28.568 -10.109 -35.872  0.00  0.00    +0.000 OA
ATOM      6  C4  UNL     1      29.453  -9.625 -33.725  0.00  0.00    +0.000 C 
ATOM      7  C5  UNL     1      29.311  -8.526 -32.717  0.00  0.00    +0.000 C 
ATOM      8  O3  UNL     1      30.303  -7.965 -32.277  0.00  0.00    +0.000 OA
ATOM      9  C6  UNL     1      27.954  -8.195 -32.172  0.00  0.00    +0.000 C 
ATOM     10  C7  UNL     1      26.908  -8.169 -33.254  0.00  0.00    +0.000 A 
ATOM     11  O4  UNL     1      25.768  -7.546 -32.990  0.00  0.00    +0.000 OA
ATOM     12  C8  UNL     1      24.767  -7.458 -33.854  0.00  0.00    +0.000 A 
ATOM     13  C9  UNL     1      23.599  -6.802 -33.457  0.00  0.00    +0.000 A 
ATOM     14  C10 UNL     1      22.517  -6.707 -34.324  0.00  0.00    +0.000 A 
ATOM     15  C11 UNL     1      22.599  -7.226 -35.615  0.00  0.00    +0.000 A 
ATOM     16  C12 UNL     1      23.779  -7.856 -36.056  0.00  0.00    +0.000 A 
ATOM     17  C13 UNL     1      24.869  -8.026 -35.148  0.00  0.00    +0.000 A 
ENDROOT
BRANCH  15  18
ATOM     18  O5  UNL     1      21.496  -7.087 -36.460  0.00  0.00    +0.000 OA
ATOM     19  H7  UNL     1      20.595  -7.501 -36.250  0.00  0.00    +0.000 HD
ENDBRANCH  15  18
BRANCH  16  20
ATOM     20  O6  UNL     1      23.829  -8.255 -37.397  0.00  0.00    +0.000 OA
ATOM     21  H8  UNL     1      23.020  -8.473 -37.958  0.00  0.00    +0.000 HD
ENDBRANCH  16  20
TORSDOF 2
ENDMDL
MODEL 3
REMARK VINA RESULT:    -5.471      2.185      5.861
REMARK INTER + INTRA:          -5.791
REMARK INTER:                  -5.791
REMARK INTRA:                   0.000
REMARK UNBOUND:                 0.000
REMARK  Name = resultss/4CJN/ligands/lig_295_t1.pdb
REMARK  2 active torsions:
REMARK  status: ('A' for Active; 'I' for Inactive)
REMARK    1  A    between atoms: C11_15  and  O5_16
REMARK    2  A    between atoms: C12_17  and  O6_18
REMARK                            x       y       z     vdW  Elec       q    Type
REMARK                         _______ _______ _______ _____ _____    ______ ____
ROOT
ATOM      1  O1  UNL     1      24.762  -8.599 -37.528  0.00  0.00    +0.000 OA
ATOM      2  C1  UNL     1      25.928  -9.039 -37.709  0.00  0.00    +0.000 A 
ATOM      3  C2  UNL     1      26.829  -9.078 -36.622  0.00  0.00    +0.000 A 
ATOM      4  C3  UNL     1      26.418  -8.708 -35.234  0.00  0.00    +0.000 C 
ATOM      5  O2  UNL     1      25.233  -8.357 -34.985  0.00  0.00    +0.000 OA
ATOM      6  C4  UNL     1      27.407  -8.706 -34.104  0.00  0.00    +0.000 C 
ATOM      7  C5  UNL     1      28.575  -9.589 -34.420  0.00  0.00    +0.000 C 
ATOM      8  O3  UNL     1      29.073 -10.283 -33.547  0.00  0.00    +0.000 OA
ATOM      9  C6  UNL     1      29.196  -9.533 -35.784  0.00  0.00    +0.000 C 
ATOM     10  C7  UNL     1      28.156  -9.486 -36.870  0.00  0.00    +0.000 A 
ATOM     11  O4  UNL     1      28.539  -9.800 -38.101  0.00  0.00    +0.000 OA
ATOM     12  C8  UNL     1      27.722  -9.791 -39.144  0.00  0.00    +0.000 A 
ATOM     13  C9  UNL     1      28.242 -10.112 -40.400  0.00  0.00    +0.000 A 
ATOM     14  C10 UNL     1      27.425 -10.092 -41.525  0.00  0.00    +0.000 A 
ATOM     15  C11 UNL     1      26.068  -9.797 -41.407  0.00  0.00    +0.000 A 
ATOM     16  C12 UNL     1      25.508  -9.511 -40.146  0.00  0.00    +0.000 A 
ATOM     17  C13 UNL     1      26.353  -9.453 -38.996  0.00  0.00    +0.000 A 
ENDROOT
BRANCH  15  18
ATOM     18  O5  UNL     1      25.281  -9.812 -42.560  0.00  0.00    +0.000 OA
ATOM     19  H7  UNL     1      25.062  -8.970 -43.079  0.00  0.00    +0.000 HD
ENDBRANCH  15  18
BRANCH  16  20
ATOM     20  O6  UNL     1      24.121  -9.331 -40.088  0.00  0.00    +0.000 OA
ATOM     21  H8  UNL     1      23.466 -10.034 -39.783  0.00  0.00    +0.000 HD
ENDBRANCH  16  20
TORSDOF 2
ENDMDL
MODEL 4
REMARK VINA RESULT:    -5.465      6.139      7.682
REMARK INTER + INTRA:          -5.784
REMARK INTER:                  -5.784
REMARK INTRA:                   0.000
REMARK UNBOUND:                 0.000
REMARK  Name = resultss/4CJN/ligands/lig_295_t1.pdb
REMARK  2 active torsions:
REMARK  status: ('A' for Active; 'I' for Inactive)
REMARK    1  A    between atoms: C11_15  and  O5_16
REMARK    2  A    between atoms: C12_17  and  O6_18
REMARK                            x       y       z     vdW  Elec       q    Type
REMARK                         _______ _______ _______ _____ _____    ______ ____
ROOT
ATOM      1  O1  UNL     1      25.123 -10.080 -41.282  0.00  0.00    +0.000 OA
ATOM      2  C1  UNL     1      25.842  -9.524 -42.152  0.00  0.00    +0.000 A 
ATOM      3  C2  UNL     1      27.246  -9.665 -42.084  0.00  0.00    +0.000 A 
ATOM      4  C3  UNL     1      27.909 -10.541 -41.071  0.00  0.00    +0.000 C 
ATOM      5  O2  UNL     1      27.224 -11.198 -40.241  0.00  0.00    +0.000 OA
ATOM      6  C4  UNL     1      29.405 -10.634 -40.984  0.00  0.00    +0.000 C 
ATOM      7  C5  UNL     1      30.038 -10.234 -42.281  0.00  0.00    +0.000 C 
ATOM      8  O3  UNL     1      31.012 -10.839 -42.701  0.00  0.00    +0.000 OA
ATOM      9  C6  UNL     1      29.537  -9.019 -43.004  0.00  0.00    +0.000 C 
ATOM     10  C7  UNL     1      28.034  -8.955 -43.014  0.00  0.00    +0.000 A 
ATOM     11  O4  UNL     1      27.459  -8.161 -43.907  0.00  0.00    +0.000 OA
ATOM     12  C8  UNL     1      26.146  -8.012 -44.014  0.00  0.00    +0.000 A 
ATOM     13  C9  UNL     1      25.652  -7.125 -44.974  0.00  0.00    +0.000 A 
ATOM     14  C10 UNL     1      24.284  -6.921 -45.104  0.00  0.00    +0.000 A 
ATOM     15  C11 UNL     1      23.385  -7.632 -44.310  0.00  0.00    +0.000 A 
ATOM     16  C12 UNL     1      23.854  -8.564 -43.363  0.00  0.00    +0.000 A 
ATOM     17  C13 UNL     1      25.260  -8.724 -43.168  0.00  0.00    +0.000 A 
ENDROOT
BRANCH  15  18
ATOM     18  O5  UNL     1      22.019  -7.413 -44.492  0.00  0.00    +0.000 OA
ATOM     19  H7  UNL     1      21.519  -6.671 -44.015  0.00  0.00    +0.000 HD
ENDBRANCH  15  18
BRANCH  16  20
ATOM     20  O6  UNL     1      22.895  -9.319 -42.679  0.00  0.00    +0.000 OA
ATOM     21  H8  UNL     1      22.833  -9.391 -41.675  0.00  0.00    +0.000 HD
ENDBRANCH  16  20
TORSDOF 2
ENDMDL
MODEL 5
REMARK VINA RESULT:    -5.408      1.496      2.437
REMARK INTER + INTRA:          -5.724
REMARK INTER:                  -5.724
REMARK INTRA:                   0.000
REMARK UNBOUND:                 0.000
REMARK  Name = resultss/4CJN/ligands/lig_295_t1.pdb
REMARK  2 active torsions:
REMARK  status: ('A' for Active; 'I' for Inactive)
REMARK    1  A    between atoms: C11_15  and  O5_16
REMARK    2  A    between atoms: C12_17  and  O6_18
REMARK                            x       y       z     vdW  Elec       q    Type
REMARK                         _______ _______ _______ _____ _____    ______ ____
ROOT
ATOM      1  O1  UNL     1      27.800 -10.227 -37.135  0.00  0.00    +0.000 OA
ATOM      2  C1  UNL     1      26.738  -9.654 -37.494  0.00  0.00    +0.000 A 
ATOM      3  C2  UNL     1      26.472  -9.487 -38.871  0.00  0.00    +0.000 A 
ATOM      4  C3  UNL     1      27.361 -10.059 -39.927  0.00  0.00    +0.000 C 
ATOM      5  O2  UNL     1      28.384 -10.727 -39.616  0.00  0.00    +0.000 OA
ATOM      6  C4  UNL     1      27.088  -9.822 -41.385  0.00  0.00    +0.000 C 
ATOM      7  C5  UNL     1      25.647  -9.477 -41.605  0.00  0.00    +0.000 C 
ATOM      8  O3  UNL     1      25.053  -9.914 -42.579  0.00  0.00    +0.000 OA
ATOM      9  C6  UNL     1      24.972  -8.503 -40.686  0.00  0.00    +0.000 C 
ATOM     10  C7  UNL     1      25.324  -8.759 -39.245  0.00  0.00    +0.000 A 
ATOM     11  O4  UNL     1      24.536  -8.232 -38.318  0.00  0.00    +0.000 OA
ATOM     12  C8  UNL     1      24.741  -8.378 -37.017  0.00  0.00    +0.000 A 
ATOM     13  C9  UNL     1      23.862  -7.753 -36.129  0.00  0.00    +0.000 A 
ATOM     14  C10 UNL     1      24.053  -7.861 -34.757  0.00  0.00    +0.000 A 
ATOM     15  C11 UNL     1      25.097  -8.631 -34.248  0.00  0.00    +0.000 A 
ATOM     16  C12 UNL     1      25.975  -9.307 -35.120  0.00  0.00    +0.000 A 
ATOM     17  C13 UNL     1      25.833  -9.140 -36.531  0.00  0.00    +0.000 A 
ENDROOT
BRANCH  15  18
ATOM     18  O5  UNL     1      25.238  -8.731 -32.863  0.00  0.00    +0.000 OA
ATOM     19  H7  UNL     1      24.499  -8.467 -32.222  0.00  0.00    +0.000 HD
ENDBRANCH  15  18
BRANCH  16  20
ATOM     20  O6  UNL     1      26.931 -10.148 -34.540  0.00  0.00    +0.000 OA
ATOM     21  H8  UNL     1      27.746 -10.500 -35.017  0.00  0.00    +0.000 HD
ENDBRANCH  16  20
TORSDOF 2
ENDMDL
MODEL 6
REMARK VINA RESULT:    -5.348      1.288      6.142
REMARK INTER + INTRA:          -5.661
REMARK INTER:                  -5.661
REMARK INTRA:                   0.000
REMARK UNBOUND:                 0.000
REMARK  Name = resultss/4CJN/ligands/lig_295_t1.pdb
REMARK  2 active torsions:
REMARK  status: ('A' for Active; 'I' for Inactive)
REMARK    1  A    between atoms: C11_15  and  O5_16
REMARK    2  A    between atoms: C12_17  and  O6_18
REMARK                            x       y       z     vdW  Elec       q    Type
REMARK                         _______ _______ _______ _____ _____    ______ ____
ROOT
ATOM      1  O1  UNL     1      24.763  -8.302 -37.985  0.00  0.00    +0.000 OA
ATOM      2  C1  UNL     1      25.414  -8.673 -36.973  0.00  0.00    +0.000 A 
ATOM      3  C2  UNL     1      24.876  -8.456 -35.685  0.00  0.00    +0.000 A 
ATOM      4  C3  UNL     1      23.508  -7.892 -35.480  0.00  0.00    +0.000 C 
ATOM      5  O2  UNL     1      22.777  -7.599 -36.465  0.00  0.00    +0.000 OA
ATOM      6  C4  UNL     1      22.977  -7.621 -34.101  0.00  0.00    +0.000 C 
ATOM      7  C5  UNL     1      23.699  -8.449 -33.083  0.00  0.00    +0.000 C 
ATOM      8  O3  UNL     1      23.087  -8.944 -32.149  0.00  0.00    +0.000 OA
ATOM      9  C6  UNL     1      25.192  -8.574 -33.155  0.00  0.00    +0.000 C 
ATOM     10  C7  UNL     1      25.666  -8.794 -34.567  0.00  0.00    +0.000 A 
ATOM     11  O4  UNL     1      26.889  -9.279 -34.735  0.00  0.00    +0.000 OA
ATOM     12  C8  UNL     1      27.425  -9.511 -35.925  0.00  0.00    +0.000 A 
ATOM     13  C9  UNL     1      28.733  -9.996 -35.982  0.00  0.00    +0.000 A 
ATOM     14  C10 UNL     1      29.342 -10.231 -37.209  0.00  0.00    +0.000 A 
ATOM     15  C11 UNL     1      28.640 -10.029 -38.396  0.00  0.00    +0.000 A 
ATOM     16  C12 UNL     1      27.305  -9.580 -38.367  0.00  0.00    +0.000 A 
ATOM     17  C13 UNL     1      26.696  -9.263 -37.114  0.00  0.00    +0.000 A 
ENDROOT
BRANCH  15  18
ATOM     18  O5  UNL     1      29.283 -10.301 -39.605  0.00  0.00    +0.000 OA
ATOM     19  H7  UNL     1      29.270 -11.219 -40.033  0.00  0.00    +0.000 HD
ENDBRANCH  15  18
BRANCH  16  20
ATOM     20  O6  UNL     1      26.628  -9.504 -39.589  0.00  0.00    +0.000 OA
ATOM     21  H8  UNL     1      25.696  -9.853 -39.749  0.00  0.00    +0.000 HD
ENDBRANCH  16  20
TORSDOF 2
ENDMDL
MODEL 7
REMARK VINA RESULT:    -5.247      1.424      5.793
REMARK INTER + INTRA:          -5.553
REMARK INTER:                  -5.553
REMARK INTRA:                   0.000
REMARK UNBOUND:                 0.000
REMARK  Name = resultss/4CJN/ligands/lig_295_t1.pdb
REMARK  2 active torsions:
REMARK  status: ('A' for Active; 'I' for Inactive)
REMARK    1  A    between atoms: C11_15  and  O5_16
REMARK    2  A    between atoms: C12_17  and  O6_18
REMARK                            x       y       z     vdW  Elec       q    Type
REMARK                         _______ _______ _______ _____ _____    ______ ____
ROOT
ATOM      1  O1  UNL     1      28.033 -10.483 -36.835  0.00  0.00    +0.000 OA
ATOM      2  C1  UNL     1      27.122  -9.776 -37.341  0.00  0.00    +0.000 A 
ATOM      3  C2  UNL     1      26.121  -9.233 -36.505  0.00  0.00    +0.000 A 
ATOM      4  C3  UNL     1      26.159  -9.382 -35.019  0.00  0.00    +0.000 C 
ATOM      5  O2  UNL     1      27.106  -9.997 -34.457  0.00  0.00    +0.000 OA
ATOM      6  C4  UNL     1      25.056  -8.843 -34.155  0.00  0.00    +0.000 C 
ATOM      7  C5  UNL     1      24.311  -7.754 -34.865  0.00  0.00    +0.000 C 
ATOM      8  O3  UNL     1      23.935  -6.767 -34.251  0.00  0.00    +0.000 OA
ATOM      9  C6  UNL     1      23.933  -7.935 -36.305  0.00  0.00    +0.000 C 
ATOM     10  C7  UNL     1      25.061  -8.525 -37.108  0.00  0.00    +0.000 A 
ATOM     11  O4  UNL     1      25.006  -8.400 -38.427  0.00  0.00    +0.000 OA
ATOM     12  C8  UNL     1      25.932  -8.880 -39.245  0.00  0.00    +0.000 A 
ATOM     13  C9  UNL     1      25.755  -8.716 -40.621  0.00  0.00    +0.000 A 
ATOM     14  C10 UNL     1      26.689  -9.224 -41.516  0.00  0.00    +0.000 A 
ATOM     15  C11 UNL     1      27.836  -9.866 -41.050  0.00  0.00    +0.000 A 
ATOM     16  C12 UNL     1      28.060 -10.009 -39.666  0.00  0.00    +0.000 A 
ATOM     17  C13 UNL     1      27.070  -9.558 -38.742  0.00  0.00    +0.000 A 
ENDROOT
BRANCH  15  18
ATOM     18  O5  UNL     1      28.759 -10.340 -41.984  0.00  0.00    +0.000 OA
ATOM     19  H7  UNL     1      29.232 -11.230 -41.876  0.00  0.00    +0.000 HD
ENDBRANCH  15  18
BRANCH  16  20
ATOM     20  O6  UNL     1      29.282 -10.565 -39.270  0.00  0.00    +0.000 OA
ATOM     21  H8  UNL     1      29.891 -10.167 -38.573  0.00  0.00    +0.000 HD
ENDBRANCH  16  20
TORSDOF 2
ENDMDL
MODEL 8
REMARK VINA RESULT:    -5.245      1.622      3.356
REMARK INTER + INTRA:          -5.552
REMARK INTER:                  -5.552
REMARK INTRA:                   0.000
REMARK UNBOUND:                 0.000
REMARK  Name = resultss/4CJN/ligands/lig_295_t1.pdb
REMARK  2 active torsions:
REMARK  status: ('A' for Active; 'I' for Inactive)
REMARK    1  A    between atoms: C11_15  and  O5_16
REMARK    2  A    between atoms: C12_17  and  O6_18
REMARK                            x       y       z     vdW  Elec       q    Type
REMARK                         _______ _______ _______ _____ _____    ______ ____
ROOT
ATOM      1  O1  UNL     1      25.779  -8.583 -37.861  0.00  0.00    +0.000 OA
ATOM      2  C1  UNL     1      26.040  -8.719 -36.637  0.00  0.00    +0.000 A 
ATOM      3  C2  UNL     1      27.315  -9.189 -36.249  0.00  0.00    +0.000 A 
ATOM      4  C3  UNL     1      28.406  -9.435 -37.239  0.00  0.00    +0.000 C 
ATOM      5  O2  UNL     1      28.224  -9.218 -38.467  0.00  0.00    +0.000 OA
ATOM      6  C4  UNL     1      29.736  -9.986 -36.809  0.00  0.00    +0.000 C 
ATOM      7  C5  UNL     1      29.974  -9.721 -35.354  0.00  0.00    +0.000 C 
ATOM      8  O3  UNL     1      31.088  -9.409 -34.962  0.00  0.00    +0.000 OA
ATOM      9  C6  UNL     1      28.865  -9.949 -34.370  0.00  0.00    +0.000 C 
ATOM     10  C7  UNL     1      27.551  -9.422 -34.878  0.00  0.00    +0.000 A 
ATOM     11  O4  UNL     1      26.585  -9.223 -33.991  0.00  0.00    +0.000 OA
ATOM     12  C8  UNL     1      25.382  -8.770 -34.311  0.00  0.00    +0.000 A 
ATOM     13  C9  UNL     1      24.432  -8.627 -33.297  0.00  0.00    +0.000 A 
ATOM     14  C10 UNL     1      23.151  -8.176 -33.592  0.00  0.00    +0.000 A 
ATOM     15  C11 UNL     1      22.811  -7.819 -34.896  0.00  0.00    +0.000 A 
ATOM     16  C12 UNL     1      23.762  -7.913 -35.931  0.00  0.00    +0.000 A 
ATOM     17  C13 UNL     1      25.057  -8.447 -35.652  0.00  0.00    +0.000 A 
ENDROOT
BRANCH  15  18
ATOM     18  O5  UNL     1      21.520  -7.348 -35.142  0.00  0.00    +0.000 OA
ATOM     19  H7  UNL     1      21.223  -6.415 -34.883  0.00  0.00    +0.000 HD
ENDBRANCH  15  18
BRANCH  16  20
ATOM     20  O6  UNL     1      23.385  -7.435 -37.191  0.00  0.00    +0.000 OA
ATOM     21  H8  UNL     1      23.845  -7.677 -38.055  0.00  0.00    +0.000 HD
ENDBRANCH  16  20
TORSDOF 2
ENDMDL
MODEL 9
REMARK VINA RESULT:    -5.209      2.613      6.333
REMARK INTER + INTRA:          -5.514
REMARK INTER:                  -5.514
REMARK INTRA:                   0.000
REMARK UNBOUND:                 0.000
REMARK  Name = resultss/4CJN/ligands/lig_295_t1.pdb
REMARK  2 active torsions:
REMARK  status: ('A' for Active; 'I' for Inactive)
REMARK    1  A    between atoms: C11_15  and  O5_16
REMARK    2  A    between atoms: C12_17  and  O6_18
REMARK                            x       y       z     vdW  Elec       q    Type
REMARK                         _______ _______ _______ _____ _____    ______ ____
ROOT
ATOM      1  O1  UNL     1      30.990 -10.023 -37.439  0.00  0.00    +0.000 OA
ATOM      2  C1  UNL     1      29.736  -9.922 -37.487  0.00  0.00    +0.000 A 
ATOM      3  C2  UNL     1      29.007  -9.771 -36.287  0.00  0.00    +0.000 A 
ATOM      4  C3  UNL     1      29.679  -9.623 -34.961  0.00  0.00    +0.000 C 
ATOM      5  O2  UNL     1      30.937  -9.618 -34.873  0.00  0.00    +0.000 OA
ATOM      6  C4  UNL     1      28.882  -9.518 -33.693  0.00  0.00    +0.000 C 
ATOM      7  C5  UNL     1      27.490  -9.044 -33.978  0.00  0.00    +0.000 C 
ATOM      8  O3  UNL     1      26.943  -8.256 -33.223  0.00  0.00    +0.000 OA
ATOM      9  C6  UNL     1      26.734  -9.628 -35.135  0.00  0.00    +0.000 C 
ATOM     10  C7  UNL     1      27.598  -9.755 -36.360  0.00  0.00    +0.000 A 
ATOM     11  O4  UNL     1      26.989  -9.903 -37.529  0.00  0.00    +0.000 OA
ATOM     12  C8  UNL     1      27.635 -10.032 -38.678  0.00  0.00    +0.000 A 
ATOM     13  C9  UNL     1      26.890 -10.211 -39.846  0.00  0.00    +0.000 A 
ATOM     14  C10 UNL     1      27.528 -10.374 -41.070  0.00  0.00    +0.000 A 
ATOM     15  C11 UNL     1      28.918 -10.315 -41.154  0.00  0.00    +0.000 A 
ATOM     16  C12 UNL     1      29.693 -10.094 -39.999  0.00  0.00    +0.000 A 
ATOM     17  C13 UNL     1      29.051 -10.002 -38.726  0.00  0.00    +0.000 A 
ENDROOT
BRANCH  15  18
ATOM     18  O5  UNL     1      29.515 -10.460 -42.407  0.00  0.00    +0.000 OA
ATOM     19  H7  UNL     1      30.229  -9.825 -42.745  0.00  0.00    +0.000 HD
ENDBRANCH  15  18
BRANCH  16  20
ATOM     20  O6  UNL     1      31.073  -9.939 -40.174  0.00  0.00    +0.000 OA
ATOM     21  H8  UNL     1      31.599  -9.131 -39.879  0.00  0.00    +0.000 HD
ENDBRANCH  16  20
TORSDOF 2
ENDMDL
