MODEL 1
REMARK VINA RESULT:    -8.172      0.000      0.000
REMARK INTER + INTRA:         -14.473
REMARK INTER:                 -12.711
REMARK INTRA:                  -1.762
REMARK UNBOUND:                -1.762
REMARK  Name = resultss/4CJN/ligands/lig_349_t1.pdb
REMARK  10 active torsions:
REMARK  status: ('A' for Active; 'I' for Inactive)
REMARK    1  A    between atoms: O1_1  and  C1_2
REMARK    2  A    between atoms: C1_2  and  C2_3
REMARK    3  A    between atoms: C2_3  and  N1_4
REMARK    4  A    between atoms: C4_6  and  C5_7
REMARK    5  A    between atoms: C5_7  and  O2_8
REMARK    6  A    between atoms: O2_8  and  C6_9
REMARK    7  A    between atoms: C9_12  and  C10_13
REMARK    8  A    between atoms: N3_23  and  N4_24
REMARK    9  A    between atoms: N4_24  and  C18_25
REMARK   10  A    between atoms: N7_35  and  C26_36
REMARK                            x       y       z     vdW  Elec       q    Type
REMARK                         _______ _______ _______ _____ _____    ______ ____
ROOT
ATOM      1  C6  UNL     1      25.541  -7.732 -39.858  0.00  0.00    +0.000 A 
ATOM      2  C7  UNL     1      26.639  -6.927 -39.538  0.00  0.00    +0.000 A 
ATOM      3  C8  UNL     1      27.118  -6.865 -38.227  0.00  0.00    +0.000 A 
ATOM      4  C9  UNL     1      26.506  -7.615 -37.209  0.00  0.00    +0.000 A 
ATOM      5  C24 UNL     1      25.405  -8.428 -37.531  0.00  0.00    +0.000 A 
ATOM      6  C25 UNL     1      24.927  -8.487 -38.843  0.00  0.00    +0.000 A 
ENDROOT
BRANCH   4   7
ATOM      7  C10 UNL     1      26.995  -7.527 -35.778  0.00  0.00    +0.000 C 
ATOM      8  N2  UNL     1      26.109  -6.660 -34.992  0.00  0.00    +0.000 N 
ATOM      9  C11 UNL     1      25.056  -7.170 -34.162  0.00  0.00    +0.000 A 
ATOM     10  C12 UNL     1      24.099  -6.297 -33.622  0.00  0.00    +0.000 A 
ATOM     11  C13 UNL     1      23.061  -6.795 -32.830  0.00  0.00    +0.000 A 
ATOM     12  C14 UNL     1      22.972  -8.164 -32.570  0.00  0.00    +0.000 A 
ATOM     13  C15 UNL     1      23.926  -9.040 -33.098  0.00  0.00    +0.000 A 
ATOM     14  C16 UNL     1      24.975  -8.545 -33.893  0.00  0.00    +0.000 A 
ATOM     15  C17 UNL     1      26.008  -9.434 -34.447  0.00  0.00    +0.000 C 
ATOM     16  O3  UNL     1      25.931 -10.681 -34.277  0.00  0.00    +0.000 OA
ATOM     17  N3  UNL     1      27.105  -8.872 -35.192  0.00  0.00    +0.000 N 
ATOM     18  H10 UNL     1      26.168  -5.630 -35.158  0.00  0.00    +0.000 HD
BRANCH  17  19
ATOM     19  N4  UNL     1      28.197  -9.679 -35.574  0.00  0.00    +0.000 N 
ATOM     20  H15 UNL     1      28.105 -10.277 -36.425  0.00  0.00    +0.000 HD
BRANCH  19  21
ATOM     21  C18 UNL     1      29.475  -9.624 -34.919  0.00  0.00    +0.000 A 
ATOM     22  C19 UNL     1      29.541  -9.747 -33.524  0.00  0.00    +0.000 A 
ATOM     23  C20 UNL     1      30.775  -9.708 -32.869  0.00  0.00    +0.000 A 
ATOM     24  C21 UNL     1      31.954  -9.558 -33.604  0.00  0.00    +0.000 A 
ATOM     25  C22 UNL     1      31.900  -9.455 -34.997  0.00  0.00    +0.000 A 
ATOM     26  C23 UNL     1      30.666  -9.494 -35.656  0.00  0.00    +0.000 A 
ENDBRANCH  19  21
ENDBRANCH  17  19
ENDBRANCH   4   7
BRANCH   1  27
ATOM     27  O2  UNL     1      25.093  -7.748 -41.187  0.00  0.00    +0.000 OA
BRANCH  27  28
ATOM     28  C5  UNL     1      25.156  -8.886 -42.042  0.00  0.00    +0.000 C 
BRANCH  28  31
ATOM     29  N1  UNL     1      28.620  -9.833 -42.538  0.00  0.00    +0.000 N 
ATOM     30  C3  UNL     1      27.564  -9.087 -42.901  0.00  0.00    +0.000 A 
ATOM     31  C4  UNL     1      26.546  -9.431 -42.040  0.00  0.00    +0.000 A 
ATOM     32  N5  UNL     1      27.008 -10.360 -41.178  0.00  0.00    +0.000 NA
ATOM     33  N6  UNL     1      28.274 -10.582 -41.502  0.00  0.00    +0.000 NA
BRANCH  29  34
ATOM     34  C2  UNL     1      29.957  -9.796 -43.123  0.00  0.00    +0.000 C 
BRANCH  34  35
ATOM     35  C1  UNL     1      30.992  -9.992 -42.047  0.00  0.00    +0.000 C 
ATOM     36  N7  UNL     1      32.046 -10.744 -42.205  0.00  0.00    +0.000 NA
BRANCH  36  37
ATOM     37  C26 UNL     1      32.444 -11.397 -43.416  0.00  0.00    +0.000 A 
ATOM     38  C27 UNL     1      33.299 -10.760 -44.330  0.00  0.00    +0.000 A 
ATOM     39  C28 UNL     1      33.714 -11.427 -45.487  0.00  0.00    +0.000 A 
ATOM     40  C29 UNL     1      33.294 -12.740 -45.727  0.00  0.00    +0.000 A 
ATOM     41 CL1  UNL     1      33.818 -13.576 -47.176  0.00  0.00    +0.000 Cl
ATOM     42  C30 UNL     1      32.466 -13.389 -44.803  0.00  0.00    +0.000 A 
ATOM     43  C31 UNL     1      32.052 -12.723 -43.645  0.00  0.00    +0.000 A 
ENDBRANCH  36  37
BRANCH  35  44
ATOM     44  O1  UNL     1      30.768  -9.397 -40.807  0.00  0.00    +0.000 OA
ATOM     45  H1  UNL     1      30.799  -8.391 -40.697  0.00  0.00    +0.000 HD
ENDBRANCH  35  44
ENDBRANCH  34  35
ENDBRANCH  29  34
ENDBRANCH  28  31
ENDBRANCH  27  28
ENDBRANCH   1  27
TORSDOF 10
ENDMDL
MODEL 2
REMARK VINA RESULT:    -6.879      3.587      9.397
REMARK INTER + INTRA:         -12.461
REMARK INTER:                  -9.511
REMARK INTRA:                  -2.950
REMARK UNBOUND:                -1.762
REMARK  Name = resultss/4CJN/ligands/lig_349_t1.pdb
REMARK  10 active torsions:
REMARK  status: ('A' for Active; 'I' for Inactive)
REMARK    1  A    between atoms: O1_1  and  C1_2
REMARK    2  A    between atoms: C1_2  and  C2_3
REMARK    3  A    between atoms: C2_3  and  N1_4
REMARK    4  A    between atoms: C4_6  and  C5_7
REMARK    5  A    between atoms: C5_7  and  O2_8
REMARK    6  A    between atoms: O2_8  and  C6_9
REMARK    7  A    between atoms: C9_12  and  C10_13
REMARK    8  A    between atoms: N3_23  and  N4_24
REMARK    9  A    between atoms: N4_24  and  C18_25
REMARK   10  A    between atoms: N7_35  and  C26_36
REMARK                            x       y       z     vdW  Elec       q    Type
REMARK                         _______ _______ _______ _____ _____    ______ ____
ROOT
ATOM      1  C6  UNL     1      24.140  -7.614 -36.846  0.00  0.00    +0.000 A 
ATOM      2  C7  UNL     1      24.808  -8.513 -37.683  0.00  0.00    +0.000 A 
ATOM      3  C8  UNL     1      25.013  -8.213 -39.032  0.00  0.00    +0.000 A 
ATOM      4  C9  UNL     1      24.553  -6.998 -39.568  0.00  0.00    +0.000 A 
ATOM      5  C24 UNL     1      23.886  -6.092 -38.726  0.00  0.00    +0.000 A 
ATOM      6  C25 UNL     1      23.682  -6.396 -37.377  0.00  0.00    +0.000 A 
ENDROOT
BRANCH   4   7
ATOM      7  C10 UNL     1      24.739  -6.678 -41.036  0.00  0.00    +0.000 C 
ATOM      8  N2  UNL     1      26.150  -6.389 -41.319  0.00  0.00    +0.000 N 
ATOM      9  C11 UNL     1      27.055  -7.369 -41.846  0.00  0.00    +0.000 A 
ATOM     10  C12 UNL     1      28.434  -7.111 -41.875  0.00  0.00    +0.000 A 
ATOM     11  C13 UNL     1      29.320  -8.073 -42.368  0.00  0.00    +0.000 A 
ATOM     12  C14 UNL     1      28.835  -9.296 -42.838  0.00  0.00    +0.000 A 
ATOM     13  C15 UNL     1      27.462  -9.558 -42.820  0.00  0.00    +0.000 A 
ATOM     14  C16 UNL     1      26.566  -8.593 -42.327  0.00  0.00    +0.000 A 
ATOM     15  C17 UNL     1      25.112  -8.826 -42.312  0.00  0.00    +0.000 C 
ATOM     16  O3  UNL     1      24.644  -9.938 -42.679  0.00  0.00    +0.000 OA
ATOM     17  N3  UNL     1      24.229  -7.779 -41.868  0.00  0.00    +0.000 N 
ATOM     18  H10 UNL     1      26.531  -5.474 -40.990  0.00  0.00    +0.000 HD
BRANCH  17  19
ATOM     19  N4  UNL     1      22.833  -7.913 -42.016  0.00  0.00    +0.000 N 
ATOM     20  H15 UNL     1      22.282  -8.329 -41.233  0.00  0.00    +0.000 HD
BRANCH  19  21
ATOM     21  C18 UNL     1      22.114  -7.389 -43.145  0.00  0.00    +0.000 A 
ATOM     22  C19 UNL     1      20.759  -7.055 -43.007  0.00  0.00    +0.000 A 
ATOM     23  C20 UNL     1      20.046  -6.533 -44.090  0.00  0.00    +0.000 A 
ATOM     24  C21 UNL     1      20.684  -6.327 -45.316  0.00  0.00    +0.000 A 
ATOM     25  C22 UNL     1      22.040  -6.637 -45.457  0.00  0.00    +0.000 A 
ATOM     26  C23 UNL     1      22.756  -7.160 -44.376  0.00  0.00    +0.000 A 
ENDBRANCH  19  21
ENDBRANCH  17  19
ENDBRANCH   4   7
BRANCH   1  27
ATOM     27  O2  UNL     1      23.950  -7.970 -35.503  0.00  0.00    +0.000 OA
BRANCH  27  28
ATOM     28  C5  UNL     1      23.993  -7.052 -34.414  0.00  0.00    +0.000 C 
BRANCH  28  31
ATOM     29  N1  UNL     1      27.274  -7.822 -33.076  0.00  0.00    +0.000 N 
ATOM     30  C3  UNL     1      26.232  -8.168 -33.850  0.00  0.00    +0.000 A 
ATOM     31  C4  UNL     1      25.327  -7.135 -33.748  0.00  0.00    +0.000 A 
ATOM     32  N5  UNL     1      25.841  -6.193 -32.931  0.00  0.00    +0.000 NA
ATOM     33  N6  UNL     1      27.029  -6.636 -32.542  0.00  0.00    +0.000 NA
BRANCH  29  34
ATOM     34  C2  UNL     1      28.511  -8.573 -32.892  0.00  0.00    +0.000 C 
BRANCH  34  35
ATOM     35  C1  UNL     1      29.696  -7.680 -33.150  0.00  0.00    +0.000 C 
ATOM     36  N7  UNL     1      30.259  -7.568 -34.321  0.00  0.00    +0.000 NA
BRANCH  36  37
ATOM     37  C26 UNL     1      29.799  -8.164 -35.540  0.00  0.00    +0.000 A 
ATOM     38  C27 UNL     1      30.140  -9.487 -35.867  0.00  0.00    +0.000 A 
ATOM     39  C28 UNL     1      29.648 -10.070 -37.039  0.00  0.00    +0.000 A 
ATOM     40  C29 UNL     1      28.796  -9.344 -37.879  0.00  0.00    +0.000 A 
ATOM     41 CL1  UNL     1      28.176 -10.078 -39.345  0.00  0.00    +0.000 Cl
ATOM     42  C30 UNL     1      28.429  -8.036 -37.539  0.00  0.00    +0.000 A 
ATOM     43  C31 UNL     1      28.921  -7.452 -36.367  0.00  0.00    +0.000 A 
ENDBRANCH  36  37
BRANCH  35  44
ATOM     44  O1  UNL     1      30.253  -7.003 -32.067  0.00  0.00    +0.000 OA
ATOM     45  H1  UNL     1      31.064  -6.407 -32.184  0.00  0.00    +0.000 HD
ENDBRANCH  35  44
ENDBRANCH  34  35
ENDBRANCH  29  34
ENDBRANCH  28  31
ENDBRANCH  27  28
ENDBRANCH   1  27
TORSDOF 10
ENDMDL
MODEL 3
REMARK VINA RESULT:    -6.690      3.533      5.048
REMARK INTER + INTRA:         -12.167
REMARK INTER:                 -10.702
REMARK INTRA:                  -1.466
REMARK UNBOUND:                -1.762
REMARK  Name = resultss/4CJN/ligands/lig_349_t1.pdb
REMARK  10 active torsions:
REMARK  status: ('A' for Active; 'I' for Inactive)
REMARK    1  A    between atoms: O1_1  and  C1_2
REMARK    2  A    between atoms: C1_2  and  C2_3
REMARK    3  A    between atoms: C2_3  and  N1_4
REMARK    4  A    between atoms: C4_6  and  C5_7
REMARK    5  A    between atoms: C5_7  and  O2_8
REMARK    6  A    between atoms: O2_8  and  C6_9
REMARK    7  A    between atoms: C9_12  and  C10_13
REMARK    8  A    between atoms: N3_23  and  N4_24
REMARK    9  A    between atoms: N4_24  and  C18_25
REMARK   10  A    between atoms: N7_35  and  C26_36
REMARK                            x       y       z     vdW  Elec       q    Type
REMARK                         _______ _______ _______ _____ _____    ______ ____
ROOT
ATOM      1  C6  UNL     1      28.754  -9.450 -37.362  0.00  0.00    +0.000 A 
ATOM      2  C7  UNL     1      29.329  -8.260 -36.906  0.00  0.00    +0.000 A 
ATOM      3  C8  UNL     1      28.653  -7.446 -35.993  0.00  0.00    +0.000 A 
ATOM      4  C9  UNL     1      27.384  -7.816 -35.515  0.00  0.00    +0.000 A 
ATOM      5  C24 UNL     1      26.808  -9.015 -35.969  0.00  0.00    +0.000 A 
ATOM      6  C25 UNL     1      27.487  -9.826 -36.884  0.00  0.00    +0.000 A 
ENDROOT
BRANCH   4   7
ATOM      7  C10 UNL     1      26.627  -6.924 -34.553  0.00  0.00    +0.000 C 
ATOM      8  N2  UNL     1      25.615  -6.143 -35.274  0.00  0.00    +0.000 N 
ATOM      9  C11 UNL     1      24.236  -6.532 -35.346  0.00  0.00    +0.000 A 
ATOM     10  C12 UNL     1      23.367  -5.883 -36.235  0.00  0.00    +0.000 A 
ATOM     11  C13 UNL     1      22.028  -6.275 -36.322  0.00  0.00    +0.000 A 
ATOM     12  C14 UNL     1      21.549  -7.314 -35.520  0.00  0.00    +0.000 A 
ATOM     13  C15 UNL     1      22.407  -7.960 -34.625  0.00  0.00    +0.000 A 
ATOM     14  C16 UNL     1      23.754  -7.569 -34.532  0.00  0.00    +0.000 A 
ATOM     15  C17 UNL     1      24.681  -8.212 -33.587  0.00  0.00    +0.000 C 
ATOM     16  O3  UNL     1      24.297  -9.188 -32.886  0.00  0.00    +0.000 OA
ATOM     17  N3  UNL     1      26.032  -7.726 -33.473  0.00  0.00    +0.000 N 
ATOM     18  H10 UNL     1      25.949  -5.352 -35.869  0.00  0.00    +0.000 HD
BRANCH  17  19
ATOM     19  N4  UNL     1      26.879  -8.204 -32.451  0.00  0.00    +0.000 N 
ATOM     20  H15 UNL     1      26.455  -8.714 -31.645  0.00  0.00    +0.000 HD
BRANCH  19  21
ATOM     21  C18 UNL     1      28.312  -8.132 -32.529  0.00  0.00    +0.000 A 
ATOM     22  C19 UNL     1      28.964  -6.940 -32.177  0.00  0.00    +0.000 A 
ATOM     23  C20 UNL     1      30.357  -6.854 -32.234  0.00  0.00    +0.000 A 
ATOM     24  C21 UNL     1      31.112  -7.960 -32.631  0.00  0.00    +0.000 A 
ATOM     25  C22 UNL     1      30.474  -9.158 -32.964  0.00  0.00    +0.000 A 
ATOM     26  C23 UNL     1      29.079  -9.249 -32.908  0.00  0.00    +0.000 A 
ENDBRANCH  19  21
ENDBRANCH  17  19
ENDBRANCH   4   7
BRANCH   1  27
ATOM     27  O2  UNL     1      29.470 -10.223 -38.288  0.00  0.00    +0.000 OA
BRANCH  27  28
ATOM     28  C5  UNL     1      29.816  -9.789 -39.601  0.00  0.00    +0.000 C 
BRANCH  28  31
ATOM     29  N1  UNL     1      26.836  -9.306 -41.609  0.00  0.00    +0.000 N 
ATOM     30  C3  UNL     1      27.839 -10.102 -41.204  0.00  0.00    +0.000 A 
ATOM     31  C4  UNL     1      28.581  -9.354 -40.319  0.00  0.00    +0.000 A 
ATOM     32  N5  UNL     1      28.010  -8.137 -40.201  0.00  0.00    +0.000 NA
ATOM     33  N6  UNL     1      26.948  -8.138 -40.995  0.00  0.00    +0.000 NA
BRANCH  29  34
ATOM     34  C2  UNL     1      25.752  -9.662 -42.519  0.00  0.00    +0.000 C 
BRANCH  34  35
ATOM     35  C1  UNL     1      24.563  -8.770 -42.273  0.00  0.00    +0.000 C 
ATOM     36  N7  UNL     1      24.196  -7.832 -43.101  0.00  0.00    +0.000 NA
BRANCH  36  37
ATOM     37  C26 UNL     1      24.768  -7.571 -44.389  0.00  0.00    +0.000 A 
ATOM     38  C27 UNL     1      23.953  -7.458 -45.528  0.00  0.00    +0.000 A 
ATOM     39  C28 UNL     1      24.521  -7.160 -46.771  0.00  0.00    +0.000 A 
ATOM     40  C29 UNL     1      25.901  -6.953 -46.880  0.00  0.00    +0.000 A 
ATOM     41 CL1  UNL     1      26.610  -6.575 -48.438  0.00  0.00    +0.000 Cl
ATOM     42  C30 UNL     1      26.711  -7.035 -45.741  0.00  0.00    +0.000 A 
ATOM     43  C31 UNL     1      26.144  -7.332 -44.497  0.00  0.00    +0.000 A 
ENDBRANCH  36  37
BRANCH  35  44
ATOM     44  O1  UNL     1      23.875  -8.913 -41.070  0.00  0.00    +0.000 OA
ATOM     45  H1  UNL     1      24.152  -8.395 -40.245  0.00  0.00    +0.000 HD
ENDBRANCH  35  44
ENDBRANCH  34  35
ENDBRANCH  29  34
ENDBRANCH  28  31
ENDBRANCH  27  28
ENDBRANCH   1  27
TORSDOF 10
ENDMDL
MODEL 4
REMARK VINA RESULT:    -6.685      3.067      9.031
REMARK INTER + INTRA:         -12.160
REMARK INTER:                  -8.893
REMARK INTRA:                  -3.268
REMARK UNBOUND:                -1.762
REMARK  Name = resultss/4CJN/ligands/lig_349_t1.pdb
REMARK  10 active torsions:
REMARK  status: ('A' for Active; 'I' for Inactive)
REMARK    1  A    between atoms: O1_1  and  C1_2
REMARK    2  A    between atoms: C1_2  and  C2_3
REMARK    3  A    between atoms: C2_3  and  N1_4
REMARK    4  A    between atoms: C4_6  and  C5_7
REMARK    5  A    between atoms: C5_7  and  O2_8
REMARK    6  A    between atoms: O2_8  and  C6_9
REMARK    7  A    between atoms: C9_12  and  C10_13
REMARK    8  A    between atoms: N3_23  and  N4_24
REMARK    9  A    between atoms: N4_24  and  C18_25
REMARK   10  A    between atoms: N7_35  and  C26_36
REMARK                            x       y       z     vdW  Elec       q    Type
REMARK                         _______ _______ _______ _____ _____    ______ ____
ROOT
ATOM      1  C6  UNL     1      25.436  -8.075 -38.396  0.00  0.00    +0.000 A 
ATOM      2  C7  UNL     1      26.480  -8.946 -38.720  0.00  0.00    +0.000 A 
ATOM      3  C8  UNL     1      27.449  -8.579 -39.658  0.00  0.00    +0.000 A 
ATOM      4  C9  UNL     1      27.390  -7.324 -40.287  0.00  0.00    +0.000 A 
ATOM      5  C24 UNL     1      26.344  -6.446 -39.957  0.00  0.00    +0.000 A 
ATOM      6  C25 UNL     1      25.375  -6.817 -39.020  0.00  0.00    +0.000 A 
ENDROOT
BRANCH   4   7
ATOM      7  C10 UNL     1      28.414  -6.930 -41.330  0.00  0.00    +0.000 C 
ATOM      8  N2  UNL     1      29.720  -6.704 -40.700  0.00  0.00    +0.000 N 
ATOM      9  C11 UNL     1      30.752  -7.701 -40.665  0.00  0.00    +0.000 A 
ATOM     10  C12 UNL     1      31.881  -7.518 -39.853  0.00  0.00    +0.000 A 
ATOM     11  C13 UNL     1      32.877  -8.498 -39.802  0.00  0.00    +0.000 A 
ATOM     12  C14 UNL     1      32.753  -9.663 -40.563  0.00  0.00    +0.000 A 
ATOM     13  C15 UNL     1      31.635  -9.849 -41.382  0.00  0.00    +0.000 A 
ATOM     14  C16 UNL     1      30.631  -8.866 -41.439  0.00  0.00    +0.000 A 
ATOM     15  C17 UNL     1      29.450  -9.018 -42.304  0.00  0.00    +0.000 C 
ATOM     16  O3  UNL     1      29.279 -10.079 -42.965  0.00  0.00    +0.000 OA
ATOM     17  N3  UNL     1      28.487  -7.951 -42.387  0.00  0.00    +0.000 N 
ATOM     18  H10 UNL     1      29.842  -5.832 -40.137  0.00  0.00    +0.000 HD
BRANCH  17  19
ATOM     19  N4  UNL     1      27.450  -7.998 -43.342  0.00  0.00    +0.000 N 
ATOM     20  H15 UNL     1      27.698  -7.960 -44.355  0.00  0.00    +0.000 HD
BRANCH  19  21
ATOM     21  C18 UNL     1      26.074  -8.222 -42.990  0.00  0.00    +0.000 A 
ATOM     22  C19 UNL     1      25.138  -7.193 -43.173  0.00  0.00    +0.000 A 
ATOM     23  C20 UNL     1      23.794  -7.395 -42.848  0.00  0.00    +0.000 A 
ATOM     24  C21 UNL     1      23.372  -8.629 -42.348  0.00  0.00    +0.000 A 
ATOM     25  C22 UNL     1      24.293  -9.667 -42.181  0.00  0.00    +0.000 A 
ATOM     26  C23 UNL     1      25.639  -9.469 -42.506  0.00  0.00    +0.000 A 
ENDBRANCH  19  21
ENDBRANCH  17  19
ENDBRANCH   4   7
BRANCH   1  27
ATOM     27  O2  UNL     1      24.483  -8.498 -37.457  0.00  0.00    +0.000 OA
BRANCH  27  28
ATOM     28  C5  UNL     1      23.806  -7.630 -36.552  0.00  0.00    +0.000 C 
BRANCH  28  31
ATOM     29  N1  UNL     1      26.131  -7.013 -33.839  0.00  0.00    +0.000 N 
ATOM     30  C3  UNL     1      25.776  -6.826 -35.121  0.00  0.00    +0.000 A 
ATOM     31  C4  UNL     1      24.597  -7.516 -35.291  0.00  0.00    +0.000 A 
ATOM     32  N5  UNL     1      24.263  -8.091 -34.117  0.00  0.00    +0.000 NA
ATOM     33  N6  UNL     1      25.212  -7.764 -33.251  0.00  0.00    +0.000 NA
BRANCH  29  34
ATOM     34  C2  UNL     1      27.290  -6.441 -33.162  0.00  0.00    +0.000 C 
BRANCH  34  35
ATOM     35  C1  UNL     1      27.824  -7.418 -32.148  0.00  0.00    +0.000 C 
ATOM     36  N7  UNL     1      28.493  -8.488 -32.477  0.00  0.00    +0.000 NA
BRANCH  36  37
ATOM     37  C26 UNL     1      28.915  -8.847 -33.798  0.00  0.00    +0.000 A 
ATOM     38  C27 UNL     1      30.187  -8.484 -34.270  0.00  0.00    +0.000 A 
ATOM     39  C28 UNL     1      30.602  -8.879 -35.546  0.00  0.00    +0.000 A 
ATOM     40  C29 UNL     1      29.758  -9.656 -36.348  0.00  0.00    +0.000 A 
ATOM     41 CL1  UNL     1      30.282 -10.154 -37.945  0.00  0.00    +0.000 Cl
ATOM     42  C30 UNL     1      28.502 -10.046 -35.868  0.00  0.00    +0.000 A 
ATOM     43  C31 UNL     1      28.087  -9.652 -34.592  0.00  0.00    +0.000 A 
ENDBRANCH  36  37
BRANCH  35  44
ATOM     44  O1  UNL     1      27.523  -7.198 -30.805  0.00  0.00    +0.000 OA
ATOM     45  H1  UNL     1      26.642  -6.782 -30.528  0.00  0.00    +0.000 HD
ENDBRANCH  35  44
ENDBRANCH  34  35
ENDBRANCH  29  34
ENDBRANCH  28  31
ENDBRANCH  27  28
ENDBRANCH   1  27
TORSDOF 10
ENDMDL
MODEL 5
REMARK VINA RESULT:    -6.605      1.767      4.549
REMARK INTER + INTRA:         -12.035
REMARK INTER:                 -10.281
REMARK INTRA:                  -1.753
REMARK UNBOUND:                -1.762
REMARK  Name = resultss/4CJN/ligands/lig_349_t1.pdb
REMARK  10 active torsions:
REMARK  status: ('A' for Active; 'I' for Inactive)
REMARK    1  A    between atoms: O1_1  and  C1_2
REMARK    2  A    between atoms: C1_2  and  C2_3
REMARK    3  A    between atoms: C2_3  and  N1_4
REMARK    4  A    between atoms: C4_6  and  C5_7
REMARK    5  A    between atoms: C5_7  and  O2_8
REMARK    6  A    between atoms: O2_8  and  C6_9
REMARK    7  A    between atoms: C9_12  and  C10_13
REMARK    8  A    between atoms: N3_23  and  N4_24
REMARK    9  A    between atoms: N4_24  and  C18_25
REMARK   10  A    between atoms: N7_35  and  C26_36
REMARK                            x       y       z     vdW  Elec       q    Type
REMARK                         _______ _______ _______ _____ _____    ______ ____
ROOT
ATOM      1  C6  UNL     1      25.303  -7.457 -40.756  0.00  0.00    +0.000 A 
ATOM      2  C7  UNL     1      24.970  -8.733 -40.290  0.00  0.00    +0.000 A 
ATOM      3  C8  UNL     1      25.392  -9.163 -39.030  0.00  0.00    +0.000 A 
ATOM      4  C9  UNL     1      26.156  -8.317 -38.208  0.00  0.00    +0.000 A 
ATOM      5  C24 UNL     1      26.486  -7.033 -38.674  0.00  0.00    +0.000 A 
ATOM      6  C25 UNL     1      26.064  -6.606 -39.937  0.00  0.00    +0.000 A 
ENDROOT
BRANCH   4   7
ATOM      7  C10 UNL     1      26.648  -8.786 -36.855  0.00  0.00    +0.000 C 
ATOM      8  N2  UNL     1      27.803  -9.678 -37.017  0.00  0.00    +0.000 N 
ATOM      9  C11 UNL     1      29.159  -9.228 -36.891  0.00  0.00    +0.000 A 
ATOM     10  C12 UNL     1      30.217 -10.062 -37.284  0.00  0.00    +0.000 A 
ATOM     11  C13 UNL     1      31.538  -9.617 -37.182  0.00  0.00    +0.000 A 
ATOM     12  C14 UNL     1      31.811  -8.340 -36.684  0.00  0.00    +0.000 A 
ATOM     13  C15 UNL     1      30.763  -7.506 -36.283  0.00  0.00    +0.000 A 
ATOM     14  C16 UNL     1      29.432  -7.949 -36.381  0.00  0.00    +0.000 A 
ATOM     15  C17 UNL     1      28.304  -7.107 -35.949  0.00  0.00    +0.000 C 
ATOM     16  O3  UNL     1      28.509  -5.931 -35.545  0.00  0.00    +0.000 OA
ATOM     17  N3  UNL     1      26.965  -7.633 -35.998  0.00  0.00    +0.000 N 
ATOM     18  H10 UNL     1      27.622 -10.644 -37.374  0.00  0.00    +0.000 HD
BRANCH  17  19
ATOM     19  N4  UNL     1      25.895  -6.916 -35.422  0.00  0.00    +0.000 N 
ATOM     20  H15 UNL     1      25.867  -5.879 -35.535  0.00  0.00    +0.000 HD
BRANCH  19  21
ATOM     21  C18 UNL     1      24.774  -7.560 -34.793  0.00  0.00    +0.000 A 
ATOM     22  C19 UNL     1      23.502  -7.453 -35.373  0.00  0.00    +0.000 A 
ATOM     23  C20 UNL     1      22.401  -8.081 -34.783  0.00  0.00    +0.000 A 
ATOM     24  C21 UNL     1      22.565  -8.831 -33.616  0.00  0.00    +0.000 A 
ATOM     25  C22 UNL     1      23.833  -8.960 -33.041  0.00  0.00    +0.000 A 
ATOM     26  C23 UNL     1      24.936  -8.333 -33.629  0.00  0.00    +0.000 A 
ENDBRANCH  19  21
ENDBRANCH  17  19
ENDBRANCH   4   7
BRANCH   1  27
ATOM     27  O2  UNL     1      24.864  -7.080 -42.034  0.00  0.00    +0.000 OA
BRANCH  27  28
ATOM     28  C5  UNL     1      25.721  -6.613 -43.073  0.00  0.00    +0.000 C 
BRANCH  28  31
ATOM     29  N1  UNL     1      28.623  -8.782 -42.924  0.00  0.00    +0.000 N 
ATOM     30  C3  UNL     1      27.305  -8.629 -43.137  0.00  0.00    +0.000 A 
ATOM     31  C4  UNL     1      27.048  -7.288 -42.960  0.00  0.00    +0.000 A 
ATOM     32  N5  UNL     1      28.206  -6.665 -42.656  0.00  0.00    +0.000 NA
ATOM     33  N6  UNL     1      29.147  -7.598 -42.646  0.00  0.00    +0.000 NA
BRANCH  29  34
ATOM     34  C2  UNL     1      29.387 -10.019 -43.039  0.00  0.00    +0.000 C 
BRANCH  34  35
ATOM     35  C1  UNL     1      30.432 -10.079 -41.956  0.00  0.00    +0.000 C 
ATOM     36  N7  UNL     1      31.564 -10.712 -42.096  0.00  0.00    +0.000 NA
BRANCH  36  37
ATOM     37  C26 UNL     1      32.039 -11.339 -43.293  0.00  0.00    +0.000 A 
ATOM     38  C27 UNL     1      32.829 -10.629 -44.212  0.00  0.00    +0.000 A 
ATOM     39  C28 UNL     1      33.321 -11.266 -45.356  0.00  0.00    +0.000 A 
ATOM     40  C29 UNL     1      33.046 -12.620 -45.576  0.00  0.00    +0.000 A 
ATOM     41 CL1  UNL     1      33.668 -13.419 -47.007  0.00  0.00    +0.000 Cl
ATOM     42  C30 UNL     1      32.285 -13.339 -44.646  0.00  0.00    +0.000 A 
ATOM     43  C31 UNL     1      31.792 -12.702 -43.503  0.00  0.00    +0.000 A 
ENDBRANCH  36  37
BRANCH  35  44
ATOM     44  O1  UNL     1      30.136  -9.491 -40.728  0.00  0.00    +0.000 OA
ATOM     45  H1  UNL     1      30.482  -9.887 -39.863  0.00  0.00    +0.000 HD
ENDBRANCH  35  44
ENDBRANCH  34  35
ENDBRANCH  29  34
ENDBRANCH  28  31
ENDBRANCH  27  28
ENDBRANCH   1  27
TORSDOF 10
ENDMDL
MODEL 6
REMARK VINA RESULT:    -6.585      3.588      5.582
REMARK INTER + INTRA:         -12.003
REMARK INTER:                  -9.694
REMARK INTRA:                  -2.310
REMARK UNBOUND:                -1.762
REMARK  Name = resultss/4CJN/ligands/lig_349_t1.pdb
REMARK  10 active torsions:
REMARK  status: ('A' for Active; 'I' for Inactive)
REMARK    1  A    between atoms: O1_1  and  C1_2
REMARK    2  A    between atoms: C1_2  and  C2_3
REMARK    3  A    between atoms: C2_3  and  N1_4
REMARK    4  A    between atoms: C4_6  and  C5_7
REMARK    5  A    between atoms: C5_7  and  O2_8
REMARK    6  A    between atoms: O2_8  and  C6_9
REMARK    7  A    between atoms: C9_12  and  C10_13
REMARK    8  A    between atoms: N3_23  and  N4_24
REMARK    9  A    between atoms: N4_24  and  C18_25
REMARK   10  A    between atoms: N7_35  and  C26_36
REMARK                            x       y       z     vdW  Elec       q    Type
REMARK                         _______ _______ _______ _____ _____    ______ ____
ROOT
ATOM      1  C6  UNL     1      28.609  -9.359 -38.714  0.00  0.00    +0.000 A 
ATOM      2  C7  UNL     1      28.918  -7.997 -38.764  0.00  0.00    +0.000 A 
ATOM      3  C8  UNL     1      28.405  -7.115 -37.809  0.00  0.00    +0.000 A 
ATOM      4  C9  UNL     1      27.573  -7.586 -36.780  0.00  0.00    +0.000 A 
ATOM      5  C24 UNL     1      27.265  -8.956 -36.727  0.00  0.00    +0.000 A 
ATOM      6  C25 UNL     1      27.779  -9.836 -37.684  0.00  0.00    +0.000 A 
ENDROOT
BRANCH   4   7
ATOM      7  C10 UNL     1      26.983  -6.633 -35.761  0.00  0.00    +0.000 C 
ATOM      8  N2  UNL     1      25.524  -6.567 -35.913  0.00  0.00    +0.000 N 
ATOM      9  C11 UNL     1      24.621  -7.334 -35.104  0.00  0.00    +0.000 A 
ATOM     10  C12 UNL     1      23.262  -7.411 -35.445  0.00  0.00    +0.000 A 
ATOM     11  C13 UNL     1      22.385  -8.174 -34.669  0.00  0.00    +0.000 A 
ATOM     12  C14 UNL     1      22.857  -8.861 -33.548  0.00  0.00    +0.000 A 
ATOM     13  C15 UNL     1      24.208  -8.783 -33.197  0.00  0.00    +0.000 A 
ATOM     14  C16 UNL     1      25.095  -8.015 -33.972  0.00  0.00    +0.000 A 
ATOM     15  C17 UNL     1      26.520  -7.893 -33.621  0.00  0.00    +0.000 C 
ATOM     16  O3  UNL     1      26.991  -8.541 -32.648  0.00  0.00    +0.000 OA
ATOM     17  N3  UNL     1      27.373  -7.034 -34.401  0.00  0.00    +0.000 N 
ATOM     18  H10 UNL     1      25.147  -6.046 -36.736  0.00  0.00    +0.000 HD
BRANCH  17  19
ATOM     19  N4  UNL     1      28.690  -6.760 -33.976  0.00  0.00    +0.000 N 
ATOM     20  H15 UNL     1      28.839  -6.041 -33.234  0.00  0.00    +0.000 HD
BRANCH  19  21
ATOM     21  C18 UNL     1      29.827  -7.514 -34.427  0.00  0.00    +0.000 A 
ATOM     22  C19 UNL     1      30.879  -6.854 -35.080  0.00  0.00    +0.000 A 
ATOM     23  C20 UNL     1      31.998  -7.568 -35.516  0.00  0.00    +0.000 A 
ATOM     24  C21 UNL     1      32.083  -8.944 -35.292  0.00  0.00    +0.000 A 
ATOM     25  C22 UNL     1      31.050  -9.608 -34.625  0.00  0.00    +0.000 A 
ATOM     26  C23 UNL     1      29.928  -8.897 -34.187  0.00  0.00    +0.000 A 
ENDBRANCH  19  21
ENDBRANCH  17  19
ENDBRANCH   4   7
BRANCH   1  27
ATOM     27  O2  UNL     1      29.140 -10.199 -39.705  0.00  0.00    +0.000 OA
BRANCH  27  28
ATOM     28  C5  UNL     1      28.368 -11.106 -40.487  0.00  0.00    +0.000 C 
BRANCH  28  31
ATOM     29  N1  UNL     1      25.456  -9.561 -41.995  0.00  0.00    +0.000 N 
ATOM     30  C3  UNL     1      25.978 -10.387 -41.073  0.00  0.00    +0.000 A 
ATOM     31  C4  UNL     1      27.342 -10.345 -41.259  0.00  0.00    +0.000 A 
ATOM     32  N5  UNL     1      27.612  -9.496 -42.272  0.00  0.00    +0.000 NA
ATOM     33  N6  UNL     1      26.445  -9.030 -42.697  0.00  0.00    +0.000 NA
BRANCH  29  34
ATOM     34  C2  UNL     1      24.046  -9.230 -42.172  0.00  0.00    +0.000 C 
BRANCH  34  35
ATOM     35  C1  UNL     1      23.756  -7.882 -41.566  0.00  0.00    +0.000 C 
ATOM     36  N7  UNL     1      23.545  -6.812 -42.282  0.00  0.00    +0.000 NA
BRANCH  36  37
ATOM     37  C26 UNL     1      23.445  -6.759 -43.711  0.00  0.00    +0.000 A 
ATOM     38  C27 UNL     1      24.588  -6.570 -44.505  0.00  0.00    +0.000 A 
ATOM     39  C28 UNL     1      24.481  -6.563 -45.899  0.00  0.00    +0.000 A 
ATOM     40  C29 UNL     1      23.237  -6.765 -46.508  0.00  0.00    +0.000 A 
ATOM     41 CL1  UNL     1      23.106  -6.761 -48.256  0.00  0.00    +0.000 Cl
ATOM     42  C30 UNL     1      22.101  -6.985 -45.719  0.00  0.00    +0.000 A 
ATOM     43  C31 UNL     1      22.207  -6.993 -44.325  0.00  0.00    +0.000 A 
ENDBRANCH  36  37
BRANCH  35  44
ATOM     44  O1  UNL     1      23.789  -7.767 -40.178  0.00  0.00    +0.000 OA
ATOM     45  H1  UNL     1      24.035  -6.892 -39.732  0.00  0.00    +0.000 HD
ENDBRANCH  35  44
ENDBRANCH  34  35
ENDBRANCH  29  34
ENDBRANCH  28  31
ENDBRANCH  27  28
ENDBRANCH   1  27
TORSDOF 10
ENDMDL
MODEL 7
REMARK VINA RESULT:    -6.435      2.916      8.792
REMARK INTER + INTRA:         -11.771
REMARK INTER:                  -8.997
REMARK INTRA:                  -2.774
REMARK UNBOUND:                -1.762
REMARK  Name = resultss/4CJN/ligands/lig_349_t1.pdb
REMARK  10 active torsions:
REMARK  status: ('A' for Active; 'I' for Inactive)
REMARK    1  A    between atoms: O1_1  and  C1_2
REMARK    2  A    between atoms: C1_2  and  C2_3
REMARK    3  A    between atoms: C2_3  and  N1_4
REMARK    4  A    between atoms: C4_6  and  C5_7
REMARK    5  A    between atoms: C5_7  and  O2_8
REMARK    6  A    between atoms: O2_8  and  C6_9
REMARK    7  A    between atoms: C9_12  and  C10_13
REMARK    8  A    between atoms: N3_23  and  N4_24
REMARK    9  A    between atoms: N4_24  and  C18_25
REMARK   10  A    between atoms: N7_35  and  C26_36
REMARK                            x       y       z     vdW  Elec       q    Type
REMARK                         _______ _______ _______ _____ _____    ______ ____
ROOT
ATOM      1  C6  UNL     1      26.048  -8.371 -37.323  0.00  0.00    +0.000 A 
ATOM      2  C7  UNL     1      26.765  -9.282 -38.104  0.00  0.00    +0.000 A 
ATOM      3  C8  UNL     1      27.564  -8.841 -39.161  0.00  0.00    +0.000 A 
ATOM      4  C9  UNL     1      27.663  -7.470 -39.454  0.00  0.00    +0.000 A 
ATOM      5  C24 UNL     1      26.947  -6.553 -38.666  0.00  0.00    +0.000 A 
ATOM      6  C25 UNL     1      26.147  -6.998 -37.609  0.00  0.00    +0.000 A 
ENDROOT
BRANCH   4   7
ATOM      7  C10 UNL     1      28.498  -6.983 -40.619  0.00  0.00    +0.000 C 
ATOM      8  N2  UNL     1      29.856  -7.534 -40.536  0.00  0.00    +0.000 N 
ATOM      9  C11 UNL     1      30.270  -8.699 -41.265  0.00  0.00    +0.000 A 
ATOM     10  C12 UNL     1      31.496  -9.315 -40.971  0.00  0.00    +0.000 A 
ATOM     11  C13 UNL     1      31.891 -10.461 -41.665  0.00  0.00    +0.000 A 
ATOM     12  C14 UNL     1      31.068 -10.998 -42.658  0.00  0.00    +0.000 A 
ATOM     13  C15 UNL     1      29.849 -10.386 -42.963  0.00  0.00    +0.000 A 
ATOM     14  C16 UNL     1      29.447  -9.230 -42.269  0.00  0.00    +0.000 A 
ATOM     15  C17 UNL     1      28.180  -8.547 -42.577  0.00  0.00    +0.000 C 
ATOM     16  O3  UNL     1      27.388  -9.032 -43.430  0.00  0.00    +0.000 OA
ATOM     17  N3  UNL     1      27.847  -7.324 -41.893  0.00  0.00    +0.000 N 
ATOM     18  H10 UNL     1      30.495  -7.138 -39.811  0.00  0.00    +0.000 HD
BRANCH  17  19
ATOM     19  N4  UNL     1      26.733  -6.560 -42.299  0.00  0.00    +0.000 N 
ATOM     20  H15 UNL     1      26.886  -5.572 -42.603  0.00  0.00    +0.000 HD
BRANCH  19  21
ATOM     21  C18 UNL     1      25.414  -7.114 -42.435  0.00  0.00    +0.000 A 
ATOM     22  C19 UNL     1      24.723  -6.963 -43.647  0.00  0.00    +0.000 A 
ATOM     23  C20 UNL     1      23.445  -7.506 -43.802  0.00  0.00    +0.000 A 
ATOM     24  C21 UNL     1      22.851  -8.214 -42.754  0.00  0.00    +0.000 A 
ATOM     25  C22 UNL     1      23.540  -8.387 -41.551  0.00  0.00    +0.000 A 
ATOM     26  C23 UNL     1      24.820  -7.846 -41.391  0.00  0.00    +0.000 A 
ENDBRANCH  19  21
ENDBRANCH  17  19
ENDBRANCH   4   7
BRANCH   1  27
ATOM     27  O2  UNL     1      25.251  -8.869 -36.282  0.00  0.00    +0.000 OA
BRANCH  27  28
ATOM     28  C5  UNL     1      25.407  -8.513 -34.910  0.00  0.00    +0.000 C 
BRANCH  28  31
ATOM     29  N1  UNL     1      28.754  -9.008 -33.608  0.00  0.00    +0.000 N 
ATOM     30  C3  UNL     1      27.727  -8.183 -33.871  0.00  0.00    +0.000 A 
ATOM     31  C4  UNL     1      26.745  -8.969 -34.430  0.00  0.00    +0.000 A 
ATOM     32  N5  UNL     1      27.191 -10.241 -34.483  0.00  0.00    +0.000 NA
ATOM     33  N6  UNL     1      28.414 -10.235 -33.972  0.00  0.00    +0.000 NA
BRANCH  29  34
ATOM     34  C2  UNL     1      30.016  -8.655 -32.967  0.00  0.00    +0.000 C 
BRANCH  34  35
ATOM     35  C1  UNL     1      30.963  -9.824 -33.020  0.00  0.00    +0.000 C 
ATOM     36  N7  UNL     1      31.771 -10.038 -34.021  0.00  0.00    +0.000 NA
BRANCH  36  37
ATOM     37  C26 UNL     1      31.970  -9.173 -35.146  0.00  0.00    +0.000 A 
ATOM     38  C27 UNL     1      32.998  -8.216 -35.144  0.00  0.00    +0.000 A 
ATOM     39  C28 UNL     1      33.208  -7.408 -36.266  0.00  0.00    +0.000 A 
ATOM     40  C29 UNL     1      32.407  -7.566 -37.403  0.00  0.00    +0.000 A 
ATOM     41 CL1  UNL     1      32.675  -6.555 -38.810  0.00  0.00    +0.000 Cl
ATOM     42  C30 UNL     1      31.402  -8.540 -37.419  0.00  0.00    +0.000 A 
ATOM     43  C31 UNL     1      31.191  -9.349 -36.298  0.00  0.00    +0.000 A 
ENDBRANCH  36  37
BRANCH  35  44
ATOM     44  O1  UNL     1      30.915 -10.753 -31.983  0.00  0.00    +0.000 OA
ATOM     45  H1  UNL     1      30.423 -10.550 -31.121  0.00  0.00    +0.000 HD
ENDBRANCH  35  44
ENDBRANCH  34  35
ENDBRANCH  29  34
ENDBRANCH  28  31
ENDBRANCH  27  28
ENDBRANCH   1  27
TORSDOF 10
ENDMDL
MODEL 8
REMARK VINA RESULT:    -6.426      3.045      8.930
REMARK INTER + INTRA:         -11.756
REMARK INTER:                  -8.643
REMARK INTRA:                  -3.113
REMARK UNBOUND:                -1.762
REMARK  Name = resultss/4CJN/ligands/lig_349_t1.pdb
REMARK  10 active torsions:
REMARK  status: ('A' for Active; 'I' for Inactive)
REMARK    1  A    between atoms: O1_1  and  C1_2
REMARK    2  A    between atoms: C1_2  and  C2_3
REMARK    3  A    between atoms: C2_3  and  N1_4
REMARK    4  A    between atoms: C4_6  and  C5_7
REMARK    5  A    between atoms: C5_7  and  O2_8
REMARK    6  A    between atoms: O2_8  and  C6_9
REMARK    7  A    between atoms: C9_12  and  C10_13
REMARK    8  A    between atoms: N3_23  and  N4_24
REMARK    9  A    between atoms: N4_24  and  C18_25
REMARK   10  A    between atoms: N7_35  and  C26_36
REMARK                            x       y       z     vdW  Elec       q    Type
REMARK                         _______ _______ _______ _____ _____    ______ ____
ROOT
ATOM      1  C6  UNL     1      27.804  -9.548 -37.101  0.00  0.00    +0.000 A 
ATOM      2  C7  UNL     1      28.543 -10.380 -37.948  0.00  0.00    +0.000 A 
ATOM      3  C8  UNL     1      29.259  -9.847 -39.023  0.00  0.00    +0.000 A 
ATOM      4  C9  UNL     1      29.250  -8.463 -39.267  0.00  0.00    +0.000 A 
ATOM      5  C24 UNL     1      28.512  -7.626 -38.413  0.00  0.00    +0.000 A 
ATOM      6  C25 UNL     1      27.796  -8.162 -37.339  0.00  0.00    +0.000 A 
ENDROOT
BRANCH   4   7
ATOM      7  C10 UNL     1      29.993  -7.879 -40.450  0.00  0.00    +0.000 C 
ATOM      8  N2  UNL     1      31.440  -8.041 -40.271  0.00  0.00    +0.000 N 
ATOM      9  C11 UNL     1      32.183  -9.115 -40.866  0.00  0.00    +0.000 A 
ATOM     10  C12 UNL     1      33.509  -9.356 -40.475  0.00  0.00    +0.000 A 
ATOM     11  C13 UNL     1      34.227 -10.415 -41.037  0.00  0.00    +0.000 A 
ATOM     12  C14 UNL     1      33.628 -11.236 -41.995  0.00  0.00    +0.000 A 
ATOM     13  C15 UNL     1      32.310 -10.998 -42.397  0.00  0.00    +0.000 A 
ATOM     14  C16 UNL     1      31.584  -9.933 -41.836  0.00  0.00    +0.000 A 
ATOM     15  C17 UNL     1      30.202  -9.640 -42.249  0.00  0.00    +0.000 C 
ATOM     16  O3  UNL     1      29.612 -10.391 -43.072  0.00  0.00    +0.000 OA
ATOM     17  N3  UNL     1      29.524  -8.492 -41.702  0.00  0.00    +0.000 N 
ATOM     18  H10 UNL     1      31.913  -7.427 -39.571  0.00  0.00    +0.000 HD
BRANCH  17  19
ATOM     19  N4  UNL     1      28.274  -8.089 -42.217  0.00  0.00    +0.000 N 
ATOM     20  H15 UNL     1      28.245  -7.605 -43.141  0.00  0.00    +0.000 HD
BRANCH  19  21
ATOM     21  C18 UNL     1      27.027  -8.425 -41.587  0.00  0.00    +0.000 A 
ATOM     22  C19 UNL     1      26.629  -9.769 -41.516  0.00  0.00    +0.000 A 
ATOM     23  C20 UNL     1      25.425 -10.117 -40.897  0.00  0.00    +0.000 A 
ATOM     24  C21 UNL     1      24.615  -9.127 -40.334  0.00  0.00    +0.000 A 
ATOM     25  C22 UNL     1      25.012  -7.788 -40.382  0.00  0.00    +0.000 A 
ATOM     26  C23 UNL     1      26.217  -7.436 -41.000  0.00  0.00    +0.000 A 
ENDBRANCH  19  21
ENDBRANCH  17  19
ENDBRANCH   4   7
BRANCH   1  27
ATOM     27  O2  UNL     1      27.094 -10.136 -36.044  0.00  0.00    +0.000 OA
BRANCH  27  28
ATOM     28  C5  UNL     1      26.430  -9.405 -35.016  0.00  0.00    +0.000 C 
BRANCH  28  31
ATOM     29  N1  UNL     1      29.280  -8.615 -32.919  0.00  0.00    +0.000 N 
ATOM     30  C3  UNL     1      28.786  -9.197 -34.025  0.00  0.00    +0.000 A 
ATOM     31  C4  UNL     1      27.431  -8.951 -34.006  0.00  0.00    +0.000 A 
ATOM     32  N5  UNL     1      27.141  -8.226 -32.906  0.00  0.00    +0.000 NA
ATOM     33  N6  UNL     1      28.286  -8.033 -32.266  0.00  0.00    +0.000 NA
BRANCH  29  34
ATOM     34  C2  UNL     1      30.681  -8.559 -32.515  0.00  0.00    +0.000 C 
BRANCH  34  35
ATOM     35  C1  UNL     1      31.324  -9.908 -32.706  0.00  0.00    +0.000 C 
ATOM     36  N7  UNL     1      32.070 -10.199 -33.735  0.00  0.00    +0.000 NA
BRANCH  36  37
ATOM     37  C26 UNL     1      32.483  -9.291 -34.764  0.00  0.00    +0.000 A 
ATOM     38  C27 UNL     1      33.640  -8.510 -34.611  0.00  0.00    +0.000 A 
ATOM     39  C28 UNL     1      34.055  -7.660 -35.642  0.00  0.00    +0.000 A 
ATOM     40  C29 UNL     1      33.328  -7.601 -36.836  0.00  0.00    +0.000 A 
ATOM     41 CL1  UNL     1      33.852  -6.538 -38.129  0.00  0.00    +0.000 Cl
ATOM     42  C30 UNL     1      32.192  -8.402 -37.003  0.00  0.00    +0.000 A 
ATOM     43  C31 UNL     1      31.777  -9.252 -35.974  0.00  0.00    +0.000 A 
ENDBRANCH  36  37
BRANCH  35  44
ATOM     44  O1  UNL     1      31.044 -10.904 -31.773  0.00  0.00    +0.000 OA
ATOM     45  H1  UNL     1      30.549 -11.746 -32.040  0.00  0.00    +0.000 HD
ENDBRANCH  35  44
ENDBRANCH  34  35
ENDBRANCH  29  34
ENDBRANCH  28  31
ENDBRANCH  27  28
ENDBRANCH   1  27
TORSDOF 10
ENDMDL
MODEL 9
REMARK VINA RESULT:    -6.248      4.284      8.877
REMARK INTER + INTRA:         -11.480
REMARK INTER:                  -9.471
REMARK INTRA:                  -2.009
REMARK UNBOUND:                -1.762
REMARK  Name = resultss/4CJN/ligands/lig_349_t1.pdb
REMARK  10 active torsions:
REMARK  status: ('A' for Active; 'I' for Inactive)
REMARK    1  A    between atoms: O1_1  and  C1_2
REMARK    2  A    between atoms: C1_2  and  C2_3
REMARK    3  A    between atoms: C2_3  and  N1_4
REMARK    4  A    between atoms: C4_6  and  C5_7
REMARK    5  A    between atoms: C5_7  and  O2_8
REMARK    6  A    between atoms: O2_8  and  C6_9
REMARK    7  A    between atoms: C9_12  and  C10_13
REMARK    8  A    between atoms: N3_23  and  N4_24
REMARK    9  A    between atoms: N4_24  and  C18_25
REMARK   10  A    between atoms: N7_35  and  C26_36
REMARK                            x       y       z     vdW  Elec       q    Type
REMARK                         _______ _______ _______ _____ _____    ______ ____
ROOT
ATOM      1  C6  UNL     1      27.377 -10.171 -38.485  0.00  0.00    +0.000 A 
ATOM      2  C7  UNL     1      27.624 -11.170 -39.432  0.00  0.00    +0.000 A 
ATOM      3  C8  UNL     1      27.258 -10.991 -40.768  0.00  0.00    +0.000 A 
ATOM      4  C9  UNL     1      26.638  -9.799 -41.182  0.00  0.00    +0.000 A 
ATOM      5  C24 UNL     1      26.394  -8.793 -40.232  0.00  0.00    +0.000 A 
ATOM      6  C25 UNL     1      26.761  -8.976 -38.895  0.00  0.00    +0.000 A 
ENDROOT
BRANCH   4   7
ATOM      7  C10 UNL     1      26.205  -9.609 -42.621  0.00  0.00    +0.000 C 
ATOM      8  N2  UNL     1      24.741  -9.551 -42.707  0.00  0.00    +0.000 N 
ATOM      9  C11 UNL     1      24.012  -8.316 -42.760  0.00  0.00    +0.000 A 
ATOM     10  C12 UNL     1      22.618  -8.314 -42.605  0.00  0.00    +0.000 A 
ATOM     11  C13 UNL     1      21.909  -7.110 -42.635  0.00  0.00    +0.000 A 
ATOM     12  C14 UNL     1      22.586  -5.902 -42.824  0.00  0.00    +0.000 A 
ATOM     13  C15 UNL     1      23.974  -5.897 -42.988  0.00  0.00    +0.000 A 
ATOM     14  C16 UNL     1      24.693  -7.105 -42.960  0.00  0.00    +0.000 A 
ATOM     15  C17 UNL     1      26.152  -7.139 -43.150  0.00  0.00    +0.000 C 
ATOM     16  O3  UNL     1      26.802  -6.066 -43.270  0.00  0.00    +0.000 OA
ATOM     17  N3  UNL     1      26.834  -8.407 -43.190  0.00  0.00    +0.000 N 
ATOM     18  H10 UNL     1      24.213 -10.444 -42.583  0.00  0.00    +0.000 HD
BRANCH  17  19
ATOM     19  N4  UNL     1      28.196  -8.474 -43.550  0.00  0.00    +0.000 N 
ATOM     20  H15 UNL     1      28.477  -8.170 -44.509  0.00  0.00    +0.000 HD
BRANCH  19  21
ATOM     21  C18 UNL     1      29.234  -8.822 -42.618  0.00  0.00    +0.000 A 
ATOM     22  C19 UNL     1      29.974  -9.997 -42.816  0.00  0.00    +0.000 A 
ATOM     23  C20 UNL     1      30.995 -10.346 -41.928  0.00  0.00    +0.000 A 
ATOM     24  C21 UNL     1      31.293  -9.519 -40.842  0.00  0.00    +0.000 A 
ATOM     25  C22 UNL     1      30.574  -8.336 -40.648  0.00  0.00    +0.000 A 
ATOM     26  C23 UNL     1      29.552  -7.983 -41.535  0.00  0.00    +0.000 A 
ENDBRANCH  19  21
ENDBRANCH  17  19
ENDBRANCH   4   7
BRANCH   1  27
ATOM     27  O2  UNL     1      27.753 -10.408 -37.154  0.00  0.00    +0.000 OA
BRANCH  27  28
ATOM     28  C5  UNL     1      28.318  -9.424 -36.292  0.00  0.00    +0.000 C 
BRANCH  28  31
ATOM     29  N1  UNL     1      31.920  -9.316 -35.893  0.00  0.00    +0.000 N 
ATOM     30  C3  UNL     1      30.696  -9.036 -35.415  0.00  0.00    +0.000 A 
ATOM     31  C4  UNL     1      29.807  -9.509 -36.354  0.00  0.00    +0.000 A 
ATOM     32  N5  UNL     1      30.506 -10.068 -37.364  0.00  0.00    +0.000 NA
ATOM     33  N6  UNL     1      31.789  -9.940 -37.053  0.00  0.00    +0.000 NA
BRANCH  29  34
ATOM     34  C2  UNL     1      33.195  -9.053 -35.234  0.00  0.00    +0.000 C 
BRANCH  34  35
ATOM     35  C1  UNL     1      33.003  -8.052 -34.126  0.00  0.00    +0.000 C 
ATOM     36  N7  UNL     1      32.882  -8.394 -32.873  0.00  0.00    +0.000 NA
BRANCH  36  37
ATOM     37  C26 UNL     1      33.018  -9.718 -32.343  0.00  0.00    +0.000 A 
ATOM     38  C27 UNL     1      34.269 -10.200 -31.925  0.00  0.00    +0.000 A 
ATOM     39  C28 UNL     1      34.379 -11.479 -31.369  0.00  0.00    +0.000 A 
ATOM     40  C29 UNL     1      33.239 -12.274 -31.207  0.00  0.00    +0.000 A 
ATOM     41 CL1  UNL     1      33.378 -13.874 -30.505  0.00  0.00    +0.000 Cl
ATOM     42  C30 UNL     1      31.985 -11.783 -31.594  0.00  0.00    +0.000 A 
ATOM     43  C31 UNL     1      31.874 -10.505 -32.150  0.00  0.00    +0.000 A 
ENDBRANCH  36  37
BRANCH  35  44
ATOM     44  O1  UNL     1      32.877  -6.708 -34.472  0.00  0.00    +0.000 OA
ATOM     45  H1  UNL     1      32.917  -5.981 -33.768  0.00  0.00    +0.000 HD
ENDBRANCH  35  44
ENDBRANCH  34  35
ENDBRANCH  29  34
ENDBRANCH  28  31
ENDBRANCH  27  28
ENDBRANCH   1  27
TORSDOF 10
ENDMDL
