MODEL 1
REMARK VINA RESULT:    -6.268      0.000      0.000
REMARK INTER + INTRA:         -12.041
REMARK INTER:                 -10.666
REMARK INTRA:                  -1.375
REMARK UNBOUND:                -1.375
REMARK  Name = resultss/4CJN/ligands/lig_148_t0.pdb
REMARK  14 active torsions:
REMARK  status: ('A' for Active; 'I' for Inactive)
REMARK    1  A    between atoms: O1_1  and  C1_2
REMARK    2  A    between atoms: C1_2  and  C2_3
REMARK    3  A    between atoms: C3_4  and  O2_5
REMARK    4  A    between atoms: C4_6  and  O3_7
REMARK    5  A    between atoms: C5_8  and  O4_9
REMARK    6  A    between atoms: N1_11  and  C7_12
REMARK    7  A    between atoms: C7_12  and  C8_13
REMARK    8  A    between atoms: C8_13  and  C9_14
REMARK    9  A    between atoms: C9_14  and  C10_15
REMARK   10  A    between atoms: C10_15  and  C11_16
REMARK   11  A    between atoms: C11_16  and  O5_17
REMARK   12  A    between atoms: O5_17  and  C12_18
REMARK   13  A    between atoms: C12_18  and  C13_19
REMARK   14  A    between atoms: C16_22  and  C17_23
REMARK                            x       y       z     vdW  Elec       q    Type
REMARK                         _______ _______ _______ _____ _____    ______ ____
ROOT
ATOM      1  C9  UNL     1      25.315  -8.532 -39.450  0.00  0.00    +0.000 C 
ENDROOT
BRANCH   1   2
ATOM      2  C8  UNL     1      25.427  -7.725 -38.151  0.00  0.00    +0.000 C 
BRANCH   2   3
ATOM      3  C7  UNL     1      24.909  -8.524 -36.953  0.00  0.00    +0.000 C 
BRANCH   3   9
ATOM      4  C2  UNL     1      24.262  -8.281 -34.567  0.00  0.00    +0.000 C 
ATOM      5  C3  UNL     1      25.211  -9.195 -33.736  0.00  0.00    +0.000 C 
ATOM      6  C4  UNL     1      26.594  -8.562 -33.476  0.00  0.00    +0.000 C 
ATOM      7  C5  UNL     1      27.211  -8.008 -34.771  0.00  0.00    +0.000 C 
ATOM      8  C6  UNL     1      26.235  -7.046 -35.465  0.00  0.00    +0.000 C 
ATOM      9  N1  UNL     1      24.922  -7.667 -35.749  0.00  0.00    +0.000 NA
BRANCH   5  10
ATOM     10  O2  UNL     1      25.369 -10.425 -34.398  0.00  0.00    +0.000 OA
ATOM     11  H6  UNL     1      25.751 -11.064 -33.741  0.00  0.00    +0.000 HD
ENDBRANCH   5  10
BRANCH   6  12
ATOM     12  O3  UNL     1      26.476  -7.547 -32.511  0.00  0.00    +0.000 OA
ATOM     13  H8  UNL     1      26.283  -6.704 -33.000  0.00  0.00    +0.000 HD
ENDBRANCH   6  12
BRANCH   7  14
ATOM     14  O4  UNL     1      27.557  -9.069 -35.623  0.00  0.00    +0.000 OA
ATOM     15  H10 UNL     1      27.533  -9.898 -35.075  0.00  0.00    +0.000 HD
ENDBRANCH   7  14
BRANCH   4  16
ATOM     16  C1  UNL     1      23.593  -7.194 -33.708  0.00  0.00    +0.000 C 
BRANCH  16  17
ATOM     17  O1  UNL     1      23.474  -7.644 -32.388  0.00  0.00    +0.000 OA
ATOM     18  H1  UNL     1      24.252  -7.271 -31.897  0.00  0.00    +0.000 HD
ENDBRANCH  16  17
ENDBRANCH   4  16
ENDBRANCH   3   9
ENDBRANCH   2   3
ENDBRANCH   1   2
BRANCH   1  19
ATOM     19  C10 UNL     1      26.656  -8.564 -40.195  0.00  0.00    +0.000 C 
BRANCH  19  20
ATOM     20  C11 UNL     1      27.782  -7.913 -39.381  0.00  0.00    +0.000 C 
BRANCH  20  21
ATOM     21  O5  UNL     1      29.048  -8.148 -39.973  0.00  0.00    +0.000 OA
BRANCH  21  22
ATOM     22  C12 UNL     1      29.528  -9.444 -39.668  0.00  0.00    +0.000 C 
BRANCH  22  23
ATOM     23  C13 UNL     1      30.278 -10.021 -40.840  0.00  0.00    +0.000 A 
ATOM     24  C14 UNL     1      29.597 -10.707 -41.855  0.00  0.00    +0.000 A 
ATOM     25  C15 UNL     1      30.297 -11.234 -42.943  0.00  0.00    +0.000 A 
ATOM     26  C16 UNL     1      31.690 -11.084 -43.037  0.00  0.00    +0.000 A 
ATOM     27  C23 UNL     1      32.375 -10.406 -42.008  0.00  0.00    +0.000 A 
ATOM     28  F1  UNL     1      33.726 -10.284 -42.033  0.00  0.00    +0.000 F 
ATOM     29  C24 UNL     1      31.671  -9.877 -40.923  0.00  0.00    +0.000 A 
BRANCH  26  30
ATOM     30  C17 UNL     1      32.419 -11.633 -44.207  0.00  0.00    +0.000 A 
ATOM     31  C18 UNL     1      32.525 -13.024 -44.393  0.00  0.00    +0.000 A 
ATOM     32  C19 UNL     1      33.197 -13.540 -45.505  0.00  0.00    +0.000 A 
ATOM     33  C20 UNL     1      33.766 -12.676 -46.443  0.00  0.00    +0.000 A 
ATOM     34  C21 UNL     1      33.662 -11.295 -46.272  0.00  0.00    +0.000 A 
ATOM     35  C22 UNL     1      32.989 -10.773 -45.163  0.00  0.00    +0.000 A 
ENDBRANCH  26  30
ENDBRANCH  22  23
ENDBRANCH  21  22
ENDBRANCH  20  21
ENDBRANCH  19  20
ENDBRANCH   1  19
TORSDOF 14
ENDMDL
MODEL 2
REMARK VINA RESULT:    -6.237      4.210      9.579
REMARK INTER + INTRA:         -11.987
REMARK INTER:                  -9.404
REMARK INTRA:                  -2.584
REMARK UNBOUND:                -1.375
REMARK  Name = resultss/4CJN/ligands/lig_148_t0.pdb
REMARK  14 active torsions:
REMARK  status: ('A' for Active; 'I' for Inactive)
REMARK    1  A    between atoms: O1_1  and  C1_2
REMARK    2  A    between atoms: C1_2  and  C2_3
REMARK    3  A    between atoms: C3_4  and  O2_5
REMARK    4  A    between atoms: C4_6  and  O3_7
REMARK    5  A    between atoms: C5_8  and  O4_9
REMARK    6  A    between atoms: N1_11  and  C7_12
REMARK    7  A    between atoms: C7_12  and  C8_13
REMARK    8  A    between atoms: C8_13  and  C9_14
REMARK    9  A    between atoms: C9_14  and  C10_15
REMARK   10  A    between atoms: C10_15  and  C11_16
REMARK   11  A    between atoms: C11_16  and  O5_17
REMARK   12  A    between atoms: O5_17  and  C12_18
REMARK   13  A    between atoms: C12_18  and  C13_19
REMARK   14  A    between atoms: C16_22  and  C17_23
REMARK                            x       y       z     vdW  Elec       q    Type
REMARK                         _______ _______ _______ _____ _____    ______ ____
ROOT
ATOM      1  C9  UNL     1      30.756  -7.435 -36.269  0.00  0.00    +0.000 C 
ENDROOT
BRANCH   1   2
ATOM      2  C8  UNL     1      29.424  -7.561 -37.017  0.00  0.00    +0.000 C 
BRANCH   2   3
ATOM      3  C7  UNL     1      29.274  -8.943 -37.654  0.00  0.00    +0.000 C 
BRANCH   3   9
ATOM      4  C2  UNL     1      29.269 -10.060 -39.874  0.00  0.00    +0.000 C 
ATOM      5  C3  UNL     1      27.963 -10.903 -39.963  0.00  0.00    +0.000 C 
ATOM      6  C4  UNL     1      26.720 -10.065 -40.329  0.00  0.00    +0.000 C 
ATOM      7  C5  UNL     1      26.612  -8.808 -39.450  0.00  0.00    +0.000 C 
ATOM      8  C6  UNL     1      27.916  -7.998 -39.504  0.00  0.00    +0.000 C 
ATOM      9  N1  UNL     1      29.102  -8.793 -39.115  0.00  0.00    +0.000 NA
BRANCH   5  10
ATOM     10  O2  UNL     1      27.748 -11.561 -38.739  0.00  0.00    +0.000 OA
ATOM     11  H6  UNL     1      27.571 -12.515 -38.946  0.00  0.00    +0.000 HD
ENDBRANCH   5  10
BRANCH   6  12
ATOM     12  O3  UNL     1      26.769  -9.714 -41.689  0.00  0.00    +0.000 OA
ATOM     13  H8  UNL     1      26.859  -8.725 -41.730  0.00  0.00    +0.000 HD
ENDBRANCH   6  12
BRANCH   7  14
ATOM     14  O4  UNL     1      26.308  -9.177 -38.130  0.00  0.00    +0.000 OA
ATOM     15  H10 UNL     1      25.327  -9.059 -38.016  0.00  0.00    +0.000 HD
ENDBRANCH   7  14
BRANCH   4  16
ATOM     16  C1  UNL     1      29.880  -9.775 -41.256  0.00  0.00    +0.000 C 
BRANCH  16  17
ATOM     17  O1  UNL     1      29.575 -10.824 -42.132  0.00  0.00    +0.000 OA
ATOM     18  H1  UNL     1      30.266 -11.520 -41.981  0.00  0.00    +0.000 HD
ENDBRANCH  16  17
ENDBRANCH   4  16
ENDBRANCH   3   9
ENDBRANCH   2   3
ENDBRANCH   1   2
BRANCH   1  19
ATOM     19  C10 UNL     1      31.530  -8.760 -36.294  0.00  0.00    +0.000 C 
BRANCH  19  20
ATOM     20  C11 UNL     1      32.188  -9.067 -34.943  0.00  0.00    +0.000 C 
BRANCH  20  21
ATOM     21  O5  UNL     1      31.453 -10.041 -34.221  0.00  0.00    +0.000 OA
BRANCH  21  22
ATOM     22  C12 UNL     1      30.814  -9.473 -33.093  0.00  0.00    +0.000 C 
BRANCH  22  23
ATOM     23  C13 UNL     1      29.352  -9.242 -33.372  0.00  0.00    +0.000 A 
ATOM     24  C14 UNL     1      28.663 -10.053 -34.285  0.00  0.00    +0.000 A 
ATOM     25  C15 UNL     1      27.306  -9.838 -34.534  0.00  0.00    +0.000 A 
ATOM     26  C16 UNL     1      26.611  -8.810 -33.875  0.00  0.00    +0.000 A 
ATOM     27  C23 UNL     1      27.309  -7.987 -32.967  0.00  0.00    +0.000 A 
ATOM     28  F1  UNL     1      26.689  -6.952 -32.348  0.00  0.00    +0.000 F 
ATOM     29  C24 UNL     1      28.667  -8.208 -32.718  0.00  0.00    +0.000 A 
BRANCH  26  30
ATOM     30  C17 UNL     1      25.164  -8.606 -34.135  0.00  0.00    +0.000 A 
ATOM     31  C18 UNL     1      24.203  -9.046 -33.206  0.00  0.00    +0.000 A 
ATOM     32  C19 UNL     1      22.842  -8.838 -33.444  0.00  0.00    +0.000 A 
ATOM     33  C20 UNL     1      22.425  -8.188 -34.608  0.00  0.00    +0.000 A 
ATOM     34  C21 UNL     1      23.370  -7.741 -35.533  0.00  0.00    +0.000 A 
ATOM     35  C22 UNL     1      24.733  -7.945 -35.299  0.00  0.00    +0.000 A 
ENDBRANCH  26  30
ENDBRANCH  22  23
ENDBRANCH  21  22
ENDBRANCH  20  21
ENDBRANCH  19  20
ENDBRANCH   1  19
TORSDOF 14
ENDMDL
MODEL 3
REMARK VINA RESULT:    -6.163      2.161      3.219
REMARK INTER + INTRA:         -11.862
REMARK INTER:                  -9.958
REMARK INTRA:                  -1.904
REMARK UNBOUND:                -1.375
REMARK  Name = resultss/4CJN/ligands/lig_148_t0.pdb
REMARK  14 active torsions:
REMARK  status: ('A' for Active; 'I' for Inactive)
REMARK    1  A    between atoms: O1_1  and  C1_2
REMARK    2  A    between atoms: C1_2  and  C2_3
REMARK    3  A    between atoms: C3_4  and  O2_5
REMARK    4  A    between atoms: C4_6  and  O3_7
REMARK    5  A    between atoms: C5_8  and  O4_9
REMARK    6  A    between atoms: N1_11  and  C7_12
REMARK    7  A    between atoms: C7_12  and  C8_13
REMARK    8  A    between atoms: C8_13  and  C9_14
REMARK    9  A    between atoms: C9_14  and  C10_15
REMARK   10  A    between atoms: C10_15  and  C11_16
REMARK   11  A    between atoms: C11_16  and  O5_17
REMARK   12  A    between atoms: O5_17  and  C12_18
REMARK   13  A    between atoms: C12_18  and  C13_19
REMARK   14  A    between atoms: C16_22  and  C17_23
REMARK                            x       y       z     vdW  Elec       q    Type
REMARK                         _______ _______ _______ _____ _____    ______ ____
ROOT
ATOM      1  C9  UNL     1      24.936  -6.558 -38.823  0.00  0.00    +0.000 C 
ENDROOT
BRANCH   1   2
ATOM      2  C8  UNL     1      26.129  -7.294 -38.204  0.00  0.00    +0.000 C 
BRANCH   2   3
ATOM      3  C7  UNL     1      25.720  -8.053 -36.940  0.00  0.00    +0.000 C 
BRANCH   3   9
ATOM      4  C2  UNL     1      26.224  -8.166 -34.510  0.00  0.00    +0.000 C 
ATOM      5  C3  UNL     1      26.502  -9.659 -34.165  0.00  0.00    +0.000 C 
ATOM      6  C4  UNL     1      27.930 -10.114 -34.532  0.00  0.00    +0.000 C 
ATOM      7  C5  UNL     1      28.296  -9.710 -35.970  0.00  0.00    +0.000 C 
ATOM      8  C6  UNL     1      28.077  -8.204 -36.180  0.00  0.00    +0.000 C 
ATOM      9  N1  UNL     1      26.696  -7.776 -35.864  0.00  0.00    +0.000 NA
BRANCH   5  10
ATOM     10  O2  UNL     1      25.562 -10.471 -34.823  0.00  0.00    +0.000 OA
ATOM     11  H6  UNL     1      24.833 -10.659 -34.176  0.00  0.00    +0.000 HD
ENDBRANCH   5  10
BRANCH   6  12
ATOM     12  O3  UNL     1      28.849  -9.572 -33.617  0.00  0.00    +0.000 OA
ATOM     13  H8  UNL     1      29.544 -10.265 -33.460  0.00  0.00    +0.000 HD
ENDBRANCH   6  12
BRANCH   7  14
ATOM     14  O4  UNL     1      27.534 -10.457 -36.882  0.00  0.00    +0.000 OA
ATOM     15  H10 UNL     1      26.815  -9.857 -37.216  0.00  0.00    +0.000 HD
ENDBRANCH   7  14
BRANCH   4  16
ATOM     16  C1  UNL     1      26.792  -7.203 -33.452  0.00  0.00    +0.000 C 
BRANCH  16  17
ATOM     17  O1  UNL     1      26.823  -7.839 -32.205  0.00  0.00    +0.000 OA
ATOM     18  H1  UNL     1      27.540  -7.393 -31.684  0.00  0.00    +0.000 HD
ENDBRANCH  16  17
ENDBRANCH   4  16
ENDBRANCH   3   9
ENDBRANCH   2   3
ENDBRANCH   1   2
BRANCH   1  19
ATOM     19  C10 UNL     1      25.016  -6.570 -40.356  0.00  0.00    +0.000 C 
BRANCH  19  20
ATOM     20  C11 UNL     1      23.987  -7.524 -40.977  0.00  0.00    +0.000 C 
BRANCH  20  21
ATOM     21  O5  UNL     1      24.621  -8.548 -41.726  0.00  0.00    +0.000 OA
BRANCH  21  22
ATOM     22  C12 UNL     1      25.098  -9.582 -40.885  0.00  0.00    +0.000 C 
BRANCH  22  23
ATOM     23  C13 UNL     1      26.529  -9.916 -41.217  0.00  0.00    +0.000 A 
ATOM     24  C14 UNL     1      27.253 -10.818 -40.425  0.00  0.00    +0.000 A 
ATOM     25  C15 UNL     1      28.577 -11.129 -40.741  0.00  0.00    +0.000 A 
ATOM     26  C16 UNL     1      29.202 -10.546 -41.857  0.00  0.00    +0.000 A 
ATOM     27  C23 UNL     1      28.476  -9.628 -42.644  0.00  0.00    +0.000 A 
ATOM     28  F1  UNL     1      29.057  -9.003 -43.698  0.00  0.00    +0.000 F 
ATOM     29  C24 UNL     1      27.150  -9.322 -42.325  0.00  0.00    +0.000 A 
BRANCH  26  30
ATOM     30  C17 UNL     1      30.604 -10.900 -42.192  0.00  0.00    +0.000 A 
ATOM     31  C18 UNL     1      31.673 -10.151 -41.668  0.00  0.00    +0.000 A 
ATOM     32  C19 UNL     1      32.994 -10.495 -41.971  0.00  0.00    +0.000 A 
ATOM     33  C20 UNL     1      33.261 -11.590 -42.796  0.00  0.00    +0.000 A 
ATOM     34  C21 UNL     1      32.208 -12.345 -43.316  0.00  0.00    +0.000 A 
ATOM     35  C22 UNL     1      30.885 -12.006 -43.015  0.00  0.00    +0.000 A 
ENDBRANCH  26  30
ENDBRANCH  22  23
ENDBRANCH  21  22
ENDBRANCH  20  21
ENDBRANCH  19  20
ENDBRANCH   1  19
TORSDOF 14
ENDMDL
MODEL 4
REMARK VINA RESULT:    -6.079      4.054      8.738
REMARK INTER + INTRA:         -11.718
REMARK INTER:                  -9.007
REMARK INTRA:                  -2.712
REMARK UNBOUND:                -1.375
REMARK  Name = resultss/4CJN/ligands/lig_148_t0.pdb
REMARK  14 active torsions:
REMARK  status: ('A' for Active; 'I' for Inactive)
REMARK    1  A    between atoms: O1_1  and  C1_2
REMARK    2  A    between atoms: C1_2  and  C2_3
REMARK    3  A    between atoms: C3_4  and  O2_5
REMARK    4  A    between atoms: C4_6  and  O3_7
REMARK    5  A    between atoms: C5_8  and  O4_9
REMARK    6  A    between atoms: N1_11  and  C7_12
REMARK    7  A    between atoms: C7_12  and  C8_13
REMARK    8  A    between atoms: C8_13  and  C9_14
REMARK    9  A    between atoms: C9_14  and  C10_15
REMARK   10  A    between atoms: C10_15  and  C11_16
REMARK   11  A    between atoms: C11_16  and  O5_17
REMARK   12  A    between atoms: O5_17  and  C12_18
REMARK   13  A    between atoms: C12_18  and  C13_19
REMARK   14  A    between atoms: C16_22  and  C17_23
REMARK                            x       y       z     vdW  Elec       q    Type
REMARK                         _______ _______ _______ _____ _____    ______ ____
ROOT
ATOM      1  C9  UNL     1      24.671  -8.246 -37.385  0.00  0.00    +0.000 C 
ENDROOT
BRANCH   1   2
ATOM      2  C8  UNL     1      26.182  -7.997 -37.311  0.00  0.00    +0.000 C 
BRANCH   2   3
ATOM      3  C7  UNL     1      26.968  -9.168 -37.905  0.00  0.00    +0.000 C 
BRANCH   3   9
ATOM      4  C2  UNL     1      28.546  -8.511 -39.707  0.00  0.00    +0.000 C 
ATOM      5  C3  UNL     1      29.528  -9.702 -39.917  0.00  0.00    +0.000 C 
ATOM      6  C4  UNL     1      28.937 -10.836 -40.782  0.00  0.00    +0.000 C 
ATOM      7  C5  UNL     1      27.535 -11.239 -40.295  0.00  0.00    +0.000 C 
ATOM      8  C6  UNL     1      26.617 -10.010 -40.213  0.00  0.00    +0.000 C 
ATOM      9  N1  UNL     1      27.168  -8.940 -39.352  0.00  0.00    +0.000 NA
BRANCH   5  10
ATOM     10  O2  UNL     1      29.915 -10.213 -38.666  0.00  0.00    +0.000 OA
ATOM     11  H6  UNL     1      29.788 -11.197 -38.699  0.00  0.00    +0.000 HD
ENDBRANCH   5  10
BRANCH   6  12
ATOM     12  O3  UNL     1      28.896 -10.432 -42.128  0.00  0.00    +0.000 OA
ATOM     13  H8  UNL     1      28.022 -10.731 -42.493  0.00  0.00    +0.000 HD
ENDBRANCH   6  12
BRANCH   7  14
ATOM     14  O4  UNL     1      27.630 -11.876 -39.048  0.00  0.00    +0.000 OA
ATOM     15  H10 UNL     1      26.933 -12.584 -39.032  0.00  0.00    +0.000 HD
ENDBRANCH   7  14
BRANCH   4  16
ATOM     16  C1  UNL     1      28.512  -7.559 -40.915  0.00  0.00    +0.000 C 
BRANCH  16  17
ATOM     17  O1  UNL     1      29.751  -7.580 -41.567  0.00  0.00    +0.000 OA
ATOM     18  H1  UNL     1      29.903  -6.657 -41.901  0.00  0.00    +0.000 HD
ENDBRANCH  16  17
ENDBRANCH   4  16
ENDBRANCH   3   9
ENDBRANCH   2   3
ENDBRANCH   1   2
BRANCH   1  19
ATOM     19  C10 UNL     1      23.896  -7.145 -36.647  0.00  0.00    +0.000 C 
BRANCH  19  20
ATOM     20  C11 UNL     1      22.792  -7.723 -35.750  0.00  0.00    +0.000 C 
BRANCH  20  21
ATOM     21  O5  UNL     1      22.988  -7.359 -34.394  0.00  0.00    +0.000 OA
BRANCH  21  22
ATOM     22  C12 UNL     1      23.393  -8.470 -33.616  0.00  0.00    +0.000 C 
BRANCH  22  23
ATOM     23  C13 UNL     1      24.881  -8.679 -33.725  0.00  0.00    +0.000 A 
ATOM     24  C14 UNL     1      25.399  -9.910 -34.151  0.00  0.00    +0.000 A 
ATOM     25  C15 UNL     1      26.779 -10.096 -34.257  0.00  0.00    +0.000 A 
ATOM     26  C16 UNL     1      27.668  -9.054 -33.940  0.00  0.00    +0.000 A 
ATOM     27  C23 UNL     1      27.144  -7.821 -33.498  0.00  0.00    +0.000 A 
ATOM     28  F1  UNL     1      27.967  -6.807 -33.133  0.00  0.00    +0.000 F 
ATOM     29  C24 UNL     1      25.762  -7.639 -33.397  0.00  0.00    +0.000 A 
BRANCH  26  30
ATOM     30  C17 UNL     1      29.131  -9.260 -34.075  0.00  0.00    +0.000 A 
ATOM     31  C18 UNL     1      29.761  -9.101 -35.324  0.00  0.00    +0.000 A 
ATOM     32  C19 UNL     1      31.142  -9.278 -35.447  0.00  0.00    +0.000 A 
ATOM     33  C20 UNL     1      31.909  -9.611 -34.328  0.00  0.00    +0.000 A 
ATOM     34  C21 UNL     1      31.295  -9.765 -33.083  0.00  0.00    +0.000 A 
ATOM     35  C22 UNL     1      29.914  -9.587 -32.954  0.00  0.00    +0.000 A 
ENDBRANCH  26  30
ENDBRANCH  22  23
ENDBRANCH  21  22
ENDBRANCH  20  21
ENDBRANCH  19  20
ENDBRANCH   1  19
TORSDOF 14
ENDMDL
MODEL 5
REMARK VINA RESULT:    -6.035      4.181      9.447
REMARK INTER + INTRA:         -11.644
REMARK INTER:                  -9.770
REMARK INTRA:                  -1.873
REMARK UNBOUND:                -1.375
REMARK  Name = resultss/4CJN/ligands/lig_148_t0.pdb
REMARK  14 active torsions:
REMARK  status: ('A' for Active; 'I' for Inactive)
REMARK    1  A    between atoms: O1_1  and  C1_2
REMARK    2  A    between atoms: C1_2  and  C2_3
REMARK    3  A    between atoms: C3_4  and  O2_5
REMARK    4  A    between atoms: C4_6  and  O3_7
REMARK    5  A    between atoms: C5_8  and  O4_9
REMARK    6  A    between atoms: N1_11  and  C7_12
REMARK    7  A    between atoms: C7_12  and  C8_13
REMARK    8  A    between atoms: C8_13  and  C9_14
REMARK    9  A    between atoms: C9_14  and  C10_15
REMARK   10  A    between atoms: C10_15  and  C11_16
REMARK   11  A    between atoms: C11_16  and  O5_17
REMARK   12  A    between atoms: O5_17  and  C12_18
REMARK   13  A    between atoms: C12_18  and  C13_19
REMARK   14  A    between atoms: C16_22  and  C17_23
REMARK                            x       y       z     vdW  Elec       q    Type
REMARK                         _______ _______ _______ _____ _____    ______ ____
ROOT
ATOM      1  C9  UNL     1      29.398 -10.278 -42.537  0.00  0.00    +0.000 C 
ENDROOT
BRANCH   1   2
ATOM      2  C8  UNL     1      28.628  -9.006 -42.910  0.00  0.00    +0.000 C 
BRANCH   2   3
ATOM      3  C7  UNL     1      27.132  -9.285 -43.058  0.00  0.00    +0.000 C 
BRANCH   3   9
ATOM      4  C2  UNL     1      25.064  -7.931 -43.306  0.00  0.00    +0.000 C 
ATOM      5  C3  UNL     1      23.903  -8.737 -42.653  0.00  0.00    +0.000 C 
ATOM      6  C4  UNL     1      23.860  -8.608 -41.116  0.00  0.00    +0.000 C 
ATOM      7  C5  UNL     1      25.244  -8.859 -40.493  0.00  0.00    +0.000 C 
ATOM      8  C6  UNL     1      26.300  -7.950 -41.140  0.00  0.00    +0.000 C 
ATOM      9  N1  UNL     1      26.366  -8.103 -42.610  0.00  0.00    +0.000 NA
BRANCH   5  10
ATOM     10  O2  UNL     1      24.017 -10.091 -43.013  0.00  0.00    +0.000 OA
ATOM     11  H6  UNL     1      24.710 -10.148 -43.721  0.00  0.00    +0.000 HD
ENDBRANCH   5  10
BRANCH   6  12
ATOM     12  O3  UNL     1      23.382  -7.335 -40.760  0.00  0.00    +0.000 OA
ATOM     13  H8  UNL     1      24.063  -6.926 -40.164  0.00  0.00    +0.000 HD
ENDBRANCH   6  12
BRANCH   7  14
ATOM     14  O4  UNL     1      25.593 -10.211 -40.639  0.00  0.00    +0.000 OA
ATOM     15  H10 UNL     1      25.929 -10.323 -41.568  0.00  0.00    +0.000 HD
ENDBRANCH   7  14
BRANCH   4  16
ATOM     16  C1  UNL     1      24.732  -6.435 -43.450  0.00  0.00    +0.000 C 
BRANCH  16  17
ATOM     17  O1  UNL     1      23.352  -6.273 -43.625  0.00  0.00    +0.000 OA
ATOM     18  H1  UNL     1      22.953  -7.176 -43.520  0.00  0.00    +0.000 HD
ENDBRANCH  16  17
ENDBRANCH   4  16
ENDBRANCH   3   9
ENDBRANCH   2   3
ENDBRANCH   1   2
BRANCH   1  19
ATOM     19  C10 UNL     1      29.179 -10.641 -41.061  0.00  0.00    +0.000 C 
BRANCH  19  20
ATOM     20  C11 UNL     1      30.247 -10.018 -40.152  0.00  0.00    +0.000 C 
BRANCH  20  21
ATOM     21  O5  UNL     1      29.656  -9.327 -39.063  0.00  0.00    +0.000 OA
BRANCH  21  22
ATOM     22  C12 UNL     1      29.629 -10.130 -37.898  0.00  0.00    +0.000 C 
BRANCH  22  23
ATOM     23  C13 UNL     1      28.497  -9.715 -36.995  0.00  0.00    +0.000 A 
ATOM     24  C14 UNL     1      28.708  -9.544 -35.619  0.00  0.00    +0.000 A 
ATOM     25  C15 UNL     1      27.657  -9.151 -34.788  0.00  0.00    +0.000 A 
ATOM     26  C16 UNL     1      26.375  -8.921 -35.316  0.00  0.00    +0.000 A 
ATOM     27  C23 UNL     1      26.162  -9.108 -36.697  0.00  0.00    +0.000 A 
ATOM     28  F1  UNL     1      24.929  -8.947 -37.239  0.00  0.00    +0.000 F 
ATOM     29  C24 UNL     1      27.218  -9.497 -37.526  0.00  0.00    +0.000 A 
BRANCH  26  30
ATOM     30  C17 UNL     1      25.272  -8.487 -34.424  0.00  0.00    +0.000 A 
ATOM     31  C18 UNL     1      24.845  -7.145 -34.419  0.00  0.00    +0.000 A 
ATOM     32  C19 UNL     1      23.795  -6.740 -33.591  0.00  0.00    +0.000 A 
ATOM     33  C20 UNL     1      23.157  -7.667 -32.762  0.00  0.00    +0.000 A 
ATOM     34  C21 UNL     1      23.569  -9.001 -32.763  0.00  0.00    +0.000 A 
ATOM     35  C22 UNL     1      24.618  -9.412 -33.591  0.00  0.00    +0.000 A 
ENDBRANCH  26  30
ENDBRANCH  22  23
ENDBRANCH  21  22
ENDBRANCH  20  21
ENDBRANCH  19  20
ENDBRANCH   1  19
TORSDOF 14
ENDMDL
MODEL 6
REMARK VINA RESULT:    -6.007      4.783      8.392
REMARK INTER + INTRA:         -11.597
REMARK INTER:                  -8.973
REMARK INTRA:                  -2.624
REMARK UNBOUND:                -1.375
REMARK  Name = resultss/4CJN/ligands/lig_148_t0.pdb
REMARK  14 active torsions:
REMARK  status: ('A' for Active; 'I' for Inactive)
REMARK    1  A    between atoms: O1_1  and  C1_2
REMARK    2  A    between atoms: C1_2  and  C2_3
REMARK    3  A    between atoms: C3_4  and  O2_5
REMARK    4  A    between atoms: C4_6  and  O3_7
REMARK    5  A    between atoms: C5_8  and  O4_9
REMARK    6  A    between atoms: N1_11  and  C7_12
REMARK    7  A    between atoms: C7_12  and  C8_13
REMARK    8  A    between atoms: C8_13  and  C9_14
REMARK    9  A    between atoms: C9_14  and  C10_15
REMARK   10  A    between atoms: C10_15  and  C11_16
REMARK   11  A    between atoms: C11_16  and  O5_17
REMARK   12  A    between atoms: O5_17  and  C12_18
REMARK   13  A    between atoms: C12_18  and  C13_19
REMARK   14  A    between atoms: C16_22  and  C17_23
REMARK                            x       y       z     vdW  Elec       q    Type
REMARK                         _______ _______ _______ _____ _____    ______ ____
ROOT
ATOM      1  C9  UNL     1      24.237  -6.649 -36.190  0.00  0.00    +0.000 C 
ENDROOT
BRANCH   1   2
ATOM      2  C8  UNL     1      25.549  -7.265 -36.690  0.00  0.00    +0.000 C 
BRANCH   2   3
ATOM      3  C7  UNL     1      25.287  -8.471 -37.595  0.00  0.00    +0.000 C 
BRANCH   3   9
ATOM      4  C2  UNL     1      26.283  -9.797 -39.445  0.00  0.00    +0.000 C 
ATOM      5  C3  UNL     1      25.403  -9.560 -40.708  0.00  0.00    +0.000 C 
ATOM      6  C4  UNL     1      25.716  -8.231 -41.428  0.00  0.00    +0.000 C 
ATOM      7  C5  UNL     1      25.750  -7.052 -40.441  0.00  0.00    +0.000 C 
ATOM      8  C6  UNL     1      26.716  -7.346 -39.282  0.00  0.00    +0.000 C 
ATOM      9  N1  UNL     1      26.392  -8.601 -38.569  0.00  0.00    +0.000 NA
BRANCH   5  10
ATOM     10  O2  UNL     1      24.046  -9.594 -40.343  0.00  0.00    +0.000 OA
ATOM     11  H6  UNL     1      23.940  -9.000 -39.554  0.00  0.00    +0.000 HD
ENDBRANCH   5  10
BRANCH   6  12
ATOM     12  O3  UNL     1      26.939  -8.339 -42.111  0.00  0.00    +0.000 OA
ATOM     13  H8  UNL     1      27.004  -9.273 -42.443  0.00  0.00    +0.000 HD
ENDBRANCH   6  12
BRANCH   7  14
ATOM     14  O4  UNL     1      24.456  -6.799 -39.959  0.00  0.00    +0.000 OA
ATOM     15  H10 UNL     1      24.408  -7.188 -39.045  0.00  0.00    +0.000 HD
ENDBRANCH   7  14
BRANCH   4  16
ATOM     16  C1  UNL     1      27.684 -10.328 -39.795  0.00  0.00    +0.000 C 
BRANCH  16  17
ATOM     17  O1  UNL     1      28.181 -11.087 -38.729  0.00  0.00    +0.000 OA
ATOM     18  H1  UNL     1      28.928 -11.626 -39.097  0.00  0.00    +0.000 HD
ENDBRANCH  16  17
ENDBRANCH   4  16
ENDBRANCH   3   9
ENDBRANCH   2   3
ENDBRANCH   1   2
BRANCH   1  19
ATOM     19  C10 UNL     1      23.131  -7.710 -36.096  0.00  0.00    +0.000 C 
BRANCH  19  20
ATOM     20  C11 UNL     1      22.430  -7.690 -34.732  0.00  0.00    +0.000 C 
BRANCH  20  21
ATOM     21  O5  UNL     1      22.656  -8.894 -34.018  0.00  0.00    +0.000 OA
BRANCH  21  22
ATOM     22  C12 UNL     1      23.523  -8.686 -32.919  0.00  0.00    +0.000 C 
BRANCH  22  23
ATOM     23  C13 UNL     1      24.961  -8.827 -33.345  0.00  0.00    +0.000 A 
ATOM     24  C14 UNL     1      25.380  -9.942 -34.085  0.00  0.00    +0.000 A 
ATOM     25  C15 UNL     1      26.714 -10.064 -34.483  0.00  0.00    +0.000 A 
ATOM     26  C16 UNL     1      27.653  -9.073 -34.150  0.00  0.00    +0.000 A 
ATOM     27  C23 UNL     1      27.232  -7.959 -33.394  0.00  0.00    +0.000 A 
ATOM     28  F1  UNL     1      28.116  -7.006 -33.006  0.00  0.00    +0.000 F 
ATOM     29  C24 UNL     1      25.896  -7.840 -33.000  0.00  0.00    +0.000 A 
BRANCH  26  30
ATOM     30  C17 UNL     1      29.062  -9.206 -34.595  0.00  0.00    +0.000 A 
ATOM     31  C18 UNL     1      30.083  -9.469 -33.663  0.00  0.00    +0.000 A 
ATOM     32  C19 UNL     1      31.407  -9.611 -34.085  0.00  0.00    +0.000 A 
ATOM     33  C20 UNL     1      31.728  -9.495 -35.440  0.00  0.00    +0.000 A 
ATOM     34  C21 UNL     1      30.722  -9.240 -36.374  0.00  0.00    +0.000 A 
ATOM     35  C22 UNL     1      29.395  -9.099 -35.958  0.00  0.00    +0.000 A 
ENDBRANCH  26  30
ENDBRANCH  22  23
ENDBRANCH  21  22
ENDBRANCH  20  21
ENDBRANCH  19  20
ENDBRANCH   1  19
TORSDOF 14
ENDMDL
MODEL 7
REMARK VINA RESULT:    -5.962      2.338      3.741
REMARK INTER + INTRA:         -11.519
REMARK INTER:                  -9.589
REMARK INTRA:                  -1.930
REMARK UNBOUND:                -1.375
REMARK  Name = resultss/4CJN/ligands/lig_148_t0.pdb
REMARK  14 active torsions:
REMARK  status: ('A' for Active; 'I' for Inactive)
REMARK    1  A    between atoms: O1_1  and  C1_2
REMARK    2  A    between atoms: C1_2  and  C2_3
REMARK    3  A    between atoms: C3_4  and  O2_5
REMARK    4  A    between atoms: C4_6  and  O3_7
REMARK    5  A    between atoms: C5_8  and  O4_9
REMARK    6  A    between atoms: N1_11  and  C7_12
REMARK    7  A    between atoms: C7_12  and  C8_13
REMARK    8  A    between atoms: C8_13  and  C9_14
REMARK    9  A    between atoms: C9_14  and  C10_15
REMARK   10  A    between atoms: C10_15  and  C11_16
REMARK   11  A    between atoms: C11_16  and  O5_17
REMARK   12  A    between atoms: O5_17  and  C12_18
REMARK   13  A    between atoms: C12_18  and  C13_19
REMARK   14  A    between atoms: C16_22  and  C17_23
REMARK                            x       y       z     vdW  Elec       q    Type
REMARK                         _______ _______ _______ _____ _____    ______ ____
ROOT
ATOM      1  C9  UNL     1      24.891  -7.356 -38.945  0.00  0.00    +0.000 C 
ENDROOT
BRANCH   1   2
ATOM      2  C8  UNL     1      24.661  -6.850 -37.516  0.00  0.00    +0.000 C 
BRANCH   2   3
ATOM      3  C7  UNL     1      24.870  -7.967 -36.491  0.00  0.00    +0.000 C 
BRANCH   3   9
ATOM      4  C2  UNL     1      25.949  -8.215 -34.267  0.00  0.00    +0.000 C 
ATOM      5  C3  UNL     1      26.501  -9.669 -34.182  0.00  0.00    +0.000 C 
ATOM      6  C4  UNL     1      27.849  -9.854 -34.910  0.00  0.00    +0.000 C 
ATOM      7  C5  UNL     1      27.803  -9.269 -36.332  0.00  0.00    +0.000 C 
ATOM      8  C6  UNL     1      27.338  -7.805 -36.298  0.00  0.00    +0.000 C 
ATOM      9  N1  UNL     1      26.027  -7.635 -35.633  0.00  0.00    +0.000 NA
BRANCH   5  10
ATOM     10  O2  UNL     1      25.550 -10.559 -34.710  0.00  0.00    +0.000 OA
ATOM     11  H6  UNL     1      25.811 -10.742 -35.651  0.00  0.00    +0.000 HD
ENDBRANCH   5  10
BRANCH   6  12
ATOM     12  O3  UNL     1      28.877  -9.256 -34.162  0.00  0.00    +0.000 OA
ATOM     13  H8  UNL     1      29.722  -9.400 -34.665  0.00  0.00    +0.000 HD
ENDBRANCH   6  12
BRANCH   7  14
ATOM     14  O4  UNL     1      26.954 -10.044 -37.138  0.00  0.00    +0.000 OA
ATOM     15  H10 UNL     1      26.339  -9.412 -37.599  0.00  0.00    +0.000 HD
ENDBRANCH   7  14
BRANCH   4  16
ATOM     16  C1  UNL     1      26.618  -7.273 -33.251  0.00  0.00    +0.000 C 
BRANCH  16  17
ATOM     17  O1  UNL     1      26.990  -7.997 -32.111  0.00  0.00    +0.000 OA
ATOM     18  H1  UNL     1      27.705  -7.469 -31.670  0.00  0.00    +0.000 HD
ENDBRANCH  16  17
ENDBRANCH   4  16
ENDBRANCH   3   9
ENDBRANCH   2   3
ENDBRANCH   1   2
BRANCH   1  19
ATOM     19  C10 UNL     1      24.343  -6.360 -39.976  0.00  0.00    +0.000 C 
BRANCH  19  20
ATOM     20  C11 UNL     1      23.834  -7.064 -41.241  0.00  0.00    +0.000 C 
BRANCH  20  21
ATOM     21  O5  UNL     1      23.748  -8.466 -41.050  0.00  0.00    +0.000 OA
BRANCH  21  22
ATOM     22  C12 UNL     1      24.157  -9.170 -42.207  0.00  0.00    +0.000 C 
BRANCH  22  23
ATOM     23  C13 UNL     1      25.643  -9.418 -42.178  0.00  0.00    +0.000 A 
ATOM     24  C14 UNL     1      26.475  -8.881 -43.170  0.00  0.00    +0.000 A 
ATOM     25  C15 UNL     1      27.853  -9.108 -43.134  0.00  0.00    +0.000 A 
ATOM     26  C16 UNL     1      28.424  -9.877 -42.106  0.00  0.00    +0.000 A 
ATOM     27  C23 UNL     1      27.583 -10.428 -41.117  0.00  0.00    +0.000 A 
ATOM     28  F1  UNL     1      28.087 -11.219 -40.136  0.00  0.00    +0.000 F 
ATOM     29  C24 UNL     1      26.206 -10.195 -41.155  0.00  0.00    +0.000 A 
BRANCH  26  30
ATOM     30  C17 UNL     1      29.892 -10.095 -42.070  0.00  0.00    +0.000 A 
ATOM     31  C18 UNL     1      30.686  -9.443 -41.108  0.00  0.00    +0.000 A 
ATOM     32  C19 UNL     1      32.066  -9.661 -41.064  0.00  0.00    +0.000 A 
ATOM     33  C20 UNL     1      32.667 -10.534 -41.974  0.00  0.00    +0.000 A 
ATOM     34  C21 UNL     1      31.888 -11.192 -42.928  0.00  0.00    +0.000 A 
ATOM     35  C22 UNL     1      30.506 -10.978 -42.975  0.00  0.00    +0.000 A 
ENDBRANCH  26  30
ENDBRANCH  22  23
ENDBRANCH  21  22
ENDBRANCH  20  21
ENDBRANCH  19  20
ENDBRANCH   1  19
TORSDOF 14
ENDMDL
MODEL 8
REMARK VINA RESULT:    -5.940      4.219      8.557
REMARK INTER + INTRA:         -11.483
REMARK INTER:                  -8.866
REMARK INTRA:                  -2.617
REMARK UNBOUND:                -1.375
REMARK  Name = resultss/4CJN/ligands/lig_148_t0.pdb
REMARK  14 active torsions:
REMARK  status: ('A' for Active; 'I' for Inactive)
REMARK    1  A    between atoms: O1_1  and  C1_2
REMARK    2  A    between atoms: C1_2  and  C2_3
REMARK    3  A    between atoms: C3_4  and  O2_5
REMARK    4  A    between atoms: C4_6  and  O3_7
REMARK    5  A    between atoms: C5_8  and  O4_9
REMARK    6  A    between atoms: N1_11  and  C7_12
REMARK    7  A    between atoms: C7_12  and  C8_13
REMARK    8  A    between atoms: C8_13  and  C9_14
REMARK    9  A    between atoms: C9_14  and  C10_15
REMARK   10  A    between atoms: C10_15  and  C11_16
REMARK   11  A    between atoms: C11_16  and  O5_17
REMARK   12  A    between atoms: O5_17  and  C12_18
REMARK   13  A    between atoms: C12_18  and  C13_19
REMARK   14  A    between atoms: C16_22  and  C17_23
REMARK                            x       y       z     vdW  Elec       q    Type
REMARK                         _______ _______ _______ _____ _____    ______ ____
ROOT
ATOM      1  C9  UNL     1      24.712  -7.784 -37.255  0.00  0.00    +0.000 C 
ENDROOT
BRANCH   1   2
ATOM      2  C8  UNL     1      26.152  -7.292 -37.070  0.00  0.00    +0.000 C 
BRANCH   2   3
ATOM      3  C7  UNL     1      26.990  -7.542 -38.326  0.00  0.00    +0.000 C 
BRANCH   3   9
ATOM      4  C2  UNL     1      26.563  -8.978 -40.307  0.00  0.00    +0.000 C 
ATOM      5  C3  UNL     1      27.915  -9.131 -41.067  0.00  0.00    +0.000 C 
ATOM      6  C4  UNL     1      28.850 -10.188 -40.442  0.00  0.00    +0.000 C 
ATOM      7  C5  UNL     1      28.987  -9.988 -38.923  0.00  0.00    +0.000 C 
ATOM      8  C6  UNL     1      27.603  -9.945 -38.257  0.00  0.00    +0.000 C 
ATOM      9  N1  UNL     1      26.722  -8.905 -38.831  0.00  0.00    +0.000 NA
BRANCH   5  10
ATOM     10  O2  UNL     1      28.567  -7.886 -41.109  0.00  0.00    +0.000 OA
ATOM     11  H6  UNL     1      29.313  -7.969 -41.759  0.00  0.00    +0.000 HD
ENDBRANCH   5  10
BRANCH   6  12
ATOM     12  O3  UNL     1      28.366 -11.476 -40.729  0.00  0.00    +0.000 OA
ATOM     13  H8  UNL     1      27.982 -11.835 -39.886  0.00  0.00    +0.000 HD
ENDBRANCH   6  12
BRANCH   7  14
ATOM     14  O4  UNL     1      29.703  -8.809 -38.663  0.00  0.00    +0.000 OA
ATOM     15  H10 UNL     1      29.787  -8.735 -37.674  0.00  0.00    +0.000 HD
ENDBRANCH   7  14
BRANCH   4  16
ATOM     16  C1  UNL     1      25.553 -10.078 -40.679  0.00  0.00    +0.000 C 
BRANCH  16  17
ATOM     17  O1  UNL     1      24.270  -9.697 -40.267  0.00  0.00    +0.000 OA
ATOM     18  H1  UNL     1      23.795 -10.535 -40.031  0.00  0.00    +0.000 HD
ENDBRANCH  16  17
ENDBRANCH   4  16
ENDBRANCH   3   9
ENDBRANCH   2   3
ENDBRANCH   1   2
BRANCH   1  19
ATOM     19  C10 UNL     1      23.714  -6.831 -36.583  0.00  0.00    +0.000 C 
BRANCH  19  20
ATOM     20  C11 UNL     1      22.726  -7.579 -35.678  0.00  0.00    +0.000 C 
BRANCH  20  21
ATOM     21  O5  UNL     1      22.974  -7.308 -34.309  0.00  0.00    +0.000 OA
BRANCH  21  22
ATOM     22  C12 UNL     1      23.365  -8.477 -33.614  0.00  0.00    +0.000 C 
BRANCH  22  23
ATOM     23  C13 UNL     1      24.856  -8.672 -33.703  0.00  0.00    +0.000 A 
ATOM     24  C14 UNL     1      25.391  -9.843 -34.262  0.00  0.00    +0.000 A 
ATOM     25  C15 UNL     1      26.774 -10.015 -34.348  0.00  0.00    +0.000 A 
ATOM     26  C16 UNL     1      27.649  -9.020 -33.879  0.00  0.00    +0.000 A 
ATOM     27  C23 UNL     1      27.109  -7.851 -33.305  0.00  0.00    +0.000 A 
ATOM     28  F1  UNL     1      27.918  -6.889 -32.793  0.00  0.00    +0.000 F 
ATOM     29  C24 UNL     1      25.725  -7.681 -33.224  0.00  0.00    +0.000 A 
BRANCH  26  30
ATOM     30  C17 UNL     1      29.117  -9.209 -33.994  0.00  0.00    +0.000 A 
ATOM     31  C18 UNL     1      29.885  -9.529 -32.859  0.00  0.00    +0.000 A 
ATOM     32  C19 UNL     1      31.265  -9.723 -32.971  0.00  0.00    +0.000 A 
ATOM     33  C20 UNL     1      31.892  -9.603 -34.214  0.00  0.00    +0.000 A 
ATOM     34  C21 UNL     1      31.138  -9.292 -35.347  0.00  0.00    +0.000 A 
ATOM     35  C22 UNL     1      29.757  -9.099 -35.241  0.00  0.00    +0.000 A 
ENDBRANCH  26  30
ENDBRANCH  22  23
ENDBRANCH  21  22
ENDBRANCH  20  21
ENDBRANCH  19  20
ENDBRANCH   1  19
TORSDOF 14
ENDMDL
MODEL 9
REMARK VINA RESULT:    -5.852      4.640      8.697
REMARK INTER + INTRA:         -11.333
REMARK INTER:                  -8.851
REMARK INTRA:                  -2.482
REMARK UNBOUND:                -1.375
REMARK  Name = resultss/4CJN/ligands/lig_148_t0.pdb
REMARK  14 active torsions:
REMARK  status: ('A' for Active; 'I' for Inactive)
REMARK    1  A    between atoms: O1_1  and  C1_2
REMARK    2  A    between atoms: C1_2  and  C2_3
REMARK    3  A    between atoms: C3_4  and  O2_5
REMARK    4  A    between atoms: C4_6  and  O3_7
REMARK    5  A    between atoms: C5_8  and  O4_9
REMARK    6  A    between atoms: N1_11  and  C7_12
REMARK    7  A    between atoms: C7_12  and  C8_13
REMARK    8  A    between atoms: C8_13  and  C9_14
REMARK    9  A    between atoms: C9_14  and  C10_15
REMARK   10  A    between atoms: C10_15  and  C11_16
REMARK   11  A    between atoms: C11_16  and  O5_17
REMARK   12  A    between atoms: O5_17  and  C12_18
REMARK   13  A    between atoms: C12_18  and  C13_19
REMARK   14  A    between atoms: C16_22  and  C17_23
REMARK                            x       y       z     vdW  Elec       q    Type
REMARK                         _______ _______ _______ _____ _____    ______ ____
ROOT
ATOM      1  C9  UNL     1      24.199  -8.141 -36.980  0.00  0.00    +0.000 C 
ENDROOT
BRANCH   1   2
ATOM      2  C8  UNL     1      25.629  -7.683 -37.292  0.00  0.00    +0.000 C 
BRANCH   2   3
ATOM      3  C7  UNL     1      26.343  -8.676 -38.210  0.00  0.00    +0.000 C 
BRANCH   3   9
ATOM      4  C2  UNL     1      27.673  -8.754 -40.307  0.00  0.00    +0.000 C 
ATOM      5  C3  UNL     1      27.020  -9.827 -41.228  0.00  0.00    +0.000 C 
ATOM      6  C4  UNL     1      25.775  -9.310 -41.980  0.00  0.00    +0.000 C 
ATOM      7  C5  UNL     1      24.797  -8.604 -41.026  0.00  0.00    +0.000 C 
ATOM      8  C6  UNL     1      25.517  -7.502 -40.234  0.00  0.00    +0.000 C 
ATOM      9  N1  UNL     1      26.688  -8.007 -39.483  0.00  0.00    +0.000 NA
BRANCH   5  10
ATOM     10  O2  UNL     1      26.676 -10.953 -40.460  0.00  0.00    +0.000 OA
ATOM     11  H6  UNL     1      25.696 -11.082 -40.552  0.00  0.00    +0.000 HD
ENDBRANCH   5  10
BRANCH   6  12
ATOM     12  O3  UNL     1      26.172  -8.443 -43.012  0.00  0.00    +0.000 OA
ATOM     13  H8  UNL     1      26.134  -8.963 -43.858  0.00  0.00    +0.000 HD
ENDBRANCH   6  12
BRANCH   7  14
ATOM     14  O4  UNL     1      24.216  -9.543 -40.160  0.00  0.00    +0.000 OA
ATOM     15  H10 UNL     1      23.803  -9.031 -39.415  0.00  0.00    +0.000 HD
ENDBRANCH   7  14
BRANCH   4  16
ATOM     16  C1  UNL     1      28.564  -7.773 -41.089  0.00  0.00    +0.000 C 
BRANCH  16  17
ATOM     17  O1  UNL     1      29.004  -8.378 -42.273  0.00  0.00    +0.000 OA
ATOM     18  H1  UNL     1      29.646  -7.743 -42.685  0.00  0.00    +0.000 HD
ENDBRANCH  16  17
ENDBRANCH   4  16
ENDBRANCH   3   9
ENDBRANCH   2   3
ENDBRANCH   1   2
BRANCH   1  19
ATOM     19  C10 UNL     1      23.447  -7.081 -36.163  0.00  0.00    +0.000 C 
BRANCH  19  20
ATOM     20  C11 UNL     1      22.492  -7.714 -35.143  0.00  0.00    +0.000 C 
BRANCH  20  21
ATOM     21  O5  UNL     1      22.886  -7.416 -33.814  0.00  0.00    +0.000 OA
BRANCH  21  22
ATOM     22  C12 UNL     1      23.402  -8.561 -33.161  0.00  0.00    +0.000 C 
BRANCH  22  23
ATOM     23  C13 UNL     1      24.858  -8.751 -33.497  0.00  0.00    +0.000 A 
ATOM     24  C14 UNL     1      25.311  -9.958 -34.048  0.00  0.00    +0.000 A 
ATOM     25  C15 UNL     1      26.661 -10.127 -34.364  0.00  0.00    +0.000 A 
ATOM     26  C16 UNL     1      27.583  -9.091 -34.137  0.00  0.00    +0.000 A 
ATOM     27  C23 UNL     1      27.128  -7.883 -33.570  0.00  0.00    +0.000 A 
ATOM     28  F1  UNL     1      27.993  -6.877 -33.285  0.00  0.00    +0.000 F 
ATOM     29  C24 UNL     1      25.775  -7.718 -33.258  0.00  0.00    +0.000 A 
BRANCH  26  30
ATOM     30  C17 UNL     1      29.011  -9.277 -34.495  0.00  0.00    +0.000 A 
ATOM     31  C18 UNL     1      29.423  -9.215 -35.839  0.00  0.00    +0.000 A 
ATOM     32  C19 UNL     1      30.770  -9.374 -36.174  0.00  0.00    +0.000 A 
ATOM     33  C20 UNL     1      31.721  -9.591 -35.174  0.00  0.00    +0.000 A 
ATOM     34  C21 UNL     1      31.325  -9.648 -33.837  0.00  0.00    +0.000 A 
ATOM     35  C22 UNL     1      29.978  -9.488 -33.495  0.00  0.00    +0.000 A 
ENDBRANCH  26  30
ENDBRANCH  22  23
ENDBRANCH  21  22
ENDBRANCH  20  21
ENDBRANCH  19  20
ENDBRANCH   1  19
TORSDOF 14
ENDMDL
