MODEL 1
REMARK VINA RESULT:    -5.991      0.000      0.000
REMARK INTER + INTRA:         -13.797
REMARK INTER:                 -11.420
REMARK INTRA:                  -2.376
REMARK UNBOUND:                -2.376
REMARK  Name = resultss/4CJN/ligands/lig_366_t0.pdb
REMARK  23 active torsions:
REMARK  status: ('A' for Active; 'I' for Inactive)
REMARK    1  A    between atoms: C1_1  and  C2_2
REMARK    2  A    between atoms: C3_4  and  O2_5
REMARK    3  A    between atoms: O2_5  and  C4_6
REMARK    4  A    between atoms: C5_7  and  O3_8
REMARK    5  A    between atoms: C6_9  and  O4_10
REMARK    6  A    between atoms: C7_11  and  O5_12
REMARK    7  A    between atoms: O5_12  and  C8_13
REMARK    8  A    between atoms: C9_14  and  O6_15
REMARK    9  A    between atoms: C10_16  and  O7_17
REMARK   10  A    between atoms: C11_18  and  O8_19
REMARK   11  A    between atoms: C12_21  and  C13_22
REMARK   12  A    between atoms: C13_22  and  O10_23
REMARK   13  A    between atoms: C14_25  and  C15_26
REMARK   14  A    between atoms: C15_26  and  O12_27
REMARK   15  A    between atoms: C16_28  and  O13_29
REMARK   16  A    between atoms: C17_30  and  O14_31
REMARK   17  A    between atoms: C18_32  and  N1_33
REMARK   18  A    between atoms: N1_33  and  C19_34
REMARK   19  A    between atoms: C21_36  and  C22_37
REMARK   20  A    between atoms: C22_37  and  O15_38
REMARK   21  A    between atoms: C23_39  and  O16_40
REMARK   22  A    between atoms: C24_41  and  O17_42
REMARK   23  A    between atoms: C25_43  and  O18_44
REMARK                            x       y       z     vdW  Elec       q    Type
REMARK                         _______ _______ _______ _____ _____    ______ ____
ROOT
ATOM      1  O2  UNL     1      26.607  -7.917 -38.356  0.00  0.00    +0.000 OA
ENDROOT
BRANCH   1   5
ATOM      2  C1  UNL     1      28.766 -10.748 -40.812  0.00  0.00    +0.000 C 
ATOM      3  C2  UNL     1      27.368 -10.144 -41.029  0.00  0.00    +0.000 C 
ATOM      4  O1  UNL     1      26.786  -9.652 -39.831  0.00  0.00    +0.000 OA
ATOM      5  C3  UNL     1      27.500  -8.573 -39.244  0.00  0.00    +0.000 C 
ATOM      6  C16 UNL     1      28.020  -7.542 -40.288  0.00  0.00    +0.000 C 
ATOM      7  C17 UNL     1      27.241  -7.641 -41.612  0.00  0.00    +0.000 C 
ATOM      8  C18 UNL     1      27.305  -9.088 -42.178  0.00  0.00    +0.000 C 
BRANCH   8   9
ATOM      9  N1  UNL     1      26.141  -9.405 -43.040  0.00  0.00    +0.000 NA
ATOM     10  H32 UNL     1      25.666 -10.250 -42.645  0.00  0.00    +0.000 HD
BRANCH   9  11
ATOM     11  C19 UNL     1      25.132  -8.333 -43.179  0.00  0.00    +0.000 C 
ATOM     12  C20 UNL     1      24.822  -8.019 -44.628  0.00  0.00    +0.000 C 
ATOM     13  C21 UNL     1      23.799  -7.193 -44.921  0.00  0.00    +0.000 C 
ATOM     14  C23 UNL     1      22.967  -6.653 -43.764  0.00  0.00    +0.000 C 
ATOM     15  C24 UNL     1      22.593  -7.814 -42.809  0.00  0.00    +0.000 C 
ATOM     16  C25 UNL     1      23.816  -8.728 -42.446  0.00  0.00    +0.000 C 
BRANCH  16  17
ATOM     17  O18 UNL     1      23.496 -10.080 -42.676  0.00  0.00    +0.000 OA
ATOM     18  H43 UNL     1      22.861 -10.360 -41.967  0.00  0.00    +0.000 HD
ENDBRANCH  16  17
BRANCH  15  19
ATOM     19  O17 UNL     1      22.030  -7.282 -41.636  0.00  0.00    +0.000 OA
ATOM     20  H41 UNL     1      21.984  -6.299 -41.762  0.00  0.00    +0.000 HD
ENDBRANCH  15  19
BRANCH  14  21
ATOM     21  O16 UNL     1      21.807  -6.015 -44.233  0.00  0.00    +0.000 OA
ATOM     22  H39 UNL     1      21.981  -5.038 -44.207  0.00  0.00    +0.000 HD
ENDBRANCH  14  21
BRANCH  13  23
ATOM     23  C22 UNL     1      23.485  -6.883 -46.371  0.00  0.00    +0.000 C 
BRANCH  23  24
ATOM     24  O15 UNL     1      23.513  -8.058 -47.134  0.00  0.00    +0.000 OA
ATOM     25  H37 UNL     1      22.693  -8.044 -47.695  0.00  0.00    +0.000 HD
ENDBRANCH  23  24
ENDBRANCH  13  23
ENDBRANCH   9  11
ENDBRANCH   8   9
BRANCH   7  26
ATOM     26  O14 UNL     1      27.805  -6.751 -42.539  0.00  0.00    +0.000 OA
ATOM     27  H30 UNL     1      28.646  -6.406 -42.142  0.00  0.00    +0.000 HD
ENDBRANCH   7  26
BRANCH   6  28
ATOM     28  O13 UNL     1      28.009  -6.231 -39.776  0.00  0.00    +0.000 OA
ATOM     29  H28 UNL     1      28.406  -5.632 -40.459  0.00  0.00    +0.000 HD
ENDBRANCH   6  28
ENDBRANCH   1   5
BRANCH   1  30
ATOM     30  C4  UNL     1      26.984  -8.020 -36.991  0.00  0.00    +0.000 C 
ATOM     31  C5  UNL     1      26.108  -9.099 -36.331  0.00  0.00    +0.000 C 
ATOM     32  C6  UNL     1      26.498  -9.292 -34.849  0.00  0.00    +0.000 C 
ATOM     33  C7  UNL     1      28.016  -9.066 -34.649  0.00  0.00    +0.000 C 
ATOM     34  O11 UNL     1      28.730  -9.384 -35.833  0.00  0.00    +0.000 OA
ATOM     35  C14 UNL     1      28.481  -8.446 -36.878  0.00  0.00    +0.000 C 
BRANCH  32  36
ATOM     36  O4  UNL     1      26.132 -10.584 -34.431  0.00  0.00    +0.000 OA
ATOM     37  H10 UNL     1      25.394 -10.473 -33.774  0.00  0.00    +0.000 HD
ENDBRANCH  32  36
BRANCH  31  38
ATOM     38  O3  UNL     1      24.742  -8.792 -36.452  0.00  0.00    +0.000 OA
ATOM     39  H8  UNL     1      24.630  -7.832 -36.235  0.00  0.00    +0.000 HD
ENDBRANCH  31  38
BRANCH  35  40
ATOM     40  C15 UNL     1      29.428  -7.233 -36.769  0.00  0.00    +0.000 C 
BRANCH  40  41
ATOM     41  O12 UNL     1      28.731  -6.042 -37.015  0.00  0.00    +0.000 OA
ATOM     42  H26 UNL     1      29.409  -5.315 -37.034  0.00  0.00    +0.000 HD
ENDBRANCH  40  41
ENDBRANCH  35  40
BRANCH  33  43
ATOM     43  O5  UNL     1      28.475  -9.883 -33.588  0.00  0.00    +0.000 OA
BRANCH  43  44
ATOM     44  C8  UNL     1      29.394  -9.195 -32.752  0.00  0.00    +0.000 C 
ATOM     45  C9  UNL     1      30.832  -9.612 -33.113  0.00  0.00    +0.000 C 
ATOM     46  C10 UNL     1      31.838  -8.844 -32.237  0.00  0.00    +0.000 C 
ATOM     47  C11 UNL     1      31.341  -7.402 -31.943  0.00  0.00    +0.000 C 
ATOM     48  O9  UNL     1      30.467  -6.938 -32.958  0.00  0.00    +0.000 OA
ATOM     49  C12 UNL     1      29.237  -7.664 -32.991  0.00  0.00    +0.000 C 
BRANCH  47  50
ATOM     50  O8  UNL     1      32.413  -6.505 -31.798  0.00  0.00    +0.000 OA
ATOM     51  H18 UNL     1      32.258  -5.756 -32.434  0.00  0.00    +0.000 HD
ENDBRANCH  47  50
BRANCH  46  52
ATOM     52  O7  UNL     1      33.091  -8.837 -32.880  0.00  0.00    +0.000 OA
ATOM     53  H16 UNL     1      32.921  -8.905 -33.856  0.00  0.00    +0.000 HD
ENDBRANCH  46  52
BRANCH  45  54
ATOM     54  O6  UNL     1      31.012 -10.992 -32.911  0.00  0.00    +0.000 OA
ATOM     55  H14 UNL     1      31.746 -11.275 -33.515  0.00  0.00    +0.000 HD
ENDBRANCH  45  54
BRANCH  49  56
ATOM     56  C13 UNL     1      28.207  -7.045 -32.035  0.00  0.00    +0.000 C 
BRANCH  56  57
ATOM     57  O10 UNL     1      27.602  -8.053 -31.265  0.00  0.00    +0.000 OA
ATOM     58  H22 UNL     1      27.000  -8.564 -31.867  0.00  0.00    +0.000 HD
ENDBRANCH  56  57
ENDBRANCH  49  56
ENDBRANCH  43  44
ENDBRANCH  33  43
ENDBRANCH   1  30
TORSDOF 22
ENDMDL
MODEL 2
REMARK VINA RESULT:    -5.275      2.003      3.550
REMARK INTER + INTRA:         -12.432
REMARK INTER:                  -9.527
REMARK INTRA:                  -2.905
REMARK UNBOUND:                -2.376
REMARK  Name = resultss/4CJN/ligands/lig_366_t0.pdb
REMARK  23 active torsions:
REMARK  status: ('A' for Active; 'I' for Inactive)
REMARK    1  A    between atoms: C1_1  and  C2_2
REMARK    2  A    between atoms: C3_4  and  O2_5
REMARK    3  A    between atoms: O2_5  and  C4_6
REMARK    4  A    between atoms: C5_7  and  O3_8
REMARK    5  A    between atoms: C6_9  and  O4_10
REMARK    6  A    between atoms: C7_11  and  O5_12
REMARK    7  A    between atoms: O5_12  and  C8_13
REMARK    8  A    between atoms: C9_14  and  O6_15
REMARK    9  A    between atoms: C10_16  and  O7_17
REMARK   10  A    between atoms: C11_18  and  O8_19
REMARK   11  A    between atoms: C12_21  and  C13_22
REMARK   12  A    between atoms: C13_22  and  O10_23
REMARK   13  A    between atoms: C14_25  and  C15_26
REMARK   14  A    between atoms: C15_26  and  O12_27
REMARK   15  A    between atoms: C16_28  and  O13_29
REMARK   16  A    between atoms: C17_30  and  O14_31
REMARK   17  A    between atoms: C18_32  and  N1_33
REMARK   18  A    between atoms: N1_33  and  C19_34
REMARK   19  A    between atoms: C21_36  and  C22_37
REMARK   20  A    between atoms: C22_37  and  O15_38
REMARK   21  A    between atoms: C23_39  and  O16_40
REMARK   22  A    between atoms: C24_41  and  O17_42
REMARK   23  A    between atoms: C25_43  and  O18_44
REMARK                            x       y       z     vdW  Elec       q    Type
REMARK                         _______ _______ _______ _____ _____    ______ ____
ROOT
ATOM      1  O2  UNL     1      29.248  -8.015 -38.825  0.00  0.00    +0.000 OA
ENDROOT
BRANCH   1   5
ATOM      2  C1  UNL     1      30.132 -11.140 -41.682  0.00  0.00    +0.000 C 
ATOM      3  C2  UNL     1      28.810 -10.388 -41.445  0.00  0.00    +0.000 C 
ATOM      4  O1  UNL     1      28.733  -9.800 -40.155  0.00  0.00    +0.000 OA
ATOM      5  C3  UNL     1      29.708  -8.792 -39.921  0.00  0.00    +0.000 C 
ATOM      6  C16 UNL     1      29.926  -7.857 -41.146  0.00  0.00    +0.000 C 
ATOM      7  C17 UNL     1      28.728  -7.905 -42.111  0.00  0.00    +0.000 C 
ATOM      8  C18 UNL     1      28.452  -9.365 -42.568  0.00  0.00    +0.000 C 
BRANCH   8   9
ATOM      9  N1  UNL     1      27.035  -9.573 -42.954  0.00  0.00    +0.000 NA
ATOM     10  H32 UNL     1      26.798 -10.579 -42.786  0.00  0.00    +0.000 HD
BRANCH   9  11
ATOM     11  C19 UNL     1      26.044  -8.740 -42.241  0.00  0.00    +0.000 C 
ATOM     12  C20 UNL     1      24.964  -8.213 -43.162  0.00  0.00    +0.000 C 
ATOM     13  C21 UNL     1      23.894  -7.588 -42.636  0.00  0.00    +0.000 C 
ATOM     14  C23 UNL     1      23.804  -7.486 -41.118  0.00  0.00    +0.000 C 
ATOM     15  C24 UNL     1      24.104  -8.870 -40.489  0.00  0.00    +0.000 C 
ATOM     16  C25 UNL     1      25.385  -9.551 -41.087  0.00  0.00    +0.000 C 
BRANCH  16  17
ATOM     17  O18 UNL     1      25.089 -10.865 -41.497  0.00  0.00    +0.000 OA
ATOM     18  H43 UNL     1      24.378 -11.212 -40.897  0.00  0.00    +0.000 HD
ENDBRANCH  16  17
BRANCH  15  19
ATOM     19  O17 UNL     1      24.247  -8.722 -39.098  0.00  0.00    +0.000 OA
ATOM     20  H41 UNL     1      24.661  -9.559 -38.763  0.00  0.00    +0.000 HD
ENDBRANCH  15  19
BRANCH  14  21
ATOM     21  O16 UNL     1      22.536  -7.034 -40.718  0.00  0.00    +0.000 OA
ATOM     22  H39 UNL     1      21.882  -7.382 -41.379  0.00  0.00    +0.000 HD
ENDBRANCH  14  21
BRANCH  13  23
ATOM     23  C22 UNL     1      22.810  -7.066 -43.557  0.00  0.00    +0.000 C 
BRANCH  23  24
ATOM     24  O15 UNL     1      22.749  -7.842 -44.722  0.00  0.00    +0.000 OA
ATOM     25  H37 UNL     1      22.398  -7.246 -45.436  0.00  0.00    +0.000 HD
ENDBRANCH  23  24
ENDBRANCH  13  23
ENDBRANCH   9  11
ENDBRANCH   8   9
BRANCH   7  26
ATOM     26  O14 UNL     1      29.016  -7.110 -43.232  0.00  0.00    +0.000 OA
ATOM     27  H30 UNL     1      28.221  -7.137 -43.825  0.00  0.00    +0.000 HD
ENDBRANCH   7  26
BRANCH   6  28
ATOM     28  O13 UNL     1      30.220  -6.539 -40.748  0.00  0.00    +0.000 OA
ATOM     29  H28 UNL     1      29.814  -6.391 -39.856  0.00  0.00    +0.000 HD
ENDBRANCH   6  28
ENDBRANCH   1   5
BRANCH   1  30
ATOM     30  C4  UNL     1      29.970  -8.241 -37.625  0.00  0.00    +0.000 C 
ATOM     31  C5  UNL     1      30.815  -6.988 -37.330  0.00  0.00    +0.000 C 
ATOM     32  C6  UNL     1      31.596  -7.152 -36.008  0.00  0.00    +0.000 C 
ATOM     33  C7  UNL     1      30.787  -7.996 -34.994  0.00  0.00    +0.000 C 
ATOM     34  O11 UNL     1      29.394  -7.853 -35.223  0.00  0.00    +0.000 OA
ATOM     35  C14 UNL     1      28.983  -8.475 -36.440  0.00  0.00    +0.000 C 
BRANCH  32  36
ATOM     36  O4  UNL     1      31.887  -5.883 -35.474  0.00  0.00    +0.000 OA
ATOM     37  H10 UNL     1      32.196  -5.319 -36.232  0.00  0.00    +0.000 HD
ENDBRANCH  32  36
BRANCH  31  38
ATOM     38  O3  UNL     1      31.686  -6.698 -38.394  0.00  0.00    +0.000 OA
ATOM     39  H8  UNL     1      32.588  -6.550 -38.010  0.00  0.00    +0.000 HD
ENDBRANCH  31  38
BRANCH  35  40
ATOM     40  C15 UNL     1      28.677  -9.970 -36.218  0.00  0.00    +0.000 C 
BRANCH  40  41
ATOM     41  O12 UNL     1      28.155 -10.543 -37.388  0.00  0.00    +0.000 OA
ATOM     42  H26 UNL     1      27.627 -11.335 -37.105  0.00  0.00    +0.000 HD
ENDBRANCH  40  41
ENDBRANCH  35  40
BRANCH  33  43
ATOM     43  O5  UNL     1      31.095  -7.571 -33.680  0.00  0.00    +0.000 OA
BRANCH  43  44
ATOM     44  C8  UNL     1      31.896  -8.521 -32.992  0.00  0.00    +0.000 C 
ATOM     45  C9  UNL     1      31.114  -9.838 -32.836  0.00  0.00    +0.000 C 
ATOM     46  C10 UNL     1      31.986 -10.887 -32.124  0.00  0.00    +0.000 C 
ATOM     47  C11 UNL     1      33.480 -10.742 -32.526  0.00  0.00    +0.000 C 
ATOM     48  O9  UNL     1      33.616 -10.153 -33.808  0.00  0.00    +0.000 OA
ATOM     49  C12 UNL     1      33.179  -8.793 -33.830  0.00  0.00    +0.000 C 
BRANCH  47  50
ATOM     50  O8  UNL     1      34.143 -11.980 -32.503  0.00  0.00    +0.000 OA
ATOM     51  H18 UNL     1      35.001 -11.846 -32.017  0.00  0.00    +0.000 HD
ENDBRANCH  47  50
BRANCH  46  52
ATOM     52  O7  UNL     1      31.493 -12.171 -32.424  0.00  0.00    +0.000 OA
ATOM     53  H16 UNL     1      30.505 -12.135 -32.335  0.00  0.00    +0.000 HD
ENDBRANCH  46  52
BRANCH  45  54
ATOM     54  O6  UNL     1      29.944  -9.632 -32.084  0.00  0.00    +0.000 OA
ATOM     55  H14 UNL     1      29.576  -8.753 -32.363  0.00  0.00    +0.000 HD
ENDBRANCH  45  54
BRANCH  49  56
ATOM     56  C13 UNL     1      34.322  -7.842 -33.441  0.00  0.00    +0.000 C 
BRANCH  56  57
ATOM     57  O10 UNL     1      33.818  -6.546 -33.242  0.00  0.00    +0.000 OA
ATOM     58  H22 UNL     1      34.233  -6.191 -32.412  0.00  0.00    +0.000 HD
ENDBRANCH  56  57
ENDBRANCH  49  56
ENDBRANCH  43  44
ENDBRANCH  33  43
ENDBRANCH   1  30
TORSDOF 22
ENDMDL
MODEL 3
REMARK VINA RESULT:    -5.271      1.957      3.851
REMARK INTER + INTRA:         -12.424
REMARK INTER:                 -10.366
REMARK INTRA:                  -2.058
REMARK UNBOUND:                -2.376
REMARK  Name = resultss/4CJN/ligands/lig_366_t0.pdb
REMARK  23 active torsions:
REMARK  status: ('A' for Active; 'I' for Inactive)
REMARK    1  A    between atoms: C1_1  and  C2_2
REMARK    2  A    between atoms: C3_4  and  O2_5
REMARK    3  A    between atoms: O2_5  and  C4_6
REMARK    4  A    between atoms: C5_7  and  O3_8
REMARK    5  A    between atoms: C6_9  and  O4_10
REMARK    6  A    between atoms: C7_11  and  O5_12
REMARK    7  A    between atoms: O5_12  and  C8_13
REMARK    8  A    between atoms: C9_14  and  O6_15
REMARK    9  A    between atoms: C10_16  and  O7_17
REMARK   10  A    between atoms: C11_18  and  O8_19
REMARK   11  A    between atoms: C12_21  and  C13_22
REMARK   12  A    between atoms: C13_22  and  O10_23
REMARK   13  A    between atoms: C14_25  and  C15_26
REMARK   14  A    between atoms: C15_26  and  O12_27
REMARK   15  A    between atoms: C16_28  and  O13_29
REMARK   16  A    between atoms: C17_30  and  O14_31
REMARK   17  A    between atoms: C18_32  and  N1_33
REMARK   18  A    between atoms: N1_33  and  C19_34
REMARK   19  A    between atoms: C21_36  and  C22_37
REMARK   20  A    between atoms: C22_37  and  O15_38
REMARK   21  A    between atoms: C23_39  and  O16_40
REMARK   22  A    between atoms: C24_41  and  O17_42
REMARK   23  A    between atoms: C25_43  and  O18_44
REMARK                            x       y       z     vdW  Elec       q    Type
REMARK                         _______ _______ _______ _____ _____    ______ ____
ROOT
ATOM      1  O2  UNL     1      29.117  -9.415 -40.123  0.00  0.00    +0.000 OA
ENDROOT
BRANCH   1   5
ATOM      2  C1  UNL     1      25.769  -6.680 -39.978  0.00  0.00    +0.000 C 
ATOM      3  C2  UNL     1      26.413  -7.362 -41.198  0.00  0.00    +0.000 C 
ATOM      4  O1  UNL     1      27.745  -7.789 -40.955  0.00  0.00    +0.000 OA
ATOM      5  C3  UNL     1      27.855  -8.788 -39.949  0.00  0.00    +0.000 C 
ATOM      6  C16 UNL     1      26.738  -9.869 -40.035  0.00  0.00    +0.000 C 
ATOM      7  C17 UNL     1      26.097  -9.904 -41.434  0.00  0.00    +0.000 C 
ATOM      8  C18 UNL     1      25.545  -8.503 -41.819  0.00  0.00    +0.000 C 
BRANCH   8   9
ATOM      9  N1  UNL     1      25.494  -8.304 -43.287  0.00  0.00    +0.000 NA
ATOM     10  H32 UNL     1      25.484  -9.247 -43.741  0.00  0.00    +0.000 HD
BRANCH   9  11
ATOM     11  C19 UNL     1      24.336  -7.536 -43.793  0.00  0.00    +0.000 C 
ATOM     12  C20 UNL     1      24.171  -7.665 -45.293  0.00  0.00    +0.000 C 
ATOM     13  C21 UNL     1      23.064  -7.171 -45.880  0.00  0.00    +0.000 C 
ATOM     14  C23 UNL     1      22.002  -6.545 -44.984  0.00  0.00    +0.000 C 
ATOM     15  C24 UNL     1      21.720  -7.483 -43.784  0.00  0.00    +0.000 C 
ATOM     16  C25 UNL     1      23.028  -8.001 -43.089  0.00  0.00    +0.000 C 
BRANCH  16  17
ATOM     17  O18 UNL     1      22.990  -9.404 -42.969  0.00  0.00    +0.000 OA
ATOM     18  H43 UNL     1      23.091  -9.624 -42.007  0.00  0.00    +0.000 HD
ENDBRANCH  16  17
BRANCH  15  19
ATOM     19  O17 UNL     1      20.919  -6.806 -42.848  0.00  0.00    +0.000 OA
ATOM     20  H41 UNL     1      20.116  -7.368 -42.700  0.00  0.00    +0.000 HD
ENDBRANCH  15  19
BRANCH  14  21
ATOM     21  O16 UNL     1      20.819  -6.302 -45.700  0.00  0.00    +0.000 OA
ATOM     22  H39 UNL     1      20.822  -5.341 -45.949  0.00  0.00    +0.000 HD
ENDBRANCH  14  21
BRANCH  13  23
ATOM     23  C22 UNL     1      22.895  -7.304 -47.380  0.00  0.00    +0.000 C 
BRANCH  23  24
ATOM     24  O15 UNL     1      23.141  -8.625 -47.779  0.00  0.00    +0.000 OA
ATOM     25  H37 UNL     1      23.679  -8.568 -48.613  0.00  0.00    +0.000 HD
ENDBRANCH  23  24
ENDBRANCH  13  23
ENDBRANCH   9  11
ENDBRANCH   8   9
BRANCH   7  26
ATOM     26  O14 UNL     1      25.046 -10.835 -41.428  0.00  0.00    +0.000 OA
ATOM     27  H30 UNL     1      25.425 -11.706 -41.141  0.00  0.00    +0.000 HD
ENDBRANCH   7  26
BRANCH   6  28
ATOM     28  O13 UNL     1      27.211 -11.137 -39.648  0.00  0.00    +0.000 OA
ATOM     29  H28 UNL     1      26.847 -11.806 -40.283  0.00  0.00    +0.000 HD
ENDBRANCH   6  28
ENDBRANCH   1   5
BRANCH   1  30
ATOM     30  C4  UNL     1      30.012  -9.203 -39.042  0.00  0.00    +0.000 C 
ATOM     31  C5  UNL     1      30.877  -7.973 -39.369  0.00  0.00    +0.000 C 
ATOM     32  C6  UNL     1      31.848  -7.661 -38.209  0.00  0.00    +0.000 C 
ATOM     33  C7  UNL     1      31.206  -8.019 -36.847  0.00  0.00    +0.000 C 
ATOM     34  O11 UNL     1      29.793  -7.908 -36.915  0.00  0.00    +0.000 OA
ATOM     35  C14 UNL     1      29.213  -8.924 -37.732  0.00  0.00    +0.000 C 
BRANCH  32  36
ATOM     36  O4  UNL     1      32.201  -6.299 -38.246  0.00  0.00    +0.000 OA
ATOM     37  H10 UNL     1      32.572  -6.125 -39.152  0.00  0.00    +0.000 HD
ENDBRANCH  32  36
BRANCH  31  38
ATOM     38  O3  UNL     1      31.579  -8.149 -40.574  0.00  0.00    +0.000 OA
ATOM     39  H8  UNL     1      30.911  -8.206 -41.304  0.00  0.00    +0.000 HD
ENDBRANCH  31  38
BRANCH  35  40
ATOM     40  C15 UNL     1      28.958 -10.208 -36.915  0.00  0.00    +0.000 C 
BRANCH  40  41
ATOM     41  O12 UNL     1      27.582 -10.431 -36.769  0.00  0.00    +0.000 OA
ATOM     42  H26 UNL     1      27.444 -10.754 -35.839  0.00  0.00    +0.000 HD
ENDBRANCH  40  41
ENDBRANCH  35  40
BRANCH  33  43
ATOM     43  O5  UNL     1      31.700  -7.142 -35.852  0.00  0.00    +0.000 OA
BRANCH  43  44
ATOM     44  C8  UNL     1      31.784  -7.777 -34.584  0.00  0.00    +0.000 C 
ATOM     45  C9  UNL     1      30.391  -7.803 -33.927  0.00  0.00    +0.000 C 
ATOM     46  C10 UNL     1      30.465  -8.522 -32.568  0.00  0.00    +0.000 C 
ATOM     47  C11 UNL     1      31.491  -9.688 -32.603  0.00  0.00    +0.000 C 
ATOM     48  O9  UNL     1      31.658 -10.191 -33.917  0.00  0.00    +0.000 OA
ATOM     49  C12 UNL     1      32.272  -9.241 -34.790  0.00  0.00    +0.000 C 
BRANCH  47  50
ATOM     50  O8  UNL     1      31.116 -10.733 -31.742  0.00  0.00    +0.000 OA
ATOM     51  H18 UNL     1      30.997 -10.340 -30.836  0.00  0.00    +0.000 HD
ENDBRANCH  47  50
BRANCH  46  52
ATOM     52  O7  UNL     1      29.178  -8.978 -32.223  0.00  0.00    +0.000 OA
ATOM     53  H16 UNL     1      28.547  -8.620 -32.900  0.00  0.00    +0.000 HD
ENDBRANCH  46  52
BRANCH  45  54
ATOM     54  O6  UNL     1      29.916  -6.495 -33.726  0.00  0.00    +0.000 OA
ATOM     55  H14 UNL     1      30.704  -5.894 -33.779  0.00  0.00    +0.000 HD
ENDBRANCH  45  54
BRANCH  49  56
ATOM     56  C13 UNL     1      33.803  -9.342 -34.722  0.00  0.00    +0.000 C 
BRANCH  56  57
ATOM     57  O10 UNL     1      34.378  -8.090 -34.997  0.00  0.00    +0.000 OA
ATOM     58  H22 UNL     1      35.327  -8.129 -34.706  0.00  0.00    +0.000 HD
ENDBRANCH  56  57
ENDBRANCH  49  56
ENDBRANCH  43  44
ENDBRANCH  33  43
ENDBRANCH   1  30
TORSDOF 22
ENDMDL
MODEL 4
REMARK VINA RESULT:    -5.229      2.506      5.026
REMARK INTER + INTRA:         -12.343
REMARK INTER:                  -9.292
REMARK INTRA:                  -3.051
REMARK UNBOUND:                -2.376
REMARK  Name = resultss/4CJN/ligands/lig_366_t0.pdb
REMARK  23 active torsions:
REMARK  status: ('A' for Active; 'I' for Inactive)
REMARK    1  A    between atoms: C1_1  and  C2_2
REMARK    2  A    between atoms: C3_4  and  O2_5
REMARK    3  A    between atoms: O2_5  and  C4_6
REMARK    4  A    between atoms: C5_7  and  O3_8
REMARK    5  A    between atoms: C6_9  and  O4_10
REMARK    6  A    between atoms: C7_11  and  O5_12
REMARK    7  A    between atoms: O5_12  and  C8_13
REMARK    8  A    between atoms: C9_14  and  O6_15
REMARK    9  A    between atoms: C10_16  and  O7_17
REMARK   10  A    between atoms: C11_18  and  O8_19
REMARK   11  A    between atoms: C12_21  and  C13_22
REMARK   12  A    between atoms: C13_22  and  O10_23
REMARK   13  A    between atoms: C14_25  and  C15_26
REMARK   14  A    between atoms: C15_26  and  O12_27
REMARK   15  A    between atoms: C16_28  and  O13_29
REMARK   16  A    between atoms: C17_30  and  O14_31
REMARK   17  A    between atoms: C18_32  and  N1_33
REMARK   18  A    between atoms: N1_33  and  C19_34
REMARK   19  A    between atoms: C21_36  and  C22_37
REMARK   20  A    between atoms: C22_37  and  O15_38
REMARK   21  A    between atoms: C23_39  and  O16_40
REMARK   22  A    between atoms: C24_41  and  O17_42
REMARK   23  A    between atoms: C25_43  and  O18_44
REMARK                            x       y       z     vdW  Elec       q    Type
REMARK                         _______ _______ _______ _____ _____    ______ ____
ROOT
ATOM      1  O2  UNL     1      24.893  -9.414 -39.239  0.00  0.00    +0.000 OA
ENDROOT
BRANCH   1   5
ATOM      2  C1  UNL     1      24.382  -5.959 -41.792  0.00  0.00    +0.000 C 
ATOM      3  C2  UNL     1      25.682  -6.637 -41.325  0.00  0.00    +0.000 C 
ATOM      4  O1  UNL     1      25.511  -7.411 -40.147  0.00  0.00    +0.000 OA
ATOM      5  C3  UNL     1      24.627  -8.513 -40.304  0.00  0.00    +0.000 C 
ATOM      6  C16 UNL     1      24.817  -9.261 -41.656  0.00  0.00    +0.000 C 
ATOM      7  C17 UNL     1      26.200  -8.974 -42.268  0.00  0.00    +0.000 C 
ATOM      8  C18 UNL     1      26.414  -7.444 -42.444  0.00  0.00    +0.000 C 
BRANCH   8   9
ATOM      9  N1  UNL     1      27.849  -7.073 -42.425  0.00  0.00    +0.000 NA
ATOM     10  H32 UNL     1      27.944  -6.172 -41.901  0.00  0.00    +0.000 HD
BRANCH   9  11
ATOM     11  C19 UNL     1      28.762  -8.061 -41.810  0.00  0.00    +0.000 C 
ATOM     12  C20 UNL     1      29.465  -8.916 -42.843  0.00  0.00    +0.000 C 
ATOM     13  C21 UNL     1      30.457  -9.740 -42.454  0.00  0.00    +0.000 C 
ATOM     14  C23 UNL     1      30.857  -9.728 -40.984  0.00  0.00    +0.000 C 
ATOM     15  C24 UNL     1      31.021  -8.264 -40.504  0.00  0.00    +0.000 C 
ATOM     16  C25 UNL     1      29.825  -7.342 -40.929  0.00  0.00    +0.000 C 
BRANCH  16  17
ATOM     17  O18 UNL     1      30.309  -6.183 -41.566  0.00  0.00    +0.000 OA
ATOM     18  H43 UNL     1      29.550  -5.548 -41.648  0.00  0.00    +0.000 HD
ENDBRANCH  16  17
BRANCH  15  19
ATOM     19  O17 UNL     1      31.161  -8.251 -39.105  0.00  0.00    +0.000 OA
ATOM     20  H41 UNL     1      32.102  -8.497 -38.911  0.00  0.00    +0.000 HD
ENDBRANCH  15  19
BRANCH  14  21
ATOM     21  O16 UNL     1      32.047 -10.444 -40.780  0.00  0.00    +0.000 OA
ATOM     22  H39 UNL     1      31.883 -11.374 -41.085  0.00  0.00    +0.000 HD
ENDBRANCH  14  21
BRANCH  13  23
ATOM     23  C22 UNL     1      31.165 -10.592 -43.489  0.00  0.00    +0.000 C 
BRANCH  23  24
ATOM     24  O15 UNL     1      31.049 -11.949 -43.159  0.00  0.00    +0.000 OA
ATOM     25  H37 UNL     1      31.974 -12.279 -43.008  0.00  0.00    +0.000 HD
ENDBRANCH  23  24
ENDBRANCH  13  23
ENDBRANCH   9  11
ENDBRANCH   8   9
BRANCH   7  26
ATOM     26  O14 UNL     1      26.282  -9.605 -43.520  0.00  0.00    +0.000 OA
ATOM     27  H30 UNL     1      25.384  -9.973 -43.724  0.00  0.00    +0.000 HD
ENDBRANCH   7  26
BRANCH   6  28
ATOM     28  O13 UNL     1      24.585 -10.643 -41.523  0.00  0.00    +0.000 OA
ATOM     29  H28 UNL     1      24.017 -10.782 -40.721  0.00  0.00    +0.000 HD
ENDBRANCH   6  28
ENDBRANCH   1   5
BRANCH   1  30
ATOM     30  C4  UNL     1      25.781  -8.894 -38.262  0.00  0.00    +0.000 C 
ATOM     31  C5  UNL     1      24.960  -8.527 -37.013  0.00  0.00    +0.000 C 
ATOM     32  C6  UNL     1      25.876  -7.992 -35.891  0.00  0.00    +0.000 C 
ATOM     33  C7  UNL     1      27.257  -8.690 -35.932  0.00  0.00    +0.000 C 
ATOM     34  O11 UNL     1      27.141  -9.995 -36.477  0.00  0.00    +0.000 OA
ATOM     35  C14 UNL     1      26.840  -9.970 -37.871  0.00  0.00    +0.000 C 
BRANCH  32  36
ATOM     36  O4  UNL     1      25.258  -8.194 -34.643  0.00  0.00    +0.000 OA
ATOM     37  H10 UNL     1      25.219  -9.176 -34.499  0.00  0.00    +0.000 HD
ENDBRANCH  32  36
BRANCH  31  38
ATOM     38  O3  UNL     1      23.951  -7.598 -37.320  0.00  0.00    +0.000 OA
ATOM     39  H8  UNL     1      24.169  -6.752 -36.851  0.00  0.00    +0.000 HD
ENDBRANCH  31  38
BRANCH  35  40
ATOM     40  C15 UNL     1      28.128  -9.857 -38.712  0.00  0.00    +0.000 C 
BRANCH  40  41
ATOM     41  O12 UNL     1      29.154 -10.626 -38.143  0.00  0.00    +0.000 OA
ATOM     42  H26 UNL     1      29.176 -11.485 -38.644  0.00  0.00    +0.000 HD
ENDBRANCH  40  41
ENDBRANCH  35  40
BRANCH  33  43
ATOM     43  O5  UNL     1      27.779  -8.772 -34.619  0.00  0.00    +0.000 OA
BRANCH  43  44
ATOM     44  C8  UNL     1      29.132  -8.342 -34.562  0.00  0.00    +0.000 C 
ATOM     45  C9  UNL     1      30.020  -9.497 -34.063  0.00  0.00    +0.000 C 
ATOM     46  C10 UNL     1      31.493  -9.053 -34.033  0.00  0.00    +0.000 C 
ATOM     47  C11 UNL     1      31.811  -8.083 -35.203  0.00  0.00    +0.000 C 
ATOM     48  O9  UNL     1      30.938  -8.291 -36.301  0.00  0.00    +0.000 OA
ATOM     49  C12 UNL     1      29.588  -7.938 -35.995  0.00  0.00    +0.000 C 
BRANCH  47  50
ATOM     50  O8  UNL     1      33.144  -8.210 -35.631  0.00  0.00    +0.000 OA
ATOM     51  H18 UNL     1      33.214  -9.070 -36.126  0.00  0.00    +0.000 HD
ENDBRANCH  47  50
BRANCH  46  52
ATOM     52  O7  UNL     1      32.315 -10.195 -34.070  0.00  0.00    +0.000 OA
ATOM     53  H16 UNL     1      32.576 -10.339 -35.017  0.00  0.00    +0.000 HD
ENDBRANCH  46  52
BRANCH  45  54
ATOM     54  O6  UNL     1      29.635  -9.891 -32.769  0.00  0.00    +0.000 OA
ATOM     55  H14 UNL     1      28.767  -9.449 -32.582  0.00  0.00    +0.000 HD
ENDBRANCH  45  54
BRANCH  49  56
ATOM     56  C13 UNL     1      29.332  -6.449 -36.272  0.00  0.00    +0.000 C 
BRANCH  56  57
ATOM     57  O10 UNL     1      29.263  -6.225 -37.657  0.00  0.00    +0.000 OA
ATOM     58  H22 UNL     1      28.512  -6.771 -38.009  0.00  0.00    +0.000 HD
ENDBRANCH  56  57
ENDBRANCH  49  56
ENDBRANCH  43  44
ENDBRANCH  33  43
ENDBRANCH   1  30
TORSDOF 22
ENDMDL
MODEL 5
REMARK VINA RESULT:    -5.220      2.170      3.454
REMARK INTER + INTRA:         -12.326
REMARK INTER:                  -9.291
REMARK INTRA:                  -3.035
REMARK UNBOUND:                -2.376
REMARK  Name = resultss/4CJN/ligands/lig_366_t0.pdb
REMARK  23 active torsions:
REMARK  status: ('A' for Active; 'I' for Inactive)
REMARK    1  A    between atoms: C1_1  and  C2_2
REMARK    2  A    between atoms: C3_4  and  O2_5
REMARK    3  A    between atoms: O2_5  and  C4_6
REMARK    4  A    between atoms: C5_7  and  O3_8
REMARK    5  A    between atoms: C6_9  and  O4_10
REMARK    6  A    between atoms: C7_11  and  O5_12
REMARK    7  A    between atoms: O5_12  and  C8_13
REMARK    8  A    between atoms: C9_14  and  O6_15
REMARK    9  A    between atoms: C10_16  and  O7_17
REMARK   10  A    between atoms: C11_18  and  O8_19
REMARK   11  A    between atoms: C12_21  and  C13_22
REMARK   12  A    between atoms: C13_22  and  O10_23
REMARK   13  A    between atoms: C14_25  and  C15_26
REMARK   14  A    between atoms: C15_26  and  O12_27
REMARK   15  A    between atoms: C16_28  and  O13_29
REMARK   16  A    between atoms: C17_30  and  O14_31
REMARK   17  A    between atoms: C18_32  and  N1_33
REMARK   18  A    between atoms: N1_33  and  C19_34
REMARK   19  A    between atoms: C21_36  and  C22_37
REMARK   20  A    between atoms: C22_37  and  O15_38
REMARK   21  A    between atoms: C23_39  and  O16_40
REMARK   22  A    between atoms: C24_41  and  O17_42
REMARK   23  A    between atoms: C25_43  and  O18_44
REMARK                            x       y       z     vdW  Elec       q    Type
REMARK                         _______ _______ _______ _____ _____    ______ ____
ROOT
ATOM      1  O2  UNL     1      29.533  -7.934 -39.469  0.00  0.00    +0.000 OA
ENDROOT
BRANCH   1   5
ATOM      2  C1  UNL     1      30.230 -10.733 -42.693  0.00  0.00    +0.000 C 
ATOM      3  C2  UNL     1      28.898 -10.169 -42.169  0.00  0.00    +0.000 C 
ATOM      4  O1  UNL     1      28.989  -9.680 -40.839  0.00  0.00    +0.000 OA
ATOM      5  C3  UNL     1      29.872  -8.575 -40.690  0.00  0.00    +0.000 C 
ATOM      6  C16 UNL     1      29.761  -7.543 -41.850  0.00  0.00    +0.000 C 
ATOM      7  C17 UNL     1      28.422  -7.677 -42.596  0.00  0.00    +0.000 C 
ATOM      8  C18 UNL     1      28.231  -9.127 -43.122  0.00  0.00    +0.000 C 
BRANCH   8   9
ATOM      9  N1  UNL     1      26.801  -9.484 -43.277  0.00  0.00    +0.000 NA
ATOM     10  H32 UNL     1      26.675 -10.469 -42.944  0.00  0.00    +0.000 HD
BRANCH   9  11
ATOM     11  C19 UNL     1      25.840  -8.625 -42.551  0.00  0.00    +0.000 C 
ATOM     12  C20 UNL     1      24.693  -8.173 -43.430  0.00  0.00    +0.000 C 
ATOM     13  C21 UNL     1      23.647  -7.535 -42.873  0.00  0.00    +0.000 C 
ATOM     14  C23 UNL     1      23.652  -7.343 -41.361  0.00  0.00    +0.000 C 
ATOM     15  C24 UNL     1      24.019  -8.681 -40.672  0.00  0.00    +0.000 C 
ATOM     16  C25 UNL     1      25.273  -9.376 -41.311  0.00  0.00    +0.000 C 
BRANCH  16  17
ATOM     17  O18 UNL     1      24.977 -10.717 -41.622  0.00  0.00    +0.000 OA
ATOM     18  H43 UNL     1      24.459 -11.092 -40.864  0.00  0.00    +0.000 HD
ENDBRANCH  16  17
BRANCH  15  19
ATOM     19  O17 UNL     1      24.248  -8.447 -39.305  0.00  0.00    +0.000 OA
ATOM     20  H41 UNL     1      25.127  -8.853 -39.089  0.00  0.00    +0.000 HD
ENDBRANCH  15  19
BRANCH  14  21
ATOM     21  O16 UNL     1      22.403  -6.888 -40.907  0.00  0.00    +0.000 OA
ATOM     22  H39 UNL     1      22.005  -7.621 -40.368  0.00  0.00    +0.000 HD
ENDBRANCH  14  21
BRANCH  13  23
ATOM     23  C22 UNL     1      22.495  -7.087 -43.751  0.00  0.00    +0.000 C 
BRANCH  23  24
ATOM     24  O15 UNL     1      21.308  -7.713 -43.349  0.00  0.00    +0.000 OA
ATOM     25  H37 UNL     1      20.933  -7.154 -42.618  0.00  0.00    +0.000 HD
ENDBRANCH  23  24
ENDBRANCH  13  23
ENDBRANCH   9  11
ENDBRANCH   8   9
BRANCH   7  26
ATOM     26  O14 UNL     1      28.413  -6.781 -43.677  0.00  0.00    +0.000 OA
ATOM     27  H30 UNL     1      29.236  -6.949 -44.205  0.00  0.00    +0.000 HD
ENDBRANCH   7  26
BRANCH   6  28
ATOM     28  O13 UNL     1      29.974  -6.227 -41.396  0.00  0.00    +0.000 OA
ATOM     29  H28 UNL     1      30.914  -5.982 -41.598  0.00  0.00    +0.000 HD
ENDBRANCH   6  28
ENDBRANCH   1   5
BRANCH   1  30
ATOM     30  C4  UNL     1      30.349  -8.326 -38.376  0.00  0.00    +0.000 C 
ATOM     31  C5  UNL     1      31.293  -7.158 -38.038  0.00  0.00    +0.000 C 
ATOM     32  C6  UNL     1      32.182  -7.505 -36.824  0.00  0.00    +0.000 C 
ATOM     33  C7  UNL     1      31.420  -8.411 -35.828  0.00  0.00    +0.000 C 
ATOM     34  O11 UNL     1      30.023  -8.172 -35.902  0.00  0.00    +0.000 OA
ATOM     35  C14 UNL     1      29.464  -8.636 -37.129  0.00  0.00    +0.000 C 
BRANCH  32  36
ATOM     36  O4  UNL     1      32.599  -6.318 -36.193  0.00  0.00    +0.000 OA
ATOM     37  H10 UNL     1      32.536  -5.596 -36.873  0.00  0.00    +0.000 HD
ENDBRANCH  32  36
BRANCH  31  38
ATOM     38  O3  UNL     1      32.078  -6.800 -39.147  0.00  0.00    +0.000 OA
ATOM     39  H8  UNL     1      31.889  -5.849 -39.353  0.00  0.00    +0.000 HD
ENDBRANCH  31  38
BRANCH  35  40
ATOM     40  C15 UNL     1      29.087 -10.129 -37.034  0.00  0.00    +0.000 C 
BRANCH  40  41
ATOM     41  O12 UNL     1      28.907 -10.672 -38.315  0.00  0.00    +0.000 OA
ATOM     42  H26 UNL     1      28.170 -11.335 -38.241  0.00  0.00    +0.000 HD
ENDBRANCH  40  41
ENDBRANCH  35  40
BRANCH  33  43
ATOM     43  O5  UNL     1      31.875  -8.148 -34.513  0.00  0.00    +0.000 OA
BRANCH  43  44
ATOM     44  C8  UNL     1      31.806  -9.303 -33.690  0.00  0.00    +0.000 C 
ATOM     45  C9  UNL     1      33.229  -9.768 -33.333  0.00  0.00    +0.000 C 
ATOM     46  C10 UNL     1      33.165 -10.998 -32.410  0.00  0.00    +0.000 C 
ATOM     47  C11 UNL     1      31.952 -10.913 -31.444  0.00  0.00    +0.000 C 
ATOM     48  O9  UNL     1      31.571  -9.569 -31.207  0.00  0.00    +0.000 OA
ATOM     49  C12 UNL     1      31.050  -8.937 -32.378  0.00  0.00    +0.000 C 
BRANCH  47  50
ATOM     50  O8  UNL     1      32.220 -11.549 -30.220  0.00  0.00    +0.000 OA
ATOM     51  H18 UNL     1      31.558 -11.209 -29.560  0.00  0.00    +0.000 HD
ENDBRANCH  47  50
BRANCH  46  52
ATOM     52  O7  UNL     1      34.379 -11.105 -31.706  0.00  0.00    +0.000 OA
ATOM     53  H16 UNL     1      34.177 -11.533 -30.833  0.00  0.00    +0.000 HD
ENDBRANCH  46  52
BRANCH  45  54
ATOM     54  O6  UNL     1      33.945 -10.106 -34.495  0.00  0.00    +0.000 OA
ATOM     55  H14 UNL     1      34.810 -10.491 -34.196  0.00  0.00    +0.000 HD
ENDBRANCH  45  54
BRANCH  49  56
ATOM     56  C13 UNL     1      29.539  -9.181 -32.509  0.00  0.00    +0.000 C 
BRANCH  56  57
ATOM     57  O10 UNL     1      29.282 -10.013 -33.611  0.00  0.00    +0.000 OA
ATOM     58  H22 UNL     1      28.332  -9.881 -33.867  0.00  0.00    +0.000 HD
ENDBRANCH  56  57
ENDBRANCH  49  56
ENDBRANCH  43  44
ENDBRANCH  33  43
ENDBRANCH   1  30
TORSDOF 22
ENDMDL
MODEL 6
REMARK VINA RESULT:    -4.801      1.913      3.257
REMARK INTER + INTRA:         -11.528
REMARK INTER:                  -9.633
REMARK INTRA:                  -1.895
REMARK UNBOUND:                -2.376
REMARK  Name = resultss/4CJN/ligands/lig_366_t0.pdb
REMARK  23 active torsions:
REMARK  status: ('A' for Active; 'I' for Inactive)
REMARK    1  A    between atoms: C1_1  and  C2_2
REMARK    2  A    between atoms: C3_4  and  O2_5
REMARK    3  A    between atoms: O2_5  and  C4_6
REMARK    4  A    between atoms: C5_7  and  O3_8
REMARK    5  A    between atoms: C6_9  and  O4_10
REMARK    6  A    between atoms: C7_11  and  O5_12
REMARK    7  A    between atoms: O5_12  and  C8_13
REMARK    8  A    between atoms: C9_14  and  O6_15
REMARK    9  A    between atoms: C10_16  and  O7_17
REMARK   10  A    between atoms: C11_18  and  O8_19
REMARK   11  A    between atoms: C12_21  and  C13_22
REMARK   12  A    between atoms: C13_22  and  O10_23
REMARK   13  A    between atoms: C14_25  and  C15_26
REMARK   14  A    between atoms: C15_26  and  O12_27
REMARK   15  A    between atoms: C16_28  and  O13_29
REMARK   16  A    between atoms: C17_30  and  O14_31
REMARK   17  A    between atoms: C18_32  and  N1_33
REMARK   18  A    between atoms: N1_33  and  C19_34
REMARK   19  A    between atoms: C21_36  and  C22_37
REMARK   20  A    between atoms: C22_37  and  O15_38
REMARK   21  A    between atoms: C23_39  and  O16_40
REMARK   22  A    between atoms: C24_41  and  O17_42
REMARK   23  A    between atoms: C25_43  and  O18_44
REMARK                            x       y       z     vdW  Elec       q    Type
REMARK                         _______ _______ _______ _____ _____    ______ ____
ROOT
ATOM      1  O2  UNL     1      29.945  -8.561 -39.559  0.00  0.00    +0.000 OA
ENDROOT
BRANCH   1   5
ATOM      2  C1  UNL     1      25.935  -6.941 -39.475  0.00  0.00    +0.000 C 
ATOM      3  C2  UNL     1      26.743  -7.470 -40.673  0.00  0.00    +0.000 C 
ATOM      4  O1  UNL     1      28.144  -7.467 -40.440  0.00  0.00    +0.000 OA
ATOM      5  C3  UNL     1      28.555  -8.328 -39.387  0.00  0.00    +0.000 C 
ATOM      6  C16 UNL     1      27.811  -9.695 -39.388  0.00  0.00    +0.000 C 
ATOM      7  C17 UNL     1      27.197 -10.001 -40.766  0.00  0.00    +0.000 C 
ATOM      8  C18 UNL     1      26.250  -8.851 -41.210  0.00  0.00    +0.000 C 
BRANCH   8   9
ATOM      9  N1  UNL     1      26.130  -8.762 -42.686  0.00  0.00    +0.000 NA
ATOM     10  H32 UNL     1      25.999  -9.731 -43.059  0.00  0.00    +0.000 HD
BRANCH   9  11
ATOM     11  C19 UNL     1      25.026  -7.919 -43.192  0.00  0.00    +0.000 C 
ATOM     12  C20 UNL     1      24.989  -7.866 -44.705  0.00  0.00    +0.000 C 
ATOM     13  C21 UNL     1      23.941  -7.287 -45.320  0.00  0.00    +0.000 C 
ATOM     14  C23 UNL     1      22.809  -6.755 -44.449  0.00  0.00    +0.000 C 
ATOM     15  C24 UNL     1      22.418  -7.825 -43.399  0.00  0.00    +0.000 C 
ATOM     16  C25 UNL     1      23.658  -8.443 -42.663  0.00  0.00    +0.000 C 
BRANCH  16  17
ATOM     17  O18 UNL     1      23.601  -9.850 -42.716  0.00  0.00    +0.000 OA
ATOM     18  H43 UNL     1      22.670 -10.101 -42.951  0.00  0.00    +0.000 HD
ENDBRANCH  16  17
BRANCH  15  19
ATOM     19  O17 UNL     1      21.544  -7.250 -42.460  0.00  0.00    +0.000 OA
ATOM     20  H41 UNL     1      22.080  -6.607 -41.928  0.00  0.00    +0.000 HD
ENDBRANCH  15  19
BRANCH  14  21
ATOM     21  O16 UNL     1      21.694  -6.408 -45.229  0.00  0.00    +0.000 OA
ATOM     22  H39 UNL     1      21.202  -7.248 -45.424  0.00  0.00    +0.000 HD
ENDBRANCH  14  21
BRANCH  13  23
ATOM     23  C22 UNL     1      23.901  -7.238 -46.835  0.00  0.00    +0.000 C 
BRANCH  23  24
ATOM     24  O15 UNL     1      23.115  -8.286 -47.332  0.00  0.00    +0.000 OA
ATOM     25  H37 UNL     1      23.657  -8.730 -48.036  0.00  0.00    +0.000 HD
ENDBRANCH  23  24
ENDBRANCH  13  23
ENDBRANCH   9  11
ENDBRANCH   8   9
BRANCH   7  26
ATOM     26  O14 UNL     1      26.472 -11.200 -40.685  0.00  0.00    +0.000 OA
ATOM     27  H30 UNL     1      25.771 -11.074 -39.994  0.00  0.00    +0.000 HD
ENDBRANCH   7  26
BRANCH   6  28
ATOM     28  O13 UNL     1      28.643 -10.741 -38.946  0.00  0.00    +0.000 OA
ATOM     29  H28 UNL     1      29.122 -11.105 -39.735  0.00  0.00    +0.000 HD
ENDBRANCH   6  28
ENDBRANCH   1   5
BRANCH   1  30
ATOM     30  C4  UNL     1      30.730  -8.173 -38.442  0.00  0.00    +0.000 C 
ATOM     31  C5  UNL     1      29.887  -7.227 -37.569  0.00  0.00    +0.000 C 
ATOM     32  C6  UNL     1      30.670  -6.798 -36.309  0.00  0.00    +0.000 C 
ATOM     33  C7  UNL     1      31.598  -7.939 -35.827  0.00  0.00    +0.000 C 
ATOM     34  O11 UNL     1      31.065  -9.204 -36.189  0.00  0.00    +0.000 OA
ATOM     35  C14 UNL     1      31.120  -9.425 -37.598  0.00  0.00    +0.000 C 
BRANCH  32  36
ATOM     36  O4  UNL     1      29.765  -6.435 -35.294  0.00  0.00    +0.000 OA
ATOM     37  H10 UNL     1      29.096  -7.168 -35.233  0.00  0.00    +0.000 HD
ENDBRANCH  32  36
BRANCH  31  38
ATOM     38  O3  UNL     1      29.461  -6.103 -38.299  0.00  0.00    +0.000 OA
ATOM     39  H8  UNL     1      29.083  -5.452 -37.653  0.00  0.00    +0.000 HD
ENDBRANCH  31  38
BRANCH  35  40
ATOM     40  C15 UNL     1      32.486 -10.009 -38.012  0.00  0.00    +0.000 C 
BRANCH  40  41
ATOM     41  O12 UNL     1      32.607 -10.030 -39.409  0.00  0.00    +0.000 OA
ATOM     42  H26 UNL     1      32.647  -9.083 -39.705  0.00  0.00    +0.000 HD
ENDBRANCH  40  41
ENDBRANCH  35  40
BRANCH  33  43
ATOM     43  O5  UNL     1      31.732  -7.870 -34.420  0.00  0.00    +0.000 OA
BRANCH  43  44
ATOM     44  C8  UNL     1      31.782  -9.162 -33.831  0.00  0.00    +0.000 C 
ATOM     45  C9  UNL     1      33.082  -9.309 -33.018  0.00  0.00    +0.000 C 
ATOM     46  C10 UNL     1      33.128 -10.692 -32.346  0.00  0.00    +0.000 C 
ATOM     47  C11 UNL     1      31.710 -11.154 -31.911  0.00  0.00    +0.000 C 
ATOM     48  O9  UNL     1      30.855 -10.048 -31.676  0.00  0.00    +0.000 OA
ATOM     49  C12 UNL     1      30.566  -9.321 -32.871  0.00  0.00    +0.000 C 
BRANCH  47  50
ATOM     50  O8  UNL     1      31.759 -11.963 -30.764  0.00  0.00    +0.000 OA
ATOM     51  H18 UNL     1      32.150 -12.837 -31.036  0.00  0.00    +0.000 HD
ENDBRANCH  47  50
BRANCH  46  52
ATOM     52  O7  UNL     1      34.011 -10.639 -31.251  0.00  0.00    +0.000 OA
ATOM     53  H16 UNL     1      34.522  -9.790 -31.325  0.00  0.00    +0.000 HD
ENDBRANCH  46  52
BRANCH  45  54
ATOM     54  O6  UNL     1      34.205  -9.169 -33.852  0.00  0.00    +0.000 OA
ATOM     55  H14 UNL     1      34.481 -10.086 -34.114  0.00  0.00    +0.000 HD
ENDBRANCH  45  54
BRANCH  49  56
ATOM     56  C13 UNL     1      29.348  -9.913 -33.595  0.00  0.00    +0.000 C 
BRANCH  56  57
ATOM     57  O10 UNL     1      28.682  -8.906 -34.314  0.00  0.00    +0.000 OA
ATOM     58  H22 UNL     1      27.713  -9.120 -34.295  0.00  0.00    +0.000 HD
ENDBRANCH  56  57
ENDBRANCH  49  56
ENDBRANCH  43  44
ENDBRANCH  33  43
ENDBRANCH   1  30
TORSDOF 22
ENDMDL
MODEL 7
REMARK VINA RESULT:    -4.296      1.565      2.364
REMARK INTER + INTRA:         -10.566
REMARK INTER:                 -10.383
REMARK INTRA:                  -0.182
REMARK UNBOUND:                -2.376
REMARK  Name = resultss/4CJN/ligands/lig_366_t0.pdb
REMARK  23 active torsions:
REMARK  status: ('A' for Active; 'I' for Inactive)
REMARK    1  A    between atoms: C1_1  and  C2_2
REMARK    2  A    between atoms: C3_4  and  O2_5
REMARK    3  A    between atoms: O2_5  and  C4_6
REMARK    4  A    between atoms: C5_7  and  O3_8
REMARK    5  A    between atoms: C6_9  and  O4_10
REMARK    6  A    between atoms: C7_11  and  O5_12
REMARK    7  A    between atoms: O5_12  and  C8_13
REMARK    8  A    between atoms: C9_14  and  O6_15
REMARK    9  A    between atoms: C10_16  and  O7_17
REMARK   10  A    between atoms: C11_18  and  O8_19
REMARK   11  A    between atoms: C12_21  and  C13_22
REMARK   12  A    between atoms: C13_22  and  O10_23
REMARK   13  A    between atoms: C14_25  and  C15_26
REMARK   14  A    between atoms: C15_26  and  O12_27
REMARK   15  A    between atoms: C16_28  and  O13_29
REMARK   16  A    between atoms: C17_30  and  O14_31
REMARK   17  A    between atoms: C18_32  and  N1_33
REMARK   18  A    between atoms: N1_33  and  C19_34
REMARK   19  A    between atoms: C21_36  and  C22_37
REMARK   20  A    between atoms: C22_37  and  O15_38
REMARK   21  A    between atoms: C23_39  and  O16_40
REMARK   22  A    between atoms: C24_41  and  O17_42
REMARK   23  A    between atoms: C25_43  and  O18_44
REMARK                            x       y       z     vdW  Elec       q    Type
REMARK                         _______ _______ _______ _____ _____    ______ ____
ROOT
ATOM      1  O2  UNL     1      27.938  -8.262 -39.324  0.00  0.00    +0.000 OA
ENDROOT
BRANCH   1   5
ATOM      2  C1  UNL     1      23.978  -6.605 -39.856  0.00  0.00    +0.000 C 
ATOM      3  C2  UNL     1      25.078  -6.845 -40.905  0.00  0.00    +0.000 C 
ATOM      4  O1  UNL     1      26.375  -6.937 -40.335  0.00  0.00    +0.000 OA
ATOM      5  C3  UNL     1      26.541  -8.041 -39.455  0.00  0.00    +0.000 C 
ATOM      6  C16 UNL     1      25.871  -9.346 -39.976  0.00  0.00    +0.000 C 
ATOM      7  C17 UNL     1      25.633  -9.287 -41.495  0.00  0.00    +0.000 C 
ATOM      8  C18 UNL     1      24.785  -8.038 -41.869  0.00  0.00    +0.000 C 
BRANCH   8   9
ATOM      9  N1  UNL     1      25.034  -7.587 -43.259  0.00  0.00    +0.000 NA
ATOM     10  H32 UNL     1      25.350  -8.415 -43.817  0.00  0.00    +0.000 HD
BRANCH   9  11
ATOM     11  C19 UNL     1      23.881  -6.975 -43.954  0.00  0.00    +0.000 C 
ATOM     12  C20 UNL     1      23.859  -7.303 -45.432  0.00  0.00    +0.000 C 
ATOM     13  C21 UNL     1      22.781  -6.970 -46.166  0.00  0.00    +0.000 C 
ATOM     14  C23 UNL     1      21.606  -6.316 -45.449  0.00  0.00    +0.000 C 
ATOM     15  C24 UNL     1      21.276  -7.114 -44.163  0.00  0.00    +0.000 C 
ATOM     16  C25 UNL     1      22.546  -7.443 -43.303  0.00  0.00    +0.000 C 
BRANCH  16  17
ATOM     17  O18 UNL     1      22.585  -8.818 -43.003  0.00  0.00    +0.000 OA
ATOM     18  H43 UNL     1      22.637  -9.310 -43.863  0.00  0.00    +0.000 HD
ENDBRANCH  16  17
BRANCH  15  19
ATOM     19  O17 UNL     1      20.354  -6.384 -43.393  0.00  0.00    +0.000 OA
ATOM     20  H41 UNL     1      19.969  -5.691 -43.989  0.00  0.00    +0.000 HD
ENDBRANCH  15  19
BRANCH  14  21
ATOM     21  O16 UNL     1      20.479  -6.252 -46.285  0.00  0.00    +0.000 OA
ATOM     22  H39 UNL     1      20.718  -5.667 -47.051  0.00  0.00    +0.000 HD
ENDBRANCH  14  21
BRANCH  13  23
ATOM     23  C22 UNL     1      22.755  -7.303 -47.644  0.00  0.00    +0.000 C 
BRANCH  23  24
ATOM     24  O15 UNL     1      23.343  -8.556 -47.869  0.00  0.00    +0.000 OA
ATOM     25  H37 UNL     1      24.212  -8.379 -48.317  0.00  0.00    +0.000 HD
ENDBRANCH  23  24
ENDBRANCH  13  23
ENDBRANCH   9  11
ENDBRANCH   8   9
BRANCH   7  26
ATOM     26  O14 UNL     1      24.954 -10.450 -41.894  0.00  0.00    +0.000 OA
ATOM     27  H30 UNL     1      25.546 -10.935 -42.525  0.00  0.00    +0.000 HD
ENDBRANCH   7  26
BRANCH   6  28
ATOM     28  O13 UNL     1      26.605 -10.490 -39.609  0.00  0.00    +0.000 OA
ATOM     29  H28 UNL     1      27.415 -10.191 -39.122  0.00  0.00    +0.000 HD
ENDBRANCH   6  28
ENDBRANCH   1   5
BRANCH   1  30
ATOM     30  C4  UNL     1      28.397  -8.222 -37.982  0.00  0.00    +0.000 C 
ATOM     31  C5  UNL     1      27.172  -8.111 -37.058  0.00  0.00    +0.000 C 
ATOM     32  C6  UNL     1      27.601  -8.106 -35.575  0.00  0.00    +0.000 C 
ATOM     33  C7  UNL     1      28.855  -8.989 -35.364  0.00  0.00    +0.000 C 
ATOM     34  O11 UNL     1      28.901 -10.029 -36.329  0.00  0.00    +0.000 OA
ATOM     35  C14 UNL     1      29.170  -9.534 -37.640  0.00  0.00    +0.000 C 
BRANCH  32  36
ATOM     36  O4  UNL     1      26.536  -8.562 -34.776  0.00  0.00    +0.000 OA
ATOM     37  H10 UNL     1      26.907  -9.268 -34.183  0.00  0.00    +0.000 HD
ENDBRANCH  32  36
BRANCH  31  38
ATOM     38  O3  UNL     1      26.407  -6.971 -37.361  0.00  0.00    +0.000 OA
ATOM     39  H8  UNL     1      25.561  -7.279 -37.777  0.00  0.00    +0.000 HD
ENDBRANCH  31  38
BRANCH  35  40
ATOM     40  C15 UNL     1      30.688  -9.400 -37.878  0.00  0.00    +0.000 C 
BRANCH  40  41
ATOM     41  O12 UNL     1      31.319 -10.644 -37.732  0.00  0.00    +0.000 OA
ATOM     42  H26 UNL     1      32.251 -10.529 -38.058  0.00  0.00    +0.000 HD
ENDBRANCH  40  41
ENDBRANCH  35  40
BRANCH  33  43
ATOM     43  O5  UNL     1      28.819  -9.551 -34.066  0.00  0.00    +0.000 OA
BRANCH  43  44
ATOM     44  C8  UNL     1      29.729  -8.905 -33.187  0.00  0.00    +0.000 C 
ATOM     45  C9  UNL     1      31.132  -8.885 -33.820  0.00  0.00    +0.000 C 
ATOM     46  C10 UNL     1      32.117  -8.155 -32.890  0.00  0.00    +0.000 C 
ATOM     47  C11 UNL     1      31.424  -6.981 -32.145  0.00  0.00    +0.000 C 
ATOM     48  O9  UNL     1      30.315  -6.487 -32.877  0.00  0.00    +0.000 OA
ATOM     49  C12 UNL     1      29.253  -7.439 -32.965  0.00  0.00    +0.000 C 
BRANCH  47  50
ATOM     50  O8  UNL     1      32.321  -5.932 -31.884  0.00  0.00    +0.000 OA
ATOM     51  H18 UNL     1      32.783  -6.146 -31.028  0.00  0.00    +0.000 HD
ENDBRANCH  47  50
BRANCH  46  52
ATOM     52  O7  UNL     1      33.215  -7.706 -33.650  0.00  0.00    +0.000 OA
ATOM     53  H16 UNL     1      33.752  -7.108 -33.067  0.00  0.00    +0.000 HD
ENDBRANCH  46  52
BRANCH  45  54
ATOM     54  O6  UNL     1      31.595 -10.194 -34.037  0.00  0.00    +0.000 OA
ATOM     55  H14 UNL     1      31.898 -10.237 -34.981  0.00  0.00    +0.000 HD
ENDBRANCH  45  54
BRANCH  49  56
ATOM     56  C13 UNL     1      28.311  -7.325 -31.757  0.00  0.00    +0.000 C 
BRANCH  56  57
ATOM     57  O10 UNL     1      27.102  -7.987 -32.030  0.00  0.00    +0.000 OA
ATOM     58  H22 UNL     1      26.369  -7.328 -31.908  0.00  0.00    +0.000 HD
ENDBRANCH  56  57
ENDBRANCH  49  56
ENDBRANCH  43  44
ENDBRANCH  33  43
ENDBRANCH   1  30
TORSDOF 22
ENDMDL
MODEL 8
REMARK VINA RESULT:    -4.275      2.023      2.882
REMARK INTER + INTRA:         -10.526
REMARK INTER:                  -8.841
REMARK INTRA:                  -1.685
REMARK UNBOUND:                -2.376
REMARK  Name = resultss/4CJN/ligands/lig_366_t0.pdb
REMARK  23 active torsions:
REMARK  status: ('A' for Active; 'I' for Inactive)
REMARK    1  A    between atoms: C1_1  and  C2_2
REMARK    2  A    between atoms: C3_4  and  O2_5
REMARK    3  A    between atoms: O2_5  and  C4_6
REMARK    4  A    between atoms: C5_7  and  O3_8
REMARK    5  A    between atoms: C6_9  and  O4_10
REMARK    6  A    between atoms: C7_11  and  O5_12
REMARK    7  A    between atoms: O5_12  and  C8_13
REMARK    8  A    between atoms: C9_14  and  O6_15
REMARK    9  A    between atoms: C10_16  and  O7_17
REMARK   10  A    between atoms: C11_18  and  O8_19
REMARK   11  A    between atoms: C12_21  and  C13_22
REMARK   12  A    between atoms: C13_22  and  O10_23
REMARK   13  A    between atoms: C14_25  and  C15_26
REMARK   14  A    between atoms: C15_26  and  O12_27
REMARK   15  A    between atoms: C16_28  and  O13_29
REMARK   16  A    between atoms: C17_30  and  O14_31
REMARK   17  A    between atoms: C18_32  and  N1_33
REMARK   18  A    between atoms: N1_33  and  C19_34
REMARK   19  A    between atoms: C21_36  and  C22_37
REMARK   20  A    between atoms: C22_37  and  O15_38
REMARK   21  A    between atoms: C23_39  and  O16_40
REMARK   22  A    between atoms: C24_41  and  O17_42
REMARK   23  A    between atoms: C25_43  and  O18_44
REMARK                            x       y       z     vdW  Elec       q    Type
REMARK                         _______ _______ _______ _____ _____    ______ ____
ROOT
ATOM      1  O2  UNL     1      28.097  -8.589 -38.688  0.00  0.00    +0.000 OA
ENDROOT
BRANCH   1   5
ATOM      2  C1  UNL     1      28.845  -6.243 -42.246  0.00  0.00    +0.000 C 
ATOM      3  C2  UNL     1      27.870  -7.417 -42.044  0.00  0.00    +0.000 C 
ATOM      4  O1  UNL     1      28.219  -8.243 -40.944  0.00  0.00    +0.000 OA
ATOM      5  C3  UNL     1      28.168  -7.581 -39.687  0.00  0.00    +0.000 C 
ATOM      6  C16 UNL     1      26.938  -6.638 -39.540  0.00  0.00    +0.000 C 
ATOM      7  C17 UNL     1      25.825  -7.007 -40.537  0.00  0.00    +0.000 C 
ATOM      8  C18 UNL     1      26.368  -6.992 -41.994  0.00  0.00    +0.000 C 
BRANCH   8   9
ATOM      9  N1  UNL     1      25.598  -7.890 -42.888  0.00  0.00    +0.000 NA
ATOM     10  H32 UNL     1      25.169  -8.642 -42.300  0.00  0.00    +0.000 HD
BRANCH   9  11
ATOM     11  C19 UNL     1      24.523  -7.248 -43.674  0.00  0.00    +0.000 C 
ATOM     12  C20 UNL     1      24.658  -7.512 -45.159  0.00  0.00    +0.000 C 
ATOM     13  C21 UNL     1      23.662  -7.146 -45.988  0.00  0.00    +0.000 C 
ATOM     14  C23 UNL     1      22.415  -6.524 -45.372  0.00  0.00    +0.000 C 
ATOM     15  C24 UNL     1      21.955  -7.377 -44.164  0.00  0.00    +0.000 C 
ATOM     16  C25 UNL     1      23.128  -7.743 -43.189  0.00  0.00    +0.000 C 
BRANCH  16  17
ATOM     17  O18 UNL     1      23.141  -9.131 -42.946  0.00  0.00    +0.000 OA
ATOM     18  H43 UNL     1      24.066  -9.379 -42.685  0.00  0.00    +0.000 HD
ENDBRANCH  16  17
BRANCH  15  19
ATOM     19  O17 UNL     1      20.953  -6.681 -43.464  0.00  0.00    +0.000 OA
ATOM     20  H41 UNL     1      21.223  -5.727 -43.455  0.00  0.00    +0.000 HD
ENDBRANCH  15  19
BRANCH  14  21
ATOM     21  O16 UNL     1      21.383  -6.424 -46.319  0.00  0.00    +0.000 OA
ATOM     22  H39 UNL     1      21.366  -7.279 -46.823  0.00  0.00    +0.000 HD
ENDBRANCH  14  21
BRANCH  13  23
ATOM     23  C22 UNL     1      23.795  -7.415 -47.474  0.00  0.00    +0.000 C 
BRANCH  23  24
ATOM     24  O15 UNL     1      23.152  -8.615 -47.808  0.00  0.00    +0.000 OA
ATOM     25  H37 UNL     1      23.384  -9.263 -47.092  0.00  0.00    +0.000 HD
ENDBRANCH  23  24
ENDBRANCH  13  23
ENDBRANCH   9  11
ENDBRANCH   8   9
BRANCH   7  26
ATOM     26  O14 UNL     1      24.781  -6.076 -40.416  0.00  0.00    +0.000 OA
ATOM     27  H30 UNL     1      23.930  -6.587 -40.416  0.00  0.00    +0.000 HD
ENDBRANCH   7  26
BRANCH   6  28
ATOM     28  O13 UNL     1      26.461  -6.608 -38.216  0.00  0.00    +0.000 OA
ATOM     29  H28 UNL     1      25.771  -5.899 -38.156  0.00  0.00    +0.000 HD
ENDBRANCH   6  28
ENDBRANCH   1   5
BRANCH   1  30
ATOM     30  C4  UNL     1      29.147  -8.520 -37.736  0.00  0.00    +0.000 C 
ATOM     31  C5  UNL     1      28.554  -8.813 -36.346  0.00  0.00    +0.000 C 
ATOM     32  C6  UNL     1      29.656  -8.797 -35.264  0.00  0.00    +0.000 C 
ATOM     33  C7  UNL     1      30.995  -9.316 -35.839  0.00  0.00    +0.000 C 
ATOM     34  O11 UNL     1      30.763 -10.233 -36.897  0.00  0.00    +0.000 OA
ATOM     35  C14 UNL     1      30.234  -9.592 -38.057  0.00  0.00    +0.000 C 
BRANCH  32  36
ATOM     36  O4  UNL     1      29.251  -9.581 -34.169  0.00  0.00    +0.000 OA
ATOM     37  H10 UNL     1      30.014 -10.179 -33.949  0.00  0.00    +0.000 HD
ENDBRANCH  32  36
BRANCH  31  38
ATOM     38  O3  UNL     1      27.528  -7.907 -36.028  0.00  0.00    +0.000 OA
ATOM     39  H8  UNL     1      27.922  -7.193 -35.464  0.00  0.00    +0.000 HD
ENDBRANCH  31  38
BRANCH  35  40
ATOM     40  C15 UNL     1      31.366  -9.033 -38.943  0.00  0.00    +0.000 C 
BRANCH  40  41
ATOM     41  O12 UNL     1      30.997  -9.076 -40.295  0.00  0.00    +0.000 OA
ATOM     42  H26 UNL     1      30.259  -8.420 -40.409  0.00  0.00    +0.000 HD
ENDBRANCH  40  41
ENDBRANCH  35  40
BRANCH  33  43
ATOM     43  O5  UNL     1      31.728  -9.957 -34.812  0.00  0.00    +0.000 OA
BRANCH  43  44
ATOM     44  C8  UNL     1      32.041  -9.065 -33.752  0.00  0.00    +0.000 C 
ATOM     45  C9  UNL     1      32.209  -9.858 -32.442  0.00  0.00    +0.000 C 
ATOM     46  C10 UNL     1      32.584  -8.904 -31.295  0.00  0.00    +0.000 C 
ATOM     47  C11 UNL     1      33.492  -7.749 -31.798  0.00  0.00    +0.000 C 
ATOM     48  O9  UNL     1      34.225  -8.130 -32.950  0.00  0.00    +0.000 OA
ATOM     49  C12 UNL     1      33.382  -8.347 -34.083  0.00  0.00    +0.000 C 
BRANCH  47  50
ATOM     50  O8  UNL     1      34.379  -7.316 -30.798  0.00  0.00    +0.000 OA
ATOM     51  H18 UNL     1      34.405  -6.322 -30.837  0.00  0.00    +0.000 HD
ENDBRANCH  47  50
BRANCH  46  52
ATOM     52  O7  UNL     1      33.208  -9.643 -30.272  0.00  0.00    +0.000 OA
ATOM     53  H16 UNL     1      33.220 -10.593 -30.560  0.00  0.00    +0.000 HD
ENDBRANCH  46  52
BRANCH  45  54
ATOM     54  O6  UNL     1      31.015 -10.523 -32.111  0.00  0.00    +0.000 OA
ATOM     55  H14 UNL     1      30.309 -10.155 -32.704  0.00  0.00    +0.000 HD
ENDBRANCH  45  54
BRANCH  49  56
ATOM     56  C13 UNL     1      33.149  -7.039 -34.853  0.00  0.00    +0.000 C 
BRANCH  56  57
ATOM     57  O10 UNL     1      34.178  -6.126 -34.568  0.00  0.00    +0.000 OA
ATOM     58  H22 UNL     1      33.755  -5.307 -34.198  0.00  0.00    +0.000 HD
ENDBRANCH  56  57
ENDBRANCH  49  56
ENDBRANCH  43  44
ENDBRANCH  33  43
ENDBRANCH   1  30
TORSDOF 22
ENDMDL
MODEL 9
REMARK VINA RESULT:    -3.923      2.528      3.897
REMARK INTER + INTRA:          -9.854
REMARK INTER:                  -8.804
REMARK INTRA:                  -1.050
REMARK UNBOUND:                -2.376
REMARK  Name = resultss/4CJN/ligands/lig_366_t0.pdb
REMARK  23 active torsions:
REMARK  status: ('A' for Active; 'I' for Inactive)
REMARK    1  A    between atoms: C1_1  and  C2_2
REMARK    2  A    between atoms: C3_4  and  O2_5
REMARK    3  A    between atoms: O2_5  and  C4_6
REMARK    4  A    between atoms: C5_7  and  O3_8
REMARK    5  A    between atoms: C6_9  and  O4_10
REMARK    6  A    between atoms: C7_11  and  O5_12
REMARK    7  A    between atoms: O5_12  and  C8_13
REMARK    8  A    between atoms: C9_14  and  O6_15
REMARK    9  A    between atoms: C10_16  and  O7_17
REMARK   10  A    between atoms: C11_18  and  O8_19
REMARK   11  A    between atoms: C12_21  and  C13_22
REMARK   12  A    between atoms: C13_22  and  O10_23
REMARK   13  A    between atoms: C14_25  and  C15_26
REMARK   14  A    between atoms: C15_26  and  O12_27
REMARK   15  A    between atoms: C16_28  and  O13_29
REMARK   16  A    between atoms: C17_30  and  O14_31
REMARK   17  A    between atoms: C18_32  and  N1_33
REMARK   18  A    between atoms: N1_33  and  C19_34
REMARK   19  A    between atoms: C21_36  and  C22_37
REMARK   20  A    between atoms: C22_37  and  O15_38
REMARK   21  A    between atoms: C23_39  and  O16_40
REMARK   22  A    between atoms: C24_41  and  O17_42
REMARK   23  A    between atoms: C25_43  and  O18_44
REMARK                            x       y       z     vdW  Elec       q    Type
REMARK                         _______ _______ _______ _____ _____    ______ ____
ROOT
ATOM      1  O2  UNL     1      28.016  -8.579 -40.549  0.00  0.00    +0.000 OA
ENDROOT
BRANCH   1   5
ATOM      2  C1  UNL     1      24.226  -6.548 -40.081  0.00  0.00    +0.000 C 
ATOM      3  C2  UNL     1      25.017  -6.843 -41.368  0.00  0.00    +0.000 C 
ATOM      4  O1  UNL     1      26.396  -7.076 -41.128  0.00  0.00    +0.000 OA
ATOM      5  C3  UNL     1      26.657  -8.227 -40.336  0.00  0.00    +0.000 C 
ATOM      6  C16 UNL     1      25.757  -9.442 -40.707  0.00  0.00    +0.000 C 
ATOM      7  C17 UNL     1      25.172  -9.297 -42.123  0.00  0.00    +0.000 C 
ATOM      8  C18 UNL     1      24.388  -7.962 -42.257  0.00  0.00    +0.000 C 
BRANCH   8   9
ATOM      9  N1  UNL     1      24.343  -7.476 -43.657  0.00  0.00    +0.000 NA
ATOM     10  H32 UNL     1      24.520  -8.292 -44.289  0.00  0.00    +0.000 HD
BRANCH   9  11
ATOM     11  C19 UNL     1      23.078  -6.834 -44.076  0.00  0.00    +0.000 C 
ATOM     12  C20 UNL     1      22.760  -7.086 -45.535  0.00  0.00    +0.000 C 
ATOM     13  C21 UNL     1      21.560  -6.720 -46.022  0.00  0.00    +0.000 C 
ATOM     14  C23 UNL     1      20.554  -6.109 -45.053  0.00  0.00    +0.000 C 
ATOM     15  C24 UNL     1      20.483  -6.974 -43.770  0.00  0.00    +0.000 C 
ATOM     16  C25 UNL     1      21.897  -7.341 -43.198  0.00  0.00    +0.000 C 
BRANCH  16  17
ATOM     17  O18 UNL     1      21.987  -8.730 -42.982  0.00  0.00    +0.000 OA
ATOM     18  H43 UNL     1      21.497  -9.178 -43.720  0.00  0.00    +0.000 HD
ENDBRANCH  16  17
BRANCH  15  19
ATOM     19  O17 UNL     1      19.737  -6.289 -42.795  0.00  0.00    +0.000 OA
ATOM     20  H41 UNL     1      20.151  -5.393 -42.696  0.00  0.00    +0.000 HD
ENDBRANCH  15  19
BRANCH  14  21
ATOM     21  O16 UNL     1      19.285  -6.007 -45.643  0.00  0.00    +0.000 OA
ATOM     22  H39 UNL     1      19.361  -6.372 -46.563  0.00  0.00    +0.000 HD
ENDBRANCH  14  21
BRANCH  13  23
ATOM     23  C22 UNL     1      21.239  -6.977 -47.481  0.00  0.00    +0.000 C 
BRANCH  23  24
ATOM     24  O15 UNL     1      22.312  -7.626 -48.106  0.00  0.00    +0.000 OA
ATOM     25  H37 UNL     1      22.669  -8.275 -47.443  0.00  0.00    +0.000 HD
ENDBRANCH  23  24
ENDBRANCH  13  23
ENDBRANCH   9  11
ENDBRANCH   8   9
BRANCH   7  26
ATOM     26  O14 UNL     1      24.307 -10.375 -42.369  0.00  0.00    +0.000 OA
ATOM     27  H30 UNL     1      24.684 -10.887 -43.131  0.00  0.00    +0.000 HD
ENDBRANCH   7  26
BRANCH   6  28
ATOM     28  O13 UNL     1      26.441 -10.663 -40.549  0.00  0.00    +0.000 OA
ATOM     29  H28 UNL     1      26.871 -10.886 -41.414  0.00  0.00    +0.000 HD
ENDBRANCH   6  28
ENDBRANCH   1   5
BRANCH   1  30
ATOM     30  C4  UNL     1      28.834  -8.410 -39.402  0.00  0.00    +0.000 C 
ATOM     31  C5  UNL     1      29.600  -9.723 -39.159  0.00  0.00    +0.000 C 
ATOM     32  C6  UNL     1      30.545  -9.591 -37.945  0.00  0.00    +0.000 C 
ATOM     33  C7  UNL     1      31.099  -8.150 -37.836  0.00  0.00    +0.000 C 
ATOM     34  O11 UNL     1      31.161  -7.540 -39.116  0.00  0.00    +0.000 OA
ATOM     35  C14 UNL     1      29.864  -7.262 -39.641  0.00  0.00    +0.000 C 
BRANCH  32  36
ATOM     36  O4  UNL     1      31.597 -10.518 -38.066  0.00  0.00    +0.000 OA
ATOM     37  H10 UNL     1      31.178 -11.406 -38.219  0.00  0.00    +0.000 HD
ENDBRANCH  32  36
BRANCH  31  38
ATOM     38  O3  UNL     1      28.717 -10.804 -38.991  0.00  0.00    +0.000 OA
ATOM     39  H8  UNL     1      27.941 -10.653 -39.589  0.00  0.00    +0.000 HD
ENDBRANCH  31  38
BRANCH  35  40
ATOM     40  C15 UNL     1      29.347  -5.897 -39.142  0.00  0.00    +0.000 C 
BRANCH  40  41
ATOM     41  O12 UNL     1      28.379  -6.075 -38.143  0.00  0.00    +0.000 OA
ATOM     42  H26 UNL     1      28.081  -5.167 -37.871  0.00  0.00    +0.000 HD
ENDBRANCH  40  41
ENDBRANCH  35  40
BRANCH  33  43
ATOM     43  O5  UNL     1      32.395  -8.189 -37.269  0.00  0.00    +0.000 OA
BRANCH  43  44
ATOM     44  C8  UNL     1      32.393  -7.751 -35.918  0.00  0.00    +0.000 C 
ATOM     45  C9  UNL     1      31.073  -7.020 -35.614  0.00  0.00    +0.000 C 
ATOM     46  C10 UNL     1      31.046  -6.574 -34.142  0.00  0.00    +0.000 C 
ATOM     47  C11 UNL     1      31.761  -7.606 -33.228  0.00  0.00    +0.000 C 
ATOM     48  O9  UNL     1      31.732  -8.906 -33.793  0.00  0.00    +0.000 OA
ATOM     49  C12 UNL     1      32.507  -8.996 -34.990  0.00  0.00    +0.000 C 
BRANCH  47  50
ATOM     50  O8  UNL     1      31.194  -7.638 -31.943  0.00  0.00    +0.000 OA
ATOM     51  H18 UNL     1      31.887  -7.998 -31.324  0.00  0.00    +0.000 HD
ENDBRANCH  47  50
BRANCH  46  52
ATOM     52  O7  UNL     1      29.708  -6.376 -33.749  0.00  0.00    +0.000 OA
ATOM     53  H16 UNL     1      29.165  -6.311 -34.577  0.00  0.00    +0.000 HD
ENDBRANCH  46  52
BRANCH  45  54
ATOM     54  O6  UNL     1      30.934  -5.889 -36.437  0.00  0.00    +0.000 OA
ATOM     55  H14 UNL     1      31.798  -5.402 -36.401  0.00  0.00    +0.000 HD
ENDBRANCH  45  54
BRANCH  49  56
ATOM     56  C13 UNL     1      33.971  -9.334 -34.672  0.00  0.00    +0.000 C 
BRANCH  56  57
ATOM     57  O10 UNL     1      34.037 -10.524 -33.927  0.00  0.00    +0.000 OA
ATOM     58  H22 UNL     1      33.876 -11.276 -34.555  0.00  0.00    +0.000 HD
ENDBRANCH  56  57
ENDBRANCH  49  56
ENDBRANCH  43  44
ENDBRANCH  33  43
ENDBRANCH   1  30
TORSDOF 22
ENDMDL
