MODEL 1
REMARK VINA RESULT:    -7.507      0.000      0.000
REMARK INTER + INTRA:         -10.339
REMARK INTER:                  -9.702
REMARK INTRA:                  -0.637
REMARK UNBOUND:                -0.637
REMARK  Name = resultss/4CJN/ligands/lig_170_t0.pdb
REMARK  6 active torsions:
REMARK  status: ('A' for Active; 'I' for Inactive)
REMARK    1  A    between atoms: C1_2  and  C9_14
REMARK    2  A    between atoms: N1_3  and  N2_4
REMARK    3  A    between atoms: C2_5  and  C3_6
REMARK    4  A    between atoms: C6_9  and  O2_10
REMARK    5  A    between atoms: C8_12  and  O3_13
REMARK    6  A    between atoms: C12_17  and  C13_18
REMARK                            x       y       z     vdW  Elec       q    Type
REMARK                         _______ _______ _______ _____ _____    ______ ____
ROOT
ATOM      1  O1  UNL     1      29.666  -8.201 -38.399  0.00  0.00    +0.000 OA
ATOM      2  C1  UNL     1      29.165  -9.197 -38.989  0.00  0.00    +0.000 C 
ATOM      3  N1  UNL     1      27.916  -9.726 -38.527  0.00  0.00    +0.000 N 
ATOM      4  H1  UNL     1      27.403 -10.436 -39.098  0.00  0.00    +0.000 HD
ENDROOT
BRANCH   2   5
ATOM      5  C9  UNL     1      29.869  -9.785 -40.154  0.00  0.00    +0.000 A 
ATOM      6  C10 UNL     1      31.234  -9.518 -40.358  0.00  0.00    +0.000 A 
ATOM      7  C11 UNL     1      31.912 -10.068 -41.449  0.00  0.00    +0.000 A 
ATOM      8  C12 UNL     1      31.243 -10.904 -42.359  0.00  0.00    +0.000 A 
ATOM      9  C20 UNL     1      29.881 -11.181 -42.149  0.00  0.00    +0.000 A 
ATOM     10  C21 UNL     1      29.202 -10.631 -41.058  0.00  0.00    +0.000 A 
BRANCH   8  11
ATOM     11  C13 UNL     1      31.971 -11.482 -43.513  0.00  0.00    +0.000 A 
ATOM     12  N3  UNL     1      31.680 -12.699 -44.041  0.00  0.00    +0.000 NA
ATOM     13  C14 UNL     1      32.492 -12.992 -45.088  0.00  0.00    +0.000 A 
ATOM     14  C15 UNL     1      32.428 -14.173 -45.829  0.00  0.00    +0.000 A 
ATOM     15  C16 UNL     1      33.331 -14.354 -46.892  0.00  0.00    +0.000 A 
ATOM     16  C17 UNL     1      34.280 -13.358 -47.200  0.00  0.00    +0.000 A 
ATOM     17  C18 UNL     1      34.334 -12.174 -46.447  0.00  0.00    +0.000 A 
ATOM     18  C19 UNL     1      33.429 -12.021 -45.400  0.00  0.00    +0.000 A 
ATOM     19  S1  UNL     1      33.255 -10.735 -44.339  0.00  0.00    +0.000 S 
ENDBRANCH   8  11
ENDBRANCH   2   5
BRANCH   3  20
ATOM     20  N2  UNL     1      27.341  -9.236 -37.344  0.00  0.00    +0.000 NA
ATOM     21  C2  UNL     1      26.058  -9.171 -37.181  0.00  0.00    +0.000 C 
BRANCH  21  22
ATOM     22  C3  UNL     1      25.467  -8.717 -35.905  0.00  0.00    +0.000 A 
ATOM     23  C4  UNL     1      24.624  -7.593 -35.941  0.00  0.00    +0.000 A 
ATOM     24  C5  UNL     1      23.972  -7.152 -34.788  0.00  0.00    +0.000 A 
ATOM     25  C6  UNL     1      24.155  -7.827 -33.578  0.00  0.00    +0.000 A 
ATOM     26  C7  UNL     1      25.009  -8.931 -33.521  0.00  0.00    +0.000 A 
ATOM     27  C8  UNL     1      25.688  -9.370 -34.665  0.00  0.00    +0.000 A 
BRANCH  25  28
ATOM     28  O2  UNL     1      23.500  -7.405 -32.423  0.00  0.00    +0.000 OA
ATOM     29  H5  UNL     1      23.976  -6.861 -31.712  0.00  0.00    +0.000 HD
ENDBRANCH  25  28
BRANCH  27  30
ATOM     30  O3  UNL     1      26.592 -10.424 -34.516  0.00  0.00    +0.000 OA
ATOM     31  H7  UNL     1      27.594 -10.299 -34.470  0.00  0.00    +0.000 HD
ENDBRANCH  27  30
ENDBRANCH  21  22
ENDBRANCH   3  20
TORSDOF 6
ENDMDL
MODEL 2
REMARK VINA RESULT:    -6.823      3.846     11.859
REMARK INTER + INTRA:          -9.454
REMARK INTER:                  -8.794
REMARK INTRA:                  -0.660
REMARK UNBOUND:                -0.637
REMARK  Name = resultss/4CJN/ligands/lig_170_t0.pdb
REMARK  6 active torsions:
REMARK  status: ('A' for Active; 'I' for Inactive)
REMARK    1  A    between atoms: C1_2  and  C9_14
REMARK    2  A    between atoms: N1_3  and  N2_4
REMARK    3  A    between atoms: C2_5  and  C3_6
REMARK    4  A    between atoms: C6_9  and  O2_10
REMARK    5  A    between atoms: C8_12  and  O3_13
REMARK    6  A    between atoms: C12_17  and  C13_18
REMARK                            x       y       z     vdW  Elec       q    Type
REMARK                         _______ _______ _______ _____ _____    ______ ____
ROOT
ATOM      1  O1  UNL     1      28.871 -10.163 -42.493  0.00  0.00    +0.000 OA
ATOM      2  C1  UNL     1      29.426 -10.075 -41.363  0.00  0.00    +0.000 C 
ATOM      3  N1  UNL     1      30.850 -10.217 -41.272  0.00  0.00    +0.000 N 
ATOM      4  H1  UNL     1      31.344  -9.982 -40.382  0.00  0.00    +0.000 HD
ENDROOT
BRANCH   2   5
ATOM      5  C9  UNL     1      28.598  -9.809 -40.163  0.00  0.00    +0.000 A 
ATOM      6  C10 UNL     1      27.210  -9.631 -40.292  0.00  0.00    +0.000 A 
ATOM      7  C11 UNL     1      26.416  -9.384 -39.169  0.00  0.00    +0.000 A 
ATOM      8  C12 UNL     1      26.989  -9.318 -37.888  0.00  0.00    +0.000 A 
ATOM      9  C20 UNL     1      28.376  -9.508 -37.757  0.00  0.00    +0.000 A 
ATOM     10  C21 UNL     1      29.170  -9.754 -38.879  0.00  0.00    +0.000 A 
BRANCH   8  11
ATOM     11  C13 UNL     1      26.138  -9.055 -36.704  0.00  0.00    +0.000 A 
ATOM     12  N3  UNL     1      25.002  -8.312 -36.757  0.00  0.00    +0.000 NA
ATOM     13  C14 UNL     1      24.410  -8.224 -35.539  0.00  0.00    +0.000 A 
ATOM     14  C15 UNL     1      23.229  -7.526 -35.284  0.00  0.00    +0.000 A 
ATOM     15  C16 UNL     1      22.720  -7.513 -33.973  0.00  0.00    +0.000 A 
ATOM     16  C17 UNL     1      23.394  -8.195 -32.940  0.00  0.00    +0.000 A 
ATOM     17  C18 UNL     1      24.581  -8.893 -33.208  0.00  0.00    +0.000 A 
ATOM     18  C19 UNL     1      25.063  -8.890 -34.515  0.00  0.00    +0.000 A 
ATOM     19  S1  UNL     1      26.437  -9.624 -35.132  0.00  0.00    +0.000 S 
ENDBRANCH   8  11
ENDBRANCH   2   5
BRANCH   3  20
ATOM     20  N2  UNL     1      31.589 -10.599 -42.402  0.00  0.00    +0.000 NA
ATOM     21  C2  UNL     1      31.896 -11.837 -42.633  0.00  0.00    +0.000 C 
BRANCH  21  22
ATOM     22  C3  UNL     1      32.616 -12.233 -43.861  0.00  0.00    +0.000 A 
ATOM     23  C4  UNL     1      32.184 -13.395 -44.524  0.00  0.00    +0.000 A 
ATOM     24  C5  UNL     1      32.768 -13.787 -45.729  0.00  0.00    +0.000 A 
ATOM     25  C6  UNL     1      33.798 -13.027 -46.291  0.00  0.00    +0.000 A 
ATOM     26  C7  UNL     1      34.255 -11.883 -45.631  0.00  0.00    +0.000 A 
ATOM     27  C8  UNL     1      33.694 -11.490 -44.409  0.00  0.00    +0.000 A 
BRANCH  25  28
ATOM     28  O2  UNL     1      34.380 -13.402 -47.500  0.00  0.00    +0.000 OA
ATOM     29  H5  UNL     1      35.054 -14.157 -47.551  0.00  0.00    +0.000 HD
ENDBRANCH  25  28
BRANCH  27  30
ATOM     30  O3  UNL     1      34.259 -10.388 -43.763  0.00  0.00    +0.000 OA
ATOM     31  H7  UNL     1      34.049  -9.430 -44.005  0.00  0.00    +0.000 HD
ENDBRANCH  27  30
ENDBRANCH  21  22
ENDBRANCH   3  20
TORSDOF 6
ENDMDL
MODEL 3
REMARK VINA RESULT:    -6.173      7.216     10.399
REMARK INTER + INTRA:          -8.614
REMARK INTER:                  -7.980
REMARK INTRA:                  -0.634
REMARK UNBOUND:                -0.637
REMARK  Name = resultss/4CJN/ligands/lig_170_t0.pdb
REMARK  6 active torsions:
REMARK  status: ('A' for Active; 'I' for Inactive)
REMARK    1  A    between atoms: C1_2  and  C9_14
REMARK    2  A    between atoms: N1_3  and  N2_4
REMARK    3  A    between atoms: C2_5  and  C3_6
REMARK    4  A    between atoms: C6_9  and  O2_10
REMARK    5  A    between atoms: C8_12  and  O3_13
REMARK    6  A    between atoms: C12_17  and  C13_18
REMARK                            x       y       z     vdW  Elec       q    Type
REMARK                         _______ _______ _______ _____ _____    ______ ____
ROOT
ATOM      1  O1  UNL     1      24.685 -10.004 -43.002  0.00  0.00    +0.000 OA
ATOM      2  C1  UNL     1      24.446  -9.215 -42.046  0.00  0.00    +0.000 C 
ATOM      3  N1  UNL     1      23.365  -8.281 -42.165  0.00  0.00    +0.000 N 
ATOM      4  H1  UNL     1      23.045  -7.741 -41.330  0.00  0.00    +0.000 HD
ENDROOT
BRANCH   2   5
ATOM      5  C9  UNL     1      25.276  -9.283 -40.820  0.00  0.00    +0.000 A 
ATOM      6  C10 UNL     1      24.862  -8.617 -39.653  0.00  0.00    +0.000 A 
ATOM      7  C11 UNL     1      25.631  -8.676 -38.488  0.00  0.00    +0.000 A 
ATOM      8  C12 UNL     1      26.829  -9.409 -38.459  0.00  0.00    +0.000 A 
ATOM      9  C20 UNL     1      27.238 -10.085 -39.622  0.00  0.00    +0.000 A 
ATOM     10  C21 UNL     1      26.469 -10.026 -40.787  0.00  0.00    +0.000 A 
BRANCH   8  11
ATOM     11  C13 UNL     1      27.638  -9.465 -37.219  0.00  0.00    +0.000 A 
ATOM     12  N3  UNL     1      28.996  -9.463 -37.217  0.00  0.00    +0.000 NA
ATOM     13  C14 UNL     1      29.491  -9.520 -35.955  0.00  0.00    +0.000 A 
ATOM     14  C15 UNL     1      30.851  -9.533 -35.640  0.00  0.00    +0.000 A 
ATOM     15  C16 UNL     1      31.231  -9.595 -34.288  0.00  0.00    +0.000 A 
ATOM     16  C17 UNL     1      30.254  -9.642 -33.273  0.00  0.00    +0.000 A 
ATOM     17  C18 UNL     1      28.889  -9.629 -33.602  0.00  0.00    +0.000 A 
ATOM     18  C19 UNL     1      28.540  -9.567 -34.949  0.00  0.00    +0.000 A 
ATOM     19  S1  UNL     1      27.014  -9.538 -35.640  0.00  0.00    +0.000 S 
ENDBRANCH   8  11
ENDBRANCH   2   5
BRANCH   3  20
ATOM     20  N2  UNL     1      22.685  -8.149 -43.386  0.00  0.00    +0.000 NA
ATOM     21  C2  UNL     1      22.410  -6.989 -43.894  0.00  0.00    +0.000 C 
BRANCH  21  22
ATOM     22  C3  UNL     1      21.754  -6.864 -45.212  0.00  0.00    +0.000 A 
ATOM     23  C4  UNL     1      20.488  -6.254 -45.255  0.00  0.00    +0.000 A 
ATOM     24  C5  UNL     1      19.843  -6.035 -46.473  0.00  0.00    +0.000 A 
ATOM     25  C6  UNL     1      20.450  -6.426 -47.670  0.00  0.00    +0.000 A 
ATOM     26  C7  UNL     1      21.698  -7.055 -47.641  0.00  0.00    +0.000 A 
ATOM     27  C8  UNL     1      22.347  -7.303 -46.425  0.00  0.00    +0.000 A 
BRANCH  25  28
ATOM     28  O2  UNL     1      19.822  -6.201 -48.893  0.00  0.00    +0.000 OA
ATOM     29  H5  UNL     1      20.336  -5.858 -49.697  0.00  0.00    +0.000 HD
ENDBRANCH  25  28
BRANCH  27  30
ATOM     30  O3  UNL     1      23.548  -8.014 -46.465  0.00  0.00    +0.000 OA
ATOM     31  H7  UNL     1      24.454  -7.588 -46.333  0.00  0.00    +0.000 HD
ENDBRANCH  27  30
ENDBRANCH  21  22
ENDBRANCH   3  20
TORSDOF 6
ENDMDL
MODEL 4
REMARK VINA RESULT:    -6.090      6.661      8.361
REMARK INTER + INTRA:          -8.507
REMARK INTER:                  -7.842
REMARK INTRA:                  -0.665
REMARK UNBOUND:                -0.637
REMARK  Name = resultss/4CJN/ligands/lig_170_t0.pdb
REMARK  6 active torsions:
REMARK  status: ('A' for Active; 'I' for Inactive)
REMARK    1  A    between atoms: C1_2  and  C9_14
REMARK    2  A    between atoms: N1_3  and  N2_4
REMARK    3  A    between atoms: C2_5  and  C3_6
REMARK    4  A    between atoms: C6_9  and  O2_10
REMARK    5  A    between atoms: C8_12  and  O3_13
REMARK    6  A    between atoms: C12_17  and  C13_18
REMARK                            x       y       z     vdW  Elec       q    Type
REMARK                         _______ _______ _______ _____ _____    ______ ____
ROOT
ATOM      1  O1  UNL     1      24.772  -8.846 -38.626  0.00  0.00    +0.000 OA
ATOM      2  C1  UNL     1      25.440  -9.041 -39.679  0.00  0.00    +0.000 C 
ATOM      3  N1  UNL     1      26.711  -9.697 -39.588  0.00  0.00    +0.000 N 
ATOM      4  H1  UNL     1      27.199 -10.018 -40.455  0.00  0.00    +0.000 HD
ENDROOT
BRANCH   2   5
ATOM      5  C9  UNL     1      24.888  -8.604 -40.983  0.00  0.00    +0.000 A 
ATOM      6  C10 UNL     1      25.435  -9.100 -42.179  0.00  0.00    +0.000 A 
ATOM      7  C11 UNL     1      24.923  -8.700 -43.416  0.00  0.00    +0.000 A 
ATOM      8  C12 UNL     1      23.846  -7.801 -43.487  0.00  0.00    +0.000 A 
ATOM      9  C20 UNL     1      23.290  -7.314 -42.291  0.00  0.00    +0.000 A 
ATOM     10  C21 UNL     1      23.803  -7.713 -41.054  0.00  0.00    +0.000 A 
BRANCH   8  11
ATOM     11  C13 UNL     1      23.310  -7.383 -44.804  0.00  0.00    +0.000 A 
ATOM     12  N3  UNL     1      21.984  -7.362 -45.094  0.00  0.00    +0.000 NA
ATOM     13  C14 UNL     1      21.760  -6.942 -46.365  0.00  0.00    +0.000 A 
ATOM     14  C15 UNL     1      20.495  -6.819 -46.943  0.00  0.00    +0.000 A 
ATOM     15  C16 UNL     1      20.402  -6.372 -48.273  0.00  0.00    +0.000 A 
ATOM     16  C17 UNL     1      21.565  -6.055 -49.003  0.00  0.00    +0.000 A 
ATOM     17  C18 UNL     1      22.831  -6.183 -48.410  0.00  0.00    +0.000 A 
ATOM     18  C19 UNL     1      22.895  -6.628 -47.092  0.00  0.00    +0.000 A 
ATOM     19  S1  UNL     1      24.245  -6.877 -46.130  0.00  0.00    +0.000 S 
ENDBRANCH   8  11
ENDBRANCH   2   5
BRANCH   3  20
ATOM     20  N2  UNL     1      27.266  -9.979 -38.330  0.00  0.00    +0.000 NA
ATOM     21  C2  UNL     1      28.081  -9.160 -37.742  0.00  0.00    +0.000 C 
BRANCH  21  22
ATOM     22  C3  UNL     1      28.604  -9.437 -36.388  0.00  0.00    +0.000 A 
ATOM     23  C4  UNL     1      29.986  -9.287 -36.180  0.00  0.00    +0.000 A 
ATOM     24  C5  UNL     1      30.539  -9.459 -34.910  0.00  0.00    +0.000 A 
ATOM     25  C6  UNL     1      29.720  -9.788 -33.827  0.00  0.00    +0.000 A 
ATOM     26  C7  UNL     1      28.348  -9.965 -34.022  0.00  0.00    +0.000 A 
ATOM     27  C8  UNL     1      27.782  -9.818 -35.296  0.00  0.00    +0.000 A 
BRANCH  25  28
ATOM     28  O2  UNL     1      30.259  -9.949 -32.552  0.00  0.00    +0.000 OA
ATOM     29  H5  UNL     1      30.710 -10.813 -32.273  0.00  0.00    +0.000 HD
ENDBRANCH  25  28
BRANCH  27  30
ATOM     30  O3  UNL     1      26.420 -10.096 -35.434  0.00  0.00    +0.000 OA
ATOM     31  H7  UNL     1      26.014 -11.004 -35.255  0.00  0.00    +0.000 HD
ENDBRANCH  27  30
ENDBRANCH  21  22
ENDBRANCH   3  20
TORSDOF 6
ENDMDL
MODEL 5
REMARK VINA RESULT:    -5.971      6.726     10.396
REMARK INTER + INTRA:          -8.354
REMARK INTER:                  -7.732
REMARK INTRA:                  -0.621
REMARK UNBOUND:                -0.637
REMARK  Name = resultss/4CJN/ligands/lig_170_t0.pdb
REMARK  6 active torsions:
REMARK  status: ('A' for Active; 'I' for Inactive)
REMARK    1  A    between atoms: C1_2  and  C9_14
REMARK    2  A    between atoms: N1_3  and  N2_4
REMARK    3  A    between atoms: C2_5  and  C3_6
REMARK    4  A    between atoms: C6_9  and  O2_10
REMARK    5  A    between atoms: C8_12  and  O3_13
REMARK    6  A    between atoms: C12_17  and  C13_18
REMARK                            x       y       z     vdW  Elec       q    Type
REMARK                         _______ _______ _______ _____ _____    ______ ____
ROOT
ATOM      1  O1  UNL     1      24.944 -10.361 -42.259  0.00  0.00    +0.000 OA
ATOM      2  C1  UNL     1      25.463  -9.307 -41.798  0.00  0.00    +0.000 C 
ATOM      3  N1  UNL     1      25.304  -8.078 -42.519  0.00  0.00    +0.000 N 
ATOM      4  H1  UNL     1      25.577  -7.172 -42.076  0.00  0.00    +0.000 HD
ENDROOT
BRANCH   2   5
ATOM      5  C9  UNL     1      26.206  -9.360 -40.517  0.00  0.00    +0.000 A 
ATOM      6  C10 UNL     1      25.876  -8.475 -39.475  0.00  0.00    +0.000 A 
ATOM      7  C11 UNL     1      26.565  -8.516 -38.261  0.00  0.00    +0.000 A 
ATOM      8  C12 UNL     1      27.596  -9.448 -38.054  0.00  0.00    +0.000 A 
ATOM      9  C20 UNL     1      27.918 -10.341 -39.090  0.00  0.00    +0.000 A 
ATOM     10  C21 UNL     1      27.230 -10.300 -40.306  0.00  0.00    +0.000 A 
BRANCH   8  11
ATOM     11  C13 UNL     1      28.321  -9.483 -36.762  0.00  0.00    +0.000 A 
ATOM     12  N3  UNL     1      29.675  -9.502 -36.671  0.00  0.00    +0.000 NA
ATOM     13  C14 UNL     1      30.086  -9.533 -35.378  0.00  0.00    +0.000 A 
ATOM     14  C15 UNL     1      31.422  -9.558 -34.974  0.00  0.00    +0.000 A 
ATOM     15  C16 UNL     1      31.712  -9.590 -33.598  0.00  0.00    +0.000 A 
ATOM     16  C17 UNL     1      30.669  -9.594 -32.649  0.00  0.00    +0.000 A 
ATOM     17  C18 UNL     1      29.330  -9.568 -33.068  0.00  0.00    +0.000 A 
ATOM     18  C19 UNL     1      29.071  -9.538 -34.436  0.00  0.00    +0.000 A 
ATOM     19  S1  UNL     1      27.593  -9.503 -35.226  0.00  0.00    +0.000 S 
ENDBRANCH   8  11
ENDBRANCH   2   5
BRANCH   3  20
ATOM     20  N2  UNL     1      24.712  -8.084 -43.791  0.00  0.00    +0.000 NA
ATOM     21  C2  UNL     1      23.985  -7.098 -44.213  0.00  0.00    +0.000 C 
BRANCH  21  22
ATOM     22  C3  UNL     1      23.424  -7.086 -45.580  0.00  0.00    +0.000 A 
ATOM     23  C4  UNL     1      22.026  -7.040 -45.710  0.00  0.00    +0.000 A 
ATOM     24  C5  UNL     1      21.429  -6.951 -46.969  0.00  0.00    +0.000 A 
ATOM     25  C6  UNL     1      22.221  -6.911 -48.120  0.00  0.00    +0.000 A 
ATOM     26  C7  UNL     1      23.612  -6.981 -48.008  0.00  0.00    +0.000 A 
ATOM     27  C8  UNL     1      24.224  -7.094 -46.753  0.00  0.00    +0.000 A 
BRANCH  25  28
ATOM     28  O2  UNL     1      21.637  -6.809 -49.381  0.00  0.00    +0.000 OA
ATOM     29  H5  UNL     1      21.912  -6.085 -50.035  0.00  0.00    +0.000 HD
ENDBRANCH  25  28
BRANCH  27  30
ATOM     30  O3  UNL     1      25.611  -7.248 -46.721  0.00  0.00    +0.000 OA
ATOM     31  H7  UNL     1      26.156  -7.234 -45.870  0.00  0.00    +0.000 HD
ENDBRANCH  27  30
ENDBRANCH  21  22
ENDBRANCH   3  20
TORSDOF 6
ENDMDL
MODEL 6
REMARK VINA RESULT:    -5.933      6.855     10.843
REMARK INTER + INTRA:          -8.304
REMARK INTER:                  -7.643
REMARK INTRA:                  -0.661
REMARK UNBOUND:                -0.637
REMARK  Name = resultss/4CJN/ligands/lig_170_t0.pdb
REMARK  6 active torsions:
REMARK  status: ('A' for Active; 'I' for Inactive)
REMARK    1  A    between atoms: C1_2  and  C9_14
REMARK    2  A    between atoms: N1_3  and  N2_4
REMARK    3  A    between atoms: C2_5  and  C3_6
REMARK    4  A    between atoms: C6_9  and  O2_10
REMARK    5  A    between atoms: C8_12  and  O3_13
REMARK    6  A    between atoms: C12_17  and  C13_18
REMARK                            x       y       z     vdW  Elec       q    Type
REMARK                         _______ _______ _______ _____ _____    ______ ____
ROOT
ATOM      1  O1  UNL     1      24.824  -9.793 -42.623  0.00  0.00    +0.000 OA
ATOM      2  C1  UNL     1      24.506  -8.980 -41.711  0.00  0.00    +0.000 C 
ATOM      3  N1  UNL     1      23.441  -8.050 -41.944  0.00  0.00    +0.000 N 
ATOM      4  H1  UNL     1      23.052  -7.489 -41.153  0.00  0.00    +0.000 HD
ENDROOT
BRANCH   2   5
ATOM      5  C9  UNL     1      25.228  -9.019 -40.417  0.00  0.00    +0.000 A 
ATOM      6  C10 UNL     1      26.523  -9.562 -40.351  0.00  0.00    +0.000 A 
ATOM      7  C11 UNL     1      27.219  -9.601 -39.140  0.00  0.00    +0.000 A 
ATOM      8  C12 UNL     1      26.639  -9.090 -37.966  0.00  0.00    +0.000 A 
ATOM      9  C20 UNL     1      25.349  -8.536 -38.034  0.00  0.00    +0.000 A 
ATOM     10  C21 UNL     1      24.653  -8.497 -39.245  0.00  0.00    +0.000 A 
BRANCH   8  11
ATOM     11  C13 UNL     1      27.384  -9.137 -36.686  0.00  0.00    +0.000 A 
ATOM     12  N3  UNL     1      26.989  -8.470 -35.572  0.00  0.00    +0.000 NA
ATOM     13  C14 UNL     1      27.844  -8.679 -34.538  0.00  0.00    +0.000 A 
ATOM     14  C15 UNL     1      27.695  -8.123 -33.267  0.00  0.00    +0.000 A 
ATOM     15  C16 UNL     1      28.655  -8.420 -32.283  0.00  0.00    +0.000 A 
ATOM     16  C17 UNL     1      29.744  -9.264 -32.580  0.00  0.00    +0.000 A 
ATOM     17  C18 UNL     1      29.883  -9.817 -33.863  0.00  0.00    +0.000 A 
ATOM     18  C19 UNL     1      28.918  -9.506 -34.819  0.00  0.00    +0.000 A 
ATOM     19  S1  UNL     1      28.817 -10.009 -36.414  0.00  0.00    +0.000 S 
ENDBRANCH   8  11
ENDBRANCH   2   5
BRANCH   3  20
ATOM     20  N2  UNL     1      22.867  -7.948 -43.221  0.00  0.00    +0.000 NA
ATOM     21  C2  UNL     1      23.193  -7.002 -44.045  0.00  0.00    +0.000 C 
BRANCH  21  22
ATOM     22  C3  UNL     1      22.631  -6.946 -45.410  0.00  0.00    +0.000 A 
ATOM     23  C4  UNL     1      23.535  -6.846 -46.482  0.00  0.00    +0.000 A 
ATOM     24  C5  UNL     1      23.080  -6.864 -47.802  0.00  0.00    +0.000 A 
ATOM     25  C6  UNL     1      21.714  -6.978 -48.073  0.00  0.00    +0.000 A 
ATOM     26  C7  UNL     1      20.802  -7.054 -47.017  0.00  0.00    +0.000 A 
ATOM     27  C8  UNL     1      21.241  -7.013 -45.687  0.00  0.00    +0.000 A 
BRANCH  25  28
ATOM     28  O2  UNL     1      21.249  -7.010 -49.386  0.00  0.00    +0.000 OA
ATOM     29  H5  UNL     1      21.747  -6.542 -50.135  0.00  0.00    +0.000 HD
ENDBRANCH  25  28
BRANCH  27  30
ATOM     30  O3  UNL     1      20.269  -7.004 -44.685  0.00  0.00    +0.000 OA
ATOM     31  H7  UNL     1      19.878  -7.843 -44.278  0.00  0.00    +0.000 HD
ENDBRANCH  27  30
ENDBRANCH  21  22
ENDBRANCH   3  20
TORSDOF 6
ENDMDL
MODEL 7
REMARK VINA RESULT:    -5.508      8.943     10.434
REMARK INTER + INTRA:          -7.755
REMARK INTER:                  -7.334
REMARK INTRA:                  -0.421
REMARK UNBOUND:                -0.637
REMARK  Name = resultss/4CJN/ligands/lig_170_t0.pdb
REMARK  6 active torsions:
REMARK  status: ('A' for Active; 'I' for Inactive)
REMARK    1  A    between atoms: C1_2  and  C9_14
REMARK    2  A    between atoms: N1_3  and  N2_4
REMARK    3  A    between atoms: C2_5  and  C3_6
REMARK    4  A    between atoms: C6_9  and  O2_10
REMARK    5  A    between atoms: C8_12  and  O3_13
REMARK    6  A    between atoms: C12_17  and  C13_18
REMARK                            x       y       z     vdW  Elec       q    Type
REMARK                         _______ _______ _______ _____ _____    ______ ____
ROOT
ATOM      1  O1  UNL     1      22.215  -8.753 -34.070  0.00  0.00    +0.000 OA
ATOM      2  C1  UNL     1      23.071  -7.964 -34.558  0.00  0.00    +0.000 C 
ATOM      3  N1  UNL     1      22.638  -6.931 -35.452  0.00  0.00    +0.000 N 
ATOM      4  H1  UNL     1      23.296  -6.169 -35.732  0.00  0.00    +0.000 HD
ENDROOT
BRANCH   2   5
ATOM      5  C9  UNL     1      24.497  -8.112 -34.183  0.00  0.00    +0.000 A 
ATOM      6  C10 UNL     1      25.103  -7.168 -33.336  0.00  0.00    +0.000 A 
ATOM      7  C11 UNL     1      26.445  -7.296 -32.970  0.00  0.00    +0.000 A 
ATOM      8  C12 UNL     1      27.213  -8.378 -33.435  0.00  0.00    +0.000 A 
ATOM      9  C20 UNL     1      26.604  -9.329 -34.272  0.00  0.00    +0.000 A 
ATOM     10  C21 UNL     1      25.262  -9.200 -34.639  0.00  0.00    +0.000 A 
BRANCH   8  11
ATOM     11  C13 UNL     1      28.635  -8.504 -33.041  0.00  0.00    +0.000 A 
ATOM     12  N3  UNL     1      29.261  -9.701 -32.893  0.00  0.00    +0.000 NA
ATOM     13  C14 UNL     1      30.558  -9.541 -32.528  0.00  0.00    +0.000 A 
ATOM     14  C15 UNL     1      31.449 -10.591 -32.302  0.00  0.00    +0.000 A 
ATOM     15  C16 UNL     1      32.770 -10.287 -31.926  0.00  0.00    +0.000 A 
ATOM     16  C17 UNL     1      33.181  -8.946 -31.783  0.00  0.00    +0.000 A 
ATOM     17  C18 UNL     1      32.275  -7.899 -32.012  0.00  0.00    +0.000 A 
ATOM     18  C19 UNL     1      30.973  -8.228 -32.383  0.00  0.00    +0.000 A 
ATOM     19  S1  UNL     1      29.686  -7.208 -32.719  0.00  0.00    +0.000 S 
ENDBRANCH   8  11
ENDBRANCH   2   5
BRANCH   3  20
ATOM     20  N2  UNL     1      21.305  -6.898 -35.892  0.00  0.00    +0.000 NA
ATOM     21  C2  UNL     1      20.896  -6.043 -36.775  0.00  0.00    +0.000 C 
BRANCH  21  22
ATOM     22  C3  UNL     1      19.508  -6.064 -37.280  0.00  0.00    +0.000 A 
ATOM     23  C4  UNL     1      18.470  -6.061 -36.332  0.00  0.00    +0.000 A 
ATOM     24  C5  UNL     1      17.135  -6.005 -36.736  0.00  0.00    +0.000 A 
ATOM     25  C6  UNL     1      16.814  -5.954 -38.095  0.00  0.00    +0.000 A 
ATOM     26  C7  UNL     1      17.834  -5.980 -39.050  0.00  0.00    +0.000 A 
ATOM     27  C8  UNL     1      19.178  -6.060 -38.660  0.00  0.00    +0.000 A 
BRANCH  25  28
ATOM     28  O2  UNL     1      15.486  -5.884 -38.510  0.00  0.00    +0.000 OA
ATOM     29  H5  UNL     1      15.199  -5.274 -39.267  0.00  0.00    +0.000 HD
ENDBRANCH  25  28
BRANCH  27  30
ATOM     30  O3  UNL     1      20.138  -6.172 -39.668  0.00  0.00    +0.000 OA
ATOM     31  H7  UNL     1      19.995  -6.693 -40.521  0.00  0.00    +0.000 HD
ENDBRANCH  27  30
ENDBRANCH  21  22
ENDBRANCH   3  20
TORSDOF 6
ENDMDL
MODEL 8
REMARK VINA RESULT:    -4.818      6.282     10.091
REMARK INTER + INTRA:          -6.863
REMARK INTER:                  -6.246
REMARK INTRA:                  -0.617
REMARK UNBOUND:                -0.637
REMARK  Name = resultss/4CJN/ligands/lig_170_t0.pdb
REMARK  6 active torsions:
REMARK  status: ('A' for Active; 'I' for Inactive)
REMARK    1  A    between atoms: C1_2  and  C9_14
REMARK    2  A    between atoms: N1_3  and  N2_4
REMARK    3  A    between atoms: C2_5  and  C3_6
REMARK    4  A    between atoms: C6_9  and  O2_10
REMARK    5  A    between atoms: C8_12  and  O3_13
REMARK    6  A    between atoms: C12_17  and  C13_18
REMARK                            x       y       z     vdW  Elec       q    Type
REMARK                         _______ _______ _______ _____ _____    ______ ____
ROOT
ATOM      1  O1  UNL     1      28.737  -9.633 -41.520  0.00  0.00    +0.000 OA
ATOM      2  C1  UNL     1      28.221  -8.961 -40.584  0.00  0.00    +0.000 C 
ATOM      3  N1  UNL     1      26.991  -8.265 -40.820  0.00  0.00    +0.000 N 
ATOM      4  H1  UNL     1      26.464  -7.847 -40.021  0.00  0.00    +0.000 HD
ENDROOT
BRANCH   2   5
ATOM      5  C9  UNL     1      28.889  -8.923 -39.261  0.00  0.00    +0.000 A 
ATOM      6  C10 UNL     1      28.758 -10.007 -38.377  0.00  0.00    +0.000 A 
ATOM      7  C11 UNL     1      29.385  -9.988 -37.128  0.00  0.00    +0.000 A 
ATOM      8  C12 UNL     1      30.165  -8.886 -36.737  0.00  0.00    +0.000 A 
ATOM      9  C20 UNL     1      30.306  -7.807 -37.626  0.00  0.00    +0.000 A 
ATOM     10  C21 UNL     1      29.679  -7.826 -38.874  0.00  0.00    +0.000 A 
BRANCH   8  11
ATOM     11  C13 UNL     1      30.825  -8.875 -35.410  0.00  0.00    +0.000 A 
ATOM     12  N3  UNL     1      30.916  -9.974 -34.617  0.00  0.00    +0.000 NA
ATOM     13  C14 UNL     1      31.566  -9.697 -33.458  0.00  0.00    +0.000 A 
ATOM     14  C15 UNL     1      31.810 -10.629 -32.449  0.00  0.00    +0.000 A 
ATOM     15  C16 UNL     1      32.495 -10.211 -31.294  0.00  0.00    +0.000 A 
ATOM     16  C17 UNL     1      32.926  -8.875 -31.164  0.00  0.00    +0.000 A 
ATOM     17  C18 UNL     1      32.674  -7.947 -32.187  0.00  0.00    +0.000 A 
ATOM     18  C19 UNL     1      31.994  -8.387 -33.319  0.00  0.00    +0.000 A 
ATOM     19  S1  UNL     1      31.554  -7.522 -34.685  0.00  0.00    +0.000 S 
ENDBRANCH   8  11
ENDBRANCH   2   5
BRANCH   3  20
ATOM     20  N2  UNL     1      26.454  -8.211 -42.116  0.00  0.00    +0.000 NA
ATOM     21  C2  UNL     1      26.546  -7.148 -42.851  0.00  0.00    +0.000 C 
BRANCH  21  22
ATOM     22  C3  UNL     1      26.036  -7.127 -44.238  0.00  0.00    +0.000 A 
ATOM     23  C4  UNL     1      26.969  -6.938 -45.272  0.00  0.00    +0.000 A 
ATOM     24  C5  UNL     1      26.571  -6.982 -46.610  0.00  0.00    +0.000 A 
ATOM     25  C6  UNL     1      25.231  -7.212 -46.935  0.00  0.00    +0.000 A 
ATOM     26  C7  UNL     1      24.288  -7.377 -45.918  0.00  0.00    +0.000 A 
ATOM     27  C8  UNL     1      24.669  -7.312 -44.571  0.00  0.00    +0.000 A 
BRANCH  25  28
ATOM     28  O2  UNL     1      24.824  -7.271 -48.266  0.00  0.00    +0.000 OA
ATOM     29  H5  UNL     1      24.295  -6.518 -48.692  0.00  0.00    +0.000 HD
ENDBRANCH  25  28
BRANCH  27  30
ATOM     30  O3  UNL     1      23.661  -7.397 -43.609  0.00  0.00    +0.000 OA
ATOM     31  H7  UNL     1      22.676  -7.429 -43.832  0.00  0.00    +0.000 HD
ENDBRANCH  27  30
ENDBRANCH  21  22
ENDBRANCH   3  20
TORSDOF 6
ENDMDL
