MODEL 1
REMARK VINA RESULT:    -5.473      0.000      0.000
REMARK INTER + INTRA:          -8.308
REMARK INTER:                  -7.553
REMARK INTRA:                  -0.755
REMARK UNBOUND:                -0.755
REMARK  Name = resultss/4CJN/ligands/lig_59_t0.pdb
REMARK  9 active torsions:
REMARK  status: ('A' for Active; 'I' for Inactive)
REMARK    1  A    between atoms: O1_1  and  C1_2
REMARK    2  A    between atoms: C1_2  and  C2_3
REMARK    3  A    between atoms: C2_3  and  O2_4
REMARK    4  A    between atoms: C4_6  and  N1_7
REMARK    5  A    between atoms: N1_7  and  C5_8
REMARK    6  A    between atoms: C5_8  and  C6_9
REMARK    7  A    between atoms: C12_16  and  O3_17
REMARK    8  A    between atoms: C13_18  and  O4_19
REMARK    9  A    between atoms: C14_20  and  O5_21
REMARK                            x       y       z     vdW  Elec       q    Type
REMARK                         _______ _______ _______ _____ _____    ______ ____
ROOT
ATOM      1  C2  UNL     1      26.841  -9.113 -42.162  0.00  0.00    +0.000 C 
ATOM      2  C3  UNL     1      28.157  -9.936 -42.283  0.00  0.00    +0.000 C 
ATOM      3  C4  UNL     1      28.946 -10.037 -40.960  0.00  0.00    +0.000 C 
ATOM      4  C12 UNL     1      28.057 -10.678 -39.864  0.00  0.00    +0.000 C 
ATOM      5  C13 UNL     1      26.754  -9.877 -39.652  0.00  0.00    +0.000 C 
ATOM      6  C14 UNL     1      25.970  -9.630 -40.967  0.00  0.00    +0.000 C 
ENDROOT
BRANCH   1   7
ATOM      7  O2  UNL     1      26.091  -9.285 -43.344  0.00  0.00    +0.000 OA
ATOM      8  H4  UNL     1      26.700  -9.622 -44.053  0.00  0.00    +0.000 HD
ENDBRANCH   1   7
BRANCH   3   9
ATOM      9  N1  UNL     1      30.173 -10.836 -41.168  0.00  0.00    +0.000 NA
ATOM     10  H8  UNL     1      30.652 -10.979 -40.247  0.00  0.00    +0.000 HD
BRANCH   9  11
ATOM     11  C5  UNL     1      31.138 -10.141 -42.030  0.00  0.00    +0.000 C 
BRANCH  11  12
ATOM     12  C6  UNL     1      31.685 -11.101 -43.049  0.00  0.00    +0.000 A 
ATOM     13  C7  UNL     1      31.358 -12.466 -42.987  0.00  0.00    +0.000 A 
ATOM     14  C8  UNL     1      31.838 -13.350 -43.959  0.00  0.00    +0.000 A 
ATOM     15  C9  UNL     1      32.639 -12.877 -45.004  0.00  0.00    +0.000 A 
ATOM     16 BR1  UNL     1      33.293 -14.085 -46.330  0.00  0.00    +0.000 Br
ATOM     17  C10 UNL     1      32.955 -11.516 -45.079  0.00  0.00    +0.000 A 
ATOM     18  C11 UNL     1      32.476 -10.630 -44.109  0.00  0.00    +0.000 A 
ENDBRANCH  11  12
ENDBRANCH   9  11
ENDBRANCH   3   9
BRANCH   4  19
ATOM     19  O3  UNL     1      27.746 -12.010 -40.191  0.00  0.00    +0.000 OA
ATOM     20  H16 UNL     1      28.569 -12.425 -40.560  0.00  0.00    +0.000 HD
ENDBRANCH   4  19
BRANCH   5  21
ATOM     21  O4  UNL     1      27.039  -8.647 -39.034  0.00  0.00    +0.000 OA
ATOM     22  H18 UNL     1      26.488  -7.958 -39.488  0.00  0.00    +0.000 HD
ENDBRANCH   5  21
BRANCH   6  23
ATOM     23  O5  UNL     1      25.235 -10.780 -41.319  0.00  0.00    +0.000 OA
ATOM     24  H20 UNL     1      24.866 -11.182 -40.494  0.00  0.00    +0.000 HD
ENDBRANCH   6  23
BRANCH   1  25
ATOM     25  C1  UNL     1      27.162  -7.600 -42.009  0.00  0.00    +0.000 C 
BRANCH  25  26
ATOM     26  O1  UNL     1      26.105  -6.941 -41.366  0.00  0.00    +0.000 OA
ATOM     27  H1  UNL     1      26.466  -6.065 -41.066  0.00  0.00    +0.000 HD
ENDBRANCH  25  26
ENDBRANCH   1  25
TORSDOF 9
ENDMDL
MODEL 2
REMARK VINA RESULT:    -5.245      4.455      6.210
REMARK INTER + INTRA:          -7.994
REMARK INTER:                  -7.447
REMARK INTRA:                  -0.547
REMARK UNBOUND:                -0.755
REMARK  Name = resultss/4CJN/ligands/lig_59_t0.pdb
REMARK  9 active torsions:
REMARK  status: ('A' for Active; 'I' for Inactive)
REMARK    1  A    between atoms: O1_1  and  C1_2
REMARK    2  A    between atoms: C1_2  and  C2_3
REMARK    3  A    between atoms: C2_3  and  O2_4
REMARK    4  A    between atoms: C4_6  and  N1_7
REMARK    5  A    between atoms: N1_7  and  C5_8
REMARK    6  A    between atoms: C5_8  and  C6_9
REMARK    7  A    between atoms: C12_16  and  O3_17
REMARK    8  A    between atoms: C13_18  and  O4_19
REMARK    9  A    between atoms: C14_20  and  O5_21
REMARK                            x       y       z     vdW  Elec       q    Type
REMARK                         _______ _______ _______ _____ _____    ______ ____
ROOT
ATOM      1  C2  UNL     1      24.424  -7.699 -36.037  0.00  0.00    +0.000 C 
ATOM      2  C3  UNL     1      25.301  -8.852 -36.606  0.00  0.00    +0.000 C 
ATOM      3  C4  UNL     1      26.548  -9.158 -35.748  0.00  0.00    +0.000 C 
ATOM      4  C12 UNL     1      26.118  -9.525 -34.305  0.00  0.00    +0.000 C 
ATOM      5  C13 UNL     1      25.286  -8.396 -33.658  0.00  0.00    +0.000 C 
ATOM      6  C14 UNL     1      24.083  -7.950 -34.529  0.00  0.00    +0.000 C 
ENDROOT
BRANCH   1   7
ATOM      7  O2  UNL     1      23.208  -7.665 -36.750  0.00  0.00    +0.000 OA
ATOM      8  H4  UNL     1      22.461  -7.686 -36.095  0.00  0.00    +0.000 HD
ENDBRANCH   1   7
BRANCH   3   9
ATOM      9  N1  UNL     1      27.317 -10.264 -36.358  0.00  0.00    +0.000 NA
ATOM     10  H8  UNL     1      27.348 -11.072 -35.692  0.00  0.00    +0.000 HD
BRANCH   9  11
ATOM     11  C5  UNL     1      28.714  -9.885 -36.610  0.00  0.00    +0.000 C 
BRANCH  11  12
ATOM     12  C6  UNL     1      29.002  -9.977 -38.083  0.00  0.00    +0.000 A 
ATOM     13  C7  UNL     1      30.275  -9.649 -38.580  0.00  0.00    +0.000 A 
ATOM     14  C8  UNL     1      30.550  -9.771 -39.945  0.00  0.00    +0.000 A 
ATOM     15  C9  UNL     1      29.562 -10.231 -40.822  0.00  0.00    +0.000 A 
ATOM     16 BR1  UNL     1      29.940 -10.399 -42.686  0.00  0.00    +0.000 Br
ATOM     17  C10 UNL     1      28.298 -10.574 -40.330  0.00  0.00    +0.000 A 
ATOM     18  C11 UNL     1      28.020 -10.452 -38.965  0.00  0.00    +0.000 A 
ENDBRANCH  11  12
ENDBRANCH   9  11
ENDBRANCH   3   9
BRANCH   4  19
ATOM     19  O3  UNL     1      25.380 -10.722 -34.293  0.00  0.00    +0.000 OA
ATOM     20  H16 UNL     1      25.500 -11.136 -33.399  0.00  0.00    +0.000 HD
ENDBRANCH   4  19
BRANCH   5  21
ATOM     21  O4  UNL     1      26.107  -7.288 -33.384  0.00  0.00    +0.000 OA
ATOM     22  H18 UNL     1      26.077  -7.138 -32.403  0.00  0.00    +0.000 HD
ENDBRANCH   5  21
BRANCH   6  23
ATOM     23  O5  UNL     1      23.013  -8.856 -34.382  0.00  0.00    +0.000 OA
ATOM     24  H20 UNL     1      22.274  -8.395 -33.912  0.00  0.00    +0.000 HD
ENDBRANCH   6  23
BRANCH   1  25
ATOM     25  C1  UNL     1      25.136  -6.331 -36.231  0.00  0.00    +0.000 C 
BRANCH  25  26
ATOM     26  O1  UNL     1      25.591  -6.201 -37.551  0.00  0.00    +0.000 OA
ATOM     27  H1  UNL     1      25.180  -5.370 -37.906  0.00  0.00    +0.000 HD
ENDBRANCH  25  26
ENDBRANCH   1  25
TORSDOF 9
ENDMDL
MODEL 3
REMARK VINA RESULT:    -5.002      1.532      2.670
REMARK INTER + INTRA:          -7.658
REMARK INTER:                  -7.031
REMARK INTRA:                  -0.627
REMARK UNBOUND:                -0.755
REMARK  Name = resultss/4CJN/ligands/lig_59_t0.pdb
REMARK  9 active torsions:
REMARK  status: ('A' for Active; 'I' for Inactive)
REMARK    1  A    between atoms: O1_1  and  C1_2
REMARK    2  A    between atoms: C1_2  and  C2_3
REMARK    3  A    between atoms: C2_3  and  O2_4
REMARK    4  A    between atoms: C4_6  and  N1_7
REMARK    5  A    between atoms: N1_7  and  C5_8
REMARK    6  A    between atoms: C5_8  and  C6_9
REMARK    7  A    between atoms: C12_16  and  O3_17
REMARK    8  A    between atoms: C13_18  and  O4_19
REMARK    9  A    between atoms: C14_20  and  O5_21
REMARK                            x       y       z     vdW  Elec       q    Type
REMARK                         _______ _______ _______ _____ _____    ______ ____
ROOT
ATOM      1  C2  UNL     1      26.239  -7.911 -40.404  0.00  0.00    +0.000 C 
ATOM      2  C3  UNL     1      27.718  -8.205 -40.787  0.00  0.00    +0.000 C 
ATOM      3  C4  UNL     1      27.904  -9.529 -41.561  0.00  0.00    +0.000 C 
ATOM      4  C12 UNL     1      27.049  -9.508 -42.854  0.00  0.00    +0.000 C 
ATOM      5  C13 UNL     1      25.555  -9.273 -42.541  0.00  0.00    +0.000 C 
ATOM      6  C14 UNL     1      25.306  -8.023 -41.658  0.00  0.00    +0.000 C 
ENDROOT
BRANCH   1   7
ATOM      7  O2  UNL     1      26.153  -6.588 -39.924  0.00  0.00    +0.000 OA
ATOM      8  H4  UNL     1      25.203  -6.397 -39.704  0.00  0.00    +0.000 HD
ENDBRANCH   1   7
BRANCH   3   9
ATOM      9  N1  UNL     1      29.333  -9.724 -41.885  0.00  0.00    +0.000 NA
ATOM     10  H8  UNL     1      29.502  -9.450 -42.882  0.00  0.00    +0.000 HD
BRANCH   9  11
ATOM     11  C5  UNL     1      29.731 -11.134 -41.773  0.00  0.00    +0.000 C 
BRANCH  11  12
ATOM     12  C6  UNL     1      30.796 -11.438 -42.790  0.00  0.00    +0.000 A 
ATOM     13  C7  UNL     1      31.220 -12.761 -43.002  0.00  0.00    +0.000 A 
ATOM     14  C8  UNL     1      32.184 -13.044 -43.975  0.00  0.00    +0.000 A 
ATOM     15  C9  UNL     1      32.723 -12.011 -44.750  0.00  0.00    +0.000 A 
ATOM     16 BR1  UNL     1      34.038 -12.400 -46.079  0.00  0.00    +0.000 Br
ATOM     17  C10 UNL     1      32.294 -10.694 -44.554  0.00  0.00    +0.000 A 
ATOM     18  C11 UNL     1      31.330 -10.409 -43.581  0.00  0.00    +0.000 A 
ENDBRANCH  11  12
ENDBRANCH   9  11
ENDBRANCH   3   9
BRANCH   4  19
ATOM     19  O3  UNL     1      27.509  -8.516 -43.739  0.00  0.00    +0.000 OA
ATOM     20  H16 UNL     1      27.894  -8.978 -44.528  0.00  0.00    +0.000 HD
ENDBRANCH   4  19
BRANCH   5  21
ATOM     21  O4  UNL     1      25.009 -10.408 -41.917  0.00  0.00    +0.000 OA
ATOM     22  H18 UNL     1      25.716 -11.105 -41.907  0.00  0.00    +0.000 HD
ENDBRANCH   5  21
BRANCH   6  23
ATOM     23  O5  UNL     1      25.350  -6.854 -42.444  0.00  0.00    +0.000 OA
ATOM     24  H20 UNL     1      25.862  -6.164 -41.953  0.00  0.00    +0.000 HD
ENDBRANCH   6  23
BRANCH   1  25
ATOM     25  C1  UNL     1      25.773  -8.867 -39.271  0.00  0.00    +0.000 C 
BRANCH  25  26
ATOM     26  O1  UNL     1      24.376  -8.987 -39.278  0.00  0.00    +0.000 OA
ATOM     27  H1  UNL     1      24.019  -8.076 -39.109  0.00  0.00    +0.000 HD
ENDBRANCH  25  26
ENDBRANCH   1  25
TORSDOF 9
ENDMDL
MODEL 4
REMARK VINA RESULT:    -4.984      1.359      3.191
REMARK INTER + INTRA:          -7.633
REMARK INTER:                  -7.160
REMARK INTRA:                  -0.474
REMARK UNBOUND:                -0.755
REMARK  Name = resultss/4CJN/ligands/lig_59_t0.pdb
REMARK  9 active torsions:
REMARK  status: ('A' for Active; 'I' for Inactive)
REMARK    1  A    between atoms: O1_1  and  C1_2
REMARK    2  A    between atoms: C1_2  and  C2_3
REMARK    3  A    between atoms: C2_3  and  O2_4
REMARK    4  A    between atoms: C4_6  and  N1_7
REMARK    5  A    between atoms: N1_7  and  C5_8
REMARK    6  A    between atoms: C5_8  and  C6_9
REMARK    7  A    between atoms: C12_16  and  O3_17
REMARK    8  A    between atoms: C13_18  and  O4_19
REMARK    9  A    between atoms: C14_20  and  O5_21
REMARK                            x       y       z     vdW  Elec       q    Type
REMARK                         _______ _______ _______ _____ _____    ______ ____
ROOT
ATOM      1  C2  UNL     1      28.361 -10.353 -39.989  0.00  0.00    +0.000 C 
ATOM      2  C3  UNL     1      29.523 -10.225 -41.017  0.00  0.00    +0.000 C 
ATOM      3  C4  UNL     1      29.050  -9.869 -42.443  0.00  0.00    +0.000 C 
ATOM      4  C12 UNL     1      28.258  -8.537 -42.418  0.00  0.00    +0.000 C 
ATOM      5  C13 UNL     1      27.053  -8.613 -41.455  0.00  0.00    +0.000 C 
ATOM      6  C14 UNL     1      27.440  -9.087 -40.031  0.00  0.00    +0.000 C 
ENDROOT
BRANCH   1   7
ATOM      7  O2  UNL     1      28.912 -10.438 -38.694  0.00  0.00    +0.000 OA
ATOM      8  H4  UNL     1      29.319 -11.339 -38.587  0.00  0.00    +0.000 HD
ENDBRANCH   1   7
BRANCH   3   9
ATOM      9  N1  UNL     1      30.215  -9.764 -43.346  0.00  0.00    +0.000 NA
ATOM     10  H8  UNL     1      29.990 -10.231 -44.257  0.00  0.00    +0.000 HD
BRANCH   9  11
ATOM     11  C5  UNL     1      31.390 -10.462 -42.807  0.00  0.00    +0.000 C 
BRANCH  11  12
ATOM     12  C6  UNL     1      31.987 -11.341 -43.871  0.00  0.00    +0.000 A 
ATOM     13  C7  UNL     1      32.833 -10.795 -44.851  0.00  0.00    +0.000 A 
ATOM     14  C8  UNL     1      33.416 -11.622 -45.817  0.00  0.00    +0.000 A 
ATOM     15  C9  UNL     1      33.167 -12.999 -45.805  0.00  0.00    +0.000 A 
ATOM     16 BR1  UNL     1      33.964 -14.126 -47.124  0.00  0.00    +0.000 Br
ATOM     17  C10 UNL     1      32.337 -13.549 -44.822  0.00  0.00    +0.000 A 
ATOM     18  C11 UNL     1      31.753 -12.724 -43.855  0.00  0.00    +0.000 A 
ENDBRANCH  11  12
ENDBRANCH   9  11
ENDBRANCH   3   9
BRANCH   4  19
ATOM     19  O3  UNL     1      29.093  -7.467 -42.048  0.00  0.00    +0.000 OA
ATOM     20  H16 UNL     1      29.987  -7.638 -42.443  0.00  0.00    +0.000 HD
ENDBRANCH   4  19
BRANCH   5  21
ATOM     21  O4  UNL     1      26.066  -9.463 -41.984  0.00  0.00    +0.000 OA
ATOM     22  H18 UNL     1      25.654  -8.990 -42.754  0.00  0.00    +0.000 HD
ENDBRANCH   5  21
BRANCH   6  23
ATOM     23  O5  UNL     1      27.991  -8.019 -39.295  0.00  0.00    +0.000 OA
ATOM     24  H20 UNL     1      27.812  -7.176 -39.782  0.00  0.00    +0.000 HD
ENDBRANCH   6  23
BRANCH   1  25
ATOM     25  C1  UNL     1      27.546 -11.650 -40.254  0.00  0.00    +0.000 C 
BRANCH  25  26
ATOM     26  O1  UNL     1      27.531 -12.458 -39.108  0.00  0.00    +0.000 OA
ATOM     27  H1  UNL     1      26.671 -12.273 -38.649  0.00  0.00    +0.000 HD
ENDBRANCH  25  26
ENDBRANCH   1  25
TORSDOF 9
ENDMDL
MODEL 5
REMARK VINA RESULT:    -4.965      1.897      3.147
REMARK INTER + INTRA:          -7.606
REMARK INTER:                  -7.128
REMARK INTRA:                  -0.479
REMARK UNBOUND:                -0.755
REMARK  Name = resultss/4CJN/ligands/lig_59_t0.pdb
REMARK  9 active torsions:
REMARK  status: ('A' for Active; 'I' for Inactive)
REMARK    1  A    between atoms: O1_1  and  C1_2
REMARK    2  A    between atoms: C1_2  and  C2_3
REMARK    3  A    between atoms: C2_3  and  O2_4
REMARK    4  A    between atoms: C4_6  and  N1_7
REMARK    5  A    between atoms: N1_7  and  C5_8
REMARK    6  A    between atoms: C5_8  and  C6_9
REMARK    7  A    between atoms: C12_16  and  O3_17
REMARK    8  A    between atoms: C13_18  and  O4_19
REMARK    9  A    between atoms: C14_20  and  O5_21
REMARK                            x       y       z     vdW  Elec       q    Type
REMARK                         _______ _______ _______ _____ _____    ______ ____
ROOT
ATOM      1  C2  UNL     1      29.859  -9.014 -39.015  0.00  0.00    +0.000 C 
ATOM      2  C3  UNL     1      30.183  -9.407 -40.485  0.00  0.00    +0.000 C 
ATOM      3  C4  UNL     1      29.554 -10.749 -40.919  0.00  0.00    +0.000 C 
ATOM      4  C12 UNL     1      28.015 -10.689 -40.747  0.00  0.00    +0.000 C 
ATOM      5  C13 UNL     1      27.620 -10.356 -39.292  0.00  0.00    +0.000 C 
ATOM      6  C14 UNL     1      28.317  -9.082 -38.747  0.00  0.00    +0.000 C 
ENDROOT
BRANCH   1   7
ATOM      7  O2  UNL     1      30.271  -7.683 -38.802  0.00  0.00    +0.000 OA
ATOM      8  H4  UNL     1      31.009  -7.480 -39.436  0.00  0.00    +0.000 HD
ENDBRANCH   1   7
BRANCH   3   9
ATOM      9  N1  UNL     1      29.910 -11.038 -42.324  0.00  0.00    +0.000 NA
ATOM     10  H8  UNL     1      30.050 -12.070 -42.440  0.00  0.00    +0.000 HD
BRANCH   9  11
ATOM     11  C5  UNL     1      31.179 -10.405 -42.709  0.00  0.00    +0.000 C 
BRANCH  11  12
ATOM     12  C6  UNL     1      31.880 -11.261 -43.727  0.00  0.00    +0.000 A 
ATOM     13  C7  UNL     1      31.668 -12.650 -43.755  0.00  0.00    +0.000 A 
ATOM     14  C8  UNL     1      32.293 -13.437 -44.727  0.00  0.00    +0.000 A 
ATOM     15  C9  UNL     1      33.124 -12.844 -45.683  0.00  0.00    +0.000 A 
ATOM     16 BR1  UNL     1      33.976 -13.921 -47.010  0.00  0.00    +0.000 Br
ATOM     17  C10 UNL     1      33.327 -11.460 -45.669  0.00  0.00    +0.000 A 
ATOM     18  C11 UNL     1      32.703 -10.670 -44.698  0.00  0.00    +0.000 A 
ENDBRANCH  11  12
ENDBRANCH   9  11
ENDBRANCH   3   9
BRANCH   4  19
ATOM     19  O3  UNL     1      27.453  -9.739 -41.619  0.00  0.00    +0.000 OA
ATOM     20  H16 UNL     1      28.093  -8.984 -41.688  0.00  0.00    +0.000 HD
ENDBRANCH   4  19
BRANCH   5  21
ATOM     21  O4  UNL     1      27.908 -11.447 -38.452  0.00  0.00    +0.000 OA
ATOM     22  H18 UNL     1      28.506 -11.113 -37.734  0.00  0.00    +0.000 HD
ENDBRANCH   5  21
BRANCH   6  23
ATOM     23  O5  UNL     1      27.657  -7.928 -39.216  0.00  0.00    +0.000 OA
ATOM     24  H20 UNL     1      27.231  -8.140 -40.083  0.00  0.00    +0.000 HD
ENDBRANCH   6  23
BRANCH   1  25
ATOM     25  C1  UNL     1      30.640  -9.925 -38.026  0.00  0.00    +0.000 C 
BRANCH  25  26
ATOM     26  O1  UNL     1      31.949 -10.132 -38.486  0.00  0.00    +0.000 OA
ATOM     27  H1  UNL     1      32.135  -9.400 -39.131  0.00  0.00    +0.000 HD
ENDBRANCH  25  26
ENDBRANCH   1  25
TORSDOF 9
ENDMDL
MODEL 6
REMARK VINA RESULT:    -4.880      4.303      6.167
REMARK INTER + INTRA:          -7.490
REMARK INTER:                  -6.726
REMARK INTRA:                  -0.764
REMARK UNBOUND:                -0.755
REMARK  Name = resultss/4CJN/ligands/lig_59_t0.pdb
REMARK  9 active torsions:
REMARK  status: ('A' for Active; 'I' for Inactive)
REMARK    1  A    between atoms: O1_1  and  C1_2
REMARK    2  A    between atoms: C1_2  and  C2_3
REMARK    3  A    between atoms: C2_3  and  O2_4
REMARK    4  A    between atoms: C4_6  and  N1_7
REMARK    5  A    between atoms: N1_7  and  C5_8
REMARK    6  A    between atoms: C5_8  and  C6_9
REMARK    7  A    between atoms: C12_16  and  O3_17
REMARK    8  A    between atoms: C13_18  and  O4_19
REMARK    9  A    between atoms: C14_20  and  O5_21
REMARK                            x       y       z     vdW  Elec       q    Type
REMARK                         _______ _______ _______ _____ _____    ______ ____
ROOT
ATOM      1  C2  UNL     1      24.890  -8.375 -34.848  0.00  0.00    +0.000 C 
ATOM      2  C3  UNL     1      25.189  -8.334 -36.375  0.00  0.00    +0.000 C 
ATOM      3  C4  UNL     1      26.679  -8.096 -36.706  0.00  0.00    +0.000 C 
ATOM      4  C12 UNL     1      27.546  -9.205 -36.057  0.00  0.00    +0.000 C 
ATOM      5  C13 UNL     1      27.338  -9.265 -34.528  0.00  0.00    +0.000 C 
ATOM      6  C14 UNL     1      25.847  -9.378 -34.120  0.00  0.00    +0.000 C 
ENDROOT
BRANCH   1   7
ATOM      7  O2  UNL     1      23.569  -8.830 -34.660  0.00  0.00    +0.000 OA
ATOM      8  H4  UNL     1      22.991  -8.404 -35.347  0.00  0.00    +0.000 HD
ENDBRANCH   1   7
BRANCH   3   9
ATOM      9  N1  UNL     1      26.871  -8.077 -38.171  0.00  0.00    +0.000 NA
ATOM     10  H8  UNL     1      26.810  -9.055 -38.541  0.00  0.00    +0.000 HD
BRANCH   9  11
ATOM     11  C5  UNL     1      28.202  -7.579 -38.543  0.00  0.00    +0.000 C 
BRANCH  11  12
ATOM     12  C6  UNL     1      28.818  -8.498 -39.560  0.00  0.00    +0.000 A 
ATOM     13  C7  UNL     1      30.171  -8.363 -39.915  0.00  0.00    +0.000 A 
ATOM     14  C8  UNL     1      30.749  -9.244 -40.834  0.00  0.00    +0.000 A 
ATOM     15  C9  UNL     1      29.986 -10.272 -41.396  0.00  0.00    +0.000 A 
ATOM     16 BR1  UNL     1      30.778 -11.476 -42.649  0.00  0.00    +0.000 Br
ATOM     17  C10 UNL     1      28.642 -10.422 -41.035  0.00  0.00    +0.000 A 
ATOM     18  C11 UNL     1      28.062  -9.542 -40.116  0.00  0.00    +0.000 A 
ENDBRANCH  11  12
ENDBRANCH   9  11
ENDBRANCH   3   9
BRANCH   4  19
ATOM     19  O3  UNL     1      27.257 -10.460 -36.623  0.00  0.00    +0.000 OA
ATOM     20  H16 UNL     1      27.280 -11.128 -35.890  0.00  0.00    +0.000 HD
ENDBRANCH   4  19
BRANCH   5  21
ATOM     21  O4  UNL     1      27.910  -8.133 -33.919  0.00  0.00    +0.000 OA
ATOM     22  H18 UNL     1      27.497  -7.335 -34.341  0.00  0.00    +0.000 HD
ENDBRANCH   5  21
BRANCH   6  23
ATOM     23  O5  UNL     1      25.405 -10.709 -34.256  0.00  0.00    +0.000 OA
ATOM     24  H20 UNL     1      24.777 -10.909 -33.518  0.00  0.00    +0.000 HD
ENDBRANCH   6  23
BRANCH   1  25
ATOM     25  C1  UNL     1      25.001  -6.949 -34.237  0.00  0.00    +0.000 C 
BRANCH  25  26
ATOM     26  O1  UNL     1      25.264  -7.028 -32.862  0.00  0.00    +0.000 OA
ATOM     27  H1  UNL     1      24.440  -7.392 -32.443  0.00  0.00    +0.000 HD
ENDBRANCH  25  26
ENDBRANCH   1  25
TORSDOF 9
ENDMDL
MODEL 7
REMARK VINA RESULT:    -4.777      5.400      8.113
REMARK INTER + INTRA:          -7.348
REMARK INTER:                  -6.628
REMARK INTRA:                  -0.719
REMARK UNBOUND:                -0.755
REMARK  Name = resultss/4CJN/ligands/lig_59_t0.pdb
REMARK  9 active torsions:
REMARK  status: ('A' for Active; 'I' for Inactive)
REMARK    1  A    between atoms: O1_1  and  C1_2
REMARK    2  A    between atoms: C1_2  and  C2_3
REMARK    3  A    between atoms: C2_3  and  O2_4
REMARK    4  A    between atoms: C4_6  and  N1_7
REMARK    5  A    between atoms: N1_7  and  C5_8
REMARK    6  A    between atoms: C5_8  and  C6_9
REMARK    7  A    between atoms: C12_16  and  O3_17
REMARK    8  A    between atoms: C13_18  and  O4_19
REMARK    9  A    between atoms: C14_20  and  O5_21
REMARK                            x       y       z     vdW  Elec       q    Type
REMARK                         _______ _______ _______ _____ _____    ______ ____
ROOT
ATOM      1  C2  UNL     1      30.317  -9.595 -40.122  0.00  0.00    +0.000 C 
ATOM      2  C3  UNL     1      30.392  -9.947 -38.608  0.00  0.00    +0.000 C 
ATOM      3  C4  UNL     1      29.152  -9.495 -37.806  0.00  0.00    +0.000 C 
ATOM      4  C12 UNL     1      27.875 -10.138 -38.405  0.00  0.00    +0.000 C 
ATOM      5  C13 UNL     1      27.709  -9.783 -39.898  0.00  0.00    +0.000 C 
ATOM      6  C14 UNL     1      28.970 -10.097 -40.744  0.00  0.00    +0.000 C 
ENDROOT
BRANCH   1   7
ATOM      7  O2  UNL     1      31.369 -10.254 -40.790  0.00  0.00    +0.000 OA
ATOM      8  H4  UNL     1      31.248 -10.122 -41.768  0.00  0.00    +0.000 HD
ENDBRANCH   1   7
BRANCH   3   9
ATOM      9  N1  UNL     1      29.308  -9.873 -36.386  0.00  0.00    +0.000 NA
ATOM     10  H8  UNL     1      28.545 -10.540 -36.119  0.00  0.00    +0.000 HD
BRANCH   9  11
ATOM     11  C5  UNL     1      29.170  -8.714 -35.493  0.00  0.00    +0.000 C 
BRANCH  11  12
ATOM     12  C6  UNL     1      27.818  -8.741 -34.837  0.00  0.00    +0.000 A 
ATOM     13  C7  UNL     1      27.249  -7.560 -34.331  0.00  0.00    +0.000 A 
ATOM     14  C8  UNL     1      25.975  -7.584 -33.755  0.00  0.00    +0.000 A 
ATOM     15  C9  UNL     1      25.256  -8.782 -33.690  0.00  0.00    +0.000 A 
ATOM     16 BR1  UNL     1      23.516  -8.812 -32.905  0.00  0.00    +0.000 Br
ATOM     17  C10 UNL     1      25.811  -9.958 -34.206  0.00  0.00    +0.000 A 
ATOM     18  C11 UNL     1      27.085  -9.937 -34.783  0.00  0.00    +0.000 A 
ENDBRANCH  11  12
ENDBRANCH   9  11
ENDBRANCH   3   9
BRANCH   4  19
ATOM     19  O3  UNL     1      27.902 -11.536 -38.251  0.00  0.00    +0.000 OA
ATOM     20  H16 UNL     1      27.058 -11.802 -37.804  0.00  0.00    +0.000 HD
ENDBRANCH   4  19
BRANCH   5  21
ATOM     21  O4  UNL     1      27.374  -8.425 -40.036  0.00  0.00    +0.000 OA
ATOM     22  H18 UNL     1      28.218  -7.907 -39.963  0.00  0.00    +0.000 HD
ENDBRANCH   5  21
BRANCH   6  23
ATOM     23  O5  UNL     1      29.020 -11.471 -41.052  0.00  0.00    +0.000 OA
ATOM     24  H20 UNL     1      28.916 -11.985 -40.213  0.00  0.00    +0.000 HD
ENDBRANCH   6  23
BRANCH   1  25
ATOM     25  C1  UNL     1      30.496  -8.065 -40.331  0.00  0.00    +0.000 C 
BRANCH  25  26
ATOM     26  O1  UNL     1      29.871  -7.659 -41.518  0.00  0.00    +0.000 OA
ATOM     27  H1  UNL     1      29.304  -6.879 -41.281  0.00  0.00    +0.000 HD
ENDBRANCH  25  26
ENDBRANCH   1  25
TORSDOF 9
ENDMDL
MODEL 8
REMARK VINA RESULT:    -4.616      4.524      6.891
REMARK INTER + INTRA:          -7.125
REMARK INTER:                  -6.628
REMARK INTRA:                  -0.497
REMARK UNBOUND:                -0.755
REMARK  Name = resultss/4CJN/ligands/lig_59_t0.pdb
REMARK  9 active torsions:
REMARK  status: ('A' for Active; 'I' for Inactive)
REMARK    1  A    between atoms: O1_1  and  C1_2
REMARK    2  A    between atoms: C1_2  and  C2_3
REMARK    3  A    between atoms: C2_3  and  O2_4
REMARK    4  A    between atoms: C4_6  and  N1_7
REMARK    5  A    between atoms: N1_7  and  C5_8
REMARK    6  A    between atoms: C5_8  and  C6_9
REMARK    7  A    between atoms: C12_16  and  O3_17
REMARK    8  A    between atoms: C13_18  and  O4_19
REMARK    9  A    between atoms: C14_20  and  O5_21
REMARK                            x       y       z     vdW  Elec       q    Type
REMARK                         _______ _______ _______ _____ _____    ______ ____
ROOT
ATOM      1  C2  UNL     1      27.880  -8.548 -34.159  0.00  0.00    +0.000 C 
ATOM      2  C3  UNL     1      27.728  -7.906 -35.569  0.00  0.00    +0.000 C 
ATOM      3  C4  UNL     1      26.636  -8.572 -36.435  0.00  0.00    +0.000 C 
ATOM      4  C12 UNL     1      25.271  -8.503 -35.706  0.00  0.00    +0.000 C 
ATOM      5  C13 UNL     1      25.336  -9.173 -34.317  0.00  0.00    +0.000 C 
ATOM      6  C14 UNL     1      26.494  -8.638 -33.435  0.00  0.00    +0.000 C 
ENDROOT
BRANCH   1   7
ATOM      7  O2  UNL     1      28.718  -7.726 -33.378  0.00  0.00    +0.000 OA
ATOM      8  H4  UNL     1      29.662  -7.953 -33.589  0.00  0.00    +0.000 HD
ENDBRANCH   1   7
BRANCH   3   9
ATOM      9  N1  UNL     1      26.559  -7.899 -37.749  0.00  0.00    +0.000 NA
ATOM     10  H8  UNL     1      25.905  -7.084 -37.682  0.00  0.00    +0.000 HD
BRANCH   9  11
ATOM     11  C5  UNL     1      26.010  -8.783 -38.786  0.00  0.00    +0.000 C 
BRANCH  11  12
ATOM     12  C6  UNL     1      27.128  -9.308 -39.644  0.00  0.00    +0.000 A 
ATOM     13  C7  UNL     1      27.189 -10.671 -39.977  0.00  0.00    +0.000 A 
ATOM     14  C8  UNL     1      28.209 -11.148 -40.806  0.00  0.00    +0.000 A 
ATOM     15  C9  UNL     1      29.167 -10.266 -41.317  0.00  0.00    +0.000 A 
ATOM     16 BR1  UNL     1      30.559 -10.920 -42.451  0.00  0.00    +0.000 Br
ATOM     17  C10 UNL     1      29.102  -8.905 -41.002  0.00  0.00    +0.000 A 
ATOM     18  C11 UNL     1      28.083  -8.426 -40.172  0.00  0.00    +0.000 A 
ENDBRANCH  11  12
ENDBRANCH   9  11
ENDBRANCH   3   9
BRANCH   4  19
ATOM     19  O3  UNL     1      24.846  -7.169 -35.569  0.00  0.00    +0.000 OA
ATOM     20  H16 UNL     1      25.081  -6.876 -34.650  0.00  0.00    +0.000 HD
ENDBRANCH   4  19
BRANCH   5  21
ATOM     21  O4  UNL     1      25.456 -10.567 -34.458  0.00  0.00    +0.000 OA
ATOM     22  H18 UNL     1      25.306 -10.777 -35.417  0.00  0.00    +0.000 HD
ENDBRANCH   5  21
BRANCH   6  23
ATOM     23  O5  UNL     1      26.133  -7.407 -32.852  0.00  0.00    +0.000 OA
ATOM     24  H20 UNL     1      26.749  -6.708 -33.184  0.00  0.00    +0.000 HD
ENDBRANCH   6  23
BRANCH   1  25
ATOM     25  C1  UNL     1      28.546  -9.948 -34.271  0.00  0.00    +0.000 C 
BRANCH  25  26
ATOM     26  O1  UNL     1      29.514 -10.109 -33.269  0.00  0.00    +0.000 OA
ATOM     27  H1  UNL     1      30.210  -9.423 -33.443  0.00  0.00    +0.000 HD
ENDBRANCH  25  26
ENDBRANCH   1  25
TORSDOF 9
ENDMDL
MODEL 9
REMARK VINA RESULT:    -4.606      5.272      7.082
REMARK INTER + INTRA:          -7.112
REMARK INTER:                  -6.424
REMARK INTRA:                  -0.688
REMARK UNBOUND:                -0.755
REMARK  Name = resultss/4CJN/ligands/lig_59_t0.pdb
REMARK  9 active torsions:
REMARK  status: ('A' for Active; 'I' for Inactive)
REMARK    1  A    between atoms: O1_1  and  C1_2
REMARK    2  A    between atoms: C1_2  and  C2_3
REMARK    3  A    between atoms: C2_3  and  O2_4
REMARK    4  A    between atoms: C4_6  and  N1_7
REMARK    5  A    between atoms: N1_7  and  C5_8
REMARK    6  A    between atoms: C5_8  and  C6_9
REMARK    7  A    between atoms: C12_16  and  O3_17
REMARK    8  A    between atoms: C13_18  and  O4_19
REMARK    9  A    between atoms: C14_20  and  O5_21
REMARK                            x       y       z     vdW  Elec       q    Type
REMARK                         _______ _______ _______ _____ _____    ______ ____
ROOT
ATOM      1  C2  UNL     1      24.977  -8.058 -41.951  0.00  0.00    +0.000 C 
ATOM      2  C3  UNL     1      25.459  -7.567 -40.556  0.00  0.00    +0.000 C 
ATOM      3  C4  UNL     1      25.584  -8.699 -39.512  0.00  0.00    +0.000 C 
ATOM      4  C12 UNL     1      26.564  -9.783 -40.025  0.00  0.00    +0.000 C 
ATOM      5  C13 UNL     1      26.114 -10.355 -41.387  0.00  0.00    +0.000 C 
ATOM      6  C14 UNL     1      25.849  -9.260 -42.451  0.00  0.00    +0.000 C 
ENDROOT
BRANCH   1   7
ATOM      7  O2  UNL     1      25.128  -7.005 -42.877  0.00  0.00    +0.000 OA
ATOM      8  H4  UNL     1      25.494  -6.217 -42.396  0.00  0.00    +0.000 HD
ENDBRANCH   1   7
BRANCH   3   9
ATOM      9  N1  UNL     1      26.050  -8.143 -38.224  0.00  0.00    +0.000 NA
ATOM     10  H8  UNL     1      27.096  -8.170 -38.194  0.00  0.00    +0.000 HD
BRANCH   9  11
ATOM     11  C5  UNL     1      25.586  -8.945 -37.083  0.00  0.00    +0.000 C 
BRANCH  11  12
ATOM     12  C6  UNL     1      26.728  -9.179 -36.134  0.00  0.00    +0.000 A 
ATOM     13  C7  UNL     1      27.987  -9.570 -36.620  0.00  0.00    +0.000 A 
ATOM     14  C8  UNL     1      29.057  -9.750 -35.738  0.00  0.00    +0.000 A 
ATOM     15  C9  UNL     1      28.881  -9.531 -34.368  0.00  0.00    +0.000 A 
ATOM     16 BR1  UNL     1      30.344  -9.776 -33.165  0.00  0.00    +0.000 Br
ATOM     17  C10 UNL     1      27.634  -9.126 -33.880  0.00  0.00    +0.000 A 
ATOM     18  C11 UNL     1      26.563  -8.945 -34.761  0.00  0.00    +0.000 A 
ENDBRANCH  11  12
ENDBRANCH   9  11
ENDBRANCH   3   9
BRANCH   4  19
ATOM     19  O3  UNL     1      27.867  -9.264 -40.138  0.00  0.00    +0.000 OA
ATOM     20  H16 UNL     1      28.219  -9.536 -41.025  0.00  0.00    +0.000 HD
ENDBRANCH   4  19
BRANCH   5  21
ATOM     21  O4  UNL     1      24.960 -11.142 -41.222  0.00  0.00    +0.000 OA
ATOM     22  H18 UNL     1      24.882 -11.346 -40.253  0.00  0.00    +0.000 HD
ENDBRANCH   5  21
BRANCH   6  23
ATOM     23  O5  UNL     1      27.065  -8.820 -43.011  0.00  0.00    +0.000 OA
ATOM     24  H20 UNL     1      27.809  -9.273 -42.541  0.00  0.00    +0.000 HD
ENDBRANCH   6  23
BRANCH   1  25
ATOM     25  C1  UNL     1      23.471  -8.442 -41.899  0.00  0.00    +0.000 C 
BRANCH  25  26
ATOM     26  O1  UNL     1      23.199  -9.473 -42.809  0.00  0.00    +0.000 OA
ATOM     27  H1  UNL     1      23.208 -10.316 -42.285  0.00  0.00    +0.000 HD
ENDBRANCH  25  26
ENDBRANCH   1  25
TORSDOF 9
ENDMDL
