MODEL 1
REMARK VINA RESULT:    -5.951      0.000      0.000
REMARK INTER + INTRA:          -7.778
REMARK INTER:                  -7.342
REMARK INTRA:                  -0.436
REMARK UNBOUND:                -0.436
REMARK  Name = resultss/4CJN/ligands/lig_330_t2.pdb
REMARK  6 active torsions:
REMARK  status: ('A' for Active; 'I' for Inactive)
REMARK    1  A    between atoms: C1_1  and  O1_2
REMARK    2  A    between atoms: O1_2  and  C2_3
REMARK    3  A    between atoms: C5_6  and  C6_7
REMARK    4  A    between atoms: C7_8  and  C8_9
REMARK    5  A    between atoms: C12_15  and  O4_16
REMARK    6  A    between atoms: O4_16  and  C13_17
REMARK                            x       y       z     vdW  Elec       q    Type
REMARK                         _______ _______ _______ _____ _____    ______ ____
ROOT
ATOM      1  C6  UNL     1      30.982 -11.086 -42.799  0.00  0.00    +0.000 C 
ATOM      2  C7  UNL     1      29.879 -10.355 -43.021  0.00  0.00    +0.000 C 
ENDROOT
BRANCH   2   3
ATOM      3  C8  UNL     1      29.002  -9.840 -41.904  0.00  0.00    +0.000 C 
ATOM      4  C9  UNL     1      27.706  -9.210 -42.451  0.00  0.00    +0.000 C 
ATOM      5  C10 UNL     1      26.771  -8.811 -41.345  0.00  0.00    +0.000 C 
ATOM      6  O2  UNL     1      25.891  -7.937 -41.570  0.00  0.00    +0.000 OA
ATOM      7  C11 UNL     1      26.811  -9.486 -40.032  0.00  0.00    +0.000 C 
ATOM      8  O3  UNL     1      25.895  -9.266 -39.194  0.00  0.00    +0.000 OA
ATOM      9  C12 UNL     1      27.968 -10.365 -39.638  0.00  0.00    +0.000 C 
ATOM     10  C14 UNL     1      28.678 -10.945 -40.878  0.00  0.00    +0.000 C 
BRANCH   9  11
ATOM     11  O4  UNL     1      28.879  -9.583 -38.883  0.00  0.00    +0.000 OA
ATOM     12  C13 UNL     1      29.016 -10.097 -37.575  0.00  0.00    +0.000 C 
ENDBRANCH   9  11
ENDBRANCH   2   3
BRANCH   1  16
ATOM     13  C2  UNL     1      33.498 -12.643 -45.927  0.00  0.00    +0.000 A 
ATOM     14  C3  UNL     1      33.482 -11.259 -45.671  0.00  0.00    +0.000 A 
ATOM     15  C4  UNL     1      32.670 -10.738 -44.659  0.00  0.00    +0.000 A 
ATOM     16  C5  UNL     1      31.868 -11.590 -43.876  0.00  0.00    +0.000 A 
ATOM     17  C15 UNL     1      31.878 -12.967 -44.148  0.00  0.00    +0.000 A 
ATOM     18  C16 UNL     1      32.690 -13.486 -45.160  0.00  0.00    +0.000 A 
BRANCH  13  20
ATOM     19  C1  UNL     1      34.067 -14.494 -47.509  0.00  0.00    +0.000 C 
ATOM     20  O1  UNL     1      34.296 -13.213 -46.931  0.00  0.00    +0.000 OA
ENDBRANCH  13  20
ENDBRANCH   1  16
TORSDOF 4
ENDMDL
MODEL 2
REMARK VINA RESULT:    -5.853      1.083      2.313
REMARK INTER + INTRA:          -7.657
REMARK INTER:                  -7.208
REMARK INTRA:                  -0.449
REMARK UNBOUND:                -0.436
REMARK  Name = resultss/4CJN/ligands/lig_330_t2.pdb
REMARK  6 active torsions:
REMARK  status: ('A' for Active; 'I' for Inactive)
REMARK    1  A    between atoms: C1_1  and  O1_2
REMARK    2  A    between atoms: O1_2  and  C2_3
REMARK    3  A    between atoms: C5_6  and  C6_7
REMARK    4  A    between atoms: C7_8  and  C8_9
REMARK    5  A    between atoms: C12_15  and  O4_16
REMARK    6  A    between atoms: O4_16  and  C13_17
REMARK                            x       y       z     vdW  Elec       q    Type
REMARK                         _______ _______ _______ _____ _____    ______ ____
ROOT
ATOM      1  C6  UNL     1      31.194 -11.220 -42.590  0.00  0.00    +0.000 C 
ATOM      2  C7  UNL     1      29.891 -10.901 -42.608  0.00  0.00    +0.000 C 
ENDROOT
BRANCH   2   3
ATOM      3  C8  UNL     1      29.146 -10.440 -41.378  0.00  0.00    +0.000 C 
ATOM      4  C9  UNL     1      30.116 -10.014 -40.259  0.00  0.00    +0.000 C 
ATOM      5  C10 UNL     1      29.387  -9.435 -39.080  0.00  0.00    +0.000 C 
ATOM      6  O2  UNL     1      29.952  -9.424 -37.954  0.00  0.00    +0.000 OA
ATOM      7  C11 UNL     1      28.061  -8.803 -39.239  0.00  0.00    +0.000 C 
ATOM      8  O3  UNL     1      27.563  -8.159 -38.277  0.00  0.00    +0.000 OA
ATOM      9  C12 UNL     1      27.253  -8.985 -40.496  0.00  0.00    +0.000 C 
ATOM     10  C14 UNL     1      28.159  -9.301 -41.703  0.00  0.00    +0.000 C 
BRANCH   9  11
ATOM     11  O4  UNL     1      26.342 -10.050 -40.285  0.00  0.00    +0.000 OA
ATOM     12  C13 UNL     1      25.412 -10.133 -41.343  0.00  0.00    +0.000 C 
ENDBRANCH   9  11
ENDBRANCH   2   3
BRANCH   1  16
ATOM     13  C2  UNL     1      33.340 -12.591 -46.063  0.00  0.00    +0.000 A 
ATOM     14  C3  UNL     1      33.348 -11.223 -45.736  0.00  0.00    +0.000 A 
ATOM     15  C4  UNL     1      32.656 -10.761 -44.612  0.00  0.00    +0.000 A 
ATOM     16  C5  UNL     1      31.952 -11.660 -43.786  0.00  0.00    +0.000 A 
ATOM     17  C15 UNL     1      31.937 -13.021 -44.129  0.00  0.00    +0.000 A 
ATOM     18  C16 UNL     1      32.629 -13.481 -45.252  0.00  0.00    +0.000 A 
BRANCH  13  20
ATOM     19  C1  UNL     1      34.067 -14.482 -47.529  0.00  0.00    +0.000 C 
ATOM     20  O1  UNL     1      34.019 -13.102 -47.179  0.00  0.00    +0.000 OA
ENDBRANCH  13  20
ENDBRANCH   1  16
TORSDOF 4
ENDMDL
MODEL 3
REMARK VINA RESULT:    -5.766      1.677      2.271
REMARK INTER + INTRA:          -7.550
REMARK INTER:                  -7.097
REMARK INTRA:                  -0.454
REMARK UNBOUND:                -0.436
REMARK  Name = resultss/4CJN/ligands/lig_330_t2.pdb
REMARK  6 active torsions:
REMARK  status: ('A' for Active; 'I' for Inactive)
REMARK    1  A    between atoms: C1_1  and  O1_2
REMARK    2  A    between atoms: O1_2  and  C2_3
REMARK    3  A    between atoms: C5_6  and  C6_7
REMARK    4  A    between atoms: C7_8  and  C8_9
REMARK    5  A    between atoms: C12_15  and  O4_16
REMARK    6  A    between atoms: O4_16  and  C13_17
REMARK                            x       y       z     vdW  Elec       q    Type
REMARK                         _______ _______ _______ _____ _____    ______ ____
ROOT
ATOM      1  C6  UNL     1      31.906 -10.888 -43.547  0.00  0.00    +0.000 C 
ATOM      2  C7  UNL     1      30.681 -11.132 -43.056  0.00  0.00    +0.000 C 
ENDROOT
BRANCH   2   3
ATOM      3  C8  UNL     1      30.039 -10.270 -41.995  0.00  0.00    +0.000 C 
ATOM      4  C9  UNL     1      28.940 -11.037 -41.235  0.00  0.00    +0.000 C 
ATOM      5  C10 UNL     1      28.384 -10.231 -40.096  0.00  0.00    +0.000 C 
ATOM      6  O2  UNL     1      27.241 -10.511 -39.646  0.00  0.00    +0.000 OA
ATOM      7  C11 UNL     1      29.189  -9.179 -39.442  0.00  0.00    +0.000 C 
ATOM      8  O3  UNL     1      28.774  -8.655 -38.373  0.00  0.00    +0.000 OA
ATOM      9  C12 UNL     1      30.453  -8.656 -40.071  0.00  0.00    +0.000 C 
ATOM     10  C14 UNL     1      31.083  -9.701 -41.014  0.00  0.00    +0.000 C 
BRANCH   9  11
ATOM     11  O4  UNL     1      30.131  -7.483 -40.798  0.00  0.00    +0.000 OA
ATOM     12  C13 UNL     1      30.785  -6.358 -40.251  0.00  0.00    +0.000 C 
ENDBRANCH   9  11
ENDBRANCH   2   3
BRANCH   1  16
ATOM     13  C2  UNL     1      33.707 -13.349 -46.587  0.00  0.00    +0.000 A 
ATOM     14  C3  UNL     1      34.044 -11.985 -46.505  0.00  0.00    +0.000 A 
ATOM     15  C4  UNL     1      33.468 -11.172 -45.524  0.00  0.00    +0.000 A 
ATOM     16  C5  UNL     1      32.552 -11.709 -44.598  0.00  0.00    +0.000 A 
ATOM     17  C15 UNL     1      32.209 -13.067 -44.696  0.00  0.00    +0.000 A 
ATOM     18  C16 UNL     1      32.786 -13.877 -45.677  0.00  0.00    +0.000 A 
BRANCH  13  20
ATOM     19  C1  UNL     1      34.027 -15.608 -47.609  0.00  0.00    +0.000 C 
ATOM     20  O1  UNL     1      34.258 -14.204 -47.552  0.00  0.00    +0.000 OA
ENDBRANCH  13  20
ENDBRANCH   1  16
TORSDOF 4
ENDMDL
MODEL 4
REMARK VINA RESULT:    -5.393      1.301      2.855
REMARK INTER + INTRA:          -7.090
REMARK INTER:                  -6.680
REMARK INTRA:                  -0.411
REMARK UNBOUND:                -0.436
REMARK  Name = resultss/4CJN/ligands/lig_330_t2.pdb
REMARK  6 active torsions:
REMARK  status: ('A' for Active; 'I' for Inactive)
REMARK    1  A    between atoms: C1_1  and  O1_2
REMARK    2  A    between atoms: O1_2  and  C2_3
REMARK    3  A    between atoms: C5_6  and  C6_7
REMARK    4  A    between atoms: C7_8  and  C8_9
REMARK    5  A    between atoms: C12_15  and  O4_16
REMARK    6  A    between atoms: O4_16  and  C13_17
REMARK                            x       y       z     vdW  Elec       q    Type
REMARK                         _______ _______ _______ _____ _____    ______ ____
ROOT
ATOM      1  C6  UNL     1      29.855 -10.628 -42.543  0.00  0.00    +0.000 C 
ATOM      2  C7  UNL     1      29.324 -11.162 -41.433  0.00  0.00    +0.000 C 
ENDROOT
BRANCH   2   3
ATOM      3  C8  UNL     1      28.130 -10.563 -40.728  0.00  0.00    +0.000 C 
ATOM      4  C9  UNL     1      28.397 -10.384 -39.222  0.00  0.00    +0.000 C 
ATOM      5  C10 UNL     1      27.266  -9.672 -38.536  0.00  0.00    +0.000 C 
ATOM      6  O2  UNL     1      27.122  -9.805 -37.291  0.00  0.00    +0.000 OA
ATOM      7  C11 UNL     1      26.379  -8.755 -39.280  0.00  0.00    +0.000 C 
ATOM      8  O3  UNL     1      25.566  -8.029 -38.647  0.00  0.00    +0.000 OA
ATOM      9  C12 UNL     1      26.364  -8.731 -40.786  0.00  0.00    +0.000 C 
ATOM     10  C14 UNL     1      27.704  -9.226 -41.367  0.00  0.00    +0.000 C 
BRANCH   9  11
ATOM     11  O4  UNL     1      25.308  -9.567 -41.229  0.00  0.00    +0.000 OA
ATOM     12  C13 UNL     1      24.221  -8.797 -41.696  0.00  0.00    +0.000 C 
ENDBRANCH   9  11
ENDBRANCH   2   3
BRANCH   1  16
ATOM     13  C2  UNL     1      33.262 -12.203 -44.655  0.00  0.00    +0.000 A 
ATOM     14  C3  UNL     1      32.548 -13.031 -43.768  0.00  0.00    +0.000 A 
ATOM     15  C4  UNL     1      31.440 -12.535 -43.075  0.00  0.00    +0.000 A 
ATOM     16  C5  UNL     1      31.016 -11.205 -43.263  0.00  0.00    +0.000 A 
ATOM     17  C15 UNL     1      31.743 -10.381 -44.136  0.00  0.00    +0.000 A 
ATOM     18  C16 UNL     1      32.850 -10.878 -44.828  0.00  0.00    +0.000 A 
BRANCH  13  20
ATOM     19  C1  UNL     1      34.340 -13.096 -46.726  0.00  0.00    +0.000 C 
ATOM     20  O1  UNL     1      34.379 -12.655 -45.373  0.00  0.00    +0.000 OA
ENDBRANCH  13  20
ENDBRANCH   1  16
TORSDOF 4
ENDMDL
MODEL 5
REMARK VINA RESULT:    -5.078      1.387      2.096
REMARK INTER + INTRA:          -6.702
REMARK INTER:                  -6.249
REMARK INTRA:                  -0.453
REMARK UNBOUND:                -0.436
REMARK  Name = resultss/4CJN/ligands/lig_330_t2.pdb
REMARK  6 active torsions:
REMARK  status: ('A' for Active; 'I' for Inactive)
REMARK    1  A    between atoms: C1_1  and  O1_2
REMARK    2  A    between atoms: O1_2  and  C2_3
REMARK    3  A    between atoms: C5_6  and  C6_7
REMARK    4  A    between atoms: C7_8  and  C8_9
REMARK    5  A    between atoms: C12_15  and  O4_16
REMARK    6  A    between atoms: O4_16  and  C13_17
REMARK                            x       y       z     vdW  Elec       q    Type
REMARK                         _______ _______ _______ _____ _____    ______ ____
ROOT
ATOM      1  C6  UNL     1      29.983 -10.904 -42.013  0.00  0.00    +0.000 C 
ATOM      2  C7  UNL     1      30.210  -9.889 -41.165  0.00  0.00    +0.000 C 
ENDROOT
BRANCH   2   3
ATOM      3  C8  UNL     1      29.181  -9.412 -40.167  0.00  0.00    +0.000 C 
ATOM      4  C9  UNL     1      27.754  -9.792 -40.606  0.00  0.00    +0.000 C 
ATOM      5  C10 UNL     1      26.736  -9.435 -39.561  0.00  0.00    +0.000 C 
ATOM      6  O2  UNL     1      25.531  -9.289 -39.902  0.00  0.00    +0.000 OA
ATOM      7  C11 UNL     1      27.108  -9.339 -38.135  0.00  0.00    +0.000 C 
ATOM      8  O3  UNL     1      26.204  -9.230 -37.264  0.00  0.00    +0.000 OA
ATOM      9  C12 UNL     1      28.551  -9.283 -37.705  0.00  0.00    +0.000 C 
ATOM     10  C14 UNL     1      29.473  -9.943 -38.750  0.00  0.00    +0.000 C 
BRANCH   9  11
ATOM     11  O4  UNL     1      28.908  -7.921 -37.539  0.00  0.00    +0.000 OA
ATOM     12  C13 UNL     1      29.369  -7.680 -36.227  0.00  0.00    +0.000 C 
ENDBRANCH   9  11
ENDBRANCH   2   3
BRANCH   1  16
ATOM     13  C2  UNL     1      32.920 -12.248 -44.861  0.00  0.00    +0.000 A 
ATOM     14  C3  UNL     1      32.275 -13.184 -44.031  0.00  0.00    +0.000 A 
ATOM     15  C4  UNL     1      31.319 -12.764 -43.102  0.00  0.00    +0.000 A 
ATOM     16  C5  UNL     1      30.981 -11.402 -42.990  0.00  0.00    +0.000 A 
ATOM     17  C15 UNL     1      31.640 -10.472 -43.810  0.00  0.00    +0.000 A 
ATOM     18  C16 UNL     1      32.595 -10.894 -44.739  0.00  0.00    +0.000 A 
BRANCH  13  20
ATOM     19  C1  UNL     1      33.736 -13.701 -46.725  0.00  0.00    +0.000 C 
ATOM     20  O1  UNL     1      33.885 -12.621 -45.809  0.00  0.00    +0.000 OA
ENDBRANCH  13  20
ENDBRANCH   1  16
TORSDOF 4
ENDMDL
MODEL 6
REMARK VINA RESULT:    -5.060      8.393     11.584
REMARK INTER + INTRA:          -6.679
REMARK INTER:                  -6.255
REMARK INTRA:                  -0.423
REMARK UNBOUND:                -0.436
REMARK  Name = resultss/4CJN/ligands/lig_330_t2.pdb
REMARK  6 active torsions:
REMARK  status: ('A' for Active; 'I' for Inactive)
REMARK    1  A    between atoms: C1_1  and  O1_2
REMARK    2  A    between atoms: O1_2  and  C2_3
REMARK    3  A    between atoms: C5_6  and  C6_7
REMARK    4  A    between atoms: C7_8  and  C8_9
REMARK    5  A    between atoms: C12_15  and  O4_16
REMARK    6  A    between atoms: O4_16  and  C13_17
REMARK                            x       y       z     vdW  Elec       q    Type
REMARK                         _______ _______ _______ _____ _____    ______ ____
ROOT
ATOM      1  C6  UNL     1      27.398  -8.869 -33.894  0.00  0.00    +0.000 C 
ATOM      2  C7  UNL     1      28.146  -9.730 -34.601  0.00  0.00    +0.000 C 
ENDROOT
BRANCH   2   3
ATOM      3  C8  UNL     1      29.597 -10.005 -34.282  0.00  0.00    +0.000 C 
ATOM      4  C9  UNL     1      30.528  -9.463 -35.383  0.00  0.00    +0.000 C 
ATOM      5  C10 UNL     1      31.975  -9.618 -35.015  0.00  0.00    +0.000 C 
ATOM      6  O2  UNL     1      32.845  -9.620 -35.927  0.00  0.00    +0.000 OA
ATOM      7  C11 UNL     1      32.400  -9.680 -33.601  0.00  0.00    +0.000 C 
ATOM      8  O3  UNL     1      33.627  -9.616 -33.319  0.00  0.00    +0.000 OA
ATOM      9  C12 UNL     1      31.405  -9.905 -32.494  0.00  0.00    +0.000 C 
ATOM     10  C14 UNL     1      29.995  -9.437 -32.905  0.00  0.00    +0.000 C 
BRANCH   9  11
ATOM     11  O4  UNL     1      31.385 -11.291 -32.194  0.00  0.00    +0.000 OA
ATOM     12  C13 UNL     1      32.074 -11.554 -30.991  0.00  0.00    +0.000 C 
ENDBRANCH   9  11
ENDBRANCH   2   3
BRANCH   1  16
ATOM     13  C2  UNL     1      23.271  -8.060 -34.820  0.00  0.00    +0.000 A 
ATOM     14  C3  UNL     1      23.609  -8.608 -33.570  0.00  0.00    +0.000 A 
ATOM     15  C4  UNL     1      24.944  -8.877 -33.253  0.00  0.00    +0.000 A 
ATOM     16  C5  UNL     1      25.969  -8.592 -34.177  0.00  0.00    +0.000 A 
ATOM     17  C15 UNL     1      25.622  -8.059 -35.428  0.00  0.00    +0.000 A 
ATOM     18  C16 UNL     1      24.287  -7.792 -35.743  0.00  0.00    +0.000 A 
BRANCH  13  20
ATOM     19  C1  UNL     1      21.531  -6.569 -35.820  0.00  0.00    +0.000 C 
ATOM     20  O1  UNL     1      21.947  -7.772 -35.183  0.00  0.00    +0.000 OA
ENDBRANCH  13  20
ENDBRANCH   1  16
TORSDOF 4
ENDMDL
MODEL 7
REMARK VINA RESULT:    -5.023      3.475      8.266
REMARK INTER + INTRA:          -6.634
REMARK INTER:                  -6.180
REMARK INTRA:                  -0.454
REMARK UNBOUND:                -0.436
REMARK  Name = resultss/4CJN/ligands/lig_330_t2.pdb
REMARK  6 active torsions:
REMARK  status: ('A' for Active; 'I' for Inactive)
REMARK    1  A    between atoms: C1_1  and  O1_2
REMARK    2  A    between atoms: O1_2  and  C2_3
REMARK    3  A    between atoms: C5_6  and  C6_7
REMARK    4  A    between atoms: C7_8  and  C8_9
REMARK    5  A    between atoms: C12_15  and  O4_16
REMARK    6  A    between atoms: O4_16  and  C13_17
REMARK                            x       y       z     vdW  Elec       q    Type
REMARK                         _______ _______ _______ _____ _____    ______ ____
ROOT
ATOM      1  C6  UNL     1      28.589  -9.466 -37.952  0.00  0.00    +0.000 C 
ATOM      2  C7  UNL     1      28.108 -10.470 -38.699  0.00  0.00    +0.000 C 
ENDROOT
BRANCH   2   3
ATOM      3  C8  UNL     1      27.760 -10.308 -40.160  0.00  0.00    +0.000 C 
ATOM      4  C9  UNL     1      26.246 -10.102 -40.359  0.00  0.00    +0.000 C 
ATOM      5  C10 UNL     1      25.907  -9.813 -41.793  0.00  0.00    +0.000 C 
ATOM      6  O2  UNL     1      24.734 -10.025 -42.201  0.00  0.00    +0.000 OA
ATOM      7  C11 UNL     1      26.898  -9.204 -42.704  0.00  0.00    +0.000 C 
ATOM      8  O3  UNL     1      26.530  -8.797 -43.838  0.00  0.00    +0.000 OA
ATOM      9  C12 UNL     1      28.358  -9.138 -42.339  0.00  0.00    +0.000 C 
ATOM     10  C14 UNL     1      28.555  -9.158 -40.810  0.00  0.00    +0.000 C 
BRANCH   9  11
ATOM     11  O4  UNL     1      29.009 -10.253 -42.925  0.00  0.00    +0.000 OA
ATOM     12  C13 UNL     1      30.411 -10.100 -42.871  0.00  0.00    +0.000 C 
ENDBRANCH   9  11
ENDBRANCH   2   3
BRANCH   1  16
ATOM     13  C2  UNL     1      29.740  -9.816 -33.817  0.00  0.00    +0.000 A 
ATOM     14  C3  UNL     1      28.385  -9.946 -34.176  0.00  0.00    +0.000 A 
ATOM     15  C4  UNL     1      27.995  -9.836 -35.514  0.00  0.00    +0.000 A 
ATOM     16  C5  UNL     1      28.953  -9.602 -36.520  0.00  0.00    +0.000 A 
ATOM     17  C15 UNL     1      30.299  -9.458 -36.152  0.00  0.00    +0.000 A 
ATOM     18  C16 UNL     1      30.687  -9.569 -34.815  0.00  0.00    +0.000 A 
BRANCH  13  20
ATOM     19  C1  UNL     1      31.498 -10.298 -32.106  0.00  0.00    +0.000 C 
ATOM     20  O1  UNL     1      30.180  -9.920 -32.489  0.00  0.00    +0.000 OA
ENDBRANCH  13  20
ENDBRANCH   1  16
TORSDOF 4
ENDMDL
MODEL 8
REMARK VINA RESULT:    -4.952      2.262      8.101
REMARK INTER + INTRA:          -6.546
REMARK INTER:                  -6.100
REMARK INTRA:                  -0.446
REMARK UNBOUND:                -0.436
REMARK  Name = resultss/4CJN/ligands/lig_330_t2.pdb
REMARK  6 active torsions:
REMARK  status: ('A' for Active; 'I' for Inactive)
REMARK    1  A    between atoms: C1_1  and  O1_2
REMARK    2  A    between atoms: O1_2  and  C2_3
REMARK    3  A    between atoms: C5_6  and  C6_7
REMARK    4  A    between atoms: C7_8  and  C8_9
REMARK    5  A    between atoms: C12_15  and  O4_16
REMARK    6  A    between atoms: O4_16  and  C13_17
REMARK                            x       y       z     vdW  Elec       q    Type
REMARK                         _______ _______ _______ _____ _____    ______ ____
ROOT
ATOM      1  C6  UNL     1      28.944 -10.260 -41.882  0.00  0.00    +0.000 C 
ATOM      2  C7  UNL     1      29.647 -10.137 -43.018  0.00  0.00    +0.000 C 
ENDROOT
BRANCH   2   3
ATOM      3  C8  UNL     1      30.987 -10.803 -43.226  0.00  0.00    +0.000 C 
ATOM      4  C9  UNL     1      31.984 -10.416 -42.117  0.00  0.00    +0.000 C 
ATOM      5  C10 UNL     1      33.277 -11.170 -42.242  0.00  0.00    +0.000 C 
ATOM      6  O2  UNL     1      34.317 -10.701 -41.706  0.00  0.00    +0.000 OA
ATOM      7  C11 UNL     1      33.330 -12.488 -42.907  0.00  0.00    +0.000 C 
ATOM      8  O3  UNL     1      34.380 -13.181 -42.828  0.00  0.00    +0.000 OA
ATOM      9  C12 UNL     1      32.185 -12.986 -43.749  0.00  0.00    +0.000 C 
ATOM     10  C14 UNL     1      30.853 -12.335 -43.325  0.00  0.00    +0.000 C 
BRANCH   9  11
ATOM     11  O4  UNL     1      32.465 -12.673 -45.103  0.00  0.00    +0.000 OA
ATOM     12  C13 UNL     1      32.726 -13.844 -45.846  0.00  0.00    +0.000 C 
ENDBRANCH   9  11
ENDBRANCH   2   3
BRANCH   1  16
ATOM     13  C2  UNL     1      25.109  -8.381 -41.330  0.00  0.00    +0.000 A 
ATOM     14  C3  UNL     1      25.445  -9.514 -40.567  0.00  0.00    +0.000 A 
ATOM     15  C4  UNL     1      26.686 -10.136 -40.734  0.00  0.00    +0.000 A 
ATOM     16  C5  UNL     1      27.619  -9.631 -41.660  0.00  0.00    +0.000 A 
ATOM     17  C15 UNL     1      27.270  -8.509 -42.428  0.00  0.00    +0.000 A 
ATOM     18  C16 UNL     1      26.030  -7.889 -42.260  0.00  0.00    +0.000 A 
BRANCH  13  20
ATOM     19  C1  UNL     1      22.963  -7.505 -42.267  0.00  0.00    +0.000 C 
ATOM     20  O1  UNL     1      23.877  -7.722 -41.198  0.00  0.00    +0.000 OA
ENDBRANCH  13  20
ENDBRANCH   1  16
TORSDOF 4
ENDMDL
MODEL 9
REMARK VINA RESULT:    -4.869      1.760      2.124
REMARK INTER + INTRA:          -6.443
REMARK INTER:                  -6.005
REMARK INTRA:                  -0.439
REMARK UNBOUND:                -0.436
REMARK  Name = resultss/4CJN/ligands/lig_330_t2.pdb
REMARK  6 active torsions:
REMARK  status: ('A' for Active; 'I' for Inactive)
REMARK    1  A    between atoms: C1_1  and  O1_2
REMARK    2  A    between atoms: O1_2  and  C2_3
REMARK    3  A    between atoms: C5_6  and  C6_7
REMARK    4  A    between atoms: C7_8  and  C8_9
REMARK    5  A    between atoms: C12_15  and  O4_16
REMARK    6  A    between atoms: O4_16  and  C13_17
REMARK                            x       y       z     vdW  Elec       q    Type
REMARK                         _______ _______ _______ _____ _____    ______ ____
ROOT
ATOM      1  C6  UNL     1      29.941 -10.324 -41.894  0.00  0.00    +0.000 C 
ATOM      2  C7  UNL     1      28.884  -9.933 -42.623  0.00  0.00    +0.000 C 
ENDROOT
BRANCH   2   3
ATOM      3  C8  UNL     1      27.701  -9.210 -42.025  0.00  0.00    +0.000 C 
ATOM      4  C9  UNL     1      26.490  -9.227 -42.977  0.00  0.00    +0.000 C 
ATOM      5  C10 UNL     1      25.272  -8.623 -42.341  0.00  0.00    +0.000 C 
ATOM      6  O2  UNL     1      24.347  -8.185 -43.077  0.00  0.00    +0.000 OA
ATOM      7  C11 UNL     1      25.103  -8.614 -40.873  0.00  0.00    +0.000 C 
ATOM      8  O3  UNL     1      23.993  -8.279 -40.379  0.00  0.00    +0.000 OA
ATOM      9  C12 UNL     1      26.255  -8.915 -39.951  0.00  0.00    +0.000 C 
ATOM     10  C14 UNL     1      27.317  -9.789 -40.648  0.00  0.00    +0.000 C 
BRANCH   9  11
ATOM     11  O4  UNL     1      26.832  -7.683 -39.551  0.00  0.00    +0.000 OA
ATOM     12  C13 UNL     1      27.534  -7.829 -38.335  0.00  0.00    +0.000 C 
ENDBRANCH   9  11
ENDBRANCH   2   3
BRANCH   1  16
ATOM     13  C2  UNL     1      33.303 -12.400 -43.605  0.00  0.00    +0.000 A 
ATOM     14  C3  UNL     1      33.518 -11.242 -42.836  0.00  0.00    +0.000 A 
ATOM     15  C4  UNL     1      32.438 -10.556 -42.273  0.00  0.00    +0.000 A 
ATOM     16  C5  UNL     1      31.121 -11.021 -42.460  0.00  0.00    +0.000 A 
ATOM     17  C15 UNL     1      30.914 -12.168 -43.241  0.00  0.00    +0.000 A 
ATOM     18  C16 UNL     1      31.995 -12.852 -43.803  0.00  0.00    +0.000 A 
BRANCH  13  20
ATOM     19  C1  UNL     1      34.371 -13.566 -45.542  0.00  0.00    +0.000 C 
ATOM     20  O1  UNL     1      34.355 -13.122 -44.189  0.00  0.00    +0.000 OA
ENDBRANCH  13  20
ENDBRANCH   1  16
TORSDOF 4
ENDMDL
