MODEL 1
REMARK VINA RESULT:    -8.362      0.000      0.000
REMARK INTER + INTRA:         -12.235
REMARK INTER:                 -11.784
REMARK INTRA:                  -0.451
REMARK UNBOUND:                -0.451
REMARK  Name = resultss/4CJN/ligands/lig_425_t0.pdb
REMARK  8 active torsions:
REMARK  status: ('A' for Active; 'I' for Inactive)
REMARK    1  A    between atoms: C1_1  and  O1_2
REMARK    2  A    between atoms: O1_2  and  C2_3
REMARK    3  A    between atoms: C6_7  and  N1_8
REMARK    4  A    between atoms: N1_8  and  C7_9
REMARK    5  A    between atoms: C7_9  and  N2_11
REMARK    6  A    between atoms: N2_11  and  N3_12
REMARK    7  A    between atoms: C8_13  and  C9_15
REMARK    8  A    between atoms: C19_26  and  C20_27
REMARK                            x       y       z     vdW  Elec       q    Type
REMARK                         _______ _______ _______ _____ _____    ______ ____
ROOT
ATOM      1  C9  UNL     1      27.688  -9.916 -37.685  0.00  0.00    +0.000 A 
ATOM      2  C10 UNL     1      28.909  -9.937 -36.977  0.00  0.00    +0.000 A 
ATOM      3  C11 UNL     1      28.868  -9.597 -35.629  0.00  0.00    +0.000 A 
ATOM      4  C12 UNL     1      27.694  -9.259 -34.994  0.00  0.00    +0.000 A 
ATOM      5  N4  UNL     1      27.916  -8.905 -33.705  0.00  0.00    +0.000 N 
ATOM      6  C13 UNL     1      29.248  -9.045 -33.534  0.00  0.00    +0.000 A 
ATOM      7  C14 UNL     1      29.978  -8.790 -32.373  0.00  0.00    +0.000 A 
ATOM      8  C15 UNL     1      31.372  -8.985 -32.415  0.00  0.00    +0.000 A 
ATOM      9  C16 UNL     1      32.000  -9.418 -33.605  0.00  0.00    +0.000 A 
ATOM     10  C17 UNL     1      31.244  -9.663 -34.765  0.00  0.00    +0.000 A 
ATOM     11  C18 UNL     1      29.866  -9.469 -34.691  0.00  0.00    +0.000 A 
ATOM     12  C19 UNL     1      26.485  -9.259 -35.703  0.00  0.00    +0.000 A 
ATOM     13  N5  UNL     1      26.528  -9.580 -37.031  0.00  0.00    +0.000 NA
ATOM     14  H11 UNL     1      27.227  -8.562 -33.000  0.00  0.00    +0.000 HD
ENDROOT
BRANCH  12  15
ATOM     15  C20 UNL     1      25.186  -8.926 -35.081  0.00  0.00    +0.000 A 
ATOM     16  C21 UNL     1      24.918  -9.335 -33.764  0.00  0.00    +0.000 A 
ATOM     17  C22 UNL     1      23.704  -9.005 -33.154  0.00  0.00    +0.000 A 
ATOM     18  C23 UNL     1      22.754  -8.251 -33.848  0.00  0.00    +0.000 A 
ATOM     19  C24 UNL     1      23.021  -7.820 -35.151  0.00  0.00    +0.000 A 
ATOM     20  C25 UNL     1      24.234  -8.148 -35.764  0.00  0.00    +0.000 A 
ENDBRANCH  12  15
BRANCH   1  22
ATOM     21  N3  UNL     1      28.716 -10.983 -39.733  0.00  0.00    +0.000 N 
ATOM     22  C8  UNL     1      27.639 -10.257 -39.122  0.00  0.00    +0.000 C 
ATOM     23  O2  UNL     1      26.640  -9.922 -39.815  0.00  0.00    +0.000 OA
ATOM     24  H9  UNL     1      29.361 -11.535 -39.124  0.00  0.00    +0.000 HD
BRANCH  21  25
ATOM     25  N2  UNL     1      28.762 -11.211 -41.120  0.00  0.00    +0.000 N 
ATOM     26  H8  UNL     1      28.074 -11.877 -41.537  0.00  0.00    +0.000 HD
BRANCH  25  27
ATOM     27  C7  UNL     1      29.824 -10.728 -41.958  0.00  0.00    +0.000 C 
ATOM     28  S1  UNL     1      29.574  -9.456 -42.973  0.00  0.00    +0.000 S 
BRANCH  27  29
ATOM     29  N1  UNL     1      31.090 -11.407 -41.928  0.00  0.00    +0.000 N 
ATOM     30  H7  UNL     1      31.396 -11.812 -41.015  0.00  0.00    +0.000 HD
BRANCH  29  35
ATOM     31  C2  UNL     1      32.586 -13.000 -44.968  0.00  0.00    +0.000 A 
ATOM     32  C3  UNL     1      33.622 -12.093 -45.265  0.00  0.00    +0.000 A 
ATOM     33  C4  UNL     1      33.823 -10.969 -44.462  0.00  0.00    +0.000 A 
ATOM     34  C5  UNL     1      32.992 -10.731 -43.364  0.00  0.00    +0.000 A 
ATOM     35  C6  UNL     1      31.939 -11.613 -43.071  0.00  0.00    +0.000 A 
ATOM     36  C26 UNL     1      31.758 -12.754 -43.866  0.00  0.00    +0.000 A 
BRANCH  31  38
ATOM     37  C1  UNL     1      33.123 -14.534 -46.869  0.00  0.00    +0.000 C 
ATOM     38  O1  UNL     1      32.349 -14.148 -45.737  0.00  0.00    +0.000 OA
ENDBRANCH  31  38
ENDBRANCH  29  35
ENDBRANCH  27  29
ENDBRANCH  25  27
ENDBRANCH  21  25
ENDBRANCH   1  22
TORSDOF 7
ENDMDL
MODEL 2
REMARK VINA RESULT:    -7.941      0.842      4.270
REMARK INTER + INTRA:         -11.642
REMARK INTER:                 -11.195
REMARK INTRA:                  -0.447
REMARK UNBOUND:                -0.451
REMARK  Name = resultss/4CJN/ligands/lig_425_t0.pdb
REMARK  8 active torsions:
REMARK  status: ('A' for Active; 'I' for Inactive)
REMARK    1  A    between atoms: C1_1  and  O1_2
REMARK    2  A    between atoms: O1_2  and  C2_3
REMARK    3  A    between atoms: C6_7  and  N1_8
REMARK    4  A    between atoms: N1_8  and  C7_9
REMARK    5  A    between atoms: C7_9  and  N2_11
REMARK    6  A    between atoms: N2_11  and  N3_12
REMARK    7  A    between atoms: C8_13  and  C9_15
REMARK    8  A    between atoms: C19_26  and  C20_27
REMARK                            x       y       z     vdW  Elec       q    Type
REMARK                         _______ _______ _______ _____ _____    ______ ____
ROOT
ATOM      1  C9  UNL     1      27.193  -9.681 -38.030  0.00  0.00    +0.000 A 
ATOM      2  C10 UNL     1      25.965  -9.120 -37.616  0.00  0.00    +0.000 A 
ATOM      3  C11 UNL     1      25.877  -8.684 -36.299  0.00  0.00    +0.000 A 
ATOM      4  C12 UNL     1      26.935  -8.781 -35.423  0.00  0.00    +0.000 A 
ATOM      5  N4  UNL     1      26.590  -8.353 -34.185  0.00  0.00    +0.000 N 
ATOM      6  C13 UNL     1      25.301  -7.967 -34.300  0.00  0.00    +0.000 A 
ATOM      7  C14 UNL     1      24.482  -7.458 -33.294  0.00  0.00    +0.000 A 
ATOM      8  C15 UNL     1      23.153  -7.133 -33.626  0.00  0.00    +0.000 A 
ATOM      9  C16 UNL     1      22.674  -7.327 -34.942  0.00  0.00    +0.000 A 
ATOM     10  C17 UNL     1      23.517  -7.848 -35.940  0.00  0.00    +0.000 A 
ATOM     11  C18 UNL     1      24.829  -8.154 -35.582  0.00  0.00    +0.000 A 
ATOM     12  C19 UNL     1      28.155  -9.323 -35.850  0.00  0.00    +0.000 A 
ATOM     13  N5  UNL     1      28.236  -9.764 -37.142  0.00  0.00    +0.000 NA
ATOM     14  H11 UNL     1      27.168  -8.351 -33.316  0.00  0.00    +0.000 HD
ENDROOT
BRANCH  12  15
ATOM     15  C20 UNL     1      29.337  -9.439 -34.970  0.00  0.00    +0.000 A 
ATOM     16  C21 UNL     1      29.170  -9.787 -33.620  0.00  0.00    +0.000 A 
ATOM     17  C22 UNL     1      30.282  -9.925 -32.783  0.00  0.00    +0.000 A 
ATOM     18  C23 UNL     1      31.569  -9.730 -33.290  0.00  0.00    +0.000 A 
ATOM     19  C24 UNL     1      31.746  -9.406 -34.638  0.00  0.00    +0.000 A 
ATOM     20  C25 UNL     1      30.637  -9.266 -35.478  0.00  0.00    +0.000 A 
ENDBRANCH  12  15
BRANCH   1  22
ATOM     21  N3  UNL     1      28.520 -10.967 -39.756  0.00  0.00    +0.000 N 
ATOM     22  C8  UNL     1      27.372 -10.176 -39.411  0.00  0.00    +0.000 C 
ATOM     23  O2  UNL     1      26.506  -9.917 -40.290  0.00  0.00    +0.000 OA
ATOM     24  H9  UNL     1      29.046 -11.450 -38.994  0.00  0.00    +0.000 HD
BRANCH  21  25
ATOM     25  N2  UNL     1      28.787 -11.344 -41.084  0.00  0.00    +0.000 N 
ATOM     26  H8  UNL     1      28.296 -12.182 -41.470  0.00  0.00    +0.000 HD
BRANCH  25  27
ATOM     27  C7  UNL     1      29.837 -10.758 -41.869  0.00  0.00    +0.000 C 
ATOM     28  S1  UNL     1      29.574  -9.367 -42.710  0.00  0.00    +0.000 S 
BRANCH  27  29
ATOM     29  N1  UNL     1      31.103 -11.433 -41.943  0.00  0.00    +0.000 N 
ATOM     30  H7  UNL     1      31.472 -11.859 -41.063  0.00  0.00    +0.000 HD
BRANCH  29  35
ATOM     31  C2  UNL     1      32.464 -13.003 -45.059  0.00  0.00    +0.000 A 
ATOM     32  C3  UNL     1      33.401 -12.032 -45.461  0.00  0.00    +0.000 A 
ATOM     33  C4  UNL     1      33.581 -10.872 -44.704  0.00  0.00    +0.000 A 
ATOM     34  C5  UNL     1      32.826 -10.664 -43.547  0.00  0.00    +0.000 A 
ATOM     35  C6  UNL     1      31.869 -11.611 -43.147  0.00  0.00    +0.000 A 
ATOM     36  C26 UNL     1      31.711 -12.786 -43.897  0.00  0.00    +0.000 A 
BRANCH  31  38
ATOM     37  C1  UNL     1      33.169 -14.730 -46.723  0.00  0.00    +0.000 C 
ATOM     38  O1  UNL     1      32.252 -14.188 -45.777  0.00  0.00    +0.000 OA
ENDBRANCH  31  38
ENDBRANCH  29  35
ENDBRANCH  27  29
ENDBRANCH  25  27
ENDBRANCH  21  25
ENDBRANCH   1  22
TORSDOF 7
ENDMDL
MODEL 3
REMARK VINA RESULT:    -7.777      1.779      4.718
REMARK INTER + INTRA:         -11.411
REMARK INTER:                 -10.614
REMARK INTRA:                  -0.797
REMARK UNBOUND:                -0.451
REMARK  Name = resultss/4CJN/ligands/lig_425_t0.pdb
REMARK  8 active torsions:
REMARK  status: ('A' for Active; 'I' for Inactive)
REMARK    1  A    between atoms: C1_1  and  O1_2
REMARK    2  A    between atoms: O1_2  and  C2_3
REMARK    3  A    between atoms: C6_7  and  N1_8
REMARK    4  A    between atoms: N1_8  and  C7_9
REMARK    5  A    between atoms: C7_9  and  N2_11
REMARK    6  A    between atoms: N2_11  and  N3_12
REMARK    7  A    between atoms: C8_13  and  C9_15
REMARK    8  A    between atoms: C19_26  and  C20_27
REMARK                            x       y       z     vdW  Elec       q    Type
REMARK                         _______ _______ _______ _____ _____    ______ ____
ROOT
ATOM      1  C9  UNL     1      30.603  -9.644 -36.971  0.00  0.00    +0.000 A 
ATOM      2  C10 UNL     1      29.218  -9.371 -36.984  0.00  0.00    +0.000 A 
ATOM      3  C11 UNL     1      28.600  -9.163 -35.756  0.00  0.00    +0.000 A 
ATOM      4  C12 UNL     1      29.296  -9.209 -34.568  0.00  0.00    +0.000 A 
ATOM      5  N4  UNL     1      28.470  -9.040 -33.507  0.00  0.00    +0.000 N 
ATOM      6  C13 UNL     1      27.245  -8.867 -34.048  0.00  0.00    +0.000 A 
ATOM      7  C14 UNL     1      26.045  -8.665 -33.367  0.00  0.00    +0.000 A 
ATOM      8  C15 UNL     1      24.870  -8.526 -34.128  0.00  0.00    +0.000 A 
ATOM      9  C16 UNL     1      24.916  -8.596 -35.539  0.00  0.00    +0.000 A 
ATOM     10  C17 UNL     1      26.137  -8.807 -36.205  0.00  0.00    +0.000 A 
ATOM     11  C18 UNL     1      27.284  -8.935 -35.425  0.00  0.00    +0.000 A 
ATOM     12  C19 UNL     1      30.674  -9.463 -34.569  0.00  0.00    +0.000 A 
ATOM     13  N5  UNL     1      31.278  -9.681 -35.776  0.00  0.00    +0.000 NA
ATOM     14  H11 UNL     1      28.707  -9.071 -32.491  0.00  0.00    +0.000 HD
ENDROOT
BRANCH  12  15
ATOM     15  C20 UNL     1      31.486  -9.507 -33.335  0.00  0.00    +0.000 A 
ATOM     16  C21 UNL     1      31.512 -10.677 -32.558  0.00  0.00    +0.000 A 
ATOM     17  C22 UNL     1      32.296 -10.741 -31.402  0.00  0.00    +0.000 A 
ATOM     18  C23 UNL     1      33.071  -9.643 -31.020  0.00  0.00    +0.000 A 
ATOM     19  C24 UNL     1      33.069  -8.482 -31.799  0.00  0.00    +0.000 A 
ATOM     20  C25 UNL     1      32.286  -8.415 -32.956  0.00  0.00    +0.000 A 
ENDBRANCH  12  15
BRANCH   1  22
ATOM     21  N3  UNL     1      30.631 -10.034 -39.469  0.00  0.00    +0.000 N 
ATOM     22  C8  UNL     1      31.339  -9.885 -38.230  0.00  0.00    +0.000 C 
ATOM     23  O2  UNL     1      32.599  -9.945 -38.220  0.00  0.00    +0.000 OA
ATOM     24  H9  UNL     1      29.656  -9.666 -39.539  0.00  0.00    +0.000 HD
BRANCH  21  25
ATOM     25  N2  UNL     1      31.289 -10.391 -40.660  0.00  0.00    +0.000 N 
ATOM     26  H8  UNL     1      32.323 -10.255 -40.715  0.00  0.00    +0.000 HD
BRANCH  25  27
ATOM     27  C7  UNL     1      30.591 -10.747 -41.863  0.00  0.00    +0.000 C 
ATOM     28  S1  UNL     1      29.330  -9.834 -42.399  0.00  0.00    +0.000 S 
BRANCH  27  29
ATOM     29  N1  UNL     1      30.983 -11.940 -42.562  0.00  0.00    +0.000 N 
ATOM     30  H7  UNL     1      30.603 -12.848 -42.212  0.00  0.00    +0.000 HD
BRANCH  29  35
ATOM     31  C2  UNL     1      32.906 -13.260 -45.491  0.00  0.00    +0.000 A 
ATOM     32  C3  UNL     1      33.495 -12.078 -45.981  0.00  0.00    +0.000 A 
ATOM     33  C4  UNL     1      33.259 -10.859 -45.342  0.00  0.00    +0.000 A 
ATOM     34  C5  UNL     1      32.430 -10.802 -44.219  0.00  0.00    +0.000 A 
ATOM     35  C6  UNL     1      31.815 -11.969 -43.735  0.00  0.00    +0.000 A 
ATOM     36  C26 UNL     1      32.076 -13.194 -44.365  0.00  0.00    +0.000 A 
BRANCH  31  38
ATOM     37  C1  UNL     1      33.658 -14.697 -47.394  0.00  0.00    +0.000 C 
ATOM     38  O1  UNL     1      33.119 -14.510 -46.090  0.00  0.00    +0.000 OA
ENDBRANCH  31  38
ENDBRANCH  29  35
ENDBRANCH  27  29
ENDBRANCH  25  27
ENDBRANCH  21  25
ENDBRANCH   1  22
TORSDOF 7
ENDMDL
MODEL 4
REMARK VINA RESULT:    -7.713      4.998      7.911
REMARK INTER + INTRA:         -11.320
REMARK INTER:                 -10.243
REMARK INTRA:                  -1.078
REMARK UNBOUND:                -0.451
REMARK  Name = resultss/4CJN/ligands/lig_425_t0.pdb
REMARK  8 active torsions:
REMARK  status: ('A' for Active; 'I' for Inactive)
REMARK    1  A    between atoms: C1_1  and  O1_2
REMARK    2  A    between atoms: O1_2  and  C2_3
REMARK    3  A    between atoms: C6_7  and  N1_8
REMARK    4  A    between atoms: N1_8  and  C7_9
REMARK    5  A    between atoms: C7_9  and  N2_11
REMARK    6  A    between atoms: N2_11  and  N3_12
REMARK    7  A    between atoms: C8_13  and  C9_15
REMARK    8  A    between atoms: C19_26  and  C20_27
REMARK                            x       y       z     vdW  Elec       q    Type
REMARK                         _______ _______ _______ _____ _____    ______ ____
ROOT
ATOM      1  C9  UNL     1      26.232  -9.562 -41.181  0.00  0.00    +0.000 A 
ATOM      2  C10 UNL     1      25.988  -9.406 -39.800  0.00  0.00    +0.000 A 
ATOM      3  C11 UNL     1      27.059  -9.610 -38.938  0.00  0.00    +0.000 A 
ATOM      4  C12 UNL     1      28.315  -9.942 -39.396  0.00  0.00    +0.000 A 
ATOM      5  N4  UNL     1      29.174 -10.152 -38.369  0.00  0.00    +0.000 N 
ATOM      6  C13 UNL     1      28.442  -9.927 -37.256  0.00  0.00    +0.000 A 
ATOM      7  C14 UNL     1      28.872 -10.024 -35.933  0.00  0.00    +0.000 A 
ATOM      8  C15 UNL     1      27.935  -9.763 -34.915  0.00  0.00    +0.000 A 
ATOM      9  C16 UNL     1      26.602  -9.420 -35.237  0.00  0.00    +0.000 A 
ATOM     10  C17 UNL     1      26.190  -9.333 -36.579  0.00  0.00    +0.000 A 
ATOM     11  C18 UNL     1      27.141  -9.591 -37.564  0.00  0.00    +0.000 A 
ATOM     12  C19 UNL     1      28.550 -10.077 -40.771  0.00  0.00    +0.000 A 
ATOM     13  N5  UNL     1      27.492  -9.889 -41.616  0.00  0.00    +0.000 NA
ATOM     14  H11 UNL     1      30.171 -10.457 -38.411  0.00  0.00    +0.000 HD
ENDROOT
BRANCH  12  15
ATOM     15  C20 UNL     1      29.875 -10.412 -41.332  0.00  0.00    +0.000 A 
ATOM     16  C21 UNL     1      29.998 -11.467 -42.252  0.00  0.00    +0.000 A 
ATOM     17  C22 UNL     1      31.241 -11.777 -42.810  0.00  0.00    +0.000 A 
ATOM     18  C23 UNL     1      32.370 -11.028 -42.466  0.00  0.00    +0.000 A 
ATOM     19  C24 UNL     1      32.254  -9.963 -41.570  0.00  0.00    +0.000 A 
ATOM     20  C25 UNL     1      31.012  -9.649 -41.009  0.00  0.00    +0.000 A 
ENDBRANCH  12  15
BRANCH   1  22
ATOM     21  N3  UNL     1      23.879  -8.838 -41.761  0.00  0.00    +0.000 N 
ATOM     22  C8  UNL     1      25.149  -9.371 -42.168  0.00  0.00    +0.000 C 
ATOM     23  O2  UNL     1      25.344  -9.662 -43.380  0.00  0.00    +0.000 OA
ATOM     24  H9  UNL     1      23.822  -8.302 -40.867  0.00  0.00    +0.000 HD
BRANCH  21  25
ATOM     25  N2  UNL     1      22.789  -8.765 -42.646  0.00  0.00    +0.000 N 
ATOM     26  H8  UNL     1      22.389  -9.656 -43.015  0.00  0.00    +0.000 HD
BRANCH  25  27
ATOM     27  C7  UNL     1      22.324  -7.531 -43.215  0.00  0.00    +0.000 C 
ATOM     28  S1  UNL     1      20.748  -7.082 -43.063  0.00  0.00    +0.000 S 
BRANCH  27  29
ATOM     29  N1  UNL     1      23.250  -6.722 -43.960  0.00  0.00    +0.000 N 
ATOM     30  H7  UNL     1      23.686  -5.913 -43.464  0.00  0.00    +0.000 HD
BRANCH  29  35
ATOM     31  C2  UNL     1      25.445  -7.146 -46.964  0.00  0.00    +0.000 A 
ATOM     32  C3  UNL     1      24.486  -7.394 -47.965  0.00  0.00    +0.000 A 
ATOM     33  C4  UNL     1      23.127  -7.415 -47.646  0.00  0.00    +0.000 A 
ATOM     34  C5  UNL     1      22.710  -7.200 -46.330  0.00  0.00    +0.000 A 
ATOM     35  C6  UNL     1      23.656  -6.978 -45.316  0.00  0.00    +0.000 A 
ATOM     36  C26 UNL     1      25.018  -6.932 -45.647  0.00  0.00    +0.000 A 
BRANCH  31  38
ATOM     37  C1  UNL     1      27.838  -7.213 -46.242  0.00  0.00    +0.000 C 
ATOM     38  O1  UNL     1      26.821  -7.105 -47.233  0.00  0.00    +0.000 OA
ENDBRANCH  31  38
ENDBRANCH  29  35
ENDBRANCH  27  29
ENDBRANCH  25  27
ENDBRANCH  21  25
ENDBRANCH   1  22
TORSDOF 7
ENDMDL
MODEL 5
REMARK VINA RESULT:    -7.689      2.838      4.052
REMARK INTER + INTRA:         -11.286
REMARK INTER:                 -10.505
REMARK INTRA:                  -0.782
REMARK UNBOUND:                -0.451
REMARK  Name = resultss/4CJN/ligands/lig_425_t0.pdb
REMARK  8 active torsions:
REMARK  status: ('A' for Active; 'I' for Inactive)
REMARK    1  A    between atoms: C1_1  and  O1_2
REMARK    2  A    between atoms: O1_2  and  C2_3
REMARK    3  A    between atoms: C6_7  and  N1_8
REMARK    4  A    between atoms: N1_8  and  C7_9
REMARK    5  A    between atoms: C7_9  and  N2_11
REMARK    6  A    between atoms: N2_11  and  N3_12
REMARK    7  A    between atoms: C8_13  and  C9_15
REMARK    8  A    between atoms: C19_26  and  C20_27
REMARK                            x       y       z     vdW  Elec       q    Type
REMARK                         _______ _______ _______ _____ _____    ______ ____
ROOT
ATOM      1  C9  UNL     1      27.669  -9.935 -37.619  0.00  0.00    +0.000 A 
ATOM      2  C10 UNL     1      28.892  -9.950 -36.915  0.00  0.00    +0.000 A 
ATOM      3  C11 UNL     1      28.858  -9.588 -35.573  0.00  0.00    +0.000 A 
ATOM      4  C12 UNL     1      27.687  -9.234 -34.939  0.00  0.00    +0.000 A 
ATOM      5  N4  UNL     1      27.915  -8.860 -33.657  0.00  0.00    +0.000 N 
ATOM      6  C13 UNL     1      29.248  -9.003 -33.488  0.00  0.00    +0.000 A 
ATOM      7  C14 UNL     1      29.983  -8.733 -32.335  0.00  0.00    +0.000 A 
ATOM      8  C15 UNL     1      31.375  -8.935 -32.378  0.00  0.00    +0.000 A 
ATOM      9  C16 UNL     1      31.998  -9.391 -33.563  0.00  0.00    +0.000 A 
ATOM     10  C17 UNL     1      31.237  -9.651 -34.716  0.00  0.00    +0.000 A 
ATOM     11  C18 UNL     1      29.860  -9.448 -34.640  0.00  0.00    +0.000 A 
ATOM     12  C19 UNL     1      26.476  -9.240 -35.644  0.00  0.00    +0.000 A 
ATOM     13  N5  UNL     1      26.513  -9.583 -36.967  0.00  0.00    +0.000 NA
ATOM     14  H11 UNL     1      27.230  -8.503 -32.955  0.00  0.00    +0.000 HD
ENDROOT
BRANCH  12  15
ATOM     15  C20 UNL     1      25.181  -8.891 -35.023  0.00  0.00    +0.000 A 
ATOM     16  C21 UNL     1      24.916  -9.277 -33.698  0.00  0.00    +0.000 A 
ATOM     17  C22 UNL     1      23.706  -8.931 -33.090  0.00  0.00    +0.000 A 
ATOM     18  C23 UNL     1      22.756  -8.184 -33.793  0.00  0.00    +0.000 A 
ATOM     19  C24 UNL     1      23.020  -7.776 -35.104  0.00  0.00    +0.000 A 
ATOM     20  C25 UNL     1      24.230  -8.121 -35.716  0.00  0.00    +0.000 A 
ENDBRANCH  12  15
BRANCH   1  22
ATOM     21  N3  UNL     1      28.734 -10.935 -39.682  0.00  0.00    +0.000 N 
ATOM     22  C8  UNL     1      27.614 -10.299 -39.050  0.00  0.00    +0.000 C 
ATOM     23  O2  UNL     1      26.571 -10.064 -39.719  0.00  0.00    +0.000 OA
ATOM     24  H9  UNL     1      29.441 -11.419 -39.084  0.00  0.00    +0.000 HD
BRANCH  21  25
ATOM     25  N2  UNL     1      28.765 -11.178 -41.067  0.00  0.00    +0.000 N 
ATOM     26  H8  UNL     1      28.421 -12.099 -41.417  0.00  0.00    +0.000 HD
BRANCH  25  27
ATOM     27  C7  UNL     1      29.420 -10.305 -42.000  0.00  0.00    +0.000 C 
ATOM     28  S1  UNL     1      30.649 -10.862 -42.943  0.00  0.00    +0.000 S 
BRANCH  27  29
ATOM     29  N1  UNL     1      29.015  -8.927 -42.060  0.00  0.00    +0.000 N 
ATOM     30  H7  UNL     1      29.472  -8.264 -41.395  0.00  0.00    +0.000 HD
BRANCH  29  35
ATOM     31  C2  UNL     1      25.750  -8.081 -43.686  0.00  0.00    +0.000 A 
ATOM     32  C3  UNL     1      26.192  -7.424 -44.850  0.00  0.00    +0.000 A 
ATOM     33  C4  UNL     1      27.558  -7.269 -45.094  0.00  0.00    +0.000 A 
ATOM     34  C5  UNL     1      28.495  -7.756 -44.179  0.00  0.00    +0.000 A 
ATOM     35  C6  UNL     1      28.069  -8.390 -43.001  0.00  0.00    +0.000 A 
ATOM     36  C26 UNL     1      26.696  -8.566 -42.774  0.00  0.00    +0.000 A 
BRANCH  31  38
ATOM     37  C1  UNL     1      23.897  -8.903 -42.222  0.00  0.00    +0.000 C 
ATOM     38  O1  UNL     1      24.391  -8.272 -43.400  0.00  0.00    +0.000 OA
ENDBRANCH  31  38
ENDBRANCH  29  35
ENDBRANCH  27  29
ENDBRANCH  25  27
ENDBRANCH  21  25
ENDBRANCH   1  22
TORSDOF 7
ENDMDL
MODEL 6
REMARK VINA RESULT:    -7.259      2.597      3.278
REMARK INTER + INTRA:         -10.680
REMARK INTER:                  -9.227
REMARK INTRA:                  -1.453
REMARK UNBOUND:                -0.451
REMARK  Name = resultss/4CJN/ligands/lig_425_t0.pdb
REMARK  8 active torsions:
REMARK  status: ('A' for Active; 'I' for Inactive)
REMARK    1  A    between atoms: C1_1  and  O1_2
REMARK    2  A    between atoms: O1_2  and  C2_3
REMARK    3  A    between atoms: C6_7  and  N1_8
REMARK    4  A    between atoms: N1_8  and  C7_9
REMARK    5  A    between atoms: C7_9  and  N2_11
REMARK    6  A    between atoms: N2_11  and  N3_12
REMARK    7  A    between atoms: C8_13  and  C9_15
REMARK    8  A    between atoms: C19_26  and  C20_27
REMARK                            x       y       z     vdW  Elec       q    Type
REMARK                         _______ _______ _______ _____ _____    ______ ____
ROOT
ATOM      1  C9  UNL     1      27.481  -9.682 -37.058  0.00  0.00    +0.000 A 
ATOM      2  C10 UNL     1      28.768  -9.785 -36.487  0.00  0.00    +0.000 A 
ATOM      3  C11 UNL     1      28.909  -9.394 -35.160  0.00  0.00    +0.000 A 
ATOM      4  C12 UNL     1      27.845  -8.932 -34.416  0.00  0.00    +0.000 A 
ATOM      5  N4  UNL     1      28.240  -8.553 -33.177  0.00  0.00    +0.000 N 
ATOM      6  C13 UNL     1      29.567  -8.803 -33.146  0.00  0.00    +0.000 A 
ATOM      7  C14 UNL     1      30.442  -8.572 -32.085  0.00  0.00    +0.000 A 
ATOM      8  C15 UNL     1      31.801  -8.889 -32.271  0.00  0.00    +0.000 A 
ATOM      9  C16 UNL     1      32.253  -9.418 -33.501  0.00  0.00    +0.000 A 
ATOM     10  C17 UNL     1      31.353  -9.637 -34.559  0.00  0.00    +0.000 A 
ATOM     11  C18 UNL     1      30.013  -9.320 -34.343  0.00  0.00    +0.000 A 
ATOM     12  C19 UNL     1      26.568  -8.852 -34.989  0.00  0.00    +0.000 A 
ATOM     13  N5  UNL     1      26.435  -9.223 -36.297  0.00  0.00    +0.000 NA
ATOM     14  H11 UNL     1      27.666  -8.126 -32.417  0.00  0.00    +0.000 HD
ENDROOT
BRANCH  12  15
ATOM     15  C20 UNL     1      25.381  -8.384 -34.243  0.00  0.00    +0.000 A 
ATOM     16  C21 UNL     1      24.592  -9.308 -33.537  0.00  0.00    +0.000 A 
ATOM     17  C22 UNL     1      23.481  -8.875 -32.807  0.00  0.00    +0.000 A 
ATOM     18  C23 UNL     1      23.156  -7.516 -32.764  0.00  0.00    +0.000 A 
ATOM     19  C24 UNL     1      23.948  -6.588 -33.445  0.00  0.00    +0.000 A 
ATOM     20  C25 UNL     1      25.060  -7.016 -34.177  0.00  0.00    +0.000 A 
ENDBRANCH  12  15
BRANCH   1  22
ATOM     21  N3  UNL     1      26.406  -9.264 -39.308  0.00  0.00    +0.000 N 
ATOM     22  C8  UNL     1      27.243 -10.069 -38.464  0.00  0.00    +0.000 C 
ATOM     23  O2  UNL     1      27.790 -11.104 -38.933  0.00  0.00    +0.000 OA
ATOM     24  H9  UNL     1      26.230  -8.270 -39.040  0.00  0.00    +0.000 HD
BRANCH  21  25
ATOM     25  N2  UNL     1      26.055  -9.670 -40.608  0.00  0.00    +0.000 N 
ATOM     26  H8  UNL     1      25.643 -10.621 -40.736  0.00  0.00    +0.000 HD
BRANCH  25  27
ATOM     27  C7  UNL     1      26.412  -8.926 -41.784  0.00  0.00    +0.000 C 
ATOM     28  S1  UNL     1      25.346  -8.772 -43.029  0.00  0.00    +0.000 S 
BRANCH  27  29
ATOM     29  N1  UNL     1      27.730  -8.362 -41.871  0.00  0.00    +0.000 N 
ATOM     30  H7  UNL     1      27.808  -7.320 -41.860  0.00  0.00    +0.000 HD
BRANCH  29  35
ATOM     31  C2  UNL     1      31.131  -9.637 -40.959  0.00  0.00    +0.000 A 
ATOM     32  C3  UNL     1      31.372 -10.537 -42.014  0.00  0.00    +0.000 A 
ATOM     33  C4  UNL     1      30.418 -10.715 -43.019  0.00  0.00    +0.000 A 
ATOM     34  C5  UNL     1      29.214 -10.007 -42.978  0.00  0.00    +0.000 A 
ATOM     35  C6  UNL     1      28.949  -9.125 -41.917  0.00  0.00    +0.000 A 
ATOM     36  C26 UNL     1      29.921  -8.931 -40.926  0.00  0.00    +0.000 A 
BRANCH  31  38
ATOM     37  C1  UNL     1      31.774  -9.561 -38.544  0.00  0.00    +0.000 C 
ATOM     38  O1  UNL     1      32.060  -9.415 -39.932  0.00  0.00    +0.000 OA
ENDBRANCH  31  38
ENDBRANCH  29  35
ENDBRANCH  27  29
ENDBRANCH  25  27
ENDBRANCH  21  25
ENDBRANCH   1  22
TORSDOF 7
ENDMDL
MODEL 7
REMARK VINA RESULT:    -7.229      3.043     10.402
REMARK INTER + INTRA:         -10.638
REMARK INTER:                  -9.472
REMARK INTRA:                  -1.167
REMARK UNBOUND:                -0.451
REMARK  Name = resultss/4CJN/ligands/lig_425_t0.pdb
REMARK  8 active torsions:
REMARK  status: ('A' for Active; 'I' for Inactive)
REMARK    1  A    between atoms: C1_1  and  O1_2
REMARK    2  A    between atoms: O1_2  and  C2_3
REMARK    3  A    between atoms: C6_7  and  N1_8
REMARK    4  A    between atoms: N1_8  and  C7_9
REMARK    5  A    between atoms: C7_9  and  N2_11
REMARK    6  A    between atoms: N2_11  and  N3_12
REMARK    7  A    between atoms: C8_13  and  C9_15
REMARK    8  A    between atoms: C19_26  and  C20_27
REMARK                            x       y       z     vdW  Elec       q    Type
REMARK                         _______ _______ _______ _____ _____    ______ ____
ROOT
ATOM      1  C9  UNL     1      28.663  -9.820 -39.564  0.00  0.00    +0.000 A 
ATOM      2  C10 UNL     1      27.793  -8.963 -40.272  0.00  0.00    +0.000 A 
ATOM      3  C11 UNL     1      28.071  -8.744 -41.616  0.00  0.00    +0.000 A 
ATOM      4  C12 UNL     1      29.142  -9.336 -42.249  0.00  0.00    +0.000 A 
ATOM      5  N4  UNL     1      29.244  -8.922 -43.535  0.00  0.00    +0.000 N 
ATOM      6  C13 UNL     1      28.208  -8.072 -43.707  0.00  0.00    +0.000 A 
ATOM      7  C14 UNL     1      27.882  -7.367 -44.865  0.00  0.00    +0.000 A 
ATOM      8  C15 UNL     1      26.764  -6.514 -44.824  0.00  0.00    +0.000 A 
ATOM      9  C16 UNL     1      26.006  -6.380 -43.639  0.00  0.00    +0.000 A 
ATOM     10  C17 UNL     1      26.357  -7.097 -42.481  0.00  0.00    +0.000 A 
ATOM     11  C18 UNL     1      27.465  -7.938 -42.554  0.00  0.00    +0.000 A 
ATOM     12  C19 UNL     1      29.988 -10.199 -41.540  0.00  0.00    +0.000 A 
ATOM     13  N5  UNL     1      29.721 -10.403 -40.215  0.00  0.00    +0.000 NA
ATOM     14  H11 UNL     1      29.977  -9.166 -44.237  0.00  0.00    +0.000 HD
ENDROOT
BRANCH  12  15
ATOM     15  C20 UNL     1      31.142 -10.884 -42.160  0.00  0.00    +0.000 A 
ATOM     16  C21 UNL     1      30.937 -12.046 -42.923  0.00  0.00    +0.000 A 
ATOM     17  C22 UNL     1      32.017 -12.688 -43.536  0.00  0.00    +0.000 A 
ATOM     18  C23 UNL     1      33.308 -12.169 -43.405  0.00  0.00    +0.000 A 
ATOM     19  C24 UNL     1      33.518 -11.001 -42.667  0.00  0.00    +0.000 A 
ATOM     20  C25 UNL     1      32.441 -10.355 -42.052  0.00  0.00    +0.000 A 
ENDBRANCH  12  15
BRANCH   1  22
ATOM     21  N3  UNL     1      29.208  -9.411 -37.129  0.00  0.00    +0.000 N 
ATOM     22  C8  UNL     1      28.446 -10.103 -38.130  0.00  0.00    +0.000 C 
ATOM     23  O2  UNL     1      27.576 -10.946 -37.780  0.00  0.00    +0.000 OA
ATOM     24  H9  UNL     1      29.669  -8.509 -37.382  0.00  0.00    +0.000 HD
BRANCH  21  25
ATOM     25  N2  UNL     1      29.118  -9.747 -35.766  0.00  0.00    +0.000 N 
ATOM     26  H8  UNL     1      29.582 -10.625 -35.441  0.00  0.00    +0.000 HD
BRANCH  25  27
ATOM     27  C7  UNL     1      28.265  -9.054 -34.842  0.00  0.00    +0.000 C 
ATOM     28  S1  UNL     1      28.689  -7.571 -34.266  0.00  0.00    +0.000 S 
BRANCH  27  29
ATOM     29  N1  UNL     1      27.062  -9.699 -34.395  0.00  0.00    +0.000 N 
ATOM     30  H7  UNL     1      27.164 -10.615 -33.902  0.00  0.00    +0.000 HD
BRANCH  29  35
ATOM     31  C2  UNL     1      24.105  -7.940 -35.872  0.00  0.00    +0.000 A 
ATOM     32  C3  UNL     1      23.192  -8.004 -34.803  0.00  0.00    +0.000 A 
ATOM     33  C4  UNL     1      23.557  -8.621 -33.604  0.00  0.00    +0.000 A 
ATOM     34  C5  UNL     1      24.826  -9.186 -33.461  0.00  0.00    +0.000 A 
ATOM     35  C6  UNL     1      25.739  -9.152 -34.529  0.00  0.00    +0.000 A 
ATOM     36  C26 UNL     1      25.376  -8.509 -35.721  0.00  0.00    +0.000 A 
BRANCH  31  38
ATOM     37  C1  UNL     1      24.568  -6.292 -37.695  0.00  0.00    +0.000 C 
ATOM     38  O1  UNL     1      23.792  -7.324 -37.093  0.00  0.00    +0.000 OA
ENDBRANCH  31  38
ENDBRANCH  29  35
ENDBRANCH  27  29
ENDBRANCH  25  27
ENDBRANCH  21  25
ENDBRANCH   1  22
TORSDOF 7
ENDMDL
MODEL 8
REMARK VINA RESULT:    -7.106      3.258      4.519
REMARK INTER + INTRA:         -10.465
REMARK INTER:                  -8.979
REMARK INTRA:                  -1.486
REMARK UNBOUND:                -0.451
REMARK  Name = resultss/4CJN/ligands/lig_425_t0.pdb
REMARK  8 active torsions:
REMARK  status: ('A' for Active; 'I' for Inactive)
REMARK    1  A    between atoms: C1_1  and  O1_2
REMARK    2  A    between atoms: O1_2  and  C2_3
REMARK    3  A    between atoms: C6_7  and  N1_8
REMARK    4  A    between atoms: N1_8  and  C7_9
REMARK    5  A    between atoms: C7_9  and  N2_11
REMARK    6  A    between atoms: N2_11  and  N3_12
REMARK    7  A    between atoms: C8_13  and  C9_15
REMARK    8  A    between atoms: C19_26  and  C20_27
REMARK                            x       y       z     vdW  Elec       q    Type
REMARK                         _______ _______ _______ _____ _____    ______ ____
ROOT
ATOM      1  C9  UNL     1      25.357  -8.363 -38.884  0.00  0.00    +0.000 A 
ATOM      2  C10 UNL     1      26.724  -8.700 -38.981  0.00  0.00    +0.000 A 
ATOM      3  C11 UNL     1      27.406  -8.939 -37.794  0.00  0.00    +0.000 A 
ATOM      4  C12 UNL     1      26.788  -8.863 -36.565  0.00  0.00    +0.000 A 
ATOM      5  N4  UNL     1      27.668  -9.072 -35.557  0.00  0.00    +0.000 N 
ATOM      6  C13 UNL     1      28.849  -9.301 -36.172  0.00  0.00    +0.000 A 
ATOM      7  C14 UNL     1      30.077  -9.560 -35.566  0.00  0.00    +0.000 A 
ATOM      8  C15 UNL     1      31.195  -9.752 -36.398  0.00  0.00    +0.000 A 
ATOM      9  C16 UNL     1      31.066  -9.677 -37.803  0.00  0.00    +0.000 A 
ATOM     10  C17 UNL     1      29.818  -9.408 -38.393  0.00  0.00    +0.000 A 
ATOM     11  C18 UNL     1      28.728  -9.229 -37.544  0.00  0.00    +0.000 A 
ATOM     12  C19 UNL     1      25.425  -8.545 -36.482  0.00  0.00    +0.000 A 
ATOM     13  N5  UNL     1      24.759  -8.297 -37.650  0.00  0.00    +0.000 NA
ATOM     14  H11 UNL     1      27.496  -9.032 -34.528  0.00  0.00    +0.000 HD
ENDROOT
BRANCH  12  15
ATOM     15  C20 UNL     1      24.694  -8.465 -35.201  0.00  0.00    +0.000 A 
ATOM     16  C21 UNL     1      23.560  -7.642 -35.093  0.00  0.00    +0.000 A 
ATOM     17  C22 UNL     1      22.845  -7.578 -33.894  0.00  0.00    +0.000 A 
ATOM     18  C23 UNL     1      23.245  -8.345 -32.797  0.00  0.00    +0.000 A 
ATOM     19  C24 UNL     1      24.358  -9.184 -32.901  0.00  0.00    +0.000 A 
ATOM     20  C25 UNL     1      25.077  -9.251 -34.099  0.00  0.00    +0.000 A 
ENDBRANCH  12  15
BRANCH   1  22
ATOM     21  N3  UNL     1      23.914  -9.156 -40.803  0.00  0.00    +0.000 N 
ATOM     22  C8  UNL     1      24.557  -8.085 -40.095  0.00  0.00    +0.000 C 
ATOM     23  O2  UNL     1      24.424  -6.899 -40.503  0.00  0.00    +0.000 OA
ATOM     24  H9  UNL     1      23.745 -10.059 -40.305  0.00  0.00    +0.000 HD
BRANCH  21  25
ATOM     25  N2  UNL     1      23.255  -8.944 -42.027  0.00  0.00    +0.000 N 
ATOM     26  H8  UNL     1      22.249  -9.217 -42.103  0.00  0.00    +0.000 HD
BRANCH  25  27
ATOM     27  C7  UNL     1      23.939  -8.556 -43.228  0.00  0.00    +0.000 C 
ATOM     28  S1  UNL     1      23.315  -7.385 -44.203  0.00  0.00    +0.000 S 
BRANCH  27  29
ATOM     29  N1  UNL     1      25.151  -9.240 -43.585  0.00  0.00    +0.000 N 
ATOM     30  H7  UNL     1      25.073 -10.030 -44.265  0.00  0.00    +0.000 HD
BRANCH  29  35
ATOM     31  C2  UNL     1      28.608  -9.575 -42.187  0.00  0.00    +0.000 A 
ATOM     32  C3  UNL     1      29.005  -8.226 -42.126  0.00  0.00    +0.000 A 
ATOM     33  C4  UNL     1      28.133  -7.217 -42.540  0.00  0.00    +0.000 A 
ATOM     34  C5  UNL     1      26.864  -7.541 -43.026  0.00  0.00    +0.000 A 
ATOM     35  C6  UNL     1      26.463  -8.885 -43.118  0.00  0.00    +0.000 A 
ATOM     36  C26 UNL     1      27.334  -9.891 -42.676  0.00  0.00    +0.000 A 
BRANCH  31  38
ATOM     37  C1  UNL     1      30.863 -10.606 -41.863  0.00  0.00    +0.000 C 
ATOM     38  O1  UNL     1      29.442 -10.625 -41.775  0.00  0.00    +0.000 OA
ENDBRANCH  31  38
ENDBRANCH  29  35
ENDBRANCH  27  29
ENDBRANCH  25  27
ENDBRANCH  21  25
ENDBRANCH   1  22
TORSDOF 7
ENDMDL
MODEL 9
REMARK VINA RESULT:    -7.049      2.781      4.998
REMARK INTER + INTRA:         -10.385
REMARK INTER:                  -9.365
REMARK INTRA:                  -1.019
REMARK UNBOUND:                -0.451
REMARK  Name = resultss/4CJN/ligands/lig_425_t0.pdb
REMARK  8 active torsions:
REMARK  status: ('A' for Active; 'I' for Inactive)
REMARK    1  A    between atoms: C1_1  and  O1_2
REMARK    2  A    between atoms: O1_2  and  C2_3
REMARK    3  A    between atoms: C6_7  and  N1_8
REMARK    4  A    between atoms: N1_8  and  C7_9
REMARK    5  A    between atoms: C7_9  and  N2_11
REMARK    6  A    between atoms: N2_11  and  N3_12
REMARK    7  A    between atoms: C8_13  and  C9_15
REMARK    8  A    between atoms: C19_26  and  C20_27
REMARK                            x       y       z     vdW  Elec       q    Type
REMARK                         _______ _______ _______ _____ _____    ______ ____
ROOT
ATOM      1  C9  UNL     1      28.036  -9.239 -37.292  0.00  0.00    +0.000 A 
ATOM      2  C10 UNL     1      27.306  -9.200 -36.084  0.00  0.00    +0.000 A 
ATOM      3  C11 UNL     1      25.971  -8.820 -36.160  0.00  0.00    +0.000 A 
ATOM      4  C12 UNL     1      25.367  -8.500 -37.356  0.00  0.00    +0.000 A 
ATOM      5  N4  UNL     1      24.087  -8.100 -37.169  0.00  0.00    +0.000 N 
ATOM      6  C13 UNL     1      23.888  -8.192 -35.836  0.00  0.00    +0.000 A 
ATOM      7  C14 UNL     1      22.723  -7.879 -35.136  0.00  0.00    +0.000 A 
ATOM      8  C15 UNL     1      22.735  -8.030 -33.737  0.00  0.00    +0.000 A 
ATOM      9  C16 UNL     1      23.899  -8.480 -33.073  0.00  0.00    +0.000 A 
ATOM     10  C17 UNL     1      25.064  -8.784 -33.800  0.00  0.00    +0.000 A 
ATOM     11  C18 UNL     1      25.020  -8.631 -35.184  0.00  0.00    +0.000 A 
ATOM     12  C19 UNL     1      26.098  -8.560 -38.551  0.00  0.00    +0.000 A 
ATOM     13  N5  UNL     1      27.414  -8.921 -38.473  0.00  0.00    +0.000 NA
ATOM     14  H11 UNL     1      23.405  -7.757 -37.881  0.00  0.00    +0.000 HD
ENDROOT
BRANCH  12  15
ATOM     15  C20 UNL     1      25.509  -8.249 -39.871  0.00  0.00    +0.000 A 
ATOM     16  C21 UNL     1      25.875  -7.069 -40.538  0.00  0.00    +0.000 A 
ATOM     17  C22 UNL     1      25.345  -6.776 -41.798  0.00  0.00    +0.000 A 
ATOM     18  C23 UNL     1      24.456  -7.665 -42.409  0.00  0.00    +0.000 A 
ATOM     19  C24 UNL     1      24.103  -8.853 -41.762  0.00  0.00    +0.000 A 
ATOM     20  C25 UNL     1      24.631  -9.149 -40.501  0.00  0.00    +0.000 A 
ENDBRANCH  12  15
BRANCH   1  22
ATOM     21  N3  UNL     1      30.147  -9.843 -38.546  0.00  0.00    +0.000 N 
ATOM     22  C8  UNL     1      29.463  -9.626 -37.303  0.00  0.00    +0.000 C 
ATOM     23  O2  UNL     1      30.089  -9.751 -36.215  0.00  0.00    +0.000 OA
ATOM     24  H9  UNL     1      29.748  -9.432 -39.419  0.00  0.00    +0.000 HD
BRANCH  21  25
ATOM     25  N2  UNL     1      31.464 -10.335 -38.590  0.00  0.00    +0.000 N 
ATOM     26  H8  UNL     1      31.671 -11.241 -38.112  0.00  0.00    +0.000 HD
BRANCH  25  27
ATOM     27  C7  UNL     1      32.571  -9.567 -39.086  0.00  0.00    +0.000 C 
ATOM     28  S1  UNL     1      33.716  -8.990 -38.054  0.00  0.00    +0.000 S 
BRANCH  27  29
ATOM     29  N1  UNL     1      32.633  -9.273 -40.491  0.00  0.00    +0.000 N 
ATOM     30  H7  UNL     1      32.986  -8.330 -40.769  0.00  0.00    +0.000 HD
BRANCH  29  35
ATOM     31  C2  UNL     1      33.025 -11.821 -43.207  0.00  0.00    +0.000 A 
ATOM     32  C3  UNL     1      31.693 -11.959 -43.641  0.00  0.00    +0.000 A 
ATOM     33  C4  UNL     1      30.678 -11.210 -43.042  0.00  0.00    +0.000 A 
ATOM     34  C5  UNL     1      30.977 -10.327 -42.001  0.00  0.00    +0.000 A 
ATOM     35  C6  UNL     1      32.297 -10.199 -41.539  0.00  0.00    +0.000 A 
ATOM     36  C26 UNL     1      33.316 -10.933 -42.162  0.00  0.00    +0.000 A 
BRANCH  31  38
ATOM     37  C1  UNL     1      33.980 -13.302 -44.981  0.00  0.00    +0.000 C 
ATOM     38  O1  UNL     1      34.082 -12.542 -43.781  0.00  0.00    +0.000 OA
ENDBRANCH  31  38
ENDBRANCH  29  35
ENDBRANCH  27  29
ENDBRANCH  25  27
ENDBRANCH  21  25
ENDBRANCH   1  22
TORSDOF 7
ENDMDL
