MODEL 1
REMARK VINA RESULT:    -5.665      0.000      0.000
REMARK INTER + INTRA:          -6.551
REMARK INTER:                  -6.493
REMARK INTRA:                  -0.058
REMARK UNBOUND:                -0.058
REMARK  Name = resultss/4CJN/ligands/lig_288_t0.pdb
REMARK  5 active torsions:
REMARK  status: ('A' for Active; 'I' for Inactive)
REMARK    1  A    between atoms: C1_1  and  O1_2
REMARK    2  A    between atoms: O1_2  and  C2_3
REMARK    3  A    between atoms: C8_10  and  O3_11
REMARK    4  A    between atoms: C10_13  and  O4_14
REMARK    5  A    between atoms: C14_19  and  O6_20
REMARK                            x       y       z     vdW  Elec       q    Type
REMARK                         _______ _______ _______ _____ _____    ______ ____
ROOT
ATOM      1  C2  UNL     1      28.594  -9.818 -38.368  0.00  0.00    +0.000 A 
ATOM      2  C3  UNL     1      29.258 -10.056 -37.155  0.00  0.00    +0.000 A 
ATOM      3  C4  UNL     1      28.589  -9.903 -35.946  0.00  0.00    +0.000 A 
ATOM      4  C5  UNL     1      27.266  -9.466 -35.920  0.00  0.00    +0.000 A 
ATOM      5  O2  UNL     1      26.673  -9.325 -34.744  0.00  0.00    +0.000 OA
ATOM      6  C6  UNL     1      25.436  -8.874 -34.603  0.00  0.00    +0.000 A 
ATOM      7  C7  UNL     1      24.895  -8.811 -33.317  0.00  0.00    +0.000 A 
ATOM      8  C8  UNL     1      23.595  -8.348 -33.118  0.00  0.00    +0.000 A 
ATOM      9  C9  UNL     1      22.842  -7.915 -34.207  0.00  0.00    +0.000 A 
ATOM     10  C10 UNL     1      23.371  -7.928 -35.504  0.00  0.00    +0.000 A 
ATOM     11  C11 UNL     1      24.679  -8.463 -35.729  0.00  0.00    +0.000 A 
ATOM     12  C12 UNL     1      25.266  -8.642 -37.009  0.00  0.00    +0.000 A 
ATOM     13  O5  UNL     1      24.630  -8.318 -38.042  0.00  0.00    +0.000 OA
ATOM     14  C13 UNL     1      26.575  -9.180 -37.122  0.00  0.00    +0.000 A 
ATOM     15  C14 UNL     1      27.246  -9.418 -38.363  0.00  0.00    +0.000 A 
ENDROOT
BRANCH   1  17
ATOM     16  C1  UNL     1      30.618  -9.766 -39.842  0.00  0.00    +0.000 C 
ATOM     17  O1  UNL     1      29.232  -9.991 -39.607  0.00  0.00    +0.000 OA
ENDBRANCH   1  17
BRANCH   8  18
ATOM     18  O3  UNL     1      23.044  -8.304 -31.840  0.00  0.00    +0.000 OA
ATOM     19  H7  UNL     1      22.997  -9.129 -31.253  0.00  0.00    +0.000 HD
ENDBRANCH   8  18
BRANCH  10  20
ATOM     20  O4  UNL     1      22.562  -7.381 -36.505  0.00  0.00    +0.000 OA
ATOM     21  H9  UNL     1      22.838  -7.253 -37.467  0.00  0.00    +0.000 HD
ENDBRANCH  10  20
BRANCH  15  22
ATOM     22  O6  UNL     1      26.628  -9.300 -39.611  0.00  0.00    +0.000 OA
ATOM     23  H10 UNL     1      25.690  -8.956 -39.758  0.00  0.00    +0.000 HD
ENDBRANCH  15  22
TORSDOF 4
ENDMDL
MODEL 2
REMARK VINA RESULT:    -5.334      2.428      4.078
REMARK INTER + INTRA:          -6.171
REMARK INTER:                  -6.108
REMARK INTRA:                  -0.063
REMARK UNBOUND:                -0.058
REMARK  Name = resultss/4CJN/ligands/lig_288_t0.pdb
REMARK  5 active torsions:
REMARK  status: ('A' for Active; 'I' for Inactive)
REMARK    1  A    between atoms: C1_1  and  O1_2
REMARK    2  A    between atoms: O1_2  and  C2_3
REMARK    3  A    between atoms: C8_10  and  O3_11
REMARK    4  A    between atoms: C10_13  and  O4_14
REMARK    5  A    between atoms: C14_19  and  O6_20
REMARK                            x       y       z     vdW  Elec       q    Type
REMARK                         _______ _______ _______ _____ _____    ______ ____
ROOT
ATOM      1  C2  UNL     1      26.176  -9.409 -41.764  0.00  0.00    +0.000 A 
ATOM      2  C3  UNL     1      27.554  -9.668 -41.803  0.00  0.00    +0.000 A 
ATOM      3  C4  UNL     1      28.268  -9.843 -40.623  0.00  0.00    +0.000 A 
ATOM      4  C5  UNL     1      27.637  -9.717 -39.387  0.00  0.00    +0.000 A 
ATOM      5  O2  UNL     1      28.360  -9.882 -38.290  0.00  0.00    +0.000 OA
ATOM      6  C6  UNL     1      27.871  -9.740 -37.068  0.00  0.00    +0.000 A 
ATOM      7  C7  UNL     1      28.716  -9.985 -35.983  0.00  0.00    +0.000 A 
ATOM      8  C8  UNL     1      28.245  -9.854 -34.677  0.00  0.00    +0.000 A 
ATOM      9  C9  UNL     1      26.932  -9.444 -34.454  0.00  0.00    +0.000 A 
ATOM     10  C10 UNL     1      26.074  -9.152 -35.521  0.00  0.00    +0.000 A 
ATOM     11  C11 UNL     1      26.524  -9.347 -36.865  0.00  0.00    +0.000 A 
ATOM     12  C12 UNL     1      25.707  -9.204 -38.017  0.00  0.00    +0.000 A 
ATOM     13  O5  UNL     1      24.500  -8.882 -37.894  0.00  0.00    +0.000 OA
ATOM     14  C13 UNL     1      26.255  -9.418 -39.310  0.00  0.00    +0.000 A 
ATOM     15  C14 UNL     1      25.512  -9.320 -40.528  0.00  0.00    +0.000 A 
ENDROOT
BRANCH   1  17
ATOM     16  C1  UNL     1      25.328  -8.049 -43.689  0.00  0.00    +0.000 C 
ATOM     17  O1  UNL     1      25.419  -9.255 -42.938  0.00  0.00    +0.000 OA
ENDBRANCH   1  17
BRANCH   8  18
ATOM     18  O3  UNL     1      29.076 -10.118 -33.591  0.00  0.00    +0.000 OA
ATOM     19  H7  UNL     1      29.952 -10.616 -33.704  0.00  0.00    +0.000 HD
ENDBRANCH   8  18
BRANCH  10  20
ATOM     20  O4  UNL     1      24.811  -8.656 -35.179  0.00  0.00    +0.000 OA
ATOM     21  H9  UNL     1      24.544  -8.337 -34.260  0.00  0.00    +0.000 HD
ENDBRANCH  10  20
BRANCH  15  22
ATOM     22  O6  UNL     1      24.124  -9.162 -40.577  0.00  0.00    +0.000 OA
ATOM     23  H10 UNL     1      23.465  -9.708 -40.043  0.00  0.00    +0.000 HD
ENDBRANCH  15  22
TORSDOF 4
ENDMDL
MODEL 3
REMARK VINA RESULT:    -5.240      1.891      6.581
REMARK INTER + INTRA:          -6.064
REMARK INTER:                  -5.998
REMARK INTRA:                  -0.066
REMARK UNBOUND:                -0.058
REMARK  Name = resultss/4CJN/ligands/lig_288_t0.pdb
REMARK  5 active torsions:
REMARK  status: ('A' for Active; 'I' for Inactive)
REMARK    1  A    between atoms: C1_1  and  O1_2
REMARK    2  A    between atoms: O1_2  and  C2_3
REMARK    3  A    between atoms: C8_10  and  O3_11
REMARK    4  A    between atoms: C10_13  and  O4_14
REMARK    5  A    between atoms: C14_19  and  O6_20
REMARK                            x       y       z     vdW  Elec       q    Type
REMARK                         _______ _______ _______ _____ _____    ______ ____
ROOT
ATOM      1  C2  UNL     1      24.775  -8.536 -34.750  0.00  0.00    +0.000 A 
ATOM      2  C3  UNL     1      23.892  -7.718 -35.470  0.00  0.00    +0.000 A 
ATOM      3  C4  UNL     1      23.979  -7.639 -36.855  0.00  0.00    +0.000 A 
ATOM      4  C5  UNL     1      24.974  -8.332 -37.542  0.00  0.00    +0.000 A 
ATOM      5  O2  UNL     1      25.025  -8.218 -38.861  0.00  0.00    +0.000 OA
ATOM      6  C6  UNL     1      25.955  -8.797 -39.605  0.00  0.00    +0.000 A 
ATOM      7  C7  UNL     1      25.883  -8.645 -40.992  0.00  0.00    +0.000 A 
ATOM      8  C8  UNL     1      26.836  -9.240 -41.819  0.00  0.00    +0.000 A 
ATOM      9  C9  UNL     1      27.886  -9.962 -41.255  0.00  0.00    +0.000 A 
ATOM     10  C10 UNL     1      28.007 -10.096 -39.866  0.00  0.00    +0.000 A 
ATOM     11  C11 UNL     1      26.999  -9.548 -39.011  0.00  0.00    +0.000 A 
ATOM     12  C12 UNL     1      26.951  -9.729 -37.604  0.00  0.00    +0.000 A 
ATOM     13  O5  UNL     1      27.837 -10.407 -37.028  0.00  0.00    +0.000 OA
ATOM     14  C13 UNL     1      25.907  -9.138 -36.845  0.00  0.00    +0.000 A 
ATOM     15  C14 UNL     1      25.758  -9.276 -35.429  0.00  0.00    +0.000 A 
ENDROOT
BRANCH   1  17
ATOM     16  C1  UNL     1      23.495  -8.913 -32.630  0.00  0.00    +0.000 C 
ATOM     17  O1  UNL     1      24.695  -8.661 -33.353  0.00  0.00    +0.000 OA
ENDBRANCH   1  17
BRANCH   8  18
ATOM     18  O3  UNL     1      26.756  -9.111 -43.203  0.00  0.00    +0.000 OA
ATOM     19  H7  UNL     1      27.466  -8.615 -43.731  0.00  0.00    +0.000 HD
ENDBRANCH   8  18
BRANCH  10  20
ATOM     20  O4  UNL     1      29.151 -10.759 -39.408  0.00  0.00    +0.000 OA
ATOM     21  H9  UNL     1      30.095 -10.548 -39.694  0.00  0.00    +0.000 HD
ENDBRANCH  10  20
BRANCH  15  22
ATOM     22  O6  UNL     1      26.531 -10.145 -34.652  0.00  0.00    +0.000 OA
ATOM     23  H10 UNL     1      27.230 -10.774 -35.017  0.00  0.00    +0.000 HD
ENDBRANCH  15  22
TORSDOF 4
ENDMDL
MODEL 4
REMARK VINA RESULT:    -5.227      1.335      6.027
REMARK INTER + INTRA:          -6.048
REMARK INTER:                  -6.014
REMARK INTRA:                  -0.034
REMARK UNBOUND:                -0.058
REMARK  Name = resultss/4CJN/ligands/lig_288_t0.pdb
REMARK  5 active torsions:
REMARK  status: ('A' for Active; 'I' for Inactive)
REMARK    1  A    between atoms: C1_1  and  O1_2
REMARK    2  A    between atoms: O1_2  and  C2_3
REMARK    3  A    between atoms: C8_10  and  O3_11
REMARK    4  A    between atoms: C10_13  and  O4_14
REMARK    5  A    between atoms: C14_19  and  O6_20
REMARK                            x       y       z     vdW  Elec       q    Type
REMARK                         _______ _______ _______ _____ _____    ______ ____
ROOT
ATOM      1  C2  UNL     1      24.110  -8.434 -34.360  0.00  0.00    +0.000 A 
ATOM      2  C3  UNL     1      25.040  -9.311 -33.781  0.00  0.00    +0.000 A 
ATOM      3  C4  UNL     1      26.089  -9.821 -34.537  0.00  0.00    +0.000 A 
ATOM      4  C5  UNL     1      26.203  -9.509 -35.890  0.00  0.00    +0.000 A 
ATOM      5  O2  UNL     1      27.213 -10.027 -36.573  0.00  0.00    +0.000 OA
ATOM      6  C6  UNL     1      27.390  -9.832 -37.870  0.00  0.00    +0.000 A 
ATOM      7  C7  UNL     1      28.518 -10.390 -38.477  0.00  0.00    +0.000 A 
ATOM      8  C8  UNL     1      28.750 -10.208 -39.840  0.00  0.00    +0.000 A 
ATOM      9  C9  UNL     1      27.833  -9.493 -40.608  0.00  0.00    +0.000 A 
ATOM     10  C10 UNL     1      26.673  -8.956 -40.036  0.00  0.00    +0.000 A 
ATOM     11  C11 UNL     1      26.457  -9.079 -38.626  0.00  0.00    +0.000 A 
ATOM     12  C12 UNL     1      25.386  -8.471 -37.920  0.00  0.00    +0.000 A 
ATOM     13  O5  UNL     1      24.545  -7.771 -38.536  0.00  0.00    +0.000 OA
ATOM     14  C13 UNL     1      25.261  -8.658 -36.518  0.00  0.00    +0.000 A 
ATOM     15  C14 UNL     1      24.233  -8.074 -35.713  0.00  0.00    +0.000 A 
ENDROOT
BRANCH   1  17
ATOM     16  C1  UNL     1      23.163  -6.712 -32.807  0.00  0.00    +0.000 C 
ATOM     17  O1  UNL     1      23.055  -7.878 -33.617  0.00  0.00    +0.000 OA
ENDBRANCH   1  17
BRANCH   8  18
ATOM     18  O3  UNL     1      29.884 -10.743 -40.446  0.00  0.00    +0.000 OA
ATOM     19  H7  UNL     1      29.841 -11.179 -41.360  0.00  0.00    +0.000 HD
ENDBRANCH   8  18
BRANCH  10  20
ATOM     20  O4  UNL     1      25.778  -8.342 -40.917  0.00  0.00    +0.000 OA
ATOM     21  H9  UNL     1      25.017  -8.808 -41.388  0.00  0.00    +0.000 HD
ENDBRANCH  10  20
BRANCH  15  22
ATOM     22  O6  UNL     1      23.329  -7.119 -36.187  0.00  0.00    +0.000 OA
ATOM     23  H10 UNL     1      23.585  -6.202 -36.522  0.00  0.00    +0.000 HD
ENDBRANCH  15  22
TORSDOF 4
ENDMDL
MODEL 5
REMARK VINA RESULT:    -5.142      2.920      6.039
REMARK INTER + INTRA:          -5.951
REMARK INTER:                  -5.896
REMARK INTRA:                  -0.055
REMARK UNBOUND:                -0.058
REMARK  Name = resultss/4CJN/ligands/lig_288_t0.pdb
REMARK  5 active torsions:
REMARK  status: ('A' for Active; 'I' for Inactive)
REMARK    1  A    between atoms: C1_1  and  O1_2
REMARK    2  A    between atoms: O1_2  and  C2_3
REMARK    3  A    between atoms: C8_10  and  O3_11
REMARK    4  A    between atoms: C10_13  and  O4_14
REMARK    5  A    between atoms: C14_19  and  O6_20
REMARK                            x       y       z     vdW  Elec       q    Type
REMARK                         _______ _______ _______ _____ _____    ______ ____
ROOT
ATOM      1  C2  UNL     1      27.738  -9.712 -36.231  0.00  0.00    +0.000 A 
ATOM      2  C3  UNL     1      26.512  -9.147 -35.849  0.00  0.00    +0.000 A 
ATOM      3  C4  UNL     1      25.542  -8.864 -36.804  0.00  0.00    +0.000 A 
ATOM      4  C5  UNL     1      25.792  -9.091 -38.156  0.00  0.00    +0.000 A 
ATOM      5  O2  UNL     1      24.842  -8.796 -39.030  0.00  0.00    +0.000 OA
ATOM      6  C6  UNL     1      24.990  -8.930 -40.339  0.00  0.00    +0.000 A 
ATOM      7  C7  UNL     1      23.903  -8.632 -41.164  0.00  0.00    +0.000 A 
ATOM      8  C8  UNL     1      24.010  -8.763 -42.549  0.00  0.00    +0.000 A 
ATOM      9  C9  UNL     1      25.219  -9.161 -43.114  0.00  0.00    +0.000 A 
ATOM     10  C10 UNL     1      26.339  -9.427 -42.315  0.00  0.00    +0.000 A 
ATOM     11  C11 UNL     1      26.223  -9.361 -40.891  0.00  0.00    +0.000 A 
ATOM     12  C12 UNL     1      27.249  -9.729 -39.982  0.00  0.00    +0.000 A 
ATOM     13  O5  UNL     1      28.353 -10.143 -40.415  0.00  0.00    +0.000 OA
ATOM     14  C13 UNL     1      27.033  -9.623 -38.582  0.00  0.00    +0.000 A 
ATOM     15  C14 UNL     1      27.993  -9.987 -37.586  0.00  0.00    +0.000 A 
ENDROOT
BRANCH   1  17
ATOM     16  C1  UNL     1      28.735  -9.593 -33.936  0.00  0.00    +0.000 C 
ATOM     17  O1  UNL     1      28.728 -10.036 -35.290  0.00  0.00    +0.000 OA
ENDBRANCH   1  17
BRANCH   8  18
ATOM     18  O3  UNL     1      22.922  -8.488 -43.374  0.00  0.00    +0.000 OA
ATOM     19  H7  UNL     1      21.977  -8.446 -43.010  0.00  0.00    +0.000 HD
ENDBRANCH   8  18
BRANCH  10  20
ATOM     20  O4  UNL     1      27.524  -9.724 -42.995  0.00  0.00    +0.000 OA
ATOM     21  H9  UNL     1      27.944 -10.639 -43.053  0.00  0.00    +0.000 HD
ENDBRANCH  10  20
BRANCH  15  22
ATOM     22  O6  UNL     1      29.194 -10.642 -37.873  0.00  0.00    +0.000 OA
ATOM     23  H10 UNL     1      29.815 -10.397 -38.630  0.00  0.00    +0.000 HD
ENDBRANCH  15  22
TORSDOF 4
ENDMDL
MODEL 6
REMARK VINA RESULT:    -5.108      2.011      6.544
REMARK INTER + INTRA:          -5.912
REMARK INTER:                  -5.856
REMARK INTRA:                  -0.056
REMARK UNBOUND:                -0.058
REMARK  Name = resultss/4CJN/ligands/lig_288_t0.pdb
REMARK  5 active torsions:
REMARK  status: ('A' for Active; 'I' for Inactive)
REMARK    1  A    between atoms: C1_1  and  O1_2
REMARK    2  A    between atoms: O1_2  and  C2_3
REMARK    3  A    between atoms: C8_10  and  O3_11
REMARK    4  A    between atoms: C10_13  and  O4_14
REMARK    5  A    between atoms: C14_19  and  O6_20
REMARK                            x       y       z     vdW  Elec       q    Type
REMARK                         _______ _______ _______ _____ _____    ______ ____
ROOT
ATOM      1  C2  UNL     1      25.786  -9.026 -35.789  0.00  0.00    +0.000 A 
ATOM      2  C3  UNL     1      27.025  -9.566 -35.414  0.00  0.00    +0.000 A 
ATOM      3  C4  UNL     1      27.975  -9.881 -36.379  0.00  0.00    +0.000 A 
ATOM      4  C5  UNL     1      27.693  -9.710 -37.733  0.00  0.00    +0.000 A 
ATOM      5  O2  UNL     1      28.624 -10.034 -38.616  0.00  0.00    +0.000 OA
ATOM      6  C6  UNL     1      28.445  -9.954 -39.926  0.00  0.00    +0.000 A 
ATOM      7  C7  UNL     1      29.515 -10.278 -40.763  0.00  0.00    +0.000 A 
ATOM      8  C8  UNL     1      29.375 -10.203 -42.149  0.00  0.00    +0.000 A 
ATOM      9  C9  UNL     1      28.150  -9.837 -42.701  0.00  0.00    +0.000 A 
ATOM     10  C10 UNL     1      27.047  -9.546 -41.888  0.00  0.00    +0.000 A 
ATOM     11  C11 UNL     1      27.196  -9.553 -40.465  0.00  0.00    +0.000 A 
ATOM     12  C12 UNL     1      26.189  -9.156 -39.548  0.00  0.00    +0.000 A 
ATOM     13  O5  UNL     1      25.072  -8.767 -39.972  0.00  0.00    +0.000 OA
ATOM     14  C13 UNL     1      26.438  -9.204 -38.151  0.00  0.00    +0.000 A 
ATOM     15  C14 UNL     1      25.499  -8.807 -37.148  0.00  0.00    +0.000 A 
ENDROOT
BRANCH   1  17
ATOM     16  C1  UNL     1      24.719  -9.229 -33.532  0.00  0.00    +0.000 C 
ATOM     17  O1  UNL     1      24.815  -8.670 -34.839  0.00  0.00    +0.000 OA
ENDBRANCH   1  17
BRANCH   8  18
ATOM     18  O3  UNL     1      30.446 -10.503 -42.988  0.00  0.00    +0.000 OA
ATOM     19  H7  UNL     1      31.206  -9.848 -43.133  0.00  0.00    +0.000 HD
ENDBRANCH   8  18
BRANCH  10  20
ATOM     20  O4  UNL     1      25.844  -9.284 -42.551  0.00  0.00    +0.000 OA
ATOM     21  H9  UNL     1      25.162  -9.981 -42.809  0.00  0.00    +0.000 HD
ENDBRANCH  10  20
BRANCH  15  22
ATOM     22  O6  UNL     1      24.286  -8.173 -37.433  0.00  0.00    +0.000 OA
ATOM     23  H10 UNL     1      24.124  -7.179 -37.353  0.00  0.00    +0.000 HD
ENDBRANCH  15  22
TORSDOF 4
ENDMDL
MODEL 7
REMARK VINA RESULT:    -5.090      2.061      3.467
REMARK INTER + INTRA:          -5.891
REMARK INTER:                  -5.828
REMARK INTRA:                  -0.063
REMARK UNBOUND:                -0.058
REMARK  Name = resultss/4CJN/ligands/lig_288_t0.pdb
REMARK  5 active torsions:
REMARK  status: ('A' for Active; 'I' for Inactive)
REMARK    1  A    between atoms: C1_1  and  O1_2
REMARK    2  A    between atoms: O1_2  and  C2_3
REMARK    3  A    between atoms: C8_10  and  O3_11
REMARK    4  A    between atoms: C10_13  and  O4_14
REMARK    5  A    between atoms: C14_19  and  O6_20
REMARK                            x       y       z     vdW  Elec       q    Type
REMARK                         _______ _______ _______ _____ _____    ______ ____
ROOT
ATOM      1  C2  UNL     1      25.928  -7.719 -40.382  0.00  0.00    +0.000 A 
ATOM      2  C3  UNL     1      24.974  -6.693 -40.296  0.00  0.00    +0.000 A 
ATOM      3  C4  UNL     1      24.367  -6.399 -39.081  0.00  0.00    +0.000 A 
ATOM      4  C5  UNL     1      24.660  -7.148 -37.943  0.00  0.00    +0.000 A 
ATOM      5  O2  UNL     1      24.049  -6.837 -36.810  0.00  0.00    +0.000 OA
ATOM      6  C6  UNL     1      24.220  -7.511 -35.683  0.00  0.00    +0.000 A 
ATOM      7  C7  UNL     1      23.558  -7.064 -34.536  0.00  0.00    +0.000 A 
ATOM      8  C8  UNL     1      23.711  -7.737 -33.325  0.00  0.00    +0.000 A 
ATOM      9  C9  UNL     1      24.502  -8.883 -33.266  0.00  0.00    +0.000 A 
ATOM     10  C10 UNL     1      25.145  -9.378 -34.407  0.00  0.00    +0.000 A 
ATOM     11  C11 UNL     1      25.050  -8.659 -35.641  0.00  0.00    +0.000 A 
ATOM     12  C12 UNL     1      25.756  -8.995 -36.825  0.00  0.00    +0.000 A 
ATOM     13  O5  UNL     1      26.526  -9.987 -36.837  0.00  0.00    +0.000 OA
ATOM     14  C13 UNL     1      25.588  -8.215 -38.000  0.00  0.00    +0.000 A 
ATOM     15  C14 UNL     1      26.268  -8.458 -39.235  0.00  0.00    +0.000 A 
ENDROOT
BRANCH   1  17
ATOM     16  C1  UNL     1      25.923  -8.246 -42.830  0.00  0.00    +0.000 C 
ATOM     17  O1  UNL     1      26.581  -8.024 -41.587  0.00  0.00    +0.000 OA
ENDBRANCH   1  17
BRANCH   8  18
ATOM     18  O3  UNL     1      23.072  -7.283 -32.174  0.00  0.00    +0.000 OA
ATOM     19  H7  UNL     1      23.363  -6.432 -31.706  0.00  0.00    +0.000 HD
ENDBRANCH   8  18
BRANCH  10  20
ATOM     20  O4  UNL     1      25.833 -10.586 -34.253  0.00  0.00    +0.000 OA
ATOM     21  H9  UNL     1      26.685 -10.832 -34.732  0.00  0.00    +0.000 HD
ENDBRANCH  10  20
BRANCH  15  22
ATOM     22  O6  UNL     1      27.298  -9.392 -39.380  0.00  0.00    +0.000 OA
ATOM     23  H10 UNL     1      27.598  -9.785 -40.260  0.00  0.00    +0.000 HD
ENDBRANCH  15  22
TORSDOF 4
ENDMDL
MODEL 8
REMARK VINA RESULT:    -5.035      2.004      4.245
REMARK INTER + INTRA:          -5.829
REMARK INTER:                  -5.762
REMARK INTRA:                  -0.066
REMARK UNBOUND:                -0.058
REMARK  Name = resultss/4CJN/ligands/lig_288_t0.pdb
REMARK  5 active torsions:
REMARK  status: ('A' for Active; 'I' for Inactive)
REMARK    1  A    between atoms: C1_1  and  O1_2
REMARK    2  A    between atoms: O1_2  and  C2_3
REMARK    3  A    between atoms: C8_10  and  O3_11
REMARK    4  A    between atoms: C10_13  and  O4_14
REMARK    5  A    between atoms: C14_19  and  O6_20
REMARK                            x       y       z     vdW  Elec       q    Type
REMARK                         _______ _______ _______ _____ _____    ______ ____
ROOT
ATOM      1  C2  UNL     1      29.878 -10.135 -41.145  0.00  0.00    +0.000 A 
ATOM      2  C3  UNL     1      28.549 -10.057 -41.586  0.00  0.00    +0.000 A 
ATOM      3  C4  UNL     1      27.517  -9.859 -40.676  0.00  0.00    +0.000 A 
ATOM      4  C5  UNL     1      27.783  -9.783 -39.310  0.00  0.00    +0.000 A 
ATOM      5  O2  UNL     1      26.767  -9.604 -38.479  0.00  0.00    +0.000 OA
ATOM      6  C6  UNL     1      26.902  -9.563 -37.163  0.00  0.00    +0.000 A 
ATOM      7  C7  UNL     1      25.766  -9.322 -36.386  0.00  0.00    +0.000 A 
ATOM      8  C8  UNL     1      25.859  -9.264 -34.996  0.00  0.00    +0.000 A 
ATOM      9  C9  UNL     1      27.088  -9.482 -34.376  0.00  0.00    +0.000 A 
ATOM     10  C10 UNL     1      28.237  -9.766 -35.126  0.00  0.00    +0.000 A 
ATOM     11  C11 UNL     1      28.168  -9.761 -36.555  0.00  0.00    +0.000 A 
ATOM     12  C12 UNL     1      29.287  -9.911 -37.416  0.00  0.00    +0.000 A 
ATOM     13  O5  UNL     1      30.435 -10.064 -36.931  0.00  0.00    +0.000 OA
ATOM     14  C13 UNL     1      29.108  -9.895 -38.824  0.00  0.00    +0.000 A 
ATOM     15  C14 UNL     1      30.171 -10.018 -39.775  0.00  0.00    +0.000 A 
ENDROOT
BRANCH   1  17
ATOM     16  C1  UNL     1      31.066 -11.386 -42.961  0.00  0.00    +0.000 C 
ATOM     17  O1  UNL     1      30.946 -10.305 -42.040  0.00  0.00    +0.000 OA
ENDBRANCH   1  17
BRANCH   8  18
ATOM     18  O3  UNL     1      24.734  -9.003 -34.218  0.00  0.00    +0.000 OA
ATOM     19  H7  UNL     1      24.665  -9.327 -33.260  0.00  0.00    +0.000 HD
ENDBRANCH   8  18
BRANCH  10  20
ATOM     20  O4  UNL     1      29.392 -10.061 -34.395  0.00  0.00    +0.000 OA
ATOM     21  H9  UNL     1      29.529 -10.892 -33.840  0.00  0.00    +0.000 HD
ENDBRANCH  10  20
BRANCH  15  22
ATOM     22  O6  UNL     1      31.525 -10.003 -39.427  0.00  0.00    +0.000 OA
ATOM     23  H10 UNL     1      32.150  -9.226 -39.585  0.00  0.00    +0.000 HD
ENDBRANCH  15  22
TORSDOF 4
ENDMDL
MODEL 9
REMARK VINA RESULT:    -4.862      3.947      6.496
REMARK INTER + INTRA:          -5.630
REMARK INTER:                  -5.563
REMARK INTRA:                  -0.067
REMARK UNBOUND:                -0.058
REMARK  Name = resultss/4CJN/ligands/lig_288_t0.pdb
REMARK  5 active torsions:
REMARK  status: ('A' for Active; 'I' for Inactive)
REMARK    1  A    between atoms: C1_1  and  O1_2
REMARK    2  A    between atoms: O1_2  and  C2_3
REMARK    3  A    between atoms: C8_10  and  O3_11
REMARK    4  A    between atoms: C10_13  and  O4_14
REMARK    5  A    between atoms: C14_19  and  O6_20
REMARK                            x       y       z     vdW  Elec       q    Type
REMARK                         _______ _______ _______ _____ _____    ______ ____
ROOT
ATOM      1  C2  UNL     1      22.901  -7.852 -42.258  0.00  0.00    +0.000 A 
ATOM      2  C3  UNL     1      22.991  -6.684 -41.486  0.00  0.00    +0.000 A 
ATOM      3  C4  UNL     1      23.999  -6.545 -40.538  0.00  0.00    +0.000 A 
ATOM      4  C5  UNL     1      24.902  -7.581 -40.308  0.00  0.00    +0.000 A 
ATOM      5  O2  UNL     1      25.838  -7.408 -39.388  0.00  0.00    +0.000 OA
ATOM      6  C6  UNL     1      26.716  -8.342 -39.059  0.00  0.00    +0.000 A 
ATOM      7  C7  UNL     1      27.690  -8.032 -38.106  0.00  0.00    +0.000 A 
ATOM      8  C8  UNL     1      28.640  -8.981 -37.731  0.00  0.00    +0.000 A 
ATOM      9  C9  UNL     1      28.596 -10.259 -38.285  0.00  0.00    +0.000 A 
ATOM     10  C10 UNL     1      27.608 -10.612 -39.212  0.00  0.00    +0.000 A 
ATOM     11  C11 UNL     1      26.669  -9.628 -39.655  0.00  0.00    +0.000 A 
ATOM     12  C12 UNL     1      25.707  -9.835 -40.678  0.00  0.00    +0.000 A 
ATOM     13  O5  UNL     1      25.638 -10.947 -41.258  0.00  0.00    +0.000 OA
ATOM     14  C13 UNL     1      24.817  -8.790 -41.041  0.00  0.00    +0.000 A 
ATOM     15  C14 UNL     1      23.828  -8.891 -42.070  0.00  0.00    +0.000 A 
ENDROOT
BRANCH   1  17
ATOM     16  C1  UNL     1      21.616  -7.056 -44.256  0.00  0.00    +0.000 C 
ATOM     17  O1  UNL     1      21.913  -8.012 -43.243  0.00  0.00    +0.000 OA
ENDBRANCH   1  17
BRANCH   8  18
ATOM     18  O3  UNL     1      29.626  -8.670 -36.798  0.00  0.00    +0.000 OA
ATOM     19  H7  UNL     1      30.489  -8.214 -37.071  0.00  0.00    +0.000 HD
ENDBRANCH   8  18
BRANCH  10  20
ATOM     20  O4  UNL     1      27.602 -11.947 -39.628  0.00  0.00    +0.000 OA
ATOM     21  H9  UNL     1      28.426 -12.499 -39.815  0.00  0.00    +0.000 HD
ENDBRANCH  10  20
BRANCH  15  22
ATOM     22  O6  UNL     1      23.733  -9.976 -42.946  0.00  0.00    +0.000 OA
ATOM     23  H10 UNL     1      22.887 -10.262 -43.416  0.00  0.00    +0.000 HD
ENDBRANCH  15  22
TORSDOF 4
ENDMDL
