MODEL 1
REMARK VINA RESULT:    -3.930      0.000      0.000
REMARK INTER + INTRA:          -5.003
REMARK INTER:                  -4.734
REMARK INTRA:                  -0.269
REMARK UNBOUND:                -0.269
REMARK  Name = resultss/4CJN/ligands/lig_64_t0.pdb
REMARK  6 active torsions:
REMARK  status: ('A' for Active; 'I' for Inactive)
REMARK    1  A    between atoms: N1_1  and  C1_2
REMARK    2  A    between atoms: C3_4  and  C4_5
REMARK    3  A    between atoms: C4_5  and  O1_6
REMARK    4  A    between atoms: C5_7  and  O2_8
REMARK    5  A    between atoms: C6_9  and  O3_10
REMARK    6  A    between atoms: C7_11  and  O4_12
REMARK                            x       y       z     vdW  Elec       q    Type
REMARK                         _______ _______ _______ _____ _____    ______ ____
ROOT
ATOM      1  C1  UNL     1      28.832  -9.148 -34.537  0.00  0.00    +0.000 C 
ATOM      2  C2  UNL     1      28.424  -7.668 -34.491  0.00  0.00    +0.000 C 
ATOM      3  C3  UNL     1      27.315  -7.407 -33.433  0.00  0.00    +0.000 C 
ATOM      4  C5  UNL     1      26.393  -8.643 -33.208  0.00  0.00    +0.000 C 
ATOM      5  C6  UNL     1      26.253  -9.479 -34.499  0.00  0.00    +0.000 C 
ATOM      6  C7  UNL     1      27.627 -10.052 -34.950  0.00  0.00    +0.000 C 
ENDROOT
BRANCH   1   7
ATOM      7  N1  UNL     1      29.999  -9.334 -35.406  0.00  0.00    +0.000 NA
ATOM      8  H1  UNL     1      30.872  -9.065 -34.895  0.00  0.00    +0.000 HD
ATOM      9  H2  UNL     1      29.905  -8.707 -36.237  0.00  0.00    +0.000 HD
ENDBRANCH   1   7
BRANCH   4  10
ATOM     10  O2  UNL     1      25.127  -8.199 -32.789  0.00  0.00    +0.000 OA
ATOM     11  H11 UNL     1      25.273  -7.555 -32.047  0.00  0.00    +0.000 HD
ENDBRANCH   4  10
BRANCH   5  12
ATOM     12  O3  UNL     1      25.362 -10.547 -34.294  0.00  0.00    +0.000 OA
ATOM     13  H13 UNL     1      24.589 -10.188 -33.785  0.00  0.00    +0.000 HD
ENDBRANCH   5  12
BRANCH   6  14
ATOM     14  O4  UNL     1      27.609 -10.313 -36.332  0.00  0.00    +0.000 OA
ATOM     15  H15 UNL     1      27.966 -11.230 -36.470  0.00  0.00    +0.000 HD
ENDBRANCH   6  14
BRANCH   3  16
ATOM     16  C4  UNL     1      27.934  -6.927 -32.104  0.00  0.00    +0.000 C 
BRANCH  16  17
ATOM     17  O1  UNL     1      27.570  -7.779 -31.048  0.00  0.00    +0.000 OA
ATOM     18  H9  UNL     1      27.934  -8.677 -31.262  0.00  0.00    +0.000 HD
ENDBRANCH  16  17
ENDBRANCH   3  16
TORSDOF 6
ENDMDL
MODEL 2
REMARK VINA RESULT:    -3.899      1.488      3.635
REMARK INTER + INTRA:          -4.965
REMARK INTER:                  -4.695
REMARK INTRA:                  -0.270
REMARK UNBOUND:                -0.269
REMARK  Name = resultss/4CJN/ligands/lig_64_t0.pdb
REMARK  6 active torsions:
REMARK  status: ('A' for Active; 'I' for Inactive)
REMARK    1  A    between atoms: N1_1  and  C1_2
REMARK    2  A    between atoms: C3_4  and  C4_5
REMARK    3  A    between atoms: C4_5  and  O1_6
REMARK    4  A    between atoms: C5_7  and  O2_8
REMARK    5  A    between atoms: C6_9  and  O3_10
REMARK    6  A    between atoms: C7_11  and  O4_12
REMARK                            x       y       z     vdW  Elec       q    Type
REMARK                         _______ _______ _______ _____ _____    ______ ____
ROOT
ATOM      1  C1  UNL     1      27.737  -7.162 -34.212  0.00  0.00    +0.000 C 
ATOM      2  C2  UNL     1      28.484  -8.501 -34.115  0.00  0.00    +0.000 C 
ATOM      3  C3  UNL     1      27.620  -9.683 -34.636  0.00  0.00    +0.000 C 
ATOM      4  C5  UNL     1      26.092  -9.443 -34.447  0.00  0.00    +0.000 C 
ATOM      5  C6  UNL     1      25.811  -8.582 -33.195  0.00  0.00    +0.000 C 
ATOM      6  C7  UNL     1      26.448  -7.170 -33.331  0.00  0.00    +0.000 C 
ENDROOT
BRANCH   1   7
ATOM      7  N1  UNL     1      28.634  -6.047 -33.889  0.00  0.00    +0.000 NA
ATOM      8  H1  UNL     1      28.579  -5.828 -32.867  0.00  0.00    +0.000 HD
ATOM      9  H2  UNL     1      28.323  -5.200 -34.417  0.00  0.00    +0.000 HD
ENDBRANCH   1   7
BRANCH   4  10
ATOM     10  O2  UNL     1      25.445 -10.686 -34.324  0.00  0.00    +0.000 OA
ATOM     11  H11 UNL     1      26.068 -11.376 -34.675  0.00  0.00    +0.000 HD
ENDBRANCH   4  10
BRANCH   5  12
ATOM     12  O3  UNL     1      24.426  -8.439 -33.004  0.00  0.00    +0.000 OA
ATOM     13  H13 UNL     1      24.017  -9.330 -33.157  0.00  0.00    +0.000 HD
ENDBRANCH   5  12
BRANCH   6  14
ATOM     14  O4  UNL     1      26.674  -6.620 -32.056  0.00  0.00    +0.000 OA
ATOM     15  H15 UNL     1      27.583  -6.220 -32.057  0.00  0.00    +0.000 HD
ENDBRANCH   6  14
BRANCH   3  16
ATOM     16  C4  UNL     1      27.954  -9.992 -36.110  0.00  0.00    +0.000 C 
BRANCH  16  17
ATOM     17  O1  UNL     1      26.793  -9.976 -36.899  0.00  0.00    +0.000 OA
ATOM     18  H9  UNL     1      26.119 -10.538 -36.435  0.00  0.00    +0.000 HD
ENDBRANCH  16  17
ENDBRANCH   3  16
TORSDOF 6
ENDMDL
MODEL 3
REMARK VINA RESULT:    -3.720      2.255      2.866
REMARK INTER + INTRA:          -4.750
REMARK INTER:                  -4.481
REMARK INTRA:                  -0.269
REMARK UNBOUND:                -0.269
REMARK  Name = resultss/4CJN/ligands/lig_64_t0.pdb
REMARK  6 active torsions:
REMARK  status: ('A' for Active; 'I' for Inactive)
REMARK    1  A    between atoms: N1_1  and  C1_2
REMARK    2  A    between atoms: C3_4  and  C4_5
REMARK    3  A    between atoms: C4_5  and  O1_6
REMARK    4  A    between atoms: C5_7  and  O2_8
REMARK    5  A    between atoms: C6_9  and  O3_10
REMARK    6  A    between atoms: C7_11  and  O4_12
REMARK                            x       y       z     vdW  Elec       q    Type
REMARK                         _______ _______ _______ _____ _____    ______ ____
ROOT
ATOM      1  C1  UNL     1      27.022  -7.485 -32.904  0.00  0.00    +0.000 C 
ATOM      2  C2  UNL     1      26.266  -6.447 -33.747  0.00  0.00    +0.000 C 
ATOM      3  C3  UNL     1      24.781  -6.852 -33.966  0.00  0.00    +0.000 C 
ATOM      4  C5  UNL     1      24.570  -8.396 -33.965  0.00  0.00    +0.000 C 
ATOM      5  C6  UNL     1      25.814  -9.131 -34.513  0.00  0.00    +0.000 C 
ATOM      6  C7  UNL     1      27.059  -8.873 -33.618  0.00  0.00    +0.000 C 
ENDROOT
BRANCH   1   7
ATOM      7  N1  UNL     1      28.360  -6.993 -32.559  0.00  0.00    +0.000 NA
ATOM      8  H1  UNL     1      28.447  -6.886 -31.523  0.00  0.00    +0.000 HD
ATOM      9  H2  UNL     1      28.496  -6.051 -32.993  0.00  0.00    +0.000 HD
ENDBRANCH   1   7
BRANCH   4  10
ATOM     10  O2  UNL     1      23.448  -8.705 -34.754  0.00  0.00    +0.000 OA
ATOM     11  H11 UNL     1      22.995  -9.480 -34.328  0.00  0.00    +0.000 HD
ENDBRANCH   4  10
BRANCH   5  12
ATOM     12  O3  UNL     1      25.574 -10.515 -34.570  0.00  0.00    +0.000 OA
ATOM     13  H13 UNL     1      25.025 -10.683 -35.380  0.00  0.00    +0.000 HD
ENDBRANCH   5  12
BRANCH   6  14
ATOM     14  O4  UNL     1      28.235  -9.053 -34.368  0.00  0.00    +0.000 OA
ATOM     15  H15 UNL     1      28.053  -9.751 -35.051  0.00  0.00    +0.000 HD
ENDBRANCH   6  14
BRANCH   3  16
ATOM     16  C4  UNL     1      23.872  -6.167 -32.925  0.00  0.00    +0.000 C 
BRANCH  16  17
ATOM     17  O1  UNL     1      23.130  -7.119 -32.208  0.00  0.00    +0.000 OA
ATOM     18  H9  UNL     1      23.754  -7.553 -31.570  0.00  0.00    +0.000 HD
ENDBRANCH  16  17
ENDBRANCH   3  16
TORSDOF 6
ENDMDL
MODEL 4
REMARK VINA RESULT:    -3.702      6.238      7.593
REMARK INTER + INTRA:          -4.729
REMARK INTER:                  -4.463
REMARK INTRA:                  -0.266
REMARK UNBOUND:                -0.269
REMARK  Name = resultss/4CJN/ligands/lig_64_t0.pdb
REMARK  6 active torsions:
REMARK  status: ('A' for Active; 'I' for Inactive)
REMARK    1  A    between atoms: N1_1  and  C1_2
REMARK    2  A    between atoms: C3_4  and  C4_5
REMARK    3  A    between atoms: C4_5  and  O1_6
REMARK    4  A    between atoms: C5_7  and  O2_8
REMARK    5  A    between atoms: C6_9  and  O3_10
REMARK    6  A    between atoms: C7_11  and  O4_12
REMARK                            x       y       z     vdW  Elec       q    Type
REMARK                         _______ _______ _______ _____ _____    ______ ____
ROOT
ATOM      1  C1  UNL     1      25.128  -9.769 -41.975  0.00  0.00    +0.000 C 
ATOM      2  C2  UNL     1      26.493  -9.080 -42.113  0.00  0.00    +0.000 C 
ATOM      3  C3  UNL     1      27.373  -9.284 -40.848  0.00  0.00    +0.000 C 
ATOM      4  C5  UNL     1      26.530  -9.450 -39.547  0.00  0.00    +0.000 C 
ATOM      5  C6  UNL     1      25.211  -8.651 -39.630  0.00  0.00    +0.000 C 
ATOM      6  C7  UNL     1      24.311  -9.171 -40.787  0.00  0.00    +0.000 C 
ENDROOT
BRANCH   1   7
ATOM      7  N1  UNL     1      24.394  -9.718 -43.245  0.00  0.00    +0.000 NA
ATOM      8  H1  UNL     1      23.448  -9.298 -43.095  0.00  0.00    +0.000 HD
ATOM      9  H2  UNL     1      24.262 -10.693 -43.598  0.00  0.00    +0.000 HD
ENDBRANCH   1   7
BRANCH   4  10
ATOM     10  O2  UNL     1      27.289  -9.004 -38.451  0.00  0.00    +0.000 OA
ATOM     11  H11 UNL     1      26.841  -9.337 -37.629  0.00  0.00    +0.000 HD
ENDBRANCH   4  10
BRANCH   5  12
ATOM     12  O3  UNL     1      24.502  -8.757 -38.420  0.00  0.00    +0.000 OA
ATOM     13  H13 UNL     1      24.794  -9.599 -37.983  0.00  0.00    +0.000 HD
ENDBRANCH   5  12
BRANCH   6  14
ATOM     14  O4  UNL     1      23.432  -8.156 -41.204  0.00  0.00    +0.000 OA
ATOM     15  H15 UNL     1      22.670  -8.135 -40.566  0.00  0.00    +0.000 HD
ENDBRANCH   6  14
BRANCH   3  16
ATOM     16  C4  UNL     1      28.335 -10.475 -41.041  0.00  0.00    +0.000 C 
BRANCH  16  17
ATOM     17  O1  UNL     1      28.093 -11.472 -40.083  0.00  0.00    +0.000 OA
ATOM     18  H9  UNL     1      28.924 -12.009 -40.006  0.00  0.00    +0.000 HD
ENDBRANCH  16  17
ENDBRANCH   3  16
TORSDOF 6
ENDMDL
MODEL 5
REMARK VINA RESULT:    -3.657      3.869      4.598
REMARK INTER + INTRA:          -4.674
REMARK INTER:                  -4.404
REMARK INTRA:                  -0.270
REMARK UNBOUND:                -0.269
REMARK  Name = resultss/4CJN/ligands/lig_64_t0.pdb
REMARK  6 active torsions:
REMARK  status: ('A' for Active; 'I' for Inactive)
REMARK    1  A    between atoms: N1_1  and  C1_2
REMARK    2  A    between atoms: C3_4  and  C4_5
REMARK    3  A    between atoms: C4_5  and  O1_6
REMARK    4  A    between atoms: C5_7  and  O2_8
REMARK    5  A    between atoms: C6_9  and  O3_10
REMARK    6  A    between atoms: C7_11  and  O4_12
REMARK                            x       y       z     vdW  Elec       q    Type
REMARK                         _______ _______ _______ _____ _____    ______ ____
ROOT
ATOM      1  C1  UNL     1      23.084  -6.943 -35.948  0.00  0.00    +0.000 C 
ATOM      2  C2  UNL     1      22.354  -7.630 -34.784  0.00  0.00    +0.000 C 
ATOM      3  C3  UNL     1      23.253  -7.732 -33.520  0.00  0.00    +0.000 C 
ATOM      4  C5  UNL     1      24.770  -7.824 -33.864  0.00  0.00    +0.000 C 
ATOM      5  C6  UNL     1      24.996  -8.542 -35.212  0.00  0.00    +0.000 C 
ATOM      6  C7  UNL     1      24.343  -7.756 -36.384  0.00  0.00    +0.000 C 
ENDROOT
BRANCH   1   7
ATOM      7  N1  UNL     1      22.160  -6.695 -37.061  0.00  0.00    +0.000 NA
ATOM      8  H1  UNL     1      21.214  -6.446 -36.692  0.00  0.00    +0.000 HD
ATOM      9  H2  UNL     1      22.067  -7.571 -37.624  0.00  0.00    +0.000 HD
ENDBRANCH   1   7
BRANCH   4  10
ATOM     10  O2  UNL     1      25.431  -8.521 -32.837  0.00  0.00    +0.000 OA
ATOM     11  H11 UNL     1      24.827  -9.254 -32.545  0.00  0.00    +0.000 HD
ENDBRANCH   4  10
BRANCH   5  12
ATOM     12  O3  UNL     1      26.372  -8.677 -35.467  0.00  0.00    +0.000 OA
ATOM     13  H13 UNL     1      26.816  -8.842 -34.595  0.00  0.00    +0.000 HD
ENDBRANCH   5  12
BRANCH   6  14
ATOM     14  O4  UNL     1      24.067  -8.629 -37.453  0.00  0.00    +0.000 OA
ATOM     15  H15 UNL     1      24.388  -9.533 -37.194  0.00  0.00    +0.000 HD
ENDBRANCH   6  14
BRANCH   3  16
ATOM     16  C4  UNL     1      22.972  -6.560 -32.557  0.00  0.00    +0.000 C 
BRANCH  16  17
ATOM     17  O1  UNL     1      24.159  -5.883 -32.236  0.00  0.00    +0.000 OA
ATOM     18  H9  UNL     1      23.898  -5.011 -31.840  0.00  0.00    +0.000 HD
ENDBRANCH  16  17
ENDBRANCH   3  16
TORSDOF 6
ENDMDL
MODEL 6
REMARK VINA RESULT:    -3.617      3.204      4.311
REMARK INTER + INTRA:          -4.626
REMARK INTER:                  -4.394
REMARK INTRA:                  -0.232
REMARK UNBOUND:                -0.269
REMARK  Name = resultss/4CJN/ligands/lig_64_t0.pdb
REMARK  6 active torsions:
REMARK  status: ('A' for Active; 'I' for Inactive)
REMARK    1  A    between atoms: N1_1  and  C1_2
REMARK    2  A    between atoms: C3_4  and  C4_5
REMARK    3  A    between atoms: C4_5  and  O1_6
REMARK    4  A    between atoms: C5_7  and  O2_8
REMARK    5  A    between atoms: C6_9  and  O3_10
REMARK    6  A    between atoms: C7_11  and  O4_12
REMARK                            x       y       z     vdW  Elec       q    Type
REMARK                         _______ _______ _______ _____ _____    ______ ____
ROOT
ATOM      1  C1  UNL     1      24.422  -8.251 -36.873  0.00  0.00    +0.000 C 
ATOM      2  C2  UNL     1      25.837  -7.979 -36.342  0.00  0.00    +0.000 C 
ATOM      3  C3  UNL     1      25.984  -8.393 -34.851  0.00  0.00    +0.000 C 
ATOM      4  C5  UNL     1      24.646  -8.283 -34.060  0.00  0.00    +0.000 C 
ATOM      5  C6  UNL     1      23.759  -7.147 -34.616  0.00  0.00    +0.000 C 
ATOM      6  C7  UNL     1      23.357  -7.419 -36.093  0.00  0.00    +0.000 C 
ENDROOT
BRANCH   1   7
ATOM      7  N1  UNL     1      24.363  -8.026 -38.322  0.00  0.00    +0.000 NA
ATOM      8  H1  UNL     1      24.233  -7.007 -38.520  0.00  0.00    +0.000 HD
ATOM      9  H2  UNL     1      23.538  -8.538 -38.710  0.00  0.00    +0.000 HD
ENDBRANCH   1   7
BRANCH   4  10
ATOM     10  O2  UNL     1      24.934  -8.043 -32.705  0.00  0.00    +0.000 OA
ATOM     11  H11 UNL     1      24.144  -8.340 -32.180  0.00  0.00    +0.000 HD
ENDBRANCH   4  10
BRANCH   5  12
ATOM     12  O3  UNL     1      22.592  -7.019 -33.843  0.00  0.00    +0.000 OA
ATOM     13  H13 UNL     1      21.855  -6.782 -34.464  0.00  0.00    +0.000 HD
ENDBRANCH   5  12
BRANCH   6  14
ATOM     14  O4  UNL     1      23.053  -6.207 -36.739  0.00  0.00    +0.000 OA
ATOM     15  H15 UNL     1      22.523  -6.423 -37.551  0.00  0.00    +0.000 HD
ENDBRANCH   6  14
BRANCH   3  16
ATOM     16  C4  UNL     1      26.581  -9.811 -34.736  0.00  0.00    +0.000 C 
BRANCH  16  17
ATOM     17  O1  UNL     1      25.611 -10.727 -34.297  0.00  0.00    +0.000 OA
ATOM     18  H9  UNL     1      24.733 -10.395 -34.617  0.00  0.00    +0.000 HD
ENDBRANCH  16  17
ENDBRANCH   3  16
TORSDOF 6
ENDMDL
MODEL 7
REMARK VINA RESULT:    -3.565      1.887      3.716
REMARK INTER + INTRA:          -4.563
REMARK INTER:                  -4.316
REMARK INTRA:                  -0.246
REMARK UNBOUND:                -0.269
REMARK  Name = resultss/4CJN/ligands/lig_64_t0.pdb
REMARK  6 active torsions:
REMARK  status: ('A' for Active; 'I' for Inactive)
REMARK    1  A    between atoms: N1_1  and  C1_2
REMARK    2  A    between atoms: C3_4  and  C4_5
REMARK    3  A    between atoms: C4_5  and  O1_6
REMARK    4  A    between atoms: C5_7  and  O2_8
REMARK    5  A    between atoms: C6_9  and  O3_10
REMARK    6  A    between atoms: C7_11  and  O4_12
REMARK                            x       y       z     vdW  Elec       q    Type
REMARK                         _______ _______ _______ _____ _____    ______ ____
ROOT
ATOM      1  C1  UNL     1      27.602  -7.985 -33.202  0.00  0.00    +0.000 C 
ATOM      2  C2  UNL     1      28.487  -9.240 -33.212  0.00  0.00    +0.000 C 
ATOM      3  C3  UNL     1      28.718  -9.772 -34.654  0.00  0.00    +0.000 C 
ATOM      4  C5  UNL     1      27.532  -9.451 -35.613  0.00  0.00    +0.000 C 
ATOM      5  C6  UNL     1      26.189  -9.417 -34.850  0.00  0.00    +0.000 C 
ATOM      6  C7  UNL     1      26.182  -8.292 -33.776  0.00  0.00    +0.000 C 
ENDROOT
BRANCH   1   7
ATOM      7  N1  UNL     1      27.551  -7.400 -31.858  0.00  0.00    +0.000 NA
ATOM      8  H1  UNL     1      26.702  -6.798 -31.761  0.00  0.00    +0.000 HD
ATOM      9  H2  UNL     1      28.394  -6.796 -31.721  0.00  0.00    +0.000 HD
ENDBRANCH   1   7
BRANCH   4  10
ATOM     10  O2  UNL     1      27.481 -10.430 -36.621  0.00  0.00    +0.000 OA
ATOM     11  H11 UNL     1      27.724  -9.984 -37.475  0.00  0.00    +0.000 HD
ENDBRANCH   4  10
BRANCH   5  12
ATOM     12  O3  UNL     1      25.127  -9.198 -35.744  0.00  0.00    +0.000 OA
ATOM     13  H13 UNL     1      25.528  -8.978 -36.625  0.00  0.00    +0.000 HD
ENDBRANCH   5  12
BRANCH   6  14
ATOM     14  O4  UNL     1      25.256  -8.601 -32.763  0.00  0.00    +0.000 OA
ATOM     15  H15 UNL     1      24.826  -7.752 -32.479  0.00  0.00    +0.000 HD
ENDBRANCH   6  14
BRANCH   3  16
ATOM     16  C4  UNL     1      30.050  -9.241 -35.224  0.00  0.00    +0.000 C 
BRANCH  16  17
ATOM     17  O1  UNL     1      30.346  -9.852 -36.453  0.00  0.00    +0.000 OA
ATOM     18  H9  UNL     1      29.662  -9.541 -37.102  0.00  0.00    +0.000 HD
ENDBRANCH  16  17
ENDBRANCH   3  16
TORSDOF 6
ENDMDL
MODEL 8
REMARK VINA RESULT:    -3.497      6.888      8.516
REMARK INTER + INTRA:          -4.481
REMARK INTER:                  -4.270
REMARK INTRA:                  -0.211
REMARK UNBOUND:                -0.269
REMARK  Name = resultss/4CJN/ligands/lig_64_t0.pdb
REMARK  6 active torsions:
REMARK  status: ('A' for Active; 'I' for Inactive)
REMARK    1  A    between atoms: N1_1  and  C1_2
REMARK    2  A    between atoms: C3_4  and  C4_5
REMARK    3  A    between atoms: C4_5  and  O1_6
REMARK    4  A    between atoms: C5_7  and  O2_8
REMARK    5  A    between atoms: C6_9  and  O3_10
REMARK    6  A    between atoms: C7_11  and  O4_12
REMARK                            x       y       z     vdW  Elec       q    Type
REMARK                         _______ _______ _______ _____ _____    ______ ____
ROOT
ATOM      1  C1  UNL     1      25.611  -9.430 -40.862  0.00  0.00    +0.000 C 
ATOM      2  C2  UNL     1      26.487 -10.667 -40.611  0.00  0.00    +0.000 C 
ATOM      3  C3  UNL     1      27.985 -10.384 -40.911  0.00  0.00    +0.000 C 
ATOM      4  C5  UNL     1      28.186  -9.298 -42.011  0.00  0.00    +0.000 C 
ATOM      5  C6  UNL     1      27.031  -9.320 -43.037  0.00  0.00    +0.000 C 
ATOM      6  C7  UNL     1      25.671  -8.991 -42.359  0.00  0.00    +0.000 C 
ENDROOT
BRANCH   1   7
ATOM      7  N1  UNL     1      24.240  -9.667 -40.398  0.00  0.00    +0.000 NA
ATOM      8  H1  UNL     1      23.560  -9.179 -41.026  0.00  0.00    +0.000 HD
ATOM      9  H2  UNL     1      24.134  -9.268 -39.437  0.00  0.00    +0.000 HD
ENDBRANCH   1   7
BRANCH   4  10
ATOM     10  O2  UNL     1      29.408  -9.530 -42.665  0.00  0.00    +0.000 OA
ATOM     11  H11 UNL     1      29.890  -8.662 -42.703  0.00  0.00    +0.000 HD
ENDBRANCH   4  10
BRANCH   5  12
ATOM     12  O3  UNL     1      27.269  -8.383 -44.057  0.00  0.00    +0.000 OA
ATOM     13  H13 UNL     1      27.234  -8.875 -44.919  0.00  0.00    +0.000 HD
ENDBRANCH   5  12
BRANCH   6  14
ATOM     14  O4  UNL     1      24.615  -9.533 -43.113  0.00  0.00    +0.000 OA
ATOM     15  H15 UNL     1      23.989  -8.793 -43.331  0.00  0.00    +0.000 HD
ENDBRANCH   6  14
BRANCH   3  16
ATOM     16  C4  UNL     1      28.738 -10.009 -39.618  0.00  0.00    +0.000 C 
BRANCH  16  17
ATOM     17  O1  UNL     1      30.097 -10.349 -39.715  0.00  0.00    +0.000 OA
ATOM     18  H9  UNL     1      30.612  -9.501 -39.672  0.00  0.00    +0.000 HD
ENDBRANCH  16  17
ENDBRANCH   3  16
TORSDOF 6
ENDMDL
MODEL 9
REMARK VINA RESULT:    -3.483      7.739      9.143
REMARK INTER + INTRA:          -4.465
REMARK INTER:                  -4.217
REMARK INTRA:                  -0.248
REMARK UNBOUND:                -0.269
REMARK  Name = resultss/4CJN/ligands/lig_64_t0.pdb
REMARK  6 active torsions:
REMARK  status: ('A' for Active; 'I' for Inactive)
REMARK    1  A    between atoms: N1_1  and  C1_2
REMARK    2  A    between atoms: C3_4  and  C4_5
REMARK    3  A    between atoms: C4_5  and  O1_6
REMARK    4  A    between atoms: C5_7  and  O2_8
REMARK    5  A    between atoms: C6_9  and  O3_10
REMARK    6  A    between atoms: C7_11  and  O4_12
REMARK                            x       y       z     vdW  Elec       q    Type
REMARK                         _______ _______ _______ _____ _____    ______ ____
ROOT
ATOM      1  C1  UNL     1      26.412  -7.149 -41.799  0.00  0.00    +0.000 C 
ATOM      2  C2  UNL     1      26.605  -7.964 -43.086  0.00  0.00    +0.000 C 
ATOM      3  C3  UNL     1      25.268  -8.579 -43.586  0.00  0.00    +0.000 C 
ATOM      4  C5  UNL     1      24.269  -8.875 -42.426  0.00  0.00    +0.000 C 
ATOM      5  C6  UNL     1      25.016  -9.235 -41.123  0.00  0.00    +0.000 C 
ATOM      6  C7  UNL     1      25.894  -8.050 -40.633  0.00  0.00    +0.000 C 
ENDROOT
BRANCH   1   7
ATOM      7  N1  UNL     1      27.644  -6.433 -41.453  0.00  0.00    +0.000 NA
ATOM      8  H1  UNL     1      28.303  -7.074 -40.953  0.00  0.00    +0.000 HD
ATOM      9  H2  UNL     1      27.407  -5.645 -40.806  0.00  0.00    +0.000 HD
ENDBRANCH   1   7
BRANCH   4  10
ATOM     10  O2  UNL     1      23.431  -9.939 -42.805  0.00  0.00    +0.000 OA
ATOM     11  H11 UNL     1      23.951 -10.778 -42.686  0.00  0.00    +0.000 HD
ENDBRANCH   4  10
BRANCH   5  12
ATOM     12  O3  UNL     1      24.097  -9.568 -40.112  0.00  0.00    +0.000 OA
ATOM     13  H13 UNL     1      24.109 -10.557 -40.021  0.00  0.00    +0.000 HD
ENDBRANCH   5  12
BRANCH   6  14
ATOM     14  O4  UNL     1      26.943  -8.530 -39.828  0.00  0.00    +0.000 OA
ATOM     15  H15 UNL     1      27.592  -8.991 -40.422  0.00  0.00    +0.000 HD
ENDBRANCH   6  14
BRANCH   3  16
ATOM     16  C4  UNL     1      24.621  -7.677 -44.658  0.00  0.00    +0.000 C 
BRANCH  16  17
ATOM     17  O1  UNL     1      23.220  -7.744 -44.587  0.00  0.00    +0.000 OA
ATOM     18  H9  UNL     1      22.901  -6.845 -44.312  0.00  0.00    +0.000 HD
ENDBRANCH  16  17
ENDBRANCH   3  16
TORSDOF 6
ENDMDL
