MODEL 1
REMARK VINA RESULT:    -6.052      0.000      0.000
REMARK INTER + INTRA:         -13.981
REMARK INTER:                 -11.536
REMARK INTRA:                  -2.446
REMARK UNBOUND:                -2.446
REMARK  Name = resultss/4CJN/ligands/lig_444_t0.pdb
REMARK  23 active torsions:
REMARK  status: ('A' for Active; 'I' for Inactive)
REMARK    1  A    between atoms: C1_1  and  C2_2
REMARK    2  A    between atoms: C3_4  and  O2_5
REMARK    3  A    between atoms: O2_5  and  C4_6
REMARK    4  A    between atoms: C5_7  and  O3_8
REMARK    5  A    between atoms: C6_9  and  O4_10
REMARK    6  A    between atoms: C7_11  and  O5_12
REMARK    7  A    between atoms: O5_12  and  C8_13
REMARK    8  A    between atoms: C9_14  and  O6_15
REMARK    9  A    between atoms: C10_16  and  O7_17
REMARK   10  A    between atoms: C11_18  and  O8_19
REMARK   11  A    between atoms: C12_21  and  C13_22
REMARK   12  A    between atoms: C13_22  and  O10_23
REMARK   13  A    between atoms: C14_25  and  C15_26
REMARK   14  A    between atoms: C15_26  and  O12_27
REMARK   15  A    between atoms: C16_28  and  O13_29
REMARK   16  A    between atoms: C17_30  and  O14_31
REMARK   17  A    between atoms: C18_32  and  N1_33
REMARK   18  A    between atoms: N1_33  and  C19_34
REMARK   19  A    between atoms: C21_36  and  C22_37
REMARK   20  A    between atoms: C22_37  and  O15_38
REMARK   21  A    between atoms: C23_39  and  O16_40
REMARK   22  A    between atoms: C24_41  and  O17_42
REMARK   23  A    between atoms: C25_43  and  O18_44
REMARK                            x       y       z     vdW  Elec       q    Type
REMARK                         _______ _______ _______ _____ _____    ______ ____
ROOT
ATOM      1  O2  UNL     1      28.230 -10.072 -40.701  0.00  0.00    +0.000 OA
ENDROOT
BRANCH   1   5
ATOM      2  C1  UNL     1      29.449  -6.730 -38.239  0.00  0.00    +0.000 C 
ATOM      3  C2  UNL     1      29.051  -8.154 -37.814  0.00  0.00    +0.000 C 
ATOM      4  O1  UNL     1      28.264  -8.823 -38.788  0.00  0.00    +0.000 OA
ATOM      5  C3  UNL     1      28.937  -9.046 -40.020  0.00  0.00    +0.000 C 
ATOM      6  C16 UNL     1      30.418  -9.491 -39.836  0.00  0.00    +0.000 C 
ATOM      7  C17 UNL     1      30.662 -10.063 -38.429  0.00  0.00    +0.000 C 
ATOM      8  C18 UNL     1      30.251  -9.033 -37.340  0.00  0.00    +0.000 C 
BRANCH   8   9
ATOM      9  N1  UNL     1      29.876  -9.687 -36.063  0.00  0.00    +0.000 NA
ATOM     10  H32 UNL     1      30.756  -9.973 -35.574  0.00  0.00    +0.000 HD
BRANCH   9  11
ATOM     11  C19 UNL     1      29.077  -8.865 -35.129  0.00  0.00    +0.000 C 
ATOM     12  C20 UNL     1      27.655  -9.366 -34.993  0.00  0.00    +0.000 C 
ATOM     13  C21 UNL     1      26.855  -8.834 -34.050  0.00  0.00    +0.000 C 
ATOM     14  C23 UNL     1      27.448  -7.777 -33.125  0.00  0.00    +0.000 C 
ATOM     15  C24 UNL     1      28.819  -8.267 -32.594  0.00  0.00    +0.000 C 
ATOM     16  C25 UNL     1      29.748  -8.834 -33.725  0.00  0.00    +0.000 C 
BRANCH  16  17
ATOM     17  O18 UNL     1      30.226 -10.108 -33.365  0.00  0.00    +0.000 OA
ATOM     18  H43 UNL     1      30.803 -10.430 -34.105  0.00  0.00    +0.000 HD
ENDBRANCH  16  17
BRANCH  15  19
ATOM     19  O17 UNL     1      29.462  -7.205 -31.935  0.00  0.00    +0.000 OA
ATOM     20  H41 UNL     1      29.936  -7.598 -31.157  0.00  0.00    +0.000 HD
ENDBRANCH  15  19
BRANCH  14  21
ATOM     21  O16 UNL     1      26.582  -7.501 -32.055  0.00  0.00    +0.000 OA
ATOM     22  H39 UNL     1      26.004  -6.745 -32.337  0.00  0.00    +0.000 HD
ENDBRANCH  14  21
BRANCH  13  23
ATOM     23  C22 UNL     1      25.432  -9.339 -33.909  0.00  0.00    +0.000 C 
BRANCH  23  24
ATOM     24  O15 UNL     1      25.343 -10.665 -34.353  0.00  0.00    +0.000 OA
ATOM     25  H37 UNL     1      25.891 -10.719 -35.180  0.00  0.00    +0.000 HD
ENDBRANCH  23  24
ENDBRANCH  13  23
ENDBRANCH   9  11
ENDBRANCH   8   9
BRANCH   7  26
ATOM     26  O14 UNL     1      32.026 -10.369 -38.294  0.00  0.00    +0.000 OA
ATOM     27  H30 UNL     1      32.530  -9.522 -38.404  0.00  0.00    +0.000 HD
ENDBRANCH   7  26
BRANCH   6  28
ATOM     28  O13 UNL     1      30.818 -10.392 -40.841  0.00  0.00    +0.000 OA
ATOM     29  H28 UNL     1      30.028 -10.932 -41.101  0.00  0.00    +0.000 HD
ENDBRANCH   6  28
ENDBRANCH   1   5
BRANCH   1  30
ATOM     30  C4  UNL     1      27.444  -9.598 -41.784  0.00  0.00    +0.000 C 
ATOM     31  C5  UNL     1      25.993  -9.446 -41.295  0.00  0.00    +0.000 C 
ATOM     32  C6  UNL     1      25.090  -8.891 -42.417  0.00  0.00    +0.000 C 
ATOM     33  C7  UNL     1      25.879  -7.916 -43.323  0.00  0.00    +0.000 C 
ATOM     34  O11 UNL     1      26.923  -7.290 -42.594  0.00  0.00    +0.000 OA
ATOM     35  C14 UNL     1      27.965  -8.205 -42.257  0.00  0.00    +0.000 C 
BRANCH  32  36
ATOM     36  O4  UNL     1      23.976  -8.246 -41.849  0.00  0.00    +0.000 OA
ATOM     37  H10 UNL     1      23.720  -7.517 -42.473  0.00  0.00    +0.000 HD
ENDBRANCH  32  36
BRANCH  31  38
ATOM     38  O3  UNL     1      25.490 -10.664 -40.805  0.00  0.00    +0.000 OA
ATOM     39  H8  UNL     1      24.602 -10.483 -40.405  0.00  0.00    +0.000 HD
ENDBRANCH  31  38
BRANCH  35  40
ATOM     40  C15 UNL     1      28.990  -8.321 -43.404  0.00  0.00    +0.000 C 
BRANCH  40  41
ATOM     41  O12 UNL     1      29.686  -9.536 -43.319  0.00  0.00    +0.000 OA
ATOM     42  H26 UNL     1      29.594  -9.978 -44.205  0.00  0.00    +0.000 HD
ENDBRANCH  40  41
ENDBRANCH  35  40
BRANCH  33  43
ATOM     43  O5  UNL     1      24.998  -6.928 -43.826  0.00  0.00    +0.000 OA
BRANCH  43  44
ATOM     44  C8  UNL     1      24.484  -7.281 -45.102  0.00  0.00    +0.000 C 
ATOM     45  C9  UNL     1      22.966  -7.028 -45.135  0.00  0.00    +0.000 C 
ATOM     46  C10 UNL     1      22.405  -7.373 -46.526  0.00  0.00    +0.000 C 
ATOM     47  C11 UNL     1      23.424  -7.023 -47.645  0.00  0.00    +0.000 C 
ATOM     48  O9  UNL     1      24.301  -5.985 -47.241  0.00  0.00    +0.000 OA
ATOM     49  C12 UNL     1      25.168  -6.389 -46.180  0.00  0.00    +0.000 C 
BRANCH  47  50
ATOM     50  O8  UNL     1      22.777  -6.655 -48.837  0.00  0.00    +0.000 OA
ATOM     51  H18 UNL     1      22.916  -5.677 -48.958  0.00  0.00    +0.000 HD
ENDBRANCH  47  50
BRANCH  46  52
ATOM     52  O7  UNL     1      21.185  -6.694 -46.708  0.00  0.00    +0.000 OA
ATOM     53  H16 UNL     1      20.457  -7.333 -46.491  0.00  0.00    +0.000 HD
ENDBRANCH  46  52
BRANCH  45  54
ATOM     54  O6  UNL     1      22.313  -7.817 -44.172  0.00  0.00    +0.000 OA
ATOM     55  H14 UNL     1      21.360  -7.871 -44.445  0.00  0.00    +0.000 HD
ENDBRANCH  45  54
BRANCH  49  56
ATOM     56  C13 UNL     1      26.444  -7.043 -46.730  0.00  0.00    +0.000 C 
BRANCH  56  57
ATOM     57  O10 UNL     1      27.573  -6.498 -46.097  0.00  0.00    +0.000 OA
ATOM     58  H22 UNL     1      28.211  -7.241 -45.936  0.00  0.00    +0.000 HD
ENDBRANCH  56  57
ENDBRANCH  49  56
ENDBRANCH  43  44
ENDBRANCH  33  43
ENDBRANCH   1  30
TORSDOF 22
ENDMDL
MODEL 2
REMARK VINA RESULT:    -5.775      1.633      3.214
REMARK INTER + INTRA:         -13.453
REMARK INTER:                 -11.138
REMARK INTRA:                  -2.315
REMARK UNBOUND:                -2.446
REMARK  Name = resultss/4CJN/ligands/lig_444_t0.pdb
REMARK  23 active torsions:
REMARK  status: ('A' for Active; 'I' for Inactive)
REMARK    1  A    between atoms: C1_1  and  C2_2
REMARK    2  A    between atoms: C3_4  and  O2_5
REMARK    3  A    between atoms: O2_5  and  C4_6
REMARK    4  A    between atoms: C5_7  and  O3_8
REMARK    5  A    between atoms: C6_9  and  O4_10
REMARK    6  A    between atoms: C7_11  and  O5_12
REMARK    7  A    between atoms: O5_12  and  C8_13
REMARK    8  A    between atoms: C9_14  and  O6_15
REMARK    9  A    between atoms: C10_16  and  O7_17
REMARK   10  A    between atoms: C11_18  and  O8_19
REMARK   11  A    between atoms: C12_21  and  C13_22
REMARK   12  A    between atoms: C13_22  and  O10_23
REMARK   13  A    between atoms: C14_25  and  C15_26
REMARK   14  A    between atoms: C15_26  and  O12_27
REMARK   15  A    between atoms: C16_28  and  O13_29
REMARK   16  A    between atoms: C17_30  and  O14_31
REMARK   17  A    between atoms: C18_32  and  N1_33
REMARK   18  A    between atoms: N1_33  and  C19_34
REMARK   19  A    between atoms: C21_36  and  C22_37
REMARK   20  A    between atoms: C22_37  and  O15_38
REMARK   21  A    between atoms: C23_39  and  O16_40
REMARK   22  A    between atoms: C24_41  and  O17_42
REMARK   23  A    between atoms: C25_43  and  O18_44
REMARK                            x       y       z     vdW  Elec       q    Type
REMARK                         _______ _______ _______ _____ _____    ______ ____
ROOT
ATOM      1  O2  UNL     1      30.604  -9.345 -40.152  0.00  0.00    +0.000 OA
ENDROOT
BRANCH   1   5
ATOM      2  C1  UNL     1      31.052  -6.401 -37.014  0.00  0.00    +0.000 C 
ATOM      3  C2  UNL     1      30.411  -7.799 -36.949  0.00  0.00    +0.000 C 
ATOM      4  O1  UNL     1      30.004  -8.281 -38.221  0.00  0.00    +0.000 OA
ATOM      5  C3  UNL     1      31.077  -8.475 -39.134  0.00  0.00    +0.000 C 
ATOM      6  C16 UNL     1      32.335  -9.109 -38.473  0.00  0.00    +0.000 C 
ATOM      7  C17 UNL     1      31.980  -9.827 -37.159  0.00  0.00    +0.000 C 
ATOM      8  C18 UNL     1      31.267  -8.854 -36.179  0.00  0.00    +0.000 C 
BRANCH   8   9
ATOM      9  N1  UNL     1      30.383  -9.566 -35.225  0.00  0.00    +0.000 NA
ATOM     10  H32 UNL     1      30.982  -9.964 -34.464  0.00  0.00    +0.000 HD
BRANCH   9  11
ATOM     11  C19 UNL     1      29.323  -8.749 -34.596  0.00  0.00    +0.000 C 
ATOM     12  C20 UNL     1      27.937  -9.289 -34.878  0.00  0.00    +0.000 C 
ATOM     13  C21 UNL     1      26.879  -8.762 -34.232  0.00  0.00    +0.000 C 
ATOM     14  C23 UNL     1      27.145  -7.670 -33.203  0.00  0.00    +0.000 C 
ATOM     15  C24 UNL     1      28.304  -8.108 -32.272  0.00  0.00    +0.000 C 
ATOM     16  C25 UNL     1      29.541  -8.669 -33.057  0.00  0.00    +0.000 C 
BRANCH  16  17
ATOM     17  O18 UNL     1      29.919  -9.922 -32.534  0.00  0.00    +0.000 OA
ATOM     18  H43 UNL     1      29.715 -10.606 -33.224  0.00  0.00    +0.000 HD
ENDBRANCH  16  17
BRANCH  15  19
ATOM     19  O17 UNL     1      28.697  -7.014 -31.481  0.00  0.00    +0.000 OA
ATOM     20  H41 UNL     1      29.672  -7.108 -31.329  0.00  0.00    +0.000 HD
ENDBRANCH  15  19
BRANCH  14  21
ATOM     21  O16 UNL     1      25.992  -7.397 -32.449  0.00  0.00    +0.000 OA
ATOM     22  H39 UNL     1      25.902  -6.410 -32.402  0.00  0.00    +0.000 HD
ENDBRANCH  14  21
BRANCH  13  23
ATOM     23  C22 UNL     1      25.492  -9.306 -34.509  0.00  0.00    +0.000 C 
BRANCH  23  24
ATOM     24  O15 UNL     1      25.484 -10.701 -34.377  0.00  0.00    +0.000 OA
ATOM     25  H37 UNL     1      25.637 -11.068 -35.288  0.00  0.00    +0.000 HD
ENDBRANCH  23  24
ENDBRANCH  13  23
ENDBRANCH   9  11
ENDBRANCH   8   9
BRANCH   7  26
ATOM     26  O14 UNL     1      33.160 -10.306 -36.569  0.00  0.00    +0.000 OA
ATOM     27  H30 UNL     1      33.646  -9.521 -36.204  0.00  0.00    +0.000 HD
ENDBRANCH   7  26
BRANCH   6  28
ATOM     28  O13 UNL     1      33.017  -9.961 -39.363  0.00  0.00    +0.000 OA
ATOM     29  H28 UNL     1      33.242 -10.795 -38.876  0.00  0.00    +0.000 HD
ENDBRANCH   6  28
ENDBRANCH   1   5
BRANCH   1  30
ATOM     30  C4  UNL     1      29.294  -9.034 -40.603  0.00  0.00    +0.000 C 
ATOM     31  C5  UNL     1      29.413  -8.273 -41.935  0.00  0.00    +0.000 C 
ATOM     32  C6  UNL     1      28.017  -7.940 -42.504  0.00  0.00    +0.000 C 
ATOM     33  C7  UNL     1      27.002  -9.053 -42.148  0.00  0.00    +0.000 C 
ATOM     34  O11 UNL     1      27.659 -10.303 -42.005  0.00  0.00    +0.000 OA
ATOM     35  C14 UNL     1      28.483 -10.345 -40.841  0.00  0.00    +0.000 C 
BRANCH  32  36
ATOM     36  O4  UNL     1      28.104  -7.778 -43.898  0.00  0.00    +0.000 OA
ATOM     37  H10 UNL     1      29.014  -8.076 -44.164  0.00  0.00    +0.000 HD
ENDBRANCH  32  36
BRANCH  31  38
ATOM     38  O3  UNL     1      30.184  -7.107 -41.789  0.00  0.00    +0.000 OA
ATOM     39  H8  UNL     1      31.137  -7.363 -41.883  0.00  0.00    +0.000 HD
ENDBRANCH  31  38
BRANCH  35  40
ATOM     40  C15 UNL     1      27.665 -10.762 -39.601  0.00  0.00    +0.000 C 
BRANCH  40  41
ATOM     41  O12 UNL     1      28.469 -10.737 -38.452  0.00  0.00    +0.000 OA
ATOM     42  H26 UNL     1      28.727  -9.788 -38.307  0.00  0.00    +0.000 HD
ENDBRANCH  40  41
ENDBRANCH  35  40
BRANCH  33  43
ATOM     43  O5  UNL     1      26.031  -9.146 -43.175  0.00  0.00    +0.000 OA
BRANCH  43  44
ATOM     44  C8  UNL     1      25.032  -8.144 -43.048  0.00  0.00    +0.000 C 
ATOM     45  C9  UNL     1      24.467  -7.800 -44.439  0.00  0.00    +0.000 C 
ATOM     46  C10 UNL     1      23.359  -6.741 -44.308  0.00  0.00    +0.000 C 
ATOM     47  C11 UNL     1      22.541  -6.941 -43.003  0.00  0.00    +0.000 C 
ATOM     48  O9  UNL     1      22.575  -8.291 -42.572  0.00  0.00    +0.000 OA
ATOM     49  C12 UNL     1      23.881  -8.696 -42.158  0.00  0.00    +0.000 C 
BRANCH  47  50
ATOM     50  O8  UNL     1      21.206  -6.531 -43.161  0.00  0.00    +0.000 OA
ATOM     51  H18 UNL     1      20.827  -6.403 -42.250  0.00  0.00    +0.000 HD
ENDBRANCH  47  50
BRANCH  46  52
ATOM     52  O7  UNL     1      22.534  -6.800 -45.448  0.00  0.00    +0.000 OA
ATOM     53  H16 UNL     1      21.781  -6.171 -45.300  0.00  0.00    +0.000 HD
ENDBRANCH  46  52
BRANCH  45  54
ATOM     54  O6  UNL     1      25.481  -7.298 -45.274  0.00  0.00    +0.000 OA
ATOM     55  H14 UNL     1      25.029  -6.836 -46.026  0.00  0.00    +0.000 HD
ENDBRANCH  45  54
BRANCH  49  56
ATOM     56  C13 UNL     1      24.110  -8.378 -40.673  0.00  0.00    +0.000 C 
BRANCH  56  57
ATOM     57  O10 UNL     1      24.221  -9.570 -39.939  0.00  0.00    +0.000 OA
ATOM     58  H22 UNL     1      23.654  -9.474 -39.129  0.00  0.00    +0.000 HD
ENDBRANCH  56  57
ENDBRANCH  49  56
ENDBRANCH  43  44
ENDBRANCH  33  43
ENDBRANCH   1  30
TORSDOF 22
ENDMDL
MODEL 3
REMARK VINA RESULT:    -5.345      3.247      9.738
REMARK INTER + INTRA:         -12.634
REMARK INTER:                  -8.782
REMARK INTRA:                  -3.853
REMARK UNBOUND:                -2.446
REMARK  Name = resultss/4CJN/ligands/lig_444_t0.pdb
REMARK  23 active torsions:
REMARK  status: ('A' for Active; 'I' for Inactive)
REMARK    1  A    between atoms: C1_1  and  C2_2
REMARK    2  A    between atoms: C3_4  and  O2_5
REMARK    3  A    between atoms: O2_5  and  C4_6
REMARK    4  A    between atoms: C5_7  and  O3_8
REMARK    5  A    between atoms: C6_9  and  O4_10
REMARK    6  A    between atoms: C7_11  and  O5_12
REMARK    7  A    between atoms: O5_12  and  C8_13
REMARK    8  A    between atoms: C9_14  and  O6_15
REMARK    9  A    between atoms: C10_16  and  O7_17
REMARK   10  A    between atoms: C11_18  and  O8_19
REMARK   11  A    between atoms: C12_21  and  C13_22
REMARK   12  A    between atoms: C13_22  and  O10_23
REMARK   13  A    between atoms: C14_25  and  C15_26
REMARK   14  A    between atoms: C15_26  and  O12_27
REMARK   15  A    between atoms: C16_28  and  O13_29
REMARK   16  A    between atoms: C17_30  and  O14_31
REMARK   17  A    between atoms: C18_32  and  N1_33
REMARK   18  A    between atoms: N1_33  and  C19_34
REMARK   19  A    between atoms: C21_36  and  C22_37
REMARK   20  A    between atoms: C22_37  and  O15_38
REMARK   21  A    between atoms: C23_39  and  O16_40
REMARK   22  A    between atoms: C24_41  and  O17_42
REMARK   23  A    between atoms: C25_43  and  O18_44
REMARK                            x       y       z     vdW  Elec       q    Type
REMARK                         _______ _______ _______ _____ _____    ______ ____
ROOT
ATOM      1  O2  UNL     1      24.893  -8.466 -38.790  0.00  0.00    +0.000 OA
ENDROOT
BRANCH   1   5
ATOM      2  C1  UNL     1      24.137  -5.908 -42.196  0.00  0.00    +0.000 C 
ATOM      3  C2  UNL     1      25.474  -6.471 -41.683  0.00  0.00    +0.000 C 
ATOM      4  O1  UNL     1      25.426  -6.851 -40.316  0.00  0.00    +0.000 OA
ATOM      5  C3  UNL     1      24.520  -7.913 -40.044  0.00  0.00    +0.000 C 
ATOM      6  C16 UNL     1      24.553  -9.036 -41.121  0.00  0.00    +0.000 C 
ATOM      7  C17 UNL     1      25.863  -9.002 -41.929  0.00  0.00    +0.000 C 
ATOM      8  C18 UNL     1      26.070  -7.604 -42.576  0.00  0.00    +0.000 C 
BRANCH   8   9
ATOM      9  N1  UNL     1      27.503  -7.305 -42.816  0.00  0.00    +0.000 NA
ATOM     10  H32 UNL     1      27.671  -6.302 -42.565  0.00  0.00    +0.000 HD
BRANCH   9  11
ATOM     11  C19 UNL     1      28.469  -8.136 -42.067  0.00  0.00    +0.000 C 
ATOM     12  C20 UNL     1      29.245  -9.072 -42.969  0.00  0.00    +0.000 C 
ATOM     13  C21 UNL     1      30.283  -9.765 -42.464  0.00  0.00    +0.000 C 
ATOM     14  C23 UNL     1      30.656  -9.529 -41.006  0.00  0.00    +0.000 C 
ATOM     15  C24 UNL     1      30.714  -8.006 -40.728  0.00  0.00    +0.000 C 
ATOM     16  C25 UNL     1      29.466  -7.233 -41.283  0.00  0.00    +0.000 C 
BRANCH  16  17
ATOM     17  O18 UNL     1      29.883  -6.140 -42.067  0.00  0.00    +0.000 OA
ATOM     18  H43 UNL     1      30.535  -5.619 -41.530  0.00  0.00    +0.000 HD
ENDBRANCH  16  17
BRANCH  15  19
ATOM     19  O17 UNL     1      30.829  -7.795 -39.343  0.00  0.00    +0.000 OA
ATOM     20  H41 UNL     1      29.925  -7.551 -39.015  0.00  0.00    +0.000 HD
ENDBRANCH  15  19
BRANCH  14  21
ATOM     21  O16 UNL     1      31.889 -10.127 -40.698  0.00  0.00    +0.000 OA
ATOM     22  H39 UNL     1      32.270  -9.629 -39.928  0.00  0.00    +0.000 HD
ENDBRANCH  14  21
BRANCH  13  23
ATOM     23  C22 UNL     1      31.064 -10.698 -43.368  0.00  0.00    +0.000 C 
BRANCH  23  24
ATOM     24  O15 UNL     1      31.143 -11.975 -42.795  0.00  0.00    +0.000 OA
ATOM     25  H37 UNL     1      30.310 -12.449 -43.056  0.00  0.00    +0.000 HD
ENDBRANCH  23  24
ENDBRANCH  13  23
ENDBRANCH   9  11
ENDBRANCH   8   9
BRANCH   7  26
ATOM     26  O14 UNL     1      25.801  -9.980 -42.935  0.00  0.00    +0.000 OA
ATOM     27  H30 UNL     1      26.060 -10.844 -42.523  0.00  0.00    +0.000 HD
ENDBRANCH   7  26
BRANCH   6  28
ATOM     28  O13 UNL     1      24.324 -10.305 -40.556  0.00  0.00    +0.000 OA
ATOM     29  H28 UNL     1      25.175 -10.813 -40.588  0.00  0.00    +0.000 HD
ENDBRANCH   6  28
ENDBRANCH   1   5
BRANCH   1  30
ATOM     30  C4  UNL     1      26.046  -7.864 -38.223  0.00  0.00    +0.000 C 
ATOM     31  C5  UNL     1      25.589  -6.920 -37.096  0.00  0.00    +0.000 C 
ATOM     32  C6  UNL     1      26.803  -6.262 -36.405  0.00  0.00    +0.000 C 
ATOM     33  C7  UNL     1      28.012  -7.229 -36.385  0.00  0.00    +0.000 C 
ATOM     34  O11 UNL     1      27.573  -8.579 -36.377  0.00  0.00    +0.000 OA
ATOM     35  C14 UNL     1      26.979  -8.958 -37.618  0.00  0.00    +0.000 C 
BRANCH  32  36
ATOM     36  O4  UNL     1      26.452  -5.884 -35.097  0.00  0.00    +0.000 OA
ATOM     37  H10 UNL     1      26.599  -4.903 -35.035  0.00  0.00    +0.000 HD
ENDBRANCH  32  36
BRANCH  31  38
ATOM     38  O3  UNL     1      24.699  -5.945 -37.577  0.00  0.00    +0.000 OA
ATOM     39  H8  UNL     1      23.810  -6.128 -37.179  0.00  0.00    +0.000 HD
ENDBRANCH  31  38
BRANCH  35  40
ATOM     40  C15 UNL     1      28.052  -9.433 -38.620  0.00  0.00    +0.000 C 
BRANCH  40  41
ATOM     41  O12 UNL     1      28.767 -10.519 -38.094  0.00  0.00    +0.000 OA
ATOM     42  H26 UNL     1      28.475 -11.322 -38.600  0.00  0.00    +0.000 HD
ENDBRANCH  40  41
ENDBRANCH  35  40
BRANCH  33  43
ATOM     43  O5  UNL     1      28.791  -6.980 -35.230  0.00  0.00    +0.000 OA
BRANCH  43  44
ATOM     44  C8  UNL     1      29.113  -8.181 -34.542  0.00  0.00    +0.000 C 
ATOM     45  C9  UNL     1      30.546  -8.614 -34.904  0.00  0.00    +0.000 C 
ATOM     46  C10 UNL     1      30.917  -9.895 -34.135  0.00  0.00    +0.000 C 
ATOM     47  C11 UNL     1      30.280  -9.905 -32.719  0.00  0.00    +0.000 C 
ATOM     48  O9  UNL     1      30.041  -8.590 -32.249  0.00  0.00    +0.000 OA
ATOM     49  C12 UNL     1      29.039  -7.914 -33.010  0.00  0.00    +0.000 C 
BRANCH  47  50
ATOM     50  O8  UNL     1      31.082 -10.597 -31.796  0.00  0.00    +0.000 OA
ATOM     51  H18 UNL     1      30.481 -10.932 -31.076  0.00  0.00    +0.000 HD
ENDBRANCH  47  50
BRANCH  46  52
ATOM     52  O7  UNL     1      32.320  -9.997 -34.070  0.00  0.00    +0.000 OA
ATOM     53  H16 UNL     1      32.674  -9.088 -33.886  0.00  0.00    +0.000 HD
ENDBRANCH  46  52
BRANCH  45  54
ATOM     54  O6  UNL     1      30.653  -8.864 -36.284  0.00  0.00    +0.000 OA
ATOM     55  H14 UNL     1      30.441  -9.824 -36.417  0.00  0.00    +0.000 HD
ENDBRANCH  45  54
BRANCH  49  56
ATOM     56  C13 UNL     1      27.637  -8.202 -32.453  0.00  0.00    +0.000 C 
BRANCH  56  57
ATOM     57  O10 UNL     1      26.751  -8.482 -33.507  0.00  0.00    +0.000 OA
ATOM     58  H22 UNL     1      27.286  -8.872 -34.248  0.00  0.00    +0.000 HD
ENDBRANCH  56  57
ENDBRANCH  49  56
ENDBRANCH  43  44
ENDBRANCH  33  43
ENDBRANCH   1  30
TORSDOF 22
ENDMDL
MODEL 4
REMARK VINA RESULT:    -5.342      2.410      4.683
REMARK INTER + INTRA:         -12.628
REMARK INTER:                 -10.049
REMARK INTRA:                  -2.578
REMARK UNBOUND:                -2.446
REMARK  Name = resultss/4CJN/ligands/lig_444_t0.pdb
REMARK  23 active torsions:
REMARK  status: ('A' for Active; 'I' for Inactive)
REMARK    1  A    between atoms: C1_1  and  C2_2
REMARK    2  A    between atoms: C3_4  and  O2_5
REMARK    3  A    between atoms: O2_5  and  C4_6
REMARK    4  A    between atoms: C5_7  and  O3_8
REMARK    5  A    between atoms: C6_9  and  O4_10
REMARK    6  A    between atoms: C7_11  and  O5_12
REMARK    7  A    between atoms: O5_12  and  C8_13
REMARK    8  A    between atoms: C9_14  and  O6_15
REMARK    9  A    between atoms: C10_16  and  O7_17
REMARK   10  A    between atoms: C11_18  and  O8_19
REMARK   11  A    between atoms: C12_21  and  C13_22
REMARK   12  A    between atoms: C13_22  and  O10_23
REMARK   13  A    between atoms: C14_25  and  C15_26
REMARK   14  A    between atoms: C15_26  and  O12_27
REMARK   15  A    between atoms: C16_28  and  O13_29
REMARK   16  A    between atoms: C17_30  and  O14_31
REMARK   17  A    between atoms: C18_32  and  N1_33
REMARK   18  A    between atoms: N1_33  and  C19_34
REMARK   19  A    between atoms: C21_36  and  C22_37
REMARK   20  A    between atoms: C22_37  and  O15_38
REMARK   21  A    between atoms: C23_39  and  O16_40
REMARK   22  A    between atoms: C24_41  and  O17_42
REMARK   23  A    between atoms: C25_43  and  O18_44
REMARK                            x       y       z     vdW  Elec       q    Type
REMARK                         _______ _______ _______ _____ _____    ______ ____
ROOT
ATOM      1  O2  UNL     1      27.282  -7.640 -37.966  0.00  0.00    +0.000 OA
ENDROOT
BRANCH   1   5
ATOM      2  C1  UNL     1      30.907  -9.994 -37.801  0.00  0.00    +0.000 C 
ATOM      3  C2  UNL     1      30.447  -8.855 -36.875  0.00  0.00    +0.000 C 
ATOM      4  O1  UNL     1      29.484  -8.005 -37.480  0.00  0.00    +0.000 OA
ATOM      5  C3  UNL     1      28.261  -8.655 -37.800  0.00  0.00    +0.000 C 
ATOM      6  C16 UNL     1      27.783  -9.640 -36.693  0.00  0.00    +0.000 C 
ATOM      7  C17 UNL     1      28.438  -9.323 -35.337  0.00  0.00    +0.000 C 
ATOM      8  C18 UNL     1      29.987  -9.334 -35.461  0.00  0.00    +0.000 C 
BRANCH   8   9
ATOM      9  N1  UNL     1      30.638  -8.474 -34.443  0.00  0.00    +0.000 NA
ATOM     10  H32 UNL     1      29.903  -8.162 -33.765  0.00  0.00    +0.000 HD
BRANCH   9  11
ATOM     11  C19 UNL     1      31.735  -9.102 -33.676  0.00  0.00    +0.000 C 
ATOM     12  C20 UNL     1      32.408  -8.128 -32.732  0.00  0.00    +0.000 C 
ATOM     13  C21 UNL     1      33.305  -8.587 -31.839  0.00  0.00    +0.000 C 
ATOM     14  C23 UNL     1      33.561 -10.089 -31.794  0.00  0.00    +0.000 C 
ATOM     15  C24 UNL     1      32.207 -10.843 -31.780  0.00  0.00    +0.000 C 
ATOM     16  C25 UNL     1      31.203 -10.319 -32.865  0.00  0.00    +0.000 C 
BRANCH  16  17
ATOM     17  O18 UNL     1      29.958 -10.027 -32.273  0.00  0.00    +0.000 OA
ATOM     18  H43 UNL     1      30.051 -10.176 -31.296  0.00  0.00    +0.000 HD
ENDBRANCH  16  17
BRANCH  15  19
ATOM     19  O17 UNL     1      32.444 -12.215 -31.971  0.00  0.00    +0.000 OA
ATOM     20  H41 UNL     1      33.382 -12.303 -32.282  0.00  0.00    +0.000 HD
ENDBRANCH  15  19
BRANCH  14  21
ATOM     21  O16 UNL     1      34.323 -10.436 -30.667  0.00  0.00    +0.000 OA
ATOM     22  H39 UNL     1      34.695 -11.341 -30.834  0.00  0.00    +0.000 HD
ENDBRANCH  14  21
BRANCH  13  23
ATOM     23  C22 UNL     1      33.975  -7.614 -30.890  0.00  0.00    +0.000 C 
BRANCH  23  24
ATOM     24  O15 UNL     1      33.598  -7.889 -29.568  0.00  0.00    +0.000 OA
ATOM     25  H37 UNL     1      33.149  -8.776 -29.586  0.00  0.00    +0.000 HD
ENDBRANCH  23  24
ENDBRANCH  13  23
ENDBRANCH   9  11
ENDBRANCH   8   9
BRANCH   7  26
ATOM     26  O14 UNL     1      28.036 -10.289 -34.402  0.00  0.00    +0.000 OA
ATOM     27  H30 UNL     1      27.352 -10.858 -34.841  0.00  0.00    +0.000 HD
ENDBRANCH   7  26
BRANCH   6  28
ATOM     28  O13 UNL     1      26.379  -9.674 -36.598  0.00  0.00    +0.000 OA
ATOM     29  H28 UNL     1      26.050 -10.401 -37.186  0.00  0.00    +0.000 HD
ENDBRANCH   6  28
ENDBRANCH   1   5
BRANCH   1  30
ATOM     30  C4  UNL     1      26.887  -7.447 -39.316  0.00  0.00    +0.000 C 
ATOM     31  C5  UNL     1      28.142  -7.109 -40.140  0.00  0.00    +0.000 C 
ATOM     32  C6  UNL     1      27.787  -6.928 -41.632  0.00  0.00    +0.000 C 
ATOM     33  C7  UNL     1      26.626  -7.868 -42.036  0.00  0.00    +0.000 C 
ATOM     34  O11 UNL     1      26.623  -9.035 -41.229  0.00  0.00    +0.000 OA
ATOM     35  C14 UNL     1      26.249  -8.754 -39.881  0.00  0.00    +0.000 C 
BRANCH  32  36
ATOM     36  O4  UNL     1      28.924  -7.180 -42.420  0.00  0.00    +0.000 OA
ATOM     37  H10 UNL     1      29.573  -6.453 -42.226  0.00  0.00    +0.000 HD
ENDBRANCH  32  36
BRANCH  31  38
ATOM     38  O3  UNL     1      28.789  -5.967 -39.638  0.00  0.00    +0.000 OA
ATOM     39  H8  UNL     1      29.747  -6.033 -39.884  0.00  0.00    +0.000 HD
ENDBRANCH  31  38
BRANCH  35  40
ATOM     40  C15 UNL     1      24.715  -8.775 -39.718  0.00  0.00    +0.000 C 
BRANCH  40  41
ATOM     41  O12 UNL     1      24.365  -8.710 -38.361  0.00  0.00    +0.000 OA
ATOM     42  H26 UNL     1      24.716  -7.846 -38.019  0.00  0.00    +0.000 HD
ENDBRANCH  40  41
ENDBRANCH  35  40
BRANCH  33  43
ATOM     43  O5  UNL     1      26.773  -8.236 -43.395  0.00  0.00    +0.000 OA
BRANCH  43  44
ATOM     44  C8  UNL     1      26.120  -7.321 -44.263  0.00  0.00    +0.000 C 
ATOM     45  C9  UNL     1      26.949  -7.146 -45.548  0.00  0.00    +0.000 C 
ATOM     46  C10 UNL     1      26.231  -6.184 -46.511  0.00  0.00    +0.000 C 
ATOM     47  C11 UNL     1      24.689  -6.348 -46.423  0.00  0.00    +0.000 C 
ATOM     48  O9  UNL     1      24.330  -7.648 -45.989  0.00  0.00    +0.000 OA
ATOM     49  C12 UNL     1      24.723  -7.899 -44.638  0.00  0.00    +0.000 C 
BRANCH  47  50
ATOM     50  O8  UNL     1      24.068  -6.074 -47.653  0.00  0.00    +0.000 OA
ATOM     51  H18 UNL     1      23.252  -5.539 -47.459  0.00  0.00    +0.000 HD
ENDBRANCH  47  50
BRANCH  46  52
ATOM     52  O7  UNL     1      26.700  -6.412 -47.819  0.00  0.00    +0.000 OA
ATOM     53  H16 UNL     1      27.628  -6.756 -47.743  0.00  0.00    +0.000 HD
ENDBRANCH  46  52
BRANCH  45  54
ATOM     54  O6  UNL     1      28.221  -6.626 -45.249  0.00  0.00    +0.000 OA
ATOM     55  H14 UNL     1      28.412  -6.866 -44.305  0.00  0.00    +0.000 HD
ENDBRANCH  45  54
BRANCH  49  56
ATOM     56  C13 UNL     1      23.637  -7.438 -43.655  0.00  0.00    +0.000 C 
BRANCH  56  57
ATOM     57  O10 UNL     1      22.372  -7.840 -44.117  0.00  0.00    +0.000 OA
ATOM     58  H22 UNL     1      21.875  -8.206 -43.339  0.00  0.00    +0.000 HD
ENDBRANCH  56  57
ENDBRANCH  49  56
ENDBRANCH  43  44
ENDBRANCH  33  43
ENDBRANCH   1  30
TORSDOF 22
ENDMDL
MODEL 5
REMARK VINA RESULT:    -4.936      2.752      5.066
REMARK INTER + INTRA:         -11.854
REMARK INTER:                 -10.004
REMARK INTRA:                  -1.850
REMARK UNBOUND:                -2.446
REMARK  Name = resultss/4CJN/ligands/lig_444_t0.pdb
REMARK  23 active torsions:
REMARK  status: ('A' for Active; 'I' for Inactive)
REMARK    1  A    between atoms: C1_1  and  C2_2
REMARK    2  A    between atoms: C3_4  and  O2_5
REMARK    3  A    between atoms: O2_5  and  C4_6
REMARK    4  A    between atoms: C5_7  and  O3_8
REMARK    5  A    between atoms: C6_9  and  O4_10
REMARK    6  A    between atoms: C7_11  and  O5_12
REMARK    7  A    between atoms: O5_12  and  C8_13
REMARK    8  A    between atoms: C9_14  and  O6_15
REMARK    9  A    between atoms: C10_16  and  O7_17
REMARK   10  A    between atoms: C11_18  and  O8_19
REMARK   11  A    between atoms: C12_21  and  C13_22
REMARK   12  A    between atoms: C13_22  and  O10_23
REMARK   13  A    between atoms: C14_25  and  C15_26
REMARK   14  A    between atoms: C15_26  and  O12_27
REMARK   15  A    between atoms: C16_28  and  O13_29
REMARK   16  A    between atoms: C17_30  and  O14_31
REMARK   17  A    between atoms: C18_32  and  N1_33
REMARK   18  A    between atoms: N1_33  and  C19_34
REMARK   19  A    between atoms: C21_36  and  C22_37
REMARK   20  A    between atoms: C22_37  and  O15_38
REMARK   21  A    between atoms: C23_39  and  O16_40
REMARK   22  A    between atoms: C24_41  and  O17_42
REMARK   23  A    between atoms: C25_43  and  O18_44
REMARK                            x       y       z     vdW  Elec       q    Type
REMARK                         _______ _______ _______ _____ _____    ______ ____
ROOT
ATOM      1  O2  UNL     1      27.207  -6.498 -37.476  0.00  0.00    +0.000 OA
ENDROOT
BRANCH   1   5
ATOM      2  C1  UNL     1      29.653 -10.013 -36.866  0.00  0.00    +0.000 C 
ATOM      3  C2  UNL     1      29.801  -8.610 -36.253  0.00  0.00    +0.000 C 
ATOM      4  O1  UNL     1      29.153  -7.602 -37.015  0.00  0.00    +0.000 OA
ATOM      5  C3  UNL     1      27.742  -7.757 -37.094  0.00  0.00    +0.000 C 
ATOM      6  C16 UNL     1      27.097  -8.191 -35.746  0.00  0.00    +0.000 C 
ATOM      7  C17 UNL     1      28.016  -7.871 -34.554  0.00  0.00    +0.000 C 
ATOM      8  C18 UNL     1      29.410  -8.533 -34.743  0.00  0.00    +0.000 C 
BRANCH   8   9
ATOM      9  N1  UNL     1      30.480  -7.806 -34.019  0.00  0.00    +0.000 NA
ATOM     10  H32 UNL     1      30.029  -7.215 -33.282  0.00  0.00    +0.000 HD
BRANCH   9  11
ATOM     11  C19 UNL     1      31.507  -8.649 -33.371  0.00  0.00    +0.000 C 
ATOM     12  C20 UNL     1      32.267  -7.904 -32.293  0.00  0.00    +0.000 C 
ATOM     13  C21 UNL     1      33.110  -8.582 -31.492  0.00  0.00    +0.000 C 
ATOM     14  C23 UNL     1      33.217 -10.090 -31.683  0.00  0.00    +0.000 C 
ATOM     15  C24 UNL     1      31.796 -10.701 -31.773  0.00  0.00    +0.000 C 
ATOM     16  C25 UNL     1      30.853  -9.920 -32.753  0.00  0.00    +0.000 C 
BRANCH  16  17
ATOM     17  O18 UNL     1      29.641  -9.603 -32.110  0.00  0.00    +0.000 OA
ATOM     18  H43 UNL     1      29.807  -9.627 -31.132  0.00  0.00    +0.000 HD
ENDBRANCH  16  17
BRANCH  15  19
ATOM     19  O17 UNL     1      31.898 -12.044 -32.177  0.00  0.00    +0.000 OA
ATOM     20  H41 UNL     1      32.547 -12.068 -32.926  0.00  0.00    +0.000 HD
ENDBRANCH  15  19
BRANCH  14  21
ATOM     21  O16 UNL     1      33.936 -10.681 -30.632  0.00  0.00    +0.000 OA
ATOM     22  H39 UNL     1      34.216  -9.948 -30.023  0.00  0.00    +0.000 HD
ENDBRANCH  14  21
BRANCH  13  23
ATOM     23  C22 UNL     1      33.867  -7.838 -30.410  0.00  0.00    +0.000 C 
BRANCH  23  24
ATOM     24  O15 UNL     1      33.607  -8.409 -29.157  0.00  0.00    +0.000 OA
ATOM     25  H37 UNL     1      32.845  -9.033 -29.289  0.00  0.00    +0.000 HD
ENDBRANCH  23  24
ENDBRANCH  13  23
ENDBRANCH   9  11
ENDBRANCH   8   9
BRANCH   7  26
ATOM     26  O14 UNL     1      27.422  -8.357 -33.378  0.00  0.00    +0.000 OA
ATOM     27  H30 UNL     1      27.413  -7.612 -32.723  0.00  0.00    +0.000 HD
ENDBRANCH   7  26
BRANCH   6  28
ATOM     28  O13 UNL     1      25.816  -7.632 -35.579  0.00  0.00    +0.000 OA
ATOM     29  H28 UNL     1      25.648  -7.019 -36.340  0.00  0.00    +0.000 HD
ENDBRANCH   6  28
ENDBRANCH   1   5
BRANCH   1  30
ATOM     30  C4  UNL     1      26.502  -6.530 -38.708  0.00  0.00    +0.000 C 
ATOM     31  C5  UNL     1      27.227  -7.506 -39.651  0.00  0.00    +0.000 C 
ATOM     32  C6  UNL     1      26.484  -7.621 -41.000  0.00  0.00    +0.000 C 
ATOM     33  C7  UNL     1      24.956  -7.475 -40.797  0.00  0.00    +0.000 C 
ATOM     34  O11 UNL     1      24.579  -7.917 -39.502  0.00  0.00    +0.000 OA
ATOM     35  C14 UNL     1      25.045  -7.039 -38.479  0.00  0.00    +0.000 C 
BRANCH  32  36
ATOM     36  O4  UNL     1      26.787  -8.856 -41.600  0.00  0.00    +0.000 OA
ATOM     37  H10 UNL     1      25.918  -9.282 -41.830  0.00  0.00    +0.000 HD
ENDBRANCH  32  36
BRANCH  31  38
ATOM     38  O3  UNL     1      28.565  -7.124 -39.849  0.00  0.00    +0.000 OA
ATOM     39  H8  UNL     1      29.133  -7.914 -39.660  0.00  0.00    +0.000 HD
ENDBRANCH  31  38
BRANCH  35  40
ATOM     40  C15 UNL     1      24.050  -5.883 -38.249  0.00  0.00    +0.000 C 
BRANCH  40  41
ATOM     41  O12 UNL     1      22.807  -6.381 -37.833  0.00  0.00    +0.000 OA
ATOM     42  H26 UNL     1      22.657  -7.226 -38.335  0.00  0.00    +0.000 HD
ENDBRANCH  40  41
ENDBRANCH  35  40
BRANCH  33  43
ATOM     43  O5  UNL     1      24.279  -8.245 -41.773  0.00  0.00    +0.000 OA
BRANCH  43  44
ATOM     44  C8  UNL     1      23.790  -7.437 -42.835  0.00  0.00    +0.000 C 
ATOM     45  C9  UNL     1      24.301  -7.987 -44.179  0.00  0.00    +0.000 C 
ATOM     46  C10 UNL     1      23.746  -7.140 -45.339  0.00  0.00    +0.000 C 
ATOM     47  C11 UNL     1      22.308  -6.641 -45.032  0.00  0.00    +0.000 C 
ATOM     48  O9  UNL     1      21.642  -7.504 -44.126  0.00  0.00    +0.000 OA
ATOM     49  C12 UNL     1      22.234  -7.490 -42.826  0.00  0.00    +0.000 C 
BRANCH  47  50
ATOM     50  O8  UNL     1      21.545  -6.509 -46.205  0.00  0.00    +0.000 OA
ATOM     51  H18 UNL     1      21.054  -7.365 -46.334  0.00  0.00    +0.000 HD
ENDBRANCH  47  50
BRANCH  46  52
ATOM     52  O7  UNL     1      23.786  -7.903 -46.521  0.00  0.00    +0.000 OA
ATOM     53  H16 UNL     1      23.717  -8.858 -46.258  0.00  0.00    +0.000 HD
ENDBRANCH  46  52
BRANCH  45  54
ATOM     54  O6  UNL     1      25.706  -7.957 -44.224  0.00  0.00    +0.000 OA
ATOM     55  H14 UNL     1      26.012  -7.621 -43.341  0.00  0.00    +0.000 HD
ENDBRANCH  45  54
BRANCH  49  56
ATOM     56  C13 UNL     1      21.635  -6.371 -41.961  0.00  0.00    +0.000 C 
BRANCH  56  57
ATOM     57  O10 UNL     1      21.814  -6.671 -40.600  0.00  0.00    +0.000 OA
ATOM     58  H22 UNL     1      20.972  -7.083 -40.274  0.00  0.00    +0.000 HD
ENDBRANCH  56  57
ENDBRANCH  49  56
ENDBRANCH  43  44
ENDBRANCH  33  43
ENDBRANCH   1  30
TORSDOF 22
ENDMDL
MODEL 6
REMARK VINA RESULT:    -4.922      2.153      4.520
REMARK INTER + INTRA:         -11.827
REMARK INTER:                  -9.508
REMARK INTRA:                  -2.319
REMARK UNBOUND:                -2.446
REMARK  Name = resultss/4CJN/ligands/lig_444_t0.pdb
REMARK  23 active torsions:
REMARK  status: ('A' for Active; 'I' for Inactive)
REMARK    1  A    between atoms: C1_1  and  C2_2
REMARK    2  A    between atoms: C3_4  and  O2_5
REMARK    3  A    between atoms: O2_5  and  C4_6
REMARK    4  A    between atoms: C5_7  and  O3_8
REMARK    5  A    between atoms: C6_9  and  O4_10
REMARK    6  A    between atoms: C7_11  and  O5_12
REMARK    7  A    between atoms: O5_12  and  C8_13
REMARK    8  A    between atoms: C9_14  and  O6_15
REMARK    9  A    between atoms: C10_16  and  O7_17
REMARK   10  A    between atoms: C11_18  and  O8_19
REMARK   11  A    between atoms: C12_21  and  C13_22
REMARK   12  A    between atoms: C13_22  and  O10_23
REMARK   13  A    between atoms: C14_25  and  C15_26
REMARK   14  A    between atoms: C15_26  and  O12_27
REMARK   15  A    between atoms: C16_28  and  O13_29
REMARK   16  A    between atoms: C17_30  and  O14_31
REMARK   17  A    between atoms: C18_32  and  N1_33
REMARK   18  A    between atoms: N1_33  and  C19_34
REMARK   19  A    between atoms: C21_36  and  C22_37
REMARK   20  A    between atoms: C22_37  and  O15_38
REMARK   21  A    between atoms: C23_39  and  O16_40
REMARK   22  A    between atoms: C24_41  and  O17_42
REMARK   23  A    between atoms: C25_43  and  O18_44
REMARK                            x       y       z     vdW  Elec       q    Type
REMARK                         _______ _______ _______ _____ _____    ______ ____
ROOT
ATOM      1  O2  UNL     1      26.025  -6.893 -38.852  0.00  0.00    +0.000 OA
ENDROOT
BRANCH   1   5
ATOM      2  C1  UNL     1      28.018 -10.569 -37.744  0.00  0.00    +0.000 C 
ATOM      3  C2  UNL     1      27.974  -9.226 -36.996  0.00  0.00    +0.000 C 
ATOM      4  O1  UNL     1      27.659  -8.131 -37.843  0.00  0.00    +0.000 OA
ATOM      5  C3  UNL     1      26.363  -8.203 -38.421  0.00  0.00    +0.000 C 
ATOM      6  C16 UNL     1      25.275  -8.702 -37.425  0.00  0.00    +0.000 C 
ATOM      7  C17 UNL     1      25.725  -8.521 -35.964  0.00  0.00    +0.000 C 
ATOM      8  C18 UNL     1      27.080  -9.242 -35.716  0.00  0.00    +0.000 C 
BRANCH   8   9
ATOM      9  N1  UNL     1      27.846  -8.628 -34.604  0.00  0.00    +0.000 NA
ATOM     10  H32 UNL     1      27.377  -8.890 -33.705  0.00  0.00    +0.000 HD
BRANCH   9  11
ATOM     11  C19 UNL     1      29.270  -9.016 -34.512  0.00  0.00    +0.000 C 
ATOM     12  C20 UNL     1      30.201  -7.841 -34.724  0.00  0.00    +0.000 C 
ATOM     13  C21 UNL     1      31.519  -7.994 -34.497  0.00  0.00    +0.000 C 
ATOM     14  C23 UNL     1      32.001  -9.345 -33.983  0.00  0.00    +0.000 C 
ATOM     15  C24 UNL     1      31.097  -9.806 -32.812  0.00  0.00    +0.000 C 
ATOM     16  C25 UNL     1      29.566  -9.663 -33.127  0.00  0.00    +0.000 C 
BRANCH  16  17
ATOM     17  O18 UNL     1      28.922  -8.959 -32.091  0.00  0.00    +0.000 OA
ATOM     18  H43 UNL     1      29.395  -8.094 -31.980  0.00  0.00    +0.000 HD
ENDBRANCH  16  17
BRANCH  15  19
ATOM     19  O17 UNL     1      31.397 -11.142 -32.497  0.00  0.00    +0.000 OA
ATOM     20  H41 UNL     1      30.607 -11.681 -32.760  0.00  0.00    +0.000 HD
ENDBRANCH  15  19
BRANCH  14  21
ATOM     21  O16 UNL     1      33.340  -9.277 -33.566  0.00  0.00    +0.000 OA
ATOM     22  H39 UNL     1      33.788  -8.597 -34.135  0.00  0.00    +0.000 HD
ENDBRANCH  14  21
BRANCH  13  23
ATOM     23  C22 UNL     1      32.452  -6.817 -34.704  0.00  0.00    +0.000 C 
BRANCH  23  24
ATOM     24  O15 UNL     1      32.926  -6.801 -36.023  0.00  0.00    +0.000 OA
ATOM     25  H37 UNL     1      32.405  -6.100 -36.497  0.00  0.00    +0.000 HD
ENDBRANCH  23  24
ENDBRANCH  13  23
ENDBRANCH   9  11
ENDBRANCH   8   9
BRANCH   7  26
ATOM     26  O14 UNL     1      24.745  -9.062 -35.117  0.00  0.00    +0.000 OA
ATOM     27  H30 UNL     1      24.225  -8.303 -34.746  0.00  0.00    +0.000 HD
ENDBRANCH   7  26
BRANCH   6  28
ATOM     28  O13 UNL     1      24.030  -8.090 -37.665  0.00  0.00    +0.000 OA
ATOM     29  H28 UNL     1      23.387  -8.431 -36.991  0.00  0.00    +0.000 HD
ENDBRANCH   6  28
ENDBRANCH   1   5
BRANCH   1  30
ATOM     30  C4  UNL     1      26.018  -6.743 -40.263  0.00  0.00    +0.000 C 
ATOM     31  C5  UNL     1      27.392  -7.181 -40.800  0.00  0.00    +0.000 C 
ATOM     32  C6  UNL     1      27.437  -7.082 -42.340  0.00  0.00    +0.000 C 
ATOM     33  C7  UNL     1      26.049  -7.398 -42.950  0.00  0.00    +0.000 C 
ATOM     34  O11 UNL     1      25.323  -8.280 -42.109  0.00  0.00    +0.000 OA
ATOM     35  C14 UNL     1      24.917  -7.651 -40.894  0.00  0.00    +0.000 C 
BRANCH  32  36
ATOM     36  O4  UNL     1      28.409  -7.968 -42.840  0.00  0.00    +0.000 OA
ATOM     37  H10 UNL     1      28.916  -7.471 -43.537  0.00  0.00    +0.000 HD
ENDBRANCH  32  36
BRANCH  31  38
ATOM     38  O3  UNL     1      28.429  -6.429 -40.221  0.00  0.00    +0.000 OA
ATOM     39  H8  UNL     1      28.571  -6.773 -39.302  0.00  0.00    +0.000 HD
ENDBRANCH  31  38
BRANCH  35  40
ATOM     40  C15 UNL     1      23.578  -6.907 -41.078  0.00  0.00    +0.000 C 
BRANCH  40  41
ATOM     41  O12 UNL     1      22.616  -7.760 -41.638  0.00  0.00    +0.000 OA
ATOM     42  H26 UNL     1      22.978  -8.059 -42.514  0.00  0.00    +0.000 HD
ENDBRANCH  40  41
ENDBRANCH  35  40
BRANCH  33  43
ATOM     43  O5  UNL     1      26.221  -7.994 -44.222  0.00  0.00    +0.000 OA
BRANCH  43  44
ATOM     44  C8  UNL     1      25.936  -7.084 -45.274  0.00  0.00    +0.000 C 
ATOM     45  C9  UNL     1      27.113  -7.056 -46.266  0.00  0.00    +0.000 C 
ATOM     46  C10 UNL     1      26.797  -6.099 -47.430  0.00  0.00    +0.000 C 
ATOM     47  C11 UNL     1      25.286  -6.132 -47.790  0.00  0.00    +0.000 C 
ATOM     48  O9  UNL     1      24.695  -7.370 -47.435  0.00  0.00    +0.000 OA
ATOM     49  C12 UNL     1      24.658  -7.569 -46.020  0.00  0.00    +0.000 C 
BRANCH  47  50
ATOM     50  O8  UNL     1      25.075  -5.885 -49.157  0.00  0.00    +0.000 OA
ATOM     51  H18 UNL     1      25.879  -5.406 -49.497  0.00  0.00    +0.000 HD
ENDBRANCH  47  50
BRANCH  46  52
ATOM     52  O7  UNL     1      27.598  -6.444 -48.535  0.00  0.00    +0.000 OA
ATOM     53  H16 UNL     1      27.019  -6.932 -49.178  0.00  0.00    +0.000 HD
ENDBRANCH  46  52
BRANCH  45  54
ATOM     54  O6  UNL     1      28.288  -6.623 -45.627  0.00  0.00    +0.000 OA
ATOM     55  H14 UNL     1      28.040  -5.835 -45.077  0.00  0.00    +0.000 HD
ENDBRANCH  45  54
BRANCH  49  56
ATOM     56  C13 UNL     1      23.384  -6.962 -45.414  0.00  0.00    +0.000 C 
BRANCH  56  57
ATOM     57  O10 UNL     1      22.871  -7.818 -44.424  0.00  0.00    +0.000 OA
ATOM     58  H22 UNL     1      21.881  -7.746 -44.455  0.00  0.00    +0.000 HD
ENDBRANCH  56  57
ENDBRANCH  49  56
ENDBRANCH  43  44
ENDBRANCH  33  43
ENDBRANCH   1  30
TORSDOF 22
ENDMDL
MODEL 7
REMARK VINA RESULT:    -4.571      2.338     11.212
REMARK INTER + INTRA:         -11.158
REMARK INTER:                  -8.635
REMARK INTRA:                  -2.524
REMARK UNBOUND:                -2.446
REMARK  Name = resultss/4CJN/ligands/lig_444_t0.pdb
REMARK  23 active torsions:
REMARK  status: ('A' for Active; 'I' for Inactive)
REMARK    1  A    between atoms: C1_1  and  C2_2
REMARK    2  A    between atoms: C3_4  and  O2_5
REMARK    3  A    between atoms: O2_5  and  C4_6
REMARK    4  A    between atoms: C5_7  and  O3_8
REMARK    5  A    between atoms: C6_9  and  O4_10
REMARK    6  A    between atoms: C7_11  and  O5_12
REMARK    7  A    between atoms: O5_12  and  C8_13
REMARK    8  A    between atoms: C9_14  and  O6_15
REMARK    9  A    between atoms: C10_16  and  O7_17
REMARK   10  A    between atoms: C11_18  and  O8_19
REMARK   11  A    between atoms: C12_21  and  C13_22
REMARK   12  A    between atoms: C13_22  and  O10_23
REMARK   13  A    between atoms: C14_25  and  C15_26
REMARK   14  A    between atoms: C15_26  and  O12_27
REMARK   15  A    between atoms: C16_28  and  O13_29
REMARK   16  A    between atoms: C17_30  and  O14_31
REMARK   17  A    between atoms: C18_32  and  N1_33
REMARK   18  A    between atoms: N1_33  and  C19_34
REMARK   19  A    between atoms: C21_36  and  C22_37
REMARK   20  A    between atoms: C22_37  and  O15_38
REMARK   21  A    between atoms: C23_39  and  O16_40
REMARK   22  A    between atoms: C24_41  and  O17_42
REMARK   23  A    between atoms: C25_43  and  O18_44
REMARK                            x       y       z     vdW  Elec       q    Type
REMARK                         _______ _______ _______ _____ _____    ______ ____
ROOT
ATOM      1  O2  UNL     1      26.714  -9.141 -37.851  0.00  0.00    +0.000 OA
ENDROOT
BRANCH   1   5
ATOM      2  C1  UNL     1      26.894  -5.884 -40.692  0.00  0.00    +0.000 C 
ATOM      3  C2  UNL     1      27.092  -7.391 -40.930  0.00  0.00    +0.000 C 
ATOM      4  O1  UNL     1      27.441  -8.096 -39.748  0.00  0.00    +0.000 OA
ATOM      5  C3  UNL     1      26.435  -8.072 -38.745  0.00  0.00    +0.000 C 
ATOM      6  C16 UNL     1      24.998  -8.253 -39.314  0.00  0.00    +0.000 C 
ATOM      7  C17 UNL     1      25.023  -8.903 -40.709  0.00  0.00    +0.000 C 
ATOM      8  C18 UNL     1      25.908  -8.075 -41.683  0.00  0.00    +0.000 C 
BRANCH   8   9
ATOM      9  N1  UNL     1      26.467  -8.906 -42.776  0.00  0.00    +0.000 NA
ATOM     10  H32 UNL     1      26.107  -9.882 -42.658  0.00  0.00    +0.000 HD
BRANCH   9  11
ATOM     11  C19 UNL     1      26.150  -8.461 -44.150  0.00  0.00    +0.000 C 
ATOM     12  C20 UNL     1      24.988  -7.490 -44.187  0.00  0.00    +0.000 C 
ATOM     13  C21 UNL     1      24.692  -6.859 -45.339  0.00  0.00    +0.000 C 
ATOM     14  C23 UNL     1      25.585  -7.123 -46.546  0.00  0.00    +0.000 C 
ATOM     15  C24 UNL     1      27.071  -7.009 -46.124  0.00  0.00    +0.000 C 
ATOM     16  C25 UNL     1      27.396  -7.797 -44.806  0.00  0.00    +0.000 C 
BRANCH  16  17
ATOM     17  O18 UNL     1      28.062  -6.958 -43.892  0.00  0.00    +0.000 OA
ATOM     18  H43 UNL     1      28.424  -7.534 -43.168  0.00  0.00    +0.000 HD
ENDBRANCH  16  17
BRANCH  15  19
ATOM     19  O17 UNL     1      27.884  -7.476 -47.171  0.00  0.00    +0.000 OA
ATOM     20  H41 UNL     1      28.570  -6.778 -47.332  0.00  0.00    +0.000 HD
ENDBRANCH  15  19
BRANCH  14  21
ATOM     21  O16 UNL     1      25.304  -6.222 -47.586  0.00  0.00    +0.000 OA
ATOM     22  H39 UNL     1      26.167  -6.011 -48.029  0.00  0.00    +0.000 HD
ENDBRANCH  14  21
BRANCH  13  23
ATOM     23  C22 UNL     1      23.533  -5.883 -45.376  0.00  0.00    +0.000 C 
BRANCH  23  24
ATOM     24  O15 UNL     1      22.470  -6.420 -46.114  0.00  0.00    +0.000 OA
ATOM     25  H37 UNL     1      22.165  -5.700 -46.727  0.00  0.00    +0.000 HD
ENDBRANCH  23  24
ENDBRANCH  13  23
ENDBRANCH   9  11
ENDBRANCH   8   9
BRANCH   7  26
ATOM     26  O14 UNL     1      23.711  -8.965 -41.205  0.00  0.00    +0.000 OA
ATOM     27  H30 UNL     1      23.440  -8.040 -41.438  0.00  0.00    +0.000 HD
ENDBRANCH   7  26
BRANCH   6  28
ATOM     28  O13 UNL     1      24.171  -8.965 -38.424  0.00  0.00    +0.000 OA
ATOM     29  H28 UNL     1      24.371  -8.652 -37.504  0.00  0.00    +0.000 HD
ENDBRANCH   6  28
ENDBRANCH   1   5
BRANCH   1  30
ATOM     30  C4  UNL     1      27.489  -8.754 -36.727  0.00  0.00    +0.000 C 
ATOM     31  C5  UNL     1      26.537  -8.537 -35.538  0.00  0.00    +0.000 C 
ATOM     32  C6  UNL     1      27.324  -8.155 -34.266  0.00  0.00    +0.000 C 
ATOM     33  C7  UNL     1      28.704  -8.856 -34.245  0.00  0.00    +0.000 C 
ATOM     34  O11 UNL     1      28.652 -10.083 -34.957  0.00  0.00    +0.000 OA
ATOM     35  C14 UNL     1      28.504  -9.882 -36.362  0.00  0.00    +0.000 C 
BRANCH  32  36
ATOM     36  O4  UNL     1      26.575  -8.504 -33.127  0.00  0.00    +0.000 OA
ATOM     37  H10 UNL     1      25.725  -8.901 -33.455  0.00  0.00    +0.000 HD
ENDBRANCH  32  36
BRANCH  31  38
ATOM     38  O3  UNL     1      25.564  -7.567 -35.834  0.00  0.00    +0.000 OA
ATOM     39  H8  UNL     1      25.893  -6.698 -35.491  0.00  0.00    +0.000 HD
ENDBRANCH  31  38
BRANCH  35  40
ATOM     40  C15 UNL     1      29.875  -9.678 -37.038  0.00  0.00    +0.000 C 
BRANCH  40  41
ATOM     41  O12 UNL     1      29.811  -8.634 -37.972  0.00  0.00    +0.000 OA
ATOM     42  H26 UNL     1      30.180  -8.991 -38.823  0.00  0.00    +0.000 HD
ENDBRANCH  40  41
ENDBRANCH  35  40
BRANCH  33  43
ATOM     43  O5  UNL     1      29.082  -9.105 -32.904  0.00  0.00    +0.000 OA
BRANCH  43  44
ATOM     44  C8  UNL     1      30.310  -8.471 -32.575  0.00  0.00    +0.000 C 
ATOM     45  C9  UNL     1      31.433  -9.028 -33.469  0.00  0.00    +0.000 C 
ATOM     46  C10 UNL     1      32.761  -8.321 -33.145  0.00  0.00    +0.000 C 
ATOM     47  C11 UNL     1      32.529  -6.830 -32.776  0.00  0.00    +0.000 C 
ATOM     48  O9  UNL     1      31.343  -6.329 -33.368  0.00  0.00    +0.000 OA
ATOM     49  C12 UNL     1      30.168  -6.943 -32.837  0.00  0.00    +0.000 C 
BRANCH  47  50
ATOM     50  O8  UNL     1      33.619  -6.029 -33.153  0.00  0.00    +0.000 OA
ATOM     51  H18 UNL     1      34.428  -6.609 -33.146  0.00  0.00    +0.000 HD
ENDBRANCH  47  50
BRANCH  46  52
ATOM     52  O7  UNL     1      33.628  -8.451 -34.248  0.00  0.00    +0.000 OA
ATOM     53  H16 UNL     1      34.541  -8.220 -33.933  0.00  0.00    +0.000 HD
ENDBRANCH  46  52
BRANCH  45  54
ATOM     54  O6  UNL     1      31.590 -10.410 -33.261  0.00  0.00    +0.000 OA
ATOM     55  H14 UNL     1      31.475 -10.847 -34.145  0.00  0.00    +0.000 HD
ENDBRANCH  45  54
BRANCH  49  56
ATOM     56  C13 UNL     1      29.675  -6.198 -31.587  0.00  0.00    +0.000 C 
BRANCH  56  57
ATOM     57  O10 UNL     1      28.284  -6.346 -31.459  0.00  0.00    +0.000 OA
ATOM     58  H22 UNL     1      27.872  -6.021 -32.302  0.00  0.00    +0.000 HD
ENDBRANCH  56  57
ENDBRANCH  49  56
ENDBRANCH  43  44
ENDBRANCH  33  43
ENDBRANCH   1  30
TORSDOF 22
ENDMDL
MODEL 8
REMARK VINA RESULT:    -4.427      1.964      4.159
REMARK INTER + INTRA:         -10.883
REMARK INTER:                  -7.965
REMARK INTRA:                  -2.918
REMARK UNBOUND:                -2.446
REMARK  Name = resultss/4CJN/ligands/lig_444_t0.pdb
REMARK  23 active torsions:
REMARK  status: ('A' for Active; 'I' for Inactive)
REMARK    1  A    between atoms: C1_1  and  C2_2
REMARK    2  A    between atoms: C3_4  and  O2_5
REMARK    3  A    between atoms: O2_5  and  C4_6
REMARK    4  A    between atoms: C5_7  and  O3_8
REMARK    5  A    between atoms: C6_9  and  O4_10
REMARK    6  A    between atoms: C7_11  and  O5_12
REMARK    7  A    between atoms: O5_12  and  C8_13
REMARK    8  A    between atoms: C9_14  and  O6_15
REMARK    9  A    between atoms: C10_16  and  O7_17
REMARK   10  A    between atoms: C11_18  and  O8_19
REMARK   11  A    between atoms: C12_21  and  C13_22
REMARK   12  A    between atoms: C13_22  and  O10_23
REMARK   13  A    between atoms: C14_25  and  C15_26
REMARK   14  A    between atoms: C15_26  and  O12_27
REMARK   15  A    between atoms: C16_28  and  O13_29
REMARK   16  A    between atoms: C17_30  and  O14_31
REMARK   17  A    between atoms: C18_32  and  N1_33
REMARK   18  A    between atoms: N1_33  and  C19_34
REMARK   19  A    between atoms: C21_36  and  C22_37
REMARK   20  A    between atoms: C22_37  and  O15_38
REMARK   21  A    between atoms: C23_39  and  O16_40
REMARK   22  A    between atoms: C24_41  and  O17_42
REMARK   23  A    between atoms: C25_43  and  O18_44
REMARK                            x       y       z     vdW  Elec       q    Type
REMARK                         _______ _______ _______ _____ _____    ______ ____
ROOT
ATOM      1  O2  UNL     1      31.307  -9.847 -38.942  0.00  0.00    +0.000 OA
ENDROOT
BRANCH   1   5
ATOM      2  C1  UNL     1      33.792  -6.465 -37.895  0.00  0.00    +0.000 C 
ATOM      3  C2  UNL     1      32.496  -6.959 -37.230  0.00  0.00    +0.000 C 
ATOM      4  O1  UNL     1      31.704  -7.764 -38.091  0.00  0.00    +0.000 OA
ATOM      5  C3  UNL     1      32.332  -8.978 -38.482  0.00  0.00    +0.000 C 
ATOM      6  C16 UNL     1      33.099  -9.674 -37.320  0.00  0.00    +0.000 C 
ATOM      7  C17 UNL     1      32.601  -9.187 -35.947  0.00  0.00    +0.000 C 
ATOM      8  C18 UNL     1      32.714  -7.640 -35.842  0.00  0.00    +0.000 C 
BRANCH   8   9
ATOM      9  N1  UNL     1      31.737  -7.070 -34.883  0.00  0.00    +0.000 NA
ATOM     10  H32 UNL     1      31.398  -6.158 -35.269  0.00  0.00    +0.000 HD
BRANCH   9  11
ATOM     11  C19 UNL     1      30.558  -7.913 -34.589  0.00  0.00    +0.000 C 
ATOM     12  C20 UNL     1      29.907  -7.553 -33.270  0.00  0.00    +0.000 C 
ATOM     13  C21 UNL     1      28.724  -8.106 -32.944  0.00  0.00    +0.000 C 
ATOM     14  C23 UNL     1      28.071  -9.038 -33.958  0.00  0.00    +0.000 C 
ATOM     15  C24 UNL     1      28.100  -8.380 -35.360  0.00  0.00    +0.000 C 
ATOM     16  C25 UNL     1      29.506  -7.790 -35.731  0.00  0.00    +0.000 C 
BRANCH  16  17
ATOM     17  O18 UNL     1      29.374  -6.453 -36.155  0.00  0.00    +0.000 OA
ATOM     18  H43 UNL     1      29.155  -5.907 -35.356  0.00  0.00    +0.000 HD
ENDBRANCH  16  17
BRANCH  15  19
ATOM     19  O17 UNL     1      27.712  -9.328 -36.322  0.00  0.00    +0.000 OA
ATOM     20  H41 UNL     1      27.713  -8.863 -37.198  0.00  0.00    +0.000 HD
ENDBRANCH  15  19
BRANCH  14  21
ATOM     21  O16 UNL     1      26.750  -9.338 -33.588  0.00  0.00    +0.000 OA
ATOM     22  H39 UNL     1      26.520 -10.207 -34.008  0.00  0.00    +0.000 HD
ENDBRANCH  14  21
BRANCH  13  23
ATOM     23  C22 UNL     1      28.070  -7.742 -31.626  0.00  0.00    +0.000 C 
BRANCH  23  24
ATOM     24  O15 UNL     1      26.932  -6.955 -31.852  0.00  0.00    +0.000 OA
ATOM     25  H37 UNL     1      26.397  -7.431 -32.541  0.00  0.00    +0.000 HD
ENDBRANCH  23  24
ENDBRANCH  13  23
ENDBRANCH   9  11
ENDBRANCH   8   9
BRANCH   7  26
ATOM     26  O14 UNL     1      33.381  -9.783 -34.944  0.00  0.00    +0.000 OA
ATOM     27  H30 UNL     1      32.777  -9.992 -34.186  0.00  0.00    +0.000 HD
ENDBRANCH   7  26
BRANCH   6  28
ATOM     28  O13 UNL     1      33.042 -11.077 -37.425  0.00  0.00    +0.000 OA
ATOM     29  H28 UNL     1      33.203 -11.458 -36.524  0.00  0.00    +0.000 HD
ENDBRANCH   6  28
ENDBRANCH   1   5
BRANCH   1  30
ATOM     30  C4  UNL     1      30.598  -9.346 -40.065  0.00  0.00    +0.000 C 
ATOM     31  C5  UNL     1      30.869 -10.278 -41.259  0.00  0.00    +0.000 C 
ATOM     32  C6  UNL     1      30.090  -9.811 -42.508  0.00  0.00    +0.000 C 
ATOM     33  C7  UNL     1      28.737  -9.176 -42.104  0.00  0.00    +0.000 C 
ATOM     34  O11 UNL     1      28.268  -9.732 -40.885  0.00  0.00    +0.000 OA
ATOM     35  C14 UNL     1      29.066  -9.334 -39.771  0.00  0.00    +0.000 C 
BRANCH  32  36
ATOM     36  O4  UNL     1      29.884 -10.904 -43.369  0.00  0.00    +0.000 OA
ATOM     37  H10 UNL     1      29.592 -10.528 -44.242  0.00  0.00    +0.000 HD
ENDBRANCH  32  36
BRANCH  31  38
ATOM     38  O3  UNL     1      32.244 -10.369 -41.534  0.00  0.00    +0.000 OA
ATOM     39  H8  UNL     1      32.346 -10.539 -42.505  0.00  0.00    +0.000 HD
ENDBRANCH  31  38
BRANCH  35  40
ATOM     40  C15 UNL     1      28.588  -7.981 -39.206  0.00  0.00    +0.000 C 
BRANCH  40  41
ATOM     41  O12 UNL     1      27.204  -8.005 -38.982  0.00  0.00    +0.000 OA
ATOM     42  H26 UNL     1      26.902  -8.933 -39.169  0.00  0.00    +0.000 HD
ENDBRANCH  40  41
ENDBRANCH  35  40
BRANCH  33  43
ATOM     43  O5  UNL     1      27.786  -9.410 -43.126  0.00  0.00    +0.000 OA
BRANCH  43  44
ATOM     44  C8  UNL     1      26.878  -8.325 -43.259  0.00  0.00    +0.000 C 
ATOM     45  C9  UNL     1      27.022  -7.701 -44.659  0.00  0.00    +0.000 C 
ATOM     46  C10 UNL     1      26.017  -6.548 -44.827  0.00  0.00    +0.000 C 
ATOM     47  C11 UNL     1      24.687  -6.849 -44.082  0.00  0.00    +0.000 C 
ATOM     48  O9  UNL     1      24.470  -8.244 -43.953  0.00  0.00    +0.000 OA
ATOM     49  C12 UNL     1      25.428  -8.866 -43.094  0.00  0.00    +0.000 C 
BRANCH  47  50
ATOM     50  O8  UNL     1      23.588  -6.260 -44.729  0.00  0.00    +0.000 OA
ATOM     51  H18 UNL     1      23.101  -6.986 -45.204  0.00  0.00    +0.000 HD
ENDBRANCH  47  50
BRANCH  46  52
ATOM     52  O7  UNL     1      25.800  -6.327 -46.200  0.00  0.00    +0.000 OA
ATOM     53  H16 UNL     1      25.351  -7.135 -46.561  0.00  0.00    +0.000 HD
ENDBRANCH  46  52
BRANCH  45  54
ATOM     54  O6  UNL     1      28.324  -7.203 -44.846  0.00  0.00    +0.000 OA
ATOM     55  H14 UNL     1      28.943  -7.967 -44.720  0.00  0.00    +0.000 HD
ENDBRANCH  45  54
BRANCH  49  56
ATOM     56  C13 UNL     1      24.967  -8.814 -41.629  0.00  0.00    +0.000 C 
BRANCH  56  57
ATOM     57  O10 UNL     1      25.558  -9.863 -40.905  0.00  0.00    +0.000 OA
ATOM     58  H22 UNL     1      26.510  -9.622 -40.757  0.00  0.00    +0.000 HD
ENDBRANCH  56  57
ENDBRANCH  49  56
ENDBRANCH  43  44
ENDBRANCH  33  43
ENDBRANCH   1  30
TORSDOF 22
ENDMDL
MODEL 9
REMARK VINA RESULT:    -4.245      2.544      5.744
REMARK INTER + INTRA:         -10.537
REMARK INTER:                  -8.593
REMARK INTRA:                  -1.944
REMARK UNBOUND:                -2.446
REMARK  Name = resultss/4CJN/ligands/lig_444_t0.pdb
REMARK  23 active torsions:
REMARK  status: ('A' for Active; 'I' for Inactive)
REMARK    1  A    between atoms: C1_1  and  C2_2
REMARK    2  A    between atoms: C3_4  and  O2_5
REMARK    3  A    between atoms: O2_5  and  C4_6
REMARK    4  A    between atoms: C5_7  and  O3_8
REMARK    5  A    between atoms: C6_9  and  O4_10
REMARK    6  A    between atoms: C7_11  and  O5_12
REMARK    7  A    between atoms: O5_12  and  C8_13
REMARK    8  A    between atoms: C9_14  and  O6_15
REMARK    9  A    between atoms: C10_16  and  O7_17
REMARK   10  A    between atoms: C11_18  and  O8_19
REMARK   11  A    between atoms: C12_21  and  C13_22
REMARK   12  A    between atoms: C13_22  and  O10_23
REMARK   13  A    between atoms: C14_25  and  C15_26
REMARK   14  A    between atoms: C15_26  and  O12_27
REMARK   15  A    between atoms: C16_28  and  O13_29
REMARK   16  A    between atoms: C17_30  and  O14_31
REMARK   17  A    between atoms: C18_32  and  N1_33
REMARK   18  A    between atoms: N1_33  and  C19_34
REMARK   19  A    between atoms: C21_36  and  C22_37
REMARK   20  A    between atoms: C22_37  and  O15_38
REMARK   21  A    between atoms: C23_39  and  O16_40
REMARK   22  A    between atoms: C24_41  and  O17_42
REMARK   23  A    between atoms: C25_43  and  O18_44
REMARK                            x       y       z     vdW  Elec       q    Type
REMARK                         _______ _______ _______ _____ _____    ______ ____
ROOT
ATOM      1  O2  UNL     1      26.613  -6.463 -36.164  0.00  0.00    +0.000 OA
ENDROOT
BRANCH   1   5
ATOM      2  C1  UNL     1      27.628 -10.076 -34.013  0.00  0.00    +0.000 C 
ATOM      3  C2  UNL     1      28.407  -8.753 -34.109  0.00  0.00    +0.000 C 
ATOM      4  O1  UNL     1      28.052  -7.983 -35.248  0.00  0.00    +0.000 OA
ATOM      5  C3  UNL     1      26.699  -7.545 -35.249  0.00  0.00    +0.000 C 
ATOM      6  C16 UNL     1      26.210  -7.064 -33.851  0.00  0.00    +0.000 C 
ATOM      7  C17 UNL     1      27.393  -6.700 -32.937  0.00  0.00    +0.000 C 
ATOM      8  C18 UNL     1      28.371  -7.900 -32.801  0.00  0.00    +0.000 C 
BRANCH   8   9
ATOM      9  N1  UNL     1      29.753  -7.465 -32.489  0.00  0.00    +0.000 NA
ATOM     10  H32 UNL     1      29.976  -7.768 -31.512  0.00  0.00    +0.000 HD
BRANCH   9  11
ATOM     11  C19 UNL     1      30.810  -7.983 -33.385  0.00  0.00    +0.000 C 
ATOM     12  C20 UNL     1      31.462  -6.887 -34.201  0.00  0.00    +0.000 C 
ATOM     13  C21 UNL     1      32.558  -7.171 -34.930  0.00  0.00    +0.000 C 
ATOM     14  C23 UNL     1      33.117  -8.586 -34.855  0.00  0.00    +0.000 C 
ATOM     15  C24 UNL     1      33.210  -9.027 -33.373  0.00  0.00    +0.000 C 
ATOM     16  C25 UNL     1      31.900  -8.730 -32.562  0.00  0.00    +0.000 C 
BRANCH  16  17
ATOM     17  O18 UNL     1      32.210  -8.029 -31.380  0.00  0.00    +0.000 OA
ATOM     18  H43 UNL     1      31.644  -8.403 -30.655  0.00  0.00    +0.000 HD
ENDBRANCH  16  17
BRANCH  15  19
ATOM     19  O17 UNL     1      33.503 -10.401 -33.319  0.00  0.00    +0.000 OA
ATOM     20  H41 UNL     1      34.270 -10.553 -33.929  0.00  0.00    +0.000 HD
ENDBRANCH  15  19
BRANCH  14  21
ATOM     21  O16 UNL     1      34.380  -8.662 -35.465  0.00  0.00    +0.000 OA
ATOM     22  H39 UNL     1      35.015  -8.998 -34.780  0.00  0.00    +0.000 HD
ENDBRANCH  14  21
BRANCH  13  23
ATOM     23  C22 UNL     1      33.216  -6.073 -35.742  0.00  0.00    +0.000 C 
BRANCH  23  24
ATOM     24  O15 UNL     1      33.386  -6.488 -37.070  0.00  0.00    +0.000 OA
ATOM     25  H37 UNL     1      32.649  -6.070 -37.589  0.00  0.00    +0.000 HD
ENDBRANCH  23  24
ENDBRANCH  13  23
ENDBRANCH   9  11
ENDBRANCH   8   9
BRANCH   7  26
ATOM     26  O14 UNL     1      26.897  -6.354 -31.669  0.00  0.00    +0.000 OA
ATOM     27  H30 UNL     1      27.606  -5.836 -31.207  0.00  0.00    +0.000 HD
ENDBRANCH   7  26
BRANCH   6  28
ATOM     28  O13 UNL     1      25.290  -6.004 -33.959  0.00  0.00    +0.000 OA
ATOM     29  H28 UNL     1      24.949  -5.988 -34.890  0.00  0.00    +0.000 HD
ENDBRANCH   6  28
ENDBRANCH   1   5
BRANCH   1  30
ATOM     30  C4  UNL     1      26.668  -6.863 -37.525  0.00  0.00    +0.000 C 
ATOM     31  C5  UNL     1      28.141  -7.120 -37.890  0.00  0.00    +0.000 C 
ATOM     32  C6  UNL     1      28.268  -7.602 -39.351  0.00  0.00    +0.000 C 
ATOM     33  C7  UNL     1      27.040  -8.454 -39.756  0.00  0.00    +0.000 C 
ATOM     34  O11 UNL     1      26.486  -9.102 -38.622  0.00  0.00    +0.000 OA
ATOM     35  C14 UNL     1      25.860  -8.181 -37.730  0.00  0.00    +0.000 C 
BRANCH  32  36
ATOM     36  O4  UNL     1      29.454  -8.344 -39.501  0.00  0.00    +0.000 OA
ATOM     37  H10 UNL     1      29.396  -8.800 -40.382  0.00  0.00    +0.000 HD
ENDBRANCH  32  36
BRANCH  31  38
ATOM     38  O3  UNL     1      28.928  -5.977 -37.671  0.00  0.00    +0.000 OA
ATOM     39  H8  UNL     1      28.314  -5.204 -37.576  0.00  0.00    +0.000 HD
ENDBRANCH  31  38
BRANCH  35  40
ATOM     40  C15 UNL     1      24.399  -7.914 -38.149  0.00  0.00    +0.000 C 
BRANCH  40  41
ATOM     41  O12 UNL     1      23.576  -7.809 -37.018  0.00  0.00    +0.000 OA
ATOM     42  H26 UNL     1      23.117  -6.930 -37.082  0.00  0.00    +0.000 HD
ENDBRANCH  40  41
ENDBRANCH  35  40
BRANCH  33  43
ATOM     43  O5  UNL     1      27.437  -9.424 -40.707  0.00  0.00    +0.000 OA
BRANCH  43  44
ATOM     44  C8  UNL     1      26.701  -9.308 -41.917  0.00  0.00    +0.000 C 
ATOM     45  C9  UNL     1      25.228  -9.681 -41.663  0.00  0.00    +0.000 C 
ATOM     46  C10 UNL     1      24.415  -9.523 -42.960  0.00  0.00    +0.000 C 
ATOM     47  C11 UNL     1      24.932  -8.328 -43.806  0.00  0.00    +0.000 C 
ATOM     48  O9  UNL     1      25.561  -7.351 -42.993  0.00  0.00    +0.000 OA
ATOM     49  C12 UNL     1      26.771  -7.831 -42.404  0.00  0.00    +0.000 C 
BRANCH  47  50
ATOM     50  O8  UNL     1      23.897  -7.730 -44.544  0.00  0.00    +0.000 OA
ATOM     51  H18 UNL     1      23.067  -8.246 -44.357  0.00  0.00    +0.000 HD
ENDBRANCH  47  50
BRANCH  46  52
ATOM     52  O7  UNL     1      23.055  -9.371 -42.630  0.00  0.00    +0.000 OA
ATOM     53  H16 UNL     1      22.575 -10.163 -42.989  0.00  0.00    +0.000 HD
ENDBRANCH  46  52
BRANCH  45  54
ATOM     54  O6  UNL     1      25.125 -11.011 -41.218  0.00  0.00    +0.000 OA
ATOM     55  H14 UNL     1      25.970 -11.464 -41.475  0.00  0.00    +0.000 HD
ENDBRANCH  45  54
BRANCH  49  56
ATOM     56  C13 UNL     1      27.967  -7.600 -43.340  0.00  0.00    +0.000 C 
BRANCH  56  57
ATOM     57  O10 UNL     1      28.750  -6.536 -42.862  0.00  0.00    +0.000 OA
ATOM     58  H22 UNL     1      28.147  -5.755 -42.742  0.00  0.00    +0.000 HD
ENDBRANCH  56  57
ENDBRANCH  49  56
ENDBRANCH  43  44
ENDBRANCH  33  43
ENDBRANCH   1  30
TORSDOF 22
ENDMDL
