MODEL 1
REMARK VINA RESULT:    -6.825      0.000      0.000
REMARK INTER + INTRA:          -9.668
REMARK INTER:                  -9.019
REMARK INTRA:                  -0.649
REMARK UNBOUND:                -0.649
REMARK  Name = resultss/4CJN/ligands/lig_311_t1.pdb
REMARK  8 active torsions:
REMARK  status: ('A' for Active; 'I' for Inactive)
REMARK    1  A    between atoms: C9_13  and  O5_14
REMARK    2  A    between atoms: C12_17  and  O6_18
REMARK    3  A    between atoms: O6_18  and  C13_19
REMARK    4  A    between atoms: C14_21  and  C15_22
REMARK    5  A    between atoms: C15_22  and  O8_23
REMARK    6  A    between atoms: C16_24  and  O9_25
REMARK    7  A    between atoms: C17_26  and  O10_27
REMARK    8  A    between atoms: C18_28  and  O11_29
REMARK                            x       y       z     vdW  Elec       q    Type
REMARK                         _______ _______ _______ _____ _____    ______ ____
ROOT
ATOM      1  O1  UNL     1      24.985  -7.697 -39.686  0.00  0.00    +0.000 OA
ATOM      2  C1  UNL     1      25.983  -8.359 -39.291  0.00  0.00    +0.000 A 
ATOM      3  C2  UNL     1      26.137  -8.643 -37.917  0.00  0.00    +0.000 A 
ATOM      4  C3  UNL     1      25.144  -8.195 -36.895  0.00  0.00    +0.000 C 
ATOM      5  O2  UNL     1      24.141  -7.509 -37.232  0.00  0.00    +0.000 OA
ATOM      6  C4  UNL     1      25.330  -8.506 -35.437  0.00  0.00    +0.000 C 
ATOM      7  C5  UNL     1      26.274  -9.654 -35.251  0.00  0.00    +0.000 C 
ATOM      8  O3  UNL     1      26.069 -10.480 -34.375  0.00  0.00    +0.000 OA
ATOM      9  C6  UNL     1      27.528  -9.721 -36.071  0.00  0.00    +0.000 C 
ATOM     10  C7  UNL     1      27.263  -9.393 -37.515  0.00  0.00    +0.000 A 
ATOM     11  O4  UNL     1      28.151  -9.803 -38.413  0.00  0.00    +0.000 OA
ATOM     12  C8  UNL     1      28.045  -9.560 -39.713  0.00  0.00    +0.000 A 
ATOM     13  C9  UNL     1      29.035 -10.040 -40.584  0.00  0.00    +0.000 A 
ATOM     14  C10 UNL     1      28.936  -9.791 -41.952  0.00  0.00    +0.000 A 
ATOM     15  C11 UNL     1      27.863  -9.067 -42.464  0.00  0.00    +0.000 A 
ATOM     16  C12 UNL     1      26.856  -8.571 -41.612  0.00  0.00    +0.000 A 
ATOM     17  C19 UNL     1      26.946  -8.820 -40.217  0.00  0.00    +0.000 A 
ENDROOT
BRANCH  13  18
ATOM     18  O5  UNL     1      30.125 -10.769 -40.108  0.00  0.00    +0.000 OA
ATOM     19  H5  UNL     1      30.510 -10.622 -39.183  0.00  0.00    +0.000 HD
ENDBRANCH  13  18
BRANCH  16  20
ATOM     20  O6  UNL     1      25.766  -7.839 -42.118  0.00  0.00    +0.000 OA
BRANCH  20  21
ATOM     21  C13 UNL     1      24.891  -8.267 -43.162  0.00  0.00    +0.000 C 
ATOM     22  O7  UNL     1      25.061  -7.402 -44.278  0.00  0.00    +0.000 OA
ATOM     23  C14 UNL     1      24.027  -7.591 -45.223  0.00  0.00    +0.000 C 
ATOM     24  C16 UNL     1      22.719  -6.956 -44.683  0.00  0.00    +0.000 C 
ATOM     25  C17 UNL     1      22.633  -7.061 -43.135  0.00  0.00    +0.000 C 
ATOM     26  C18 UNL     1      23.433  -8.276 -42.611  0.00  0.00    +0.000 C 
BRANCH  24  27
ATOM     27  O9  UNL     1      21.593  -7.535 -45.297  0.00  0.00    +0.000 OA
ATOM     28  H14 UNL     1      21.865  -8.415 -45.664  0.00  0.00    +0.000 HD
ENDBRANCH  24  27
BRANCH  25  29
ATOM     29  O10 UNL     1      23.148  -5.884 -42.566  0.00  0.00    +0.000 OA
ATOM     30  H16 UNL     1      24.077  -6.084 -42.278  0.00  0.00    +0.000 HD
ENDBRANCH  25  29
BRANCH  26  31
ATOM     31  O11 UNL     1      22.799  -9.471 -42.992  0.00  0.00    +0.000 OA
ATOM     32  H18 UNL     1      23.068  -9.655 -43.929  0.00  0.00    +0.000 HD
ENDBRANCH  26  31
BRANCH  23  33
ATOM     33  C15 UNL     1      24.441  -6.952 -46.554  0.00  0.00    +0.000 C 
BRANCH  33  34
ATOM     34  O8  UNL     1      24.285  -7.866 -47.605  0.00  0.00    +0.000 OA
ATOM     35  H12 UNL     1      24.215  -7.333 -48.439  0.00  0.00    +0.000 HD
ENDBRANCH  33  34
ENDBRANCH  23  33
ENDBRANCH  20  21
ENDBRANCH  16  20
TORSDOF 8
ENDMDL
MODEL 2
REMARK VINA RESULT:    -6.622      2.276      7.507
REMARK INTER + INTRA:          -9.400
REMARK INTER:                  -8.228
REMARK INTRA:                  -1.173
REMARK UNBOUND:                -0.649
REMARK  Name = resultss/4CJN/ligands/lig_311_t1.pdb
REMARK  8 active torsions:
REMARK  status: ('A' for Active; 'I' for Inactive)
REMARK    1  A    between atoms: C9_13  and  O5_14
REMARK    2  A    between atoms: C12_17  and  O6_18
REMARK    3  A    between atoms: O6_18  and  C13_19
REMARK    4  A    between atoms: C14_21  and  C15_22
REMARK    5  A    between atoms: C15_22  and  O8_23
REMARK    6  A    between atoms: C16_24  and  O9_25
REMARK    7  A    between atoms: C17_26  and  O10_27
REMARK    8  A    between atoms: C18_28  and  O11_29
REMARK                            x       y       z     vdW  Elec       q    Type
REMARK                         _______ _______ _______ _____ _____    ______ ____
ROOT
ATOM      1  O1  UNL     1      25.167  -9.264 -38.738  0.00  0.00    +0.000 OA
ATOM      2  C1  UNL     1      26.295  -9.382 -39.289  0.00  0.00    +0.000 A 
ATOM      3  C2  UNL     1      26.404  -9.281 -40.693  0.00  0.00    +0.000 A 
ATOM      4  C3  UNL     1      25.221  -9.022 -41.567  0.00  0.00    +0.000 C 
ATOM      5  O2  UNL     1      24.066  -8.921 -41.071  0.00  0.00    +0.000 OA
ATOM      6  C4  UNL     1      25.361  -8.922 -43.059  0.00  0.00    +0.000 C 
ATOM      7  C5  UNL     1      26.777  -8.624 -43.446  0.00  0.00    +0.000 C 
ATOM      8  O3  UNL     1      27.013  -7.868 -44.375  0.00  0.00    +0.000 OA
ATOM      9  C6  UNL     1      27.898  -9.346 -42.758  0.00  0.00    +0.000 C 
ATOM     10  C7  UNL     1      27.685  -9.412 -41.271  0.00  0.00    +0.000 A 
ATOM     11  O4  UNL     1      28.747  -9.635 -40.506  0.00  0.00    +0.000 OA
ATOM     12  C8  UNL     1      28.690  -9.737 -39.184  0.00  0.00    +0.000 A 
ATOM     13  C9  UNL     1      29.870  -9.970 -38.462  0.00  0.00    +0.000 A 
ATOM     14  C10 UNL     1      29.825 -10.080 -37.074  0.00  0.00    +0.000 A 
ATOM     15  C11 UNL     1      28.615  -9.961 -36.394  0.00  0.00    +0.000 A 
ATOM     16  C12 UNL     1      27.415  -9.728 -37.094  0.00  0.00    +0.000 A 
ATOM     17  C19 UNL     1      27.450  -9.614 -38.508  0.00  0.00    +0.000 A 
ENDROOT
BRANCH  13  18
ATOM     18  O5  UNL     1      31.100 -10.096 -39.109  0.00  0.00    +0.000 OA
ATOM     19  H5  UNL     1      31.978 -10.102 -38.603  0.00  0.00    +0.000 HD
ENDBRANCH  13  18
BRANCH  16  20
ATOM     20  O6  UNL     1      26.188  -9.604 -36.417  0.00  0.00    +0.000 OA
BRANCH  20  21
ATOM     21  C13 UNL     1      25.912  -8.690 -35.356  0.00  0.00    +0.000 C 
ATOM     22  O7  UNL     1      24.842  -9.210 -34.577  0.00  0.00    +0.000 OA
ATOM     23  C14 UNL     1      24.334  -8.225 -33.699  0.00  0.00    +0.000 C 
ATOM     24  C16 UNL     1      23.502  -7.197 -34.509  0.00  0.00    +0.000 C 
ATOM     25  C17 UNL     1      24.079  -7.001 -35.938  0.00  0.00    +0.000 C 
ATOM     26  C18 UNL     1      25.596  -7.295 -35.976  0.00  0.00    +0.000 C 
BRANCH  24  27
ATOM     27  O9  UNL     1      23.415  -5.973 -33.821  0.00  0.00    +0.000 OA
ATOM     28  H14 UNL     1      23.181  -6.170 -32.877  0.00  0.00    +0.000 HD
ENDBRANCH  24  27
BRANCH  25  29
ATOM     29  O10 UNL     1      23.415  -7.866 -36.824  0.00  0.00    +0.000 OA
ATOM     30  H16 UNL     1      22.442  -7.775 -36.644  0.00  0.00    +0.000 HD
ENDBRANCH  25  29
BRANCH  26  31
ATOM     31  O11 UNL     1      26.297  -6.302 -35.270  0.00  0.00    +0.000 OA
ATOM     32  H18 UNL     1      25.634  -5.614 -35.002  0.00  0.00    +0.000 HD
ENDBRANCH  26  31
BRANCH  23  33
ATOM     33  C15 UNL     1      23.475  -8.905 -32.625  0.00  0.00    +0.000 C 
BRANCH  33  34
ATOM     34  O8  UNL     1      22.862  -7.945 -31.809  0.00  0.00    +0.000 OA
ATOM     35  H12 UNL     1      23.003  -8.237 -30.870  0.00  0.00    +0.000 HD
ENDBRANCH  33  34
ENDBRANCH  23  33
ENDBRANCH  20  21
ENDBRANCH  16  20
TORSDOF 8
ENDMDL
MODEL 3
REMARK VINA RESULT:    -6.502      2.530      8.086
REMARK INTER + INTRA:          -9.241
REMARK INTER:                  -8.629
REMARK INTRA:                  -0.612
REMARK UNBOUND:                -0.649
REMARK  Name = resultss/4CJN/ligands/lig_311_t1.pdb
REMARK  8 active torsions:
REMARK  status: ('A' for Active; 'I' for Inactive)
REMARK    1  A    between atoms: C9_13  and  O5_14
REMARK    2  A    between atoms: C12_17  and  O6_18
REMARK    3  A    between atoms: O6_18  and  C13_19
REMARK    4  A    between atoms: C14_21  and  C15_22
REMARK    5  A    between atoms: C15_22  and  O8_23
REMARK    6  A    between atoms: C16_24  and  O9_25
REMARK    7  A    between atoms: C17_26  and  O10_27
REMARK    8  A    between atoms: C18_28  and  O11_29
REMARK                            x       y       z     vdW  Elec       q    Type
REMARK                         _______ _______ _______ _____ _____    ______ ____
ROOT
ATOM      1  O1  UNL     1      26.390  -9.426 -38.695  0.00  0.00    +0.000 OA
ATOM      2  C1  UNL     1      27.432  -9.454 -39.406  0.00  0.00    +0.000 A 
ATOM      3  C2  UNL     1      27.329  -9.320 -40.807  0.00  0.00    +0.000 A 
ATOM      4  C3  UNL     1      26.017  -9.129 -41.494  0.00  0.00    +0.000 C 
ATOM      5  O2  UNL     1      24.942  -9.118 -40.835  0.00  0.00    +0.000 OA
ATOM      6  C4  UNL     1      25.931  -8.991 -42.988  0.00  0.00    +0.000 C 
ATOM      7  C5  UNL     1      27.253  -8.588 -43.565  0.00  0.00    +0.000 C 
ATOM      8  O3  UNL     1      27.301  -7.800 -44.497  0.00  0.00    +0.000 OA
ATOM      9  C6  UNL     1      28.508  -9.242 -43.067  0.00  0.00    +0.000 C 
ATOM     10  C7  UNL     1      28.519  -9.349 -41.567  0.00  0.00    +0.000 A 
ATOM     11  O4  UNL     1      29.692  -9.511 -40.969  0.00  0.00    +0.000 OA
ATOM     12  C8  UNL     1      29.835  -9.641 -39.655  0.00  0.00    +0.000 A 
ATOM     13  C9  UNL     1      31.121  -9.804 -39.117  0.00  0.00    +0.000 A 
ATOM     14  C10 UNL     1      31.285  -9.942 -37.741  0.00  0.00    +0.000 A 
ATOM     15  C11 UNL     1      30.181  -9.920 -36.891  0.00  0.00    +0.000 A 
ATOM     16  C12 UNL     1      28.879  -9.760 -37.404  0.00  0.00    +0.000 A 
ATOM     17  C19 UNL     1      28.701  -9.618 -38.806  0.00  0.00    +0.000 A 
ENDROOT
BRANCH  13  18
ATOM     18  O5  UNL     1      32.249  -9.831 -39.937  0.00  0.00    +0.000 OA
ATOM     19  H5  UNL     1      32.215 -10.166 -40.892  0.00  0.00    +0.000 HD
ENDBRANCH  13  18
BRANCH  16  20
ATOM     20  O6  UNL     1      27.758  -9.736 -36.555  0.00  0.00    +0.000 OA
BRANCH  20  21
ATOM     21  C13 UNL     1      27.388  -8.656 -35.697  0.00  0.00    +0.000 C 
ATOM     22  O7  UNL     1      27.938  -8.896 -34.407  0.00  0.00    +0.000 OA
ATOM     23  C14 UNL     1      27.371  -8.024 -33.449  0.00  0.00    +0.000 C 
ATOM     24  C16 UNL     1      25.924  -8.484 -33.131  0.00  0.00    +0.000 C 
ATOM     25  C17 UNL     1      25.242  -9.111 -34.379  0.00  0.00    +0.000 C 
ATOM     26  C18 UNL     1      25.834  -8.541 -35.688  0.00  0.00    +0.000 C 
BRANCH  24  27
ATOM     27  O9  UNL     1      25.165  -7.419 -32.615  0.00  0.00    +0.000 OA
ATOM     28  H14 UNL     1      25.706  -6.968 -31.918  0.00  0.00    +0.000 HD
ENDBRANCH  24  27
BRANCH  25  29
ATOM     29  O10 UNL     1      25.427 -10.504 -34.352  0.00  0.00    +0.000 OA
ATOM     30  H16 UNL     1      25.987 -10.707 -33.557  0.00  0.00    +0.000 HD
ENDBRANCH  25  29
BRANCH  26  31
ATOM     31  O11 UNL     1      25.466  -7.193 -35.836  0.00  0.00    +0.000 OA
ATOM     32  H18 UNL     1      24.576  -7.087 -35.411  0.00  0.00    +0.000 HD
ENDBRANCH  26  31
BRANCH  23  33
ATOM     33  C15 UNL     1      28.242  -8.033 -32.186  0.00  0.00    +0.000 C 
BRANCH  33  34
ATOM     34  O8  UNL     1      27.600  -7.348 -31.145  0.00  0.00    +0.000 OA
ATOM     35  H12 UNL     1      27.584  -7.963 -30.366  0.00  0.00    +0.000 HD
ENDBRANCH  33  34
ENDBRANCH  23  33
ENDBRANCH  20  21
ENDBRANCH  16  20
TORSDOF 8
ENDMDL
MODEL 4
REMARK VINA RESULT:    -6.468      2.561      7.495
REMARK INTER + INTRA:          -9.197
REMARK INTER:                  -8.627
REMARK INTRA:                  -0.570
REMARK UNBOUND:                -0.649
REMARK  Name = resultss/4CJN/ligands/lig_311_t1.pdb
REMARK  8 active torsions:
REMARK  status: ('A' for Active; 'I' for Inactive)
REMARK    1  A    between atoms: C9_13  and  O5_14
REMARK    2  A    between atoms: C12_17  and  O6_18
REMARK    3  A    between atoms: O6_18  and  C13_19
REMARK    4  A    between atoms: C14_21  and  C15_22
REMARK    5  A    between atoms: C15_22  and  O8_23
REMARK    6  A    between atoms: C16_24  and  O9_25
REMARK    7  A    between atoms: C17_26  and  O10_27
REMARK    8  A    between atoms: C18_28  and  O11_29
REMARK                            x       y       z     vdW  Elec       q    Type
REMARK                         _______ _______ _______ _____ _____    ______ ____
ROOT
ATOM      1  O1  UNL     1      28.717  -9.052 -38.448  0.00  0.00    +0.000 OA
ATOM      2  C1  UNL     1      28.400  -9.289 -39.646  0.00  0.00    +0.000 A 
ATOM      3  C2  UNL     1      29.403  -9.603 -40.587  0.00  0.00    +0.000 A 
ATOM      4  C3  UNL     1      30.848  -9.681 -40.216  0.00  0.00    +0.000 C 
ATOM      5  O2  UNL     1      31.223  -9.430 -39.039  0.00  0.00    +0.000 OA
ATOM      6  C4  UNL     1      31.899 -10.015 -41.236  0.00  0.00    +0.000 C 
ATOM      7  C5  UNL     1      31.294 -10.699 -42.424  0.00  0.00    +0.000 C 
ATOM      8  O3  UNL     1      31.892 -11.609 -42.978  0.00  0.00    +0.000 OA
ATOM      9  C6  UNL     1      30.006 -10.186 -42.996  0.00  0.00    +0.000 C 
ATOM     10  C7  UNL     1      29.008  -9.869 -41.916  0.00  0.00    +0.000 A 
ATOM     11  O4  UNL     1      27.727  -9.810 -42.259  0.00  0.00    +0.000 OA
ATOM     12  C8  UNL     1      26.752  -9.519 -41.407  0.00  0.00    +0.000 A 
ATOM     13  C9  UNL     1      25.426  -9.485 -41.866  0.00  0.00    +0.000 A 
ATOM     14  C10 UNL     1      24.393  -9.181 -40.983  0.00  0.00    +0.000 A 
ATOM     15  C11 UNL     1      24.664  -8.907 -39.644  0.00  0.00    +0.000 A 
ATOM     16  C12 UNL     1      25.986  -8.933 -39.157  0.00  0.00    +0.000 A 
ATOM     17  C19 UNL     1      27.046  -9.243 -40.049  0.00  0.00    +0.000 A 
ENDROOT
BRANCH  13  18
ATOM     18  O5  UNL     1      25.116  -9.753 -43.200  0.00  0.00    +0.000 OA
ATOM     19  H5  UNL     1      25.163 -10.687 -43.589  0.00  0.00    +0.000 HD
ENDBRANCH  13  18
BRANCH  16  20
ATOM     20  O6  UNL     1      26.271  -8.660 -37.806  0.00  0.00    +0.000 OA
BRANCH  20  21
ATOM     21  C13 UNL     1      25.432  -8.983 -36.698  0.00  0.00    +0.000 C 
ATOM     22  O7  UNL     1      24.574  -7.878 -36.443  0.00  0.00    +0.000 OA
ATOM     23  C14 UNL     1      23.930  -8.019 -35.192  0.00  0.00    +0.000 C 
ATOM     24  C16 UNL     1      24.951  -7.738 -34.057  0.00  0.00    +0.000 C 
ATOM     25  C17 UNL     1      26.381  -8.194 -34.456  0.00  0.00    +0.000 C 
ATOM     26  C18 UNL     1      26.336  -9.349 -35.482  0.00  0.00    +0.000 C 
BRANCH  24  27
ATOM     27  O9  UNL     1      24.538  -8.342 -32.855  0.00  0.00    +0.000 OA
ATOM     28  H14 UNL     1      25.162  -9.087 -32.659  0.00  0.00    +0.000 HD
ENDBRANCH  24  27
BRANCH  25  29
ATOM     29  O10 UNL     1      27.073  -7.104 -35.011  0.00  0.00    +0.000 OA
ATOM     30  H16 UNL     1      27.603  -6.694 -34.278  0.00  0.00    +0.000 HD
ENDBRANCH  25  29
BRANCH  26  31
ATOM     31  O11 UNL     1      25.848 -10.517 -34.873  0.00  0.00    +0.000 OA
ATOM     32  H18 UNL     1      26.304 -11.283 -35.309  0.00  0.00    +0.000 HD
ENDBRANCH  26  31
BRANCH  23  33
ATOM     33  C15 UNL     1      22.748  -7.044 -35.123  0.00  0.00    +0.000 C 
BRANCH  33  34
ATOM     34  O8  UNL     1      21.856  -7.282 -36.177  0.00  0.00    +0.000 OA
ATOM     35  H12 UNL     1      21.373  -6.430 -36.340  0.00  0.00    +0.000 HD
ENDBRANCH  33  34
ENDBRANCH  23  33
ENDBRANCH  20  21
ENDBRANCH  16  20
TORSDOF 8
ENDMDL
MODEL 5
REMARK VINA RESULT:    -6.449      1.919      7.640
REMARK INTER + INTRA:          -9.172
REMARK INTER:                  -8.614
REMARK INTRA:                  -0.558
REMARK UNBOUND:                -0.649
REMARK  Name = resultss/4CJN/ligands/lig_311_t1.pdb
REMARK  8 active torsions:
REMARK  status: ('A' for Active; 'I' for Inactive)
REMARK    1  A    between atoms: C9_13  and  O5_14
REMARK    2  A    between atoms: C12_17  and  O6_18
REMARK    3  A    between atoms: O6_18  and  C13_19
REMARK    4  A    between atoms: C14_21  and  C15_22
REMARK    5  A    between atoms: C15_22  and  O8_23
REMARK    6  A    between atoms: C16_24  and  O9_25
REMARK    7  A    between atoms: C17_26  and  O10_27
REMARK    8  A    between atoms: C18_28  and  O11_29
REMARK                            x       y       z     vdW  Elec       q    Type
REMARK                         _______ _______ _______ _____ _____    ______ ____
ROOT
ATOM      1  O1  UNL     1      24.657  -7.544 -38.828  0.00  0.00    +0.000 OA
ATOM      2  C1  UNL     1      25.258  -8.277 -39.660  0.00  0.00    +0.000 A 
ATOM      3  C2  UNL     1      24.864  -8.269 -41.015  0.00  0.00    +0.000 A 
ATOM      4  C3  UNL     1      23.754  -7.405 -41.516  0.00  0.00    +0.000 C 
ATOM      5  O2  UNL     1      23.103  -6.671 -40.723  0.00  0.00    +0.000 OA
ATOM      6  C4  UNL     1      23.349  -7.416 -42.963  0.00  0.00    +0.000 C 
ATOM      7  C5  UNL     1      24.447  -7.963 -43.822  0.00  0.00    +0.000 C 
ATOM      8  O3  UNL     1      24.665  -7.477 -44.921  0.00  0.00    +0.000 OA
ATOM      9  C6  UNL     1      25.201  -9.179 -43.373  0.00  0.00    +0.000 C 
ATOM     10  C7  UNL     1      25.566  -9.099 -41.917  0.00  0.00    +0.000 A 
ATOM     11  O4  UNL     1      26.559  -9.867 -41.487  0.00  0.00    +0.000 OA
ATOM     12  C8  UNL     1      26.963  -9.905 -40.223  0.00  0.00    +0.000 A 
ATOM     13  C9  UNL     1      28.026 -10.749 -39.867  0.00  0.00    +0.000 A 
ATOM     14  C10 UNL     1      28.460 -10.799 -38.544  0.00  0.00    +0.000 A 
ATOM     15  C11 UNL     1      27.846 -10.018 -37.568  0.00  0.00    +0.000 A 
ATOM     16  C12 UNL     1      26.775  -9.164 -37.897  0.00  0.00    +0.000 A 
ATOM     17  C19 UNL     1      26.326  -9.104 -39.243  0.00  0.00    +0.000 A 
ENDROOT
BRANCH  13  18
ATOM     18  O5  UNL     1      28.665 -11.546 -40.817  0.00  0.00    +0.000 OA
ATOM     19  H5  UNL     1      28.279 -11.700 -41.741  0.00  0.00    +0.000 HD
ENDBRANCH  13  18
BRANCH  16  20
ATOM     20  O6  UNL     1      26.148  -8.369 -36.919  0.00  0.00    +0.000 OA
BRANCH  20  21
ATOM     21  C13 UNL     1      25.171  -8.822 -35.982  0.00  0.00    +0.000 C 
ATOM     22  O7  UNL     1      24.305  -7.737 -35.672  0.00  0.00    +0.000 OA
ATOM     23  C14 UNL     1      23.508  -8.036 -34.544  0.00  0.00    +0.000 C 
ATOM     24  C16 UNL     1      24.381  -7.957 -33.264  0.00  0.00    +0.000 C 
ATOM     25  C17 UNL     1      25.844  -8.399 -33.548  0.00  0.00    +0.000 C 
ATOM     26  C18 UNL     1      25.910  -9.390 -34.732  0.00  0.00    +0.000 C 
BRANCH  24  27
ATOM     27  O9  UNL     1      23.812  -8.715 -32.225  0.00  0.00    +0.000 OA
ATOM     28  H14 UNL     1      24.213  -9.622 -32.254  0.00  0.00    +0.000 HD
ENDBRANCH  24  27
BRANCH  25  29
ATOM     29  O10 UNL     1      26.616  -7.263 -33.847  0.00  0.00    +0.000 OA
ATOM     30  H16 UNL     1      26.094  -6.472 -33.553  0.00  0.00    +0.000 HD
ENDBRANCH  25  29
BRANCH  26  31
ATOM     31  O11 UNL     1      25.332 -10.617 -34.367  0.00  0.00    +0.000 OA
ATOM     32  H18 UNL     1      24.822 -10.459 -33.530  0.00  0.00    +0.000 HD
ENDBRANCH  26  31
BRANCH  23  33
ATOM     33  C15 UNL     1      22.341  -7.042 -34.476  0.00  0.00    +0.000 C 
BRANCH  33  34
ATOM     34  O8  UNL     1      22.527  -6.142 -33.418  0.00  0.00    +0.000 OA
ATOM     35  H12 UNL     1      21.632  -5.986 -33.016  0.00  0.00    +0.000 HD
ENDBRANCH  33  34
ENDBRANCH  23  33
ENDBRANCH  20  21
ENDBRANCH  16  20
TORSDOF 8
ENDMDL
MODEL 6
REMARK VINA RESULT:    -6.362      2.503      3.479
REMARK INTER + INTRA:          -9.057
REMARK INTER:                  -8.007
REMARK INTRA:                  -1.050
REMARK UNBOUND:                -0.649
REMARK  Name = resultss/4CJN/ligands/lig_311_t1.pdb
REMARK  8 active torsions:
REMARK  status: ('A' for Active; 'I' for Inactive)
REMARK    1  A    between atoms: C9_13  and  O5_14
REMARK    2  A    between atoms: C12_17  and  O6_18
REMARK    3  A    between atoms: O6_18  and  C13_19
REMARK    4  A    between atoms: C14_21  and  C15_22
REMARK    5  A    between atoms: C15_22  and  O8_23
REMARK    6  A    between atoms: C16_24  and  O9_25
REMARK    7  A    between atoms: C17_26  and  O10_27
REMARK    8  A    between atoms: C18_28  and  O11_29
REMARK                            x       y       z     vdW  Elec       q    Type
REMARK                         _______ _______ _______ _____ _____    ______ ____
ROOT
ATOM      1  O1  UNL     1      26.895 -10.237 -38.082  0.00  0.00    +0.000 OA
ATOM      2  C1  UNL     1      28.120 -10.021 -37.874  0.00  0.00    +0.000 A 
ATOM      3  C2  UNL     1      28.582  -9.811 -36.557  0.00  0.00    +0.000 A 
ATOM      4  C3  UNL     1      27.667  -9.849 -35.378  0.00  0.00    +0.000 C 
ATOM      5  O2  UNL     1      26.430 -10.036 -35.530  0.00  0.00    +0.000 OA
ATOM      6  C4  UNL     1      28.181  -9.620 -33.985  0.00  0.00    +0.000 C 
ATOM      7  C5  UNL     1      29.659  -9.850 -33.914  0.00  0.00    +0.000 C 
ATOM      8  O3  UNL     1      30.150 -10.387 -32.933  0.00  0.00    +0.000 OA
ATOM      9  C6  UNL     1      30.543  -9.318 -35.003  0.00  0.00    +0.000 C 
ATOM     10  C7  UNL     1      29.961  -9.579 -36.365  0.00  0.00    +0.000 A 
ATOM     11  O4  UNL     1      30.787  -9.550 -37.404  0.00  0.00    +0.000 OA
ATOM     12  C8  UNL     1      30.396  -9.742 -38.658  0.00  0.00    +0.000 A 
ATOM     13  C9  UNL     1      31.348  -9.696 -39.688  0.00  0.00    +0.000 A 
ATOM     14  C10 UNL     1      30.951  -9.895 -41.009  0.00  0.00    +0.000 A 
ATOM     15  C11 UNL     1      29.615 -10.139 -41.318  0.00  0.00    +0.000 A 
ATOM     16  C12 UNL     1      28.639 -10.189 -40.303  0.00  0.00    +0.000 A 
ATOM     17  C19 UNL     1      29.033  -9.989 -38.954  0.00  0.00    +0.000 A 
ENDROOT
BRANCH  13  18
ATOM     18  O5  UNL     1      32.695  -9.453 -39.418  0.00  0.00    +0.000 OA
ATOM     19  H5  UNL     1      33.242 -10.056 -38.816  0.00  0.00    +0.000 HD
ENDBRANCH  13  18
BRANCH  16  20
ATOM     20  O6  UNL     1      27.287 -10.437 -40.603  0.00  0.00    +0.000 OA
BRANCH  20  21
ATOM     21  C13 UNL     1      26.489  -9.692 -41.524  0.00  0.00    +0.000 C 
ATOM     22  O7  UNL     1      26.770  -8.309 -41.349  0.00  0.00    +0.000 OA
ATOM     23  C14 UNL     1      25.812  -7.513 -42.018  0.00  0.00    +0.000 C 
ATOM     24  C16 UNL     1      24.479  -7.542 -41.225  0.00  0.00    +0.000 C 
ATOM     25  C17 UNL     1      24.266  -8.912 -40.524  0.00  0.00    +0.000 C 
ATOM     26  C18 UNL     1      24.991 -10.048 -41.281  0.00  0.00    +0.000 C 
BRANCH  24  27
ATOM     27  O9  UNL     1      23.395  -7.222 -42.061  0.00  0.00    +0.000 OA
ATOM     28  H14 UNL     1      23.758  -6.815 -42.889  0.00  0.00    +0.000 HD
ENDBRANCH  24  27
BRANCH  25  29
ATOM     29  O10 UNL     1      24.760  -8.838 -39.210  0.00  0.00    +0.000 OA
ATOM     30  H16 UNL     1      24.005  -9.058 -38.604  0.00  0.00    +0.000 HD
ENDBRANCH  25  29
BRANCH  26  31
ATOM     31  O11 UNL     1      24.363 -10.283 -42.515  0.00  0.00    +0.000 OA
ATOM     32  H18 UNL     1      23.982 -11.199 -42.477  0.00  0.00    +0.000 HD
ENDBRANCH  26  31
BRANCH  23  33
ATOM     33  C15 UNL     1      26.348  -6.081 -42.143  0.00  0.00    +0.000 C 
BRANCH  33  34
ATOM     34  O8  UNL     1      27.750  -6.085 -42.172  0.00  0.00    +0.000 OA
ATOM     35  H12 UNL     1      28.048  -5.319 -41.615  0.00  0.00    +0.000 HD
ENDBRANCH  33  34
ENDBRANCH  23  33
ENDBRANCH  20  21
ENDBRANCH  16  20
TORSDOF 8
ENDMDL
MODEL 7
REMARK VINA RESULT:    -6.149      1.676      2.651
REMARK INTER + INTRA:          -8.776
REMARK INTER:                  -7.972
REMARK INTRA:                  -0.803
REMARK UNBOUND:                -0.649
REMARK  Name = resultss/4CJN/ligands/lig_311_t1.pdb
REMARK  8 active torsions:
REMARK  status: ('A' for Active; 'I' for Inactive)
REMARK    1  A    between atoms: C9_13  and  O5_14
REMARK    2  A    between atoms: C12_17  and  O6_18
REMARK    3  A    between atoms: O6_18  and  C13_19
REMARK    4  A    between atoms: C14_21  and  C15_22
REMARK    5  A    between atoms: C15_22  and  O8_23
REMARK    6  A    between atoms: C16_24  and  O9_25
REMARK    7  A    between atoms: C17_26  and  O10_27
REMARK    8  A    between atoms: C18_28  and  O11_29
REMARK                            x       y       z     vdW  Elec       q    Type
REMARK                         _______ _______ _______ _____ _____    ______ ____
ROOT
ATOM      1  O1  UNL     1      23.977  -7.664 -38.252  0.00  0.00    +0.000 OA
ATOM      2  C1  UNL     1      24.794  -8.138 -37.416  0.00  0.00    +0.000 A 
ATOM      3  C2  UNL     1      24.485  -8.109 -36.040  0.00  0.00    +0.000 A 
ATOM      4  C3  UNL     1      23.204  -7.541 -35.523  0.00  0.00    +0.000 C 
ATOM      5  O2  UNL     1      22.362  -7.032 -36.311  0.00  0.00    +0.000 OA
ATOM      6  C4  UNL     1      22.898  -7.518 -34.052  0.00  0.00    +0.000 C 
ATOM      7  C5  UNL     1      23.739  -8.514 -33.314  0.00  0.00    +0.000 C 
ATOM      8  O3  UNL     1      23.264  -9.149 -32.385  0.00  0.00    +0.000 OA
ATOM      9  C6  UNL     1      25.195  -8.646 -33.650  0.00  0.00    +0.000 C 
ATOM     10  C7  UNL     1      25.422  -8.656 -35.136  0.00  0.00    +0.000 A 
ATOM     11  O4  UNL     1      26.562  -9.170 -35.582  0.00  0.00    +0.000 OA
ATOM     12  C8  UNL     1      26.892  -9.219 -36.867  0.00  0.00    +0.000 A 
ATOM     13  C9  UNL     1      28.120  -9.786 -37.239  0.00  0.00    +0.000 A 
ATOM     14  C10 UNL     1      28.479  -9.843 -38.584  0.00  0.00    +0.000 A 
ATOM     15  C11 UNL     1      27.629  -9.340 -39.566  0.00  0.00    +0.000 A 
ATOM     16  C12 UNL     1      26.391  -8.763 -39.220  0.00  0.00    +0.000 A 
ATOM     17  C19 UNL     1      26.015  -8.701 -37.852  0.00  0.00    +0.000 A 
ENDROOT
BRANCH  13  18
ATOM     18  O5  UNL     1      28.998 -10.300 -36.284  0.00  0.00    +0.000 OA
ATOM     19  H5  UNL     1      28.842 -11.194 -35.833  0.00  0.00    +0.000 HD
ENDBRANCH  13  18
BRANCH  16  20
ATOM     20  O6  UNL     1      25.524  -8.252 -40.203  0.00  0.00    +0.000 OA
BRANCH  20  21
ATOM     21  C13 UNL     1      25.480  -8.666 -41.569  0.00  0.00    +0.000 C 
ATOM     22  O7  UNL     1      26.093  -7.660 -42.366  0.00  0.00    +0.000 OA
ATOM     23  C14 UNL     1      25.823  -7.872 -43.737  0.00  0.00    +0.000 C 
ATOM     24  C16 UNL     1      24.351  -7.484 -44.035  0.00  0.00    +0.000 C 
ATOM     25  C17 UNL     1      23.430  -7.783 -42.820  0.00  0.00    +0.000 C 
ATOM     26  C18 UNL     1      23.995  -8.934 -41.957  0.00  0.00    +0.000 C 
BRANCH  24  27
ATOM     27  O9  UNL     1      23.891  -8.131 -45.196  0.00  0.00    +0.000 OA
ATOM     28  H14 UNL     1      24.570  -8.002 -45.907  0.00  0.00    +0.000 HD
ENDBRANCH  24  27
BRANCH  25  29
ATOM     29  O10 UNL     1      23.316  -6.624 -42.034  0.00  0.00    +0.000 OA
ATOM     30  H16 UNL     1      24.042  -6.008 -42.319  0.00  0.00    +0.000 HD
ENDBRANCH  25  29
BRANCH  26  31
ATOM     31  O11 UNL     1      23.909 -10.149 -42.658  0.00  0.00    +0.000 OA
ATOM     32  H18 UNL     1      24.566 -10.768 -42.245  0.00  0.00    +0.000 HD
ENDBRANCH  26  31
BRANCH  23  33
ATOM     33  C15 UNL     1      26.794  -7.030 -44.575  0.00  0.00    +0.000 C 
BRANCH  33  34
ATOM     34  O8  UNL     1      26.433  -7.070 -45.929  0.00  0.00    +0.000 OA
ATOM     35  H12 UNL     1      26.895  -7.854 -46.324  0.00  0.00    +0.000 HD
ENDBRANCH  33  34
ENDBRANCH  23  33
ENDBRANCH  20  21
ENDBRANCH  16  20
TORSDOF 8
ENDMDL
MODEL 8
REMARK VINA RESULT:    -6.133      2.196      2.919
REMARK INTER + INTRA:          -8.754
REMARK INTER:                  -7.891
REMARK INTRA:                  -0.863
REMARK UNBOUND:                -0.649
REMARK  Name = resultss/4CJN/ligands/lig_311_t1.pdb
REMARK  8 active torsions:
REMARK  status: ('A' for Active; 'I' for Inactive)
REMARK    1  A    between atoms: C9_13  and  O5_14
REMARK    2  A    between atoms: C12_17  and  O6_18
REMARK    3  A    between atoms: O6_18  and  C13_19
REMARK    4  A    between atoms: C14_21  and  C15_22
REMARK    5  A    between atoms: C15_22  and  O8_23
REMARK    6  A    between atoms: C16_24  and  O9_25
REMARK    7  A    between atoms: C17_26  and  O10_27
REMARK    8  A    between atoms: C18_28  and  O11_29
REMARK                            x       y       z     vdW  Elec       q    Type
REMARK                         _______ _______ _______ _____ _____    ______ ____
ROOT
ATOM      1  O1  UNL     1      27.637  -8.041 -39.133  0.00  0.00    +0.000 OA
ATOM      2  C1  UNL     1      28.780  -8.576 -39.158  0.00  0.00    +0.000 A 
ATOM      3  C2  UNL     1      29.541  -8.659 -37.973  0.00  0.00    +0.000 A 
ATOM      4  C3  UNL     1      29.038  -8.145 -36.665  0.00  0.00    +0.000 C 
ATOM      5  O2  UNL     1      27.914  -7.579 -36.587  0.00  0.00    +0.000 OA
ATOM      6  C4  UNL     1      29.868  -8.243 -35.417  0.00  0.00    +0.000 C 
ATOM      7  C5  UNL     1      30.930  -9.289 -35.560  0.00  0.00    +0.000 C 
ATOM      8  O3  UNL     1      31.222 -10.001 -34.611  0.00  0.00    +0.000 OA
ATOM      9  C6  UNL     1      31.708  -9.383 -36.839  0.00  0.00    +0.000 C 
ATOM     10  C7  UNL     1      30.812  -9.272 -38.042  0.00  0.00    +0.000 A 
ATOM     11  O4  UNL     1      31.269  -9.739 -39.197  0.00  0.00    +0.000 OA
ATOM     12  C8  UNL     1      30.587  -9.682 -40.334  0.00  0.00    +0.000 A 
ATOM     13  C9  UNL     1      31.156 -10.209 -41.503  0.00  0.00    +0.000 A 
ATOM     14  C10 UNL     1      30.451 -10.154 -42.704  0.00  0.00    +0.000 A 
ATOM     15  C11 UNL     1      29.183  -9.579 -42.755  0.00  0.00    +0.000 A 
ATOM     16  C12 UNL     1      28.589  -9.040 -41.596  0.00  0.00    +0.000 A 
ATOM     17  C19 UNL     1      29.299  -9.092 -40.367  0.00  0.00    +0.000 A 
ENDROOT
BRANCH  13  18
ATOM     18  O5  UNL     1      32.423 -10.792 -41.491  0.00  0.00    +0.000 OA
ATOM     19  H5  UNL     1      32.741 -11.409 -42.228  0.00  0.00    +0.000 HD
ENDBRANCH  13  18
BRANCH  16  20
ATOM     20  O6  UNL     1      27.309  -8.459 -41.636  0.00  0.00    +0.000 OA
BRANCH  20  21
ATOM     21  C13 UNL     1      26.204  -8.933 -42.405  0.00  0.00    +0.000 C 
ATOM     22  O7  UNL     1      25.764  -7.884 -43.259  0.00  0.00    +0.000 OA
ATOM     23  C14 UNL     1      24.506  -8.191 -43.826  0.00  0.00    +0.000 C 
ATOM     24  C16 UNL     1      23.405  -8.035 -42.744  0.00  0.00    +0.000 C 
ATOM     25  C17 UNL     1      23.938  -8.411 -41.334  0.00  0.00    +0.000 C 
ATOM     26  C18 UNL     1      25.097  -9.430 -41.426  0.00  0.00    +0.000 C 
BRANCH  24  27
ATOM     27  O9  UNL     1      22.267  -8.791 -43.078  0.00  0.00    +0.000 OA
ATOM     28  H14 UNL     1      21.615  -8.706 -42.336  0.00  0.00    +0.000 HD
ENDBRANCH  24  27
BRANCH  25  29
ATOM     29  O10 UNL     1      24.391  -7.248 -40.689  0.00  0.00    +0.000 OA
ATOM     30  H16 UNL     1      23.639  -6.915 -40.131  0.00  0.00    +0.000 HD
ENDBRANCH  25  29
BRANCH  26  31
ATOM     31  O11 UNL     1      24.612 -10.674 -41.865  0.00  0.00    +0.000 OA
ATOM     32  H18 UNL     1      24.521 -11.249 -41.061  0.00  0.00    +0.000 HD
ENDBRANCH  26  31
BRANCH  23  33
ATOM     33  C15 UNL     1      24.248  -7.254 -45.013  0.00  0.00    +0.000 C 
BRANCH  33  34
ATOM     34  O8  UNL     1      23.178  -7.727 -45.785  0.00  0.00    +0.000 OA
ATOM     35  H12 UNL     1      22.637  -6.933 -46.038  0.00  0.00    +0.000 HD
ENDBRANCH  33  34
ENDBRANCH  23  33
ENDBRANCH  20  21
ENDBRANCH  16  20
TORSDOF 8
ENDMDL
MODEL 9
REMARK VINA RESULT:    -6.121      2.830      9.294
REMARK INTER + INTRA:          -8.739
REMARK INTER:                  -8.140
REMARK INTRA:                  -0.598
REMARK UNBOUND:                -0.649
REMARK  Name = resultss/4CJN/ligands/lig_311_t1.pdb
REMARK  8 active torsions:
REMARK  status: ('A' for Active; 'I' for Inactive)
REMARK    1  A    between atoms: C9_13  and  O5_14
REMARK    2  A    between atoms: C12_17  and  O6_18
REMARK    3  A    between atoms: O6_18  and  C13_19
REMARK    4  A    between atoms: C14_21  and  C15_22
REMARK    5  A    between atoms: C15_22  and  O8_23
REMARK    6  A    between atoms: C16_24  and  O9_25
REMARK    7  A    between atoms: C17_26  and  O10_27
REMARK    8  A    between atoms: C18_28  and  O11_29
REMARK                            x       y       z     vdW  Elec       q    Type
REMARK                         _______ _______ _______ _____ _____    ______ ____
ROOT
ATOM      1  O1  UNL     1      28.117 -10.197 -37.170  0.00  0.00    +0.000 OA
ATOM      2  C1  UNL     1      27.066  -9.611 -37.547  0.00  0.00    +0.000 A 
ATOM      3  C2  UNL     1      26.835  -9.402 -38.924  0.00  0.00    +0.000 A 
ATOM      4  C3  UNL     1      27.793  -9.865 -39.971  0.00  0.00    +0.000 C 
ATOM      5  O2  UNL     1      28.871 -10.434 -39.650  0.00  0.00    +0.000 OA
ATOM      6  C4  UNL     1      27.528  -9.628 -41.431  0.00  0.00    +0.000 C 
ATOM      7  C5  UNL     1      26.074  -9.363 -41.675  0.00  0.00    +0.000 C 
ATOM      8  O3  UNL     1      25.528  -9.808 -42.673  0.00  0.00    +0.000 OA
ATOM      9  C6  UNL     1      25.322  -8.456 -40.746  0.00  0.00    +0.000 C 
ATOM     10  C7  UNL     1      25.643  -8.749 -39.306  0.00  0.00    +0.000 A 
ATOM     11  O4  UNL     1      24.779  -8.338 -38.386  0.00  0.00    +0.000 OA
ATOM     12  C8  UNL     1      24.956  -8.514 -37.082  0.00  0.00    +0.000 A 
ATOM     13  C9  UNL     1      23.981  -8.046 -36.188  0.00  0.00    +0.000 A 
ATOM     14  C10 UNL     1      24.154  -8.224 -34.817  0.00  0.00    +0.000 A 
ATOM     15  C11 UNL     1      25.290  -8.862 -34.324  0.00  0.00    +0.000 A 
ATOM     16  C12 UNL     1      26.285  -9.340 -35.200  0.00  0.00    +0.000 A 
ATOM     17  C19 UNL     1      26.117  -9.165 -36.599  0.00  0.00    +0.000 A 
ENDROOT
BRANCH  13  18
ATOM     18  O5  UNL     1      22.831  -7.402 -36.645  0.00  0.00    +0.000 OA
ATOM     19  H5  UNL     1      22.393  -7.639 -37.526  0.00  0.00    +0.000 HD
ENDBRANCH  13  18
BRANCH  16  20
ATOM     20  O6  UNL     1      27.435  -9.988 -34.713  0.00  0.00    +0.000 OA
BRANCH  20  21
ATOM     21  C13 UNL     1      28.257  -9.528 -33.640  0.00  0.00    +0.000 C 
ATOM     22  O7  UNL     1      27.937  -8.168 -33.376  0.00  0.00    +0.000 OA
ATOM     23  C14 UNL     1      28.907  -7.578 -32.534  0.00  0.00    +0.000 C 
ATOM     24  C16 UNL     1      30.203  -7.319 -33.347  0.00  0.00    +0.000 C 
ATOM     25  C17 UNL     1      30.414  -8.406 -34.437  0.00  0.00    +0.000 C 
ATOM     26  C18 UNL     1      29.750  -9.742 -34.034  0.00  0.00    +0.000 C 
BRANCH  24  27
ATOM     27  O9  UNL     1      31.317  -7.228 -32.493  0.00  0.00    +0.000 OA
ATOM     28  H14 UNL     1      31.167  -7.842 -31.730  0.00  0.00    +0.000 HD
ENDBRANCH  24  27
BRANCH  25  29
ATOM     29  O10 UNL     1      29.859  -7.956 -35.647  0.00  0.00    +0.000 OA
ATOM     30  H16 UNL     1      29.379  -7.110 -35.449  0.00  0.00    +0.000 HD
ENDBRANCH  25  29
BRANCH  26  31
ATOM     31  O11 UNL     1      30.439 -10.316 -32.952  0.00  0.00    +0.000 OA
ATOM     32  H18 UNL     1      31.407 -10.269 -33.168  0.00  0.00    +0.000 HD
ENDBRANCH  26  31
BRANCH  23  33
ATOM     33  C15 UNL     1      28.346  -6.270 -31.962  0.00  0.00    +0.000 C 
BRANCH  33  34
ATOM     34  O8  UNL     1      27.596  -6.524 -30.805  0.00  0.00    +0.000 OA
ATOM     35  H12 UNL     1      26.796  -7.039 -31.091  0.00  0.00    +0.000 HD
ENDBRANCH  33  34
ENDBRANCH  23  33
ENDBRANCH  20  21
ENDBRANCH  16  20
TORSDOF 8
ENDMDL
