MODEL 1
REMARK VINA RESULT:    -5.126      0.000      0.000
REMARK INTER + INTRA:          -9.003
REMARK INTER:                  -8.422
REMARK INTRA:                  -0.582
REMARK UNBOUND:                -0.582
REMARK  Name = resultss/4CJN/ligands/lig_39_t0.pdb
REMARK  14 active torsions:
REMARK  status: ('A' for Active; 'I' for Inactive)
REMARK    1  A    between atoms: C1_1  and  C2_2
REMARK    2  A    between atoms: C2_2  and  C3_3
REMARK    3  A    between atoms: C3_3  and  C4_4
REMARK    4  A    between atoms: C4_4  and  C5_5
REMARK    5  A    between atoms: C5_5  and  C6_6
REMARK    6  A    between atoms: C6_6  and  C7_7
REMARK    7  A    between atoms: C7_7  and  C8_8
REMARK    8  A    between atoms: C8_8  and  N1_9
REMARK    9  A    between atoms: N1_9  and  C9_10
REMARK   10  A    between atoms: C11_12  and  C12_13
REMARK   11  A    between atoms: C12_13  and  O1_14
REMARK   12  A    between atoms: C13_15  and  O2_16
REMARK   13  A    between atoms: C14_17  and  O3_18
REMARK   14  A    between atoms: C15_19  and  O4_20
REMARK                            x       y       z     vdW  Elec       q    Type
REMARK                         _______ _______ _______ _____ _____    ______ ____
ROOT
ATOM      1  C9  UNL     1      26.051  -7.587 -43.102  0.00  0.00    +0.000 C 
ATOM      2  C10 UNL     1      26.492  -7.337 -44.522  0.00  0.00    +0.000 C 
ATOM      3  C11 UNL     1      25.610  -7.101 -45.519  0.00  0.00    +0.000 C 
ATOM      4  C13 UNL     1      24.094  -7.154 -45.305  0.00  0.00    +0.000 C 
ATOM      5  C14 UNL     1      23.646  -7.451 -43.838  0.00  0.00    +0.000 C 
ATOM      6  C15 UNL     1      24.669  -8.287 -43.034  0.00  0.00    +0.000 C 
ENDROOT
BRANCH   1   7
ATOM      7  N1  UNL     1      27.106  -8.229 -42.291  0.00  0.00    +0.000 NA
ATOM      8  H18 UNL     1      26.715  -9.101 -41.859  0.00  0.00    +0.000 HD
BRANCH   7   9
ATOM      9  C8  UNL     1      28.338  -8.574 -43.018  0.00  0.00    +0.000 C 
BRANCH   9  10
ATOM     10  C7  UNL     1      28.891  -9.907 -42.507  0.00  0.00    +0.000 C 
BRANCH  10  11
ATOM     11  C6  UNL     1      30.365 -10.097 -42.903  0.00  0.00    +0.000 C 
BRANCH  11  12
ATOM     12  C5  UNL     1      30.797 -11.571 -42.908  0.00  0.00    +0.000 C 
BRANCH  12  13
ATOM     13  C4  UNL     1      32.006 -11.841 -43.820  0.00  0.00    +0.000 C 
BRANCH  13  14
ATOM     14  C3  UNL     1      31.955 -13.255 -44.440  0.00  0.00    +0.000 C 
BRANCH  14  16
ATOM     15  C1  UNL     1      32.697 -14.571 -46.501  0.00  0.00    +0.000 C 
ATOM     16  C2  UNL     1      33.074 -13.515 -45.464  0.00  0.00    +0.000 C 
ENDBRANCH  14  16
ENDBRANCH  13  14
ENDBRANCH  12  13
ENDBRANCH  11  12
ENDBRANCH  10  11
ENDBRANCH   9  10
ENDBRANCH   7   9
ENDBRANCH   1   7
BRANCH   4  17
ATOM     17  O2  UNL     1      23.497  -8.044 -46.217  0.00  0.00    +0.000 OA
ATOM     18  H25 UNL     1      23.765  -7.768 -47.130  0.00  0.00    +0.000 HD
ENDBRANCH   4  17
BRANCH   5  19
ATOM     19  O3  UNL     1      22.357  -8.014 -43.783  0.00  0.00    +0.000 OA
ATOM     20  H27 UNL     1      22.078  -8.234 -44.709  0.00  0.00    +0.000 HD
ENDBRANCH   5  19
BRANCH   6  21
ATOM     21  O4  UNL     1      24.693  -9.626 -43.469  0.00  0.00    +0.000 OA
ATOM     22  H29 UNL     1      25.626  -9.868 -43.702  0.00  0.00    +0.000 HD
ENDBRANCH   6  21
BRANCH   3  23
ATOM     23  C12 UNL     1      26.125  -6.724 -46.884  0.00  0.00    +0.000 C 
BRANCH  23  24
ATOM     24  O1  UNL     1      25.745  -7.705 -47.811  0.00  0.00    +0.000 OA
ATOM     25  H23 UNL     1      24.925  -7.367 -48.258  0.00  0.00    +0.000 HD
ENDBRANCH  23  24
ENDBRANCH   3  23
TORSDOF 13
ENDMDL
MODEL 2
REMARK VINA RESULT:    -5.053      6.304      9.138
REMARK INTER + INTRA:          -8.884
REMARK INTER:                  -7.757
REMARK INTRA:                  -1.127
REMARK UNBOUND:                -0.582
REMARK  Name = resultss/4CJN/ligands/lig_39_t0.pdb
REMARK  14 active torsions:
REMARK  status: ('A' for Active; 'I' for Inactive)
REMARK    1  A    between atoms: C1_1  and  C2_2
REMARK    2  A    between atoms: C2_2  and  C3_3
REMARK    3  A    between atoms: C3_3  and  C4_4
REMARK    4  A    between atoms: C4_4  and  C5_5
REMARK    5  A    between atoms: C5_5  and  C6_6
REMARK    6  A    between atoms: C6_6  and  C7_7
REMARK    7  A    between atoms: C7_7  and  C8_8
REMARK    8  A    between atoms: C8_8  and  N1_9
REMARK    9  A    between atoms: N1_9  and  C9_10
REMARK   10  A    between atoms: C11_12  and  C12_13
REMARK   11  A    between atoms: C12_13  and  O1_14
REMARK   12  A    between atoms: C13_15  and  O2_16
REMARK   13  A    between atoms: C14_17  and  O3_18
REMARK   14  A    between atoms: C15_19  and  O4_20
REMARK                            x       y       z     vdW  Elec       q    Type
REMARK                         _______ _______ _______ _____ _____    ______ ____
ROOT
ATOM      1  C9  UNL     1      25.190  -7.811 -38.917  0.00  0.00    +0.000 C 
ATOM      2  C10 UNL     1      26.163  -8.673 -38.153  0.00  0.00    +0.000 C 
ATOM      3  C11 UNL     1      27.094  -9.430 -38.774  0.00  0.00    +0.000 C 
ATOM      4  C13 UNL     1      27.180  -9.542 -40.299  0.00  0.00    +0.000 C 
ATOM      5  C14 UNL     1      26.143  -8.674 -41.081  0.00  0.00    +0.000 C 
ATOM      6  C15 UNL     1      24.834  -8.415 -40.300  0.00  0.00    +0.000 C 
ENDROOT
BRANCH   1   7
ATOM      7  N1  UNL     1      24.024  -7.420 -38.098  0.00  0.00    +0.000 NA
ATOM      8  H18 UNL     1      23.151  -7.757 -38.572  0.00  0.00    +0.000 HD
BRANCH   7   9
ATOM      9  C8  UNL     1      24.031  -7.916 -36.713  0.00  0.00    +0.000 C 
BRANCH   9  10
ATOM     10  C7  UNL     1      22.942  -7.212 -35.899  0.00  0.00    +0.000 C 
BRANCH  10  11
ATOM     11  C6  UNL     1      22.391  -8.120 -34.787  0.00  0.00    +0.000 C 
BRANCH  11  12
ATOM     12  C5  UNL     1      23.155  -7.972 -33.463  0.00  0.00    +0.000 C 
BRANCH  12  13
ATOM     13  C4  UNL     1      24.068  -9.172 -33.157  0.00  0.00    +0.000 C 
BRANCH  13  14
ATOM     14  C3  UNL     1      25.547  -8.868 -33.483  0.00  0.00    +0.000 C 
BRANCH  14  16
ATOM     15  C1  UNL     1      27.718  -9.786 -34.470  0.00  0.00    +0.000 C 
ATOM     16  C2  UNL     1      26.197  -9.911 -34.408  0.00  0.00    +0.000 C 
ENDBRANCH  14  16
ENDBRANCH  13  14
ENDBRANCH  12  13
ENDBRANCH  11  12
ENDBRANCH  10  11
ENDBRANCH   9  10
ENDBRANCH   7   9
ENDBRANCH   1   7
BRANCH   4  17
ATOM     17  O2  UNL     1      27.131 -10.890 -40.700  0.00  0.00    +0.000 OA
ATOM     18  H25 UNL     1      27.569 -11.432 -39.995  0.00  0.00    +0.000 HD
ENDBRANCH   4  17
BRANCH   5  19
ATOM     19  O3  UNL     1      25.887  -9.188 -42.367  0.00  0.00    +0.000 OA
ATOM     20  H27 UNL     1      25.464 -10.080 -42.263  0.00  0.00    +0.000 HD
ENDBRANCH   5  19
BRANCH   6  21
ATOM     21  O4  UNL     1      24.044  -9.578 -40.220  0.00  0.00    +0.000 OA
ATOM     22  H29 UNL     1      24.253 -10.158 -40.997  0.00  0.00    +0.000 HD
ENDBRANCH   6  21
BRANCH   3  23
ATOM     23  C12 UNL     1      28.121 -10.160 -37.946  0.00  0.00    +0.000 C 
BRANCH  23  24
ATOM     24  O1  UNL     1      27.988 -11.540 -38.152  0.00  0.00    +0.000 OA
ATOM     25  H23 UNL     1      28.909 -11.905 -38.220  0.00  0.00    +0.000 HD
ENDBRANCH  23  24
ENDBRANCH   3  23
TORSDOF 13
ENDMDL
MODEL 3
REMARK VINA RESULT:    -5.027      3.781      5.353
REMARK INTER + INTRA:          -8.841
REMARK INTER:                  -8.301
REMARK INTRA:                  -0.540
REMARK UNBOUND:                -0.582
REMARK  Name = resultss/4CJN/ligands/lig_39_t0.pdb
REMARK  14 active torsions:
REMARK  status: ('A' for Active; 'I' for Inactive)
REMARK    1  A    between atoms: C1_1  and  C2_2
REMARK    2  A    between atoms: C2_2  and  C3_3
REMARK    3  A    between atoms: C3_3  and  C4_4
REMARK    4  A    between atoms: C4_4  and  C5_5
REMARK    5  A    between atoms: C5_5  and  C6_6
REMARK    6  A    between atoms: C6_6  and  C7_7
REMARK    7  A    between atoms: C7_7  and  C8_8
REMARK    8  A    between atoms: C8_8  and  N1_9
REMARK    9  A    between atoms: N1_9  and  C9_10
REMARK   10  A    between atoms: C11_12  and  C12_13
REMARK   11  A    between atoms: C12_13  and  O1_14
REMARK   12  A    between atoms: C13_15  and  O2_16
REMARK   13  A    between atoms: C14_17  and  O3_18
REMARK   14  A    between atoms: C15_19  and  O4_20
REMARK                            x       y       z     vdW  Elec       q    Type
REMARK                         _______ _______ _______ _____ _____    ______ ____
ROOT
ATOM      1  C9  UNL     1      28.663  -9.867 -40.075  0.00  0.00    +0.000 C 
ATOM      2  C10 UNL     1      27.322  -9.682 -40.737  0.00  0.00    +0.000 C 
ATOM      3  C11 UNL     1      26.293  -9.063 -40.118  0.00  0.00    +0.000 C 
ATOM      4  C13 UNL     1      26.378  -8.578 -38.668  0.00  0.00    +0.000 C 
ATOM      5  C14 UNL     1      27.761  -8.808 -37.977  0.00  0.00    +0.000 C 
ATOM      6  C15 UNL     1      28.540 -10.020 -38.537  0.00  0.00    +0.000 C 
ENDROOT
BRANCH   1   7
ATOM      7  N1  UNL     1      29.475 -10.912 -40.733  0.00  0.00    +0.000 NA
ATOM      8  H18 UNL     1      29.021 -11.844 -40.574  0.00  0.00    +0.000 HD
BRANCH   7   9
ATOM      9  C8  UNL     1      29.685 -10.731 -42.178  0.00  0.00    +0.000 C 
BRANCH   9  10
ATOM     10  C7  UNL     1      31.142 -11.033 -42.538  0.00  0.00    +0.000 C 
BRANCH  10  11
ATOM     11  C6  UNL     1      31.294 -12.437 -43.148  0.00  0.00    +0.000 C 
BRANCH  11  12
ATOM     12  C5  UNL     1      32.652 -12.644 -43.834  0.00  0.00    +0.000 C 
BRANCH  12  13
ATOM     13  C4  UNL     1      32.542 -13.392 -45.175  0.00  0.00    +0.000 C 
BRANCH  13  14
ATOM     14  C3  UNL     1      33.555 -12.862 -46.213  0.00  0.00    +0.000 C 
BRANCH  14  16
ATOM     15  C1  UNL     1      33.286 -15.232 -47.132  0.00  0.00    +0.000 C 
ATOM     16  C2  UNL     1      34.136 -13.963 -47.118  0.00  0.00    +0.000 C 
ENDBRANCH  14  16
ENDBRANCH  13  14
ENDBRANCH  12  13
ENDBRANCH  11  12
ENDBRANCH  10  11
ENDBRANCH   9  10
ENDBRANCH   7   9
ENDBRANCH   1   7
BRANCH   4  17
ATOM     17  O2  UNL     1      25.324  -9.113 -37.904  0.00  0.00    +0.000 OA
ATOM     18  H25 UNL     1      24.902  -9.836 -38.435  0.00  0.00    +0.000 HD
ENDBRANCH   4  17
BRANCH   5  19
ATOM     19  O3  UNL     1      27.647  -8.866 -36.574  0.00  0.00    +0.000 OA
ATOM     20  H27 UNL     1      27.362  -7.972 -36.252  0.00  0.00    +0.000 HD
ENDBRANCH   5  19
BRANCH   6  21
ATOM     21  O4  UNL     1      27.954 -11.237 -38.136  0.00  0.00    +0.000 OA
ATOM     22  H29 UNL     1      27.715 -11.174 -37.176  0.00  0.00    +0.000 HD
ENDBRANCH   6  21
BRANCH   3  23
ATOM     23  C12 UNL     1      25.026  -8.791 -40.888  0.00  0.00    +0.000 C 
BRANCH  23  24
ATOM     24  O1  UNL     1      23.995  -9.595 -40.384  0.00  0.00    +0.000 OA
ATOM     25  H23 UNL     1      23.616  -9.111 -39.604  0.00  0.00    +0.000 HD
ENDBRANCH  23  24
ENDBRANCH   3  23
TORSDOF 13
ENDMDL
MODEL 4
REMARK VINA RESULT:    -4.924      1.786      2.512
REMARK INTER + INTRA:          -8.673
REMARK INTER:                  -7.631
REMARK INTRA:                  -1.042
REMARK UNBOUND:                -0.582
REMARK  Name = resultss/4CJN/ligands/lig_39_t0.pdb
REMARK  14 active torsions:
REMARK  status: ('A' for Active; 'I' for Inactive)
REMARK    1  A    between atoms: C1_1  and  C2_2
REMARK    2  A    between atoms: C2_2  and  C3_3
REMARK    3  A    between atoms: C3_3  and  C4_4
REMARK    4  A    between atoms: C4_4  and  C5_5
REMARK    5  A    between atoms: C5_5  and  C6_6
REMARK    6  A    between atoms: C6_6  and  C7_7
REMARK    7  A    between atoms: C7_7  and  C8_8
REMARK    8  A    between atoms: C8_8  and  N1_9
REMARK    9  A    between atoms: N1_9  and  C9_10
REMARK   10  A    between atoms: C11_12  and  C12_13
REMARK   11  A    between atoms: C12_13  and  O1_14
REMARK   12  A    between atoms: C13_15  and  O2_16
REMARK   13  A    between atoms: C14_17  and  O3_18
REMARK   14  A    between atoms: C15_19  and  O4_20
REMARK                            x       y       z     vdW  Elec       q    Type
REMARK                         _______ _______ _______ _____ _____    ______ ____
ROOT
ATOM      1  C9  UNL     1      24.894  -8.447 -41.533  0.00  0.00    +0.000 C 
ATOM      2  C10 UNL     1      26.030  -8.270 -42.509  0.00  0.00    +0.000 C 
ATOM      3  C11 UNL     1      25.842  -7.770 -43.750  0.00  0.00    +0.000 C 
ATOM      4  C13 UNL     1      24.453  -7.423 -44.294  0.00  0.00    +0.000 C 
ATOM      5  C14 UNL     1      23.278  -7.644 -43.289  0.00  0.00    +0.000 C 
ATOM      6  C15 UNL     1      23.552  -8.753 -42.247  0.00  0.00    +0.000 C 
ENDROOT
BRANCH   1   7
ATOM      7  N1  UNL     1      25.234  -9.378 -40.438  0.00  0.00    +0.000 NA
ATOM      8  H18 UNL     1      24.389  -9.954 -40.210  0.00  0.00    +0.000 HD
BRANCH   7   9
ATOM      9  C8  UNL     1      26.363 -10.283 -40.707  0.00  0.00    +0.000 C 
BRANCH   9  10
ATOM     10  C7  UNL     1      27.415 -10.149 -39.602  0.00  0.00    +0.000 C 
BRANCH  10  11
ATOM     11  C6  UNL     1      28.835 -10.035 -40.184  0.00  0.00    +0.000 C 
BRANCH  11  12
ATOM     12  C5  UNL     1      29.076 -10.993 -41.360  0.00  0.00    +0.000 C 
BRANCH  12  13
ATOM     13  C4  UNL     1      29.695 -10.298 -42.586  0.00  0.00    +0.000 C 
BRANCH  13  14
ATOM     14  C3  UNL     1      31.236 -10.403 -42.589  0.00  0.00    +0.000 C 
BRANCH  14  16
ATOM     15  C1  UNL     1      31.640 -12.794 -43.395  0.00  0.00    +0.000 C 
ATOM     16  C2  UNL     1      31.786 -11.306 -43.706  0.00  0.00    +0.000 C 
ENDBRANCH  14  16
ENDBRANCH  13  14
ENDBRANCH  12  13
ENDBRANCH  11  12
ENDBRANCH  10  11
ENDBRANCH   9  10
ENDBRANCH   7   9
ENDBRANCH   1   7
BRANCH   4  17
ATOM     17  O2  UNL     1      24.220  -8.085 -45.514  0.00  0.00    +0.000 OA
ATOM     18  H25 UNL     1      24.899  -7.771 -46.165  0.00  0.00    +0.000 HD
ENDBRANCH   4  17
BRANCH   5  19
ATOM     19  O3  UNL     1      22.049  -7.843 -43.948  0.00  0.00    +0.000 OA
ATOM     20  H27 UNL     1      21.554  -6.984 -43.942  0.00  0.00    +0.000 HD
ENDBRANCH   5  19
BRANCH   6  21
ATOM     21  O4  UNL     1      23.506 -10.033 -42.834  0.00  0.00    +0.000 OA
ATOM     22  H29 UNL     1      24.419 -10.280 -43.133  0.00  0.00    +0.000 HD
ENDBRANCH   6  21
BRANCH   3  23
ATOM     23  C12 UNL     1      27.040  -7.493 -44.622  0.00  0.00    +0.000 C 
BRANCH  23  24
ATOM     24  O1  UNL     1      26.750  -6.427 -45.484  0.00  0.00    +0.000 OA
ATOM     25  H23 UNL     1      25.868  -6.628 -45.895  0.00  0.00    +0.000 HD
ENDBRANCH  23  24
ENDBRANCH   3  23
TORSDOF 13
ENDMDL
MODEL 5
REMARK VINA RESULT:    -4.855      6.514      8.121
REMARK INTER + INTRA:          -8.559
REMARK INTER:                  -7.655
REMARK INTRA:                  -0.904
REMARK UNBOUND:                -0.582
REMARK  Name = resultss/4CJN/ligands/lig_39_t0.pdb
REMARK  14 active torsions:
REMARK  status: ('A' for Active; 'I' for Inactive)
REMARK    1  A    between atoms: C1_1  and  C2_2
REMARK    2  A    between atoms: C2_2  and  C3_3
REMARK    3  A    between atoms: C3_3  and  C4_4
REMARK    4  A    between atoms: C4_4  and  C5_5
REMARK    5  A    between atoms: C5_5  and  C6_6
REMARK    6  A    between atoms: C6_6  and  C7_7
REMARK    7  A    between atoms: C7_7  and  C8_8
REMARK    8  A    between atoms: C8_8  and  N1_9
REMARK    9  A    between atoms: N1_9  and  C9_10
REMARK   10  A    between atoms: C11_12  and  C12_13
REMARK   11  A    between atoms: C12_13  and  O1_14
REMARK   12  A    between atoms: C13_15  and  O2_16
REMARK   13  A    between atoms: C14_17  and  O3_18
REMARK   14  A    between atoms: C15_19  and  O4_20
REMARK                            x       y       z     vdW  Elec       q    Type
REMARK                         _______ _______ _______ _____ _____    ______ ____
ROOT
ATOM      1  C9  UNL     1      26.801  -9.215 -35.752  0.00  0.00    +0.000 C 
ATOM      2  C10 UNL     1      25.736  -8.798 -36.734  0.00  0.00    +0.000 C 
ATOM      3  C11 UNL     1      24.601  -8.178 -36.344  0.00  0.00    +0.000 C 
ATOM      4  C13 UNL     1      24.267  -7.925 -34.871  0.00  0.00    +0.000 C 
ATOM      5  C14 UNL     1      25.360  -8.394 -33.858  0.00  0.00    +0.000 C 
ATOM      6  C15 UNL     1      26.209  -9.582 -34.367  0.00  0.00    +0.000 C 
ENDROOT
BRANCH   1   7
ATOM      7  N1  UNL     1      27.720 -10.226 -36.315  0.00  0.00    +0.000 NA
ATOM      8  H18 UNL     1      27.208 -10.776 -37.047  0.00  0.00    +0.000 HD
BRANCH   7   9
ATOM      9  C8  UNL     1      28.959  -9.694 -36.905  0.00  0.00    +0.000 C 
BRANCH   9  10
ATOM     10  C7  UNL     1      28.950  -9.908 -38.421  0.00  0.00    +0.000 C 
BRANCH  10  11
ATOM     11  C6  UNL     1      27.766 -10.786 -38.861  0.00  0.00    +0.000 C 
BRANCH  11  12
ATOM     12  C5  UNL     1      27.807 -11.138 -40.356  0.00  0.00    +0.000 C 
BRANCH  12  13
ATOM     13  C4  UNL     1      27.841  -9.897 -41.265  0.00  0.00    +0.000 C 
BRANCH  13  14
ATOM     14  C3  UNL     1      28.944 -10.004 -42.342  0.00  0.00    +0.000 C 
BRANCH  14  16
ATOM     15  C1  UNL     1      30.955 -11.345 -43.172  0.00  0.00    +0.000 C 
ATOM     16  C2  UNL     1      30.051 -11.011 -41.987  0.00  0.00    +0.000 C 
ENDBRANCH  14  16
ENDBRANCH  13  14
ENDBRANCH  12  13
ENDBRANCH  11  12
ENDBRANCH  10  11
ENDBRANCH   9  10
ENDBRANCH   7   9
ENDBRANCH   1   7
BRANCH   4  17
ATOM     17  O2  UNL     1      23.005  -8.459 -34.551  0.00  0.00    +0.000 OA
ATOM     18  H25 UNL     1      22.431  -8.386 -35.356  0.00  0.00    +0.000 HD
ENDBRANCH   4  17
BRANCH   5  19
ATOM     19  O3  UNL     1      24.823  -8.648 -32.581  0.00  0.00    +0.000 OA
ATOM     20  H27 UNL     1      24.649  -7.776 -32.142  0.00  0.00    +0.000 HD
ENDBRANCH   5  19
BRANCH   6  21
ATOM     21  O4  UNL     1      25.468 -10.779 -34.370  0.00  0.00    +0.000 OA
ATOM     22  H29 UNL     1      24.913 -10.812 -33.548  0.00  0.00    +0.000 HD
ENDBRANCH   6  21
BRANCH   3  23
ATOM     23  C12 UNL     1      23.643  -7.668 -37.390  0.00  0.00    +0.000 C 
BRANCH  23  24
ATOM     24  O1  UNL     1      22.756  -6.756 -36.803  0.00  0.00    +0.000 OA
ATOM     25  H23 UNL     1      21.939  -7.270 -36.566  0.00  0.00    +0.000 HD
ENDBRANCH  23  24
ENDBRANCH   3  23
TORSDOF 13
ENDMDL
MODEL 6
REMARK VINA RESULT:    -4.843      1.611      2.407
REMARK INTER + INTRA:          -8.538
REMARK INTER:                  -7.879
REMARK INTRA:                  -0.660
REMARK UNBOUND:                -0.582
REMARK  Name = resultss/4CJN/ligands/lig_39_t0.pdb
REMARK  14 active torsions:
REMARK  status: ('A' for Active; 'I' for Inactive)
REMARK    1  A    between atoms: C1_1  and  C2_2
REMARK    2  A    between atoms: C2_2  and  C3_3
REMARK    3  A    between atoms: C3_3  and  C4_4
REMARK    4  A    between atoms: C4_4  and  C5_5
REMARK    5  A    between atoms: C5_5  and  C6_6
REMARK    6  A    between atoms: C6_6  and  C7_7
REMARK    7  A    between atoms: C7_7  and  C8_8
REMARK    8  A    between atoms: C8_8  and  N1_9
REMARK    9  A    between atoms: N1_9  and  C9_10
REMARK   10  A    between atoms: C11_12  and  C12_13
REMARK   11  A    between atoms: C12_13  and  O1_14
REMARK   12  A    between atoms: C13_15  and  O2_16
REMARK   13  A    between atoms: C14_17  and  O3_18
REMARK   14  A    between atoms: C15_19  and  O4_20
REMARK                            x       y       z     vdW  Elec       q    Type
REMARK                         _______ _______ _______ _____ _____    ______ ____
ROOT
ATOM      1  C9  UNL     1      24.385  -7.204 -43.418  0.00  0.00    +0.000 C 
ATOM      2  C10 UNL     1      24.617  -7.490 -44.880  0.00  0.00    +0.000 C 
ATOM      3  C11 UNL     1      23.681  -7.234 -45.820  0.00  0.00    +0.000 C 
ATOM      4  C13 UNL     1      22.283  -6.716 -45.470  0.00  0.00    +0.000 C 
ATOM      5  C14 UNL     1      22.039  -6.459 -43.948  0.00  0.00    +0.000 C 
ATOM      6  C15 UNL     1      22.893  -7.355 -43.022  0.00  0.00    +0.000 C 
ENDROOT
BRANCH   1   7
ATOM      7  N1  UNL     1      25.329  -7.934 -42.546  0.00  0.00    +0.000 NA
ATOM      8  H18 UNL     1      24.868  -8.109 -41.621  0.00  0.00    +0.000 HD
BRANCH   7   9
ATOM      9  C8  UNL     1      25.818  -9.215 -43.080  0.00  0.00    +0.000 C 
BRANCH   9  10
ATOM     10  C7  UNL     1      27.329  -9.331 -42.858  0.00  0.00    +0.000 C 
BRANCH  10  11
ATOM     11  C6  UNL     1      27.667  -9.540 -41.372  0.00  0.00    +0.000 C 
BRANCH  11  12
ATOM     12  C5  UNL     1      28.792 -10.564 -41.155  0.00  0.00    +0.000 C 
BRANCH  12  13
ATOM     13  C4  UNL     1      30.001 -10.335 -42.078  0.00  0.00    +0.000 C 
BRANCH  13  14
ATOM     14  C3  UNL     1      30.542 -11.661 -42.657  0.00  0.00    +0.000 C 
BRANCH  14  16
ATOM     15  C1  UNL     1      32.288 -12.793 -44.141  0.00  0.00    +0.000 C 
ATOM     16  C2  UNL     1      31.736 -11.472 -43.609  0.00  0.00    +0.000 C 
ENDBRANCH  14  16
ENDBRANCH  13  14
ENDBRANCH  12  13
ENDBRANCH  11  12
ENDBRANCH  10  11
ENDBRANCH   9  10
ENDBRANCH   7   9
ENDBRANCH   1   7
BRANCH   4  17
ATOM     17  O2  UNL     1      21.293  -7.555 -46.016  0.00  0.00    +0.000 OA
ATOM     18  H25 UNL     1      21.611  -8.491 -45.938  0.00  0.00    +0.000 HD
ENDBRANCH   4  17
BRANCH   5  19
ATOM     19  O3  UNL     1      20.672  -6.520 -43.615  0.00  0.00    +0.000 OA
ATOM     20  H27 UNL     1      20.361  -7.450 -43.764  0.00  0.00    +0.000 HD
ENDBRANCH   5  19
BRANCH   6  21
ATOM     21  O4  UNL     1      22.439  -8.688 -43.035  0.00  0.00    +0.000 OA
ATOM     22  H29 UNL     1      21.954  -8.868 -42.189  0.00  0.00    +0.000 HD
ENDBRANCH   6  21
BRANCH   3  23
ATOM     23  C12 UNL     1      24.030  -7.416 -47.275  0.00  0.00    +0.000 C 
BRANCH  23  24
ATOM     24  O1  UNL     1      23.338  -8.524 -47.784  0.00  0.00    +0.000 OA
ATOM     25  H23 UNL     1      23.560  -8.575 -48.751  0.00  0.00    +0.000 HD
ENDBRANCH  23  24
ENDBRANCH   3  23
TORSDOF 13
ENDMDL
MODEL 7
REMARK VINA RESULT:    -4.819      6.125      8.918
REMARK INTER + INTRA:          -8.499
REMARK INTER:                  -7.364
REMARK INTRA:                  -1.136
REMARK UNBOUND:                -0.582
REMARK  Name = resultss/4CJN/ligands/lig_39_t0.pdb
REMARK  14 active torsions:
REMARK  status: ('A' for Active; 'I' for Inactive)
REMARK    1  A    between atoms: C1_1  and  C2_2
REMARK    2  A    between atoms: C2_2  and  C3_3
REMARK    3  A    between atoms: C3_3  and  C4_4
REMARK    4  A    between atoms: C4_4  and  C5_5
REMARK    5  A    between atoms: C5_5  and  C6_6
REMARK    6  A    between atoms: C6_6  and  C7_7
REMARK    7  A    between atoms: C7_7  and  C8_8
REMARK    8  A    between atoms: C8_8  and  N1_9
REMARK    9  A    between atoms: N1_9  and  C9_10
REMARK   10  A    between atoms: C11_12  and  C12_13
REMARK   11  A    between atoms: C12_13  and  O1_14
REMARK   12  A    between atoms: C13_15  and  O2_16
REMARK   13  A    between atoms: C14_17  and  O3_18
REMARK   14  A    between atoms: C15_19  and  O4_20
REMARK                            x       y       z     vdW  Elec       q    Type
REMARK                         _______ _______ _______ _____ _____    ______ ____
ROOT
ATOM      1  C9  UNL     1      26.359  -7.729 -39.308  0.00  0.00    +0.000 C 
ATOM      2  C10 UNL     1      27.255  -8.927 -39.490  0.00  0.00    +0.000 C 
ATOM      3  C11 UNL     1      27.006  -9.878 -40.417  0.00  0.00    +0.000 C 
ATOM      4  C13 UNL     1      25.752  -9.861 -41.295  0.00  0.00    +0.000 C 
ATOM      5  C14 UNL     1      24.809  -8.635 -41.073  0.00  0.00    +0.000 C 
ATOM      6  C15 UNL     1      24.879  -8.049 -39.644  0.00  0.00    +0.000 C 
ENDROOT
BRANCH   1   7
ATOM      7  N1  UNL     1      26.563  -7.068 -38.002  0.00  0.00    +0.000 NA
ATOM      8  H18 UNL     1      25.627  -6.817 -37.601  0.00  0.00    +0.000 HD
BRANCH   7   9
ATOM      9  C8  UNL     1      27.308  -7.855 -37.007  0.00  0.00    +0.000 C 
BRANCH   9  10
ATOM     10  C7  UNL     1      26.370  -8.293 -35.878  0.00  0.00    +0.000 C 
BRANCH  10  11
ATOM     11  C6  UNL     1      26.596  -7.465 -34.602  0.00  0.00    +0.000 C 
BRANCH  11  12
ATOM     12  C5  UNL     1      26.076  -8.164 -33.337  0.00  0.00    +0.000 C 
BRANCH  12  13
ATOM     13  C4  UNL     1      25.008  -9.230 -33.635  0.00  0.00    +0.000 C 
BRANCH  13  14
ATOM     14  C3  UNL     1      23.644  -8.870 -33.005  0.00  0.00    +0.000 C 
BRANCH  14  16
ATOM     15  C1  UNL     1      22.642  -7.606 -34.988  0.00  0.00    +0.000 C 
ATOM     16  C2  UNL     1      22.499  -8.787 -34.030  0.00  0.00    +0.000 C 
ENDBRANCH  14  16
ENDBRANCH  13  14
ENDBRANCH  12  13
ENDBRANCH  11  12
ENDBRANCH  10  11
ENDBRANCH   9  10
ENDBRANCH   7   9
ENDBRANCH   1   7
BRANCH   4  17
ATOM     17  O2  UNL     1      25.052 -11.077 -41.182  0.00  0.00    +0.000 OA
ATOM     18  H25 UNL     1      24.381 -10.975 -40.459  0.00  0.00    +0.000 HD
ENDBRANCH   4  17
BRANCH   5  19
ATOM     19  O3  UNL     1      23.483  -8.913 -41.457  0.00  0.00    +0.000 OA
ATOM     20  H27 UNL     1      23.510  -9.512 -42.247  0.00  0.00    +0.000 HD
ENDBRANCH   5  19
BRANCH   6  21
ATOM     21  O4  UNL     1      24.260  -8.901 -38.709  0.00  0.00    +0.000 OA
ATOM     22  H29 UNL     1      24.964  -9.353 -38.175  0.00  0.00    +0.000 HD
ENDBRANCH   6  21
BRANCH   3  23
ATOM     23  C12 UNL     1      28.016 -10.975 -40.636  0.00  0.00    +0.000 C 
BRANCH  23  24
ATOM     24  O1  UNL     1      27.562 -12.153 -40.029  0.00  0.00    +0.000 OA
ATOM     25  H23 UNL     1      28.220 -12.862 -40.259  0.00  0.00    +0.000 HD
ENDBRANCH  23  24
ENDBRANCH   3  23
TORSDOF 13
ENDMDL
MODEL 8
REMARK VINA RESULT:    -4.651      6.640      8.556
REMARK INTER + INTRA:          -8.223
REMARK INTER:                  -7.143
REMARK INTRA:                  -1.080
REMARK UNBOUND:                -0.582
REMARK  Name = resultss/4CJN/ligands/lig_39_t0.pdb
REMARK  14 active torsions:
REMARK  status: ('A' for Active; 'I' for Inactive)
REMARK    1  A    between atoms: C1_1  and  C2_2
REMARK    2  A    between atoms: C2_2  and  C3_3
REMARK    3  A    between atoms: C3_3  and  C4_4
REMARK    4  A    between atoms: C4_4  and  C5_5
REMARK    5  A    between atoms: C5_5  and  C6_6
REMARK    6  A    between atoms: C6_6  and  C7_7
REMARK    7  A    between atoms: C7_7  and  C8_8
REMARK    8  A    between atoms: C8_8  and  N1_9
REMARK    9  A    between atoms: N1_9  and  C9_10
REMARK   10  A    between atoms: C11_12  and  C12_13
REMARK   11  A    between atoms: C12_13  and  O1_14
REMARK   12  A    between atoms: C13_15  and  O2_16
REMARK   13  A    between atoms: C14_17  and  O3_18
REMARK   14  A    between atoms: C15_19  and  O4_20
REMARK                            x       y       z     vdW  Elec       q    Type
REMARK                         _______ _______ _______ _____ _____    ______ ____
ROOT
ATOM      1  C9  UNL     1      27.027  -9.083 -35.391  0.00  0.00    +0.000 C 
ATOM      2  C10 UNL     1      26.169  -8.679 -36.563  0.00  0.00    +0.000 C 
ATOM      3  C11 UNL     1      24.955  -8.107 -36.402  0.00  0.00    +0.000 C 
ATOM      4  C13 UNL     1      24.319  -7.903 -35.024  0.00  0.00    +0.000 C 
ATOM      5  C14 UNL     1      25.200  -8.359 -33.817  0.00  0.00    +0.000 C 
ATOM      6  C15 UNL     1      26.180  -9.504 -34.162  0.00  0.00    +0.000 C 
ENDROOT
BRANCH   1   7
ATOM      7  N1  UNL     1      28.079 -10.048 -35.772  0.00  0.00    +0.000 NA
ATOM      8  H18 UNL     1      27.802 -10.512 -36.671  0.00  0.00    +0.000 HD
BRANCH   7   9
ATOM      9  C8  UNL     1      29.428  -9.481 -35.930  0.00  0.00    +0.000 C 
BRANCH   9  10
ATOM     10  C7  UNL     1      30.038  -9.945 -37.255  0.00  0.00    +0.000 C 
BRANCH  10  11
ATOM     11  C6  UNL     1      28.969 -10.082 -38.353  0.00  0.00    +0.000 C 
BRANCH  11  12
ATOM     12  C5  UNL     1      28.896  -8.853 -39.271  0.00  0.00    +0.000 C 
BRANCH  12  13
ATOM     13  C4  UNL     1      27.563  -8.748 -40.032  0.00  0.00    +0.000 C 
BRANCH  13  14
ATOM     14  C3  UNL     1      26.880 -10.125 -40.188  0.00  0.00    +0.000 C 
BRANCH  14  16
ATOM     15  C1  UNL     1      26.156  -9.314 -42.501  0.00  0.00    +0.000 C 
ATOM     16  C2  UNL     1      25.792 -10.150 -41.276  0.00  0.00    +0.000 C 
ENDBRANCH  14  16
ENDBRANCH  13  14
ENDBRANCH  12  13
ENDBRANCH  11  12
ENDBRANCH  10  11
ENDBRANCH   9  10
ENDBRANCH   7   9
ENDBRANCH   1   7
BRANCH   4  17
ATOM     17  O2  UNL     1      23.039  -8.487 -34.978  0.00  0.00    +0.000 OA
ATOM     18  H25 UNL     1      23.156  -9.465 -34.863  0.00  0.00    +0.000 HD
ENDBRANCH   4  17
BRANCH   5  19
ATOM     19  O3  UNL     1      24.425  -8.663 -32.682  0.00  0.00    +0.000 OA
ATOM     20  H27 UNL     1      24.716  -9.547 -32.338  0.00  0.00    +0.000 HD
ENDBRANCH   5  19
BRANCH   6  21
ATOM     21  O4  UNL     1      25.501 -10.726 -34.338  0.00  0.00    +0.000 OA
ATOM     22  H29 UNL     1      24.940 -10.664 -35.153  0.00  0.00    +0.000 HD
ENDBRANCH   6  21
BRANCH   3  23
ATOM     23  C12 UNL     1      24.212  -7.604 -37.613  0.00  0.00    +0.000 C 
BRANCH  23  24
ATOM     24  O1  UNL     1      24.155  -8.620 -38.577  0.00  0.00    +0.000 OA
ATOM     25  H23 UNL     1      23.298  -9.102 -38.429  0.00  0.00    +0.000 HD
ENDBRANCH  23  24
ENDBRANCH   3  23
TORSDOF 13
ENDMDL
MODEL 9
REMARK VINA RESULT:    -4.601      6.886      8.752
REMARK INTER + INTRA:          -8.141
REMARK INTER:                  -7.551
REMARK INTRA:                  -0.590
REMARK UNBOUND:                -0.582
REMARK  Name = resultss/4CJN/ligands/lig_39_t0.pdb
REMARK  14 active torsions:
REMARK  status: ('A' for Active; 'I' for Inactive)
REMARK    1  A    between atoms: C1_1  and  C2_2
REMARK    2  A    between atoms: C2_2  and  C3_3
REMARK    3  A    between atoms: C3_3  and  C4_4
REMARK    4  A    between atoms: C4_4  and  C5_5
REMARK    5  A    between atoms: C5_5  and  C6_6
REMARK    6  A    between atoms: C6_6  and  C7_7
REMARK    7  A    between atoms: C7_7  and  C8_8
REMARK    8  A    between atoms: C8_8  and  N1_9
REMARK    9  A    between atoms: N1_9  and  C9_10
REMARK   10  A    between atoms: C11_12  and  C12_13
REMARK   11  A    between atoms: C12_13  and  O1_14
REMARK   12  A    between atoms: C13_15  and  O2_16
REMARK   13  A    between atoms: C14_17  and  O3_18
REMARK   14  A    between atoms: C15_19  and  O4_20
REMARK                            x       y       z     vdW  Elec       q    Type
REMARK                         _______ _______ _______ _____ _____    ______ ____
ROOT
ATOM      1  C9  UNL     1      24.861  -7.995 -36.740  0.00  0.00    +0.000 C 
ATOM      2  C10 UNL     1      23.746  -7.742 -35.757  0.00  0.00    +0.000 C 
ATOM      3  C11 UNL     1      23.980  -7.520 -34.445  0.00  0.00    +0.000 C 
ATOM      4  C13 UNL     1      25.384  -7.593 -33.837  0.00  0.00    +0.000 C 
ATOM      5  C14 UNL     1      26.529  -7.893 -34.857  0.00  0.00    +0.000 C 
ATOM      6  C15 UNL     1      26.068  -8.714 -36.084  0.00  0.00    +0.000 C 
ENDROOT
BRANCH   1   7
ATOM      7  N1  UNL     1      24.378  -8.622 -37.989  0.00  0.00    +0.000 NA
ATOM      8  H18 UNL     1      23.347  -8.450 -38.075  0.00  0.00    +0.000 HD
BRANCH   7   9
ATOM      9  C8  UNL     1      25.038  -8.162 -39.221  0.00  0.00    +0.000 C 
BRANCH   9  10
ATOM     10  C7  UNL     1      25.111  -9.308 -40.233  0.00  0.00    +0.000 C 
BRANCH  10  11
ATOM     11  C6  UNL     1      26.463  -9.329 -40.967  0.00  0.00    +0.000 C 
BRANCH  11  12
ATOM     12  C5  UNL     1      27.605  -9.875 -40.097  0.00  0.00    +0.000 C 
BRANCH  12  13
ATOM     13  C4  UNL     1      28.421 -10.977 -40.795  0.00  0.00    +0.000 C 
BRANCH  13  14
ATOM     14  C3  UNL     1      29.834 -10.488 -41.184  0.00  0.00    +0.000 C 
BRANCH  14  16
ATOM     15  C1  UNL     1      31.061 -11.837 -42.974  0.00  0.00    +0.000 C 
ATOM     16  C2  UNL     1      30.147 -10.649 -42.681  0.00  0.00    +0.000 C 
ENDBRANCH  14  16
ENDBRANCH  13  14
ENDBRANCH  12  13
ENDBRANCH  11  12
ENDBRANCH  10  11
ENDBRANCH   9  10
ENDBRANCH   7   9
ENDBRANCH   1   7
BRANCH   4  17
ATOM     17  O2  UNL     1      25.408  -8.493 -32.755  0.00  0.00    +0.000 OA
ATOM     18  H25 UNL     1      25.964  -9.270 -33.018  0.00  0.00    +0.000 HD
ENDBRANCH   4  17
BRANCH   5  19
ATOM     19  O3  UNL     1      27.651  -8.474 -34.235  0.00  0.00    +0.000 OA
ATOM     20  H27 UNL     1      27.345  -9.272 -33.732  0.00  0.00    +0.000 HD
ENDBRANCH   5  19
BRANCH   6  21
ATOM     21  O4  UNL     1      25.805 -10.054 -35.736  0.00  0.00    +0.000 OA
ATOM     22  H29 UNL     1      24.980 -10.347 -36.201  0.00  0.00    +0.000 HD
ENDBRANCH   6  21
BRANCH   3  23
ATOM     23  C12 UNL     1      22.832  -7.139 -33.547  0.00  0.00    +0.000 C 
BRANCH  23  24
ATOM     24  O1  UNL     1      23.325  -6.808 -32.277  0.00  0.00    +0.000 OA
ATOM     25  H23 UNL     1      24.045  -7.463 -32.075  0.00  0.00    +0.000 HD
ENDBRANCH  23  24
ENDBRANCH   3  23
TORSDOF 13
ENDMDL
