MODEL 1
REMARK VINA RESULT:    -5.505      0.000      0.000
REMARK INTER + INTRA:          -6.999
REMARK INTER:                  -6.792
REMARK INTRA:                  -0.208
REMARK UNBOUND:                -0.208
REMARK  Name = resultss/4CJN/ligands/lig_302_t0.pdb
REMARK  8 active torsions:
REMARK  status: ('A' for Active; 'I' for Inactive)
REMARK    1  A    between atoms: C1_1  and  O1_2
REMARK    2  A    between atoms: O1_2  and  C2_3
REMARK    3  A    between atoms: C4_5  and  O2_6
REMARK    4  A    between atoms: C8_11  and  O4_12
REMARK    5  A    between atoms: O4_12  and  C9_13
REMARK    6  A    between atoms: C11_15  and  O5_16
REMARK    7  A    between atoms: C15_21  and  O7_22
REMARK    8  A    between atoms: O7_22  and  C16_23
REMARK                            x       y       z     vdW  Elec       q    Type
REMARK                         _______ _______ _______ _____ _____    ______ ____
ROOT
ATOM      1  C2  UNL     1      24.864  -8.604 -34.672  0.00  0.00    +0.000 A 
ATOM      2  C3  UNL     1      23.970  -7.796 -35.394  0.00  0.00    +0.000 A 
ATOM      3  C4  UNL     1      24.018  -7.714 -36.787  0.00  0.00    +0.000 A 
ATOM      4  C5  UNL     1      25.043  -8.395 -37.499  0.00  0.00    +0.000 A 
ATOM      5  C6  UNL     1      25.268  -8.262 -38.893  0.00  0.00    +0.000 A 
ATOM      6  O3  UNL     1      24.608  -7.429 -39.570  0.00  0.00    +0.000 OA
ATOM      7  C7  UNL     1      26.269  -9.037 -39.523  0.00  0.00    +0.000 A 
ATOM      8  C8  UNL     1      26.517  -8.994 -40.922  0.00  0.00    +0.000 A 
ATOM      9  C10 UNL     1      27.542  -9.797 -41.464  0.00  0.00    +0.000 A 
ATOM     10  C11 UNL     1      28.309 -10.627 -40.646  0.00  0.00    +0.000 A 
ATOM     11  C12 UNL     1      28.065 -10.668 -39.273  0.00  0.00    +0.000 A 
ATOM     12  C13 UNL     1      27.058  -9.881 -38.710  0.00  0.00    +0.000 A 
ATOM     13  O6  UNL     1      26.863  -9.932 -37.401  0.00  0.00    +0.000 OA
ATOM     14  C14 UNL     1      25.925  -9.235 -36.772  0.00  0.00    +0.000 A 
ATOM     15  C15 UNL     1      25.839  -9.348 -35.376  0.00  0.00    +0.000 A 
ENDROOT
BRANCH   1  17
ATOM     16  C1  UNL     1      23.599  -8.898 -32.524  0.00  0.00    +0.000 C 
ATOM     17  O1  UNL     1      24.792  -8.683 -33.272  0.00  0.00    +0.000 OA
ENDBRANCH   1  17
BRANCH   3  18
ATOM     18  O2  UNL     1      23.007  -6.970 -37.403  0.00  0.00    +0.000 OA
ATOM     19  H5  UNL     1      22.333  -7.348 -38.052  0.00  0.00    +0.000 HD
ENDBRANCH   3  18
BRANCH   8  20
ATOM     20  O4  UNL     1      25.739  -8.161 -41.745  0.00  0.00    +0.000 OA
ATOM     21  C9  UNL     1      25.053  -8.586 -42.918  0.00  0.00    +0.000 C 
ENDBRANCH   8  20
BRANCH  10  22
ATOM     22  O5  UNL     1      29.313 -11.409 -41.212  0.00  0.00    +0.000 OA
ATOM     23  H10 UNL     1      30.064 -10.997 -41.754  0.00  0.00    +0.000 HD
ENDBRANCH  10  22
BRANCH  15  24
ATOM     24  O7  UNL     1      26.762 -10.211 -34.753  0.00  0.00    +0.000 OA
ATOM     25  C16 UNL     1      28.089  -9.890 -34.349  0.00  0.00    +0.000 C 
ENDBRANCH  15  24
TORSDOF 5
ENDMDL
MODEL 2
REMARK VINA RESULT:    -5.270      1.406      5.996
REMARK INTER + INTRA:          -6.710
REMARK INTER:                  -6.399
REMARK INTRA:                  -0.311
REMARK UNBOUND:                -0.208
REMARK  Name = resultss/4CJN/ligands/lig_302_t0.pdb
REMARK  8 active torsions:
REMARK  status: ('A' for Active; 'I' for Inactive)
REMARK    1  A    between atoms: C1_1  and  O1_2
REMARK    2  A    between atoms: O1_2  and  C2_3
REMARK    3  A    between atoms: C4_5  and  O2_6
REMARK    4  A    between atoms: C8_11  and  O4_12
REMARK    5  A    between atoms: O4_12  and  C9_13
REMARK    6  A    between atoms: C11_15  and  O5_16
REMARK    7  A    between atoms: C15_21  and  O7_22
REMARK    8  A    between atoms: O7_22  and  C16_23
REMARK                            x       y       z     vdW  Elec       q    Type
REMARK                         _______ _______ _______ _____ _____    ______ ____
ROOT
ATOM      1  C2  UNL     1      26.577  -9.056 -41.532  0.00  0.00    +0.000 A 
ATOM      2  C3  UNL     1      25.338  -8.458 -41.253  0.00  0.00    +0.000 A 
ATOM      3  C4  UNL     1      24.917  -8.220 -39.943  0.00  0.00    +0.000 A 
ATOM      4  C5  UNL     1      25.716  -8.664 -38.854  0.00  0.00    +0.000 A 
ATOM      5  C6  UNL     1      25.316  -8.602 -37.495  0.00  0.00    +0.000 A 
ATOM      6  O3  UNL     1      24.152  -8.229 -37.188  0.00  0.00    +0.000 OA
ATOM      7  C7  UNL     1      26.211  -9.003 -36.477  0.00  0.00    +0.000 A 
ATOM      8  C8  UNL     1      25.897  -8.922 -35.093  0.00  0.00    +0.000 A 
ATOM      9  C10 UNL     1      26.849  -9.351 -34.145  0.00  0.00    +0.000 A 
ATOM     10  C11 UNL     1      28.087  -9.851 -34.551  0.00  0.00    +0.000 A 
ATOM     11  C12 UNL     1      28.394  -9.930 -35.910  0.00  0.00    +0.000 A 
ATOM     12  C13 UNL     1      27.468  -9.514 -36.868  0.00  0.00    +0.000 A 
ATOM     13  O6  UNL     1      27.785  -9.618 -38.150  0.00  0.00    +0.000 OA
ATOM     14  C14 UNL     1      26.981  -9.238 -39.137  0.00  0.00    +0.000 A 
ATOM     15  C15 UNL     1      27.417  -9.431 -40.457  0.00  0.00    +0.000 A 
ENDROOT
BRANCH   1  17
ATOM     16  C1  UNL     1      27.433  -8.263 -43.755  0.00  0.00    +0.000 C 
ATOM     17  O1  UNL     1      26.989  -9.276 -42.856  0.00  0.00    +0.000 OA
ENDBRANCH   1  17
BRANCH   3  18
ATOM     18  O2  UNL     1      23.719  -7.516 -39.792  0.00  0.00    +0.000 OA
ATOM     19  H5  UNL     1      22.896  -7.659 -40.358  0.00  0.00    +0.000 HD
ENDBRANCH   3  18
BRANCH   8  20
ATOM     20  O4  UNL     1      24.651  -8.413 -34.686  0.00  0.00    +0.000 OA
ATOM     21  C9  UNL     1      23.953  -8.811 -33.510  0.00  0.00    +0.000 C 
ENDBRANCH   8  20
BRANCH  10  22
ATOM     22  O5  UNL     1      29.008 -10.266 -33.590  0.00  0.00    +0.000 OA
ATOM     23  H10 UNL     1      30.005 -10.140 -33.723  0.00  0.00    +0.000 HD
ENDBRANCH  10  22
BRANCH  15  24
ATOM     24  O7  UNL     1      28.690 -10.008 -40.626  0.00  0.00    +0.000 OA
ATOM     25  C16 UNL     1      29.904  -9.323 -40.918  0.00  0.00    +0.000 C 
ENDBRANCH  15  24
TORSDOF 5
ENDMDL
MODEL 3
REMARK VINA RESULT:    -5.242      1.243      3.509
REMARK INTER + INTRA:          -6.675
REMARK INTER:                  -6.385
REMARK INTRA:                  -0.291
REMARK UNBOUND:                -0.208
REMARK  Name = resultss/4CJN/ligands/lig_302_t0.pdb
REMARK  8 active torsions:
REMARK  status: ('A' for Active; 'I' for Inactive)
REMARK    1  A    between atoms: C1_1  and  O1_2
REMARK    2  A    between atoms: O1_2  and  C2_3
REMARK    3  A    between atoms: C4_5  and  O2_6
REMARK    4  A    between atoms: C8_11  and  O4_12
REMARK    5  A    between atoms: O4_12  and  C9_13
REMARK    6  A    between atoms: C11_15  and  O5_16
REMARK    7  A    between atoms: C15_21  and  O7_22
REMARK    8  A    between atoms: O7_22  and  C16_23
REMARK                            x       y       z     vdW  Elec       q    Type
REMARK                         _______ _______ _______ _____ _____    ______ ____
ROOT
ATOM      1  C2  UNL     1      25.239  -8.533 -34.631  0.00  0.00    +0.000 A 
ATOM      2  C3  UNL     1      26.501  -9.126 -34.465  0.00  0.00    +0.000 A 
ATOM      3  C4  UNL     1      27.278  -9.515 -35.558  0.00  0.00    +0.000 A 
ATOM      4  C5  UNL     1      26.756  -9.388 -36.875  0.00  0.00    +0.000 A 
ATOM      5  C6  UNL     1      27.400  -9.882 -38.038  0.00  0.00    +0.000 A 
ATOM      6  O3  UNL     1      28.453 -10.568 -37.943  0.00  0.00    +0.000 OA
ATOM      7  C7  UNL     1      26.836  -9.644 -39.312  0.00  0.00    +0.000 A 
ATOM      8  C8  UNL     1      27.449 -10.065 -40.522  0.00  0.00    +0.000 A 
ATOM      9  C10 UNL     1      26.810  -9.791 -41.750  0.00  0.00    +0.000 A 
ATOM     10  C11 UNL     1      25.591  -9.114 -41.786  0.00  0.00    +0.000 A 
ATOM     11  C12 UNL     1      24.989  -8.701 -40.596  0.00  0.00    +0.000 A 
ATOM     12  C13 UNL     1      25.600  -8.962 -39.368  0.00  0.00    +0.000 A 
ATOM     13  O6  UNL     1      24.994  -8.571 -38.257  0.00  0.00    +0.000 OA
ATOM     14  C14 UNL     1      25.496  -8.759 -37.043  0.00  0.00    +0.000 A 
ATOM     15  C15 UNL     1      24.743  -8.329 -35.940  0.00  0.00    +0.000 A 
ENDROOT
BRANCH   1  17
ATOM     16  C1  UNL     1      23.430  -8.901 -32.930  0.00  0.00    +0.000 C 
ATOM     17  O1  UNL     1      24.478  -8.136 -33.520  0.00  0.00    +0.000 OA
ENDBRANCH   1  17
BRANCH   3  18
ATOM     18  O2  UNL     1      28.563  -9.987 -35.273  0.00  0.00    +0.000 OA
ATOM     19  H5  UNL     1      29.243 -10.250 -35.971  0.00  0.00    +0.000 HD
ENDBRANCH   3  18
BRANCH   8  20
ATOM     20  O4  UNL     1      28.680 -10.743 -40.485  0.00  0.00    +0.000 OA
ATOM     21  C9  UNL     1      29.633 -10.763 -41.543  0.00  0.00    +0.000 C 
ENDBRANCH   8  20
BRANCH  10  22
ATOM     22  O5  UNL     1      24.985  -8.855 -43.014  0.00  0.00    +0.000 OA
ATOM     23  H10 UNL     1      24.000  -9.037 -43.168  0.00  0.00    +0.000 HD
ENDBRANCH  10  22
BRANCH  15  24
ATOM     24  O7  UNL     1      23.505  -7.716 -36.219  0.00  0.00    +0.000 OA
ATOM     25  C16 UNL     1      23.230  -6.320 -36.225  0.00  0.00    +0.000 C 
ENDBRANCH  15  24
TORSDOF 5
ENDMDL
MODEL 4
REMARK VINA RESULT:    -5.238      1.875      6.962
REMARK INTER + INTRA:          -6.670
REMARK INTER:                  -6.363
REMARK INTRA:                  -0.307
REMARK UNBOUND:                -0.208
REMARK  Name = resultss/4CJN/ligands/lig_302_t0.pdb
REMARK  8 active torsions:
REMARK  status: ('A' for Active; 'I' for Inactive)
REMARK    1  A    between atoms: C1_1  and  O1_2
REMARK    2  A    between atoms: O1_2  and  C2_3
REMARK    3  A    between atoms: C4_5  and  O2_6
REMARK    4  A    between atoms: C8_11  and  O4_12
REMARK    5  A    between atoms: O4_12  and  C9_13
REMARK    6  A    between atoms: C11_15  and  O5_16
REMARK    7  A    between atoms: C15_21  and  O7_22
REMARK    8  A    between atoms: O7_22  and  C16_23
REMARK                            x       y       z     vdW  Elec       q    Type
REMARK                         _______ _______ _______ _____ _____    ______ ____
ROOT
ATOM      1  C2  UNL     1      27.422  -9.540 -41.716  0.00  0.00    +0.000 A 
ATOM      2  C3  UNL     1      28.783  -9.843 -41.547  0.00  0.00    +0.000 A 
ATOM      3  C4  UNL     1      29.341 -10.030 -40.281  0.00  0.00    +0.000 A 
ATOM      4  C5  UNL     1      28.542  -9.831 -39.122  0.00  0.00    +0.000 A 
ATOM      5  C6  UNL     1      29.043  -9.855 -37.796  0.00  0.00    +0.000 A 
ATOM      6  O3  UNL     1      30.281  -9.957 -37.582  0.00  0.00    +0.000 OA
ATOM      7  C7  UNL     1      28.156  -9.717 -36.703  0.00  0.00    +0.000 A 
ATOM      8  C8  UNL     1      28.579  -9.780 -35.348  0.00  0.00    +0.000 A 
ATOM      9  C10 UNL     1      27.625  -9.625 -34.321  0.00  0.00    +0.000 A 
ATOM     10  C11 UNL     1      26.279  -9.412 -34.622  0.00  0.00    +0.000 A 
ATOM     11  C12 UNL     1      25.865  -9.350 -35.953  0.00  0.00    +0.000 A 
ATOM     12  C13 UNL     1      26.790  -9.498 -36.988  0.00  0.00    +0.000 A 
ATOM     13  O6  UNL     1      26.366  -9.417 -38.241  0.00  0.00    +0.000 OA
ATOM     14  C14 UNL     1      27.161  -9.557 -39.294  0.00  0.00    +0.000 A 
ATOM     15  C15 UNL     1      26.599  -9.417 -40.572  0.00  0.00    +0.000 A 
ENDROOT
BRANCH   1  17
ATOM     16  C1  UNL     1      26.938  -8.166 -43.760  0.00  0.00    +0.000 C 
ATOM     17  O1  UNL     1      26.876  -9.368 -42.998  0.00  0.00    +0.000 OA
ENDBRANCH   1  17
BRANCH   3  18
ATOM     18  O2  UNL     1      30.677 -10.441 -40.244  0.00  0.00    +0.000 OA
ATOM     19  H5  UNL     1      31.163 -10.877 -41.013  0.00  0.00    +0.000 HD
ENDBRANCH   3  18
BRANCH   8  20
ATOM     20  O4  UNL     1      29.935 -10.000 -35.047  0.00  0.00    +0.000 OA
ATOM     21  C9  UNL     1      30.562  -9.659 -33.815  0.00  0.00    +0.000 C 
ENDBRANCH   8  20
BRANCH  10  22
ATOM     22  O5  UNL     1      25.360  -9.264 -33.585  0.00  0.00    +0.000 OA
ATOM     23  H10 UNL     1      24.511  -9.818 -33.547  0.00  0.00    +0.000 HD
ENDBRANCH  10  22
BRANCH  15  24
ATOM     24  O7  UNL     1      25.218  -9.147 -40.630  0.00  0.00    +0.000 OA
ATOM     25  C16 UNL     1      24.607  -7.871 -40.791  0.00  0.00    +0.000 C 
ENDBRANCH  15  24
TORSDOF 5
ENDMDL
MODEL 5
REMARK VINA RESULT:    -5.198      2.288      4.490
REMARK INTER + INTRA:          -6.622
REMARK INTER:                  -6.308
REMARK INTRA:                  -0.313
REMARK UNBOUND:                -0.208
REMARK  Name = resultss/4CJN/ligands/lig_302_t0.pdb
REMARK  8 active torsions:
REMARK  status: ('A' for Active; 'I' for Inactive)
REMARK    1  A    between atoms: C1_1  and  O1_2
REMARK    2  A    between atoms: O1_2  and  C2_3
REMARK    3  A    between atoms: C4_5  and  O2_6
REMARK    4  A    between atoms: C8_11  and  O4_12
REMARK    5  A    between atoms: O4_12  and  C9_13
REMARK    6  A    between atoms: C11_15  and  O5_16
REMARK    7  A    between atoms: C15_21  and  O7_22
REMARK    8  A    between atoms: O7_22  and  C16_23
REMARK                            x       y       z     vdW  Elec       q    Type
REMARK                         _______ _______ _______ _____ _____    ______ ____
ROOT
ATOM      1  C2  UNL     1      29.201  -9.846 -35.038  0.00  0.00    +0.000 A 
ATOM      2  C3  UNL     1      30.502  -9.648 -35.527  0.00  0.00    +0.000 A 
ATOM      3  C4  UNL     1      30.759  -9.506 -36.892  0.00  0.00    +0.000 A 
ATOM      4  C5  UNL     1      29.698  -9.645 -37.827  0.00  0.00    +0.000 A 
ATOM      5  C6  UNL     1      29.873  -9.662 -39.234  0.00  0.00    +0.000 A 
ATOM      6  O3  UNL     1      31.030  -9.654 -39.734  0.00  0.00    +0.000 OA
ATOM      7  C7  UNL     1      28.747  -9.733 -40.086  0.00  0.00    +0.000 A 
ATOM      8  C8  UNL     1      28.842  -9.704 -41.503  0.00  0.00    +0.000 A 
ATOM      9  C10 UNL     1      27.665  -9.788 -42.274  0.00  0.00    +0.000 A 
ATOM     10  C11 UNL     1      26.416  -9.897 -41.663  0.00  0.00    +0.000 A 
ATOM     11  C12 UNL     1      26.323  -9.925 -40.271  0.00  0.00    +0.000 A 
ATOM     12  C13 UNL     1      27.473  -9.847 -39.484  0.00  0.00    +0.000 A 
ATOM     13  O6  UNL     1      27.351  -9.893 -38.166  0.00  0.00    +0.000 OA
ATOM     14  C14 UNL     1      28.380  -9.813 -37.331  0.00  0.00    +0.000 A 
ATOM     15  C15 UNL     1      28.125  -9.907 -35.954  0.00  0.00    +0.000 A 
ENDROOT
BRANCH   1  17
ATOM     16  C1  UNL     1      29.039  -8.913 -32.713  0.00  0.00    +0.000 C 
ATOM     17  O1  UNL     1      28.960  -9.974 -33.661  0.00  0.00    +0.000 OA
ENDBRANCH   1  17
BRANCH   3  18
ATOM     18  O2  UNL     1      32.076  -9.198 -37.249  0.00  0.00    +0.000 OA
ATOM     19  H5  UNL     1      32.838  -9.860 -37.248  0.00  0.00    +0.000 HD
ENDBRANCH   3  18
BRANCH   8  20
ATOM     20  O4  UNL     1      30.102  -9.589 -42.117  0.00  0.00    +0.000 OA
ATOM     21  C9  UNL     1      30.580 -10.430 -43.162  0.00  0.00    +0.000 C 
ENDBRANCH   8  20
BRANCH  10  22
ATOM     22  O5  UNL     1      25.270  -9.976 -42.452  0.00  0.00    +0.000 OA
ATOM     23  H10 UNL     1      25.324  -9.984 -43.465  0.00  0.00    +0.000 HD
ENDBRANCH  10  22
BRANCH  15  24
ATOM     24  O7  UNL     1      26.780 -10.072 -35.569  0.00  0.00    +0.000 OA
ATOM     25  C16 UNL     1      25.910  -9.064 -35.067  0.00  0.00    +0.000 C 
ENDBRANCH  15  24
TORSDOF 5
ENDMDL
MODEL 6
REMARK VINA RESULT:    -4.952      2.022      2.494
REMARK INTER + INTRA:          -6.317
REMARK INTER:                  -6.030
REMARK INTRA:                  -0.288
REMARK UNBOUND:                -0.208
REMARK  Name = resultss/4CJN/ligands/lig_302_t0.pdb
REMARK  8 active torsions:
REMARK  status: ('A' for Active; 'I' for Inactive)
REMARK    1  A    between atoms: C1_1  and  O1_2
REMARK    2  A    between atoms: O1_2  and  C2_3
REMARK    3  A    between atoms: C4_5  and  O2_6
REMARK    4  A    between atoms: C8_11  and  O4_12
REMARK    5  A    between atoms: O4_12  and  C9_13
REMARK    6  A    between atoms: C11_15  and  O5_16
REMARK    7  A    between atoms: C15_21  and  O7_22
REMARK    8  A    between atoms: O7_22  and  C16_23
REMARK                            x       y       z     vdW  Elec       q    Type
REMARK                         _______ _______ _______ _____ _____    ______ ____
ROOT
ATOM      1  C2  UNL     1      27.195  -8.189 -33.230  0.00  0.00    +0.000 A 
ATOM      2  C3  UNL     1      25.847  -8.168 -33.621  0.00  0.00    +0.000 A 
ATOM      3  C4  UNL     1      25.454  -8.520 -34.914  0.00  0.00    +0.000 A 
ATOM      4  C5  UNL     1      26.439  -8.830 -35.891  0.00  0.00    +0.000 A 
ATOM      5  C6  UNL     1      26.157  -9.059 -37.262  0.00  0.00    +0.000 A 
ATOM      6  O3  UNL     1      24.991  -8.894 -37.710  0.00  0.00    +0.000 OA
ATOM      7  C7  UNL     1      27.197  -9.432 -38.144  0.00  0.00    +0.000 A 
ATOM      8  C8  UNL     1      26.981  -9.725 -39.517  0.00  0.00    +0.000 A 
ATOM      9  C10 UNL     1      28.080 -10.082 -40.326  0.00  0.00    +0.000 A 
ATOM     10  C11 UNL     1      29.368 -10.150 -39.793  0.00  0.00    +0.000 A 
ATOM     11  C12 UNL     1      29.579  -9.862 -38.444  0.00  0.00    +0.000 A 
ATOM     12  C13 UNL     1      28.508  -9.504 -37.623  0.00  0.00    +0.000 A 
ATOM     13  O6  UNL     1      28.745  -9.220 -36.351  0.00  0.00    +0.000 OA
ATOM     14  C14 UNL     1      27.797  -8.883 -35.486  0.00  0.00    +0.000 A 
ATOM     15  C15 UNL     1      28.178  -8.572 -34.171  0.00  0.00    +0.000 A 
ENDROOT
BRANCH   1  17
ATOM     16  C1  UNL     1      27.993  -6.548 -31.505  0.00  0.00    +0.000 C 
ATOM     17  O1  UNL     1      27.571  -7.844 -31.921  0.00  0.00    +0.000 OA
ENDBRANCH   1  17
BRANCH   3  18
ATOM     18  O2  UNL     1      24.077  -8.573 -35.153  0.00  0.00    +0.000 OA
ATOM     19  H5  UNL     1      23.467  -9.305 -34.821  0.00  0.00    +0.000 HD
ENDBRANCH   3  18
BRANCH   8  20
ATOM     20  O4  UNL     1      25.682  -9.661 -40.051  0.00  0.00    +0.000 OA
ATOM     21  C9  UNL     1      25.348  -9.904 -41.414  0.00  0.00    +0.000 C 
ENDBRANCH   8  20
BRANCH  10  22
ATOM     22  O5  UNL     1      30.433 -10.508 -40.617  0.00  0.00    +0.000 OA
ATOM     23  H10 UNL     1      30.371 -10.433 -41.626  0.00  0.00    +0.000 HD
ENDBRANCH  10  22
BRANCH  15  24
ATOM     24  O7  UNL     1      29.553  -8.657 -33.875  0.00  0.00    +0.000 OA
ATOM     25  C16 UNL     1      30.215  -9.723 -33.203  0.00  0.00    +0.000 C 
ENDBRANCH  15  24
TORSDOF 5
ENDMDL
MODEL 7
REMARK VINA RESULT:    -4.933      2.213      6.792
REMARK INTER + INTRA:          -6.294
REMARK INTER:                  -6.169
REMARK INTRA:                  -0.125
REMARK UNBOUND:                -0.208
REMARK  Name = resultss/4CJN/ligands/lig_302_t0.pdb
REMARK  8 active torsions:
REMARK  status: ('A' for Active; 'I' for Inactive)
REMARK    1  A    between atoms: C1_1  and  O1_2
REMARK    2  A    between atoms: O1_2  and  C2_3
REMARK    3  A    between atoms: C4_5  and  O2_6
REMARK    4  A    between atoms: C8_11  and  O4_12
REMARK    5  A    between atoms: O4_12  and  C9_13
REMARK    6  A    between atoms: C11_15  and  O5_16
REMARK    7  A    between atoms: C15_21  and  O7_22
REMARK    8  A    between atoms: O7_22  and  C16_23
REMARK                            x       y       z     vdW  Elec       q    Type
REMARK                         _______ _______ _______ _____ _____    ______ ____
ROOT
ATOM      1  C2  UNL     1      25.569  -8.651 -38.784  0.00  0.00    +0.000 A 
ATOM      2  C3  UNL     1      26.649  -9.490 -39.103  0.00  0.00    +0.000 A 
ATOM      3  C4  UNL     1      27.604  -9.849 -38.150  0.00  0.00    +0.000 A 
ATOM      4  C5  UNL     1      27.539  -9.295 -36.842  0.00  0.00    +0.000 A 
ATOM      5  C6  UNL     1      28.534  -9.480 -35.849  0.00  0.00    +0.000 A 
ATOM      6  O3  UNL     1      29.606 -10.084 -36.122  0.00  0.00    +0.000 OA
ATOM      7  C7  UNL     1      28.345  -8.947 -34.553  0.00  0.00    +0.000 A 
ATOM      8  C8  UNL     1      29.274  -9.134 -33.494  0.00  0.00    +0.000 A 
ATOM      9  C10 UNL     1      29.007  -8.559 -32.235  0.00  0.00    +0.000 A 
ATOM     10  C11 UNL     1      27.848  -7.813 -32.020  0.00  0.00    +0.000 A 
ATOM     11  C12 UNL     1      26.936  -7.629 -33.061  0.00  0.00    +0.000 A 
ATOM     12  C13 UNL     1      27.178  -8.186 -34.318  0.00  0.00    +0.000 A 
ATOM     13  O6  UNL     1      26.301  -7.979 -35.288  0.00  0.00    +0.000 OA
ATOM     14  C14 UNL     1      26.431  -8.475 -36.513  0.00  0.00    +0.000 A 
ATOM     15  C15 UNL     1      25.450  -8.156 -37.465  0.00  0.00    +0.000 A 
ENDROOT
BRANCH   1  17
ATOM     16  C1  UNL     1      24.438  -8.973 -41.002  0.00  0.00    +0.000 C 
ATOM     17  O1  UNL     1      24.611  -8.311 -39.752  0.00  0.00    +0.000 OA
ENDBRANCH   1  17
BRANCH   3  18
ATOM     18  O2  UNL     1      28.567 -10.780 -38.553  0.00  0.00    +0.000 OA
ATOM     19  H5  UNL     1      29.329 -10.577 -39.183  0.00  0.00    +0.000 HD
ENDBRANCH   3  18
BRANCH   8  20
ATOM     20  O4  UNL     1      30.439  -9.891 -33.711  0.00  0.00    +0.000 OA
ATOM     21  C9  UNL     1      31.487 -10.064 -32.762  0.00  0.00    +0.000 C 
ENDBRANCH   8  20
BRANCH  10  22
ATOM     22  O5  UNL     1      27.611  -7.259 -30.763  0.00  0.00    +0.000 OA
ATOM     23  H10 UNL     1      28.048  -7.633 -29.929  0.00  0.00    +0.000 HD
ENDBRANCH  10  22
BRANCH  15  24
ATOM     24  O7  UNL     1      24.391  -7.335 -37.031  0.00  0.00    +0.000 OA
ATOM     25  C16 UNL     1      23.262  -7.737 -36.263  0.00  0.00    +0.000 C 
ENDBRANCH  15  24
TORSDOF 5
ENDMDL
MODEL 8
REMARK VINA RESULT:    -4.765      1.461      6.918
REMARK INTER + INTRA:          -6.087
REMARK INTER:                  -5.884
REMARK INTRA:                  -0.203
REMARK UNBOUND:                -0.208
REMARK  Name = resultss/4CJN/ligands/lig_302_t0.pdb
REMARK  8 active torsions:
REMARK  status: ('A' for Active; 'I' for Inactive)
REMARK    1  A    between atoms: C1_1  and  O1_2
REMARK    2  A    between atoms: O1_2  and  C2_3
REMARK    3  A    between atoms: C4_5  and  O2_6
REMARK    4  A    between atoms: C8_11  and  O4_12
REMARK    5  A    between atoms: O4_12  and  C9_13
REMARK    6  A    between atoms: C11_15  and  O5_16
REMARK    7  A    between atoms: C15_21  and  O7_22
REMARK    8  A    between atoms: O7_22  and  C16_23
REMARK                            x       y       z     vdW  Elec       q    Type
REMARK                         _______ _______ _______ _____ _____    ______ ____
ROOT
ATOM      1  C2  UNL     1      27.106  -9.411 -40.809  0.00  0.00    +0.000 A 
ATOM      2  C3  UNL     1      28.103 -10.005 -40.018  0.00  0.00    +0.000 A 
ATOM      3  C4  UNL     1      27.999 -10.061 -38.627  0.00  0.00    +0.000 A 
ATOM      4  C5  UNL     1      26.901  -9.433 -37.977  0.00  0.00    +0.000 A 
ATOM      5  C6  UNL     1      26.775  -9.308 -36.570  0.00  0.00    +0.000 A 
ATOM      6  O3  UNL     1      27.711  -9.672 -35.809  0.00  0.00    +0.000 OA
ATOM      7  C7  UNL     1      25.610  -8.730 -36.014  0.00  0.00    +0.000 A 
ATOM      8  C8  UNL     1      25.392  -8.617 -34.615  0.00  0.00    +0.000 A 
ATOM      9  C10 UNL     1      24.203  -8.019 -34.149  0.00  0.00    +0.000 A 
ATOM     10  C11 UNL     1      23.245  -7.541 -35.044  0.00  0.00    +0.000 A 
ATOM     11  C12 UNL     1      23.459  -7.653 -36.418  0.00  0.00    +0.000 A 
ATOM     12  C13 UNL     1      24.630  -8.239 -36.905  0.00  0.00    +0.000 A 
ATOM     13  O6  UNL     1      24.810  -8.314 -38.215  0.00  0.00    +0.000 OA
ATOM     14  C14 UNL     1      25.879  -8.863 -38.778  0.00  0.00    +0.000 A 
ATOM     15  C15 UNL     1      25.970  -8.853 -40.178  0.00  0.00    +0.000 A 
ENDROOT
BRANCH   1  17
ATOM     16  C1  UNL     1      28.452  -9.342 -42.927  0.00  0.00    +0.000 C 
ATOM     17  O1  UNL     1      27.223  -9.375 -42.208  0.00  0.00    +0.000 OA
ENDBRANCH   1  17
BRANCH   3  18
ATOM     18  O2  UNL     1      28.994 -10.777 -37.956  0.00  0.00    +0.000 OA
ATOM     19  H5  UNL     1      29.010 -10.937 -36.960  0.00  0.00    +0.000 HD
ENDBRANCH   3  18
BRANCH   8  20
ATOM     20  O4  UNL     1      26.357  -9.103 -33.715  0.00  0.00    +0.000 OA
ATOM     21  C9  UNL     1      27.113  -8.298 -32.816  0.00  0.00    +0.000 C 
ENDBRANCH   8  20
BRANCH  10  22
ATOM     22  O5  UNL     1      22.078  -6.957 -34.553  0.00  0.00    +0.000 OA
ATOM     23  H10 UNL     1      21.935  -6.815 -33.560  0.00  0.00    +0.000 HD
ENDBRANCH  10  22
BRANCH  15  24
ATOM     24  O7  UNL     1      24.900  -8.262 -40.878  0.00  0.00    +0.000 OA
ATOM     25  C16 UNL     1      23.875  -8.940 -41.596  0.00  0.00    +0.000 C 
ENDBRANCH  15  24
TORSDOF 5
ENDMDL
MODEL 9
REMARK VINA RESULT:    -4.742      1.675      1.843
REMARK INTER + INTRA:          -6.059
REMARK INTER:                  -5.808
REMARK INTRA:                  -0.250
REMARK UNBOUND:                -0.208
REMARK  Name = resultss/4CJN/ligands/lig_302_t0.pdb
REMARK  8 active torsions:
REMARK  status: ('A' for Active; 'I' for Inactive)
REMARK    1  A    between atoms: C1_1  and  O1_2
REMARK    2  A    between atoms: O1_2  and  C2_3
REMARK    3  A    between atoms: C4_5  and  O2_6
REMARK    4  A    between atoms: C8_11  and  O4_12
REMARK    5  A    between atoms: O4_12  and  C9_13
REMARK    6  A    between atoms: C11_15  and  O5_16
REMARK    7  A    between atoms: C15_21  and  O7_22
REMARK    8  A    between atoms: O7_22  and  C16_23
REMARK                            x       y       z     vdW  Elec       q    Type
REMARK                         _______ _______ _______ _____ _____    ______ ____
ROOT
ATOM      1  C2  UNL     1      26.594  -8.116 -34.939  0.00  0.00    +0.000 A 
ATOM      2  C3  UNL     1      25.339  -8.112 -35.569  0.00  0.00    +0.000 A 
ATOM      3  C4  UNL     1      25.183  -8.516 -36.896  0.00  0.00    +0.000 A 
ATOM      4  C5  UNL     1      26.327  -8.865 -37.665  0.00  0.00    +0.000 A 
ATOM      5  C6  UNL     1      26.296  -9.149 -39.054  0.00  0.00    +0.000 A 
ATOM      6  O3  UNL     1      25.232  -9.002 -39.713  0.00  0.00    +0.000 OA
ATOM      7  C7  UNL     1      27.476  -9.557 -39.718  0.00  0.00    +0.000 A 
ATOM      8  C8  UNL     1      27.511  -9.905 -41.095  0.00  0.00    +0.000 A 
ATOM      9  C10 UNL     1      28.736 -10.294 -41.676  0.00  0.00    +0.000 A 
ATOM     10  C11 UNL     1      29.905 -10.340 -40.917  0.00  0.00    +0.000 A 
ATOM     11  C12 UNL     1      29.870  -9.998 -39.564  0.00  0.00    +0.000 A 
ATOM     12  C13 UNL     1      28.671  -9.607 -38.965  0.00  0.00    +0.000 A 
ATOM     13  O6  UNL     1      28.676  -9.272 -37.684  0.00  0.00    +0.000 OA
ATOM     14  C14 UNL     1      27.589  -8.900 -37.019  0.00  0.00    +0.000 A 
ATOM     15  C15 UNL     1      27.728  -8.537 -35.671  0.00  0.00    +0.000 A 
ENDROOT
BRANCH   1  17
ATOM     16  C1  UNL     1      26.101  -6.580 -33.015  0.00  0.00    +0.000 C 
ATOM     17  O1  UNL     1      26.728  -7.718 -33.599  0.00  0.00    +0.000 OA
ENDBRANCH   1  17
BRANCH   3  18
ATOM     18  O2  UNL     1      23.873  -8.578 -37.379  0.00  0.00    +0.000 OA
ATOM     19  H5  UNL     1      23.532  -9.281 -38.019  0.00  0.00    +0.000 HD
ENDBRANCH   3  18
BRANCH   8  20
ATOM     20  O4  UNL     1      26.330  -9.864 -41.857  0.00  0.00    +0.000 OA
ATOM     21  C9  UNL     1      26.164  -9.124 -43.063  0.00  0.00    +0.000 C 
ENDBRANCH   8  20
BRANCH  10  22
ATOM     22  O5  UNL     1      31.099 -10.731 -41.519  0.00  0.00    +0.000 OA
ATOM     23  H10 UNL     1      31.278 -10.559 -42.501  0.00  0.00    +0.000 HD
ENDBRANCH  10  22
BRANCH  15  24
ATOM     24  O7  UNL     1      29.025  -8.609 -35.127  0.00  0.00    +0.000 OA
ATOM     25  C16 UNL     1      29.521  -9.604 -34.237  0.00  0.00    +0.000 C 
ENDBRANCH  15  24
TORSDOF 5
ENDMDL
