MODEL 1
REMARK VINA RESULT:    -3.889      0.000      0.000
REMARK INTER + INTRA:          -5.421
REMARK INTER:                  -4.912
REMARK INTRA:                  -0.508
REMARK UNBOUND:                -0.508
REMARK  Name = resultss/4CJN/ligands/lig_1_t0.pdb
REMARK  7 active torsions:
REMARK  status: ('A' for Active; 'I' for Inactive)
REMARK    1  A    between atoms: O1_1  and  C1_2
REMARK    2  A    between atoms: C1_2  and  C2_3
REMARK    3  A    between atoms: C3_5  and  C4_6
REMARK    4  A    between atoms: C4_6  and  O2_7
REMARK    5  A    between atoms: C5_8  and  O3_9
REMARK    6  A    between atoms: C6_10  and  O4_11
REMARK    7  A    between atoms: C7_12  and  O5_13
REMARK                            x       y       z     vdW  Elec       q    Type
REMARK                         _______ _______ _______ _____ _____    ______ ____
ROOT
ATOM      1  C2  UNL     1      27.268  -7.103 -33.495  0.00  0.00    +0.000 C 
ATOM      2  N1  UNL     1      27.871  -7.794 -34.662  0.00  0.00    +0.000 NA
ATOM      3  C3  UNL     1      27.527  -9.227 -34.723  0.00  0.00    +0.000 C 
ATOM      4  C5  UNL     1      26.004  -9.413 -34.977  0.00  0.00    +0.000 C 
ATOM      5  C6  UNL     1      25.164  -8.253 -34.383  0.00  0.00    +0.000 C 
ATOM      6  C7  UNL     1      25.861  -7.672 -33.137  0.00  0.00    +0.000 C 
ATOM      7  H5  UNL     1      28.912  -7.681 -34.647  0.00  0.00    +0.000 HD
ENDROOT
BRANCH   4   8
ATOM      8  O3  UNL     1      25.599 -10.635 -34.410  0.00  0.00    +0.000 OA
ATOM      9  H11 UNL     1      26.168 -10.786 -33.610  0.00  0.00    +0.000 HD
ENDBRANCH   4   8
BRANCH   5  10
ATOM     10  O4  UNL     1      25.005  -7.252 -35.360  0.00  0.00    +0.000 OA
ATOM     11  H13 UNL     1      25.880  -6.793 -35.457  0.00  0.00    +0.000 HD
ENDBRANCH   5  10
BRANCH   6  12
ATOM     12  O5  UNL     1      25.060  -6.706 -32.502  0.00  0.00    +0.000 OA
ATOM     13  H15 UNL     1      24.157  -6.737 -32.912  0.00  0.00    +0.000 HD
ENDBRANCH   6  12
BRANCH   1  14
ATOM     14  C1  UNL     1      28.197  -7.134 -32.261  0.00  0.00    +0.000 C 
BRANCH  14  15
ATOM     15  O1  UNL     1      27.536  -7.675 -31.148  0.00  0.00    +0.000 OA
ATOM     16  H1  UNL     1      28.239  -7.922 -30.493  0.00  0.00    +0.000 HD
ENDBRANCH  14  15
ENDBRANCH   1  14
BRANCH   3  17
ATOM     17  C4  UNL     1      28.364  -9.942 -35.803  0.00  0.00    +0.000 C 
BRANCH  17  18
ATOM     18  O2  UNL     1      27.553 -10.412 -36.846  0.00  0.00    +0.000 OA
ATOM     19  H9  UNL     1      27.401  -9.645 -37.460  0.00  0.00    +0.000 HD
ENDBRANCH  17  18
ENDBRANCH   3  17
TORSDOF 7
ENDMDL
MODEL 2
REMARK VINA RESULT:    -3.846      8.848     10.174
REMARK INTER + INTRA:          -5.367
REMARK INTER:                  -4.913
REMARK INTRA:                  -0.454
REMARK UNBOUND:                -0.508
REMARK  Name = resultss/4CJN/ligands/lig_1_t0.pdb
REMARK  7 active torsions:
REMARK  status: ('A' for Active; 'I' for Inactive)
REMARK    1  A    between atoms: O1_1  and  C1_2
REMARK    2  A    between atoms: C1_2  and  C2_3
REMARK    3  A    between atoms: C3_5  and  C4_6
REMARK    4  A    between atoms: C4_6  and  O2_7
REMARK    5  A    between atoms: C5_8  and  O3_9
REMARK    6  A    between atoms: C6_10  and  O4_11
REMARK    7  A    between atoms: C7_12  and  O5_13
REMARK                            x       y       z     vdW  Elec       q    Type
REMARK                         _______ _______ _______ _____ _____    ______ ____
ROOT
ATOM      1  C2  UNL     1      22.209  -7.638 -42.293  0.00  0.00    +0.000 C 
ATOM      2  N1  UNL     1      22.037  -7.730 -43.764  0.00  0.00    +0.000 NA
ATOM      3  C3  UNL     1      23.187  -7.188 -44.512  0.00  0.00    +0.000 C 
ATOM      4  C5  UNL     1      24.454  -8.057 -44.271  0.00  0.00    +0.000 C 
ATOM      5  C6  UNL     1      24.453  -8.721 -42.869  0.00  0.00    +0.000 C 
ATOM      6  C7  UNL     1      23.693  -7.836 -41.861  0.00  0.00    +0.000 C 
ATOM      7  H5  UNL     1      21.162  -7.234 -44.055  0.00  0.00    +0.000 HD
ENDROOT
BRANCH   4   8
ATOM      8  O3  UNL     1      25.592  -7.242 -44.413  0.00  0.00    +0.000 OA
ATOM      9  H11 UNL     1      25.308  -6.431 -44.909  0.00  0.00    +0.000 HD
ENDBRANCH   4   8
BRANCH   5  10
ATOM     10  O4  UNL     1      23.842  -9.986 -42.959  0.00  0.00    +0.000 OA
ATOM     11  H13 UNL     1      23.925 -10.418 -42.068  0.00  0.00    +0.000 HD
ENDBRANCH   5  10
BRANCH   6  12
ATOM     12  O5  UNL     1      23.787  -8.348 -40.554  0.00  0.00    +0.000 OA
ATOM     13  H15 UNL     1      23.146  -7.852 -39.982  0.00  0.00    +0.000 HD
ENDBRANCH   6  12
BRANCH   1  14
ATOM     14  C1  UNL     1      21.649  -6.314 -41.727  0.00  0.00    +0.000 C 
BRANCH  14  15
ATOM     15  O1  UNL     1      21.769  -6.275 -40.330  0.00  0.00    +0.000 OA
ATOM     16  H1  UNL     1      21.143  -5.575 -40.011  0.00  0.00    +0.000 HD
ENDBRANCH  14  15
ENDBRANCH   1  14
BRANCH   3  17
ATOM     17  C4  UNL     1      22.859  -7.087 -46.015  0.00  0.00    +0.000 C 
BRANCH  17  18
ATOM     18  O2  UNL     1      23.579  -8.034 -46.758  0.00  0.00    +0.000 OA
ATOM     19  H9  UNL     1      23.891  -7.576 -47.583  0.00  0.00    +0.000 HD
ENDBRANCH  17  18
ENDBRANCH   3  17
TORSDOF 7
ENDMDL
MODEL 3
REMARK VINA RESULT:    -3.838      1.651      4.311
REMARK INTER + INTRA:          -5.355
REMARK INTER:                  -5.048
REMARK INTRA:                  -0.308
REMARK UNBOUND:                -0.508
REMARK  Name = resultss/4CJN/ligands/lig_1_t0.pdb
REMARK  7 active torsions:
REMARK  status: ('A' for Active; 'I' for Inactive)
REMARK    1  A    between atoms: O1_1  and  C1_2
REMARK    2  A    between atoms: C1_2  and  C2_3
REMARK    3  A    between atoms: C3_5  and  C4_6
REMARK    4  A    between atoms: C4_6  and  O2_7
REMARK    5  A    between atoms: C5_8  and  O3_9
REMARK    6  A    between atoms: C6_10  and  O4_11
REMARK    7  A    between atoms: C7_12  and  O5_13
REMARK                            x       y       z     vdW  Elec       q    Type
REMARK                         _______ _______ _______ _____ _____    ______ ____
ROOT
ATOM      1  C2  UNL     1      26.751  -8.675 -34.869  0.00  0.00    +0.000 C 
ATOM      2  N1  UNL     1      27.349  -7.692 -33.932  0.00  0.00    +0.000 NA
ATOM      3  C3  UNL     1      28.233  -8.317 -32.930  0.00  0.00    +0.000 C 
ATOM      4  C5  UNL     1      29.488  -8.930 -33.615  0.00  0.00    +0.000 C 
ATOM      5  C6  UNL     1      29.193  -9.409 -35.060  0.00  0.00    +0.000 C 
ATOM      6  C7  UNL     1      27.723  -9.853 -35.186  0.00  0.00    +0.000 C 
ATOM      7  H5  UNL     1      26.594  -7.152 -33.448  0.00  0.00    +0.000 HD
ENDROOT
BRANCH   4   8
ATOM      8  O3  UNL     1      29.942 -10.010 -32.837  0.00  0.00    +0.000 OA
ATOM      9  H11 UNL     1      29.385 -10.031 -32.016  0.00  0.00    +0.000 HD
ENDBRANCH   4   8
BRANCH   5  10
ATOM     10  O4  UNL     1      29.460  -8.357 -35.957  0.00  0.00    +0.000 OA
ATOM     11  H13 UNL     1      30.336  -7.966 -35.702  0.00  0.00    +0.000 HD
ENDBRANCH   5  10
BRANCH   6  12
ATOM     12  O5  UNL     1      27.461 -10.413 -36.449  0.00  0.00    +0.000 OA
ATOM     13  H15 UNL     1      26.513 -10.705 -36.466  0.00  0.00    +0.000 HD
ENDBRANCH   6  12
BRANCH   1  14
ATOM     14  C1  UNL     1      25.396  -9.211 -34.357  0.00  0.00    +0.000 C 
BRANCH  14  15
ATOM     15  O1  UNL     1      25.392 -10.614 -34.319  0.00  0.00    +0.000 OA
ATOM     16  H1  UNL     1      25.873 -10.920 -35.132  0.00  0.00    +0.000 HD
ENDBRANCH  14  15
ENDBRANCH   1  14
BRANCH   3  17
ATOM     17  C4  UNL     1      28.633  -7.297 -31.846  0.00  0.00    +0.000 C 
BRANCH  17  18
ATOM     18  O2  UNL     1      27.611  -7.134 -30.899  0.00  0.00    +0.000 OA
ATOM     19  H9  UNL     1      27.266  -6.209 -31.004  0.00  0.00    +0.000 HD
ENDBRANCH  17  18
ENDBRANCH   3  17
TORSDOF 7
ENDMDL
MODEL 4
REMARK VINA RESULT:    -3.747      2.295      4.624
REMARK INTER + INTRA:          -5.240
REMARK INTER:                  -4.718
REMARK INTRA:                  -0.523
REMARK UNBOUND:                -0.508
REMARK  Name = resultss/4CJN/ligands/lig_1_t0.pdb
REMARK  7 active torsions:
REMARK  status: ('A' for Active; 'I' for Inactive)
REMARK    1  A    between atoms: O1_1  and  C1_2
REMARK    2  A    between atoms: C1_2  and  C2_3
REMARK    3  A    between atoms: C3_5  and  C4_6
REMARK    4  A    between atoms: C4_6  and  O2_7
REMARK    5  A    between atoms: C5_8  and  O3_9
REMARK    6  A    between atoms: C6_10  and  O4_11
REMARK    7  A    between atoms: C7_12  and  O5_13
REMARK                            x       y       z     vdW  Elec       q    Type
REMARK                         _______ _______ _______ _____ _____    ______ ____
ROOT
ATOM      1  C2  UNL     1      25.904  -7.726 -36.972  0.00  0.00    +0.000 C 
ATOM      2  N1  UNL     1      25.530  -7.269 -35.611  0.00  0.00    +0.000 NA
ATOM      3  C3  UNL     1      24.954  -8.345 -34.782  0.00  0.00    +0.000 C 
ATOM      4  C5  UNL     1      26.023  -9.436 -34.484  0.00  0.00    +0.000 C 
ATOM      5  C6  UNL     1      27.066  -9.562 -35.624  0.00  0.00    +0.000 C 
ATOM      6  C7  UNL     1      26.425  -9.195 -36.977  0.00  0.00    +0.000 C 
ATOM      7  H5  UNL     1      24.853  -6.473 -35.673  0.00  0.00    +0.000 HD
ENDROOT
BRANCH   4   8
ATOM      8  O3  UNL     1      25.368 -10.667 -34.296  0.00  0.00    +0.000 OA
ATOM      9  H11 UNL     1      24.492 -10.603 -34.758  0.00  0.00    +0.000 HD
ENDBRANCH   4   8
BRANCH   5  10
ATOM     10  O4  UNL     1      28.150  -8.706 -35.354  0.00  0.00    +0.000 OA
ATOM     11  H13 UNL     1      28.278  -8.130 -36.153  0.00  0.00    +0.000 HD
ENDBRANCH   5  10
BRANCH   6  12
ATOM     12  O5  UNL     1      27.311  -9.426 -38.046  0.00  0.00    +0.000 OA
ATOM     13  H15 UNL     1      28.144  -8.916 -37.871  0.00  0.00    +0.000 HD
ENDBRANCH   6  12
BRANCH   1  14
ATOM     14  C1  UNL     1      24.744  -7.557 -37.979  0.00  0.00    +0.000 C 
BRANCH  14  15
ATOM     15  O1  UNL     1      24.404  -8.785 -38.564  0.00  0.00    +0.000 OA
ATOM     16  H1  UNL     1      23.600  -9.115 -38.085  0.00  0.00    +0.000 HD
ENDBRANCH  14  15
ENDBRANCH   1  14
BRANCH   3  17
ATOM     17  C4  UNL     1      24.366  -7.771 -33.477  0.00  0.00    +0.000 C 
BRANCH  17  18
ATOM     18  O2  UNL     1      24.177  -8.777 -32.518  0.00  0.00    +0.000 OA
ATOM     19  H9  UNL     1      24.981  -8.774 -31.936  0.00  0.00    +0.000 HD
ENDBRANCH  17  18
ENDBRANCH   3  17
TORSDOF 7
ENDMDL
MODEL 5
REMARK VINA RESULT:    -3.723      2.182      3.347
REMARK INTER + INTRA:          -5.210
REMARK INTER:                  -4.926
REMARK INTRA:                  -0.284
REMARK UNBOUND:                -0.508
REMARK  Name = resultss/4CJN/ligands/lig_1_t0.pdb
REMARK  7 active torsions:
REMARK  status: ('A' for Active; 'I' for Inactive)
REMARK    1  A    between atoms: O1_1  and  C1_2
REMARK    2  A    between atoms: C1_2  and  C2_3
REMARK    3  A    between atoms: C3_5  and  C4_6
REMARK    4  A    between atoms: C4_6  and  O2_7
REMARK    5  A    between atoms: C5_8  and  O3_9
REMARK    6  A    between atoms: C6_10  and  O4_11
REMARK    7  A    between atoms: C7_12  and  O5_13
REMARK                            x       y       z     vdW  Elec       q    Type
REMARK                         _______ _______ _______ _____ _____    ______ ____
ROOT
ATOM      1  C2  UNL     1      24.223  -7.992 -34.726  0.00  0.00    +0.000 C 
ATOM      2  N1  UNL     1      24.293  -8.472 -36.128  0.00  0.00    +0.000 NA
ATOM      3  C3  UNL     1      25.645  -8.362 -36.707  0.00  0.00    +0.000 C 
ATOM      4  C5  UNL     1      26.632  -9.319 -35.978  0.00  0.00    +0.000 C 
ATOM      5  C6  UNL     1      26.243  -9.544 -34.494  0.00  0.00    +0.000 C 
ATOM      6  C7  UNL     1      25.531  -8.296 -33.934  0.00  0.00    +0.000 C 
ATOM      7  H5  UNL     1      23.611  -7.945 -36.722  0.00  0.00    +0.000 HD
ENDROOT
BRANCH   4   8
ATOM      8  O3  UNL     1      27.926  -8.775 -36.056  0.00  0.00    +0.000 OA
ATOM      9  H11 UNL     1      27.977  -8.267 -36.907  0.00  0.00    +0.000 HD
ENDBRANCH   4   8
BRANCH   5  10
ATOM     10  O4  UNL     1      25.396 -10.665 -34.404  0.00  0.00    +0.000 OA
ATOM     11  H13 UNL     1      24.475 -10.327 -34.247  0.00  0.00    +0.000 HD
ENDBRANCH   5  10
BRANCH   6  12
ATOM     12  O5  UNL     1      25.283  -8.421 -32.555  0.00  0.00    +0.000 OA
ATOM     13  H15 UNL     1      24.931  -7.554 -32.225  0.00  0.00    +0.000 HD
ENDBRANCH   6  12
BRANCH   1  14
ATOM     14  C1  UNL     1      23.876  -6.489 -34.646  0.00  0.00    +0.000 C 
BRANCH  14  15
ATOM     15  O1  UNL     1      23.813  -6.059 -33.312  0.00  0.00    +0.000 OA
ATOM     16  H1  UNL     1      23.858  -6.874 -32.748  0.00  0.00    +0.000 HD
ENDBRANCH  14  15
ENDBRANCH   1  14
BRANCH   3  17
ATOM     17  C4  UNL     1      25.613  -8.643 -38.222  0.00  0.00    +0.000 C 
BRANCH  17  18
ATOM     18  O2  UNL     1      24.297  -8.776 -38.688  0.00  0.00    +0.000 OA
ATOM     19  H9  UNL     1      23.811  -9.331 -38.022  0.00  0.00    +0.000 HD
ENDBRANCH  17  18
ENDBRANCH   3  17
TORSDOF 7
ENDMDL
MODEL 6
REMARK VINA RESULT:    -3.701      2.624      4.565
REMARK INTER + INTRA:          -5.182
REMARK INTER:                  -4.701
REMARK INTRA:                  -0.482
REMARK UNBOUND:                -0.508
REMARK  Name = resultss/4CJN/ligands/lig_1_t0.pdb
REMARK  7 active torsions:
REMARK  status: ('A' for Active; 'I' for Inactive)
REMARK    1  A    between atoms: O1_1  and  C1_2
REMARK    2  A    between atoms: C1_2  and  C2_3
REMARK    3  A    between atoms: C3_5  and  C4_6
REMARK    4  A    between atoms: C4_6  and  O2_7
REMARK    5  A    between atoms: C5_8  and  O3_9
REMARK    6  A    between atoms: C6_10  and  O4_11
REMARK    7  A    between atoms: C7_12  and  O5_13
REMARK                            x       y       z     vdW  Elec       q    Type
REMARK                         _______ _______ _______ _____ _____    ______ ____
ROOT
ATOM      1  C2  UNL     1      24.048  -8.081 -36.277  0.00  0.00    +0.000 C 
ATOM      2  N1  UNL     1      25.052  -8.686 -35.368  0.00  0.00    +0.000 NA
ATOM      3  C3  UNL     1      25.322  -7.860 -34.177  0.00  0.00    +0.000 C 
ATOM      4  C5  UNL     1      24.061  -7.779 -33.270  0.00  0.00    +0.000 C 
ATOM      5  C6  UNL     1      22.745  -7.881 -34.085  0.00  0.00    +0.000 C 
ATOM      6  C7  UNL     1      22.946  -7.299 -35.498  0.00  0.00    +0.000 C 
ATOM      7  H5  UNL     1      25.946  -8.860 -35.886  0.00  0.00    +0.000 HD
ENDROOT
BRANCH   4   8
ATOM      8  O3  UNL     1      24.092  -6.564 -32.563  0.00  0.00    +0.000 OA
ATOM      9  H11 UNL     1      23.181  -6.418 -32.195  0.00  0.00    +0.000 HD
ENDBRANCH   4   8
BRANCH   5  10
ATOM     10  O4  UNL     1      22.358  -9.232 -34.169  0.00  0.00    +0.000 OA
ATOM     11  H13 UNL     1      21.503  -9.325 -33.673  0.00  0.00    +0.000 HD
ENDBRANCH   5  10
BRANCH   6  12
ATOM     12  O5  UNL     1      21.737  -7.258 -36.215  0.00  0.00    +0.000 OA
ATOM     13  H15 UNL     1      21.331  -6.362 -36.085  0.00  0.00    +0.000 HD
ENDBRANCH   6  12
BRANCH   1  14
ATOM     14  C1  UNL     1      24.703  -7.178 -37.345  0.00  0.00    +0.000 C 
BRANCH  14  15
ATOM     15  O1  UNL     1      23.832  -6.962 -38.423  0.00  0.00    +0.000 OA
ATOM     16  H1  UNL     1      24.310  -7.261 -39.239  0.00  0.00    +0.000 HD
ENDBRANCH  14  15
ENDBRANCH   1  14
BRANCH   3  17
ATOM     17  C4  UNL     1      26.534  -8.408 -33.397  0.00  0.00    +0.000 C 
BRANCH  17  18
ATOM     18  O2  UNL     1      26.750  -7.683 -32.216  0.00  0.00    +0.000 OA
ATOM     19  H9  UNL     1      27.502  -7.060 -32.394  0.00  0.00    +0.000 HD
ENDBRANCH  17  18
ENDBRANCH   3  17
TORSDOF 7
ENDMDL
MODEL 7
REMARK VINA RESULT:    -3.645      2.321      3.810
REMARK INTER + INTRA:          -5.112
REMARK INTER:                  -4.592
REMARK INTRA:                  -0.520
REMARK UNBOUND:                -0.508
REMARK  Name = resultss/4CJN/ligands/lig_1_t0.pdb
REMARK  7 active torsions:
REMARK  status: ('A' for Active; 'I' for Inactive)
REMARK    1  A    between atoms: O1_1  and  C1_2
REMARK    2  A    between atoms: C1_2  and  C2_3
REMARK    3  A    between atoms: C3_5  and  C4_6
REMARK    4  A    between atoms: C4_6  and  O2_7
REMARK    5  A    between atoms: C5_8  and  O3_9
REMARK    6  A    between atoms: C6_10  and  O4_11
REMARK    7  A    between atoms: C7_12  and  O5_13
REMARK                            x       y       z     vdW  Elec       q    Type
REMARK                         _______ _______ _______ _____ _____    ______ ____
ROOT
ATOM      1  C2  UNL     1      25.545  -8.273 -34.364  0.00  0.00    +0.000 C 
ATOM      2  N1  UNL     1      25.611  -7.329 -35.507  0.00  0.00    +0.000 NA
ATOM      3  C3  UNL     1      24.433  -7.412 -36.390  0.00  0.00    +0.000 C 
ATOM      4  C5  UNL     1      23.154  -6.937 -35.641  0.00  0.00    +0.000 C 
ATOM      5  C6  UNL     1      23.229  -7.217 -34.117  0.00  0.00    +0.000 C 
ATOM      6  C7  UNL     1      24.088  -8.468 -33.846  0.00  0.00    +0.000 C 
ATOM      7  H5  UNL     1      26.481  -7.501 -36.064  0.00  0.00    +0.000 HD
ENDROOT
BRANCH   4   8
ATOM      8  O3  UNL     1      22.040  -7.594 -36.193  0.00  0.00    +0.000 OA
ATOM      9  H11 UNL     1      21.330  -6.910 -36.314  0.00  0.00    +0.000 HD
ENDBRANCH   4   8
BRANCH   5  10
ATOM     10  O4  UNL     1      23.786  -6.098 -33.470  0.00  0.00    +0.000 OA
ATOM     11  H13 UNL     1      24.764  -6.114 -33.643  0.00  0.00    +0.000 HD
ENDBRANCH   5  10
BRANCH   6  12
ATOM     12  O5  UNL     1      24.066  -8.822 -32.484  0.00  0.00    +0.000 OA
ATOM     13  H15 UNL     1      24.469  -9.724 -32.394  0.00  0.00    +0.000 HD
ENDBRANCH   6  12
BRANCH   1  14
ATOM     14  C1  UNL     1      26.190  -9.636 -34.701  0.00  0.00    +0.000 C 
BRANCH  14  15
ATOM     15  O1  UNL     1      25.364 -10.695 -34.297  0.00  0.00    +0.000 OA
ATOM     16  H1  UNL     1      24.846 -10.370 -33.516  0.00  0.00    +0.000 HD
ENDBRANCH  14  15
ENDBRANCH   1  14
BRANCH   3  17
ATOM     17  C4  UNL     1      24.659  -6.596 -37.678  0.00  0.00    +0.000 C 
BRANCH  17  18
ATOM     18  O2  UNL     1      23.557  -6.691 -38.541  0.00  0.00    +0.000 OA
ATOM     19  H9  UNL     1      23.624  -5.931 -39.177  0.00  0.00    +0.000 HD
ENDBRANCH  17  18
ENDBRANCH   3  17
TORSDOF 7
ENDMDL
MODEL 8
REMARK VINA RESULT:    -3.639      5.986      7.391
REMARK INTER + INTRA:          -5.105
REMARK INTER:                  -4.611
REMARK INTRA:                  -0.494
REMARK UNBOUND:                -0.508
REMARK  Name = resultss/4CJN/ligands/lig_1_t0.pdb
REMARK  7 active torsions:
REMARK  status: ('A' for Active; 'I' for Inactive)
REMARK    1  A    between atoms: O1_1  and  C1_2
REMARK    2  A    between atoms: C1_2  and  C2_3
REMARK    3  A    between atoms: C3_5  and  C4_6
REMARK    4  A    between atoms: C4_6  and  O2_7
REMARK    5  A    between atoms: C5_8  and  O3_9
REMARK    6  A    between atoms: C6_10  and  O4_11
REMARK    7  A    between atoms: C7_12  and  O5_13
REMARK                            x       y       z     vdW  Elec       q    Type
REMARK                         _______ _______ _______ _____ _____    ______ ____
ROOT
ATOM      1  C2  UNL     1      28.045  -9.275 -41.093  0.00  0.00    +0.000 C 
ATOM      2  N1  UNL     1      27.061  -8.951 -42.155  0.00  0.00    +0.000 NA
ATOM      3  C3  UNL     1      25.697  -9.408 -41.834  0.00  0.00    +0.000 C 
ATOM      4  C5  UNL     1      25.133  -8.629 -40.611  0.00  0.00    +0.000 C 
ATOM      5  C6  UNL     1      26.250  -8.191 -39.629  0.00  0.00    +0.000 C 
ATOM      6  C7  UNL     1      27.419  -9.196 -39.667  0.00  0.00    +0.000 C 
ATOM      7  H5  UNL     1      27.367  -9.367 -43.066  0.00  0.00    +0.000 HD
ENDROOT
BRANCH   4   8
ATOM      8  O3  UNL     1      24.205  -9.450 -39.944  0.00  0.00    +0.000 OA
ATOM      9  H11 UNL     1      24.672  -9.835 -39.157  0.00  0.00    +0.000 HD
ENDBRANCH   4   8
BRANCH   5  10
ATOM     10  O4  UNL     1      26.703  -6.908 -39.989  0.00  0.00    +0.000 OA
ATOM     11  H13 UNL     1      25.948  -6.443 -40.437  0.00  0.00    +0.000 HD
ENDBRANCH   5  10
BRANCH   6  12
ATOM     12  O5  UNL     1      28.388  -8.895 -38.693  0.00  0.00    +0.000 OA
ATOM     13  H15 UNL     1      29.274  -9.171 -39.044  0.00  0.00    +0.000 HD
ENDBRANCH   6  12
BRANCH   1  14
ATOM     14  C1  UNL     1      28.709 -10.651 -41.319  0.00  0.00    +0.000 C 
BRANCH  14  15
ATOM     15  O1  UNL     1      28.314 -11.568 -40.333  0.00  0.00    +0.000 OA
ATOM     16  H1  UNL     1      27.322 -11.566 -40.326  0.00  0.00    +0.000 HD
ENDBRANCH  14  15
ENDBRANCH   1  14
BRANCH   3  17
ATOM     17  C4  UNL     1      24.772  -9.265 -43.059  0.00  0.00    +0.000 C 
BRANCH  17  18
ATOM     18  O2  UNL     1      23.579  -9.982 -42.883  0.00  0.00    +0.000 OA
ATOM     19  H9  UNL     1      23.789 -10.748 -42.287  0.00  0.00    +0.000 HD
ENDBRANCH  17  18
ENDBRANCH   3  17
TORSDOF 7
ENDMDL
MODEL 9
REMARK VINA RESULT:    -3.615      2.628      3.793
REMARK INTER + INTRA:          -5.074
REMARK INTER:                  -4.549
REMARK INTRA:                  -0.526
REMARK UNBOUND:                -0.508
REMARK  Name = resultss/4CJN/ligands/lig_1_t0.pdb
REMARK  7 active torsions:
REMARK  status: ('A' for Active; 'I' for Inactive)
REMARK    1  A    between atoms: O1_1  and  C1_2
REMARK    2  A    between atoms: C1_2  and  C2_3
REMARK    3  A    between atoms: C3_5  and  C4_6
REMARK    4  A    between atoms: C4_6  and  O2_7
REMARK    5  A    between atoms: C5_8  and  O3_9
REMARK    6  A    between atoms: C6_10  and  O4_11
REMARK    7  A    between atoms: C7_12  and  O5_13
REMARK                            x       y       z     vdW  Elec       q    Type
REMARK                         _______ _______ _______ _____ _____    ______ ____
ROOT
ATOM      1  C2  UNL     1      26.959  -8.838 -35.717  0.00  0.00    +0.000 C 
ATOM      2  N1  UNL     1      28.405  -8.798 -36.051  0.00  0.00    +0.000 NA
ATOM      3  C3  UNL     1      28.830  -9.927 -36.898  0.00  0.00    +0.000 C 
ATOM      4  C5  UNL     1      28.163  -9.840 -38.301  0.00  0.00    +0.000 C 
ATOM      5  C6  UNL     1      26.772  -9.156 -38.247  0.00  0.00    +0.000 C 
ATOM      6  C7  UNL     1      26.102  -9.416 -36.883  0.00  0.00    +0.000 C 
ATOM      7  H5  UNL     1      28.975  -8.781 -35.173  0.00  0.00    +0.000 HD
ENDROOT
BRANCH   4   8
ATOM      8  O3  UNL     1      28.036 -11.141 -38.820  0.00  0.00    +0.000 OA
ATOM      9  H11 UNL     1      28.595 -11.182 -39.640  0.00  0.00    +0.000 HD
ENDBRANCH   4   8
BRANCH   5  10
ATOM     10  O4  UNL     1      26.931  -7.773 -38.453  0.00  0.00    +0.000 OA
ATOM     11  H13 UNL     1      26.022  -7.371 -38.472  0.00  0.00    +0.000 HD
ENDBRANCH   5  10
BRANCH   6  12
ATOM     12  O5  UNL     1      24.786  -8.918 -36.853  0.00  0.00    +0.000 OA
ATOM     13  H15 UNL     1      24.166  -9.678 -36.999  0.00  0.00    +0.000 HD
ENDBRANCH   6  12
BRANCH   1  14
ATOM     14  C1  UNL     1      26.689  -9.612 -34.408  0.00  0.00    +0.000 C 
BRANCH  14  15
ATOM     15  O1  UNL     1      25.653 -10.542 -34.579  0.00  0.00    +0.000 OA
ATOM     16  H1  UNL     1      24.843 -10.022 -34.821  0.00  0.00    +0.000 HD
ENDBRANCH  14  15
ENDBRANCH   1  14
BRANCH   3  17
ATOM     17  C4  UNL     1      30.367  -9.971 -37.015  0.00  0.00    +0.000 C 
BRANCH  17  18
ATOM     18  O2  UNL     1      30.769 -10.406 -38.286  0.00  0.00    +0.000 OA
ATOM     19  H9  UNL     1      31.015  -9.595 -38.803  0.00  0.00    +0.000 HD
ENDBRANCH  17  18
ENDBRANCH   3  17
TORSDOF 7
ENDMDL
