MODEL 1
REMARK VINA RESULT:    -4.998      0.000      0.000
REMARK INTER + INTRA:          -9.928
REMARK INTER:                  -8.651
REMARK INTRA:                  -1.277
REMARK UNBOUND:                -1.277
REMARK  Name = resultss/4CJN/ligands/lig_126_t0.pdb
REMARK  17 active torsions:
REMARK  status: ('A' for Active; 'I' for Inactive)
REMARK    1  A    between atoms: O1_1  and  C1_2
REMARK    2  A    between atoms: C1_2  and  C2_3
REMARK    3  A    between atoms: C3_4  and  O2_5
REMARK    4  A    between atoms: C4_6  and  O3_7
REMARK    5  A    between atoms: S1_9  and  C6_10
REMARK    6  A    between atoms: C6_10  and  C7_11
REMARK    7  A    between atoms: C7_11  and  O4_12
REMARK    8  A    between atoms: C7_11  and  C8_13
REMARK    9  A    between atoms: C8_13  and  O5_14
REMARK   10  A    between atoms: C8_13  and  C9_15
REMARK   11  A    between atoms: C9_15  and  O6_16
REMARK   12  A    between atoms: C9_15  and  C10_17
REMARK   13  A    between atoms: C10_17  and  O7_18
REMARK   14  A    between atoms: C10_17  and  C11_19
REMARK   15  A    between atoms: C11_19  and  O8_20
REMARK   16  A    between atoms: C11_19  and  C12_21
REMARK   17  A    between atoms: C12_21  and  O9_22
REMARK                            x       y       z     vdW  Elec       q    Type
REMARK                         _______ _______ _______ _____ _____    ______ ____
ROOT
ATOM      1  C7  UNL     1      26.909  -9.385 -37.089  0.00  0.00    +0.000 C 
ENDROOT
BRANCH   1   2
ATOM      2  O4  UNL     1      27.677 -10.305 -36.357  0.00  0.00    +0.000 OA
ATOM      3  H14 UNL     1      27.298 -10.340 -35.440  0.00  0.00    +0.000 HD
ENDBRANCH   1   2
BRANCH   1   4
ATOM      4  C8  UNL     1      25.805  -8.765 -36.178  0.00  0.00    +0.000 C 
BRANCH   4   5
ATOM      5  O5  UNL     1      24.512  -8.956 -36.699  0.00  0.00    +0.000 OA
ATOM      6  H16 UNL     1      24.075  -8.071 -36.775  0.00  0.00    +0.000 HD
ENDBRANCH   4   5
BRANCH   4   7
ATOM      7  C9  UNL     1      25.921  -9.184 -34.680  0.00  0.00    +0.000 C 
BRANCH   7   8
ATOM      8  O6  UNL     1      25.317 -10.434 -34.445  0.00  0.00    +0.000 OA
ATOM      9  H18 UNL     1      24.593 -10.559 -35.110  0.00  0.00    +0.000 HD
ENDBRANCH   7   8
BRANCH   7  10
ATOM     10  C10 UNL     1      25.373  -8.098 -33.712  0.00  0.00    +0.000 C 
BRANCH  10  11
ATOM     11  O7  UNL     1      26.104  -8.116 -32.510  0.00  0.00    +0.000 OA
ATOM     12  H20 UNL     1      26.255  -9.067 -32.270  0.00  0.00    +0.000 HD
ENDBRANCH  10  11
BRANCH  10  13
ATOM     13  C11 UNL     1      23.870  -8.316 -33.401  0.00  0.00    +0.000 C 
BRANCH  13  14
ATOM     14  O8  UNL     1      23.694  -9.092 -32.241  0.00  0.00    +0.000 OA
ATOM     15  H22 UNL     1      24.319  -8.750 -31.549  0.00  0.00    +0.000 HD
ENDBRANCH  13  14
BRANCH  13  16
ATOM     16  C12 UNL     1      23.115  -6.979 -33.283  0.00  0.00    +0.000 C 
BRANCH  16  17
ATOM     17  O9  UNL     1      23.659  -6.198 -32.253  0.00  0.00    +0.000 OA
ATOM     18  H25 UNL     1      24.300  -6.778 -31.765  0.00  0.00    +0.000 HD
ENDBRANCH  16  17
ENDBRANCH  13  16
ENDBRANCH  10  13
ENDBRANCH   7  10
ENDBRANCH   4   7
ENDBRANCH   1   4
BRANCH   1  19
ATOM     19  C6  UNL     1      27.849  -8.372 -37.777  0.00  0.00    +0.000 C 
BRANCH  19  24
ATOM     20  C2  UNL     1      28.754 -10.272 -39.858  0.00  0.00    +0.000 C 
ATOM     21  C3  UNL     1      27.653 -11.047 -40.618  0.00  0.00    +0.000 C 
ATOM     22  C4  UNL     1      26.285 -10.426 -40.279  0.00  0.00    +0.000 C 
ATOM     23  C5  UNL     1      26.472  -8.911 -40.253  0.00  0.00    +0.000 C 
ATOM     24  S1  UNL     1      28.068  -8.660 -39.535  0.00  0.00    +0.000 S 
ATOM     25 CL1  UNL     1      28.531  -7.048 -38.211  0.00  0.00    +0.000 Cl
BRANCH  22  26
ATOM     26  O3  UNL     1      25.332 -10.794 -41.241  0.00  0.00    +0.000 OA
ATOM     27  H8  UNL     1      25.685 -11.605 -41.693  0.00  0.00    +0.000 HD
ENDBRANCH  22  26
BRANCH  21  28
ATOM     28  O2  UNL     1      27.686 -12.421 -40.322  0.00  0.00    +0.000 OA
ATOM     29  H6  UNL     1      28.378 -12.839 -40.899  0.00  0.00    +0.000 HD
ENDBRANCH  21  28
BRANCH  20  30
ATOM     30  C1  UNL     1      30.039 -10.166 -40.693  0.00  0.00    +0.000 C 
BRANCH  30  31
ATOM     31  O1  UNL     1      30.251 -11.334 -41.438  0.00  0.00    +0.000 OA
ATOM     32  H1  UNL     1      29.546 -11.357 -42.136  0.00  0.00    +0.000 HD
ENDBRANCH  30  31
ENDBRANCH  20  30
ENDBRANCH  19  24
ENDBRANCH   1  19
TORSDOF 17
ENDMDL
MODEL 2
REMARK VINA RESULT:    -4.945      1.617      2.464
REMARK INTER + INTRA:          -9.836
REMARK INTER:                  -8.561
REMARK INTRA:                  -1.275
REMARK UNBOUND:                -1.277
REMARK  Name = resultss/4CJN/ligands/lig_126_t0.pdb
REMARK  17 active torsions:
REMARK  status: ('A' for Active; 'I' for Inactive)
REMARK    1  A    between atoms: O1_1  and  C1_2
REMARK    2  A    between atoms: C1_2  and  C2_3
REMARK    3  A    between atoms: C3_4  and  O2_5
REMARK    4  A    between atoms: C4_6  and  O3_7
REMARK    5  A    between atoms: S1_9  and  C6_10
REMARK    6  A    between atoms: C6_10  and  C7_11
REMARK    7  A    between atoms: C7_11  and  O4_12
REMARK    8  A    between atoms: C7_11  and  C8_13
REMARK    9  A    between atoms: C8_13  and  O5_14
REMARK   10  A    between atoms: C8_13  and  C9_15
REMARK   11  A    between atoms: C9_15  and  O6_16
REMARK   12  A    between atoms: C9_15  and  C10_17
REMARK   13  A    between atoms: C10_17  and  O7_18
REMARK   14  A    between atoms: C10_17  and  C11_19
REMARK   15  A    between atoms: C11_19  and  O8_20
REMARK   16  A    between atoms: C11_19  and  C12_21
REMARK   17  A    between atoms: C12_21  and  O9_22
REMARK                            x       y       z     vdW  Elec       q    Type
REMARK                         _______ _______ _______ _____ _____    ______ ____
ROOT
ATOM      1  C7  UNL     1      26.004  -9.130 -36.995  0.00  0.00    +0.000 C 
ENDROOT
BRANCH   1   2
ATOM      2  O4  UNL     1      27.100  -9.978 -36.766  0.00  0.00    +0.000 OA
ATOM      3  H14 UNL     1      27.915  -9.413 -36.775  0.00  0.00    +0.000 HD
ENDBRANCH   1   2
BRANCH   1   4
ATOM      4  C8  UNL     1      25.464  -8.575 -35.640  0.00  0.00    +0.000 C 
BRANCH   4   5
ATOM      5  O5  UNL     1      24.065  -8.428 -35.642  0.00  0.00    +0.000 OA
ATOM      6  H16 UNL     1      23.659  -9.330 -35.629  0.00  0.00    +0.000 HD
ENDBRANCH   4   5
BRANCH   4   7
ATOM      7  C9  UNL     1      25.988  -9.353 -34.393  0.00  0.00    +0.000 C 
BRANCH   7   8
ATOM      8  O6  UNL     1      25.471 -10.662 -34.344  0.00  0.00    +0.000 OA
ATOM      9  H18 UNL     1      26.104 -11.262 -34.817  0.00  0.00    +0.000 HD
ENDBRANCH   7   8
BRANCH   7  10
ATOM     10  C10 UNL     1      25.728  -8.591 -33.063  0.00  0.00    +0.000 C 
BRANCH  10  11
ATOM     11  O7  UNL     1      24.344  -8.438 -32.861  0.00  0.00    +0.000 OA
ATOM     12  H20 UNL     1      24.157  -8.656 -31.911  0.00  0.00    +0.000 HD
ENDBRANCH  10  11
BRANCH  10  13
ATOM     13  C11 UNL     1      26.405  -7.197 -33.062  0.00  0.00    +0.000 C 
BRANCH  13  14
ATOM     14  O8  UNL     1      25.574  -6.225 -32.475  0.00  0.00    +0.000 OA
ATOM     15  H22 UNL     1      24.794  -6.692 -32.077  0.00  0.00    +0.000 HD
ENDBRANCH  13  14
BRANCH  13  16
ATOM     16  C12 UNL     1      27.778  -7.232 -32.366  0.00  0.00    +0.000 C 
BRANCH  16  17
ATOM     17  O9  UNL     1      27.621  -7.300 -30.975  0.00  0.00    +0.000 OA
ATOM     18  H25 UNL     1      28.393  -6.817 -30.578  0.00  0.00    +0.000 HD
ENDBRANCH  16  17
ENDBRANCH  13  16
ENDBRANCH  10  13
ENDBRANCH   7  10
ENDBRANCH   4   7
ENDBRANCH   1   4
BRANCH   1  19
ATOM     19  C6  UNL     1      26.396  -8.063 -38.039  0.00  0.00    +0.000 C 
BRANCH  19  24
ATOM     20  C2  UNL     1      26.500 -10.183 -40.101  0.00  0.00    +0.000 C 
ATOM     21  C3  UNL     1      26.012  -9.800 -41.517  0.00  0.00    +0.000 C 
ATOM     22  C4  UNL     1      25.829  -8.273 -41.583  0.00  0.00    +0.000 C 
ATOM     23  C5  UNL     1      26.998  -7.646 -40.828  0.00  0.00    +0.000 C 
ATOM     24  S1  UNL     1      27.284  -8.720 -39.454  0.00  0.00    +0.000 S 
ATOM     25 CL1  UNL     1      27.855  -8.034 -37.512  0.00  0.00    +0.000 Cl
BRANCH  22  26
ATOM     26  O3  UNL     1      25.809  -7.842 -42.918  0.00  0.00    +0.000 OA
ATOM     27  H8  UNL     1      25.114  -7.136 -42.977  0.00  0.00    +0.000 HD
ENDBRANCH  22  26
BRANCH  21  28
ATOM     28  O2  UNL     1      24.829 -10.479 -41.861  0.00  0.00    +0.000 OA
ATOM     29  H6  UNL     1      24.081 -10.054 -41.366  0.00  0.00    +0.000 HD
ENDBRANCH  21  28
BRANCH  20  30
ATOM     30  C1  UNL     1      27.486 -11.360 -40.151  0.00  0.00    +0.000 C 
BRANCH  30  31
ATOM     31  O1  UNL     1      27.792 -11.813 -38.860  0.00  0.00    +0.000 OA
ATOM     32  H1  UNL     1      28.779 -11.763 -38.769  0.00  0.00    +0.000 HD
ENDBRANCH  30  31
ENDBRANCH  20  30
ENDBRANCH  19  24
ENDBRANCH   1  19
TORSDOF 17
ENDMDL
MODEL 3
REMARK VINA RESULT:    -4.940      1.681      2.245
REMARK INTER + INTRA:          -9.827
REMARK INTER:                  -8.339
REMARK INTRA:                  -1.488
REMARK UNBOUND:                -1.277
REMARK  Name = resultss/4CJN/ligands/lig_126_t0.pdb
REMARK  17 active torsions:
REMARK  status: ('A' for Active; 'I' for Inactive)
REMARK    1  A    between atoms: O1_1  and  C1_2
REMARK    2  A    between atoms: C1_2  and  C2_3
REMARK    3  A    between atoms: C3_4  and  O2_5
REMARK    4  A    between atoms: C4_6  and  O3_7
REMARK    5  A    between atoms: S1_9  and  C6_10
REMARK    6  A    between atoms: C6_10  and  C7_11
REMARK    7  A    between atoms: C7_11  and  O4_12
REMARK    8  A    between atoms: C7_11  and  C8_13
REMARK    9  A    between atoms: C8_13  and  O5_14
REMARK   10  A    between atoms: C8_13  and  C9_15
REMARK   11  A    between atoms: C9_15  and  O6_16
REMARK   12  A    between atoms: C9_15  and  C10_17
REMARK   13  A    between atoms: C10_17  and  O7_18
REMARK   14  A    between atoms: C10_17  and  C11_19
REMARK   15  A    between atoms: C11_19  and  O8_20
REMARK   16  A    between atoms: C11_19  and  C12_21
REMARK   17  A    between atoms: C12_21  and  O9_22
REMARK                            x       y       z     vdW  Elec       q    Type
REMARK                         _______ _______ _______ _____ _____    ______ ____
ROOT
ATOM      1  C7  UNL     1      26.841  -9.372 -37.111  0.00  0.00    +0.000 C 
ENDROOT
BRANCH   1   2
ATOM      2  O4  UNL     1      27.603 -10.339 -36.436  0.00  0.00    +0.000 OA
ATOM      3  H14 UNL     1      28.462 -10.431 -36.925  0.00  0.00    +0.000 HD
ENDBRANCH   1   2
BRANCH   1   4
ATOM      4  C8  UNL     1      25.770  -8.768 -36.151  0.00  0.00    +0.000 C 
BRANCH   4   5
ATOM      5  O5  UNL     1      24.458  -8.968 -36.619  0.00  0.00    +0.000 OA
ATOM      6  H16 UNL     1      24.228  -9.923 -36.495  0.00  0.00    +0.000 HD
ENDBRANCH   4   5
BRANCH   4   7
ATOM      7  C9  UNL     1      25.951  -9.198 -34.662  0.00  0.00    +0.000 C 
BRANCH   7   8
ATOM      8  O6  UNL     1      25.382 -10.460 -34.414  0.00  0.00    +0.000 OA
ATOM      9  H18 UNL     1      24.396 -10.356 -34.387  0.00  0.00    +0.000 HD
ENDBRANCH   7   8
BRANCH   7  10
ATOM     10  C10 UNL     1      25.420  -8.130 -33.664  0.00  0.00    +0.000 C 
BRANCH  10  11
ATOM     11  O7  UNL     1      26.163  -8.180 -32.470  0.00  0.00    +0.000 OA
ATOM     12  H20 UNL     1      27.119  -8.064 -32.711  0.00  0.00    +0.000 HD
ENDBRANCH  10  11
BRANCH  10  13
ATOM     13  C11 UNL     1      23.919  -8.345 -33.344  0.00  0.00    +0.000 C 
BRANCH  13  14
ATOM     14  O8  UNL     1      23.749  -9.151 -32.204  0.00  0.00    +0.000 OA
ATOM     15  H22 UNL     1      22.776  -9.204 -32.012  0.00  0.00    +0.000 HD
ENDBRANCH  13  14
BRANCH  13  16
ATOM     16  C12 UNL     1      23.176  -7.006 -33.181  0.00  0.00    +0.000 C 
BRANCH  16  17
ATOM     17  O9  UNL     1      23.869  -6.165 -32.299  0.00  0.00    +0.000 OA
ATOM     18  H25 UNL     1      24.205  -6.740 -31.562  0.00  0.00    +0.000 HD
ENDBRANCH  16  17
ENDBRANCH  13  16
ENDBRANCH  10  13
ENDBRANCH   7  10
ENDBRANCH   4   7
ENDBRANCH   1   4
BRANCH   1  19
ATOM     19  C6  UNL     1      27.789  -8.350 -37.775  0.00  0.00    +0.000 C 
BRANCH  19  24
ATOM     20  C2  UNL     1      26.376  -9.194 -40.235  0.00  0.00    +0.000 C 
ATOM     21  C3  UNL     1      24.970  -8.594 -40.469  0.00  0.00    +0.000 C 
ATOM     22  C4  UNL     1      24.743  -7.454 -39.460  0.00  0.00    +0.000 C 
ATOM     23  C5  UNL     1      26.052  -6.677 -39.355  0.00  0.00    +0.000 C 
ATOM     24  S1  UNL     1      27.321  -7.904 -39.449  0.00  0.00    +0.000 S 
ATOM     25 CL1  UNL     1      29.138  -7.819 -38.327  0.00  0.00    +0.000 Cl
BRANCH  22  26
ATOM     26  O3  UNL     1      23.701  -6.620 -39.895  0.00  0.00    +0.000 OA
ATOM     27  H8  UNL     1      23.903  -6.384 -40.838  0.00  0.00    +0.000 HD
ENDBRANCH  22  26
BRANCH  21  28
ATOM     28  O2  UNL     1      23.966  -9.574 -40.379  0.00  0.00    +0.000 OA
ATOM     29  H6  UNL     1      23.797  -9.920 -41.294  0.00  0.00    +0.000 HD
ENDBRANCH  21  28
BRANCH  20  30
ATOM     30  C1  UNL     1      27.026  -9.624 -41.558  0.00  0.00    +0.000 C 
BRANCH  30  31
ATOM     31  O1  UNL     1      26.100  -9.583 -42.609  0.00  0.00    +0.000 OA
ATOM     32  H1  UNL     1      26.606  -9.779 -43.440  0.00  0.00    +0.000 HD
ENDBRANCH  30  31
ENDBRANCH  20  30
ENDBRANCH  19  24
ENDBRANCH   1  19
TORSDOF 17
ENDMDL
MODEL 4
REMARK VINA RESULT:    -4.737      3.096      4.961
REMARK INTER + INTRA:          -9.476
REMARK INTER:                  -7.417
REMARK INTRA:                  -2.059
REMARK UNBOUND:                -1.277
REMARK  Name = resultss/4CJN/ligands/lig_126_t0.pdb
REMARK  17 active torsions:
REMARK  status: ('A' for Active; 'I' for Inactive)
REMARK    1  A    between atoms: O1_1  and  C1_2
REMARK    2  A    between atoms: C1_2  and  C2_3
REMARK    3  A    between atoms: C3_4  and  O2_5
REMARK    4  A    between atoms: C4_6  and  O3_7
REMARK    5  A    between atoms: S1_9  and  C6_10
REMARK    6  A    between atoms: C6_10  and  C7_11
REMARK    7  A    between atoms: C7_11  and  O4_12
REMARK    8  A    between atoms: C7_11  and  C8_13
REMARK    9  A    between atoms: C8_13  and  O5_14
REMARK   10  A    between atoms: C8_13  and  C9_15
REMARK   11  A    between atoms: C9_15  and  O6_16
REMARK   12  A    between atoms: C9_15  and  C10_17
REMARK   13  A    between atoms: C10_17  and  O7_18
REMARK   14  A    between atoms: C10_17  and  C11_19
REMARK   15  A    between atoms: C11_19  and  O8_20
REMARK   16  A    between atoms: C11_19  and  C12_21
REMARK   17  A    between atoms: C12_21  and  O9_22
REMARK                            x       y       z     vdW  Elec       q    Type
REMARK                         _______ _______ _______ _____ _____    ______ ____
ROOT
ATOM      1  C7  UNL     1      28.253 -10.648 -40.933  0.00  0.00    +0.000 C 
ENDROOT
BRANCH   1   2
ATOM      2  O4  UNL     1      29.325 -11.509 -41.216  0.00  0.00    +0.000 OA
ATOM      3  H14 UNL     1      29.181 -11.868 -42.131  0.00  0.00    +0.000 HD
ENDBRANCH   1   2
BRANCH   1   4
ATOM      4  C8  UNL     1      27.889 -10.727 -39.418  0.00  0.00    +0.000 C 
BRANCH   4   5
ATOM      5  O5  UNL     1      27.679 -12.050 -38.987  0.00  0.00    +0.000 OA
ATOM      6  H16 UNL     1      28.538 -12.404 -38.646  0.00  0.00    +0.000 HD
ENDBRANCH   4   5
BRANCH   4   7
ATOM      7  C9  UNL     1      28.871  -9.941 -38.496  0.00  0.00    +0.000 C 
BRANCH   7   8
ATOM      8  O6  UNL     1      30.202 -10.361 -38.680  0.00  0.00    +0.000 OA
ATOM      9  H18 UNL     1      30.283 -10.746 -39.590  0.00  0.00    +0.000 HD
ENDBRANCH   7   8
BRANCH   7  10
ATOM     10  C10 UNL     1      28.460  -9.999 -36.998  0.00  0.00    +0.000 C 
BRANCH  10  11
ATOM     11  O7  UNL     1      27.066 -10.164 -36.891  0.00  0.00    +0.000 OA
ATOM     12  H20 UNL     1      26.737  -9.483 -36.248  0.00  0.00    +0.000 HD
ENDBRANCH  10  11
BRANCH  10  13
ATOM     13  C11 UNL     1      28.884  -8.716 -36.239  0.00  0.00    +0.000 C 
BRANCH  13  14
ATOM     14  O8  UNL     1      29.580  -7.829 -37.080  0.00  0.00    +0.000 OA
ATOM     15  H22 UNL     1      30.243  -7.341 -36.525  0.00  0.00    +0.000 HD
ENDBRANCH  13  14
BRANCH  13  16
ATOM     16  C12 UNL     1      27.677  -8.015 -35.588  0.00  0.00    +0.000 C 
BRANCH  16  17
ATOM     17  O9  UNL     1      26.981  -7.254 -36.538  0.00  0.00    +0.000 OA
ATOM     18  H25 UNL     1      27.354  -7.497 -37.426  0.00  0.00    +0.000 HD
ENDBRANCH  16  17
ENDBRANCH  13  16
ENDBRANCH  10  13
ENDBRANCH   7  10
ENDBRANCH   4   7
ENDBRANCH   1   4
BRANCH   1  19
ATOM     19  C6  UNL     1      28.582  -9.236 -41.463  0.00  0.00    +0.000 C 
BRANCH  19  24
ATOM     20  C2  UNL     1      25.634  -9.208 -41.713  0.00  0.00    +0.000 C 
ATOM     21  C3  UNL     1      24.849  -8.469 -40.605  0.00  0.00    +0.000 C 
ATOM     22  C4  UNL     1      25.843  -7.667 -39.745  0.00  0.00    +0.000 C 
ATOM     23  C5  UNL     1      26.866  -7.050 -40.695  0.00  0.00    +0.000 C 
ATOM     24  S1  UNL     1      27.138  -8.280 -41.935  0.00  0.00    +0.000 S 
ATOM     25 CL1  UNL     1      29.041  -8.660 -42.829  0.00  0.00    +0.000 Cl
BRANCH  22  26
ATOM     26  O3  UNL     1      25.167  -6.670 -39.024  0.00  0.00    +0.000 OA
ATOM     27  H8  UNL     1      24.216  -6.712 -39.306  0.00  0.00    +0.000 HD
ENDBRANCH  22  26
BRANCH  21  28
ATOM     28  O2  UNL     1      24.088  -9.358 -39.825  0.00  0.00    +0.000 OA
ATOM     29  H6  UNL     1      24.715  -9.864 -39.245  0.00  0.00    +0.000 HD
ENDBRANCH  21  28
BRANCH  20  30
ATOM     30  C1  UNL     1      24.828  -9.271 -43.020  0.00  0.00    +0.000 C 
BRANCH  30  31
ATOM     31  O1  UNL     1      23.631  -9.978 -42.838  0.00  0.00    +0.000 OA
ATOM     32  H1  UNL     1      23.884 -10.918 -42.649  0.00  0.00    +0.000 HD
ENDBRANCH  30  31
ENDBRANCH  20  30
ENDBRANCH  19  24
ENDBRANCH   1  19
TORSDOF 17
ENDMDL
MODEL 5
REMARK VINA RESULT:    -4.734      2.443      7.427
REMARK INTER + INTRA:          -9.470
REMARK INTER:                  -8.190
REMARK INTRA:                  -1.279
REMARK UNBOUND:                -1.277
REMARK  Name = resultss/4CJN/ligands/lig_126_t0.pdb
REMARK  17 active torsions:
REMARK  status: ('A' for Active; 'I' for Inactive)
REMARK    1  A    between atoms: O1_1  and  C1_2
REMARK    2  A    between atoms: C1_2  and  C2_3
REMARK    3  A    between atoms: C3_4  and  O2_5
REMARK    4  A    between atoms: C4_6  and  O3_7
REMARK    5  A    between atoms: S1_9  and  C6_10
REMARK    6  A    between atoms: C6_10  and  C7_11
REMARK    7  A    between atoms: C7_11  and  O4_12
REMARK    8  A    between atoms: C7_11  and  C8_13
REMARK    9  A    between atoms: C8_13  and  O5_14
REMARK   10  A    between atoms: C8_13  and  C9_15
REMARK   11  A    between atoms: C9_15  and  O6_16
REMARK   12  A    between atoms: C9_15  and  C10_17
REMARK   13  A    between atoms: C10_17  and  O7_18
REMARK   14  A    between atoms: C10_17  and  C11_19
REMARK   15  A    between atoms: C11_19  and  O8_20
REMARK   16  A    between atoms: C11_19  and  C12_21
REMARK   17  A    between atoms: C12_21  and  O9_22
REMARK                            x       y       z     vdW  Elec       q    Type
REMARK                         _______ _______ _______ _____ _____    ______ ____
ROOT
ATOM      1  C7  UNL     1      25.642  -8.552 -38.049  0.00  0.00    +0.000 C 
ENDROOT
BRANCH   1   2
ATOM      2  O4  UNL     1      24.238  -8.569 -38.086  0.00  0.00    +0.000 OA
ATOM      3  H14 UNL     1      23.917  -8.223 -37.214  0.00  0.00    +0.000 HD
ENDBRANCH   1   2
BRANCH   1   4
ATOM      4  C8  UNL     1      26.219  -8.844 -39.469  0.00  0.00    +0.000 C 
BRANCH   4   5
ATOM      5  O5  UNL     1      27.399  -9.610 -39.419  0.00  0.00    +0.000 OA
ATOM      6  H16 UNL     1      28.037  -9.155 -38.815  0.00  0.00    +0.000 HD
ENDBRANCH   4   5
BRANCH   4   7
ATOM      7  C9  UNL     1      25.167  -9.421 -40.465  0.00  0.00    +0.000 C 
BRANCH   7   8
ATOM      8  O6  UNL     1      25.677 -10.523 -41.177  0.00  0.00    +0.000 OA
ATOM      9  H18 UNL     1      26.503 -10.829 -40.723  0.00  0.00    +0.000 HD
ENDBRANCH   7   8
BRANCH   7  10
ATOM     10  C10 UNL     1      24.599  -8.338 -41.426  0.00  0.00    +0.000 C 
BRANCH  10  11
ATOM     11  O7  UNL     1      23.374  -7.854 -40.932  0.00  0.00    +0.000 OA
ATOM     12  H20 UNL     1      23.518  -7.597 -39.985  0.00  0.00    +0.000 HD
ENDBRANCH  10  11
BRANCH  10  13
ATOM     13  C11 UNL     1      24.391  -8.898 -42.857  0.00  0.00    +0.000 C 
BRANCH  13  14
ATOM     14  O8  UNL     1      23.582 -10.048 -42.844  0.00  0.00    +0.000 OA
ATOM     15  H22 UNL     1      22.646  -9.764 -43.019  0.00  0.00    +0.000 HD
ENDBRANCH  13  14
BRANCH  13  16
ATOM     16  C12 UNL     1      23.808  -7.832 -43.804  0.00  0.00    +0.000 C 
BRANCH  16  17
ATOM     17  O9  UNL     1      22.412  -7.946 -43.870  0.00  0.00    +0.000 OA
ATOM     18  H25 UNL     1      22.209  -8.914 -43.957  0.00  0.00    +0.000 HD
ENDBRANCH  16  17
ENDBRANCH  13  16
ENDBRANCH  10  13
ENDBRANCH   7  10
ENDBRANCH   4   7
ENDBRANCH   1   4
BRANCH   1  19
ATOM     19  C6  UNL     1      26.117  -7.235 -37.398  0.00  0.00    +0.000 C 
BRANCH  19  24
ATOM     20  C2  UNL     1      24.709  -7.243 -34.795  0.00  0.00    +0.000 C 
ATOM     21  C3  UNL     1      24.525  -8.615 -34.108  0.00  0.00    +0.000 C 
ATOM     22  C4  UNL     1      25.385  -9.658 -34.846  0.00  0.00    +0.000 C 
ATOM     23  C5  UNL     1      26.713  -8.987 -35.187  0.00  0.00    +0.000 C 
ATOM     24  S1  UNL     1      26.289  -7.325 -35.614  0.00  0.00    +0.000 S 
ATOM     25 CL1  UNL     1      27.260  -6.214 -37.159  0.00  0.00    +0.000 Cl
BRANCH  22  26
ATOM     26  O3  UNL     1      25.589 -10.783 -34.032  0.00  0.00    +0.000 OA
ATOM     27  H8  UNL     1      25.582 -10.459 -33.094  0.00  0.00    +0.000 HD
ENDBRANCH  22  26
BRANCH  21  28
ATOM     28  O2  UNL     1      23.172  -8.997 -34.063  0.00  0.00    +0.000 OA
ATOM     29  H6  UNL     1      22.626  -8.208 -34.315  0.00  0.00    +0.000 HD
ENDBRANCH  21  28
BRANCH  20  30
ATOM     30  C1  UNL     1      24.679  -6.098 -33.770  0.00  0.00    +0.000 C 
BRANCH  30  31
ATOM     31  O1  UNL     1      24.410  -6.584 -32.483  0.00  0.00    +0.000 OA
ATOM     32  H1  UNL     1      25.039  -6.122 -31.870  0.00  0.00    +0.000 HD
ENDBRANCH  30  31
ENDBRANCH  20  30
ENDBRANCH  19  24
ENDBRANCH   1  19
TORSDOF 17
ENDMDL
MODEL 6
REMARK VINA RESULT:    -4.720      1.569      2.797
REMARK INTER + INTRA:          -9.446
REMARK INTER:                  -8.124
REMARK INTRA:                  -1.322
REMARK UNBOUND:                -1.277
REMARK  Name = resultss/4CJN/ligands/lig_126_t0.pdb
REMARK  17 active torsions:
REMARK  status: ('A' for Active; 'I' for Inactive)
REMARK    1  A    between atoms: O1_1  and  C1_2
REMARK    2  A    between atoms: C1_2  and  C2_3
REMARK    3  A    between atoms: C3_4  and  O2_5
REMARK    4  A    between atoms: C4_6  and  O3_7
REMARK    5  A    between atoms: S1_9  and  C6_10
REMARK    6  A    between atoms: C6_10  and  C7_11
REMARK    7  A    between atoms: C7_11  and  O4_12
REMARK    8  A    between atoms: C7_11  and  C8_13
REMARK    9  A    between atoms: C8_13  and  O5_14
REMARK   10  A    between atoms: C8_13  and  C9_15
REMARK   11  A    between atoms: C9_15  and  O6_16
REMARK   12  A    between atoms: C9_15  and  C10_17
REMARK   13  A    between atoms: C10_17  and  O7_18
REMARK   14  A    between atoms: C10_17  and  C11_19
REMARK   15  A    between atoms: C11_19  and  O8_20
REMARK   16  A    between atoms: C11_19  and  C12_21
REMARK   17  A    between atoms: C12_21  and  O9_22
REMARK                            x       y       z     vdW  Elec       q    Type
REMARK                         _______ _______ _______ _____ _____    ______ ____
ROOT
ATOM      1  C7  UNL     1      25.977  -8.380 -36.739  0.00  0.00    +0.000 C 
ENDROOT
BRANCH   1   2
ATOM      2  O4  UNL     1      24.704  -8.964 -36.827  0.00  0.00    +0.000 OA
ATOM      3  H14 UNL     1      24.829  -9.896 -37.145  0.00  0.00    +0.000 HD
ENDBRANCH   1   2
BRANCH   1   4
ATOM      4  C8  UNL     1      26.907  -9.257 -35.843  0.00  0.00    +0.000 C 
BRANCH   4   5
ATOM      5  O5  UNL     1      28.230  -8.777 -35.815  0.00  0.00    +0.000 OA
ATOM      6  H16 UNL     1      28.650  -9.079 -34.971  0.00  0.00    +0.000 HD
ENDBRANCH   4   5
BRANCH   4   7
ATOM      7  C9  UNL     1      26.331  -9.525 -34.418  0.00  0.00    +0.000 C 
BRANCH   7   8
ATOM      8  O6  UNL     1      25.354 -10.538 -34.437  0.00  0.00    +0.000 OA
ATOM      9  H18 UNL     1      25.720 -11.329 -33.964  0.00  0.00    +0.000 HD
ENDBRANCH   7   8
BRANCH   7  10
ATOM     10  C10 UNL     1      25.796  -8.234 -33.738  0.00  0.00    +0.000 C 
BRANCH  10  11
ATOM     11  O7  UNL     1      26.448  -8.036 -32.506  0.00  0.00    +0.000 OA
ATOM     12  H20 UNL     1      27.000  -7.216 -32.592  0.00  0.00    +0.000 HD
ENDBRANCH  10  11
BRANCH  10  13
ATOM     13  C11 UNL     1      24.266  -8.304 -33.503  0.00  0.00    +0.000 C 
BRANCH  13  14
ATOM     14  O8  UNL     1      23.959  -9.033 -32.340  0.00  0.00    +0.000 OA
ATOM     15  H22 UNL     1      24.627  -9.763 -32.253  0.00  0.00    +0.000 HD
ENDBRANCH  13  14
BRANCH  13  16
ATOM     16  C12 UNL     1      23.635  -6.900 -33.449  0.00  0.00    +0.000 C 
BRANCH  16  17
ATOM     17  O9  UNL     1      24.040  -6.224 -32.290  0.00  0.00    +0.000 OA
ATOM     18  H25 UNL     1      23.822  -5.265 -32.429  0.00  0.00    +0.000 HD
ENDBRANCH  16  17
ENDBRANCH  13  16
ENDBRANCH  10  13
ENDBRANCH   7  10
ENDBRANCH   4   7
ENDBRANCH   1   4
BRANCH   1  19
ATOM     19  C6  UNL     1      26.505  -8.093 -38.161  0.00  0.00    +0.000 C 
BRANCH  19  24
ATOM     20  C2  UNL     1      26.264  -8.781 -41.029  0.00  0.00    +0.000 C 
ATOM     21  C3  UNL     1      27.428  -9.586 -41.651  0.00  0.00    +0.000 C 
ATOM     22  C4  UNL     1      28.347 -10.083 -40.520  0.00  0.00    +0.000 C 
ATOM     23  C5  UNL     1      27.447 -10.534 -39.373  0.00  0.00    +0.000 C 
ATOM     24  S1  UNL     1      26.113  -9.374 -39.355  0.00  0.00    +0.000 S 
ATOM     25 CL1  UNL     1      25.188  -8.658 -37.567  0.00  0.00    +0.000 Cl
BRANCH  22  26
ATOM     26  O3  UNL     1      29.145 -11.144 -40.974  0.00  0.00    +0.000 OA
ATOM     27  H8  UNL     1      29.416 -11.659 -40.169  0.00  0.00    +0.000 HD
ENDBRANCH  22  26
BRANCH  21  28
ATOM     28  O2  UNL     1      28.137  -8.826 -42.599  0.00  0.00    +0.000 OA
ATOM     29  H6  UNL     1      29.041  -9.226 -42.692  0.00  0.00    +0.000 HD
ENDBRANCH  21  28
BRANCH  20  30
ATOM     30  C1  UNL     1      24.958  -8.997 -41.809  0.00  0.00    +0.000 C 
BRANCH  30  31
ATOM     31  O1  UNL     1      23.875  -9.168 -40.935  0.00  0.00    +0.000 OA
ATOM     32  H1  UNL     1      23.867  -8.377 -40.335  0.00  0.00    +0.000 HD
ENDBRANCH  30  31
ENDBRANCH  20  30
ENDBRANCH  19  24
ENDBRANCH   1  19
TORSDOF 17
ENDMDL
MODEL 7
REMARK VINA RESULT:    -4.686      2.361      7.173
REMARK INTER + INTRA:          -9.387
REMARK INTER:                  -7.652
REMARK INTRA:                  -1.735
REMARK UNBOUND:                -1.277
REMARK  Name = resultss/4CJN/ligands/lig_126_t0.pdb
REMARK  17 active torsions:
REMARK  status: ('A' for Active; 'I' for Inactive)
REMARK    1  A    between atoms: O1_1  and  C1_2
REMARK    2  A    between atoms: C1_2  and  C2_3
REMARK    3  A    between atoms: C3_4  and  O2_5
REMARK    4  A    between atoms: C4_6  and  O3_7
REMARK    5  A    between atoms: S1_9  and  C6_10
REMARK    6  A    between atoms: C6_10  and  C7_11
REMARK    7  A    between atoms: C7_11  and  O4_12
REMARK    8  A    between atoms: C7_11  and  C8_13
REMARK    9  A    between atoms: C8_13  and  O5_14
REMARK   10  A    between atoms: C8_13  and  C9_15
REMARK   11  A    between atoms: C9_15  and  O6_16
REMARK   12  A    between atoms: C9_15  and  C10_17
REMARK   13  A    between atoms: C10_17  and  O7_18
REMARK   14  A    between atoms: C10_17  and  C11_19
REMARK   15  A    between atoms: C11_19  and  O8_20
REMARK   16  A    between atoms: C11_19  and  C12_21
REMARK   17  A    between atoms: C12_21  and  O9_22
REMARK                            x       y       z     vdW  Elec       q    Type
REMARK                         _______ _______ _______ _____ _____    ______ ____
ROOT
ATOM      1  C7  UNL     1      28.362  -8.416 -34.839  0.00  0.00    +0.000 C 
ENDROOT
BRANCH   1   2
ATOM      2  O4  UNL     1      29.590  -8.150 -34.212  0.00  0.00    +0.000 OA
ATOM      3  H14 UNL     1      29.496  -7.280 -33.741  0.00  0.00    +0.000 HD
ENDBRANCH   1   2
BRANCH   1   4
ATOM      4  C8  UNL     1      28.392  -9.832 -35.494  0.00  0.00    +0.000 C 
BRANCH   4   5
ATOM      5  O5  UNL     1      27.102 -10.360 -35.687  0.00  0.00    +0.000 OA
ATOM      6  H16 UNL     1      26.629  -9.787 -36.342  0.00  0.00    +0.000 HD
ENDBRANCH   4   5
BRANCH   4   7
ATOM      7  C9  UNL     1      29.275  -9.910 -36.778  0.00  0.00    +0.000 C 
BRANCH   7   8
ATOM      8  O6  UNL     1      30.154  -8.815 -36.869  0.00  0.00    +0.000 OA
ATOM      9  H18 UNL     1      30.214  -8.390 -35.975  0.00  0.00    +0.000 HD
ENDBRANCH   7   8
BRANCH   7  10
ATOM     10  C10 UNL     1      28.430 -10.069 -38.073  0.00  0.00    +0.000 C 
BRANCH  10  11
ATOM     11  O7  UNL     1      27.957 -11.390 -38.177  0.00  0.00    +0.000 OA
ATOM     12  H20 UNL     1      27.750 -11.556 -39.133  0.00  0.00    +0.000 HD
ENDBRANCH  10  11
BRANCH  10  13
ATOM     13  C11 UNL     1      29.254  -9.718 -39.338  0.00  0.00    +0.000 C 
BRANCH  13  14
ATOM     14  O8  UNL     1      30.541 -10.283 -39.285  0.00  0.00    +0.000 OA
ATOM     15  H22 UNL     1      31.073  -9.765 -38.625  0.00  0.00    +0.000 HD
ENDBRANCH  13  14
BRANCH  13  16
ATOM     16  C12 UNL     1      28.526 -10.144 -40.627  0.00  0.00    +0.000 C 
BRANCH  16  17
ATOM     17  O9  UNL     1      28.793 -11.489 -40.920  0.00  0.00    +0.000 OA
ATOM     18  H25 UNL     1      28.761 -11.979 -40.057  0.00  0.00    +0.000 HD
ENDBRANCH  16  17
ENDBRANCH  13  16
ENDBRANCH  10  13
ENDBRANCH   7  10
ENDBRANCH   4   7
ENDBRANCH   1   4
BRANCH   1  19
ATOM     19  C6  UNL     1      27.214  -8.173 -33.836  0.00  0.00    +0.000 C 
BRANCH  19  24
ATOM     20  C2  UNL     1      24.571  -8.097 -35.165  0.00  0.00    +0.000 C 
ATOM     21  C3  UNL     1      23.346  -7.826 -34.261  0.00  0.00    +0.000 C 
ATOM     22  C4  UNL     1      23.843  -7.381 -32.873  0.00  0.00    +0.000 C 
ATOM     23  C5  UNL     1      25.027  -6.445 -33.097  0.00  0.00    +0.000 C 
ATOM     24  S1  UNL     1      25.899  -7.131 -34.473  0.00  0.00    +0.000 S 
ATOM     25 CL1  UNL     1      28.029  -7.131 -34.647  0.00  0.00    +0.000 Cl
BRANCH  22  26
ATOM     26  O3  UNL     1      22.815  -6.728 -32.176  0.00  0.00    +0.000 OA
ATOM     27  H8  UNL     1      22.334  -7.427 -31.661  0.00  0.00    +0.000 HD
ENDBRANCH  22  26
BRANCH  21  28
ATOM     28  O2  UNL     1      22.505  -8.950 -34.176  0.00  0.00    +0.000 OA
ATOM     29  H6  UNL     1      22.801  -9.491 -33.398  0.00  0.00    +0.000 HD
ENDBRANCH  21  28
BRANCH  20  30
ATOM     30  C1  UNL     1      24.293  -7.687 -36.619  0.00  0.00    +0.000 C 
BRANCH  30  31
ATOM     31  O1  UNL     1      22.915  -7.592 -36.858  0.00  0.00    +0.000 OA
ATOM     32  H1  UNL     1      22.810  -7.339 -37.813  0.00  0.00    +0.000 HD
ENDBRANCH  30  31
ENDBRANCH  20  30
ENDBRANCH  19  24
ENDBRANCH   1  19
TORSDOF 17
ENDMDL
MODEL 8
REMARK VINA RESULT:    -4.634      1.040      1.703
REMARK INTER + INTRA:          -9.297
REMARK INTER:                  -8.184
REMARK INTRA:                  -1.113
REMARK UNBOUND:                -1.277
REMARK  Name = resultss/4CJN/ligands/lig_126_t0.pdb
REMARK  17 active torsions:
REMARK  status: ('A' for Active; 'I' for Inactive)
REMARK    1  A    between atoms: O1_1  and  C1_2
REMARK    2  A    between atoms: C1_2  and  C2_3
REMARK    3  A    between atoms: C3_4  and  O2_5
REMARK    4  A    between atoms: C4_6  and  O3_7
REMARK    5  A    between atoms: S1_9  and  C6_10
REMARK    6  A    between atoms: C6_10  and  C7_11
REMARK    7  A    between atoms: C7_11  and  O4_12
REMARK    8  A    between atoms: C7_11  and  C8_13
REMARK    9  A    between atoms: C8_13  and  O5_14
REMARK   10  A    between atoms: C8_13  and  C9_15
REMARK   11  A    between atoms: C9_15  and  O6_16
REMARK   12  A    between atoms: C9_15  and  C10_17
REMARK   13  A    between atoms: C10_17  and  O7_18
REMARK   14  A    between atoms: C10_17  and  C11_19
REMARK   15  A    between atoms: C11_19  and  O8_20
REMARK   16  A    between atoms: C11_19  and  C12_21
REMARK   17  A    between atoms: C12_21  and  O9_22
REMARK                            x       y       z     vdW  Elec       q    Type
REMARK                         _______ _______ _______ _____ _____    ______ ____
ROOT
ATOM      1  C7  UNL     1      26.855  -9.263 -36.937  0.00  0.00    +0.000 C 
ENDROOT
BRANCH   1   2
ATOM      2  O4  UNL     1      27.656 -10.283 -36.399  0.00  0.00    +0.000 OA
ATOM      3  H14 UNL     1      27.048 -11.012 -36.108  0.00  0.00    +0.000 HD
ENDBRANCH   1   2
BRANCH   1   4
ATOM      4  C8  UNL     1      25.890  -8.708 -35.843  0.00  0.00    +0.000 C 
BRANCH   4   5
ATOM      5  O5  UNL     1      24.549  -8.698 -36.268  0.00  0.00    +0.000 OA
ATOM      6  H16 UNL     1      24.396  -7.868 -36.786  0.00  0.00    +0.000 HD
ENDBRANCH   4   5
BRANCH   4   7
ATOM      7  C9  UNL     1      26.076  -9.378 -34.446  0.00  0.00    +0.000 C 
BRANCH   7   8
ATOM      8  O6  UNL     1      25.516 -10.669 -34.413  0.00  0.00    +0.000 OA
ATOM      9  H18 UNL     1      24.575 -10.591 -34.111  0.00  0.00    +0.000 HD
ENDBRANCH   7   8
BRANCH   7  10
ATOM     10  C10 UNL     1      25.537  -8.496 -33.285  0.00  0.00    +0.000 C 
BRANCH  10  11
ATOM     11  O7  UNL     1      24.220  -8.087 -33.567  0.00  0.00    +0.000 OA
ATOM     12  H20 UNL     1      23.762  -7.946 -32.698  0.00  0.00    +0.000 HD
ENDBRANCH  10  11
BRANCH  10  13
ATOM     13  C11 UNL     1      26.425  -7.247 -33.057  0.00  0.00    +0.000 C 
BRANCH  13  14
ATOM     14  O8  UNL     1      25.692  -6.196 -32.477  0.00  0.00    +0.000 OA
ATOM     15  H22 UNL     1      25.365  -6.506 -31.592  0.00  0.00    +0.000 HD
ENDBRANCH  13  14
BRANCH  13  16
ATOM     16  C12 UNL     1      27.666  -7.579 -32.209  0.00  0.00    +0.000 C 
BRANCH  16  17
ATOM     17  O9  UNL     1      27.620  -6.897 -30.984  0.00  0.00    +0.000 OA
ATOM     18  H25 UNL     1      27.253  -5.994 -31.176  0.00  0.00    +0.000 HD
ENDBRANCH  16  17
ENDBRANCH  13  16
ENDBRANCH  10  13
ENDBRANCH   7  10
ENDBRANCH   4   7
ENDBRANCH   1   4
BRANCH   1  19
ATOM     19  C6  UNL     1      27.758  -8.213 -37.619  0.00  0.00    +0.000 C 
BRANCH  19  24
ATOM     20  C2  UNL     1      28.702 -10.105 -39.690  0.00  0.00    +0.000 C 
ATOM     21  C3  UNL     1      27.616 -10.882 -40.469  0.00  0.00    +0.000 C 
ATOM     22  C4  UNL     1      26.241 -10.268 -40.149  0.00  0.00    +0.000 C 
ATOM     23  C5  UNL     1      26.421  -8.752 -40.116  0.00  0.00    +0.000 C 
ATOM     24  S1  UNL     1      28.005  -8.496 -39.374  0.00  0.00    +0.000 S 
ATOM     25 CL1  UNL     1      28.442  -6.886 -38.039  0.00  0.00    +0.000 Cl
BRANCH  22  26
ATOM     26  O3  UNL     1      25.304 -10.638 -41.126  0.00  0.00    +0.000 OA
ATOM     27  H8  UNL     1      25.732 -11.347 -41.674  0.00  0.00    +0.000 HD
ENDBRANCH  22  26
BRANCH  21  28
ATOM     28  O2  UNL     1      27.650 -12.257 -40.175  0.00  0.00    +0.000 OA
ATOM     29  H6  UNL     1      27.782 -12.746 -41.029  0.00  0.00    +0.000 HD
ENDBRANCH  21  28
BRANCH  20  30
ATOM     30  C1  UNL     1      29.999  -9.992 -40.506  0.00  0.00    +0.000 C 
BRANCH  30  31
ATOM     31  O1  UNL     1      30.007 -10.909 -41.566  0.00  0.00    +0.000 OA
ATOM     32  H1  UNL     1      30.574 -10.514 -42.278  0.00  0.00    +0.000 HD
ENDBRANCH  30  31
ENDBRANCH  20  30
ENDBRANCH  19  24
ENDBRANCH   1  19
TORSDOF 17
ENDMDL
MODEL 9
REMARK VINA RESULT:    -4.503      2.161      3.197
REMARK INTER + INTRA:          -9.071
REMARK INTER:                  -7.367
REMARK INTRA:                  -1.705
REMARK UNBOUND:                -1.277
REMARK  Name = resultss/4CJN/ligands/lig_126_t0.pdb
REMARK  17 active torsions:
REMARK  status: ('A' for Active; 'I' for Inactive)
REMARK    1  A    between atoms: O1_1  and  C1_2
REMARK    2  A    between atoms: C1_2  and  C2_3
REMARK    3  A    between atoms: C3_4  and  O2_5
REMARK    4  A    between atoms: C4_6  and  O3_7
REMARK    5  A    between atoms: S1_9  and  C6_10
REMARK    6  A    between atoms: C6_10  and  C7_11
REMARK    7  A    between atoms: C7_11  and  O4_12
REMARK    8  A    between atoms: C7_11  and  C8_13
REMARK    9  A    between atoms: C8_13  and  O5_14
REMARK   10  A    between atoms: C8_13  and  C9_15
REMARK   11  A    between atoms: C9_15  and  O6_16
REMARK   12  A    between atoms: C9_15  and  C10_17
REMARK   13  A    between atoms: C10_17  and  O7_18
REMARK   14  A    between atoms: C10_17  and  C11_19
REMARK   15  A    between atoms: C11_19  and  O8_20
REMARK   16  A    between atoms: C11_19  and  C12_21
REMARK   17  A    between atoms: C12_21  and  O9_22
REMARK                            x       y       z     vdW  Elec       q    Type
REMARK                         _______ _______ _______ _____ _____    ______ ____
ROOT
ATOM      1  C7  UNL     1      25.491  -8.147 -35.785  0.00  0.00    +0.000 C 
ENDROOT
BRANCH   1   2
ATOM      2  O4  UNL     1      24.534  -7.122 -35.721  0.00  0.00    +0.000 OA
ATOM      3  H14 UNL     1      24.268  -7.026 -34.770  0.00  0.00    +0.000 HD
ENDBRANCH   1   2
BRANCH   1   4
ATOM      4  C8  UNL     1      25.380  -9.061 -34.525  0.00  0.00    +0.000 C 
BRANCH   4   5
ATOM      5  O5  UNL     1      25.783 -10.384 -34.787  0.00  0.00    +0.000 OA
ATOM      6  H16 UNL     1      26.772 -10.417 -34.758  0.00  0.00    +0.000 HD
ENDBRANCH   4   5
BRANCH   4   7
ATOM      7  C9  UNL     1      26.061  -8.463 -33.255  0.00  0.00    +0.000 C 
BRANCH   7   8
ATOM      8  O6  UNL     1      25.370  -7.332 -32.782  0.00  0.00    +0.000 OA
ATOM      9  H18 UNL     1      25.147  -7.482 -31.827  0.00  0.00    +0.000 HD
ENDBRANCH   7   8
BRANCH   7  10
ATOM     10  C10 UNL     1      27.569  -8.155 -33.476  0.00  0.00    +0.000 C 
BRANCH  10  11
ATOM     11  O7  UNL     1      28.285  -9.357 -33.630  0.00  0.00    +0.000 OA
ATOM     12  H20 UNL     1      29.250  -9.137 -33.558  0.00  0.00    +0.000 HD
ENDBRANCH  10  11
BRANCH  10  13
ATOM     13  C11 UNL     1      28.166  -7.349 -32.294  0.00  0.00    +0.000 C 
BRANCH  13  14
ATOM     14  O8  UNL     1      27.629  -7.769 -31.064  0.00  0.00    +0.000 OA
ATOM     15  H22 UNL     1      27.173  -6.989 -30.650  0.00  0.00    +0.000 HD
ENDBRANCH  13  14
BRANCH  13  16
ATOM     16  C12 UNL     1      29.704  -7.429 -32.273  0.00  0.00    +0.000 C 
BRANCH  16  17
ATOM     17  O9  UNL     1      30.235  -7.007 -33.500  0.00  0.00    +0.000 OA
ATOM     18  H25 UNL     1      29.818  -6.129 -33.703  0.00  0.00    +0.000 HD
ENDBRANCH  16  17
ENDBRANCH  13  16
ENDBRANCH  10  13
ENDBRANCH   7  10
ENDBRANCH   4   7
ENDBRANCH   1   4
BRANCH   1  19
ATOM     19  C6  UNL     1      25.371  -8.871 -37.143  0.00  0.00    +0.000 C 
BRANCH  19  24
ATOM     20  C2  UNL     1      27.745 -10.179 -38.331  0.00  0.00    +0.000 C 
ATOM     21  C3  UNL     1      27.631 -10.616 -39.809  0.00  0.00    +0.000 C 
ATOM     22  C4  UNL     1      26.352 -10.005 -40.410  0.00  0.00    +0.000 C 
ATOM     23  C5  UNL     1      26.240  -8.580 -39.876  0.00  0.00    +0.000 C 
ATOM     24  S1  UNL     1      26.805  -8.671 -38.204  0.00  0.00    +0.000 S 
ATOM     25 CL1  UNL     1      25.955  -7.539 -36.603  0.00  0.00    +0.000 Cl
BRANCH  22  26
ATOM     26  O3  UNL     1      26.423 -10.010 -41.811  0.00  0.00    +0.000 OA
ATOM     27  H8  UNL     1      26.888  -9.173 -42.074  0.00  0.00    +0.000 HD
ENDBRANCH  22  26
BRANCH  21  28
ATOM     28  O2  UNL     1      27.648 -12.016 -39.940  0.00  0.00    +0.000 OA
ATOM     29  H6  UNL     1      27.476 -12.406 -39.043  0.00  0.00    +0.000 HD
ENDBRANCH  21  28
BRANCH  20  30
ATOM     30  C1  UNL     1      29.210  -9.949 -37.929  0.00  0.00    +0.000 C 
BRANCH  30  31
ATOM     31  O1  UNL     1      30.081 -10.383 -38.937  0.00  0.00    +0.000 OA
ATOM     32  H1  UNL     1      30.860  -9.768 -38.922  0.00  0.00    +0.000 HD
ENDBRANCH  30  31
ENDBRANCH  20  30
ENDBRANCH  19  24
ENDBRANCH   1  19
TORSDOF 17
ENDMDL
