MODEL 1
REMARK VINA RESULT:    -7.306      0.000      0.000
REMARK INTER + INTRA:         -12.245
REMARK INTER:                 -10.936
REMARK INTRA:                  -1.309
REMARK UNBOUND:                -1.309
REMARK  Name = resultss/4CJN/ligands/lig_356_t2.pdb
REMARK  10 active torsions:
REMARK  status: ('A' for Active; 'I' for Inactive)
REMARK    1  A    between atoms: C1_1  and  C2_2
REMARK    2  A    between atoms: C2_2  and  C3_3
REMARK    3  A    between atoms: C6_6  and  N1_7
REMARK    4  A    between atoms: N1_7  and  C7_8
REMARK    5  A    between atoms: C7_8  and  O1_9
REMARK    6  A    between atoms: C8_10  and  N2_11
REMARK    7  A    between atoms: C10_13  and  C11_14
REMARK    8  A    between atoms: C11_14  and  O2_15
REMARK    9  A    between atoms: O2_15  and  C12_16
REMARK   10  A    between atoms: C15_19  and  C16_20
REMARK                            x       y       z     vdW  Elec       q    Type
REMARK                         _______ _______ _______ _____ _____    ______ ____
ROOT
ATOM      1  N2  UNL     1      23.823  -7.611 -35.605  0.00  0.00    +0.000 N 
ATOM      2  C9  UNL     1      24.269  -8.140 -36.757  0.00  0.00    +0.000 A 
ATOM      3  C10 UNL     1      24.646  -7.074 -37.542  0.00  0.00    +0.000 A 
ATOM      4  N5  UNL     1      24.420  -5.932 -36.856  0.00  0.00    +0.000 NA
ATOM      5  N6  UNL     1      23.934  -6.292 -35.675  0.00  0.00    +0.000 NA
ENDROOT
BRANCH   1   7
ATOM      6  C7  UNL     1      24.034  -8.220 -33.250  0.00  0.00    +0.000 C 
ATOM      7  C8  UNL     1      23.397  -8.312 -34.428  0.00  0.00    +0.000 C 
BRANCH   6   8
ATOM      8  N1  UNL     1      25.279  -7.509 -33.131  0.00  0.00    +0.000 N 
ATOM      9  H8  UNL     1      25.248  -6.466 -33.075  0.00  0.00    +0.000 HD
BRANCH   8  13
ATOM     10  C3  UNL     1      29.100  -9.344 -33.527  0.00  0.00    +0.000 A 
ATOM     11  C4  UNL     1      28.879  -8.351 -32.561  0.00  0.00    +0.000 A 
ATOM     12  C5  UNL     1      27.620  -7.753 -32.439  0.00  0.00    +0.000 A 
ATOM     13  C6  UNL     1      26.567  -8.129 -33.287  0.00  0.00    +0.000 A 
ATOM     14  C25 UNL     1      26.780  -9.148 -34.234  0.00  0.00    +0.000 A 
ATOM     15  C26 UNL     1      28.038  -9.748 -34.354  0.00  0.00    +0.000 A 
BRANCH  10  17
ATOM     16  C1  UNL     1      31.125 -10.080 -32.268  0.00  0.00    +0.000 C 
ATOM     17  C2  UNL     1      30.446 -10.011 -33.633  0.00  0.00    +0.000 C 
ENDBRANCH  10  17
ENDBRANCH   8  13
ENDBRANCH   6   8
BRANCH   6  18
ATOM     18  O1  UNL     1      23.514  -8.881 -32.135  0.00  0.00    +0.000 OA
ATOM     19  H9  UNL     1      23.590  -9.885 -32.026  0.00  0.00    +0.000 HD
ENDBRANCH   6  18
ENDBRANCH   1   7
BRANCH   3  20
ATOM     20  C11 UNL     1      25.192  -7.144 -38.935  0.00  0.00    +0.000 C 
BRANCH  20  21
ATOM     21  O2  UNL     1      25.246  -8.493 -39.400  0.00  0.00    +0.000 OA
BRANCH  21  22
ATOM     22  C12 UNL     1      26.338  -9.086 -40.053  0.00  0.00    +0.000 A 
ATOM     23  C13 UNL     1      27.303  -9.855 -39.376  0.00  0.00    +0.000 A 
ATOM     24  C14 UNL     1      28.392 -10.392 -40.071  0.00  0.00    +0.000 A 
ATOM     25  C15 UNL     1      28.535 -10.179 -41.453  0.00  0.00    +0.000 A 
ATOM     26  C23 UNL     1      27.552  -9.435 -42.127  0.00  0.00    +0.000 A 
ATOM     27  C24 UNL     1      26.467  -8.893 -41.431  0.00  0.00    +0.000 A 
BRANCH  25  28
ATOM     28  C16 UNL     1      29.698 -10.718 -42.200  0.00  0.00    +0.000 A 
ATOM     29  N3  UNL     1      30.332 -10.013 -43.180  0.00  0.00    +0.000 NA
ATOM     30  C17 UNL     1      31.321 -10.841 -43.556  0.00  0.00    +0.000 A 
ATOM     31  C18 UNL     1      32.291 -10.624 -44.533  0.00  0.00    +0.000 A 
ATOM     32  C19 UNL     1      33.243 -11.640 -44.745  0.00  0.00    +0.000 A 
ATOM     33  C20 UNL     1      33.201 -12.833 -43.984  0.00  0.00    +0.000 A 
ATOM     34  C21 UNL     1      32.206 -13.018 -43.005  0.00  0.00    +0.000 A 
ATOM     35  C22 UNL     1      31.282 -11.990 -42.825  0.00  0.00    +0.000 A 
ATOM     36  N4  UNL     1      30.260 -11.933 -41.961  0.00  0.00    +0.000 N 
ATOM     37  H20 UNL     1      30.000 -12.650 -41.251  0.00  0.00    +0.000 HD
ENDBRANCH  25  28
ENDBRANCH  21  22
ENDBRANCH  20  21
ENDBRANCH   3  20
TORSDOF 9
ENDMDL
MODEL 2
REMARK VINA RESULT:    -7.234      2.029      3.140
REMARK INTER + INTRA:         -12.138
REMARK INTER:                 -10.993
REMARK INTRA:                  -1.145
REMARK UNBOUND:                -1.309
REMARK  Name = resultss/4CJN/ligands/lig_356_t2.pdb
REMARK  10 active torsions:
REMARK  status: ('A' for Active; 'I' for Inactive)
REMARK    1  A    between atoms: C1_1  and  C2_2
REMARK    2  A    between atoms: C2_2  and  C3_3
REMARK    3  A    between atoms: C6_6  and  N1_7
REMARK    4  A    between atoms: N1_7  and  C7_8
REMARK    5  A    between atoms: C7_8  and  O1_9
REMARK    6  A    between atoms: C8_10  and  N2_11
REMARK    7  A    between atoms: C10_13  and  C11_14
REMARK    8  A    between atoms: C11_14  and  O2_15
REMARK    9  A    between atoms: O2_15  and  C12_16
REMARK   10  A    between atoms: C15_19  and  C16_20
REMARK                            x       y       z     vdW  Elec       q    Type
REMARK                         _______ _______ _______ _____ _____    ______ ____
ROOT
ATOM      1  N2  UNL     1      26.337  -9.415 -36.078  0.00  0.00    +0.000 N 
ATOM      2  C9  UNL     1      25.929  -8.880 -37.243  0.00  0.00    +0.000 A 
ATOM      3  C10 UNL     1      26.697  -9.471 -38.220  0.00  0.00    +0.000 A 
ATOM      4  N5  UNL     1      27.547 -10.341 -37.633  0.00  0.00    +0.000 NA
ATOM      5  N6  UNL     1      27.293 -10.297 -36.331  0.00  0.00    +0.000 NA
ENDROOT
BRANCH   1   7
ATOM      6  C7  UNL     1      26.357  -8.378 -33.868  0.00  0.00    +0.000 C 
ATOM      7  C8  UNL     1      25.787  -9.190 -34.773  0.00  0.00    +0.000 C 
BRANCH   6   8
ATOM      8  N1  UNL     1      27.643  -7.782 -34.109  0.00  0.00    +0.000 N 
ATOM      9  H8  UNL     1      27.725  -7.079 -34.879  0.00  0.00    +0.000 HD
BRANCH   8  13
ATOM     10  C3  UNL     1      31.259  -9.174 -32.345  0.00  0.00    +0.000 A 
ATOM     11  C4  UNL     1      30.460 -10.033 -33.114  0.00  0.00    +0.000 A 
ATOM     12  C5  UNL     1      29.273  -9.567 -33.689  0.00  0.00    +0.000 A 
ATOM     13  C6  UNL     1      28.860  -8.239 -33.494  0.00  0.00    +0.000 A 
ATOM     14  C25 UNL     1      29.677  -7.370 -32.749  0.00  0.00    +0.000 A 
ATOM     15  C26 UNL     1      30.866  -7.836 -32.177  0.00  0.00    +0.000 A 
BRANCH  10  17
ATOM     16  C1  UNL     1      32.404 -11.101 -31.247  0.00  0.00    +0.000 C 
ATOM     17  C2  UNL     1      32.553  -9.670 -31.756  0.00  0.00    +0.000 C 
ENDBRANCH  10  17
ENDBRANCH   8  13
ENDBRANCH   6   8
BRANCH   6  18
ATOM     18  O1  UNL     1      25.720  -8.161 -32.644  0.00  0.00    +0.000 OA
ATOM     19  H9  UNL     1      24.810  -8.556 -32.438  0.00  0.00    +0.000 HD
ENDBRANCH   6  18
ENDBRANCH   1   7
BRANCH   3  20
ATOM     20  C11 UNL     1      26.635  -9.190 -39.690  0.00  0.00    +0.000 C 
BRANCH  20  21
ATOM     21  O2  UNL     1      27.844  -8.587 -40.151  0.00  0.00    +0.000 OA
BRANCH  21  22
ATOM     22  C12 UNL     1      28.742  -9.160 -41.066  0.00  0.00    +0.000 A 
ATOM     23  C13 UNL     1      28.855  -8.720 -42.398  0.00  0.00    +0.000 A 
ATOM     24  C14 UNL     1      29.741  -9.352 -43.277  0.00  0.00    +0.000 A 
ATOM     25  C15 UNL     1      30.535 -10.427 -42.843  0.00  0.00    +0.000 A 
ATOM     26  C23 UNL     1      30.439 -10.841 -41.504  0.00  0.00    +0.000 A 
ATOM     27  C24 UNL     1      29.549 -10.214 -40.628  0.00  0.00    +0.000 A 
BRANCH  25  28
ATOM     28  C16 UNL     1      31.460 -11.126 -43.769  0.00  0.00    +0.000 A 
ATOM     29  N3  UNL     1      31.477 -12.483 -43.905  0.00  0.00    +0.000 NA
ATOM     30  C17 UNL     1      32.417 -12.681 -44.846  0.00  0.00    +0.000 A 
ATOM     31  C18 UNL     1      32.846 -13.894 -45.381  0.00  0.00    +0.000 A 
ATOM     32  C19 UNL     1      33.843 -13.852 -46.375  0.00  0.00    +0.000 A 
ATOM     33  C20 UNL     1      34.378 -12.613 -46.802  0.00  0.00    +0.000 A 
ATOM     34  C21 UNL     1      33.920 -11.407 -46.239  0.00  0.00    +0.000 A 
ATOM     35  C22 UNL     1      32.934 -11.490 -45.258  0.00  0.00    +0.000 A 
ATOM     36  N4  UNL     1      32.342 -10.492 -44.587  0.00  0.00    +0.000 N 
ATOM     37  H20 UNL     1      32.508  -9.470 -44.711  0.00  0.00    +0.000 HD
ENDBRANCH  25  28
ENDBRANCH  21  22
ENDBRANCH  20  21
ENDBRANCH   3  20
TORSDOF 9
ENDMDL
MODEL 3
REMARK VINA RESULT:    -6.919      3.166      8.329
REMARK INTER + INTRA:         -11.666
REMARK INTER:                  -8.941
REMARK INTRA:                  -2.725
REMARK UNBOUND:                -1.309
REMARK  Name = resultss/4CJN/ligands/lig_356_t2.pdb
REMARK  10 active torsions:
REMARK  status: ('A' for Active; 'I' for Inactive)
REMARK    1  A    between atoms: C1_1  and  C2_2
REMARK    2  A    between atoms: C2_2  and  C3_3
REMARK    3  A    between atoms: C6_6  and  N1_7
REMARK    4  A    between atoms: N1_7  and  C7_8
REMARK    5  A    between atoms: C7_8  and  O1_9
REMARK    6  A    between atoms: C8_10  and  N2_11
REMARK    7  A    between atoms: C10_13  and  C11_14
REMARK    8  A    between atoms: C11_14  and  O2_15
REMARK    9  A    between atoms: O2_15  and  C12_16
REMARK   10  A    between atoms: C15_19  and  C16_20
REMARK                            x       y       z     vdW  Elec       q    Type
REMARK                         _______ _______ _______ _____ _____    ______ ____
ROOT
ATOM      1  N2  UNL     1      30.491  -9.280 -41.058  0.00  0.00    +0.000 N 
ATOM      2  C9  UNL     1      29.502  -8.596 -41.659  0.00  0.00    +0.000 A 
ATOM      3  C10 UNL     1      28.652  -9.543 -42.183  0.00  0.00    +0.000 A 
ATOM      4  N5  UNL     1      29.139 -10.768 -41.893  0.00  0.00    +0.000 NA
ATOM      5  N6  UNL     1      30.251 -10.577 -41.194  0.00  0.00    +0.000 NA
ENDROOT
BRANCH   1   7
ATOM      6  C7  UNL     1      31.946  -9.247 -39.097  0.00  0.00    +0.000 C 
ATOM      7  C8  UNL     1      31.580  -8.750 -40.290  0.00  0.00    +0.000 C 
BRANCH   6   8
ATOM      8  N1  UNL     1      31.170 -10.270 -38.449  0.00  0.00    +0.000 N 
ATOM      9  H8  UNL     1      31.230 -11.245 -38.820  0.00  0.00    +0.000 HD
BRANCH   8  13
ATOM     10  C3  UNL     1      28.240  -9.414 -35.481  0.00  0.00    +0.000 A 
ATOM     11  C4  UNL     1      29.609  -9.345 -35.177  0.00  0.00    +0.000 A 
ATOM     12  C5  UNL     1      30.564  -9.630 -36.159  0.00  0.00    +0.000 A 
ATOM     13  C6  UNL     1      30.168  -9.998 -37.454  0.00  0.00    +0.000 A 
ATOM     14  C25 UNL     1      28.796 -10.035 -37.766  0.00  0.00    +0.000 A 
ATOM     15  C26 UNL     1      27.841  -9.748 -36.785  0.00  0.00    +0.000 A 
BRANCH  10  17
ATOM     16  C1  UNL     1      26.131 -10.146 -34.367  0.00  0.00    +0.000 C 
ATOM     17  C2  UNL     1      27.215  -9.074 -34.432  0.00  0.00    +0.000 C 
ENDBRANCH  10  17
ENDBRANCH   8  13
ENDBRANCH   6   8
BRANCH   6  18
ATOM     18  O1  UNL     1      33.061  -8.716 -38.446  0.00  0.00    +0.000 OA
ATOM     19  H9  UNL     1      33.462  -9.158 -37.627  0.00  0.00    +0.000 HD
ENDBRANCH   6  18
ENDBRANCH   1   7
BRANCH   3  20
ATOM     20  C11 UNL     1      27.404  -9.279 -42.969  0.00  0.00    +0.000 C 
BRANCH  20  21
ATOM     21  O2  UNL     1      26.744  -8.100 -42.509  0.00  0.00    +0.000 OA
BRANCH  21  22
ATOM     22  C12 UNL     1      26.256  -7.896 -41.208  0.00  0.00    +0.000 A 
ATOM     23  C13 UNL     1      26.410  -6.678 -40.520  0.00  0.00    +0.000 A 
ATOM     24  C14 UNL     1      25.937  -6.542 -39.211  0.00  0.00    +0.000 A 
ATOM     25  C15 UNL     1      25.295  -7.614 -38.567  0.00  0.00    +0.000 A 
ATOM     26  C23 UNL     1      25.118  -8.817 -39.270  0.00  0.00    +0.000 A 
ATOM     27  C24 UNL     1      25.598  -8.954 -40.576  0.00  0.00    +0.000 A 
BRANCH  25  28
ATOM     28  C16 UNL     1      24.811  -7.496 -37.169  0.00  0.00    +0.000 A 
ATOM     29  N3  UNL     1      25.314  -6.581 -36.292  0.00  0.00    +0.000 NA
ATOM     30  C17 UNL     1      24.588  -6.795 -35.182  0.00  0.00    +0.000 A 
ATOM     31  C18 UNL     1      24.678  -6.128 -33.961  0.00  0.00    +0.000 A 
ATOM     32  C19 UNL     1      23.794  -6.520 -32.937  0.00  0.00    +0.000 A 
ATOM     33  C20 UNL     1      22.855  -7.557 -33.157  0.00  0.00    +0.000 A 
ATOM     34  C21 UNL     1      22.793  -8.207 -34.404  0.00  0.00    +0.000 A 
ATOM     35  C22 UNL     1      23.683  -7.792 -35.391  0.00  0.00    +0.000 A 
ATOM     36  N4  UNL     1      23.809  -8.251 -36.644  0.00  0.00    +0.000 N 
ATOM     37  H20 UNL     1      23.233  -8.989 -37.101  0.00  0.00    +0.000 HD
ENDBRANCH  25  28
ENDBRANCH  21  22
ENDBRANCH  20  21
ENDBRANCH   3  20
TORSDOF 9
ENDMDL
MODEL 4
REMARK VINA RESULT:    -6.893      4.266      7.908
REMARK INTER + INTRA:         -11.628
REMARK INTER:                 -10.445
REMARK INTRA:                  -1.184
REMARK UNBOUND:                -1.309
REMARK  Name = resultss/4CJN/ligands/lig_356_t2.pdb
REMARK  10 active torsions:
REMARK  status: ('A' for Active; 'I' for Inactive)
REMARK    1  A    between atoms: C1_1  and  C2_2
REMARK    2  A    between atoms: C2_2  and  C3_3
REMARK    3  A    between atoms: C6_6  and  N1_7
REMARK    4  A    between atoms: N1_7  and  C7_8
REMARK    5  A    between atoms: C7_8  and  O1_9
REMARK    6  A    between atoms: C8_10  and  N2_11
REMARK    7  A    between atoms: C10_13  and  C11_14
REMARK    8  A    between atoms: C11_14  and  O2_15
REMARK    9  A    between atoms: O2_15  and  C12_16
REMARK   10  A    between atoms: C15_19  and  C16_20
REMARK                            x       y       z     vdW  Elec       q    Type
REMARK                         _______ _______ _______ _____ _____    ______ ____
ROOT
ATOM      1  N2  UNL     1      24.722  -8.612 -40.804  0.00  0.00    +0.000 N 
ATOM      2  C9  UNL     1      25.560  -9.608 -40.467  0.00  0.00    +0.000 A 
ATOM      3  C10 UNL     1      26.425  -9.075 -39.538  0.00  0.00    +0.000 A 
ATOM      4  N5  UNL     1      26.097  -7.781 -39.335  0.00  0.00    +0.000 NA
ATOM      5  N6  UNL     1      25.047  -7.533 -40.107  0.00  0.00    +0.000 NA
ENDROOT
BRANCH   1   7
ATOM      6  C7  UNL     1      23.442  -7.907 -42.760  0.00  0.00    +0.000 C 
ATOM      7  C8  UNL     1      23.584  -8.685 -41.674  0.00  0.00    +0.000 C 
BRANCH   6   8
ATOM      8  N1  UNL     1      24.371  -6.847 -43.042  0.00  0.00    +0.000 N 
ATOM      9  H8  UNL     1      24.335  -5.987 -42.448  0.00  0.00    +0.000 HD
BRANCH   8  13
ATOM     10  C3  UNL     1      26.790  -6.705 -46.544  0.00  0.00    +0.000 A 
ATOM     11  C4  UNL     1      25.401  -6.880 -46.639  0.00  0.00    +0.000 A 
ATOM     12  C5  UNL     1      24.614  -6.926 -45.483  0.00  0.00    +0.000 A 
ATOM     13  C6  UNL     1      25.204  -6.811 -44.214  0.00  0.00    +0.000 A 
ATOM     14  C25 UNL     1      26.593  -6.603 -44.120  0.00  0.00    +0.000 A 
ATOM     15  C26 UNL     1      27.379  -6.553 -45.277  0.00  0.00    +0.000 A 
BRANCH  10  17
ATOM     16  C1  UNL     1      26.761  -6.315 -49.008  0.00  0.00    +0.000 C 
ATOM     17  C2  UNL     1      27.629  -6.621 -47.791  0.00  0.00    +0.000 C 
ENDBRANCH  10  17
ENDBRANCH   8  13
ENDBRANCH   6   8
BRANCH   6  18
ATOM     18  O1  UNL     1      22.336  -8.089 -43.593  0.00  0.00    +0.000 OA
ATOM     19  H9  UNL     1      21.826  -8.963 -43.620  0.00  0.00    +0.000 HD
ENDBRANCH   6  18
ENDBRANCH   1   7
BRANCH   3  20
ATOM     20  C11 UNL     1      27.563  -9.787 -38.872  0.00  0.00    +0.000 C 
BRANCH  20  21
ATOM     21  O2  UNL     1      28.820  -9.252 -39.287  0.00  0.00    +0.000 OA
BRANCH  21  22
ATOM     22  C12 UNL     1      29.640  -9.788 -40.292  0.00  0.00    +0.000 A 
ATOM     23  C13 UNL     1      31.008  -9.477 -40.404  0.00  0.00    +0.000 A 
ATOM     24  C14 UNL     1      31.770 -10.012 -41.447  0.00  0.00    +0.000 A 
ATOM     25  C15 UNL     1      31.186 -10.870 -42.394  0.00  0.00    +0.000 A 
ATOM     26  C23 UNL     1      29.827 -11.200 -42.260  0.00  0.00    +0.000 A 
ATOM     27  C24 UNL     1      29.064 -10.660 -41.220  0.00  0.00    +0.000 A 
BRANCH  25  28
ATOM     28  C16 UNL     1      31.973 -11.424 -43.523  0.00  0.00    +0.000 A 
ATOM     29  N3  UNL     1      32.089 -12.764 -43.751  0.00  0.00    +0.000 NA
ATOM     30  C17 UNL     1      32.842 -12.817 -44.864  0.00  0.00    +0.000 A 
ATOM     31  C18 UNL     1      33.269 -13.951 -45.551  0.00  0.00    +0.000 A 
ATOM     32  C19 UNL     1      34.045 -13.758 -46.711  0.00  0.00    +0.000 A 
ATOM     33  C20 UNL     1      34.369 -12.451 -47.147  0.00  0.00    +0.000 A 
ATOM     34  C21 UNL     1      33.919 -11.328 -46.427  0.00  0.00    +0.000 A 
ATOM     35  C22 UNL     1      33.155 -11.560 -45.286  0.00  0.00    +0.000 A 
ATOM     36  N4  UNL     1      32.615 -10.663 -44.449  0.00  0.00    +0.000 N 
ATOM     37  H20 UNL     1      32.658  -9.624 -44.533  0.00  0.00    +0.000 HD
ENDBRANCH  25  28
ENDBRANCH  21  22
ENDBRANCH  20  21
ENDBRANCH   3  20
TORSDOF 9
ENDMDL
MODEL 5
REMARK VINA RESULT:    -6.657      2.425      8.729
REMARK INTER + INTRA:         -11.274
REMARK INTER:                 -10.057
REMARK INTRA:                  -1.217
REMARK UNBOUND:                -1.309
REMARK  Name = resultss/4CJN/ligands/lig_356_t2.pdb
REMARK  10 active torsions:
REMARK  status: ('A' for Active; 'I' for Inactive)
REMARK    1  A    between atoms: C1_1  and  C2_2
REMARK    2  A    between atoms: C2_2  and  C3_3
REMARK    3  A    between atoms: C6_6  and  N1_7
REMARK    4  A    between atoms: N1_7  and  C7_8
REMARK    5  A    between atoms: C7_8  and  O1_9
REMARK    6  A    between atoms: C8_10  and  N2_11
REMARK    7  A    between atoms: C10_13  and  C11_14
REMARK    8  A    between atoms: C11_14  and  O2_15
REMARK    9  A    between atoms: O2_15  and  C12_16
REMARK   10  A    between atoms: C15_19  and  C16_20
REMARK                            x       y       z     vdW  Elec       q    Type
REMARK                         _______ _______ _______ _____ _____    ______ ____
ROOT
ATOM      1  N2  UNL     1      24.771  -8.103 -39.077  0.00  0.00    +0.000 N 
ATOM      2  C9  UNL     1      24.642  -8.419 -37.776  0.00  0.00    +0.000 A 
ATOM      3  C10 UNL     1      24.861  -7.251 -37.080  0.00  0.00    +0.000 A 
ATOM      4  N5  UNL     1      25.117  -6.263 -37.965  0.00  0.00    +0.000 NA
ATOM      5  N6  UNL     1      25.039  -6.808 -39.172  0.00  0.00    +0.000 NA
ENDROOT
BRANCH   1   7
ATOM      6  C7  UNL     1      25.522  -9.283 -41.078  0.00  0.00    +0.000 C 
ATOM      7  C8  UNL     1      24.551  -8.955 -40.210  0.00  0.00    +0.000 C 
BRANCH   6   8
ATOM      8  N1  UNL     1      26.825  -8.682 -40.999  0.00  0.00    +0.000 N 
ATOM      9  H8  UNL     1      26.895  -7.698 -40.651  0.00  0.00    +0.000 HD
BRANCH   8  13
ATOM     10  C3  UNL     1      30.307 -10.499 -42.643  0.00  0.00    +0.000 A 
ATOM     11  C4  UNL     1      29.674 -11.051 -41.520  0.00  0.00    +0.000 A 
ATOM     12  C5  UNL     1      28.531 -10.446 -40.985  0.00  0.00    +0.000 A 
ATOM     13  C6  UNL     1      28.010  -9.274 -41.559  0.00  0.00    +0.000 A 
ATOM     14  C25 UNL     1      28.627  -8.740 -42.705  0.00  0.00    +0.000 A 
ATOM     15  C26 UNL     1      29.768  -9.347 -43.240  0.00  0.00    +0.000 A 
BRANCH  10  17
ATOM     16  C1  UNL     1      31.333 -12.686 -43.268  0.00  0.00    +0.000 C 
ATOM     17  C2  UNL     1      31.517 -11.171 -43.237  0.00  0.00    +0.000 C 
ENDBRANCH  10  17
ENDBRANCH   8  13
ENDBRANCH   6   8
BRANCH   6  18
ATOM     18  O1  UNL     1      25.240 -10.174 -42.116  0.00  0.00    +0.000 OA
ATOM     19  H9  UNL     1      25.159 -11.171 -41.956  0.00  0.00    +0.000 HD
ENDBRANCH   6  18
ENDBRANCH   1   7
BRANCH   3  20
ATOM     20  C11 UNL     1      24.849  -7.089 -35.591  0.00  0.00    +0.000 C 
BRANCH  20  21
ATOM     21  O2  UNL     1      25.229  -8.300 -34.938  0.00  0.00    +0.000 OA
BRANCH  21  22
ATOM     22  C12 UNL     1      26.515  -8.599 -34.461  0.00  0.00    +0.000 A 
ATOM     23  C13 UNL     1      27.254  -9.708 -34.911  0.00  0.00    +0.000 A 
ATOM     24  C14 UNL     1      28.517  -9.980 -34.375  0.00  0.00    +0.000 A 
ATOM     25  C15 UNL     1      29.069  -9.147 -33.386  0.00  0.00    +0.000 A 
ATOM     26  C23 UNL     1      28.339  -8.024 -32.963  0.00  0.00    +0.000 A 
ATOM     27  C24 UNL     1      27.073  -7.757 -33.495  0.00  0.00    +0.000 A 
BRANCH  25  28
ATOM     28  C16 UNL     1      30.395  -9.436 -32.787  0.00  0.00    +0.000 A 
ATOM     29  N3  UNL     1      31.202  -8.459 -32.282  0.00  0.00    +0.000 NA
ATOM     30  C17 UNL     1      32.261  -9.149 -31.823  0.00  0.00    +0.000 A 
ATOM     31  C18 UNL     1      33.399  -8.646 -31.196  0.00  0.00    +0.000 A 
ATOM     32  C19 UNL     1      34.380  -9.571 -30.785  0.00  0.00    +0.000 A 
ATOM     33  C20 UNL     1      34.198 -10.957 -31.011  0.00  0.00    +0.000 A 
ATOM     34  C21 UNL     1      33.034 -11.428 -31.647  0.00  0.00    +0.000 A 
ATOM     35  C22 UNL     1      32.088 -10.483 -32.039  0.00  0.00    +0.000 A 
ATOM     36  N4  UNL     1      30.913 -10.686 -32.650  0.00  0.00    +0.000 N 
ATOM     37  H20 UNL     1      30.495 -11.604 -32.913  0.00  0.00    +0.000 HD
ENDBRANCH  25  28
ENDBRANCH  21  22
ENDBRANCH  20  21
ENDBRANCH   3  20
TORSDOF 9
ENDMDL
MODEL 6
REMARK VINA RESULT:    -6.620      1.855      2.357
REMARK INTER + INTRA:         -11.219
REMARK INTER:                  -8.978
REMARK INTRA:                  -2.241
REMARK UNBOUND:                -1.309
REMARK  Name = resultss/4CJN/ligands/lig_356_t2.pdb
REMARK  10 active torsions:
REMARK  status: ('A' for Active; 'I' for Inactive)
REMARK    1  A    between atoms: C1_1  and  C2_2
REMARK    2  A    between atoms: C2_2  and  C3_3
REMARK    3  A    between atoms: C6_6  and  N1_7
REMARK    4  A    between atoms: N1_7  and  C7_8
REMARK    5  A    between atoms: C7_8  and  O1_9
REMARK    6  A    between atoms: C8_10  and  N2_11
REMARK    7  A    between atoms: C10_13  and  C11_14
REMARK    8  A    between atoms: C11_14  and  O2_15
REMARK    9  A    between atoms: O2_15  and  C12_16
REMARK   10  A    between atoms: C15_19  and  C16_20
REMARK                            x       y       z     vdW  Elec       q    Type
REMARK                         _______ _______ _______ _____ _____    ______ ____
ROOT
ATOM      1  N2  UNL     1      25.111  -7.993 -35.707  0.00  0.00    +0.000 N 
ATOM      2  C9  UNL     1      25.272  -8.877 -36.708  0.00  0.00    +0.000 A 
ATOM      3  C10 UNL     1      24.976  -8.194 -37.866  0.00  0.00    +0.000 A 
ATOM      4  N5  UNL     1      24.643  -6.925 -37.545  0.00  0.00    +0.000 NA
ATOM      5  N6  UNL     1      24.750  -6.829 -36.226  0.00  0.00    +0.000 NA
ENDROOT
BRANCH   1   7
ATOM      6  C7  UNL     1      26.487  -7.730 -33.708  0.00  0.00    +0.000 C 
ATOM      7  C8  UNL     1      25.381  -8.193 -34.313  0.00  0.00    +0.000 C 
BRANCH   6   8
ATOM      8  N1  UNL     1      27.546  -7.114 -34.462  0.00  0.00    +0.000 N 
ATOM      9  H8  UNL     1      27.555  -6.072 -34.539  0.00  0.00    +0.000 HD
BRANCH   8  13
ATOM     10  C3  UNL     1      30.304  -9.233 -36.917  0.00  0.00    +0.000 A 
ATOM     11  C4  UNL     1      29.619  -8.113 -37.411  0.00  0.00    +0.000 A 
ATOM     12  C5  UNL     1      28.714  -7.423 -36.597  0.00  0.00    +0.000 A 
ATOM     13  C6  UNL     1      28.470  -7.850 -35.282  0.00  0.00    +0.000 A 
ATOM     14  C25 UNL     1      29.180  -8.954 -34.777  0.00  0.00    +0.000 A 
ATOM     15  C26 UNL     1      30.088  -9.641 -35.590  0.00  0.00    +0.000 A 
BRANCH  10  17
ATOM     16  C1  UNL     1      31.885  -9.011 -38.835  0.00  0.00    +0.000 C 
ATOM     17  C2  UNL     1      31.304  -9.952 -37.784  0.00  0.00    +0.000 C 
ENDBRANCH  10  17
ENDBRANCH   8  13
ENDBRANCH   6   8
BRANCH   6  18
ATOM     18  O1  UNL     1      26.641  -7.908 -32.331  0.00  0.00    +0.000 OA
ATOM     19  H9  UNL     1      26.909  -7.146 -31.720  0.00  0.00    +0.000 HD
ENDBRANCH   6  18
ENDBRANCH   1   7
BRANCH   3  20
ATOM     20  C11 UNL     1      24.989  -8.753 -39.256  0.00  0.00    +0.000 C 
BRANCH  20  21
ATOM     21  O2  UNL     1      26.011  -8.147 -40.046  0.00  0.00    +0.000 OA
BRANCH  21  22
ATOM     22  C12 UNL     1      27.073  -8.827 -40.663  0.00  0.00    +0.000 A 
ATOM     23  C13 UNL     1      27.848  -9.794 -39.996  0.00  0.00    +0.000 A 
ATOM     24  C14 UNL     1      28.918 -10.414 -40.649  0.00  0.00    +0.000 A 
ATOM     25  C15 UNL     1      29.231 -10.088 -41.979  0.00  0.00    +0.000 A 
ATOM     26  C23 UNL     1      28.435  -9.144 -42.649  0.00  0.00    +0.000 A 
ATOM     27  C24 UNL     1      27.370  -8.519 -41.994  0.00  0.00    +0.000 A 
BRANCH  25  28
ATOM     28  C16 UNL     1      30.380 -10.716 -42.678  0.00  0.00    +0.000 A 
ATOM     29  N3  UNL     1      31.011 -10.125 -43.732  0.00  0.00    +0.000 NA
ATOM     30  C17 UNL     1      31.987 -11.000 -44.030  0.00  0.00    +0.000 A 
ATOM     31  C18 UNL     1      32.949 -10.898 -45.033  0.00  0.00    +0.000 A 
ATOM     32  C19 UNL     1      33.887 -11.942 -45.147  0.00  0.00    +0.000 A 
ATOM     33  C20 UNL     1      33.839 -13.048 -44.265  0.00  0.00    +0.000 A 
ATOM     34  C21 UNL     1      32.853 -13.118 -43.263  0.00  0.00    +0.000 A 
ATOM     35  C22 UNL     1      31.943 -12.066 -43.182  0.00  0.00    +0.000 A 
ATOM     36  N4  UNL     1      30.931 -11.907 -42.319  0.00  0.00    +0.000 N 
ATOM     37  H20 UNL     1      30.671 -12.543 -41.535  0.00  0.00    +0.000 HD
ENDBRANCH  25  28
ENDBRANCH  21  22
ENDBRANCH  20  21
ENDBRANCH   3  20
TORSDOF 9
ENDMDL
MODEL 7
REMARK VINA RESULT:    -6.408      3.098      7.736
REMARK INTER + INTRA:         -10.901
REMARK INTER:                  -7.922
REMARK INTRA:                  -2.978
REMARK UNBOUND:                -1.309
REMARK  Name = resultss/4CJN/ligands/lig_356_t2.pdb
REMARK  10 active torsions:
REMARK  status: ('A' for Active; 'I' for Inactive)
REMARK    1  A    between atoms: C1_1  and  C2_2
REMARK    2  A    between atoms: C2_2  and  C3_3
REMARK    3  A    between atoms: C6_6  and  N1_7
REMARK    4  A    between atoms: N1_7  and  C7_8
REMARK    5  A    between atoms: C7_8  and  O1_9
REMARK    6  A    between atoms: C8_10  and  N2_11
REMARK    7  A    between atoms: C10_13  and  C11_14
REMARK    8  A    between atoms: C11_14  and  O2_15
REMARK    9  A    between atoms: O2_15  and  C12_16
REMARK   10  A    between atoms: C15_19  and  C16_20
REMARK                            x       y       z     vdW  Elec       q    Type
REMARK                         _______ _______ _______ _____ _____    ______ ____
ROOT
ATOM      1  N2  UNL     1      28.480  -8.756 -42.702  0.00  0.00    +0.000 N 
ATOM      2  C9  UNL     1      27.247  -9.191 -43.018  0.00  0.00    +0.000 A 
ATOM      3  C10 UNL     1      26.605  -8.118 -43.594  0.00  0.00    +0.000 A 
ATOM      4  N5  UNL     1      27.453  -7.067 -43.614  0.00  0.00    +0.000 NA
ATOM      5  N6  UNL     1      28.591  -7.490 -43.079  0.00  0.00    +0.000 NA
ENDROOT
BRANCH   1   7
ATOM      6  C7  UNL     1      29.828  -9.581 -40.841  0.00  0.00    +0.000 C 
ATOM      7  C8  UNL     1      29.563  -9.522 -42.156  0.00  0.00    +0.000 C 
BRANCH   6   8
ATOM      8  N1  UNL     1      29.114  -8.762 -39.900  0.00  0.00    +0.000 N 
ATOM      9  H8  UNL     1      28.820  -7.805 -40.202  0.00  0.00    +0.000 HD
BRANCH   8  13
ATOM     10  C3  UNL     1      28.666  -9.689 -35.769  0.00  0.00    +0.000 A 
ATOM     11  C4  UNL     1      29.636  -8.770 -36.196  0.00  0.00    +0.000 A 
ATOM     12  C5  UNL     1      29.777  -8.472 -37.555  0.00  0.00    +0.000 A 
ATOM     13  C6  UNL     1      28.959  -9.097 -38.511  0.00  0.00    +0.000 A 
ATOM     14  C25 UNL     1      27.965  -9.995 -38.079  0.00  0.00    +0.000 A 
ATOM     15  C26 UNL     1      27.823 -10.290 -36.719  0.00  0.00    +0.000 A 
BRANCH  10  17
ATOM     16  C1  UNL     1      29.583  -9.295 -33.482  0.00  0.00    +0.000 C 
ATOM     17  C2  UNL     1      28.495  -9.982 -34.302  0.00  0.00    +0.000 C 
ENDBRANCH  10  17
ENDBRANCH   8  13
ENDBRANCH   6   8
BRANCH   6  18
ATOM     18  O1  UNL     1      30.860 -10.405 -40.387  0.00  0.00    +0.000 OA
ATOM     19  H9  UNL     1      30.817 -11.413 -40.474  0.00  0.00    +0.000 HD
ENDBRANCH   6  18
ENDBRANCH   1   7
BRANCH   3  20
ATOM     20  C11 UNL     1      25.194  -8.093 -44.098  0.00  0.00    +0.000 C 
BRANCH  20  21
ATOM     21  O2  UNL     1      24.316  -7.500 -43.141  0.00  0.00    +0.000 OA
BRANCH  21  22
ATOM     22  C12 UNL     1      24.518  -7.485 -41.752  0.00  0.00    +0.000 A 
ATOM     23  C13 UNL     1      24.810  -6.308 -41.038  0.00  0.00    +0.000 A 
ATOM     24  C14 UNL     1      25.038  -6.357 -39.659  0.00  0.00    +0.000 A 
ATOM     25  C15 UNL     1      24.971  -7.577 -38.965  0.00  0.00    +0.000 A 
ATOM     26  C23 UNL     1      24.649  -8.744 -39.679  0.00  0.00    +0.000 A 
ATOM     27  C24 UNL     1      24.428  -8.695 -41.059  0.00  0.00    +0.000 A 
BRANCH  25  28
ATOM     28  C16 UNL     1      25.237  -7.651 -37.507  0.00  0.00    +0.000 A 
ATOM     29  N3  UNL     1      26.105  -6.811 -36.875  0.00  0.00    +0.000 NA
ATOM     30  C17 UNL     1      26.019  -7.198 -35.591  0.00  0.00    +0.000 A 
ATOM     31  C18 UNL     1      26.697  -6.670 -34.493  0.00  0.00    +0.000 A 
ATOM     32  C19 UNL     1      26.432  -7.234 -33.230  0.00  0.00    +0.000 A 
ATOM     33  C20 UNL     1      25.508  -8.298 -33.099  0.00  0.00    +0.000 A 
ATOM     34  C21 UNL     1      24.841  -8.805 -34.230  0.00  0.00    +0.000 A 
ATOM     35  C22 UNL     1      25.130  -8.222 -35.462  0.00  0.00    +0.000 A 
ATOM     36  N4  UNL     1      24.624  -8.526 -36.665  0.00  0.00    +0.000 N 
ATOM     37  H20 UNL     1      23.899  -9.245 -36.876  0.00  0.00    +0.000 HD
ENDBRANCH  25  28
ENDBRANCH  21  22
ENDBRANCH  20  21
ENDBRANCH   3  20
TORSDOF 9
ENDMDL
MODEL 8
REMARK VINA RESULT:    -6.139      2.981      8.117
REMARK INTER + INTRA:         -10.499
REMARK INTER:                  -8.313
REMARK INTRA:                  -2.186
REMARK UNBOUND:                -1.309
REMARK  Name = resultss/4CJN/ligands/lig_356_t2.pdb
REMARK  10 active torsions:
REMARK  status: ('A' for Active; 'I' for Inactive)
REMARK    1  A    between atoms: C1_1  and  C2_2
REMARK    2  A    between atoms: C2_2  and  C3_3
REMARK    3  A    between atoms: C6_6  and  N1_7
REMARK    4  A    between atoms: N1_7  and  C7_8
REMARK    5  A    between atoms: C7_8  and  O1_9
REMARK    6  A    between atoms: C8_10  and  N2_11
REMARK    7  A    between atoms: C10_13  and  C11_14
REMARK    8  A    between atoms: C11_14  and  O2_15
REMARK    9  A    between atoms: O2_15  and  C12_16
REMARK   10  A    between atoms: C15_19  and  C16_20
REMARK                            x       y       z     vdW  Elec       q    Type
REMARK                         _______ _______ _______ _____ _____    ______ ____
ROOT
ATOM      1  N2  UNL     1      25.685  -8.047 -41.274  0.00  0.00    +0.000 N 
ATOM      2  C9  UNL     1      25.761  -7.393 -40.102  0.00  0.00    +0.000 A 
ATOM      3  C10 UNL     1      25.094  -8.178 -39.188  0.00  0.00    +0.000 A 
ATOM      4  N5  UNL     1      24.632  -9.278 -39.821  0.00  0.00    +0.000 NA
ATOM      5  N6  UNL     1      25.021  -9.178 -41.085  0.00  0.00    +0.000 NA
ENDROOT
BRANCH   1   7
ATOM      6  C7  UNL     1      27.218  -8.447 -43.133  0.00  0.00    +0.000 C 
ATOM      7  C8  UNL     1      26.300  -7.684 -42.519  0.00  0.00    +0.000 C 
BRANCH   6   8
ATOM      8  N1  UNL     1      27.747  -9.626 -42.502  0.00  0.00    +0.000 N 
ATOM      9  H8  UNL     1      27.173 -10.500 -42.529  0.00  0.00    +0.000 HD
BRANCH   8  13
ATOM     10  C3  UNL     1      31.243  -9.582 -40.072  0.00  0.00    +0.000 A 
ATOM     11  C4  UNL     1      31.342  -9.667 -41.469  0.00  0.00    +0.000 A 
ATOM     12  C5  UNL     1      30.188  -9.682 -42.260  0.00  0.00    +0.000 A 
ATOM     13  C6  UNL     1      28.917  -9.624 -41.666  0.00  0.00    +0.000 A 
ATOM     14  C25 UNL     1      28.819  -9.507 -40.267  0.00  0.00    +0.000 A 
ATOM     15  C26 UNL     1      29.973  -9.488 -39.478  0.00  0.00    +0.000 A 
BRANCH  10  17
ATOM     16  C1  UNL     1      32.183  -9.941 -37.789  0.00  0.00    +0.000 C 
ATOM     17  C2  UNL     1      32.488  -9.531 -39.227  0.00  0.00    +0.000 C 
ENDBRANCH  10  17
ENDBRANCH   8  13
ENDBRANCH   6   8
BRANCH   6  18
ATOM     18  O1  UNL     1      27.716  -8.054 -44.376  0.00  0.00    +0.000 OA
ATOM     19  H9  UNL     1      27.931  -8.726 -45.103  0.00  0.00    +0.000 HD
ENDBRANCH   6  18
ENDBRANCH   1   7
BRANCH   3  20
ATOM     20  C11 UNL     1      24.882  -7.868 -37.737  0.00  0.00    +0.000 C 
BRANCH  20  21
ATOM     21  O2  UNL     1      25.175  -9.002 -36.921  0.00  0.00    +0.000 OA
BRANCH  21  22
ATOM     22  C12 UNL     1      26.343  -9.179 -36.163  0.00  0.00    +0.000 A 
ATOM     23  C13 UNL     1      26.428  -8.827 -34.803  0.00  0.00    +0.000 A 
ATOM     24  C14 UNL     1      27.629  -8.991 -34.105  0.00  0.00    +0.000 A 
ATOM     25  C15 UNL     1      28.764  -9.516 -34.747  0.00  0.00    +0.000 A 
ATOM     26  C23 UNL     1      28.663  -9.894 -36.096  0.00  0.00    +0.000 A 
ATOM     27  C24 UNL     1      27.464  -9.723 -36.795  0.00  0.00    +0.000 A 
BRANCH  25  28
ATOM     28  C16 UNL     1      30.053  -9.671 -34.030  0.00  0.00    +0.000 A 
ATOM     29  N3  UNL     1      31.224  -9.155 -34.502  0.00  0.00    +0.000 NA
ATOM     30  C17 UNL     1      32.110  -9.492 -33.549  0.00  0.00    +0.000 A 
ATOM     31  C18 UNL     1      33.474  -9.210 -33.513  0.00  0.00    +0.000 A 
ATOM     32  C19 UNL     1      34.204  -9.658 -32.395  0.00  0.00    +0.000 A 
ATOM     33  C20 UNL     1      33.558 -10.368 -31.355  0.00  0.00    +0.000 A 
ATOM     34  C21 UNL     1      32.178 -10.635 -31.425  0.00  0.00    +0.000 A 
ATOM     35  C22 UNL     1      31.491 -10.176 -32.546  0.00  0.00    +0.000 A 
ATOM     36  N4  UNL     1      30.187 -10.302 -32.832  0.00  0.00    +0.000 N 
ATOM     37  H20 UNL     1      29.457 -10.749 -32.238  0.00  0.00    +0.000 HD
ENDBRANCH  25  28
ENDBRANCH  21  22
ENDBRANCH  20  21
ENDBRANCH   3  20
TORSDOF 9
ENDMDL
MODEL 9
REMARK VINA RESULT:    -5.985      3.256      7.110
REMARK INTER + INTRA:         -10.269
REMARK INTER:                  -7.397
REMARK INTRA:                  -2.872
REMARK UNBOUND:                -1.309
REMARK  Name = resultss/4CJN/ligands/lig_356_t2.pdb
REMARK  10 active torsions:
REMARK  status: ('A' for Active; 'I' for Inactive)
REMARK    1  A    between atoms: C1_1  and  C2_2
REMARK    2  A    between atoms: C2_2  and  C3_3
REMARK    3  A    between atoms: C6_6  and  N1_7
REMARK    4  A    between atoms: N1_7  and  C7_8
REMARK    5  A    between atoms: C7_8  and  O1_9
REMARK    6  A    between atoms: C8_10  and  N2_11
REMARK    7  A    between atoms: C10_13  and  C11_14
REMARK    8  A    between atoms: C11_14  and  O2_15
REMARK    9  A    between atoms: O2_15  and  C12_16
REMARK   10  A    between atoms: C15_19  and  C16_20
REMARK                            x       y       z     vdW  Elec       q    Type
REMARK                         _______ _______ _______ _____ _____    ______ ____
ROOT
ATOM      1  N2  UNL     1      26.593  -8.618 -39.952  0.00  0.00    +0.000 N 
ATOM      2  C9  UNL     1      27.816  -8.166 -40.280  0.00  0.00    +0.000 A 
ATOM      3  C10 UNL     1      28.490  -9.245 -40.807  0.00  0.00    +0.000 A 
ATOM      4  N5  UNL     1      27.669 -10.317 -40.786  0.00  0.00    +0.000 NA
ATOM      5  N6  UNL     1      26.517  -9.902 -40.276  0.00  0.00    +0.000 NA
ENDROOT
BRANCH   1   7
ATOM      6  C7  UNL     1      24.892  -8.125 -38.271  0.00  0.00    +0.000 C 
ATOM      7  C8  UNL     1      25.487  -7.859 -39.446  0.00  0.00    +0.000 C 
BRANCH   6   8
ATOM      8  N1  UNL     1      25.248  -9.288 -37.504  0.00  0.00    +0.000 N 
ATOM      9  H8  UNL     1      24.689 -10.161 -37.642  0.00  0.00    +0.000 HD
BRANCH   8  13
ATOM     10  C3  UNL     1      27.985  -9.244 -34.243  0.00  0.00    +0.000 A 
ATOM     11  C4  UNL     1      26.658  -8.822 -34.070  0.00  0.00    +0.000 A 
ATOM     12  C5  UNL     1      25.766  -8.839 -35.148  0.00  0.00    +0.000 A 
ATOM     13  C6  UNL     1      26.189  -9.267 -36.417  0.00  0.00    +0.000 A 
ATOM     14  C25 UNL     1      27.511  -9.720 -36.582  0.00  0.00    +0.000 A 
ATOM     15  C26 UNL     1      28.401  -9.706 -35.503  0.00  0.00    +0.000 A 
BRANCH  10  17
ATOM     16  C1  UNL     1      29.098  -7.855 -32.494  0.00  0.00    +0.000 C 
ATOM     17  C2  UNL     1      28.932  -9.258 -33.073  0.00  0.00    +0.000 C 
ENDBRANCH  10  17
ENDBRANCH   8  13
ENDBRANCH   6   8
BRANCH   6  18
ATOM     18  O1  UNL     1      23.866  -7.294 -37.819  0.00  0.00    +0.000 OA
ATOM     19  H9  UNL     1      24.035  -6.330 -37.556  0.00  0.00    +0.000 HD
ENDBRANCH   6  18
ENDBRANCH   1   7
BRANCH   3  20
ATOM     20  C11 UNL     1      29.904  -9.255 -41.302  0.00  0.00    +0.000 C 
BRANCH  20  21
ATOM     21  O2  UNL     1      30.709  -8.323 -40.579  0.00  0.00    +0.000 OA
BRANCH  21  22
ATOM     22  C12 UNL     1      30.993  -8.387 -39.206  0.00  0.00    +0.000 A 
ATOM     23  C13 UNL     1      30.916  -7.265 -38.360  0.00  0.00    +0.000 A 
ATOM     24  C14 UNL     1      31.245  -7.378 -37.005  0.00  0.00    +0.000 A 
ATOM     25  C15 UNL     1      31.651  -8.611 -36.468  0.00  0.00    +0.000 A 
ATOM     26  C23 UNL     1      31.698  -9.734 -37.311  0.00  0.00    +0.000 A 
ATOM     27  C24 UNL     1      31.374  -9.619 -38.667  0.00  0.00    +0.000 A 
BRANCH  25  28
ATOM     28  C16 UNL     1      32.031  -8.743 -35.040  0.00  0.00    +0.000 A 
ATOM     29  N3  UNL     1      32.139  -9.951 -34.416  0.00  0.00    +0.000 NA
ATOM     30  C17 UNL     1      32.527  -9.616 -33.173  0.00  0.00    +0.000 A 
ATOM     31  C18 UNL     1      32.793 -10.469 -32.104  0.00  0.00    +0.000 A 
ATOM     32  C19 UNL     1      33.202  -9.885 -30.889  0.00  0.00    +0.000 A 
ATOM     33  C20 UNL     1      33.330  -8.479 -30.777  0.00  0.00    +0.000 A 
ATOM     34  C21 UNL     1      33.052  -7.649 -31.880  0.00  0.00    +0.000 A 
ATOM     35  C22 UNL     1      32.651  -8.264 -33.063  0.00  0.00    +0.000 A 
ATOM     36  N4  UNL     1      32.340  -7.692 -34.234  0.00  0.00    +0.000 N 
ATOM     37  H20 UNL     1      32.374  -6.675 -34.462  0.00  0.00    +0.000 HD
ENDBRANCH  25  28
ENDBRANCH  21  22
ENDBRANCH  20  21
ENDBRANCH   3  20
TORSDOF 9
ENDMDL
