MODEL 1
REMARK VINA RESULT:    -4.906      0.000      0.000
REMARK INTER + INTRA:          -8.955
REMARK INTER:                  -7.917
REMARK INTRA:                  -1.038
REMARK UNBOUND:                -1.038
REMARK  Name = resultss/4CJN/ligands/lig_193_t0.pdb
REMARK  16 active torsions:
REMARK  status: ('A' for Active; 'I' for Inactive)
REMARK    1  A    between atoms: C1_1  and  C2_2
REMARK    2  A    between atoms: C2_2  and  C3_3
REMARK    3  A    between atoms: C2_2  and  C4_4
REMARK    4  A    between atoms: C2_2  and  C5_5
REMARK    5  A    between atoms: C5_5  and  O1_6
REMARK    6  A    between atoms: O1_6  and  C6_7
REMARK    7  A    between atoms: C6_7  and  C7_8
REMARK    8  A    between atoms: C6_7  and  C8_10
REMARK    9  A    between atoms: C7_8  and  O2_9
REMARK   10  A    between atoms: C8_10  and  O3_11
REMARK   11  A    between atoms: C8_10  and  C9_12
REMARK   12  A    between atoms: C9_12  and  S1_13
REMARK   13  A    between atoms: C11_15  and  O4_16
REMARK   14  A    between atoms: C12_17  and  O5_18
REMARK   15  A    between atoms: C13_19  and  C14_20
REMARK   16  A    between atoms: C14_20  and  O6_21
REMARK                            x       y       z     vdW  Elec       q    Type
REMARK                         _______ _______ _______ _____ _____    ______ ____
ROOT
ATOM      1  C9  UNL     1      27.504  -8.082 -37.675  0.00  0.00    +0.000 C 
ENDROOT
BRANCH   1   2
ATOM      2  S1  UNL     1      27.381  -8.343 -39.440  0.00  0.00    +0.000 S 
ATOM      3  C10 UNL     1      26.358  -7.127 -40.209  0.00  0.00    +0.000 C 
ATOM      4  C11 UNL     1      25.527  -7.883 -41.248  0.00  0.00    +0.000 C 
ATOM      5  C12 UNL     1      25.268  -9.332 -40.753  0.00  0.00    +0.000 C 
ATOM      6  C13 UNL     1      26.409  -9.781 -39.805  0.00  0.00    +0.000 C 
ATOM      7 CL1  UNL     1      27.668  -6.445 -38.058  0.00  0.00    +0.000 Cl
BRANCH   4   8
ATOM      8  O4  UNL     1      26.165  -7.887 -42.503  0.00  0.00    +0.000 OA
ATOM      9  H23 UNL     1      26.828  -7.151 -42.513  0.00  0.00    +0.000 HD
ENDBRANCH   4   8
BRANCH   5  10
ATOM     10  O5  UNL     1      24.051  -9.376 -40.052  0.00  0.00    +0.000 OA
ATOM     11  H25 UNL     1      24.124  -8.725 -39.305  0.00  0.00    +0.000 HD
ENDBRANCH   5  10
BRANCH   6  12
ATOM     12  C14 UNL     1      27.283 -10.902 -40.383  0.00  0.00    +0.000 C 
BRANCH  12  13
ATOM     13  O6  UNL     1      28.391 -11.150 -39.565  0.00  0.00    +0.000 OA
ATOM     14  H29 UNL     1      28.097 -11.824 -38.897  0.00  0.00    +0.000 HD
ENDBRANCH  12  13
ENDBRANCH   6  12
ENDBRANCH   1   2
BRANCH   1  15
ATOM     15  C8  UNL     1      26.778  -9.156 -36.832  0.00  0.00    +0.000 C 
BRANCH  15  16
ATOM     16  O3  UNL     1      27.458 -10.389 -36.845  0.00  0.00    +0.000 OA
ATOM     17  H17 UNL     1      27.873 -10.526 -35.955  0.00  0.00    +0.000 HD
ENDBRANCH  15  16
BRANCH  15  18
ATOM     18  C6  UNL     1      26.398  -8.694 -35.390  0.00  0.00    +0.000 C 
BRANCH  18  19
ATOM     19  O1  UNL     1      25.018  -8.366 -35.357  0.00  0.00    +0.000 OA
BRANCH  19  20
ATOM     20  C5  UNL     1      24.749  -7.392 -34.366  0.00  0.00    +0.000 C 
BRANCH  20  22
ATOM     21  C1  UNL     1      22.315  -7.856 -34.869  0.00  0.00    +0.000 C 
ATOM     22  C2  UNL     1      23.350  -7.624 -33.750  0.00  0.00    +0.000 C 
ATOM     23  C3  UNL     1      23.381  -8.848 -32.814  0.00  0.00    +0.000 C 
ATOM     24  C4  UNL     1      22.943  -6.379 -32.938  0.00  0.00    +0.000 C 
ENDBRANCH  20  22
ENDBRANCH  19  20
ENDBRANCH  18  19
BRANCH  18  25
ATOM     25  C7  UNL     1      26.644  -9.773 -34.319  0.00  0.00    +0.000 C 
BRANCH  25  26
ATOM     26  O2  UNL     1      25.668 -10.777 -34.408  0.00  0.00    +0.000 OA
ATOM     27  H15 UNL     1      25.719 -11.142 -35.329  0.00  0.00    +0.000 HD
ENDBRANCH  25  26
ENDBRANCH  18  25
ENDBRANCH  15  18
ENDBRANCH   1  15
TORSDOF 13
ENDMDL
MODEL 2
REMARK VINA RESULT:    -4.818      1.262      1.834
REMARK INTER + INTRA:          -8.814
REMARK INTER:                  -7.912
REMARK INTRA:                  -0.902
REMARK UNBOUND:                -1.038
REMARK  Name = resultss/4CJN/ligands/lig_193_t0.pdb
REMARK  16 active torsions:
REMARK  status: ('A' for Active; 'I' for Inactive)
REMARK    1  A    between atoms: C1_1  and  C2_2
REMARK    2  A    between atoms: C2_2  and  C3_3
REMARK    3  A    between atoms: C2_2  and  C4_4
REMARK    4  A    between atoms: C2_2  and  C5_5
REMARK    5  A    between atoms: C5_5  and  O1_6
REMARK    6  A    between atoms: O1_6  and  C6_7
REMARK    7  A    between atoms: C6_7  and  C7_8
REMARK    8  A    between atoms: C6_7  and  C8_10
REMARK    9  A    between atoms: C7_8  and  O2_9
REMARK   10  A    between atoms: C8_10  and  O3_11
REMARK   11  A    between atoms: C8_10  and  C9_12
REMARK   12  A    between atoms: C9_12  and  S1_13
REMARK   13  A    between atoms: C11_15  and  O4_16
REMARK   14  A    between atoms: C12_17  and  O5_18
REMARK   15  A    between atoms: C13_19  and  C14_20
REMARK   16  A    between atoms: C14_20  and  O6_21
REMARK                            x       y       z     vdW  Elec       q    Type
REMARK                         _______ _______ _______ _____ _____    ______ ____
ROOT
ATOM      1  C9  UNL     1      27.748  -8.060 -37.558  0.00  0.00    +0.000 C 
ENDROOT
BRANCH   1   2
ATOM      2  S1  UNL     1      28.038  -8.449 -39.280  0.00  0.00    +0.000 S 
ATOM      3  C10 UNL     1      26.553  -8.948 -40.094  0.00  0.00    +0.000 C 
ATOM      4  C11 UNL     1      26.952 -10.113 -41.004  0.00  0.00    +0.000 C 
ATOM      5  C12 UNL     1      28.127 -10.897 -40.359  0.00  0.00    +0.000 C 
ATOM      6  C13 UNL     1      28.956  -9.958 -39.447  0.00  0.00    +0.000 C 
ATOM      7 CL1  UNL     1      26.356  -7.273 -38.103  0.00  0.00    +0.000 Cl
BRANCH   4   8
ATOM      8  O4  UNL     1      27.297  -9.658 -42.290  0.00  0.00    +0.000 OA
ATOM      9  H23 UNL     1      27.136  -8.681 -42.324  0.00  0.00    +0.000 HD
ENDBRANCH   4   8
BRANCH   5  10
ATOM     10  O5  UNL     1      27.616 -11.951 -39.582  0.00  0.00    +0.000 OA
ATOM     11  H25 UNL     1      26.780 -11.620 -39.160  0.00  0.00    +0.000 HD
ENDBRANCH   5  10
BRANCH   6  12
ATOM     12  C14 UNL     1      30.371  -9.684 -39.971  0.00  0.00    +0.000 C 
BRANCH  12  13
ATOM     13  O6  UNL     1      30.686 -10.530 -41.041  0.00  0.00    +0.000 OA
ATOM     14  H29 UNL     1      31.051  -9.947 -41.757  0.00  0.00    +0.000 HD
ENDBRANCH  12  13
ENDBRANCH   6  12
ENDBRANCH   1   2
BRANCH   1  15
ATOM     15  C8  UNL     1      26.789  -9.043 -36.848  0.00  0.00    +0.000 C 
BRANCH  15  16
ATOM     16  O3  UNL     1      27.236 -10.375 -36.935  0.00  0.00    +0.000 OA
ATOM     17  H17 UNL     1      26.658 -10.936 -36.357  0.00  0.00    +0.000 HD
ENDBRANCH  15  16
BRANCH  15  18
ATOM     18  C6  UNL     1      26.406  -8.630 -35.393  0.00  0.00    +0.000 C 
BRANCH  18  19
ATOM     19  O1  UNL     1      25.021  -8.323 -35.347  0.00  0.00    +0.000 OA
BRANCH  19  20
ATOM     20  C5  UNL     1      24.745  -7.364 -34.343  0.00  0.00    +0.000 C 
BRANCH  20  22
ATOM     21  C1  UNL     1      22.331  -7.893 -34.874  0.00  0.00    +0.000 C 
ATOM     22  C2  UNL     1      23.340  -7.601 -33.745  0.00  0.00    +0.000 C 
ATOM     23  C3  UNL     1      23.376  -8.791 -32.765  0.00  0.00    +0.000 C 
ATOM     24  C4  UNL     1      22.894  -6.337 -32.985  0.00  0.00    +0.000 C 
ENDBRANCH  20  22
ENDBRANCH  19  20
ENDBRANCH  18  19
BRANCH  18  25
ATOM     25  C7  UNL     1      26.670  -9.738 -34.355  0.00  0.00    +0.000 C 
BRANCH  25  26
ATOM     26  O2  UNL     1      25.669 -10.717 -34.426  0.00  0.00    +0.000 OA
ATOM     27  H15 UNL     1      24.827 -10.286 -34.127  0.00  0.00    +0.000 HD
ENDBRANCH  25  26
ENDBRANCH  18  25
ENDBRANCH  15  18
ENDBRANCH   1  15
TORSDOF 13
ENDMDL
MODEL 3
REMARK VINA RESULT:    -4.800      2.204      6.961
REMARK INTER + INTRA:          -8.784
REMARK INTER:                  -7.754
REMARK INTRA:                  -1.030
REMARK UNBOUND:                -1.038
REMARK  Name = resultss/4CJN/ligands/lig_193_t0.pdb
REMARK  16 active torsions:
REMARK  status: ('A' for Active; 'I' for Inactive)
REMARK    1  A    between atoms: C1_1  and  C2_2
REMARK    2  A    between atoms: C2_2  and  C3_3
REMARK    3  A    between atoms: C2_2  and  C4_4
REMARK    4  A    between atoms: C2_2  and  C5_5
REMARK    5  A    between atoms: C5_5  and  O1_6
REMARK    6  A    between atoms: O1_6  and  C6_7
REMARK    7  A    between atoms: C6_7  and  C7_8
REMARK    8  A    between atoms: C6_7  and  C8_10
REMARK    9  A    between atoms: C7_8  and  O2_9
REMARK   10  A    between atoms: C8_10  and  O3_11
REMARK   11  A    between atoms: C8_10  and  C9_12
REMARK   12  A    between atoms: C9_12  and  S1_13
REMARK   13  A    between atoms: C11_15  and  O4_16
REMARK   14  A    between atoms: C12_17  and  O5_18
REMARK   15  A    between atoms: C13_19  and  C14_20
REMARK   16  A    between atoms: C14_20  and  O6_21
REMARK                            x       y       z     vdW  Elec       q    Type
REMARK                         _______ _______ _______ _____ _____    ______ ____
ROOT
ATOM      1  C9  UNL     1      25.354  -6.735 -36.818  0.00  0.00    +0.000 C 
ENDROOT
BRANCH   1   2
ATOM      2  S1  UNL     1      25.422  -6.906 -35.038  0.00  0.00    +0.000 S 
ATOM      3  C10 UNL     1      26.958  -7.597 -34.509  0.00  0.00    +0.000 C 
ATOM      4  C11 UNL     1      26.605  -8.579 -33.389  0.00  0.00    +0.000 C 
ATOM      5  C12 UNL     1      25.200  -9.186 -33.654  0.00  0.00    +0.000 C 
ATOM      6  C13 UNL     1      24.341  -8.195 -34.479  0.00  0.00    +0.000 C 
ATOM      7 CL1  UNL     1      26.943  -6.176 -36.698  0.00  0.00    +0.000 Cl
BRANCH   4   8
ATOM      8  O4  UNL     1      26.653  -7.952 -32.130  0.00  0.00    +0.000 OA
ATOM      9  H23 UNL     1      25.755  -7.578 -31.939  0.00  0.00    +0.000 HD
ENDBRANCH   4   8
BRANCH   5  10
ATOM     10  O5  UNL     1      25.336 -10.382 -34.378  0.00  0.00    +0.000 OA
ATOM     11  H25 UNL     1      25.769 -10.150 -35.241  0.00  0.00    +0.000 HD
ENDBRANCH   5  10
BRANCH   6  12
ATOM     12  C14 UNL     1      23.153  -7.615 -33.701  0.00  0.00    +0.000 C 
BRANCH  12  13
ATOM     13  O6  UNL     1      23.499  -7.358 -32.369  0.00  0.00    +0.000 OA
ATOM     14  H29 UNL     1      22.712  -7.616 -31.823  0.00  0.00    +0.000 HD
ENDBRANCH  12  13
ENDBRANCH   6  12
ENDBRANCH   1   2
BRANCH   1  15
ATOM     15  C8  UNL     1      25.193  -8.078 -37.568  0.00  0.00    +0.000 C 
BRANCH  15  16
ATOM     16  O3  UNL     1      23.853  -8.508 -37.605  0.00  0.00    +0.000 OA
ATOM     17  H17 UNL     1      23.718  -9.036 -38.433  0.00  0.00    +0.000 HD
ENDBRANCH  15  16
BRANCH  15  18
ATOM     18  C6  UNL     1      25.877  -8.116 -38.971  0.00  0.00    +0.000 C 
BRANCH  18  19
ATOM     19  O1  UNL     1      26.764  -9.223 -39.025  0.00  0.00    +0.000 OA
BRANCH  19  20
ATOM     20  C5  UNL     1      27.911  -8.918 -39.795  0.00  0.00    +0.000 C 
BRANCH  20  22
ATOM     21  C1  UNL     1      29.723 -10.321 -40.864  0.00  0.00    +0.000 C 
ATOM     22  C2  UNL     1      28.205 -10.059 -40.796  0.00  0.00    +0.000 C 
ATOM     23  C3  UNL     1      27.478 -11.347 -40.358  0.00  0.00    +0.000 C 
ATOM     24  C4  UNL     1      27.701  -9.648 -42.194  0.00  0.00    +0.000 C 
ENDBRANCH  20  22
ENDBRANCH  19  20
ENDBRANCH  18  19
BRANCH  18  25
ATOM     25  C7  UNL     1      24.876  -8.269 -40.133  0.00  0.00    +0.000 C 
BRANCH  25  26
ATOM     26  O2  UNL     1      24.258  -9.527 -40.079  0.00  0.00    +0.000 OA
ATOM     27  H15 UNL     1      23.653  -9.580 -40.863  0.00  0.00    +0.000 HD
ENDBRANCH  25  26
ENDBRANCH  18  25
ENDBRANCH  15  18
ENDBRANCH   1  15
TORSDOF 13
ENDMDL
MODEL 4
REMARK VINA RESULT:    -4.750      2.226      6.852
REMARK INTER + INTRA:          -8.703
REMARK INTER:                  -7.528
REMARK INTRA:                  -1.176
REMARK UNBOUND:                -1.038
REMARK  Name = resultss/4CJN/ligands/lig_193_t0.pdb
REMARK  16 active torsions:
REMARK  status: ('A' for Active; 'I' for Inactive)
REMARK    1  A    between atoms: C1_1  and  C2_2
REMARK    2  A    between atoms: C2_2  and  C3_3
REMARK    3  A    between atoms: C2_2  and  C4_4
REMARK    4  A    between atoms: C2_2  and  C5_5
REMARK    5  A    between atoms: C5_5  and  O1_6
REMARK    6  A    between atoms: O1_6  and  C6_7
REMARK    7  A    between atoms: C6_7  and  C7_8
REMARK    8  A    between atoms: C6_7  and  C8_10
REMARK    9  A    between atoms: C7_8  and  O2_9
REMARK   10  A    between atoms: C8_10  and  O3_11
REMARK   11  A    between atoms: C8_10  and  C9_12
REMARK   12  A    between atoms: C9_12  and  S1_13
REMARK   13  A    between atoms: C11_15  and  O4_16
REMARK   14  A    between atoms: C12_17  and  O5_18
REMARK   15  A    between atoms: C13_19  and  C14_20
REMARK   16  A    between atoms: C14_20  and  O6_21
REMARK                            x       y       z     vdW  Elec       q    Type
REMARK                         _______ _______ _______ _____ _____    ______ ____
ROOT
ATOM      1  C9  UNL     1      26.227  -7.492 -37.506  0.00  0.00    +0.000 C 
ENDROOT
BRANCH   1   2
ATOM      2  S1  UNL     1      25.842  -7.297 -35.770  0.00  0.00    +0.000 S 
ATOM      3  C10 UNL     1      27.212  -7.731 -34.745  0.00  0.00    +0.000 C 
ATOM      4  C11 UNL     1      26.617  -8.497 -33.561  0.00  0.00    +0.000 C 
ATOM      5  C12 UNL     1      25.349  -9.265 -34.023  0.00  0.00    +0.000 C 
ATOM      6  C13 UNL     1      24.697  -8.539 -35.227  0.00  0.00    +0.000 C 
ATOM      7 CL1  UNL     1      27.712  -6.782 -37.124  0.00  0.00    +0.000 Cl
BRANCH   4   8
ATOM      8  O4  UNL     1      26.318  -7.629 -32.494  0.00  0.00    +0.000 OA
ATOM      9  H23 UNL     1      26.559  -8.086 -31.649  0.00  0.00    +0.000 HD
ENDBRANCH   4   8
BRANCH   5  10
ATOM     10  O5  UNL     1      25.708 -10.565 -34.418  0.00  0.00    +0.000 OA
ATOM     11  H25 UNL     1      24.873 -11.023 -34.699  0.00  0.00    +0.000 HD
ENDBRANCH   5  10
BRANCH   6  12
ATOM     12  C14 UNL     1      23.330  -7.921 -34.906  0.00  0.00    +0.000 C 
BRANCH  12  13
ATOM     13  O6  UNL     1      22.489  -8.853 -34.285  0.00  0.00    +0.000 OA
ATOM     14  H29 UNL     1      23.078  -9.583 -33.959  0.00  0.00    +0.000 HD
ENDBRANCH  12  13
ENDBRANCH   6  12
ENDBRANCH   1   2
BRANCH   1  15
ATOM     15  C8  UNL     1      25.761  -8.841 -38.101  0.00  0.00    +0.000 C 
BRANCH  15  16
ATOM     16  O3  UNL     1      24.533  -8.725 -38.780  0.00  0.00    +0.000 OA
ATOM     17  H17 UNL     1      24.656  -8.103 -39.542  0.00  0.00    +0.000 HD
ENDBRANCH  15  16
BRANCH  15  18
ATOM     18  C6  UNL     1      26.847  -9.581 -38.944  0.00  0.00    +0.000 C 
BRANCH  18  19
ATOM     19  O1  UNL     1      27.444  -8.660 -39.843  0.00  0.00    +0.000 OA
BRANCH  19  20
ATOM     20  C5  UNL     1      27.459  -9.173 -41.162  0.00  0.00    +0.000 C 
BRANCH  20  22
ATOM     21  C1  UNL     1      29.837  -8.378 -40.839  0.00  0.00    +0.000 C 
ATOM     22  C2  UNL     1      28.912  -9.279 -41.681  0.00  0.00    +0.000 C 
ATOM     23  C3  UNL     1      29.398 -10.740 -41.596  0.00  0.00    +0.000 C 
ATOM     24  C4  UNL     1      28.959  -8.817 -43.151  0.00  0.00    +0.000 C 
ENDBRANCH  20  22
ENDBRANCH  19  20
ENDBRANCH  18  19
BRANCH  18  25
ATOM     25  C7  UNL     1      27.974 -10.190 -38.088  0.00  0.00    +0.000 C 
BRANCH  25  26
ATOM     26  O2  UNL     1      27.478 -10.566 -36.830  0.00  0.00    +0.000 OA
ATOM     27  H15 UNL     1      27.858  -9.928 -36.173  0.00  0.00    +0.000 HD
ENDBRANCH  25  26
ENDBRANCH  18  25
ENDBRANCH  15  18
ENDBRANCH   1  15
TORSDOF 13
ENDMDL
MODEL 5
REMARK VINA RESULT:    -4.678      1.306      2.613
REMARK INTER + INTRA:          -8.587
REMARK INTER:                  -7.602
REMARK INTRA:                  -0.985
REMARK UNBOUND:                -1.038
REMARK  Name = resultss/4CJN/ligands/lig_193_t0.pdb
REMARK  16 active torsions:
REMARK  status: ('A' for Active; 'I' for Inactive)
REMARK    1  A    between atoms: C1_1  and  C2_2
REMARK    2  A    between atoms: C2_2  and  C3_3
REMARK    3  A    between atoms: C2_2  and  C4_4
REMARK    4  A    between atoms: C2_2  and  C5_5
REMARK    5  A    between atoms: C5_5  and  O1_6
REMARK    6  A    between atoms: O1_6  and  C6_7
REMARK    7  A    between atoms: C6_7  and  C7_8
REMARK    8  A    between atoms: C6_7  and  C8_10
REMARK    9  A    between atoms: C7_8  and  O2_9
REMARK   10  A    between atoms: C8_10  and  O3_11
REMARK   11  A    between atoms: C8_10  and  C9_12
REMARK   12  A    between atoms: C9_12  and  S1_13
REMARK   13  A    between atoms: C11_15  and  O4_16
REMARK   14  A    between atoms: C12_17  and  O5_18
REMARK   15  A    between atoms: C13_19  and  C14_20
REMARK   16  A    between atoms: C14_20  and  O6_21
REMARK                            x       y       z     vdW  Elec       q    Type
REMARK                         _______ _______ _______ _____ _____    ______ ____
ROOT
ATOM      1  C9  UNL     1      26.808  -8.397 -38.077  0.00  0.00    +0.000 C 
ENDROOT
BRANCH   1   2
ATOM      2  S1  UNL     1      25.850  -8.764 -39.542  0.00  0.00    +0.000 S 
ATOM      3  C10 UNL     1      26.652  -9.962 -40.562  0.00  0.00    +0.000 C 
ATOM      4  C11 UNL     1      26.442  -9.486 -42.001  0.00  0.00    +0.000 C 
ATOM      5  C12 UNL     1      26.378  -7.934 -42.032  0.00  0.00    +0.000 C 
ATOM      6  C13 UNL     1      25.864  -7.397 -40.672  0.00  0.00    +0.000 C 
ATOM      7 CL1  UNL     1      27.074 -10.062 -37.988  0.00  0.00    +0.000 Cl
BRANCH   4   8
ATOM      8  O4  UNL     1      25.278 -10.048 -42.557  0.00  0.00    +0.000 OA
ATOM      9  H23 UNL     1      25.297 -11.024 -42.389  0.00  0.00    +0.000 HD
ENDBRANCH   4   8
BRANCH   5  10
ATOM     10  O5  UNL     1      27.663  -7.417 -42.267  0.00  0.00    +0.000 OA
ATOM     11  H25 UNL     1      27.548  -6.471 -42.546  0.00  0.00    +0.000 HD
ENDBRANCH   5  10
BRANCH   6  12
ATOM     12  C14 UNL     1      24.480  -6.740 -40.754  0.00  0.00    +0.000 C 
BRANCH  12  13
ATOM     13  O6  UNL     1      23.461  -7.698 -40.690  0.00  0.00    +0.000 OA
ATOM     14  H29 UNL     1      23.108  -7.790 -41.613  0.00  0.00    +0.000 HD
ENDBRANCH  12  13
ENDBRANCH   6  12
ENDBRANCH   1   2
BRANCH   1  15
ATOM     15  C8  UNL     1      26.555  -9.371 -36.903  0.00  0.00    +0.000 C 
BRANCH  15  16
ATOM     16  O3  UNL     1      27.543 -10.370 -36.821  0.00  0.00    +0.000 OA
ATOM     17  H17 UNL     1      28.064 -10.364 -37.665  0.00  0.00    +0.000 HD
ENDBRANCH  15  16
BRANCH  15  18
ATOM     18  C6  UNL     1      26.290  -8.673 -35.533  0.00  0.00    +0.000 C 
BRANCH  18  19
ATOM     19  O1  UNL     1      24.932  -8.262 -35.477  0.00  0.00    +0.000 OA
BRANCH  19  20
ATOM     20  C5  UNL     1      24.723  -7.338 -34.426  0.00  0.00    +0.000 C 
BRANCH  20  22
ATOM     21  C1  UNL     1      23.330  -8.730 -32.841  0.00  0.00    +0.000 C 
ATOM     22  C2  UNL     1      23.318  -7.532 -33.811  0.00  0.00    +0.000 C 
ATOM     23  C3  UNL     1      22.892  -6.258 -33.053  0.00  0.00    +0.000 C 
ATOM     24  C4  UNL     1      22.305  -7.807 -34.940  0.00  0.00    +0.000 C 
ENDBRANCH  20  22
ENDBRANCH  19  20
ENDBRANCH  18  19
BRANCH  18  25
ATOM     25  C7  UNL     1      26.548  -9.589 -34.322  0.00  0.00    +0.000 C 
BRANCH  25  26
ATOM     26  O2  UNL     1      25.718 -10.718 -34.382  0.00  0.00    +0.000 OA
ATOM     27  H15 UNL     1      25.860 -11.127 -35.275  0.00  0.00    +0.000 HD
ENDBRANCH  25  26
ENDBRANCH  18  25
ENDBRANCH  15  18
ENDBRANCH   1  15
TORSDOF 13
ENDMDL
MODEL 6
REMARK VINA RESULT:    -4.619      2.055      6.485
REMARK INTER + INTRA:          -8.493
REMARK INTER:                  -7.504
REMARK INTRA:                  -0.989
REMARK UNBOUND:                -1.038
REMARK  Name = resultss/4CJN/ligands/lig_193_t0.pdb
REMARK  16 active torsions:
REMARK  status: ('A' for Active; 'I' for Inactive)
REMARK    1  A    between atoms: C1_1  and  C2_2
REMARK    2  A    between atoms: C2_2  and  C3_3
REMARK    3  A    between atoms: C2_2  and  C4_4
REMARK    4  A    between atoms: C2_2  and  C5_5
REMARK    5  A    between atoms: C5_5  and  O1_6
REMARK    6  A    between atoms: O1_6  and  C6_7
REMARK    7  A    between atoms: C6_7  and  C7_8
REMARK    8  A    between atoms: C6_7  and  C8_10
REMARK    9  A    between atoms: C7_8  and  O2_9
REMARK   10  A    between atoms: C8_10  and  O3_11
REMARK   11  A    between atoms: C8_10  and  C9_12
REMARK   12  A    between atoms: C9_12  and  S1_13
REMARK   13  A    between atoms: C11_15  and  O4_16
REMARK   14  A    between atoms: C12_17  and  O5_18
REMARK   15  A    between atoms: C13_19  and  C14_20
REMARK   16  A    between atoms: C14_20  and  O6_21
REMARK                            x       y       z     vdW  Elec       q    Type
REMARK                         _______ _______ _______ _____ _____    ______ ____
ROOT
ATOM      1  C9  UNL     1      25.805  -7.056 -37.209  0.00  0.00    +0.000 C 
ENDROOT
BRANCH   1   2
ATOM      2  S1  UNL     1      24.942  -8.219 -36.159  0.00  0.00    +0.000 S 
ATOM      3  C10 UNL     1      23.386  -7.582 -35.622  0.00  0.00    +0.000 C 
ATOM      4  C11 UNL     1      23.255  -7.995 -34.154  0.00  0.00    +0.000 C 
ATOM      5  C12 UNL     1      24.663  -8.053 -33.502  0.00  0.00    +0.000 C 
ATOM      6  C13 UNL     1      25.734  -8.361 -34.579  0.00  0.00    +0.000 C 
ATOM      7 CL1  UNL     1      24.302  -6.791 -37.934  0.00  0.00    +0.000 Cl
BRANCH   4   8
ATOM      8  O4  UNL     1      22.593  -9.231 -34.032  0.00  0.00    +0.000 OA
ATOM      9  H23 UNL     1      23.122  -9.912 -34.520  0.00  0.00    +0.000 HD
ENDBRANCH   4   8
BRANCH   5  10
ATOM     10  O5  UNL     1      24.957  -6.812 -32.912  0.00  0.00    +0.000 OA
ATOM     11  H25 UNL     1      24.799  -6.911 -31.936  0.00  0.00    +0.000 HD
ENDBRANCH   5  10
BRANCH   6  12
ATOM     12  C14 UNL     1      26.392  -9.738 -34.416  0.00  0.00    +0.000 C 
BRANCH  12  13
ATOM     13  O6  UNL     1      25.428 -10.745 -34.285  0.00  0.00    +0.000 OA
ATOM     14  H29 UNL     1      24.549 -10.284 -34.257  0.00  0.00    +0.000 HD
ENDBRANCH  12  13
ENDBRANCH   6  12
ENDBRANCH   1   2
BRANCH   1  15
ATOM     15  C8  UNL     1      26.926  -7.695 -38.061  0.00  0.00    +0.000 C 
BRANCH  15  16
ATOM     16  O3  UNL     1      28.200  -7.498 -37.494  0.00  0.00    +0.000 OA
ATOM     17  H17 UNL     1      28.863  -7.995 -38.036  0.00  0.00    +0.000 HD
ENDBRANCH  15  16
BRANCH  15  18
ATOM     18  C6  UNL     1      26.667  -9.184 -38.453  0.00  0.00    +0.000 C 
BRANCH  18  19
ATOM     19  O1  UNL     1      25.931  -9.221 -39.666  0.00  0.00    +0.000 OA
BRANCH  19  20
ATOM     20  C5  UNL     1      26.714  -9.748 -40.721  0.00  0.00    +0.000 C 
BRANCH  20  22
ATOM     21  C1  UNL     1      25.099  -9.416 -42.637  0.00  0.00    +0.000 C 
ATOM     22  C2  UNL     1      26.445  -8.972 -42.030  0.00  0.00    +0.000 C 
ATOM     23  C3  UNL     1      26.407  -7.456 -41.748  0.00  0.00    +0.000 C 
ATOM     24  C4  UNL     1      27.574  -9.268 -43.036  0.00  0.00    +0.000 C 
ENDBRANCH  20  22
ENDBRANCH  19  20
ENDBRANCH  18  19
BRANCH  18  25
ATOM     25  C7  UNL     1      27.961  -9.991 -38.671  0.00  0.00    +0.000 C 
BRANCH  25  26
ATOM     26  O2  UNL     1      27.971 -11.123 -37.842  0.00  0.00    +0.000 OA
ATOM     27  H15 UNL     1      28.715 -10.998 -37.198  0.00  0.00    +0.000 HD
ENDBRANCH  25  26
ENDBRANCH  18  25
ENDBRANCH  15  18
ENDBRANCH   1  15
TORSDOF 13
ENDMDL
MODEL 7
REMARK VINA RESULT:    -4.540      2.537      6.830
REMARK INTER + INTRA:          -8.365
REMARK INTER:                  -7.560
REMARK INTRA:                  -0.805
REMARK UNBOUND:                -1.038
REMARK  Name = resultss/4CJN/ligands/lig_193_t0.pdb
REMARK  16 active torsions:
REMARK  status: ('A' for Active; 'I' for Inactive)
REMARK    1  A    between atoms: C1_1  and  C2_2
REMARK    2  A    between atoms: C2_2  and  C3_3
REMARK    3  A    between atoms: C2_2  and  C4_4
REMARK    4  A    between atoms: C2_2  and  C5_5
REMARK    5  A    between atoms: C5_5  and  O1_6
REMARK    6  A    between atoms: O1_6  and  C6_7
REMARK    7  A    between atoms: C6_7  and  C7_8
REMARK    8  A    between atoms: C6_7  and  C8_10
REMARK    9  A    between atoms: C7_8  and  O2_9
REMARK   10  A    between atoms: C8_10  and  O3_11
REMARK   11  A    between atoms: C8_10  and  C9_12
REMARK   12  A    between atoms: C9_12  and  S1_13
REMARK   13  A    between atoms: C11_15  and  O4_16
REMARK   14  A    between atoms: C12_17  and  O5_18
REMARK   15  A    between atoms: C13_19  and  C14_20
REMARK   16  A    between atoms: C14_20  and  O6_21
REMARK                            x       y       z     vdW  Elec       q    Type
REMARK                         _______ _______ _______ _____ _____    ______ ____
ROOT
ATOM      1  C9  UNL     1      28.246 -10.458 -37.910  0.00  0.00    +0.000 C 
ENDROOT
BRANCH   1   2
ATOM      2  S1  UNL     1      27.723  -9.149 -36.807  0.00  0.00    +0.000 S 
ATOM      3  C10 UNL     1      28.418  -9.340 -35.195  0.00  0.00    +0.000 C 
ATOM      4  C11 UNL     1      27.297  -8.980 -34.217  0.00  0.00    +0.000 C 
ATOM      5  C12 UNL     1      25.924  -9.360 -34.836  0.00  0.00    +0.000 C 
ATOM      6  C13 UNL     1      26.009  -9.319 -36.383  0.00  0.00    +0.000 C 
ATOM      7 CL1  UNL     1      29.777 -10.244 -37.231  0.00  0.00    +0.000 Cl
BRANCH   4   8
ATOM      8  O4  UNL     1      27.335  -7.613 -33.882  0.00  0.00    +0.000 OA
ATOM      9  H23 UNL     1      26.462  -7.370 -33.481  0.00  0.00    +0.000 HD
ENDBRANCH   4   8
BRANCH   5  10
ATOM     10  O5  UNL     1      25.575 -10.661 -34.435  0.00  0.00    +0.000 OA
ATOM     11  H25 UNL     1      24.652 -10.614 -34.072  0.00  0.00    +0.000 HD
ENDBRANCH   5  10
BRANCH   6  12
ATOM     12  C14 UNL     1      25.174  -8.199 -37.015  0.00  0.00    +0.000 C 
BRANCH  12  13
ATOM     13  O6  UNL     1      24.425  -8.677 -38.098  0.00  0.00    +0.000 OA
ATOM     14  H29 UNL     1      23.537  -8.926 -37.731  0.00  0.00    +0.000 HD
ENDBRANCH  12  13
ENDBRANCH   6  12
ENDBRANCH   1   2
BRANCH   1  15
ATOM     15  C8  UNL     1      29.020  -9.957 -39.151  0.00  0.00    +0.000 C 
BRANCH  15  16
ATOM     16  O3  UNL     1      30.391 -10.265 -39.080  0.00  0.00    +0.000 OA
ATOM     17  H17 UNL     1      30.513 -11.212 -39.349  0.00  0.00    +0.000 HD
ENDBRANCH  15  16
BRANCH  15  18
ATOM     18  C6  UNL     1      28.381 -10.365 -40.515  0.00  0.00    +0.000 C 
BRANCH  18  19
ATOM     19  O1  UNL     1      27.478  -9.350 -40.927  0.00  0.00    +0.000 OA
BRANCH  19  20
ATOM     20  C5  UNL     1      27.262  -9.397 -42.325  0.00  0.00    +0.000 C 
BRANCH  20  22
ATOM     21  C1  UNL     1      25.794  -7.492 -41.544  0.00  0.00    +0.000 C 
ATOM     22  C2  UNL     1      26.132  -8.421 -42.727  0.00  0.00    +0.000 C 
ATOM     23  C3  UNL     1      26.572  -7.574 -43.938  0.00  0.00    +0.000 C 
ATOM     24  C4  UNL     1      24.877  -9.230 -43.108  0.00  0.00    +0.000 C 
ENDBRANCH  20  22
ENDBRANCH  19  20
ENDBRANCH  18  19
BRANCH  18  25
ATOM     25  C7  UNL     1      29.415 -10.550 -41.642  0.00  0.00    +0.000 C 
BRANCH  25  26
ATOM     26  O2  UNL     1      30.032 -11.805 -41.533  0.00  0.00    +0.000 OA
ATOM     27  H15 UNL     1      29.502 -12.326 -40.877  0.00  0.00    +0.000 HD
ENDBRANCH  25  26
ENDBRANCH  18  25
ENDBRANCH  15  18
ENDBRANCH   1  15
TORSDOF 13
ENDMDL
MODEL 8
REMARK VINA RESULT:    -4.344      2.195      6.912
REMARK INTER + INTRA:          -8.049
REMARK INTER:                  -6.688
REMARK INTRA:                  -1.361
REMARK UNBOUND:                -1.038
REMARK  Name = resultss/4CJN/ligands/lig_193_t0.pdb
REMARK  16 active torsions:
REMARK  status: ('A' for Active; 'I' for Inactive)
REMARK    1  A    between atoms: C1_1  and  C2_2
REMARK    2  A    between atoms: C2_2  and  C3_3
REMARK    3  A    between atoms: C2_2  and  C4_4
REMARK    4  A    between atoms: C2_2  and  C5_5
REMARK    5  A    between atoms: C5_5  and  O1_6
REMARK    6  A    between atoms: O1_6  and  C6_7
REMARK    7  A    between atoms: C6_7  and  C7_8
REMARK    8  A    between atoms: C6_7  and  C8_10
REMARK    9  A    between atoms: C7_8  and  O2_9
REMARK   10  A    between atoms: C8_10  and  O3_11
REMARK   11  A    between atoms: C8_10  and  C9_12
REMARK   12  A    between atoms: C9_12  and  S1_13
REMARK   13  A    between atoms: C11_15  and  O4_16
REMARK   14  A    between atoms: C12_17  and  O5_18
REMARK   15  A    between atoms: C13_19  and  C14_20
REMARK   16  A    between atoms: C14_20  and  O6_21
REMARK                            x       y       z     vdW  Elec       q    Type
REMARK                         _______ _______ _______ _____ _____    ______ ____
ROOT
ATOM      1  C9  UNL     1      26.703  -9.301 -38.476  0.00  0.00    +0.000 C 
ENDROOT
BRANCH   1   2
ATOM      2  S1  UNL     1      26.711  -8.377 -36.944  0.00  0.00    +0.000 S 
ATOM      3  C10 UNL     1      27.995  -8.920 -35.862  0.00  0.00    +0.000 C 
ATOM      4  C11 UNL     1      27.379  -8.927 -34.460  0.00  0.00    +0.000 C 
ATOM      5  C12 UNL     1      25.864  -9.251 -34.560  0.00  0.00    +0.000 C 
ATOM      6  C13 UNL     1      25.314  -8.801 -35.937  0.00  0.00    +0.000 C 
ATOM      7 CL1  UNL     1      28.384  -9.139 -38.432  0.00  0.00    +0.000 Cl
BRANCH   4   8
ATOM      8  O4  UNL     1      27.588  -7.697 -33.808  0.00  0.00    +0.000 OA
ATOM      9  H23 UNL     1      27.100  -6.996 -34.310  0.00  0.00    +0.000 HD
ENDBRANCH   4   8
BRANCH   5  10
ATOM     10  O5  UNL     1      25.672 -10.637 -34.426  0.00  0.00    +0.000 OA
ATOM     11  H25 UNL     1      24.903 -10.880 -35.005  0.00  0.00    +0.000 HD
ENDBRANCH   5  10
BRANCH   6  12
ATOM     12  C14 UNL     1      24.324  -7.632 -35.851  0.00  0.00    +0.000 C 
BRANCH  12  13
ATOM     13  O6  UNL     1      23.248  -7.816 -36.727  0.00  0.00    +0.000 OA
ATOM     14  H29 UNL     1      23.215  -8.789 -36.925  0.00  0.00    +0.000 HD
ENDBRANCH  12  13
ENDBRANCH   6  12
ENDBRANCH   1   2
BRANCH   1  15
ATOM     15  C8  UNL     1      25.656  -8.805 -39.500  0.00  0.00    +0.000 C 
BRANCH  15  16
ATOM     16  O3  UNL     1      24.340  -9.096 -39.095  0.00  0.00    +0.000 OA
ATOM     17  H17 UNL     1      24.357  -9.926 -38.552  0.00  0.00    +0.000 HD
ENDBRANCH  15  16
BRANCH  15  18
ATOM     18  C6  UNL     1      25.837  -7.318 -39.936  0.00  0.00    +0.000 C 
BRANCH  18  19
ATOM     19  O1  UNL     1      26.053  -7.268 -41.338  0.00  0.00    +0.000 OA
BRANCH  19  20
ATOM     20  C5  UNL     1      27.424  -7.430 -41.648  0.00  0.00    +0.000 C 
BRANCH  20  22
ATOM     21  C1  UNL     1      28.434  -9.712 -42.051  0.00  0.00    +0.000 C 
ATOM     22  C2  UNL     1      27.612  -8.569 -42.677  0.00  0.00    +0.000 C 
ATOM     23  C3  UNL     1      26.238  -9.107 -43.126  0.00  0.00    +0.000 C 
ATOM     24  C4  UNL     1      28.363  -8.020 -43.906  0.00  0.00    +0.000 C 
ENDBRANCH  20  22
ENDBRANCH  19  20
ENDBRANCH  18  19
BRANCH  18  25
ATOM     25  C7  UNL     1      24.612  -6.437 -39.624  0.00  0.00    +0.000 C 
BRANCH  25  26
ATOM     26  O2  UNL     1      23.510  -6.853 -40.386  0.00  0.00    +0.000 OA
ATOM     27  H15 UNL     1      23.382  -6.171 -41.096  0.00  0.00    +0.000 HD
ENDBRANCH  25  26
ENDBRANCH  18  25
ENDBRANCH  15  18
ENDBRANCH   1  15
TORSDOF 13
ENDMDL
MODEL 9
REMARK VINA RESULT:    -4.281      2.298      6.968
REMARK INTER + INTRA:          -7.947
REMARK INTER:                  -6.839
REMARK INTRA:                  -1.109
REMARK UNBOUND:                -1.038
REMARK  Name = resultss/4CJN/ligands/lig_193_t0.pdb
REMARK  16 active torsions:
REMARK  status: ('A' for Active; 'I' for Inactive)
REMARK    1  A    between atoms: C1_1  and  C2_2
REMARK    2  A    between atoms: C2_2  and  C3_3
REMARK    3  A    between atoms: C2_2  and  C4_4
REMARK    4  A    between atoms: C2_2  and  C5_5
REMARK    5  A    between atoms: C5_5  and  O1_6
REMARK    6  A    between atoms: O1_6  and  C6_7
REMARK    7  A    between atoms: C6_7  and  C7_8
REMARK    8  A    between atoms: C6_7  and  C8_10
REMARK    9  A    between atoms: C7_8  and  O2_9
REMARK   10  A    between atoms: C8_10  and  O3_11
REMARK   11  A    between atoms: C8_10  and  C9_12
REMARK   12  A    between atoms: C9_12  and  S1_13
REMARK   13  A    between atoms: C11_15  and  O4_16
REMARK   14  A    between atoms: C12_17  and  O5_18
REMARK   15  A    between atoms: C13_19  and  C14_20
REMARK   16  A    between atoms: C14_20  and  O6_21
REMARK                            x       y       z     vdW  Elec       q    Type
REMARK                         _______ _______ _______ _____ _____    ______ ____
ROOT
ATOM      1  C9  UNL     1      25.970  -8.002 -38.671  0.00  0.00    +0.000 C 
ENDROOT
BRANCH   1   2
ATOM      2  S1  UNL     1      26.144  -9.265 -37.416  0.00  0.00    +0.000 S 
ATOM      3  C10 UNL     1      25.250  -8.855 -35.950  0.00  0.00    +0.000 C 
ATOM      4  C11 UNL     1      26.155  -9.263 -34.786  0.00  0.00    +0.000 C 
ATOM      5  C12 UNL     1      27.643  -9.107 -35.203  0.00  0.00    +0.000 C 
ATOM      6  C13 UNL     1      27.783  -9.269 -36.738  0.00  0.00    +0.000 C 
ATOM      7 CL1  UNL     1      24.340  -7.969 -38.230  0.00  0.00    +0.000 Cl
BRANCH   4   8
ATOM      8  O4  UNL     1      25.886 -10.582 -34.372  0.00  0.00    +0.000 OA
ATOM      9  H23 UNL     1      24.938 -10.627 -34.088  0.00  0.00    +0.000 HD
ENDBRANCH   4   8
BRANCH   5  10
ATOM     10  O5  UNL     1      28.099  -7.829 -34.838  0.00  0.00    +0.000 OA
ATOM     11  H25 UNL     1      27.651  -7.595 -33.983  0.00  0.00    +0.000 HD
ENDBRANCH   5  10
BRANCH   6  12
ATOM     12  C14 UNL     1      28.546 -10.532 -37.156  0.00  0.00    +0.000 C 
BRANCH  12  13
ATOM     13  O6  UNL     1      27.893 -11.193 -38.203  0.00  0.00    +0.000 OA
ATOM     14  H29 UNL     1      26.979 -10.809 -38.246  0.00  0.00    +0.000 HD
ENDBRANCH  12  13
ENDBRANCH   6  12
ENDBRANCH   1   2
BRANCH   1  15
ATOM     15  C8  UNL     1      25.264  -8.491 -39.956  0.00  0.00    +0.000 C 
BRANCH  15  16
ATOM     16  O3  UNL     1      24.140  -7.705 -40.276  0.00  0.00    +0.000 OA
ATOM     17  H17 UNL     1      23.504  -8.265 -40.790  0.00  0.00    +0.000 HD
ENDBRANCH  15  16
BRANCH  15  18
ATOM     18  C6  UNL     1      26.218  -8.700 -41.174  0.00  0.00    +0.000 C 
BRANCH  18  19
ATOM     19  O1  UNL     1      27.333  -9.475 -40.762  0.00  0.00    +0.000 OA
BRANCH  19  20
ATOM     20  C5  UNL     1      28.028 -10.002 -41.877  0.00  0.00    +0.000 C 
BRANCH  20  22
ATOM     21  C1  UNL     1      30.274 -10.202 -43.019  0.00  0.00    +0.000 C 
ATOM     22  C2  UNL     1      29.507  -9.554 -41.849  0.00  0.00    +0.000 C 
ATOM     23  C3  UNL     1      29.597  -8.019 -41.960  0.00  0.00    +0.000 C 
ATOM     24  C4  UNL     1      30.145 -10.000 -40.519  0.00  0.00    +0.000 C 
ENDBRANCH  20  22
ENDBRANCH  19  20
ENDBRANCH  18  19
BRANCH  18  25
ATOM     25  C7  UNL     1      25.551  -9.437 -42.351  0.00  0.00    +0.000 C 
BRANCH  25  26
ATOM     26  O2  UNL     1      24.532 -10.279 -41.882  0.00  0.00    +0.000 OA
ATOM     27  H15 UNL     1      24.060 -10.628 -42.682  0.00  0.00    +0.000 HD
ENDBRANCH  25  26
ENDBRANCH  18  25
ENDBRANCH  15  18
ENDBRANCH   1  15
TORSDOF 13
ENDMDL
