MODEL 1
REMARK VINA RESULT:    -6.468      0.000      0.000
REMARK INTER + INTRA:          -8.771
REMARK INTER:                  -7.602
REMARK INTRA:                  -1.169
REMARK UNBOUND:                -1.169
REMARK  Name = resultss/4CJN/ligands/lig_401_t2.pdb
REMARK  3 active torsions:
REMARK  status: ('A' for Active; 'I' for Inactive)
REMARK    1  A    between atoms: C6_7  and  C7_8
REMARK    2  A    between atoms: C8_10  and  C9_11
REMARK    3  A    between atoms: C15_17  and  C16_18
REMARK                            x       y       z     vdW  Elec       q    Type
REMARK                         _______ _______ _______ _____ _____    ______ ____
ROOT
ATOM      1  C7  UNL     1      29.255  -9.730 -38.470  0.00  0.00    +0.000 A 
ATOM      2  N1  UNL     1      28.373  -9.148 -39.312  0.00  0.00    +0.000 NA
ATOM      3  C8  UNL     1      28.899  -9.333 -40.540  0.00  0.00    +0.000 A 
ATOM      4  C15 UNL     1      30.095 -10.030 -40.420  0.00  0.00    +0.000 A 
ATOM      5  N2  UNL     1      30.315 -10.262 -39.115  0.00  0.00    +0.000 N 
ATOM      6  H16 UNL     1      31.137 -10.753 -38.699  0.00  0.00    +0.000 HD
ENDROOT
BRANCH   1  13
ATOM      7  O1  UNL     1      31.414  -9.703 -36.512  0.00  0.00    +0.000 OA
ATOM      8  C1  UNL     1      30.234  -9.621 -36.075  0.00  0.00    +0.000 C 
ATOM      9  C2  UNL     1      30.020  -9.395 -34.602  0.00  0.00    +0.000 C 
ATOM     10  C3  UNL     1      28.623  -9.733 -34.156  0.00  0.00    +0.000 C 
ATOM     11  C4  UNL     1      27.626  -9.939 -35.022  0.00  0.00    +0.000 C 
ATOM     12  C5  UNL     1      27.851  -9.908 -36.478  0.00  0.00    +0.000 C 
ATOM     13  C6  UNL     1      29.078  -9.748 -36.997  0.00  0.00    +0.000 C 
ENDBRANCH   1  13
BRANCH   3  14
ATOM     14  C9  UNL     1      28.281  -8.782 -41.764  0.00  0.00    +0.000 A 
ATOM     15  C10 UNL     1      27.041  -9.259 -42.230  0.00  0.00    +0.000 A 
ATOM     16  C11 UNL     1      26.479  -8.737 -43.398  0.00  0.00    +0.000 A 
ATOM     17  C12 UNL     1      27.154  -7.750 -44.120  0.00  0.00    +0.000 A 
ATOM     18  C13 UNL     1      28.396  -7.287 -43.678  0.00  0.00    +0.000 A 
ATOM     19  C14 UNL     1      28.962  -7.805 -42.509  0.00  0.00    +0.000 A 
ENDBRANCH   3  14
BRANCH   4  20
ATOM     20  C16 UNL     1      30.971 -10.537 -41.498  0.00  0.00    +0.000 A 
ATOM     21  C17 UNL     1      30.496 -11.473 -42.433  0.00  0.00    +0.000 A 
ATOM     22  C18 UNL     1      31.339 -11.956 -43.438  0.00  0.00    +0.000 A 
ATOM     23  C19 UNL     1      32.665 -11.519 -43.512  0.00  0.00    +0.000 A 
ATOM     24  C20 UNL     1      33.151 -10.603 -42.575  0.00  0.00    +0.000 A 
ATOM     25  C21 UNL     1      32.310 -10.117 -41.568  0.00  0.00    +0.000 A 
ENDBRANCH   4  20
TORSDOF 3
ENDMDL
MODEL 2
REMARK VINA RESULT:    -6.274      2.005      5.992
REMARK INTER + INTRA:          -8.544
REMARK INTER:                  -7.342
REMARK INTRA:                  -1.202
REMARK UNBOUND:                -1.169
REMARK  Name = resultss/4CJN/ligands/lig_401_t2.pdb
REMARK  3 active torsions:
REMARK  status: ('A' for Active; 'I' for Inactive)
REMARK    1  A    between atoms: C6_7  and  C7_8
REMARK    2  A    between atoms: C8_10  and  C9_11
REMARK    3  A    between atoms: C15_17  and  C16_18
REMARK                            x       y       z     vdW  Elec       q    Type
REMARK                         _______ _______ _______ _____ _____    ______ ____
ROOT
ATOM      1  C7  UNL     1      30.359 -10.815 -42.022  0.00  0.00    +0.000 A 
ATOM      2  N1  UNL     1      29.282 -10.435 -42.744  0.00  0.00    +0.000 NA
ATOM      3  C8  UNL     1      28.421  -9.932 -41.836  0.00  0.00    +0.000 A 
ATOM      4  C15 UNL     1      28.995 -10.014 -40.573  0.00  0.00    +0.000 A 
ATOM      5  N2  UNL     1      30.207 -10.582 -40.701  0.00  0.00    +0.000 N 
ATOM      6  H16 UNL     1      30.879 -10.794 -39.932  0.00  0.00    +0.000 HD
ENDROOT
BRANCH   1  13
ATOM      7  O1  UNL     1      33.114 -10.001 -41.535  0.00  0.00    +0.000 OA
ATOM      8  C1  UNL     1      32.930 -11.033 -42.235  0.00  0.00    +0.000 C 
ATOM      9  C2  UNL     1      34.126 -11.839 -42.667  0.00  0.00    +0.000 C 
ATOM     10  C3  UNL     1      33.821 -12.768 -43.812  0.00  0.00    +0.000 C 
ATOM     11  C4  UNL     1      32.571 -13.037 -44.201  0.00  0.00    +0.000 C 
ATOM     12  C5  UNL     1      31.410 -12.389 -43.567  0.00  0.00    +0.000 C 
ATOM     13  C6  UNL     1      31.558 -11.444 -42.626  0.00  0.00    +0.000 C 
ENDBRANCH   1  13
BRANCH   3  14
ATOM     14  C9  UNL     1      27.067  -9.460 -42.196  0.00  0.00    +0.000 A 
ATOM     15  C10 UNL     1      25.923 -10.002 -41.582  0.00  0.00    +0.000 A 
ATOM     16  C11 UNL     1      24.649  -9.555 -41.947  0.00  0.00    +0.000 A 
ATOM     17  C12 UNL     1      24.506  -8.579 -42.936  0.00  0.00    +0.000 A 
ATOM     18  C13 UNL     1      25.635  -8.053 -43.567  0.00  0.00    +0.000 A 
ATOM     19  C14 UNL     1      26.911  -8.496 -43.205  0.00  0.00    +0.000 A 
ENDBRANCH   3  14
BRANCH   4  20
ATOM     20  C16 UNL     1      28.464  -9.504 -39.291  0.00  0.00    +0.000 A 
ATOM     21  C17 UNL     1      28.442  -8.125 -39.016  0.00  0.00    +0.000 A 
ATOM     22  C18 UNL     1      27.951  -7.657 -37.794  0.00  0.00    +0.000 A 
ATOM     23  C19 UNL     1      27.490  -8.560 -36.832  0.00  0.00    +0.000 A 
ATOM     24  C20 UNL     1      27.525  -9.933 -37.089  0.00  0.00    +0.000 A 
ATOM     25  C21 UNL     1      28.015 -10.405 -38.311  0.00  0.00    +0.000 A 
ENDBRANCH   4  20
TORSDOF 3
ENDMDL
MODEL 3
REMARK VINA RESULT:    -6.082      2.326      6.489
REMARK INTER + INTRA:          -8.317
REMARK INTER:                  -7.147
REMARK INTRA:                  -1.170
REMARK UNBOUND:                -1.169
REMARK  Name = resultss/4CJN/ligands/lig_401_t2.pdb
REMARK  3 active torsions:
REMARK  status: ('A' for Active; 'I' for Inactive)
REMARK    1  A    between atoms: C6_7  and  C7_8
REMARK    2  A    between atoms: C8_10  and  C9_11
REMARK    3  A    between atoms: C15_17  and  C16_18
REMARK                            x       y       z     vdW  Elec       q    Type
REMARK                         _______ _______ _______ _____ _____    ______ ____
ROOT
ATOM      1  C7  UNL     1      30.778 -10.676 -42.872  0.00  0.00    +0.000 A 
ATOM      2  N1  UNL     1      29.785  -9.840 -43.248  0.00  0.00    +0.000 NA
ATOM      3  C8  UNL     1      29.144  -9.533 -42.102  0.00  0.00    +0.000 A 
ATOM      4  C15 UNL     1      29.764 -10.190 -41.046  0.00  0.00    +0.000 A 
ATOM      5  N2  UNL     1      30.781 -10.915 -41.544  0.00  0.00    +0.000 N 
ATOM      6  H16 UNL     1      31.429 -11.530 -41.005  0.00  0.00    +0.000 HD
ENDROOT
BRANCH   1  13
ATOM      7  O1  UNL     1      31.472 -13.503 -43.006  0.00  0.00    +0.000 OA
ATOM      8  C1  UNL     1      31.943 -12.748 -43.898  0.00  0.00    +0.000 C 
ATOM      9  C2  UNL     1      32.724 -13.362 -45.030  0.00  0.00    +0.000 C 
ATOM     10  C3  UNL     1      33.568 -12.358 -45.769  0.00  0.00    +0.000 C 
ATOM     11  C4  UNL     1      33.417 -11.040 -45.608  0.00  0.00    +0.000 C 
ATOM     12  C5  UNL     1      32.451 -10.487 -44.644  0.00  0.00    +0.000 C 
ATOM     13  C6  UNL     1      31.734 -11.280 -43.832  0.00  0.00    +0.000 C 
ENDBRANCH   1  13
BRANCH   3  14
ATOM     14  C9  UNL     1      27.932  -8.688 -42.068  0.00  0.00    +0.000 A 
ATOM     15  C10 UNL     1      27.957  -7.406 -41.488  0.00  0.00    +0.000 A 
ATOM     16  C11 UNL     1      26.796  -6.627 -41.450  0.00  0.00    +0.000 A 
ATOM     17  C12 UNL     1      25.601  -7.125 -41.974  0.00  0.00    +0.000 A 
ATOM     18  C13 UNL     1      25.561  -8.406 -42.530  0.00  0.00    +0.000 A 
ATOM     19  C14 UNL     1      26.719  -9.188 -42.572  0.00  0.00    +0.000 A 
ENDBRANCH   3  14
BRANCH   4  20
ATOM     20  C16 UNL     1      29.468 -10.084 -39.602  0.00  0.00    +0.000 A 
ATOM     21  C17 UNL     1      30.471  -9.722 -38.685  0.00  0.00    +0.000 A 
ATOM     22  C18 UNL     1      30.183  -9.640 -37.320  0.00  0.00    +0.000 A 
ATOM     23  C19 UNL     1      28.897  -9.929 -36.856  0.00  0.00    +0.000 A 
ATOM     24  C20 UNL     1      27.898 -10.306 -37.758  0.00  0.00    +0.000 A 
ATOM     25  C21 UNL     1      28.183 -10.389 -39.125  0.00  0.00    +0.000 A 
ENDBRANCH   4  20
TORSDOF 3
ENDMDL
MODEL 4
REMARK VINA RESULT:    -6.033      1.420      4.111
REMARK INTER + INTRA:          -8.260
REMARK INTER:                  -7.135
REMARK INTRA:                  -1.125
REMARK UNBOUND:                -1.169
REMARK  Name = resultss/4CJN/ligands/lig_401_t2.pdb
REMARK  3 active torsions:
REMARK  status: ('A' for Active; 'I' for Inactive)
REMARK    1  A    between atoms: C6_7  and  C7_8
REMARK    2  A    between atoms: C8_10  and  C9_11
REMARK    3  A    between atoms: C15_17  and  C16_18
REMARK                            x       y       z     vdW  Elec       q    Type
REMARK                         _______ _______ _______ _____ _____    ______ ____
ROOT
ATOM      1  C7  UNL     1      28.337  -9.461 -38.492  0.00  0.00    +0.000 A 
ATOM      2  N1  UNL     1      29.460 -10.036 -38.977  0.00  0.00    +0.000 NA
ATOM      3  C8  UNL     1      29.438  -9.767 -40.298  0.00  0.00    +0.000 A 
ATOM      4  C15 UNL     1      28.299  -9.028 -40.592  0.00  0.00    +0.000 A 
ATOM      5  N2  UNL     1      27.608  -8.853 -39.452  0.00  0.00    +0.000 N 
ATOM      6  H16 UNL     1      26.700  -8.351 -39.344  0.00  0.00    +0.000 HD
ENDROOT
BRANCH   1  13
ATOM      7  O1  UNL     1      25.684  -8.873 -37.440  0.00  0.00    +0.000 OA
ATOM      8  C1  UNL     1      26.543  -9.314 -36.630  0.00  0.00    +0.000 C 
ATOM      9  C2  UNL     1      26.119  -9.621 -35.218  0.00  0.00    +0.000 C 
ATOM     10  C3  UNL     1      27.283  -9.728 -34.270  0.00  0.00    +0.000 C 
ATOM     11  C4  UNL     1      28.547  -9.816 -34.695  0.00  0.00    +0.000 C 
ATOM     12  C5  UNL     1      28.884  -9.751 -36.128  0.00  0.00    +0.000 C 
ATOM     13  C6  UNL     1      27.948  -9.525 -37.062  0.00  0.00    +0.000 C 
ENDBRANCH   1  13
BRANCH   3  14
ATOM     14  C9  UNL     1      30.461 -10.280 -41.234  0.00  0.00    +0.000 A 
ATOM     15  C10 UNL     1      30.135 -11.239 -42.210  0.00  0.00    +0.000 A 
ATOM     16  C11 UNL     1      31.119 -11.726 -43.076  0.00  0.00    +0.000 A 
ATOM     17  C12 UNL     1      32.436 -11.273 -42.965  0.00  0.00    +0.000 A 
ATOM     18  C13 UNL     1      32.773 -10.338 -41.983  0.00  0.00    +0.000 A 
ATOM     19  C14 UNL     1      31.792  -9.848 -41.115  0.00  0.00    +0.000 A 
ENDBRANCH   3  14
BRANCH   4  20
ATOM     20  C16 UNL     1      27.902  -8.431 -41.885  0.00  0.00    +0.000 A 
ATOM     21  C17 UNL     1      26.690  -8.789 -42.502  0.00  0.00    +0.000 A 
ATOM     22  C18 UNL     1      26.332  -8.229 -43.732  0.00  0.00    +0.000 A 
ATOM     23  C19 UNL     1      27.185  -7.318 -44.362  0.00  0.00    +0.000 A 
ATOM     24  C20 UNL     1      28.400  -6.971 -43.765  0.00  0.00    +0.000 A 
ATOM     25  C21 UNL     1      28.760  -7.529 -42.534  0.00  0.00    +0.000 A 
ENDBRANCH   4  20
TORSDOF 3
ENDMDL
MODEL 5
REMARK VINA RESULT:    -6.003      3.041      8.680
REMARK INTER + INTRA:          -8.224
REMARK INTER:                  -7.234
REMARK INTRA:                  -0.991
REMARK UNBOUND:                -1.169
REMARK  Name = resultss/4CJN/ligands/lig_401_t2.pdb
REMARK  3 active torsions:
REMARK  status: ('A' for Active; 'I' for Inactive)
REMARK    1  A    between atoms: C6_7  and  C7_8
REMARK    2  A    between atoms: C8_10  and  C9_11
REMARK    3  A    between atoms: C15_17  and  C16_18
REMARK                            x       y       z     vdW  Elec       q    Type
REMARK                         _______ _______ _______ _____ _____    ______ ____
ROOT
ATOM      1  C7  UNL     1      26.909  -9.108 -38.216  0.00  0.00    +0.000 A 
ATOM      2  N1  UNL     1      27.955  -9.075 -37.362  0.00  0.00    +0.000 NA
ATOM      3  C8  UNL     1      27.401  -8.859 -36.152  0.00  0.00    +0.000 A 
ATOM      4  C15 UNL     1      26.022  -8.767 -36.294  0.00  0.00    +0.000 A 
ATOM      5  N2  UNL     1      25.726  -8.912 -37.597  0.00  0.00    +0.000 N 
ATOM      6  H16 UNL     1      24.775  -8.877 -38.027  0.00  0.00    +0.000 HD
ENDROOT
BRANCH   1  13
ATOM      7  O1  UNL     1      24.723  -9.242 -40.139  0.00  0.00    +0.000 OA
ATOM      8  C1  UNL     1      25.897  -9.255 -40.595  0.00  0.00    +0.000 C 
ATOM      9  C2  UNL     1      26.096  -9.217 -42.088  0.00  0.00    +0.000 C 
ATOM     10  C3  UNL     1      27.474  -9.655 -42.505  0.00  0.00    +0.000 C 
ATOM     11  C4  UNL     1      28.477  -9.789 -41.631  0.00  0.00    +0.000 C 
ATOM     12  C5  UNL     1      28.275  -9.574 -40.188  0.00  0.00    +0.000 C 
ATOM     13  C6  UNL     1      27.063  -9.310 -39.678  0.00  0.00    +0.000 C 
ENDBRANCH   1  13
BRANCH   3  14
ATOM     14  C9  UNL     1      28.208  -8.680 -34.926  0.00  0.00    +0.000 A 
ATOM     15  C10 UNL     1      28.380  -7.409 -34.349  0.00  0.00    +0.000 A 
ATOM     16  C11 UNL     1      29.160  -7.257 -33.199  0.00  0.00    +0.000 A 
ATOM     17  C12 UNL     1      29.786  -8.366 -32.624  0.00  0.00    +0.000 A 
ATOM     18  C13 UNL     1      29.639  -9.629 -33.204  0.00  0.00    +0.000 A 
ATOM     19  C14 UNL     1      28.859  -9.786 -34.354  0.00  0.00    +0.000 A 
ENDBRANCH   3  14
BRANCH   4  20
ATOM     20  C16 UNL     1      24.999  -8.627 -35.235  0.00  0.00    +0.000 A 
ATOM     21  C17 UNL     1      25.123  -9.319 -34.017  0.00  0.00    +0.000 A 
ATOM     22  C18 UNL     1      24.142  -9.191 -33.030  0.00  0.00    +0.000 A 
ATOM     23  C19 UNL     1      23.024  -8.381 -33.254  0.00  0.00    +0.000 A 
ATOM     24  C20 UNL     1      22.884  -7.704 -34.468  0.00  0.00    +0.000 A 
ATOM     25  C21 UNL     1      23.865  -7.830 -35.458  0.00  0.00    +0.000 A 
ENDBRANCH   4  20
TORSDOF 3
ENDMDL
MODEL 6
REMARK VINA RESULT:    -5.952      3.244      7.938
REMARK INTER + INTRA:          -8.164
REMARK INTER:                  -6.995
REMARK INTRA:                  -1.169
REMARK UNBOUND:                -1.169
REMARK  Name = resultss/4CJN/ligands/lig_401_t2.pdb
REMARK  3 active torsions:
REMARK  status: ('A' for Active; 'I' for Inactive)
REMARK    1  A    between atoms: C6_7  and  C7_8
REMARK    2  A    between atoms: C8_10  and  C9_11
REMARK    3  A    between atoms: C15_17  and  C16_18
REMARK                            x       y       z     vdW  Elec       q    Type
REMARK                         _______ _______ _______ _____ _____    ______ ____
ROOT
ATOM      1  C7  UNL     1      26.207  -8.880 -38.322  0.00  0.00    +0.000 A 
ATOM      2  N1  UNL     1      25.135  -8.590 -37.551  0.00  0.00    +0.000 NA
ATOM      3  C8  UNL     1      25.627  -8.513 -36.297  0.00  0.00    +0.000 A 
ATOM      4  C15 UNL     1      26.995  -8.755 -36.331  0.00  0.00    +0.000 A 
ATOM      5  N2  UNL     1      27.345  -8.997 -37.606  0.00  0.00    +0.000 N 
ATOM      6  H16 UNL     1      28.301  -9.228 -37.956  0.00  0.00    +0.000 HD
ENDROOT
BRANCH   1  13
ATOM      7  O1  UNL     1      28.447  -8.716 -40.179  0.00  0.00    +0.000 OA
ATOM      8  C1  UNL     1      27.333  -9.079 -40.645  0.00  0.00    +0.000 C 
ATOM      9  C2  UNL     1      27.257  -9.515 -42.084  0.00  0.00    +0.000 C 
ATOM     10  C3  UNL     1      25.850  -9.514 -42.620  0.00  0.00    +0.000 C 
ATOM     11  C4  UNL     1      24.782  -9.406 -41.825  0.00  0.00    +0.000 C 
ATOM     12  C5  UNL     1      24.919  -9.219 -40.370  0.00  0.00    +0.000 C 
ATOM     13  C6  UNL     1      26.119  -9.072 -39.790  0.00  0.00    +0.000 C 
ENDBRANCH   1  13
BRANCH   3  14
ATOM     14  C9  UNL     1      24.769  -8.281 -35.116  0.00  0.00    +0.000 A 
ATOM     15  C10 UNL     1      23.980  -7.121 -35.008  0.00  0.00    +0.000 A 
ATOM     16  C11 UNL     1      23.187  -6.910 -33.877  0.00  0.00    +0.000 A 
ATOM     17  C12 UNL     1      23.185  -7.845 -32.839  0.00  0.00    +0.000 A 
ATOM     18  C13 UNL     1      23.983  -8.989 -32.927  0.00  0.00    +0.000 A 
ATOM     19  C14 UNL     1      24.777  -9.205 -34.057  0.00  0.00    +0.000 A 
ENDBRANCH   3  14
BRANCH   4  20
ATOM     20  C16 UNL     1      27.965  -8.686 -35.218  0.00  0.00    +0.000 A 
ATOM     21  C17 UNL     1      28.473  -9.858 -34.629  0.00  0.00    +0.000 A 
ATOM     22  C18 UNL     1      29.378  -9.779 -33.567  0.00  0.00    +0.000 A 
ATOM     23  C19 UNL     1      29.776  -8.532 -33.076  0.00  0.00    +0.000 A 
ATOM     24  C20 UNL     1      29.264  -7.362 -33.643  0.00  0.00    +0.000 A 
ATOM     25  C21 UNL     1      28.357  -7.438 -34.706  0.00  0.00    +0.000 A 
ENDBRANCH   4  20
TORSDOF 3
ENDMDL
MODEL 7
REMARK VINA RESULT:    -5.925      2.613      3.618
REMARK INTER + INTRA:          -8.133
REMARK INTER:                  -6.877
REMARK INTRA:                  -1.256
REMARK UNBOUND:                -1.169
REMARK  Name = resultss/4CJN/ligands/lig_401_t2.pdb
REMARK  3 active torsions:
REMARK  status: ('A' for Active; 'I' for Inactive)
REMARK    1  A    between atoms: C6_7  and  C7_8
REMARK    2  A    between atoms: C8_10  and  C9_11
REMARK    3  A    between atoms: C15_17  and  C16_18
REMARK                            x       y       z     vdW  Elec       q    Type
REMARK                         _______ _______ _______ _____ _____    ______ ____
ROOT
ATOM      1  C7  UNL     1      25.855  -8.847 -37.590  0.00  0.00    +0.000 A 
ATOM      2  N1  UNL     1      25.123  -8.539 -38.683  0.00  0.00    +0.000 NA
ATOM      3  C8  UNL     1      25.968  -8.711 -39.720  0.00  0.00    +0.000 A 
ATOM      4  C15 UNL     1      27.203  -9.124 -39.235  0.00  0.00    +0.000 A 
ATOM      5  N2  UNL     1      27.124  -9.194 -37.895  0.00  0.00    +0.000 N 
ATOM      6  H16 UNL     1      27.890  -9.460 -37.239  0.00  0.00    +0.000 HD
ENDROOT
BRANCH   1  13
ATOM      7  O1  UNL     1      26.898 -10.318 -35.301  0.00  0.00    +0.000 OA
ATOM      8  C1  UNL     1      25.982  -9.480 -35.083  0.00  0.00    +0.000 C 
ATOM      9  C2  UNL     1      25.573  -9.207 -33.660  0.00  0.00    +0.000 C 
ATOM     10  C3  UNL     1      24.229  -8.536 -33.557  0.00  0.00    +0.000 C 
ATOM     11  C4  UNL     1      23.614  -8.001 -34.616  0.00  0.00    +0.000 C 
ATOM     12  C5  UNL     1      24.190  -8.091 -35.969  0.00  0.00    +0.000 C 
ATOM     13  C6  UNL     1      25.317  -8.779 -36.210  0.00  0.00    +0.000 C 
ENDBRANCH   1  13
BRANCH   3  14
ATOM     14  C9  UNL     1      25.589  -8.409 -41.117  0.00  0.00    +0.000 A 
ATOM     15  C10 UNL     1      25.010  -9.392 -41.940  0.00  0.00    +0.000 A 
ATOM     16  C11 UNL     1      24.673  -9.094 -43.264  0.00  0.00    +0.000 A 
ATOM     17  C12 UNL     1      24.924  -7.821 -43.781  0.00  0.00    +0.000 A 
ATOM     18  C13 UNL     1      25.519  -6.845 -42.977  0.00  0.00    +0.000 A 
ATOM     19  C14 UNL     1      25.858  -7.138 -41.652  0.00  0.00    +0.000 A 
ENDBRANCH   3  14
BRANCH   4  20
ATOM     20  C16 UNL     1      28.402  -9.521 -40.003  0.00  0.00    +0.000 A 
ATOM     21  C17 UNL     1      29.541  -8.697 -40.039  0.00  0.00    +0.000 A 
ATOM     22  C18 UNL     1      30.663  -9.076 -40.781  0.00  0.00    +0.000 A 
ATOM     23  C19 UNL     1      30.655 -10.274 -41.502  0.00  0.00    +0.000 A 
ATOM     24  C20 UNL     1      29.522 -11.091 -41.486  0.00  0.00    +0.000 A 
ATOM     25  C21 UNL     1      28.397 -10.715 -40.745  0.00  0.00    +0.000 A 
ENDBRANCH   4  20
TORSDOF 3
ENDMDL
MODEL 8
REMARK VINA RESULT:    -5.905      3.424      5.911
REMARK INTER + INTRA:          -8.110
REMARK INTER:                  -6.915
REMARK INTRA:                  -1.195
REMARK UNBOUND:                -1.169
REMARK  Name = resultss/4CJN/ligands/lig_401_t2.pdb
REMARK  3 active torsions:
REMARK  status: ('A' for Active; 'I' for Inactive)
REMARK    1  A    between atoms: C6_7  and  C7_8
REMARK    2  A    between atoms: C8_10  and  C9_11
REMARK    3  A    between atoms: C15_17  and  C16_18
REMARK                            x       y       z     vdW  Elec       q    Type
REMARK                         _______ _______ _______ _____ _____    ______ ____
ROOT
ATOM      1  C7  UNL     1      25.274  -8.591 -37.278  0.00  0.00    +0.000 A 
ATOM      2  N1  UNL     1      26.525  -8.993 -37.593  0.00  0.00    +0.000 NA
ATOM      3  C8  UNL     1      26.578  -8.922 -38.938  0.00  0.00    +0.000 A 
ATOM      4  C15 UNL     1      25.353  -8.473 -39.418  0.00  0.00    +0.000 A 
ATOM      5  N2  UNL     1      24.538  -8.281 -38.366  0.00  0.00    +0.000 N 
ATOM      6  H16 UNL     1      23.546  -7.959 -38.398  0.00  0.00    +0.000 HD
ENDROOT
BRANCH   1  13
ATOM      7  O1  UNL     1      22.926  -7.105 -36.399  0.00  0.00    +0.000 OA
ATOM      8  C1  UNL     1      23.501  -7.835 -35.548  0.00  0.00    +0.000 C 
ATOM      9  C2  UNL     1      22.880  -7.988 -34.185  0.00  0.00    +0.000 C 
ATOM     10  C3  UNL     1      23.846  -8.517 -33.159  0.00  0.00    +0.000 C 
ATOM     11  C4  UNL     1      25.027  -9.047 -33.494  0.00  0.00    +0.000 C 
ATOM     12  C5  UNL     1      25.483  -9.088 -34.894  0.00  0.00    +0.000 C 
ATOM     13  C6  UNL     1      24.770  -8.529 -35.884  0.00  0.00    +0.000 C 
ENDBRANCH   1  13
BRANCH   3  14
ATOM     14  C9  UNL     1      27.762  -9.348 -39.713  0.00  0.00    +0.000 A 
ATOM     15  C10 UNL     1      28.878  -8.503 -39.858  0.00  0.00    +0.000 A 
ATOM     16  C11 UNL     1      29.983  -8.917 -40.609  0.00  0.00    +0.000 A 
ATOM     17  C12 UNL     1      29.978 -10.166 -41.233  0.00  0.00    +0.000 A 
ATOM     18  C13 UNL     1      28.865 -11.002 -41.114  0.00  0.00    +0.000 A 
ATOM     19  C14 UNL     1      27.758 -10.594 -40.364  0.00  0.00    +0.000 A 
ENDBRANCH   3  14
BRANCH   4  20
ATOM     20  C16 UNL     1      24.976  -8.155 -40.811  0.00  0.00    +0.000 A 
ATOM     21  C17 UNL     1      25.685  -7.189 -41.548  0.00  0.00    +0.000 A 
ATOM     22  C18 UNL     1      25.309  -6.886 -42.859  0.00  0.00    +0.000 A 
ATOM     23  C19 UNL     1      24.217  -7.535 -43.443  0.00  0.00    +0.000 A 
ATOM     24  C20 UNL     1      23.496  -8.483 -42.713  0.00  0.00    +0.000 A 
ATOM     25  C21 UNL     1      23.869  -8.789 -41.400  0.00  0.00    +0.000 A 
ENDBRANCH   4  20
TORSDOF 3
ENDMDL
MODEL 9
REMARK VINA RESULT:    -5.409      4.324      7.746
REMARK INTER + INTRA:          -7.527
REMARK INTER:                  -6.438
REMARK INTRA:                  -1.089
REMARK UNBOUND:                -1.169
REMARK  Name = resultss/4CJN/ligands/lig_401_t2.pdb
REMARK  3 active torsions:
REMARK  status: ('A' for Active; 'I' for Inactive)
REMARK    1  A    between atoms: C6_7  and  C7_8
REMARK    2  A    between atoms: C8_10  and  C9_11
REMARK    3  A    between atoms: C15_17  and  C16_18
REMARK                            x       y       z     vdW  Elec       q    Type
REMARK                         _______ _______ _______ _____ _____    ______ ____
ROOT
ATOM      1  C7  UNL     1      29.974  -8.689 -33.186  0.00  0.00    +0.000 A 
ATOM      2  N1  UNL     1      29.940  -8.794 -34.533  0.00  0.00    +0.000 NA
ATOM      3  C8  UNL     1      28.635  -8.676 -34.852  0.00  0.00    +0.000 A 
ATOM      4  C15 UNL     1      27.898  -8.495 -33.688  0.00  0.00    +0.000 A 
ATOM      5  N2  UNL     1      28.748  -8.519 -32.647  0.00  0.00    +0.000 N 
ATOM      6  H16 UNL     1      28.500  -8.424 -31.638  0.00  0.00    +0.000 HD
ENDROOT
BRANCH   1  13
ATOM      7  O1  UNL     1      31.363 -11.159 -32.510  0.00  0.00    +0.000 OA
ATOM      8  C1  UNL     1      31.924 -10.075 -32.196  0.00  0.00    +0.000 C 
ATOM      9  C2  UNL     1      33.311 -10.118 -31.611  0.00  0.00    +0.000 C 
ATOM     10  C3  UNL     1      33.687  -8.842 -30.906  0.00  0.00    +0.000 C 
ATOM     11  C4  UNL     1      32.976  -7.718 -31.035  0.00  0.00    +0.000 C 
ATOM     12  C5  UNL     1      31.737  -7.676 -31.831  0.00  0.00    +0.000 C 
ATOM     13  C6  UNL     1      31.228  -8.779 -32.399  0.00  0.00    +0.000 C 
ENDBRANCH   1  13
BRANCH   3  14
ATOM     14  C9  UNL     1      28.138  -8.807 -36.238  0.00  0.00    +0.000 A 
ATOM     15  C10 UNL     1      27.582  -7.707 -36.917  0.00  0.00    +0.000 A 
ATOM     16  C11 UNL     1      27.101  -7.853 -38.222  0.00  0.00    +0.000 A 
ATOM     17  C12 UNL     1      27.156  -9.098 -38.853  0.00  0.00    +0.000 A 
ATOM     18  C13 UNL     1      27.686 -10.201 -38.178  0.00  0.00    +0.000 A 
ATOM     19  C14 UNL     1      28.168 -10.060 -36.873  0.00  0.00    +0.000 A 
ENDBRANCH   3  14
BRANCH   4  20
ATOM     20  C16 UNL     1      26.450  -8.230 -33.553  0.00  0.00    +0.000 A 
ATOM     21  C17 UNL     1      25.513  -9.274 -33.648  0.00  0.00    +0.000 A 
ATOM     22  C18 UNL     1      24.146  -9.007 -33.534  0.00  0.00    +0.000 A 
ATOM     23  C19 UNL     1      23.701  -7.697 -33.334  0.00  0.00    +0.000 A 
ATOM     24  C20 UNL     1      24.624  -6.651 -33.255  0.00  0.00    +0.000 A 
ATOM     25  C21 UNL     1      25.993  -6.914 -33.370  0.00  0.00    +0.000 A 
ENDBRANCH   4  20
TORSDOF 3
ENDMDL
