MODEL 1
REMARK VINA RESULT:    -6.237      0.000      0.000
REMARK INTER + INTRA:          -8.481
REMARK INTER:                  -8.060
REMARK INTRA:                  -0.421
REMARK UNBOUND:                -0.421
REMARK  Name = resultss/4CJN/ligands/lig_329_t0.pdb
REMARK  7 active torsions:
REMARK  status: ('A' for Active; 'I' for Inactive)
REMARK    1  A    between atoms: C1_1  and  O1_2
REMARK    2  A    between atoms: O1_2  and  C2_3
REMARK    3  A    between atoms: C4_5  and  O2_6
REMARK    4  A    between atoms: C6_8  and  C7_9
REMARK    5  A    between atoms: C7_9  and  C8_10
REMARK    6  A    between atoms: C8_10  and  C9_11
REMARK    7  A    between atoms: C13_15  and  O3_16
REMARK                            x       y       z     vdW  Elec       q    Type
REMARK                         _______ _______ _______ _____ _____    ______ ____
ROOT
ATOM      1  C2  UNL     1      26.775  -9.435 -42.018  0.00  0.00    +0.000 A 
ATOM      2  C3  UNL     1      26.744 -10.204 -40.838  0.00  0.00    +0.000 A 
ATOM      3  C4  UNL     1      27.872 -10.933 -40.439  0.00  0.00    +0.000 A 
ATOM      4  C5  UNL     1      29.036 -10.893 -41.213  0.00  0.00    +0.000 A 
ATOM      5  C6  UNL     1      29.085 -10.119 -42.381  0.00  0.00    +0.000 A 
ATOM      6  C15 UNL     1      27.947  -9.403 -42.783  0.00  0.00    +0.000 A 
ENDROOT
BRANCH   1   8
ATOM      7  C1  UNL     1      24.379  -9.245 -42.709  0.00  0.00    +0.000 C 
ATOM      8  O1  UNL     1      25.669  -8.695 -42.463  0.00  0.00    +0.000 OA
ENDBRANCH   1   8
BRANCH   3   9
ATOM      9  O2  UNL     1      27.846 -11.702 -39.278  0.00  0.00    +0.000 OA
ATOM     10  H5  UNL     1      28.679 -11.846 -38.719  0.00  0.00    +0.000 HD
ENDBRANCH   3   9
BRANCH   5  11
ATOM     11  C7  UNL     1      30.328 -10.106 -43.230  0.00  0.00    +0.000 C 
BRANCH  11  12
ATOM     12  C8  UNL     1      31.278 -11.231 -42.811  0.00  0.00    +0.000 C 
BRANCH  12  13
ATOM     13  C9  UNL     1      32.070 -11.723 -43.993  0.00  0.00    +0.000 A 
ATOM     14  C10 UNL     1      32.141 -13.098 -44.275  0.00  0.00    +0.000 A 
ATOM     15  C11 UNL     1      32.848 -13.551 -45.391  0.00  0.00    +0.000 A 
ATOM     16  C12 UNL     1      33.481 -12.638 -46.240  0.00  0.00    +0.000 A 
ATOM     17  C13 UNL     1      33.404 -11.264 -45.976  0.00  0.00    +0.000 A 
ATOM     18  C14 UNL     1      32.695 -10.809 -44.858  0.00  0.00    +0.000 A 
BRANCH  17  19
ATOM     19  O3  UNL     1      34.023 -10.343 -46.818  0.00  0.00    +0.000 OA
ATOM     20  H14 UNL     1      33.542  -9.952 -47.620  0.00  0.00    +0.000 HD
ENDBRANCH  17  19
ENDBRANCH  12  13
ENDBRANCH  11  12
ENDBRANCH   5  11
TORSDOF 6
ENDMDL
MODEL 2
REMARK VINA RESULT:    -5.994      1.268      1.705
REMARK INTER + INTRA:          -8.168
REMARK INTER:                  -7.740
REMARK INTRA:                  -0.427
REMARK UNBOUND:                -0.421
REMARK  Name = resultss/4CJN/ligands/lig_329_t0.pdb
REMARK  7 active torsions:
REMARK  status: ('A' for Active; 'I' for Inactive)
REMARK    1  A    between atoms: C1_1  and  O1_2
REMARK    2  A    between atoms: O1_2  and  C2_3
REMARK    3  A    between atoms: C4_5  and  O2_6
REMARK    4  A    between atoms: C6_8  and  C7_9
REMARK    5  A    between atoms: C7_9  and  C8_10
REMARK    6  A    between atoms: C8_10  and  C9_11
REMARK    7  A    between atoms: C13_15  and  O3_16
REMARK                            x       y       z     vdW  Elec       q    Type
REMARK                         _______ _______ _______ _____ _____    ______ ____
ROOT
ATOM      1  C2  UNL     1      27.397  -9.176 -42.259  0.00  0.00    +0.000 A 
ATOM      2  C3  UNL     1      27.182  -9.994 -41.133  0.00  0.00    +0.000 A 
ATOM      3  C4  UNL     1      28.160 -10.911 -40.727  0.00  0.00    +0.000 A 
ATOM      4  C5  UNL     1      29.359 -11.011 -41.441  0.00  0.00    +0.000 A 
ATOM      5  C6  UNL     1      29.592 -10.192 -42.554  0.00  0.00    +0.000 A 
ATOM      6  C15 UNL     1      28.601  -9.286 -42.964  0.00  0.00    +0.000 A 
ENDROOT
BRANCH   1   8
ATOM      7  C1  UNL     1      25.187  -8.598 -43.278  0.00  0.00    +0.000 C 
ATOM      8  O1  UNL     1      26.445  -8.249 -42.708  0.00  0.00    +0.000 OA
ENDBRANCH   1   8
BRANCH   3   9
ATOM      9  O2  UNL     1      27.951 -11.729 -39.620  0.00  0.00    +0.000 OA
ATOM     10  H5  UNL     1      28.713 -11.996 -39.007  0.00  0.00    +0.000 HD
ENDBRANCH   3   9
BRANCH   5  11
ATOM     11  C7  UNL     1      30.868 -10.327 -43.341  0.00  0.00    +0.000 C 
BRANCH  11  12
ATOM     12  C8  UNL     1      31.367 -11.774 -43.314  0.00  0.00    +0.000 C 
BRANCH  12  13
ATOM     13  C9  UNL     1      32.261 -12.048 -44.494  0.00  0.00    +0.000 A 
ATOM     14  C10 UNL     1      32.957 -10.998 -45.115  0.00  0.00    +0.000 A 
ATOM     15  C11 UNL     1      33.812 -11.258 -46.188  0.00  0.00    +0.000 A 
ATOM     16  C12 UNL     1      33.986 -12.567 -46.645  0.00  0.00    +0.000 A 
ATOM     17  C13 UNL     1      33.308 -13.624 -46.024  0.00  0.00    +0.000 A 
ATOM     18  C14 UNL     1      32.451 -13.365 -44.949  0.00  0.00    +0.000 A 
BRANCH  17  19
ATOM     19  O3  UNL     1      33.479 -14.934 -46.465  0.00  0.00    +0.000 OA
ATOM     20  H14 UNL     1      34.329 -15.229 -46.933  0.00  0.00    +0.000 HD
ENDBRANCH  17  19
ENDBRANCH  12  13
ENDBRANCH  11  12
ENDBRANCH   5  11
TORSDOF 6
ENDMDL
MODEL 3
REMARK VINA RESULT:    -5.498      1.476      2.180
REMARK INTER + INTRA:          -7.526
REMARK INTER:                  -7.023
REMARK INTRA:                  -0.503
REMARK UNBOUND:                -0.421
REMARK  Name = resultss/4CJN/ligands/lig_329_t0.pdb
REMARK  7 active torsions:
REMARK  status: ('A' for Active; 'I' for Inactive)
REMARK    1  A    between atoms: C1_1  and  O1_2
REMARK    2  A    between atoms: O1_2  and  C2_3
REMARK    3  A    between atoms: C4_5  and  O2_6
REMARK    4  A    between atoms: C6_8  and  C7_9
REMARK    5  A    between atoms: C7_9  and  C8_10
REMARK    6  A    between atoms: C8_10  and  C9_11
REMARK    7  A    between atoms: C13_15  and  O3_16
REMARK                            x       y       z     vdW  Elec       q    Type
REMARK                         _______ _______ _______ _____ _____    ______ ____
ROOT
ATOM      1  C2  UNL     1      27.395  -9.431 -40.919  0.00  0.00    +0.000 A 
ATOM      2  C3  UNL     1      27.655  -8.142 -41.423  0.00  0.00    +0.000 A 
ATOM      3  C4  UNL     1      28.779  -7.910 -42.227  0.00  0.00    +0.000 A 
ATOM      4  C5  UNL     1      29.644  -8.964 -42.535  0.00  0.00    +0.000 A 
ATOM      5  C6  UNL     1      29.388 -10.255 -42.052  0.00  0.00    +0.000 A 
ATOM      6  C15 UNL     1      28.269 -10.478 -41.234  0.00  0.00    +0.000 A 
ENDROOT
BRANCH   1   8
ATOM      7  C1  UNL     1      24.973  -9.215 -40.334  0.00  0.00    +0.000 C 
ATOM      8  O1  UNL     1      26.288  -9.711 -40.104  0.00  0.00    +0.000 OA
ENDBRANCH   1   8
BRANCH   3   9
ATOM      9  O2  UNL     1      29.046  -6.636 -42.722  0.00  0.00    +0.000 OA
ATOM     10  H5  UNL     1      29.896  -6.141 -42.480  0.00  0.00    +0.000 HD
ENDBRANCH   3   9
BRANCH   5  11
ATOM     11  C7  UNL     1      30.341 -11.381 -42.355  0.00  0.00    +0.000 C 
BRANCH  11  12
ATOM     12  C8  UNL     1      31.742 -10.836 -42.647  0.00  0.00    +0.000 C 
BRANCH  12  13
ATOM     13  C9  UNL     1      32.335 -11.517 -43.852  0.00  0.00    +0.000 A 
ATOM     14  C10 UNL     1      32.424 -12.918 -43.902  0.00  0.00    +0.000 A 
ATOM     15  C11 UNL     1      32.943 -13.549 -45.034  0.00  0.00    +0.000 A 
ATOM     16  C12 UNL     1      33.369 -12.791 -46.128  0.00  0.00    +0.000 A 
ATOM     17  C13 UNL     1      33.271 -11.393 -46.094  0.00  0.00    +0.000 A 
ATOM     18  C14 UNL     1      32.751 -10.760 -44.961  0.00  0.00    +0.000 A 
BRANCH  17  19
ATOM     19  O3  UNL     1      33.684 -10.626 -47.181  0.00  0.00    +0.000 OA
ATOM     20  H14 UNL     1      34.136  -9.728 -47.054  0.00  0.00    +0.000 HD
ENDBRANCH  17  19
ENDBRANCH  12  13
ENDBRANCH  11  12
ENDBRANCH   5  11
TORSDOF 6
ENDMDL
MODEL 4
REMARK VINA RESULT:    -5.488      5.010      7.467
REMARK INTER + INTRA:          -7.513
REMARK INTER:                  -7.000
REMARK INTRA:                  -0.513
REMARK UNBOUND:                -0.421
REMARK  Name = resultss/4CJN/ligands/lig_329_t0.pdb
REMARK  7 active torsions:
REMARK  status: ('A' for Active; 'I' for Inactive)
REMARK    1  A    between atoms: C1_1  and  O1_2
REMARK    2  A    between atoms: O1_2  and  C2_3
REMARK    3  A    between atoms: C4_5  and  O2_6
REMARK    4  A    between atoms: C6_8  and  C7_9
REMARK    5  A    between atoms: C7_9  and  C8_10
REMARK    6  A    between atoms: C8_10  and  C9_11
REMARK    7  A    between atoms: C13_15  and  O3_16
REMARK                            x       y       z     vdW  Elec       q    Type
REMARK                         _______ _______ _______ _____ _____    ______ ____
ROOT
ATOM      1  C2  UNL     1      28.046  -9.924 -34.726  0.00  0.00    +0.000 A 
ATOM      2  C3  UNL     1      26.706  -9.552 -34.504  0.00  0.00    +0.000 A 
ATOM      3  C4  UNL     1      25.877  -9.214 -35.582  0.00  0.00    +0.000 A 
ATOM      4  C5  UNL     1      26.381  -9.252 -36.886  0.00  0.00    +0.000 A 
ATOM      5  C6  UNL     1      27.709  -9.636 -37.122  0.00  0.00    +0.000 A 
ATOM      6  C15 UNL     1      28.538  -9.958 -36.036  0.00  0.00    +0.000 A 
ENDROOT
BRANCH   1   8
ATOM      7  C1  UNL     1      29.895  -9.384 -33.130  0.00  0.00    +0.000 C 
ATOM      8  O1  UNL     1      28.917 -10.262 -33.680  0.00  0.00    +0.000 OA
ENDBRANCH   1   8
BRANCH   3   9
ATOM      9  O2  UNL     1      24.554  -8.837 -35.368  0.00  0.00    +0.000 OA
ATOM     10  H5  UNL     1      24.259  -7.871 -35.445  0.00  0.00    +0.000 HD
ENDBRANCH   3   9
BRANCH   5  11
ATOM     11  C7  UNL     1      28.258  -9.642 -38.524  0.00  0.00    +0.000 C 
BRANCH  11  12
ATOM     12  C8  UNL     1      27.597 -10.744 -39.356  0.00  0.00    +0.000 C 
BRANCH  12  13
ATOM     13  C9  UNL     1      27.080 -10.188 -40.656  0.00  0.00    +0.000 A 
ATOM     14  C10 UNL     1      27.961  -9.584 -41.569  0.00  0.00    +0.000 A 
ATOM     15  C11 UNL     1      27.485  -9.098 -42.789  0.00  0.00    +0.000 A 
ATOM     16  C12 UNL     1      26.131  -9.218 -43.112  0.00  0.00    +0.000 A 
ATOM     17  C13 UNL     1      25.246  -9.831 -42.215  0.00  0.00    +0.000 A 
ATOM     18  C14 UNL     1      25.721 -10.318 -40.993  0.00  0.00    +0.000 A 
BRANCH  17  19
ATOM     19  O3  UNL     1      23.895  -9.963 -42.529  0.00  0.00    +0.000 OA
ATOM     20  H14 UNL     1      23.590 -10.191 -43.468  0.00  0.00    +0.000 HD
ENDBRANCH  17  19
ENDBRANCH  12  13
ENDBRANCH  11  12
ENDBRANCH   5  11
TORSDOF 6
ENDMDL
MODEL 5
REMARK VINA RESULT:    -5.251      5.080      6.950
REMARK INTER + INTRA:          -7.207
REMARK INTER:                  -6.636
REMARK INTRA:                  -0.571
REMARK UNBOUND:                -0.421
REMARK  Name = resultss/4CJN/ligands/lig_329_t0.pdb
REMARK  7 active torsions:
REMARK  status: ('A' for Active; 'I' for Inactive)
REMARK    1  A    between atoms: C1_1  and  O1_2
REMARK    2  A    between atoms: O1_2  and  C2_3
REMARK    3  A    between atoms: C4_5  and  O2_6
REMARK    4  A    between atoms: C6_8  and  C7_9
REMARK    5  A    between atoms: C7_9  and  C8_10
REMARK    6  A    between atoms: C8_10  and  C9_11
REMARK    7  A    between atoms: C13_15  and  O3_16
REMARK                            x       y       z     vdW  Elec       q    Type
REMARK                         _______ _______ _______ _____ _____    ______ ____
ROOT
ATOM      1  C2  UNL     1      26.092  -9.042 -35.889  0.00  0.00    +0.000 A 
ATOM      2  C3  UNL     1      26.893  -9.343 -34.771  0.00  0.00    +0.000 A 
ATOM      3  C4  UNL     1      28.193  -9.837 -34.944  0.00  0.00    +0.000 A 
ATOM      4  C5  UNL     1      28.699 -10.027 -36.233  0.00  0.00    +0.000 A 
ATOM      5  C6  UNL     1      27.918  -9.717 -37.355  0.00  0.00    +0.000 A 
ATOM      6  C15 UNL     1      26.611  -9.237 -37.174  0.00  0.00    +0.000 A 
ENDROOT
BRANCH   1   8
ATOM      7  C1  UNL     1      24.166  -8.203 -34.532  0.00  0.00    +0.000 C 
ATOM      8  O1  UNL     1      24.783  -8.554 -35.767  0.00  0.00    +0.000 OA
ENDBRANCH   1   8
BRANCH   3   9
ATOM      9  O2  UNL     1      28.988 -10.145 -33.842  0.00  0.00    +0.000 OA
ATOM     10  H5  UNL     1      29.844  -9.638 -33.648  0.00  0.00    +0.000 HD
ENDBRANCH   3   9
BRANCH   5  11
ATOM     11  C7  UNL     1      28.453  -9.956 -38.742  0.00  0.00    +0.000 C 
BRANCH  11  12
ATOM     12  C8  UNL     1      27.532 -10.900 -39.519  0.00  0.00    +0.000 C 
BRANCH  12  13
ATOM     13  C9  UNL     1      27.010 -10.226 -40.760  0.00  0.00    +0.000 A 
ATOM     14  C10 UNL     1      27.878  -9.495 -41.588  0.00  0.00    +0.000 A 
ATOM     15  C11 UNL     1      27.399  -8.899 -42.757  0.00  0.00    +0.000 A 
ATOM     16  C12 UNL     1      26.055  -9.034 -43.114  0.00  0.00    +0.000 A 
ATOM     17  C13 UNL     1      25.183  -9.773 -42.303  0.00  0.00    +0.000 A 
ATOM     18  C14 UNL     1      25.662 -10.371 -41.132  0.00  0.00    +0.000 A 
BRANCH  17  19
ATOM     19  O3  UNL     1      23.843  -9.922 -42.652  0.00  0.00    +0.000 OA
ATOM     20  H14 UNL     1      23.177 -10.355 -42.023  0.00  0.00    +0.000 HD
ENDBRANCH  17  19
ENDBRANCH  12  13
ENDBRANCH  11  12
ENDBRANCH   5  11
TORSDOF 6
ENDMDL
MODEL 6
REMARK VINA RESULT:    -5.231      2.282      3.637
REMARK INTER + INTRA:          -7.181
REMARK INTER:                  -6.779
REMARK INTRA:                  -0.402
REMARK UNBOUND:                -0.421
REMARK  Name = resultss/4CJN/ligands/lig_329_t0.pdb
REMARK  7 active torsions:
REMARK  status: ('A' for Active; 'I' for Inactive)
REMARK    1  A    between atoms: C1_1  and  O1_2
REMARK    2  A    between atoms: O1_2  and  C2_3
REMARK    3  A    between atoms: C4_5  and  O2_6
REMARK    4  A    between atoms: C6_8  and  C7_9
REMARK    5  A    between atoms: C7_9  and  C8_10
REMARK    6  A    between atoms: C8_10  and  C9_11
REMARK    7  A    between atoms: C13_15  and  O3_16
REMARK                            x       y       z     vdW  Elec       q    Type
REMARK                         _______ _______ _______ _____ _____    ______ ____
ROOT
ATOM      1  C2  UNL     1      30.584  -9.620 -39.745  0.00  0.00    +0.000 A 
ATOM      2  C3  UNL     1      29.208  -9.893 -39.613  0.00  0.00    +0.000 A 
ATOM      3  C4  UNL     1      28.490 -10.441 -40.684  0.00  0.00    +0.000 A 
ATOM      4  C5  UNL     1      29.142 -10.723 -41.887  0.00  0.00    +0.000 A 
ATOM      5  C6  UNL     1      30.515 -10.471 -42.027  0.00  0.00    +0.000 A 
ATOM      6  C15 UNL     1      31.225  -9.908 -40.955  0.00  0.00    +0.000 A 
ENDROOT
BRANCH   1   8
ATOM      7  C1  UNL     1      32.464  -9.702 -38.097  0.00  0.00    +0.000 C 
ATOM      8  O1  UNL     1      31.343  -9.065 -38.704  0.00  0.00    +0.000 OA
ENDBRANCH   1   8
BRANCH   3   9
ATOM      9  O2  UNL     1      27.128 -10.705 -40.563  0.00  0.00    +0.000 OA
ATOM     10  H5  UNL     1      26.788 -11.614 -40.267  0.00  0.00    +0.000 HD
ENDBRANCH   3   9
BRANCH   5  11
ATOM     11  C7  UNL     1      31.207 -10.743 -43.336  0.00  0.00    +0.000 C 
BRANCH  11  12
ATOM     12  C8  UNL     1      31.560 -12.228 -43.459  0.00  0.00    +0.000 C 
BRANCH  12  13
ATOM     13  C9  UNL     1      32.385 -12.475 -44.694  0.00  0.00    +0.000 A 
ATOM     14  C10 UNL     1      33.176 -11.447 -45.234  0.00  0.00    +0.000 A 
ATOM     15  C11 UNL     1      33.967 -11.687 -46.361  0.00  0.00    +0.000 A 
ATOM     16  C12 UNL     1      33.983 -12.954 -46.951  0.00  0.00    +0.000 A 
ATOM     17  C13 UNL     1      33.209 -13.990 -46.410  0.00  0.00    +0.000 A 
ATOM     18  C14 UNL     1      32.417 -13.751 -45.282  0.00  0.00    +0.000 A 
BRANCH  17  19
ATOM     19  O3  UNL     1      33.223 -15.259 -46.984  0.00  0.00    +0.000 OA
ATOM     20  H14 UNL     1      32.482 -15.570 -47.601  0.00  0.00    +0.000 HD
ENDBRANCH  17  19
ENDBRANCH  12  13
ENDBRANCH  11  12
ENDBRANCH   5  11
TORSDOF 6
ENDMDL
MODEL 7
REMARK VINA RESULT:    -5.186      4.628      7.681
REMARK INTER + INTRA:          -7.123
REMARK INTER:                  -6.646
REMARK INTRA:                  -0.477
REMARK UNBOUND:                -0.421
REMARK  Name = resultss/4CJN/ligands/lig_329_t0.pdb
REMARK  7 active torsions:
REMARK  status: ('A' for Active; 'I' for Inactive)
REMARK    1  A    between atoms: C1_1  and  O1_2
REMARK    2  A    between atoms: O1_2  and  C2_3
REMARK    3  A    between atoms: C4_5  and  O2_6
REMARK    4  A    between atoms: C6_8  and  C7_9
REMARK    5  A    between atoms: C7_9  and  C8_10
REMARK    6  A    between atoms: C8_10  and  C9_11
REMARK    7  A    between atoms: C13_15  and  O3_16
REMARK                            x       y       z     vdW  Elec       q    Type
REMARK                         _______ _______ _______ _____ _____    ______ ____
ROOT
ATOM      1  C2  UNL     1      27.440  -8.664 -42.592  0.00  0.00    +0.000 A 
ATOM      2  C3  UNL     1      26.112  -8.917 -42.989  0.00  0.00    +0.000 A 
ATOM      3  C4  UNL     1      25.292  -9.755 -42.222  0.00  0.00    +0.000 A 
ATOM      4  C5  UNL     1      25.792 -10.340 -41.054  0.00  0.00    +0.000 A 
ATOM      5  C6  UNL     1      27.107 -10.083 -40.640  0.00  0.00    +0.000 A 
ATOM      6  C15 UNL     1      27.928  -9.255 -41.421  0.00  0.00    +0.000 A 
ENDROOT
BRANCH   1   8
ATOM      7  C1  UNL     1      28.089  -7.464 -44.688  0.00  0.00    +0.000 C 
ATOM      8  O1  UNL     1      28.301  -7.838 -43.330  0.00  0.00    +0.000 OA
ENDBRANCH   1   8
BRANCH   3   9
ATOM      9  O2  UNL     1      23.981 -10.016 -42.613  0.00  0.00    +0.000 OA
ATOM     10  H5  UNL     1      23.207  -9.454 -42.278  0.00  0.00    +0.000 HD
ENDBRANCH   3   9
BRANCH   5  11
ATOM     11  C7  UNL     1      27.654 -10.742 -39.402  0.00  0.00    +0.000 C 
BRANCH  11  12
ATOM     12  C8  UNL     1      28.707  -9.851 -38.738  0.00  0.00    +0.000 C 
BRANCH  12  13
ATOM     13  C9  UNL     1      28.534  -9.851 -37.243  0.00  0.00    +0.000 A 
ATOM     14  C10 UNL     1      29.637  -9.631 -36.402  0.00  0.00    +0.000 A 
ATOM     15  C11 UNL     1      29.469  -9.598 -35.015  0.00  0.00    +0.000 A 
ATOM     16  C12 UNL     1      28.200  -9.773 -34.458  0.00  0.00    +0.000 A 
ATOM     17  C13 UNL     1      27.090  -9.979 -35.288  0.00  0.00    +0.000 A 
ATOM     18  C14 UNL     1      27.257 -10.012 -36.677  0.00  0.00    +0.000 A 
BRANCH  17  19
ATOM     19  O3  UNL     1      25.819 -10.147 -34.745  0.00  0.00    +0.000 OA
ATOM     20  H14 UNL     1      25.011  -9.668 -35.127  0.00  0.00    +0.000 HD
ENDBRANCH  17  19
ENDBRANCH  12  13
ENDBRANCH  11  12
ENDBRANCH   5  11
TORSDOF 6
ENDMDL
MODEL 8
REMARK VINA RESULT:    -4.835      6.025     10.760
REMARK INTER + INTRA:          -6.670
REMARK INTER:                  -6.125
REMARK INTRA:                  -0.545
REMARK UNBOUND:                -0.421
REMARK  Name = resultss/4CJN/ligands/lig_329_t0.pdb
REMARK  7 active torsions:
REMARK  status: ('A' for Active; 'I' for Inactive)
REMARK    1  A    between atoms: C1_1  and  O1_2
REMARK    2  A    between atoms: O1_2  and  C2_3
REMARK    3  A    between atoms: C4_5  and  O2_6
REMARK    4  A    between atoms: C6_8  and  C7_9
REMARK    5  A    between atoms: C7_9  and  C8_10
REMARK    6  A    between atoms: C8_10  and  C9_11
REMARK    7  A    between atoms: C13_15  and  O3_16
REMARK                            x       y       z     vdW  Elec       q    Type
REMARK                         _______ _______ _______ _____ _____    ______ ____
ROOT
ATOM      1  C2  UNL     1      28.379 -10.232 -37.975  0.00  0.00    +0.000 A 
ATOM      2  C3  UNL     1      29.778 -10.065 -37.969  0.00  0.00    +0.000 A 
ATOM      3  C4  UNL     1      30.443  -9.709 -36.789  0.00  0.00    +0.000 A 
ATOM      4  C5  UNL     1      29.716  -9.525 -35.609  0.00  0.00    +0.000 A 
ATOM      5  C6  UNL     1      28.325  -9.703 -35.597  0.00  0.00    +0.000 A 
ATOM      6  C15 UNL     1      27.663 -10.044 -36.787  0.00  0.00    +0.000 A 
ENDROOT
BRANCH   1   8
ATOM      7  C1  UNL     1      28.183 -10.473 -40.457  0.00  0.00    +0.000 C 
ATOM      8  O1  UNL     1      27.668 -10.579 -39.133  0.00  0.00    +0.000 OA
ENDBRANCH   1   8
BRANCH   3   9
ATOM      9  O2  UNL     1      31.825  -9.535 -36.777  0.00  0.00    +0.000 OA
ATOM     10  H5  UNL     1      32.412  -9.995 -36.091  0.00  0.00    +0.000 HD
ENDBRANCH   3   9
BRANCH   5  11
ATOM     11  C7  UNL     1      27.541  -9.469 -34.334  0.00  0.00    +0.000 C 
BRANCH  11  12
ATOM     12  C8  UNL     1      26.139 -10.072 -34.451  0.00  0.00    +0.000 C 
BRANCH  12  13
ATOM     13  C9  UNL     1      25.090  -8.995 -34.358  0.00  0.00    +0.000 A 
ATOM     14  C10 UNL     1      24.735  -8.252 -35.496  0.00  0.00    +0.000 A 
ATOM     15  C11 UNL     1      23.738  -7.276 -35.415  0.00  0.00    +0.000 A 
ATOM     16  C12 UNL     1      23.083  -7.041 -34.203  0.00  0.00    +0.000 A 
ATOM     17  C13 UNL     1      23.419  -7.787 -33.066  0.00  0.00    +0.000 A 
ATOM     18  C14 UNL     1      24.417  -8.764 -33.145  0.00  0.00    +0.000 A 
BRANCH  17  19
ATOM     19  O3  UNL     1      22.768  -7.567 -31.855  0.00  0.00    +0.000 OA
ATOM     20  H14 UNL     1      22.606  -8.320 -31.196  0.00  0.00    +0.000 HD
ENDBRANCH  17  19
ENDBRANCH  12  13
ENDBRANCH  11  12
ENDBRANCH   5  11
TORSDOF 6
ENDMDL
MODEL 9
REMARK VINA RESULT:    -4.798      4.121      8.826
REMARK INTER + INTRA:          -6.621
REMARK INTER:                  -6.125
REMARK INTRA:                  -0.496
REMARK UNBOUND:                -0.421
REMARK  Name = resultss/4CJN/ligands/lig_329_t0.pdb
REMARK  7 active torsions:
REMARK  status: ('A' for Active; 'I' for Inactive)
REMARK    1  A    between atoms: C1_1  and  O1_2
REMARK    2  A    between atoms: O1_2  and  C2_3
REMARK    3  A    between atoms: C4_5  and  O2_6
REMARK    4  A    between atoms: C6_8  and  C7_9
REMARK    5  A    between atoms: C7_9  and  C8_10
REMARK    6  A    between atoms: C8_10  and  C9_11
REMARK    7  A    between atoms: C13_15  and  O3_16
REMARK                            x       y       z     vdW  Elec       q    Type
REMARK                         _______ _______ _______ _____ _____    ______ ____
ROOT
ATOM      1  C2  UNL     1      27.313  -9.184 -41.819  0.00  0.00    +0.000 A 
ATOM      2  C3  UNL     1      26.230  -9.651 -42.589  0.00  0.00    +0.000 A 
ATOM      3  C4  UNL     1      24.927  -9.611 -42.075  0.00  0.00    +0.000 A 
ATOM      4  C5  UNL     1      24.700  -9.100 -40.793  0.00  0.00    +0.000 A 
ATOM      5  C6  UNL     1      25.768  -8.617 -40.023  0.00  0.00    +0.000 A 
ATOM      6  C15 UNL     1      27.072  -8.675 -40.538  0.00  0.00    +0.000 A 
ENDROOT
BRANCH   1   8
ATOM      7  C1  UNL     1      29.477 -10.359 -42.258  0.00  0.00    +0.000 C 
ATOM      8  O1  UNL     1      28.635  -9.210 -42.287  0.00  0.00    +0.000 OA
ENDBRANCH   1   8
BRANCH   3   9
ATOM      9  O2  UNL     1      23.852 -10.078 -42.827  0.00  0.00    +0.000 OA
ATOM     10  H5  UNL     1      22.962  -9.594 -42.838  0.00  0.00    +0.000 HD
ENDBRANCH   3   9
BRANCH   5  11
ATOM     11  C7  UNL     1      25.524  -8.100 -38.630  0.00  0.00    +0.000 C 
BRANCH  11  12
ATOM     12  C8  UNL     1      26.843  -7.684 -37.972  0.00  0.00    +0.000 C 
BRANCH  12  13
ATOM     13  C9  UNL     1      26.853  -8.069 -36.517  0.00  0.00    +0.000 A 
ATOM     14  C10 UNL     1      27.508  -7.258 -35.575  0.00  0.00    +0.000 A 
ATOM     15  C11 UNL     1      27.487  -7.598 -34.220  0.00  0.00    +0.000 A 
ATOM     16  C12 UNL     1      26.808  -8.742 -33.793  0.00  0.00    +0.000 A 
ATOM     17  C13 UNL     1      26.140  -9.550 -34.723  0.00  0.00    +0.000 A 
ATOM     18  C14 UNL     1      26.159  -9.210 -36.080  0.00  0.00    +0.000 A 
BRANCH  17  19
ATOM     19  O3  UNL     1      25.452 -10.688 -34.309  0.00  0.00    +0.000 OA
ATOM     20  H14 UNL     1      25.496 -11.554 -34.835  0.00  0.00    +0.000 HD
ENDBRANCH  17  19
ENDBRANCH  12  13
ENDBRANCH  11  12
ENDBRANCH   5  11
TORSDOF 6
ENDMDL
