MODEL 1
REMARK VINA RESULT:    -6.483      0.000      0.000
REMARK INTER + INTRA:         -10.224
REMARK INTER:                  -8.946
REMARK INTRA:                  -1.277
REMARK UNBOUND:                -1.277
REMARK  Name = resultss/4CJN/ligands/lig_263_t2.pdb
REMARK  8 active torsions:
REMARK  status: ('A' for Active; 'I' for Inactive)
REMARK    1  A    between atoms: C1_1  and  O1_2
REMARK    2  A    between atoms: O1_2  and  C2_3
REMARK    3  A    between atoms: C5_6  and  C6_7
REMARK    4  A    between atoms: C6_7  and  N1_8
REMARK    5  A    between atoms: C7_9  and  C8_11
REMARK    6  A    between atoms: C9_12  and  N2_13
REMARK    7  A    between atoms: C10_14  and  O3_15
REMARK    8  A    between atoms: C10_14  and  C11_16
REMARK                            x       y       z     vdW  Elec       q    Type
REMARK                         _______ _______ _______ _____ _____    ______ ____
ROOT
ATOM      1  C8  UNL     1      27.673  -8.869 -40.798  0.00  0.00    +0.000 A 
ATOM      2  C9  UNL     1      27.186  -8.832 -39.484  0.00  0.00    +0.000 A 
ATOM      3  S1  UNL     1      25.490  -9.003 -39.485  0.00  0.00    +0.000 S 
ATOM      4  C16 UNL     1      25.400  -9.063 -41.158  0.00  0.00    +0.000 A 
ATOM      5  C17 UNL     1      26.622  -8.986 -41.718  0.00  0.00    +0.000 A 
ATOM      6  C18 UNL     1      26.548  -8.932 -43.195  0.00  0.00    +0.000 C 
ATOM      7  C19 UNL     1      25.022  -8.928 -43.475  0.00  0.00    +0.000 C 
ATOM      8  C20 UNL     1      24.287  -9.075 -42.120  0.00  0.00    +0.000 C 
ENDROOT
BRANCH   1  10
ATOM      9  N1  UNL     1      30.012  -9.831 -40.902  0.00  0.00    +0.000 N 
ATOM     10  C7  UNL     1      29.102  -8.749 -41.143  0.00  0.00    +0.000 C 
ATOM     11  O2  UNL     1      29.528  -7.663 -41.621  0.00  0.00    +0.000 OA
ATOM     12  H8  UNL     1      29.676 -10.672 -40.384  0.00  0.00    +0.000 HD
BRANCH   9  13
ATOM     13  C6  UNL     1      31.453  -9.692 -41.098  0.00  0.00    +0.000 C 
BRANCH  13  17
ATOM     14  C2  UNL     1      32.823 -12.580 -44.008  0.00  0.00    +0.000 A 
ATOM     15  C3  UNL     1      33.710 -11.639 -43.472  0.00  0.00    +0.000 A 
ATOM     16  C4  UNL     1      33.267 -10.693 -42.543  0.00  0.00    +0.000 A 
ATOM     17  C5  UNL     1      31.924 -10.673 -42.137  0.00  0.00    +0.000 A 
ATOM     18  C21 UNL     1      31.034 -11.623 -42.662  0.00  0.00    +0.000 A 
ATOM     19  C22 UNL     1      31.476 -12.567 -43.595  0.00  0.00    +0.000 A 
BRANCH  14  21
ATOM     20  C1  UNL     1      32.613 -13.921 -46.108  0.00  0.00    +0.000 C 
ATOM     21  O1  UNL     1      33.315 -13.506 -44.940  0.00  0.00    +0.000 OA
ENDBRANCH  14  21
ENDBRANCH  13  17
ENDBRANCH   9  13
ENDBRANCH   1  10
BRANCH   2  22
ATOM     22  N2  UNL     1      28.030  -8.900 -38.327  0.00  0.00    +0.000 NA
ATOM     23  C10 UNL     1      28.420  -9.966 -37.687  0.00  0.00    +0.000 C 
BRANCH  23  24
ATOM     24  C11 UNL     1      29.394  -9.831 -36.577  0.00  0.00    +0.000 A 
ATOM     25  C12 UNL     1      28.952  -9.741 -35.247  0.00  0.00    +0.000 A 
ATOM     26  C13 UNL     1      29.875  -9.612 -34.206  0.00  0.00    +0.000 A 
ATOM     27  C14 UNL     1      31.238  -9.577 -34.500  0.00  0.00    +0.000 A 
ATOM     28  N3  UNL     1      31.657  -9.667 -35.789  0.00  0.00    +0.000 NA
ATOM     29  C15 UNL     1      30.781  -9.792 -36.822  0.00  0.00    +0.000 A 
ENDBRANCH  23  24
BRANCH  23  30
ATOM     30  O3  UNL     1      27.919 -11.235 -37.995  0.00  0.00    +0.000 OA
ATOM     31  H9  UNL     1      27.632 -11.901 -37.293  0.00  0.00    +0.000 HD
ENDBRANCH  23  30
ENDBRANCH   2  22
TORSDOF 7
ENDMDL
MODEL 2
REMARK VINA RESULT:    -6.474      3.327      6.394
REMARK INTER + INTRA:         -10.212
REMARK INTER:                  -8.042
REMARK INTRA:                  -2.170
REMARK UNBOUND:                -1.277
REMARK  Name = resultss/4CJN/ligands/lig_263_t2.pdb
REMARK  8 active torsions:
REMARK  status: ('A' for Active; 'I' for Inactive)
REMARK    1  A    between atoms: C1_1  and  O1_2
REMARK    2  A    between atoms: O1_2  and  C2_3
REMARK    3  A    between atoms: C5_6  and  C6_7
REMARK    4  A    between atoms: C6_7  and  N1_8
REMARK    5  A    between atoms: C7_9  and  C8_11
REMARK    6  A    between atoms: C9_12  and  N2_13
REMARK    7  A    between atoms: C10_14  and  O3_15
REMARK    8  A    between atoms: C10_14  and  C11_16
REMARK                            x       y       z     vdW  Elec       q    Type
REMARK                         _______ _______ _______ _____ _____    ______ ____
ROOT
ATOM      1  C8  UNL     1      25.367  -8.372 -36.141  0.00  0.00    +0.000 A 
ATOM      2  C9  UNL     1      24.833  -7.770 -37.289  0.00  0.00    +0.000 A 
ATOM      3  S1  UNL     1      23.463  -6.842 -36.878  0.00  0.00    +0.000 S 
ATOM      4  C16 UNL     1      23.540  -7.268 -35.259  0.00  0.00    +0.000 A 
ATOM      5  C17 UNL     1      24.592  -8.073 -35.013  0.00  0.00    +0.000 A 
ATOM      6  C18 UNL     1      24.611  -8.541 -33.608  0.00  0.00    +0.000 C 
ATOM      7  C19 UNL     1      23.319  -7.923 -33.011  0.00  0.00    +0.000 C 
ATOM      8  C20 UNL     1      22.662  -7.041 -34.100  0.00  0.00    +0.000 C 
ENDROOT
BRANCH   1  10
ATOM      9  N1  UNL     1      27.719  -8.889 -36.922  0.00  0.00    +0.000 N 
ATOM     10  C7  UNL     1      26.558  -9.240 -36.155  0.00  0.00    +0.000 C 
ATOM     11  O2  UNL     1      26.534 -10.324 -35.510  0.00  0.00    +0.000 OA
ATOM     12  H8  UNL     1      27.677  -8.061 -37.556  0.00  0.00    +0.000 HD
BRANCH   9  13
ATOM     13  C6  UNL     1      28.855  -9.794 -37.070  0.00  0.00    +0.000 C 
BRANCH  13  17
ATOM     14  C2  UNL     1      29.531 -10.488 -41.283  0.00  0.00    +0.000 A 
ATOM     15  C3  UNL     1      28.327 -10.879 -40.685  0.00  0.00    +0.000 A 
ATOM     16  C4  UNL     1      28.111 -10.672 -39.319  0.00  0.00    +0.000 A 
ATOM     17  C5  UNL     1      29.102 -10.069 -38.528  0.00  0.00    +0.000 A 
ATOM     18  C21 UNL     1      30.305  -9.664 -39.126  0.00  0.00    +0.000 A 
ATOM     19  C22 UNL     1      30.524  -9.875 -40.492  0.00  0.00    +0.000 A 
BRANCH  14  21
ATOM     20  C1  UNL     1      30.966 -10.882 -43.293  0.00  0.00    +0.000 C 
ATOM     21  O1  UNL     1      29.702 -10.722 -42.656  0.00  0.00    +0.000 OA
ENDBRANCH  14  21
ENDBRANCH  13  17
ENDBRANCH   9  13
ENDBRANCH   1  10
BRANCH   2  22
ATOM     22  N2  UNL     1      25.505  -7.746 -38.555  0.00  0.00    +0.000 NA
ATOM     23  C10 UNL     1      25.175  -8.378 -39.645  0.00  0.00    +0.000 C 
BRANCH  23  24
ATOM     24  C11 UNL     1      25.938  -8.126 -40.891  0.00  0.00    +0.000 A 
ATOM     25  C12 UNL     1      27.123  -7.370 -40.861  0.00  0.00    +0.000 A 
ATOM     26  C13 UNL     1      27.836  -7.136 -42.039  0.00  0.00    +0.000 A 
ATOM     27  C14 UNL     1      27.363  -7.658 -43.243  0.00  0.00    +0.000 A 
ATOM     28  N3  UNL     1      26.217  -8.389 -43.262  0.00  0.00    +0.000 NA
ATOM     29  C15 UNL     1      25.503  -8.633 -42.132  0.00  0.00    +0.000 A 
ENDBRANCH  23  24
BRANCH  23  30
ATOM     30  O3  UNL     1      24.138  -9.317 -39.667  0.00  0.00    +0.000 OA
ATOM     31  H9  UNL     1      23.943  -9.906 -40.463  0.00  0.00    +0.000 HD
ENDBRANCH  23  30
ENDBRANCH   2  22
TORSDOF 7
ENDMDL
MODEL 3
REMARK VINA RESULT:    -6.435      3.170      6.383
REMARK INTER + INTRA:         -10.158
REMARK INTER:                  -7.893
REMARK INTRA:                  -2.264
REMARK UNBOUND:                -1.277
REMARK  Name = resultss/4CJN/ligands/lig_263_t2.pdb
REMARK  8 active torsions:
REMARK  status: ('A' for Active; 'I' for Inactive)
REMARK    1  A    between atoms: C1_1  and  O1_2
REMARK    2  A    between atoms: O1_2  and  C2_3
REMARK    3  A    between atoms: C5_6  and  C6_7
REMARK    4  A    between atoms: C6_7  and  N1_8
REMARK    5  A    between atoms: C7_9  and  C8_11
REMARK    6  A    between atoms: C9_12  and  N2_13
REMARK    7  A    between atoms: C10_14  and  O3_15
REMARK    8  A    between atoms: C10_14  and  C11_16
REMARK                            x       y       z     vdW  Elec       q    Type
REMARK                         _______ _______ _______ _____ _____    ______ ____
ROOT
ATOM      1  C8  UNL     1      25.460  -8.386 -36.876  0.00  0.00    +0.000 A 
ATOM      2  C9  UNL     1      26.835  -8.640 -36.772  0.00  0.00    +0.000 A 
ATOM      3  S1  UNL     1      27.234  -9.042 -35.164  0.00  0.00    +0.000 S 
ATOM      4  C16 UNL     1      25.663  -8.832 -34.619  0.00  0.00    +0.000 A 
ATOM      5  C17 UNL     1      24.836  -8.492 -35.626  0.00  0.00    +0.000 A 
ATOM      6  C18 UNL     1      23.468  -8.201 -35.141  0.00  0.00    +0.000 C 
ATOM      7  C19 UNL     1      23.595  -8.363 -33.602  0.00  0.00    +0.000 C 
ATOM      8  C20 UNL     1      25.034  -8.836 -33.289  0.00  0.00    +0.000 C 
ENDROOT
BRANCH   1  10
ATOM      9  N1  UNL     1      24.693  -8.944 -39.223  0.00  0.00    +0.000 N 
ATOM     10  C7  UNL     1      24.793  -8.012 -38.136  0.00  0.00    +0.000 C 
ATOM     11  O2  UNL     1      24.339  -6.843 -38.266  0.00  0.00    +0.000 OA
ATOM     12  H8  UNL     1      25.188  -9.860 -39.154  0.00  0.00    +0.000 HD
BRANCH   9  13
ATOM     13  C6  UNL     1      24.168  -8.558 -40.530  0.00  0.00    +0.000 C 
BRANCH  13  17
ATOM     14  C2  UNL     1      27.360  -7.977 -43.387  0.00  0.00    +0.000 A 
ATOM     15  C3  UNL     1      26.623  -9.168 -43.380  0.00  0.00    +0.000 A 
ATOM     16  C4  UNL     1      25.601  -9.366 -42.447  0.00  0.00    +0.000 A 
ATOM     17  C5  UNL     1      25.302  -8.373 -41.502  0.00  0.00    +0.000 A 
ATOM     18  C21 UNL     1      26.029  -7.173 -41.513  0.00  0.00    +0.000 A 
ATOM     19  C22 UNL     1      27.055  -6.976 -42.444  0.00  0.00    +0.000 A 
BRANCH  14  21
ATOM     20  C1  UNL     1      28.214  -7.179 -45.598  0.00  0.00    +0.000 C 
ATOM     21  O1  UNL     1      28.379  -7.828 -44.340  0.00  0.00    +0.000 OA
ENDBRANCH  14  21
ENDBRANCH  13  17
ENDBRANCH   9  13
ENDBRANCH   1  10
BRANCH   2  22
ATOM     22  N2  UNL     1      27.700  -8.783 -37.905  0.00  0.00    +0.000 NA
ATOM     23  C10 UNL     1      28.058  -9.887 -38.500  0.00  0.00    +0.000 C 
BRANCH  23  24
ATOM     24  C11 UNL     1      28.871  -9.814 -39.738  0.00  0.00    +0.000 A 
ATOM     25  C12 UNL     1      28.797 -10.836 -40.700  0.00  0.00    +0.000 A 
ATOM     26  C13 UNL     1      29.566 -10.762 -41.864  0.00  0.00    +0.000 A 
ATOM     27  C14 UNL     1      30.405  -9.665 -42.062  0.00  0.00    +0.000 A 
ATOM     28  N3  UNL     1      30.469  -8.681 -41.127  0.00  0.00    +0.000 NA
ATOM     29  C15 UNL     1      29.732  -8.727 -39.985  0.00  0.00    +0.000 A 
ENDBRANCH  23  24
BRANCH  23  30
ATOM     30  O3  UNL     1      27.727 -11.143 -37.982  0.00  0.00    +0.000 OA
ATOM     31  H9  UNL     1      28.077 -12.009 -38.366  0.00  0.00    +0.000 HD
ENDBRANCH  23  30
ENDBRANCH   2  22
TORSDOF 7
ENDMDL
MODEL 4
REMARK VINA RESULT:    -6.407      1.701      5.570
REMARK INTER + INTRA:         -10.118
REMARK INTER:                  -8.630
REMARK INTRA:                  -1.488
REMARK UNBOUND:                -1.277
REMARK  Name = resultss/4CJN/ligands/lig_263_t2.pdb
REMARK  8 active torsions:
REMARK  status: ('A' for Active; 'I' for Inactive)
REMARK    1  A    between atoms: C1_1  and  O1_2
REMARK    2  A    between atoms: O1_2  and  C2_3
REMARK    3  A    between atoms: C5_6  and  C6_7
REMARK    4  A    between atoms: C6_7  and  N1_8
REMARK    5  A    between atoms: C7_9  and  C8_11
REMARK    6  A    between atoms: C9_12  and  N2_13
REMARK    7  A    between atoms: C10_14  and  O3_15
REMARK    8  A    between atoms: C10_14  and  C11_16
REMARK                            x       y       z     vdW  Elec       q    Type
REMARK                         _______ _______ _______ _____ _____    ______ ____
ROOT
ATOM      1  C8  UNL     1      29.891  -9.180 -37.533  0.00  0.00    +0.000 A 
ATOM      2  C9  UNL     1      28.559  -9.545 -37.772  0.00  0.00    +0.000 A 
ATOM      3  S1  UNL     1      27.784  -9.925 -36.301  0.00  0.00    +0.000 S 
ATOM      4  C16 UNL     1      29.171  -9.673 -35.394  0.00  0.00    +0.000 A 
ATOM      5  C17 UNL     1      30.200  -9.281 -36.171  0.00  0.00    +0.000 A 
ATOM      6  C18 UNL     1      31.457  -9.157 -35.398  0.00  0.00    +0.000 C 
ATOM      7  C19 UNL     1      31.043  -9.609 -33.972  0.00  0.00    +0.000 C 
ATOM      8  C20 UNL     1      29.520  -9.887 -33.981  0.00  0.00    +0.000 C 
ENDROOT
BRANCH   1  10
ATOM      9  N1  UNL     1      31.187  -9.711 -39.642  0.00  0.00    +0.000 N 
ATOM     10  C7  UNL     1      30.834  -8.792 -38.598  0.00  0.00    +0.000 C 
ATOM     11  O2  UNL     1      31.361  -7.647 -38.562  0.00  0.00    +0.000 OA
ATOM     12  H8  UNL     1      30.850 -10.697 -39.586  0.00  0.00    +0.000 HD
BRANCH   9  13
ATOM     13  C6  UNL     1      32.224  -9.407 -40.625  0.00  0.00    +0.000 C 
BRANCH  13  17
ATOM     14  C2  UNL     1      32.070 -12.359 -43.779  0.00  0.00    +0.000 A 
ATOM     15  C3  UNL     1      33.301 -11.857 -43.338  0.00  0.00    +0.000 A 
ATOM     16  C4  UNL     1      33.353 -10.890 -42.330  0.00  0.00    +0.000 A 
ATOM     17  C5  UNL     1      32.171 -10.408 -41.748  0.00  0.00    +0.000 A 
ATOM     18  C21 UNL     1      30.936 -10.917 -42.178  0.00  0.00    +0.000 A 
ATOM     19  C22 UNL     1      30.883 -11.882 -43.191  0.00  0.00    +0.000 A 
BRANCH  14  21
ATOM     20  C1  UNL     1      33.154 -13.551 -45.692  0.00  0.00    +0.000 C 
ATOM     21  O1  UNL     1      32.069 -13.325 -44.797  0.00  0.00    +0.000 OA
ENDBRANCH  14  21
ENDBRANCH  13  17
ENDBRANCH   9  13
ENDBRANCH   1  10
BRANCH   2  22
ATOM     22  N2  UNL     1      27.905  -9.368 -39.036  0.00  0.00    +0.000 NA
ATOM     23  C10 UNL     1      27.602 -10.285 -39.912  0.00  0.00    +0.000 C 
BRANCH  23  24
ATOM     24  C11 UNL     1      26.815  -9.911 -41.111  0.00  0.00    +0.000 A 
ATOM     25  C12 UNL     1      27.418  -9.214 -42.172  0.00  0.00    +0.000 A 
ATOM     26  C13 UNL     1      26.670  -8.864 -43.299  0.00  0.00    +0.000 A 
ATOM     27  C14 UNL     1      25.321  -9.213 -43.361  0.00  0.00    +0.000 A 
ATOM     28  N3  UNL     1      24.746  -9.889 -42.332  0.00  0.00    +0.000 NA
ATOM     29  C15 UNL     1      25.450 -10.242 -41.223  0.00  0.00    +0.000 A 
ENDBRANCH  23  24
BRANCH  23  30
ATOM     30  O3  UNL     1      28.029 -11.609 -39.770  0.00  0.00    +0.000 OA
ATOM     31  H9  UNL     1      28.838 -11.873 -39.227  0.00  0.00    +0.000 HD
ENDBRANCH  23  30
ENDBRANCH   2  22
TORSDOF 7
ENDMDL
MODEL 5
REMARK VINA RESULT:    -6.349      2.342      3.137
REMARK INTER + INTRA:         -10.039
REMARK INTER:                  -8.988
REMARK INTRA:                  -1.051
REMARK UNBOUND:                -1.277
REMARK  Name = resultss/4CJN/ligands/lig_263_t2.pdb
REMARK  8 active torsions:
REMARK  status: ('A' for Active; 'I' for Inactive)
REMARK    1  A    between atoms: C1_1  and  O1_2
REMARK    2  A    between atoms: O1_2  and  C2_3
REMARK    3  A    between atoms: C5_6  and  C6_7
REMARK    4  A    between atoms: C6_7  and  N1_8
REMARK    5  A    between atoms: C7_9  and  C8_11
REMARK    6  A    between atoms: C9_12  and  N2_13
REMARK    7  A    between atoms: C10_14  and  O3_15
REMARK    8  A    between atoms: C10_14  and  C11_16
REMARK                            x       y       z     vdW  Elec       q    Type
REMARK                         _______ _______ _______ _____ _____    ______ ____
ROOT
ATOM      1  C8  UNL     1      27.841  -7.979 -42.901  0.00  0.00    +0.000 A 
ATOM      2  C9  UNL     1      26.786  -7.585 -42.067  0.00  0.00    +0.000 A 
ATOM      3  S1  UNL     1      25.518  -6.927 -42.998  0.00  0.00    +0.000 S 
ATOM      4  C16 UNL     1      26.357  -7.102 -44.439  0.00  0.00    +0.000 A 
ATOM      5  C17 UNL     1      27.561  -7.672 -44.239  0.00  0.00    +0.000 A 
ATOM      6  C18 UNL     1      28.353  -7.736 -45.489  0.00  0.00    +0.000 C 
ATOM      7  C19 UNL     1      27.438  -7.034 -46.526  0.00  0.00    +0.000 C 
ATOM      8  C20 UNL     1      26.105  -6.678 -45.825  0.00  0.00    +0.000 C 
ENDROOT
BRANCH   1  10
ATOM      9  N1  UNL     1      29.355  -9.985 -42.600  0.00  0.00    +0.000 N 
ATOM     10  C7  UNL     1      29.089  -8.588 -42.406  0.00  0.00    +0.000 C 
ATOM     11  O2  UNL     1      29.911  -7.872 -41.773  0.00  0.00    +0.000 OA
ATOM     12  H8  UNL     1      28.611 -10.593 -43.005  0.00  0.00    +0.000 HD
BRANCH   9  13
ATOM     13  C6  UNL     1      30.511 -10.645 -41.998  0.00  0.00    +0.000 C 
BRANCH  13  17
ATOM     14  C2  UNL     1      32.864 -12.433 -45.152  0.00  0.00    +0.000 A 
ATOM     15  C3  UNL     1      32.134 -13.238 -44.270  0.00  0.00    +0.000 A 
ATOM     16  C4  UNL     1      31.385 -12.665 -43.238  0.00  0.00    +0.000 A 
ATOM     17  C5  UNL     1      31.358 -11.271 -43.073  0.00  0.00    +0.000 A 
ATOM     18  C21 UNL     1      32.077 -10.460 -43.963  0.00  0.00    +0.000 A 
ATOM     19  C22 UNL     1      32.831 -11.034 -44.993  0.00  0.00    +0.000 A 
BRANCH  14  21
ATOM     20  C1  UNL     1      33.440 -14.415 -46.565  0.00  0.00    +0.000 C 
ATOM     21  O1  UNL     1      33.604 -13.057 -46.169  0.00  0.00    +0.000 OA
ENDBRANCH  14  21
ENDBRANCH  13  17
ENDBRANCH   9  13
ENDBRANCH   1  10
BRANCH   2  22
ATOM     22  N2  UNL     1      26.705  -7.931 -40.678  0.00  0.00    +0.000 NA
ATOM     23  C10 UNL     1      26.425  -9.094 -40.161  0.00  0.00    +0.000 C 
BRANCH  23  24
ATOM     24  C11 UNL     1      26.509  -9.276 -38.692  0.00  0.00    +0.000 A 
ATOM     25  C12 UNL     1      25.593  -8.635 -37.840  0.00  0.00    +0.000 A 
ATOM     26  C13 UNL     1      25.679  -8.810 -36.457  0.00  0.00    +0.000 A 
ATOM     27  C14 UNL     1      26.681  -9.626 -35.930  0.00  0.00    +0.000 A 
ATOM     28  N3  UNL     1      27.560 -10.244 -36.762  0.00  0.00    +0.000 NA
ATOM     29  C15 UNL     1      27.501 -10.092 -38.111  0.00  0.00    +0.000 A 
ENDBRANCH  23  24
BRANCH  23  30
ATOM     30  O3  UNL     1      26.012 -10.171 -40.952  0.00  0.00    +0.000 OA
ATOM     31  H9  UNL     1      26.459 -11.076 -40.931  0.00  0.00    +0.000 HD
ENDBRANCH  23  30
ENDBRANCH   2  22
TORSDOF 7
ENDMDL
MODEL 6
REMARK VINA RESULT:    -6.044      3.195      6.547
REMARK INTER + INTRA:          -9.617
REMARK INTER:                  -7.150
REMARK INTRA:                  -2.467
REMARK UNBOUND:                -1.277
REMARK  Name = resultss/4CJN/ligands/lig_263_t2.pdb
REMARK  8 active torsions:
REMARK  status: ('A' for Active; 'I' for Inactive)
REMARK    1  A    between atoms: C1_1  and  O1_2
REMARK    2  A    between atoms: O1_2  and  C2_3
REMARK    3  A    between atoms: C5_6  and  C6_7
REMARK    4  A    between atoms: C6_7  and  N1_8
REMARK    5  A    between atoms: C7_9  and  C8_11
REMARK    6  A    between atoms: C9_12  and  N2_13
REMARK    7  A    between atoms: C10_14  and  O3_15
REMARK    8  A    between atoms: C10_14  and  C11_16
REMARK                            x       y       z     vdW  Elec       q    Type
REMARK                         _______ _______ _______ _____ _____    ______ ____
ROOT
ATOM      1  C8  UNL     1      29.508  -9.255 -36.984  0.00  0.00    +0.000 A 
ATOM      2  C9  UNL     1      28.116  -9.402 -37.064  0.00  0.00    +0.000 A 
ATOM      3  S1  UNL     1      27.463  -9.633 -35.506  0.00  0.00    +0.000 S 
ATOM      4  C16 UNL     1      28.967  -9.599 -34.765  0.00  0.00    +0.000 A 
ATOM      5  C17 UNL     1      29.950  -9.390 -35.662  0.00  0.00    +0.000 A 
ATOM      6  C18 UNL     1      31.290  -9.462 -35.036  0.00  0.00    +0.000 C 
ATOM      7  C19 UNL     1      30.974  -9.824 -33.561  0.00  0.00    +0.000 C 
ATOM      8  C20 UNL     1      29.435  -9.850 -33.394  0.00  0.00    +0.000 C 
ENDROOT
BRANCH   1  10
ATOM      9  N1  UNL     1      30.212  -7.880 -38.989  0.00  0.00    +0.000 N 
ATOM     10  C7  UNL     1      30.373  -9.038 -38.158  0.00  0.00    +0.000 C 
ATOM     11  O2  UNL     1      31.240  -9.907 -38.449  0.00  0.00    +0.000 OA
ATOM     12  H8  UNL     1      29.407  -7.239 -38.818  0.00  0.00    +0.000 HD
BRANCH   9  13
ATOM     13  C6  UNL     1      30.955  -7.710 -40.235  0.00  0.00    +0.000 C 
BRANCH  13  17
ATOM     14  C2  UNL     1      28.155  -7.838 -43.526  0.00  0.00    +0.000 A 
ATOM     15  C3  UNL     1      28.743  -9.016 -43.050  0.00  0.00    +0.000 A 
ATOM     16  C4  UNL     1      29.662  -8.977 -41.998  0.00  0.00    +0.000 A 
ATOM     17  C5  UNL     1      30.008  -7.753 -41.404  0.00  0.00    +0.000 A 
ATOM     18  C21 UNL     1      29.411  -6.571 -41.869  0.00  0.00    +0.000 A 
ATOM     19  C22 UNL     1      28.495  -6.609 -42.926  0.00  0.00    +0.000 A 
BRANCH  14  21
ATOM     20  C1  UNL     1      26.548  -6.818 -45.149  0.00  0.00    +0.000 C 
ATOM     21  O1  UNL     1      27.242  -7.929 -44.588  0.00  0.00    +0.000 OA
ENDBRANCH  14  21
ENDBRANCH  13  17
ENDBRANCH   9  13
ENDBRANCH   1  10
BRANCH   2  22
ATOM     22  N2  UNL     1      27.359  -9.136 -38.252  0.00  0.00    +0.000 NA
ATOM     23  C10 UNL     1      27.182  -9.922 -39.277  0.00  0.00    +0.000 C 
BRANCH  23  24
ATOM     24  C11 UNL     1      26.261  -9.505 -40.361  0.00  0.00    +0.000 A 
ATOM     25  C12 UNL     1      25.914  -8.153 -40.521  0.00  0.00    +0.000 A 
ATOM     26  C13 UNL     1      25.044  -7.767 -41.545  0.00  0.00    +0.000 A 
ATOM     27  C14 UNL     1      24.527  -8.735 -42.405  0.00  0.00    +0.000 A 
ATOM     28  N3  UNL     1      24.870 -10.040 -42.244  0.00  0.00    +0.000 NA
ATOM     29  C15 UNL     1      25.713 -10.444 -41.257  0.00  0.00    +0.000 A 
ENDBRANCH  23  24
BRANCH  23  30
ATOM     30  O3  UNL     1      27.864 -11.137 -39.399  0.00  0.00    +0.000 OA
ATOM     31  H9  UNL     1      27.402 -12.012 -39.602  0.00  0.00    +0.000 HD
ENDBRANCH  23  30
ENDBRANCH   2  22
TORSDOF 7
ENDMDL
MODEL 7
REMARK VINA RESULT:    -5.950      3.585      7.388
REMARK INTER + INTRA:          -9.489
REMARK INTER:                  -7.466
REMARK INTRA:                  -2.023
REMARK UNBOUND:                -1.277
REMARK  Name = resultss/4CJN/ligands/lig_263_t2.pdb
REMARK  8 active torsions:
REMARK  status: ('A' for Active; 'I' for Inactive)
REMARK    1  A    between atoms: C1_1  and  O1_2
REMARK    2  A    between atoms: O1_2  and  C2_3
REMARK    3  A    between atoms: C5_6  and  C6_7
REMARK    4  A    between atoms: C6_7  and  N1_8
REMARK    5  A    between atoms: C7_9  and  C8_11
REMARK    6  A    between atoms: C9_12  and  N2_13
REMARK    7  A    between atoms: C10_14  and  O3_15
REMARK    8  A    between atoms: C10_14  and  C11_16
REMARK                            x       y       z     vdW  Elec       q    Type
REMARK                         _______ _______ _______ _____ _____    ______ ____
ROOT
ATOM      1  C8  UNL     1      27.036  -9.129 -39.619  0.00  0.00    +0.000 A 
ATOM      2  C9  UNL     1      25.744  -8.878 -39.136  0.00  0.00    +0.000 A 
ATOM      3  S1  UNL     1      24.630  -8.870 -40.426  0.00  0.00    +0.000 S 
ATOM      4  C16 UNL     1      25.818  -9.128 -41.581  0.00  0.00    +0.000 A 
ATOM      5  C17 UNL     1      27.034  -9.249 -41.015  0.00  0.00    +0.000 A 
ATOM      6  C18 UNL     1      28.104  -9.372 -42.030  0.00  0.00    +0.000 C 
ATOM      7  C19 UNL     1      27.336  -9.244 -43.373  0.00  0.00    +0.000 C 
ATOM      8  C20 UNL     1      25.825  -9.144 -43.052  0.00  0.00    +0.000 C 
ENDROOT
BRANCH   1  10
ATOM      9  N1  UNL     1      28.236 -10.014 -37.573  0.00  0.00    +0.000 N 
ATOM     10  C7  UNL     1      28.230  -9.202 -38.756  0.00  0.00    +0.000 C 
ATOM     11  O2  UNL     1      29.242  -8.509 -39.050  0.00  0.00    +0.000 OA
ATOM     12  H8  UNL     1      27.351 -10.475 -37.269  0.00  0.00    +0.000 HD
BRANCH   9  13
ATOM     13  C6  UNL     1      29.347  -9.995 -36.625  0.00  0.00    +0.000 C 
BRANCH  13  17
ATOM     14  C2  UNL     1      28.403  -7.559 -33.181  0.00  0.00    +0.000 A 
ATOM     15  C3  UNL     1      28.695  -8.920 -33.028  0.00  0.00    +0.000 A 
ATOM     16  C4  UNL     1      28.984  -9.714 -34.141  0.00  0.00    +0.000 A 
ATOM     17  C5  UNL     1      28.983  -9.158 -35.429  0.00  0.00    +0.000 A 
ATOM     18  C21 UNL     1      28.705  -7.791 -35.586  0.00  0.00    +0.000 A 
ATOM     19  C22 UNL     1      28.410  -6.996 -34.473  0.00  0.00    +0.000 A 
BRANCH  14  21
ATOM     20  C1  UNL     1      27.016  -5.905 -31.918  0.00  0.00    +0.000 C 
ATOM     21  O1  UNL     1      28.115  -6.804 -32.034  0.00  0.00    +0.000 OA
ENDBRANCH  14  21
ENDBRANCH  13  17
ENDBRANCH   9  13
ENDBRANCH   1  10
BRANCH   2  22
ATOM     22  N2  UNL     1      25.405  -8.889 -37.743  0.00  0.00    +0.000 NA
ATOM     23  C10 UNL     1      24.800  -7.956 -37.063  0.00  0.00    +0.000 C 
BRANCH  23  24
ATOM     24  C11 UNL     1      24.432  -8.211 -35.650  0.00  0.00    +0.000 A 
ATOM     25  C12 UNL     1      25.312  -8.898 -34.796  0.00  0.00    +0.000 A 
ATOM     26  C13 UNL     1      24.959  -9.135 -33.465  0.00  0.00    +0.000 A 
ATOM     27  C14 UNL     1      23.727  -8.684 -32.993  0.00  0.00    +0.000 A 
ATOM     28  N3  UNL     1      22.882  -8.019 -33.824  0.00  0.00    +0.000 NA
ATOM     29  C15 UNL     1      23.200  -7.774 -35.124  0.00  0.00    +0.000 A 
ENDBRANCH  23  24
BRANCH  23  30
ATOM     30  O3  UNL     1      24.517  -6.705 -37.620  0.00  0.00    +0.000 OA
ATOM     31  H9  UNL     1      24.740  -5.833 -37.162  0.00  0.00    +0.000 HD
ENDBRANCH  23  30
ENDBRANCH   2  22
TORSDOF 7
ENDMDL
MODEL 8
REMARK VINA RESULT:    -5.939      3.902      7.252
REMARK INTER + INTRA:          -9.474
REMARK INTER:                  -7.436
REMARK INTRA:                  -2.037
REMARK UNBOUND:                -1.277
REMARK  Name = resultss/4CJN/ligands/lig_263_t2.pdb
REMARK  8 active torsions:
REMARK  status: ('A' for Active; 'I' for Inactive)
REMARK    1  A    between atoms: C1_1  and  O1_2
REMARK    2  A    between atoms: O1_2  and  C2_3
REMARK    3  A    between atoms: C5_6  and  C6_7
REMARK    4  A    between atoms: C6_7  and  N1_8
REMARK    5  A    between atoms: C7_9  and  C8_11
REMARK    6  A    between atoms: C9_12  and  N2_13
REMARK    7  A    between atoms: C10_14  and  O3_15
REMARK    8  A    between atoms: C10_14  and  C11_16
REMARK                            x       y       z     vdW  Elec       q    Type
REMARK                         _______ _______ _______ _____ _____    ______ ____
ROOT
ATOM      1  C8  UNL     1      26.634  -8.442 -40.231  0.00  0.00    +0.000 A 
ATOM      2  C9  UNL     1      27.963  -8.754 -39.914  0.00  0.00    +0.000 A 
ATOM      3  S1  UNL     1      28.932  -8.678 -41.315  0.00  0.00    +0.000 S 
ATOM      4  C16 UNL     1      27.634  -8.306 -42.309  0.00  0.00    +0.000 A 
ATOM      5  C17 UNL     1      26.490  -8.210 -41.605  0.00  0.00    +0.000 A 
ATOM      6  C18 UNL     1      25.320  -7.986 -42.485  0.00  0.00    +0.000 C 
ATOM      7  C19 UNL     1      25.936  -8.019 -43.910  0.00  0.00    +0.000 C 
ATOM      8  C20 UNL     1      27.469  -8.172 -43.764  0.00  0.00    +0.000 C 
ENDROOT
BRANCH   1  10
ATOM      9  N1  UNL     1      25.563  -7.492 -38.144  0.00  0.00    +0.000 N 
ATOM     10  C7  UNL     1      25.543  -8.417 -39.240  0.00  0.00    +0.000 C 
ATOM     11  O2  UNL     1      24.601  -9.250 -39.345  0.00  0.00    +0.000 OA
ATOM     12  H8  UNL     1      26.409  -6.902 -37.993  0.00  0.00    +0.000 HD
BRANCH   9  13
ATOM     13  C6  UNL     1      24.574  -7.540 -37.070  0.00  0.00    +0.000 C 
BRANCH  13  17
ATOM     14  C2  UNL     1      26.501  -7.585 -33.202  0.00  0.00    +0.000 A 
ATOM     15  C3  UNL     1      26.953  -6.722 -34.208  0.00  0.00    +0.000 A 
ATOM     16  C4  UNL     1      26.342  -6.717 -35.466  0.00  0.00    +0.000 A 
ATOM     17  C5  UNL     1      25.269  -7.579 -35.737  0.00  0.00    +0.000 A 
ATOM     18  C21 UNL     1      24.805  -8.436 -34.727  0.00  0.00    +0.000 A 
ATOM     19  C22 UNL     1      25.419  -8.446 -33.469  0.00  0.00    +0.000 A 
BRANCH  14  21
ATOM     20  C1  UNL     1      28.425  -6.965 -31.728  0.00  0.00    +0.000 C 
ATOM     21  O1  UNL     1      27.149  -7.557 -31.957  0.00  0.00    +0.000 OA
ENDBRANCH  14  21
ENDBRANCH  13  17
ENDBRANCH   9  13
ENDBRANCH   1  10
BRANCH   2  22
ATOM     22  N2  UNL     1      28.450  -8.862 -38.570  0.00  0.00    +0.000 NA
ATOM     23  C10 UNL     1      28.506  -9.930 -37.825  0.00  0.00    +0.000 C 
BRANCH  23  24
ATOM     24  C11 UNL     1      29.158  -9.856 -36.496  0.00  0.00    +0.000 A 
ATOM     25  C12 UNL     1      28.392  -9.923 -35.320  0.00  0.00    +0.000 A 
ATOM     26  C13 UNL     1      29.013  -9.852 -34.071  0.00  0.00    +0.000 A 
ATOM     27  C14 UNL     1      30.400  -9.715 -34.002  0.00  0.00    +0.000 A 
ATOM     28  N3  UNL     1      31.133  -9.653 -35.144  0.00  0.00    +0.000 NA
ATOM     29  C15 UNL     1      30.555  -9.720 -36.373  0.00  0.00    +0.000 A 
ENDBRANCH  23  24
BRANCH  23  30
ATOM     30  O3  UNL     1      27.935 -11.141 -38.231  0.00  0.00    +0.000 OA
ATOM     31  H9  UNL     1      27.985 -11.485 -39.178  0.00  0.00    +0.000 HD
ENDBRANCH  23  30
ENDBRANCH   2  22
TORSDOF 7
ENDMDL
MODEL 9
REMARK VINA RESULT:    -5.898      3.075      7.323
REMARK INTER + INTRA:          -9.416
REMARK INTER:                  -6.923
REMARK INTRA:                  -2.493
REMARK UNBOUND:                -1.277
REMARK  Name = resultss/4CJN/ligands/lig_263_t2.pdb
REMARK  8 active torsions:
REMARK  status: ('A' for Active; 'I' for Inactive)
REMARK    1  A    between atoms: C1_1  and  O1_2
REMARK    2  A    between atoms: O1_2  and  C2_3
REMARK    3  A    between atoms: C5_6  and  C6_7
REMARK    4  A    between atoms: C6_7  and  N1_8
REMARK    5  A    between atoms: C7_9  and  C8_11
REMARK    6  A    between atoms: C9_12  and  N2_13
REMARK    7  A    between atoms: C10_14  and  O3_15
REMARK    8  A    between atoms: C10_14  and  C11_16
REMARK                            x       y       z     vdW  Elec       q    Type
REMARK                         _______ _______ _______ _____ _____    ______ ____
ROOT
ATOM      1  C8  UNL     1      29.675  -9.199 -39.316  0.00  0.00    +0.000 A 
ATOM      2  C9  UNL     1      28.292  -8.980 -39.261  0.00  0.00    +0.000 A 
ATOM      3  S1  UNL     1      27.564  -9.477 -40.720  0.00  0.00    +0.000 S 
ATOM      4  C16 UNL     1      29.027  -9.908 -41.416  0.00  0.00    +0.000 A 
ATOM      5  C17 UNL     1      30.051  -9.713 -40.563  0.00  0.00    +0.000 A 
ATOM      6  C18 UNL     1      31.358  -9.991 -41.202  0.00  0.00    +0.000 C 
ATOM      7  C19 UNL     1      30.972 -10.346 -42.662  0.00  0.00    +0.000 C 
ATOM      8  C20 UNL     1      29.428 -10.342 -42.763  0.00  0.00    +0.000 C 
ENDROOT
BRANCH   1  10
ATOM      9  N1  UNL     1      30.725  -9.751 -37.079  0.00  0.00    +0.000 N 
ATOM     10  C7  UNL     1      30.597  -8.877 -38.210  0.00  0.00    +0.000 C 
ATOM     11  O2  UNL     1      31.249  -7.799 -38.251  0.00  0.00    +0.000 OA
ATOM     12  H8  UNL     1      30.084 -10.569 -36.993  0.00  0.00    +0.000 HD
BRANCH   9  13
ATOM     13  C6  UNL     1      31.519  -9.390 -35.907  0.00  0.00    +0.000 C 
BRANCH  13  17
ATOM     14  C2  UNL     1      29.012  -7.877 -32.727  0.00  0.00    +0.000 A 
ATOM     15  C3  UNL     1      29.157  -9.257 -32.919  0.00  0.00    +0.000 A 
ATOM     16  C4  UNL     1      29.954  -9.749 -33.957  0.00  0.00    +0.000 A 
ATOM     17  C5  UNL     1      30.617  -8.866 -34.822  0.00  0.00    +0.000 A 
ATOM     18  C21 UNL     1      30.485  -7.483 -34.625  0.00  0.00    +0.000 A 
ATOM     19  C22 UNL     1      29.683  -6.989 -33.589  0.00  0.00    +0.000 A 
BRANCH  14  21
ATOM     20  C1  UNL     1      27.957  -6.062 -31.367  0.00  0.00    +0.000 C 
ATOM     21  O1  UNL     1      28.198  -7.432 -31.674  0.00  0.00    +0.000 OA
ENDBRANCH  14  21
ENDBRANCH  13  17
ENDBRANCH   9  13
ENDBRANCH   1  10
BRANCH   2  22
ATOM     22  N2  UNL     1      27.594  -8.633 -38.058  0.00  0.00    +0.000 NA
ATOM     23  C10 UNL     1      27.334  -9.402 -37.038  0.00  0.00    +0.000 C 
BRANCH  23  24
ATOM     24  C11 UNL     1      26.700  -8.818 -35.831  0.00  0.00    +0.000 A 
ATOM     25  C12 UNL     1      26.643  -7.424 -35.659  0.00  0.00    +0.000 A 
ATOM     26  C13 UNL     1      26.046  -6.880 -34.519  0.00  0.00    +0.000 A 
ATOM     27  C14 UNL     1      25.506  -7.732 -33.556  0.00  0.00    +0.000 A 
ATOM     28  N3  UNL     1      25.564  -9.078 -33.731  0.00  0.00    +0.000 NA
ATOM     29  C15 UNL     1      26.139  -9.635 -34.830  0.00  0.00    +0.000 A 
ENDBRANCH  23  24
BRANCH  23  30
ATOM     30  O3  UNL     1      27.604 -10.773 -37.061  0.00  0.00    +0.000 OA
ATOM     31  H9  UNL     1      27.155 -11.436 -36.446  0.00  0.00    +0.000 HD
ENDBRANCH  23  30
ENDBRANCH   2  22
TORSDOF 7
ENDMDL
