MODEL 1
REMARK VINA RESULT:    -7.411      0.000      0.000
REMARK INTER + INTRA:         -14.271
REMARK INTER:                 -11.960
REMARK INTRA:                  -2.311
REMARK UNBOUND:                -2.311
REMARK  Name = resultss/4CJN/ligands/lig_342_t1.pdb
REMARK  14 active torsions:
REMARK  status: ('A' for Active; 'I' for Inactive)
REMARK    1  A    between atoms: C1_1  and  O1_2
REMARK    2  A    between atoms: O1_2  and  C2_3
REMARK    3  A    between atoms: C4_5  and  C5_6
REMARK    4  A    between atoms: N2_16  and  N3_17
REMARK    5  A    between atoms: N3_17  and  C13_18
REMARK    6  A    between atoms: C21_26  and  O3_27
REMARK    7  A    between atoms: O3_27  and  C22_28
REMARK    8  A    between atoms: C22_28  and  C23_29
REMARK    9  A    between atoms: N4_31  and  C25_32
REMARK   10  A    between atoms: C25_32  and  C26_33
REMARK   11  A    between atoms: C26_33  and  O4_34
REMARK   12  A    between atoms: N5_35  and  C27_36
REMARK   13  A    between atoms: C30_39  and  C31_40
REMARK   14  A    between atoms: C33_42  and  C34_43
REMARK                            x       y       z     vdW  Elec       q    Type
REMARK                         _______ _______ _______ _____ _____    ______ ____
ROOT
ATOM      1  C2  UNL     1      26.315  -9.157 -39.505  0.00  0.00    +0.000 A 
ATOM      2  C3  UNL     1      26.790  -9.083 -38.181  0.00  0.00    +0.000 A 
ATOM      3  C4  UNL     1      26.747  -7.872 -37.469  0.00  0.00    +0.000 A 
ATOM      4  C19 UNL     1      26.169  -6.746 -38.079  0.00  0.00    +0.000 A 
ATOM      5  C20 UNL     1      25.684  -6.815 -39.387  0.00  0.00    +0.000 A 
ATOM      6  C21 UNL     1      25.765  -8.018 -40.111  0.00  0.00    +0.000 A 
ENDROOT
BRANCH   3   7
ATOM      7  C5  UNL     1      27.230  -7.772 -36.037  0.00  0.00    +0.000 C 
ATOM      8  N1  UNL     1      26.408  -6.799 -35.311  0.00  0.00    +0.000 N 
ATOM      9  C6  UNL     1      25.275  -7.183 -34.521  0.00  0.00    +0.000 A 
ATOM     10  C7  UNL     1      24.341  -6.218 -34.113  0.00  0.00    +0.000 A 
ATOM     11  C8  UNL     1      23.241  -6.591 -33.332  0.00  0.00    +0.000 A 
ATOM     12  C9  UNL     1      23.069  -7.926 -32.960  0.00  0.00    +0.000 A 
ATOM     13  C10 UNL     1      23.999  -8.891 -33.359  0.00  0.00    +0.000 A 
ATOM     14  C11 UNL     1      25.111  -8.521 -34.136  0.00  0.00    +0.000 A 
ATOM     15  C12 UNL     1      26.131  -9.502 -34.542  0.00  0.00    +0.000 C 
ATOM     16  O2  UNL     1      26.051 -10.699 -34.152  0.00  0.00    +0.000 OA
ATOM     17  N2  UNL     1      27.233  -9.090 -35.371  0.00  0.00    +0.000 N 
ATOM     18  H6  UNL     1      26.561  -5.786 -35.519  0.00  0.00    +0.000 HD
BRANCH  17  19
ATOM     19  N3  UNL     1      28.183 -10.053 -35.762  0.00  0.00    +0.000 N 
ATOM     20  H11 UNL     1      27.856 -11.022 -35.975  0.00  0.00    +0.000 HD
BRANCH  19  21
ATOM     21  C13 UNL     1      29.594  -9.778 -35.789  0.00  0.00    +0.000 A 
ATOM     22  C14 UNL     1      30.296  -9.871 -37.003  0.00  0.00    +0.000 A 
ATOM     23  C15 UNL     1      31.675  -9.636 -37.044  0.00  0.00    +0.000 A 
ATOM     24  C16 UNL     1      32.363  -9.314 -35.873  0.00  0.00    +0.000 A 
ATOM     25  C17 UNL     1      31.675  -9.231 -34.657  0.00  0.00    +0.000 A 
ATOM     26  C18 UNL     1      30.298  -9.471 -34.610  0.00  0.00    +0.000 A 
ENDBRANCH  19  21
ENDBRANCH  17  19
ENDBRANCH   3   7
BRANCH   1  28
ATOM     27  C1  UNL     1      27.423 -11.303 -40.166  0.00  0.00    +0.000 C 
ATOM     28  O1  UNL     1      26.371 -10.347 -40.250  0.00  0.00    +0.000 OA
ENDBRANCH   1  28
BRANCH   6  29
ATOM     29  O3  UNL     1      25.316  -8.125 -41.437  0.00  0.00    +0.000 OA
BRANCH  29  30
ATOM     30  C22 UNL     1      25.951  -7.524 -42.562  0.00  0.00    +0.000 C 
BRANCH  30  31
ATOM     31  C23 UNL     1      27.388  -7.929 -42.586  0.00  0.00    +0.000 A 
ATOM     32  C24 UNL     1      27.910  -9.093 -43.104  0.00  0.00    +0.000 A 
ATOM     33  N4  UNL     1      29.240  -9.002 -42.952  0.00  0.00    +0.000 N 
ATOM     34  N6  UNL     1      29.519  -7.851 -42.361  0.00  0.00    +0.000 NA
ATOM     35  N7  UNL     1      28.404  -7.173 -42.125  0.00  0.00    +0.000 NA
BRANCH  33  36
ATOM     36  C25 UNL     1      30.236  -9.986 -43.365  0.00  0.00    +0.000 C 
BRANCH  36  37
ATOM     37  C26 UNL     1      30.951 -10.555 -42.169  0.00  0.00    +0.000 C 
ATOM     38  N5  UNL     1      31.925 -11.416 -42.268  0.00  0.00    +0.000 NA
BRANCH  38  39
ATOM     39  C27 UNL     1      32.422 -11.991 -43.486  0.00  0.00    +0.000 A 
ATOM     40  C28 UNL     1      31.746 -13.063 -44.089  0.00  0.00    +0.000 A 
ATOM     41  C29 UNL     1      32.228 -13.628 -45.271  0.00  0.00    +0.000 A 
ATOM     42  C30 UNL     1      33.397 -13.134 -45.866  0.00  0.00    +0.000 A 
ATOM     43  C31 UNL     1      33.919 -13.760 -47.127  0.00  0.00    +0.000 C 
ATOM     44  C32 UNL     1      34.105 -12.097 -45.238  0.00  0.00    +0.000 A 
ATOM     45  C33 UNL     1      33.626 -11.522 -44.048  0.00  0.00    +0.000 A 
ATOM     46  C34 UNL     1      34.380 -10.398 -43.395  0.00  0.00    +0.000 C 
ENDBRANCH  38  39
BRANCH  37  47
ATOM     47  O4  UNL     1      30.577 -10.100 -40.907  0.00  0.00    +0.000 OA
ATOM     48  H24 UNL     1      29.604  -9.930 -40.680  0.00  0.00    +0.000 HD
ENDBRANCH  37  47
ENDBRANCH  36  37
ENDBRANCH  33  36
ENDBRANCH  30  31
ENDBRANCH  29  30
ENDBRANCH   6  29
TORSDOF 11
ENDMDL
MODEL 2
REMARK VINA RESULT:    -6.745      2.273      9.181
REMARK INTER + INTRA:         -13.196
REMARK INTER:                 -10.916
REMARK INTRA:                  -2.280
REMARK UNBOUND:                -2.311
REMARK  Name = resultss/4CJN/ligands/lig_342_t1.pdb
REMARK  14 active torsions:
REMARK  status: ('A' for Active; 'I' for Inactive)
REMARK    1  A    between atoms: C1_1  and  O1_2
REMARK    2  A    between atoms: O1_2  and  C2_3
REMARK    3  A    between atoms: C4_5  and  C5_6
REMARK    4  A    between atoms: N2_16  and  N3_17
REMARK    5  A    between atoms: N3_17  and  C13_18
REMARK    6  A    between atoms: C21_26  and  O3_27
REMARK    7  A    between atoms: O3_27  and  C22_28
REMARK    8  A    between atoms: C22_28  and  C23_29
REMARK    9  A    between atoms: N4_31  and  C25_32
REMARK   10  A    between atoms: C25_32  and  C26_33
REMARK   11  A    between atoms: C26_33  and  O4_34
REMARK   12  A    between atoms: N5_35  and  C27_36
REMARK   13  A    between atoms: C30_39  and  C31_40
REMARK   14  A    between atoms: C33_42  and  C34_43
REMARK                            x       y       z     vdW  Elec       q    Type
REMARK                         _______ _______ _______ _____ _____    ______ ____
ROOT
ATOM      1  C2  UNL     1      31.587  -9.165 -38.065  0.00  0.00    +0.000 A 
ATOM      2  C3  UNL     1      30.949 -10.003 -39.001  0.00  0.00    +0.000 A 
ATOM      3  C4  UNL     1      30.170  -9.459 -40.037  0.00  0.00    +0.000 A 
ATOM      4  C19 UNL     1      30.085  -8.062 -40.161  0.00  0.00    +0.000 A 
ATOM      5  C20 UNL     1      30.726  -7.225 -39.244  0.00  0.00    +0.000 A 
ATOM      6  C21 UNL     1      31.471  -7.773 -38.184  0.00  0.00    +0.000 A 
ENDROOT
BRANCH   3   7
ATOM      7  C5  UNL     1      29.493 -10.336 -41.069  0.00  0.00    +0.000 C 
ATOM      8  N1  UNL     1      28.116 -10.612 -40.648  0.00  0.00    +0.000 N 
ATOM      9  C6  UNL     1      26.999  -9.837 -41.102  0.00  0.00    +0.000 A 
ATOM     10  C7  UNL     1      25.764  -9.924 -40.441  0.00  0.00    +0.000 A 
ATOM     11  C8  UNL     1      24.671  -9.176 -40.892  0.00  0.00    +0.000 A 
ATOM     12  C9  UNL     1      24.808  -8.338 -42.001  0.00  0.00    +0.000 A 
ATOM     13  C10 UNL     1      26.034  -8.251 -42.668  0.00  0.00    +0.000 A 
ATOM     14  C11 UNL     1      27.134  -9.006 -42.224  0.00  0.00    +0.000 A 
ATOM     15  C12 UNL     1      28.429  -8.971 -42.924  0.00  0.00    +0.000 C 
ATOM     16  O2  UNL     1      28.562  -8.290 -43.978  0.00  0.00    +0.000 OA
ATOM     17  N2  UNL     1      29.541  -9.729 -42.414  0.00  0.00    +0.000 N 
ATOM     18  H6  UNL     1      27.976 -11.289 -39.863  0.00  0.00    +0.000 HD
BRANCH  17  19
ATOM     19  N3  UNL     1      30.774  -9.659 -43.091  0.00  0.00    +0.000 N 
ATOM     20  H11 UNL     1      31.152  -8.720 -43.349  0.00  0.00    +0.000 HD
BRANCH  19  21
ATOM     21  C13 UNL     1      31.485 -10.833 -43.521  0.00  0.00    +0.000 A 
ATOM     22  C14 UNL     1      32.488 -10.717 -44.499  0.00  0.00    +0.000 A 
ATOM     23  C15 UNL     1      33.171 -11.851 -44.952  0.00  0.00    +0.000 A 
ATOM     24  C16 UNL     1      32.851 -13.110 -44.438  0.00  0.00    +0.000 A 
ATOM     25  C17 UNL     1      31.846 -13.237 -43.472  0.00  0.00    +0.000 A 
ATOM     26  C18 UNL     1      31.156 -12.107 -43.021  0.00  0.00    +0.000 A 
ENDBRANCH  19  21
ENDBRANCH  17  19
ENDBRANCH   3   7
BRANCH   1  28
ATOM     27  C1  UNL     1      33.727 -10.029 -37.090  0.00  0.00    +0.000 C 
ATOM     28  O1  UNL     1      32.348  -9.682 -37.003  0.00  0.00    +0.000 OA
ENDBRANCH   1  28
BRANCH   6  29
ATOM     29  O3  UNL     1      32.108  -6.971 -37.225  0.00  0.00    +0.000 OA
BRANCH  29  30
ATOM     30  C22 UNL     1      31.497  -5.883 -36.537  0.00  0.00    +0.000 C 
BRANCH  30  31
ATOM     31  C23 UNL     1      30.227  -6.355 -35.908  0.00  0.00    +0.000 A 
ATOM     32  C24 UNL     1      30.104  -7.236 -34.857  0.00  0.00    +0.000 A 
ATOM     33  N4  UNL     1      28.790  -7.323 -34.599  0.00  0.00    +0.000 N 
ATOM     34  N6  UNL     1      28.141  -6.548 -35.453  0.00  0.00    +0.000 NA
ATOM     35  N7  UNL     1      28.995  -5.943 -36.266  0.00  0.00    +0.000 NA
BRANCH  33  36
ATOM     36  C25 UNL     1      28.156  -8.123 -33.555  0.00  0.00    +0.000 C 
BRANCH  36  37
ATOM     37  C26 UNL     1      28.020  -9.557 -33.992  0.00  0.00    +0.000 C 
ATOM     38  N5  UNL     1      26.935 -10.033 -34.537  0.00  0.00    +0.000 NA
BRANCH  38  39
ATOM     39  C27 UNL     1      25.712  -9.312 -34.750  0.00  0.00    +0.000 A 
ATOM     40  C28 UNL     1      24.784  -9.169 -33.707  0.00  0.00    +0.000 A 
ATOM     41  C29 UNL     1      23.592  -8.472 -33.911  0.00  0.00    +0.000 A 
ATOM     42  C30 UNL     1      23.305  -7.911 -35.164  0.00  0.00    +0.000 A 
ATOM     43  C31 UNL     1      22.013  -7.180 -35.380  0.00  0.00    +0.000 C 
ATOM     44  C32 UNL     1      24.207  -8.097 -36.224  0.00  0.00    +0.000 A 
ATOM     45  C33 UNL     1      25.410  -8.797 -36.027  0.00  0.00    +0.000 A 
ATOM     46  C34 UNL     1      26.377  -8.972 -37.163  0.00  0.00    +0.000 C 
ENDBRANCH  38  39
BRANCH  37  47
ATOM     47  O4  UNL     1      29.124 -10.393 -33.844  0.00  0.00    +0.000 OA
ATOM     48  H24 UNL     1      29.267 -10.921 -32.991  0.00  0.00    +0.000 HD
ENDBRANCH  37  47
ENDBRANCH  36  37
ENDBRANCH  33  36
ENDBRANCH  30  31
ENDBRANCH  29  30
ENDBRANCH   6  29
TORSDOF 11
ENDMDL
MODEL 3
REMARK VINA RESULT:    -6.681      2.379      9.146
REMARK INTER + INTRA:         -13.093
REMARK INTER:                 -10.729
REMARK INTRA:                  -2.364
REMARK UNBOUND:                -2.311
REMARK  Name = resultss/4CJN/ligands/lig_342_t1.pdb
REMARK  14 active torsions:
REMARK  status: ('A' for Active; 'I' for Inactive)
REMARK    1  A    between atoms: C1_1  and  O1_2
REMARK    2  A    between atoms: O1_2  and  C2_3
REMARK    3  A    between atoms: C4_5  and  C5_6
REMARK    4  A    between atoms: N2_16  and  N3_17
REMARK    5  A    between atoms: N3_17  and  C13_18
REMARK    6  A    between atoms: C21_26  and  O3_27
REMARK    7  A    between atoms: O3_27  and  C22_28
REMARK    8  A    between atoms: C22_28  and  C23_29
REMARK    9  A    between atoms: N4_31  and  C25_32
REMARK   10  A    between atoms: C25_32  and  C26_33
REMARK   11  A    between atoms: C26_33  and  O4_34
REMARK   12  A    between atoms: N5_35  and  C27_36
REMARK   13  A    between atoms: C30_39  and  C31_40
REMARK   14  A    between atoms: C33_42  and  C34_43
REMARK                            x       y       z     vdW  Elec       q    Type
REMARK                         _______ _______ _______ _____ _____    ______ ____
ROOT
ATOM      1  C2  UNL     1      27.399  -8.247 -43.058  0.00  0.00    +0.000 A 
ATOM      2  C3  UNL     1      28.422  -8.898 -42.343  0.00  0.00    +0.000 A 
ATOM      3  C4  UNL     1      28.126  -9.962 -41.473  0.00  0.00    +0.000 A 
ATOM      4  C19 UNL     1      26.796 -10.406 -41.371  0.00  0.00    +0.000 A 
ATOM      5  C20 UNL     1      25.777  -9.772 -42.088  0.00  0.00    +0.000 A 
ATOM      6  C21 UNL     1      26.073  -8.682 -42.926  0.00  0.00    +0.000 A 
ENDROOT
BRANCH   3   7
ATOM      7  C5  UNL     1      29.210 -10.694 -40.711  0.00  0.00    +0.000 C 
ATOM      8  N1  UNL     1      29.747 -11.775 -41.543  0.00  0.00    +0.000 N 
ATOM      9  C6  UNL     1      30.923 -11.618 -42.349  0.00  0.00    +0.000 A 
ATOM     10  C7  UNL     1      31.216 -12.549 -43.357  0.00  0.00    +0.000 A 
ATOM     11  C8  UNL     1      32.369 -12.402 -44.136  0.00  0.00    +0.000 A 
ATOM     12  C9  UNL     1      33.231 -11.325 -43.912  0.00  0.00    +0.000 A 
ATOM     13  C10 UNL     1      32.947 -10.398 -42.904  0.00  0.00    +0.000 A 
ATOM     14  C11 UNL     1      31.794 -10.545 -42.113  0.00  0.00    +0.000 A 
ATOM     15  C12 UNL     1      31.483  -9.611 -41.018  0.00  0.00    +0.000 C 
ATOM     16  O2  UNL     1      32.283  -8.677 -40.735  0.00  0.00    +0.000 OA
ATOM     17  N2  UNL     1      30.272  -9.774 -40.259  0.00  0.00    +0.000 N 
ATOM     18  H6  UNL     1      29.153 -12.626 -41.675  0.00  0.00    +0.000 HD
BRANCH  17  19
ATOM     19  N3  UNL     1      29.989  -8.853 -39.231  0.00  0.00    +0.000 N 
ATOM     20  H11 UNL     1      30.333  -7.872 -39.328  0.00  0.00    +0.000 HD
BRANCH  19  21
ATOM     21  C13 UNL     1      29.328  -9.236 -38.013  0.00  0.00    +0.000 A 
ATOM     22  C14 UNL     1      27.923  -9.246 -37.959  0.00  0.00    +0.000 A 
ATOM     23  C15 UNL     1      27.261  -9.588 -36.775  0.00  0.00    +0.000 A 
ATOM     24  C16 UNL     1      27.996  -9.915 -35.634  0.00  0.00    +0.000 A 
ATOM     25  C17 UNL     1      29.395  -9.897 -35.673  0.00  0.00    +0.000 A 
ATOM     26  C18 UNL     1      30.062  -9.550 -36.853  0.00  0.00    +0.000 A 
ENDBRANCH  19  21
ENDBRANCH  17  19
ENDBRANCH   3   7
BRANCH   1  28
ATOM     27  C1  UNL     1      28.020  -7.283 -45.285  0.00  0.00    +0.000 C 
ATOM     28  O1  UNL     1      27.663  -7.163 -43.912  0.00  0.00    +0.000 OA
ENDBRANCH   1  28
BRANCH   6  29
ATOM     29  O3  UNL     1      25.077  -7.998 -43.642  0.00  0.00    +0.000 OA
BRANCH  29  30
ATOM     30  C22 UNL     1      24.218  -7.002 -43.094  0.00  0.00    +0.000 C 
BRANCH  30  31
ATOM     31  C23 UNL     1      24.587  -6.772 -41.665  0.00  0.00    +0.000 A 
ATOM     32  C24 UNL     1      24.091  -7.437 -40.566  0.00  0.00    +0.000 A 
ATOM     33  N4  UNL     1      24.742  -6.937 -39.505  0.00  0.00    +0.000 N 
ATOM     34  N6  UNL     1      25.582  -6.006 -39.928  0.00  0.00    +0.000 NA
ATOM     35  N7  UNL     1      25.509  -5.884 -41.246  0.00  0.00    +0.000 NA
BRANCH  33  36
ATOM     36  C25 UNL     1      24.577  -7.337 -38.111  0.00  0.00    +0.000 C 
BRANCH  36  37
ATOM     37  C26 UNL     1      23.588  -6.443 -37.414  0.00  0.00    +0.000 C 
ATOM     38  N5  UNL     1      23.684  -6.127 -36.152  0.00  0.00    +0.000 NA
BRANCH  38  39
ATOM     39  C27 UNL     1      24.677  -6.609 -35.235  0.00  0.00    +0.000 A 
ATOM     40  C28 UNL     1      25.986  -6.101 -35.277  0.00  0.00    +0.000 A 
ATOM     41  C29 UNL     1      26.955  -6.570 -34.391  0.00  0.00    +0.000 A 
ATOM     42  C30 UNL     1      26.636  -7.559 -33.450  0.00  0.00    +0.000 A 
ATOM     43  C31 UNL     1      27.690  -8.071 -32.512  0.00  0.00    +0.000 C 
ATOM     44  C32 UNL     1      25.343  -8.107 -33.439  0.00  0.00    +0.000 A 
ATOM     45  C33 UNL     1      24.360  -7.640 -34.329  0.00  0.00    +0.000 A 
ATOM     46  C34 UNL     1      22.974  -8.219 -34.295  0.00  0.00    +0.000 C 
ENDBRANCH  38  39
BRANCH  37  47
ATOM     47  O4  UNL     1      22.553  -5.898 -38.169  0.00  0.00    +0.000 OA
ATOM     48  H24 UNL     1      21.589  -5.979 -37.869  0.00  0.00    +0.000 HD
ENDBRANCH  37  47
ENDBRANCH  36  37
ENDBRANCH  33  36
ENDBRANCH  30  31
ENDBRANCH  29  30
ENDBRANCH   6  29
TORSDOF 11
ENDMDL
MODEL 4
REMARK VINA RESULT:    -6.524      2.184      9.444
REMARK INTER + INTRA:         -12.839
REMARK INTER:                 -10.259
REMARK INTRA:                  -2.580
REMARK UNBOUND:                -2.311
REMARK  Name = resultss/4CJN/ligands/lig_342_t1.pdb
REMARK  14 active torsions:
REMARK  status: ('A' for Active; 'I' for Inactive)
REMARK    1  A    between atoms: C1_1  and  O1_2
REMARK    2  A    between atoms: O1_2  and  C2_3
REMARK    3  A    between atoms: C4_5  and  C5_6
REMARK    4  A    between atoms: N2_16  and  N3_17
REMARK    5  A    between atoms: N3_17  and  C13_18
REMARK    6  A    between atoms: C21_26  and  O3_27
REMARK    7  A    between atoms: O3_27  and  C22_28
REMARK    8  A    between atoms: C22_28  and  C23_29
REMARK    9  A    between atoms: N4_31  and  C25_32
REMARK   10  A    between atoms: C25_32  and  C26_33
REMARK   11  A    between atoms: C26_33  and  O4_34
REMARK   12  A    between atoms: N5_35  and  C27_36
REMARK   13  A    between atoms: C30_39  and  C31_40
REMARK   14  A    between atoms: C33_42  and  C34_43
REMARK                            x       y       z     vdW  Elec       q    Type
REMARK                         _______ _______ _______ _____ _____    ______ ____
ROOT
ATOM      1  C2  UNL     1      28.731  -8.637 -43.056  0.00  0.00    +0.000 A 
ATOM      2  C3  UNL     1      29.887  -9.384 -42.756  0.00  0.00    +0.000 A 
ATOM      3  C4  UNL     1      29.845 -10.421 -41.807  0.00  0.00    +0.000 A 
ATOM      4  C19 UNL     1      28.617 -10.741 -41.205  0.00  0.00    +0.000 A 
ATOM      5  C20 UNL     1      27.464 -10.013 -41.508  0.00  0.00    +0.000 A 
ATOM      6  C21 UNL     1      27.518  -8.949 -42.427  0.00  0.00    +0.000 A 
ENDROOT
BRANCH   3   7
ATOM      7  C5  UNL     1      31.068 -11.254 -41.483  0.00  0.00    +0.000 C 
ATOM      8  N1  UNL     1      31.274 -12.251 -42.538  0.00  0.00    +0.000 N 
ATOM      9  C6  UNL     1      32.161 -12.034 -43.643  0.00  0.00    +0.000 A 
ATOM     10  C7  UNL     1      32.089 -12.858 -44.777  0.00  0.00    +0.000 A 
ATOM     11  C8  UNL     1      32.963 -12.653 -45.851  0.00  0.00    +0.000 A 
ATOM     12  C9  UNL     1      33.908 -11.625 -45.797  0.00  0.00    +0.000 A 
ATOM     13  C10 UNL     1      33.988 -10.805 -44.667  0.00  0.00    +0.000 A 
ATOM     14  C11 UNL     1      33.118 -11.011 -43.581  0.00  0.00    +0.000 A 
ATOM     15  C12 UNL     1      33.199 -10.193 -42.360  0.00  0.00    +0.000 C 
ATOM     16  O2  UNL     1      34.096  -9.313 -42.244  0.00  0.00    +0.000 OA
ATOM     17  N2  UNL     1      32.264 -10.411 -41.288  0.00  0.00    +0.000 N 
ATOM     18  H6  UNL     1      30.623 -13.069 -42.565  0.00  0.00    +0.000 HD
BRANCH  17  19
ATOM     19  N3  UNL     1      32.350  -9.599 -40.140  0.00  0.00    +0.000 N 
ATOM     20  H11 UNL     1      33.292  -9.281 -39.820  0.00  0.00    +0.000 HD
BRANCH  19  21
ATOM     21  C13 UNL     1      31.202  -9.271 -39.339  0.00  0.00    +0.000 A 
ATOM     22  C14 UNL     1      30.509  -8.071 -39.579  0.00  0.00    +0.000 A 
ATOM     23  C15 UNL     1      29.407  -7.720 -38.792  0.00  0.00    +0.000 A 
ATOM     24  C16 UNL     1      28.993  -8.560 -37.756  0.00  0.00    +0.000 A 
ATOM     25  C17 UNL     1      29.683  -9.751 -37.502  0.00  0.00    +0.000 A 
ATOM     26  C18 UNL     1      30.789 -10.103 -38.282  0.00  0.00    +0.000 A 
ENDBRANCH  19  21
ENDBRANCH  17  19
ENDBRANCH   3   7
BRANCH   1  28
ATOM     27  C1  UNL     1      28.331  -7.678 -45.335  0.00  0.00    +0.000 C 
ATOM     28  O1  UNL     1      28.751  -7.577 -43.978  0.00  0.00    +0.000 OA
ENDBRANCH   1  28
BRANCH   6  29
ATOM     29  O3  UNL     1      26.391  -8.174 -42.740  0.00  0.00    +0.000 OA
BRANCH  29  30
ATOM     30  C22 UNL     1      25.986  -7.004 -42.035  0.00  0.00    +0.000 C 
BRANCH  30  31
ATOM     31  C23 UNL     1      25.619  -7.379 -40.637  0.00  0.00    +0.000 A 
ATOM     32  C24 UNL     1      26.043  -6.768 -39.479  0.00  0.00    +0.000 A 
ATOM     33  N4  UNL     1      25.423  -7.405 -38.475  0.00  0.00    +0.000 N 
ATOM     34  N6  UNL     1      24.668  -8.364 -38.987  0.00  0.00    +0.000 NA
ATOM     35  N7  UNL     1      24.768  -8.372 -40.309  0.00  0.00    +0.000 NA
BRANCH  33  36
ATOM     36  C25 UNL     1      25.535  -7.108 -37.049  0.00  0.00    +0.000 C 
BRANCH  36  37
ATOM     37  C26 UNL     1      24.468  -7.830 -36.270  0.00  0.00    +0.000 C 
ATOM     38  N5  UNL     1      24.718  -8.504 -35.182  0.00  0.00    +0.000 NA
BRANCH  38  39
ATOM     39  C27 UNL     1      26.012  -8.713 -34.599  0.00  0.00    +0.000 A 
ATOM     40  C28 UNL     1      26.785  -9.825 -34.969  0.00  0.00    +0.000 A 
ATOM     41  C29 UNL     1      28.042 -10.034 -34.401  0.00  0.00    +0.000 A 
ATOM     42  C30 UNL     1      28.546  -9.139 -33.448  0.00  0.00    +0.000 A 
ATOM     43  C31 UNL     1      29.891  -9.382 -32.828  0.00  0.00    +0.000 C 
ATOM     44  C32 UNL     1      27.755  -8.055 -33.035  0.00  0.00    +0.000 A 
ATOM     45  C33 UNL     1      26.487  -7.836 -33.603  0.00  0.00    +0.000 A 
ATOM     46  C34 UNL     1      25.658  -6.661 -33.170  0.00  0.00    +0.000 C 
ENDBRANCH  38  39
BRANCH  37  47
ATOM     47  O4  UNL     1      23.152  -7.731 -36.716  0.00  0.00    +0.000 OA
ATOM     48  H24 UNL     1      22.544  -6.991 -36.386  0.00  0.00    +0.000 HD
ENDBRANCH  37  47
ENDBRANCH  36  37
ENDBRANCH  33  36
ENDBRANCH  30  31
ENDBRANCH  29  30
ENDBRANCH   6  29
TORSDOF 11
ENDMDL
MODEL 5
REMARK VINA RESULT:    -6.227      3.628      5.445
REMARK INTER + INTRA:         -12.360
REMARK INTER:                  -9.902
REMARK INTRA:                  -2.459
REMARK UNBOUND:                -2.311
REMARK  Name = resultss/4CJN/ligands/lig_342_t1.pdb
REMARK  14 active torsions:
REMARK  status: ('A' for Active; 'I' for Inactive)
REMARK    1  A    between atoms: C1_1  and  O1_2
REMARK    2  A    between atoms: O1_2  and  C2_3
REMARK    3  A    between atoms: C4_5  and  C5_6
REMARK    4  A    between atoms: N2_16  and  N3_17
REMARK    5  A    between atoms: N3_17  and  C13_18
REMARK    6  A    between atoms: C21_26  and  O3_27
REMARK    7  A    between atoms: O3_27  and  C22_28
REMARK    8  A    between atoms: C22_28  and  C23_29
REMARK    9  A    between atoms: N4_31  and  C25_32
REMARK   10  A    between atoms: C25_32  and  C26_33
REMARK   11  A    between atoms: C26_33  and  O4_34
REMARK   12  A    between atoms: N5_35  and  C27_36
REMARK   13  A    between atoms: C30_39  and  C31_40
REMARK   14  A    between atoms: C33_42  and  C34_43
REMARK                            x       y       z     vdW  Elec       q    Type
REMARK                         _______ _______ _______ _____ _____    ______ ____
ROOT
ATOM      1  C2  UNL     1      28.852  -7.199 -38.749  0.00  0.00    +0.000 A 
ATOM      2  C3  UNL     1      28.284  -6.423 -37.720  0.00  0.00    +0.000 A 
ATOM      3  C4  UNL     1      27.604  -7.034 -36.652  0.00  0.00    +0.000 A 
ATOM      4  C19 UNL     1      27.549  -8.437 -36.596  0.00  0.00    +0.000 A 
ATOM      5  C20 UNL     1      28.121  -9.213 -37.606  0.00  0.00    +0.000 A 
ATOM      6  C21 UNL     1      28.766  -8.597 -38.695  0.00  0.00    +0.000 A 
ENDROOT
BRANCH   3   7
ATOM      7  C5  UNL     1      27.005  -6.224 -35.522  0.00  0.00    +0.000 C 
ATOM      8  N1  UNL     1      25.548  -6.176 -35.674  0.00  0.00    +0.000 N 
ATOM      9  C6  UNL     1      24.671  -7.090 -35.001  0.00  0.00    +0.000 A 
ATOM     10  C7  UNL     1      23.335  -7.218 -35.413  0.00  0.00    +0.000 A 
ATOM     11  C8  UNL     1      22.477  -8.101 -34.749  0.00  0.00    +0.000 A 
ATOM     12  C9  UNL     1      22.949  -8.860 -33.675  0.00  0.00    +0.000 A 
ATOM     13  C10 UNL     1      24.277  -8.732 -33.256  0.00  0.00    +0.000 A 
ATOM     14  C11 UNL     1      25.142  -7.840 -33.914  0.00  0.00    +0.000 A 
ATOM     15  C12 UNL     1      26.536  -7.650 -33.477  0.00  0.00    +0.000 C 
ATOM     16  O2  UNL     1      26.969  -8.256 -32.459  0.00  0.00    +0.000 OA
ATOM     17  N2  UNL     1      27.399  -6.757 -34.203  0.00  0.00    +0.000 N 
ATOM     18  H6  UNL     1      25.159  -5.564 -36.427  0.00  0.00    +0.000 HD
BRANCH  17  19
ATOM     19  N3  UNL     1      28.734  -6.611 -33.775  0.00  0.00    +0.000 N 
ATOM     20  H11 UNL     1      28.975  -5.809 -33.151  0.00  0.00    +0.000 HD
BRANCH  19  21
ATOM     21  C13 UNL     1      29.791  -7.467 -34.241  0.00  0.00    +0.000 A 
ATOM     22  C14 UNL     1      29.853  -8.799 -33.794  0.00  0.00    +0.000 A 
ATOM     23  C15 UNL     1      30.890  -9.639 -34.213  0.00  0.00    +0.000 A 
ATOM     24  C16 UNL     1      31.876  -9.154 -35.075  0.00  0.00    +0.000 A 
ATOM     25  C17 UNL     1      31.830  -7.827 -35.516  0.00  0.00    +0.000 A 
ATOM     26  C18 UNL     1      30.798  -6.981 -35.095  0.00  0.00    +0.000 A 
ENDBRANCH  19  21
ENDBRANCH  17  19
ENDBRANCH   3   7
BRANCH   1  28
ATOM     27  C1  UNL     1      28.873  -6.198 -41.045  0.00  0.00    +0.000 C 
ATOM     28  O1  UNL     1      29.513  -6.614 -39.843  0.00  0.00    +0.000 OA
ENDBRANCH   1  28
BRANCH   6  29
ATOM     29  O3  UNL     1      29.330  -9.337 -39.746  0.00  0.00    +0.000 OA
BRANCH  29  30
ATOM     30  C22 UNL     1      28.809 -10.564 -40.249  0.00  0.00    +0.000 C 
BRANCH  30  31
ATOM     31  C23 UNL     1      27.463 -10.314 -40.847  0.00  0.00    +0.000 A 
ATOM     32  C24 UNL     1      27.187  -9.604 -41.994  0.00  0.00    +0.000 A 
ATOM     33  N4  UNL     1      25.860  -9.686 -42.170  0.00  0.00    +0.000 N 
ATOM     34  N6  UNL     1      25.347 -10.397 -41.179  0.00  0.00    +0.000 NA
ATOM     35  N7  UNL     1      26.305 -10.795 -40.353  0.00  0.00    +0.000 NA
BRANCH  33  36
ATOM     36  C25 UNL     1      25.086  -9.107 -43.264  0.00  0.00    +0.000 C 
BRANCH  36  37
ATOM     37  C26 UNL     1      24.565  -7.747 -42.886  0.00  0.00    +0.000 C 
ATOM     38  N5  UNL     1      24.584  -6.728 -43.699  0.00  0.00    +0.000 NA
BRANCH  38  39
ATOM     39  C27 UNL     1      25.139  -6.716 -45.023  0.00  0.00    +0.000 A 
ATOM     40  C28 UNL     1      26.514  -6.508 -45.213  0.00  0.00    +0.000 A 
ATOM     41  C29 UNL     1      27.056  -6.492 -46.498  0.00  0.00    +0.000 A 
ATOM     42  C30 UNL     1      26.233  -6.678 -47.617  0.00  0.00    +0.000 A 
ATOM     43  C31 UNL     1      26.822  -6.640 -48.997  0.00  0.00    +0.000 C 
ATOM     44  C32 UNL     1      24.849  -6.833 -47.435  0.00  0.00    +0.000 A 
ATOM     45  C33 UNL     1      24.295  -6.852 -46.143  0.00  0.00    +0.000 A 
ATOM     46  C34 UNL     1      22.816  -7.040 -45.959  0.00  0.00    +0.000 C 
ENDBRANCH  38  39
BRANCH  37  47
ATOM     47  O4  UNL     1      23.999  -7.592 -41.623  0.00  0.00    +0.000 OA
ATOM     48  H24 UNL     1      24.008  -6.694 -41.153  0.00  0.00    +0.000 HD
ENDBRANCH  37  47
ENDBRANCH  36  37
ENDBRANCH  33  36
ENDBRANCH  30  31
ENDBRANCH  29  30
ENDBRANCH   6  29
TORSDOF 11
ENDMDL
MODEL 6
REMARK VINA RESULT:    -6.202      3.180      6.663
REMARK INTER + INTRA:         -12.320
REMARK INTER:                  -9.858
REMARK INTRA:                  -2.463
REMARK UNBOUND:                -2.311
REMARK  Name = resultss/4CJN/ligands/lig_342_t1.pdb
REMARK  14 active torsions:
REMARK  status: ('A' for Active; 'I' for Inactive)
REMARK    1  A    between atoms: C1_1  and  O1_2
REMARK    2  A    between atoms: O1_2  and  C2_3
REMARK    3  A    between atoms: C4_5  and  C5_6
REMARK    4  A    between atoms: N2_16  and  N3_17
REMARK    5  A    between atoms: N3_17  and  C13_18
REMARK    6  A    between atoms: C21_26  and  O3_27
REMARK    7  A    between atoms: O3_27  and  C22_28
REMARK    8  A    between atoms: C22_28  and  C23_29
REMARK    9  A    between atoms: N4_31  and  C25_32
REMARK   10  A    between atoms: C25_32  and  C26_33
REMARK   11  A    between atoms: C26_33  and  O4_34
REMARK   12  A    between atoms: N5_35  and  C27_36
REMARK   13  A    between atoms: C30_39  and  C31_40
REMARK   14  A    between atoms: C33_42  and  C34_43
REMARK                            x       y       z     vdW  Elec       q    Type
REMARK                         _______ _______ _______ _____ _____    ______ ____
ROOT
ATOM      1  C2  UNL     1      27.761  -9.224 -34.594  0.00  0.00    +0.000 A 
ATOM      2  C3  UNL     1      29.169  -9.227 -34.633  0.00  0.00    +0.000 A 
ATOM      3  C4  UNL     1      29.855  -9.653 -35.784  0.00  0.00    +0.000 A 
ATOM      4  C19 UNL     1      29.113 -10.021 -36.919  0.00  0.00    +0.000 A 
ATOM      5  C20 UNL     1      27.716 -10.008 -36.892  0.00  0.00    +0.000 A 
ATOM      6  C21 UNL     1      27.034  -9.620 -35.724  0.00  0.00    +0.000 A 
ENDROOT
BRANCH   3   7
ATOM      7  C5  UNL     1      31.367  -9.643 -35.860  0.00  0.00    +0.000 C 
ATOM      8  N1  UNL     1      31.786  -9.607 -37.264  0.00  0.00    +0.000 N 
ATOM      9  C6  UNL     1      32.105  -8.385 -37.943  0.00  0.00    +0.000 A 
ATOM     10  C7  UNL     1      32.188  -8.359 -39.345  0.00  0.00    +0.000 A 
ATOM     11  C8  UNL     1      32.510  -7.169 -40.007  0.00  0.00    +0.000 A 
ATOM     12  C9  UNL     1      32.749  -6.004 -39.274  0.00  0.00    +0.000 A 
ATOM     13  C10 UNL     1      32.675  -6.026 -37.877  0.00  0.00    +0.000 A 
ATOM     14  C11 UNL     1      32.359  -7.220 -37.206  0.00  0.00    +0.000 A 
ATOM     15  C12 UNL     1      32.309  -7.291 -35.736  0.00  0.00    +0.000 C 
ATOM     16  O2  UNL     1      32.603  -6.279 -35.042  0.00  0.00    +0.000 OA
ATOM     17  N2  UNL     1      31.943  -8.523 -35.089  0.00  0.00    +0.000 N 
ATOM     18  H6  UNL     1      31.683 -10.485 -37.823  0.00  0.00    +0.000 HD
BRANCH  17  19
ATOM     19  N3  UNL     1      31.883  -8.556 -33.682  0.00  0.00    +0.000 N 
ATOM     20  H11 UNL     1      31.474  -7.739 -33.178  0.00  0.00    +0.000 HD
BRANCH  19  21
ATOM     21  C13 UNL     1      32.448  -9.631 -32.912  0.00  0.00    +0.000 A 
ATOM     22  C14 UNL     1      33.808  -9.955 -33.065  0.00  0.00    +0.000 A 
ATOM     23  C15 UNL     1      34.369 -11.016 -32.346  0.00  0.00    +0.000 A 
ATOM     24  C16 UNL     1      33.575 -11.766 -31.475  0.00  0.00    +0.000 A 
ATOM     25  C17 UNL     1      32.218 -11.458 -31.324  0.00  0.00    +0.000 A 
ATOM     26  C18 UNL     1      31.651 -10.402 -32.045  0.00  0.00    +0.000 A 
ENDBRANCH  19  21
ENDBRANCH  17  19
ENDBRANCH   3   7
BRANCH   1  28
ATOM     27  C1  UNL     1      26.926  -7.486 -32.995  0.00  0.00    +0.000 C 
ATOM     28  O1  UNL     1      27.051  -8.831 -33.448  0.00  0.00    +0.000 OA
ENDBRANCH   1  28
BRANCH   6  29
ATOM     29  O3  UNL     1      25.632  -9.620 -35.644  0.00  0.00    +0.000 OA
BRANCH  29  30
ATOM     30  C22 UNL     1      24.808  -8.468 -35.795  0.00  0.00    +0.000 C 
BRANCH  30  31
ATOM     31  C23 UNL     1      25.231  -7.722 -37.018  0.00  0.00    +0.000 A 
ATOM     32  C24 UNL     1      24.991  -8.078 -38.326  0.00  0.00    +0.000 A 
ATOM     33  N4  UNL     1      25.505  -7.094 -39.078  0.00  0.00    +0.000 N 
ATOM     34  N6  UNL     1      26.043  -6.189 -38.276  0.00  0.00    +0.000 NA
ATOM     35  N7  UNL     1      25.890  -6.548 -37.009  0.00  0.00    +0.000 NA
BRANCH  33  36
ATOM     36  C25 UNL     1      25.483  -7.004 -40.535  0.00  0.00    +0.000 C 
BRANCH  36  37
ATOM     37  C26 UNL     1      24.583  -8.059 -41.120  0.00  0.00    +0.000 C 
ATOM     38  N5  UNL     1      25.026  -9.199 -41.572  0.00  0.00    +0.000 NA
BRANCH  38  39
ATOM     39  C27 UNL     1      26.402  -9.601 -41.641  0.00  0.00    +0.000 A 
ATOM     40  C28 UNL     1      26.962 -10.388 -40.622  0.00  0.00    +0.000 A 
ATOM     41  C29 UNL     1      28.300 -10.778 -40.684  0.00  0.00    +0.000 A 
ATOM     42  C30 UNL     1      29.105 -10.381 -41.761  0.00  0.00    +0.000 A 
ATOM     43  C31 UNL     1      30.549 -10.789 -41.809  0.00  0.00    +0.000 C 
ATOM     44  C32 UNL     1      28.564  -9.549 -42.754  0.00  0.00    +0.000 A 
ATOM     45  C33 UNL     1      27.216  -9.153 -42.701  0.00  0.00    +0.000 A 
ATOM     46  C34 UNL     1      26.642  -8.280 -43.780  0.00  0.00    +0.000 C 
ENDBRANCH  38  39
BRANCH  37  47
ATOM     47  O4  UNL     1      23.212  -7.814 -41.133  0.00  0.00    +0.000 OA
ATOM     48  H24 UNL     1      22.587  -8.380 -41.695  0.00  0.00    +0.000 HD
ENDBRANCH  37  47
ENDBRANCH  36  37
ENDBRANCH  33  36
ENDBRANCH  30  31
ENDBRANCH  29  30
ENDBRANCH   6  29
TORSDOF 11
ENDMDL
MODEL 7
REMARK VINA RESULT:    -6.198      3.400      6.406
REMARK INTER + INTRA:         -12.313
REMARK INTER:                 -10.492
REMARK INTRA:                  -1.822
REMARK UNBOUND:                -2.311
REMARK  Name = resultss/4CJN/ligands/lig_342_t1.pdb
REMARK  14 active torsions:
REMARK  status: ('A' for Active; 'I' for Inactive)
REMARK    1  A    between atoms: C1_1  and  O1_2
REMARK    2  A    between atoms: O1_2  and  C2_3
REMARK    3  A    between atoms: C4_5  and  C5_6
REMARK    4  A    between atoms: N2_16  and  N3_17
REMARK    5  A    between atoms: N3_17  and  C13_18
REMARK    6  A    between atoms: C21_26  and  O3_27
REMARK    7  A    between atoms: O3_27  and  C22_28
REMARK    8  A    between atoms: C22_28  and  C23_29
REMARK    9  A    between atoms: N4_31  and  C25_32
REMARK   10  A    between atoms: C25_32  and  C26_33
REMARK   11  A    between atoms: C26_33  and  O4_34
REMARK   12  A    between atoms: N5_35  and  C27_36
REMARK   13  A    between atoms: C30_39  and  C31_40
REMARK   14  A    between atoms: C33_42  and  C34_43
REMARK                            x       y       z     vdW  Elec       q    Type
REMARK                         _______ _______ _______ _____ _____    ______ ____
ROOT
ATOM      1  C2  UNL     1      28.367  -7.237 -39.113  0.00  0.00    +0.000 A 
ATOM      2  C3  UNL     1      28.057  -6.989 -37.762  0.00  0.00    +0.000 A 
ATOM      3  C4  UNL     1      28.114  -8.022 -36.810  0.00  0.00    +0.000 A 
ATOM      4  C19 UNL     1      28.542  -9.297 -37.216  0.00  0.00    +0.000 A 
ATOM      5  C20 UNL     1      28.864  -9.548 -38.553  0.00  0.00    +0.000 A 
ATOM      6  C21 UNL     1      28.767  -8.521 -39.510  0.00  0.00    +0.000 A 
ENDROOT
BRANCH   3   7
ATOM      7  C5  UNL     1      27.808  -7.776 -35.348  0.00  0.00    +0.000 C 
ATOM      8  N1  UNL     1      26.755  -6.761 -35.233  0.00  0.00    +0.000 N 
ATOM      9  C6  UNL     1      25.369  -7.099 -35.093  0.00  0.00    +0.000 A 
ATOM     10  C7  UNL     1      24.381  -6.125 -35.306  0.00  0.00    +0.000 A 
ATOM     11  C8  UNL     1      23.029  -6.452 -35.159  0.00  0.00    +0.000 A 
ATOM     12  C9  UNL     1      22.659  -7.751 -34.801  0.00  0.00    +0.000 A 
ATOM     13  C10 UNL     1      23.639  -8.724 -34.581  0.00  0.00    +0.000 A 
ATOM     14  C11 UNL     1      25.000  -8.399 -34.720  0.00  0.00    +0.000 A 
ATOM     15  C12 UNL     1      26.061  -9.386 -34.459  0.00  0.00    +0.000 C 
ATOM     16  O2  UNL     1      25.764 -10.544 -34.052  0.00  0.00    +0.000 OA
ATOM     17  N2  UNL     1      27.440  -9.025 -34.651  0.00  0.00    +0.000 N 
ATOM     18  H6  UNL     1      27.017  -5.768 -35.429  0.00  0.00    +0.000 HD
BRANCH  17  19
ATOM     19  N3  UNL     1      28.433  -9.995 -34.415  0.00  0.00    +0.000 N 
ATOM     20  H11 UNL     1      28.189 -11.003 -34.540  0.00  0.00    +0.000 HD
BRANCH  19  21
ATOM     21  C13 UNL     1      29.740  -9.657 -33.919  0.00  0.00    +0.000 A 
ATOM     22  C14 UNL     1      30.840  -9.672 -34.795  0.00  0.00    +0.000 A 
ATOM     23  C15 UNL     1      32.124  -9.374 -34.325  0.00  0.00    +0.000 A 
ATOM     24  C16 UNL     1      32.320  -9.066 -32.978  0.00  0.00    +0.000 A 
ATOM     25  C17 UNL     1      31.233  -9.058 -32.096  0.00  0.00    +0.000 A 
ATOM     26  C18 UNL     1      29.948  -9.362 -32.559  0.00  0.00    +0.000 A 
ENDBRANCH  19  21
ENDBRANCH  17  19
ENDBRANCH   3   7
BRANCH   1  28
ATOM     27  C1  UNL     1      27.108  -5.883 -40.802  0.00  0.00    +0.000 C 
ATOM     28  O1  UNL     1      28.291  -6.231 -40.090  0.00  0.00    +0.000 OA
ENDBRANCH   1  28
BRANCH   6  29
ATOM     29  O3  UNL     1      29.053  -8.736 -40.867  0.00  0.00    +0.000 OA
BRANCH  29  30
ATOM     30  C22 UNL     1      28.605  -9.854 -41.628  0.00  0.00    +0.000 C 
BRANCH  30  31
ATOM     31  C23 UNL     1      27.113  -9.902 -41.592  0.00  0.00    +0.000 A 
ATOM     32  C24 UNL     1      26.244  -9.163 -42.362  0.00  0.00    +0.000 A 
ATOM     33  N4  UNL     1      25.011  -9.572 -42.026  0.00  0.00    +0.000 N 
ATOM     34  N6  UNL     1      25.117 -10.503 -41.092  0.00  0.00    +0.000 NA
ATOM     35  N7  UNL     1      26.392 -10.726 -40.806  0.00  0.00    +0.000 NA
BRANCH  33  36
ATOM     36  C25 UNL     1      23.749  -9.096 -42.586  0.00  0.00    +0.000 C 
BRANCH  36  37
ATOM     37  C26 UNL     1      23.352  -7.785 -41.962  0.00  0.00    +0.000 C 
ATOM     38  N5  UNL     1      22.808  -6.814 -42.640  0.00  0.00    +0.000 NA
BRANCH  38  39
ATOM     39  C27 UNL     1      22.559  -6.808 -44.054  0.00  0.00    +0.000 A 
ATOM     40  C28 UNL     1      23.631  -6.811 -44.961  0.00  0.00    +0.000 A 
ATOM     41  C29 UNL     1      23.394  -6.800 -46.336  0.00  0.00    +0.000 A 
ATOM     42  C30 UNL     1      22.081  -6.781 -46.828  0.00  0.00    +0.000 A 
ATOM     43  C31 UNL     1      21.836  -6.751 -48.309  0.00  0.00    +0.000 C 
ATOM     44  C32 UNL     1      21.008  -6.724 -45.925  0.00  0.00    +0.000 A 
ATOM     45  C33 UNL     1      21.238  -6.735 -44.538  0.00  0.00    +0.000 A 
ATOM     46  C34 UNL     1      20.081  -6.695 -43.580  0.00  0.00    +0.000 C 
ENDBRANCH  38  39
BRANCH  37  47
ATOM     47  O4  UNL     1      23.538  -7.630 -40.591  0.00  0.00    +0.000 OA
ATOM     48  H24 UNL     1      23.529  -8.430 -39.969  0.00  0.00    +0.000 HD
ENDBRANCH  37  47
ENDBRANCH  36  37
ENDBRANCH  33  36
ENDBRANCH  30  31
ENDBRANCH  29  30
ENDBRANCH   6  29
TORSDOF 11
ENDMDL
MODEL 8
REMARK VINA RESULT:    -6.093      3.130      5.656
REMARK INTER + INTRA:         -12.144
REMARK INTER:                 -10.092
REMARK INTRA:                  -2.052
REMARK UNBOUND:                -2.311
REMARK  Name = resultss/4CJN/ligands/lig_342_t1.pdb
REMARK  14 active torsions:
REMARK  status: ('A' for Active; 'I' for Inactive)
REMARK    1  A    between atoms: C1_1  and  O1_2
REMARK    2  A    between atoms: O1_2  and  C2_3
REMARK    3  A    between atoms: C4_5  and  C5_6
REMARK    4  A    between atoms: N2_16  and  N3_17
REMARK    5  A    between atoms: N3_17  and  C13_18
REMARK    6  A    between atoms: C21_26  and  O3_27
REMARK    7  A    between atoms: O3_27  and  C22_28
REMARK    8  A    between atoms: C22_28  and  C23_29
REMARK    9  A    between atoms: N4_31  and  C25_32
REMARK   10  A    between atoms: C25_32  and  C26_33
REMARK   11  A    between atoms: C26_33  and  O4_34
REMARK   12  A    between atoms: N5_35  and  C27_36
REMARK   13  A    between atoms: C30_39  and  C31_40
REMARK   14  A    between atoms: C33_42  and  C34_43
REMARK                            x       y       z     vdW  Elec       q    Type
REMARK                         _______ _______ _______ _____ _____    ______ ____
ROOT
ATOM      1  C2  UNL     1      29.460  -7.548 -39.496  0.00  0.00    +0.000 A 
ATOM      2  C3  UNL     1      29.290  -7.148 -38.156  0.00  0.00    +0.000 A 
ATOM      3  C4  UNL     1      29.683  -7.989 -37.101  0.00  0.00    +0.000 A 
ATOM      4  C19 UNL     1      30.304  -9.213 -37.402  0.00  0.00    +0.000 A 
ATOM      5  C20 UNL     1      30.488  -9.611 -38.729  0.00  0.00    +0.000 A 
ATOM      6  C21 UNL     1      30.055  -8.785 -39.783  0.00  0.00    +0.000 A 
ENDROOT
BRANCH   3   7
ATOM      7  C5  UNL     1      29.533  -7.573 -35.653  0.00  0.00    +0.000 C 
ATOM      8  N1  UNL     1      28.298  -6.800 -35.492  0.00  0.00    +0.000 N 
ATOM      9  C6  UNL     1      27.063  -7.395 -35.073  0.00  0.00    +0.000 A 
ATOM     10  C7  UNL     1      25.854  -6.701 -35.238  0.00  0.00    +0.000 A 
ATOM     11  C8  UNL     1      24.650  -7.278 -34.818  0.00  0.00    +0.000 A 
ATOM     12  C9  UNL     1      24.649  -8.547 -34.235  0.00  0.00    +0.000 A 
ATOM     13  C10 UNL     1      25.851  -9.240 -34.062  0.00  0.00    +0.000 A 
ATOM     14  C11 UNL     1      27.065  -8.663 -34.475  0.00  0.00    +0.000 A 
ATOM     15  C12 UNL     1      28.354  -9.346 -34.273  0.00  0.00    +0.000 C 
ATOM     16  O2  UNL     1      28.397 -10.455 -33.673  0.00  0.00    +0.000 OA
ATOM     17  N2  UNL     1      29.569  -8.738 -34.746  0.00  0.00    +0.000 N 
ATOM     18  H6  UNL     1      28.289  -5.820 -35.859  0.00  0.00    +0.000 HD
BRANCH  17  19
ATOM     19  N3  UNL     1      30.786  -9.423 -34.559  0.00  0.00    +0.000 N 
ATOM     20  H11 UNL     1      31.135 -10.042 -35.324  0.00  0.00    +0.000 HD
BRANCH  19  21
ATOM     21  C13 UNL     1      31.515  -9.376 -33.320  0.00  0.00    +0.000 A 
ATOM     22  C14 UNL     1      32.060  -8.156 -32.882  0.00  0.00    +0.000 A 
ATOM     23  C15 UNL     1      32.797  -8.096 -31.695  0.00  0.00    +0.000 A 
ATOM     24  C16 UNL     1      33.003  -9.253 -30.941  0.00  0.00    +0.000 A 
ATOM     25  C17 UNL     1      32.474 -10.474 -31.374  0.00  0.00    +0.000 A 
ATOM     26  C18 UNL     1      31.741 -10.541 -32.564  0.00  0.00    +0.000 A 
ENDBRANCH  19  21
ENDBRANCH  17  19
ENDBRANCH   3   7
BRANCH   1  28
ATOM     27  C1  UNL     1      27.694  -6.449 -40.890  0.00  0.00    +0.000 C 
ATOM     28  O1  UNL     1      29.050  -6.741 -40.570  0.00  0.00    +0.000 OA
ENDBRANCH   1  28
BRANCH   6  29
ATOM     29  O3  UNL     1      30.194  -9.157 -41.129  0.00  0.00    +0.000 OA
BRANCH  29  30
ATOM     30  C22 UNL     1      29.603 -10.310 -41.721  0.00  0.00    +0.000 C 
BRANCH  30  31
ATOM     31  C23 UNL     1      28.119 -10.224 -41.579  0.00  0.00    +0.000 A 
ATOM     32  C24 UNL     1      27.234  -9.665 -42.474  0.00  0.00    +0.000 A 
ATOM     33  N4  UNL     1      26.012  -9.862 -41.958  0.00  0.00    +0.000 N 
ATOM     34  N6  UNL     1      26.139 -10.495 -40.803  0.00  0.00    +0.000 NA
ATOM     35  N7  UNL     1      27.418 -10.730 -40.546  0.00  0.00    +0.000 NA
BRANCH  33  36
ATOM     36  C25 UNL     1      24.738  -9.463 -42.551  0.00  0.00    +0.000 C 
BRANCH  36  37
ATOM     37  C26 UNL     1      24.343  -8.087 -42.087  0.00  0.00    +0.000 C 
ATOM     38  N5  UNL     1      24.423  -7.031 -42.848  0.00  0.00    +0.000 NA
BRANCH  38  39
ATOM     39  C27 UNL     1      24.937  -6.994 -44.187  0.00  0.00    +0.000 A 
ATOM     40  C28 UNL     1      26.319  -6.890 -44.412  0.00  0.00    +0.000 A 
ATOM     41  C29 UNL     1      26.823  -6.849 -45.712  0.00  0.00    +0.000 A 
ATOM     42  C30 UNL     1      25.954  -6.906 -46.811  0.00  0.00    +0.000 A 
ATOM     43  C31 UNL     1      26.503  -6.842 -48.206  0.00  0.00    +0.000 C 
ATOM     44  C32 UNL     1      24.568  -6.956 -46.590  0.00  0.00    +0.000 A 
ATOM     45  C33 UNL     1      24.052  -6.998 -45.283  0.00  0.00    +0.000 A 
ATOM     46  C34 UNL     1      22.568  -7.073 -45.059  0.00  0.00    +0.000 C 
ENDBRANCH  38  39
BRANCH  37  47
ATOM     47  O4  UNL     1      23.829  -7.954 -40.799  0.00  0.00    +0.000 OA
ATOM     48  H24 UNL     1      24.410  -8.119 -39.986  0.00  0.00    +0.000 HD
ENDBRANCH  37  47
ENDBRANCH  36  37
ENDBRANCH  33  36
ENDBRANCH  30  31
ENDBRANCH  29  30
ENDBRANCH   6  29
TORSDOF 11
ENDMDL
MODEL 9
REMARK VINA RESULT:    -5.484      3.121      5.550
REMARK INTER + INTRA:         -11.161
REMARK INTER:                  -7.887
REMARK INTRA:                  -3.274
REMARK UNBOUND:                -2.311
REMARK  Name = resultss/4CJN/ligands/lig_342_t1.pdb
REMARK  14 active torsions:
REMARK  status: ('A' for Active; 'I' for Inactive)
REMARK    1  A    between atoms: C1_1  and  O1_2
REMARK    2  A    between atoms: O1_2  and  C2_3
REMARK    3  A    between atoms: C4_5  and  C5_6
REMARK    4  A    between atoms: N2_16  and  N3_17
REMARK    5  A    between atoms: N3_17  and  C13_18
REMARK    6  A    between atoms: C21_26  and  O3_27
REMARK    7  A    between atoms: O3_27  and  C22_28
REMARK    8  A    between atoms: C22_28  and  C23_29
REMARK    9  A    between atoms: N4_31  and  C25_32
REMARK   10  A    between atoms: C25_32  and  C26_33
REMARK   11  A    between atoms: C26_33  and  O4_34
REMARK   12  A    between atoms: N5_35  and  C27_36
REMARK   13  A    between atoms: C30_39  and  C31_40
REMARK   14  A    between atoms: C33_42  and  C34_43
REMARK                            x       y       z     vdW  Elec       q    Type
REMARK                         _______ _______ _______ _____ _____    ______ ____
ROOT
ATOM      1  C2  UNL     1      29.948  -6.624 -37.475  0.00  0.00    +0.000 A 
ATOM      2  C3  UNL     1      29.298  -7.023 -36.291  0.00  0.00    +0.000 A 
ATOM      3  C4  UNL     1      30.028  -7.232 -35.107  0.00  0.00    +0.000 A 
ATOM      4  C19 UNL     1      31.410  -6.981 -35.108  0.00  0.00    +0.000 A 
ATOM      5  C20 UNL     1      32.059  -6.573 -36.276  0.00  0.00    +0.000 A 
ATOM      6  C21 UNL     1      31.332  -6.404 -37.469  0.00  0.00    +0.000 A 
ENDROOT
BRANCH   3   7
ATOM      7  C5  UNL     1      29.350  -7.637 -33.816  0.00  0.00    +0.000 C 
ATOM      8  N1  UNL     1      28.271  -6.692 -33.512  0.00  0.00    +0.000 N 
ATOM      9  C6  UNL     1      26.907  -6.933 -33.881  0.00  0.00    +0.000 A 
ATOM     10  C7  UNL     1      25.975  -5.883 -33.861  0.00  0.00    +0.000 A 
ATOM     11  C8  UNL     1      24.641  -6.121 -34.210  0.00  0.00    +0.000 A 
ATOM     12  C9  UNL     1      24.234  -7.405 -34.581  0.00  0.00    +0.000 A 
ATOM     13  C10 UNL     1      25.157  -8.456 -34.596  0.00  0.00    +0.000 A 
ATOM     14  C11 UNL     1      26.497  -8.225 -34.239  0.00  0.00    +0.000 A 
ATOM     15  C12 UNL     1      27.487  -9.314 -34.206  0.00  0.00    +0.000 C 
ATOM     16  O2  UNL     1      27.134 -10.500 -34.453  0.00  0.00    +0.000 OA
ATOM     17  N2  UNL     1      28.857  -9.028 -33.873  0.00  0.00    +0.000 N 
ATOM     18  H6  UNL     1      28.542  -5.743 -33.166  0.00  0.00    +0.000 HD
BRANCH  17  19
ATOM     19  N3  UNL     1      29.788 -10.086 -33.870  0.00  0.00    +0.000 N 
ATOM     20  H11 UNL     1      29.507 -11.001 -34.286  0.00  0.00    +0.000 HD
BRANCH  19  21
ATOM     21  C13 UNL     1      31.073  -9.980 -33.233  0.00  0.00    +0.000 A 
ATOM     22  C14 UNL     1      32.240 -10.011 -34.017  0.00  0.00    +0.000 A 
ATOM     23  C15 UNL     1      33.500  -9.939 -33.413  0.00  0.00    +0.000 A 
ATOM     24  C16 UNL     1      33.605  -9.843 -32.024  0.00  0.00    +0.000 A 
ATOM     25  C17 UNL     1      32.449  -9.823 -31.235  0.00  0.00    +0.000 A 
ATOM     26  C18 UNL     1      31.187  -9.901 -31.833  0.00  0.00    +0.000 A 
ENDBRANCH  19  21
ENDBRANCH  17  19
ENDBRANCH   3   7
BRANCH   1  28
ATOM     27  C1  UNL     1      27.925  -5.917 -38.773  0.00  0.00    +0.000 C 
ATOM     28  O1  UNL     1      29.249  -6.436 -38.679  0.00  0.00    +0.000 OA
ENDBRANCH   1  28
BRANCH   6  29
ATOM     29  O3  UNL     1      31.948  -6.024 -38.672  0.00  0.00    +0.000 OA
BRANCH  29  30
ATOM     30  C22 UNL     1      32.915  -6.800 -39.373  0.00  0.00    +0.000 C 
BRANCH  30  31
ATOM     31  C23 UNL     1      32.218  -7.887 -40.123  0.00  0.00    +0.000 A 
ATOM     32  C24 UNL     1      30.878  -7.950 -40.430  0.00  0.00    +0.000 A 
ATOM     33  N4  UNL     1      30.715  -9.070 -41.151  0.00  0.00    +0.000 N 
ATOM     34  N6  UNL     1      31.890  -9.669 -41.268  0.00  0.00    +0.000 NA
ATOM     35  N7  UNL     1      32.828  -8.967 -40.649  0.00  0.00    +0.000 NA
BRANCH  33  36
ATOM     36  C25 UNL     1      29.469  -9.566 -41.727  0.00  0.00    +0.000 C 
BRANCH  36  37
ATOM     37  C26 UNL     1      29.185 -10.967 -41.257  0.00  0.00    +0.000 C 
ATOM     38  N5  UNL     1      28.188 -11.263 -40.471  0.00  0.00    +0.000 NA
BRANCH  38  39
ATOM     39  C27 UNL     1      27.262 -10.329 -39.895  0.00  0.00    +0.000 A 
ATOM     40  C28 UNL     1      26.200  -9.821 -40.660  0.00  0.00    +0.000 A 
ATOM     41  C29 UNL     1      25.301  -8.910 -40.106  0.00  0.00    +0.000 A 
ATOM     42  C30 UNL     1      25.450  -8.486 -38.778  0.00  0.00    +0.000 A 
ATOM     43  C31 UNL     1      24.489  -7.492 -38.195  0.00  0.00    +0.000 C 
ATOM     44  C32 UNL     1      26.541  -8.951 -38.026  0.00  0.00    +0.000 A 
ATOM     45  C33 UNL     1      27.451  -9.870 -38.577  0.00  0.00    +0.000 A 
ATOM     46  C34 UNL     1      28.603 -10.377 -37.756  0.00  0.00    +0.000 C 
ENDBRANCH  38  39
BRANCH  37  47
ATOM     47  O4  UNL     1      30.004 -11.992 -41.723  0.00  0.00    +0.000 OA
ATOM     48  H24 UNL     1      30.802 -12.308 -41.185  0.00  0.00    +0.000 HD
ENDBRANCH  37  47
ENDBRANCH  36  37
ENDBRANCH  33  36
ENDBRANCH  30  31
ENDBRANCH  29  30
ENDBRANCH   6  29
TORSDOF 11
ENDMDL
