MODEL 1
REMARK VINA RESULT:    -6.571      0.000      0.000
REMARK INTER + INTRA:          -8.596
REMARK INTER:                  -8.684
REMARK INTRA:                   0.088
REMARK UNBOUND:                 0.088
REMARK  Name = resultss/4CJN/ligands/lig_370_t1.pdb
REMARK  8 active torsions:
REMARK  status: ('A' for Active; 'I' for Inactive)
REMARK    1  A    between atoms: C1_1  and  O1_2
REMARK    2  A    between atoms: O1_2  and  C2_3
REMARK    3  A    between atoms: C5_6  and  C6_7
REMARK    4  A    between atoms: C6_7  and  C7_8
REMARK    5  A    between atoms: C6_7  and  C16_21
REMARK    6  A    between atoms: C15_19  and  O4_20
REMARK    7  A    between atoms: C17_22  and  O5_23
REMARK    8  A    between atoms: C26_35  and  O8_36
REMARK                            x       y       z     vdW  Elec       q    Type
REMARK                         _______ _______ _______ _____ _____    ______ ____
ROOT
ATOM      1  C6  UNL     1      27.583  -8.221 -40.435  0.00  0.00    +0.000 C 
ENDROOT
BRANCH   1   2
ATOM      2  C7  UNL     1      28.440  -9.350 -41.021  0.00  0.00    +0.000 A 
ATOM      3  C8  UNL     1      29.361  -9.076 -42.057  0.00  0.00    +0.000 A 
ATOM      4  O2  UNL     1      29.485  -7.902 -42.504  0.00  0.00    +0.000 OA
ATOM      5  C9  UNL     1      30.138 -10.116 -42.595  0.00  0.00    +0.000 A 
ATOM      6  C10 UNL     1      31.084  -9.895 -43.614  0.00  0.00    +0.000 A 
ATOM      7  C11 UNL     1      31.837 -10.962 -44.118  0.00  0.00    +0.000 A 
ATOM      8 CL1  UNL     1      33.016 -10.683 -45.385  0.00  0.00    +0.000 Cl
ATOM      9  C12 UNL     1      31.651 -12.252 -43.610  0.00  0.00    +0.000 A 
ATOM     10  C13 UNL     1      30.711 -12.480 -42.600  0.00  0.00    +0.000 A 
ATOM     11  C14 UNL     1      29.954 -11.419 -42.091  0.00  0.00    +0.000 A 
ATOM     12  O3  UNL     1      29.060 -11.650 -41.140  0.00  0.00    +0.000 OA
ATOM     13  C15 UNL     1      28.306 -10.696 -40.604  0.00  0.00    +0.000 A 
BRANCH  13  14
ATOM     14  O4  UNL     1      27.373 -11.055 -39.638  0.00  0.00    +0.000 OA
ATOM     15  H10 UNL     1      27.216 -10.471 -38.826  0.00  0.00    +0.000 HD
ENDBRANCH  13  14
ENDBRANCH   1   2
BRANCH   1  16
ATOM     16  C16 UNL     1      27.611  -8.184 -38.899  0.00  0.00    +0.000 A 
ATOM     17  C17 UNL     1      26.561  -8.679 -38.081  0.00  0.00    +0.000 A 
ATOM     18  C18 UNL     1      26.673  -8.578 -36.673  0.00  0.00    +0.000 A 
ATOM     19  C19 UNL     1      25.661  -8.996 -35.781  0.00  0.00    +0.000 A 
ATOM     20  C20 UNL     1      25.838  -8.876 -34.398  0.00  0.00    +0.000 A 
ATOM     21 CL2  UNL     1      24.572  -9.400 -33.302  0.00  0.00    +0.000 Cl
ATOM     22  C21 UNL     1      27.020  -8.338 -33.886  0.00  0.00    +0.000 A 
ATOM     23  C22 UNL     1      28.027  -7.914 -34.752  0.00  0.00    +0.000 A 
ATOM     24  C23 UNL     1      27.860  -8.027 -36.136  0.00  0.00    +0.000 A 
ATOM     25  O6  UNL     1      28.832  -7.611 -36.935  0.00  0.00    +0.000 OA
ATOM     26  C24 UNL     1      28.758  -7.668 -38.256  0.00  0.00    +0.000 A 
ATOM     27  O7  UNL     1      29.739  -7.255 -38.932  0.00  0.00    +0.000 OA
BRANCH  17  28
ATOM     28  O5  UNL     1      25.452  -9.279 -38.688  0.00  0.00    +0.000 OA
ATOM     29  H11 UNL     1      24.536  -9.362 -38.272  0.00  0.00    +0.000 HD
ENDBRANCH  17  28
ENDBRANCH   1  16
BRANCH   1  33
ATOM     30  C2  UNL     1      23.591  -7.856 -42.130  0.00  0.00    +0.000 A 
ATOM     31  C3  UNL     1      24.192  -6.785 -41.445  0.00  0.00    +0.000 A 
ATOM     32  C4  UNL     1      25.477  -6.918 -40.915  0.00  0.00    +0.000 A 
ATOM     33  C5  UNL     1      26.195  -8.118 -41.056  0.00  0.00    +0.000 A 
ATOM     34  C25 UNL     1      25.585  -9.191 -41.738  0.00  0.00    +0.000 A 
ATOM     35  C26 UNL     1      24.295  -9.060 -42.271  0.00  0.00    +0.000 A 
BRANCH  30  37
ATOM     36  C1  UNL     1      22.002  -7.151 -43.927  0.00  0.00    +0.000 C 
ATOM     37  O1  UNL     1      22.303  -7.766 -42.678  0.00  0.00    +0.000 OA
ENDBRANCH  30  37
BRANCH  35  38
ATOM     38  O8  UNL     1      23.702 -10.127 -42.945  0.00  0.00    +0.000 OA
ATOM     39  H16 UNL     1      23.911 -10.323 -43.916  0.00  0.00    +0.000 HD
ENDBRANCH  35  38
ENDBRANCH   1  33
TORSDOF 7
ENDMDL
MODEL 2
REMARK VINA RESULT:    -6.258      2.837      6.357
REMARK INTER + INTRA:          -8.182
REMARK INTER:                  -8.185
REMARK INTRA:                   0.002
REMARK UNBOUND:                 0.088
REMARK  Name = resultss/4CJN/ligands/lig_370_t1.pdb
REMARK  8 active torsions:
REMARK  status: ('A' for Active; 'I' for Inactive)
REMARK    1  A    between atoms: C1_1  and  O1_2
REMARK    2  A    between atoms: O1_2  and  C2_3
REMARK    3  A    between atoms: C5_6  and  C6_7
REMARK    4  A    between atoms: C6_7  and  C7_8
REMARK    5  A    between atoms: C6_7  and  C16_21
REMARK    6  A    between atoms: C15_19  and  O4_20
REMARK    7  A    between atoms: C17_22  and  O5_23
REMARK    8  A    between atoms: C26_35  and  O8_36
REMARK                            x       y       z     vdW  Elec       q    Type
REMARK                         _______ _______ _______ _____ _____    ______ ____
ROOT
ATOM      1  C6  UNL     1      28.303  -9.987 -41.060  0.00  0.00    +0.000 C 
ENDROOT
BRANCH   1   2
ATOM      2  C7  UNL     1      27.511  -8.902 -41.802  0.00  0.00    +0.000 A 
ATOM      3  C8  UNL     1      26.125  -9.063 -42.023  0.00  0.00    +0.000 A 
ATOM      4  O2  UNL     1      25.530 -10.097 -41.611  0.00  0.00    +0.000 OA
ATOM      5  C9  UNL     1      25.407  -8.070 -42.710  0.00  0.00    +0.000 A 
ATOM      6  C10 UNL     1      24.021  -8.169 -42.940  0.00  0.00    +0.000 A 
ATOM      7  C11 UNL     1      23.348  -7.153 -43.628  0.00  0.00    +0.000 A 
ATOM      8 CL1  UNL     1      21.622  -7.280 -43.910  0.00  0.00    +0.000 Cl
ATOM      9  C12 UNL     1      24.050  -6.034 -44.088  0.00  0.00    +0.000 A 
ATOM     10  C13 UNL     1      25.426  -5.929 -43.865  0.00  0.00    +0.000 A 
ATOM     11  C14 UNL     1      26.108  -6.940 -43.180  0.00  0.00    +0.000 A 
ATOM     12  O3  UNL     1      27.414  -6.832 -42.983  0.00  0.00    +0.000 OA
ATOM     13  C15 UNL     1      28.130  -7.748 -42.339  0.00  0.00    +0.000 A 
BRANCH  13  14
ATOM     14  O4  UNL     1      29.501  -7.553 -42.222  0.00  0.00    +0.000 OA
ATOM     15  H10 UNL     1      30.133  -8.340 -42.139  0.00  0.00    +0.000 HD
ENDBRANCH  13  14
ENDBRANCH   1   2
BRANCH   1  16
ATOM     16  C16 UNL     1      28.224  -9.846 -39.532  0.00  0.00    +0.000 A 
ATOM     17  C17 UNL     1      28.583  -8.663 -38.832  0.00  0.00    +0.000 A 
ATOM     18  C18 UNL     1      28.496  -8.642 -37.418  0.00  0.00    +0.000 A 
ATOM     19  C19 UNL     1      28.877  -7.531 -36.633  0.00  0.00    +0.000 A 
ATOM     20  C20 UNL     1      28.758  -7.572 -35.240  0.00  0.00    +0.000 A 
ATOM     21 CL2  UNL     1      29.237  -6.185 -34.277  0.00  0.00    +0.000 Cl
ATOM     22  C21 UNL     1      28.263  -8.715 -34.610  0.00  0.00    +0.000 A 
ATOM     23  C22 UNL     1      27.888  -9.822 -35.369  0.00  0.00    +0.000 A 
ATOM     24  C23 UNL     1      28.004  -9.795 -36.763  0.00  0.00    +0.000 A 
ATOM     25  O6  UNL     1      27.645 -10.864 -37.457  0.00  0.00    +0.000 OA
ATOM     26  C24 UNL     1      27.730 -10.933 -38.777  0.00  0.00    +0.000 A 
ATOM     27  O7  UNL     1      27.356 -11.992 -39.350  0.00  0.00    +0.000 OA
BRANCH  17  28
ATOM     28  O5  UNL     1      28.988  -7.539 -39.559  0.00  0.00    +0.000 OA
ATOM     29  H11 UNL     1      29.739  -7.523 -40.233  0.00  0.00    +0.000 HD
ENDBRANCH  17  28
ENDBRANCH   1  16
BRANCH   1  33
ATOM     30  C2  UNL     1      32.266 -10.705 -42.709  0.00  0.00    +0.000 A 
ATOM     31  C3  UNL     1      31.108 -10.912 -43.480  0.00  0.00    +0.000 A 
ATOM     32  C4  UNL     1      29.845 -10.669 -42.936  0.00  0.00    +0.000 A 
ATOM     33  C5  UNL     1      29.705 -10.211 -41.615  0.00  0.00    +0.000 A 
ATOM     34  C25 UNL     1      30.868 -10.011 -40.844  0.00  0.00    +0.000 A 
ATOM     35  C26 UNL     1      32.137 -10.254 -41.388  0.00  0.00    +0.000 A 
BRANCH  30  37
ATOM     36  C1  UNL     1      33.954 -10.658 -44.553  0.00  0.00    +0.000 C 
ATOM     37  O1  UNL     1      33.554 -10.936 -43.215  0.00  0.00    +0.000 OA
ENDBRANCH  30  37
BRANCH  35  38
ATOM     38  O8  UNL     1      33.282 -10.052 -40.617  0.00  0.00    +0.000 OA
ATOM     39  H16 UNL     1      34.091  -9.567 -40.986  0.00  0.00    +0.000 HD
ENDBRANCH  35  38
ENDBRANCH   1  33
TORSDOF 7
ENDMDL
MODEL 3
REMARK VINA RESULT:    -6.050      3.179      9.240
REMARK INTER + INTRA:          -7.907
REMARK INTER:                  -8.108
REMARK INTRA:                   0.201
REMARK UNBOUND:                 0.088
REMARK  Name = resultss/4CJN/ligands/lig_370_t1.pdb
REMARK  8 active torsions:
REMARK  status: ('A' for Active; 'I' for Inactive)
REMARK    1  A    between atoms: C1_1  and  O1_2
REMARK    2  A    between atoms: O1_2  and  C2_3
REMARK    3  A    between atoms: C5_6  and  C6_7
REMARK    4  A    between atoms: C6_7  and  C7_8
REMARK    5  A    between atoms: C6_7  and  C16_21
REMARK    6  A    between atoms: C15_19  and  O4_20
REMARK    7  A    between atoms: C17_22  and  O5_23
REMARK    8  A    between atoms: C26_35  and  O8_36
REMARK                            x       y       z     vdW  Elec       q    Type
REMARK                         _______ _______ _______ _____ _____    ______ ____
ROOT
ATOM      1  C6  UNL     1      29.066  -7.810 -36.557  0.00  0.00    +0.000 C 
ENDROOT
BRANCH   1   2
ATOM      2  C7  UNL     1      27.737  -8.187 -35.890  0.00  0.00    +0.000 A 
ATOM      3  C8  UNL     1      27.014  -7.220 -35.156  0.00  0.00    +0.000 A 
ATOM      4  O2  UNL     1      27.455  -6.043 -35.046  0.00  0.00    +0.000 OA
ATOM      5  C9  UNL     1      25.801  -7.574 -34.541  0.00  0.00    +0.000 A 
ATOM      6  C10 UNL     1      25.030  -6.645 -33.814  0.00  0.00    +0.000 A 
ATOM      7  C11 UNL     1      23.827  -7.043 -33.221  0.00  0.00    +0.000 A 
ATOM      8 CL1  UNL     1      22.869  -5.884 -32.319  0.00  0.00    +0.000 Cl
ATOM      9  C12 UNL     1      23.385  -8.365 -33.347  0.00  0.00    +0.000 A 
ATOM     10  C13 UNL     1      24.146  -9.292 -34.065  0.00  0.00    +0.000 A 
ATOM     11  C14 UNL     1      25.351  -8.904 -34.661  0.00  0.00    +0.000 A 
ATOM     12  O3  UNL     1      26.067  -9.796 -35.331  0.00  0.00    +0.000 OA
ATOM     13  C15 UNL     1      27.218  -9.503 -35.926  0.00  0.00    +0.000 A 
BRANCH  13  14
ATOM     14  O4  UNL     1      27.907 -10.524 -36.571  0.00  0.00    +0.000 OA
ATOM     15  H10 UNL     1      28.522 -10.324 -37.350  0.00  0.00    +0.000 HD
ENDBRANCH  13  14
ENDBRANCH   1   2
BRANCH   1  16
ATOM     16  C16 UNL     1      29.054  -8.024 -38.078  0.00  0.00    +0.000 A 
ATOM     17  C17 UNL     1      29.624  -9.158 -38.717  0.00  0.00    +0.000 A 
ATOM     18  C18 UNL     1      29.581  -9.252 -40.130  0.00  0.00    +0.000 A 
ATOM     19  C19 UNL     1      30.163 -10.314 -40.856  0.00  0.00    +0.000 A 
ATOM     20  C20 UNL     1      30.078 -10.351 -42.252  0.00  0.00    +0.000 A 
ATOM     21 CL2  UNL     1      30.806 -11.677 -43.141  0.00  0.00    +0.000 Cl
ATOM     22  C21 UNL     1      29.416  -9.334 -42.943  0.00  0.00    +0.000 A 
ATOM     23  C22 UNL     1      28.842  -8.274 -42.241  0.00  0.00    +0.000 A 
ATOM     24  C23 UNL     1      28.923  -8.225 -40.846  0.00  0.00    +0.000 A 
ATOM     25  O6  UNL     1      28.371  -7.203 -40.208  0.00  0.00    +0.000 OA
ATOM     26  C24 UNL     1      28.408  -7.067 -38.891  0.00  0.00    +0.000 A 
ATOM     27  O7  UNL     1      27.847  -6.063 -38.374  0.00  0.00    +0.000 OA
BRANCH  17  28
ATOM     28  O5  UNL     1      30.190 -10.168 -37.931  0.00  0.00    +0.000 OA
ATOM     29  H11 UNL     1      29.759 -10.585 -37.120  0.00  0.00    +0.000 HD
ENDBRANCH  17  28
ENDBRANCH   1  16
BRANCH   1  33
ATOM     30  C2  UNL     1      32.622  -9.382 -34.600  0.00  0.00    +0.000 A 
ATOM     31  C3  UNL     1      32.720  -8.498 -35.689  0.00  0.00    +0.000 A 
ATOM     32  C4  UNL     1      31.569  -7.998 -36.299  0.00  0.00    +0.000 A 
ATOM     33  C5  UNL     1      30.292  -8.363 -35.838  0.00  0.00    +0.000 A 
ATOM     34  C25 UNL     1      30.198  -9.255 -34.751  0.00  0.00    +0.000 A 
ATOM     35  C26 UNL     1      31.353  -9.758 -34.136  0.00  0.00    +0.000 A 
BRANCH  30  37
ATOM     36  C1  UNL     1      34.379  -9.320 -32.822  0.00  0.00    +0.000 C 
ATOM     37  O1  UNL     1      33.752  -9.909 -33.957  0.00  0.00    +0.000 OA
ENDBRANCH  30  37
BRANCH  35  38
ATOM     38  O8  UNL     1      31.249 -10.639 -33.060  0.00  0.00    +0.000 OA
ATOM     39  H16 UNL     1      31.696 -11.548 -33.073  0.00  0.00    +0.000 HD
ENDBRANCH  35  38
ENDBRANCH   1  33
TORSDOF 7
ENDMDL
MODEL 4
REMARK VINA RESULT:    -5.774      1.461      2.128
REMARK INTER + INTRA:          -7.542
REMARK INTER:                  -8.744
REMARK INTRA:                   1.202
REMARK UNBOUND:                 0.088
REMARK  Name = resultss/4CJN/ligands/lig_370_t1.pdb
REMARK  8 active torsions:
REMARK  status: ('A' for Active; 'I' for Inactive)
REMARK    1  A    between atoms: C1_1  and  O1_2
REMARK    2  A    between atoms: O1_2  and  C2_3
REMARK    3  A    between atoms: C5_6  and  C6_7
REMARK    4  A    between atoms: C6_7  and  C7_8
REMARK    5  A    between atoms: C6_7  and  C16_21
REMARK    6  A    between atoms: C15_19  and  O4_20
REMARK    7  A    between atoms: C17_22  and  O5_23
REMARK    8  A    between atoms: C26_35  and  O8_36
REMARK                            x       y       z     vdW  Elec       q    Type
REMARK                         _______ _______ _______ _____ _____    ______ ____
ROOT
ATOM      1  C6  UNL     1      27.961  -8.718 -40.328  0.00  0.00    +0.000 C 
ENDROOT
BRANCH   1   2
ATOM      2  C7  UNL     1      28.803  -9.777 -41.052  0.00  0.00    +0.000 A 
ATOM      3  C8  UNL     1      29.722  -9.389 -42.052  0.00  0.00    +0.000 A 
ATOM      4  O2  UNL     1      29.857  -8.171 -42.355  0.00  0.00    +0.000 OA
ATOM      5  C9  UNL     1      30.484 -10.364 -42.717  0.00  0.00    +0.000 A 
ATOM      6  C10 UNL     1      31.429 -10.031 -43.707  0.00  0.00    +0.000 A 
ATOM      7  C11 UNL     1      32.167 -11.037 -44.341  0.00  0.00    +0.000 A 
ATOM      8 CL1  UNL     1      33.343 -10.618 -45.572  0.00  0.00    +0.000 Cl
ATOM      9  C12 UNL     1      31.969 -12.377 -43.992  0.00  0.00    +0.000 A 
ATOM     10  C13 UNL     1      31.032 -12.716 -43.012  0.00  0.00    +0.000 A 
ATOM     11  C14 UNL     1      30.289 -11.717 -42.374  0.00  0.00    +0.000 A 
ATOM     12  O3  UNL     1      29.397 -12.052 -41.452  0.00  0.00    +0.000 OA
ATOM     13  C15 UNL     1      28.656 -11.162 -40.800  0.00  0.00    +0.000 A 
BRANCH  13  14
ATOM     14  O4  UNL     1      27.724 -11.626 -39.879  0.00  0.00    +0.000 OA
ATOM     15  H10 UNL     1      27.045 -10.998 -39.467  0.00  0.00    +0.000 HD
ENDBRANCH  13  14
ENDBRANCH   1   2
BRANCH   1  16
ATOM     16  C16 UNL     1      27.901  -8.938 -38.808  0.00  0.00    +0.000 A 
ATOM     17  C17 UNL     1      29.018  -8.778 -37.946  0.00  0.00    +0.000 A 
ATOM     18  C18 UNL     1      28.864  -9.026 -36.560  0.00  0.00    +0.000 A 
ATOM     19  C19 UNL     1      29.927  -8.943 -35.633  0.00  0.00    +0.000 A 
ATOM     20  C20 UNL     1      29.705  -9.193 -34.274  0.00  0.00    +0.000 A 
ATOM     21 CL2  UNL     1      31.035  -9.085 -33.134  0.00  0.00    +0.000 Cl
ATOM     22  C21 UNL     1      28.429  -9.531 -33.820  0.00  0.00    +0.000 A 
ATOM     23  C22 UNL     1      27.371  -9.624 -34.723  0.00  0.00    +0.000 A 
ATOM     24  C23 UNL     1      27.579  -9.379 -36.084  0.00  0.00    +0.000 A 
ATOM     25  O6  UNL     1      26.556  -9.480 -36.918  0.00  0.00    +0.000 OA
ATOM     26  C24 UNL     1      26.661  -9.277 -38.223  0.00  0.00    +0.000 A 
ATOM     27  O7  UNL     1      25.627  -9.390 -38.935  0.00  0.00    +0.000 OA
BRANCH  17  28
ATOM     28  O5  UNL     1      30.238  -8.352 -38.484  0.00  0.00    +0.000 OA
ATOM     29  H11 UNL     1      30.563  -8.556 -39.417  0.00  0.00    +0.000 HD
ENDBRANCH  17  28
ENDBRANCH   1  16
BRANCH   1  33
ATOM     30  C2  UNL     1      24.103  -7.857 -42.148  0.00  0.00    +0.000 A 
ATOM     31  C3  UNL     1      24.828  -6.860 -41.472  0.00  0.00    +0.000 A 
ATOM     32  C4  UNL     1      26.068  -7.153 -40.901  0.00  0.00    +0.000 A 
ATOM     33  C5  UNL     1      26.617  -8.444 -40.992  0.00  0.00    +0.000 A 
ATOM     34  C25 UNL     1      25.883  -9.441 -41.665  0.00  0.00    +0.000 A 
ATOM     35  C26 UNL     1      24.638  -9.149 -42.240  0.00  0.00    +0.000 A 
BRANCH  30  37
ATOM     36  C1  UNL     1      22.674  -7.060 -44.039  0.00  0.00    +0.000 C 
ATOM     37  O1  UNL     1      22.854  -7.607 -42.737  0.00  0.00    +0.000 OA
ENDBRANCH  30  37
BRANCH  35  38
ATOM     38  O8  UNL     1      23.921 -10.144 -42.905  0.00  0.00    +0.000 OA
ATOM     39  H16 UNL     1      22.998  -9.968 -43.285  0.00  0.00    +0.000 HD
ENDBRANCH  35  38
ENDBRANCH   1  33
TORSDOF 7
ENDMDL
MODEL 5
REMARK VINA RESULT:    -5.591      2.841      6.288
REMARK INTER + INTRA:          -7.301
REMARK INTER:                  -8.218
REMARK INTRA:                   0.917
REMARK UNBOUND:                 0.088
REMARK  Name = resultss/4CJN/ligands/lig_370_t1.pdb
REMARK  8 active torsions:
REMARK  status: ('A' for Active; 'I' for Inactive)
REMARK    1  A    between atoms: C1_1  and  O1_2
REMARK    2  A    between atoms: O1_2  and  C2_3
REMARK    3  A    between atoms: C5_6  and  C6_7
REMARK    4  A    between atoms: C6_7  and  C7_8
REMARK    5  A    between atoms: C6_7  and  C16_21
REMARK    6  A    between atoms: C15_19  and  O4_20
REMARK    7  A    between atoms: C17_22  and  O5_23
REMARK    8  A    between atoms: C26_35  and  O8_36
REMARK                            x       y       z     vdW  Elec       q    Type
REMARK                         _______ _______ _______ _____ _____    ______ ____
ROOT
ATOM      1  C6  UNL     1      28.658  -9.941 -40.878  0.00  0.00    +0.000 C 
ENDROOT
BRANCH   1   2
ATOM      2  C7  UNL     1      27.710  -9.241 -41.861  0.00  0.00    +0.000 A 
ATOM      3  C8  UNL     1      26.318  -9.235 -41.619  0.00  0.00    +0.000 A 
ATOM      4  O2  UNL     1      25.847  -9.802 -40.595  0.00  0.00    +0.000 OA
ATOM      5  C9  UNL     1      25.454  -8.600 -42.527  0.00  0.00    +0.000 A 
ATOM      6  C10 UNL     1      24.061  -8.546 -42.325  0.00  0.00    +0.000 A 
ATOM      7  C11 UNL     1      23.241  -7.900 -43.257  0.00  0.00    +0.000 A 
ATOM      8 CL1  UNL     1      21.507  -7.834 -43.001  0.00  0.00    +0.000 Cl
ATOM      9  C12 UNL     1      23.802  -7.304 -44.391  0.00  0.00    +0.000 A 
ATOM     10  C13 UNL     1      25.182  -7.355 -44.600  0.00  0.00    +0.000 A 
ATOM     11  C14 UNL     1      26.011  -8.000 -43.675  0.00  0.00    +0.000 A 
ATOM     12  O3  UNL     1      27.318  -8.049 -43.889  0.00  0.00    +0.000 OA
ATOM     13  C15 UNL     1      28.169  -8.639 -43.056  0.00  0.00    +0.000 A 
BRANCH  13  14
ATOM     14  O4  UNL     1      29.517  -8.664 -43.397  0.00  0.00    +0.000 OA
ATOM     15  H10 UNL     1      30.201  -9.084 -42.779  0.00  0.00    +0.000 HD
ENDBRANCH  13  14
ENDBRANCH   1   2
BRANCH   1  16
ATOM     16  C16 UNL     1      28.833  -9.167 -39.562  0.00  0.00    +0.000 A 
ATOM     17  C17 UNL     1      28.716  -9.762 -38.278  0.00  0.00    +0.000 A 
ATOM     18  C18 UNL     1      28.873  -8.955 -37.124  0.00  0.00    +0.000 A 
ATOM     19  C19 UNL     1      28.725  -9.446 -35.808  0.00  0.00    +0.000 A 
ATOM     20  C20 UNL     1      28.903  -8.597 -34.709  0.00  0.00    +0.000 A 
ATOM     21 CL2  UNL     1      28.715  -9.220 -33.080  0.00  0.00    +0.000 Cl
ATOM     22  C21 UNL     1      29.228  -7.253 -34.905  0.00  0.00    +0.000 A 
ATOM     23  C22 UNL     1      29.371  -6.752 -36.198  0.00  0.00    +0.000 A 
ATOM     24  C23 UNL     1      29.194  -7.589 -37.303  0.00  0.00    +0.000 A 
ATOM     25  O6  UNL     1      29.332  -7.083 -38.520  0.00  0.00    +0.000 OA
ATOM     26  C24 UNL     1      29.172  -7.797 -39.624  0.00  0.00    +0.000 A 
ATOM     27  O7  UNL     1      29.332  -7.227 -40.737  0.00  0.00    +0.000 OA
BRANCH  17  28
ATOM     28  O5  UNL     1      28.472 -11.136 -38.185  0.00  0.00    +0.000 OA
ATOM     29  H11 UNL     1      28.880 -11.840 -38.782  0.00  0.00    +0.000 HD
ENDBRANCH  17  28
ENDBRANCH   1  16
BRANCH   1  33
ATOM     30  C2  UNL     1      32.314 -11.432 -42.708  0.00  0.00    +0.000 A 
ATOM     31  C3  UNL     1      31.064 -11.999 -43.011  0.00  0.00    +0.000 A 
ATOM     32  C4  UNL     1      29.901 -11.503 -42.420  0.00  0.00    +0.000 A 
ATOM     33  C5  UNL     1      29.954 -10.427 -41.516  0.00  0.00    +0.000 A 
ATOM     34  C25 UNL     1      31.210  -9.866 -41.211  0.00  0.00    +0.000 A 
ATOM     35  C26 UNL     1      32.379 -10.363 -41.803  0.00  0.00    +0.000 A 
BRANCH  30  37
ATOM     36  C1  UNL     1      34.274 -12.984 -42.766  0.00  0.00    +0.000 C 
ATOM     37  O1  UNL     1      33.508 -11.899 -43.279  0.00  0.00    +0.000 OA
ENDBRANCH  30  37
BRANCH  35  38
ATOM     38  O8  UNL     1      33.617  -9.799 -41.495  0.00  0.00    +0.000 OA
ATOM     39  H16 UNL     1      33.952  -8.965 -41.963  0.00  0.00    +0.000 HD
ENDBRANCH  35  38
ENDBRANCH   1  33
TORSDOF 7
ENDMDL
MODEL 6
REMARK VINA RESULT:    -5.547      2.687      5.700
REMARK INTER + INTRA:          -7.242
REMARK INTER:                  -8.763
REMARK INTRA:                   1.521
REMARK UNBOUND:                 0.088
REMARK  Name = resultss/4CJN/ligands/lig_370_t1.pdb
REMARK  8 active torsions:
REMARK  status: ('A' for Active; 'I' for Inactive)
REMARK    1  A    between atoms: C1_1  and  O1_2
REMARK    2  A    between atoms: O1_2  and  C2_3
REMARK    3  A    between atoms: C5_6  and  C6_7
REMARK    4  A    between atoms: C6_7  and  C7_8
REMARK    5  A    between atoms: C6_7  and  C16_21
REMARK    6  A    between atoms: C15_19  and  O4_20
REMARK    7  A    between atoms: C17_22  and  O5_23
REMARK    8  A    between atoms: C26_35  and  O8_36
REMARK                            x       y       z     vdW  Elec       q    Type
REMARK                         _______ _______ _______ _____ _____    ______ ____
ROOT
ATOM      1  C6  UNL     1      28.632  -9.970 -40.964  0.00  0.00    +0.000 C 
ENDROOT
BRANCH   1   2
ATOM      2  C7  UNL     1      27.702  -9.287 -41.975  0.00  0.00    +0.000 A 
ATOM      3  C8  UNL     1      28.239  -8.662 -43.122  0.00  0.00    +0.000 A 
ATOM      4  O2  UNL     1      29.485  -8.661 -43.322  0.00  0.00    +0.000 OA
ATOM      5  C9  UNL     1      27.383  -8.032 -44.040  0.00  0.00    +0.000 A 
ATOM      6  C10 UNL     1      27.863  -7.411 -45.210  0.00  0.00    +0.000 A 
ATOM      7  C11 UNL     1      26.971  -6.797 -46.097  0.00  0.00    +0.000 A 
ATOM      8 CL1  UNL     1      27.573  -6.026 -47.552  0.00  0.00    +0.000 Cl
ATOM      9  C12 UNL     1      25.599  -6.801 -45.825  0.00  0.00    +0.000 A 
ATOM     10  C13 UNL     1      25.115  -7.413 -44.666  0.00  0.00    +0.000 A 
ATOM     11  C14 UNL     1      25.999  -8.027 -43.772  0.00  0.00    +0.000 A 
ATOM     12  O3  UNL     1      25.528  -8.597 -42.672  0.00  0.00    +0.000 OA
ATOM     13  C15 UNL     1      26.303  -9.203 -41.779  0.00  0.00    +0.000 A 
BRANCH  13  14
ATOM     14  O4  UNL     1      25.708  -9.735 -40.640  0.00  0.00    +0.000 OA
ATOM     15  H10 UNL     1      24.701  -9.727 -40.528  0.00  0.00    +0.000 HD
ENDBRANCH  13  14
ENDBRANCH   1   2
BRANCH   1  16
ATOM     16  C16 UNL     1      28.758  -9.190 -39.646  0.00  0.00    +0.000 A 
ATOM     17  C17 UNL     1      28.630  -9.787 -38.363  0.00  0.00    +0.000 A 
ATOM     18  C18 UNL     1      28.740  -8.976 -37.207  0.00  0.00    +0.000 A 
ATOM     19  C19 UNL     1      28.577  -9.469 -35.894  0.00  0.00    +0.000 A 
ATOM     20  C20 UNL     1      28.707  -8.615 -34.793  0.00  0.00    +0.000 A 
ATOM     21 CL2  UNL     1      28.502  -9.242 -33.167  0.00  0.00    +0.000 Cl
ATOM     22  C21 UNL     1      28.998  -7.263 -34.983  0.00  0.00    +0.000 A 
ATOM     23  C22 UNL     1      29.155  -6.758 -36.273  0.00  0.00    +0.000 A 
ATOM     24  C23 UNL     1      29.025  -7.601 -37.382  0.00  0.00    +0.000 A 
ATOM     25  O6  UNL     1      29.174  -7.092 -38.595  0.00  0.00    +0.000 OA
ATOM     26  C24 UNL     1      29.059  -7.811 -39.702  0.00  0.00    +0.000 A 
ATOM     27  O7  UNL     1      29.226  -7.238 -40.812  0.00  0.00    +0.000 OA
BRANCH  17  28
ATOM     28  O5  UNL     1      28.423 -11.168 -38.274  0.00  0.00    +0.000 OA
ATOM     29  H11 UNL     1      28.734 -11.754 -37.514  0.00  0.00    +0.000 HD
ENDBRANCH  17  28
ENDBRANCH   1  16
BRANCH   1  33
ATOM     30  C2  UNL     1      32.363 -11.406 -42.684  0.00  0.00    +0.000 A 
ATOM     31  C3  UNL     1      31.130 -11.988 -43.029  0.00  0.00    +0.000 A 
ATOM     32  C4  UNL     1      29.943 -11.509 -42.472  0.00  0.00    +0.000 A 
ATOM     33  C5  UNL     1      29.954 -10.437 -41.563  0.00  0.00    +0.000 A 
ATOM     34  C25 UNL     1      31.193  -9.861 -41.216  0.00  0.00    +0.000 A 
ATOM     35  C26 UNL     1      32.386 -10.341 -41.774  0.00  0.00    +0.000 A 
BRANCH  30  37
ATOM     36  C1  UNL     1      33.695 -12.856 -44.226  0.00  0.00    +0.000 C 
ATOM     37  O1  UNL     1      33.580 -11.856 -43.220  0.00  0.00    +0.000 OA
ENDBRANCH  30  37
BRANCH  35  38
ATOM     38  O8  UNL     1      33.606  -9.763 -41.425  0.00  0.00    +0.000 OA
ATOM     39  H16 UNL     1      34.054  -9.964 -40.539  0.00  0.00    +0.000 HD
ENDBRANCH  35  38
ENDBRANCH   1  33
TORSDOF 7
ENDMDL
MODEL 7
REMARK VINA RESULT:    -5.417      3.130      7.004
REMARK INTER + INTRA:          -7.071
REMARK INTER:                  -7.998
REMARK INTRA:                   0.928
REMARK UNBOUND:                 0.088
REMARK  Name = resultss/4CJN/ligands/lig_370_t1.pdb
REMARK  8 active torsions:
REMARK  status: ('A' for Active; 'I' for Inactive)
REMARK    1  A    between atoms: C1_1  and  O1_2
REMARK    2  A    between atoms: O1_2  and  C2_3
REMARK    3  A    between atoms: C5_6  and  C6_7
REMARK    4  A    between atoms: C6_7  and  C7_8
REMARK    5  A    between atoms: C6_7  and  C16_21
REMARK    6  A    between atoms: C15_19  and  O4_20
REMARK    7  A    between atoms: C17_22  and  O5_23
REMARK    8  A    between atoms: C26_35  and  O8_36
REMARK                            x       y       z     vdW  Elec       q    Type
REMARK                         _______ _______ _______ _____ _____    ______ ____
ROOT
ATOM      1  C6  UNL     1      26.662  -8.899 -38.774  0.00  0.00    +0.000 C 
ENDROOT
BRANCH   1   2
ATOM      2  C7  UNL     1      25.660  -8.290 -37.785  0.00  0.00    +0.000 A 
ATOM      3  C8  UNL     1      25.476  -8.875 -36.512  0.00  0.00    +0.000 A 
ATOM      4  O2  UNL     1      26.134  -9.900 -36.181  0.00  0.00    +0.000 OA
ATOM      5  C9  UNL     1      24.551  -8.318 -35.614  0.00  0.00    +0.000 A 
ATOM      6  C10 UNL     1      24.343  -8.849 -34.326  0.00  0.00    +0.000 A 
ATOM      7  C11 UNL     1      23.411  -8.257 -33.464  0.00  0.00    +0.000 A 
ATOM      8 CL1  UNL     1      23.156  -8.921 -31.861  0.00  0.00    +0.000 Cl
ATOM      9  C12 UNL     1      22.685  -7.136 -33.880  0.00  0.00    +0.000 A 
ATOM     10  C13 UNL     1      22.884  -6.605 -35.157  0.00  0.00    +0.000 A 
ATOM     11  C14 UNL     1      23.812  -7.190 -36.025  0.00  0.00    +0.000 A 
ATOM     12  O3  UNL     1      23.985  -6.682 -37.238  0.00  0.00    +0.000 OA
ATOM     13  C15 UNL     1      24.849  -7.178 -38.117  0.00  0.00    +0.000 A 
BRANCH  13  14
ATOM     14  O4  UNL     1      24.924  -6.590 -39.374  0.00  0.00    +0.000 OA
ATOM     15  H10 UNL     1      25.810  -6.507 -39.857  0.00  0.00    +0.000 HD
ENDBRANCH  13  14
ENDBRANCH   1   2
BRANCH   1  16
ATOM     16  C16 UNL     1      28.116  -8.510 -38.468  0.00  0.00    +0.000 A 
ATOM     17  C17 UNL     1      29.190  -9.439 -38.439  0.00  0.00    +0.000 A 
ATOM     18  C18 UNL     1      30.494  -8.982 -38.124  0.00  0.00    +0.000 A 
ATOM     19  C19 UNL     1      31.612  -9.838 -38.022  0.00  0.00    +0.000 A 
ATOM     20  C20 UNL     1      32.876  -9.321 -37.715  0.00  0.00    +0.000 A 
ATOM     21 CL2  UNL     1      34.257 -10.396 -37.591  0.00  0.00    +0.000 Cl
ATOM     22  C21 UNL     1      33.043  -7.951 -37.505  0.00  0.00    +0.000 A 
ATOM     23  C22 UNL     1      31.947  -7.094 -37.596  0.00  0.00    +0.000 A 
ATOM     24  C23 UNL     1      30.679  -7.598 -37.899  0.00  0.00    +0.000 A 
ATOM     25  O6  UNL     1      29.656  -6.760 -37.974  0.00  0.00    +0.000 OA
ATOM     26  C24 UNL     1      28.419  -7.148 -38.244  0.00  0.00    +0.000 A 
ATOM     27  O7  UNL     1      27.513  -6.274 -38.301  0.00  0.00    +0.000 OA
BRANCH  17  28
ATOM     28  O5  UNL     1      28.937 -10.781 -38.748  0.00  0.00    +0.000 OA
ATOM     29  H11 UNL     1      29.022 -11.192 -39.665  0.00  0.00    +0.000 HD
ENDBRANCH  17  28
ENDBRANCH   1  16
BRANCH   1  33
ATOM     30  C2  UNL     1      25.522  -8.376 -42.942  0.00  0.00    +0.000 A 
ATOM     31  C3  UNL     1      26.619  -7.687 -42.394  0.00  0.00    +0.000 A 
ATOM     32  C4  UNL     1      26.974  -7.873 -41.057  0.00  0.00    +0.000 A 
ATOM     33  C5  UNL     1      26.249  -8.752 -40.234  0.00  0.00    +0.000 A 
ATOM     34  C25 UNL     1      25.146  -9.435 -40.786  0.00  0.00    +0.000 A 
ATOM     35  C26 UNL     1      24.788  -9.250 -42.128  0.00  0.00    +0.000 A 
BRANCH  30  37
ATOM     36  C1  UNL     1      24.336  -7.141 -44.764  0.00  0.00    +0.000 C 
ATOM     37  O1  UNL     1      25.130  -8.219 -44.280  0.00  0.00    +0.000 OA
ENDBRANCH  30  37
BRANCH  35  38
ATOM     38  O8  UNL     1      23.696  -9.931 -42.664  0.00  0.00    +0.000 OA
ATOM     39  H16 UNL     1      23.007 -10.379 -42.071  0.00  0.00    +0.000 HD
ENDBRANCH  35  38
ENDBRANCH   1  33
TORSDOF 7
ENDMDL
MODEL 8
REMARK VINA RESULT:    -5.403      2.542      5.770
REMARK INTER + INTRA:          -7.052
REMARK INTER:                  -8.048
REMARK INTRA:                   0.996
REMARK UNBOUND:                 0.088
REMARK  Name = resultss/4CJN/ligands/lig_370_t1.pdb
REMARK  8 active torsions:
REMARK  status: ('A' for Active; 'I' for Inactive)
REMARK    1  A    between atoms: C1_1  and  O1_2
REMARK    2  A    between atoms: O1_2  and  C2_3
REMARK    3  A    between atoms: C5_6  and  C6_7
REMARK    4  A    between atoms: C6_7  and  C7_8
REMARK    5  A    between atoms: C6_7  and  C16_21
REMARK    6  A    between atoms: C15_19  and  O4_20
REMARK    7  A    between atoms: C17_22  and  O5_23
REMARK    8  A    between atoms: C26_35  and  O8_36
REMARK                            x       y       z     vdW  Elec       q    Type
REMARK                         _______ _______ _______ _____ _____    ______ ____
ROOT
ATOM      1  C6  UNL     1      27.108  -9.177 -39.574  0.00  0.00    +0.000 C 
ENDROOT
BRANCH   1   2
ATOM      2  C7  UNL     1      28.544  -9.383 -40.074  0.00  0.00    +0.000 A 
ATOM      3  C8  UNL     1      28.821 -10.367 -41.048  0.00  0.00    +0.000 A 
ATOM      4  O2  UNL     1      27.891 -11.081 -41.514  0.00  0.00    +0.000 OA
ATOM      5  C9  UNL     1      30.139 -10.556 -41.496  0.00  0.00    +0.000 A 
ATOM      6  C10 UNL     1      30.468 -11.509 -42.480  0.00  0.00    +0.000 A 
ATOM      7  C11 UNL     1      31.796 -11.659 -42.896  0.00  0.00    +0.000 A 
ATOM      8 CL1  UNL     1      32.201 -12.845 -44.123  0.00  0.00    +0.000 Cl
ATOM      9  C12 UNL     1      32.801 -10.862 -42.337  0.00  0.00    +0.000 A 
ATOM     10  C13 UNL     1      32.483  -9.916 -41.359  0.00  0.00    +0.000 A 
ATOM     11  C14 UNL     1      31.158  -9.760 -40.935  0.00  0.00    +0.000 A 
ATOM     12  O3  UNL     1      30.871  -8.865 -40.001  0.00  0.00    +0.000 OA
ATOM     13  C15 UNL     1      29.639  -8.655 -39.549  0.00  0.00    +0.000 A 
BRANCH  13  14
ATOM     14  O4  UNL     1      29.456  -7.717 -38.540  0.00  0.00    +0.000 OA
ATOM     15  H10 UNL     1      30.237  -7.394 -37.983  0.00  0.00    +0.000 HD
ENDBRANCH  13  14
ENDBRANCH   1   2
BRANCH   1  16
ATOM     16  C16 UNL     1      26.251  -8.346 -40.541  0.00  0.00    +0.000 A 
ATOM     17  C17 UNL     1      24.873  -8.592 -40.780  0.00  0.00    +0.000 A 
ATOM     18  C18 UNL     1      24.175  -7.781 -41.710  0.00  0.00    +0.000 A 
ATOM     19  C19 UNL     1      22.819  -7.980 -42.050  0.00  0.00    +0.000 A 
ATOM     20  C20 UNL     1      22.187  -7.137 -42.970  0.00  0.00    +0.000 A 
ATOM     21 CL2  UNL     1      20.501  -7.397 -43.384  0.00  0.00    +0.000 Cl
ATOM     22  C21 UNL     1      22.892  -6.090 -43.564  0.00  0.00    +0.000 A 
ATOM     23  C22 UNL     1      24.234  -5.883 -43.244  0.00  0.00    +0.000 A 
ATOM     24  C23 UNL     1      24.878  -6.720 -42.328  0.00  0.00    +0.000 A 
ATOM     25  O6  UNL     1      26.154  -6.502 -42.047  0.00  0.00    +0.000 OA
ATOM     26  C24 UNL     1      26.848  -7.249 -41.201  0.00  0.00    +0.000 A 
ATOM     27  O7  UNL     1      28.056  -6.958 -40.994  0.00  0.00    +0.000 OA
BRANCH  17  28
ATOM     28  O5  UNL     1      24.231  -9.614 -40.072  0.00  0.00    +0.000 OA
ATOM     29  H11 UNL     1      23.348  -9.522 -39.593  0.00  0.00    +0.000 HD
ENDBRANCH  17  28
ENDBRANCH   1  16
BRANCH   1  33
ATOM     30  C2  UNL     1      26.882  -7.868 -35.430  0.00  0.00    +0.000 A 
ATOM     31  C3  UNL     1      26.521  -7.012 -36.485  0.00  0.00    +0.000 A 
ATOM     32  C4  UNL     1      26.593  -7.452 -37.808  0.00  0.00    +0.000 A 
ATOM     33  C5  UNL     1      27.022  -8.755 -38.112  0.00  0.00    +0.000 A 
ATOM     34  C25 UNL     1      27.389  -9.608 -37.051  0.00  0.00    +0.000 A 
ATOM     35  C26 UNL     1      27.318  -9.168 -35.722  0.00  0.00    +0.000 A 
BRANCH  30  37
ATOM     36  C1  UNL     1      25.638  -7.047 -33.422  0.00  0.00    +0.000 C 
ATOM     37  O1  UNL     1      26.825  -7.468 -34.086  0.00  0.00    +0.000 OA
ENDBRANCH  30  37
BRANCH  35  38
ATOM     38  O8  UNL     1      27.682 -10.020 -34.680  0.00  0.00    +0.000 OA
ATOM     39  H16 UNL     1      28.650 -10.264 -34.508  0.00  0.00    +0.000 HD
ENDBRANCH  35  38
ENDBRANCH   1  33
TORSDOF 7
ENDMDL
MODEL 9
REMARK VINA RESULT:    -5.332      3.211      6.178
REMARK INTER + INTRA:          -6.958
REMARK INTER:                  -8.536
REMARK INTRA:                   1.578
REMARK UNBOUND:                 0.088
REMARK  Name = resultss/4CJN/ligands/lig_370_t1.pdb
REMARK  8 active torsions:
REMARK  status: ('A' for Active; 'I' for Inactive)
REMARK    1  A    between atoms: C1_1  and  O1_2
REMARK    2  A    between atoms: O1_2  and  C2_3
REMARK    3  A    between atoms: C5_6  and  C6_7
REMARK    4  A    between atoms: C6_7  and  C7_8
REMARK    5  A    between atoms: C6_7  and  C16_21
REMARK    6  A    between atoms: C15_19  and  O4_20
REMARK    7  A    between atoms: C17_22  and  O5_23
REMARK    8  A    between atoms: C26_35  and  O8_36
REMARK                            x       y       z     vdW  Elec       q    Type
REMARK                         _______ _______ _______ _____ _____    ______ ____
ROOT
ATOM      1  C6  UNL     1      28.603  -9.779 -36.933  0.00  0.00    +0.000 C 
ENDROOT
BRANCH   1   2
ATOM      2  C7  UNL     1      28.379  -9.738 -38.450  0.00  0.00    +0.000 A 
ATOM      3  C8  UNL     1      28.558  -8.531 -39.160  0.00  0.00    +0.000 A 
ATOM      4  O2  UNL     1      28.905  -7.480 -38.553  0.00  0.00    +0.000 OA
ATOM      5  C9  UNL     1      28.344  -8.498 -40.549  0.00  0.00    +0.000 A 
ATOM      6  C10 UNL     1      28.527  -7.327 -41.309  0.00  0.00    +0.000 A 
ATOM      7  C11 UNL     1      28.304  -7.343 -42.690  0.00  0.00    +0.000 A 
ATOM      8 CL1  UNL     1      28.535  -5.883 -43.633  0.00  0.00    +0.000 Cl
ATOM      9  C12 UNL     1      27.898  -8.524 -43.321  0.00  0.00    +0.000 A 
ATOM     10  C13 UNL     1      27.711  -9.690 -42.573  0.00  0.00    +0.000 A 
ATOM     11  C14 UNL     1      27.931  -9.683 -41.191  0.00  0.00    +0.000 A 
ATOM     12  O3  UNL     1      27.742 -10.793 -40.492  0.00  0.00    +0.000 OA
ATOM     13  C15 UNL     1      27.933 -10.867 -39.179  0.00  0.00    +0.000 A 
BRANCH  13  14
ATOM     14  O4  UNL     1      27.669 -12.072 -38.539  0.00  0.00    +0.000 OA
ATOM     15  H10 UNL     1      27.517 -12.920 -39.072  0.00  0.00    +0.000 HD
ENDBRANCH  13  14
ENDBRANCH   1   2
BRANCH   1  16
ATOM     16  C16 UNL     1      27.338  -9.434 -36.132  0.00  0.00    +0.000 A 
ATOM     17  C17 UNL     1      26.194  -8.810 -36.698  0.00  0.00    +0.000 A 
ATOM     18  C18 UNL     1      25.085  -8.512 -35.868  0.00  0.00    +0.000 A 
ATOM     19  C19 UNL     1      23.926  -7.849 -36.329  0.00  0.00    +0.000 A 
ATOM     20  C20 UNL     1      22.861  -7.593 -35.458  0.00  0.00    +0.000 A 
ATOM     21 CL2  UNL     1      21.428  -6.768 -36.044  0.00  0.00    +0.000 Cl
ATOM     22  C21 UNL     1      22.936  -7.988 -34.121  0.00  0.00    +0.000 A 
ATOM     23  C22 UNL     1      24.076  -8.638 -33.649  0.00  0.00    +0.000 A 
ATOM     24  C23 UNL     1      25.147  -8.898 -34.508  0.00  0.00    +0.000 A 
ATOM     25  O6  UNL     1      26.219  -9.512 -34.030  0.00  0.00    +0.000 OA
ATOM     26  C24 UNL     1      27.284  -9.790 -34.766  0.00  0.00    +0.000 A 
ATOM     27  O7  UNL     1      28.253 -10.384 -34.221  0.00  0.00    +0.000 OA
BRANCH  17  28
ATOM     28  O5  UNL     1      26.181  -8.528 -38.069  0.00  0.00    +0.000 OA
ATOM     29  H11 UNL     1      25.743  -9.100 -38.775  0.00  0.00    +0.000 HD
ENDBRANCH  17  28
ENDBRANCH   1  16
BRANCH   1  33
ATOM     30  C2  UNL     1      32.163  -7.629 -35.650  0.00  0.00    +0.000 A 
ATOM     31  C3  UNL     1      30.875  -7.127 -35.390  0.00  0.00    +0.000 A 
ATOM     32  C4  UNL     1      29.744  -7.834 -35.802  0.00  0.00    +0.000 A 
ATOM     33  C5  UNL     1      29.868  -9.060 -36.480  0.00  0.00    +0.000 A 
ATOM     34  C25 UNL     1      31.161  -9.555 -36.743  0.00  0.00    +0.000 A 
ATOM     35  C26 UNL     1      32.298  -8.847 -36.330  0.00  0.00    +0.000 A 
BRANCH  30  37
ATOM     36  C1  UNL     1      33.947  -7.098 -33.980  0.00  0.00    +0.000 C 
ATOM     37  O1  UNL     1      33.325  -6.952 -35.253  0.00  0.00    +0.000 OA
ENDBRANCH  30  37
BRANCH  35  38
ATOM     38  O8  UNL     1      33.572  -9.347 -36.595  0.00  0.00    +0.000 OA
ATOM     39  H16 UNL     1      33.735 -10.338 -36.734  0.00  0.00    +0.000 HD
ENDBRANCH  35  38
ENDBRANCH   1  33
TORSDOF 7
ENDMDL
