MODEL 1
REMARK VINA RESULT:    -4.884      0.000      0.000
REMARK INTER + INTRA:          -7.383
REMARK INTER:                  -6.597
REMARK INTRA:                  -0.786
REMARK UNBOUND:                -0.786
REMARK  Name = resultss/4CJN/ligands/lig_58_t0.pdb
REMARK  9 active torsions:
REMARK  status: ('A' for Active; 'I' for Inactive)
REMARK    1  A    between atoms: O1_1  and  C1_2
REMARK    2  A    between atoms: C1_2  and  C2_3
REMARK    3  A    between atoms: C2_3  and  O2_4
REMARK    4  A    between atoms: C4_6  and  N1_7
REMARK    5  A    between atoms: N1_7  and  C5_8
REMARK    6  A    between atoms: C10_13  and  O3_14
REMARK    7  A    between atoms: C11_15  and  O4_16
REMARK    8  A    between atoms: C12_17  and  O5_18
REMARK    9  A    between atoms: C13_19  and  O6_20
REMARK                            x       y       z     vdW  Elec       q    Type
REMARK                         _______ _______ _______ _____ _____    ______ ____
ROOT
ATOM      1  C2  UNL     1      25.325  -8.370 -35.062  0.00  0.00    +0.000 C 
ATOM      2  C3  UNL     1      25.881  -8.174 -36.502  0.00  0.00    +0.000 C 
ATOM      3  C4  UNL     1      27.373  -7.733 -36.537  0.00  0.00    +0.000 C 
ATOM      4  C11 UNL     1      28.234  -8.438 -35.445  0.00  0.00    +0.000 C 
ATOM      5  C12 UNL     1      27.564  -9.726 -34.935  0.00  0.00    +0.000 C 
ATOM      6  C13 UNL     1      26.191  -9.431 -34.276  0.00  0.00    +0.000 C 
ENDROOT
BRANCH   1   7
ATOM      7  O2  UNL     1      23.999  -8.848 -35.146  0.00  0.00    +0.000 OA
ATOM      8  H4  UNL     1      23.411  -8.253 -34.613  0.00  0.00    +0.000 HD
ENDBRANCH   1   7
BRANCH   3   9
ATOM      9  N1  UNL     1      27.960  -7.966 -37.879  0.00  0.00    +0.000 NA
ATOM     10  H8  UNL     1      28.971  -8.238 -37.840  0.00  0.00    +0.000 HD
BRANCH   9  11
ATOM     11  C5  UNL     1      27.198  -8.908 -38.719  0.00  0.00    +0.000 C 
ATOM     12  C6  UNL     1      26.754  -8.182 -40.000  0.00  0.00    +0.000 C 
ATOM     13  C7  UNL     1      25.851  -9.068 -40.880  0.00  0.00    +0.000 C 
ATOM     14  C8  UNL     1      26.181 -10.570 -40.785  0.00  0.00    +0.000 C 
ATOM     15  C9  UNL     1      27.654 -10.807 -40.436  0.00  0.00    +0.000 C 
ATOM     16  C10 UNL     1      28.028 -10.186 -39.066  0.00  0.00    +0.000 C 
BRANCH  16  17
ATOM     17  O3  UNL     1      27.906 -11.147 -38.046  0.00  0.00    +0.000 OA
ATOM     18  H19 UNL     1      28.447 -10.838 -37.275  0.00  0.00    +0.000 HD
ENDBRANCH  16  17
ENDBRANCH   9  11
ENDBRANCH   3   9
BRANCH   4  19
ATOM     19  O4  UNL     1      29.519  -8.742 -35.927  0.00  0.00    +0.000 OA
ATOM     20  H21 UNL     1      30.096  -8.887 -35.130  0.00  0.00    +0.000 HD
ENDBRANCH   4  19
BRANCH   5  21
ATOM     21  O5  UNL     1      28.404 -10.409 -34.035  0.00  0.00    +0.000 OA
ATOM     22  H23 UNL     1      29.338 -10.119 -34.212  0.00  0.00    +0.000 HD
ENDBRANCH   5  21
BRANCH   6  23
ATOM     23  O6  UNL     1      25.501 -10.651 -34.157  0.00  0.00    +0.000 OA
ATOM     24  H25 UNL     1      25.889 -11.132 -33.379  0.00  0.00    +0.000 HD
ENDBRANCH   6  23
BRANCH   1  25
ATOM     25  C1  UNL     1      25.308  -7.023 -34.282  0.00  0.00    +0.000 C 
BRANCH  25  26
ATOM     26  O1  UNL     1      25.405  -7.228 -32.896  0.00  0.00    +0.000 OA
ATOM     27  H1  UNL     1      25.707  -6.371 -32.496  0.00  0.00    +0.000 HD
ENDBRANCH  25  26
ENDBRANCH   1  25
TORSDOF 9
ENDMDL
MODEL 2
REMARK VINA RESULT:    -4.658      2.233      6.053
REMARK INTER + INTRA:          -7.078
REMARK INTER:                  -6.530
REMARK INTRA:                  -0.548
REMARK UNBOUND:                -0.786
REMARK  Name = resultss/4CJN/ligands/lig_58_t0.pdb
REMARK  9 active torsions:
REMARK  status: ('A' for Active; 'I' for Inactive)
REMARK    1  A    between atoms: O1_1  and  C1_2
REMARK    2  A    between atoms: C1_2  and  C2_3
REMARK    3  A    between atoms: C2_3  and  O2_4
REMARK    4  A    between atoms: C4_6  and  N1_7
REMARK    5  A    between atoms: N1_7  and  C5_8
REMARK    6  A    between atoms: C10_13  and  O3_14
REMARK    7  A    between atoms: C11_15  and  O4_16
REMARK    8  A    between atoms: C12_17  and  O5_18
REMARK    9  A    between atoms: C13_19  and  O6_20
REMARK                            x       y       z     vdW  Elec       q    Type
REMARK                         _______ _______ _______ _____ _____    ______ ____
ROOT
ATOM      1  C2  UNL     1      28.546  -9.588 -39.427  0.00  0.00    +0.000 C 
ATOM      2  C3  UNL     1      27.750  -9.427 -38.100  0.00  0.00    +0.000 C 
ATOM      3  C4  UNL     1      26.409  -8.656 -38.269  0.00  0.00    +0.000 C 
ATOM      4  C11 UNL     1      25.673  -9.014 -39.596  0.00  0.00    +0.000 C 
ATOM      5  C12 UNL     1      26.154 -10.360 -40.168  0.00  0.00    +0.000 C 
ATOM      6  C13 UNL     1      27.667 -10.323 -40.512  0.00  0.00    +0.000 C 
ENDROOT
BRANCH   1   7
ATOM      7  O2  UNL     1      29.695 -10.369 -39.177  0.00  0.00    +0.000 OA
ATOM      8  H4  UNL     1      30.298  -9.865 -38.572  0.00  0.00    +0.000 HD
ENDBRANCH   1   7
BRANCH   3   9
ATOM      9  N1  UNL     1      25.515  -8.892 -37.109  0.00  0.00    +0.000 NA
ATOM     10  H8  UNL     1      25.050  -9.830 -37.136  0.00  0.00    +0.000 HD
BRANCH   9  11
ATOM     11  C5  UNL     1      26.149  -8.660 -35.798  0.00  0.00    +0.000 C 
ATOM     12  C6  UNL     1      26.329  -7.147 -35.594  0.00  0.00    +0.000 C 
ATOM     13  C7  UNL     1      27.091  -6.828 -34.293  0.00  0.00    +0.000 C 
ATOM     14  C8  UNL     1      26.838  -7.848 -33.166  0.00  0.00    +0.000 C 
ATOM     15  C9  UNL     1      25.462  -8.508 -33.295  0.00  0.00    +0.000 C 
ATOM     16  C10 UNL     1      25.317  -9.282 -34.630  0.00  0.00    +0.000 C 
BRANCH  16  17
ATOM     17  O3  UNL     1      25.655 -10.635 -34.447  0.00  0.00    +0.000 OA
ATOM     18  H19 UNL     1      25.067 -11.174 -35.037  0.00  0.00    +0.000 HD
ENDBRANCH  16  17
ENDBRANCH   9  11
ENDBRANCH   3   9
BRANCH   4  19
ATOM     19  O4  UNL     1      24.280  -9.061 -39.409  0.00  0.00    +0.000 OA
ATOM     20  H21 UNL     1      23.922  -8.185 -39.714  0.00  0.00    +0.000 HD
ENDBRANCH   4  19
BRANCH   5  21
ATOM     21  O5  UNL     1      25.402 -10.724 -41.301  0.00  0.00    +0.000 OA
ATOM     22  H23 UNL     1      24.457 -10.463 -41.134  0.00  0.00    +0.000 HD
ENDBRANCH   5  21
BRANCH   6  23
ATOM     23  O6  UNL     1      28.098 -11.650 -40.691  0.00  0.00    +0.000 OA
ATOM     24  H25 UNL     1      29.049 -11.613 -40.975  0.00  0.00    +0.000 HD
ENDBRANCH   6  23
BRANCH   1  25
ATOM     25  C1  UNL     1      29.007  -8.205 -39.972  0.00  0.00    +0.000 C 
BRANCH  25  26
ATOM     26  O1  UNL     1      28.665  -8.043 -41.324  0.00  0.00    +0.000 OA
ATOM     27  H1  UNL     1      28.724  -8.938 -41.749  0.00  0.00    +0.000 HD
ENDBRANCH  25  26
ENDBRANCH   1  25
TORSDOF 9
ENDMDL
MODEL 3
REMARK VINA RESULT:    -4.599      1.737      3.305
REMARK INTER + INTRA:          -6.999
REMARK INTER:                  -6.313
REMARK INTRA:                  -0.686
REMARK UNBOUND:                -0.786
REMARK  Name = resultss/4CJN/ligands/lig_58_t0.pdb
REMARK  9 active torsions:
REMARK  status: ('A' for Active; 'I' for Inactive)
REMARK    1  A    between atoms: O1_1  and  C1_2
REMARK    2  A    between atoms: C1_2  and  C2_3
REMARK    3  A    between atoms: C2_3  and  O2_4
REMARK    4  A    between atoms: C4_6  and  N1_7
REMARK    5  A    between atoms: N1_7  and  C5_8
REMARK    6  A    between atoms: C10_13  and  O3_14
REMARK    7  A    between atoms: C11_15  and  O4_16
REMARK    8  A    between atoms: C12_17  and  O5_18
REMARK    9  A    between atoms: C13_19  and  O6_20
REMARK                            x       y       z     vdW  Elec       q    Type
REMARK                         _______ _______ _______ _____ _____    ______ ____
ROOT
ATOM      1  C2  UNL     1      26.484  -8.452 -34.918  0.00  0.00    +0.000 C 
ATOM      2  C3  UNL     1      27.187  -8.023 -36.238  0.00  0.00    +0.000 C 
ATOM      3  C4  UNL     1      26.549  -8.648 -37.513  0.00  0.00    +0.000 C 
ATOM      4  C11 UNL     1      24.993  -8.724 -37.431  0.00  0.00    +0.000 C 
ATOM      5  C12 UNL     1      24.430  -7.746 -36.384  0.00  0.00    +0.000 C 
ATOM      6  C13 UNL     1      24.952  -8.075 -34.960  0.00  0.00    +0.000 C 
ENDROOT
BRANCH   1   7
ATOM      7  O2  UNL     1      27.084  -7.767 -33.839  0.00  0.00    +0.000 OA
ATOM      8  H4  UNL     1      26.819  -6.812 -33.881  0.00  0.00    +0.000 HD
ENDBRANCH   1   7
BRANCH   3   9
ATOM      9  N1  UNL     1      26.960  -7.904 -38.728  0.00  0.00    +0.000 NA
ATOM     10  H8  UNL     1      27.487  -7.026 -38.510  0.00  0.00    +0.000 HD
BRANCH   9  11
ATOM     11  C5  UNL     1      27.688  -8.717 -39.719  0.00  0.00    +0.000 C 
ATOM     12  C6  UNL     1      29.136  -8.908 -39.238  0.00  0.00    +0.000 C 
ATOM     13  C7  UNL     1      29.995  -9.653 -40.279  0.00  0.00    +0.000 C 
ATOM     14  C8  UNL     1      29.200 -10.674 -41.116  0.00  0.00    +0.000 C 
ATOM     15  C9  UNL     1      27.993 -11.222 -40.348  0.00  0.00    +0.000 C 
ATOM     16  C10 UNL     1      26.997 -10.099 -39.962  0.00  0.00    +0.000 C 
BRANCH  16  17
ATOM     17  O3  UNL     1      25.991  -9.984 -40.936  0.00  0.00    +0.000 OA
ATOM     18  H19 UNL     1      26.433  -9.941 -41.823  0.00  0.00    +0.000 HD
ENDBRANCH  16  17
ENDBRANCH   9  11
ENDBRANCH   3   9
BRANCH   4  19
ATOM     19  O4  UNL     1      24.403  -8.457 -38.680  0.00  0.00    +0.000 OA
ATOM     20  H21 UNL     1      24.967  -8.907 -39.363  0.00  0.00    +0.000 HD
ENDBRANCH   4  19
BRANCH   5  21
ATOM     21  O5  UNL     1      23.023  -7.743 -36.403  0.00  0.00    +0.000 OA
ATOM     22  H23 UNL     1      22.723  -8.574 -36.858  0.00  0.00    +0.000 HD
ENDBRANCH   5  21
BRANCH   6  23
ATOM     23  O6  UNL     1      24.687  -6.964 -34.139  0.00  0.00    +0.000 OA
ATOM     24  H25 UNL     1      23.711  -6.964 -33.952  0.00  0.00    +0.000 HD
ENDBRANCH   6  23
BRANCH   1  25
ATOM     25  C1  UNL     1      26.643  -9.981 -34.672  0.00  0.00    +0.000 C 
BRANCH  25  26
ATOM     26  O1  UNL     1      25.418 -10.581 -34.341  0.00  0.00    +0.000 OA
ATOM     27  H1  UNL     1      25.471 -10.842 -33.385  0.00  0.00    +0.000 HD
ENDBRANCH  25  26
ENDBRANCH   1  25
TORSDOF 9
ENDMDL
MODEL 4
REMARK VINA RESULT:    -4.590      2.275      5.986
REMARK INTER + INTRA:          -6.985
REMARK INTER:                  -6.241
REMARK INTRA:                  -0.745
REMARK UNBOUND:                -0.786
REMARK  Name = resultss/4CJN/ligands/lig_58_t0.pdb
REMARK  9 active torsions:
REMARK  status: ('A' for Active; 'I' for Inactive)
REMARK    1  A    between atoms: O1_1  and  C1_2
REMARK    2  A    between atoms: C1_2  and  C2_3
REMARK    3  A    between atoms: C2_3  and  O2_4
REMARK    4  A    between atoms: C4_6  and  N1_7
REMARK    5  A    between atoms: N1_7  and  C5_8
REMARK    6  A    between atoms: C10_13  and  O3_14
REMARK    7  A    between atoms: C11_15  and  O4_16
REMARK    8  A    between atoms: C12_17  and  O5_18
REMARK    9  A    between atoms: C13_19  and  O6_20
REMARK                            x       y       z     vdW  Elec       q    Type
REMARK                         _______ _______ _______ _____ _____    ______ ____
ROOT
ATOM      1  C2  UNL     1      27.592 -10.816 -40.369  0.00  0.00    +0.000 C 
ATOM      2  C3  UNL     1      27.767 -10.080 -39.009  0.00  0.00    +0.000 C 
ATOM      3  C4  UNL     1      27.800  -8.530 -39.141  0.00  0.00    +0.000 C 
ATOM      4  C11 UNL     1      26.795  -7.996 -40.207  0.00  0.00    +0.000 C 
ATOM      5  C12 UNL     1      25.687  -9.021 -40.509  0.00  0.00    +0.000 C 
ATOM      6  C13 UNL     1      26.272 -10.336 -41.090  0.00  0.00    +0.000 C 
ENDROOT
BRANCH   1   7
ATOM      7  O2  UNL     1      27.491 -12.203 -40.127  0.00  0.00    +0.000 OA
ATOM      8  H4  UNL     1      27.111 -12.342 -39.221  0.00  0.00    +0.000 HD
ENDBRANCH   1   7
BRANCH   3   9
ATOM      9  N1  UNL     1      27.545  -7.884 -37.831  0.00  0.00    +0.000 NA
ATOM     10  H8  UNL     1      26.951  -7.025 -37.908  0.00  0.00    +0.000 HD
BRANCH   9  11
ATOM     11  C5  UNL     1      27.015  -8.794 -36.799  0.00  0.00    +0.000 C 
ATOM     12  C6  UNL     1      28.009  -8.847 -35.627  0.00  0.00    +0.000 C 
ATOM     13  C7  UNL     1      27.582  -9.869 -34.555  0.00  0.00    +0.000 C 
ATOM     14  C8  UNL     1      26.053 -10.022 -34.425  0.00  0.00    +0.000 C 
ATOM     15  C9  UNL     1      25.317  -8.740 -34.829  0.00  0.00    +0.000 C 
ATOM     16  C10 UNL     1      25.598  -8.356 -36.304  0.00  0.00    +0.000 C 
BRANCH  16  17
ATOM     17  O3  UNL     1      24.598  -8.879 -37.142  0.00  0.00    +0.000 OA
ATOM     18  H19 UNL     1      24.745  -9.857 -37.212  0.00  0.00    +0.000 HD
ENDBRANCH  16  17
ENDBRANCH   9  11
ENDBRANCH   3   9
BRANCH   4  19
ATOM     19  O4  UNL     1      26.208  -6.787 -39.794  0.00  0.00    +0.000 OA
ATOM     20  H21 UNL     1      25.628  -7.003 -39.016  0.00  0.00    +0.000 HD
ENDBRANCH   4  19
BRANCH   5  21
ATOM     21  O5  UNL     1      24.726  -8.482 -41.385  0.00  0.00    +0.000 OA
ATOM     22  H23 UNL     1      23.831  -8.783 -41.076  0.00  0.00    +0.000 HD
ENDBRANCH   5  21
BRANCH   6  23
ATOM     23  O6  UNL     1      25.272 -11.322 -41.012  0.00  0.00    +0.000 OA
ATOM     24  H25 UNL     1      24.753 -11.147 -40.183  0.00  0.00    +0.000 HD
ENDBRANCH   6  23
BRANCH   1  25
ATOM     25  C1  UNL     1      28.817 -10.572 -41.297  0.00  0.00    +0.000 C 
BRANCH  25  26
ATOM     26  O1  UNL     1      30.029 -10.784 -40.619  0.00  0.00    +0.000 OA
ATOM     27  H1  UNL     1      30.655 -11.201 -41.266  0.00  0.00    +0.000 HD
ENDBRANCH  25  26
ENDBRANCH   1  25
TORSDOF 9
ENDMDL
MODEL 5
REMARK VINA RESULT:    -4.529      2.611      6.318
REMARK INTER + INTRA:          -6.904
REMARK INTER:                  -6.589
REMARK INTRA:                  -0.315
REMARK UNBOUND:                -0.786
REMARK  Name = resultss/4CJN/ligands/lig_58_t0.pdb
REMARK  9 active torsions:
REMARK  status: ('A' for Active; 'I' for Inactive)
REMARK    1  A    between atoms: O1_1  and  C1_2
REMARK    2  A    between atoms: C1_2  and  C2_3
REMARK    3  A    between atoms: C2_3  and  O2_4
REMARK    4  A    between atoms: C4_6  and  N1_7
REMARK    5  A    between atoms: N1_7  and  C5_8
REMARK    6  A    between atoms: C10_13  and  O3_14
REMARK    7  A    between atoms: C11_15  and  O4_16
REMARK    8  A    between atoms: C12_17  and  O5_18
REMARK    9  A    between atoms: C13_19  and  O6_20
REMARK                            x       y       z     vdW  Elec       q    Type
REMARK                         _______ _______ _______ _____ _____    ______ ____
ROOT
ATOM      1  C2  UNL     1      26.315  -8.914 -41.755  0.00  0.00    +0.000 C 
ATOM      2  C3  UNL     1      26.457  -8.362 -40.307  0.00  0.00    +0.000 C 
ATOM      3  C4  UNL     1      26.609  -9.475 -39.230  0.00  0.00    +0.000 C 
ATOM      4  C11 UNL     1      27.493 -10.664 -39.715  0.00  0.00    +0.000 C 
ATOM      5  C12 UNL     1      28.394 -10.260 -40.897  0.00  0.00    +0.000 C 
ATOM      6  C13 UNL     1      27.555  -9.818 -42.125  0.00  0.00    +0.000 C 
ENDROOT
BRANCH   1   7
ATOM      7  O2  UNL     1      26.269  -7.827 -42.655  0.00  0.00    +0.000 OA
ATOM      8  H4  UNL     1      26.007  -7.011 -42.155  0.00  0.00    +0.000 HD
ENDBRANCH   1   7
BRANCH   3   9
ATOM      9  N1  UNL     1      27.152  -8.917 -37.968  0.00  0.00    +0.000 NA
ATOM     10  H8  UNL     1      27.269  -7.876 -37.998  0.00  0.00    +0.000 HD
BRANCH   9  11
ATOM     11  C5  UNL     1      26.414  -9.324 -36.758  0.00  0.00    +0.000 C 
ATOM     12  C6  UNL     1      27.411  -9.478 -35.598  0.00  0.00    +0.000 C 
ATOM     13  C7  UNL     1      26.732 -10.016 -34.323  0.00  0.00    +0.000 C 
ATOM     14  C8  UNL     1      25.263  -9.571 -34.174  0.00  0.00    +0.000 C 
ATOM     15  C9  UNL     1      25.002  -8.231 -34.869  0.00  0.00    +0.000 C 
ATOM     16  C10 UNL     1      25.287  -8.306 -36.390  0.00  0.00    +0.000 C 
BRANCH  16  17
ATOM     17  O3  UNL     1      24.106  -8.599 -37.093  0.00  0.00    +0.000 OA
ATOM     18  H19 UNL     1      23.484  -7.836 -36.969  0.00  0.00    +0.000 HD
ENDBRANCH  16  17
ENDBRANCH   9  11
ENDBRANCH   3   9
BRANCH   4  19
ATOM     19  O4  UNL     1      28.293 -11.163 -38.672  0.00  0.00    +0.000 OA
ATOM     20  H21 UNL     1      28.545 -12.091 -38.925  0.00  0.00    +0.000 HD
ENDBRANCH   4  19
BRANCH   5  21
ATOM     21  O5  UNL     1      29.265 -11.307 -41.248  0.00  0.00    +0.000 OA
ATOM     22  H23 UNL     1      28.755 -12.158 -41.194  0.00  0.00    +0.000 HD
ENDBRANCH   5  21
BRANCH   6  23
ATOM     23  O6  UNL     1      28.416  -9.148 -43.013  0.00  0.00    +0.000 OA
ATOM     24  H25 UNL     1      28.626  -8.266 -42.607  0.00  0.00    +0.000 HD
ENDBRANCH   6  23
BRANCH   1  25
ATOM     25  C1  UNL     1      25.001  -9.733 -41.913  0.00  0.00    +0.000 C 
BRANCH  25  26
ATOM     26  O1  UNL     1      24.552  -9.737 -43.244  0.00  0.00    +0.000 OA
ATOM     27  H1  UNL     1      25.214  -9.223 -43.776  0.00  0.00    +0.000 HD
ENDBRANCH  25  26
ENDBRANCH   1  25
TORSDOF 9
ENDMDL
MODEL 6
REMARK VINA RESULT:    -4.399      2.280      6.072
REMARK INTER + INTRA:          -6.728
REMARK INTER:                  -6.312
REMARK INTRA:                  -0.416
REMARK UNBOUND:                -0.786
REMARK  Name = resultss/4CJN/ligands/lig_58_t0.pdb
REMARK  9 active torsions:
REMARK  status: ('A' for Active; 'I' for Inactive)
REMARK    1  A    between atoms: O1_1  and  C1_2
REMARK    2  A    between atoms: C1_2  and  C2_3
REMARK    3  A    between atoms: C2_3  and  O2_4
REMARK    4  A    between atoms: C4_6  and  N1_7
REMARK    5  A    between atoms: N1_7  and  C5_8
REMARK    6  A    between atoms: C10_13  and  O3_14
REMARK    7  A    between atoms: C11_15  and  O4_16
REMARK    8  A    between atoms: C12_17  and  O5_18
REMARK    9  A    between atoms: C13_19  and  O6_20
REMARK                            x       y       z     vdW  Elec       q    Type
REMARK                         _______ _______ _______ _____ _____    ______ ____
ROOT
ATOM      1  C2  UNL     1      28.096 -10.348 -39.454  0.00  0.00    +0.000 C 
ATOM      2  C3  UNL     1      27.754 -10.751 -37.991  0.00  0.00    +0.000 C 
ATOM      3  C4  UNL     1      27.413  -9.539 -37.077  0.00  0.00    +0.000 C 
ATOM      4  C11 UNL     1      26.580  -8.445 -37.813  0.00  0.00    +0.000 C 
ATOM      5  C12 UNL     1      25.877  -9.010 -39.061  0.00  0.00    +0.000 C 
ATOM      6  C13 UNL     1      26.901  -9.542 -40.099  0.00  0.00    +0.000 C 
ENDROOT
BRANCH   1   7
ATOM      7  O2  UNL     1      28.304 -11.521 -40.212  0.00  0.00    +0.000 OA
ATOM      8  H4  UNL     1      27.573 -11.605 -40.878  0.00  0.00    +0.000 HD
ENDBRANCH   1   7
BRANCH   3   9
ATOM      9  N1  UNL     1      26.703  -9.983 -35.853  0.00  0.00    +0.000 NA
ATOM     10  H8  UNL     1      26.366 -10.973 -35.914  0.00  0.00    +0.000 HD
BRANCH   9  11
ATOM     11  C5  UNL     1      27.452  -9.762 -34.603  0.00  0.00    +0.000 C 
ATOM     12  C6  UNL     1      28.957  -9.761 -34.919  0.00  0.00    +0.000 C 
ATOM     13  C7  UNL     1      29.813  -9.650 -33.643  0.00  0.00    +0.000 C 
ATOM     14  C8  UNL     1      29.145  -8.829 -32.523  0.00  0.00    +0.000 C 
ATOM     15  C9  UNL     1      28.181  -7.780 -33.085  0.00  0.00    +0.000 C 
ATOM     16  C10 UNL     1      27.033  -8.430 -33.899  0.00  0.00    +0.000 C 
BRANCH  16  17
ATOM     17  O3  UNL     1      25.911  -8.637 -33.077  0.00  0.00    +0.000 OA
ATOM     18  H19 UNL     1      26.207  -9.159 -32.288  0.00  0.00    +0.000 HD
ENDBRANCH  16  17
ENDBRANCH   9  11
ENDBRANCH   3   9
BRANCH   4  19
ATOM     19  O4  UNL     1      25.620  -7.873 -36.959  0.00  0.00    +0.000 OA
ATOM     20  H21 UNL     1      26.114  -7.285 -36.329  0.00  0.00    +0.000 HD
ENDBRANCH   4  19
BRANCH   5  21
ATOM     21  O5  UNL     1      25.040  -8.043 -39.649  0.00  0.00    +0.000 OA
ATOM     22  H23 UNL     1      24.101  -8.349 -39.542  0.00  0.00    +0.000 HD
ENDBRANCH   5  21
BRANCH   6  23
ATOM     23  O6  UNL     1      26.201 -10.338 -41.023  0.00  0.00    +0.000 OA
ATOM     24  H25 UNL     1      25.287 -10.472 -40.660  0.00  0.00    +0.000 HD
ENDBRANCH   6  23
BRANCH   1  25
ATOM     25  C1  UNL     1      29.397  -9.496 -39.509  0.00  0.00    +0.000 C 
BRANCH  25  26
ATOM     26  O1  UNL     1      30.524 -10.252 -39.149  0.00  0.00    +0.000 OA
ATOM     27  H1  UNL     1      31.309  -9.646 -39.200  0.00  0.00    +0.000 HD
ENDBRANCH  25  26
ENDBRANCH   1  25
TORSDOF 9
ENDMDL
MODEL 7
REMARK VINA RESULT:    -4.272      2.292      5.588
REMARK INTER + INTRA:          -6.557
REMARK INTER:                  -5.998
REMARK INTRA:                  -0.559
REMARK UNBOUND:                -0.786
REMARK  Name = resultss/4CJN/ligands/lig_58_t0.pdb
REMARK  9 active torsions:
REMARK  status: ('A' for Active; 'I' for Inactive)
REMARK    1  A    between atoms: O1_1  and  C1_2
REMARK    2  A    between atoms: C1_2  and  C2_3
REMARK    3  A    between atoms: C2_3  and  O2_4
REMARK    4  A    between atoms: C4_6  and  N1_7
REMARK    5  A    between atoms: N1_7  and  C5_8
REMARK    6  A    between atoms: C10_13  and  O3_14
REMARK    7  A    between atoms: C11_15  and  O4_16
REMARK    8  A    between atoms: C12_17  and  O5_18
REMARK    9  A    between atoms: C13_19  and  O6_20
REMARK                            x       y       z     vdW  Elec       q    Type
REMARK                         _______ _______ _______ _____ _____    ______ ____
ROOT
ATOM      1  C2  UNL     1      26.170  -7.928 -39.586  0.00  0.00    +0.000 C 
ATOM      2  C3  UNL     1      26.968  -7.914 -38.251  0.00  0.00    +0.000 C 
ATOM      3  C4  UNL     1      27.043  -9.305 -37.556  0.00  0.00    +0.000 C 
ATOM      4  C11 UNL     1      27.218 -10.475 -38.572  0.00  0.00    +0.000 C 
ATOM      5  C12 UNL     1      27.765  -9.979 -39.923  0.00  0.00    +0.000 C 
ATOM      6  C13 UNL     1      26.797  -8.969 -40.593  0.00  0.00    +0.000 C 
ENDROOT
BRANCH   1   7
ATOM      7  O2  UNL     1      26.236  -6.644 -40.170  0.00  0.00    +0.000 OA
ATOM      8  H4  UNL     1      27.008  -6.157 -39.782  0.00  0.00    +0.000 HD
ENDBRANCH   1   7
BRANCH   3   9
ATOM      9  N1  UNL     1      28.132  -9.335 -36.551  0.00  0.00    +0.000 NA
ATOM     10  H8  UNL     1      28.953  -8.742 -36.820  0.00  0.00    +0.000 HD
BRANCH   9  11
ATOM     11  C5  UNL     1      27.696  -9.031 -35.176  0.00  0.00    +0.000 C 
ATOM     12  C6  UNL     1      28.100  -7.587 -34.835  0.00  0.00    +0.000 C 
ATOM     13  C7  UNL     1      27.781  -7.231 -33.369  0.00  0.00    +0.000 C 
ATOM     14  C8  UNL     1      26.538  -7.956 -32.817  0.00  0.00    +0.000 C 
ATOM     15  C9  UNL     1      25.538  -8.296 -33.926  0.00  0.00    +0.000 C 
ATOM     16  C10 UNL     1      26.157  -9.235 -34.992  0.00  0.00    +0.000 C 
BRANCH  16  17
ATOM     17  O3  UNL     1      25.869 -10.577 -34.685  0.00  0.00    +0.000 OA
ATOM     18  H19 UNL     1      25.884 -11.090 -35.533  0.00  0.00    +0.000 HD
ENDBRANCH  16  17
ENDBRANCH   9  11
ENDBRANCH   3   9
BRANCH   4  19
ATOM     19  O4  UNL     1      28.071 -11.470 -38.062  0.00  0.00    +0.000 OA
ATOM     20  H21 UNL     1      27.499 -12.253 -37.845  0.00  0.00    +0.000 HD
ENDBRANCH   4  19
BRANCH   5  21
ATOM     21  O5  UNL     1      28.025 -11.059 -40.788  0.00  0.00    +0.000 OA
ATOM     22  H23 UNL     1      28.870 -11.489 -40.491  0.00  0.00    +0.000 HD
ENDBRANCH   5  21
BRANCH   6  23
ATOM     23  O6  UNL     1      27.503  -8.312 -41.617  0.00  0.00    +0.000 OA
ATOM     24  H25 UNL     1      26.898  -7.619 -41.992  0.00  0.00    +0.000 HD
ENDBRANCH   6  23
BRANCH   1  25
ATOM     25  C1  UNL     1      24.672  -8.272 -39.337  0.00  0.00    +0.000 C 
BRANCH  25  26
ATOM     26  O1  UNL     1      24.275  -9.404 -40.067  0.00  0.00    +0.000 OA
ATOM     27  H1  UNL     1      24.497  -9.229 -41.018  0.00  0.00    +0.000 HD
ENDBRANCH  25  26
ENDBRANCH   1  25
TORSDOF 9
ENDMDL
MODEL 8
REMARK VINA RESULT:    -4.232      2.320      5.662
REMARK INTER + INTRA:          -6.503
REMARK INTER:                  -6.037
REMARK INTRA:                  -0.466
REMARK UNBOUND:                -0.786
REMARK  Name = resultss/4CJN/ligands/lig_58_t0.pdb
REMARK  9 active torsions:
REMARK  status: ('A' for Active; 'I' for Inactive)
REMARK    1  A    between atoms: O1_1  and  C1_2
REMARK    2  A    between atoms: C1_2  and  C2_3
REMARK    3  A    between atoms: C2_3  and  O2_4
REMARK    4  A    between atoms: C4_6  and  N1_7
REMARK    5  A    between atoms: N1_7  and  C5_8
REMARK    6  A    between atoms: C10_13  and  O3_14
REMARK    7  A    between atoms: C11_15  and  O4_16
REMARK    8  A    between atoms: C12_17  and  O5_18
REMARK    9  A    between atoms: C13_19  and  O6_20
REMARK                            x       y       z     vdW  Elec       q    Type
REMARK                         _______ _______ _______ _____ _____    ______ ____
ROOT
ATOM      1  C2  UNL     1      26.003  -8.381 -39.948  0.00  0.00    +0.000 C 
ATOM      2  C3  UNL     1      25.969  -7.603 -38.601  0.00  0.00    +0.000 C 
ATOM      3  C4  UNL     1      25.898  -8.528 -37.352  0.00  0.00    +0.000 C 
ATOM      4  C11 UNL     1      26.769  -9.812 -37.504  0.00  0.00    +0.000 C 
ATOM      5  C12 UNL     1      27.852  -9.640 -38.584  0.00  0.00    +0.000 C 
ATOM      6  C13 UNL     1      27.227  -9.377 -39.980  0.00  0.00    +0.000 C 
ENDROOT
BRANCH   1   7
ATOM      7  O2  UNL     1      26.152  -7.456 -41.005  0.00  0.00    +0.000 OA
ATOM      8  H4  UNL     1      25.910  -6.552 -40.674  0.00  0.00    +0.000 HD
ENDBRANCH   1   7
BRANCH   3   9
ATOM      9  N1  UNL     1      26.286  -7.789 -36.126  0.00  0.00    +0.000 NA
ATOM     10  H8  UNL     1      26.693  -6.846 -36.329  0.00  0.00    +0.000 HD
BRANCH   9  11
ATOM     11  C5  UNL     1      25.219  -7.691 -35.114  0.00  0.00    +0.000 C 
ATOM     12  C6  UNL     1      23.873  -8.025 -35.777  0.00  0.00    +0.000 C 
ATOM     13  C7  UNL     1      22.690  -7.831 -34.809  0.00  0.00    +0.000 C 
ATOM     14  C8  UNL     1      23.045  -8.119 -33.337  0.00  0.00    +0.000 C 
ATOM     15  C9  UNL     1      24.184  -9.137 -33.216  0.00  0.00    +0.000 C 
ATOM     16  C10 UNL     1      25.484  -8.630 -33.892  0.00  0.00    +0.000 C 
BRANCH  16  17
ATOM     17  O3  UNL     1      26.307  -7.993 -32.947  0.00  0.00    +0.000 OA
ATOM     18  H19 UNL     1      26.150  -8.427 -32.069  0.00  0.00    +0.000 HD
ENDBRANCH  16  17
ENDBRANCH   9  11
ENDBRANCH   3   9
BRANCH   4  19
ATOM     19  O4  UNL     1      27.380 -10.161 -36.286  0.00  0.00    +0.000 OA
ATOM     20  H21 UNL     1      28.317  -9.834 -36.333  0.00  0.00    +0.000 HD
ENDBRANCH   4  19
BRANCH   5  21
ATOM     21  O5  UNL     1      28.701 -10.762 -38.630  0.00  0.00    +0.000 OA
ATOM     22  H23 UNL     1      28.765 -11.056 -39.577  0.00  0.00    +0.000 HD
ENDBRANCH   5  21
BRANCH   6  23
ATOM     23  O6  UNL     1      28.245  -8.894 -40.822  0.00  0.00    +0.000 OA
ATOM     24  H25 UNL     1      27.835  -8.732 -41.712  0.00  0.00    +0.000 HD
ENDBRANCH   6  23
BRANCH   1  25
ATOM     25  C1  UNL     1      24.678  -9.167 -40.173  0.00  0.00    +0.000 C 
BRANCH  25  26
ATOM     26  O1  UNL     1      24.779 -10.049 -41.260  0.00  0.00    +0.000 OA
ATOM     27  H1  UNL     1      25.012 -10.941 -40.890  0.00  0.00    +0.000 HD
ENDBRANCH  25  26
ENDBRANCH   1  25
TORSDOF 9
ENDMDL
MODEL 9
REMARK VINA RESULT:    -3.862      1.707      2.430
REMARK INTER + INTRA:          -6.003
REMARK INTER:                  -5.413
REMARK INTRA:                  -0.590
REMARK UNBOUND:                -0.786
REMARK  Name = resultss/4CJN/ligands/lig_58_t0.pdb
REMARK  9 active torsions:
REMARK  status: ('A' for Active; 'I' for Inactive)
REMARK    1  A    between atoms: O1_1  and  C1_2
REMARK    2  A    between atoms: C1_2  and  C2_3
REMARK    3  A    between atoms: C2_3  and  O2_4
REMARK    4  A    between atoms: C4_6  and  N1_7
REMARK    5  A    between atoms: N1_7  and  C5_8
REMARK    6  A    between atoms: C10_13  and  O3_14
REMARK    7  A    between atoms: C11_15  and  O4_16
REMARK    8  A    between atoms: C12_17  and  O5_18
REMARK    9  A    between atoms: C13_19  and  O6_20
REMARK                            x       y       z     vdW  Elec       q    Type
REMARK                         _______ _______ _______ _____ _____    ______ ____
ROOT
ATOM      1  C2  UNL     1      26.226  -9.299 -35.485  0.00  0.00    +0.000 C 
ATOM      2  C3  UNL     1      26.268  -9.646 -37.001  0.00  0.00    +0.000 C 
ATOM      3  C4  UNL     1      26.914  -8.533 -37.875  0.00  0.00    +0.000 C 
ATOM      4  C11 UNL     1      28.138  -7.859 -37.182  0.00  0.00    +0.000 C 
ATOM      5  C12 UNL     1      28.721  -8.746 -36.067  0.00  0.00    +0.000 C 
ATOM      6  C13 UNL     1      27.681  -9.006 -34.945  0.00  0.00    +0.000 C 
ENDROOT
BRANCH   1   7
ATOM      7  O2  UNL     1      25.701 -10.404 -34.779  0.00  0.00    +0.000 OA
ATOM      8  H4  UNL     1      25.614 -11.169 -35.404  0.00  0.00    +0.000 HD
ENDBRANCH   1   7
BRANCH   3   9
ATOM      9  N1  UNL     1      27.309  -9.066 -39.202  0.00  0.00    +0.000 NA
ATOM     10  H8  UNL     1      27.360 -10.112 -39.223  0.00  0.00    +0.000 HD
BRANCH   9  11
ATOM     11  C5  UNL     1      26.497  -8.560 -40.324  0.00  0.00    +0.000 C 
ATOM     12  C6  UNL     1      27.436  -8.148 -41.470  0.00  0.00    +0.000 C 
ATOM     13  C7  UNL     1      26.667  -7.500 -42.638  0.00  0.00    +0.000 C 
ATOM     14  C8  UNL     1      25.241  -8.055 -42.820  0.00  0.00    +0.000 C 
ATOM     15  C9  UNL     1      25.125  -9.500 -42.324  0.00  0.00    +0.000 C 
ATOM     16  C10 UNL     1      25.455  -9.618 -40.814  0.00  0.00    +0.000 C 
BRANCH  16  17
ATOM     17  O3  UNL     1      24.276  -9.541 -40.051  0.00  0.00    +0.000 OA
ATOM     18  H19 UNL     1      23.924 -10.462 -39.946  0.00  0.00    +0.000 HD
ENDBRANCH  16  17
ENDBRANCH   9  11
ENDBRANCH   3   9
BRANCH   4  19
ATOM     19  O4  UNL     1      29.150  -7.559 -38.112  0.00  0.00    +0.000 OA
ATOM     20  H21 UNL     1      29.553  -8.426 -38.385  0.00  0.00    +0.000 HD
ENDBRANCH   4  19
BRANCH   5  21
ATOM     21  O5  UNL     1      29.891  -8.178 -35.530  0.00  0.00    +0.000 OA
ATOM     22  H23 UNL     1      30.357  -7.695 -36.262  0.00  0.00    +0.000 HD
ENDBRANCH   5  21
BRANCH   6  23
ATOM     23  O6  UNL     1      28.150 -10.077 -34.164  0.00  0.00    +0.000 OA
ATOM     24  H25 UNL     1      27.607 -10.094 -33.333  0.00  0.00    +0.000 HD
ENDBRANCH   6  23
BRANCH   1  25
ATOM     25  C1  UNL     1      25.308  -8.071 -35.218  0.00  0.00    +0.000 C 
BRANCH  25  26
ATOM     26  O1  UNL     1      25.943  -7.119 -34.403  0.00  0.00    +0.000 OA
ATOM     27  H1  UNL     1      25.295  -6.380 -34.262  0.00  0.00    +0.000 HD
ENDBRANCH  25  26
ENDBRANCH   1  25
TORSDOF 9
ENDMDL
