MODEL 1
REMARK VINA RESULT:    -6.815      0.000      0.000
REMARK INTER + INTRA:          -8.092
REMARK INTER:                  -8.409
REMARK INTRA:                   0.317
REMARK UNBOUND:                 0.317
REMARK  Name = resultss/4CJN/ligands/lig_365_t0.pdb
REMARK  5 active torsions:
REMARK  status: ('A' for Active; 'I' for Inactive)
REMARK    1  A    between atoms: O1_1  and  C1_2
REMARK    2  A    between atoms: C9_13  and  C10_14
REMARK    3  A    between atoms: C10_14  and  C11_15
REMARK    4  A    between atoms: C10_14  and  C17_23
REMARK    5  A    between atoms: C25_34  and  O6_35
REMARK                            x       y       z     vdW  Elec       q    Type
REMARK                         _______ _______ _______ _____ _____    ______ ____
ROOT
ATOM      1  C10 UNL     1      28.566  -8.135 -40.185  0.00  0.00    +0.000 C 
ENDROOT
BRANCH   1  13
ATOM      2  C1  UNL     1      31.123  -8.510 -40.098  0.00  0.00    +0.000 A 
ATOM      3  O2  UNL     1      32.221  -9.124 -40.528  0.00  0.00    +0.000 OA
ATOM      4  C2  UNL     1      32.208 -10.056 -41.472  0.00  0.00    +0.000 A 
ATOM      5  C3  UNL     1      33.410 -10.650 -41.872  0.00  0.00    +0.000 A 
ATOM      6  C4  UNL     1      33.410 -11.640 -42.858  0.00  0.00    +0.000 A 
ATOM      7  C5  UNL     1      32.208 -12.041 -43.450  0.00  0.00    +0.000 A 
ATOM      8 CL1  UNL     1      32.214 -13.284 -44.687  0.00  0.00    +0.000 Cl
ATOM      9  C6  UNL     1      31.001 -11.451 -43.057  0.00  0.00    +0.000 A 
ATOM     10  C7  UNL     1      30.992 -10.452 -42.066  0.00  0.00    +0.000 A 
ATOM     11  C8  UNL     1      29.808  -9.829 -41.640  0.00  0.00    +0.000 A 
ATOM     12  O3  UNL     1      28.700 -10.181 -42.135  0.00  0.00    +0.000 OA
ATOM     13  C9  UNL     1      29.859  -8.817 -40.656  0.00  0.00    +0.000 A 
BRANCH   2  14
ATOM     14  O1  UNL     1      31.246  -7.578 -39.074  0.00  0.00    +0.000 OA
ATOM     15  H1  UNL     1      30.934  -6.623 -39.201  0.00  0.00    +0.000 HD
ENDBRANCH   2  14
ENDBRANCH   1  13
BRANCH   1  16
ATOM     16  C17 UNL     1      28.097  -8.639 -38.813  0.00  0.00    +0.000 A 
ATOM     17  C18 UNL     1      27.841  -7.700 -37.789  0.00  0.00    +0.000 A 
ATOM     18  O4  UNL     1      28.003  -6.466 -38.005  0.00  0.00    +0.000 OA
ATOM     19  C19 UNL     1      27.407  -8.138 -36.528  0.00  0.00    +0.000 A 
ATOM     20  C20 UNL     1      27.125  -7.243 -35.478  0.00  0.00    +0.000 A 
ATOM     21  C21 UNL     1      26.691  -7.727 -34.238  0.00  0.00    +0.000 A 
ATOM     22 CL4  UNL     1      26.340  -6.608 -32.933  0.00  0.00    +0.000 Cl
ATOM     23  C22 UNL     1      26.537  -9.102 -34.038  0.00  0.00    +0.000 A 
ATOM     24  C23 UNL     1      26.816  -9.998 -35.073  0.00  0.00    +0.000 A 
ATOM     25  C24 UNL     1      27.250  -9.523 -36.316  0.00  0.00    +0.000 A 
ATOM     26  O5  UNL     1      27.520 -10.383 -37.289  0.00  0.00    +0.000 OA
ATOM     27  C25 UNL     1      27.934 -10.012 -38.496  0.00  0.00    +0.000 A 
BRANCH  27  28
ATOM     28  O6  UNL     1      28.217 -11.005 -39.428  0.00  0.00    +0.000 OA
ATOM     29  H12 UNL     1      29.067 -11.551 -39.363  0.00  0.00    +0.000 HD
ENDBRANCH  27  28
ENDBRANCH   1  16
BRANCH   1  30
ATOM     30  C11 UNL     1      27.474  -8.074 -41.253  0.00  0.00    +0.000 A 
ATOM     31  C12 UNL     1      26.285  -8.829 -41.135  0.00  0.00    +0.000 A 
ATOM     32  C13 UNL     1      25.286  -8.748 -42.109  0.00  0.00    +0.000 A 
ATOM     33  C14 UNL     1      25.448  -7.912 -43.213  0.00  0.00    +0.000 A 
ATOM     34 CL2  UNL     1      24.190  -7.812 -44.431  0.00  0.00    +0.000 Cl
ATOM     35  C15 UNL     1      26.609  -7.149 -43.344  0.00  0.00    +0.000 A 
ATOM     36  C16 UNL     1      27.618  -7.220 -42.376  0.00  0.00    +0.000 A 
ATOM     37 CL3  UNL     1      29.042  -6.206 -42.602  0.00  0.00    +0.000 Cl
ENDBRANCH   1  30
TORSDOF 5
ENDMDL
MODEL 2
REMARK VINA RESULT:    -6.378      1.734      7.472
REMARK INTER + INTRA:          -7.553
REMARK INTER:                  -8.235
REMARK INTRA:                   0.682
REMARK UNBOUND:                 0.317
REMARK  Name = resultss/4CJN/ligands/lig_365_t0.pdb
REMARK  5 active torsions:
REMARK  status: ('A' for Active; 'I' for Inactive)
REMARK    1  A    between atoms: O1_1  and  C1_2
REMARK    2  A    between atoms: C9_13  and  C10_14
REMARK    3  A    between atoms: C10_14  and  C11_15
REMARK    4  A    between atoms: C10_14  and  C17_23
REMARK    5  A    between atoms: C25_34  and  O6_35
REMARK                            x       y       z     vdW  Elec       q    Type
REMARK                         _______ _______ _______ _____ _____    ______ ____
ROOT
ATOM      1  C10 UNL     1      28.779  -8.788 -40.953  0.00  0.00    +0.000 C 
ENDROOT
BRANCH   1  13
ATOM      2  C1  UNL     1      28.172 -10.411 -39.033  0.00  0.00    +0.000 A 
ATOM      3  O2  UNL     1      27.865 -10.639 -37.760  0.00  0.00    +0.000 OA
ATOM      4  C2  UNL     1      27.784  -9.678 -36.850  0.00  0.00    +0.000 A 
ATOM      5  C3  UNL     1      27.449 -10.002 -35.531  0.00  0.00    +0.000 A 
ATOM      6  C4  UNL     1      27.370  -9.000 -34.560  0.00  0.00    +0.000 A 
ATOM      7  C5  UNL     1      27.626  -7.669 -34.903  0.00  0.00    +0.000 A 
ATOM      8 CL1  UNL     1      27.526  -6.415 -33.680  0.00  0.00    +0.000 Cl
ATOM      9  C6  UNL     1      27.961  -7.335 -36.220  0.00  0.00    +0.000 A 
ATOM     10  C7  UNL     1      28.041  -8.338 -37.205  0.00  0.00    +0.000 A 
ATOM     11  C8  UNL     1      28.370  -8.053 -38.540  0.00  0.00    +0.000 A 
ATOM     12  O3  UNL     1      28.630  -6.865 -38.883  0.00  0.00    +0.000 OA
ATOM     13  C9  UNL     1      28.416  -9.094 -39.493  0.00  0.00    +0.000 A 
BRANCH   2  14
ATOM     14  O1  UNL     1      28.269 -11.499 -39.894  0.00  0.00    +0.000 OA
ATOM     15  H1  UNL     1      28.864 -11.462 -40.713  0.00  0.00    +0.000 HD
ENDBRANCH   2  14
ENDBRANCH   1  13
BRANCH   1  16
ATOM     16  C17 UNL     1      27.543  -8.607 -41.845  0.00  0.00    +0.000 A 
ATOM     17  C18 UNL     1      27.660  -7.850 -43.032  0.00  0.00    +0.000 A 
ATOM     18  O4  UNL     1      28.767  -7.328 -43.345  0.00  0.00    +0.000 OA
ATOM     19  C19 UNL     1      26.544  -7.675 -43.865  0.00  0.00    +0.000 A 
ATOM     20  C20 UNL     1      26.610  -6.941 -45.065  0.00  0.00    +0.000 A 
ATOM     21  C21 UNL     1      25.470  -6.797 -45.866  0.00  0.00    +0.000 A 
ATOM     22 CL4  UNL     1      25.559  -5.883 -47.361  0.00  0.00    +0.000 Cl
ATOM     23  C22 UNL     1      24.262  -7.381 -45.474  0.00  0.00    +0.000 A 
ATOM     24  C23 UNL     1      24.186  -8.109 -44.284  0.00  0.00    +0.000 A 
ATOM     25  C24 UNL     1      25.320  -8.258 -43.478  0.00  0.00    +0.000 A 
ATOM     26  O5  UNL     1      25.234  -8.945 -42.347  0.00  0.00    +0.000 OA
ATOM     27  C25 UNL     1      26.265  -9.134 -41.529  0.00  0.00    +0.000 A 
BRANCH  27  28
ATOM     28  O6  UNL     1      26.048  -9.844 -40.353  0.00  0.00    +0.000 OA
ATOM     29  H12 UNL     1      26.473 -10.752 -40.208  0.00  0.00    +0.000 HD
ENDBRANCH  27  28
ENDBRANCH   1  16
BRANCH   1  30
ATOM     30  C11 UNL     1      29.856  -9.708 -41.528  0.00  0.00    +0.000 A 
ATOM     31  C12 UNL     1      29.544 -10.699 -42.487  0.00  0.00    +0.000 A 
ATOM     32  C13 UNL     1      30.541 -11.519 -43.020  0.00  0.00    +0.000 A 
ATOM     33  C14 UNL     1      31.866 -11.367 -42.614  0.00  0.00    +0.000 A 
ATOM     34 CL2  UNL     1      33.115 -12.398 -43.288  0.00  0.00    +0.000 Cl
ATOM     35  C15 UNL     1      32.199 -10.387 -41.677  0.00  0.00    +0.000 A 
ATOM     36  C16 UNL     1      31.210  -9.558 -41.135  0.00  0.00    +0.000 A 
ATOM     37 CL3  UNL     1      31.716  -8.330 -39.976  0.00  0.00    +0.000 Cl
ENDBRANCH   1  30
TORSDOF 5
ENDMDL
MODEL 3
REMARK VINA RESULT:    -6.315      2.870      8.594
REMARK INTER + INTRA:          -7.475
REMARK INTER:                  -7.588
REMARK INTRA:                   0.113
REMARK UNBOUND:                 0.317
REMARK  Name = resultss/4CJN/ligands/lig_365_t0.pdb
REMARK  5 active torsions:
REMARK  status: ('A' for Active; 'I' for Inactive)
REMARK    1  A    between atoms: O1_1  and  C1_2
REMARK    2  A    between atoms: C9_13  and  C10_14
REMARK    3  A    between atoms: C10_14  and  C11_15
REMARK    4  A    between atoms: C10_14  and  C17_23
REMARK    5  A    between atoms: C25_34  and  O6_35
REMARK                            x       y       z     vdW  Elec       q    Type
REMARK                         _______ _______ _______ _____ _____    ______ ____
ROOT
ATOM      1  C10 UNL     1      28.751  -7.909 -36.868  0.00  0.00    +0.000 C 
ENDROOT
BRANCH   1  13
ATOM      2  C1  UNL     1      27.129  -9.637 -35.834  0.00  0.00    +0.000 A 
ATOM      3  O2  UNL     1      26.066  -9.931 -35.091  0.00  0.00    +0.000 OA
ATOM      4  C2  UNL     1      25.335  -9.012 -34.475  0.00  0.00    +0.000 A 
ATOM      5  C3  UNL     1      24.227  -9.405 -33.716  0.00  0.00    +0.000 A 
ATOM      6  C4  UNL     1      23.454  -8.448 -33.054  0.00  0.00    +0.000 A 
ATOM      7  C5  UNL     1      23.784  -7.092 -33.146  0.00  0.00    +0.000 A 
ATOM      8 CL1  UNL     1      22.810  -5.895 -32.313  0.00  0.00    +0.000 Cl
ATOM      9  C6  UNL     1      24.890  -6.689 -33.905  0.00  0.00    +0.000 A 
ATOM     10  C7  UNL     1      25.673  -7.647 -34.577  0.00  0.00    +0.000 A 
ATOM     11  C8  UNL     1      26.789  -7.292 -35.351  0.00  0.00    +0.000 A 
ATOM     12  O3  UNL     1      27.131  -6.079 -35.441  0.00  0.00    +0.000 OA
ATOM     13  C9  UNL     1      27.528  -8.292 -36.023  0.00  0.00    +0.000 A 
BRANCH   2  14
ATOM     14  O1  UNL     1      27.847 -10.682 -36.402  0.00  0.00    +0.000 OA
ATOM     15  H1  UNL     1      27.457 -11.232 -37.157  0.00  0.00    +0.000 HD
ENDBRANCH   2  14
ENDBRANCH   1  13
BRANCH   1  16
ATOM     16  C17 UNL     1      28.675  -8.455 -38.300  0.00  0.00    +0.000 A 
ATOM     17  C18 UNL     1      27.860  -7.792 -39.245  0.00  0.00    +0.000 A 
ATOM     18  O4  UNL     1      27.203  -6.768 -38.907  0.00  0.00    +0.000 OA
ATOM     19  C19 UNL     1      27.780  -8.271 -40.562  0.00  0.00    +0.000 A 
ATOM     20  C20 UNL     1      26.994  -7.640 -41.544  0.00  0.00    +0.000 A 
ATOM     21  C21 UNL     1      26.948  -8.154 -42.846  0.00  0.00    +0.000 A 
ATOM     22 CL4  UNL     1      25.969  -7.362 -44.067  0.00  0.00    +0.000 Cl
ATOM     23  C22 UNL     1      27.683  -9.297 -43.173  0.00  0.00    +0.000 A 
ATOM     24  C23 UNL     1      28.465  -9.932 -42.205  0.00  0.00    +0.000 A 
ATOM     25  C24 UNL     1      28.516  -9.425 -40.901  0.00  0.00    +0.000 A 
ATOM     26  O5  UNL     1      29.255 -10.041 -39.988  0.00  0.00    +0.000 OA
ATOM     27  C25 UNL     1      29.358  -9.621 -38.731  0.00  0.00    +0.000 A 
BRANCH  27  28
ATOM     28  O6  UNL     1      30.138 -10.366 -37.852  0.00  0.00    +0.000 OA
ATOM     29  H12 UNL     1      30.621 -11.199 -38.165  0.00  0.00    +0.000 HD
ENDBRANCH  27  28
ENDBRANCH   1  16
BRANCH   1  30
ATOM     30  C11 UNL     1      30.087  -8.141 -36.163  0.00  0.00    +0.000 A 
ATOM     31  C12 UNL     1      30.202  -9.041 -35.078  0.00  0.00    +0.000 A 
ATOM     32  C13 UNL     1      31.434  -9.258 -34.456  0.00  0.00    +0.000 A 
ATOM     33  C14 UNL     1      32.574  -8.591 -34.903  0.00  0.00    +0.000 A 
ATOM     34 CL2  UNL     1      34.118  -8.870 -34.119  0.00  0.00    +0.000 Cl
ATOM     35  C15 UNL     1      32.486  -7.707 -35.979  0.00  0.00    +0.000 A 
ATOM     36  C16 UNL     1      31.258  -7.480 -36.612  0.00  0.00    +0.000 A 
ATOM     37 CL3  UNL     1      31.236  -6.368 -37.980  0.00  0.00    +0.000 Cl
ENDBRANCH   1  30
TORSDOF 5
ENDMDL
MODEL 4
REMARK VINA RESULT:    -6.024      1.983      7.544
REMARK INTER + INTRA:          -7.116
REMARK INTER:                  -8.011
REMARK INTRA:                   0.895
REMARK UNBOUND:                 0.317
REMARK  Name = resultss/4CJN/ligands/lig_365_t0.pdb
REMARK  5 active torsions:
REMARK  status: ('A' for Active; 'I' for Inactive)
REMARK    1  A    between atoms: O1_1  and  C1_2
REMARK    2  A    between atoms: C9_13  and  C10_14
REMARK    3  A    between atoms: C10_14  and  C11_15
REMARK    4  A    between atoms: C10_14  and  C17_23
REMARK    5  A    between atoms: C25_34  and  O6_35
REMARK                            x       y       z     vdW  Elec       q    Type
REMARK                         _______ _______ _______ _____ _____    ______ ____
ROOT
ATOM      1  C10 UNL     1      27.510  -8.224 -40.009  0.00  0.00    +0.000 C 
ENDROOT
BRANCH   1  13
ATOM      2  C1  UNL     1      27.373  -9.929 -38.070  0.00  0.00    +0.000 A 
ATOM      3  O2  UNL     1      27.185 -10.212 -36.785  0.00  0.00    +0.000 OA
ATOM      4  C2  UNL     1      26.933  -9.287 -35.869  0.00  0.00    +0.000 A 
ATOM      5  C3  UNL     1      26.741  -9.670 -34.536  0.00  0.00    +0.000 A 
ATOM      6  C4  UNL     1      26.485  -8.705 -33.558  0.00  0.00    +0.000 A 
ATOM      7  C5  UNL     1      26.421  -7.352 -33.907  0.00  0.00    +0.000 A 
ATOM      8 CL1  UNL     1      26.100  -6.145 -32.675  0.00  0.00    +0.000 Cl
ATOM      9  C6  UNL     1      26.611  -6.960 -35.237  0.00  0.00    +0.000 A 
ATOM     10  C7  UNL     1      26.866  -7.926 -36.229  0.00  0.00    +0.000 A 
ATOM     11  C8  UNL     1      27.061  -7.582 -37.577  0.00  0.00    +0.000 A 
ATOM     12  O3  UNL     1      27.032  -6.369 -37.926  0.00  0.00    +0.000 OA
ATOM     13  C9  UNL     1      27.294  -8.594 -38.535  0.00  0.00    +0.000 A 
BRANCH   2  14
ATOM     14  O1  UNL     1      27.671 -10.972 -38.940  0.00  0.00    +0.000 OA
ATOM     15  H1  UNL     1      27.467 -10.899 -39.929  0.00  0.00    +0.000 HD
ENDBRANCH   2  14
ENDBRANCH   1  13
BRANCH   1  16
ATOM     16  C17 UNL     1      26.200  -8.178 -40.807  0.00  0.00    +0.000 A 
ATOM     17  C18 UNL     1      26.168  -7.477 -42.033  0.00  0.00    +0.000 A 
ATOM     18  O4  UNL     1      27.205  -6.894 -42.458  0.00  0.00    +0.000 OA
ATOM     19  C19 UNL     1      24.982  -7.426 -42.782  0.00  0.00    +0.000 A 
ATOM     20  C20 UNL     1      24.900  -6.753 -44.016  0.00  0.00    +0.000 A 
ATOM     21  C21 UNL     1      23.695  -6.733 -44.728  0.00  0.00    +0.000 A 
ATOM     22 CL4  UNL     1      23.600  -5.893 -46.266  0.00  0.00    +0.000 Cl
ATOM     23  C22 UNL     1      22.568  -7.381 -44.215  0.00  0.00    +0.000 A 
ATOM     24  C23 UNL     1      22.638  -8.050 -42.991  0.00  0.00    +0.000 A 
ATOM     25  C24 UNL     1      23.839  -8.075 -42.272  0.00  0.00    +0.000 A 
ATOM     26  O5  UNL     1      23.892  -8.707 -41.107  0.00  0.00    +0.000 OA
ATOM     27  C25 UNL     1      24.993  -8.779 -40.366  0.00  0.00    +0.000 A 
BRANCH  27  28
ATOM     28  O6  UNL     1      24.921  -9.441 -39.146  0.00  0.00    +0.000 OA
ATOM     29  H12 UNL     1      24.034  -9.568 -38.675  0.00  0.00    +0.000 HD
ENDBRANCH  27  28
ENDBRANCH   1  16
BRANCH   1  30
ATOM     30  C11 UNL     1      28.644  -8.998 -40.681  0.00  0.00    +0.000 A 
ATOM     31  C12 UNL     1      28.384  -9.981 -41.664  0.00  0.00    +0.000 A 
ATOM     32  C13 UNL     1      29.431 -10.667 -42.285  0.00  0.00    +0.000 A 
ATOM     33  C14 UNL     1      30.753 -10.385 -41.946  0.00  0.00    +0.000 A 
ATOM     34 CL2  UNL     1      32.064 -11.248 -42.730  0.00  0.00    +0.000 Cl
ATOM     35  C15 UNL     1      31.034  -9.411 -40.987  0.00  0.00    +0.000 A 
ATOM     36  C16 UNL     1      29.995  -8.716 -40.356  0.00  0.00    +0.000 A 
ATOM     37 CL3  UNL     1      30.434  -7.483 -39.175  0.00  0.00    +0.000 Cl
ENDBRANCH   1  30
TORSDOF 5
ENDMDL
MODEL 5
REMARK VINA RESULT:    -5.599      3.779      6.372
REMARK INTER + INTRA:          -6.592
REMARK INTER:                  -6.927
REMARK INTRA:                   0.335
REMARK UNBOUND:                 0.317
REMARK  Name = resultss/4CJN/ligands/lig_365_t0.pdb
REMARK  5 active torsions:
REMARK  status: ('A' for Active; 'I' for Inactive)
REMARK    1  A    between atoms: O1_1  and  C1_2
REMARK    2  A    between atoms: C9_13  and  C10_14
REMARK    3  A    between atoms: C10_14  and  C11_15
REMARK    4  A    between atoms: C10_14  and  C17_23
REMARK    5  A    between atoms: C25_34  and  O6_35
REMARK                            x       y       z     vdW  Elec       q    Type
REMARK                         _______ _______ _______ _____ _____    ______ ____
ROOT
ATOM      1  C10 UNL     1      29.042  -7.812 -36.252  0.00  0.00    +0.000 C 
ENDROOT
BRANCH   1  13
ATOM      2  C1  UNL     1      31.166  -7.062 -34.983  0.00  0.00    +0.000 A 
ATOM      3  O2  UNL     1      32.098  -7.267 -34.057  0.00  0.00    +0.000 OA
ATOM      4  C2  UNL     1      32.122  -8.340 -33.277  0.00  0.00    +0.000 A 
ATOM      5  C3  UNL     1      33.142  -8.482 -32.330  0.00  0.00    +0.000 A 
ATOM      6  C4  UNL     1      33.173  -9.602 -31.495  0.00  0.00    +0.000 A 
ATOM      7  C5  UNL     1      32.184 -10.585 -31.602  0.00  0.00    +0.000 A 
ATOM      8 CL1  UNL     1      32.228 -11.989 -30.551  0.00  0.00    +0.000 Cl
ATOM      9  C6  UNL     1      31.160 -10.451 -32.547  0.00  0.00    +0.000 A 
ATOM     10  C7  UNL     1      31.123  -9.327 -33.394  0.00  0.00    +0.000 A 
ATOM     11  C8  UNL     1      30.118  -9.150 -34.359  0.00  0.00    +0.000 A 
ATOM     12  O3  UNL     1      29.196 -10.005 -34.470  0.00  0.00    +0.000 OA
ATOM     13  C9  UNL     1      30.140  -8.013 -35.197  0.00  0.00    +0.000 A 
BRANCH   2  14
ATOM     14  O1  UNL     1      31.214  -5.883 -35.718  0.00  0.00    +0.000 OA
ATOM     15  H1  UNL     1      30.485  -5.186 -35.631  0.00  0.00    +0.000 HD
ENDBRANCH   2  14
ENDBRANCH   1  13
BRANCH   1  16
ATOM     16  C17 UNL     1      27.645  -8.173 -35.728  0.00  0.00    +0.000 A 
ATOM     17  C18 UNL     1      26.956  -7.244 -34.918  0.00  0.00    +0.000 A 
ATOM     18  O4  UNL     1      27.490  -6.136 -34.628  0.00  0.00    +0.000 OA
ATOM     19  C19 UNL     1      25.675  -7.550 -34.432  0.00  0.00    +0.000 A 
ATOM     20  C20 UNL     1      24.940  -6.654 -33.632  0.00  0.00    +0.000 A 
ATOM     21  C21 UNL     1      23.664  -7.004 -33.174  0.00  0.00    +0.000 A 
ATOM     22 CL4  UNL     1      22.753  -5.883 -32.179  0.00  0.00    +0.000 Cl
ATOM     23  C22 UNL     1      23.116  -8.246 -33.509  0.00  0.00    +0.000 A 
ATOM     24  C23 UNL     1      23.838  -9.142 -34.300  0.00  0.00    +0.000 A 
ATOM     25  C24 UNL     1      25.114  -8.801 -34.763  0.00  0.00    +0.000 A 
ATOM     26  O5  UNL     1      25.794  -9.663 -35.507  0.00  0.00    +0.000 OA
ATOM     27  C25 UNL     1      27.008  -9.413 -35.986  0.00  0.00    +0.000 A 
BRANCH  27  28
ATOM     28  O6  UNL     1      27.638 -10.407 -36.729  0.00  0.00    +0.000 OA
ATOM     29  H12 UNL     1      28.168 -10.177 -37.561  0.00  0.00    +0.000 HD
ENDBRANCH  27  28
ENDBRANCH   1  16
BRANCH   1  30
ATOM     30  C11 UNL     1      29.385  -8.399 -37.621  0.00  0.00    +0.000 A 
ATOM     31  C12 UNL     1      30.338  -9.434 -37.762  0.00  0.00    +0.000 A 
ATOM     32  C13 UNL     1      30.627  -9.975 -39.017  0.00  0.00    +0.000 A 
ATOM     33  C14 UNL     1      29.971  -9.502 -40.153  0.00  0.00    +0.000 A 
ATOM     34 CL2  UNL     1      30.336 -10.187 -41.727  0.00  0.00    +0.000 Cl
ATOM     35  C15 UNL     1      29.019  -8.489 -40.036  0.00  0.00    +0.000 A 
ATOM     36  C16 UNL     1      28.719  -7.938 -38.785  0.00  0.00    +0.000 A 
ATOM     37 CL3  UNL     1      27.486  -6.679 -38.719  0.00  0.00    +0.000 Cl
ENDBRANCH   1  30
TORSDOF 5
ENDMDL
MODEL 6
REMARK VINA RESULT:    -5.486      1.791      7.529
REMARK INTER + INTRA:          -6.453
REMARK INTER:                  -7.664
REMARK INTRA:                   1.211
REMARK UNBOUND:                 0.317
REMARK  Name = resultss/4CJN/ligands/lig_365_t0.pdb
REMARK  5 active torsions:
REMARK  status: ('A' for Active; 'I' for Inactive)
REMARK    1  A    between atoms: O1_1  and  C1_2
REMARK    2  A    between atoms: C9_13  and  C10_14
REMARK    3  A    between atoms: C10_14  and  C11_15
REMARK    4  A    between atoms: C10_14  and  C17_23
REMARK    5  A    between atoms: C25_34  and  O6_35
REMARK                            x       y       z     vdW  Elec       q    Type
REMARK                         _______ _______ _______ _____ _____    ______ ____
ROOT
ATOM      1  C10 UNL     1      29.374  -8.532 -40.047  0.00  0.00    +0.000 C 
ENDROOT
BRANCH   1  13
ATOM      2  C1  UNL     1      27.172  -9.716 -40.706  0.00  0.00    +0.000 A 
ATOM      3  O2  UNL     1      26.078  -9.797 -41.456  0.00  0.00    +0.000 OA
ATOM      4  C2  UNL     1      25.778  -8.913 -42.398  0.00  0.00    +0.000 A 
ATOM      5  C3  UNL     1      24.607  -9.073 -43.148  0.00  0.00    +0.000 A 
ATOM      6  C4  UNL     1      24.273  -8.144 -44.136  0.00  0.00    +0.000 A 
ATOM      7  C5  UNL     1      25.107  -7.048 -44.379  0.00  0.00    +0.000 A 
ATOM      8 CL1  UNL     1      24.682  -5.883 -45.620  0.00  0.00    +0.000 Cl
ATOM      9  C6  UNL     1      26.280  -6.879 -43.634  0.00  0.00    +0.000 A 
ATOM     10  C7  UNL     1      26.625  -7.812 -42.638  0.00  0.00    +0.000 A 
ATOM     11  C8  UNL     1      27.792  -7.688 -41.867  0.00  0.00    +0.000 A 
ATOM     12  O3  UNL     1      28.559  -6.699 -42.042  0.00  0.00    +0.000 OA
ATOM     13  C9  UNL     1      28.102  -8.665 -40.895  0.00  0.00    +0.000 A 
BRANCH   2  14
ATOM     14  O1  UNL     1      27.369 -10.676 -39.719  0.00  0.00    +0.000 OA
ATOM     15  H1  UNL     1      27.231 -10.453 -38.741  0.00  0.00    +0.000 HD
ENDBRANCH   2  14
ENDBRANCH   1  13
BRANCH   1  16
ATOM     16  C17 UNL     1      30.597  -9.183 -40.707  0.00  0.00    +0.000 A 
ATOM     17  C18 UNL     1      30.399 -10.224 -41.641  0.00  0.00    +0.000 A 
ATOM     18  O4  UNL     1      29.229 -10.613 -41.919  0.00  0.00    +0.000 OA
ATOM     19  C19 UNL     1      31.503 -10.830 -42.261  0.00  0.00    +0.000 A 
ATOM     20  C20 UNL     1      31.359 -11.863 -43.207  0.00  0.00    +0.000 A 
ATOM     21  C21 UNL     1      32.491 -12.435 -43.802  0.00  0.00    +0.000 A 
ATOM     22 CL4  UNL     1      32.306 -13.720 -44.982  0.00  0.00    +0.000 Cl
ATOM     23  C22 UNL     1      33.767 -11.982 -43.455  0.00  0.00    +0.000 A 
ATOM     24  C23 UNL     1      33.920 -10.960 -42.516  0.00  0.00    +0.000 A 
ATOM     25  C24 UNL     1      32.795 -10.383 -41.917  0.00  0.00    +0.000 A 
ATOM     26  O5  UNL     1      32.952  -9.418 -41.020  0.00  0.00    +0.000 OA
ATOM     27  C25 UNL     1      31.935  -8.818 -40.409  0.00  0.00    +0.000 A 
BRANCH  27  28
ATOM     28  O6  UNL     1      32.222  -7.841 -39.462  0.00  0.00    +0.000 OA
ATOM     29  H12 UNL     1      32.541  -6.922 -39.744  0.00  0.00    +0.000 HD
ENDBRANCH  27  28
ENDBRANCH   1  16
BRANCH   1  30
ATOM     30  C11 UNL     1      29.176  -8.888 -38.573  0.00  0.00    +0.000 A 
ATOM     31  C12 UNL     1      29.815 -10.008 -37.993  0.00  0.00    +0.000 A 
ATOM     32  C13 UNL     1      29.640 -10.310 -36.640  0.00  0.00    +0.000 A 
ATOM     33  C14 UNL     1      28.834  -9.504 -35.839  0.00  0.00    +0.000 A 
ATOM     34 CL2  UNL     1      28.620  -9.887 -34.140  0.00  0.00    +0.000 Cl
ATOM     35  C15 UNL     1      28.203  -8.387 -36.387  0.00  0.00    +0.000 A 
ATOM     36  C16 UNL     1      28.368  -8.071 -37.741  0.00  0.00    +0.000 A 
ATOM     37 CL3  UNL     1      27.557  -6.630 -38.351  0.00  0.00    +0.000 Cl
ENDBRANCH   1  30
TORSDOF 5
ENDMDL
MODEL 7
REMARK VINA RESULT:    -5.154      1.727      2.223
REMARK INTER + INTRA:          -6.042
REMARK INTER:                  -6.480
REMARK INTRA:                   0.438
REMARK UNBOUND:                 0.317
REMARK  Name = resultss/4CJN/ligands/lig_365_t0.pdb
REMARK  5 active torsions:
REMARK  status: ('A' for Active; 'I' for Inactive)
REMARK    1  A    between atoms: O1_1  and  C1_2
REMARK    2  A    between atoms: C9_13  and  C10_14
REMARK    3  A    between atoms: C10_14  and  C11_15
REMARK    4  A    between atoms: C10_14  and  C17_23
REMARK    5  A    between atoms: C25_34  and  O6_35
REMARK                            x       y       z     vdW  Elec       q    Type
REMARK                         _______ _______ _______ _____ _____    ______ ____
ROOT
ATOM      1  C10 UNL     1      27.734  -7.689 -38.906  0.00  0.00    +0.000 C 
ENDROOT
BRANCH   1  13
ATOM      2  C1  UNL     1      30.163  -7.104 -38.241  0.00  0.00    +0.000 A 
ATOM      3  O2  UNL     1      31.475  -7.274 -38.372  0.00  0.00    +0.000 OA
ATOM      4  C2  UNL     1      32.012  -8.147 -39.214  0.00  0.00    +0.000 A 
ATOM      5  C3  UNL     1      33.404  -8.261 -39.295  0.00  0.00    +0.000 A 
ATOM      6  C4  UNL     1      33.983  -9.184 -40.171  0.00  0.00    +0.000 A 
ATOM      7  C5  UNL     1      33.174  -9.997 -40.969  0.00  0.00    +0.000 A 
ATOM      8 CL1  UNL     1      33.906 -11.154 -42.066  0.00  0.00    +0.000 Cl
ATOM      9  C6  UNL     1      31.780  -9.889 -40.896  0.00  0.00    +0.000 A 
ATOM     10  C7  UNL     1      31.188  -8.961 -40.018  0.00  0.00    +0.000 A 
ATOM     11  C8  UNL     1      29.796  -8.814 -39.911  0.00  0.00    +0.000 A 
ATOM     12  O3  UNL     1      29.032  -9.546 -40.600  0.00  0.00    +0.000 OA
ATOM     13  C9  UNL     1      29.255  -7.852 -39.029  0.00  0.00    +0.000 A 
BRANCH   2  14
ATOM     14  O1  UNL     1      29.707  -6.189 -37.299  0.00  0.00    +0.000 OA
ATOM     15  H1  UNL     1      28.726  -6.146 -37.048  0.00  0.00    +0.000 HD
ENDBRANCH   2  14
ENDBRANCH   1  13
BRANCH   1  16
ATOM     16  C17 UNL     1      27.173  -8.317 -37.622  0.00  0.00    +0.000 A 
ATOM     17  C18 UNL     1      26.262  -7.574 -36.837  0.00  0.00    +0.000 A 
ATOM     18  O4  UNL     1      25.923  -6.410 -37.191  0.00  0.00    +0.000 OA
ATOM     19  C19 UNL     1      25.733  -8.130 -35.662  0.00  0.00    +0.000 A 
ATOM     20  C20 UNL     1      24.813  -7.438 -34.852  0.00  0.00    +0.000 A 
ATOM     21  C21 UNL     1      24.310  -8.035 -33.689  0.00  0.00    +0.000 A 
ATOM     22 CL4  UNL     1      23.162  -7.170 -32.685  0.00  0.00    +0.000 Cl
ATOM     23  C22 UNL     1      24.723  -9.322 -33.329  0.00  0.00    +0.000 A 
ATOM     24  C23 UNL     1      25.637 -10.015 -34.125  0.00  0.00    +0.000 A 
ATOM     25  C24 UNL     1      26.145  -9.426 -35.288  0.00  0.00    +0.000 A 
ATOM     26  O5  UNL     1      27.019 -10.091 -36.032  0.00  0.00    +0.000 OA
ATOM     27  C25 UNL     1      27.544  -9.602 -37.151  0.00  0.00    +0.000 A 
BRANCH  27  28
ATOM     28  O6  UNL     1      28.476 -10.378 -37.832  0.00  0.00    +0.000 OA
ATOM     29  H12 UNL     1      29.014  -9.991 -38.599  0.00  0.00    +0.000 HD
ENDBRANCH  27  28
ENDBRANCH   1  16
BRANCH   1  30
ATOM     30  C11 UNL     1      26.968  -8.045 -40.180  0.00  0.00    +0.000 A 
ATOM     31  C12 UNL     1      26.051  -9.121 -40.214  0.00  0.00    +0.000 A 
ATOM     32  C13 UNL     1      25.344  -9.423 -41.380  0.00  0.00    +0.000 A 
ATOM     33  C14 UNL     1      25.528  -8.658 -42.530  0.00  0.00    +0.000 A 
ATOM     34 CL2  UNL     1      24.635  -9.039 -43.991  0.00  0.00    +0.000 Cl
ATOM     35  C15 UNL     1      26.419  -7.584 -42.517  0.00  0.00    +0.000 A 
ATOM     36  C16 UNL     1      27.135  -7.270 -41.356  0.00  0.00    +0.000 A 
ATOM     37 CL3  UNL     1      28.221  -5.883 -41.414  0.00  0.00    +0.000 Cl
ENDBRANCH   1  30
TORSDOF 5
ENDMDL
MODEL 8
REMARK VINA RESULT:    -5.006      3.390      9.072
REMARK INTER + INTRA:          -5.860
REMARK INTER:                  -7.907
REMARK INTRA:                   2.047
REMARK UNBOUND:                 0.317
REMARK  Name = resultss/4CJN/ligands/lig_365_t0.pdb
REMARK  5 active torsions:
REMARK  status: ('A' for Active; 'I' for Inactive)
REMARK    1  A    between atoms: O1_1  and  C1_2
REMARK    2  A    between atoms: C9_13  and  C10_14
REMARK    3  A    between atoms: C10_14  and  C11_15
REMARK    4  A    between atoms: C10_14  and  C17_23
REMARK    5  A    between atoms: C25_34  and  O6_35
REMARK                            x       y       z     vdW  Elec       q    Type
REMARK                         _______ _______ _______ _____ _____    ______ ____
ROOT
ATOM      1  C10 UNL     1      28.554  -7.838 -35.343  0.00  0.00    +0.000 C 
ENDROOT
BRANCH   1  13
ATOM      2  C1  UNL     1      27.100  -7.145 -33.320  0.00  0.00    +0.000 A 
ATOM      3  O2  UNL     1      25.928  -6.796 -32.799  0.00  0.00    +0.000 OA
ATOM      4  C2  UNL     1      24.820  -6.682 -33.519  0.00  0.00    +0.000 A 
ATOM      5  C3  UNL     1      23.624  -6.315 -32.892  0.00  0.00    +0.000 A 
ATOM      6  C4  UNL     1      22.451  -6.181 -33.640  0.00  0.00    +0.000 A 
ATOM      7  C5  UNL     1      22.468  -6.412 -35.019  0.00  0.00    +0.000 A 
ATOM      8 CL1  UNL     1      20.993  -6.242 -35.953  0.00  0.00    +0.000 Cl
ATOM      9  C6  UNL     1      23.659  -6.781 -35.654  0.00  0.00    +0.000 A 
ATOM     10  C7  UNL     1      24.845  -6.921 -34.908  0.00  0.00    +0.000 A 
ATOM     11  C8  UNL     1      26.063  -7.291 -35.500  0.00  0.00    +0.000 A 
ATOM     12  O3  UNL     1      26.122  -7.487 -36.746  0.00  0.00    +0.000 OA
ATOM     13  C9  UNL     1      27.219  -7.437 -34.701  0.00  0.00    +0.000 A 
BRANCH   2  14
ATOM     14  O1  UNL     1      28.207  -7.195 -32.481  0.00  0.00    +0.000 OA
ATOM     15  H1  UNL     1      28.958  -7.854 -32.649  0.00  0.00    +0.000 HD
ENDBRANCH   2  14
ENDBRANCH   1  13
BRANCH   1  16
ATOM     16  C17 UNL     1      28.374  -8.750 -36.565  0.00  0.00    +0.000 A 
ATOM     17  C18 UNL     1      28.961  -8.374 -37.793  0.00  0.00    +0.000 A 
ATOM     18  O4  UNL     1      29.620  -7.299 -37.879  0.00  0.00    +0.000 OA
ATOM     19  C19 UNL     1      28.813  -9.195 -38.922  0.00  0.00    +0.000 A 
ATOM     20  C20 UNL     1      29.390  -8.873 -40.166  0.00  0.00    +0.000 A 
ATOM     21  C21 UNL     1      29.217  -9.726 -41.263  0.00  0.00    +0.000 A 
ATOM     22 CL4  UNL     1      29.939  -9.321 -42.810  0.00  0.00    +0.000 Cl
ATOM     23  C22 UNL     1      28.469 -10.899 -41.127  0.00  0.00    +0.000 A 
ATOM     24  C23 UNL     1      27.892 -11.226 -39.897  0.00  0.00    +0.000 A 
ATOM     25  C24 UNL     1      28.060 -10.380 -38.795  0.00  0.00    +0.000 A 
ATOM     26  O5  UNL     1      27.500 -10.696 -37.635  0.00  0.00    +0.000 OA
ATOM     27  C25 UNL     1      27.615  -9.947 -36.543  0.00  0.00    +0.000 A 
BRANCH  27  28
ATOM     28  O6  UNL     1      26.957 -10.363 -35.390  0.00  0.00    +0.000 OA
ATOM     29  H12 UNL     1      27.411 -10.315 -34.486  0.00  0.00    +0.000 HD
ENDBRANCH  27  28
ENDBRANCH   1  16
BRANCH   1  30
ATOM     30  C11 UNL     1      29.606  -8.311 -34.339  0.00  0.00    +0.000 A 
ATOM     31  C12 UNL     1      29.515  -9.578 -33.718  0.00  0.00    +0.000 A 
ATOM     32  C13 UNL     1      30.494 -10.006 -32.818  0.00  0.00    +0.000 A 
ATOM     33  C14 UNL     1      31.583  -9.187 -32.524  0.00  0.00    +0.000 A 
ATOM     34 CL2  UNL     1      32.811  -9.731 -31.395  0.00  0.00    +0.000 Cl
ATOM     35  C15 UNL     1      31.700  -7.938 -33.135  0.00  0.00    +0.000 A 
ATOM     36  C16 UNL     1      30.727  -7.496 -34.038  0.00  0.00    +0.000 A 
ATOM     37 CL3  UNL     1      30.960  -5.916 -34.786  0.00  0.00    +0.000 Cl
ENDBRANCH   1  30
TORSDOF 5
ENDMDL
MODEL 9
REMARK VINA RESULT:    -4.638      1.776      7.287
REMARK INTER + INTRA:          -5.405
REMARK INTER:                  -6.800
REMARK INTRA:                   1.395
REMARK UNBOUND:                 0.317
REMARK  Name = resultss/4CJN/ligands/lig_365_t0.pdb
REMARK  5 active torsions:
REMARK  status: ('A' for Active; 'I' for Inactive)
REMARK    1  A    between atoms: O1_1  and  C1_2
REMARK    2  A    between atoms: C9_13  and  C10_14
REMARK    3  A    between atoms: C10_14  and  C11_15
REMARK    4  A    between atoms: C10_14  and  C17_23
REMARK    5  A    between atoms: C25_34  and  O6_35
REMARK                            x       y       z     vdW  Elec       q    Type
REMARK                         _______ _______ _______ _____ _____    ______ ____
ROOT
ATOM      1  C10 UNL     1      29.256  -7.805 -39.822  0.00  0.00    +0.000 C 
ENDROOT
BRANCH   1  13
ATOM      2  C1  UNL     1      28.595  -6.434 -41.912  0.00  0.00    +0.000 A 
ATOM      3  O2  UNL     1      27.700  -6.067 -42.824  0.00  0.00    +0.000 OA
ATOM      4  C2  UNL     1      26.459  -6.535 -42.851  0.00  0.00    +0.000 A 
ATOM      5  C3  UNL     1      25.576  -6.093 -43.842  0.00  0.00    +0.000 A 
ATOM      6  C4  UNL     1      24.269  -6.585 -43.888  0.00  0.00    +0.000 A 
ATOM      7  C5  UNL     1      23.838  -7.523 -42.945  0.00  0.00    +0.000 A 
ATOM      8 CL1  UNL     1      22.197  -8.138 -43.008  0.00  0.00    +0.000 Cl
ATOM      9  C6  UNL     1      24.715  -7.970 -41.949  0.00  0.00    +0.000 A 
ATOM     10  C7  UNL     1      26.032  -7.477 -41.893  0.00  0.00    +0.000 A 
ATOM     11  C8  UNL     1      26.947  -7.893 -40.913  0.00  0.00    +0.000 A 
ATOM     12  O3  UNL     1      26.601  -8.755 -40.056  0.00  0.00    +0.000 OA
ATOM     13  C9  UNL     1      28.251  -7.351 -40.890  0.00  0.00    +0.000 A 
BRANCH   2  14
ATOM     14  O1  UNL     1      29.880  -5.911 -42.002  0.00  0.00    +0.000 OA
ATOM     15  H1  UNL     1      30.676  -6.423 -41.641  0.00  0.00    +0.000 HD
ENDBRANCH   2  14
ENDBRANCH   1  13
BRANCH   1  16
ATOM     16  C17 UNL     1      30.428  -8.601 -40.412  0.00  0.00    +0.000 A 
ATOM     17  C18 UNL     1      30.159  -9.630 -41.342  0.00  0.00    +0.000 A 
ATOM     18  O4  UNL     1      28.968  -9.889 -41.674  0.00  0.00    +0.000 OA
ATOM     19  C19 UNL     1      31.216 -10.368 -41.898  0.00  0.00    +0.000 A 
ATOM     20  C20 UNL     1      31.003 -11.394 -42.837  0.00  0.00    +0.000 A 
ATOM     21  C21 UNL     1      32.090 -12.100 -43.366  0.00  0.00    +0.000 A 
ATOM     22 CL4  UNL     1      31.820 -13.377 -44.539  0.00  0.00    +0.000 Cl
ATOM     23  C22 UNL     1      33.392 -11.789 -42.961  0.00  0.00    +0.000 A 
ATOM     24  C23 UNL     1      33.613 -10.773 -42.028  0.00  0.00    +0.000 A 
ATOM     25  C24 UNL     1      32.532 -10.062 -41.494  0.00  0.00    +0.000 A 
ATOM     26  O5  UNL     1      32.754  -9.106 -40.602  0.00  0.00    +0.000 OA
ATOM     27  C25 UNL     1      31.782  -8.384 -40.051  0.00  0.00    +0.000 A 
BRANCH  27  28
ATOM     28  O6  UNL     1      32.132  -7.429 -39.102  0.00  0.00    +0.000 OA
ATOM     29  H12 UNL     1      33.067  -7.041 -39.075  0.00  0.00    +0.000 HD
ENDBRANCH  27  28
ENDBRANCH   1  16
BRANCH   1  30
ATOM     30  C11 UNL     1      28.607  -8.437 -38.591  0.00  0.00    +0.000 A 
ATOM     31  C12 UNL     1      28.704  -9.824 -38.336  0.00  0.00    +0.000 A 
ATOM     32  C13 UNL     1      28.122 -10.385 -37.197  0.00  0.00    +0.000 A 
ATOM     33  C14 UNL     1      27.441  -9.578 -36.287  0.00  0.00    +0.000 A 
ATOM     34 CL2  UNL     1      26.715 -10.287 -34.856  0.00  0.00    +0.000 Cl
ATOM     35  C15 UNL     1      27.342  -8.204 -36.512  0.00  0.00    +0.000 A 
ATOM     36  C16 UNL     1      27.919  -7.628 -37.649  0.00  0.00    +0.000 A 
ATOM     37 CL3  UNL     1      27.772  -5.883 -37.848  0.00  0.00    +0.000 Cl
ENDBRANCH   1  30
TORSDOF 5
ENDMDL
