MODEL 1
REMARK VINA RESULT:    -7.507      0.000      0.000
REMARK INTER + INTRA:         -11.527
REMARK INTER:                 -10.580
REMARK INTRA:                  -0.948
REMARK UNBOUND:                -0.948
REMARK  Name = resultss/4CJN/ligands/lig_398_t0.pdb
REMARK  7 active torsions:
REMARK  status: ('A' for Active; 'I' for Inactive)
REMARK    1  A    between atoms: N2_11  and  N3_12
REMARK    2  A    between atoms: C9_13  and  C10_14
REMARK    3  A    between atoms: C13_17  and  O2_18
REMARK    4  A    between atoms: O2_18  and  C14_19
REMARK    5  A    between atoms: C14_19  and  C15_20
REMARK    6  A    between atoms: N4_22  and  C17_23
REMARK    7  A    between atoms: C17_23  and  C18_24
REMARK                            x       y       z     vdW  Elec       q    Type
REMARK                         _______ _______ _______ _____ _____    ______ ____
ROOT
ATOM      1  C10 UNL     1      23.900  -8.593 -42.057  0.00  0.00    +0.000 A 
ATOM      2  C11 UNL     1      24.207  -8.055 -40.799  0.00  0.00    +0.000 A 
ATOM      3  C12 UNL     1      25.279  -8.555 -40.056  0.00  0.00    +0.000 A 
ATOM      4  C13 UNL     1      26.078  -9.594 -40.571  0.00  0.00    +0.000 A 
ATOM      5  C24 UNL     1      25.790 -10.107 -41.840  0.00  0.00    +0.000 A 
ATOM      6  C25 UNL     1      24.716  -9.609 -42.583  0.00  0.00    +0.000 A 
ENDROOT
BRANCH   1   8
ATOM      7  N3  UNL     1      22.915  -7.312 -43.900  0.00  0.00    +0.000 NA
ATOM      8  C9  UNL     1      22.768  -8.028 -42.825  0.00  0.00    +0.000 C 
BRANCH   7  19
ATOM      9  O1  UNL     1      22.230  -7.676 -46.658  0.00  0.00    +0.000 OA
ATOM     10  C1  UNL     1      23.440  -7.358 -46.800  0.00  0.00    +0.000 C 
ATOM     11  N1  UNL     1      24.089  -7.257 -48.067  0.00  0.00    +0.000 N 
ATOM     12  C2  UNL     1      25.431  -6.880 -47.757  0.00  0.00    +0.000 A 
ATOM     13  C3  UNL     1      26.461  -6.654 -48.668  0.00  0.00    +0.000 A 
ATOM     14  C4  UNL     1      27.722  -6.284 -48.168  0.00  0.00    +0.000 A 
ATOM     15  C5  UNL     1      27.930  -6.150 -46.779  0.00  0.00    +0.000 A 
ATOM     16  C6  UNL     1      26.878  -6.377 -45.876  0.00  0.00    +0.000 A 
ATOM     17  C7  UNL     1      25.638  -6.745 -46.396  0.00  0.00    +0.000 A 
ATOM     18  C8  UNL     1      24.382  -7.042 -45.726  0.00  0.00    +0.000 C 
ATOM     19  N2  UNL     1      24.170  -7.015 -44.449  0.00  0.00    +0.000 NA
ATOM     20  H1  UNL     1      23.675  -7.423 -49.010  0.00  0.00    +0.000 HD
ENDBRANCH   7  19
ENDBRANCH   1   8
BRANCH   4  21
ATOM     21  O2  UNL     1      27.163 -10.137 -39.864  0.00  0.00    +0.000 OA
BRANCH  21  22
ATOM     22  C14 UNL     1      28.096  -9.390 -39.083  0.00  0.00    +0.000 C 
BRANCH  22  23
ATOM     23  C15 UNL     1      27.681  -9.371 -37.646  0.00  0.00    +0.000 A 
ATOM     24  C16 UNL     1      27.391  -8.258 -36.889  0.00  0.00    +0.000 A 
ATOM     25  N4  UNL     1      27.068  -8.718 -35.670  0.00  0.00    +0.000 N 
ATOM     26  N5  UNL     1      27.138 -10.039 -35.683  0.00  0.00    +0.000 NA
ATOM     27  N6  UNL     1      27.516 -10.466 -36.879  0.00  0.00    +0.000 NA
BRANCH  25  28
ATOM     28  C17 UNL     1      26.621  -7.928 -34.528  0.00  0.00    +0.000 C 
BRANCH  28  29
ATOM     29  C18 UNL     1      25.142  -8.116 -34.324  0.00  0.00    +0.000 A 
ATOM     30  C19 UNL     1      24.677  -8.906 -33.259  0.00  0.00    +0.000 A 
ATOM     31  C20 UNL     1      23.306  -9.120 -33.088  0.00  0.00    +0.000 A 
ATOM     32  C21 UNL     1      22.391  -8.558 -33.983  0.00  0.00    +0.000 A 
ATOM     33  C22 UNL     1      22.846  -7.784 -35.053  0.00  0.00    +0.000 A 
ATOM     34  C23 UNL     1      24.216  -7.565 -35.231  0.00  0.00    +0.000 A 
ATOM     35  F1  UNL     1      24.639  -6.825 -36.288  0.00  0.00    +0.000 F 
ENDBRANCH  28  29
ENDBRANCH  25  28
ENDBRANCH  22  23
ENDBRANCH  21  22
ENDBRANCH   4  21
TORSDOF 7
ENDMDL
MODEL 2
REMARK VINA RESULT:    -7.271      1.340      1.738
REMARK INTER + INTRA:         -11.195
REMARK INTER:                 -10.130
REMARK INTRA:                  -1.065
REMARK UNBOUND:                -0.948
REMARK  Name = resultss/4CJN/ligands/lig_398_t0.pdb
REMARK  7 active torsions:
REMARK  status: ('A' for Active; 'I' for Inactive)
REMARK    1  A    between atoms: N2_11  and  N3_12
REMARK    2  A    between atoms: C9_13  and  C10_14
REMARK    3  A    between atoms: C13_17  and  O2_18
REMARK    4  A    between atoms: O2_18  and  C14_19
REMARK    5  A    between atoms: C14_19  and  C15_20
REMARK    6  A    between atoms: N4_22  and  C17_23
REMARK    7  A    between atoms: C17_23  and  C18_24
REMARK                            x       y       z     vdW  Elec       q    Type
REMARK                         _______ _______ _______ _____ _____    ______ ____
ROOT
ATOM      1  C10 UNL     1      24.544  -8.671 -41.523  0.00  0.00    +0.000 A 
ATOM      2  C11 UNL     1      25.071  -9.970 -41.528  0.00  0.00    +0.000 A 
ATOM      3  C12 UNL     1      26.256 -10.258 -40.847  0.00  0.00    +0.000 A 
ATOM      4  C13 UNL     1      26.926  -9.250 -40.128  0.00  0.00    +0.000 A 
ATOM      5  C24 UNL     1      26.381  -7.961 -40.097  0.00  0.00    +0.000 A 
ATOM      6  C25 UNL     1      25.197  -7.672 -40.781  0.00  0.00    +0.000 A 
ENDROOT
BRANCH   1   8
ATOM      7  N3  UNL     1      23.224  -7.943 -43.455  0.00  0.00    +0.000 NA
ATOM      8  C9  UNL     1      23.278  -8.404 -42.241  0.00  0.00    +0.000 C 
BRANCH   7  19
ATOM      9  O1  UNL     1      21.917  -7.368 -45.939  0.00  0.00    +0.000 OA
ATOM     10  C1  UNL     1      23.110  -7.185 -46.302  0.00  0.00    +0.000 C 
ATOM     11  N1  UNL     1      23.485  -6.796 -47.622  0.00  0.00    +0.000 N 
ATOM     12  C2  UNL     1      24.910  -6.712 -47.583  0.00  0.00    +0.000 A 
ATOM     13  C3  UNL     1      25.750  -6.361 -48.638  0.00  0.00    +0.000 A 
ATOM     14  C4  UNL     1      27.136  -6.329 -48.403  0.00  0.00    +0.000 A 
ATOM     15  C5  UNL     1      27.653  -6.647 -47.129  0.00  0.00    +0.000 A 
ATOM     16  C6  UNL     1      26.790  -6.992 -46.076  0.00  0.00    +0.000 A 
ATOM     17  C7  UNL     1      25.421  -7.019 -46.334  0.00  0.00    +0.000 A 
ATOM     18  C8  UNL     1      24.300  -7.334 -45.464  0.00  0.00    +0.000 C 
ATOM     19  N2  UNL     1      24.370  -7.663 -44.213  0.00  0.00    +0.000 NA
ATOM     20  H1  UNL     1      22.858  -6.615 -48.436  0.00  0.00    +0.000 HD
ENDBRANCH   7  19
ENDBRANCH   1   8
BRANCH   4  21
ATOM     21  O2  UNL     1      28.123  -9.483 -39.431  0.00  0.00    +0.000 OA
BRANCH  21  22
ATOM     22  C14 UNL     1      28.243 -10.246 -38.231  0.00  0.00    +0.000 C 
BRANCH  22  23
ATOM     23  C15 UNL     1      28.065  -9.369 -37.031  0.00  0.00    +0.000 A 
ATOM     24  C16 UNL     1      27.596  -9.753 -35.795  0.00  0.00    +0.000 A 
ATOM     25  N4  UNL     1      27.610  -8.644 -35.037  0.00  0.00    +0.000 N 
ATOM     26  N5  UNL     1      28.078  -7.642 -35.762  0.00  0.00    +0.000 NA
ATOM     27  N6  UNL     1      28.361  -8.056 -36.988  0.00  0.00    +0.000 NA
BRANCH  25  28
ATOM     28  C17 UNL     1      27.262  -8.547 -33.624  0.00  0.00    +0.000 C 
BRANCH  28  29
ATOM     29  C18 UNL     1      25.825  -8.125 -33.480  0.00  0.00    +0.000 A 
ATOM     30  C19 UNL     1      25.510  -6.771 -33.278  0.00  0.00    +0.000 A 
ATOM     31  C20 UNL     1      24.181  -6.375 -33.102  0.00  0.00    +0.000 A 
ATOM     32  C21 UNL     1      23.158  -7.328 -33.115  0.00  0.00    +0.000 A 
ATOM     33  C22 UNL     1      23.464  -8.679 -33.301  0.00  0.00    +0.000 A 
ATOM     34  C23 UNL     1      24.792  -9.081 -33.478  0.00  0.00    +0.000 A 
ATOM     35  F1  UNL     1      25.070 -10.400 -33.638  0.00  0.00    +0.000 F 
ENDBRANCH  28  29
ENDBRANCH  25  28
ENDBRANCH  22  23
ENDBRANCH  21  22
ENDBRANCH   4  21
TORSDOF 7
ENDMDL
MODEL 3
REMARK VINA RESULT:    -6.850      4.828     10.664
REMARK INTER + INTRA:         -10.602
REMARK INTER:                  -9.653
REMARK INTRA:                  -0.948
REMARK UNBOUND:                -0.948
REMARK  Name = resultss/4CJN/ligands/lig_398_t0.pdb
REMARK  7 active torsions:
REMARK  status: ('A' for Active; 'I' for Inactive)
REMARK    1  A    between atoms: N2_11  and  N3_12
REMARK    2  A    between atoms: C9_13  and  C10_14
REMARK    3  A    between atoms: C13_17  and  O2_18
REMARK    4  A    between atoms: O2_18  and  C14_19
REMARK    5  A    between atoms: C14_19  and  C15_20
REMARK    6  A    between atoms: N4_22  and  C17_23
REMARK    7  A    between atoms: C17_23  and  C18_24
REMARK                            x       y       z     vdW  Elec       q    Type
REMARK                         _______ _______ _______ _____ _____    ______ ____
ROOT
ATOM      1  C10 UNL     1      25.008  -7.854 -38.709  0.00  0.00    +0.000 A 
ATOM      2  C11 UNL     1      25.823  -6.765 -39.051  0.00  0.00    +0.000 A 
ATOM      3  C12 UNL     1      26.636  -6.816 -40.187  0.00  0.00    +0.000 A 
ATOM      4  C13 UNL     1      26.631  -7.956 -41.014  0.00  0.00    +0.000 A 
ATOM      5  C24 UNL     1      25.793  -9.028 -40.689  0.00  0.00    +0.000 A 
ATOM      6  C25 UNL     1      24.982  -8.979 -39.551  0.00  0.00    +0.000 A 
ENDROOT
BRANCH   1   8
ATOM      7  N3  UNL     1      24.545  -8.078 -36.313  0.00  0.00    +0.000 NA
ATOM      8  C9  UNL     1      24.148  -7.760 -37.509  0.00  0.00    +0.000 C 
BRANCH   7  19
ATOM      9  O1  UNL     1      24.672  -7.263 -33.570  0.00  0.00    +0.000 OA
ATOM     10  C1  UNL     1      25.817  -7.778 -33.671  0.00  0.00    +0.000 C 
ATOM     11  N1  UNL     1      26.755  -7.842 -32.598  0.00  0.00    +0.000 N 
ATOM     12  C2  UNL     1      27.897  -8.493 -33.154  0.00  0.00    +0.000 A 
ATOM     13  C3  UNL     1      29.087  -8.792 -32.492  0.00  0.00    +0.000 A 
ATOM     14  C4  UNL     1      30.103  -9.445 -33.211  0.00  0.00    +0.000 A 
ATOM     15  C5  UNL     1      29.916  -9.782 -34.568  0.00  0.00    +0.000 A 
ATOM     16  C6  UNL     1      28.707  -9.478 -35.217  0.00  0.00    +0.000 A 
ATOM     17  C7  UNL     1      27.716  -8.828 -34.484  0.00  0.00    +0.000 A 
ATOM     18  C8  UNL     1      26.386  -8.390 -34.873  0.00  0.00    +0.000 C 
ATOM     19  N2  UNL     1      25.843  -8.532 -36.039  0.00  0.00    +0.000 NA
ATOM     20  H1  UNL     1      26.633  -7.489 -31.623  0.00  0.00    +0.000 HD
ENDBRANCH   7  19
ENDBRANCH   1   8
BRANCH   4  21
ATOM     21  O2  UNL     1      27.432  -8.062 -42.163  0.00  0.00    +0.000 OA
BRANCH  21  22
ATOM     22  C14 UNL     1      27.814  -9.285 -42.792  0.00  0.00    +0.000 C 
BRANCH  22  23
ATOM     23  C15 UNL     1      29.127  -9.763 -42.256  0.00  0.00    +0.000 A 
ATOM     24  C16 UNL     1      30.303  -9.894 -42.960  0.00  0.00    +0.000 A 
ATOM     25  N4  UNL     1      31.208 -10.350 -42.079  0.00  0.00    +0.000 N 
ATOM     26  N5  UNL     1      30.625 -10.474 -40.898  0.00  0.00    +0.000 NA
ATOM     27  N6  UNL     1      29.349 -10.125 -40.978  0.00  0.00    +0.000 NA
BRANCH  25  28
ATOM     28  C17 UNL     1      32.625 -10.590 -42.328  0.00  0.00    +0.000 C 
BRANCH  28  29
ATOM     29  C18 UNL     1      32.796 -11.340 -43.622  0.00  0.00    +0.000 A 
ATOM     30  C19 UNL     1      33.371 -10.699 -44.732  0.00  0.00    +0.000 A 
ATOM     31  C20 UNL     1      33.495 -11.374 -45.949  0.00  0.00    +0.000 A 
ATOM     32  C21 UNL     1      33.037 -12.690 -46.071  0.00  0.00    +0.000 A 
ATOM     33  C22 UNL     1      32.450 -13.330 -44.976  0.00  0.00    +0.000 A 
ATOM     34  C23 UNL     1      32.323 -12.659 -43.755  0.00  0.00    +0.000 A 
ATOM     35  F1  UNL     1      31.733 -13.291 -42.708  0.00  0.00    +0.000 F 
ENDBRANCH  28  29
ENDBRANCH  25  28
ENDBRANCH  22  23
ENDBRANCH  21  22
ENDBRANCH   4  21
TORSDOF 7
ENDMDL
MODEL 4
REMARK VINA RESULT:    -6.823      5.220      8.326
REMARK INTER + INTRA:         -10.562
REMARK INTER:                  -7.603
REMARK INTRA:                  -2.960
REMARK UNBOUND:                -0.948
REMARK  Name = resultss/4CJN/ligands/lig_398_t0.pdb
REMARK  7 active torsions:
REMARK  status: ('A' for Active; 'I' for Inactive)
REMARK    1  A    between atoms: N2_11  and  N3_12
REMARK    2  A    between atoms: C9_13  and  C10_14
REMARK    3  A    between atoms: C13_17  and  O2_18
REMARK    4  A    between atoms: O2_18  and  C14_19
REMARK    5  A    between atoms: C14_19  and  C15_20
REMARK    6  A    between atoms: N4_22  and  C17_23
REMARK    7  A    between atoms: C17_23  and  C18_24
REMARK                            x       y       z     vdW  Elec       q    Type
REMARK                         _______ _______ _______ _____ _____    ______ ____
ROOT
ATOM      1  C10 UNL     1      29.073  -8.980 -33.851  0.00  0.00    +0.000 A 
ATOM      2  C11 UNL     1      28.435  -8.016 -33.058  0.00  0.00    +0.000 A 
ATOM      3  C12 UNL     1      27.041  -7.980 -32.968  0.00  0.00    +0.000 A 
ATOM      4  C13 UNL     1      26.260  -8.927 -33.658  0.00  0.00    +0.000 A 
ATOM      5  C24 UNL     1      26.899  -9.908 -34.423  0.00  0.00    +0.000 A 
ATOM      6  C25 UNL     1      28.294  -9.942 -34.516  0.00  0.00    +0.000 A 
ENDROOT
BRANCH   1   8
ATOM      7  N3  UNL     1      31.234  -8.588 -34.937  0.00  0.00    +0.000 NA
ATOM      8  C9  UNL     1      30.551  -8.999 -33.910  0.00  0.00    +0.000 C 
BRANCH   7  19
ATOM      9  O1  UNL     1      32.461 -10.345 -36.840  0.00  0.00    +0.000 OA
ATOM     10  C1  UNL     1      31.762  -9.660 -37.632  0.00  0.00    +0.000 C 
ATOM     11  N1  UNL     1      31.729  -9.870 -39.043  0.00  0.00    +0.000 N 
ATOM     12  C2  UNL     1      30.823  -8.882 -39.535  0.00  0.00    +0.000 A 
ATOM     13  C3  UNL     1      30.453  -8.683 -40.863  0.00  0.00    +0.000 A 
ATOM     14  C4  UNL     1      29.538  -7.655 -41.153  0.00  0.00    +0.000 A 
ATOM     15  C5  UNL     1      29.015  -6.850 -40.119  0.00  0.00    +0.000 A 
ATOM     16  C6  UNL     1      29.395  -7.070 -38.784  0.00  0.00    +0.000 A 
ATOM     17  C7  UNL     1      30.305  -8.093 -38.523  0.00  0.00    +0.000 A 
ATOM     18  C8  UNL     1      30.878  -8.552 -37.268  0.00  0.00    +0.000 C 
ATOM     19  N2  UNL     1      30.633  -8.069 -36.092  0.00  0.00    +0.000 NA
ATOM     20  H1  UNL     1      32.253 -10.585 -39.594  0.00  0.00    +0.000 HD
ENDBRANCH   7  19
ENDBRANCH   1   8
BRANCH   4  21
ATOM     21  O2  UNL     1      24.856  -8.933 -33.607  0.00  0.00    +0.000 OA
BRANCH  21  22
ATOM     22  C14 UNL     1      24.007  -7.920 -34.145  0.00  0.00    +0.000 C 
BRANCH  22  23
ATOM     23  C15 UNL     1      24.501  -7.477 -35.486  0.00  0.00    +0.000 A 
ATOM     24  C16 UNL     1      24.405  -8.175 -36.668  0.00  0.00    +0.000 A 
ATOM     25  N4  UNL     1      24.976  -7.395 -37.601  0.00  0.00    +0.000 N 
ATOM     26  N5  UNL     1      25.382  -6.275 -37.027  0.00  0.00    +0.000 NA
ATOM     27  N6  UNL     1      25.107  -6.299 -35.731  0.00  0.00    +0.000 NA
BRANCH  25  28
ATOM     28  C17 UNL     1      25.067  -7.668 -39.031  0.00  0.00    +0.000 C 
BRANCH  28  29
ATOM     29  C18 UNL     1      25.978  -8.842 -39.270  0.00  0.00    +0.000 A 
ATOM     30  C19 UNL     1      26.757  -9.349 -38.217  0.00  0.00    +0.000 A 
ATOM     31  C20 UNL     1      27.637 -10.412 -38.440  0.00  0.00    +0.000 A 
ATOM     32  C21 UNL     1      27.753 -10.970 -39.717  0.00  0.00    +0.000 A 
ATOM     33  C22 UNL     1      26.992 -10.462 -40.773  0.00  0.00    +0.000 A 
ATOM     34  C23 UNL     1      26.109  -9.399 -40.557  0.00  0.00    +0.000 A 
ATOM     35  F1  UNL     1      25.393  -8.907 -41.599  0.00  0.00    +0.000 F 
ENDBRANCH  28  29
ENDBRANCH  25  28
ENDBRANCH  22  23
ENDBRANCH  21  22
ENDBRANCH   4  21
TORSDOF 7
ENDMDL
MODEL 5
REMARK VINA RESULT:    -6.728      2.150      3.810
REMARK INTER + INTRA:         -10.429
REMARK INTER:                  -9.164
REMARK INTRA:                  -1.265
REMARK UNBOUND:                -0.948
REMARK  Name = resultss/4CJN/ligands/lig_398_t0.pdb
REMARK  7 active torsions:
REMARK  status: ('A' for Active; 'I' for Inactive)
REMARK    1  A    between atoms: N2_11  and  N3_12
REMARK    2  A    between atoms: C9_13  and  C10_14
REMARK    3  A    between atoms: C13_17  and  O2_18
REMARK    4  A    between atoms: O2_18  and  C14_19
REMARK    5  A    between atoms: C14_19  and  C15_20
REMARK    6  A    between atoms: N4_22  and  C17_23
REMARK    7  A    between atoms: C17_23  and  C18_24
REMARK                            x       y       z     vdW  Elec       q    Type
REMARK                         _______ _______ _______ _____ _____    ______ ____
ROOT
ATOM      1  C10 UNL     1      28.279  -8.102 -43.411  0.00  0.00    +0.000 A 
ATOM      2  C11 UNL     1      29.046  -7.379 -42.487  0.00  0.00    +0.000 A 
ATOM      3  C12 UNL     1      29.367  -7.932 -41.244  0.00  0.00    +0.000 A 
ATOM      4  C13 UNL     1      28.938  -9.231 -40.912  0.00  0.00    +0.000 A 
ATOM      5  C24 UNL     1      28.200  -9.963 -41.849  0.00  0.00    +0.000 A 
ATOM      6  C25 UNL     1      27.877  -9.410 -43.091  0.00  0.00    +0.000 A 
ENDROOT
BRANCH   1   8
ATOM      7  N3  UNL     1      26.865  -6.864 -44.984  0.00  0.00    +0.000 NA
ATOM      8  C9  UNL     1      27.972  -7.493 -44.724  0.00  0.00    +0.000 C 
BRANCH   7  19
ATOM      9  O1  UNL     1      24.637  -7.519 -46.661  0.00  0.00    +0.000 OA
ATOM     10  C1  UNL     1      24.011  -7.282 -45.594  0.00  0.00    +0.000 C 
ATOM     11  N1  UNL     1      22.593  -7.380 -45.468  0.00  0.00    +0.000 N 
ATOM     12  C2  UNL     1      22.326  -7.026 -44.111  0.00  0.00    +0.000 A 
ATOM     13  C3  UNL     1      21.075  -6.975 -43.498  0.00  0.00    +0.000 A 
ATOM     14  C4  UNL     1      21.013  -6.606 -42.142  0.00  0.00    +0.000 A 
ATOM     15  C5  UNL     1      22.191  -6.295 -41.431  0.00  0.00    +0.000 A 
ATOM     16  C6  UNL     1      23.443  -6.357 -42.065  0.00  0.00    +0.000 A 
ATOM     17  C7  UNL     1      23.479  -6.723 -43.409  0.00  0.00    +0.000 A 
ATOM     18  C8  UNL     1      24.602  -6.873 -44.319  0.00  0.00    +0.000 C 
ATOM     19  N2  UNL     1      25.851  -6.686 -44.032  0.00  0.00    +0.000 NA
ATOM     20  H1  UNL     1      21.905  -7.649 -46.205  0.00  0.00    +0.000 HD
ENDBRANCH   7  19
ENDBRANCH   1   8
BRANCH   4  21
ATOM     21  O2  UNL     1      29.227  -9.832 -39.676  0.00  0.00    +0.000 OA
BRANCH  21  22
ATOM     22  C14 UNL     1      28.281 -10.506 -38.846  0.00  0.00    +0.000 C 
BRANCH  22  23
ATOM     23  C15 UNL     1      27.248  -9.548 -38.343  0.00  0.00    +0.000 A 
ATOM     24  C16 UNL     1      27.274  -8.862 -37.149  0.00  0.00    +0.000 A 
ATOM     25  N4  UNL     1      26.151  -8.125 -37.125  0.00  0.00    +0.000 N 
ATOM     26  N5  UNL     1      25.484  -8.334 -38.247  0.00  0.00    +0.000 NA
ATOM     27  N6  UNL     1      26.130  -9.203 -39.011  0.00  0.00    +0.000 NA
BRANCH  25  28
ATOM     28  C17 UNL     1      25.752  -7.177 -36.091  0.00  0.00    +0.000 C 
BRANCH  28  29
ATOM     29  C18 UNL     1      24.749  -7.818 -35.170  0.00  0.00    +0.000 A 
ATOM     30  C19 UNL     1      23.375  -7.635 -35.395  0.00  0.00    +0.000 A 
ATOM     31  C20 UNL     1      22.438  -8.192 -34.520  0.00  0.00    +0.000 A 
ATOM     32  C21 UNL     1      22.865  -8.925 -33.409  0.00  0.00    +0.000 A 
ATOM     33  C22 UNL     1      24.231  -9.099 -33.170  0.00  0.00    +0.000 A 
ATOM     34  C23 UNL     1      25.174  -8.545 -34.041  0.00  0.00    +0.000 A 
ATOM     35  F1  UNL     1      26.496  -8.709 -33.781  0.00  0.00    +0.000 F 
ENDBRANCH  28  29
ENDBRANCH  25  28
ENDBRANCH  22  23
ENDBRANCH  21  22
ENDBRANCH   4  21
TORSDOF 7
ENDMDL
MODEL 6
REMARK VINA RESULT:    -6.603      2.228      3.325
REMARK INTER + INTRA:         -10.253
REMARK INTER:                  -9.409
REMARK INTRA:                  -0.844
REMARK UNBOUND:                -0.948
REMARK  Name = resultss/4CJN/ligands/lig_398_t0.pdb
REMARK  7 active torsions:
REMARK  status: ('A' for Active; 'I' for Inactive)
REMARK    1  A    between atoms: N2_11  and  N3_12
REMARK    2  A    between atoms: C9_13  and  C10_14
REMARK    3  A    between atoms: C13_17  and  O2_18
REMARK    4  A    between atoms: O2_18  and  C14_19
REMARK    5  A    between atoms: C14_19  and  C15_20
REMARK    6  A    between atoms: N4_22  and  C17_23
REMARK    7  A    between atoms: C17_23  and  C18_24
REMARK                            x       y       z     vdW  Elec       q    Type
REMARK                         _______ _______ _______ _____ _____    ______ ____
ROOT
ATOM      1  C10 UNL     1      24.491  -8.702 -41.566  0.00  0.00    +0.000 A 
ATOM      2  C11 UNL     1      25.012 -10.002 -41.635  0.00  0.00    +0.000 A 
ATOM      3  C12 UNL     1      26.188 -10.333 -40.956  0.00  0.00    +0.000 A 
ATOM      4  C13 UNL     1      26.853  -9.368 -40.177  0.00  0.00    +0.000 A 
ATOM      5  C24 UNL     1      26.314  -8.080 -40.083  0.00  0.00    +0.000 A 
ATOM      6  C25 UNL     1      25.140  -7.748 -40.764  0.00  0.00    +0.000 A 
ENDROOT
BRANCH   1   8
ATOM      7  N3  UNL     1      23.198  -7.896 -43.485  0.00  0.00    +0.000 NA
ATOM      8  C9  UNL     1      23.235  -8.391 -42.284  0.00  0.00    +0.000 C 
BRANCH   7  19
ATOM      9  O1  UNL     1      21.931  -7.421 -46.011  0.00  0.00    +0.000 OA
ATOM     10  C1  UNL     1      23.127  -7.228 -46.356  0.00  0.00    +0.000 C 
ATOM     11  N1  UNL     1      23.522  -6.872 -47.680  0.00  0.00    +0.000 N 
ATOM     12  C2  UNL     1      24.944  -6.761 -47.615  0.00  0.00    +0.000 A 
ATOM     13  C3  UNL     1      25.799  -6.428 -48.664  0.00  0.00    +0.000 A 
ATOM     14  C4  UNL     1      27.179  -6.364 -48.403  0.00  0.00    +0.000 A 
ATOM     15  C5  UNL     1      27.677  -6.633 -47.110  0.00  0.00    +0.000 A 
ATOM     16  C6  UNL     1      26.798  -6.962 -46.064  0.00  0.00    +0.000 A 
ATOM     17  C7  UNL     1      25.435  -7.021 -46.348  0.00  0.00    +0.000 A 
ATOM     18  C8  UNL     1      24.303  -7.330 -45.490  0.00  0.00    +0.000 C 
ATOM     19  N2  UNL     1      24.353  -7.619 -44.229  0.00  0.00    +0.000 NA
ATOM     20  H1  UNL     1      22.908  -6.728 -48.511  0.00  0.00    +0.000 HD
ENDBRANCH   7  19
ENDBRANCH   1   8
BRANCH   4  21
ATOM     21  O2  UNL     1      28.040  -9.644 -39.479  0.00  0.00    +0.000 OA
BRANCH  21  22
ATOM     22  C14 UNL     1      28.639  -8.795 -38.500  0.00  0.00    +0.000 C 
BRANCH  22  23
ATOM     23  C15 UNL     1      28.164  -9.158 -37.128  0.00  0.00    +0.000 A 
ATOM     24  C16 UNL     1      28.232  -8.373 -36.000  0.00  0.00    +0.000 A 
ATOM     25  N4  UNL     1      27.690  -9.102 -35.012  0.00  0.00    +0.000 N 
ATOM     26  N5  UNL     1      27.294 -10.262 -35.510  0.00  0.00    +0.000 NA
ATOM     27  N6  UNL     1      27.575 -10.326 -36.803  0.00  0.00    +0.000 NA
BRANCH  25  28
ATOM     28  C17 UNL     1      27.474  -8.681 -33.632  0.00  0.00    +0.000 C 
BRANCH  28  29
ATOM     29  C18 UNL     1      28.761  -8.164 -33.049  0.00  0.00    +0.000 A 
ATOM     30  C19 UNL     1      28.871  -6.812 -32.684  0.00  0.00    +0.000 A 
ATOM     31  C20 UNL     1      30.076  -6.313 -32.181  0.00  0.00    +0.000 A 
ATOM     32  C21 UNL     1      31.183  -7.157 -32.049  0.00  0.00    +0.000 A 
ATOM     33  C22 UNL     1      31.087  -8.500 -32.424  0.00  0.00    +0.000 A 
ATOM     34  C23 UNL     1      29.884  -9.005 -32.928  0.00  0.00    +0.000 A 
ATOM     35  F1  UNL     1      29.816 -10.307 -33.305  0.00  0.00    +0.000 F 
ENDBRANCH  28  29
ENDBRANCH  25  28
ENDBRANCH  22  23
ENDBRANCH  21  22
ENDBRANCH   4  21
TORSDOF 7
ENDMDL
MODEL 7
REMARK VINA RESULT:    -6.507      4.244      6.642
REMARK INTER + INTRA:         -10.118
REMARK INTER:                  -7.492
REMARK INTRA:                  -2.626
REMARK UNBOUND:                -0.948
REMARK  Name = resultss/4CJN/ligands/lig_398_t0.pdb
REMARK  7 active torsions:
REMARK  status: ('A' for Active; 'I' for Inactive)
REMARK    1  A    between atoms: N2_11  and  N3_12
REMARK    2  A    between atoms: C9_13  and  C10_14
REMARK    3  A    between atoms: C13_17  and  O2_18
REMARK    4  A    between atoms: O2_18  and  C14_19
REMARK    5  A    between atoms: C14_19  and  C15_20
REMARK    6  A    between atoms: N4_22  and  C17_23
REMARK    7  A    between atoms: C17_23  and  C18_24
REMARK                            x       y       z     vdW  Elec       q    Type
REMARK                         _______ _______ _______ _____ _____    ______ ____
ROOT
ATOM      1  C10 UNL     1      25.718  -8.233 -36.689  0.00  0.00    +0.000 A 
ATOM      2  C11 UNL     1      25.880  -9.423 -35.966  0.00  0.00    +0.000 A 
ATOM      3  C12 UNL     1      26.883  -9.536 -35.000  0.00  0.00    +0.000 A 
ATOM      4  C13 UNL     1      27.732  -8.447 -34.726  0.00  0.00    +0.000 A 
ATOM      5  C24 UNL     1      27.548  -7.250 -35.426  0.00  0.00    +0.000 A 
ATOM      6  C25 UNL     1      26.547  -7.137 -36.395  0.00  0.00    +0.000 A 
ENDROOT
BRANCH   1   8
ATOM      7  N3  UNL     1      24.742  -8.592 -38.908  0.00  0.00    +0.000 NA
ATOM      8  C9  UNL     1      24.635  -8.142 -37.693  0.00  0.00    +0.000 C 
BRANCH   7  19
ATOM      9  O1  UNL     1      25.101  -7.019 -41.275  0.00  0.00    +0.000 OA
ATOM     10  C1  UNL     1      26.095  -7.783 -41.399  0.00  0.00    +0.000 C 
ATOM     11  N1  UNL     1      27.019  -7.712 -42.484  0.00  0.00    +0.000 N 
ATOM     12  C2  UNL     1      27.964  -8.750 -42.223  0.00  0.00    +0.000 A 
ATOM     13  C3  UNL     1      29.071  -9.080 -43.003  0.00  0.00    +0.000 A 
ATOM     14  C4  UNL     1      29.893 -10.138 -42.578  0.00  0.00    +0.000 A 
ATOM     15  C5  UNL     1      29.596 -10.843 -41.392  0.00  0.00    +0.000 A 
ATOM     16  C6  UNL     1      28.479 -10.491 -40.615  0.00  0.00    +0.000 A 
ATOM     17  C7  UNL     1      27.678  -9.441 -41.059  0.00  0.00    +0.000 A 
ATOM     18  C8  UNL     1      26.477  -8.858 -40.483  0.00  0.00    +0.000 C 
ATOM     19  N2  UNL     1      25.898  -9.226 -39.385  0.00  0.00    +0.000 NA
ATOM     20  H1  UNL     1      27.006  -7.049 -43.290  0.00  0.00    +0.000 HD
ENDBRANCH   7  19
ENDBRANCH   1   8
BRANCH   4  21
ATOM     21  O2  UNL     1      28.760  -8.508 -33.770  0.00  0.00    +0.000 OA
BRANCH  21  22
ATOM     22  C14 UNL     1      29.681  -9.587 -33.618  0.00  0.00    +0.000 C 
BRANCH  22  23
ATOM     23  C15 UNL     1      30.639  -9.626 -34.767  0.00  0.00    +0.000 A 
ATOM     24  C16 UNL     1      30.317  -9.716 -36.102  0.00  0.00    +0.000 A 
ATOM     25  N4  UNL     1      31.487  -9.717 -36.763  0.00  0.00    +0.000 N 
ATOM     26  N5  UNL     1      32.469  -9.615 -35.883  0.00  0.00    +0.000 NA
ATOM     27  N6  UNL     1      31.980  -9.561 -34.653  0.00  0.00    +0.000 NA
BRANCH  25  28
ATOM     28  C17 UNL     1      31.673  -9.734 -38.209  0.00  0.00    +0.000 C 
BRANCH  28  29
ATOM     29  C18 UNL     1      31.008  -8.531 -38.823  0.00  0.00    +0.000 A 
ATOM     30  C19 UNL     1      29.847  -7.998 -38.239  0.00  0.00    +0.000 A 
ATOM     31  C20 UNL     1      29.200  -6.908 -38.826  0.00  0.00    +0.000 A 
ATOM     32  C21 UNL     1      29.699  -6.348 -40.007  0.00  0.00    +0.000 A 
ATOM     33  C22 UNL     1      30.845  -6.882 -40.602  0.00  0.00    +0.000 A 
ATOM     34  C23 UNL     1      31.498  -7.973 -40.019  0.00  0.00    +0.000 A 
ATOM     35  F1  UNL     1      32.599  -8.489 -40.624  0.00  0.00    +0.000 F 
ENDBRANCH  28  29
ENDBRANCH  25  28
ENDBRANCH  22  23
ENDBRANCH  21  22
ENDBRANCH   4  21
TORSDOF 7
ENDMDL
MODEL 8
REMARK VINA RESULT:    -6.493      1.898      2.813
REMARK INTER + INTRA:         -10.098
REMARK INTER:                  -9.067
REMARK INTRA:                  -1.031
REMARK UNBOUND:                -0.948
REMARK  Name = resultss/4CJN/ligands/lig_398_t0.pdb
REMARK  7 active torsions:
REMARK  status: ('A' for Active; 'I' for Inactive)
REMARK    1  A    between atoms: N2_11  and  N3_12
REMARK    2  A    between atoms: C9_13  and  C10_14
REMARK    3  A    between atoms: C13_17  and  O2_18
REMARK    4  A    between atoms: O2_18  and  C14_19
REMARK    5  A    between atoms: C14_19  and  C15_20
REMARK    6  A    between atoms: N4_22  and  C17_23
REMARK    7  A    between atoms: C17_23  and  C18_24
REMARK                            x       y       z     vdW  Elec       q    Type
REMARK                         _______ _______ _______ _____ _____    ______ ____
ROOT
ATOM      1  C10 UNL     1      25.929  -8.553 -39.460  0.00  0.00    +0.000 A 
ATOM      2  C11 UNL     1      26.716  -9.706 -39.338  0.00  0.00    +0.000 A 
ATOM      3  C12 UNL     1      27.997  -9.636 -38.784  0.00  0.00    +0.000 A 
ATOM      4  C13 UNL     1      28.506  -8.406 -38.324  0.00  0.00    +0.000 A 
ATOM      5  C24 UNL     1      27.706  -7.262 -38.417  0.00  0.00    +0.000 A 
ATOM      6  C25 UNL     1      26.426  -7.332 -38.973  0.00  0.00    +0.000 A 
ENDROOT
BRANCH   1   8
ATOM      7  N3  UNL     1      24.308  -8.493 -41.297  0.00  0.00    +0.000 NA
ATOM      8  C9  UNL     1      24.570  -8.666 -40.036  0.00  0.00    +0.000 C 
BRANCH   7  19
ATOM      9  O1  UNL     1      22.574  -7.989 -43.522  0.00  0.00    +0.000 OA
ATOM     10  C1  UNL     1      23.680  -7.779 -44.088  0.00  0.00    +0.000 C 
ATOM     11  N1  UNL     1      23.809  -7.398 -45.456  0.00  0.00    +0.000 N 
ATOM     12  C2  UNL     1      25.216  -7.274 -45.665  0.00  0.00    +0.000 A 
ATOM     13  C3  UNL     1      25.850  -6.915 -46.853  0.00  0.00    +0.000 A 
ATOM     14  C4  UNL     1      27.255  -6.842 -46.863  0.00  0.00    +0.000 A 
ATOM     15  C5  UNL     1      27.994  -7.127 -45.695  0.00  0.00    +0.000 A 
ATOM     16  C6  UNL     1      27.336  -7.481 -44.505  0.00  0.00    +0.000 A 
ATOM     17  C7  UNL     1      25.944  -7.550 -44.522  0.00  0.00    +0.000 A 
ATOM     18  C8  UNL     1      25.001  -7.883 -43.467  0.00  0.00    +0.000 C 
ATOM     19  N2  UNL     1      25.296  -8.193 -42.245  0.00  0.00    +0.000 NA
ATOM     20  H1  UNL     1      23.045  -7.246 -46.151  0.00  0.00    +0.000 HD
ENDBRANCH   7  19
ENDBRANCH   1   8
BRANCH   4  21
ATOM     21  O2  UNL     1      29.788  -8.278 -37.764  0.00  0.00    +0.000 OA
BRANCH  21  22
ATOM     22  C14 UNL     1      30.065  -7.957 -36.401  0.00  0.00    +0.000 C 
BRANCH  22  23
ATOM     23  C15 UNL     1      29.011  -8.524 -35.503  0.00  0.00    +0.000 A 
ATOM     24  C16 UNL     1      28.080  -7.815 -34.778  0.00  0.00    +0.000 A 
ATOM     25  N4  UNL     1      27.346  -8.732 -34.127  0.00  0.00    +0.000 N 
ATOM     26  N5  UNL     1      27.790  -9.936 -34.450  0.00  0.00    +0.000 NA
ATOM     27  N6  UNL     1      28.811  -9.839 -35.288  0.00  0.00    +0.000 NA
BRANCH  25  28
ATOM     28  C17 UNL     1      26.190  -8.481 -33.274  0.00  0.00    +0.000 C 
BRANCH  28  29
ATOM     29  C18 UNL     1      24.961  -8.294 -34.122  0.00  0.00    +0.000 A 
ATOM     30  C19 UNL     1      25.083  -7.810 -35.435  0.00  0.00    +0.000 A 
ATOM     31  C20 UNL     1      23.944  -7.594 -36.216  0.00  0.00    +0.000 A 
ATOM     32  C21 UNL     1      22.674  -7.850 -35.688  0.00  0.00    +0.000 A 
ATOM     33  C22 UNL     1      22.543  -8.318 -34.378  0.00  0.00    +0.000 A 
ATOM     34  C23 UNL     1      23.679  -8.536 -33.592  0.00  0.00    +0.000 A 
ATOM     35  F1  UNL     1      23.530  -8.973 -32.316  0.00  0.00    +0.000 F 
ENDBRANCH  28  29
ENDBRANCH  25  28
ENDBRANCH  22  23
ENDBRANCH  21  22
ENDBRANCH   4  21
TORSDOF 7
ENDMDL
MODEL 9
REMARK VINA RESULT:    -6.233      4.868      9.359
REMARK INTER + INTRA:          -9.732
REMARK INTER:                  -6.944
REMARK INTRA:                  -2.788
REMARK UNBOUND:                -0.948
REMARK  Name = resultss/4CJN/ligands/lig_398_t0.pdb
REMARK  7 active torsions:
REMARK  status: ('A' for Active; 'I' for Inactive)
REMARK    1  A    between atoms: N2_11  and  N3_12
REMARK    2  A    between atoms: C9_13  and  C10_14
REMARK    3  A    between atoms: C13_17  and  O2_18
REMARK    4  A    between atoms: O2_18  and  C14_19
REMARK    5  A    between atoms: C14_19  and  C15_20
REMARK    6  A    between atoms: N4_22  and  C17_23
REMARK    7  A    between atoms: C17_23  and  C18_24
REMARK                            x       y       z     vdW  Elec       q    Type
REMARK                         _______ _______ _______ _____ _____    ______ ____
ROOT
ATOM      1  C10 UNL     1      28.020  -8.506 -33.255  0.00  0.00    +0.000 A 
ATOM      2  C11 UNL     1      27.695  -9.548 -34.135  0.00  0.00    +0.000 A 
ATOM      3  C12 UNL     1      26.462  -9.565 -34.792  0.00  0.00    +0.000 A 
ATOM      4  C13 UNL     1      25.537  -8.522 -34.593  0.00  0.00    +0.000 A 
ATOM      5  C24 UNL     1      25.876  -7.467 -33.739  0.00  0.00    +0.000 A 
ATOM      6  C25 UNL     1      27.108  -7.451 -33.080  0.00  0.00    +0.000 A 
ENDROOT
BRANCH   1   8
ATOM      7  N3  UNL     1      30.430  -8.076 -33.150  0.00  0.00    +0.000 NA
ATOM      8  C9  UNL     1      29.341  -8.512 -32.589  0.00  0.00    +0.000 C 
BRANCH   7  19
ATOM      9  O1  UNL     1      32.055 -10.095 -34.372  0.00  0.00    +0.000 OA
ATOM     10  C1  UNL     1      31.868  -9.362 -35.379  0.00  0.00    +0.000 C 
ATOM     11  N1  UNL     1      32.398  -9.645 -36.674  0.00  0.00    +0.000 N 
ATOM     12  C2  UNL     1      31.945  -8.566 -37.492  0.00  0.00    +0.000 A 
ATOM     13  C3  UNL     1      32.202  -8.391 -38.851  0.00  0.00    +0.000 A 
ATOM     14  C4  UNL     1      31.664  -7.260 -39.490  0.00  0.00    +0.000 A 
ATOM     15  C5  UNL     1      30.886  -6.332 -38.766  0.00  0.00    +0.000 A 
ATOM     16  C6  UNL     1      30.633  -6.529 -37.398  0.00  0.00    +0.000 A 
ATOM     17  C7  UNL     1      31.180  -7.655 -36.787  0.00  0.00    +0.000 A 
ATOM     18  C8  UNL     1      31.095  -8.120 -35.412  0.00  0.00    +0.000 C 
ATOM     19  N2  UNL     1      30.456  -7.542 -34.445  0.00  0.00    +0.000 NA
ATOM     20  H1  UNL     1      32.987 -10.458 -36.958  0.00  0.00    +0.000 HD
ENDBRANCH   7  19
ENDBRANCH   1   8
BRANCH   4  21
ATOM     21  O2  UNL     1      24.282  -8.492 -35.222  0.00  0.00    +0.000 OA
BRANCH  21  22
ATOM     22  C14 UNL     1      23.902  -7.591 -36.262  0.00  0.00    +0.000 C 
BRANCH  22  23
ATOM     23  C15 UNL     1      24.752  -7.801 -37.476  0.00  0.00    +0.000 A 
ATOM     24  C16 UNL     1      25.796  -7.008 -37.895  0.00  0.00    +0.000 A 
ATOM     25  N4  UNL     1      26.260  -7.579 -39.019  0.00  0.00    +0.000 N 
ATOM     26  N5  UNL     1      25.553  -8.669 -39.264  0.00  0.00    +0.000 NA
ATOM     27  N6  UNL     1      24.619  -8.828 -38.338  0.00  0.00    +0.000 NA
BRANCH  25  28
ATOM     28  C17 UNL     1      27.408  -7.146 -39.808  0.00  0.00    +0.000 C 
BRANCH  28  29
ATOM     29  C18 UNL     1      28.075  -8.339 -40.437  0.00  0.00    +0.000 A 
ATOM     30  C19 UNL     1      28.027  -8.516 -41.829  0.00  0.00    +0.000 A 
ATOM     31  C20 UNL     1      28.608  -9.643 -42.417  0.00  0.00    +0.000 A 
ATOM     32  C21 UNL     1      29.231 -10.608 -41.619  0.00  0.00    +0.000 A 
ATOM     33  C22 UNL     1      29.271 -10.447 -40.231  0.00  0.00    +0.000 A 
ATOM     34  C23 UNL     1      28.691  -9.321 -39.637  0.00  0.00    +0.000 A 
ATOM     35  F1  UNL     1      28.723  -9.193 -38.286  0.00  0.00    +0.000 F 
ENDBRANCH  28  29
ENDBRANCH  25  28
ENDBRANCH  22  23
ENDBRANCH  21  22
ENDBRANCH   4  21
TORSDOF 7
ENDMDL
