MODEL 1
REMARK VINA RESULT:    -7.019      0.000      0.000
REMARK INTER + INTRA:          -9.270
REMARK INTER:                  -8.866
REMARK INTRA:                  -0.404
REMARK UNBOUND:                -0.404
REMARK  Name = resultss/4CJN/ligands/lig_180_t1.pdb
REMARK  5 active torsions:
REMARK  status: ('A' for Active; 'I' for Inactive)
REMARK    1  A    between atoms: O1_1  and  C1_2
REMARK    2  A    between atoms: C1_2  and  C9_13
REMARK    3  A    between atoms: N1_3  and  N2_4
REMARK    4  A    between atoms: C2_5  and  C3_6
REMARK    5  A    between atoms: C12_16  and  C13_17
REMARK                            x       y       z     vdW  Elec       q    Type
REMARK                         _______ _______ _______ _____ _____    ______ ____
ROOT
ATOM      1  C9  UNL     1      29.917  -9.609 -40.364  0.00  0.00    +0.000 A 
ATOM      2  C10 UNL     1      31.290  -9.367 -40.557  0.00  0.00    +0.000 A 
ATOM      3  C11 UNL     1      31.976  -9.965 -41.618  0.00  0.00    +0.000 A 
ATOM      4  C12 UNL     1      31.306 -10.819 -42.511  0.00  0.00    +0.000 A 
ATOM      5  C20 UNL     1      29.936 -11.061 -42.318  0.00  0.00    +0.000 A 
ATOM      6  C21 UNL     1      29.250 -10.463 -41.258  0.00  0.00    +0.000 A 
ENDROOT
BRANCH   4   7
ATOM      7  C13 UNL     1      32.023 -11.459 -43.638  0.00  0.00    +0.000 A 
ATOM      8  N3  UNL     1      31.699 -12.684 -44.125  0.00  0.00    +0.000 NA
ATOM      9  C14 UNL     1      32.508 -13.039 -45.157  0.00  0.00    +0.000 A 
ATOM     10  C15 UNL     1      32.412 -14.244 -45.855  0.00  0.00    +0.000 A 
ATOM     11  C16 UNL     1      33.315 -14.489 -46.906  0.00  0.00    +0.000 A 
ATOM     12  C17 UNL     1      34.293 -13.532 -47.243  0.00  0.00    +0.000 A 
ATOM     13  C18 UNL     1      34.380 -12.323 -46.533  0.00  0.00    +0.000 A 
ATOM     14  C19 UNL     1      33.474 -12.107 -45.497  0.00  0.00    +0.000 A 
ATOM     15  S1  UNL     1      33.332 -10.780 -44.484  0.00  0.00    +0.000 S 
ENDBRANCH   4   7
BRANCH   1  16
ATOM     16  C1  UNL     1      29.180  -8.980 -39.241  0.00  0.00    +0.000 C 
ATOM     17  N1  UNL     1      28.333  -9.680 -38.548  0.00  0.00    +0.000 NA
BRANCH  16  18
ATOM     18  O1  UNL     1      29.408  -7.632 -38.942  0.00  0.00    +0.000 OA
ATOM     19  H1  UNL     1      28.992  -7.170 -38.144  0.00  0.00    +0.000 HD
ENDBRANCH  16  18
BRANCH  17  20
ATOM     20  N2  UNL     1      27.612  -9.134 -37.477  0.00  0.00    +0.000 NA
ATOM     21  C2  UNL     1      26.442  -9.593 -37.165  0.00  0.00    +0.000 C 
BRANCH  21  22
ATOM     22  C3  UNL     1      25.675  -9.025 -36.039  0.00  0.00    +0.000 A 
ATOM     23  C4  UNL     1      24.687  -8.060 -36.295  0.00  0.00    +0.000 A 
ATOM     24  C5  UNL     1      23.949  -7.506 -35.243  0.00  0.00    +0.000 A 
ATOM     25  C6  UNL     1      24.191  -7.911 -33.927  0.00  0.00    +0.000 A 
ATOM     26 CL1  UNL     1      23.264  -7.216 -32.610  0.00  0.00    +0.000 Cl
ATOM     27  C7  UNL     1      25.174  -8.871 -33.663  0.00  0.00    +0.000 A 
ATOM     28  C8  UNL     1      25.913  -9.426 -34.711  0.00  0.00    +0.000 A 
ENDBRANCH  21  22
ENDBRANCH  17  20
ENDBRANCH   1  16
TORSDOF 5
ENDMDL
MODEL 2
REMARK VINA RESULT:    -6.319      7.273     10.236
REMARK INTER + INTRA:          -8.386
REMARK INTER:                  -7.961
REMARK INTRA:                  -0.425
REMARK UNBOUND:                -0.404
REMARK  Name = resultss/4CJN/ligands/lig_180_t1.pdb
REMARK  5 active torsions:
REMARK  status: ('A' for Active; 'I' for Inactive)
REMARK    1  A    between atoms: O1_1  and  C1_2
REMARK    2  A    between atoms: C1_2  and  C9_13
REMARK    3  A    between atoms: N1_3  and  N2_4
REMARK    4  A    between atoms: C2_5  and  C3_6
REMARK    5  A    between atoms: C12_16  and  C13_17
REMARK                            x       y       z     vdW  Elec       q    Type
REMARK                         _______ _______ _______ _____ _____    ______ ____
ROOT
ATOM      1  C9  UNL     1      24.855  -9.188 -41.013  0.00  0.00    +0.000 A 
ATOM      2  C10 UNL     1      25.941 -10.081 -41.089  0.00  0.00    +0.000 A 
ATOM      3  C11 UNL     1      26.872 -10.161 -40.050  0.00  0.00    +0.000 A 
ATOM      4  C12 UNL     1      26.739  -9.352 -38.909  0.00  0.00    +0.000 A 
ATOM      5  C20 UNL     1      25.657  -8.460 -38.831  0.00  0.00    +0.000 A 
ATOM      6  C21 UNL     1      24.726  -8.380 -39.870  0.00  0.00    +0.000 A 
ENDROOT
BRANCH   4   7
ATOM      7  C13 UNL     1      27.720  -9.429 -37.801  0.00  0.00    +0.000 A 
ATOM      8  N3  UNL     1      27.368  -9.683 -36.514  0.00  0.00    +0.000 NA
ATOM      9  C14 UNL     1      28.453  -9.701 -35.697  0.00  0.00    +0.000 A 
ATOM     10  C15 UNL     1      28.399  -9.937 -34.322  0.00  0.00    +0.000 A 
ATOM     11  C16 UNL     1      29.600  -9.928 -33.589  0.00  0.00    +0.000 A 
ATOM     12  C17 UNL     1      30.829  -9.686 -34.235  0.00  0.00    +0.000 A 
ATOM     13  C18 UNL     1      30.869  -9.450 -35.619  0.00  0.00    +0.000 A 
ATOM     14  C19 UNL     1      29.666  -9.464 -36.320  0.00  0.00    +0.000 A 
ATOM     15  S1  UNL     1      29.400  -9.220 -37.957  0.00  0.00    +0.000 S 
ENDBRANCH   4   7
BRANCH   1  16
ATOM     16  C1  UNL     1      23.863  -9.094 -42.110  0.00  0.00    +0.000 C 
ATOM     17  N1  UNL     1      23.162  -8.010 -42.261  0.00  0.00    +0.000 NA
BRANCH  16  18
ATOM     18  O1  UNL     1      23.693 -10.181 -42.974  0.00  0.00    +0.000 OA
ATOM     19  H1  UNL     1      24.041 -10.184 -43.925  0.00  0.00    +0.000 HD
ENDBRANCH  16  18
BRANCH  17  20
ATOM     20  N2  UNL     1      22.212  -7.870 -43.281  0.00  0.00    +0.000 NA
ATOM     21  C2  UNL     1      22.442  -7.102 -44.298  0.00  0.00    +0.000 C 
BRANCH  21  22
ATOM     22  C3  UNL     1      21.447  -6.948 -45.378  0.00  0.00    +0.000 A 
ATOM     23  C4  UNL     1      21.832  -7.178 -46.708  0.00  0.00    +0.000 A 
ATOM     24  C5  UNL     1      20.907  -7.038 -47.748  0.00  0.00    +0.000 A 
ATOM     25  C6  UNL     1      19.588  -6.666 -47.467  0.00  0.00    +0.000 A 
ATOM     26 CL1  UNL     1      18.429  -6.491 -48.772  0.00  0.00    +0.000 Cl
ATOM     27  C7  UNL     1      19.195  -6.434 -46.145  0.00  0.00    +0.000 A 
ATOM     28  C8  UNL     1      20.118  -6.573 -45.104  0.00  0.00    +0.000 A 
ENDBRANCH  21  22
ENDBRANCH  17  20
ENDBRANCH   1  16
TORSDOF 5
ENDMDL
MODEL 3
REMARK VINA RESULT:    -6.239      7.117     10.045
REMARK INTER + INTRA:          -8.285
REMARK INTER:                  -7.881
REMARK INTRA:                  -0.404
REMARK UNBOUND:                -0.404
REMARK  Name = resultss/4CJN/ligands/lig_180_t1.pdb
REMARK  5 active torsions:
REMARK  status: ('A' for Active; 'I' for Inactive)
REMARK    1  A    between atoms: O1_1  and  C1_2
REMARK    2  A    between atoms: C1_2  and  C9_13
REMARK    3  A    between atoms: N1_3  and  N2_4
REMARK    4  A    between atoms: C2_5  and  C3_6
REMARK    5  A    between atoms: C12_16  and  C13_17
REMARK                            x       y       z     vdW  Elec       q    Type
REMARK                         _______ _______ _______ _____ _____    ______ ____
ROOT
ATOM      1  C9  UNL     1      24.883  -9.147 -40.942  0.00  0.00    +0.000 A 
ATOM      2  C10 UNL     1      26.021  -9.968 -41.057  0.00  0.00    +0.000 A 
ATOM      3  C11 UNL     1      26.946 -10.053 -40.012  0.00  0.00    +0.000 A 
ATOM      4  C12 UNL     1      26.755  -9.321 -38.828  0.00  0.00    +0.000 A 
ATOM      5  C20 UNL     1      25.619  -8.502 -38.713  0.00  0.00    +0.000 A 
ATOM      6  C21 UNL     1      24.695  -8.416 -39.757  0.00  0.00    +0.000 A 
ENDROOT
BRANCH   4   7
ATOM      7  C13 UNL     1      27.728  -9.404 -37.714  0.00  0.00    +0.000 A 
ATOM      8  N3  UNL     1      27.359  -9.523 -36.412  0.00  0.00    +0.000 NA
ATOM      9  C14 UNL     1      28.440  -9.579 -35.593  0.00  0.00    +0.000 A 
ATOM     10  C15 UNL     1      28.370  -9.701 -34.204  0.00  0.00    +0.000 A 
ATOM     11  C16 UNL     1      29.569  -9.749 -33.469  0.00  0.00    +0.000 A 
ATOM     12  C17 UNL     1      30.813  -9.675 -34.128  0.00  0.00    +0.000 A 
ATOM     13  C18 UNL     1      30.870  -9.552 -35.526  0.00  0.00    +0.000 A 
ATOM     14  C19 UNL     1      29.668  -9.507 -36.228  0.00  0.00    +0.000 A 
ATOM     15  S1  UNL     1      29.419  -9.368 -37.880  0.00  0.00    +0.000 S 
ENDBRANCH   4   7
BRANCH   1  16
ATOM     16  C1  UNL     1      23.897  -9.049 -42.045  0.00  0.00    +0.000 C 
ATOM     17  N1  UNL     1      23.073  -8.045 -42.092  0.00  0.00    +0.000 NA
BRANCH  16  18
ATOM     18  O1  UNL     1      23.866 -10.045 -43.027  0.00  0.00    +0.000 OA
ATOM     19  H1  UNL     1      24.121  -9.873 -43.990  0.00  0.00    +0.000 HD
ENDBRANCH  16  18
BRANCH  17  20
ATOM     20  N2  UNL     1      22.123  -7.903 -43.112  0.00  0.00    +0.000 NA
ATOM     21  C2  UNL     1      21.159  -7.045 -43.005  0.00  0.00    +0.000 C 
BRANCH  21  22
ATOM     22  C3  UNL     1      20.155  -6.891 -44.075  0.00  0.00    +0.000 A 
ATOM     23  C4  UNL     1      18.794  -7.063 -43.773  0.00  0.00    +0.000 A 
ATOM     24  C5  UNL     1      17.823  -6.922 -44.771  0.00  0.00    +0.000 A 
ATOM     25  C6  UNL     1      18.204  -6.607 -46.079  0.00  0.00    +0.000 A 
ATOM     26 CL1  UNL     1      16.986  -6.430 -47.329  0.00  0.00    +0.000 Cl
ATOM     27  C7  UNL     1      19.557  -6.434 -46.389  0.00  0.00    +0.000 A 
ATOM     28  C8  UNL     1      20.529  -6.575 -45.395  0.00  0.00    +0.000 A 
ENDBRANCH  21  22
ENDBRANCH  17  20
ENDBRANCH   1  16
TORSDOF 5
ENDMDL
MODEL 4
REMARK VINA RESULT:    -5.983      6.904     10.265
REMARK INTER + INTRA:          -7.961
REMARK INTER:                  -7.551
REMARK INTRA:                  -0.410
REMARK UNBOUND:                -0.404
REMARK  Name = resultss/4CJN/ligands/lig_180_t1.pdb
REMARK  5 active torsions:
REMARK  status: ('A' for Active; 'I' for Inactive)
REMARK    1  A    between atoms: O1_1  and  C1_2
REMARK    2  A    between atoms: C1_2  and  C9_13
REMARK    3  A    between atoms: N1_3  and  N2_4
REMARK    4  A    between atoms: C2_5  and  C3_6
REMARK    5  A    between atoms: C12_16  and  C13_17
REMARK                            x       y       z     vdW  Elec       q    Type
REMARK                         _______ _______ _______ _____ _____    ______ ____
ROOT
ATOM      1  C9  UNL     1      25.918  -9.301 -40.609  0.00  0.00    +0.000 A 
ATOM      2  C10 UNL     1      25.423  -8.642 -39.468  0.00  0.00    +0.000 A 
ATOM      3  C11 UNL     1      26.121  -8.692 -38.259  0.00  0.00    +0.000 A 
ATOM      4  C12 UNL     1      27.331  -9.400 -38.161  0.00  0.00    +0.000 A 
ATOM      5  C20 UNL     1      27.826 -10.058 -39.299  0.00  0.00    +0.000 A 
ATOM      6  C21 UNL     1      27.128 -10.008 -40.509  0.00  0.00    +0.000 A 
ENDROOT
BRANCH   4   7
ATOM      7  C13 UNL     1      28.079  -9.459 -36.883  0.00  0.00    +0.000 A 
ATOM      8  N3  UNL     1      29.436  -9.495 -36.818  0.00  0.00    +0.000 NA
ATOM      9  C14 UNL     1      29.870  -9.545 -35.533  0.00  0.00    +0.000 A 
ATOM     10  C15 UNL     1      31.214  -9.591 -35.156  0.00  0.00    +0.000 A 
ATOM     11  C16 UNL     1      31.529  -9.641 -33.786  0.00  0.00    +0.000 A 
ATOM     12  C17 UNL     1      30.505  -9.644 -32.818  0.00  0.00    +0.000 A 
ATOM     13  C18 UNL     1      29.157  -9.598 -33.210  0.00  0.00    +0.000 A 
ATOM     14  C19 UNL     1      28.873  -9.549 -34.572  0.00  0.00    +0.000 A 
ATOM     15  S1  UNL     1      27.382  -9.487 -35.334  0.00  0.00    +0.000 S 
ENDBRANCH   4   7
BRANCH   1  16
ATOM     16  C1  UNL     1      25.185  -9.256 -41.898  0.00  0.00    +0.000 C 
ATOM     17  N1  UNL     1      25.289  -8.215 -42.668  0.00  0.00    +0.000 NA
BRANCH  16  18
ATOM     18  O1  UNL     1      24.385 -10.343 -42.268  0.00  0.00    +0.000 OA
ATOM     19  H1  UNL     1      23.667 -10.725 -41.666  0.00  0.00    +0.000 HD
ENDBRANCH  16  18
BRANCH  17  20
ATOM     20  N2  UNL     1      24.618  -8.123 -43.895  0.00  0.00    +0.000 NA
ATOM     21  C2  UNL     1      23.820  -7.133 -44.140  0.00  0.00    +0.000 C 
BRANCH  21  22
ATOM     22  C3  UNL     1      23.110  -7.028 -45.430  0.00  0.00    +0.000 A 
ATOM     23  C4  UNL     1      21.792  -6.544 -45.454  0.00  0.00    +0.000 A 
ATOM     24  C5  UNL     1      21.098  -6.436 -46.664  0.00  0.00    +0.000 A 
ATOM     25  C6  UNL     1      21.716  -6.811 -47.861  0.00  0.00    +0.000 A 
ATOM     26 CL1  UNL     1      20.846  -6.675 -49.378  0.00  0.00    +0.000 Cl
ATOM     27  C7  UNL     1      23.029  -7.294 -47.848  0.00  0.00    +0.000 A 
ATOM     28  C8  UNL     1      23.724  -7.403 -46.640  0.00  0.00    +0.000 A 
ENDBRANCH  21  22
ENDBRANCH  17  20
ENDBRANCH   1  16
TORSDOF 5
ENDMDL
MODEL 5
REMARK VINA RESULT:    -5.483      6.270      8.602
REMARK INTER + INTRA:          -7.330
REMARK INTER:                  -6.931
REMARK INTRA:                  -0.399
REMARK UNBOUND:                -0.404
REMARK  Name = resultss/4CJN/ligands/lig_180_t1.pdb
REMARK  5 active torsions:
REMARK  status: ('A' for Active; 'I' for Inactive)
REMARK    1  A    between atoms: O1_1  and  C1_2
REMARK    2  A    between atoms: C1_2  and  C9_13
REMARK    3  A    between atoms: N1_3  and  N2_4
REMARK    4  A    between atoms: C2_5  and  C3_6
REMARK    5  A    between atoms: C12_16  and  C13_17
REMARK                            x       y       z     vdW  Elec       q    Type
REMARK                         _______ _______ _______ _____ _____    ______ ____
ROOT
ATOM      1  C9  UNL     1      26.732  -9.516 -39.544  0.00  0.00    +0.000 A 
ATOM      2  C10 UNL     1      26.631 -10.166 -40.789  0.00  0.00    +0.000 A 
ATOM      3  C11 UNL     1      25.751  -9.697 -41.768  0.00  0.00    +0.000 A 
ATOM      4  C12 UNL     1      24.952  -8.566 -41.527  0.00  0.00    +0.000 A 
ATOM      5  C20 UNL     1      25.052  -7.917 -40.285  0.00  0.00    +0.000 A 
ATOM      6  C21 UNL     1      25.932  -8.386 -39.306  0.00  0.00    +0.000 A 
ENDROOT
BRANCH   4   7
ATOM      7  C13 UNL     1      24.016  -8.060 -42.558  0.00  0.00    +0.000 A 
ATOM      8  N3  UNL     1      22.716  -7.763 -42.300  0.00  0.00    +0.000 NA
ATOM      9  C14 UNL     1      22.077  -7.319 -43.412  0.00  0.00    +0.000 A 
ATOM     10  C15 UNL     1      20.734  -6.939 -43.451  0.00  0.00    +0.000 A 
ATOM     11  C16 UNL     1      20.194  -6.496 -44.672  0.00  0.00    +0.000 A 
ATOM     12  C17 UNL     1      20.997  -6.438 -45.829  0.00  0.00    +0.000 A 
ATOM     13  C18 UNL     1      22.346  -6.823 -45.777  0.00  0.00    +0.000 A 
ATOM     14  C19 UNL     1      22.856  -7.257 -44.556  0.00  0.00    +0.000 A 
ATOM     15  S1  UNL     1      24.407  -7.774 -44.187  0.00  0.00    +0.000 S 
ENDBRANCH   4   7
BRANCH   1  16
ATOM     16  C1  UNL     1      27.662 -10.007 -38.498  0.00  0.00    +0.000 C 
ATOM     17  N1  UNL     1      28.215  -9.167 -37.676  0.00  0.00    +0.000 NA
BRANCH  16  18
ATOM     18  O1  UNL     1      27.932 -11.377 -38.410  0.00  0.00    +0.000 OA
ATOM     19  H1  UNL     1      28.755 -11.744 -37.951  0.00  0.00    +0.000 HD
ENDBRANCH  16  18
BRANCH  17  20
ATOM     20  N2  UNL     1      29.099  -9.578 -36.669  0.00  0.00    +0.000 NA
ATOM     21  C2  UNL     1      29.370  -8.802 -35.668  0.00  0.00    +0.000 C 
BRANCH  21  22
ATOM     22  C3  UNL     1      30.299  -9.227 -34.604  0.00  0.00    +0.000 A 
ATOM     23  C4  UNL     1      31.675  -9.302 -34.879  0.00  0.00    +0.000 A 
ATOM     24  C5  UNL     1      32.575  -9.703 -33.886  0.00  0.00    +0.000 A 
ATOM     25  C6  UNL     1      32.109 -10.033 -32.610  0.00  0.00    +0.000 A 
ATOM     26 CL1  UNL     1      33.239 -10.536 -31.366  0.00  0.00    +0.000 Cl
ATOM     27  C7  UNL     1      30.741  -9.962 -32.326  0.00  0.00    +0.000 A 
ATOM     28  C8  UNL     1      29.839  -9.562 -33.316  0.00  0.00    +0.000 A 
ENDBRANCH  21  22
ENDBRANCH  17  20
ENDBRANCH   1  16
TORSDOF 5
ENDMDL
MODEL 6
REMARK VINA RESULT:    -5.469      6.268      8.007
REMARK INTER + INTRA:          -7.313
REMARK INTER:                  -6.902
REMARK INTRA:                  -0.410
REMARK UNBOUND:                -0.404
REMARK  Name = resultss/4CJN/ligands/lig_180_t1.pdb
REMARK  5 active torsions:
REMARK  status: ('A' for Active; 'I' for Inactive)
REMARK    1  A    between atoms: O1_1  and  C1_2
REMARK    2  A    between atoms: C1_2  and  C9_13
REMARK    3  A    between atoms: N1_3  and  N2_4
REMARK    4  A    between atoms: C2_5  and  C3_6
REMARK    5  A    between atoms: C12_16  and  C13_17
REMARK                            x       y       z     vdW  Elec       q    Type
REMARK                         _______ _______ _______ _____ _____    ______ ____
ROOT
ATOM      1  C9  UNL     1      26.769  -9.220 -40.381  0.00  0.00    +0.000 A 
ATOM      2  C10 UNL     1      25.366  -9.243 -40.273  0.00  0.00    +0.000 A 
ATOM      3  C11 UNL     1      24.563  -8.810 -41.332  0.00  0.00    +0.000 A 
ATOM      4  C12 UNL     1      25.144  -8.345 -42.525  0.00  0.00    +0.000 A 
ATOM      5  C20 UNL     1      26.544  -8.322 -42.633  0.00  0.00    +0.000 A 
ATOM      6  C21 UNL     1      27.347  -8.755 -41.574  0.00  0.00    +0.000 A 
ENDROOT
BRANCH   4   7
ATOM      7  C13 UNL     1      24.303  -7.884 -43.654  0.00  0.00    +0.000 A 
ATOM      8  N3  UNL     1      24.751  -7.815 -44.934  0.00  0.00    +0.000 NA
ATOM      9  C14 UNL     1      23.785  -7.363 -45.775  0.00  0.00    +0.000 A 
ATOM     10  C15 UNL     1      23.956  -7.188 -47.149  0.00  0.00    +0.000 A 
ATOM     11  C16 UNL     1      22.872  -6.711 -47.908  0.00  0.00    +0.000 A 
ATOM     12  C17 UNL     1      21.640  -6.418 -47.288  0.00  0.00    +0.000 A 
ATOM     13  C18 UNL     1      21.482  -6.598 -45.904  0.00  0.00    +0.000 A 
ATOM     14  C19 UNL     1      22.571  -7.071 -45.177  0.00  0.00    +0.000 A 
ATOM     15  S1  UNL     1      22.683  -7.383 -43.534  0.00  0.00    +0.000 S 
ENDBRANCH   4   7
BRANCH   1  16
ATOM     16  C1  UNL     1      27.630  -9.676 -39.263  0.00  0.00    +0.000 C 
ATOM     17  N1  UNL     1      28.154  -8.808 -38.451  0.00  0.00    +0.000 NA
BRANCH  16  18
ATOM     18  O1  UNL     1      27.868 -11.045 -39.096  0.00  0.00    +0.000 OA
ATOM     19  H1  UNL     1      28.589 -11.405 -38.484  0.00  0.00    +0.000 HD
ENDBRANCH  16  18
BRANCH  17  20
ATOM     20  N2  UNL     1      28.973  -9.185 -37.379  0.00  0.00    +0.000 NA
ATOM     21  C2  UNL     1      28.761  -8.723 -36.188  0.00  0.00    +0.000 C 
BRANCH  21  22
ATOM     22  C3  UNL     1      29.619  -9.116 -35.053  0.00  0.00    +0.000 A 
ATOM     23  C4  UNL     1      29.048  -9.273 -33.780  0.00  0.00    +0.000 A 
ATOM     24  C5  UNL     1      29.842  -9.644 -32.689  0.00  0.00    +0.000 A 
ATOM     25  C6  UNL     1      31.213  -9.861 -32.861  0.00  0.00    +0.000 A 
ATOM     26 CL1  UNL     1      32.206 -10.326 -31.492  0.00  0.00    +0.000 Cl
ATOM     27  C7  UNL     1      31.790  -9.706 -34.126  0.00  0.00    +0.000 A 
ATOM     28  C8  UNL     1      30.999  -9.335 -35.217  0.00  0.00    +0.000 A 
ENDBRANCH  21  22
ENDBRANCH  17  20
ENDBRANCH   1  16
TORSDOF 5
ENDMDL
MODEL 7
REMARK VINA RESULT:    -5.285      7.392      9.275
REMARK INTER + INTRA:          -7.080
REMARK INTER:                  -6.666
REMARK INTRA:                  -0.414
REMARK UNBOUND:                -0.404
REMARK  Name = resultss/4CJN/ligands/lig_180_t1.pdb
REMARK  5 active torsions:
REMARK  status: ('A' for Active; 'I' for Inactive)
REMARK    1  A    between atoms: O1_1  and  C1_2
REMARK    2  A    between atoms: C1_2  and  C9_13
REMARK    3  A    between atoms: N1_3  and  N2_4
REMARK    4  A    between atoms: C2_5  and  C3_6
REMARK    5  A    between atoms: C12_16  and  C13_17
REMARK                            x       y       z     vdW  Elec       q    Type
REMARK                         _______ _______ _______ _____ _____    ______ ____
ROOT
ATOM      1  C9  UNL     1      25.113  -7.592 -41.601  0.00  0.00    +0.000 A 
ATOM      2  C10 UNL     1      23.916  -8.332 -41.628  0.00  0.00    +0.000 A 
ATOM      3  C11 UNL     1      23.007  -8.178 -42.677  0.00  0.00    +0.000 A 
ATOM      4  C12 UNL     1      23.272  -7.280 -43.726  0.00  0.00    +0.000 A 
ATOM      5  C20 UNL     1      24.466  -6.541 -43.700  0.00  0.00    +0.000 A 
ATOM      6  C21 UNL     1      25.376  -6.696 -42.651  0.00  0.00    +0.000 A 
ENDROOT
BRANCH   4   7
ATOM      7  C13 UNL     1      22.315  -7.109 -44.844  0.00  0.00    +0.000 A 
ATOM      8  N3  UNL     1      20.974  -6.985 -44.661  0.00  0.00    +0.000 NA
ATOM      9  C14 UNL     1      20.323  -6.840 -45.844  0.00  0.00    +0.000 A 
ATOM     10  C15 UNL     1      18.941  -6.692 -45.969  0.00  0.00    +0.000 A 
ATOM     11  C16 UNL     1      18.391  -6.550 -47.256  0.00  0.00    +0.000 A 
ATOM     12  C17 UNL     1      19.225  -6.558 -48.393  0.00  0.00    +0.000 A 
ATOM     13  C18 UNL     1      20.615  -6.708 -48.253  0.00  0.00    +0.000 A 
ATOM     14  C19 UNL     1      21.132  -6.846 -46.968  0.00  0.00    +0.000 A 
ATOM     15  S1  UNL     1      22.727  -7.039 -46.491  0.00  0.00    +0.000 S 
ENDBRANCH   4   7
BRANCH   1  16
ATOM     16  C1  UNL     1      26.085  -7.748 -40.491  0.00  0.00    +0.000 C 
ATOM     17  N1  UNL     1      25.661  -7.951 -39.280  0.00  0.00    +0.000 NA
BRANCH  16  18
ATOM     18  O1  UNL     1      27.455  -7.672 -40.766  0.00  0.00    +0.000 OA
ATOM     19  H1  UNL     1      27.850  -7.942 -41.658  0.00  0.00    +0.000 HD
ENDBRANCH  16  18
BRANCH  17  20
ATOM     20  N2  UNL     1      26.536  -8.106 -38.197  0.00  0.00    +0.000 NA
ATOM     21  C2  UNL     1      26.771  -9.277 -37.698  0.00  0.00    +0.000 C 
BRANCH  21  22
ATOM     22  C3  UNL     1      27.691  -9.449 -36.557  0.00  0.00    +0.000 A 
ATOM     23  C4  UNL     1      27.165  -9.643 -35.269  0.00  0.00    +0.000 A 
ATOM     24  C5  UNL     1      28.018  -9.807 -34.173  0.00  0.00    +0.000 A 
ATOM     25  C6  UNL     1      29.405  -9.778 -34.353  0.00  0.00    +0.000 A 
ATOM     26 CL1  UNL     1      30.473  -9.985 -32.977  0.00  0.00    +0.000 Cl
ATOM     27  C7  UNL     1      29.938  -9.585 -35.631  0.00  0.00    +0.000 A 
ATOM     28  C8  UNL     1      29.088  -9.421 -36.729  0.00  0.00    +0.000 A 
ENDBRANCH  21  22
ENDBRANCH  17  20
ENDBRANCH   1  16
TORSDOF 5
ENDMDL
MODEL 8
REMARK VINA RESULT:    -4.875      6.241      9.964
REMARK INTER + INTRA:          -6.562
REMARK INTER:                  -6.143
REMARK INTRA:                  -0.419
REMARK UNBOUND:                -0.404
REMARK  Name = resultss/4CJN/ligands/lig_180_t1.pdb
REMARK  5 active torsions:
REMARK  status: ('A' for Active; 'I' for Inactive)
REMARK    1  A    between atoms: O1_1  and  C1_2
REMARK    2  A    between atoms: C1_2  and  C9_13
REMARK    3  A    between atoms: N1_3  and  N2_4
REMARK    4  A    between atoms: C2_5  and  C3_6
REMARK    5  A    between atoms: C12_16  and  C13_17
REMARK                            x       y       z     vdW  Elec       q    Type
REMARK                         _______ _______ _______ _____ _____    ______ ____
ROOT
ATOM      1  C9  UNL     1      28.490  -9.106 -38.804  0.00  0.00    +0.000 A 
ATOM      2  C10 UNL     1      27.943  -9.245 -37.515  0.00  0.00    +0.000 A 
ATOM      3  C11 UNL     1      28.773  -9.371 -36.398  0.00  0.00    +0.000 A 
ATOM      4  C12 UNL     1      30.172  -9.361 -36.543  0.00  0.00    +0.000 A 
ATOM      5  C20 UNL     1      30.719  -9.223 -37.829  0.00  0.00    +0.000 A 
ATOM      6  C21 UNL     1      29.888  -9.096 -38.946  0.00  0.00    +0.000 A 
ENDROOT
BRANCH   4   7
ATOM      7  C13 UNL     1      31.062  -9.494 -35.366  0.00  0.00    +0.000 A 
ATOM      8  N3  UNL     1      30.631  -9.935 -34.156  0.00  0.00    +0.000 NA
ATOM      9  C14 UNL     1      31.642  -9.964 -33.249  0.00  0.00    +0.000 A 
ATOM     10  C15 UNL     1      31.498 -10.373 -31.922  0.00  0.00    +0.000 A 
ATOM     11  C16 UNL     1      32.629 -10.356 -31.085  0.00  0.00    +0.000 A 
ATOM     12  C17 UNL     1      33.878  -9.934 -31.582  0.00  0.00    +0.000 A 
ATOM     13  C18 UNL     1      34.009  -9.524 -32.919  0.00  0.00    +0.000 A 
ATOM     14  C19 UNL     1      32.874  -9.551 -33.726  0.00  0.00    +0.000 A 
ATOM     15  S1  UNL     1      32.721  -9.128 -35.340  0.00  0.00    +0.000 S 
ENDBRANCH   4   7
BRANCH   1  16
ATOM     16  C1  UNL     1      27.618  -8.972 -39.996  0.00  0.00    +0.000 C 
ATOM     17  N1  UNL     1      27.997  -8.239 -40.999  0.00  0.00    +0.000 NA
BRANCH  16  18
ATOM     18  O1  UNL     1      26.390  -9.642 -40.023  0.00  0.00    +0.000 OA
ATOM     19  H1  UNL     1      25.538  -9.211 -40.360  0.00  0.00    +0.000 HD
ENDBRANCH  16  18
BRANCH  17  20
ATOM     20  N2  UNL     1      27.211  -8.080 -42.148  0.00  0.00    +0.000 NA
ATOM     21  C2  UNL     1      27.704  -7.542 -43.218  0.00  0.00    +0.000 C 
BRANCH  21  22
ATOM     22  C3  UNL     1      26.884  -7.371 -44.433  0.00  0.00    +0.000 A 
ATOM     23  C4  UNL     1      25.484  -7.417 -44.332  0.00  0.00    +0.000 A 
ATOM     24  C5  UNL     1      24.685  -7.259 -45.469  0.00  0.00    +0.000 A 
ATOM     25  C6  UNL     1      25.279  -7.053 -46.719  0.00  0.00    +0.000 A 
ATOM     26 CL1  UNL     1      24.277  -6.854 -48.145  0.00  0.00    +0.000 Cl
ATOM     27  C7  UNL     1      26.672  -7.006 -46.830  0.00  0.00    +0.000 A 
ATOM     28  C8  UNL     1      27.473  -7.165 -45.695  0.00  0.00    +0.000 A 
ENDBRANCH  21  22
ENDBRANCH  17  20
ENDBRANCH   1  16
TORSDOF 5
ENDMDL
MODEL 9
REMARK VINA RESULT:    -4.644      6.189      7.514
REMARK INTER + INTRA:          -6.270
REMARK INTER:                  -5.857
REMARK INTRA:                  -0.413
REMARK UNBOUND:                -0.404
REMARK  Name = resultss/4CJN/ligands/lig_180_t1.pdb
REMARK  5 active torsions:
REMARK  status: ('A' for Active; 'I' for Inactive)
REMARK    1  A    between atoms: O1_1  and  C1_2
REMARK    2  A    between atoms: C1_2  and  C9_13
REMARK    3  A    between atoms: N1_3  and  N2_4
REMARK    4  A    between atoms: C2_5  and  C3_6
REMARK    5  A    between atoms: C12_16  and  C13_17
REMARK                            x       y       z     vdW  Elec       q    Type
REMARK                         _______ _______ _______ _____ _____    ______ ____
ROOT
ATOM      1  C9  UNL     1      28.074  -7.451 -40.543  0.00  0.00    +0.000 A 
ATOM      2  C10 UNL     1      27.136  -8.457 -40.841  0.00  0.00    +0.000 A 
ATOM      3  C11 UNL     1      26.364  -8.389 -42.004  0.00  0.00    +0.000 A 
ATOM      4  C12 UNL     1      26.512  -7.315 -42.898  0.00  0.00    +0.000 A 
ATOM      5  C20 UNL     1      27.448  -6.310 -42.601  0.00  0.00    +0.000 A 
ATOM      6  C21 UNL     1      28.220  -6.378 -41.439  0.00  0.00    +0.000 A 
ENDROOT
BRANCH   4   7
ATOM      7  C13 UNL     1      25.699  -7.233 -44.133  0.00  0.00    +0.000 A 
ATOM      8  N3  UNL     1      24.341  -7.274 -44.133  0.00  0.00    +0.000 NA
ATOM      9  C14 UNL     1      23.841  -7.181 -45.392  0.00  0.00    +0.000 A 
ATOM     10  C15 UNL     1      22.480  -7.196 -45.702  0.00  0.00    +0.000 A 
ATOM     11  C16 UNL     1      22.094  -7.091 -47.051  0.00  0.00    +0.000 A 
ATOM     12  C17 UNL     1      23.067  -6.972 -48.064  0.00  0.00    +0.000 A 
ATOM     13  C18 UNL     1      24.433  -6.959 -47.739  0.00  0.00    +0.000 A 
ATOM     14  C19 UNL     1      24.787  -7.064 -46.396  0.00  0.00    +0.000 A 
ATOM     15  S1  UNL     1      26.315  -7.076 -45.709  0.00  0.00    +0.000 S 
ENDBRANCH   4   7
BRANCH   1  16
ATOM     16  C1  UNL     1      28.898  -7.513 -39.311  0.00  0.00    +0.000 C 
ATOM     17  N1  UNL     1      28.731  -8.487 -38.467  0.00  0.00    +0.000 NA
BRANCH  16  18
ATOM     18  O1  UNL     1      29.849  -6.515 -39.074  0.00  0.00    +0.000 OA
ATOM     19  H1  UNL     1      29.807  -5.899 -38.273  0.00  0.00    +0.000 HD
ENDBRANCH  16  18
BRANCH  17  20
ATOM     20  N2  UNL     1      29.484  -8.592 -37.290  0.00  0.00    +0.000 NA
ATOM     21  C2  UNL     1      29.067  -9.317 -36.301  0.00  0.00    +0.000 C 
BRANCH  21  22
ATOM     22  C3  UNL     1      29.853  -9.433 -35.057  0.00  0.00    +0.000 A 
ATOM     23  C4  UNL     1      31.256  -9.438 -35.126  0.00  0.00    +0.000 A 
ATOM     24  C5  UNL     1      32.022  -9.549 -33.960  0.00  0.00    +0.000 A 
ATOM     25  C6  UNL     1      31.393  -9.655 -32.716  0.00  0.00    +0.000 A 
ATOM     26 CL1  UNL     1      32.355  -9.793 -31.256  0.00  0.00    +0.000 Cl
ATOM     27  C7  UNL     1      29.997  -9.652 -32.637  0.00  0.00    +0.000 A 
ATOM     28  C8  UNL     1      29.229  -9.542 -33.800  0.00  0.00    +0.000 A 
ENDBRANCH  21  22
ENDBRANCH  17  20
ENDBRANCH   1  16
TORSDOF 5
ENDMDL
