MODEL 1
REMARK VINA RESULT:    -6.539      0.000      0.000
REMARK INTER + INTRA:          -8.861
REMARK INTER:                  -8.069
REMARK INTRA:                  -0.792
REMARK UNBOUND:                -0.792
REMARK  Name = resultss/4CJN/ligands/lig_261_t2.pdb
REMARK  7 active torsions:
REMARK  status: ('A' for Active; 'I' for Inactive)
REMARK    1  A    between atoms: C1_1  and  C2_2
REMARK    2  A    between atoms: C2_2  and  C3_3
REMARK    3  A    between atoms: C4_4  and  C5_5
REMARK    4  A    between atoms: C5_5  and  C6_6
REMARK    5  A    between atoms: C7_7  and  O1_8
REMARK    6  A    between atoms: C12_14  and  C13_15
REMARK    7  A    between atoms: C20_23  and  O4_24
REMARK                            x       y       z     vdW  Elec       q    Type
REMARK                         _______ _______ _______ _____ _____    ______ ____
ROOT
ATOM      1  C6  UNL     1      28.826 -10.283 -37.994  0.00  0.00    +0.000 A 
ATOM      2  C7  UNL     1      30.203 -10.017 -38.197  0.00  0.00    +0.000 A 
ATOM      3  C8  UNL     1      31.016  -9.606 -37.110  0.00  0.00    +0.000 A 
ATOM      4  C9  UNL     1      30.470  -9.441 -35.826  0.00  0.00    +0.000 A 
ATOM      5  C10 UNL     1      29.110  -9.690 -35.665  0.00  0.00    +0.000 A 
ATOM      6  C11 UNL     1      28.316 -10.093 -36.706  0.00  0.00    +0.000 A 
ATOM      7  O2  UNL     1      27.074 -10.249 -36.306  0.00  0.00    +0.000 OA
ATOM      8  C12 UNL     1      27.016  -9.949 -35.021  0.00  0.00    +0.000 A 
ATOM      9  C20 UNL     1      28.282  -9.600 -34.570  0.00  0.00    +0.000 A 
ENDROOT
BRANCH   8  10
ATOM     10  C13 UNL     1      25.804 -10.019 -34.180  0.00  0.00    +0.000 C 
ATOM     11  C14 UNL     1      25.079  -8.966 -33.753  0.00  0.00    +0.000 C 
ATOM     12  C15 UNL     1      23.820  -9.229 -33.009  0.00  0.00    +0.000 C 
ATOM     13  C16 UNL     1      23.043  -8.224 -32.593  0.00  0.00    +0.000 C 
ATOM     14  C17 UNL     1      23.436  -6.829 -32.849  0.00  0.00    +0.000 C 
ATOM     15  O3  UNL     1      22.695  -5.883 -32.471  0.00  0.00    +0.000 OA
ATOM     16  C18 UNL     1      24.705  -6.545 -33.537  0.00  0.00    +0.000 C 
ATOM     17  C19 UNL     1      25.487  -7.545 -33.958  0.00  0.00    +0.000 C 
ENDBRANCH   8  10
BRANCH   2  18
ATOM     18  O1  UNL     1      30.763 -10.157 -39.467  0.00  0.00    +0.000 OA
ATOM     19  H10 UNL     1      31.498 -10.829 -39.651  0.00  0.00    +0.000 HD
ENDBRANCH   2  18
BRANCH   9  20
ATOM     20  O4  UNL     1      28.630  -9.229 -33.275  0.00  0.00    +0.000 OA
ATOM     21  H18 UNL     1      29.217  -8.423 -33.099  0.00  0.00    +0.000 HD
ENDBRANCH   9  20
BRANCH   1  22
ATOM     22  C5  UNL     1      27.911 -10.688 -39.121  0.00  0.00    +0.000 C 
BRANCH  22  26
ATOM     23  C1  UNL     1      28.361 -10.075 -41.986  0.00  0.00    +0.000 C 
ATOM     24  C2  UNL     1      27.506  -9.198 -41.105  0.00  0.00    +0.000 C 
ATOM     25  C3  UNL     1      26.897  -7.957 -41.705  0.00  0.00    +0.000 C 
ATOM     26  C4  UNL     1      27.324  -9.472 -39.796  0.00  0.00    +0.000 C 
ENDBRANCH  22  26
ENDBRANCH   1  22
TORSDOF 5
ENDMDL
MODEL 2
REMARK VINA RESULT:    -6.369      2.484      5.177
REMARK INTER + INTRA:          -8.651
REMARK INTER:                  -7.988
REMARK INTRA:                  -0.662
REMARK UNBOUND:                -0.792
REMARK  Name = resultss/4CJN/ligands/lig_261_t2.pdb
REMARK  7 active torsions:
REMARK  status: ('A' for Active; 'I' for Inactive)
REMARK    1  A    between atoms: C1_1  and  C2_2
REMARK    2  A    between atoms: C2_2  and  C3_3
REMARK    3  A    between atoms: C4_4  and  C5_5
REMARK    4  A    between atoms: C5_5  and  C6_6
REMARK    5  A    between atoms: C7_7  and  O1_8
REMARK    6  A    between atoms: C12_14  and  C13_15
REMARK    7  A    between atoms: C20_23  and  O4_24
REMARK                            x       y       z     vdW  Elec       q    Type
REMARK                         _______ _______ _______ _____ _____    ______ ____
ROOT
ATOM      1  C6  UNL     1      31.071  -9.387 -34.656  0.00  0.00    +0.000 A 
ATOM      2  C7  UNL     1      31.996  -9.404 -35.730  0.00  0.00    +0.000 A 
ATOM      3  C8  UNL     1      31.539  -9.588 -37.059  0.00  0.00    +0.000 A 
ATOM      4  C9  UNL     1      30.173  -9.772 -37.332  0.00  0.00    +0.000 A 
ATOM      5  C10 UNL     1      29.293  -9.772 -36.253  0.00  0.00    +0.000 A 
ATOM      6  C11 UNL     1      29.722  -9.589 -34.964  0.00  0.00    +0.000 A 
ATOM      7  O2  UNL     1      28.710  -9.643 -34.128  0.00  0.00    +0.000 OA
ATOM      8  C12 UNL     1      27.612  -9.867 -34.828  0.00  0.00    +0.000 A 
ATOM      9  C20 UNL     1      27.931  -9.946 -36.176  0.00  0.00    +0.000 A 
ENDROOT
BRANCH   8  10
ATOM     10  C13 UNL     1      26.249  -9.972 -34.270  0.00  0.00    +0.000 C 
ATOM     11  C14 UNL     1      25.503  -8.948 -33.811  0.00  0.00    +0.000 C 
ATOM     12  C15 UNL     1      24.104  -9.222 -33.391  0.00  0.00    +0.000 C 
ATOM     13  C16 UNL     1      23.308  -8.239 -32.962  0.00  0.00    +0.000 C 
ATOM     14  C17 UNL     1      23.814  -6.858 -32.879  0.00  0.00    +0.000 C 
ATOM     15  O3  UNL     1      23.057  -5.930 -32.491  0.00  0.00    +0.000 OA
ATOM     16  C18 UNL     1      25.211  -6.573 -33.240  0.00  0.00    +0.000 C 
ATOM     17  C19 UNL     1      26.013  -7.552 -33.672  0.00  0.00    +0.000 C 
ENDBRANCH   8  10
BRANCH   2  18
ATOM     18  O1  UNL     1      33.359  -9.242 -35.482  0.00  0.00    +0.000 OA
ATOM     19  H10 UNL     1      33.698  -8.892 -34.594  0.00  0.00    +0.000 HD
ENDBRANCH   2  18
BRANCH   9  20
ATOM     20  O4  UNL     1      27.046 -10.164 -37.228  0.00  0.00    +0.000 OA
ATOM     21  H18 UNL     1      26.593 -11.061 -37.356  0.00  0.00    +0.000 HD
ENDBRANCH   9  20
BRANCH   1  22
ATOM     22  C5  UNL     1      31.507  -9.231 -33.222  0.00  0.00    +0.000 C 
BRANCH  22  26
ATOM     23  C1  UNL     1      33.266  -9.801 -30.906  0.00  0.00    +0.000 C 
ATOM     24  C2  UNL     1      32.305 -10.827 -31.450  0.00  0.00    +0.000 C 
ATOM     25  C3  UNL     1      32.273 -12.190 -30.809  0.00  0.00    +0.000 C 
ATOM     26  C4  UNL     1      31.522 -10.567 -32.519  0.00  0.00    +0.000 C 
ENDBRANCH  22  26
ENDBRANCH   1  22
TORSDOF 5
ENDMDL
MODEL 3
REMARK VINA RESULT:    -6.045      1.810      6.574
REMARK INTER + INTRA:          -8.251
REMARK INTER:                  -7.515
REMARK INTRA:                  -0.736
REMARK UNBOUND:                -0.792
REMARK  Name = resultss/4CJN/ligands/lig_261_t2.pdb
REMARK  7 active torsions:
REMARK  status: ('A' for Active; 'I' for Inactive)
REMARK    1  A    between atoms: C1_1  and  C2_2
REMARK    2  A    between atoms: C2_2  and  C3_3
REMARK    3  A    between atoms: C4_4  and  C5_5
REMARK    4  A    between atoms: C5_5  and  C6_6
REMARK    5  A    between atoms: C7_7  and  O1_8
REMARK    6  A    between atoms: C12_14  and  C13_15
REMARK    7  A    between atoms: C20_23  and  O4_24
REMARK                            x       y       z     vdW  Elec       q    Type
REMARK                         _______ _______ _______ _____ _____    ______ ____
ROOT
ATOM      1  C6  UNL     1      27.923  -9.728 -34.928  0.00  0.00    +0.000 A 
ATOM      2  C7  UNL     1      29.046  -9.531 -34.086  0.00  0.00    +0.000 A 
ATOM      3  C8  UNL     1      30.354  -9.515 -34.635  0.00  0.00    +0.000 A 
ATOM      4  C9  UNL     1      30.558  -9.709 -36.012  0.00  0.00    +0.000 A 
ATOM      5  C10 UNL     1      29.436  -9.921 -36.808  0.00  0.00    +0.000 A 
ATOM      6  C11 UNL     1      28.168  -9.933 -36.290  0.00  0.00    +0.000 A 
ATOM      7  O2  UNL     1      27.285 -10.165 -37.235  0.00  0.00    +0.000 OA
ATOM      8  C12 UNL     1      27.934 -10.318 -38.375  0.00  0.00    +0.000 A 
ATOM      9  C20 UNL     1      29.296 -10.163 -38.155  0.00  0.00    +0.000 A 
ENDROOT
BRANCH   8  10
ATOM     10  C13 UNL     1      27.309 -10.570 -39.689  0.00  0.00    +0.000 C 
ATOM     11  C14 UNL     1      26.759  -9.639 -40.492  0.00  0.00    +0.000 C 
ATOM     12  C15 UNL     1      26.279 -10.056 -41.835  0.00  0.00    +0.000 C 
ATOM     13  C16 UNL     1      25.758  -9.168 -42.687  0.00  0.00    +0.000 C 
ATOM     14  C17 UNL     1      25.632  -7.753 -42.299  0.00  0.00    +0.000 C 
ATOM     15  O3  UNL     1      25.158  -6.915 -43.109  0.00  0.00    +0.000 OA
ATOM     16  C18 UNL     1      26.054  -7.328 -40.955  0.00  0.00    +0.000 C 
ATOM     17  C19 UNL     1      26.578  -8.211 -40.098  0.00  0.00    +0.000 C 
ENDBRANCH   8  10
BRANCH   2  18
ATOM     18  O1  UNL     1      28.869  -9.354 -32.714  0.00  0.00    +0.000 OA
ATOM     19  H10 UNL     1      27.950  -9.390 -32.290  0.00  0.00    +0.000 HD
ENDBRANCH   2  18
BRANCH   9  20
ATOM     20  O4  UNL     1      30.307 -10.244 -39.109  0.00  0.00    +0.000 OA
ATOM     21  H18 UNL     1      31.063 -10.911 -39.017  0.00  0.00    +0.000 HD
ENDBRANCH   9  20
BRANCH   1  22
ATOM     22  C5  UNL     1      26.517  -9.789 -34.391  0.00  0.00    +0.000 C 
BRANCH  22  26
ATOM     23  C1  UNL     1      23.940  -9.245 -33.033  0.00  0.00    +0.000 C 
ATOM     24  C2  UNL     1      24.752  -8.148 -33.674  0.00  0.00    +0.000 C 
ATOM     25  C3  UNL     1      24.209  -6.743 -33.646  0.00  0.00    +0.000 C 
ATOM     26  C4  UNL     1      25.915  -8.407 -34.310  0.00  0.00    +0.000 C 
ENDBRANCH  22  26
ENDBRANCH   1  22
TORSDOF 5
ENDMDL
MODEL 4
REMARK VINA RESULT:    -6.017      5.075      8.872
REMARK INTER + INTRA:          -8.216
REMARK INTER:                  -7.500
REMARK INTRA:                  -0.716
REMARK UNBOUND:                -0.792
REMARK  Name = resultss/4CJN/ligands/lig_261_t2.pdb
REMARK  7 active torsions:
REMARK  status: ('A' for Active; 'I' for Inactive)
REMARK    1  A    between atoms: C1_1  and  C2_2
REMARK    2  A    between atoms: C2_2  and  C3_3
REMARK    3  A    between atoms: C4_4  and  C5_5
REMARK    4  A    between atoms: C5_5  and  C6_6
REMARK    5  A    between atoms: C7_7  and  O1_8
REMARK    6  A    between atoms: C12_14  and  C13_15
REMARK    7  A    between atoms: C20_23  and  O4_24
REMARK                            x       y       z     vdW  Elec       q    Type
REMARK                         _______ _______ _______ _____ _____    ______ ____
ROOT
ATOM      1  C6  UNL     1      29.165  -9.836 -40.926  0.00  0.00    +0.000 A 
ATOM      2  C7  UNL     1      29.762  -9.563 -39.669  0.00  0.00    +0.000 A 
ATOM      3  C8  UNL     1      29.320  -8.460 -38.896  0.00  0.00    +0.000 A 
ATOM      4  C9  UNL     1      28.300  -7.614 -39.366  0.00  0.00    +0.000 A 
ATOM      5  C10 UNL     1      27.750  -7.897 -40.613  0.00  0.00    +0.000 A 
ATOM      6  C11 UNL     1      28.165  -8.963 -41.367  0.00  0.00    +0.000 A 
ATOM      7  O2  UNL     1      27.507  -9.010 -42.503  0.00  0.00    +0.000 OA
ATOM      8  C12 UNL     1      26.666  -7.992 -42.532  0.00  0.00    +0.000 A 
ATOM      9  C20 UNL     1      26.777  -7.266 -41.354  0.00  0.00    +0.000 A 
ENDROOT
BRANCH   8  10
ATOM     10  C13 UNL     1      25.719  -7.695 -43.626  0.00  0.00    +0.000 C 
ATOM     11  C14 UNL     1      26.051  -7.416 -44.902  0.00  0.00    +0.000 C 
ATOM     12  C15 UNL     1      24.960  -7.256 -45.899  0.00  0.00    +0.000 C 
ATOM     13  C16 UNL     1      25.232  -7.015 -47.184  0.00  0.00    +0.000 C 
ATOM     14  C17 UNL     1      26.627  -6.883 -47.635  0.00  0.00    +0.000 C 
ATOM     15  O3  UNL     1      26.883  -6.673 -48.850  0.00  0.00    +0.000 OA
ATOM     16  C18 UNL     1      27.721  -6.986 -46.656  0.00  0.00    +0.000 C 
ATOM     17  C19 UNL     1      27.457  -7.229 -45.368  0.00  0.00    +0.000 C 
ENDBRANCH   8  10
BRANCH   2  18
ATOM     18  O1  UNL     1      30.787 -10.378 -39.191  0.00  0.00    +0.000 OA
ATOM     19  H10 UNL     1      30.624 -11.062 -38.462  0.00  0.00    +0.000 HD
ENDBRANCH   2  18
BRANCH   9  20
ATOM     20  O4  UNL     1      26.053  -6.130 -41.005  0.00  0.00    +0.000 OA
ATOM     21  H18 UNL     1      25.330  -5.763 -41.612  0.00  0.00    +0.000 HD
ENDBRANCH   9  20
BRANCH   1  22
ATOM     22  C5  UNL     1      29.622 -10.973 -41.803  0.00  0.00    +0.000 C 
BRANCH  22  26
ATOM     23  C1  UNL     1      31.518 -12.820 -43.135  0.00  0.00    +0.000 C 
ATOM     24  C2  UNL     1      31.511 -11.340 -43.420  0.00  0.00    +0.000 C 
ATOM     25  C3  UNL     1      32.528 -10.791 -44.389  0.00  0.00    +0.000 C 
ATOM     26  C4  UNL     1      30.659 -10.501 -42.793  0.00  0.00    +0.000 C 
ENDBRANCH  22  26
ENDBRANCH   1  22
TORSDOF 5
ENDMDL
MODEL 5
REMARK VINA RESULT:    -6.013      2.082      4.370
REMARK INTER + INTRA:          -8.211
REMARK INTER:                  -7.161
REMARK INTRA:                  -1.049
REMARK UNBOUND:                -0.792
REMARK  Name = resultss/4CJN/ligands/lig_261_t2.pdb
REMARK  7 active torsions:
REMARK  status: ('A' for Active; 'I' for Inactive)
REMARK    1  A    between atoms: C1_1  and  C2_2
REMARK    2  A    between atoms: C2_2  and  C3_3
REMARK    3  A    between atoms: C4_4  and  C5_5
REMARK    4  A    between atoms: C5_5  and  C6_6
REMARK    5  A    between atoms: C7_7  and  O1_8
REMARK    6  A    between atoms: C12_14  and  C13_15
REMARK    7  A    between atoms: C20_23  and  O4_24
REMARK                            x       y       z     vdW  Elec       q    Type
REMARK                         _______ _______ _______ _____ _____    ______ ____
ROOT
ATOM      1  C6  UNL     1      28.717  -9.227 -38.734  0.00  0.00    +0.000 A 
ATOM      2  C7  UNL     1      29.278 -10.037 -39.753  0.00  0.00    +0.000 A 
ATOM      3  C8  UNL     1      28.453 -10.570 -40.775  0.00  0.00    +0.000 A 
ATOM      4  C9  UNL     1      27.070 -10.319 -40.786  0.00  0.00    +0.000 A 
ATOM      5  C10 UNL     1      26.546  -9.538 -39.760  0.00  0.00    +0.000 A 
ATOM      6  C11 UNL     1      27.335  -9.013 -38.771  0.00  0.00    +0.000 A 
ATOM      7  O2  UNL     1      26.610  -8.327 -37.916  0.00  0.00    +0.000 OA
ATOM      8  C12 UNL     1      25.349  -8.389 -38.307  0.00  0.00    +0.000 A 
ATOM      9  C20 UNL     1      25.262  -9.136 -39.474  0.00  0.00    +0.000 A 
ENDROOT
BRANCH   8  10
ATOM     10  C13 UNL     1      24.212  -7.729 -37.634  0.00  0.00    +0.000 C 
ATOM     11  C14 UNL     1      23.968  -7.735 -36.309  0.00  0.00    +0.000 C 
ATOM     12  C15 UNL     1      22.838  -6.919 -35.793  0.00  0.00    +0.000 C 
ATOM     13  C16 UNL     1      22.573  -6.859 -34.485  0.00  0.00    +0.000 C 
ATOM     14  C17 UNL     1      23.389  -7.623 -33.527  0.00  0.00    +0.000 C 
ATOM     15  O3  UNL     1      23.148  -7.553 -32.293  0.00  0.00    +0.000 OA
ATOM     16  C18 UNL     1      24.479  -8.479 -34.021  0.00  0.00    +0.000 C 
ATOM     17  C19 UNL     1      24.752  -8.542 -35.329  0.00  0.00    +0.000 C 
ENDBRANCH   8  10
BRANCH   2  18
ATOM     18  O1  UNL     1      30.645 -10.314 -39.751  0.00  0.00    +0.000 OA
ATOM     19  H10 UNL     1      31.083 -10.816 -38.989  0.00  0.00    +0.000 HD
ENDBRANCH   2  18
BRANCH   9  20
ATOM     20  O4  UNL     1      24.107  -9.419 -40.195  0.00  0.00    +0.000 OA
ATOM     21  H18 UNL     1      23.300  -8.807 -40.156  0.00  0.00    +0.000 HD
ENDBRANCH   9  20
BRANCH   1  22
ATOM     22  C5  UNL     1      29.543  -8.667 -37.606  0.00  0.00    +0.000 C 
BRANCH  22  26
ATOM     23  C1  UNL     1      28.353  -7.613 -35.104  0.00  0.00    +0.000 C 
ATOM     24  C2  UNL     1      28.826  -9.040 -35.225  0.00  0.00    +0.000 C 
ATOM     25  C3  UNL     1      28.716  -9.936 -34.018  0.00  0.00    +0.000 C 
ATOM     26  C4  UNL     1      29.387  -9.506 -36.361  0.00  0.00    +0.000 C 
ENDBRANCH  22  26
ENDBRANCH   1  22
TORSDOF 5
ENDMDL
MODEL 6
REMARK VINA RESULT:    -5.900      4.569      9.167
REMARK INTER + INTRA:          -8.072
REMARK INTER:                  -7.310
REMARK INTRA:                  -0.762
REMARK UNBOUND:                -0.792
REMARK  Name = resultss/4CJN/ligands/lig_261_t2.pdb
REMARK  7 active torsions:
REMARK  status: ('A' for Active; 'I' for Inactive)
REMARK    1  A    between atoms: C1_1  and  C2_2
REMARK    2  A    between atoms: C2_2  and  C3_3
REMARK    3  A    between atoms: C4_4  and  C5_5
REMARK    4  A    between atoms: C5_5  and  C6_6
REMARK    5  A    between atoms: C7_7  and  O1_8
REMARK    6  A    between atoms: C12_14  and  C13_15
REMARK    7  A    between atoms: C20_23  and  O4_24
REMARK                            x       y       z     vdW  Elec       q    Type
REMARK                         _______ _______ _______ _____ _____    ______ ____
ROOT
ATOM      1  C6  UNL     1      26.788  -9.625 -41.385  0.00  0.00    +0.000 A 
ATOM      2  C7  UNL     1      25.876  -9.640 -40.299  0.00  0.00    +0.000 A 
ATOM      3  C8  UNL     1      26.353  -9.774 -38.971  0.00  0.00    +0.000 A 
ATOM      4  C9  UNL     1      27.727  -9.911 -38.710  0.00  0.00    +0.000 A 
ATOM      5  C10 UNL     1      28.594  -9.913 -39.799  0.00  0.00    +0.000 A 
ATOM      6  C11 UNL     1      28.145  -9.778 -41.087  0.00  0.00    +0.000 A 
ATOM      7  O2  UNL     1      29.149  -9.824 -41.933  0.00  0.00    +0.000 OA
ATOM      8  C12 UNL     1      30.261  -9.997 -41.241  0.00  0.00    +0.000 A 
ATOM      9  C20 UNL     1      29.960 -10.049 -39.887  0.00  0.00    +0.000 A 
ENDROOT
BRANCH   8  10
ATOM     10  C13 UNL     1      31.621 -10.077 -41.812  0.00  0.00    +0.000 C 
ATOM     11  C14 UNL     1      32.063 -11.020 -42.667  0.00  0.00    +0.000 C 
ATOM     12  C15 UNL     1      33.430 -10.879 -43.233  0.00  0.00    +0.000 C 
ATOM     13  C16 UNL     1      33.906 -11.765 -44.112  0.00  0.00    +0.000 C 
ATOM     14  C17 UNL     1      33.086 -12.916 -44.523  0.00  0.00    +0.000 C 
ATOM     15  O3  UNL     1      33.530 -13.741 -45.365  0.00  0.00    +0.000 OA
ATOM     16  C18 UNL     1      31.750 -13.104 -43.936  0.00  0.00    +0.000 C 
ATOM     17  C19 UNL     1      31.266 -12.220 -43.057  0.00  0.00    +0.000 C 
ENDBRANCH   8  10
BRANCH   2  18
ATOM     18  O1  UNL     1      24.506  -9.525 -40.536  0.00  0.00    +0.000 OA
ATOM     19  H10 UNL     1      23.840  -9.470 -39.775  0.00  0.00    +0.000 HD
ENDBRANCH   2  18
BRANCH   9  20
ATOM     20  O4  UNL     1      30.863 -10.212 -38.840  0.00  0.00    +0.000 OA
ATOM     21  H18 UNL     1      30.706 -10.901 -38.115  0.00  0.00    +0.000 HD
ENDBRANCH   9  20
BRANCH   1  22
ATOM     22  C5  UNL     1      26.331  -9.521 -42.817  0.00  0.00    +0.000 C 
BRANCH  22  26
ATOM     23  C1  UNL     1      28.067  -7.760 -44.450  0.00  0.00    +0.000 C 
ATOM     24  C2  UNL     1      26.734  -7.297 -43.919  0.00  0.00    +0.000 C 
ATOM     25  C3  UNL     1      26.299  -5.883 -44.206  0.00  0.00    +0.000 C 
ATOM     26  C4  UNL     1      25.958  -8.098 -43.157  0.00  0.00    +0.000 C 
ENDBRANCH  22  26
ENDBRANCH   1  22
TORSDOF 5
ENDMDL
MODEL 7
REMARK VINA RESULT:    -5.843      2.361      6.016
REMARK INTER + INTRA:          -8.002
REMARK INTER:                  -7.080
REMARK INTRA:                  -0.922
REMARK UNBOUND:                -0.792
REMARK  Name = resultss/4CJN/ligands/lig_261_t2.pdb
REMARK  7 active torsions:
REMARK  status: ('A' for Active; 'I' for Inactive)
REMARK    1  A    between atoms: C1_1  and  C2_2
REMARK    2  A    between atoms: C2_2  and  C3_3
REMARK    3  A    between atoms: C4_4  and  C5_5
REMARK    4  A    between atoms: C5_5  and  C6_6
REMARK    5  A    between atoms: C7_7  and  O1_8
REMARK    6  A    between atoms: C12_14  and  C13_15
REMARK    7  A    between atoms: C20_23  and  O4_24
REMARK                            x       y       z     vdW  Elec       q    Type
REMARK                         _______ _______ _______ _____ _____    ______ ____
ROOT
ATOM      1  C6  UNL     1      25.592  -8.707 -39.357  0.00  0.00    +0.000 A 
ATOM      2  C7  UNL     1      24.953  -9.154 -40.541  0.00  0.00    +0.000 A 
ATOM      3  C8  UNL     1      25.657  -9.966 -41.466  0.00  0.00    +0.000 A 
ATOM      4  C9  UNL     1      26.996 -10.325 -41.235  0.00  0.00    +0.000 A 
ATOM      5  C10 UNL     1      27.600  -9.853 -40.073  0.00  0.00    +0.000 A 
ATOM      6  C11 UNL     1      26.929  -9.073 -39.169  0.00  0.00    +0.000 A 
ATOM      7  O2  UNL     1      27.714  -8.745 -38.168  0.00  0.00    +0.000 OA
ATOM      8  C12 UNL     1      28.902  -9.280 -38.387  0.00  0.00    +0.000 A 
ATOM      9  C20 UNL     1      28.874  -9.998 -39.574  0.00  0.00    +0.000 A 
ENDROOT
BRANCH   8  10
ATOM     10  C13 UNL     1      30.068  -9.173 -37.486  0.00  0.00    +0.000 C 
ATOM     11  C14 UNL     1      30.057  -9.375 -36.154  0.00  0.00    +0.000 C 
ATOM     12  C15 UNL     1      31.349  -9.338 -35.421  0.00  0.00    +0.000 C 
ATOM     13  C16 UNL     1      31.402  -9.567 -34.106  0.00  0.00    +0.000 C 
ATOM     14  C17 UNL     1      30.168  -9.843 -33.351  0.00  0.00    +0.000 C 
ATOM     15  O3  UNL     1      30.222 -10.075 -32.115  0.00  0.00    +0.000 OA
ATOM     16  C18 UNL     1      28.872  -9.833 -34.048  0.00  0.00    +0.000 C 
ATOM     17  C19 UNL     1      28.812  -9.606 -35.364  0.00  0.00    +0.000 C 
ENDBRANCH   8  10
BRANCH   2  18
ATOM     18  O1  UNL     1      23.631  -8.795 -40.800  0.00  0.00    +0.000 OA
ATOM     19  H10 UNL     1      23.369  -7.834 -40.980  0.00  0.00    +0.000 HD
ENDBRANCH   2  18
BRANCH   9  20
ATOM     20  O4  UNL     1      29.927 -10.711 -40.140  0.00  0.00    +0.000 OA
ATOM     21  H18 UNL     1      30.192 -10.577 -41.108  0.00  0.00    +0.000 HD
ENDBRANCH   9  20
BRANCH   1  22
ATOM     22  C5  UNL     1      24.901  -7.814 -38.359  0.00  0.00    +0.000 C 
BRANCH  22  26
ATOM     23  C1  UNL     1      26.076  -6.737 -35.860  0.00  0.00    +0.000 C 
ATOM     24  C2  UNL     1      25.273  -8.014 -35.880  0.00  0.00    +0.000 C 
ATOM     25  C3  UNL     1      25.100  -8.773 -34.590  0.00  0.00    +0.000 C 
ATOM     26  C4  UNL     1      24.760  -8.510 -37.027  0.00  0.00    +0.000 C 
ENDBRANCH  22  26
ENDBRANCH   1  22
TORSDOF 5
ENDMDL
MODEL 8
REMARK VINA RESULT:    -5.700      2.146      6.911
REMARK INTER + INTRA:          -7.825
REMARK INTER:                  -7.006
REMARK INTRA:                  -0.819
REMARK UNBOUND:                -0.792
REMARK  Name = resultss/4CJN/ligands/lig_261_t2.pdb
REMARK  7 active torsions:
REMARK  status: ('A' for Active; 'I' for Inactive)
REMARK    1  A    between atoms: C1_1  and  C2_2
REMARK    2  A    between atoms: C2_2  and  C3_3
REMARK    3  A    between atoms: C4_4  and  C5_5
REMARK    4  A    between atoms: C5_5  and  C6_6
REMARK    5  A    between atoms: C7_7  and  O1_8
REMARK    6  A    between atoms: C12_14  and  C13_15
REMARK    7  A    between atoms: C20_23  and  O4_24
REMARK                            x       y       z     vdW  Elec       q    Type
REMARK                         _______ _______ _______ _____ _____    ______ ____
ROOT
ATOM      1  C6  UNL     1      27.172  -7.844 -34.883  0.00  0.00    +0.000 A 
ATOM      2  C7  UNL     1      27.541  -8.372 -33.621  0.00  0.00    +0.000 A 
ATOM      3  C8  UNL     1      28.571  -9.341 -33.528  0.00  0.00    +0.000 A 
ATOM      4  C9  UNL     1      29.230  -9.804 -34.680  0.00  0.00    +0.000 A 
ATOM      5  C10 UNL     1      28.830  -9.281 -35.907  0.00  0.00    +0.000 A 
ATOM      6  C11 UNL     1      27.839  -8.340 -36.008  0.00  0.00    +0.000 A 
ATOM      7  O2  UNL     1      27.636  -8.017 -37.265  0.00  0.00    +0.000 OA
ATOM      8  C12 UNL     1      28.463  -8.728 -38.010  0.00  0.00    +0.000 A 
ATOM      9  C20 UNL     1      29.244  -9.534 -37.194  0.00  0.00    +0.000 A 
ENDROOT
BRANCH   8  10
ATOM     10  C13 UNL     1      28.574  -8.647 -39.481  0.00  0.00    +0.000 C 
ATOM     11  C14 UNL     1      27.610  -8.973 -40.364  0.00  0.00    +0.000 C 
ATOM     12  C15 UNL     1      27.855  -8.718 -41.808  0.00  0.00    +0.000 C 
ATOM     13  C16 UNL     1      26.921  -8.989 -42.723  0.00  0.00    +0.000 C 
ATOM     14  C17 UNL     1      25.630  -9.566 -42.317  0.00  0.00    +0.000 C 
ATOM     15  O3  UNL     1      24.744  -9.804 -43.179  0.00  0.00    +0.000 OA
ATOM     16  C18 UNL     1      25.385  -9.875 -40.899  0.00  0.00    +0.000 C 
ATOM     17  C19 UNL     1      26.315  -9.605 -39.976  0.00  0.00    +0.000 C 
ENDBRANCH   8  10
BRANCH   2  18
ATOM     18  O1  UNL     1      26.889  -7.941 -32.466  0.00  0.00    +0.000 OA
ATOM     19  H10 UNL     1      26.090  -7.320 -32.508  0.00  0.00    +0.000 HD
ENDBRANCH   2  18
BRANCH   9  20
ATOM     20  O4  UNL     1      30.236 -10.419 -37.604  0.00  0.00    +0.000 OA
ATOM     21  H18 UNL     1      30.087 -11.421 -37.584  0.00  0.00    +0.000 HD
ENDBRANCH   9  20
BRANCH   1  22
ATOM     22  C5  UNL     1      26.060  -6.839 -35.041  0.00  0.00    +0.000 C 
BRANCH  22  26
ATOM     23  C1  UNL     1      23.788  -6.538 -33.162  0.00  0.00    +0.000 C 
ATOM     24  C2  UNL     1      23.689  -7.385 -34.405  0.00  0.00    +0.000 C 
ATOM     25  C3  UNL     1      22.402  -8.123 -34.670  0.00  0.00    +0.000 C 
ATOM     26  C4  UNL     1      24.736  -7.535 -35.245  0.00  0.00    +0.000 C 
ENDBRANCH  22  26
ENDBRANCH   1  22
TORSDOF 5
ENDMDL
MODEL 9
REMARK VINA RESULT:    -5.618      2.007      7.456
REMARK INTER + INTRA:          -7.724
REMARK INTER:                  -6.875
REMARK INTRA:                  -0.849
REMARK UNBOUND:                -0.792
REMARK  Name = resultss/4CJN/ligands/lig_261_t2.pdb
REMARK  7 active torsions:
REMARK  status: ('A' for Active; 'I' for Inactive)
REMARK    1  A    between atoms: C1_1  and  C2_2
REMARK    2  A    between atoms: C2_2  and  C3_3
REMARK    3  A    between atoms: C4_4  and  C5_5
REMARK    4  A    between atoms: C5_5  and  C6_6
REMARK    5  A    between atoms: C7_7  and  O1_8
REMARK    6  A    between atoms: C12_14  and  C13_15
REMARK    7  A    between atoms: C20_23  and  O4_24
REMARK                            x       y       z     vdW  Elec       q    Type
REMARK                         _______ _______ _______ _____ _____    ______ ____
ROOT
ATOM      1  C6  UNL     1      26.436  -9.308 -34.980  0.00  0.00    +0.000 A 
ATOM      2  C7  UNL     1      25.499  -8.567 -34.217  0.00  0.00    +0.000 A 
ATOM      3  C8  UNL     1      24.433  -7.891 -34.862  0.00  0.00    +0.000 A 
ATOM      4  C9  UNL     1      24.297  -7.930 -36.260  0.00  0.00    +0.000 A 
ATOM      5  C10 UNL     1      25.246  -8.649 -36.982  0.00  0.00    +0.000 A 
ATOM      6  C11 UNL     1      26.277  -9.311 -36.369  0.00  0.00    +0.000 A 
ATOM      7  O2  UNL     1      27.042  -9.900 -37.260  0.00  0.00    +0.000 OA
ATOM      8  C12 UNL     1      26.551  -9.640 -38.459  0.00  0.00    +0.000 A 
ATOM      9  C20 UNL     1      25.410  -8.860 -38.331  0.00  0.00    +0.000 A 
ENDROOT
BRANCH   8  10
ATOM     10  C13 UNL     1      27.101 -10.137 -39.735  0.00  0.00    +0.000 C 
ATOM     11  C14 UNL     1      28.383 -10.031 -40.136  0.00  0.00    +0.000 C 
ATOM     12  C15 UNL     1      28.787 -10.694 -41.404  0.00  0.00    +0.000 C 
ATOM     13  C16 UNL     1      30.051 -10.652 -41.832  0.00  0.00    +0.000 C 
ATOM     14  C17 UNL     1      31.072  -9.926 -41.058  0.00  0.00    +0.000 C 
ATOM     15  O3  UNL     1      32.267  -9.901 -41.453  0.00  0.00    +0.000 OA
ATOM     16  C18 UNL     1      30.684  -9.219 -39.827  0.00  0.00    +0.000 C 
ATOM     17  C19 UNL     1      29.420  -9.258 -39.392  0.00  0.00    +0.000 C 
ENDBRANCH   8  10
BRANCH   2  18
ATOM     18  O1  UNL     1      25.624  -8.499 -32.830  0.00  0.00    +0.000 OA
ATOM     19  H10 UNL     1      24.852  -8.212 -32.242  0.00  0.00    +0.000 HD
ENDBRANCH   2  18
BRANCH   9  20
ATOM     20  O4  UNL     1      24.606  -8.388 -39.365  0.00  0.00    +0.000 OA
ATOM     21  H18 UNL     1      23.890  -7.691 -39.196  0.00  0.00    +0.000 HD
ENDBRANCH   9  20
BRANCH   1  22
ATOM     22  C5  UNL     1      27.607 -10.015 -34.348  0.00  0.00    +0.000 C 
BRANCH  22  26
ATOM     23  C1  UNL     1      30.163  -9.636 -35.799  0.00  0.00    +0.000 C 
ATOM     24  C2  UNL     1      29.813  -8.829 -34.575  0.00  0.00    +0.000 C 
ATOM     25  C3  UNL     1      30.816  -7.827 -34.065  0.00  0.00    +0.000 C 
ATOM     26  C4  UNL     1      28.656  -9.022 -33.906  0.00  0.00    +0.000 C 
ENDBRANCH  22  26
ENDBRANCH   1  22
TORSDOF 5
ENDMDL
