MODEL 1
REMARK VINA RESULT:    -5.384      0.000      0.000
REMARK INTER + INTRA:          -5.698
REMARK INTER:                  -5.698
REMARK INTRA:                   0.000
REMARK UNBOUND:                 0.000
REMARK  Name = resultss/4CJN/ligands/lig_290_t2.pdb
REMARK  2 active torsions:
REMARK  status: ('A' for Active; 'I' for Inactive)
REMARK    1  A    between atoms: C4_5  and  O2_6
REMARK    2  A    between atoms: C10_13  and  O4_14
REMARK                            x       y       z     vdW  Elec       q    Type
REMARK                         _______ _______ _______ _____ _____    ______ ____
ROOT
ATOM      1  O1  UNL     1      27.750  -8.834 -33.466  0.00  0.00    +0.000 OA
ATOM      2  C1  UNL     1      27.062  -8.835 -34.524  0.00  0.00    +0.000 A 
ATOM      3  C2  UNL     1      25.719  -8.424 -34.490  0.00  0.00    +0.000 A 
ATOM      4  C3  UNL     1      25.092  -8.002 -33.301  0.00  0.00    +0.000 A 
ATOM      5  C4  UNL     1      23.751  -7.602 -33.315  0.00  0.00    +0.000 A 
ATOM      6  C5  UNL     1      23.029  -7.621 -34.515  0.00  0.00    +0.000 A 
ATOM      7  C6  UNL     1      23.642  -8.037 -35.699  0.00  0.00    +0.000 A 
ATOM      8  C7  UNL     1      24.982  -8.440 -35.694  0.00  0.00    +0.000 A 
ATOM      9  O3  UNL     1      25.552  -8.833 -36.825  0.00  0.00    +0.000 OA
ATOM     10  C8  UNL     1      26.820  -9.229 -36.901  0.00  0.00    +0.000 A 
ATOM     11  C9  UNL     1      27.346  -9.652 -38.250  0.00  0.00    +0.000 C 
ATOM     12  C10 UNL     1      28.793 -10.092 -38.272  0.00  0.00    +0.000 C 
ATOM     13  C11 UNL     1      29.557 -10.106 -37.177  0.00  0.00    +0.000 C 
ATOM     14  C12 UNL     1      29.035  -9.692 -35.869  0.00  0.00    +0.000 C 
ATOM     15  O5  UNL     1      29.799  -9.725 -34.868  0.00  0.00    +0.000 OA
ATOM     16  C13 UNL     1      27.629  -9.246 -35.748  0.00  0.00    +0.000 A 
ENDROOT
BRANCH   5  17
ATOM     17  O2  UNL     1      23.148  -7.188 -32.130  0.00  0.00    +0.000 OA
ATOM     18  H2  UNL     1      22.615  -7.831 -31.555  0.00  0.00    +0.000 HD
ENDBRANCH   5  17
BRANCH  12  19
ATOM     19  O4  UNL     1      29.353 -10.497 -39.480  0.00  0.00    +0.000 OA
ATOM     20  H7  UNL     1      29.662  -9.821 -40.169  0.00  0.00    +0.000 HD
ENDBRANCH  12  19
TORSDOF 2
ENDMDL
MODEL 2
REMARK VINA RESULT:    -5.253      1.593      6.191
REMARK INTER + INTRA:          -5.560
REMARK INTER:                  -5.560
REMARK INTRA:                   0.000
REMARK UNBOUND:                 0.000
REMARK  Name = resultss/4CJN/ligands/lig_290_t2.pdb
REMARK  2 active torsions:
REMARK  status: ('A' for Active; 'I' for Inactive)
REMARK    1  A    between atoms: C4_5  and  O2_6
REMARK    2  A    between atoms: C10_13  and  O4_14
REMARK                            x       y       z     vdW  Elec       q    Type
REMARK                         _______ _______ _______ _____ _____    ______ ____
ROOT
ATOM      1  O1  UNL     1      24.429  -7.494 -38.114  0.00  0.00    +0.000 OA
ATOM      2  C1  UNL     1      25.092  -8.206 -37.311  0.00  0.00    +0.000 A 
ATOM      3  C2  UNL     1      26.284  -8.819 -37.731  0.00  0.00    +0.000 A 
ATOM      4  C3  UNL     1      26.784  -8.670 -39.039  0.00  0.00    +0.000 A 
ATOM      5  C4  UNL     1      27.976  -9.300 -39.414  0.00  0.00    +0.000 A 
ATOM      6  C5  UNL     1      28.676 -10.081 -38.486  0.00  0.00    +0.000 A 
ATOM      7  C6  UNL     1      28.188 -10.234 -37.186  0.00  0.00    +0.000 A 
ATOM      8  C7  UNL     1      26.997  -9.609 -36.803  0.00  0.00    +0.000 A 
ATOM      9  O3  UNL     1      26.544  -9.762 -35.565  0.00  0.00    +0.000 OA
ATOM     10  C8  UNL     1      25.421  -9.200 -35.127  0.00  0.00    +0.000 A 
ATOM     11  C9  UNL     1      25.019  -9.454 -33.695  0.00  0.00    +0.000 C 
ATOM     12  C10 UNL     1      23.734  -8.789 -33.256  0.00  0.00    +0.000 C 
ATOM     13  C11 UNL     1      23.003  -8.027 -34.073  0.00  0.00    +0.000 C 
ATOM     14  C12 UNL     1      23.403  -7.785 -35.464  0.00  0.00    +0.000 C 
ATOM     15  O5  UNL     1      22.676  -7.059 -36.192  0.00  0.00    +0.000 OA
ATOM     16  C13 UNL     1      24.647  -8.395 -35.986  0.00  0.00    +0.000 A 
ENDROOT
BRANCH   5  17
ATOM     17  O2  UNL     1      28.456  -9.142 -40.713  0.00  0.00    +0.000 OA
ATOM     18  H2  UNL     1      28.370  -8.260 -41.205  0.00  0.00    +0.000 HD
ENDBRANCH   5  17
BRANCH  12  19
ATOM     19  O4  UNL     1      23.294  -8.975 -31.948  0.00  0.00    +0.000 OA
ATOM     20  H7  UNL     1      22.309  -8.920 -31.713  0.00  0.00    +0.000 HD
ENDBRANCH  12  19
TORSDOF 2
ENDMDL
MODEL 3
REMARK VINA RESULT:    -5.235      6.181      8.940
REMARK INTER + INTRA:          -5.542
REMARK INTER:                  -5.542
REMARK INTRA:                   0.000
REMARK UNBOUND:                 0.000
REMARK  Name = resultss/4CJN/ligands/lig_290_t2.pdb
REMARK  2 active torsions:
REMARK  status: ('A' for Active; 'I' for Inactive)
REMARK    1  A    between atoms: C4_5  and  O2_6
REMARK    2  A    between atoms: C10_13  and  O4_14
REMARK                            x       y       z     vdW  Elec       q    Type
REMARK                         _______ _______ _______ _____ _____    ______ ____
ROOT
ATOM      1  O1  UNL     1      27.547  -7.986 -44.344  0.00  0.00    +0.000 OA
ATOM      2  C1  UNL     1      26.798  -8.501 -43.469  0.00  0.00    +0.000 A 
ATOM      3  C2  UNL     1      27.341  -9.340 -42.481  0.00  0.00    +0.000 A 
ATOM      4  C3  UNL     1      28.717  -9.638 -42.423  0.00  0.00    +0.000 A 
ATOM      5  C4  UNL     1      29.214 -10.479 -41.421  0.00  0.00    +0.000 A 
ATOM      6  C5  UNL     1      28.342 -11.027 -40.472  0.00  0.00    +0.000 A 
ATOM      7  C6  UNL     1      26.976 -10.736 -40.522  0.00  0.00    +0.000 A 
ATOM      8  C7  UNL     1      26.471  -9.897 -41.520  0.00  0.00    +0.000 A 
ATOM      9  O3  UNL     1      25.172  -9.630 -41.556  0.00  0.00    +0.000 OA
ATOM     10  C8  UNL     1      24.617  -8.841 -42.473  0.00  0.00    +0.000 A 
ATOM     11  C9  UNL     1      23.127  -8.618 -42.400  0.00  0.00    +0.000 C 
ATOM     12  C10 UNL     1      22.555  -7.714 -43.469  0.00  0.00    +0.000 C 
ATOM     13  C11 UNL     1      23.311  -7.148 -44.413  0.00  0.00    +0.000 C 
ATOM     14  C12 UNL     1      24.760  -7.372 -44.474  0.00  0.00    +0.000 C 
ATOM     15  O5  UNL     1      25.426  -6.813 -45.386  0.00  0.00    +0.000 OA
ATOM     16  C13 UNL     1      25.412  -8.243 -43.470  0.00  0.00    +0.000 A 
ENDROOT
BRANCH   5  17
ATOM     17  O2  UNL     1      30.578 -10.763 -41.380  0.00  0.00    +0.000 OA
ATOM     18  H2  UNL     1      31.268 -10.087 -41.684  0.00  0.00    +0.000 HD
ENDBRANCH   5  17
BRANCH  12  19
ATOM     19  O4  UNL     1      21.186  -7.459 -43.471  0.00  0.00    +0.000 OA
ATOM     20  H7  UNL     1      20.712  -7.142 -44.309  0.00  0.00    +0.000 HD
ENDBRANCH  12  19
TORSDOF 2
ENDMDL
MODEL 4
REMARK VINA RESULT:    -5.138      1.750      3.310
REMARK INTER + INTRA:          -5.438
REMARK INTER:                  -5.438
REMARK INTRA:                   0.000
REMARK UNBOUND:                 0.000
REMARK  Name = resultss/4CJN/ligands/lig_290_t2.pdb
REMARK  2 active torsions:
REMARK  status: ('A' for Active; 'I' for Inactive)
REMARK    1  A    between atoms: C4_5  and  O2_6
REMARK    2  A    between atoms: C10_13  and  O4_14
REMARK                            x       y       z     vdW  Elec       q    Type
REMARK                         _______ _______ _______ _____ _____    ______ ____
ROOT
ATOM      1  O1  UNL     1      24.448  -7.405 -38.294  0.00  0.00    +0.000 OA
ATOM      2  C1  UNL     1      25.230  -8.223 -37.736  0.00  0.00    +0.000 A 
ATOM      3  C2  UNL     1      25.130  -8.465 -36.356  0.00  0.00    +0.000 A 
ATOM      4  C3  UNL     1      24.172  -7.819 -35.548  0.00  0.00    +0.000 A 
ATOM      5  C4  UNL     1      24.109  -8.090 -34.177  0.00  0.00    +0.000 A 
ATOM      6  C5  UNL     1      25.000  -9.007 -33.604  0.00  0.00    +0.000 A 
ATOM      7  C6  UNL     1      25.952  -9.652 -34.397  0.00  0.00    +0.000 A 
ATOM      8  C7  UNL     1      26.023  -9.386 -35.769  0.00  0.00    +0.000 A 
ATOM      9  O3  UNL     1      26.932 -10.005 -36.510  0.00  0.00    +0.000 OA
ATOM     10  C8  UNL     1      27.061  -9.806 -37.819  0.00  0.00    +0.000 A 
ATOM     11  C9  UNL     1      28.136 -10.575 -38.545  0.00  0.00    +0.000 C 
ATOM     12  C10 UNL     1      28.233 -10.306 -40.031  0.00  0.00    +0.000 C 
ATOM     13  C11 UNL     1      27.426  -9.449 -40.660  0.00  0.00    +0.000 C 
ATOM     14  C12 UNL     1      26.383  -8.707 -39.944  0.00  0.00    +0.000 C 
ATOM     15  O5  UNL     1      25.648  -7.911 -40.588  0.00  0.00    +0.000 OA
ATOM     16  C13 UNL     1      26.211  -8.904 -38.487  0.00  0.00    +0.000 A 
ENDROOT
BRANCH   5  17
ATOM     17  O2  UNL     1      23.156  -7.442 -33.394  0.00  0.00    +0.000 OA
ATOM     18  H2  UNL     1      22.164  -7.574 -33.552  0.00  0.00    +0.000 HD
ENDBRANCH   5  17
BRANCH  12  19
ATOM     19  O4  UNL     1      29.202 -10.977 -40.773  0.00  0.00    +0.000 OA
ATOM     20  H7  UNL     1      30.113 -11.186 -40.380  0.00  0.00    +0.000 HD
ENDBRANCH  12  19
TORSDOF 2
ENDMDL
MODEL 5
REMARK VINA RESULT:    -5.070      2.676      4.474
REMARK INTER + INTRA:          -5.366
REMARK INTER:                  -5.366
REMARK INTRA:                   0.000
REMARK UNBOUND:                 0.000
REMARK  Name = resultss/4CJN/ligands/lig_290_t2.pdb
REMARK  2 active torsions:
REMARK  status: ('A' for Active; 'I' for Inactive)
REMARK    1  A    between atoms: C4_5  and  O2_6
REMARK    2  A    between atoms: C10_13  and  O4_14
REMARK                            x       y       z     vdW  Elec       q    Type
REMARK                         _______ _______ _______ _____ _____    ______ ____
ROOT
ATOM      1  O1  UNL     1      30.648 -10.012 -38.117  0.00  0.00    +0.000 OA
ATOM      2  C1  UNL     1      29.396  -9.870 -38.070  0.00  0.00    +0.000 A 
ATOM      3  C2  UNL     1      28.741  -9.790 -36.829  0.00  0.00    +0.000 A 
ATOM      4  C3  UNL     1      29.438  -9.863 -35.607  0.00  0.00    +0.000 A 
ATOM      5  C4  UNL     1      28.745  -9.779 -34.394  0.00  0.00    +0.000 A 
ATOM      6  C5  UNL     1      27.353  -9.622 -34.395  0.00  0.00    +0.000 A 
ATOM      7  C6  UNL     1      26.654  -9.549 -35.601  0.00  0.00    +0.000 A 
ATOM      8  C7  UNL     1      27.339  -9.633 -36.818  0.00  0.00    +0.000 A 
ATOM      9  O3  UNL     1      26.662  -9.562 -37.957  0.00  0.00    +0.000 OA
ATOM     10  C8  UNL     1      27.242  -9.633 -39.152  0.00  0.00    +0.000 A 
ATOM     11  C9  UNL     1      26.357  -9.539 -40.371  0.00  0.00    +0.000 C 
ATOM     12  C10 UNL     1      27.074  -9.627 -41.699  0.00  0.00    +0.000 C 
ATOM     13  C11 UNL     1      28.397  -9.776 -41.794  0.00  0.00    +0.000 C 
ATOM     14  C12 UNL     1      29.249  -9.866 -40.603  0.00  0.00    +0.000 C 
ATOM     15  O5  UNL     1      30.492 -10.007 -40.750  0.00  0.00    +0.000 OA
ATOM     16  C13 UNL     1      28.638  -9.790 -39.257  0.00  0.00    +0.000 A 
ENDROOT
BRANCH   5  17
ATOM     17  O2  UNL     1      29.451  -9.853 -33.195  0.00  0.00    +0.000 OA
ATOM     18  H2  UNL     1      29.015  -9.621 -32.310  0.00  0.00    +0.000 HD
ENDBRANCH   5  17
BRANCH  12  19
ATOM     19  O4  UNL     1      26.327  -9.548 -42.872  0.00  0.00    +0.000 OA
ATOM     20  H7  UNL     1      25.572 -10.198 -43.058  0.00  0.00    +0.000 HD
ENDBRANCH  12  19
TORSDOF 2
ENDMDL
MODEL 6
REMARK VINA RESULT:    -5.044      1.967      5.582
REMARK INTER + INTRA:          -5.339
REMARK INTER:                  -5.339
REMARK INTRA:                   0.000
REMARK UNBOUND:                 0.000
REMARK  Name = resultss/4CJN/ligands/lig_290_t2.pdb
REMARK  2 active torsions:
REMARK  status: ('A' for Active; 'I' for Inactive)
REMARK    1  A    between atoms: C4_5  and  O2_6
REMARK    2  A    between atoms: C10_13  and  O4_14
REMARK                            x       y       z     vdW  Elec       q    Type
REMARK                         _______ _______ _______ _____ _____    ______ ____
ROOT
ATOM      1  O1  UNL     1      27.896 -10.388 -37.028  0.00  0.00    +0.000 OA
ATOM      2  C1  UNL     1      26.857  -9.696 -37.208  0.00  0.00    +0.000 A 
ATOM      3  C2  UNL     1      26.460  -9.348 -38.511  0.00  0.00    +0.000 A 
ATOM      4  C3  UNL     1      27.187  -9.746 -39.649  0.00  0.00    +0.000 A 
ATOM      5  C4  UNL     1      26.754  -9.375 -40.927  0.00  0.00    +0.000 A 
ATOM      6  C5  UNL     1      25.593  -8.606 -41.076  0.00  0.00    +0.000 A 
ATOM      7  C6  UNL     1      24.866  -8.207 -39.952  0.00  0.00    +0.000 A 
ATOM      8  C7  UNL     1      25.291  -8.572 -38.671  0.00  0.00    +0.000 A 
ATOM      9  O3  UNL     1      24.591  -8.186 -37.612  0.00  0.00    +0.000 OA
ATOM     10  C8  UNL     1      24.931  -8.495 -36.364  0.00  0.00    +0.000 A 
ATOM     11  C9  UNL     1      24.047  -7.993 -35.249  0.00  0.00    +0.000 C 
ATOM     12  C10 UNL     1      24.486  -8.375 -33.853  0.00  0.00    +0.000 C 
ATOM     13  C11 UNL     1      25.578  -9.106 -33.618  0.00  0.00    +0.000 C 
ATOM     14  C12 UNL     1      26.431  -9.589 -34.710  0.00  0.00    +0.000 C 
ATOM     15  O5  UNL     1      27.451 -10.275 -34.431  0.00  0.00    +0.000 OA
ATOM     16  C13 UNL     1      26.083  -9.266 -36.111  0.00  0.00    +0.000 A 
ENDROOT
BRANCH   5  17
ATOM     17  O2  UNL     1      27.487  -9.777 -42.042  0.00  0.00    +0.000 OA
ATOM     18  H2  UNL     1      27.246  -9.462 -42.975  0.00  0.00    +0.000 HD
ENDBRANCH   5  17
BRANCH  12  19
ATOM     19  O4  UNL     1      23.722  -7.950 -32.769  0.00  0.00    +0.000 OA
ATOM     20  H7  UNL     1      23.395  -6.994 -32.701  0.00  0.00    +0.000 HD
ENDBRANCH  12  19
TORSDOF 2
ENDMDL
MODEL 7
REMARK VINA RESULT:    -5.024      4.916      7.861
REMARK INTER + INTRA:          -5.317
REMARK INTER:                  -5.317
REMARK INTRA:                   0.000
REMARK UNBOUND:                 0.000
REMARK  Name = resultss/4CJN/ligands/lig_290_t2.pdb
REMARK  2 active torsions:
REMARK  status: ('A' for Active; 'I' for Inactive)
REMARK    1  A    between atoms: C4_5  and  O2_6
REMARK    2  A    between atoms: C10_13  and  O4_14
REMARK                            x       y       z     vdW  Elec       q    Type
REMARK                         _______ _______ _______ _____ _____    ______ ____
ROOT
ATOM      1  O1  UNL     1      27.661  -8.981 -38.948  0.00  0.00    +0.000 OA
ATOM      2  C1  UNL     1      27.623  -9.220 -40.186  0.00  0.00    +0.000 A 
ATOM      3  C2  UNL     1      28.797  -9.576 -40.872  0.00  0.00    +0.000 A 
ATOM      4  C3  UNL     1      30.043  -9.680 -40.223  0.00  0.00    +0.000 A 
ATOM      5  C4  UNL     1      31.186 -10.037 -40.946  0.00  0.00    +0.000 A 
ATOM      6  C5  UNL     1      31.093 -10.293 -42.320  0.00  0.00    +0.000 A 
ATOM      7  C6  UNL     1      29.861 -10.193 -42.971  0.00  0.00    +0.000 A 
ATOM      8  C7  UNL     1      28.713  -9.836 -42.256  0.00  0.00    +0.000 A 
ATOM      9  O3  UNL     1      27.550  -9.745 -42.888  0.00  0.00    +0.000 OA
ATOM     10  C8  UNL     1      26.416  -9.412 -42.277  0.00  0.00    +0.000 A 
ATOM     11  C9  UNL     1      25.161  -9.344 -43.112  0.00  0.00    +0.000 C 
ATOM     12  C10 UNL     1      23.905  -8.960 -42.362  0.00  0.00    +0.000 C 
ATOM     13  C11 UNL     1      23.900  -8.699 -41.053  0.00  0.00    +0.000 C 
ATOM     14  C12 UNL     1      25.127  -8.768 -40.250  0.00  0.00    +0.000 C 
ATOM     15  O5  UNL     1      25.066  -8.512 -39.018  0.00  0.00    +0.000 OA
ATOM     16  C13 UNL     1      26.407  -9.136 -40.896  0.00  0.00    +0.000 A 
ENDROOT
BRANCH   5  17
ATOM     17  O2  UNL     1      32.411 -10.134 -40.287  0.00  0.00    +0.000 OA
ATOM     18  H2  UNL     1      32.878 -11.025 -40.169  0.00  0.00    +0.000 HD
ENDBRANCH   5  17
BRANCH  12  19
ATOM     19  O4  UNL     1      22.704  -8.876 -43.062  0.00  0.00    +0.000 OA
ATOM     20  H7  UNL     1      22.423  -8.016 -43.520  0.00  0.00    +0.000 HD
ENDBRANCH  12  19
TORSDOF 2
ENDMDL
MODEL 8
REMARK VINA RESULT:    -4.947      6.099      7.466
REMARK INTER + INTRA:          -5.237
REMARK INTER:                  -5.237
REMARK INTRA:                   0.000
REMARK UNBOUND:                 0.000
REMARK  Name = resultss/4CJN/ligands/lig_290_t2.pdb
REMARK  2 active torsions:
REMARK  status: ('A' for Active; 'I' for Inactive)
REMARK    1  A    between atoms: C4_5  and  O2_6
REMARK    2  A    between atoms: C10_13  and  O4_14
REMARK                            x       y       z     vdW  Elec       q    Type
REMARK                         _______ _______ _______ _____ _____    ______ ____
ROOT
ATOM      1  O1  UNL     1      25.102 -10.099 -40.696  0.00  0.00    +0.000 OA
ATOM      2  C1  UNL     1      25.717  -9.560 -41.657  0.00  0.00    +0.000 A 
ATOM      3  C2  UNL     1      25.013  -8.802 -42.607  0.00  0.00    +0.000 A 
ATOM      4  C3  UNL     1      23.619  -8.612 -42.533  0.00  0.00    +0.000 A 
ATOM      5  C4  UNL     1      22.959  -7.849 -43.503  0.00  0.00    +0.000 A 
ATOM      6  C5  UNL     1      23.686  -7.272 -44.552  0.00  0.00    +0.000 A 
ATOM      7  C6  UNL     1      25.069  -7.454 -44.633  0.00  0.00    +0.000 A 
ATOM      8  C7  UNL     1      25.736  -8.216 -43.668  0.00  0.00    +0.000 A 
ATOM      9  O3  UNL     1      27.050  -8.381 -43.757  0.00  0.00    +0.000 OA
ATOM     10  C8  UNL     1      27.754  -9.090 -42.879  0.00  0.00    +0.000 A 
ATOM     11  C9  UNL     1      29.243  -9.199 -43.096  0.00  0.00    +0.000 C 
ATOM     12  C10 UNL     1      29.988 -10.018 -42.066  0.00  0.00    +0.000 C 
ATOM     13  C11 UNL     1      29.377 -10.604 -41.034  0.00  0.00    +0.000 C 
ATOM     14  C12 UNL     1      27.928 -10.491 -40.832  0.00  0.00    +0.000 C 
ATOM     15  O5  UNL     1      27.403 -11.065 -39.841  0.00  0.00    +0.000 OA
ATOM     16  C13 UNL     1      27.113  -9.710 -41.789  0.00  0.00    +0.000 A 
ENDROOT
BRANCH   5  17
ATOM     17  O2  UNL     1      21.580  -7.673 -43.415  0.00  0.00    +0.000 OA
ATOM     18  H2  UNL     1      21.147  -7.300 -42.577  0.00  0.00    +0.000 HD
ENDBRANCH   5  17
BRANCH  12  19
ATOM     19  O4  UNL     1      31.367 -10.167 -42.195  0.00  0.00    +0.000 OA
ATOM     20  H7  UNL     1      31.888 -10.787 -41.586  0.00  0.00    +0.000 HD
ENDBRANCH  12  19
TORSDOF 2
ENDMDL
MODEL 9
REMARK VINA RESULT:    -4.925      2.216      4.178
REMARK INTER + INTRA:          -5.213
REMARK INTER:                  -5.213
REMARK INTRA:                   0.000
REMARK UNBOUND:                 0.000
REMARK  Name = resultss/4CJN/ligands/lig_290_t2.pdb
REMARK  2 active torsions:
REMARK  status: ('A' for Active; 'I' for Inactive)
REMARK    1  A    between atoms: C4_5  and  O2_6
REMARK    2  A    between atoms: C10_13  and  O4_14
REMARK                            x       y       z     vdW  Elec       q    Type
REMARK                         _______ _______ _______ _____ _____    ______ ____
ROOT
ATOM      1  O1  UNL     1      29.233 -10.397 -37.457  0.00  0.00    +0.000 OA
ATOM      2  C1  UNL     1      28.192  -9.808 -37.055  0.00  0.00    +0.000 A 
ATOM      3  C2  UNL     1      28.063  -9.449 -35.702  0.00  0.00    +0.000 A 
ATOM      4  C3  UNL     1      29.067  -9.725 -34.754  0.00  0.00    +0.000 A 
ATOM      5  C4  UNL     1      28.895  -9.350 -33.416  0.00  0.00    +0.000 A 
ATOM      6  C5  UNL     1      27.720  -8.698 -33.019  0.00  0.00    +0.000 A 
ATOM      7  C6  UNL     1      26.720  -8.421 -33.953  0.00  0.00    +0.000 A 
ATOM      8  C7  UNL     1      26.883  -8.793 -35.291  0.00  0.00    +0.000 A 
ATOM      9  O3  UNL     1      25.924  -8.524 -36.168  0.00  0.00    +0.000 OA
ATOM     10  C8  UNL     1      26.006  -8.845 -37.456  0.00  0.00    +0.000 A 
ATOM     11  C9  UNL     1      24.845  -8.481 -38.348  0.00  0.00    +0.000 C 
ATOM     12  C10 UNL     1      24.997  -8.872 -39.801  0.00  0.00    +0.000 C 
ATOM     13  C11 UNL     1      26.081  -9.495 -40.268  0.00  0.00    +0.000 C 
ATOM     14  C12 UNL     1      27.206  -9.845 -39.392  0.00  0.00    +0.000 C 
ATOM     15  O5  UNL     1      28.205 -10.433 -39.885  0.00  0.00    +0.000 OA
ATOM     16  C13 UNL     1      27.149  -9.502 -37.953  0.00  0.00    +0.000 A 
ENDROOT
BRANCH   5  17
ATOM     17  O2  UNL     1      29.898  -9.631 -32.491  0.00  0.00    +0.000 OA
ATOM     18  H2  UNL     1      29.843  -9.301 -31.535  0.00  0.00    +0.000 HD
ENDBRANCH   5  17
BRANCH  12  19
ATOM     19  O4  UNL     1      23.967  -8.571 -40.689  0.00  0.00    +0.000 OA
ATOM     20  H7  UNL     1      24.078  -8.708 -41.687  0.00  0.00    +0.000 HD
ENDBRANCH  12  19
TORSDOF 2
ENDMDL
