MODEL 1
REMARK VINA RESULT:    -5.001      0.000      0.000
REMARK INTER + INTRA:         -10.206
REMARK INTER:                  -8.217
REMARK INTRA:                  -1.989
REMARK UNBOUND:                -1.989
REMARK  Name = resultss/4CJN/ligands/lig_109_t0.pdb
REMARK  13 active torsions:
REMARK  status: ('A' for Active; 'I' for Inactive)
REMARK    1  A    between atoms: O1_1  and  C1_2
REMARK    2  A    between atoms: C1_2  and  C2_3
REMARK    3  A    between atoms: C3_4  and  O2_5
REMARK    4  A    between atoms: C4_6  and  O3_7
REMARK    5  A    between atoms: C5_8  and  O4_9
REMARK    6  A    between atoms: N1_11  and  C7_12
REMARK    7  A    between atoms: C7_12  and  C8_13
REMARK    8  A    between atoms: C8_13  and  C9_14
REMARK    9  A    between atoms: C9_14  and  C10_15
REMARK   10  A    between atoms: C10_15  and  C11_16
REMARK   11  A    between atoms: C11_16  and  O5_17
REMARK   12  A    between atoms: O5_17  and  C12_18
REMARK   13  A    between atoms: C12_18  and  C13_19
REMARK                            x       y       z     vdW  Elec       q    Type
REMARK                         _______ _______ _______ _____ _____    ______ ____
ROOT
ATOM      1  C7  UNL     1      28.571  -7.806 -38.801  0.00  0.00    +0.000 C 
ENDROOT
BRANCH   1   7
ATOM      2  C2  UNL     1      27.176  -9.392 -40.160  0.00  0.00    +0.000 C 
ATOM      3  C3  UNL     1      25.895  -9.486 -41.036  0.00  0.00    +0.000 C 
ATOM      4  C4  UNL     1      24.656  -8.946 -40.311  0.00  0.00    +0.000 C 
ATOM      5  C5  UNL     1      24.920  -7.512 -39.830  0.00  0.00    +0.000 C 
ATOM      6  C6  UNL     1      26.169  -7.468 -38.938  0.00  0.00    +0.000 C 
ATOM      7  N1  UNL     1      27.360  -8.004 -39.635  0.00  0.00    +0.000 NA
BRANCH   3   8
ATOM      8  O2  UNL     1      25.655 -10.808 -41.449  0.00  0.00    +0.000 OA
ATOM      9  H6  UNL     1      25.096 -11.231 -40.746  0.00  0.00    +0.000 HD
ENDBRANCH   3   8
BRANCH   4  10
ATOM     10  O3  UNL     1      23.571  -8.956 -41.203  0.00  0.00    +0.000 OA
ATOM     11  H8  UNL     1      23.390  -9.904 -41.433  0.00  0.00    +0.000 HD
ENDBRANCH   4  10
BRANCH   5  12
ATOM     12  O4  UNL     1      23.809  -7.052 -39.105  0.00  0.00    +0.000 OA
ATOM     13  H10 UNL     1      23.105  -7.745 -39.187  0.00  0.00    +0.000 HD
ENDBRANCH   5  12
BRANCH   2  14
ATOM     14  C1  UNL     1      27.290 -10.522 -39.097  0.00  0.00    +0.000 C 
BRANCH  14  15
ATOM     15  O1  UNL     1      27.770 -11.716 -39.645  0.00  0.00    +0.000 OA
ATOM     16  H1  UNL     1      27.076 -12.402 -39.466  0.00  0.00    +0.000 HD
ENDBRANCH  14  15
ENDBRANCH   2  14
ENDBRANCH   1   7
BRANCH   1  17
ATOM     17  C8  UNL     1      28.226  -7.471 -37.337  0.00  0.00    +0.000 C 
BRANCH  17  18
ATOM     18  C9  UNL     1      29.270  -8.034 -36.354  0.00  0.00    +0.000 C 
BRANCH  18  19
ATOM     19  C10 UNL     1      28.987  -9.493 -35.945  0.00  0.00    +0.000 C 
BRANCH  19  20
ATOM     20  C11 UNL     1      29.021  -9.685 -34.422  0.00  0.00    +0.000 C 
BRANCH  20  21
ATOM     21  O5  UNL     1      27.856  -9.152 -33.823  0.00  0.00    +0.000 OA
BRANCH  21  22
ATOM     22  C12 UNL     1      26.673  -9.748 -34.331  0.00  0.00    +0.000 C 
BRANCH  22  23
ATOM     23  C13 UNL     1      25.507  -8.732 -34.320  0.00  0.00    +0.000 C 
ATOM     24  C14 UNL     1      24.385  -9.196 -33.348  0.00  0.00    +0.000 C 
ATOM     25  C15 UNL     1      23.222  -8.179 -33.355  0.00  0.00    +0.000 C 
ATOM     26  C16 UNL     1      23.745  -6.796 -32.908  0.00  0.00    +0.000 C 
ATOM     27  C17 UNL     1      24.845  -6.319 -33.882  0.00  0.00    +0.000 C 
ATOM     28  C18 UNL     1      24.262  -6.216 -35.309  0.00  0.00    +0.000 C 
ATOM     29  C19 UNL     1      23.741  -7.600 -35.756  0.00  0.00    +0.000 C 
ATOM     30  C20 UNL     1      22.642  -8.075 -34.783  0.00  0.00    +0.000 C 
ATOM     31  C21 UNL     1      24.908  -8.613 -35.751  0.00  0.00    +0.000 C 
ATOM     32  C22 UNL     1      26.013  -7.331 -33.873  0.00  0.00    +0.000 C 
ENDBRANCH  22  23
ENDBRANCH  21  22
ENDBRANCH  20  21
ENDBRANCH  19  20
ENDBRANCH  18  19
ENDBRANCH  17  18
ENDBRANCH   1  17
TORSDOF 13
ENDMDL
MODEL 2
REMARK VINA RESULT:    -4.952      1.247      2.052
REMARK INTER + INTRA:         -10.125
REMARK INTER:                  -8.731
REMARK INTRA:                  -1.395
REMARK UNBOUND:                -1.989
REMARK  Name = resultss/4CJN/ligands/lig_109_t0.pdb
REMARK  13 active torsions:
REMARK  status: ('A' for Active; 'I' for Inactive)
REMARK    1  A    between atoms: O1_1  and  C1_2
REMARK    2  A    between atoms: C1_2  and  C2_3
REMARK    3  A    between atoms: C3_4  and  O2_5
REMARK    4  A    between atoms: C4_6  and  O3_7
REMARK    5  A    between atoms: C5_8  and  O4_9
REMARK    6  A    between atoms: N1_11  and  C7_12
REMARK    7  A    between atoms: C7_12  and  C8_13
REMARK    8  A    between atoms: C8_13  and  C9_14
REMARK    9  A    between atoms: C9_14  and  C10_15
REMARK   10  A    between atoms: C10_15  and  C11_16
REMARK   11  A    between atoms: C11_16  and  O5_17
REMARK   12  A    between atoms: O5_17  and  C12_18
REMARK   13  A    between atoms: C12_18  and  C13_19
REMARK                            x       y       z     vdW  Elec       q    Type
REMARK                         _______ _______ _______ _____ _____    ______ ____
ROOT
ATOM      1  C7  UNL     1      28.488  -8.483 -38.671  0.00  0.00    +0.000 C 
ENDROOT
BRANCH   1   7
ATOM      2  C2  UNL     1      28.189  -9.156 -41.072  0.00  0.00    +0.000 C 
ATOM      3  C3  UNL     1      27.182  -9.131 -42.256  0.00  0.00    +0.000 C 
ATOM      4  C4  UNL     1      25.822  -9.727 -41.873  0.00  0.00    +0.000 C 
ATOM      5  C5  UNL     1      25.271  -9.009 -40.633  0.00  0.00    +0.000 C 
ATOM      6  C6  UNL     1      26.277  -9.089 -39.475  0.00  0.00    +0.000 C 
ATOM      7  N1  UNL     1      27.594  -8.527 -39.853  0.00  0.00    +0.000 NA
BRANCH   3   8
ATOM      8  O2  UNL     1      27.692  -9.812 -43.374  0.00  0.00    +0.000 OA
ATOM      9  H6  UNL     1      28.019  -9.119 -44.007  0.00  0.00    +0.000 HD
ENDBRANCH   3   8
BRANCH   4  10
ATOM     10  O3  UNL     1      24.936  -9.562 -42.950  0.00  0.00    +0.000 OA
ATOM     11  H8  UNL     1      24.183 -10.192 -42.809  0.00  0.00    +0.000 HD
ENDBRANCH   4  10
BRANCH   5  12
ATOM     12  O4  UNL     1      24.062  -9.608 -40.246  0.00  0.00    +0.000 OA
ATOM     13  H10 UNL     1      23.899 -10.359 -40.872  0.00  0.00    +0.000 HD
ENDBRANCH   5  12
BRANCH   2  14
ATOM     14  C1  UNL     1      28.849 -10.547 -40.844  0.00  0.00    +0.000 C 
BRANCH  14  15
ATOM     15  O1  UNL     1      29.763 -10.869 -41.852  0.00  0.00    +0.000 OA
ATOM     16  H1  UNL     1      29.442 -11.717 -42.255  0.00  0.00    +0.000 HD
ENDBRANCH  14  15
ENDBRANCH   2  14
ENDBRANCH   1   7
BRANCH   1  17
ATOM     17  C8  UNL     1      27.954  -9.332 -37.501  0.00  0.00    +0.000 C 
BRANCH  17  18
ATOM     18  C9  UNL     1      29.093  -9.967 -36.680  0.00  0.00    +0.000 C 
BRANCH  18  19
ATOM     19  C10 UNL     1      29.385  -9.209 -35.370  0.00  0.00    +0.000 C 
BRANCH  19  20
ATOM     20  C11 UNL     1      28.717  -9.871 -34.156  0.00  0.00    +0.000 C 
BRANCH  20  21
ATOM     21  O5  UNL     1      27.574  -9.143 -33.753  0.00  0.00    +0.000 OA
BRANCH  21  22
ATOM     22  C12 UNL     1      26.372  -9.728 -34.229  0.00  0.00    +0.000 C 
BRANCH  22  23
ATOM     23  C13 UNL     1      25.239  -8.676 -34.276  0.00  0.00    +0.000 C 
ATOM     24  C14 UNL     1      25.745  -7.301 -33.756  0.00  0.00    +0.000 C 
ATOM     25  C15 UNL     1      24.602  -6.264 -33.798  0.00  0.00    +0.000 C 
ATOM     26  C16 UNL     1      24.103  -6.107 -35.251  0.00  0.00    +0.000 C 
ATOM     27  C17 UNL     1      23.578  -7.464 -35.768  0.00  0.00    +0.000 C 
ATOM     28  C18 UNL     1      22.416  -7.945 -34.870  0.00  0.00    +0.000 C 
ATOM     29  C19 UNL     1      22.917  -8.103 -33.417  0.00  0.00    +0.000 C 
ATOM     30  C20 UNL     1      23.440  -6.746 -32.902  0.00  0.00    +0.000 C 
ATOM     31  C21 UNL     1      24.058  -9.144 -33.379  0.00  0.00    +0.000 C 
ATOM     32  C22 UNL     1      24.721  -8.504 -35.733  0.00  0.00    +0.000 C 
ENDBRANCH  22  23
ENDBRANCH  21  22
ENDBRANCH  20  21
ENDBRANCH  19  20
ENDBRANCH  18  19
ENDBRANCH  17  18
ENDBRANCH   1  17
TORSDOF 13
ENDMDL
MODEL 3
REMARK VINA RESULT:    -4.924      4.704      9.687
REMARK INTER + INTRA:         -10.079
REMARK INTER:                  -9.359
REMARK INTRA:                  -0.720
REMARK UNBOUND:                -1.989
REMARK  Name = resultss/4CJN/ligands/lig_109_t0.pdb
REMARK  13 active torsions:
REMARK  status: ('A' for Active; 'I' for Inactive)
REMARK    1  A    between atoms: O1_1  and  C1_2
REMARK    2  A    between atoms: C1_2  and  C2_3
REMARK    3  A    between atoms: C3_4  and  O2_5
REMARK    4  A    between atoms: C4_6  and  O3_7
REMARK    5  A    between atoms: C5_8  and  O4_9
REMARK    6  A    between atoms: N1_11  and  C7_12
REMARK    7  A    between atoms: C7_12  and  C8_13
REMARK    8  A    between atoms: C8_13  and  C9_14
REMARK    9  A    between atoms: C9_14  and  C10_15
REMARK   10  A    between atoms: C10_15  and  C11_16
REMARK   11  A    between atoms: C11_16  and  O5_17
REMARK   12  A    between atoms: O5_17  and  C12_18
REMARK   13  A    between atoms: C12_18  and  C13_19
REMARK                            x       y       z     vdW  Elec       q    Type
REMARK                         _______ _______ _______ _____ _____    ______ ____
ROOT
ATOM      1  C7  UNL     1      28.450  -8.478 -36.568  0.00  0.00    +0.000 C 
ENDROOT
BRANCH   1   7
ATOM      2  C2  UNL     1      26.891  -8.477 -34.599  0.00  0.00    +0.000 C 
ATOM      3  C3  UNL     1      26.663  -7.859 -33.192  0.00  0.00    +0.000 C 
ATOM      4  C4  UNL     1      27.886  -8.026 -32.280  0.00  0.00    +0.000 C 
ATOM      5  C5  UNL     1      29.130  -7.449 -32.969  0.00  0.00    +0.000 C 
ATOM      6  C6  UNL     1      29.341  -8.112 -34.338  0.00  0.00    +0.000 C 
ATOM      7  N1  UNL     1      28.154  -7.961 -35.210  0.00  0.00    +0.000 NA
BRANCH   3   8
ATOM      8  O2  UNL     1      25.534  -8.415 -32.566  0.00  0.00    +0.000 OA
ATOM      9  H6  UNL     1      25.109  -9.021 -33.228  0.00  0.00    +0.000 HD
ENDBRANCH   3   8
BRANCH   4  10
ATOM     10  O3  UNL     1      27.648  -7.344 -31.076  0.00  0.00    +0.000 OA
ATOM     11  H8  UNL     1      28.221  -7.764 -30.384  0.00  0.00    +0.000 HD
ENDBRANCH   4  10
BRANCH   5  12
ATOM     12  O4  UNL     1      30.256  -7.671 -32.160  0.00  0.00    +0.000 OA
ATOM     13  H10 UNL     1      30.972  -7.072 -32.494  0.00  0.00    +0.000 HD
ENDBRANCH   5  12
BRANCH   2  14
ATOM     14  C1  UNL     1      26.721 -10.024 -34.636  0.00  0.00    +0.000 C 
BRANCH  14  15
ATOM     15  O1  UNL     1      25.403 -10.416 -34.383  0.00  0.00    +0.000 OA
ATOM     16  H1  UNL     1      25.312 -11.334 -34.750  0.00  0.00    +0.000 HD
ENDBRANCH  14  15
ENDBRANCH   2  14
ENDBRANCH   1   7
BRANCH   1  17
ATOM     17  C8  UNL     1      29.676  -9.413 -36.585  0.00  0.00    +0.000 C 
BRANCH  17  18
ATOM     18  C9  UNL     1      30.090  -9.798 -38.018  0.00  0.00    +0.000 C 
BRANCH  18  19
ATOM     19  C10 UNL     1      28.885 -10.018 -38.954  0.00  0.00    +0.000 C 
BRANCH  19  20
ATOM     20  C11 UNL     1      29.178  -9.565 -40.391  0.00  0.00    +0.000 C 
BRANCH  20  21
ATOM     21  O5  UNL     1      30.275 -10.277 -40.928  0.00  0.00    +0.000 OA
BRANCH  21  22
ATOM     22  C12 UNL     1      30.135 -10.504 -42.322  0.00  0.00    +0.000 C 
BRANCH  22  23
ATOM     23  C13 UNL     1      31.449 -11.065 -42.915  0.00  0.00    +0.000 C 
ATOM     24  C14 UNL     1      32.661 -10.683 -42.019  0.00  0.00    +0.000 C 
ATOM     25  C15 UNL     1      33.967 -11.239 -42.627  0.00  0.00    +0.000 C 
ATOM     26  C16 UNL     1      33.874 -12.777 -42.730  0.00  0.00    +0.000 C 
ATOM     27  C17 UNL     1      32.684 -13.164 -43.636  0.00  0.00    +0.000 C 
ATOM     28  C18 UNL     1      32.890 -12.563 -45.044  0.00  0.00    +0.000 C 
ATOM     29  C19 UNL     1      32.983 -11.024 -44.941  0.00  0.00    +0.000 C 
ATOM     30  C20 UNL     1      34.172 -10.640 -44.036  0.00  0.00    +0.000 C 
ATOM     31  C21 UNL     1      31.673 -10.472 -44.335  0.00  0.00    +0.000 C 
ATOM     32  C22 UNL     1      31.374 -12.614 -43.027  0.00  0.00    +0.000 C 
ENDBRANCH  22  23
ENDBRANCH  21  22
ENDBRANCH  20  21
ENDBRANCH  19  20
ENDBRANCH  18  19
ENDBRANCH  17  18
ENDBRANCH   1  17
TORSDOF 13
ENDMDL
MODEL 4
REMARK VINA RESULT:    -4.835      1.731      4.331
REMARK INTER + INTRA:          -9.933
REMARK INTER:                  -8.059
REMARK INTRA:                  -1.874
REMARK UNBOUND:                -1.989
REMARK  Name = resultss/4CJN/ligands/lig_109_t0.pdb
REMARK  13 active torsions:
REMARK  status: ('A' for Active; 'I' for Inactive)
REMARK    1  A    between atoms: O1_1  and  C1_2
REMARK    2  A    between atoms: C1_2  and  C2_3
REMARK    3  A    between atoms: C3_4  and  O2_5
REMARK    4  A    between atoms: C4_6  and  O3_7
REMARK    5  A    between atoms: C5_8  and  O4_9
REMARK    6  A    between atoms: N1_11  and  C7_12
REMARK    7  A    between atoms: C7_12  and  C8_13
REMARK    8  A    between atoms: C8_13  and  C9_14
REMARK    9  A    between atoms: C9_14  and  C10_15
REMARK   10  A    between atoms: C10_15  and  C11_16
REMARK   11  A    between atoms: C11_16  and  O5_17
REMARK   12  A    between atoms: O5_17  and  C12_18
REMARK   13  A    between atoms: C12_18  and  C13_19
REMARK                            x       y       z     vdW  Elec       q    Type
REMARK                         _______ _______ _______ _____ _____    ______ ____
ROOT
ATOM      1  C7  UNL     1      25.381  -7.842 -39.096  0.00  0.00    +0.000 C 
ENDROOT
BRANCH   1   7
ATOM      2  C2  UNL     1      26.599  -9.936 -39.757  0.00  0.00    +0.000 C 
ATOM      3  C3  UNL     1      27.987 -10.634 -39.720  0.00  0.00    +0.000 C 
ATOM      4  C4  UNL     1      29.096  -9.751 -40.306  0.00  0.00    +0.000 C 
ATOM      5  C5  UNL     1      29.113  -8.395 -39.587  0.00  0.00    +0.000 C 
ATOM      6  C6  UNL     1      27.736  -7.721 -39.680  0.00  0.00    +0.000 C 
ATOM      7  N1  UNL     1      26.666  -8.582 -39.127  0.00  0.00    +0.000 NA
BRANCH   3   8
ATOM      8  O2  UNL     1      27.959 -11.863 -40.401  0.00  0.00    +0.000 OA
ATOM      9  H6  UNL     1      27.091 -12.292 -40.182  0.00  0.00    +0.000 HD
ENDBRANCH   3   8
BRANCH   4  10
ATOM     10  O3  UNL     1      30.330 -10.398 -40.129  0.00  0.00    +0.000 OA
ATOM     11  H8  UNL     1      30.904  -9.792 -39.593  0.00  0.00    +0.000 HD
ENDBRANCH   4  10
BRANCH   5  12
ATOM     12  O4  UNL     1      30.082  -7.567 -40.177  0.00  0.00    +0.000 OA
ATOM     13  H10 UNL     1      30.791  -8.162 -40.533  0.00  0.00    +0.000 HD
ENDBRANCH   5  12
BRANCH   2  14
ATOM     14  C1  UNL     1      25.914  -9.983 -41.154  0.00  0.00    +0.000 C 
BRANCH  14  15
ATOM     15  O1  UNL     1      25.067 -11.087 -41.289  0.00  0.00    +0.000 OA
ATOM     16  H1  UNL     1      25.627 -11.824 -41.648  0.00  0.00    +0.000 HD
ENDBRANCH  14  15
ENDBRANCH   2  14
ENDBRANCH   1   7
BRANCH   1  17
ATOM     17  C8  UNL     1      25.103  -7.210 -37.718  0.00  0.00    +0.000 C 
BRANCH  17  18
ATOM     18  C9  UNL     1      24.225  -8.116 -36.833  0.00  0.00    +0.000 C 
BRANCH  18  19
ATOM     19  C10 UNL     1      23.369  -7.324 -35.825  0.00  0.00    +0.000 C 
BRANCH  19  20
ATOM     20  C11 UNL     1      23.092  -8.125 -34.545  0.00  0.00    +0.000 C 
BRANCH  20  21
ATOM     21  O5  UNL     1      24.257  -8.802 -34.114  0.00  0.00    +0.000 OA
BRANCH  21  22
ATOM     22  C12 UNL     1      25.145  -7.945 -33.414  0.00  0.00    +0.000 C 
BRANCH  22  23
ATOM     23  C13 UNL     1      26.607  -8.214 -33.841  0.00  0.00    +0.000 C 
ATOM     24  C14 UNL     1      27.543  -8.246 -32.599  0.00  0.00    +0.000 C 
ATOM     25  C15 UNL     1      29.000  -8.504 -33.040  0.00  0.00    +0.000 C 
ATOM     26  C16 UNL     1      29.084  -9.859 -33.776  0.00  0.00    +0.000 C 
ATOM     27  C17 UNL     1      28.173  -9.828 -35.022  0.00  0.00    +0.000 C 
ATOM     28  C18 UNL     1      28.631  -8.695 -35.969  0.00  0.00    +0.000 C 
ATOM     29  C19 UNL     1      28.546  -7.340 -35.232  0.00  0.00    +0.000 C 
ATOM     30  C20 UNL     1      29.457  -7.373 -33.987  0.00  0.00    +0.000 C 
ATOM     31  C21 UNL     1      27.086  -7.084 -34.797  0.00  0.00    +0.000 C 
ATOM     32  C22 UNL     1      26.712  -9.575 -34.586  0.00  0.00    +0.000 C 
ENDBRANCH  22  23
ENDBRANCH  21  22
ENDBRANCH  20  21
ENDBRANCH  19  20
ENDBRANCH  18  19
ENDBRANCH  17  18
ENDBRANCH   1  17
TORSDOF 13
ENDMDL
MODEL 5
REMARK VINA RESULT:    -4.801      1.358      2.726
REMARK INTER + INTRA:          -9.877
REMARK INTER:                  -8.214
REMARK INTRA:                  -1.663
REMARK UNBOUND:                -1.989
REMARK  Name = resultss/4CJN/ligands/lig_109_t0.pdb
REMARK  13 active torsions:
REMARK  status: ('A' for Active; 'I' for Inactive)
REMARK    1  A    between atoms: O1_1  and  C1_2
REMARK    2  A    between atoms: C1_2  and  C2_3
REMARK    3  A    between atoms: C3_4  and  O2_5
REMARK    4  A    between atoms: C4_6  and  O3_7
REMARK    5  A    between atoms: C5_8  and  O4_9
REMARK    6  A    between atoms: N1_11  and  C7_12
REMARK    7  A    between atoms: C7_12  and  C8_13
REMARK    8  A    between atoms: C8_13  and  C9_14
REMARK    9  A    between atoms: C9_14  and  C10_15
REMARK   10  A    between atoms: C10_15  and  C11_16
REMARK   11  A    between atoms: C11_16  and  O5_17
REMARK   12  A    between atoms: O5_17  and  C12_18
REMARK   13  A    between atoms: C12_18  and  C13_19
REMARK                            x       y       z     vdW  Elec       q    Type
REMARK                         _______ _______ _______ _____ _____    ______ ____
ROOT
ATOM      1  C7  UNL     1      27.879  -7.233 -39.351  0.00  0.00    +0.000 C 
ENDROOT
BRANCH   1   7
ATOM      2  C2  UNL     1      25.696  -8.236 -40.083  0.00  0.00    +0.000 C 
ATOM      3  C3  UNL     1      25.053  -9.195 -41.122  0.00  0.00    +0.000 C 
ATOM      4  C4  UNL     1      25.412  -8.813 -42.564  0.00  0.00    +0.000 C 
ATOM      5  C5  UNL     1      26.937  -8.737 -42.717  0.00  0.00    +0.000 C 
ATOM      6  C6  UNL     1      27.530  -7.751 -41.699  0.00  0.00    +0.000 C 
ATOM      7  N1  UNL     1      27.169  -8.114 -40.310  0.00  0.00    +0.000 NA
BRANCH   3   8
ATOM      8  O2  UNL     1      23.655  -9.235 -40.984  0.00  0.00    +0.000 OA
ATOM      9  H6  UNL     1      23.412  -8.529 -40.329  0.00  0.00    +0.000 HD
ENDBRANCH   3   8
BRANCH   4  10
ATOM     10  O3  UNL     1      24.895  -9.789 -43.432  0.00  0.00    +0.000 OA
ATOM     11  H8  UNL     1      24.949 -10.659 -42.959  0.00  0.00    +0.000 HD
ENDBRANCH   4  10
BRANCH   5  12
ATOM     12  O4  UNL     1      27.256  -8.317 -44.018  0.00  0.00    +0.000 OA
ATOM     13  H10 UNL     1      27.237  -9.124 -44.593  0.00  0.00    +0.000 HD
ENDBRANCH   5  12
BRANCH   2  14
ATOM     14  C1  UNL     1      24.937  -6.886 -39.927  0.00  0.00    +0.000 C 
BRANCH  14  15
ATOM     15  O1  UNL     1      23.818  -7.003 -39.097  0.00  0.00    +0.000 OA
ATOM     16  H1  UNL     1      23.410  -7.884 -39.305  0.00  0.00    +0.000 HD
ENDBRANCH  14  15
ENDBRANCH   2  14
ENDBRANCH   1   7
BRANCH   1  17
ATOM     17  C8  UNL     1      27.899  -7.815 -37.925  0.00  0.00    +0.000 C 
BRANCH  17  18
ATOM     18  C9  UNL     1      28.667  -9.150 -37.855  0.00  0.00    +0.000 C 
BRANCH  18  19
ATOM     19  C10 UNL     1      28.183 -10.063 -36.711  0.00  0.00    +0.000 C 
BRANCH  19  20
ATOM     20  C11 UNL     1      28.834  -9.704 -35.368  0.00  0.00    +0.000 C 
BRANCH  20  21
ATOM     21  O5  UNL     1      27.928  -9.001 -34.542  0.00  0.00    +0.000 OA
BRANCH  21  22
ATOM     22  C12 UNL     1      26.689  -9.679 -34.409  0.00  0.00    +0.000 C 
BRANCH  22  23
ATOM     23  C13 UNL     1      25.518  -8.670 -34.375  0.00  0.00    +0.000 C 
ATOM     24  C14 UNL     1      26.002  -7.287 -33.855  0.00  0.00    +0.000 C 
ATOM     25  C15 UNL     1      24.821  -6.291 -33.816  0.00  0.00    +0.000 C 
ATOM     26  C16 UNL     1      24.239  -6.127 -35.237  0.00  0.00    +0.000 C 
ATOM     27  C17 UNL     1      23.737  -7.493 -35.752  0.00  0.00    +0.000 C 
ATOM     28  C18 UNL     1      22.643  -8.032 -34.804  0.00  0.00    +0.000 C 
ATOM     29  C19 UNL     1      23.226  -8.199 -33.383  0.00  0.00    +0.000 C 
ATOM     30  C20 UNL     1      23.726  -6.832 -32.870  0.00  0.00    +0.000 C 
ATOM     31  C21 UNL     1      24.404  -9.197 -33.426  0.00  0.00    +0.000 C 
ATOM     32  C22 UNL     1      24.916  -8.491 -35.799  0.00  0.00    +0.000 C 
ENDBRANCH  22  23
ENDBRANCH  21  22
ENDBRANCH  20  21
ENDBRANCH  19  20
ENDBRANCH  18  19
ENDBRANCH  17  18
ENDBRANCH   1  17
TORSDOF 13
ENDMDL
MODEL 6
REMARK VINA RESULT:    -4.707      1.593      4.304
REMARK INTER + INTRA:          -9.722
REMARK INTER:                  -7.784
REMARK INTRA:                  -1.938
REMARK UNBOUND:                -1.989
REMARK  Name = resultss/4CJN/ligands/lig_109_t0.pdb
REMARK  13 active torsions:
REMARK  status: ('A' for Active; 'I' for Inactive)
REMARK    1  A    between atoms: O1_1  and  C1_2
REMARK    2  A    between atoms: C1_2  and  C2_3
REMARK    3  A    between atoms: C3_4  and  O2_5
REMARK    4  A    between atoms: C4_6  and  O3_7
REMARK    5  A    between atoms: C5_8  and  O4_9
REMARK    6  A    between atoms: N1_11  and  C7_12
REMARK    7  A    between atoms: C7_12  and  C8_13
REMARK    8  A    between atoms: C8_13  and  C9_14
REMARK    9  A    between atoms: C9_14  and  C10_15
REMARK   10  A    between atoms: C10_15  and  C11_16
REMARK   11  A    between atoms: C11_16  and  O5_17
REMARK   12  A    between atoms: O5_17  and  C12_18
REMARK   13  A    between atoms: C12_18  and  C13_19
REMARK                            x       y       z     vdW  Elec       q    Type
REMARK                         _______ _______ _______ _____ _____    ______ ____
ROOT
ATOM      1  C7  UNL     1      25.013  -7.407 -38.014  0.00  0.00    +0.000 C 
ENDROOT
BRANCH   1   7
ATOM      2  C2  UNL     1      24.973  -8.963 -39.985  0.00  0.00    +0.000 C 
ATOM      3  C3  UNL     1      25.856  -9.916 -40.837  0.00  0.00    +0.000 C 
ATOM      4  C4  UNL     1      27.126  -9.226 -41.351  0.00  0.00    +0.000 C 
ATOM      5  C5  UNL     1      27.901  -8.621 -40.173  0.00  0.00    +0.000 C 
ATOM      6  C6  UNL     1      27.007  -7.657 -39.380  0.00  0.00    +0.000 C 
ATOM      7  N1  UNL     1      25.775  -8.322 -38.898  0.00  0.00    +0.000 NA
BRANCH   3   8
ATOM      8  O2  UNL     1      25.137 -10.443 -41.923  0.00  0.00    +0.000 OA
ATOM      9  H6  UNL     1      25.365  -9.886 -42.714  0.00  0.00    +0.000 HD
ENDBRANCH   3   8
BRANCH   4  10
ATOM     10  O3  UNL     1      27.923 -10.178 -42.007  0.00  0.00    +0.000 OA
ATOM     11  H8  UNL     1      27.312 -10.869 -42.374  0.00  0.00    +0.000 HD
ENDBRANCH   4  10
BRANCH   5  12
ATOM     12  O4  UNL     1      29.022  -7.930 -40.658  0.00  0.00    +0.000 OA
ATOM     13  H10 UNL     1      29.514  -7.589 -39.868  0.00  0.00    +0.000 HD
ENDBRANCH   5  12
BRANCH   2  14
ATOM     14  C1  UNL     1      24.111  -7.985 -40.835  0.00  0.00    +0.000 C 
BRANCH  14  15
ATOM     15  O1  UNL     1      23.117  -8.651 -41.559  0.00  0.00    +0.000 OA
ATOM     16  H1  UNL     1      22.453  -8.966 -40.892  0.00  0.00    +0.000 HD
ENDBRANCH  14  15
ENDBRANCH   2  14
ENDBRANCH   1   7
BRANCH   1  17
ATOM     17  C8  UNL     1      24.226  -8.163 -36.927  0.00  0.00    +0.000 C 
BRANCH  17  18
ATOM     18  C9  UNL     1      23.322  -7.222 -36.106  0.00  0.00    +0.000 C 
BRANCH  18  19
ATOM     19  C10 UNL     1      22.570  -7.947 -34.973  0.00  0.00    +0.000 C 
BRANCH  19  20
ATOM     20  C11 UNL     1      23.078  -7.534 -33.584  0.00  0.00    +0.000 C 
BRANCH  20  21
ATOM     21  O5  UNL     1      24.269  -8.223 -33.259  0.00  0.00    +0.000 OA
BRANCH  21  22
ATOM     22  C12 UNL     1      25.368  -7.342 -33.087  0.00  0.00    +0.000 C 
BRANCH  22  23
ATOM     23  C13 UNL     1      26.638  -7.923 -33.750  0.00  0.00    +0.000 C 
ATOM     24  C14 UNL     1      26.388  -9.381 -34.228  0.00  0.00    +0.000 C 
ATOM     25  C15 UNL     1      27.668  -9.954 -34.878  0.00  0.00    +0.000 C 
ATOM     26  C16 UNL     1      28.064  -9.081 -36.089  0.00  0.00    +0.000 C 
ATOM     27  C17 UNL     1      28.335  -7.635 -35.619  0.00  0.00    +0.000 C 
ATOM     28  C18 UNL     1      29.480  -7.635 -34.582  0.00  0.00    +0.000 C 
ATOM     29  C19 UNL     1      29.083  -8.506 -33.370  0.00  0.00    +0.000 C 
ATOM     30  C20 UNL     1      28.814  -9.951 -33.842  0.00  0.00    +0.000 C 
ATOM     31  C21 UNL     1      27.805  -7.929 -32.722  0.00  0.00    +0.000 C 
ATOM     32  C22 UNL     1      27.055  -7.057 -34.973  0.00  0.00    +0.000 C 
ENDBRANCH  22  23
ENDBRANCH  21  22
ENDBRANCH  20  21
ENDBRANCH  19  20
ENDBRANCH  18  19
ENDBRANCH  17  18
ENDBRANCH   1  17
TORSDOF 13
ENDMDL
MODEL 7
REMARK VINA RESULT:    -4.684      1.582      3.902
REMARK INTER + INTRA:          -9.686
REMARK INTER:                  -7.809
REMARK INTRA:                  -1.877
REMARK UNBOUND:                -1.989
REMARK  Name = resultss/4CJN/ligands/lig_109_t0.pdb
REMARK  13 active torsions:
REMARK  status: ('A' for Active; 'I' for Inactive)
REMARK    1  A    between atoms: O1_1  and  C1_2
REMARK    2  A    between atoms: C1_2  and  C2_3
REMARK    3  A    between atoms: C3_4  and  O2_5
REMARK    4  A    between atoms: C4_6  and  O3_7
REMARK    5  A    between atoms: C5_8  and  O4_9
REMARK    6  A    between atoms: N1_11  and  C7_12
REMARK    7  A    between atoms: C7_12  and  C8_13
REMARK    8  A    between atoms: C8_13  and  C9_14
REMARK    9  A    between atoms: C9_14  and  C10_15
REMARK   10  A    between atoms: C10_15  and  C11_16
REMARK   11  A    between atoms: C11_16  and  O5_17
REMARK   12  A    between atoms: O5_17  and  C12_18
REMARK   13  A    between atoms: C12_18  and  C13_19
REMARK                            x       y       z     vdW  Elec       q    Type
REMARK                         _______ _______ _______ _____ _____    ______ ____
ROOT
ATOM      1  C7  UNL     1      26.018  -7.809 -37.994  0.00  0.00    +0.000 C 
ENDROOT
BRANCH   1   7
ATOM      2  C2  UNL     1      27.237  -8.888 -39.906  0.00  0.00    +0.000 C 
ATOM      3  C3  UNL     1      27.200  -9.100 -41.445  0.00  0.00    +0.000 C 
ATOM      4  C4  UNL     1      25.858  -9.673 -41.919  0.00  0.00    +0.000 C 
ATOM      5  C5  UNL     1      24.710  -8.778 -41.433  0.00  0.00    +0.000 C 
ATOM      6  C6  UNL     1      24.760  -8.624 -39.906  0.00  0.00    +0.000 C 
ATOM      7  N1  UNL     1      26.061  -8.085 -39.450  0.00  0.00    +0.000 NA
BRANCH   3   8
ATOM      8  O2  UNL     1      28.243  -9.941 -41.870  0.00  0.00    +0.000 OA
ATOM      9  H6  UNL     1      28.859  -9.381 -42.413  0.00  0.00    +0.000 HD
ENDBRANCH   3   8
BRANCH   4  10
ATOM     10  O3  UNL     1      25.860  -9.725 -43.323  0.00  0.00    +0.000 OA
ATOM     11  H8  UNL     1      26.774  -9.988 -43.605  0.00  0.00    +0.000 HD
ENDBRANCH   4  10
BRANCH   5  12
ATOM     12  O4  UNL     1      23.483  -9.347 -41.809  0.00  0.00    +0.000 OA
ATOM     13  H10 UNL     1      22.884  -9.282 -41.022  0.00  0.00    +0.000 HD
ENDBRANCH   5  12
BRANCH   2  14
ATOM     14  C1  UNL     1      27.498 -10.195 -39.102  0.00  0.00    +0.000 C 
BRANCH  14  15
ATOM     15  O1  UNL     1      28.843 -10.574 -39.134  0.00  0.00    +0.000 OA
ATOM     16  H1  UNL     1      29.080 -10.674 -40.093  0.00  0.00    +0.000 HD
ENDBRANCH  14  15
ENDBRANCH   2  14
ENDBRANCH   1   7
BRANCH   1  17
ATOM     17  C8  UNL     1      24.718  -8.319 -37.340  0.00  0.00    +0.000 C 
BRANCH  17  18
ATOM     18  C9  UNL     1      23.994  -7.210 -36.552  0.00  0.00    +0.000 C 
BRANCH  18  19
ATOM     19  C10 UNL     1      23.048  -7.763 -35.468  0.00  0.00    +0.000 C 
BRANCH  19  20
ATOM     20  C11 UNL     1      23.279  -7.097 -34.104  0.00  0.00    +0.000 C 
BRANCH  20  21
ATOM     21  O5  UNL     1      24.661  -6.953 -33.843  0.00  0.00    +0.000 OA
BRANCH  21  22
ATOM     22  C12 UNL     1      25.215  -8.111 -33.239  0.00  0.00    +0.000 C 
BRANCH  22  23
ATOM     23  C13 UNL     1      26.692  -8.289 -33.662  0.00  0.00    +0.000 C 
ATOM     24  C14 UNL     1      27.624  -8.277 -32.417  0.00  0.00    +0.000 C 
ATOM     25  C15 UNL     1      29.096  -8.444 -32.854  0.00  0.00    +0.000 C 
ATOM     26  C16 UNL     1      29.262  -9.785 -33.602  0.00  0.00    +0.000 C 
ATOM     27  C17 UNL     1      28.355  -9.796 -34.852  0.00  0.00    +0.000 C 
ATOM     28  C18 UNL     1      28.749  -8.630 -35.786  0.00  0.00    +0.000 C 
ATOM     29  C19 UNL     1      28.581  -7.289 -35.038  0.00  0.00    +0.000 C 
ATOM     30  C20 UNL     1      29.488  -7.279 -33.790  0.00  0.00    +0.000 C 
ATOM     31  C21 UNL     1      27.107  -7.124 -34.606  0.00  0.00    +0.000 C 
ATOM     32  C22 UNL     1      26.881  -9.635 -34.419  0.00  0.00    +0.000 C 
ENDBRANCH  22  23
ENDBRANCH  21  22
ENDBRANCH  20  21
ENDBRANCH  19  20
ENDBRANCH  18  19
ENDBRANCH  17  18
ENDBRANCH   1  17
TORSDOF 13
ENDMDL
MODEL 8
REMARK VINA RESULT:    -4.654      3.143      7.069
REMARK INTER + INTRA:          -9.636
REMARK INTER:                  -8.025
REMARK INTRA:                  -1.611
REMARK UNBOUND:                -1.989
REMARK  Name = resultss/4CJN/ligands/lig_109_t0.pdb
REMARK  13 active torsions:
REMARK  status: ('A' for Active; 'I' for Inactive)
REMARK    1  A    between atoms: O1_1  and  C1_2
REMARK    2  A    between atoms: C1_2  and  C2_3
REMARK    3  A    between atoms: C3_4  and  O2_5
REMARK    4  A    between atoms: C4_6  and  O3_7
REMARK    5  A    between atoms: C5_8  and  O4_9
REMARK    6  A    between atoms: N1_11  and  C7_12
REMARK    7  A    between atoms: C7_12  and  C8_13
REMARK    8  A    between atoms: C8_13  and  C9_14
REMARK    9  A    between atoms: C9_14  and  C10_15
REMARK   10  A    between atoms: C10_15  and  C11_16
REMARK   11  A    between atoms: C11_16  and  O5_17
REMARK   12  A    between atoms: O5_17  and  C12_18
REMARK   13  A    between atoms: C12_18  and  C13_19
REMARK                            x       y       z     vdW  Elec       q    Type
REMARK                         _______ _______ _______ _____ _____    ______ ____
ROOT
ATOM      1  C7  UNL     1      28.488  -8.651 -36.483  0.00  0.00    +0.000 C 
ENDROOT
BRANCH   1   7
ATOM      2  C2  UNL     1      26.900  -8.527 -34.541  0.00  0.00    +0.000 C 
ATOM      3  C3  UNL     1      26.644  -7.812 -33.186  0.00  0.00    +0.000 C 
ATOM      4  C4  UNL     1      27.855  -7.897 -32.248  0.00  0.00    +0.000 C 
ATOM      5  C5  UNL     1      29.102  -7.355 -32.959  0.00  0.00    +0.000 C 
ATOM      6  C6  UNL     1      29.342  -8.113 -34.273  0.00  0.00    +0.000 C 
ATOM      7  N1  UNL     1      28.166  -8.041 -35.170  0.00  0.00    +0.000 NA
BRANCH   3   8
ATOM      8  O2  UNL     1      25.513  -8.335 -32.537  0.00  0.00    +0.000 OA
ATOM      9  H6  UNL     1      25.760  -8.455 -31.583  0.00  0.00    +0.000 HD
ENDBRANCH   3   8
BRANCH   4  10
ATOM     10  O3  UNL     1      27.592  -7.132 -31.100  0.00  0.00    +0.000 OA
ATOM     11  H8  UNL     1      26.710  -7.423 -30.750  0.00  0.00    +0.000 HD
ENDBRANCH   4  10
BRANCH   5  12
ATOM     12  O4  UNL     1      30.219  -7.503 -32.121  0.00  0.00    +0.000 OA
ATOM     13  H10 UNL     1      30.941  -6.942 -32.503  0.00  0.00    +0.000 HD
ENDBRANCH   5  12
BRANCH   2  14
ATOM     14  C1  UNL     1      26.749 -10.075 -34.469  0.00  0.00    +0.000 C 
BRANCH  14  15
ATOM     15  O1  UNL     1      25.410 -10.476 -34.492  0.00  0.00    +0.000 OA
ATOM     16  H1  UNL     1      25.278 -11.046 -33.690  0.00  0.00    +0.000 HD
ENDBRANCH  14  15
ENDBRANCH   2  14
ENDBRANCH   1   7
BRANCH   1  17
ATOM     17  C8  UNL     1      29.786  -9.481 -36.440  0.00  0.00    +0.000 C 
BRANCH  17  18
ATOM     18  C9  UNL     1      30.204  -9.974 -37.839  0.00  0.00    +0.000 C 
BRANCH  18  19
ATOM     19  C10 UNL     1      31.367  -9.162 -38.441  0.00  0.00    +0.000 C 
BRANCH  19  20
ATOM     20  C11 UNL     1      31.678  -9.579 -39.886  0.00  0.00    +0.000 C 
BRANCH  20  21
ATOM     21  O5  UNL     1      30.892  -8.843 -40.801  0.00  0.00    +0.000 OA
BRANCH  21  22
ATOM     22  C12 UNL     1      30.087  -9.684 -41.613  0.00  0.00    +0.000 C 
BRANCH  22  23
ATOM     23  C13 UNL     1      28.587  -9.409 -41.360  0.00  0.00    +0.000 C 
ATOM     24  C14 UNL     1      27.934 -10.593 -40.592  0.00  0.00    +0.000 C 
ATOM     25  C15 UNL     1      26.435 -10.310 -40.355  0.00  0.00    +0.000 C 
ATOM     26  C16 UNL     1      26.279  -9.017 -39.526  0.00  0.00    +0.000 C 
ATOM     27  C17 UNL     1      26.906  -7.832 -40.292  0.00  0.00    +0.000 C 
ATOM     28  C18 UNL     1      26.195  -7.663 -41.653  0.00  0.00    +0.000 C 
ATOM     29  C19 UNL     1      26.352  -8.957 -42.483  0.00  0.00    +0.000 C 
ATOM     30  C20 UNL     1      25.724 -10.140 -41.716  0.00  0.00    +0.000 C 
ATOM     31  C21 UNL     1      27.853  -9.234 -42.720  0.00  0.00    +0.000 C 
ATOM     32  C22 UNL     1      28.408  -8.108 -40.526  0.00  0.00    +0.000 C 
ENDBRANCH  22  23
ENDBRANCH  21  22
ENDBRANCH  20  21
ENDBRANCH  19  20
ENDBRANCH  18  19
ENDBRANCH  17  18
ENDBRANCH   1  17
TORSDOF 13
ENDMDL
MODEL 9
REMARK VINA RESULT:    -4.618      1.800      4.490
REMARK INTER + INTRA:          -9.576
REMARK INTER:                  -7.770
REMARK INTRA:                  -1.806
REMARK UNBOUND:                -1.989
REMARK  Name = resultss/4CJN/ligands/lig_109_t0.pdb
REMARK  13 active torsions:
REMARK  status: ('A' for Active; 'I' for Inactive)
REMARK    1  A    between atoms: O1_1  and  C1_2
REMARK    2  A    between atoms: C1_2  and  C2_3
REMARK    3  A    between atoms: C3_4  and  O2_5
REMARK    4  A    between atoms: C4_6  and  O3_7
REMARK    5  A    between atoms: C5_8  and  O4_9
REMARK    6  A    between atoms: N1_11  and  C7_12
REMARK    7  A    between atoms: C7_12  and  C8_13
REMARK    8  A    between atoms: C8_13  and  C9_14
REMARK    9  A    between atoms: C9_14  and  C10_15
REMARK   10  A    between atoms: C10_15  and  C11_16
REMARK   11  A    between atoms: C11_16  and  O5_17
REMARK   12  A    between atoms: O5_17  and  C12_18
REMARK   13  A    between atoms: C12_18  and  C13_19
REMARK                            x       y       z     vdW  Elec       q    Type
REMARK                         _______ _______ _______ _____ _____    ______ ____
ROOT
ATOM      1  C7  UNL     1      24.955  -7.822 -38.381  0.00  0.00    +0.000 C 
ENDROOT
BRANCH   1   7
ATOM      2  C2  UNL     1      26.041  -8.678 -40.477  0.00  0.00    +0.000 C 
ATOM      3  C3  UNL     1      26.827  -9.880 -41.071  0.00  0.00    +0.000 C 
ATOM      4  C4  UNL     1      28.061 -10.237 -40.232  0.00  0.00    +0.000 C 
ATOM      5  C5  UNL     1      27.646 -10.483 -38.775  0.00  0.00    +0.000 C 
ATOM      6  C6  UNL     1      26.907  -9.259 -38.214  0.00  0.00    +0.000 C 
ATOM      7  N1  UNL     1      25.725  -8.909 -39.034  0.00  0.00    +0.000 NA
BRANCH   3   8
ATOM      8  O2  UNL     1      27.220  -9.630 -42.397  0.00  0.00    +0.000 OA
ATOM      9  H6  UNL     1      26.920  -8.708 -42.615  0.00  0.00    +0.000 HD
ENDBRANCH   3   8
BRANCH   4  10
ATOM     10  O3  UNL     1      28.647 -11.398 -40.762  0.00  0.00    +0.000 OA
ATOM     11  H8  UNL     1      28.799 -11.234 -41.729  0.00  0.00    +0.000 HD
ENDBRANCH   4  10
BRANCH   5  12
ATOM     12  O4  UNL     1      28.789 -10.737 -38.001  0.00  0.00    +0.000 OA
ATOM     13  H10 UNL     1      29.572 -10.626 -38.599  0.00  0.00    +0.000 HD
ENDBRANCH   5  12
BRANCH   2  14
ATOM     14  C1  UNL     1      26.677  -7.295 -40.803  0.00  0.00    +0.000 C 
BRANCH  14  15
ATOM     15  O1  UNL     1      26.342  -6.850 -42.086  0.00  0.00    +0.000 OA
ATOM     16  H1  UNL     1      25.353  -6.899 -42.146  0.00  0.00    +0.000 HD
ENDBRANCH  14  15
ENDBRANCH   2  14
ENDBRANCH   1   7
BRANCH   1  17
ATOM     17  C8  UNL     1      24.952  -7.949 -36.845  0.00  0.00    +0.000 C 
BRANCH  17  18
ATOM     18  C9  UNL     1      23.544  -7.753 -36.251  0.00  0.00    +0.000 C 
BRANCH  18  19
ATOM     19  C10 UNL     1      23.467  -8.112 -34.754  0.00  0.00    +0.000 C 
BRANCH  19  20
ATOM     20  C11 UNL     1      23.739  -6.898 -33.853  0.00  0.00    +0.000 C 
BRANCH  20  21
ATOM     21  O5  UNL     1      25.017  -6.991 -33.258  0.00  0.00    +0.000 OA
BRANCH  21  22
ATOM     22  C12 UNL     1      25.502  -8.325 -33.237  0.00  0.00    +0.000 C 
BRANCH  22  23
ATOM     23  C13 UNL     1      27.021  -8.354 -33.526  0.00  0.00    +0.000 C 
ATOM     24  C14 UNL     1      27.831  -8.333 -32.198  0.00  0.00    +0.000 C 
ATOM     25  C15 UNL     1      29.346  -8.351 -32.501  0.00  0.00    +0.000 C 
ATOM     26  C16 UNL     1      29.698  -9.629 -33.292  0.00  0.00    +0.000 C 
ATOM     27  C17 UNL     1      28.913  -9.647 -34.622  0.00  0.00    +0.000 C 
ATOM     28  C18 UNL     1      29.284  -8.402 -35.458  0.00  0.00    +0.000 C 
ATOM     29  C19 UNL     1      28.931  -7.123 -34.666  0.00  0.00    +0.000 C 
ATOM     30  C20 UNL     1      29.717  -7.107 -33.338  0.00  0.00    +0.000 C 
ATOM     31  C21 UNL     1      27.415  -7.107 -34.369  0.00  0.00    +0.000 C 
ATOM     32  C22 UNL     1      27.397  -9.635 -34.324  0.00  0.00    +0.000 C 
ENDBRANCH  22  23
ENDBRANCH  21  22
ENDBRANCH  20  21
ENDBRANCH  19  20
ENDBRANCH  18  19
ENDBRANCH  17  18
ENDBRANCH   1  17
TORSDOF 13
ENDMDL
