MODEL 1
REMARK VINA RESULT:    -6.331      0.000      0.000
REMARK INTER + INTRA:         -12.538
REMARK INTER:                  -9.662
REMARK INTRA:                  -2.876
REMARK UNBOUND:                -2.876
REMARK  Name = resultss/4CJN/ligands/lig_353_t0.pdb
REMARK  10 active torsions:
REMARK  status: ('A' for Active; 'I' for Inactive)
REMARK    1  A    between atoms: C1_1  and  C2_2
REMARK    2  A    between atoms: C5_5  and  N1_6
REMARK    3  A    between atoms: C6_7  and  C7_9
REMARK    4  A    between atoms: C7_9  and  N2_10
REMARK    5  A    between atoms: C9_12  and  C10_13
REMARK    6  A    between atoms: C10_13  and  O2_14
REMARK    7  A    between atoms: O2_14  and  C11_15
REMARK    8  A    between atoms: C14_18  and  C15_19
REMARK    9  A    between atoms: N4_29  and  N5_30
REMARK   10  A    between atoms: N5_30  and  C23_31
REMARK                            x       y       z     vdW  Elec       q    Type
REMARK                         _______ _______ _______ _____ _____    ______ ____
ROOT
ATOM      1  C11 UNL     1      24.951  -8.279 -38.892  0.00  0.00    +0.000 A 
ATOM      2  C12 UNL     1      24.634  -9.008 -40.044  0.00  0.00    +0.000 A 
ATOM      3  C13 UNL     1      24.892  -8.478 -41.312  0.00  0.00    +0.000 A 
ATOM      4  C14 UNL     1      25.485  -7.215 -41.445  0.00  0.00    +0.000 A 
ATOM      5  C29 UNL     1      25.821  -6.487 -40.289  0.00  0.00    +0.000 A 
ATOM      6  C30 UNL     1      25.562  -7.016 -39.023  0.00  0.00    +0.000 A 
ENDROOT
BRANCH   4   7
ATOM      7  C15 UNL     1      25.701  -6.613 -42.818  0.00  0.00    +0.000 C 
ATOM      8  N3  UNL     1      24.662  -7.099 -43.733  0.00  0.00    +0.000 N 
ATOM      9  C16 UNL     1      24.857  -7.114 -45.154  0.00  0.00    +0.000 A 
ATOM     10  C17 UNL     1      23.761  -7.257 -46.016  0.00  0.00    +0.000 A 
ATOM     11  C18 UNL     1      23.954  -7.277 -47.401  0.00  0.00    +0.000 A 
ATOM     12  C19 UNL     1      25.242  -7.154 -47.930  0.00  0.00    +0.000 A 
ATOM     13  C20 UNL     1      26.340  -7.018 -47.074  0.00  0.00    +0.000 A 
ATOM     14  C21 UNL     1      26.151  -7.006 -45.683  0.00  0.00    +0.000 A 
ATOM     15  C22 UNL     1      27.289  -6.936 -44.751  0.00  0.00    +0.000 C 
ATOM     16  O3  UNL     1      28.473  -6.924 -45.188  0.00  0.00    +0.000 OA
ATOM     17  N4  UNL     1      27.047  -6.926 -43.336  0.00  0.00    +0.000 N 
ATOM     18  H15 UNL     1      23.693  -7.236 -43.356  0.00  0.00    +0.000 HD
BRANCH  17  19
ATOM     19  N5  UNL     1      28.126  -7.166 -42.462  0.00  0.00    +0.000 N 
ATOM     20  H20 UNL     1      28.316  -6.442 -41.734  0.00  0.00    +0.000 HD
BRANCH  19  21
ATOM     21  C23 UNL     1      28.639  -8.489 -42.243  0.00  0.00    +0.000 A 
ATOM     22  C24 UNL     1      29.631  -9.035 -43.080  0.00  0.00    +0.000 A 
ATOM     23  C25 UNL     1      30.120 -10.325 -42.841  0.00  0.00    +0.000 A 
ATOM     24  C26 UNL     1      29.617 -11.081 -41.773  0.00  0.00    +0.000 A 
ATOM     25  C27 UNL     1      28.637 -10.540 -40.933  0.00  0.00    +0.000 A 
ATOM     26  C28 UNL     1      28.156  -9.247 -41.162  0.00  0.00    +0.000 A 
ENDBRANCH  19  21
ENDBRANCH  17  19
ENDBRANCH   4   7
BRANCH   1  27
ATOM     27  O2  UNL     1      24.625  -8.832 -37.643  0.00  0.00    +0.000 OA
BRANCH  27  28
ATOM     28  C10 UNL     1      24.794  -8.176 -36.386  0.00  0.00    +0.000 C 
BRANCH  28  31
ATOM     29  N2  UNL     1      27.840  -9.008 -34.601  0.00  0.00    +0.000 N 
ATOM     30  C8  UNL     1      27.024  -8.077 -35.119  0.00  0.00    +0.000 A 
ATOM     31  C9  UNL     1      25.952  -8.764 -35.641  0.00  0.00    +0.000 A 
ATOM     32  N6  UNL     1      26.138 -10.080 -35.421  0.00  0.00    +0.000 NA
ATOM     33  N7  UNL     1      27.294 -10.198 -34.782  0.00  0.00    +0.000 NA
BRANCH  29  34
ATOM     34  C7  UNL     1      29.114  -8.780 -33.929  0.00  0.00    +0.000 C 
BRANCH  34  36
ATOM     35  N1  UNL     1      30.173  -9.570 -36.096  0.00  0.00    +0.000 N 
ATOM     36  C6  UNL     1      30.223  -8.730 -34.933  0.00  0.00    +0.000 C 
ATOM     37  O1  UNL     1      31.223  -7.987 -34.720  0.00  0.00    +0.000 OA
ATOM     38  H6  UNL     1      29.516 -10.387 -36.085  0.00  0.00    +0.000 HD
BRANCH  35  43
ATOM     39  C1  UNL     1      33.548  -8.985 -40.721  0.00  0.00    +0.000 C 
ATOM     40  C2  UNL     1      32.655  -9.143 -39.526  0.00  0.00    +0.000 A 
ATOM     41  C3  UNL     1      33.093  -9.877 -38.412  0.00  0.00    +0.000 A 
ATOM     42  C4  UNL     1      32.272 -10.007 -37.286  0.00  0.00    +0.000 A 
ATOM     43  C5  UNL     1      31.016  -9.385 -37.246  0.00  0.00    +0.000 A 
ATOM     44  C31 UNL     1      30.581  -8.645 -38.359  0.00  0.00    +0.000 A 
ATOM     45  C32 UNL     1      31.401  -8.518 -39.486  0.00  0.00    +0.000 A 
ENDBRANCH  35  43
ENDBRANCH  34  36
ENDBRANCH  29  34
ENDBRANCH  28  31
ENDBRANCH  27  28
ENDBRANCH   1  27
TORSDOF 9
ENDMDL
MODEL 2
REMARK VINA RESULT:    -6.278      3.212      8.797
REMARK INTER + INTRA:         -12.457
REMARK INTER:                 -11.564
REMARK INTRA:                  -0.893
REMARK UNBOUND:                -2.876
REMARK  Name = resultss/4CJN/ligands/lig_353_t0.pdb
REMARK  10 active torsions:
REMARK  status: ('A' for Active; 'I' for Inactive)
REMARK    1  A    between atoms: C1_1  and  C2_2
REMARK    2  A    between atoms: C5_5  and  N1_6
REMARK    3  A    between atoms: C6_7  and  C7_9
REMARK    4  A    between atoms: C7_9  and  N2_10
REMARK    5  A    between atoms: C9_12  and  C10_13
REMARK    6  A    between atoms: C10_13  and  O2_14
REMARK    7  A    between atoms: O2_14  and  C11_15
REMARK    8  A    between atoms: C14_18  and  C15_19
REMARK    9  A    between atoms: N4_29  and  N5_30
REMARK   10  A    between atoms: N5_30  and  C23_31
REMARK                            x       y       z     vdW  Elec       q    Type
REMARK                         _______ _______ _______ _____ _____    ______ ____
ROOT
ATOM      1  C11 UNL     1      25.223  -7.457 -39.128  0.00  0.00    +0.000 A 
ATOM      2  C12 UNL     1      25.387  -8.501 -38.210  0.00  0.00    +0.000 A 
ATOM      3  C13 UNL     1      26.251  -8.361 -37.120  0.00  0.00    +0.000 A 
ATOM      4  C14 UNL     1      26.955  -7.164 -36.924  0.00  0.00    +0.000 A 
ATOM      5  C29 UNL     1      26.780  -6.106 -37.834  0.00  0.00    +0.000 A 
ATOM      6  C30 UNL     1      25.917  -6.247 -38.923  0.00  0.00    +0.000 A 
ENDROOT
BRANCH   4   7
ATOM      7  C15 UNL     1      27.942  -7.037 -35.783  0.00  0.00    +0.000 C 
ATOM      8  N3  UNL     1      28.802  -8.226 -35.746  0.00  0.00    +0.000 N 
ATOM      9  C16 UNL     1      29.476  -8.630 -34.547  0.00  0.00    +0.000 A 
ATOM     10  C17 UNL     1      30.536  -9.547 -34.607  0.00  0.00    +0.000 A 
ATOM     11  C18 UNL     1      31.189  -9.943 -33.436  0.00  0.00    +0.000 A 
ATOM     12  C19 UNL     1      30.787  -9.426 -32.201  0.00  0.00    +0.000 A 
ATOM     13  C20 UNL     1      29.727  -8.517 -32.134  0.00  0.00    +0.000 A 
ATOM     14  C21 UNL     1      29.062  -8.122 -33.307  0.00  0.00    +0.000 A 
ATOM     15  C22 UNL     1      27.897  -7.223 -33.268  0.00  0.00    +0.000 C 
ATOM     16  O3  UNL     1      27.442  -6.814 -32.164  0.00  0.00    +0.000 OA
ATOM     17  N4  UNL     1      27.251  -6.847 -34.493  0.00  0.00    +0.000 N 
ATOM     18  H15 UNL     1      29.090  -8.658 -36.657  0.00  0.00    +0.000 HD
BRANCH  17  19
ATOM     19  N5  UNL     1      25.977  -6.248 -34.431  0.00  0.00    +0.000 N 
ATOM     20  H20 UNL     1      25.901  -5.259 -34.758  0.00  0.00    +0.000 HD
BRANCH  19  21
ATOM     21  C23 UNL     1      24.775  -7.034 -34.387  0.00  0.00    +0.000 A 
ATOM     22  C24 UNL     1      24.651  -8.129 -33.511  0.00  0.00    +0.000 A 
ATOM     23  C25 UNL     1      23.467  -8.875 -33.483  0.00  0.00    +0.000 A 
ATOM     24  C26 UNL     1      22.404  -8.540 -34.334  0.00  0.00    +0.000 A 
ATOM     25  C27 UNL     1      22.519  -7.447 -35.200  0.00  0.00    +0.000 A 
ATOM     26  C28 UNL     1      23.696  -6.693 -35.221  0.00  0.00    +0.000 A 
ENDBRANCH  19  21
ENDBRANCH  17  19
ENDBRANCH   4   7
BRANCH   1  27
ATOM     27  O2  UNL     1      24.384  -7.666 -40.233  0.00  0.00    +0.000 OA
BRANCH  27  28
ATOM     28  C10 UNL     1      24.756  -8.355 -41.427  0.00  0.00    +0.000 C 
BRANCH  28  31
ATOM     29  N2  UNL     1      27.868 -10.133 -40.859  0.00  0.00    +0.000 N 
ATOM     30  C8  UNL     1      27.218  -8.972 -41.039  0.00  0.00    +0.000 A 
ATOM     31  C9  UNL     1      25.887  -9.300 -41.153  0.00  0.00    +0.000 A 
ATOM     32  N6  UNL     1      25.762 -10.636 -41.032  0.00  0.00    +0.000 NA
ATOM     33  N7  UNL     1      26.984 -11.116 -40.851  0.00  0.00    +0.000 NA
BRANCH  29  34
ATOM     34  C7  UNL     1      29.304 -10.314 -40.684  0.00  0.00    +0.000 C 
BRANCH  34  36
ATOM     35  N1  UNL     1      31.310 -11.008 -42.075  0.00  0.00    +0.000 N 
ATOM     36  C6  UNL     1      29.962 -10.520 -42.013  0.00  0.00    +0.000 C 
ATOM     37  O1  UNL     1      29.342 -10.210 -43.068  0.00  0.00    +0.000 OA
ATOM     38  H6  UNL     1      31.896 -10.949 -41.207  0.00  0.00    +0.000 HD
BRANCH  35  43
ATOM     39  C1  UNL     1      33.874 -12.996 -46.829  0.00  0.00    +0.000 C 
ATOM     40  C2  UNL     1      33.214 -12.490 -45.580  0.00  0.00    +0.000 A 
ATOM     41  C3  UNL     1      33.277 -11.126 -45.254  0.00  0.00    +0.000 A 
ATOM     42  C4  UNL     1      32.643 -10.646 -44.102  0.00  0.00    +0.000 A 
ATOM     43  C5  UNL     1      31.916 -11.516 -43.276  0.00  0.00    +0.000 A 
ATOM     44  C31 UNL     1      31.848 -12.880 -43.608  0.00  0.00    +0.000 A 
ATOM     45  C32 UNL     1      32.486 -13.360 -44.757  0.00  0.00    +0.000 A 
ENDBRANCH  35  43
ENDBRANCH  34  36
ENDBRANCH  29  34
ENDBRANCH  28  31
ENDBRANCH  27  28
ENDBRANCH   1  27
TORSDOF 9
ENDMDL
MODEL 3
REMARK VINA RESULT:    -6.190      3.032      8.900
REMARK INTER + INTRA:         -12.324
REMARK INTER:                  -9.881
REMARK INTRA:                  -2.443
REMARK UNBOUND:                -2.876
REMARK  Name = resultss/4CJN/ligands/lig_353_t0.pdb
REMARK  10 active torsions:
REMARK  status: ('A' for Active; 'I' for Inactive)
REMARK    1  A    between atoms: C1_1  and  C2_2
REMARK    2  A    between atoms: C5_5  and  N1_6
REMARK    3  A    between atoms: C6_7  and  C7_9
REMARK    4  A    between atoms: C7_9  and  N2_10
REMARK    5  A    between atoms: C9_12  and  C10_13
REMARK    6  A    between atoms: C10_13  and  O2_14
REMARK    7  A    between atoms: O2_14  and  C11_15
REMARK    8  A    between atoms: C14_18  and  C15_19
REMARK    9  A    between atoms: N4_29  and  N5_30
REMARK   10  A    between atoms: N5_30  and  C23_31
REMARK                            x       y       z     vdW  Elec       q    Type
REMARK                         _______ _______ _______ _____ _____    ______ ____
ROOT
ATOM      1  C11 UNL     1      25.816  -8.645 -33.967  0.00  0.00    +0.000 A 
ATOM      2  C12 UNL     1      26.769  -8.022 -33.153  0.00  0.00    +0.000 A 
ATOM      3  C13 UNL     1      28.118  -8.379 -33.236  0.00  0.00    +0.000 A 
ATOM      4  C14 UNL     1      28.537  -9.357 -34.148  0.00  0.00    +0.000 A 
ATOM      5  C29 UNL     1      27.585  -9.974 -34.981  0.00  0.00    +0.000 A 
ATOM      6  C30 UNL     1      26.238  -9.617 -34.897  0.00  0.00    +0.000 A 
ENDROOT
BRANCH   4   7
ATOM      7  C15 UNL     1      29.986  -9.793 -34.190  0.00  0.00    +0.000 C 
ATOM      8  N3  UNL     1      30.353 -10.391 -32.901  0.00  0.00    +0.000 N 
ATOM      9  C16 UNL     1      31.716 -10.449 -32.459  0.00  0.00    +0.000 A 
ATOM     10  C17 UNL     1      32.084 -11.304 -31.410  0.00  0.00    +0.000 A 
ATOM     11  C18 UNL     1      33.412 -11.355 -30.977  0.00  0.00    +0.000 A 
ATOM     12  C19 UNL     1      34.380 -10.553 -31.591  0.00  0.00    +0.000 A 
ATOM     13  C20 UNL     1      34.018  -9.694 -32.633  0.00  0.00    +0.000 A 
ATOM     14  C21 UNL     1      32.683  -9.633 -33.065  0.00  0.00    +0.000 A 
ATOM     15  C22 UNL     1      32.253  -8.689 -34.110  0.00  0.00    +0.000 C 
ATOM     16  O3  UNL     1      33.077  -7.879 -34.618  0.00  0.00    +0.000 OA
ATOM     17  N4  UNL     1      30.877  -8.664 -34.519  0.00  0.00    +0.000 N 
ATOM     18  H15 UNL     1      29.637 -10.968 -32.399  0.00  0.00    +0.000 HD
BRANCH  17  19
ATOM     19  N5  UNL     1      30.417  -7.572 -35.281  0.00  0.00    +0.000 N 
ATOM     20  H20 UNL     1      30.544  -6.620 -34.871  0.00  0.00    +0.000 HD
BRANCH  19  21
ATOM     21  C23 UNL     1      30.227  -7.669 -36.702  0.00  0.00    +0.000 A 
ATOM     22  C24 UNL     1      30.972  -8.578 -37.477  0.00  0.00    +0.000 A 
ATOM     23  C25 UNL     1      30.764  -8.658 -38.859  0.00  0.00    +0.000 A 
ATOM     24  C26 UNL     1      29.819  -7.828 -39.477  0.00  0.00    +0.000 A 
ATOM     25  C27 UNL     1      29.069  -6.929 -38.710  0.00  0.00    +0.000 A 
ATOM     26  C28 UNL     1      29.267  -6.855 -37.328  0.00  0.00    +0.000 A 
ENDBRANCH  19  21
ENDBRANCH  17  19
ENDBRANCH   4   7
BRANCH   1  27
ATOM     27  O2  UNL     1      24.468  -8.288 -33.810  0.00  0.00    +0.000 OA
BRANCH  27  28
ATOM     28  C10 UNL     1      23.848  -7.145 -34.400  0.00  0.00    +0.000 C 
BRANCH  28  31
ATOM     29  N2  UNL     1      24.649  -7.182 -37.939  0.00  0.00    +0.000 N 
ATOM     30  C8  UNL     1      23.895  -7.627 -36.921  0.00  0.00    +0.000 A 
ATOM     31  C9  UNL     1      24.334  -6.954 -35.805  0.00  0.00    +0.000 A 
ATOM     32  N6  UNL     1      25.327  -6.119 -36.169  0.00  0.00    +0.000 NA
ATOM     33  N7  UNL     1      25.494  -6.277 -37.475  0.00  0.00    +0.000 NA
BRANCH  29  34
ATOM     34  C7  UNL     1      24.567  -7.594 -39.335  0.00  0.00    +0.000 C 
BRANCH  34  36
ATOM     35  N1  UNL     1      26.016  -8.796 -41.037  0.00  0.00    +0.000 N 
ATOM     36  C6  UNL     1      25.696  -8.520 -39.666  0.00  0.00    +0.000 C 
ATOM     37  O1  UNL     1      26.322  -9.094 -38.731  0.00  0.00    +0.000 OA
ATOM     38  H6  UNL     1      25.297  -8.571 -41.766  0.00  0.00    +0.000 HD
BRANCH  35  43
ATOM     39  C1  UNL     1      31.003 -11.153 -42.680  0.00  0.00    +0.000 C 
ATOM     40  C2  UNL     1      29.709 -10.538 -42.235  0.00  0.00    +0.000 A 
ATOM     41  C3  UNL     1      29.196  -9.416 -42.905  0.00  0.00    +0.000 A 
ATOM     42  C4  UNL     1      27.978  -8.854 -42.508  0.00  0.00    +0.000 A 
ATOM     43  C5  UNL     1      27.243  -9.418 -41.456  0.00  0.00    +0.000 A 
ATOM     44  C31 UNL     1      27.754 -10.546 -40.790  0.00  0.00    +0.000 A 
ATOM     45  C32 UNL     1      28.974 -11.106 -41.185  0.00  0.00    +0.000 A 
ENDBRANCH  35  43
ENDBRANCH  34  36
ENDBRANCH  29  34
ENDBRANCH  28  31
ENDBRANCH  27  28
ENDBRANCH   1  27
TORSDOF 9
ENDMDL
MODEL 4
REMARK VINA RESULT:    -6.163      3.756      9.525
REMARK INTER + INTRA:         -12.282
REMARK INTER:                 -10.943
REMARK INTRA:                  -1.339
REMARK UNBOUND:                -2.876
REMARK  Name = resultss/4CJN/ligands/lig_353_t0.pdb
REMARK  10 active torsions:
REMARK  status: ('A' for Active; 'I' for Inactive)
REMARK    1  A    between atoms: C1_1  and  C2_2
REMARK    2  A    between atoms: C5_5  and  N1_6
REMARK    3  A    between atoms: C6_7  and  C7_9
REMARK    4  A    between atoms: C7_9  and  N2_10
REMARK    5  A    between atoms: C9_12  and  C10_13
REMARK    6  A    between atoms: C10_13  and  O2_14
REMARK    7  A    between atoms: O2_14  and  C11_15
REMARK    8  A    between atoms: C14_18  and  C15_19
REMARK    9  A    between atoms: N4_29  and  N5_30
REMARK   10  A    between atoms: N5_30  and  C23_31
REMARK                            x       y       z     vdW  Elec       q    Type
REMARK                         _______ _______ _______ _____ _____    ______ ____
ROOT
ATOM      1  C11 UNL     1      26.929  -9.253 -38.738  0.00  0.00    +0.000 A 
ATOM      2  C12 UNL     1      26.780  -7.869 -38.585  0.00  0.00    +0.000 A 
ATOM      3  C13 UNL     1      27.304  -7.218 -37.465  0.00  0.00    +0.000 A 
ATOM      4  C14 UNL     1      27.998  -7.942 -36.485  0.00  0.00    +0.000 A 
ATOM      5  C29 UNL     1      28.165  -9.330 -36.643  0.00  0.00    +0.000 A 
ATOM      6  C30 UNL     1      27.641  -9.979 -37.763  0.00  0.00    +0.000 A 
ENDROOT
BRANCH   4   7
ATOM      7  C15 UNL     1      28.505  -7.248 -35.239  0.00  0.00    +0.000 C 
ATOM      8  N3  UNL     1      29.957  -7.062 -35.339  0.00  0.00    +0.000 N 
ATOM      9  C16 UNL     1      30.778  -6.896 -34.175  0.00  0.00    +0.000 A 
ATOM     10  C17 UNL     1      32.081  -6.393 -34.293  0.00  0.00    +0.000 A 
ATOM     11  C18 UNL     1      32.881  -6.237 -33.158  0.00  0.00    +0.000 A 
ATOM     12  C19 UNL     1      32.382  -6.582 -31.898  0.00  0.00    +0.000 A 
ATOM     13  C20 UNL     1      31.086  -7.091 -31.774  0.00  0.00    +0.000 A 
ATOM     14  C21 UNL     1      30.282  -7.257 -32.913  0.00  0.00    +0.000 A 
ATOM     15  C22 UNL     1      28.939  -7.856 -32.829  0.00  0.00    +0.000 C 
ATOM     16  O3  UNL     1      28.493  -8.272 -31.725  0.00  0.00    +0.000 OA
ATOM     17  N4  UNL     1      28.154  -8.005 -34.022  0.00  0.00    +0.000 N 
ATOM     18  H15 UNL     1      30.366  -6.838 -36.278  0.00  0.00    +0.000 HD
BRANCH  17  19
ATOM     19  N5  UNL     1      27.022  -8.842 -33.987  0.00  0.00    +0.000 N 
ATOM     20  H20 UNL     1      27.192  -9.868 -33.886  0.00  0.00    +0.000 HD
BRANCH  19  21
ATOM     21  C23 UNL     1      25.723  -8.341 -33.630  0.00  0.00    +0.000 A 
ATOM     22  C24 UNL     1      25.470  -6.957 -33.558  0.00  0.00    +0.000 A 
ATOM     23  C25 UNL     1      24.194  -6.494 -33.214  0.00  0.00    +0.000 A 
ATOM     24  C26 UNL     1      23.167  -7.405 -32.933  0.00  0.00    +0.000 A 
ATOM     25  C27 UNL     1      23.411  -8.781 -33.012  0.00  0.00    +0.000 A 
ATOM     26  C28 UNL     1      24.682  -9.247 -33.366  0.00  0.00    +0.000 A 
ENDBRANCH  19  21
ENDBRANCH  17  19
ENDBRANCH   4   7
BRANCH   1  27
ATOM     27  O2  UNL     1      26.341  -9.867 -39.855  0.00  0.00    +0.000 OA
BRANCH  27  28
ATOM     28  C10 UNL     1      27.004 -10.777 -40.734  0.00  0.00    +0.000 C 
BRANCH  28  31
ATOM     29  N2  UNL     1      30.345  -9.619 -41.548  0.00  0.00    +0.000 N 
ATOM     30  C8  UNL     1      29.546 -10.438 -40.845  0.00  0.00    +0.000 A 
ATOM     31  C9  UNL     1      28.264 -10.166 -41.265  0.00  0.00    +0.000 A 
ATOM     32  N6  UNL     1      28.317  -9.205 -42.208  0.00  0.00    +0.000 NA
ATOM     33  N7  UNL     1      29.596  -8.894 -42.362  0.00  0.00    +0.000 NA
BRANCH  29  34
ATOM     34  C7  UNL     1      31.798  -9.528 -41.464  0.00  0.00    +0.000 C 
BRANCH  34  36
ATOM     35  N1  UNL     1      31.824 -10.986 -43.541  0.00  0.00    +0.000 N 
ATOM     36  C6  UNL     1      32.428 -10.600 -42.298  0.00  0.00    +0.000 C 
ATOM     37  O1  UNL     1      33.458 -11.194 -41.872  0.00  0.00    +0.000 OA
ATOM     38  H6  UNL     1      30.826 -10.716 -43.709  0.00  0.00    +0.000 HD
BRANCH  35  43
ATOM     39  C1  UNL     1      34.378 -14.172 -47.598  0.00  0.00    +0.000 C 
ATOM     40  C2  UNL     1      33.707 -13.331 -46.553  0.00  0.00    +0.000 A 
ATOM     41  C3  UNL     1      32.837 -13.923 -45.624  0.00  0.00    +0.000 A 
ATOM     42  C4  UNL     1      32.227 -13.145 -44.633  0.00  0.00    +0.000 A 
ATOM     43  C5  UNL     1      32.497 -11.773 -44.540  0.00  0.00    +0.000 A 
ATOM     44  C31 UNL     1      33.374 -11.181 -45.466  0.00  0.00    +0.000 A 
ATOM     45  C32 UNL     1      33.981 -11.959 -46.460  0.00  0.00    +0.000 A 
ENDBRANCH  35  43
ENDBRANCH  34  36
ENDBRANCH  29  34
ENDBRANCH  28  31
ENDBRANCH  27  28
ENDBRANCH   1  27
TORSDOF 9
ENDMDL
MODEL 5
REMARK VINA RESULT:    -6.114      3.270      6.592
REMARK INTER + INTRA:         -12.207
REMARK INTER:                  -8.971
REMARK INTRA:                  -3.237
REMARK UNBOUND:                -2.876
REMARK  Name = resultss/4CJN/ligands/lig_353_t0.pdb
REMARK  10 active torsions:
REMARK  status: ('A' for Active; 'I' for Inactive)
REMARK    1  A    between atoms: C1_1  and  C2_2
REMARK    2  A    between atoms: C5_5  and  N1_6
REMARK    3  A    between atoms: C6_7  and  C7_9
REMARK    4  A    between atoms: C7_9  and  N2_10
REMARK    5  A    between atoms: C9_12  and  C10_13
REMARK    6  A    between atoms: C10_13  and  O2_14
REMARK    7  A    between atoms: O2_14  and  C11_15
REMARK    8  A    between atoms: C14_18  and  C15_19
REMARK    9  A    between atoms: N4_29  and  N5_30
REMARK   10  A    between atoms: N5_30  and  C23_31
REMARK                            x       y       z     vdW  Elec       q    Type
REMARK                         _______ _______ _______ _____ _____    ______ ____
ROOT
ATOM      1  C11 UNL     1      29.478  -8.474 -33.789  0.00  0.00    +0.000 A 
ATOM      2  C12 UNL     1      28.779  -9.685 -33.837  0.00  0.00    +0.000 A 
ATOM      3  C13 UNL     1      27.991 -10.007 -34.946  0.00  0.00    +0.000 A 
ATOM      4  C14 UNL     1      27.903  -9.125 -36.033  0.00  0.00    +0.000 A 
ATOM      5  C29 UNL     1      28.617  -7.914 -35.996  0.00  0.00    +0.000 A 
ATOM      6  C30 UNL     1      29.404  -7.593 -34.887  0.00  0.00    +0.000 A 
ENDROOT
BRANCH   4   7
ATOM      7  C15 UNL     1      26.996  -9.443 -37.203  0.00  0.00    +0.000 C 
ATOM      8  N3  UNL     1      27.811  -9.717 -38.392  0.00  0.00    +0.000 N 
ATOM      9  C16 UNL     1      27.283  -9.569 -39.717  0.00  0.00    +0.000 A 
ATOM     10  C17 UNL     1      27.946 -10.146 -40.811  0.00  0.00    +0.000 A 
ATOM     11  C18 UNL     1      27.432  -9.996 -42.102  0.00  0.00    +0.000 A 
ATOM     12  C19 UNL     1      26.254  -9.271 -42.307  0.00  0.00    +0.000 A 
ATOM     13  C20 UNL     1      25.593  -8.688 -41.222  0.00  0.00    +0.000 A 
ATOM     14  C21 UNL     1      26.110  -8.829 -39.924  0.00  0.00    +0.000 A 
ATOM     15  C22 UNL     1      25.480  -8.170 -38.767  0.00  0.00    +0.000 C 
ATOM     16  O3  UNL     1      24.473  -7.426 -38.925  0.00  0.00    +0.000 OA
ATOM     17  N4  UNL     1      26.045  -8.344 -37.458  0.00  0.00    +0.000 N 
ATOM     18  H15 UNL     1      28.718 -10.228 -38.265  0.00  0.00    +0.000 HD
BRANCH  17  19
ATOM     19  N5  UNL     1      25.632  -7.483 -36.423  0.00  0.00    +0.000 N 
ATOM     20  H20 UNL     1      25.763  -6.458 -36.578  0.00  0.00    +0.000 HD
BRANCH  19  21
ATOM     21  C23 UNL     1      24.673  -7.894 -35.436  0.00  0.00    +0.000 A 
ATOM     22  C24 UNL     1      25.083  -8.433 -34.201  0.00  0.00    +0.000 A 
ATOM     23  C25 UNL     1      24.128  -8.820 -33.253  0.00  0.00    +0.000 A 
ATOM     24  C26 UNL     1      22.762  -8.682 -33.533  0.00  0.00    +0.000 A 
ATOM     25  C27 UNL     1      22.349  -8.139 -34.755  0.00  0.00    +0.000 A 
ATOM     26  C28 UNL     1      23.301  -7.740 -35.699  0.00  0.00    +0.000 A 
ENDBRANCH  19  21
ENDBRANCH  17  19
ENDBRANCH   4   7
BRANCH   1  27
ATOM     27  O2  UNL     1      30.214  -8.174 -32.631  0.00  0.00    +0.000 OA
BRANCH  27  28
ATOM     28  C10 UNL     1      31.476  -8.749 -32.291  0.00  0.00    +0.000 C 
BRANCH  28  31
ATOM     29  N2  UNL     1      33.584  -8.353 -35.217  0.00  0.00    +0.000 N 
ATOM     30  C8  UNL     1      32.966  -7.808 -34.157  0.00  0.00    +0.000 A 
ATOM     31  C9  UNL     1      32.348  -8.849 -33.504  0.00  0.00    +0.000 A 
ATOM     32  N6  UNL     1      32.612  -9.991 -34.171  0.00  0.00    +0.000 NA
ATOM     33  N7  UNL     1      33.369  -9.658 -35.207  0.00  0.00    +0.000 NA
BRANCH  29  34
ATOM     34  C7  UNL     1      34.380  -7.657 -36.221  0.00  0.00    +0.000 C 
BRANCH  34  36
ATOM     35  N1  UNL     1      32.237  -7.934 -37.552  0.00  0.00    +0.000 N 
ATOM     36  C6  UNL     1      33.628  -7.586 -37.514  0.00  0.00    +0.000 C 
ATOM     37  O1  UNL     1      34.241  -7.272 -38.573  0.00  0.00    +0.000 OA
ATOM     38  H6  UNL     1      31.845  -8.486 -36.752  0.00  0.00    +0.000 HD
BRANCH  35  43
ATOM     39  C1  UNL     1      28.841  -6.532 -41.983  0.00  0.00    +0.000 C 
ATOM     40  C2  UNL     1      29.740  -6.898 -40.839  0.00  0.00    +0.000 A 
ATOM     41  C3  UNL     1      29.769  -6.102 -39.683  0.00  0.00    +0.000 A 
ATOM     42  C4  UNL     1      30.589  -6.454 -38.605  0.00  0.00    +0.000 A 
ATOM     43  C5  UNL     1      31.369  -7.618 -38.654  0.00  0.00    +0.000 A 
ATOM     44  C31 UNL     1      31.334  -8.418 -39.810  0.00  0.00    +0.000 A 
ATOM     45  C32 UNL     1      30.518  -8.064 -40.890  0.00  0.00    +0.000 A 
ENDBRANCH  35  43
ENDBRANCH  34  36
ENDBRANCH  29  34
ENDBRANCH  28  31
ENDBRANCH  27  28
ENDBRANCH   1  27
TORSDOF 9
ENDMDL
MODEL 6
REMARK VINA RESULT:    -5.984      2.597      8.980
REMARK INTER + INTRA:         -12.009
REMARK INTER:                  -8.826
REMARK INTRA:                  -3.184
REMARK UNBOUND:                -2.876
REMARK  Name = resultss/4CJN/ligands/lig_353_t0.pdb
REMARK  10 active torsions:
REMARK  status: ('A' for Active; 'I' for Inactive)
REMARK    1  A    between atoms: C1_1  and  C2_2
REMARK    2  A    between atoms: C5_5  and  N1_6
REMARK    3  A    between atoms: C6_7  and  C7_9
REMARK    4  A    between atoms: C7_9  and  N2_10
REMARK    5  A    between atoms: C9_12  and  C10_13
REMARK    6  A    between atoms: C10_13  and  O2_14
REMARK    7  A    between atoms: O2_14  and  C11_15
REMARK    8  A    between atoms: C14_18  and  C15_19
REMARK    9  A    between atoms: N4_29  and  N5_30
REMARK   10  A    between atoms: N5_30  and  C23_31
REMARK                            x       y       z     vdW  Elec       q    Type
REMARK                         _______ _______ _______ _____ _____    ______ ____
ROOT
ATOM      1  C11 UNL     1      26.962  -9.369 -36.533  0.00  0.00    +0.000 A 
ATOM      2  C12 UNL     1      27.329  -8.755 -35.330  0.00  0.00    +0.000 A 
ATOM      3  C13 UNL     1      28.649  -8.820 -34.873  0.00  0.00    +0.000 A 
ATOM      4  C14 UNL     1      29.626  -9.490 -35.623  0.00  0.00    +0.000 A 
ATOM      5  C29 UNL     1      29.265 -10.094 -36.841  0.00  0.00    +0.000 A 
ATOM      6  C30 UNL     1      27.946 -10.029 -37.296  0.00  0.00    +0.000 A 
ENDROOT
BRANCH   4   7
ATOM      7  C15 UNL     1      31.039  -9.619 -35.095  0.00  0.00    +0.000 C 
ATOM      8  N3  UNL     1      30.997  -9.955 -33.666  0.00  0.00    +0.000 N 
ATOM      9  C16 UNL     1      32.100  -9.672 -32.794  0.00  0.00    +0.000 A 
ATOM     10  C17 UNL     1      32.183 -10.288 -31.537  0.00  0.00    +0.000 A 
ATOM     11  C18 UNL     1      33.257 -10.007 -30.687  0.00  0.00    +0.000 A 
ATOM     12  C19 UNL     1      34.252  -9.111 -31.088  0.00  0.00    +0.000 A 
ATOM     13  C20 UNL     1      34.171  -8.489 -32.337  0.00  0.00    +0.000 A 
ATOM     14  C21 UNL     1      33.090  -8.761 -33.192  0.00  0.00    +0.000 A 
ATOM     15  C22 UNL     1      32.935  -8.072 -34.484  0.00  0.00    +0.000 C 
ATOM     16  O3  UNL     1      33.758  -7.183 -34.836  0.00  0.00    +0.000 OA
ATOM     17  N4  UNL     1      31.813  -8.384 -35.323  0.00  0.00    +0.000 N 
ATOM     18  H15 UNL     1      30.240 -10.596 -33.328  0.00  0.00    +0.000 HD
BRANCH  17  19
ATOM     19  N5  UNL     1      31.506  -7.520 -36.392  0.00  0.00    +0.000 N 
ATOM     20  H20 UNL     1      31.441  -6.501 -36.175  0.00  0.00    +0.000 HD
BRANCH  19  21
ATOM     21  C23 UNL     1      31.731  -7.901 -37.759  0.00  0.00    +0.000 A 
ATOM     22  C24 UNL     1      32.837  -8.692 -38.124  0.00  0.00    +0.000 A 
ATOM     23  C25 UNL     1      33.031  -9.054 -39.462  0.00  0.00    +0.000 A 
ATOM     24  C26 UNL     1      32.129  -8.624 -40.445  0.00  0.00    +0.000 A 
ATOM     25  C27 UNL     1      31.023  -7.845 -40.087  0.00  0.00    +0.000 A 
ATOM     26  C28 UNL     1      30.821  -7.491 -38.749  0.00  0.00    +0.000 A 
ENDBRANCH  19  21
ENDBRANCH  17  19
ENDBRANCH   4   7
BRANCH   1  27
ATOM     27  O2  UNL     1      25.614  -9.319 -36.923  0.00  0.00    +0.000 OA
BRANCH  27  28
ATOM     28  C10 UNL     1      24.802  -8.145 -36.915  0.00  0.00    +0.000 C 
BRANCH  28  31
ATOM     29  N2  UNL     1      24.329  -7.590 -40.470  0.00  0.00    +0.000 N 
ATOM     30  C8  UNL     1      24.477  -8.444 -39.444  0.00  0.00    +0.000 A 
ATOM     31  C9  UNL     1      24.566  -7.664 -38.315  0.00  0.00    +0.000 A 
ATOM     32  N6  UNL     1      24.461  -6.370 -38.677  0.00  0.00    +0.000 NA
ATOM     33  N7  UNL     1      24.314  -6.356 -39.994  0.00  0.00    +0.000 NA
BRANCH  29  34
ATOM     34  C7  UNL     1      24.188  -7.931 -41.880  0.00  0.00    +0.000 C 
BRANCH  34  36
ATOM     35  N1  UNL     1      26.700  -8.253 -42.046  0.00  0.00    +0.000 N 
ATOM     36  C6  UNL     1      25.375  -8.720 -42.339  0.00  0.00    +0.000 C 
ATOM     37  O1  UNL     1      25.199  -9.763 -43.030  0.00  0.00    +0.000 OA
ATOM     38  H6  UNL     1      26.819  -7.250 -41.765  0.00  0.00    +0.000 HD
BRANCH  35  43
ATOM     39  C1  UNL     1      31.314 -11.653 -42.573  0.00  0.00    +0.000 C 
ATOM     40  C2  UNL     1      30.106 -10.771 -42.452  0.00  0.00    +0.000 A 
ATOM     41  C3  UNL     1      29.218 -10.937 -41.379  0.00  0.00    +0.000 A 
ATOM     42  C4  UNL     1      28.104 -10.100 -41.250  0.00  0.00    +0.000 A 
ATOM     43  C5  UNL     1      27.876  -9.071 -42.174  0.00  0.00    +0.000 A 
ATOM     44  C31 UNL     1      28.770  -8.901 -43.246  0.00  0.00    +0.000 A 
ATOM     45  C32 UNL     1      29.883  -9.741 -43.377  0.00  0.00    +0.000 A 
ENDBRANCH  35  43
ENDBRANCH  34  36
ENDBRANCH  29  34
ENDBRANCH  28  31
ENDBRANCH  27  28
ENDBRANCH   1  27
TORSDOF 9
ENDMDL
MODEL 7
REMARK VINA RESULT:    -5.857      2.979      8.378
REMARK INTER + INTRA:         -11.816
REMARK INTER:                  -8.793
REMARK INTRA:                  -3.023
REMARK UNBOUND:                -2.876
REMARK  Name = resultss/4CJN/ligands/lig_353_t0.pdb
REMARK  10 active torsions:
REMARK  status: ('A' for Active; 'I' for Inactive)
REMARK    1  A    between atoms: C1_1  and  C2_2
REMARK    2  A    between atoms: C5_5  and  N1_6
REMARK    3  A    between atoms: C6_7  and  C7_9
REMARK    4  A    between atoms: C7_9  and  N2_10
REMARK    5  A    between atoms: C9_12  and  C10_13
REMARK    6  A    between atoms: C10_13  and  O2_14
REMARK    7  A    between atoms: O2_14  and  C11_15
REMARK    8  A    between atoms: C14_18  and  C15_19
REMARK    9  A    between atoms: N4_29  and  N5_30
REMARK   10  A    between atoms: N5_30  and  C23_31
REMARK                            x       y       z     vdW  Elec       q    Type
REMARK                         _______ _______ _______ _____ _____    ______ ____
ROOT
ATOM      1  C11 UNL     1      25.149  -7.583 -39.084  0.00  0.00    +0.000 A 
ATOM      2  C12 UNL     1      25.334  -8.618 -38.160  0.00  0.00    +0.000 A 
ATOM      3  C13 UNL     1      26.217  -8.463 -37.087  0.00  0.00    +0.000 A 
ATOM      4  C14 UNL     1      26.919  -7.262 -36.915  0.00  0.00    +0.000 A 
ATOM      5  C29 UNL     1      26.723  -6.213 -37.831  0.00  0.00    +0.000 A 
ATOM      6  C30 UNL     1      25.841  -6.368 -38.902  0.00  0.00    +0.000 A 
ENDROOT
BRANCH   4   7
ATOM      7  C15 UNL     1      27.926  -7.120 -35.794  0.00  0.00    +0.000 C 
ATOM      8  N3  UNL     1      28.759  -8.327 -35.729  0.00  0.00    +0.000 N 
ATOM      9  C16 UNL     1      29.443  -8.707 -34.527  0.00  0.00    +0.000 A 
ATOM     10  C17 UNL     1      30.480  -9.649 -34.572  0.00  0.00    +0.000 A 
ATOM     11  C18 UNL     1      31.142 -10.022 -33.398  0.00  0.00    +0.000 A 
ATOM     12  C19 UNL     1      30.770  -9.455 -32.175  0.00  0.00    +0.000 A 
ATOM     13  C20 UNL     1      29.733  -8.520 -32.124  0.00  0.00    +0.000 A 
ATOM     14  C21 UNL     1      29.060  -8.149 -33.299  0.00  0.00    +0.000 A 
ATOM     15  C22 UNL     1      27.916  -7.221 -33.273  0.00  0.00    +0.000 C 
ATOM     16  O3  UNL     1      27.488  -6.766 -32.177  0.00  0.00    +0.000 OA
ATOM     17  N4  UNL     1      27.260  -6.871 -34.501  0.00  0.00    +0.000 N 
ATOM     18  H15 UNL     1      29.024  -8.796 -36.629  0.00  0.00    +0.000 HD
BRANCH  17  19
ATOM     19  N5  UNL     1      26.001  -6.241 -34.440  0.00  0.00    +0.000 N 
ATOM     20  H20 UNL     1      25.950  -5.251 -34.769  0.00  0.00    +0.000 HD
BRANCH  19  21
ATOM     21  C23 UNL     1      24.780  -6.997 -34.396  0.00  0.00    +0.000 A 
ATOM     22  C24 UNL     1      24.637  -8.103 -33.536  0.00  0.00    +0.000 A 
ATOM     23  C25 UNL     1      23.435  -8.819 -33.507  0.00  0.00    +0.000 A 
ATOM     24  C26 UNL     1      22.372  -8.443 -34.340  0.00  0.00    +0.000 A 
ATOM     25  C27 UNL     1      22.505  -7.340 -35.190  0.00  0.00    +0.000 A 
ATOM     26  C28 UNL     1      23.702  -6.615 -35.212  0.00  0.00    +0.000 A 
ENDBRANCH  19  21
ENDBRANCH  17  19
ENDBRANCH   4   7
BRANCH   1  27
ATOM     27  O2  UNL     1      24.290  -7.805 -40.172  0.00  0.00    +0.000 OA
BRANCH  27  28
ATOM     28  C10 UNL     1      24.414  -8.876 -41.108  0.00  0.00    +0.000 C 
BRANCH  28  31
ATOM     29  N2  UNL     1      27.850  -9.932 -41.599  0.00  0.00    +0.000 N 
ATOM     30  C8  UNL     1      26.617 -10.194 -41.139  0.00  0.00    +0.000 A 
ATOM     31  C9  UNL     1      25.853  -9.096 -41.462  0.00  0.00    +0.000 A 
ATOM     32  N6  UNL     1      26.631  -8.208 -42.111  0.00  0.00    +0.000 NA
ATOM     33  N7  UNL     1      27.841  -8.746 -42.184  0.00  0.00    +0.000 NA
BRANCH  29  34
ATOM     34  C7  UNL     1      29.023 -10.794 -41.503  0.00  0.00    +0.000 C 
BRANCH  34  36
ATOM     35  N1  UNL     1      29.855  -9.508 -39.479  0.00  0.00    +0.000 N 
ATOM     36  C6  UNL     1      30.118 -10.091 -40.764  0.00  0.00    +0.000 C 
ATOM     37  O1  UNL     1      31.253  -9.968 -41.304  0.00  0.00    +0.000 OA
ATOM     38  H6  UNL     1      28.855  -9.345 -39.208  0.00  0.00    +0.000 HD
BRANCH  35  43
ATOM     39  C1  UNL     1      34.096  -7.870 -35.950  0.00  0.00    +0.000 C 
ATOM     40  C2  UNL     1      32.996  -8.286 -36.882  0.00  0.00    +0.000 A 
ATOM     41  C3  UNL     1      32.805  -9.643 -37.185  0.00  0.00    +0.000 A 
ATOM     42  C4  UNL     1      31.766 -10.036 -38.035  0.00  0.00    +0.000 A 
ATOM     43  C5  UNL     1      30.888  -9.084 -38.573  0.00  0.00    +0.000 A 
ATOM     44  C31 UNL     1      31.075  -7.726 -38.263  0.00  0.00    +0.000 A 
ATOM     45  C32 UNL     1      32.118  -7.332 -37.416  0.00  0.00    +0.000 A 
ENDBRANCH  35  43
ENDBRANCH  34  36
ENDBRANCH  29  34
ENDBRANCH  28  31
ENDBRANCH  27  28
ENDBRANCH   1  27
TORSDOF 9
ENDMDL
MODEL 8
REMARK VINA RESULT:    -5.575      2.931      7.281
REMARK INTER + INTRA:         -11.384
REMARK INTER:                  -8.506
REMARK INTRA:                  -2.878
REMARK UNBOUND:                -2.876
REMARK  Name = resultss/4CJN/ligands/lig_353_t0.pdb
REMARK  10 active torsions:
REMARK  status: ('A' for Active; 'I' for Inactive)
REMARK    1  A    between atoms: C1_1  and  C2_2
REMARK    2  A    between atoms: C5_5  and  N1_6
REMARK    3  A    between atoms: C6_7  and  C7_9
REMARK    4  A    between atoms: C7_9  and  N2_10
REMARK    5  A    between atoms: C9_12  and  C10_13
REMARK    6  A    between atoms: C10_13  and  O2_14
REMARK    7  A    between atoms: O2_14  and  C11_15
REMARK    8  A    between atoms: C14_18  and  C15_19
REMARK    9  A    between atoms: N4_29  and  N5_30
REMARK   10  A    between atoms: N5_30  and  C23_31
REMARK                            x       y       z     vdW  Elec       q    Type
REMARK                         _______ _______ _______ _____ _____    ______ ____
ROOT
ATOM      1  C11 UNL     1      29.999  -9.206 -39.667  0.00  0.00    +0.000 A 
ATOM      2  C12 UNL     1      29.019 -10.042 -39.117  0.00  0.00    +0.000 A 
ATOM      3  C13 UNL     1      28.032  -9.521 -38.276  0.00  0.00    +0.000 A 
ATOM      4  C14 UNL     1      28.001  -8.150 -37.984  0.00  0.00    +0.000 A 
ATOM      5  C29 UNL     1      28.973  -7.304 -38.547  0.00  0.00    +0.000 A 
ATOM      6  C30 UNL     1      29.960  -7.825 -39.387  0.00  0.00    +0.000 A 
ENDROOT
BRANCH   4   7
ATOM      7  C15 UNL     1      26.974  -7.597 -37.019  0.00  0.00    +0.000 C 
ATOM      8  N3  UNL     1      26.701  -8.591 -35.973  0.00  0.00    +0.000 N 
ATOM      9  C16 UNL     1      25.476  -8.584 -35.228  0.00  0.00    +0.000 A 
ATOM     10  C17 UNL     1      25.371  -9.308 -34.032  0.00  0.00    +0.000 A 
ATOM     11  C18 UNL     1      24.175  -9.303 -33.309  0.00  0.00    +0.000 A 
ATOM     12  C19 UNL     1      23.077  -8.574 -33.778  0.00  0.00    +0.000 A 
ATOM     13  C20 UNL     1      23.173  -7.855 -34.973  0.00  0.00    +0.000 A 
ATOM     14  C21 UNL     1      24.371  -7.864 -35.706  0.00  0.00    +0.000 A 
ATOM     15  C22 UNL     1      24.486  -7.177 -37.004  0.00  0.00    +0.000 C 
ATOM     16  O3  UNL     1      23.488  -6.592 -37.508  0.00  0.00    +0.000 OA
ATOM     17  N4  UNL     1      25.732  -7.214 -37.717  0.00  0.00    +0.000 N 
ATOM     18  H15 UNL     1      27.497  -9.179 -35.627  0.00  0.00    +0.000 HD
BRANCH  17  19
ATOM     19  N5  UNL     1      25.748  -6.828 -39.072  0.00  0.00    +0.000 N 
ATOM     20  H20 UNL     1      26.078  -5.860 -39.285  0.00  0.00    +0.000 HD
BRANCH  19  21
ATOM     21  C23 UNL     1      25.779  -7.795 -40.133  0.00  0.00    +0.000 A 
ATOM     22  C24 UNL     1      26.597  -7.611 -41.264  0.00  0.00    +0.000 A 
ATOM     23  C25 UNL     1      26.615  -8.572 -42.282  0.00  0.00    +0.000 A 
ATOM     24  C26 UNL     1      25.811  -9.717 -42.183  0.00  0.00    +0.000 A 
ATOM     25  C27 UNL     1      25.003  -9.909 -41.056  0.00  0.00    +0.000 A 
ATOM     26  C28 UNL     1      24.993  -8.956 -40.033  0.00  0.00    +0.000 A 
ENDBRANCH  19  21
ENDBRANCH  17  19
ENDBRANCH   4   7
BRANCH   1  27
ATOM     27  O2  UNL     1      30.998  -9.786 -40.464  0.00  0.00    +0.000 OA
BRANCH  27  28
ATOM     28  C10 UNL     1      32.273  -9.201 -40.734  0.00  0.00    +0.000 C 
BRANCH  28  31
ATOM     29  N2  UNL     1      33.924  -9.356 -37.507  0.00  0.00    +0.000 N 
ATOM     30  C8  UNL     1      33.226  -9.968 -38.478  0.00  0.00    +0.000 A 
ATOM     31  C9  UNL     1      33.047  -9.026 -39.464  0.00  0.00    +0.000 A 
ATOM     32  N6  UNL     1      33.642  -7.880 -39.076  0.00  0.00    +0.000 NA
ATOM     33  N7  UNL     1      34.171  -8.113 -37.883  0.00  0.00    +0.000 NA
BRANCH  29  34
ATOM     34  C7  UNL     1      34.367  -9.940 -36.246  0.00  0.00    +0.000 C 
BRANCH  34  36
ATOM     35  N1  UNL     1      32.321  -8.685 -35.421  0.00  0.00    +0.000 N 
ATOM     36  C6  UNL     1      33.433  -9.548 -35.143  0.00  0.00    +0.000 C 
ATOM     37  O1  UNL     1      33.665  -9.939 -33.964  0.00  0.00    +0.000 OA
ATOM     38  H6  UNL     1      32.338  -8.130 -36.310  0.00  0.00    +0.000 HD
BRANCH  35  43
ATOM     39  C1  UNL     1      27.939  -8.069 -31.740  0.00  0.00    +0.000 C 
ATOM     40  C2  UNL     1      29.093  -8.228 -32.686  0.00  0.00    +0.000 A 
ATOM     41  C3  UNL     1      29.124  -9.307 -33.583  0.00  0.00    +0.000 A 
ATOM     42  C4  UNL     1      30.186  -9.446 -34.483  0.00  0.00    +0.000 A 
ATOM     43  C5  UNL     1      31.217  -8.497 -34.518  0.00  0.00    +0.000 A 
ATOM     44  C31 UNL     1      31.182  -7.412 -33.624  0.00  0.00    +0.000 A 
ATOM     45  C32 UNL     1      30.121  -7.276 -32.721  0.00  0.00    +0.000 A 
ENDBRANCH  35  43
ENDBRANCH  34  36
ENDBRANCH  29  34
ENDBRANCH  28  31
ENDBRANCH  27  28
ENDBRANCH   1  27
TORSDOF 9
ENDMDL
MODEL 9
REMARK VINA RESULT:    -5.529      2.843      7.509
REMARK INTER + INTRA:         -11.315
REMARK INTER:                  -8.577
REMARK INTRA:                  -2.738
REMARK UNBOUND:                -2.876
REMARK  Name = resultss/4CJN/ligands/lig_353_t0.pdb
REMARK  10 active torsions:
REMARK  status: ('A' for Active; 'I' for Inactive)
REMARK    1  A    between atoms: C1_1  and  C2_2
REMARK    2  A    between atoms: C5_5  and  N1_6
REMARK    3  A    between atoms: C6_7  and  C7_9
REMARK    4  A    between atoms: C7_9  and  N2_10
REMARK    5  A    between atoms: C9_12  and  C10_13
REMARK    6  A    between atoms: C10_13  and  O2_14
REMARK    7  A    between atoms: O2_14  and  C11_15
REMARK    8  A    between atoms: C14_18  and  C15_19
REMARK    9  A    between atoms: N4_29  and  N5_30
REMARK   10  A    between atoms: N5_30  and  C23_31
REMARK                            x       y       z     vdW  Elec       q    Type
REMARK                         _______ _______ _______ _____ _____    ______ ____
ROOT
ATOM      1  C11 UNL     1      28.735 -10.161 -40.875  0.00  0.00    +0.000 A 
ATOM      2  C12 UNL     1      28.567  -8.796 -41.135  0.00  0.00    +0.000 A 
ATOM      3  C13 UNL     1      27.928  -7.969 -40.207  0.00  0.00    +0.000 A 
ATOM      4  C14 UNL     1      27.459  -8.495 -38.995  0.00  0.00    +0.000 A 
ATOM      5  C29 UNL     1      27.641  -9.863 -38.721  0.00  0.00    +0.000 A 
ATOM      6  C30 UNL     1      28.280 -10.688 -39.649  0.00  0.00    +0.000 A 
ENDROOT
BRANCH   4   7
ATOM      7  C15 UNL     1      26.706  -7.614 -38.021  0.00  0.00    +0.000 C 
ATOM      8  N3  UNL     1      27.447  -7.540 -36.756  0.00  0.00    +0.000 N 
ATOM      9  C16 UNL     1      26.797  -7.211 -35.520  0.00  0.00    +0.000 A 
ATOM     10  C17 UNL     1      27.553  -6.820 -34.406  0.00  0.00    +0.000 A 
ATOM     11  C18 UNL     1      26.918  -6.505 -33.201  0.00  0.00    +0.000 A 
ATOM     12  C19 UNL     1      25.525  -6.579 -33.104  0.00  0.00    +0.000 A 
ATOM     13  C20 UNL     1      24.766  -6.975 -34.210  0.00  0.00    +0.000 A 
ATOM     14  C21 UNL     1      25.401  -7.300 -35.420  0.00  0.00    +0.000 A 
ATOM     15  C22 UNL     1      24.641  -7.789 -36.583  0.00  0.00    +0.000 C 
ATOM     16  O3  UNL     1      23.394  -7.965 -36.503  0.00  0.00    +0.000 OA
ATOM     17  N4  UNL     1      25.334  -8.109 -37.799  0.00  0.00    +0.000 N 
ATOM     18  H15 UNL     1      28.494  -7.520 -36.794  0.00  0.00    +0.000 HD
BRANCH  17  19
ATOM     19  N5  UNL     1      24.660  -8.853 -38.787  0.00  0.00    +0.000 N 
ATOM     20  H20 UNL     1      23.994  -9.587 -38.456  0.00  0.00    +0.000 HD
BRANCH  19  21
ATOM     21  C23 UNL     1      24.503  -8.360 -40.127  0.00  0.00    +0.000 A 
ATOM     22  C24 UNL     1      24.191  -7.010 -40.376  0.00  0.00    +0.000 A 
ATOM     23  C25 UNL     1      24.049  -6.554 -41.692  0.00  0.00    +0.000 A 
ATOM     24  C26 UNL     1      24.209  -7.441 -42.766  0.00  0.00    +0.000 A 
ATOM     25  C27 UNL     1      24.528  -8.782 -42.524  0.00  0.00    +0.000 A 
ATOM     26  C28 UNL     1      24.681  -9.238 -41.210  0.00  0.00    +0.000 A 
ENDBRANCH  19  21
ENDBRANCH  17  19
ENDBRANCH   4   7
BRANCH   1  27
ATOM     27  O2  UNL     1      29.338 -10.959 -41.860  0.00  0.00    +0.000 OA
BRANCH  27  28
ATOM     28  C10 UNL     1      30.300 -10.501 -42.810  0.00  0.00    +0.000 C 
BRANCH  28  31
ATOM     29  N2  UNL     1      33.388 -10.033 -40.963  0.00  0.00    +0.000 N 
ATOM     30  C8  UNL     1      32.076  -9.782 -41.102  0.00  0.00    +0.000 A 
ATOM     31  C9  UNL     1      31.670 -10.498 -42.205  0.00  0.00    +0.000 A 
ATOM     32  N6  UNL     1      32.732 -11.166 -42.697  0.00  0.00    +0.000 NA
ATOM     33  N7  UNL     1      33.763 -10.867 -41.919  0.00  0.00    +0.000 NA
BRANCH  29  34
ATOM     34  C7  UNL     1      34.276  -9.506 -39.934  0.00  0.00    +0.000 C 
BRANCH  34  36
ATOM     35  N1  UNL     1      32.974  -8.763 -37.886  0.00  0.00    +0.000 N 
ATOM     36  C6  UNL     1      33.711  -9.783 -38.575  0.00  0.00    +0.000 C 
ATOM     37  O1  UNL     1      33.936 -10.897 -38.024  0.00  0.00    +0.000 OA
ATOM     38  H6  UNL     1      33.077  -7.774 -38.215  0.00  0.00    +0.000 HD
BRANCH  35  43
ATOM     39  C1  UNL     1      29.693  -9.640 -33.239  0.00  0.00    +0.000 C 
ATOM     40  C2  UNL     1      30.536  -9.401 -34.457  0.00  0.00    +0.000 A 
ATOM     41  C3  UNL     1      31.869  -8.984 -34.320  0.00  0.00    +0.000 A 
ATOM     42  C4  UNL     1      32.665  -8.783 -35.453  0.00  0.00    +0.000 A 
ATOM     43  C5  UNL     1      32.150  -9.020 -36.736  0.00  0.00    +0.000 A 
ATOM     44  C31 UNL     1      30.817  -9.444 -36.872  0.00  0.00    +0.000 A 
ATOM     45  C32 UNL     1      30.019  -9.641 -35.738  0.00  0.00    +0.000 A 
ENDBRANCH  35  43
ENDBRANCH  34  36
ENDBRANCH  29  34
ENDBRANCH  28  31
ENDBRANCH  27  28
ENDBRANCH   1  27
TORSDOF 9
ENDMDL
