MODEL 1
REMARK VINA RESULT:    -7.187      0.000      0.000
REMARK INTER + INTRA:          -9.616
REMARK INTER:                  -9.288
REMARK INTRA:                  -0.328
REMARK UNBOUND:                -0.328
REMARK  Name = resultss/4CJN/ligands/lig_169_t0.pdb
REMARK  6 active torsions:
REMARK  status: ('A' for Active; 'I' for Inactive)
REMARK    1  A    between atoms: C1_2  and  C9_14
REMARK    2  A    between atoms: N1_3  and  N2_4
REMARK    3  A    between atoms: C2_5  and  C3_6
REMARK    4  A    between atoms: C6_9  and  O2_10
REMARK    5  A    between atoms: C7_11  and  O3_12
REMARK    6  A    between atoms: C12_17  and  C13_18
REMARK                            x       y       z     vdW  Elec       q    Type
REMARK                         _______ _______ _______ _____ _____    ______ ____
ROOT
ATOM      1  O1  UNL     1      31.520  -9.805 -40.202  0.00  0.00    +0.000 OA
ATOM      2  C1  UNL     1      30.304  -9.653 -40.503  0.00  0.00    +0.000 C 
ATOM      3  N1  UNL     1      29.918  -9.591 -41.887  0.00  0.00    +0.000 N 
ATOM      4  H1  UNL     1      29.089  -9.011 -42.146  0.00  0.00    +0.000 HD
ENDROOT
BRANCH   2   5
ATOM      5  C9  UNL     1      29.299  -9.489 -39.424  0.00  0.00    +0.000 A 
ATOM      6  C10 UNL     1      28.007  -9.013 -39.706  0.00  0.00    +0.000 A 
ATOM      7  C11 UNL     1      27.064  -8.869 -38.685  0.00  0.00    +0.000 A 
ATOM      8  C12 UNL     1      27.389  -9.202 -37.358  0.00  0.00    +0.000 A 
ATOM      9  C20 UNL     1      28.678  -9.687 -37.078  0.00  0.00    +0.000 A 
ATOM     10  C21 UNL     1      29.621  -9.832 -38.100  0.00  0.00    +0.000 A 
BRANCH   8  11
ATOM     11  C13 UNL     1      26.382  -9.044 -36.283  0.00  0.00    +0.000 A 
ATOM     12  N3  UNL     1      25.194  -8.410 -36.466  0.00  0.00    +0.000 NA
ATOM     13  C14 UNL     1      24.456  -8.403 -35.327  0.00  0.00    +0.000 A 
ATOM     14  C15 UNL     1      23.190  -7.824 -35.211  0.00  0.00    +0.000 A 
ATOM     15  C16 UNL     1      22.531  -7.885 -33.970  0.00  0.00    +0.000 A 
ATOM     16  C17 UNL     1      23.140  -8.520 -32.869  0.00  0.00    +0.000 A 
ATOM     17  C18 UNL     1      24.412  -9.099 -32.997  0.00  0.00    +0.000 A 
ATOM     18  C19 UNL     1      25.043  -9.023 -34.237  0.00  0.00    +0.000 A 
ATOM     19  S1  UNL     1      26.544  -9.614 -34.690  0.00  0.00    +0.000 S 
ENDBRANCH   8  11
ENDBRANCH   2   5
BRANCH   3  20
ATOM     20  N2  UNL     1      30.718 -10.083 -42.936  0.00  0.00    +0.000 NA
ATOM     21  C2  UNL     1      31.122 -11.314 -43.014  0.00  0.00    +0.000 C 
BRANCH  21  22
ATOM     22  C3  UNL     1      31.975 -11.766 -44.132  0.00  0.00    +0.000 A 
ATOM     23  C4  UNL     1      32.121 -13.138 -44.375  0.00  0.00    +0.000 A 
ATOM     24  C5  UNL     1      32.924 -13.588 -45.425  0.00  0.00    +0.000 A 
ATOM     25  C6  UNL     1      33.593 -12.680 -46.252  0.00  0.00    +0.000 A 
ATOM     26  C7  UNL     1      33.454 -11.292 -46.016  0.00  0.00    +0.000 A 
ATOM     27  C8  UNL     1      32.648 -10.849 -44.960  0.00  0.00    +0.000 A 
BRANCH  25  28
ATOM     28  O2  UNL     1      34.380 -13.195 -47.285  0.00  0.00    +0.000 OA
ATOM     29  H5  UNL     1      34.856 -14.084 -47.244  0.00  0.00    +0.000 HD
ENDBRANCH  25  28
BRANCH  26  30
ATOM     30  O3  UNL     1      34.093 -10.326 -46.797  0.00  0.00    +0.000 OA
ATOM     31  H6  UNL     1      33.632  -9.509 -47.172  0.00  0.00    +0.000 HD
ENDBRANCH  26  30
ENDBRANCH  21  22
ENDBRANCH   3  20
TORSDOF 6
ENDMDL
MODEL 2
REMARK VINA RESULT:    -6.785      1.514      1.836
REMARK INTER + INTRA:          -9.096
REMARK INTER:                  -8.718
REMARK INTRA:                  -0.378
REMARK UNBOUND:                -0.328
REMARK  Name = resultss/4CJN/ligands/lig_169_t0.pdb
REMARK  6 active torsions:
REMARK  status: ('A' for Active; 'I' for Inactive)
REMARK    1  A    between atoms: C1_2  and  C9_14
REMARK    2  A    between atoms: N1_3  and  N2_4
REMARK    3  A    between atoms: C2_5  and  C3_6
REMARK    4  A    between atoms: C6_9  and  O2_10
REMARK    5  A    between atoms: C7_11  and  O3_12
REMARK    6  A    between atoms: C12_17  and  C13_18
REMARK                            x       y       z     vdW  Elec       q    Type
REMARK                         _______ _______ _______ _____ _____    ______ ____
ROOT
ATOM      1  O1  UNL     1      28.563 -11.973 -40.918  0.00  0.00    +0.000 OA
ATOM      2  C1  UNL     1      28.743 -10.751 -40.661  0.00  0.00    +0.000 C 
ATOM      3  N1  UNL     1      29.827 -10.045 -41.289  0.00  0.00    +0.000 N 
ATOM      4  H1  UNL     1      30.278  -9.261 -40.767  0.00  0.00    +0.000 HD
ENDROOT
BRANCH   2   5
ATOM      5  C9  UNL     1      27.864 -10.075 -39.676  0.00  0.00    +0.000 A 
ATOM      6  C10 UNL     1      26.801  -9.257 -40.097  0.00  0.00    +0.000 A 
ATOM      7  C11 UNL     1      25.974  -8.629 -39.161  0.00  0.00    +0.000 A 
ATOM      8  C12 UNL     1      26.187  -8.808 -37.784  0.00  0.00    +0.000 A 
ATOM      9  C20 UNL     1      27.244  -9.633 -37.363  0.00  0.00    +0.000 A 
ATOM     10  C21 UNL     1      28.070 -10.262 -38.299  0.00  0.00    +0.000 A 
BRANCH   8  11
ATOM     11  C13 UNL     1      25.305  -8.136 -36.801  0.00  0.00    +0.000 A 
ATOM     12  N3  UNL     1      25.242  -8.495 -35.492  0.00  0.00    +0.000 NA
ATOM     13  C14 UNL     1      24.360  -7.723 -34.808  0.00  0.00    +0.000 A 
ATOM     14  C15 UNL     1      24.084  -7.859 -33.446  0.00  0.00    +0.000 A 
ATOM     15  C16 UNL     1      23.144  -6.993 -32.858  0.00  0.00    +0.000 A 
ATOM     16  C17 UNL     1      22.497  -6.010 -33.633  0.00  0.00    +0.000 A 
ATOM     17  C18 UNL     1      22.782  -5.883 -35.001  0.00  0.00    +0.000 A 
ATOM     18  C19 UNL     1      23.716  -6.754 -35.558  0.00  0.00    +0.000 A 
ATOM     19  S1  UNL     1      24.256  -6.842 -37.142  0.00  0.00    +0.000 S 
ENDBRANCH   8  11
ENDBRANCH   2   5
BRANCH   3  20
ATOM     20  N2  UNL     1      30.461 -10.490 -42.465  0.00  0.00    +0.000 NA
ATOM     21  C2  UNL     1      31.489 -11.283 -42.471  0.00  0.00    +0.000 C 
BRANCH  21  22
ATOM     22  C3  UNL     1      32.122 -11.701 -43.739  0.00  0.00    +0.000 A 
ATOM     23  C4  UNL     1      32.148 -13.060 -44.079  0.00  0.00    +0.000 A 
ATOM     24  C5  UNL     1      32.742 -13.478 -45.272  0.00  0.00    +0.000 A 
ATOM     25  C6  UNL     1      33.318 -12.550 -46.147  0.00  0.00    +0.000 A 
ATOM     26  C7  UNL     1      33.298 -11.175 -45.813  0.00  0.00    +0.000 A 
ATOM     27  C8  UNL     1      32.701 -10.764 -44.615  0.00  0.00    +0.000 A 
BRANCH  25  28
ATOM     28  O2  UNL     1      33.895 -13.033 -47.323  0.00  0.00    +0.000 OA
ATOM     29  H5  UNL     1      34.867 -12.911 -47.567  0.00  0.00    +0.000 HD
ENDBRANCH  25  28
BRANCH  26  30
ATOM     30  O3  UNL     1      33.853 -10.191 -46.634  0.00  0.00    +0.000 OA
ATOM     31  H6  UNL     1      33.317  -9.617 -47.269  0.00  0.00    +0.000 HD
ENDBRANCH  26  30
ENDBRANCH  21  22
ENDBRANCH   3  20
TORSDOF 6
ENDMDL
MODEL 3
REMARK VINA RESULT:    -6.125      6.162      7.698
REMARK INTER + INTRA:          -8.244
REMARK INTER:                  -7.849
REMARK INTRA:                  -0.394
REMARK UNBOUND:                -0.328
REMARK  Name = resultss/4CJN/ligands/lig_169_t0.pdb
REMARK  6 active torsions:
REMARK  status: ('A' for Active; 'I' for Inactive)
REMARK    1  A    between atoms: C1_2  and  C9_14
REMARK    2  A    between atoms: N1_3  and  N2_4
REMARK    3  A    between atoms: C2_5  and  C3_6
REMARK    4  A    between atoms: C6_9  and  O2_10
REMARK    5  A    between atoms: C7_11  and  O3_12
REMARK    6  A    between atoms: C12_17  and  C13_18
REMARK                            x       y       z     vdW  Elec       q    Type
REMARK                         _______ _______ _______ _____ _____    ______ ____
ROOT
ATOM      1  O1  UNL     1      24.998 -10.655 -41.881  0.00  0.00    +0.000 OA
ATOM      2  C1  UNL     1      25.757  -9.682 -41.619  0.00  0.00    +0.000 C 
ATOM      3  N1  UNL     1      25.957  -8.652 -42.603  0.00  0.00    +0.000 N 
ATOM      4  H1  UNL     1      26.877  -8.157 -42.624  0.00  0.00    +0.000 HD
ENDROOT
BRANCH   2   5
ATOM      5  C9  UNL     1      26.470  -9.641 -40.319  0.00  0.00    +0.000 A 
ATOM      6  C10 UNL     1      26.335  -8.541 -39.454  0.00  0.00    +0.000 A 
ATOM      7  C11 UNL     1      27.005  -8.515 -38.227  0.00  0.00    +0.000 A 
ATOM      8  C12 UNL     1      27.823  -9.588 -37.835  0.00  0.00    +0.000 A 
ATOM      9  C20 UNL     1      27.951 -10.692 -38.697  0.00  0.00    +0.000 A 
ATOM     10  C21 UNL     1      27.280 -10.719 -39.922  0.00  0.00    +0.000 A 
BRANCH   8  11
ATOM     11  C13 UNL     1      28.530  -9.549 -36.535  0.00  0.00    +0.000 A 
ATOM     12  N3  UNL     1      29.885  -9.536 -36.425  0.00  0.00    +0.000 NA
ATOM     13  C14 UNL     1      30.277  -9.498 -35.127  0.00  0.00    +0.000 A 
ATOM     14  C15 UNL     1      31.608  -9.477 -34.706  0.00  0.00    +0.000 A 
ATOM     15  C16 UNL     1      31.879  -9.438 -33.326  0.00  0.00    +0.000 A 
ATOM     16  C17 UNL     1      30.824  -9.421 -32.392  0.00  0.00    +0.000 A 
ATOM     17  C18 UNL     1      29.490  -9.443 -32.827  0.00  0.00    +0.000 A 
ATOM     18  C19 UNL     1      29.250  -9.481 -34.199  0.00  0.00    +0.000 A 
ATOM     19  S1  UNL     1      27.783  -9.513 -35.008  0.00  0.00    +0.000 S 
ENDBRANCH   8  11
ENDBRANCH   2   5
BRANCH   3  20
ATOM     20  N2  UNL     1      25.075  -8.426 -43.677  0.00  0.00    +0.000 NA
ATOM     21  C2  UNL     1      25.254  -7.502 -44.571  0.00  0.00    +0.000 C 
BRANCH  21  22
ATOM     22  C3  UNL     1      24.282  -7.303 -45.666  0.00  0.00    +0.000 A 
ATOM     23  C4  UNL     1      24.749  -7.116 -46.974  0.00  0.00    +0.000 A 
ATOM     24  C5  UNL     1      23.849  -6.925 -48.024  0.00  0.00    +0.000 A 
ATOM     25  C6  UNL     1      22.469  -6.918 -47.790  0.00  0.00    +0.000 A 
ATOM     26  C7  UNL     1      21.987  -7.105 -46.473  0.00  0.00    +0.000 A 
ATOM     27  C8  UNL     1      22.896  -7.296 -45.425  0.00  0.00    +0.000 A 
BRANCH  25  28
ATOM     28  O2  UNL     1      21.623  -6.723 -48.883  0.00  0.00    +0.000 OA
ATOM     29  H5  UNL     1      20.622  -6.617 -48.811  0.00  0.00    +0.000 HD
ENDBRANCH  25  28
BRANCH  26  30
ATOM     30  O3  UNL     1      20.625  -7.109 -46.162  0.00  0.00    +0.000 OA
ATOM     31  H6  UNL     1      20.155  -7.871 -45.695  0.00  0.00    +0.000 HD
ENDBRANCH  26  30
ENDBRANCH  21  22
ENDBRANCH   3  20
TORSDOF 6
ENDMDL
MODEL 4
REMARK VINA RESULT:    -6.106      3.948     11.887
REMARK INTER + INTRA:          -8.218
REMARK INTER:                  -8.092
REMARK INTRA:                  -0.127
REMARK UNBOUND:                -0.328
REMARK  Name = resultss/4CJN/ligands/lig_169_t0.pdb
REMARK  6 active torsions:
REMARK  status: ('A' for Active; 'I' for Inactive)
REMARK    1  A    between atoms: C1_2  and  C9_14
REMARK    2  A    between atoms: N1_3  and  N2_4
REMARK    3  A    between atoms: C2_5  and  C3_6
REMARK    4  A    between atoms: C6_9  and  O2_10
REMARK    5  A    between atoms: C7_11  and  O3_12
REMARK    6  A    between atoms: C12_17  and  C13_18
REMARK                            x       y       z     vdW  Elec       q    Type
REMARK                         _______ _______ _______ _____ _____    ______ ____
ROOT
ATOM      1  O1  UNL     1      26.825  -8.405 -40.020  0.00  0.00    +0.000 OA
ATOM      2  C1  UNL     1      28.025  -8.639 -39.710  0.00  0.00    +0.000 C 
ATOM      3  N1  UNL     1      28.522  -8.217 -38.428  0.00  0.00    +0.000 N 
ATOM      4  H1  UNL     1      29.531  -7.956 -38.348  0.00  0.00    +0.000 HD
ENDROOT
BRANCH   2   5
ATOM      5  C9  UNL     1      28.918  -9.300 -40.693  0.00  0.00    +0.000 A 
ATOM      6  C10 UNL     1      30.314  -9.160 -40.610  0.00  0.00    +0.000 A 
ATOM      7  C11 UNL     1      31.149  -9.793 -41.535  0.00  0.00    +0.000 A 
ATOM      8  C12 UNL     1      30.607 -10.584 -42.563  0.00  0.00    +0.000 A 
ATOM      9  C20 UNL     1      29.211 -10.731 -42.641  0.00  0.00    +0.000 A 
ATOM     10  C21 UNL     1      28.377 -10.099 -41.714  0.00  0.00    +0.000 A 
BRANCH   8  11
ATOM     11  C13 UNL     1      31.500 -11.248 -43.540  0.00  0.00    +0.000 A 
ATOM     12  N3  UNL     1      32.120 -10.585 -44.551  0.00  0.00    +0.000 NA
ATOM     13  C14 UNL     1      32.881 -11.422 -45.301  0.00  0.00    +0.000 A 
ATOM     14  C15 UNL     1      33.633 -11.025 -46.408  0.00  0.00    +0.000 A 
ATOM     15  C16 UNL     1      34.380 -11.996 -47.100  0.00  0.00    +0.000 A 
ATOM     16  C17 UNL     1      34.365 -13.341 -46.680  0.00  0.00    +0.000 A 
ATOM     17  C18 UNL     1      33.604 -13.729 -45.566  0.00  0.00    +0.000 A 
ATOM     18  C19 UNL     1      32.874 -12.747 -44.899  0.00  0.00    +0.000 A 
ATOM     19  S1  UNL     1      31.887 -12.904 -43.554  0.00  0.00    +0.000 S 
ENDBRANCH   8  11
ENDBRANCH   2   5
BRANCH   3  20
ATOM     20  N2  UNL     1      27.688  -7.922 -37.333  0.00  0.00    +0.000 NA
ATOM     21  C2  UNL     1      26.630  -8.612 -37.031  0.00  0.00    +0.000 C 
BRANCH  21  22
ATOM     22  C3  UNL     1      25.783  -8.242 -35.879  0.00  0.00    +0.000 A 
ATOM     23  C4  UNL     1      24.394  -8.401 -35.966  0.00  0.00    +0.000 A 
ATOM     24  C5  UNL     1      23.574  -8.057 -34.890  0.00  0.00    +0.000 A 
ATOM     25  C6  UNL     1      24.123  -7.549 -33.708  0.00  0.00    +0.000 A 
ATOM     26  C7  UNL     1      25.525  -7.384 -33.608  0.00  0.00    +0.000 A 
ATOM     27  C8  UNL     1      26.340  -7.731 -34.692  0.00  0.00    +0.000 A 
BRANCH  25  28
ATOM     28  O2  UNL     1      23.249  -7.225 -32.668  0.00  0.00    +0.000 OA
ATOM     29  H5  UNL     1      22.666  -7.896 -32.190  0.00  0.00    +0.000 HD
ENDBRANCH  25  28
BRANCH  26  30
ATOM     30  O3  UNL     1      26.145  -6.882 -32.461  0.00  0.00    +0.000 OA
ATOM     31  H6  UNL     1      25.810  -7.043 -31.522  0.00  0.00    +0.000 HD
ENDBRANCH  26  30
ENDBRANCH  21  22
ENDBRANCH   3  20
TORSDOF 6
ENDMDL
MODEL 5
REMARK VINA RESULT:    -5.925      5.890      9.899
REMARK INTER + INTRA:          -7.986
REMARK INTER:                  -7.550
REMARK INTRA:                  -0.436
REMARK UNBOUND:                -0.328
REMARK  Name = resultss/4CJN/ligands/lig_169_t0.pdb
REMARK  6 active torsions:
REMARK  status: ('A' for Active; 'I' for Inactive)
REMARK    1  A    between atoms: C1_2  and  C9_14
REMARK    2  A    between atoms: N1_3  and  N2_4
REMARK    3  A    between atoms: C2_5  and  C3_6
REMARK    4  A    between atoms: C6_9  and  O2_10
REMARK    5  A    between atoms: C7_11  and  O3_12
REMARK    6  A    between atoms: C12_17  and  C13_18
REMARK                            x       y       z     vdW  Elec       q    Type
REMARK                         _______ _______ _______ _____ _____    ______ ____
ROOT
ATOM      1  O1  UNL     1      28.833 -10.394 -40.170  0.00  0.00    +0.000 OA
ATOM      2  C1  UNL     1      27.689  -9.951 -39.875  0.00  0.00    +0.000 C 
ATOM      3  N1  UNL     1      27.240  -9.999 -38.509  0.00  0.00    +0.000 N 
ATOM      4  H1  UNL     1      26.218 -10.110 -38.326  0.00  0.00    +0.000 HD
ENDROOT
BRANCH   2   5
ATOM      5  C9  UNL     1      26.806  -9.435 -40.948  0.00  0.00    +0.000 A 
ATOM      6  C10 UNL     1      25.438  -9.210 -40.714  0.00  0.00    +0.000 A 
ATOM      7  C11 UNL     1      24.615  -8.716 -41.730  0.00  0.00    +0.000 A 
ATOM      8  C12 UNL     1      25.140  -8.432 -43.002  0.00  0.00    +0.000 A 
ATOM      9  C20 UNL     1      26.509  -8.649 -43.234  0.00  0.00    +0.000 A 
ATOM     10  C21 UNL     1      27.333  -9.141 -42.218  0.00  0.00    +0.000 A 
BRANCH   8  11
ATOM     11  C13 UNL     1      24.257  -7.911 -44.072  0.00  0.00    +0.000 A 
ATOM     12  N3  UNL     1      24.625  -7.859 -45.379  0.00  0.00    +0.000 NA
ATOM     13  C14 UNL     1      23.637  -7.342 -46.152  0.00  0.00    +0.000 A 
ATOM     14  C15 UNL     1      23.728  -7.166 -47.534  0.00  0.00    +0.000 A 
ATOM     15  C16 UNL     1      22.628  -6.616 -48.218  0.00  0.00    +0.000 A 
ATOM     16  C17 UNL     1      21.461  -6.252 -47.517  0.00  0.00    +0.000 A 
ATOM     17  C18 UNL     1      21.382  -6.433 -46.127  0.00  0.00    +0.000 A 
ATOM     18  C19 UNL     1      22.485  -6.979 -45.475  0.00  0.00    +0.000 A 
ATOM     19  S1  UNL     1      22.684  -7.310 -43.845  0.00  0.00    +0.000 S 
ENDBRANCH   8  11
ENDBRANCH   2   5
BRANCH   3  20
ATOM     20  N2  UNL     1      28.113 -10.128 -37.412  0.00  0.00    +0.000 NA
ATOM     21  C2  UNL     1      28.297  -9.195 -36.527  0.00  0.00    +0.000 C 
BRANCH  21  22
ATOM     22  C3  UNL     1      29.241  -9.384 -35.406  0.00  0.00    +0.000 A 
ATOM     23  C4  UNL     1      28.748  -9.462 -34.097  0.00  0.00    +0.000 A 
ATOM     24  C5  UNL     1      29.621  -9.639 -33.022  0.00  0.00    +0.000 A 
ATOM     25  C6  UNL     1      31.000  -9.743 -33.233  0.00  0.00    +0.000 A 
ATOM     26  C7  UNL     1      31.510  -9.665 -34.550  0.00  0.00    +0.000 A 
ATOM     27  C8  UNL     1      30.627  -9.487 -35.623  0.00  0.00    +0.000 A 
BRANCH  25  28
ATOM     28  O2  UNL     1      31.819  -9.920 -32.116  0.00  0.00    +0.000 OA
ATOM     29  H5  UNL     1      31.505  -9.815 -31.162  0.00  0.00    +0.000 HD
ENDBRANCH  25  28
BRANCH  26  30
ATOM     30  O3  UNL     1      32.874  -9.760 -34.838  0.00  0.00    +0.000 OA
ATOM     31  H6  UNL     1      33.606  -9.542 -34.178  0.00  0.00    +0.000 HD
ENDBRANCH  26  30
ENDBRANCH  21  22
ENDBRANCH   3  20
TORSDOF 6
ENDMDL
MODEL 6
REMARK VINA RESULT:    -5.877      7.146      9.668
REMARK INTER + INTRA:          -7.923
REMARK INTER:                  -7.523
REMARK INTRA:                  -0.400
REMARK UNBOUND:                -0.328
REMARK  Name = resultss/4CJN/ligands/lig_169_t0.pdb
REMARK  6 active torsions:
REMARK  status: ('A' for Active; 'I' for Inactive)
REMARK    1  A    between atoms: C1_2  and  C9_14
REMARK    2  A    between atoms: N1_3  and  N2_4
REMARK    3  A    between atoms: C2_5  and  C3_6
REMARK    4  A    between atoms: C6_9  and  O2_10
REMARK    5  A    between atoms: C7_11  and  O3_12
REMARK    6  A    between atoms: C12_17  and  C13_18
REMARK                            x       y       z     vdW  Elec       q    Type
REMARK                         _______ _______ _______ _____ _____    ______ ____
ROOT
ATOM      1  O1  UNL     1      24.218 -10.009 -42.771  0.00  0.00    +0.000 OA
ATOM      2  C1  UNL     1      24.309  -9.045 -41.962  0.00  0.00    +0.000 C 
ATOM      3  N1  UNL     1      23.544  -7.849 -42.194  0.00  0.00    +0.000 N 
ATOM      4  H1  UNL     1      23.940  -6.937 -41.874  0.00  0.00    +0.000 HD
ENDROOT
BRANCH   2   5
ATOM      5  C9  UNL     1      25.240  -9.141 -40.811  0.00  0.00    +0.000 A 
ATOM      6  C10 UNL     1      26.447  -9.853 -40.916  0.00  0.00    +0.000 A 
ATOM      7  C11 UNL     1      27.322  -9.932 -39.828  0.00  0.00    +0.000 A 
ATOM      8  C12 UNL     1      27.012  -9.298 -38.613  0.00  0.00    +0.000 A 
ATOM      9  C20 UNL     1      25.809  -8.578 -38.512  0.00  0.00    +0.000 A 
ATOM     10  C21 UNL     1      24.935  -8.499 -39.599  0.00  0.00    +0.000 A 
BRANCH   8  11
ATOM     11  C13 UNL     1      27.945  -9.390 -37.467  0.00  0.00    +0.000 A 
ATOM     12  N3  UNL     1      27.532  -9.417 -36.172  0.00  0.00    +0.000 NA
ATOM     13  C14 UNL     1      28.583  -9.505 -35.318  0.00  0.00    +0.000 A 
ATOM     14  C15 UNL     1      28.467  -9.551 -33.927  0.00  0.00    +0.000 A 
ATOM     15  C16 UNL     1      29.639  -9.641 -33.155  0.00  0.00    +0.000 A 
ATOM     16  C17 UNL     1      30.903  -9.685 -33.777  0.00  0.00    +0.000 A 
ATOM     17  C18 UNL     1      31.007  -9.638 -35.176  0.00  0.00    +0.000 A 
ATOM     18  C19 UNL     1      29.831  -9.548 -35.917  0.00  0.00    +0.000 A 
ATOM     19  S1  UNL     1      29.639  -9.475 -37.580  0.00  0.00    +0.000 S 
ENDBRANCH   8  11
ENDBRANCH   2   5
BRANCH   3  20
ATOM     20  N2  UNL     1      22.406  -7.807 -43.022  0.00  0.00    +0.000 NA
ATOM     21  C2  UNL     1      21.613  -6.781 -43.100  0.00  0.00    +0.000 C 
BRANCH  21  22
ATOM     22  C3  UNL     1      20.422  -6.804 -43.975  0.00  0.00    +0.000 A 
ATOM     23  C4  UNL     1      20.580  -6.622 -45.355  0.00  0.00    +0.000 A 
ATOM     24  C5  UNL     1      19.469  -6.638 -46.201  0.00  0.00    +0.000 A 
ATOM     25  C6  UNL     1      18.183  -6.838 -45.687  0.00  0.00    +0.000 A 
ATOM     26  C7  UNL     1      18.012  -7.023 -44.295  0.00  0.00    +0.000 A 
ATOM     27  C8  UNL     1      19.131  -7.004 -43.453  0.00  0.00    +0.000 A 
BRANCH  25  28
ATOM     28  O2  UNL     1      17.115  -6.844 -46.586  0.00  0.00    +0.000 OA
ATOM     29  H5  UNL     1      16.400  -6.132 -46.619  0.00  0.00    +0.000 HD
ENDBRANCH  25  28
BRANCH  26  30
ATOM     30  O3  UNL     1      16.760  -7.226 -43.709  0.00  0.00    +0.000 OA
ATOM     31  H6  UNL     1      16.626  -7.545 -42.761  0.00  0.00    +0.000 HD
ENDBRANCH  26  30
ENDBRANCH  21  22
ENDBRANCH   3  20
TORSDOF 6
ENDMDL
MODEL 7
REMARK VINA RESULT:    -5.644      6.944     10.239
REMARK INTER + INTRA:          -7.622
REMARK INTER:                  -7.209
REMARK INTRA:                  -0.414
REMARK UNBOUND:                -0.328
REMARK  Name = resultss/4CJN/ligands/lig_169_t0.pdb
REMARK  6 active torsions:
REMARK  status: ('A' for Active; 'I' for Inactive)
REMARK    1  A    between atoms: C1_2  and  C9_14
REMARK    2  A    between atoms: N1_3  and  N2_4
REMARK    3  A    between atoms: C2_5  and  C3_6
REMARK    4  A    between atoms: C6_9  and  O2_10
REMARK    5  A    between atoms: C7_11  and  O3_12
REMARK    6  A    between atoms: C12_17  and  C13_18
REMARK                            x       y       z     vdW  Elec       q    Type
REMARK                         _______ _______ _______ _____ _____    ______ ____
ROOT
ATOM      1  O1  UNL     1      24.602  -8.862 -37.952  0.00  0.00    +0.000 OA
ATOM      2  C1  UNL     1      25.286  -8.173 -38.757  0.00  0.00    +0.000 C 
ATOM      3  N1  UNL     1      26.512  -7.568 -38.310  0.00  0.00    +0.000 N 
ATOM      4  H1  UNL     1      26.808  -6.665 -38.745  0.00  0.00    +0.000 HD
ENDROOT
BRANCH   2   5
ATOM      5  C9  UNL     1      24.791  -7.958 -40.139  0.00  0.00    +0.000 A 
ATOM      6  C10 UNL     1      24.647  -6.661 -40.661  0.00  0.00    +0.000 A 
ATOM      7  C11 UNL     1      24.187  -6.467 -41.966  0.00  0.00    +0.000 A 
ATOM      8  C12 UNL     1      23.864  -7.566 -42.782  0.00  0.00    +0.000 A 
ATOM      9  C20 UNL     1      24.017  -8.863 -42.262  0.00  0.00    +0.000 A 
ATOM     10  C21 UNL     1      24.478  -9.056 -40.957  0.00  0.00    +0.000 A 
BRANCH   8  11
ATOM     11  C13 UNL     1      23.375  -7.349 -44.163  0.00  0.00    +0.000 A 
ATOM     12  N3  UNL     1      22.062  -7.174 -44.468  0.00  0.00    +0.000 NA
ATOM     13  C14 UNL     1      21.882  -6.995 -45.801  0.00  0.00    +0.000 A 
ATOM     14  C15 UNL     1      20.642  -6.792 -46.409  0.00  0.00    +0.000 A 
ATOM     15  C16 UNL     1      20.594  -6.620 -47.804  0.00  0.00    +0.000 A 
ATOM     16  C17 UNL     1      21.777  -6.652 -48.568  0.00  0.00    +0.000 A 
ATOM     17  C18 UNL     1      23.019  -6.858 -47.946  0.00  0.00    +0.000 A 
ATOM     18  C19 UNL     1      23.037  -7.026 -46.563  0.00  0.00    +0.000 A 
ATOM     19  S1  UNL     1      24.350  -7.284 -45.554  0.00  0.00    +0.000 S 
ENDBRANCH   8  11
ENDBRANCH   2   5
BRANCH   3  20
ATOM     20  N2  UNL     1      27.218  -8.000 -37.171  0.00  0.00    +0.000 NA
ATOM     21  C2  UNL     1      28.378  -8.582 -37.224  0.00  0.00    +0.000 C 
BRANCH  21  22
ATOM     22  C3  UNL     1      29.062  -9.029 -35.993  0.00  0.00    +0.000 A 
ATOM     23  C4  UNL     1      28.310  -9.262 -34.834  0.00  0.00    +0.000 A 
ATOM     24  C5  UNL     1      28.935  -9.684 -33.659  0.00  0.00    +0.000 A 
ATOM     25  C6  UNL     1      30.320  -9.882 -33.618  0.00  0.00    +0.000 A 
ATOM     26  C7  UNL     1      31.089  -9.649 -34.782  0.00  0.00    +0.000 A 
ATOM     27  C8  UNL     1      30.455  -9.226 -35.957  0.00  0.00    +0.000 A 
BRANCH  25  28
ATOM     28  O2  UNL     1      30.883 -10.305 -32.413  0.00  0.00    +0.000 OA
ATOM     29  H5  UNL     1      31.153  -9.682 -31.666  0.00  0.00    +0.000 HD
ENDBRANCH  25  28
BRANCH  26  30
ATOM     30  O3  UNL     1      32.475  -9.824 -34.818  0.00  0.00    +0.000 OA
ATOM     31  H6  UNL     1      33.103  -9.244 -35.356  0.00  0.00    +0.000 HD
ENDBRANCH  26  30
ENDBRANCH  21  22
ENDBRANCH   3  20
TORSDOF 6
ENDMDL
MODEL 8
REMARK VINA RESULT:    -5.609      5.780     10.361
REMARK INTER + INTRA:          -7.576
REMARK INTER:                  -7.172
REMARK INTRA:                  -0.405
REMARK UNBOUND:                -0.328
REMARK  Name = resultss/4CJN/ligands/lig_169_t0.pdb
REMARK  6 active torsions:
REMARK  status: ('A' for Active; 'I' for Inactive)
REMARK    1  A    between atoms: C1_2  and  C9_14
REMARK    2  A    between atoms: N1_3  and  N2_4
REMARK    3  A    between atoms: C2_5  and  C3_6
REMARK    4  A    between atoms: C6_9  and  O2_10
REMARK    5  A    between atoms: C7_11  and  O3_12
REMARK    6  A    between atoms: C12_17  and  C13_18
REMARK                            x       y       z     vdW  Elec       q    Type
REMARK                         _______ _______ _______ _____ _____    ______ ____
ROOT
ATOM      1  O1  UNL     1      28.009 -10.811 -37.464  0.00  0.00    +0.000 OA
ATOM      2  C1  UNL     1      28.227  -9.626 -37.836  0.00  0.00    +0.000 C 
ATOM      3  N1  UNL     1      28.798  -8.684 -36.911  0.00  0.00    +0.000 N 
ATOM      4  H1  UNL     1      28.540  -7.676 -37.005  0.00  0.00    +0.000 HD
ENDROOT
BRANCH   2   5
ATOM      5  C9  UNL     1      27.844  -9.208 -39.207  0.00  0.00    +0.000 A 
ATOM      6  C10 UNL     1      26.982  -8.118 -39.417  0.00  0.00    +0.000 A 
ATOM      7  C11 UNL     1      26.633  -7.727 -40.713  0.00  0.00    +0.000 A 
ATOM      8  C12 UNL     1      27.141  -8.413 -41.829  0.00  0.00    +0.000 A 
ATOM      9  C20 UNL     1      28.011  -9.497 -41.620  0.00  0.00    +0.000 A 
ATOM     10  C21 UNL     1      28.361  -9.888 -40.324  0.00  0.00    +0.000 A 
BRANCH   8  11
ATOM     11  C13 UNL     1      26.763  -7.991 -43.197  0.00  0.00    +0.000 A 
ATOM     12  N3  UNL     1      27.669  -7.782 -44.188  0.00  0.00    +0.000 NA
ATOM     13  C14 UNL     1      27.065  -7.403 -45.342  0.00  0.00    +0.000 A 
ATOM     14  C15 UNL     1      27.741  -7.118 -46.530  0.00  0.00    +0.000 A 
ATOM     15  C16 UNL     1      26.993  -6.735 -47.658  0.00  0.00    +0.000 A 
ATOM     16  C17 UNL     1      25.589  -6.641 -47.584  0.00  0.00    +0.000 A 
ATOM     17  C18 UNL     1      24.919  -6.929 -46.384  0.00  0.00    +0.000 A 
ATOM     18  C19 UNL     1      25.685  -7.307 -45.283  0.00  0.00    +0.000 A 
ATOM     19  S1  UNL     1      25.176  -7.707 -43.738  0.00  0.00    +0.000 S 
ENDBRANCH   8  11
ENDBRANCH   2   5
BRANCH   3  20
ATOM     20  N2  UNL     1      29.502  -9.068 -35.753  0.00  0.00    +0.000 NA
ATOM     21  C2  UNL     1      30.229  -8.252 -35.052  0.00  0.00    +0.000 C 
BRANCH  21  22
ATOM     22  C3  UNL     1      30.960  -8.718 -33.856  0.00  0.00    +0.000 A 
ATOM     23  C4  UNL     1      31.593  -7.783 -33.028  0.00  0.00    +0.000 A 
ATOM     24  C5  UNL     1      32.290  -8.201 -31.893  0.00  0.00    +0.000 A 
ATOM     25  C6  UNL     1      32.367  -9.558 -31.562  0.00  0.00    +0.000 A 
ATOM     26  C7  UNL     1      31.732 -10.512 -32.391  0.00  0.00    +0.000 A 
ATOM     27  C8  UNL     1      31.035 -10.084 -33.528  0.00  0.00    +0.000 A 
BRANCH  25  28
ATOM     28  O2  UNL     1      33.079  -9.911 -30.414  0.00  0.00    +0.000 OA
ATOM     29  H5  UNL     1      34.003  -9.569 -30.195  0.00  0.00    +0.000 HD
ENDBRANCH  25  28
BRANCH  26  30
ATOM     30  O3  UNL     1      31.766 -11.884 -32.126  0.00  0.00    +0.000 OA
ATOM     31  H6  UNL     1      32.566 -12.364 -31.740  0.00  0.00    +0.000 HD
ENDBRANCH  26  30
ENDBRANCH  21  22
ENDBRANCH   3  20
TORSDOF 6
ENDMDL
MODEL 9
REMARK VINA RESULT:    -5.453      6.481      9.632
REMARK INTER + INTRA:          -7.376
REMARK INTER:                  -6.978
REMARK INTRA:                  -0.398
REMARK UNBOUND:                -0.328
REMARK  Name = resultss/4CJN/ligands/lig_169_t0.pdb
REMARK  6 active torsions:
REMARK  status: ('A' for Active; 'I' for Inactive)
REMARK    1  A    between atoms: C1_2  and  C9_14
REMARK    2  A    between atoms: N1_3  and  N2_4
REMARK    3  A    between atoms: C2_5  and  C3_6
REMARK    4  A    between atoms: C6_9  and  O2_10
REMARK    5  A    between atoms: C7_11  and  O3_12
REMARK    6  A    between atoms: C12_17  and  C13_18
REMARK                            x       y       z     vdW  Elec       q    Type
REMARK                         _______ _______ _______ _____ _____    ______ ____
ROOT
ATOM      1  O1  UNL     1      27.269 -10.402 -35.647  0.00  0.00    +0.000 OA
ATOM      2  C1  UNL     1      27.867  -9.664 -36.477  0.00  0.00    +0.000 C 
ATOM      3  N1  UNL     1      29.166  -9.138 -36.153  0.00  0.00    +0.000 N 
ATOM      4  H1  UNL     1      29.437  -8.209 -36.545  0.00  0.00    +0.000 HD
ENDROOT
BRANCH   2   5
ATOM      5  C9  UNL     1      27.199  -9.310 -37.754  0.00  0.00    +0.000 A 
ATOM      6  C10 UNL     1      26.331  -8.207 -37.834  0.00  0.00    +0.000 A 
ATOM      7  C11 UNL     1      25.713  -7.876 -39.043  0.00  0.00    +0.000 A 
ATOM      8  C12 UNL     1      25.951  -8.637 -40.201  0.00  0.00    +0.000 A 
ATOM      9  C20 UNL     1      26.827  -9.733 -40.123  0.00  0.00    +0.000 A 
ATOM     10  C21 UNL     1      27.446 -10.064 -38.914  0.00  0.00    +0.000 A 
BRANCH   8  11
ATOM     11  C13 UNL     1      25.289  -8.278 -41.476  0.00  0.00    +0.000 A 
ATOM     12  N3  UNL     1      23.965  -7.985 -41.569  0.00  0.00    +0.000 NA
ATOM     13  C14 UNL     1      23.611  -7.689 -42.846  0.00  0.00    +0.000 A 
ATOM     14  C15 UNL     1      22.318  -7.350 -43.246  0.00  0.00    +0.000 A 
ATOM     15  C16 UNL     1      22.084  -7.066 -44.604  0.00  0.00    +0.000 A 
ATOM     16  C17 UNL     1      23.139  -7.125 -45.537  0.00  0.00    +0.000 A 
ATOM     17  C18 UNL     1      24.435  -7.468 -45.123  0.00  0.00    +0.000 A 
ATOM     18  C19 UNL     1      24.638  -7.744 -43.772  0.00  0.00    +0.000 A 
ATOM     19  S1  UNL     1      26.056  -8.176 -42.990  0.00  0.00    +0.000 S 
ENDBRANCH   8  11
ENDBRANCH   2   5
BRANCH   3  20
ATOM     20  N2  UNL     1      30.000  -9.693 -35.164  0.00  0.00    +0.000 NA
ATOM     21  C2  UNL     1      30.971  -9.043 -34.597  0.00  0.00    +0.000 C 
BRANCH  21  22
ATOM     22  C3  UNL     1      31.824  -9.687 -33.576  0.00  0.00    +0.000 A 
ATOM     23  C4  UNL     1      33.203  -9.439 -33.576  0.00  0.00    +0.000 A 
ATOM     24  C5  UNL     1      34.028 -10.038 -32.622  0.00  0.00    +0.000 A 
ATOM     25  C6  UNL     1      33.494 -10.891 -31.651  0.00  0.00    +0.000 A 
ATOM     26  C7  UNL     1      32.103 -11.149 -31.641  0.00  0.00    +0.000 A 
ATOM     27  C8  UNL     1      31.282 -10.545 -32.602  0.00  0.00    +0.000 A 
BRANCH  25  28
ATOM     28  O2  UNL     1      34.373 -11.457 -30.725  0.00  0.00    +0.000 OA
ATOM     29  H5  UNL     1      34.170 -12.288 -30.188  0.00  0.00    +0.000 HD
ENDBRANCH  25  28
BRANCH  26  30
ATOM     30  O3  UNL     1      31.498 -11.991 -30.704  0.00  0.00    +0.000 OA
ATOM     31  H6  UNL     1      30.499 -12.067 -30.576  0.00  0.00    +0.000 HD
ENDBRANCH  26  30
ENDBRANCH  21  22
ENDBRANCH   3  20
TORSDOF 6
ENDMDL
