MODEL 1
REMARK VINA RESULT:    -5.928      0.000      0.000
REMARK INTER + INTRA:          -7.059
REMARK INTER:                  -6.447
REMARK INTRA:                  -0.612
REMARK UNBOUND:                -0.612
REMARK  Name = resultss/4CJN/ligands/lig_247_t1.pdb
REMARK  2 active torsions:
REMARK  status: ('A' for Active; 'I' for Inactive)
REMARK    1  A    between atoms: O1_1  and  C1_2
REMARK    2  A    between atoms: C8_11  and  C9_12
REMARK                            x       y       z     vdW  Elec       q    Type
REMARK                         _______ _______ _______ _____ _____    ______ ____
ROOT
ATOM      1  C1  UNL     1      25.318  -9.224 -40.899  0.00  0.00    +0.000 A 
ATOM      2  N1  UNL     1      25.299  -8.202 -41.794  0.00  0.00    +0.000 NA
ATOM      3  C2  UNL     1      26.334  -7.976 -42.652  0.00  0.00    +0.000 A 
ATOM      4  C3  UNL     1      26.249  -6.938 -43.585  0.00  0.00    +0.000 A 
ATOM      5  C4  UNL     1      27.271  -6.750 -44.518  0.00  0.00    +0.000 A 
ATOM      6  C5  UNL     1      28.368  -7.614 -44.539  0.00  0.00    +0.000 A 
ATOM      7  C6  UNL     1      28.468  -8.653 -43.608  0.00  0.00    +0.000 A 
ATOM      8  C7  UNL     1      27.476  -8.820 -42.618  0.00  0.00    +0.000 A 
ATOM      9  N2  UNL     1      27.512  -9.804 -41.660  0.00  0.00    +0.000 N 
ATOM     10  C8  UNL     1      28.467 -10.704 -41.303  0.00  0.00    +0.000 A 
ATOM     11  C15 UNL     1      27.980 -11.534 -40.304  0.00  0.00    +0.000 A 
ATOM     12  C16 UNL     1      26.699 -11.112 -40.013  0.00  0.00    +0.000 A 
ATOM     13  C17 UNL     1      26.454 -10.041 -40.851  0.00  0.00    +0.000 A 
ENDROOT
BRANCH  10  14
ATOM     14  C9  UNL     1      29.894 -10.671 -41.672  0.00  0.00    +0.000 A 
ATOM     15  C10 UNL     1      30.773  -9.791 -41.024  0.00  0.00    +0.000 A 
ATOM     16  C11 UNL     1      32.130  -9.785 -41.352  0.00  0.00    +0.000 A 
ATOM     17  C12 UNL     1      32.627 -10.669 -42.317  0.00  0.00    +0.000 A 
ATOM     18 CL1  UNL     1      34.341 -10.631 -42.704  0.00  0.00    +0.000 Cl
ATOM     19  C13 UNL     1      31.755 -11.570 -42.953  0.00  0.00    +0.000 A 
ATOM     20 CL2  UNL     1      32.341 -12.706 -44.161  0.00  0.00    +0.000 Cl
ATOM     21  C14 UNL     1      30.395 -11.573 -42.622  0.00  0.00    +0.000 A 
ENDBRANCH  10  14
BRANCH   1  22
ATOM     22  O1  UNL     1      24.222  -9.421 -40.060  0.00  0.00    +0.000 OA
ATOM     23  H1  UNL     1      24.057  -8.853 -39.239  0.00  0.00    +0.000 HD
ENDBRANCH   1  22
TORSDOF 2
ENDMDL
MODEL 2
REMARK VINA RESULT:    -5.835      7.178      9.439
REMARK INTER + INTRA:          -6.959
REMARK INTER:                  -6.648
REMARK INTRA:                  -0.311
REMARK UNBOUND:                -0.612
REMARK  Name = resultss/4CJN/ligands/lig_247_t1.pdb
REMARK  2 active torsions:
REMARK  status: ('A' for Active; 'I' for Inactive)
REMARK    1  A    between atoms: O1_1  and  C1_2
REMARK    2  A    between atoms: C8_11  and  C9_12
REMARK                            x       y       z     vdW  Elec       q    Type
REMARK                         _______ _______ _______ _____ _____    ______ ____
ROOT
ATOM      1  C1  UNL     1      31.083  -9.927 -37.339  0.00  0.00    +0.000 A 
ATOM      2  N1  UNL     1      31.765  -9.687 -36.189  0.00  0.00    +0.000 NA
ATOM      3  C2  UNL     1      31.128  -9.512 -34.997  0.00  0.00    +0.000 A 
ATOM      4  C3  UNL     1      31.876  -9.310 -33.832  0.00  0.00    +0.000 A 
ATOM      5  C4  UNL     1      31.233  -9.208 -32.597  0.00  0.00    +0.000 A 
ATOM      6  C5  UNL     1      29.845  -9.331 -32.517  0.00  0.00    +0.000 A 
ATOM      7  C6  UNL     1      29.085  -9.527 -33.674  0.00  0.00    +0.000 A 
ATOM      8  C7  UNL     1      29.710  -9.571 -34.938  0.00  0.00    +0.000 A 
ATOM      9  N2  UNL     1      29.031  -9.742 -36.121  0.00  0.00    +0.000 N 
ATOM     10  C8  UNL     1      27.705  -9.754 -36.425  0.00  0.00    +0.000 A 
ATOM     11  C15 UNL     1      27.537 -10.033 -37.773  0.00  0.00    +0.000 A 
ATOM     12  C16 UNL     1      28.796 -10.164 -38.323  0.00  0.00    +0.000 A 
ATOM     13  C17 UNL     1      29.684  -9.962 -37.284  0.00  0.00    +0.000 A 
ENDROOT
BRANCH  10  14
ATOM     14  C9  UNL     1      26.600  -9.275 -35.576  0.00  0.00    +0.000 A 
ATOM     15  C10 UNL     1      26.102 -10.081 -34.541  0.00  0.00    +0.000 A 
ATOM     16  C11 UNL     1      25.077  -9.611 -33.717  0.00  0.00    +0.000 A 
ATOM     17  C12 UNL     1      24.551  -8.329 -33.906  0.00  0.00    +0.000 A 
ATOM     18 CL1  UNL     1      23.260  -7.773 -32.849  0.00  0.00    +0.000 Cl
ATOM     19  C13 UNL     1      25.062  -7.508 -34.926  0.00  0.00    +0.000 A 
ATOM     20 CL2  UNL     1      24.438  -5.884 -35.188  0.00  0.00    +0.000 Cl
ATOM     21  C14 UNL     1      26.090  -7.981 -35.751  0.00  0.00    +0.000 A 
ENDBRANCH  10  14
BRANCH   1  22
ATOM     22  O1  UNL     1      31.788 -10.121 -38.527  0.00  0.00    +0.000 OA
ATOM     23  H1  UNL     1      31.729 -10.979 -39.059  0.00  0.00    +0.000 HD
ENDBRANCH   1  22
TORSDOF 2
ENDMDL
MODEL 3
REMARK VINA RESULT:    -5.619      4.470      6.235
REMARK INTER + INTRA:          -6.723
REMARK INTER:                  -6.134
REMARK INTRA:                  -0.589
REMARK UNBOUND:                -0.612
REMARK  Name = resultss/4CJN/ligands/lig_247_t1.pdb
REMARK  2 active torsions:
REMARK  status: ('A' for Active; 'I' for Inactive)
REMARK    1  A    between atoms: O1_1  and  C1_2
REMARK    2  A    between atoms: C8_11  and  C9_12
REMARK                            x       y       z     vdW  Elec       q    Type
REMARK                         _______ _______ _______ _____ _____    ______ ____
ROOT
ATOM      1  C1  UNL     1      25.428  -8.973 -34.891  0.00  0.00    +0.000 A 
ATOM      2  N1  UNL     1      26.550  -9.309 -34.202  0.00  0.00    +0.000 NA
ATOM      3  C2  UNL     1      27.761  -9.437 -34.815  0.00  0.00    +0.000 A 
ATOM      4  C3  UNL     1      28.896  -9.742 -34.056  0.00  0.00    +0.000 A 
ATOM      5  C4  UNL     1      30.150  -9.798 -34.666  0.00  0.00    +0.000 A 
ATOM      6  C5  UNL     1      30.280  -9.524 -36.029  0.00  0.00    +0.000 A 
ATOM      7  C6  UNL     1      29.153  -9.223 -36.800  0.00  0.00    +0.000 A 
ATOM      8  C7  UNL     1      27.869  -9.223 -36.215  0.00  0.00    +0.000 A 
ATOM      9  N2  UNL     1      26.714  -8.955 -36.909  0.00  0.00    +0.000 N 
ATOM     10  C8  UNL     1      26.456  -8.791 -38.235  0.00  0.00    +0.000 A 
ATOM     11  C15 UNL     1      25.120  -8.468 -38.415  0.00  0.00    +0.000 A 
ATOM     12  C16 UNL     1      24.529  -8.466 -37.168  0.00  0.00    +0.000 A 
ATOM     13  C17 UNL     1      25.532  -8.784 -36.274  0.00  0.00    +0.000 A 
ENDROOT
BRANCH  10  14
ATOM     14  C9  UNL     1      27.335  -9.162 -39.358  0.00  0.00    +0.000 A 
ATOM     15  C10 UNL     1      27.536 -10.512 -39.684  0.00  0.00    +0.000 A 
ATOM     16  C11 UNL     1      28.342 -10.860 -40.770  0.00  0.00    +0.000 A 
ATOM     17  C12 UNL     1      28.942  -9.865 -41.551  0.00  0.00    +0.000 A 
ATOM     18 CL1  UNL     1      29.952 -10.343 -42.909  0.00  0.00    +0.000 Cl
ATOM     19  C13 UNL     1      28.725  -8.511 -41.244  0.00  0.00    +0.000 A 
ATOM     20 CL2  UNL     1      29.450  -7.231 -42.207  0.00  0.00    +0.000 Cl
ATOM     21  C14 UNL     1      27.916  -8.165 -40.154  0.00  0.00    +0.000 A 
ENDBRANCH  10  14
BRANCH   1  22
ATOM     22  O1  UNL     1      24.221  -8.834 -34.208  0.00  0.00    +0.000 OA
ATOM     23  H1  UNL     1      23.688  -9.629 -33.880  0.00  0.00    +0.000 HD
ENDBRANCH   1  22
TORSDOF 2
ENDMDL
MODEL 4
REMARK VINA RESULT:    -5.576      7.248      8.739
REMARK INTER + INTRA:          -6.677
REMARK INTER:                  -6.107
REMARK INTRA:                  -0.569
REMARK UNBOUND:                -0.612
REMARK  Name = resultss/4CJN/ligands/lig_247_t1.pdb
REMARK  2 active torsions:
REMARK  status: ('A' for Active; 'I' for Inactive)
REMARK    1  A    between atoms: O1_1  and  C1_2
REMARK    2  A    between atoms: C8_11  and  C9_12
REMARK                            x       y       z     vdW  Elec       q    Type
REMARK                         _______ _______ _______ _____ _____    ______ ____
ROOT
ATOM      1  C1  UNL     1      28.384 -10.310 -37.571  0.00  0.00    +0.000 A 
ATOM      2  N1  UNL     1      27.255 -10.144 -36.834  0.00  0.00    +0.000 NA
ATOM      3  C2  UNL     1      27.287  -9.626 -35.574  0.00  0.00    +0.000 A 
ATOM      4  C3  UNL     1      26.093  -9.434 -34.871  0.00  0.00    +0.000 A 
ATOM      5  C4  UNL     1      26.111  -8.833 -33.611  0.00  0.00    +0.000 A 
ATOM      6  C5  UNL     1      27.318  -8.397 -33.061  0.00  0.00    +0.000 A 
ATOM      7  C6  UNL     1      28.520  -8.588 -33.750  0.00  0.00    +0.000 A 
ATOM      8  C7  UNL     1      28.528  -9.250 -34.996  0.00  0.00    +0.000 A 
ATOM      9  N2  UNL     1      29.668  -9.490 -35.725  0.00  0.00    +0.000 N 
ATOM     10  C8  UNL     1      30.990  -9.337 -35.441  0.00  0.00    +0.000 A 
ATOM     11  C15 UNL     1      31.749  -9.666 -36.554  0.00  0.00    +0.000 A 
ATOM     12  C16 UNL     1      30.873 -10.064 -37.542  0.00  0.00    +0.000 A 
ATOM     13  C17 UNL     1      29.610  -9.959 -36.992  0.00  0.00    +0.000 A 
ENDROOT
BRANCH  10  14
ATOM     14  C9  UNL     1      31.589  -9.138 -34.109  0.00  0.00    +0.000 A 
ATOM     15  C10 UNL     1      32.101  -7.884 -33.743  0.00  0.00    +0.000 A 
ATOM     16  C11 UNL     1      32.638  -7.689 -32.469  0.00  0.00    +0.000 A 
ATOM     17  C12 UNL     1      32.655  -8.737 -31.542  0.00  0.00    +0.000 A 
ATOM     18 CL1  UNL     1      33.341  -8.454 -29.948  0.00  0.00    +0.000 Cl
ATOM     19  C13 UNL     1      32.123  -9.990 -31.895  0.00  0.00    +0.000 A 
ATOM     20 CL2  UNL     1      32.112 -11.329 -30.756  0.00  0.00    +0.000 Cl
ATOM     21  C14 UNL     1      31.584 -10.183 -33.173  0.00  0.00    +0.000 A 
ENDBRANCH  10  14
BRANCH   1  22
ATOM     22  O1  UNL     1      28.290 -10.824 -38.864  0.00  0.00    +0.000 OA
ATOM     23  H1  UNL     1      27.410 -11.119 -39.268  0.00  0.00    +0.000 HD
ENDBRANCH   1  22
TORSDOF 2
ENDMDL
MODEL 5
REMARK VINA RESULT:    -5.520      1.908      2.599
REMARK INTER + INTRA:          -6.616
REMARK INTER:                  -6.006
REMARK INTRA:                  -0.610
REMARK UNBOUND:                -0.612
REMARK  Name = resultss/4CJN/ligands/lig_247_t1.pdb
REMARK  2 active torsions:
REMARK  status: ('A' for Active; 'I' for Inactive)
REMARK    1  A    between atoms: O1_1  and  C1_2
REMARK    2  A    between atoms: C8_11  and  C9_12
REMARK                            x       y       z     vdW  Elec       q    Type
REMARK                         _______ _______ _______ _____ _____    ______ ____
ROOT
ATOM      1  C1  UNL     1      23.759  -8.024 -43.637  0.00  0.00    +0.000 A 
ATOM      2  N1  UNL     1      24.200  -7.169 -44.596  0.00  0.00    +0.000 NA
ATOM      3  C2  UNL     1      25.524  -7.041 -44.894  0.00  0.00    +0.000 A 
ATOM      4  C3  UNL     1      25.925  -6.179 -45.921  0.00  0.00    +0.000 A 
ATOM      5  C4  UNL     1      27.271  -6.102 -46.282  0.00  0.00    +0.000 A 
ATOM      6  C5  UNL     1      28.217  -6.903 -45.639  0.00  0.00    +0.000 A 
ATOM      7  C6  UNL     1      27.830  -7.764 -44.608  0.00  0.00    +0.000 A 
ATOM      8  C7  UNL     1      26.484  -7.811 -44.186  0.00  0.00    +0.000 A 
ATOM      9  N2  UNL     1      26.030  -8.616 -43.170  0.00  0.00    +0.000 N 
ATOM     10  C8  UNL     1      26.673  -9.396 -42.259  0.00  0.00    +0.000 A 
ATOM     11  C15 UNL     1      25.743 -10.068 -41.479  0.00  0.00    +0.000 A 
ATOM     12  C16 UNL     1      24.492  -9.666 -41.899  0.00  0.00    +0.000 A 
ATOM     13  C17 UNL     1      24.709  -8.765 -42.923  0.00  0.00    +0.000 A 
ENDROOT
BRANCH  10  14
ATOM     14  C9  UNL     1      28.106  -9.357 -41.917  0.00  0.00    +0.000 A 
ATOM     15  C10 UNL     1      28.603  -8.359 -41.065  0.00  0.00    +0.000 A 
ATOM     16  C11 UNL     1      29.955  -8.343 -40.715  0.00  0.00    +0.000 A 
ATOM     17  C12 UNL     1      30.820  -9.332 -41.197  0.00  0.00    +0.000 A 
ATOM     18 CL1  UNL     1      32.516  -9.278 -40.737  0.00  0.00    +0.000 Cl
ATOM     19  C13 UNL     1      30.323 -10.347 -42.033  0.00  0.00    +0.000 A 
ATOM     20 CL2  UNL     1      31.374 -11.615 -42.650  0.00  0.00    +0.000 Cl
ATOM     21  C14 UNL     1      28.967 -10.361 -42.381  0.00  0.00    +0.000 A 
ENDBRANCH  10  14
BRANCH   1  22
ATOM     22  O1  UNL     1      22.391  -8.130 -43.390  0.00  0.00    +0.000 OA
ATOM     23  H1  UNL     1      22.017  -8.691 -42.635  0.00  0.00    +0.000 HD
ENDBRANCH   1  22
TORSDOF 2
ENDMDL
MODEL 6
REMARK VINA RESULT:    -5.366      5.971      7.723
REMARK INTER + INTRA:          -6.449
REMARK INTER:                  -5.941
REMARK INTRA:                  -0.508
REMARK UNBOUND:                -0.612
REMARK  Name = resultss/4CJN/ligands/lig_247_t1.pdb
REMARK  2 active torsions:
REMARK  status: ('A' for Active; 'I' for Inactive)
REMARK    1  A    between atoms: O1_1  and  C1_2
REMARK    2  A    between atoms: C8_11  and  C9_12
REMARK                            x       y       z     vdW  Elec       q    Type
REMARK                         _______ _______ _______ _____ _____    ______ ____
ROOT
ATOM      1  C1  UNL     1      29.669  -9.970 -39.491  0.00  0.00    +0.000 A 
ATOM      2  N1  UNL     1      28.660 -10.023 -40.400  0.00  0.00    +0.000 NA
ATOM      3  C2  UNL     1      27.384  -9.667 -40.080  0.00  0.00    +0.000 A 
ATOM      4  C3  UNL     1      26.387  -9.697 -41.061  0.00  0.00    +0.000 A 
ATOM      5  C4  UNL     1      25.096  -9.260 -40.760  0.00  0.00    +0.000 A 
ATOM      6  C5  UNL     1      24.802  -8.767 -39.488  0.00  0.00    +0.000 A 
ATOM      7  C6  UNL     1      25.787  -8.736 -38.496  0.00  0.00    +0.000 A 
ATOM      8  C7  UNL     1      27.081  -9.231 -38.762  0.00  0.00    +0.000 A 
ATOM      9  N2  UNL     1      28.096  -9.252 -37.837  0.00  0.00    +0.000 N 
ATOM     10  C8  UNL     1      28.128  -8.991 -36.502  0.00  0.00    +0.000 A 
ATOM     11  C15 UNL     1      29.430  -9.092 -36.035  0.00  0.00    +0.000 A 
ATOM     12  C16 UNL     1      30.219  -9.458 -37.106  0.00  0.00    +0.000 A 
ATOM     13  C17 UNL     1      29.365  -9.562 -38.187  0.00  0.00    +0.000 A 
ENDROOT
BRANCH  10  14
ATOM     14  C9  UNL     1      26.971  -8.896 -35.593  0.00  0.00    +0.000 A 
ATOM     15  C10 UNL     1      26.505 -10.035 -34.919  0.00  0.00    +0.000 A 
ATOM     16  C11 UNL     1      25.430  -9.935 -34.033  0.00  0.00    +0.000 A 
ATOM     17  C12 UNL     1      24.822  -8.698 -33.797  0.00  0.00    +0.000 A 
ATOM     18 CL1  UNL     1      23.470  -8.612 -32.676  0.00  0.00    +0.000 Cl
ATOM     19  C13 UNL     1      25.300  -7.549 -34.451  0.00  0.00    +0.000 A 
ATOM     20 CL2  UNL     1      24.572  -5.972 -34.173  0.00  0.00    +0.000 Cl
ATOM     21  C14 UNL     1      26.378  -7.651 -35.339  0.00  0.00    +0.000 A 
ENDBRANCH  10  14
BRANCH   1  22
ATOM     22  O1  UNL     1      30.960 -10.325 -39.880  0.00  0.00    +0.000 OA
ATOM     23  H1  UNL     1      31.764 -10.193 -39.280  0.00  0.00    +0.000 HD
ENDBRANCH   1  22
TORSDOF 2
ENDMDL
MODEL 7
REMARK VINA RESULT:    -5.348      5.548      7.607
REMARK INTER + INTRA:          -6.429
REMARK INTER:                  -5.817
REMARK INTRA:                  -0.612
REMARK UNBOUND:                -0.612
REMARK  Name = resultss/4CJN/ligands/lig_247_t1.pdb
REMARK  2 active torsions:
REMARK  status: ('A' for Active; 'I' for Inactive)
REMARK    1  A    between atoms: O1_1  and  C1_2
REMARK    2  A    between atoms: C8_11  and  C9_12
REMARK                            x       y       z     vdW  Elec       q    Type
REMARK                         _______ _______ _______ _____ _____    ______ ____
ROOT
ATOM      1  C1  UNL     1      27.485  -9.746 -34.688  0.00  0.00    +0.000 A 
ATOM      2  N1  UNL     1      26.448  -9.223 -33.983  0.00  0.00    +0.000 NA
ATOM      3  C2  UNL     1      25.369  -8.663 -34.598  0.00  0.00    +0.000 A 
ATOM      4  C3  UNL     1      24.305  -8.177 -33.831  0.00  0.00    +0.000 A 
ATOM      5  C4  UNL     1      23.164  -7.673 -34.456  0.00  0.00    +0.000 A 
ATOM      6  C5  UNL     1      23.069  -7.676 -35.849  0.00  0.00    +0.000 A 
ATOM      7  C6  UNL     1      24.126  -8.154 -36.629  0.00  0.00    +0.000 A 
ATOM      8  C7  UNL     1      25.313  -8.610 -36.017  0.00  0.00    +0.000 A 
ATOM      9  N2  UNL     1      26.401  -9.076 -36.714  0.00  0.00    +0.000 N 
ATOM     10  C8  UNL     1      26.705  -9.091 -38.040  0.00  0.00    +0.000 A 
ATOM     11  C15 UNL     1      27.913  -9.744 -38.236  0.00  0.00    +0.000 A 
ATOM     12  C16 UNL     1      28.384 -10.113 -36.993  0.00  0.00    +0.000 A 
ATOM     13  C17 UNL     1      27.440  -9.673 -36.085  0.00  0.00    +0.000 A 
ENDROOT
BRANCH  10  14
ATOM     14  C9  UNL     1      26.049  -8.313 -39.105  0.00  0.00    +0.000 A 
ATOM     15  C10 UNL     1      26.335  -6.948 -39.264  0.00  0.00    +0.000 A 
ATOM     16  C11 UNL     1      25.738  -6.220 -40.295  0.00  0.00    +0.000 A 
ATOM     17  C12 UNL     1      24.864  -6.849 -41.188  0.00  0.00    +0.000 A 
ATOM     18 CL1  UNL     1      24.129  -5.899 -42.473  0.00  0.00    +0.000 Cl
ATOM     19  C13 UNL     1      24.591  -8.221 -41.049  0.00  0.00    +0.000 A 
ATOM     20 CL2  UNL     1      23.508  -9.053 -42.157  0.00  0.00    +0.000 Cl
ATOM     21  C14 UNL     1      25.192  -8.949 -40.014  0.00  0.00    +0.000 A 
ENDBRANCH  10  14
BRANCH   1  22
ATOM     22  O1  UNL     1      28.554 -10.327 -34.006  0.00  0.00    +0.000 OA
ATOM     23  H1  UNL     1      28.435 -10.822 -33.131  0.00  0.00    +0.000 HD
ENDBRANCH   1  22
TORSDOF 2
ENDMDL
MODEL 8
REMARK VINA RESULT:    -5.256      4.147      5.500
REMARK INTER + INTRA:          -6.329
REMARK INTER:                  -5.726
REMARK INTRA:                  -0.603
REMARK UNBOUND:                -0.612
REMARK  Name = resultss/4CJN/ligands/lig_247_t1.pdb
REMARK  2 active torsions:
REMARK  status: ('A' for Active; 'I' for Inactive)
REMARK    1  A    between atoms: O1_1  and  C1_2
REMARK    2  A    between atoms: C8_11  and  C9_12
REMARK                            x       y       z     vdW  Elec       q    Type
REMARK                         _______ _______ _______ _____ _____    ______ ____
ROOT
ATOM      1  C1  UNL     1      25.795  -9.495 -42.508  0.00  0.00    +0.000 A 
ATOM      2  N1  UNL     1      27.032  -9.702 -43.031  0.00  0.00    +0.000 NA
ATOM      3  C2  UNL     1      28.148  -9.737 -42.248  0.00  0.00    +0.000 A 
ATOM      4  C3  UNL     1      29.395  -9.996 -42.827  0.00  0.00    +0.000 A 
ATOM      5  C4  UNL     1      30.529 -10.111 -42.021  0.00  0.00    +0.000 A 
ATOM      6  C5  UNL     1      30.419  -9.993 -40.634  0.00  0.00    +0.000 A 
ATOM      7  C6  UNL     1      29.180  -9.729 -40.044  0.00  0.00    +0.000 A 
ATOM      8  C7  UNL     1      28.033  -9.548 -40.845  0.00  0.00    +0.000 A 
ATOM      9  N2  UNL     1      26.786  -9.268 -40.341  0.00  0.00    +0.000 N 
ATOM     10  C8  UNL     1      26.349  -8.954 -39.092  0.00  0.00    +0.000 A 
ATOM     11  C15 UNL     1      24.968  -8.827 -39.097  0.00  0.00    +0.000 A 
ATOM     12  C16 UNL     1      24.544  -9.036 -40.393  0.00  0.00    +0.000 A 
ATOM     13  C17 UNL     1      25.686  -9.286 -41.128  0.00  0.00    +0.000 A 
ENDROOT
BRANCH  10  14
ATOM     14  C9  UNL     1      27.175  -8.524 -37.949  0.00  0.00    +0.000 A 
ATOM     15  C10 UNL     1      27.725  -7.234 -37.919  0.00  0.00    +0.000 A 
ATOM     16  C11 UNL     1      28.479  -6.818 -36.820  0.00  0.00    +0.000 A 
ATOM     17  C12 UNL     1      28.678  -7.678 -35.734  0.00  0.00    +0.000 A 
ATOM     18 CL1  UNL     1      29.635  -7.119 -34.369  0.00  0.00    +0.000 Cl
ATOM     19  C13 UNL     1      28.110  -8.963 -35.749  0.00  0.00    +0.000 A 
ATOM     20 CL2  UNL     1      28.325 -10.070 -34.399  0.00  0.00    +0.000 Cl
ATOM     21  C14 UNL     1      27.354  -9.378 -36.852  0.00  0.00    +0.000 A 
ENDBRANCH  10  14
BRANCH   1  22
ATOM     22  O1  UNL     1      24.687  -9.491 -43.354  0.00  0.00    +0.000 OA
ATOM     23  H1  UNL     1      23.990  -8.758 -43.333  0.00  0.00    +0.000 HD
ENDBRANCH   1  22
TORSDOF 2
ENDMDL
MODEL 9
REMARK VINA RESULT:    -5.087      3.153      4.513
REMARK INTER + INTRA:          -6.145
REMARK INTER:                  -5.551
REMARK INTRA:                  -0.594
REMARK UNBOUND:                -0.612
REMARK  Name = resultss/4CJN/ligands/lig_247_t1.pdb
REMARK  2 active torsions:
REMARK  status: ('A' for Active; 'I' for Inactive)
REMARK    1  A    between atoms: O1_1  and  C1_2
REMARK    2  A    between atoms: C8_11  and  C9_12
REMARK                            x       y       z     vdW  Elec       q    Type
REMARK                         _______ _______ _______ _____ _____    ______ ____
ROOT
ATOM      1  C1  UNL     1      22.898  -7.046 -45.175  0.00  0.00    +0.000 A 
ATOM      2  N1  UNL     1      23.733  -6.589 -46.145  0.00  0.00    +0.000 NA
ATOM      3  C2  UNL     1      25.086  -6.726 -46.053  0.00  0.00    +0.000 A 
ATOM      4  C3  UNL     1      25.902  -6.278 -47.097  0.00  0.00    +0.000 A 
ATOM      5  C4  UNL     1      27.281  -6.484 -47.045  0.00  0.00    +0.000 A 
ATOM      6  C5  UNL     1      27.848  -7.162 -45.964  0.00  0.00    +0.000 A 
ATOM      7  C6  UNL     1      27.045  -7.610 -44.911  0.00  0.00    +0.000 A 
ATOM      8  C7  UNL     1      25.657  -7.356 -44.915  0.00  0.00    +0.000 A 
ATOM      9  N2  UNL     1      24.806  -7.748 -43.911  0.00  0.00    +0.000 N 
ATOM     10  C8  UNL     1      25.023  -8.285 -42.680  0.00  0.00    +0.000 A 
ATOM     11  C15 UNL     1      23.809  -8.564 -42.070  0.00  0.00    +0.000 A 
ATOM     12  C16 UNL     1      22.815  -8.157 -42.935  0.00  0.00    +0.000 A 
ATOM     13  C17 UNL     1      23.463  -7.647 -44.043  0.00  0.00    +0.000 A 
ENDROOT
BRANCH  10  14
ATOM     14  C9  UNL     1      26.300  -8.323 -41.946  0.00  0.00    +0.000 A 
ATOM     15  C10 UNL     1      26.725  -7.209 -41.207  0.00  0.00    +0.000 A 
ATOM     16  C11 UNL     1      27.919  -7.258 -40.485  0.00  0.00    +0.000 A 
ATOM     17  C12 UNL     1      28.691  -8.425 -40.478  0.00  0.00    +0.000 A 
ATOM     18 CL1  UNL     1      30.190  -8.450 -39.558  0.00  0.00    +0.000 Cl
ATOM     19  C13 UNL     1      28.259  -9.553 -41.197  0.00  0.00    +0.000 A 
ATOM     20 CL2  UNL     1      29.193 -11.043 -41.203  0.00  0.00    +0.000 Cl
ATOM     21  C14 UNL     1      27.061  -9.500 -41.920  0.00  0.00    +0.000 A 
ENDBRANCH  10  14
BRANCH   1  22
ATOM     22  O1  UNL     1      21.520  -6.899 -45.332  0.00  0.00    +0.000 OA
ATOM     23  H1  UNL     1      20.975  -7.501 -45.936  0.00  0.00    +0.000 HD
ENDBRANCH   1  22
TORSDOF 2
ENDMDL
