MODEL 1
REMARK VINA RESULT:    -7.542      0.000      0.000
REMARK INTER + INTRA:         -10.703
REMARK INTER:                  -9.967
REMARK INTRA:                  -0.736
REMARK UNBOUND:                -0.736
REMARK  Name = resultss/4CJN/ligands/lig_432_t2.pdb
REMARK  6 active torsions:
REMARK  status: ('A' for Active; 'I' for Inactive)
REMARK    1  A    between atoms: C1_2  and  C9_17
REMARK    2  A    between atoms: N1_3  and  N2_4
REMARK    3  A    between atoms: C2_5  and  S1_6
REMARK    4  A    between atoms: N3_7  and  C3_8
REMARK    5  A    between atoms: C6_11  and  N4_12
REMARK    6  A    between atoms: C19_28  and  C20_29
REMARK                            x       y       z     vdW  Elec       q    Type
REMARK                         _______ _______ _______ _____ _____    ______ ____
ROOT
ATOM      1  C9  UNL     1      28.152  -9.230 -38.443  0.00  0.00    +0.000 A 
ATOM      2  C10 UNL     1      27.565  -9.166 -37.160  0.00  0.00    +0.000 A 
ATOM      3  C11 UNL     1      26.228  -8.792 -37.090  0.00  0.00    +0.000 A 
ATOM      4  C12 UNL     1      25.491  -8.495 -38.216  0.00  0.00    +0.000 A 
ATOM      5  N5  UNL     1      24.238  -8.094 -37.892  0.00  0.00    +0.000 N 
ATOM      6  C13 UNL     1      24.193  -8.158 -36.543  0.00  0.00    +0.000 A 
ATOM      7  C14 UNL     1      23.116  -7.831 -35.720  0.00  0.00    +0.000 A 
ATOM      8  C15 UNL     1      23.288  -7.953 -34.330  0.00  0.00    +0.000 A 
ATOM      9  C16 UNL     1      24.522  -8.387 -33.793  0.00  0.00    +0.000 A 
ATOM     10  C17 UNL     1      25.597  -8.707 -34.643  0.00  0.00    +0.000 A 
ATOM     11  C18 UNL     1      25.395  -8.583 -36.017  0.00  0.00    +0.000 A 
ATOM     12  C19 UNL     1      26.080  -8.576 -39.485  0.00  0.00    +0.000 A 
ATOM     13  N6  UNL     1      27.398  -8.932 -39.550  0.00  0.00    +0.000 NA
ATOM     14  H9  UNL     1      23.478  -7.766 -38.528  0.00  0.00    +0.000 HD
ENDROOT
BRANCH  12  15
ATOM     15  C20 UNL     1      25.344  -8.290 -40.734  0.00  0.00    +0.000 A 
ATOM     16  C21 UNL     1      25.402  -7.006 -41.299  0.00  0.00    +0.000 A 
ATOM     17  C22 UNL     1      24.730  -6.728 -42.494  0.00  0.00    +0.000 A 
ATOM     18  C23 UNL     1      24.007  -7.734 -43.141  0.00  0.00    +0.000 A 
ATOM     19  C24 UNL     1      23.961  -9.020 -42.597  0.00  0.00    +0.000 A 
ATOM     20  C25 UNL     1      24.631  -9.302 -41.402  0.00  0.00    +0.000 A 
ENDBRANCH  12  15
BRANCH   1  22
ATOM     21  O1  UNL     1      30.152 -10.281 -37.720  0.00  0.00    +0.000 OA
ATOM     22  C1  UNL     1      29.573  -9.598 -38.608  0.00  0.00    +0.000 C 
ATOM     23  N1  UNL     1      30.293  -9.203 -39.786  0.00  0.00    +0.000 N 
ATOM     24  H1  UNL     1      29.755  -8.962 -40.649  0.00  0.00    +0.000 HD
BRANCH  23  25
ATOM     25  N2  UNL     1      31.690  -9.337 -39.893  0.00  0.00    +0.000 N 
ATOM     26  C2  UNL     1      32.326  -9.948 -41.024  0.00  0.00    +0.000 C 
ATOM     27  N3  UNL     1      31.608 -10.610 -41.887  0.00  0.00    +0.000 NA
ATOM     28  H2  UNL     1      32.276  -9.119 -39.056  0.00  0.00    +0.000 HD
BRANCH  27  29
ATOM     29  C3  UNL     1      32.081 -11.262 -43.075  0.00  0.00    +0.000 A 
ATOM     30  C4  UNL     1      31.869 -12.636 -43.224  0.00  0.00    +0.000 A 
ATOM     31  C5  UNL     1      32.275 -13.294 -44.389  0.00  0.00    +0.000 A 
ATOM     32  C6  UNL     1      32.880 -12.577 -45.438  0.00  0.00    +0.000 A 
ATOM     33  C7  UNL     1      33.057 -11.189 -45.300  0.00  0.00    +0.000 A 
ATOM     34  C8  UNL     1      32.650 -10.536 -44.133  0.00  0.00    +0.000 A 
BRANCH  32  35
ATOM     35  N4  UNL     1      33.300 -13.248 -46.640  0.00  0.00    +0.000 N 
ATOM     36  O2  UNL     1      34.380 -12.949 -47.192  0.00  0.00    +0.000 OA
ATOM     37  O3  UNL     1      32.518 -14.229 -47.203  0.00  0.00    +0.000 OA
ENDBRANCH  32  35
ENDBRANCH  27  29
BRANCH  26  38
ATOM     38  S1  UNL     1      34.123  -9.919 -41.105  0.00  0.00    +0.000 S 
ATOM     39  H3  UNL     1      34.118  -9.966 -42.512  0.00  0.00    +0.000 HD
ENDBRANCH  26  38
ENDBRANCH  23  25
ENDBRANCH   1  22
TORSDOF 6
ENDMDL
MODEL 2
REMARK VINA RESULT:    -7.091      4.733      9.587
REMARK INTER + INTRA:         -10.107
REMARK INTER:                  -9.179
REMARK INTRA:                  -0.928
REMARK UNBOUND:                -0.736
REMARK  Name = resultss/4CJN/ligands/lig_432_t2.pdb
REMARK  6 active torsions:
REMARK  status: ('A' for Active; 'I' for Inactive)
REMARK    1  A    between atoms: C1_2  and  C9_17
REMARK    2  A    between atoms: N1_3  and  N2_4
REMARK    3  A    between atoms: C2_5  and  S1_6
REMARK    4  A    between atoms: N3_7  and  C3_8
REMARK    5  A    between atoms: C6_11  and  N4_12
REMARK    6  A    between atoms: C19_28  and  C20_29
REMARK                            x       y       z     vdW  Elec       q    Type
REMARK                         _______ _______ _______ _____ _____    ______ ____
ROOT
ATOM      1  C9  UNL     1      25.928  -7.597 -41.428  0.00  0.00    +0.000 A 
ATOM      2  C10 UNL     1      25.485  -7.106 -42.675  0.00  0.00    +0.000 A 
ATOM      3  C11 UNL     1      26.336  -7.270 -43.762  0.00  0.00    +0.000 A 
ATOM      4  C12 UNL     1      27.562  -7.886 -43.646  0.00  0.00    +0.000 A 
ATOM      5  N5  UNL     1      28.235  -7.868 -44.822  0.00  0.00    +0.000 N 
ATOM      6  C13 UNL     1      27.405  -7.244 -45.685  0.00  0.00    +0.000 A 
ATOM      7  C14 UNL     1      27.645  -6.963 -47.030  0.00  0.00    +0.000 A 
ATOM      8  C15 UNL     1      26.647  -6.283 -47.749  0.00  0.00    +0.000 A 
ATOM      9  C16 UNL     1      25.443  -5.893 -47.117  0.00  0.00    +0.000 A 
ATOM     10  C17 UNL     1      25.226  -6.182 -45.758  0.00  0.00    +0.000 A 
ATOM     11  C18 UNL     1      26.230  -6.864 -45.072  0.00  0.00    +0.000 A 
ATOM     12  C19 UNL     1      27.986  -8.383 -42.406  0.00  0.00    +0.000 A 
ATOM     13  N6  UNL     1      27.153  -8.209 -41.336  0.00  0.00    +0.000 NA
ATOM     14  H9  UNL     1      29.199  -8.217 -45.021  0.00  0.00    +0.000 HD
ENDROOT
BRANCH  12  15
ATOM     15  C20 UNL     1      29.280  -9.070 -42.213  0.00  0.00    +0.000 A 
ATOM     16  C21 UNL     1      30.175  -8.609 -41.234  0.00  0.00    +0.000 A 
ATOM     17  C22 UNL     1      31.392  -9.265 -41.024  0.00  0.00    +0.000 A 
ATOM     18  C23 UNL     1      31.719 -10.394 -41.781  0.00  0.00    +0.000 A 
ATOM     19  C24 UNL     1      30.825 -10.872 -42.743  0.00  0.00    +0.000 A 
ATOM     20  C25 UNL     1      29.607 -10.219 -42.956  0.00  0.00    +0.000 A 
ENDBRANCH  12  15
BRANCH   1  22
ATOM     21  O1  UNL     1      24.634  -6.315 -39.909  0.00  0.00    +0.000 OA
ATOM     22  C1  UNL     1      25.097  -7.447 -40.216  0.00  0.00    +0.000 C 
ATOM     23  N1  UNL     1      24.794  -8.588 -39.397  0.00  0.00    +0.000 N 
ATOM     24  H1  UNL     1      24.864  -9.542 -39.817  0.00  0.00    +0.000 HD
BRANCH  23  25
ATOM     25  N2  UNL     1      24.196  -8.465 -38.130  0.00  0.00    +0.000 N 
ATOM     26  C2  UNL     1      24.956  -8.429 -36.914  0.00  0.00    +0.000 C 
ATOM     27  N3  UNL     1      26.219  -8.745 -36.935  0.00  0.00    +0.000 NA
ATOM     28  H2  UNL     1      23.157  -8.551 -38.060  0.00  0.00    +0.000 HD
BRANCH  27  29
ATOM     29  C3  UNL     1      27.122  -8.744 -35.819  0.00  0.00    +0.000 A 
ATOM     30  C4  UNL     1      27.422  -9.956 -35.188  0.00  0.00    +0.000 A 
ATOM     31  C5  UNL     1      28.333  -9.997 -34.128  0.00  0.00    +0.000 A 
ATOM     32  C6  UNL     1      28.979  -8.823 -33.698  0.00  0.00    +0.000 A 
ATOM     33  C7  UNL     1      28.703  -7.614 -34.360  0.00  0.00    +0.000 A 
ATOM     34  C8  UNL     1      27.792  -7.577 -35.418  0.00  0.00    +0.000 A 
BRANCH  32  35
ATOM     35  N4  UNL     1      29.918  -8.859 -32.608  0.00  0.00    +0.000 N 
ATOM     36  O2  UNL     1      30.326  -7.802 -32.083  0.00  0.00    +0.000 OA
ATOM     37  O3  UNL     1      30.384 -10.060 -32.125  0.00  0.00    +0.000 OA
ENDBRANCH  32  35
ENDBRANCH  27  29
BRANCH  26  38
ATOM     38  S1  UNL     1      24.079  -8.116 -35.375  0.00  0.00    +0.000 S 
ATOM     39  H3  UNL     1      25.268  -7.793 -34.695  0.00  0.00    +0.000 HD
ENDBRANCH  26  38
ENDBRANCH  23  25
ENDBRANCH   1  22
TORSDOF 6
ENDMDL
MODEL 3
REMARK VINA RESULT:    -6.883      3.101      5.412
REMARK INTER + INTRA:          -9.833
REMARK INTER:                  -9.145
REMARK INTRA:                  -0.688
REMARK UNBOUND:                -0.736
REMARK  Name = resultss/4CJN/ligands/lig_432_t2.pdb
REMARK  6 active torsions:
REMARK  status: ('A' for Active; 'I' for Inactive)
REMARK    1  A    between atoms: C1_2  and  C9_17
REMARK    2  A    between atoms: N1_3  and  N2_4
REMARK    3  A    between atoms: C2_5  and  S1_6
REMARK    4  A    between atoms: N3_7  and  C3_8
REMARK    5  A    between atoms: C6_11  and  N4_12
REMARK    6  A    between atoms: C19_28  and  C20_29
REMARK                            x       y       z     vdW  Elec       q    Type
REMARK                         _______ _______ _______ _____ _____    ______ ____
ROOT
ATOM      1  C9  UNL     1      27.557  -8.667 -37.252  0.00  0.00    +0.000 A 
ATOM      2  C10 UNL     1      28.817  -9.019 -36.720  0.00  0.00    +0.000 A 
ATOM      3  C11 UNL     1      28.927  -9.080 -35.335  0.00  0.00    +0.000 A 
ATOM      4  C12 UNL     1      27.862  -8.815 -34.503  0.00  0.00    +0.000 A 
ATOM      5  N5  UNL     1      28.229  -8.873 -33.200  0.00  0.00    +0.000 N 
ATOM      6  C13 UNL     1      29.540  -9.195 -33.225  0.00  0.00    +0.000 A 
ATOM      7  C14 UNL     1      30.387  -9.362 -32.129  0.00  0.00    +0.000 A 
ATOM      8  C15 UNL     1      31.734  -9.681 -32.381  0.00  0.00    +0.000 A 
ATOM      9  C16 UNL     1      32.205  -9.819 -33.706  0.00  0.00    +0.000 A 
ATOM     10  C17 UNL     1      31.334  -9.641 -34.796  0.00  0.00    +0.000 A 
ATOM     11  C18 UNL     1      30.003  -9.332 -34.517  0.00  0.00    +0.000 A 
ATOM     12  C19 UNL     1      26.613  -8.481 -35.043  0.00  0.00    +0.000 A 
ATOM     13  N6  UNL     1      26.510  -8.408 -36.405  0.00  0.00    +0.000 NA
ATOM     14  H9  UNL     1      27.649  -8.675 -32.355  0.00  0.00    +0.000 HD
ENDROOT
BRANCH  12  15
ATOM     15  C20 UNL     1      25.424  -8.202 -34.211  0.00  0.00    +0.000 A 
ATOM     16  C21 UNL     1      24.993  -6.877 -34.033  0.00  0.00    +0.000 A 
ATOM     17  C22 UNL     1      23.855  -6.601 -33.267  0.00  0.00    +0.000 A 
ATOM     18  C23 UNL     1      23.131  -7.646 -32.687  0.00  0.00    +0.000 A 
ATOM     19  C24 UNL     1      23.541  -8.968 -32.876  0.00  0.00    +0.000 A 
ATOM     20  C25 UNL     1      24.678  -9.249 -33.640  0.00  0.00    +0.000 A 
ENDBRANCH  12  15
BRANCH   1  22
ATOM     21  O1  UNL     1      26.475  -9.259 -39.278  0.00  0.00    +0.000 OA
ATOM     22  C1  UNL     1      27.356  -8.557 -38.712  0.00  0.00    +0.000 C 
ATOM     23  N1  UNL     1      28.144  -7.639 -39.486  0.00  0.00    +0.000 N 
ATOM     24  H1  UNL     1      28.600  -6.833 -39.001  0.00  0.00    +0.000 HD
BRANCH  23  25
ATOM     25  N2  UNL     1      28.145  -7.651 -40.893  0.00  0.00    +0.000 N 
ATOM     26  C2  UNL     1      28.961  -8.546 -41.660  0.00  0.00    +0.000 C 
ATOM     27  N3  UNL     1      29.906  -9.221 -41.070  0.00  0.00    +0.000 NA
ATOM     28  H2  UNL     1      27.645  -6.884 -41.397  0.00  0.00    +0.000 HD
BRANCH  27  29
ATOM     29  C3  UNL     1      30.796 -10.166 -41.683  0.00  0.00    +0.000 A 
ATOM     30  C4  UNL     1      30.257 -11.285 -42.328  0.00  0.00    +0.000 A 
ATOM     31  C5  UNL     1      31.093 -12.200 -42.975  0.00  0.00    +0.000 A 
ATOM     32  C6  UNL     1      32.486 -11.995 -43.008  0.00  0.00    +0.000 A 
ATOM     33  C7  UNL     1      33.018 -10.849 -42.392  0.00  0.00    +0.000 A 
ATOM     34  C8  UNL     1      32.180  -9.937 -41.745  0.00  0.00    +0.000 A 
BRANCH  32  35
ATOM     35  N4  UNL     1      33.351 -12.933 -43.673  0.00  0.00    +0.000 N 
ATOM     36  O2  UNL     1      34.380 -13.360 -43.110  0.00  0.00    +0.000 OA
ATOM     37  O3  UNL     1      33.060 -13.374 -44.943  0.00  0.00    +0.000 OA
ENDBRANCH  32  35
ENDBRANCH  27  29
BRANCH  26  38
ATOM     38  S1  UNL     1      28.754  -8.562 -43.447  0.00  0.00    +0.000 S 
ATOM     39  H3  UNL     1      28.843  -9.966 -43.503  0.00  0.00    +0.000 HD
ENDBRANCH  26  38
ENDBRANCH  23  25
ENDBRANCH   1  22
TORSDOF 6
ENDMDL
MODEL 4
REMARK VINA RESULT:    -6.771      3.780      9.871
REMARK INTER + INTRA:          -9.685
REMARK INTER:                  -8.753
REMARK INTRA:                  -0.932
REMARK UNBOUND:                -0.736
REMARK  Name = resultss/4CJN/ligands/lig_432_t2.pdb
REMARK  6 active torsions:
REMARK  status: ('A' for Active; 'I' for Inactive)
REMARK    1  A    between atoms: C1_2  and  C9_17
REMARK    2  A    between atoms: N1_3  and  N2_4
REMARK    3  A    between atoms: C2_5  and  S1_6
REMARK    4  A    between atoms: N3_7  and  C3_8
REMARK    5  A    between atoms: C6_11  and  N4_12
REMARK    6  A    between atoms: C19_28  and  C20_29
REMARK                            x       y       z     vdW  Elec       q    Type
REMARK                         _______ _______ _______ _____ _____    ______ ____
ROOT
ATOM      1  C9  UNL     1      30.358  -9.272 -39.684  0.00  0.00    +0.000 A 
ATOM      2  C10 UNL     1      29.298  -8.438 -40.101  0.00  0.00    +0.000 A 
ATOM      3  C11 UNL     1      28.983  -8.438 -41.455  0.00  0.00    +0.000 A 
ATOM      4  C12 UNL     1      29.665  -9.216 -42.365  0.00  0.00    +0.000 A 
ATOM      5  N5  UNL     1      29.225  -8.997 -43.627  0.00  0.00    +0.000 N 
ATOM      6  C13 UNL     1      28.242  -8.080 -43.496  0.00  0.00    +0.000 A 
ATOM      7  C14 UNL     1      27.478  -7.512 -44.515  0.00  0.00    +0.000 A 
ATOM      8  C15 UNL     1      26.512  -6.554 -44.159  0.00  0.00    +0.000 A 
ATOM      9  C16 UNL     1      26.334  -6.180 -42.807  0.00  0.00    +0.000 A 
ATOM     10  C17 UNL     1      27.120  -6.763 -41.796  0.00  0.00    +0.000 A 
ATOM     11  C18 UNL     1      28.065  -7.714 -42.178  0.00  0.00    +0.000 A 
ATOM     12  C19 UNL     1      30.706 -10.051 -41.937  0.00  0.00    +0.000 A 
ATOM     13  N6  UNL     1      31.022 -10.039 -40.607  0.00  0.00    +0.000 NA
ATOM     14  H9  UNL     1      29.582  -9.408 -44.518  0.00  0.00    +0.000 HD
ENDROOT
BRANCH  12  15
ATOM     15  C20 UNL     1      31.467 -10.925 -42.855  0.00  0.00    +0.000 A 
ATOM     16  C21 UNL     1      31.135 -12.285 -42.958  0.00  0.00    +0.000 A 
ATOM     17  C22 UNL     1      31.831 -13.118 -43.841  0.00  0.00    +0.000 A 
ATOM     18  C23 UNL     1      32.854 -12.595 -44.637  0.00  0.00    +0.000 A 
ATOM     19  C24 UNL     1      33.177 -11.238 -44.557  0.00  0.00    +0.000 A 
ATOM     20  C25 UNL     1      32.484 -10.402 -43.675  0.00  0.00    +0.000 A 
ENDBRANCH  12  15
BRANCH   1  22
ATOM     21  O1  UNL     1      31.427 -10.305 -37.835  0.00  0.00    +0.000 OA
ATOM     22  C1  UNL     1      30.773  -9.318 -38.266  0.00  0.00    +0.000 C 
ATOM     23  N1  UNL     1      30.455  -8.231 -37.382  0.00  0.00    +0.000 N 
ATOM     24  H1  UNL     1      30.243  -7.294 -37.791  0.00  0.00    +0.000 HD
BRANCH  23  25
ATOM     25  N2  UNL     1      30.633  -8.320 -35.989  0.00  0.00    +0.000 N 
ATOM     26  C2  UNL     1      29.535  -8.382 -35.069  0.00  0.00    +0.000 C 
ATOM     27  N3  UNL     1      28.329  -8.122 -35.487  0.00  0.00    +0.000 NA
ATOM     28  H2  UNL     1      31.595  -8.189 -35.602  0.00  0.00    +0.000 HD
BRANCH  27  29
ATOM     29  C3  UNL     1      27.125  -8.155 -34.707  0.00  0.00    +0.000 A 
ATOM     30  C4  UNL     1      26.651  -6.967 -34.140  0.00  0.00    +0.000 A 
ATOM     31  C5  UNL     1      25.457  -6.956 -33.413  0.00  0.00    +0.000 A 
ATOM     32  C6  UNL     1      24.702  -8.135 -33.263  0.00  0.00    +0.000 A 
ATOM     33  C7  UNL     1      25.163  -9.318 -33.867  0.00  0.00    +0.000 A 
ATOM     34  C8  UNL     1      26.357  -9.325 -34.592  0.00  0.00    +0.000 A 
BRANCH  32  35
ATOM     35  N4  UNL     1      23.472  -8.130 -32.517  0.00  0.00    +0.000 N 
ATOM     36  O2  UNL     1      23.009  -9.189 -32.044  0.00  0.00    +0.000 OA
ATOM     37  O3  UNL     1      22.782  -6.957 -32.313  0.00  0.00    +0.000 OA
ENDBRANCH  32  35
ENDBRANCH  27  29
BRANCH  26  38
ATOM     38  S1  UNL     1      29.901  -8.647 -33.328  0.00  0.00    +0.000 S 
ATOM     39  H3  UNL     1      30.544  -7.400 -33.213  0.00  0.00    +0.000 HD
ENDBRANCH  26  38
ENDBRANCH  23  25
ENDBRANCH   1  22
TORSDOF 6
ENDMDL
MODEL 5
REMARK VINA RESULT:    -6.615      4.535      7.920
REMARK INTER + INTRA:          -9.479
REMARK INTER:                  -8.499
REMARK INTRA:                  -0.980
REMARK UNBOUND:                -0.736
REMARK  Name = resultss/4CJN/ligands/lig_432_t2.pdb
REMARK  6 active torsions:
REMARK  status: ('A' for Active; 'I' for Inactive)
REMARK    1  A    between atoms: C1_2  and  C9_17
REMARK    2  A    between atoms: N1_3  and  N2_4
REMARK    3  A    between atoms: C2_5  and  S1_6
REMARK    4  A    between atoms: N3_7  and  C3_8
REMARK    5  A    between atoms: C6_11  and  N4_12
REMARK    6  A    between atoms: C19_28  and  C20_29
REMARK                            x       y       z     vdW  Elec       q    Type
REMARK                         _______ _______ _______ _____ _____    ______ ____
ROOT
ATOM      1  C9  UNL     1      30.572  -9.356 -36.762  0.00  0.00    +0.000 A 
ATOM      2  C10 UNL     1      31.696  -9.589 -35.941  0.00  0.00    +0.000 A 
ATOM      3  C11 UNL     1      31.479  -9.654 -34.569  0.00  0.00    +0.000 A 
ATOM      4  C12 UNL     1      30.225  -9.502 -34.018  0.00  0.00    +0.000 A 
ATOM      5  N5  UNL     1      30.275  -9.538 -32.664  0.00  0.00    +0.000 N 
ATOM      6  C13 UNL     1      31.579  -9.731 -32.372  0.00  0.00    +0.000 A 
ATOM      7  C14 UNL     1      32.153  -9.826 -31.104  0.00  0.00    +0.000 A 
ATOM      8  C15 UNL     1      33.545 -10.009 -31.023  0.00  0.00    +0.000 A 
ATOM      9  C16 UNL     1      34.330 -10.087 -32.196  0.00  0.00    +0.000 A 
ATOM     10  C17 UNL     1      33.730  -9.983 -33.465  0.00  0.00    +0.000 A 
ATOM     11  C18 UNL     1      32.348  -9.808 -33.515  0.00  0.00    +0.000 A 
ATOM     12  C19 UNL     1      29.114  -9.286 -34.844  0.00  0.00    +0.000 A 
ATOM     13  N6  UNL     1      29.332  -9.209 -36.192  0.00  0.00    +0.000 NA
ATOM     14  H9  UNL     1      29.494  -9.406 -31.984  0.00  0.00    +0.000 HD
ENDROOT
BRANCH  12  15
ATOM     15  C20 UNL     1      27.740  -9.133 -34.323  0.00  0.00    +0.000 A 
ATOM     16  C21 UNL     1      27.379  -7.959 -33.641  0.00  0.00    +0.000 A 
ATOM     17  C22 UNL     1      26.076  -7.791 -33.163  0.00  0.00    +0.000 A 
ATOM     18  C23 UNL     1      25.118  -8.787 -33.376  0.00  0.00    +0.000 A 
ATOM     19  C24 UNL     1      25.462  -9.948 -34.072  0.00  0.00    +0.000 A 
ATOM     20  C25 UNL     1      26.765 -10.121 -34.551  0.00  0.00    +0.000 A 
ENDBRANCH  12  15
BRANCH   1  22
ATOM     21  O1  UNL     1      31.198  -8.205 -38.740  0.00  0.00    +0.000 OA
ATOM     22  C1  UNL     1      30.714  -9.251 -38.229  0.00  0.00    +0.000 C 
ATOM     23  N1  UNL     1      30.327 -10.345 -39.076  0.00  0.00    +0.000 N 
ATOM     24  H1  UNL     1      30.267 -11.303 -38.665  0.00  0.00    +0.000 HD
BRANCH  23  25
ATOM     25  N2  UNL     1      30.239 -10.217 -40.474  0.00  0.00    +0.000 N 
ATOM     26  C2  UNL     1      29.068  -9.718 -41.136  0.00  0.00    +0.000 C 
ATOM     27  N3  UNL     1      27.958  -9.585 -40.467  0.00  0.00    +0.000 NA
ATOM     28  H2  UNL     1      30.995 -10.637 -41.060  0.00  0.00    +0.000 HD
BRANCH  27  29
ATOM     29  C3  UNL     1      26.709  -9.088 -40.969  0.00  0.00    +0.000 A 
ATOM     30  C4  UNL     1      25.819  -9.980 -41.577  0.00  0.00    +0.000 A 
ATOM     31  C5  UNL     1      24.574  -9.536 -42.035  0.00  0.00    +0.000 A 
ATOM     32  C6  UNL     1      24.190  -8.192 -41.868  0.00  0.00    +0.000 A 
ATOM     33  C7  UNL     1      25.073  -7.308 -41.223  0.00  0.00    +0.000 A 
ATOM     34  C8  UNL     1      26.316  -7.755 -40.768  0.00  0.00    +0.000 A 
BRANCH  32  35
ATOM     35  N4  UNL     1      22.910  -7.730 -42.338  0.00  0.00    +0.000 N 
ATOM     36  O2  UNL     1      22.153  -8.492 -42.975  0.00  0.00    +0.000 OA
ATOM     37  O3  UNL     1      22.500  -6.440 -42.093  0.00  0.00    +0.000 OA
ENDBRANCH  32  35
ENDBRANCH  27  29
BRANCH  26  38
ATOM     38  S1  UNL     1      29.143  -9.463 -42.915  0.00  0.00    +0.000 S 
ATOM     39  H3  UNL     1      30.551  -9.490 -42.918  0.00  0.00    +0.000 HD
ENDBRANCH  26  38
ENDBRANCH  23  25
ENDBRANCH   1  22
TORSDOF 6
ENDMDL
MODEL 6
REMARK VINA RESULT:    -6.562      4.397      6.663
REMARK INTER + INTRA:          -9.408
REMARK INTER:                  -8.650
REMARK INTRA:                  -0.758
REMARK UNBOUND:                -0.736
REMARK  Name = resultss/4CJN/ligands/lig_432_t2.pdb
REMARK  6 active torsions:
REMARK  status: ('A' for Active; 'I' for Inactive)
REMARK    1  A    between atoms: C1_2  and  C9_17
REMARK    2  A    between atoms: N1_3  and  N2_4
REMARK    3  A    between atoms: C2_5  and  S1_6
REMARK    4  A    between atoms: N3_7  and  C3_8
REMARK    5  A    between atoms: C6_11  and  N4_12
REMARK    6  A    between atoms: C19_28  and  C20_29
REMARK                            x       y       z     vdW  Elec       q    Type
REMARK                         _______ _______ _______ _____ _____    ______ ____
ROOT
ATOM      1  C9  UNL     1      28.546  -9.155 -36.048  0.00  0.00    +0.000 A 
ATOM      2  C10 UNL     1      29.708  -8.685 -35.398  0.00  0.00    +0.000 A 
ATOM      3  C11 UNL     1      29.534  -7.980 -34.213  0.00  0.00    +0.000 A 
ATOM      4  C12 UNL     1      28.286  -7.745 -33.678  0.00  0.00    +0.000 A 
ATOM      5  N5  UNL     1      28.366  -6.984 -32.559  0.00  0.00    +0.000 N 
ATOM      6  C13 UNL     1      29.686  -6.758 -32.390  0.00  0.00    +0.000 A 
ATOM      7  C14 UNL     1      30.289  -6.009 -31.379  0.00  0.00    +0.000 A 
ATOM      8  C15 UNL     1      31.690  -5.883 -31.399  0.00  0.00    +0.000 A 
ATOM      9  C16 UNL     1      32.453  -6.494 -32.420  0.00  0.00    +0.000 A 
ATOM     10  C17 UNL     1      31.822  -7.240 -33.432  0.00  0.00    +0.000 A 
ATOM     11  C18 UNL     1      30.434  -7.354 -33.383  0.00  0.00    +0.000 A 
ATOM     12  C19 UNL     1      27.141  -8.229 -34.323  0.00  0.00    +0.000 A 
ATOM     13  N6  UNL     1      27.314  -8.910 -35.496  0.00  0.00    +0.000 NA
ATOM     14  H9  UNL     1      27.587  -6.613 -31.972  0.00  0.00    +0.000 HD
ENDROOT
BRANCH  12  15
ATOM     15  C20 UNL     1      25.774  -8.029 -33.797  0.00  0.00    +0.000 A 
ATOM     16  C21 UNL     1      25.270  -6.727 -33.641  0.00  0.00    +0.000 A 
ATOM     17  C22 UNL     1      23.970  -6.524 -33.167  0.00  0.00    +0.000 A 
ATOM     18  C23 UNL     1      23.159  -7.620 -32.858  0.00  0.00    +0.000 A 
ATOM     19  C24 UNL     1      23.644  -8.918 -33.030  0.00  0.00    +0.000 A 
ATOM     20  C25 UNL     1      24.943  -9.126 -33.503  0.00  0.00    +0.000 A 
ENDBRANCH  12  15
BRANCH   1  22
ATOM     21  O1  UNL     1      27.800 -10.799 -37.587  0.00  0.00    +0.000 OA
ATOM     22  C1  UNL     1      28.638  -9.894 -37.324  0.00  0.00    +0.000 C 
ATOM     23  N1  UNL     1      29.663  -9.573 -38.277  0.00  0.00    +0.000 N 
ATOM     24  H1  UNL     1      30.115  -8.632 -38.232  0.00  0.00    +0.000 HD
BRANCH  23  25
ATOM     25  N2  UNL     1      29.928 -10.381 -39.397  0.00  0.00    +0.000 N 
ATOM     26  C2  UNL     1      29.497 -10.037 -40.721  0.00  0.00    +0.000 C 
ATOM     27  N3  UNL     1      28.641  -9.070 -40.889  0.00  0.00    +0.000 NA
ATOM     28  H2  UNL     1      30.322 -11.336 -39.239  0.00  0.00    +0.000 HD
BRANCH  27  29
ATOM     29  C3  UNL     1      28.123  -8.590 -42.138  0.00  0.00    +0.000 A 
ATOM     30  C4  UNL     1      26.809  -8.909 -42.495  0.00  0.00    +0.000 A 
ATOM     31  C5  UNL     1      26.259  -8.419 -43.684  0.00  0.00    +0.000 A 
ATOM     32  C6  UNL     1      27.011  -7.578 -44.524  0.00  0.00    +0.000 A 
ATOM     33  C7  UNL     1      28.319  -7.229 -44.143  0.00  0.00    +0.000 A 
ATOM     34  C8  UNL     1      28.866  -7.722 -42.955  0.00  0.00    +0.000 A 
BRANCH  32  35
ATOM     35  N4  UNL     1      26.450  -7.070 -45.749  0.00  0.00    +0.000 N 
ATOM     36  O2  UNL     1      25.226  -6.847 -45.843  0.00  0.00    +0.000 OA
ATOM     37  O3  UNL     1      27.255  -6.824 -46.837  0.00  0.00    +0.000 OA
ENDBRANCH  32  35
ENDBRANCH  27  29
BRANCH  26  38
ATOM     38  S1  UNL     1      30.033 -11.081 -42.085  0.00  0.00    +0.000 S 
ATOM     39  H3  UNL     1      29.707 -10.100 -43.040  0.00  0.00    +0.000 HD
ENDBRANCH  26  38
ENDBRANCH  23  25
ENDBRANCH   1  22
TORSDOF 6
ENDMDL
MODEL 7
REMARK VINA RESULT:    -6.474      4.572      7.220
REMARK INTER + INTRA:          -9.292
REMARK INTER:                  -8.796
REMARK INTRA:                  -0.496
REMARK UNBOUND:                -0.736
REMARK  Name = resultss/4CJN/ligands/lig_432_t2.pdb
REMARK  6 active torsions:
REMARK  status: ('A' for Active; 'I' for Inactive)
REMARK    1  A    between atoms: C1_2  and  C9_17
REMARK    2  A    between atoms: N1_3  and  N2_4
REMARK    3  A    between atoms: C2_5  and  S1_6
REMARK    4  A    between atoms: N3_7  and  C3_8
REMARK    5  A    between atoms: C6_11  and  N4_12
REMARK    6  A    between atoms: C19_28  and  C20_29
REMARK                            x       y       z     vdW  Elec       q    Type
REMARK                         _______ _______ _______ _____ _____    ______ ____
ROOT
ATOM      1  C9  UNL     1      29.929  -9.619 -36.728  0.00  0.00    +0.000 A 
ATOM      2  C10 UNL     1      28.564  -9.265 -36.659  0.00  0.00    +0.000 A 
ATOM      3  C11 UNL     1      28.053  -8.942 -35.407  0.00  0.00    +0.000 A 
ATOM      4  C12 UNL     1      28.833  -8.957 -34.271  0.00  0.00    +0.000 A 
ATOM      5  N5  UNL     1      28.101  -8.673 -33.167  0.00  0.00    +0.000 N 
ATOM      6  C13 UNL     1      26.849  -8.462 -33.629  0.00  0.00    +0.000 A 
ATOM      7  C14 UNL     1      25.717  -8.147 -32.877  0.00  0.00    +0.000 A 
ATOM      8  C15 UNL     1      24.498  -7.987 -33.560  0.00  0.00    +0.000 A 
ATOM      9  C16 UNL     1      24.431  -8.148 -34.962  0.00  0.00    +0.000 A 
ATOM     10  C17 UNL     1      25.586  -8.470 -35.699  0.00  0.00    +0.000 A 
ATOM     11  C18 UNL     1      26.781  -8.617 -34.997  0.00  0.00    +0.000 A 
ATOM     12  C19 UNL     1      30.190  -9.295 -34.354  0.00  0.00    +0.000 A 
ATOM     13  N6  UNL     1      30.687  -9.626 -35.585  0.00  0.00    +0.000 NA
ATOM     14  H9  UNL     1      28.412  -8.656 -32.171  0.00  0.00    +0.000 HD
ENDROOT
BRANCH  12  15
ATOM     15  C20 UNL     1      31.089  -9.315 -33.181  0.00  0.00    +0.000 A 
ATOM     16  C21 UNL     1      31.388 -10.534 -32.551  0.00  0.00    +0.000 A 
ATOM     17  C22 UNL     1      32.256 -10.570 -31.455  0.00  0.00    +0.000 A 
ATOM     18  C23 UNL     1      32.843  -9.390 -30.989  0.00  0.00    +0.000 A 
ATOM     19  C24 UNL     1      32.568  -8.176 -31.622  0.00  0.00    +0.000 A 
ATOM     20  C25 UNL     1      31.701  -8.135 -32.718  0.00  0.00    +0.000 A 
ENDBRANCH  12  15
BRANCH   1  22
ATOM     21  O1  UNL     1      31.805 -10.005 -38.128  0.00  0.00    +0.000 OA
ATOM     22  C1  UNL     1      30.549  -9.997 -38.014  0.00  0.00    +0.000 C 
ATOM     23  N1  UNL     1      29.729 -10.379 -39.131  0.00  0.00    +0.000 N 
ATOM     24  H1  UNL     1      28.755 -10.710 -38.950  0.00  0.00    +0.000 HD
BRANCH  23  25
ATOM     25  N2  UNL     1      30.252 -10.536 -40.427  0.00  0.00    +0.000 N 
ATOM     26  C2  UNL     1      29.628  -9.973 -41.589  0.00  0.00    +0.000 C 
ATOM     27  N3  UNL     1      28.421  -9.490 -41.501  0.00  0.00    +0.000 NA
ATOM     28  H2  UNL     1      31.040 -11.208 -40.567  0.00  0.00    +0.000 HD
BRANCH  27  29
ATOM     29  C3  UNL     1      27.664  -8.879 -42.556  0.00  0.00    +0.000 A 
ATOM     30  C4  UNL     1      26.315  -9.219 -42.707  0.00  0.00    +0.000 A 
ATOM     31  C5  UNL     1      25.536  -8.607 -43.694  0.00  0.00    +0.000 A 
ATOM     32  C6  UNL     1      26.093  -7.623 -44.533  0.00  0.00    +0.000 A 
ATOM     33  C7  UNL     1      27.438  -7.258 -44.353  0.00  0.00    +0.000 A 
ATOM     34  C8  UNL     1      28.213  -7.872 -43.366  0.00  0.00    +0.000 A 
BRANCH  32  35
ATOM     35  N4  UNL     1      25.296  -6.991 -45.552  0.00  0.00    +0.000 N 
ATOM     36  O2  UNL     1      25.648  -5.902 -46.050  0.00  0.00    +0.000 OA
ATOM     37  O3  UNL     1      24.131  -7.574 -45.991  0.00  0.00    +0.000 OA
ENDBRANCH  32  35
ENDBRANCH  27  29
BRANCH  26  38
ATOM     38  S1  UNL     1      30.482 -10.119 -43.166  0.00  0.00    +0.000 S 
ATOM     39  H3  UNL     1      31.309 -11.153 -42.688  0.00  0.00    +0.000 HD
ENDBRANCH  26  38
ENDBRANCH  23  25
ENDBRANCH   1  22
TORSDOF 6
ENDMDL
MODEL 8
REMARK VINA RESULT:    -6.337      3.905     10.009
REMARK INTER + INTRA:          -9.111
REMARK INTER:                  -8.257
REMARK INTRA:                  -0.854
REMARK UNBOUND:                -0.736
REMARK  Name = resultss/4CJN/ligands/lig_432_t2.pdb
REMARK  6 active torsions:
REMARK  status: ('A' for Active; 'I' for Inactive)
REMARK    1  A    between atoms: C1_2  and  C9_17
REMARK    2  A    between atoms: N1_3  and  N2_4
REMARK    3  A    between atoms: C2_5  and  S1_6
REMARK    4  A    between atoms: N3_7  and  C3_8
REMARK    5  A    between atoms: C6_11  and  N4_12
REMARK    6  A    between atoms: C19_28  and  C20_29
REMARK                            x       y       z     vdW  Elec       q    Type
REMARK                         _______ _______ _______ _____ _____    ______ ____
ROOT
ATOM      1  C9  UNL     1      30.469  -9.166 -39.668  0.00  0.00    +0.000 A 
ATOM      2  C10 UNL     1      31.607  -9.774 -40.241  0.00  0.00    +0.000 A 
ATOM      3  C11 UNL     1      31.555 -10.067 -41.599  0.00  0.00    +0.000 A 
ATOM      4  C12 UNL     1      30.450  -9.778 -42.369  0.00  0.00    +0.000 A 
ATOM      5  N5  UNL     1      30.609 -10.215 -43.642  0.00  0.00    +0.000 N 
ATOM      6  C13 UNL     1      31.841 -10.769 -43.665  0.00  0.00    +0.000 A 
ATOM      7  C14 UNL     1      32.470 -11.376 -44.751  0.00  0.00    +0.000 A 
ATOM      8  C15 UNL     1      33.757 -11.910 -44.553  0.00  0.00    +0.000 A 
ATOM      9  C16 UNL     1      34.380 -11.834 -43.287  0.00  0.00    +0.000 A 
ATOM     10  C17 UNL     1      33.723 -11.222 -42.204  0.00  0.00    +0.000 A 
ATOM     11  C18 UNL     1      32.452 -10.695 -42.431  0.00  0.00    +0.000 A 
ATOM     12  C19 UNL     1      29.332  -9.161 -41.792  0.00  0.00    +0.000 A 
ATOM     13  N6  UNL     1      29.380  -8.887 -40.454  0.00  0.00    +0.000 NA
ATOM     14  H9  UNL     1      29.926 -10.176 -44.430  0.00  0.00    +0.000 HD
ENDROOT
BRANCH  12  15
ATOM     15  C20 UNL     1      28.121  -8.807 -42.562  0.00  0.00    +0.000 A 
ATOM     16  C21 UNL     1      26.894  -9.417 -42.251  0.00  0.00    +0.000 A 
ATOM     17  C22 UNL     1      25.736  -9.074 -42.955  0.00  0.00    +0.000 A 
ATOM     18  C23 UNL     1      25.790  -8.109 -43.964  0.00  0.00    +0.000 A 
ATOM     19  C24 UNL     1      27.001  -7.481 -44.266  0.00  0.00    +0.000 A 
ATOM     20  C25 UNL     1      28.162  -7.822 -43.565  0.00  0.00    +0.000 A 
ENDBRANCH  12  15
BRANCH   1  22
ATOM     21  O1  UNL     1      30.399  -7.636 -37.857  0.00  0.00    +0.000 OA
ATOM     22  C1  UNL     1      30.429  -8.840 -38.227  0.00  0.00    +0.000 C 
ATOM     23  N1  UNL     1      30.403  -9.889 -37.246  0.00  0.00    +0.000 N 
ATOM     24  H1  UNL     1      30.078 -10.840 -37.534  0.00  0.00    +0.000 HD
BRANCH  23  25
ATOM     25  N2  UNL     1      30.583  -9.639 -35.874  0.00  0.00    +0.000 N 
ATOM     26  C2  UNL     1      29.490  -9.384 -34.981  0.00  0.00    +0.000 C 
ATOM     27  N3  UNL     1      28.304  -9.147 -35.466  0.00  0.00    +0.000 NA
ATOM     28  H2  UNL     1      31.554  -9.487 -35.520  0.00  0.00    +0.000 HD
BRANCH  27  29
ATOM     29  C3  UNL     1      27.106  -8.893 -34.718  0.00  0.00    +0.000 A 
ATOM     30  C4  UNL     1      26.760  -7.570 -34.422  0.00  0.00    +0.000 A 
ATOM     31  C5  UNL     1      25.576  -7.285 -33.735  0.00  0.00    +0.000 A 
ATOM     32  C6  UNL     1      24.704  -8.323 -33.354  0.00  0.00    +0.000 A 
ATOM     33  C7  UNL     1      25.039  -9.647 -33.686  0.00  0.00    +0.000 A 
ATOM     34  C8  UNL     1      26.223  -9.928 -34.372  0.00  0.00    +0.000 A 
BRANCH  32  35
ATOM     35  N4  UNL     1      23.484  -8.035 -32.647  0.00  0.00    +0.000 N 
ATOM     36  O2  UNL     1      22.793  -8.958 -32.168  0.00  0.00    +0.000 OA
ATOM     37  O3  UNL     1      23.058  -6.737 -32.487  0.00  0.00    +0.000 OA
ENDBRANCH  32  35
ENDBRANCH  27  29
BRANCH  26  38
ATOM     38  S1  UNL     1      29.846  -9.231 -33.225  0.00  0.00    +0.000 S 
ATOM     39  H3  UNL     1      28.482  -9.288 -32.883  0.00  0.00    +0.000 HD
ENDBRANCH  26  38
ENDBRANCH  23  25
ENDBRANCH   1  22
TORSDOF 6
ENDMDL
MODEL 9
REMARK VINA RESULT:    -5.651      4.459      7.721
REMARK INTER + INTRA:          -8.204
REMARK INTER:                  -8.658
REMARK INTRA:                   0.453
REMARK UNBOUND:                -0.736
REMARK  Name = resultss/4CJN/ligands/lig_432_t2.pdb
REMARK  6 active torsions:
REMARK  status: ('A' for Active; 'I' for Inactive)
REMARK    1  A    between atoms: C1_2  and  C9_17
REMARK    2  A    between atoms: N1_3  and  N2_4
REMARK    3  A    between atoms: C2_5  and  S1_6
REMARK    4  A    between atoms: N3_7  and  C3_8
REMARK    5  A    between atoms: C6_11  and  N4_12
REMARK    6  A    between atoms: C19_28  and  C20_29
REMARK                            x       y       z     vdW  Elec       q    Type
REMARK                         _______ _______ _______ _____ _____    ______ ____
ROOT
ATOM      1  C9  UNL     1      27.517  -9.695 -40.019  0.00  0.00    +0.000 A 
ATOM      2  C10 UNL     1      27.838  -9.385 -38.679  0.00  0.00    +0.000 A 
ATOM      3  C11 UNL     1      29.170  -9.505 -38.299  0.00  0.00    +0.000 A 
ATOM      4  C12 UNL     1      30.150  -9.904 -39.182  0.00  0.00    +0.000 A 
ATOM      5  N5  UNL     1      31.352 -10.010 -38.567  0.00  0.00    +0.000 N 
ATOM      6  C13 UNL     1      31.117  -9.654 -37.285  0.00  0.00    +0.000 A 
ATOM      7  C14 UNL     1      32.040  -9.613 -36.240  0.00  0.00    +0.000 A 
ATOM      8  C15 UNL     1      31.577  -9.230 -34.968  0.00  0.00    +0.000 A 
ATOM      9  C16 UNL     1      30.216  -8.906 -34.765  0.00  0.00    +0.000 A 
ATOM     10  C17 UNL     1      29.302  -8.961 -35.833  0.00  0.00    +0.000 A 
ATOM     11  C18 UNL     1      29.790  -9.337 -37.084  0.00  0.00    +0.000 A 
ATOM     12  C19 UNL     1      29.822 -10.194 -40.513  0.00  0.00    +0.000 A 
ATOM     13  N6  UNL     1      28.509 -10.089 -40.880  0.00  0.00    +0.000 NA
ATOM     14  H9  UNL     1      32.260 -10.332 -38.970  0.00  0.00    +0.000 HD
ENDROOT
BRANCH  12  15
ATOM     15  C20 UNL     1      30.824 -10.610 -41.516  0.00  0.00    +0.000 A 
ATOM     16  C21 UNL     1      30.472 -11.535 -42.513  0.00  0.00    +0.000 A 
ATOM     17  C22 UNL     1      31.403 -11.919 -43.483  0.00  0.00    +0.000 A 
ATOM     18  C23 UNL     1      32.688 -11.371 -43.475  0.00  0.00    +0.000 A 
ATOM     19  C24 UNL     1      33.042 -10.435 -42.500  0.00  0.00    +0.000 A 
ATOM     20  C25 UNL     1      32.114 -10.048 -41.528  0.00  0.00    +0.000 A 
ENDBRANCH  12  15
BRANCH   1  22
ATOM     21  O1  UNL     1      25.654 -10.540 -41.219  0.00  0.00    +0.000 OA
ATOM     22  C1  UNL     1      26.123  -9.615 -40.502  0.00  0.00    +0.000 C 
ATOM     23  N1  UNL     1      25.292  -8.502 -40.138  0.00  0.00    +0.000 N 
ATOM     24  H1  UNL     1      25.541  -7.942 -39.292  0.00  0.00    +0.000 HD
BRANCH  23  25
ATOM     25  N2  UNL     1      24.042  -8.270 -40.741  0.00  0.00    +0.000 N 
ATOM     26  C2  UNL     1      23.903  -7.889 -42.117  0.00  0.00    +0.000 C 
ATOM     27  N3  UNL     1      24.954  -7.519 -42.792  0.00  0.00    +0.000 NA
ATOM     28  H2  UNL     1      23.195  -8.229 -40.130  0.00  0.00    +0.000 HD
BRANCH  27  29
ATOM     29  C3  UNL     1      24.992  -7.127 -44.172  0.00  0.00    +0.000 A 
ATOM     30  C4  UNL     1      26.166  -7.335 -44.904  0.00  0.00    +0.000 A 
ATOM     31  C5  UNL     1      26.222  -7.007 -46.262  0.00  0.00    +0.000 A 
ATOM     32  C6  UNL     1      25.090  -6.487 -46.917  0.00  0.00    +0.000 A 
ATOM     33  C7  UNL     1      23.901  -6.315 -46.186  0.00  0.00    +0.000 A 
ATOM     34  C8  UNL     1      23.849  -6.643 -44.829  0.00  0.00    +0.000 A 
BRANCH  32  35
ATOM     35  N4  UNL     1      25.141  -6.147 -48.315  0.00  0.00    +0.000 N 
ATOM     36  O2  UNL     1      26.234  -6.086 -48.915  0.00  0.00    +0.000 OA
ATOM     37  O3  UNL     1      23.986  -5.883 -49.013  0.00  0.00    +0.000 OA
ENDBRANCH  32  35
ENDBRANCH  27  29
BRANCH  26  38
ATOM     38  S1  UNL     1      22.243  -7.772 -42.801  0.00  0.00    +0.000 S 
ATOM     39  H3  UNL     1      22.164  -9.164 -42.998  0.00  0.00    +0.000 HD
ENDBRANCH  26  38
ENDBRANCH  23  25
ENDBRANCH   1  22
TORSDOF 6
ENDMDL
