MODEL 1
REMARK VINA RESULT:    -5.506      0.000      0.000
REMARK INTER + INTRA:          -6.276
REMARK INTER:                  -5.989
REMARK INTRA:                  -0.287
REMARK UNBOUND:                -0.287
REMARK  Name = resultss/4CJN/ligands/lig_37_t1.pdb
REMARK  2 active torsions:
REMARK  status: ('A' for Active; 'I' for Inactive)
REMARK    1  A    between atoms: C2_3  and  C3_4
REMARK    2  A    between atoms: C6_7  and  O2_8
REMARK                            x       y       z     vdW  Elec       q    Type
REMARK                         _______ _______ _______ _____ _____    ______ ____
ROOT
ATOM      1  O1  UNL     1      27.641 -10.407 -36.686  0.00  0.00    +0.000 OA
ATOM      2  C1  UNL     1      26.863  -9.508 -37.111  0.00  0.00    +0.000 A 
ATOM      3  C2  UNL     1      27.014  -9.014 -38.419  0.00  0.00    +0.000 A 
ATOM      4  C9  UNL     1      26.158  -7.988 -38.841  0.00  0.00    +0.000 A 
ATOM      5  O3  UNL     1      25.226  -7.505 -38.031  0.00  0.00    +0.000 OA
ATOM      6  C10 UNL     1      25.037  -7.952 -36.794  0.00  0.00    +0.000 A 
ATOM      7  C11 UNL     1      23.959  -7.301 -35.970  0.00  0.00    +0.000 C 
ATOM      8  C12 UNL     1      23.534  -8.174 -34.826  0.00  0.00    +0.000 C 
ATOM      9  O4  UNL     1      22.356  -8.238 -34.507  0.00  0.00    +0.000 OA
ATOM     10  C13 UNL     1      24.574  -8.877 -34.006  0.00  0.00    +0.000 C 
ATOM     11  C14 UNL     1      25.634  -9.477 -34.885  0.00  0.00    +0.000 C 
ATOM     12  O5  UNL     1      26.359 -10.389 -34.406  0.00  0.00    +0.000 OA
ATOM     13  C15 UNL     1      25.857  -8.979 -36.274  0.00  0.00    +0.000 A 
ENDROOT
BRANCH   3  14
ATOM     14  C3  UNL     1      28.046  -9.544 -39.347  0.00  0.00    +0.000 A 
ATOM     15  C4  UNL     1      27.736 -10.598 -40.223  0.00  0.00    +0.000 A 
ATOM     16  C5  UNL     1      28.708 -11.104 -41.093  0.00  0.00    +0.000 A 
ATOM     17  C6  UNL     1      30.000 -10.569 -41.092  0.00  0.00    +0.000 A 
ATOM     18  C7  UNL     1      30.319  -9.524 -40.216  0.00  0.00    +0.000 A 
ATOM     19  C8  UNL     1      29.350  -9.015 -39.347  0.00  0.00    +0.000 A 
BRANCH  17  20
ATOM     20  O2  UNL     1      30.958 -11.084 -41.964  0.00  0.00    +0.000 OA
ATOM     21  H3  UNL     1      31.933 -10.817 -41.896  0.00  0.00    +0.000 HD
ENDBRANCH  17  20
ENDBRANCH   3  14
TORSDOF 2
ENDMDL
MODEL 2
REMARK VINA RESULT:    -5.272      1.589      6.966
REMARK INTER + INTRA:          -6.022
REMARK INTER:                  -5.784
REMARK INTRA:                  -0.238
REMARK UNBOUND:                -0.287
REMARK  Name = resultss/4CJN/ligands/lig_37_t1.pdb
REMARK  2 active torsions:
REMARK  status: ('A' for Active; 'I' for Inactive)
REMARK    1  A    between atoms: C2_3  and  C3_4
REMARK    2  A    between atoms: C6_7  and  O2_8
REMARK                            x       y       z     vdW  Elec       q    Type
REMARK                         _______ _______ _______ _____ _____    ______ ____
ROOT
ATOM      1  O1  UNL     1      24.717  -8.821 -38.045  0.00  0.00    +0.000 OA
ATOM      2  C1  UNL     1      25.959  -8.903 -37.839  0.00  0.00    +0.000 A 
ATOM      3  C2  UNL     1      26.476  -8.626 -36.560  0.00  0.00    +0.000 A 
ATOM      4  C9  UNL     1      27.864  -8.688 -36.381  0.00  0.00    +0.000 A 
ATOM      5  O3  UNL     1      28.666  -9.009 -37.387  0.00  0.00    +0.000 OA
ATOM      6  C10 UNL     1      28.221  -9.293 -38.607  0.00  0.00    +0.000 A 
ATOM      7  C11 UNL     1      29.239  -9.618 -39.666  0.00  0.00    +0.000 C 
ATOM      8  C12 UNL     1      28.623 -10.362 -40.815  0.00  0.00    +0.000 C 
ATOM      9  O4  UNL     1      29.235 -11.272 -41.355  0.00  0.00    +0.000 OA
ATOM     10  C13 UNL     1      27.305  -9.911 -41.367  0.00  0.00    +0.000 C 
ATOM     11  C14 UNL     1      26.347  -9.573 -40.261  0.00  0.00    +0.000 C 
ATOM     12  O5  UNL     1      25.117  -9.534 -40.529  0.00  0.00    +0.000 OA
ATOM     13  C15 UNL     1      26.837  -9.248 -38.889  0.00  0.00    +0.000 A 
ENDROOT
BRANCH   3  14
ATOM     14  C3  UNL     1      25.598  -8.272 -35.415  0.00  0.00    +0.000 A 
ATOM     15  C4  UNL     1      25.067  -6.975 -35.305  0.00  0.00    +0.000 A 
ATOM     16  C5  UNL     1      24.245  -6.637 -34.224  0.00  0.00    +0.000 A 
ATOM     17  C6  UNL     1      23.951  -7.585 -33.240  0.00  0.00    +0.000 A 
ATOM     18  C7  UNL     1      24.483  -8.877 -33.339  0.00  0.00    +0.000 A 
ATOM     19  C8  UNL     1      25.303  -9.219 -34.418  0.00  0.00    +0.000 A 
BRANCH  17  20
ATOM     20  O2  UNL     1      23.132  -7.234 -32.169  0.00  0.00    +0.000 OA
ATOM     21  H3  UNL     1      22.495  -7.900 -31.749  0.00  0.00    +0.000 HD
ENDBRANCH  17  20
ENDBRANCH   3  14
TORSDOF 2
ENDMDL
MODEL 3
REMARK VINA RESULT:    -5.227      1.693      6.731
REMARK INTER + INTRA:          -5.972
REMARK INTER:                  -5.813
REMARK INTRA:                  -0.159
REMARK UNBOUND:                -0.287
REMARK  Name = resultss/4CJN/ligands/lig_37_t1.pdb
REMARK  2 active torsions:
REMARK  status: ('A' for Active; 'I' for Inactive)
REMARK    1  A    between atoms: C2_3  and  C3_4
REMARK    2  A    between atoms: C6_7  and  O2_8
REMARK                            x       y       z     vdW  Elec       q    Type
REMARK                         _______ _______ _______ _____ _____    ______ ____
ROOT
ATOM      1  O1  UNL     1      26.370  -9.823 -36.433  0.00  0.00    +0.000 OA
ATOM      2  C1  UNL     1      26.040  -9.065 -37.386  0.00  0.00    +0.000 A 
ATOM      3  C2  UNL     1      25.125  -8.019 -37.162  0.00  0.00    +0.000 A 
ATOM      4  C9  UNL     1      24.752  -7.224 -38.254  0.00  0.00    +0.000 A 
ATOM      5  O3  UNL     1      25.255  -7.446 -39.460  0.00  0.00    +0.000 OA
ATOM      6  C10 UNL     1      26.133  -8.411 -39.714  0.00  0.00    +0.000 A 
ATOM      7  C11 UNL     1      26.607  -8.571 -41.133  0.00  0.00    +0.000 C 
ATOM      8  C12 UNL     1      27.897  -9.335 -41.202  0.00  0.00    +0.000 C 
ATOM      9  O4  UNL     1      28.763  -9.007 -42.000  0.00  0.00    +0.000 OA
ATOM     10  C13 UNL     1      28.073 -10.567 -40.367  0.00  0.00    +0.000 C 
ATOM     11  C14 UNL     1      27.552 -10.351 -38.975  0.00  0.00    +0.000 C 
ATOM     12  O5  UNL     1      27.944 -11.129 -38.064  0.00  0.00    +0.000 OA
ATOM     13  C15 UNL     1      26.563  -9.272 -38.680  0.00  0.00    +0.000 A 
ENDROOT
BRANCH   3  14
ATOM     14  C3  UNL     1      24.554  -7.746 -35.819  0.00  0.00    +0.000 A 
ATOM     15  C4  UNL     1      23.183  -7.937 -35.580  0.00  0.00    +0.000 A 
ATOM     16  C5  UNL     1      22.640  -7.674 -34.318  0.00  0.00    +0.000 A 
ATOM     17  C6  UNL     1      23.459  -7.210 -33.283  0.00  0.00    +0.000 A 
ATOM     18  C7  UNL     1      24.826  -7.010 -33.516  0.00  0.00    +0.000 A 
ATOM     19  C8  UNL     1      25.371  -7.273 -34.776  0.00  0.00    +0.000 A 
BRANCH  17  20
ATOM     20  O2  UNL     1      22.905  -6.952 -32.031  0.00  0.00    +0.000 OA
ATOM     21  H3  UNL     1      23.440  -6.502 -31.298  0.00  0.00    +0.000 HD
ENDBRANCH  17  20
ENDBRANCH   3  14
TORSDOF 2
ENDMDL
MODEL 4
REMARK VINA RESULT:    -5.180      1.430      2.937
REMARK INTER + INTRA:          -5.921
REMARK INTER:                  -5.888
REMARK INTRA:                  -0.033
REMARK UNBOUND:                -0.287
REMARK  Name = resultss/4CJN/ligands/lig_37_t1.pdb
REMARK  2 active torsions:
REMARK  status: ('A' for Active; 'I' for Inactive)
REMARK    1  A    between atoms: C2_3  and  C3_4
REMARK    2  A    between atoms: C6_7  and  O2_8
REMARK                            x       y       z     vdW  Elec       q    Type
REMARK                         _______ _______ _______ _____ _____    ______ ____
ROOT
ATOM      1  O1  UNL     1      25.521  -8.057 -37.769  0.00  0.00    +0.000 OA
ATOM      2  C1  UNL     1      25.726  -8.559 -36.630  0.00  0.00    +0.000 A 
ATOM      3  C2  UNL     1      26.868  -9.352 -36.409  0.00  0.00    +0.000 A 
ATOM      4  C9  UNL     1      27.040  -9.924 -35.143  0.00  0.00    +0.000 A 
ATOM      5  O3  UNL     1      26.156  -9.716 -34.177  0.00  0.00    +0.000 OA
ATOM      6  C10 UNL     1      25.072  -8.962 -34.335  0.00  0.00    +0.000 A 
ATOM      7  C11 UNL     1      24.136  -8.827 -33.164  0.00  0.00    +0.000 C 
ATOM      8  C12 UNL     1      23.253  -7.621 -33.300  0.00  0.00    +0.000 C 
ATOM      9  O4  UNL     1      22.986  -6.943 -32.319  0.00  0.00    +0.000 OA
ATOM     10  C13 UNL     1      22.612  -7.318 -34.620  0.00  0.00    +0.000 C 
ATOM     11  C14 UNL     1      23.589  -7.502 -35.746  0.00  0.00    +0.000 C 
ATOM     12  O5  UNL     1      23.336  -6.951 -36.851  0.00  0.00    +0.000 OA
ATOM     13  C15 UNL     1      24.806  -8.350 -35.580  0.00  0.00    +0.000 A 
ENDROOT
BRANCH   3  14
ATOM     14  C3  UNL     1      27.876  -9.593 -37.473  0.00  0.00    +0.000 A 
ATOM     15  C4  UNL     1      29.216  -9.217 -37.278  0.00  0.00    +0.000 A 
ATOM     16  C5  UNL     1      30.166  -9.436 -38.281  0.00  0.00    +0.000 A 
ATOM     17  C6  UNL     1      29.788 -10.027 -39.491  0.00  0.00    +0.000 A 
ATOM     18  C7  UNL     1      28.453 -10.398 -39.696  0.00  0.00    +0.000 A 
ATOM     19  C8  UNL     1      27.502 -10.181 -38.695  0.00  0.00    +0.000 A 
BRANCH  17  20
ATOM     20  O2  UNL     1      30.745 -10.239 -40.481  0.00  0.00    +0.000 OA
ATOM     21  H3  UNL     1      31.615  -9.720 -40.496  0.00  0.00    +0.000 HD
ENDBRANCH  17  20
ENDBRANCH   3  14
TORSDOF 2
ENDMDL
MODEL 5
REMARK VINA RESULT:    -5.144      4.011      5.804
REMARK INTER + INTRA:          -5.882
REMARK INTER:                  -5.623
REMARK INTRA:                  -0.259
REMARK UNBOUND:                -0.287
REMARK  Name = resultss/4CJN/ligands/lig_37_t1.pdb
REMARK  2 active torsions:
REMARK  status: ('A' for Active; 'I' for Inactive)
REMARK    1  A    between atoms: C2_3  and  C3_4
REMARK    2  A    between atoms: C6_7  and  O2_8
REMARK                            x       y       z     vdW  Elec       q    Type
REMARK                         _______ _______ _______ _____ _____    ______ ____
ROOT
ATOM      1  O1  UNL     1      29.071  -9.007 -43.568  0.00  0.00    +0.000 OA
ATOM      2  C1  UNL     1      28.528  -9.528 -42.555  0.00  0.00    +0.000 A 
ATOM      3  C2  UNL     1      29.191 -10.555 -41.857  0.00  0.00    +0.000 A 
ATOM      4  C9  UNL     1      28.538 -11.136 -40.762  0.00  0.00    +0.000 A 
ATOM      5  O3  UNL     1      27.334 -10.723 -40.390  0.00  0.00    +0.000 OA
ATOM      6  C10 UNL     1      26.679  -9.747 -41.010  0.00  0.00    +0.000 A 
ATOM      7  C11 UNL     1      25.308  -9.390 -40.501  0.00  0.00    +0.000 C 
ATOM      8  C12 UNL     1      24.893  -8.018 -40.946  0.00  0.00    +0.000 C 
ATOM      9  O4  UNL     1      24.279  -7.286 -40.185  0.00  0.00    +0.000 OA
ATOM     10  C13 UNL     1      25.137  -7.595 -42.363  0.00  0.00    +0.000 C 
ATOM     11  C14 UNL     1      26.507  -8.008 -42.818  0.00  0.00    +0.000 C 
ATOM     12  O5  UNL     1      27.002  -7.427 -43.821  0.00  0.00    +0.000 OA
ATOM     13  C15 UNL     1      27.250  -9.105 -42.131  0.00  0.00    +0.000 A 
ENDROOT
BRANCH   3  14
ATOM     14  C3  UNL     1      30.542 -11.029 -42.250  0.00  0.00    +0.000 A 
ATOM     15  C4  UNL     1      31.684 -10.298 -41.882  0.00  0.00    +0.000 A 
ATOM     16  C5  UNL     1      32.958 -10.738 -42.257  0.00  0.00    +0.000 A 
ATOM     17  C6  UNL     1      33.105 -11.909 -43.009  0.00  0.00    +0.000 A 
ATOM     18  C7  UNL     1      31.970 -12.638 -43.386  0.00  0.00    +0.000 A 
ATOM     19  C8  UNL     1      30.697 -12.202 -43.012  0.00  0.00    +0.000 A 
BRANCH  17  20
ATOM     20  O2  UNL     1      34.380 -12.335 -43.375  0.00  0.00    +0.000 OA
ATOM     21  H3  UNL     1      35.139 -12.371 -42.705  0.00  0.00    +0.000 HD
ENDBRANCH  17  20
ENDBRANCH   3  14
TORSDOF 2
ENDMDL
MODEL 6
REMARK VINA RESULT:    -5.138      2.843      5.632
REMARK INTER + INTRA:          -5.876
REMARK INTER:                  -5.733
REMARK INTRA:                  -0.142
REMARK UNBOUND:                -0.287
REMARK  Name = resultss/4CJN/ligands/lig_37_t1.pdb
REMARK  2 active torsions:
REMARK  status: ('A' for Active; 'I' for Inactive)
REMARK    1  A    between atoms: C2_3  and  C3_4
REMARK    2  A    between atoms: C6_7  and  O2_8
REMARK                            x       y       z     vdW  Elec       q    Type
REMARK                         _______ _______ _______ _____ _____    ______ ____
ROOT
ATOM      1  O1  UNL     1      26.375  -7.807 -37.432  0.00  0.00    +0.000 OA
ATOM      2  C1  UNL     1      26.685  -8.748 -38.213  0.00  0.00    +0.000 A 
ATOM      3  C2  UNL     1      27.593  -9.737 -37.791  0.00  0.00    +0.000 A 
ATOM      4  C9  UNL     1      27.943 -10.744 -38.701  0.00  0.00    +0.000 A 
ATOM      5  O3  UNL     1      27.424 -10.767 -39.921  0.00  0.00    +0.000 OA
ATOM      6  C10 UNL     1      26.552  -9.864 -40.356  0.00  0.00    +0.000 A 
ATOM      7  C11 UNL     1      26.058  -9.992 -41.772  0.00  0.00    +0.000 C 
ATOM      8  C12 UNL     1      24.774  -9.243 -41.979  0.00  0.00    +0.000 C 
ATOM      9  O4  UNL     1      23.895  -9.717 -42.683  0.00  0.00    +0.000 OA
ATOM     10  C13 UNL     1      24.623  -7.864 -41.413  0.00  0.00    +0.000 C 
ATOM     11  C14 UNL     1      25.162  -7.797 -40.013  0.00  0.00    +0.000 C 
ATOM     12  O5  UNL     1      24.790  -6.844 -39.276  0.00  0.00    +0.000 OA
ATOM     13  C15 UNL     1      26.145  -8.804 -39.516  0.00  0.00    +0.000 A 
ENDROOT
BRANCH   3  14
ATOM     14  C3  UNL     1      28.181  -9.736 -36.427  0.00  0.00    +0.000 A 
ATOM     15  C4  UNL     1      27.364  -9.944 -35.303  0.00  0.00    +0.000 A 
ATOM     16  C5  UNL     1      27.914  -9.936 -34.017  0.00  0.00    +0.000 A 
ATOM     17  C6  UNL     1      29.283  -9.714 -33.838  0.00  0.00    +0.000 A 
ATOM     18  C7  UNL     1      30.102  -9.498 -34.953  0.00  0.00    +0.000 A 
ATOM     19  C8  UNL     1      29.556  -9.506 -36.240  0.00  0.00    +0.000 A 
BRANCH  17  20
ATOM     20  O2  UNL     1      29.816  -9.708 -32.551  0.00  0.00    +0.000 OA
ATOM     21  H3  UNL     1      29.552  -9.005 -31.872  0.00  0.00    +0.000 HD
ENDBRANCH  17  20
ENDBRANCH   3  14
TORSDOF 2
ENDMDL
MODEL 7
REMARK VINA RESULT:    -5.031      4.877      6.307
REMARK INTER + INTRA:          -5.760
REMARK INTER:                  -5.486
REMARK INTRA:                  -0.275
REMARK UNBOUND:                -0.287
REMARK  Name = resultss/4CJN/ligands/lig_37_t1.pdb
REMARK  2 active torsions:
REMARK  status: ('A' for Active; 'I' for Inactive)
REMARK    1  A    between atoms: C2_3  and  C3_4
REMARK    2  A    between atoms: C6_7  and  O2_8
REMARK                            x       y       z     vdW  Elec       q    Type
REMARK                         _______ _______ _______ _____ _____    ______ ____
ROOT
ATOM      1  O1  UNL     1      27.731  -8.020 -44.012  0.00  0.00    +0.000 OA
ATOM      2  C1  UNL     1      26.907  -8.562 -43.224  0.00  0.00    +0.000 A 
ATOM      3  C2  UNL     1      27.372  -9.404 -42.197  0.00  0.00    +0.000 A 
ATOM      4  C9  UNL     1      26.425 -10.019 -41.368  0.00  0.00    +0.000 A 
ATOM      5  O3  UNL     1      25.128  -9.803 -41.541  0.00  0.00    +0.000 OA
ATOM      6  C10 UNL     1      24.645  -9.004 -42.486  0.00  0.00    +0.000 A 
ATOM      7  C11 UNL     1      23.150  -8.864 -42.590  0.00  0.00    +0.000 C 
ATOM      8  C12 UNL     1      22.761  -7.621 -43.336  0.00  0.00    +0.000 C 
ATOM      9  O4  UNL     1      21.800  -6.962 -42.970  0.00  0.00    +0.000 OA
ATOM     10  C13 UNL     1      23.488  -7.257 -44.595  0.00  0.00    +0.000 C 
ATOM     11  C14 UNL     1      24.969  -7.447 -44.435  0.00  0.00    +0.000 C 
ATOM     12  O5  UNL     1      25.736  -6.856 -45.241  0.00  0.00    +0.000 OA
ATOM     13  C15 UNL     1      25.521  -8.346 -43.379  0.00  0.00    +0.000 A 
ENDROOT
BRANCH   3  14
ATOM     14  C3  UNL     1      28.819  -9.655 -41.979  0.00  0.00    +0.000 A 
ATOM     15  C4  UNL     1      29.488 -10.641 -42.725  0.00  0.00    +0.000 A 
ATOM     16  C5  UNL     1      30.849 -10.885 -42.516  0.00  0.00    +0.000 A 
ATOM     17  C6  UNL     1      31.556 -10.153 -41.558  0.00  0.00    +0.000 A 
ATOM     18  C7  UNL     1      30.895  -9.173 -40.805  0.00  0.00    +0.000 A 
ATOM     19  C8  UNL     1      29.535  -8.927 -41.012  0.00  0.00    +0.000 A 
BRANCH  17  20
ATOM     20  O2  UNL     1      32.912 -10.406 -41.361  0.00  0.00    +0.000 OA
ATOM     21  H3  UNL     1      33.525  -9.716 -40.943  0.00  0.00    +0.000 HD
ENDBRANCH  17  20
ENDBRANCH   3  14
TORSDOF 2
ENDMDL
MODEL 8
REMARK VINA RESULT:    -4.973      4.975      8.061
REMARK INTER + INTRA:          -5.697
REMARK INTER:                  -5.410
REMARK INTRA:                  -0.287
REMARK UNBOUND:                -0.287
REMARK  Name = resultss/4CJN/ligands/lig_37_t1.pdb
REMARK  2 active torsions:
REMARK  status: ('A' for Active; 'I' for Inactive)
REMARK    1  A    between atoms: C2_3  and  C3_4
REMARK    2  A    between atoms: C6_7  and  O2_8
REMARK                            x       y       z     vdW  Elec       q    Type
REMARK                         _______ _______ _______ _____ _____    ______ ____
ROOT
ATOM      1  O1  UNL     1      25.263  -8.200 -42.588  0.00  0.00    +0.000 OA
ATOM      2  C1  UNL     1      26.355  -8.053 -43.204  0.00  0.00    +0.000 A 
ATOM      3  C2  UNL     1      27.564  -8.408 -42.579  0.00  0.00    +0.000 A 
ATOM      4  C9  UNL     1      28.758  -8.193 -43.279  0.00  0.00    +0.000 A 
ATOM      5  O3  UNL     1      28.746  -7.679 -44.502  0.00  0.00    +0.000 OA
ATOM      6  C10 UNL     1      27.627  -7.344 -45.137  0.00  0.00    +0.000 A 
ATOM      7  C11 UNL     1      27.754  -6.748 -46.513  0.00  0.00    +0.000 C 
ATOM      8  C12 UNL     1      26.472  -6.860 -47.284  0.00  0.00    +0.000 C 
ATOM      9  O4  UNL     1      26.495  -7.119 -48.478  0.00  0.00    +0.000 OA
ATOM     10  C13 UNL     1      25.172  -6.541 -46.609  0.00  0.00    +0.000 C 
ATOM     11  C14 UNL     1      25.123  -7.138 -45.232  0.00  0.00    +0.000 C 
ATOM     12  O5  UNL     1      23.997  -7.281 -44.685  0.00  0.00    +0.000 OA
ATOM     13  C15 UNL     1      26.373  -7.514 -44.509  0.00  0.00    +0.000 A 
ENDROOT
BRANCH   3  14
ATOM     14  C3  UNL     1      27.602  -8.993 -41.214  0.00  0.00    +0.000 A 
ATOM     15  C4  UNL     1      27.589 -10.387 -41.040  0.00  0.00    +0.000 A 
ATOM     16  C5  UNL     1      27.617 -10.941 -39.755  0.00  0.00    +0.000 A 
ATOM     17  C6  UNL     1      27.653 -10.109 -38.631  0.00  0.00    +0.000 A 
ATOM     18  C7  UNL     1      27.659  -8.718 -38.797  0.00  0.00    +0.000 A 
ATOM     19  C8  UNL     1      27.632  -8.162 -40.079  0.00  0.00    +0.000 A 
BRANCH  17  20
ATOM     20  O2  UNL     1      27.681 -10.674 -37.358  0.00  0.00    +0.000 OA
ATOM     21  H3  UNL     1      26.838 -10.779 -36.807  0.00  0.00    +0.000 HD
ENDBRANCH  17  20
ENDBRANCH   3  14
TORSDOF 2
ENDMDL
MODEL 9
REMARK VINA RESULT:    -4.970      5.575      7.965
REMARK INTER + INTRA:          -5.693
REMARK INTER:                  -5.406
REMARK INTRA:                  -0.287
REMARK UNBOUND:                -0.287
REMARK  Name = resultss/4CJN/ligands/lig_37_t1.pdb
REMARK  2 active torsions:
REMARK  status: ('A' for Active; 'I' for Inactive)
REMARK    1  A    between atoms: C2_3  and  C3_4
REMARK    2  A    between atoms: C6_7  and  O2_8
REMARK                            x       y       z     vdW  Elec       q    Type
REMARK                         _______ _______ _______ _____ _____    ______ ____
ROOT
ATOM      1  O1  UNL     1      25.847  -8.397 -42.629  0.00  0.00    +0.000 OA
ATOM      2  C1  UNL     1      26.377  -8.030 -43.714  0.00  0.00    +0.000 A 
ATOM      3  C2  UNL     1      27.776  -8.073 -43.859  0.00  0.00    +0.000 A 
ATOM      4  C9  UNL     1      28.328  -7.620 -45.064  0.00  0.00    +0.000 A 
ATOM      5  O3  UNL     1      27.552  -7.173 -46.042  0.00  0.00    +0.000 OA
ATOM      6  C10 UNL     1      26.227  -7.129 -45.955  0.00  0.00    +0.000 A 
ATOM      7  C11 UNL     1      25.465  -6.576 -47.129  0.00  0.00    +0.000 C 
ATOM      8  C12 UNL     1      24.029  -7.010 -47.110  0.00  0.00    +0.000 C 
ATOM      9  O4  UNL     1      23.463  -7.306 -48.151  0.00  0.00    +0.000 OA
ATOM     10  C13 UNL     1      23.262  -6.970 -45.823  0.00  0.00    +0.000 C 
ATOM     11  C14 UNL     1      24.087  -7.506 -44.688  0.00  0.00    +0.000 C 
ATOM     12  O5  UNL     1      23.492  -7.880 -43.643  0.00  0.00    +0.000 OA
ATOM     13  C15 UNL     1      25.576  -7.555 -44.775  0.00  0.00    +0.000 A 
ENDROOT
BRANCH   3  14
ATOM     14  C3  UNL     1      28.664  -8.577 -42.781  0.00  0.00    +0.000 A 
ATOM     15  C4  UNL     1      29.272  -7.679 -41.887  0.00  0.00    +0.000 A 
ATOM     16  C5  UNL     1      30.115  -8.149 -40.875  0.00  0.00    +0.000 A 
ATOM     17  C6  UNL     1      30.367  -9.519 -40.749  0.00  0.00    +0.000 A 
ATOM     18  C7  UNL     1      29.771 -10.419 -41.641  0.00  0.00    +0.000 A 
ATOM     19  C8  UNL     1      28.927  -9.952 -42.652  0.00  0.00    +0.000 A 
BRANCH  17  20
ATOM     20  O2  UNL     1      31.209  -9.973 -39.736  0.00  0.00    +0.000 OA
ATOM     21  H3  UNL     1      31.283  -9.486 -38.851  0.00  0.00    +0.000 HD
ENDBRANCH  17  20
ENDBRANCH   3  14
TORSDOF 2
ENDMDL
