MODEL 1
REMARK VINA RESULT:    -6.313      0.000      0.000
REMARK INTER + INTRA:          -9.627
REMARK INTER:                  -8.712
REMARK INTRA:                  -0.916
REMARK UNBOUND:                -0.916
REMARK  Name = resultss/4CJN/ligands/lig_311_t0.pdb
REMARK  10 active torsions:
REMARK  status: ('A' for Active; 'I' for Inactive)
REMARK    1  A    between atoms: C3_4  and  O2_5
REMARK    2  A    between atoms: C5_7  and  O3_8
REMARK    3  A    between atoms: C9_13  and  O5_14
REMARK    4  A    between atoms: C12_17  and  O6_18
REMARK    5  A    between atoms: O6_18  and  C13_19
REMARK    6  A    between atoms: C14_21  and  C15_22
REMARK    7  A    between atoms: C15_22  and  O8_23
REMARK    8  A    between atoms: C16_24  and  O9_25
REMARK    9  A    between atoms: C17_26  and  O10_27
REMARK   10  A    between atoms: C18_28  and  O11_29
REMARK                            x       y       z     vdW  Elec       q    Type
REMARK                         _______ _______ _______ _____ _____    ______ ____
ROOT
ATOM      1  O1  UNL     1      28.761  -8.660 -38.674  0.00  0.00    +0.000 OA
ATOM      2  C1  UNL     1      28.356  -9.048 -39.803  0.00  0.00    +0.000 A 
ATOM      3  C2  UNL     1      29.278  -9.543 -40.752  0.00  0.00    +0.000 A 
ATOM      4  C3  UNL     1      30.671  -9.630 -40.504  0.00  0.00    +0.000 A 
ATOM      5  C4  UNL     1      31.526 -10.133 -41.495  0.00  0.00    +0.000 A 
ATOM      6  C5  UNL     1      31.020 -10.549 -42.728  0.00  0.00    +0.000 A 
ATOM      7  C6  UNL     1      29.647 -10.465 -42.980  0.00  0.00    +0.000 A 
ATOM      8  C7  UNL     1      28.778  -9.967 -42.006  0.00  0.00    +0.000 A 
ATOM      9  O4  UNL     1      27.482  -9.897 -42.275  0.00  0.00    +0.000 OA
ATOM     10  C8  UNL     1      26.584  -9.437 -41.413  0.00  0.00    +0.000 A 
ATOM     11  C9  UNL     1      25.239  -9.401 -41.793  0.00  0.00    +0.000 A 
ATOM     12  C10 UNL     1      24.276  -8.918 -40.906  0.00  0.00    +0.000 A 
ATOM     13  C11 UNL     1      24.646  -8.474 -39.638  0.00  0.00    +0.000 A 
ATOM     14  C12 UNL     1      25.994  -8.504 -39.225  0.00  0.00    +0.000 A 
ATOM     15  C19 UNL     1      26.979  -8.989 -40.128  0.00  0.00    +0.000 A 
ENDROOT
BRANCH   4  16
ATOM     16  O2  UNL     1      31.211  -9.222 -39.282  0.00  0.00    +0.000 OA
ATOM     17  H1  UNL     1      31.355  -8.243 -39.064  0.00  0.00    +0.000 HD
ENDBRANCH   4  16
BRANCH   6  18
ATOM     18  O3  UNL     1      31.891 -11.044 -43.696  0.00  0.00    +0.000 OA
ATOM     19  H3  UNL     1      31.683 -11.891 -44.212  0.00  0.00    +0.000 HD
ENDBRANCH   6  18
BRANCH  11  20
ATOM     20  O5  UNL     1      24.866  -9.847 -43.060  0.00  0.00    +0.000 OA
ATOM     21  H5  UNL     1      24.756  -9.207 -43.838  0.00  0.00    +0.000 HD
ENDBRANCH  11  20
BRANCH  14  22
ATOM     22  O6  UNL     1      26.387  -8.070 -37.943  0.00  0.00    +0.000 OA
BRANCH  22  23
ATOM     23  C13 UNL     1      26.037  -8.646 -36.680  0.00  0.00    +0.000 C 
ATOM     24  O7  UNL     1      25.227  -7.751 -35.940  0.00  0.00    +0.000 OA
ATOM     25  C14 UNL     1      24.591  -8.423 -34.861  0.00  0.00    +0.000 C 
ATOM     26  C16 UNL     1      25.577  -9.304 -34.021  0.00  0.00    +0.000 C 
ATOM     27  C17 UNL     1      27.043  -8.968 -34.358  0.00  0.00    +0.000 C 
ATOM     28  C18 UNL     1      27.299  -9.054 -35.882  0.00  0.00    +0.000 C 
BRANCH  26  29
ATOM     29  O9  UNL     1      25.350 -10.665 -34.289  0.00  0.00    +0.000 OA
ATOM     30  H14 UNL     1      24.994 -11.065 -33.453  0.00  0.00    +0.000 HD
ENDBRANCH  26  29
BRANCH  27  31
ATOM     31  O10 UNL     1      27.347  -7.671 -33.909  0.00  0.00    +0.000 OA
ATOM     32  H16 UNL     1      28.325  -7.543 -34.031  0.00  0.00    +0.000 HD
ENDBRANCH  27  31
BRANCH  28  33
ATOM     33  O11 UNL     1      27.658 -10.365 -36.240  0.00  0.00    +0.000 OA
ATOM     34  H18 UNL     1      26.911 -10.731 -36.782  0.00  0.00    +0.000 HD
ENDBRANCH  28  33
BRANCH  25  35
ATOM     35  C15 UNL     1      23.914  -7.370 -33.969  0.00  0.00    +0.000 C 
BRANCH  35  36
ATOM     36  O8  UNL     1      24.610  -7.227 -32.761  0.00  0.00    +0.000 OA
ATOM     37  H12 UNL     1      24.481  -8.070 -32.254  0.00  0.00    +0.000 HD
ENDBRANCH  35  36
ENDBRANCH  25  35
ENDBRANCH  22  23
ENDBRANCH  14  22
TORSDOF 10
ENDMDL
MODEL 2
REMARK VINA RESULT:    -6.142      2.737      8.129
REMARK INTER + INTRA:          -9.392
REMARK INTER:                  -8.588
REMARK INTRA:                  -0.804
REMARK UNBOUND:                -0.916
REMARK  Name = resultss/4CJN/ligands/lig_311_t0.pdb
REMARK  10 active torsions:
REMARK  status: ('A' for Active; 'I' for Inactive)
REMARK    1  A    between atoms: C3_4  and  O2_5
REMARK    2  A    between atoms: C5_7  and  O3_8
REMARK    3  A    between atoms: C9_13  and  O5_14
REMARK    4  A    between atoms: C12_17  and  O6_18
REMARK    5  A    between atoms: O6_18  and  C13_19
REMARK    6  A    between atoms: C14_21  and  C15_22
REMARK    7  A    between atoms: C15_22  and  O8_23
REMARK    8  A    between atoms: C16_24  and  O9_25
REMARK    9  A    between atoms: C17_26  and  O10_27
REMARK   10  A    between atoms: C18_28  and  O11_29
REMARK                            x       y       z     vdW  Elec       q    Type
REMARK                         _______ _______ _______ _____ _____    ______ ____
ROOT
ATOM      1  O1  UNL     1      24.387  -7.344 -37.957  0.00  0.00    +0.000 OA
ATOM      2  C1  UNL     1      25.115  -7.912 -37.098  0.00  0.00    +0.000 A 
ATOM      3  C2  UNL     1      24.604  -8.185 -35.810  0.00  0.00    +0.000 A 
ATOM      4  C3  UNL     1      23.285  -7.848 -35.413  0.00  0.00    +0.000 A 
ATOM      5  C4  UNL     1      22.848  -8.152 -34.116  0.00  0.00    +0.000 A 
ATOM      6  C5  UNL     1      23.699  -8.783 -33.207  0.00  0.00    +0.000 A 
ATOM      7  C6  UNL     1      25.002  -9.118 -33.590  0.00  0.00    +0.000 A 
ATOM      8  C7  UNL     1      25.457  -8.824 -34.879  0.00  0.00    +0.000 A 
ATOM      9  O4  UNL     1      26.697  -9.151 -35.213  0.00  0.00    +0.000 OA
ATOM     10  C8  UNL     1      27.216  -8.911 -36.411  0.00  0.00    +0.000 A 
ATOM     11  C9  UNL     1      28.537  -9.292 -36.665  0.00  0.00    +0.000 A 
ATOM     12  C10 UNL     1      29.105  -9.046 -37.915  0.00  0.00    +0.000 A 
ATOM     13  C11 UNL     1      28.362  -8.425 -38.918  0.00  0.00    +0.000 A 
ATOM     14  C12 UNL     1      27.027  -8.034 -38.691  0.00  0.00    +0.000 A 
ATOM     15  C19 UNL     1      26.445  -8.277 -37.418  0.00  0.00    +0.000 A 
ENDROOT
BRANCH   4  16
ATOM     16  O2  UNL     1      22.408  -7.216 -36.296  0.00  0.00    +0.000 OA
ATOM     17  H1  UNL     1      21.404  -7.326 -36.220  0.00  0.00    +0.000 HD
ENDBRANCH   4  16
BRANCH   6  18
ATOM     18  O3  UNL     1      23.241  -9.073 -31.924  0.00  0.00    +0.000 OA
ATOM     19  H3  UNL     1      22.398  -8.648 -31.554  0.00  0.00    +0.000 HD
ENDBRANCH   6  18
BRANCH  11  20
ATOM     20  O5  UNL     1      29.281  -9.916 -35.664  0.00  0.00    +0.000 OA
ATOM     21  H5  UNL     1      29.064  -9.788 -34.683  0.00  0.00    +0.000 HD
ENDBRANCH  11  20
BRANCH  14  22
ATOM     22  O6  UNL     1      26.254  -7.415 -39.696  0.00  0.00    +0.000 OA
BRANCH  22  23
ATOM     23  C13 UNL     1      25.770  -7.999 -40.910  0.00  0.00    +0.000 C 
ATOM     24  O7  UNL     1      26.167  -7.219 -42.022  0.00  0.00    +0.000 OA
ATOM     25  C14 UNL     1      26.004  -7.948 -43.232  0.00  0.00    +0.000 C 
ATOM     26  C16 UNL     1      24.602  -8.638 -43.347  0.00  0.00    +0.000 C 
ATOM     27  C17 UNL     1      23.626  -8.086 -42.290  0.00  0.00    +0.000 C 
ATOM     28  C18 UNL     1      24.232  -8.179 -40.869  0.00  0.00    +0.000 C 
BRANCH  26  29
ATOM     29  O9  UNL     1      24.733 -10.025 -43.165  0.00  0.00    +0.000 OA
ATOM     30  H14 UNL     1      25.366 -10.155 -42.411  0.00  0.00    +0.000 HD
ENDBRANCH  26  29
BRANCH  27  31
ATOM     31  O10 UNL     1      23.322  -6.744 -42.578  0.00  0.00    +0.000 OA
ATOM     32  H16 UNL     1      23.417  -6.629 -43.560  0.00  0.00    +0.000 HD
ENDBRANCH  27  31
BRANCH  28  33
ATOM     33  O11 UNL     1      23.937  -9.428 -40.296  0.00  0.00    +0.000 OA
ATOM     34  H18 UNL     1      24.360 -10.117 -40.872  0.00  0.00    +0.000 HD
ENDBRANCH  28  33
BRANCH  25  35
ATOM     35  C15 UNL     1      26.233  -6.988 -44.408  0.00  0.00    +0.000 C 
BRANCH  35  36
ATOM     36  O8  UNL     1      25.051  -6.818 -45.143  0.00  0.00    +0.000 OA
ATOM     37  H12 UNL     1      24.342  -6.577 -44.492  0.00  0.00    +0.000 HD
ENDBRANCH  35  36
ENDBRANCH  25  35
ENDBRANCH  22  23
ENDBRANCH  14  22
TORSDOF 10
ENDMDL
MODEL 3
REMARK VINA RESULT:    -5.966      1.991      8.329
REMARK INTER + INTRA:          -9.148
REMARK INTER:                  -8.234
REMARK INTRA:                  -0.914
REMARK UNBOUND:                -0.916
REMARK  Name = resultss/4CJN/ligands/lig_311_t0.pdb
REMARK  10 active torsions:
REMARK  status: ('A' for Active; 'I' for Inactive)
REMARK    1  A    between atoms: C3_4  and  O2_5
REMARK    2  A    between atoms: C5_7  and  O3_8
REMARK    3  A    between atoms: C9_13  and  O5_14
REMARK    4  A    between atoms: C12_17  and  O6_18
REMARK    5  A    between atoms: O6_18  and  C13_19
REMARK    6  A    between atoms: C14_21  and  C15_22
REMARK    7  A    between atoms: C15_22  and  O8_23
REMARK    8  A    between atoms: C16_24  and  O9_25
REMARK    9  A    between atoms: C17_26  and  O10_27
REMARK   10  A    between atoms: C18_28  and  O11_29
REMARK                            x       y       z     vdW  Elec       q    Type
REMARK                         _______ _______ _______ _____ _____    ______ ____
ROOT
ATOM      1  O1  UNL     1      25.197  -8.834 -37.103  0.00  0.00    +0.000 OA
ATOM      2  C1  UNL     1      25.615  -8.561 -35.945  0.00  0.00    +0.000 A 
ATOM      3  C2  UNL     1      24.775  -7.887 -35.031  0.00  0.00    +0.000 A 
ATOM      4  C3  UNL     1      23.453  -7.486 -35.347  0.00  0.00    +0.000 A 
ATOM      5  C4  UNL     1      22.678  -6.820 -34.387  0.00  0.00    +0.000 A 
ATOM      6  C5  UNL     1      23.194  -6.547 -33.119  0.00  0.00    +0.000 A 
ATOM      7  C6  UNL     1      24.498  -6.939 -32.800  0.00  0.00    +0.000 A 
ATOM      8  C7  UNL     1      25.287  -7.603 -33.743  0.00  0.00    +0.000 A 
ATOM      9  O4  UNL     1      26.520  -7.961 -33.412  0.00  0.00    +0.000 OA
ATOM     10  C8  UNL     1      27.341  -8.593 -34.241  0.00  0.00    +0.000 A 
ATOM     11  C9  UNL     1      28.626  -8.925 -33.798  0.00  0.00    +0.000 A 
ATOM     12  C10 UNL     1      29.508  -9.586 -34.653  0.00  0.00    +0.000 A 
ATOM     13  C11 UNL     1      29.117  -9.924 -35.947  0.00  0.00    +0.000 A 
ATOM     14  C12 UNL     1      27.827  -9.607 -36.419  0.00  0.00    +0.000 A 
ATOM     15  C19 UNL     1      26.926  -8.928 -35.555  0.00  0.00    +0.000 A 
ENDROOT
BRANCH   4  16
ATOM     16  O2  UNL     1      22.905  -7.743 -36.606  0.00  0.00    +0.000 OA
ATOM     17  H1  UNL     1      23.209  -7.240 -37.431  0.00  0.00    +0.000 HD
ENDBRANCH   4  16
BRANCH   6  18
ATOM     18  O3  UNL     1      22.404  -5.883 -32.184  0.00  0.00    +0.000 OA
ATOM     19  H3  UNL     1      22.195  -4.895 -32.273  0.00  0.00    +0.000 HD
ENDBRANCH   6  18
BRANCH  11  20
ATOM     20  O5  UNL     1      29.018  -8.591 -32.503  0.00  0.00    +0.000 OA
ATOM     21  H5  UNL     1      29.437  -9.274 -31.883  0.00  0.00    +0.000 HD
ENDBRANCH  11  20
BRANCH  14  22
ATOM     22  O6  UNL     1      27.408  -9.950 -37.721  0.00  0.00    +0.000 OA
BRANCH  22  23
ATOM     23  C13 UNL     1      28.215 -10.063 -38.897  0.00  0.00    +0.000 C 
ATOM     24  O7  UNL     1      28.699  -8.792 -39.286  0.00  0.00    +0.000 OA
ATOM     25  C14 UNL     1      29.763  -8.921 -40.220  0.00  0.00    +0.000 C 
ATOM     26  C16 UNL     1      29.434  -9.912 -41.388  0.00  0.00    +0.000 C 
ATOM     27  C17 UNL     1      27.929 -10.242 -41.426  0.00  0.00    +0.000 C 
ATOM     28  C18 UNL     1      27.433 -10.743 -40.048  0.00  0.00    +0.000 C 
BRANCH  26  29
ATOM     29  O9  UNL     1      30.158 -11.105 -41.222  0.00  0.00    +0.000 OA
ATOM     30  H14 UNL     1      29.680 -11.635 -40.532  0.00  0.00    +0.000 HD
ENDBRANCH  26  29
BRANCH  27  31
ATOM     31  O10 UNL     1      27.201  -9.098 -41.793  0.00  0.00    +0.000 OA
ATOM     32  H16 UNL     1      26.396  -9.410 -42.284  0.00  0.00    +0.000 HD
ENDBRANCH  27  31
BRANCH  28  33
ATOM     33  O11 UNL     1      27.600 -12.135 -39.949  0.00  0.00    +0.000 OA
ATOM     34  H18 UNL     1      26.719 -12.514 -39.693  0.00  0.00    +0.000 HD
ENDBRANCH  28  33
BRANCH  25  35
ATOM     35  C15 UNL     1      30.094  -7.526 -40.771  0.00  0.00    +0.000 C 
BRANCH  35  36
ATOM     36  O8  UNL     1      28.925  -6.768 -40.926  0.00  0.00    +0.000 OA
ATOM     37  H12 UNL     1      28.605  -6.921 -41.853  0.00  0.00    +0.000 HD
ENDBRANCH  35  36
ENDBRANCH  25  35
ENDBRANCH  22  23
ENDBRANCH  14  22
TORSDOF 10
ENDMDL
MODEL 4
REMARK VINA RESULT:    -5.902      1.982      8.326
REMARK INTER + INTRA:          -9.060
REMARK INTER:                  -8.226
REMARK INTRA:                  -0.834
REMARK UNBOUND:                -0.916
REMARK  Name = resultss/4CJN/ligands/lig_311_t0.pdb
REMARK  10 active torsions:
REMARK  status: ('A' for Active; 'I' for Inactive)
REMARK    1  A    between atoms: C3_4  and  O2_5
REMARK    2  A    between atoms: C5_7  and  O3_8
REMARK    3  A    between atoms: C9_13  and  O5_14
REMARK    4  A    between atoms: C12_17  and  O6_18
REMARK    5  A    between atoms: O6_18  and  C13_19
REMARK    6  A    between atoms: C14_21  and  C15_22
REMARK    7  A    between atoms: C15_22  and  O8_23
REMARK    8  A    between atoms: C16_24  and  O9_25
REMARK    9  A    between atoms: C17_26  and  O10_27
REMARK   10  A    between atoms: C18_28  and  O11_29
REMARK                            x       y       z     vdW  Elec       q    Type
REMARK                         _______ _______ _______ _____ _____    ______ ____
ROOT
ATOM      1  O1  UNL     1      25.282  -8.442 -37.648  0.00  0.00    +0.000 OA
ATOM      2  C1  UNL     1      25.759  -8.660 -36.501  0.00  0.00    +0.000 A 
ATOM      3  C2  UNL     1      24.958  -8.461 -35.355  0.00  0.00    +0.000 A 
ATOM      4  C3  UNL     1      23.613  -8.017 -35.418  0.00  0.00    +0.000 A 
ATOM      5  C4  UNL     1      22.880  -7.842 -34.236  0.00  0.00    +0.000 A 
ATOM      6  C5  UNL     1      23.460  -8.100 -32.993  0.00  0.00    +0.000 A 
ATOM      7  C6  UNL     1      24.786  -8.538 -32.922  0.00  0.00    +0.000 A 
ATOM      8  C7  UNL     1      25.535  -8.718 -34.089  0.00  0.00    +0.000 A 
ATOM      9  O4  UNL     1      26.790  -9.132 -33.989  0.00  0.00    +0.000 OA
ATOM     10  C8  UNL     1      27.576  -9.329 -35.040  0.00  0.00    +0.000 A 
ATOM     11  C9  UNL     1      28.888  -9.764 -34.831  0.00  0.00    +0.000 A 
ATOM     12  C10 UNL     1      29.735  -9.975 -35.920  0.00  0.00    +0.000 A 
ATOM     13  C11 UNL     1      29.280  -9.759 -37.220  0.00  0.00    +0.000 A 
ATOM     14  C12 UNL     1      27.960  -9.325 -37.461  0.00  0.00    +0.000 A 
ATOM     15  C19 UNL     1      27.095  -9.103 -36.355  0.00  0.00    +0.000 A 
ENDROOT
BRANCH   4  16
ATOM     16  O2  UNL     1      23.002  -7.748 -36.645  0.00  0.00    +0.000 OA
ATOM     17  H1  UNL     1      22.010  -7.897 -36.789  0.00  0.00    +0.000 HD
ENDBRANCH   4  16
BRANCH   6  18
ATOM     18  O3  UNL     1      22.710  -7.917 -31.834  0.00  0.00    +0.000 OA
ATOM     19  H3  UNL     1      21.802  -7.468 -31.856  0.00  0.00    +0.000 HD
ENDBRANCH   6  18
BRANCH  11  20
ATOM     20  O5  UNL     1      29.345  -9.984 -33.533  0.00  0.00    +0.000 OA
ATOM     21  H5  UNL     1      29.932 -10.777 -33.303  0.00  0.00    +0.000 HD
ENDBRANCH  11  20
BRANCH  14  22
ATOM     22  O6  UNL     1      27.476  -9.112 -38.768  0.00  0.00    +0.000 OA
BRANCH  22  23
ATOM     23  C13 UNL     1      28.212  -9.179 -39.994  0.00  0.00    +0.000 C 
ATOM     24  O7  UNL     1      28.141  -7.943 -40.679  0.00  0.00    +0.000 OA
ATOM     25  C14 UNL     1      29.128  -7.874 -41.699  0.00  0.00    +0.000 C 
ATOM     26  C16 UNL     1      29.166  -9.153 -42.602  0.00  0.00    +0.000 C 
ATOM     27  C17 UNL     1      27.912 -10.022 -42.383  0.00  0.00    +0.000 C 
ATOM     28  C18 UNL     1      27.712 -10.345 -40.883  0.00  0.00    +0.000 C 
BRANCH  26  29
ATOM     29  O9  UNL     1      30.307  -9.918 -42.303  0.00  0.00    +0.000 OA
ATOM     30  H14 UNL     1      30.828  -9.994 -43.144  0.00  0.00    +0.000 HD
ENDBRANCH  26  29
BRANCH  27  31
ATOM     31  O10 UNL     1      26.777  -9.348 -42.868  0.00  0.00    +0.000 OA
ATOM     32  H16 UNL     1      26.747  -9.498 -43.849  0.00  0.00    +0.000 HD
ENDBRANCH  27  31
BRANCH  28  33
ATOM     33  O11 UNL     1      28.416 -11.512 -40.539  0.00  0.00    +0.000 OA
ATOM     34  H18 UNL     1      28.702 -11.409 -39.594  0.00  0.00    +0.000 HD
ENDBRANCH  28  33
BRANCH  25  35
ATOM     35  C15 UNL     1      28.861  -6.621 -42.546  0.00  0.00    +0.000 C 
BRANCH  35  36
ATOM     36  O8  UNL     1      28.377  -6.977 -43.812  0.00  0.00    +0.000 OA
ATOM     37  H12 UNL     1      27.401  -7.130 -43.713  0.00  0.00    +0.000 HD
ENDBRANCH  35  36
ENDBRANCH  25  35
ENDBRANCH  22  23
ENDBRANCH  14  22
TORSDOF 10
ENDMDL
MODEL 5
REMARK VINA RESULT:    -5.860      2.430      4.379
REMARK INTER + INTRA:          -9.002
REMARK INTER:                  -8.601
REMARK INTRA:                  -0.401
REMARK UNBOUND:                -0.916
REMARK  Name = resultss/4CJN/ligands/lig_311_t0.pdb
REMARK  10 active torsions:
REMARK  status: ('A' for Active; 'I' for Inactive)
REMARK    1  A    between atoms: C3_4  and  O2_5
REMARK    2  A    between atoms: C5_7  and  O3_8
REMARK    3  A    between atoms: C9_13  and  O5_14
REMARK    4  A    between atoms: C12_17  and  O6_18
REMARK    5  A    between atoms: O6_18  and  C13_19
REMARK    6  A    between atoms: C14_21  and  C15_22
REMARK    7  A    between atoms: C15_22  and  O8_23
REMARK    8  A    between atoms: C16_24  and  O9_25
REMARK    9  A    between atoms: C17_26  and  O10_27
REMARK   10  A    between atoms: C18_28  and  O11_29
REMARK                            x       y       z     vdW  Elec       q    Type
REMARK                         _______ _______ _______ _____ _____    ______ ____
ROOT
ATOM      1  O1  UNL     1      24.639  -7.117 -38.749  0.00  0.00    +0.000 OA
ATOM      2  C1  UNL     1      25.180  -7.948 -39.528  0.00  0.00    +0.000 A 
ATOM      3  C2  UNL     1      24.839  -7.954 -40.899  0.00  0.00    +0.000 A 
ATOM      4  C3  UNL     1      23.898  -7.058 -41.467  0.00  0.00    +0.000 A 
ATOM      5  C4  UNL     1      23.610  -7.125 -42.837  0.00  0.00    +0.000 A 
ATOM      6  C5  UNL     1      24.242  -8.066 -43.653  0.00  0.00    +0.000 A 
ATOM      7  C6  UNL     1      25.170  -8.953 -43.100  0.00  0.00    +0.000 A 
ATOM      8  C7  UNL     1      25.471  -8.904 -41.736  0.00  0.00    +0.000 A 
ATOM      9  O4  UNL     1      26.354  -9.760 -41.241  0.00  0.00    +0.000 OA
ATOM     10  C8  UNL     1      26.700  -9.788 -39.960  0.00  0.00    +0.000 A 
ATOM     11  C9  UNL     1      27.639 -10.732 -39.534  0.00  0.00    +0.000 A 
ATOM     12  C10 UNL     1      28.016 -10.783 -38.192  0.00  0.00    +0.000 A 
ATOM     13  C11 UNL     1      27.465  -9.896 -37.269  0.00  0.00    +0.000 A 
ATOM     14  C12 UNL     1      26.520  -8.930 -37.672  0.00  0.00    +0.000 A 
ATOM     15  C19 UNL     1      26.128  -8.877 -39.037  0.00  0.00    +0.000 A 
ENDROOT
BRANCH   4  16
ATOM     16  O2  UNL     1      23.248  -6.105 -40.680  0.00  0.00    +0.000 OA
ATOM     17  H1  UNL     1      23.722  -5.273 -40.351  0.00  0.00    +0.000 HD
ENDBRANCH   4  16
BRANCH   6  18
ATOM     18  O3  UNL     1      23.937  -8.111 -45.011  0.00  0.00    +0.000 OA
ATOM     19  H3  UNL     1      23.096  -8.562 -45.351  0.00  0.00    +0.000 HD
ENDBRANCH   6  18
BRANCH  11  20
ATOM     20  O5  UNL     1      28.194 -11.619 -40.455  0.00  0.00    +0.000 OA
ATOM     21  H5  UNL     1      27.699 -12.449 -40.757  0.00  0.00    +0.000 HD
ENDBRANCH  11  20
BRANCH  14  22
ATOM     22  O6  UNL     1      25.959  -8.015 -36.757  0.00  0.00    +0.000 OA
BRANCH  22  23
ATOM     23  C13 UNL     1      24.919  -8.259 -35.804  0.00  0.00    +0.000 C 
ATOM     24  O7  UNL     1      24.182  -7.074 -35.567  0.00  0.00    +0.000 OA
ATOM     25  C14 UNL     1      22.956  -7.366 -34.910  0.00  0.00    +0.000 C 
ATOM     26  C16 UNL     1      23.132  -8.318 -33.679  0.00  0.00    +0.000 C 
ATOM     27  C17 UNL     1      24.616  -8.433 -33.277  0.00  0.00    +0.000 C 
ATOM     28  C18 UNL     1      25.491  -8.839 -34.487  0.00  0.00    +0.000 C 
BRANCH  26  29
ATOM     29  O9  UNL     1      22.644  -9.599 -33.988  0.00  0.00    +0.000 OA
ATOM     30  H14 UNL     1      23.310 -10.020 -34.592  0.00  0.00    +0.000 HD
ENDBRANCH  26  29
BRANCH  27  31
ATOM     31  O10 UNL     1      25.068  -7.203 -32.769  0.00  0.00    +0.000 OA
ATOM     32  H16 UNL     1      25.201  -6.599 -33.547  0.00  0.00    +0.000 HD
ENDBRANCH  27  31
BRANCH  28  33
ATOM     33  O11 UNL     1      25.550 -10.239 -34.596  0.00  0.00    +0.000 OA
ATOM     34  H18 UNL     1      25.310 -10.466 -35.533  0.00  0.00    +0.000 HD
ENDBRANCH  28  33
BRANCH  25  35
ATOM     35  C15 UNL     1      22.311  -6.040 -34.481  0.00  0.00    +0.000 C 
BRANCH  35  36
ATOM     36  O8  UNL     1      21.057  -5.883 -35.088  0.00  0.00    +0.000 OA
ATOM     37  H12 UNL     1      20.986  -6.587 -35.783  0.00  0.00    +0.000 HD
ENDBRANCH  35  36
ENDBRANCH  25  35
ENDBRANCH  22  23
ENDBRANCH  14  22
TORSDOF 10
ENDMDL
MODEL 6
REMARK VINA RESULT:    -5.846      2.017      4.420
REMARK INTER + INTRA:          -8.983
REMARK INTER:                  -8.000
REMARK INTRA:                  -0.983
REMARK UNBOUND:                -0.916
REMARK  Name = resultss/4CJN/ligands/lig_311_t0.pdb
REMARK  10 active torsions:
REMARK  status: ('A' for Active; 'I' for Inactive)
REMARK    1  A    between atoms: C3_4  and  O2_5
REMARK    2  A    between atoms: C5_7  and  O3_8
REMARK    3  A    between atoms: C9_13  and  O5_14
REMARK    4  A    between atoms: C12_17  and  O6_18
REMARK    5  A    between atoms: O6_18  and  C13_19
REMARK    6  A    between atoms: C14_21  and  C15_22
REMARK    7  A    between atoms: C15_22  and  O8_23
REMARK    8  A    between atoms: C16_24  and  O9_25
REMARK    9  A    between atoms: C17_26  and  O10_27
REMARK   10  A    between atoms: C18_28  and  O11_29
REMARK                            x       y       z     vdW  Elec       q    Type
REMARK                         _______ _______ _______ _____ _____    ______ ____
ROOT
ATOM      1  O1  UNL     1      26.900  -9.893 -37.793  0.00  0.00    +0.000 OA
ATOM      2  C1  UNL     1      28.141  -9.856 -38.013  0.00  0.00    +0.000 A 
ATOM      3  C2  UNL     1      28.625  -9.925 -39.339  0.00  0.00    +0.000 A 
ATOM      4  C3  UNL     1      27.775 -10.038 -40.468  0.00  0.00    +0.000 A 
ATOM      5  C4  UNL     1      28.329 -10.102 -41.754  0.00  0.00    +0.000 A 
ATOM      6  C5  UNL     1      29.712 -10.055 -41.937  0.00  0.00    +0.000 A 
ATOM      7  C6  UNL     1      30.557  -9.944 -40.828  0.00  0.00    +0.000 A 
ATOM      8  C7  UNL     1      30.025  -9.880 -39.537  0.00  0.00    +0.000 A 
ATOM      9  O4  UNL     1      30.851  -9.777 -38.506  0.00  0.00    +0.000 OA
ATOM     10  C8  UNL     1      30.437  -9.711 -37.246  0.00  0.00    +0.000 A 
ATOM     11  C9  UNL     1      31.388  -9.607 -36.227  0.00  0.00    +0.000 A 
ATOM     12  C10 UNL     1      30.978  -9.540 -34.895  0.00  0.00    +0.000 A 
ATOM     13  C11 UNL     1      29.623  -9.572 -34.572  0.00  0.00    +0.000 A 
ATOM     14  C12 UNL     1      28.641  -9.671 -35.580  0.00  0.00    +0.000 A 
ATOM     15  C19 UNL     1      29.054  -9.746 -36.937  0.00  0.00    +0.000 A 
ENDROOT
BRANCH   4  16
ATOM     16  O2  UNL     1      26.387 -10.089 -40.321  0.00  0.00    +0.000 OA
ATOM     17  H1  UNL     1      25.941 -10.750 -39.696  0.00  0.00    +0.000 HD
ENDBRANCH   4  16
BRANCH   6  18
ATOM     18  O3  UNL     1      30.237 -10.121 -43.225  0.00  0.00    +0.000 OA
ATOM     19  H3  UNL     1      31.129  -9.699 -43.456  0.00  0.00    +0.000 HD
ENDBRANCH   6  18
BRANCH  11  20
ATOM     20  O5  UNL     1      32.745  -9.572 -36.547  0.00  0.00    +0.000 OA
ATOM     21  H5  UNL     1      33.068  -9.249 -37.451  0.00  0.00    +0.000 HD
ENDBRANCH  11  20
BRANCH  14  22
ATOM     22  O6  UNL     1      27.265  -9.693 -35.275  0.00  0.00    +0.000 OA
BRANCH  22  23
ATOM     23  C13 UNL     1      26.530  -8.756 -34.482  0.00  0.00    +0.000 C 
ATOM     24  O7  UNL     1      25.244  -9.265 -34.184  0.00  0.00    +0.000 OA
ATOM     25  C14 UNL     1      24.641  -8.525 -33.131  0.00  0.00    +0.000 C 
ATOM     26  C16 UNL     1      24.728  -6.976 -33.342  0.00  0.00    +0.000 C 
ATOM     27  C17 UNL     1      25.141  -6.637 -34.788  0.00  0.00    +0.000 C 
ATOM     28  C18 UNL     1      26.441  -7.378 -35.184  0.00  0.00    +0.000 C 
BRANCH  26  29
ATOM     29  O9  UNL     1      25.672  -6.424 -32.459  0.00  0.00    +0.000 OA
ATOM     30  H14 UNL     1      26.051  -7.179 -31.938  0.00  0.00    +0.000 HD
ENDBRANCH  26  29
BRANCH  27  31
ATOM     31  O10 UNL     1      24.111  -7.001 -35.673  0.00  0.00    +0.000 OA
ATOM     32  H16 UNL     1      23.503  -6.219 -35.747  0.00  0.00    +0.000 HD
ENDBRANCH  27  31
BRANCH  28  33
ATOM     33  O11 UNL     1      27.564  -6.613 -34.826  0.00  0.00    +0.000 OA
ATOM     34  H18 UNL     1      27.225  -5.743 -34.488  0.00  0.00    +0.000 HD
ENDBRANCH  28  33
BRANCH  25  35
ATOM     35  C15 UNL     1      23.176  -8.972 -33.004  0.00  0.00    +0.000 C 
BRANCH  35  36
ATOM     36  O8  UNL     1      22.552  -8.974 -34.260  0.00  0.00    +0.000 OA
ATOM     37  H12 UNL     1      21.939  -8.193 -34.275  0.00  0.00    +0.000 HD
ENDBRANCH  35  36
ENDBRANCH  25  35
ENDBRANCH  22  23
ENDBRANCH  14  22
TORSDOF 10
ENDMDL
MODEL 7
REMARK VINA RESULT:    -5.839      2.077      7.037
REMARK INTER + INTRA:          -8.973
REMARK INTER:                  -8.186
REMARK INTRA:                  -0.787
REMARK UNBOUND:                -0.916
REMARK  Name = resultss/4CJN/ligands/lig_311_t0.pdb
REMARK  10 active torsions:
REMARK  status: ('A' for Active; 'I' for Inactive)
REMARK    1  A    between atoms: C3_4  and  O2_5
REMARK    2  A    between atoms: C5_7  and  O3_8
REMARK    3  A    between atoms: C9_13  and  O5_14
REMARK    4  A    between atoms: C12_17  and  O6_18
REMARK    5  A    between atoms: O6_18  and  C13_19
REMARK    6  A    between atoms: C14_21  and  C15_22
REMARK    7  A    between atoms: C15_22  and  O8_23
REMARK    8  A    between atoms: C16_24  and  O9_25
REMARK    9  A    between atoms: C17_26  and  O10_27
REMARK   10  A    between atoms: C18_28  and  O11_29
REMARK                            x       y       z     vdW  Elec       q    Type
REMARK                         _______ _______ _______ _____ _____    ______ ____
ROOT
ATOM      1  O1  UNL     1      26.527  -7.901 -38.085  0.00  0.00    +0.000 OA
ATOM      2  C1  UNL     1      27.658  -8.440 -37.938  0.00  0.00    +0.000 A 
ATOM      3  C2  UNL     1      28.101  -8.810 -36.649  0.00  0.00    +0.000 A 
ATOM      4  C3  UNL     1      27.330  -8.604 -35.477  0.00  0.00    +0.000 A 
ATOM      5  C4  UNL     1      27.837  -8.998 -34.230  0.00  0.00    +0.000 A 
ATOM      6  C5  UNL     1      29.097  -9.591 -34.129  0.00  0.00    +0.000 A 
ATOM      7  C6  UNL     1      29.864  -9.796 -35.280  0.00  0.00    +0.000 A 
ATOM      8  C7  UNL     1      29.376  -9.411 -36.532  0.00  0.00    +0.000 A 
ATOM      9  O4  UNL     1      30.128  -9.616 -37.605  0.00  0.00    +0.000 OA
ATOM     10  C8  UNL     1      29.749  -9.282 -38.833  0.00  0.00    +0.000 A 
ATOM     11  C9  UNL     1      30.615  -9.537 -39.900  0.00  0.00    +0.000 A 
ATOM     12  C10 UNL     1      30.241  -9.191 -41.199  0.00  0.00    +0.000 A 
ATOM     13  C11 UNL     1      29.005  -8.595 -41.442  0.00  0.00    +0.000 A 
ATOM     14  C12 UNL     1      28.110  -8.331 -40.386  0.00  0.00    +0.000 A 
ATOM     15  C19 UNL     1      28.488  -8.676 -39.060  0.00  0.00    +0.000 A 
ENDROOT
BRANCH   4  16
ATOM     16  O2  UNL     1      26.067  -8.013 -35.542  0.00  0.00    +0.000 OA
ATOM     17  H1  UNL     1      25.861  -7.267 -36.195  0.00  0.00    +0.000 HD
ENDBRANCH   4  16
BRANCH   6  18
ATOM     18  O3  UNL     1      29.577  -9.972 -32.879  0.00  0.00    +0.000 OA
ATOM     19  H3  UNL     1      28.955 -10.104 -32.090  0.00  0.00    +0.000 HD
ENDBRANCH   6  18
BRANCH  11  20
ATOM     20  O5  UNL     1      31.851 -10.136 -39.660  0.00  0.00    +0.000 OA
ATOM     21  H5  UNL     1      32.721  -9.658 -39.863  0.00  0.00    +0.000 HD
ENDBRANCH  11  20
BRANCH  14  22
ATOM     22  O6  UNL     1      26.850  -7.739 -40.612  0.00  0.00    +0.000 OA
BRANCH  22  23
ATOM     23  C13 UNL     1      25.783  -8.239 -41.424  0.00  0.00    +0.000 C 
ATOM     24  O7  UNL     1      25.753  -7.562 -42.667  0.00  0.00    +0.000 OA
ATOM     25  C14 UNL     1      24.946  -8.264 -43.603  0.00  0.00    +0.000 C 
ATOM     26  C16 UNL     1      23.554  -8.683 -43.020  0.00  0.00    +0.000 C 
ATOM     27  C17 UNL     1      23.263  -7.945 -41.699  0.00  0.00    +0.000 C 
ATOM     28  C18 UNL     1      24.423  -8.129 -40.691  0.00  0.00    +0.000 C 
BRANCH  26  29
ATOM     29  O9  UNL     1      23.530 -10.067 -42.783  0.00  0.00    +0.000 OA
ATOM     30  H14 UNL     1      23.206 -10.495 -43.618  0.00  0.00    +0.000 HD
ENDBRANCH  26  29
BRANCH  27  31
ATOM     31  O10 UNL     1      23.081  -6.574 -41.951  0.00  0.00    +0.000 OA
ATOM     32  H16 UNL     1      22.111  -6.435 -42.115  0.00  0.00    +0.000 HD
ENDBRANCH  27  31
BRANCH  28  33
ATOM     33  O11 UNL     1      24.223  -9.294 -39.929  0.00  0.00    +0.000 OA
ATOM     34  H18 UNL     1      24.904  -9.953 -40.226  0.00  0.00    +0.000 HD
ENDBRANCH  28  33
BRANCH  25  35
ATOM     35  C15 UNL     1      24.769  -7.379 -44.846  0.00  0.00    +0.000 C 
BRANCH  35  36
ATOM     36  O8  UNL     1      23.687  -7.825 -45.618  0.00  0.00    +0.000 OA
ATOM     37  H12 UNL     1      23.988  -7.819 -46.564  0.00  0.00    +0.000 HD
ENDBRANCH  35  36
ENDBRANCH  25  35
ENDBRANCH  22  23
ENDBRANCH  14  22
TORSDOF 10
ENDMDL
MODEL 8
REMARK VINA RESULT:    -5.735      1.902      8.202
REMARK INTER + INTRA:          -8.830
REMARK INTER:                  -8.050
REMARK INTRA:                  -0.781
REMARK UNBOUND:                -0.916
REMARK  Name = resultss/4CJN/ligands/lig_311_t0.pdb
REMARK  10 active torsions:
REMARK  status: ('A' for Active; 'I' for Inactive)
REMARK    1  A    between atoms: C3_4  and  O2_5
REMARK    2  A    between atoms: C5_7  and  O3_8
REMARK    3  A    between atoms: C9_13  and  O5_14
REMARK    4  A    between atoms: C12_17  and  O6_18
REMARK    5  A    between atoms: O6_18  and  C13_19
REMARK    6  A    between atoms: C14_21  and  C15_22
REMARK    7  A    between atoms: C15_22  and  O8_23
REMARK    8  A    between atoms: C16_24  and  O9_25
REMARK    9  A    between atoms: C17_26  and  O10_27
REMARK   10  A    between atoms: C18_28  and  O11_29
REMARK                            x       y       z     vdW  Elec       q    Type
REMARK                         _______ _______ _______ _____ _____    ______ ____
ROOT
ATOM      1  O1  UNL     1      24.979  -8.717 -37.926  0.00  0.00    +0.000 OA
ATOM      2  C1  UNL     1      25.585  -8.704 -36.820  0.00  0.00    +0.000 A 
ATOM      3  C2  UNL     1      24.934  -8.217 -35.665  0.00  0.00    +0.000 A 
ATOM      4  C3  UNL     1      23.603  -7.728 -35.675  0.00  0.00    +0.000 A 
ATOM      5  C4  UNL     1      23.023  -7.260 -34.487  0.00  0.00    +0.000 A 
ATOM      6  C5  UNL     1      23.743  -7.271 -33.291  0.00  0.00    +0.000 A 
ATOM      7  C6  UNL     1      25.056  -7.752 -33.273  0.00  0.00    +0.000 A 
ATOM      8  C7  UNL     1      25.652  -8.222 -34.447  0.00  0.00    +0.000 A 
ATOM      9  O4  UNL     1      26.899  -8.669 -34.399  0.00  0.00    +0.000 OA
ATOM     10  C8  UNL     1      27.547  -9.133 -35.461  0.00  0.00    +0.000 A 
ATOM     11  C9  UNL     1      28.863  -9.580 -35.308  0.00  0.00    +0.000 A 
ATOM     12  C10 UNL     1      29.565 -10.067 -36.411  0.00  0.00    +0.000 A 
ATOM     13  C11 UNL     1      28.962 -10.117 -37.666  0.00  0.00    +0.000 A 
ATOM     14  C12 UNL     1      27.635  -9.678 -37.848  0.00  0.00    +0.000 A 
ATOM     15  C19 UNL     1      26.917  -9.174 -36.730  0.00  0.00    +0.000 A 
ENDROOT
BRANCH   4  16
ATOM     16  O2  UNL     1      22.855  -7.702 -36.854  0.00  0.00    +0.000 OA
ATOM     17  H1  UNL     1      22.836  -6.886 -37.455  0.00  0.00    +0.000 HD
ENDBRANCH   4  16
BRANCH   6  18
ATOM     18  O3  UNL     1      23.143  -6.801 -32.125  0.00  0.00    +0.000 OA
ATOM     19  H3  UNL     1      23.599  -6.886 -31.224  0.00  0.00    +0.000 HD
ENDBRANCH   6  18
BRANCH  11  20
ATOM     20  O5  UNL     1      29.468  -9.534 -34.053  0.00  0.00    +0.000 OA
ATOM     21  H5  UNL     1      29.007  -9.109 -33.257  0.00  0.00    +0.000 HD
ENDBRANCH  11  20
BRANCH  14  22
ATOM     22  O6  UNL     1      27.002  -9.730 -39.107  0.00  0.00    +0.000 OA
BRANCH  22  23
ATOM     23  C13 UNL     1      27.551  -9.359 -40.377  0.00  0.00    +0.000 C 
ATOM     24  O7  UNL     1      28.613 -10.226 -40.725  0.00  0.00    +0.000 OA
ATOM     25  C14 UNL     1      28.934 -10.102 -42.104  0.00  0.00    +0.000 C 
ATOM     26  C16 UNL     1      29.089  -8.613 -42.565  0.00  0.00    +0.000 C 
ATOM     27  C17 UNL     1      29.192  -7.667 -41.353  0.00  0.00    +0.000 C 
ATOM     28  C18 UNL     1      28.008  -7.880 -40.378  0.00  0.00    +0.000 C 
BRANCH  26  29
ATOM     29  O9  UNL     1      27.984  -8.234 -43.345  0.00  0.00    +0.000 OA
ATOM     30  H14 UNL     1      27.352  -7.768 -42.738  0.00  0.00    +0.000 HD
ENDBRANCH  26  29
BRANCH  27  31
ATOM     31  O10 UNL     1      30.400  -7.896 -40.672  0.00  0.00    +0.000 OA
ATOM     32  H16 UNL     1      30.678  -8.827 -40.879  0.00  0.00    +0.000 HD
ENDBRANCH  27  31
BRANCH  28  33
ATOM     33  O11 UNL     1      26.922  -7.069 -40.750  0.00  0.00    +0.000 OA
ATOM     34  H18 UNL     1      27.252  -6.446 -41.449  0.00  0.00    +0.000 HD
ENDBRANCH  28  33
BRANCH  25  35
ATOM     35  C15 UNL     1      30.225 -10.889 -42.373  0.00  0.00    +0.000 C 
BRANCH  35  36
ATOM     36  O8  UNL     1      31.151 -10.682 -41.341  0.00  0.00    +0.000 OA
ATOM     37  H12 UNL     1      31.119  -9.716 -41.117  0.00  0.00    +0.000 HD
ENDBRANCH  35  36
ENDBRANCH  25  35
ENDBRANCH  22  23
ENDBRANCH  14  22
TORSDOF 10
ENDMDL
MODEL 9
REMARK VINA RESULT:    -5.517      1.976      4.311
REMARK INTER + INTRA:          -8.530
REMARK INTER:                  -7.635
REMARK INTRA:                  -0.895
REMARK UNBOUND:                -0.916
REMARK  Name = resultss/4CJN/ligands/lig_311_t0.pdb
REMARK  10 active torsions:
REMARK  status: ('A' for Active; 'I' for Inactive)
REMARK    1  A    between atoms: C3_4  and  O2_5
REMARK    2  A    between atoms: C5_7  and  O3_8
REMARK    3  A    between atoms: C9_13  and  O5_14
REMARK    4  A    between atoms: C12_17  and  O6_18
REMARK    5  A    between atoms: O6_18  and  C13_19
REMARK    6  A    between atoms: C14_21  and  C15_22
REMARK    7  A    between atoms: C15_22  and  O8_23
REMARK    8  A    between atoms: C16_24  and  O9_25
REMARK    9  A    between atoms: C17_26  and  O10_27
REMARK   10  A    between atoms: C18_28  and  O11_29
REMARK                            x       y       z     vdW  Elec       q    Type
REMARK                         _______ _______ _______ _____ _____    ______ ____
ROOT
ATOM      1  O1  UNL     1      25.609  -6.816 -38.694  0.00  0.00    +0.000 OA
ATOM      2  C1  UNL     1      26.184  -7.624 -39.473  0.00  0.00    +0.000 A 
ATOM      3  C2  UNL     1      25.683  -7.823 -40.779  0.00  0.00    +0.000 A 
ATOM      4  C3  UNL     1      24.539  -7.151 -41.279  0.00  0.00    +0.000 A 
ATOM      5  C4  UNL     1      24.101  -7.401 -42.587  0.00  0.00    +0.000 A 
ATOM      6  C5  UNL     1      24.779  -8.307 -43.405  0.00  0.00    +0.000 A 
ATOM      7  C6  UNL     1      25.907  -8.974 -42.918  0.00  0.00    +0.000 A 
ATOM      8  C7  UNL     1      26.360  -8.739 -41.617  0.00  0.00    +0.000 A 
ATOM      9  O4  UNL     1      27.431  -9.389 -41.183  0.00  0.00    +0.000 OA
ATOM     10  C8  UNL     1      27.932  -9.231 -39.964  0.00  0.00    +0.000 A 
ATOM     11  C9  UNL     1      29.065  -9.965 -39.599  0.00  0.00    +0.000 A 
ATOM     12  C10 UNL     1      29.608  -9.820 -38.321  0.00  0.00    +0.000 A 
ATOM     13  C11 UNL     1      29.030  -8.943 -37.405  0.00  0.00    +0.000 A 
ATOM     14  C12 UNL     1      27.891  -8.187 -37.747  0.00  0.00    +0.000 A 
ATOM     15  C19 UNL     1      27.331  -8.335 -39.045  0.00  0.00    +0.000 A 
ENDROOT
BRANCH   4  16
ATOM     16  O2  UNL     1      23.837  -6.240 -40.488  0.00  0.00    +0.000 OA
ATOM     17  H1  UNL     1      23.592  -6.447 -39.527  0.00  0.00    +0.000 HD
ENDBRANCH   4  16
BRANCH   6  18
ATOM     18  O3  UNL     1      24.322  -8.537 -44.701  0.00  0.00    +0.000 OA
ATOM     19  H3  UNL     1      23.596  -7.965 -45.116  0.00  0.00    +0.000 HD
ENDBRANCH   6  18
BRANCH  11  20
ATOM     20  O5  UNL     1      29.647 -10.841 -40.514  0.00  0.00    +0.000 OA
ATOM     21  H5  UNL     1      29.978 -10.522 -41.417  0.00  0.00    +0.000 HD
ENDBRANCH  11  20
BRANCH  14  22
ATOM     22  O6  UNL     1      27.298  -7.286 -36.839  0.00  0.00    +0.000 OA
BRANCH  22  23
ATOM     23  C13 UNL     1      26.649  -7.593 -35.601  0.00  0.00    +0.000 C 
ATOM     24  O7  UNL     1      27.605  -7.744 -34.569  0.00  0.00    +0.000 OA
ATOM     25  C14 UNL     1      26.980  -7.702 -33.293  0.00  0.00    +0.000 C 
ATOM     26  C16 UNL     1      25.720  -8.628 -33.197  0.00  0.00    +0.000 C 
ATOM     27  C17 UNL     1      25.662  -9.608 -34.386  0.00  0.00    +0.000 C 
ATOM     28  C18 UNL     1      25.760  -8.855 -35.734  0.00  0.00    +0.000 C 
BRANCH  26  29
ATOM     29  O9  UNL     1      24.551  -7.848 -33.193  0.00  0.00    +0.000 OA
ATOM     30  H14 UNL     1      24.832  -6.914 -33.013  0.00  0.00    +0.000 HD
ENDBRANCH  26  29
BRANCH  27  31
ATOM     31  O10 UNL     1      26.718 -10.531 -34.292  0.00  0.00    +0.000 OA
ATOM     32  H16 UNL     1      26.517 -11.268 -34.927  0.00  0.00    +0.000 HD
ENDBRANCH  27  31
BRANCH  28  33
ATOM     33  O11 UNL     1      24.481  -8.464 -36.166  0.00  0.00    +0.000 OA
ATOM     34  H18 UNL     1      24.483  -7.472 -36.218  0.00  0.00    +0.000 HD
ENDBRANCH  28  33
BRANCH  25  35
ATOM     35  C15 UNL     1      28.020  -8.093 -32.233  0.00  0.00    +0.000 C 
BRANCH  35  36
ATOM     36  O8  UNL     1      27.570  -7.749 -30.951  0.00  0.00    +0.000 OA
ATOM     37  H12 UNL     1      28.361  -7.777 -30.352  0.00  0.00    +0.000 HD
ENDBRANCH  35  36
ENDBRANCH  25  35
ENDBRANCH  22  23
ENDBRANCH  14  22
TORSDOF 10
ENDMDL
