MODEL 1
REMARK VINA RESULT:    -3.848      0.000      0.000
REMARK INTER + INTRA:          -4.759
REMARK INTER:                  -4.523
REMARK INTRA:                  -0.236
REMARK UNBOUND:                -0.236
REMARK  Name = resultss/4CJN/ligands/lig_107_t0.pdb
REMARK  5 active torsions:
REMARK  status: ('A' for Active; 'I' for Inactive)
REMARK    1  A    between atoms: O1_1  and  C1_2
REMARK    2  A    between atoms: C1_2  and  C2_3
REMARK    3  A    between atoms: C4_6  and  O2_7
REMARK    4  A    between atoms: C5_8  and  O3_9
REMARK    5  A    between atoms: C6_10  and  O4_11
REMARK                            x       y       z     vdW  Elec       q    Type
REMARK                         _______ _______ _______ _____ _____    ______ ____
ROOT
ATOM      1  C2  UNL     1      27.024  -8.513 -34.583  0.00  0.00    +0.000 C 
ATOM      2  N1  UNL     1      26.882  -7.044 -34.532  0.00  0.00    +0.000 NA
ATOM      3  C3  UNL     1      26.032  -6.584 -33.422  0.00  0.00    +0.000 C 
ATOM      4  C4  UNL     1      24.616  -7.179 -33.505  0.00  0.00    +0.000 C 
ATOM      5  C5  UNL     1      24.693  -8.715 -33.509  0.00  0.00    +0.000 C 
ATOM      6  C6  UNL     1      25.633  -9.206 -34.636  0.00  0.00    +0.000 C 
ATOM      7  H5  UNL     1      26.461  -6.714 -35.433  0.00  0.00    +0.000 HD
ENDROOT
BRANCH   4   8
ATOM      8  O2  UNL     1      23.856  -6.756 -32.404  0.00  0.00    +0.000 OA
ATOM      9  H9  UNL     1      23.175  -7.461 -32.238  0.00  0.00    +0.000 HD
ENDBRANCH   4   8
BRANCH   5  10
ATOM     10  O3  UNL     1      23.410  -9.277 -33.652  0.00  0.00    +0.000 OA
ATOM     11  H11 UNL     1      22.746  -8.594 -33.370  0.00  0.00    +0.000 HD
ENDBRANCH   5  10
BRANCH   6  12
ATOM     12  O4  UNL     1      25.755 -10.609 -34.640  0.00  0.00    +0.000 OA
ATOM     13  H13 UNL     1      26.109 -10.886 -35.524  0.00  0.00    +0.000 HD
ENDBRANCH   6  12
BRANCH   1  14
ATOM     14  C1  UNL     1      27.947  -9.007 -33.445  0.00  0.00    +0.000 C 
BRANCH  14  15
ATOM     15  O1  UNL     1      28.664 -10.147 -33.839  0.00  0.00    +0.000 OA
ATOM     16  H1  UNL     1      28.591 -10.802 -33.096  0.00  0.00    +0.000 HD
ENDBRANCH  14  15
ENDBRANCH   1  14
TORSDOF 5
ENDMDL
MODEL 2
REMARK VINA RESULT:    -3.775      1.837      3.864
REMARK INTER + INTRA:          -4.672
REMARK INTER:                  -4.429
REMARK INTRA:                  -0.244
REMARK UNBOUND:                -0.236
REMARK  Name = resultss/4CJN/ligands/lig_107_t0.pdb
REMARK  5 active torsions:
REMARK  status: ('A' for Active; 'I' for Inactive)
REMARK    1  A    between atoms: O1_1  and  C1_2
REMARK    2  A    between atoms: C1_2  and  C2_3
REMARK    3  A    between atoms: C4_6  and  O2_7
REMARK    4  A    between atoms: C5_8  and  O3_9
REMARK    5  A    between atoms: C6_10  and  O4_11
REMARK                            x       y       z     vdW  Elec       q    Type
REMARK                         _______ _______ _______ _____ _____    ______ ____
ROOT
ATOM      1  C2  UNL     1      23.366  -7.119 -33.198  0.00  0.00    +0.000 C 
ATOM      2  N1  UNL     1      24.514  -6.488 -32.517  0.00  0.00    +0.000 NA
ATOM      3  C3  UNL     1      25.801  -6.765 -33.175  0.00  0.00    +0.000 C 
ATOM      4  C4  UNL     1      26.086  -8.274 -33.254  0.00  0.00    +0.000 C 
ATOM      5  C5  UNL     1      24.947  -8.985 -34.003  0.00  0.00    +0.000 C 
ATOM      6  C6  UNL     1      23.582  -8.651 -33.353  0.00  0.00    +0.000 C 
ATOM      7  H5  UNL     1      24.559  -6.844 -31.533  0.00  0.00    +0.000 HD
ENDROOT
BRANCH   4   8
ATOM      8  O2  UNL     1      27.295  -8.496 -33.932  0.00  0.00    +0.000 OA
ATOM      9  H9  UNL     1      27.700  -9.312 -33.535  0.00  0.00    +0.000 HD
ENDBRANCH   4   8
BRANCH   5  10
ATOM     10  O3  UNL     1      25.159 -10.376 -34.025  0.00  0.00    +0.000 OA
ATOM     11  H11 UNL     1      25.168 -10.667 -34.974  0.00  0.00    +0.000 HD
ENDBRANCH   5  10
BRANCH   6  12
ATOM     12  O4  UNL     1      22.514  -9.257 -34.041  0.00  0.00    +0.000 OA
ATOM     13  H13 UNL     1      22.874 -10.024 -34.558  0.00  0.00    +0.000 HD
ENDBRANCH   6  12
BRANCH   1  14
ATOM     14  C1  UNL     1      23.045  -6.378 -34.517  0.00  0.00    +0.000 C 
BRANCH  14  15
ATOM     15  O1  UNL     1      21.772  -6.725 -34.992  0.00  0.00    +0.000 OA
ATOM     16  H1  UNL     1      21.903  -7.148 -35.881  0.00  0.00    +0.000 HD
ENDBRANCH  14  15
ENDBRANCH   1  14
TORSDOF 5
ENDMDL
MODEL 3
REMARK VINA RESULT:    -3.588      1.838      3.635
REMARK INTER + INTRA:          -4.454
REMARK INTER:                  -4.207
REMARK INTRA:                  -0.247
REMARK UNBOUND:                -0.236
REMARK  Name = resultss/4CJN/ligands/lig_107_t0.pdb
REMARK  5 active torsions:
REMARK  status: ('A' for Active; 'I' for Inactive)
REMARK    1  A    between atoms: O1_1  and  C1_2
REMARK    2  A    between atoms: C1_2  and  C2_3
REMARK    3  A    between atoms: C4_6  and  O2_7
REMARK    4  A    between atoms: C5_8  and  O3_9
REMARK    5  A    between atoms: C6_10  and  O4_11
REMARK                            x       y       z     vdW  Elec       q    Type
REMARK                         _______ _______ _______ _____ _____    ______ ____
ROOT
ATOM      1  C2  UNL     1      25.318  -8.323 -33.796  0.00  0.00    +0.000 C 
ATOM      2  N1  UNL     1      26.082  -7.070 -33.954  0.00  0.00    +0.000 NA
ATOM      3  C3  UNL     1      26.463  -6.796 -35.349  0.00  0.00    +0.000 C 
ATOM      4  C4  UNL     1      27.316  -7.931 -35.939  0.00  0.00    +0.000 C 
ATOM      5  C5  UNL     1      26.551  -9.262 -35.853  0.00  0.00    +0.000 C 
ATOM      6  C6  UNL     1      26.093  -9.529 -34.398  0.00  0.00    +0.000 C 
ATOM      7  H5  UNL     1      26.954  -7.132 -33.376  0.00  0.00    +0.000 HD
ENDROOT
BRANCH   4   8
ATOM      8  O2  UNL     1      27.615  -7.655 -37.282  0.00  0.00    +0.000 OA
ATOM      9  H9  UNL     1      26.747  -7.503 -37.743  0.00  0.00    +0.000 HD
ENDBRANCH   4   8
BRANCH   5  10
ATOM     10  O3  UNL     1      27.344 -10.324 -36.327  0.00  0.00    +0.000 OA
ATOM     11  H11 UNL     1      28.272  -9.987 -36.429  0.00  0.00    +0.000 HD
ENDBRANCH   5  10
BRANCH   6  12
ATOM     12  O4  UNL     1      25.355 -10.723 -34.294  0.00  0.00    +0.000 OA
ATOM     13  H13 UNL     1      24.980 -10.935 -35.188  0.00  0.00    +0.000 HD
ENDBRANCH   6  12
BRANCH   1  14
ATOM     14  C1  UNL     1      23.878  -8.151 -34.335  0.00  0.00    +0.000 C 
BRANCH  14  15
ATOM     15  O1  UNL     1      23.038  -9.166 -33.856  0.00  0.00    +0.000 OA
ATOM     16  H1  UNL     1      22.360  -8.728 -33.278  0.00  0.00    +0.000 HD
ENDBRANCH  14  15
ENDBRANCH   1  14
TORSDOF 5
ENDMDL
MODEL 4
REMARK VINA RESULT:    -3.566      2.086      3.608
REMARK INTER + INTRA:          -4.427
REMARK INTER:                  -4.180
REMARK INTRA:                  -0.247
REMARK UNBOUND:                -0.236
REMARK  Name = resultss/4CJN/ligands/lig_107_t0.pdb
REMARK  5 active torsions:
REMARK  status: ('A' for Active; 'I' for Inactive)
REMARK    1  A    between atoms: O1_1  and  C1_2
REMARK    2  A    between atoms: C1_2  and  C2_3
REMARK    3  A    between atoms: C4_6  and  O2_7
REMARK    4  A    between atoms: C5_8  and  O3_9
REMARK    5  A    between atoms: C6_10  and  O4_11
REMARK                            x       y       z     vdW  Elec       q    Type
REMARK                         _______ _______ _______ _____ _____    ______ ____
ROOT
ATOM      1  C2  UNL     1      26.748  -8.470 -34.571  0.00  0.00    +0.000 C 
ATOM      2  N1  UNL     1      27.980  -7.932 -35.182  0.00  0.00    +0.000 NA
ATOM      3  C3  UNL     1      29.170  -8.107 -34.333  0.00  0.00    +0.000 C 
ATOM      4  C4  UNL     1      28.998  -7.423 -32.966  0.00  0.00    +0.000 C 
ATOM      5  C5  UNL     1      27.755  -7.982 -32.253  0.00  0.00    +0.000 C 
ATOM      6  C6  UNL     1      26.509  -7.857 -33.162  0.00  0.00    +0.000 C 
ATOM      7  H5  UNL     1      27.847  -6.909 -35.363  0.00  0.00    +0.000 HD
ENDROOT
BRANCH   4   8
ATOM      8  O2  UNL     1      30.131  -7.656 -32.171  0.00  0.00    +0.000 OA
ATOM      9  H9  UNL     1      30.826  -8.042 -32.768  0.00  0.00    +0.000 HD
ENDBRANCH   4   8
BRANCH   5  10
ATOM     10  O3  UNL     1      27.545  -7.319 -31.029  0.00  0.00    +0.000 OA
ATOM     11  H11 UNL     1      27.022  -6.496 -31.215  0.00  0.00    +0.000 HD
ENDBRANCH   5  10
BRANCH   6  12
ATOM     12  O4  UNL     1      25.361  -8.396 -32.552  0.00  0.00    +0.000 OA
ATOM     13  H13 UNL     1      24.571  -7.893 -32.879  0.00  0.00    +0.000 HD
ENDBRANCH   6  12
BRANCH   1  14
ATOM     14  C1  UNL     1      26.757 -10.016 -34.607  0.00  0.00    +0.000 C 
BRANCH  14  15
ATOM     15  O1  UNL     1      25.469 -10.531 -34.398  0.00  0.00    +0.000 OA
ATOM     16  H1  UNL     1      24.880  -9.757 -34.200  0.00  0.00    +0.000 HD
ENDBRANCH  14  15
ENDBRANCH   1  14
TORSDOF 5
ENDMDL
MODEL 5
REMARK VINA RESULT:    -3.527      7.738      8.664
REMARK INTER + INTRA:          -4.381
REMARK INTER:                  -4.130
REMARK INTRA:                  -0.251
REMARK UNBOUND:                -0.236
REMARK  Name = resultss/4CJN/ligands/lig_107_t0.pdb
REMARK  5 active torsions:
REMARK  status: ('A' for Active; 'I' for Inactive)
REMARK    1  A    between atoms: O1_1  and  C1_2
REMARK    2  A    between atoms: C1_2  and  C2_3
REMARK    3  A    between atoms: C4_6  and  O2_7
REMARK    4  A    between atoms: C5_8  and  O3_9
REMARK    5  A    between atoms: C6_10  and  O4_11
REMARK                            x       y       z     vdW  Elec       q    Type
REMARK                         _______ _______ _______ _____ _____    ______ ____
ROOT
ATOM      1  C2  UNL     1      25.095  -7.296 -40.755  0.00  0.00    +0.000 C 
ATOM      2  N1  UNL     1      25.772  -6.611 -41.873  0.00  0.00    +0.000 NA
ATOM      3  C3  UNL     1      25.001  -6.648 -43.127  0.00  0.00    +0.000 C 
ATOM      4  C4  UNL     1      24.717  -8.091 -43.577  0.00  0.00    +0.000 C 
ATOM      5  C5  UNL     1      23.962  -8.846 -42.471  0.00  0.00    +0.000 C 
ATOM      6  C6  UNL     1      24.736  -8.761 -41.133  0.00  0.00    +0.000 C 
ATOM      7  H5  UNL     1      26.699  -7.070 -42.038  0.00  0.00    +0.000 HD
ENDROOT
BRANCH   4   8
ATOM      8  O2  UNL     1      23.939  -8.081 -44.745  0.00  0.00    +0.000 OA
ATOM      9  H9  UNL     1      24.511  -8.444 -45.473  0.00  0.00    +0.000 HD
ENDBRANCH   4   8
BRANCH   5  10
ATOM     10  O3  UNL     1      23.753 -10.188 -42.839  0.00  0.00    +0.000 OA
ATOM     11  H11 UNL     1      24.642 -10.610 -42.970  0.00  0.00    +0.000 HD
ENDBRANCH   5  10
BRANCH   6  12
ATOM     12  O4  UNL     1      24.050  -9.412 -40.090  0.00  0.00    +0.000 OA
ATOM     13  H13 UNL     1      24.699  -9.977 -39.597  0.00  0.00    +0.000 HD
ENDBRANCH   6  12
BRANCH   1  14
ATOM     14  C1  UNL     1      23.902  -6.453 -40.246  0.00  0.00    +0.000 C 
BRANCH  14  15
ATOM     15  O1  UNL     1      23.595  -6.769 -38.915  0.00  0.00    +0.000 OA
ATOM     16  H1  UNL     1      22.609  -6.883 -38.868  0.00  0.00    +0.000 HD
ENDBRANCH  14  15
ENDBRANCH   1  14
TORSDOF 5
ENDMDL
MODEL 6
REMARK VINA RESULT:    -3.491      1.575      4.122
REMARK INTER + INTRA:          -4.339
REMARK INTER:                  -4.105
REMARK INTRA:                  -0.234
REMARK UNBOUND:                -0.236
REMARK  Name = resultss/4CJN/ligands/lig_107_t0.pdb
REMARK  5 active torsions:
REMARK  status: ('A' for Active; 'I' for Inactive)
REMARK    1  A    between atoms: O1_1  and  C1_2
REMARK    2  A    between atoms: C1_2  and  C2_3
REMARK    3  A    between atoms: C4_6  and  O2_7
REMARK    4  A    between atoms: C5_8  and  O3_9
REMARK    5  A    between atoms: C6_10  and  O4_11
REMARK                            x       y       z     vdW  Elec       q    Type
REMARK                         _______ _______ _______ _____ _____    ______ ____
ROOT
ATOM      1  C2  UNL     1      24.630  -8.165 -34.093  0.00  0.00    +0.000 C 
ATOM      2  N1  UNL     1      25.051  -9.122 -35.135  0.00  0.00    +0.000 NA
ATOM      3  C3  UNL     1      26.151 -10.001 -34.703  0.00  0.00    +0.000 C 
ATOM      4  C4  UNL     1      27.393  -9.195 -34.289  0.00  0.00    +0.000 C 
ATOM      5  C5  UNL     1      27.030  -8.212 -33.163  0.00  0.00    +0.000 C 
ATOM      6  C6  UNL     1      25.835  -7.324 -33.587  0.00  0.00    +0.000 C 
ATOM      7  H5  UNL     1      25.366  -8.586 -35.978  0.00  0.00    +0.000 HD
ENDROOT
BRANCH   4   8
ATOM      8  O2  UNL     1      28.397 -10.066 -33.837  0.00  0.00    +0.000 OA
ATOM      9  H9  UNL     1      29.157  -9.497 -33.540  0.00  0.00    +0.000 HD
ENDBRANCH   4   8
BRANCH   5  10
ATOM     10  O3  UNL     1      28.140  -7.419 -32.818  0.00  0.00    +0.000 OA
ATOM     11  H11 UNL     1      27.941  -6.978 -31.951  0.00  0.00    +0.000 HD
ENDBRANCH   5  10
BRANCH   6  12
ATOM     12  O4  UNL     1      25.453  -6.438 -32.561  0.00  0.00    +0.000 OA
ATOM     13  H13 UNL     1      25.865  -6.750 -31.714  0.00  0.00    +0.000 HD
ENDBRANCH   6  12
BRANCH   1  14
ATOM     14  C1  UNL     1      23.839  -8.891 -32.980  0.00  0.00    +0.000 C 
BRANCH  14  15
ATOM     15  O1  UNL     1      23.208  -7.971 -32.130  0.00  0.00    +0.000 OA
ATOM     16  H1  UNL     1      23.621  -7.086 -32.308  0.00  0.00    +0.000 HD
ENDBRANCH  14  15
ENDBRANCH   1  14
TORSDOF 5
ENDMDL
MODEL 7
REMARK VINA RESULT:    -3.441      2.126      2.616
REMARK INTER + INTRA:          -4.281
REMARK INTER:                  -4.052
REMARK INTRA:                  -0.229
REMARK UNBOUND:                -0.236
REMARK  Name = resultss/4CJN/ligands/lig_107_t0.pdb
REMARK  5 active torsions:
REMARK  status: ('A' for Active; 'I' for Inactive)
REMARK    1  A    between atoms: O1_1  and  C1_2
REMARK    2  A    between atoms: C1_2  and  C2_3
REMARK    3  A    between atoms: C4_6  and  O2_7
REMARK    4  A    between atoms: C5_8  and  O3_9
REMARK    5  A    between atoms: C6_10  and  O4_11
REMARK                            x       y       z     vdW  Elec       q    Type
REMARK                         _______ _______ _______ _____ _____    ______ ____
ROOT
ATOM      1  C2  UNL     1      25.482  -8.320 -34.170  0.00  0.00    +0.000 C 
ATOM      2  N1  UNL     1      25.170  -7.204 -33.254  0.00  0.00    +0.000 NA
ATOM      3  C3  UNL     1      23.737  -6.871 -33.217  0.00  0.00    +0.000 C 
ATOM      4  C4  UNL     1      23.206  -6.486 -34.608  0.00  0.00    +0.000 C 
ATOM      5  C5  UNL     1      23.454  -7.635 -35.600  0.00  0.00    +0.000 C 
ATOM      6  C6  UNL     1      24.950  -8.033 -35.602  0.00  0.00    +0.000 C 
ATOM      7  H5  UNL     1      25.702  -6.356 -33.563  0.00  0.00    +0.000 HD
ENDROOT
BRANCH   4   8
ATOM      8  O2  UNL     1      21.829  -6.225 -34.537  0.00  0.00    +0.000 OA
ATOM      9  H9  UNL     1      21.545  -6.435 -33.608  0.00  0.00    +0.000 HD
ENDBRANCH   4   8
BRANCH   5  10
ATOM     10  O3  UNL     1      23.035  -7.273 -36.894  0.00  0.00    +0.000 OA
ATOM     11  H11 UNL     1      23.813  -6.876 -37.366  0.00  0.00    +0.000 HD
ENDBRANCH   5  10
BRANCH   6  12
ATOM     12  O4  UNL     1      25.202  -9.110 -36.473  0.00  0.00    +0.000 OA
ATOM     13  H13 UNL     1      25.127  -9.952 -35.955  0.00  0.00    +0.000 HD
ENDBRANCH   6  12
BRANCH   1  14
ATOM     14  C1  UNL     1      25.010  -9.663 -33.565  0.00  0.00    +0.000 C 
BRANCH  14  15
ATOM     15  O1  UNL     1      25.502 -10.748 -34.307  0.00  0.00    +0.000 OA
ATOM     16  H1  UNL     1      26.485 -10.769 -34.166  0.00  0.00    +0.000 HD
ENDBRANCH  14  15
ENDBRANCH   1  14
TORSDOF 5
ENDMDL
MODEL 8
REMARK VINA RESULT:    -3.403      1.926      2.309
REMARK INTER + INTRA:          -4.236
REMARK INTER:                  -3.985
REMARK INTRA:                  -0.251
REMARK UNBOUND:                -0.236
REMARK  Name = resultss/4CJN/ligands/lig_107_t0.pdb
REMARK  5 active torsions:
REMARK  status: ('A' for Active; 'I' for Inactive)
REMARK    1  A    between atoms: O1_1  and  C1_2
REMARK    2  A    between atoms: C1_2  and  C2_3
REMARK    3  A    between atoms: C4_6  and  O2_7
REMARK    4  A    between atoms: C5_8  and  O3_9
REMARK    5  A    between atoms: C6_10  and  O4_11
REMARK                            x       y       z     vdW  Elec       q    Type
REMARK                         _______ _______ _______ _____ _____    ______ ____
ROOT
ATOM      1  C2  UNL     1      26.216  -7.709 -36.389  0.00  0.00    +0.000 C 
ATOM      2  N1  UNL     1      25.169  -6.834 -35.824  0.00  0.00    +0.000 NA
ATOM      3  C3  UNL     1      25.008  -6.990 -34.369  0.00  0.00    +0.000 C 
ATOM      4  C4  UNL     1      24.651  -8.438 -33.989  0.00  0.00    +0.000 C 
ATOM      5  C5  UNL     1      25.736  -9.398 -34.505  0.00  0.00    +0.000 C 
ATOM      6  C6  UNL     1      25.955  -9.198 -36.024  0.00  0.00    +0.000 C 
ATOM      7  H5  UNL     1      24.257  -7.058 -36.287  0.00  0.00    +0.000 HD
ENDROOT
BRANCH   4   8
ATOM      8  O2  UNL     1      24.556  -8.554 -32.594  0.00  0.00    +0.000 OA
ATOM      9  H9  UNL     1      23.815  -9.190 -32.409  0.00  0.00    +0.000 HD
ENDBRANCH   4   8
BRANCH   5  10
ATOM     10  O3  UNL     1      25.392 -10.733 -34.225  0.00  0.00    +0.000 OA
ATOM     11  H11 UNL     1      25.654 -11.286 -35.007  0.00  0.00    +0.000 HD
ENDBRANCH   5  10
BRANCH   6  12
ATOM     12  O4  UNL     1      26.971 -10.038 -36.520  0.00  0.00    +0.000 OA
ATOM     13  H13 UNL     1      26.836 -10.145 -37.496  0.00  0.00    +0.000 HD
ENDBRANCH   6  12
BRANCH   1  14
ATOM     14  C1  UNL     1      27.621  -7.190 -36.004  0.00  0.00    +0.000 C 
BRANCH  14  15
ATOM     15  O1  UNL     1      28.594  -7.665 -36.896  0.00  0.00    +0.000 OA
ATOM     16  H1  UNL     1      28.134  -7.829 -37.761  0.00  0.00    +0.000 HD
ENDBRANCH  14  15
ENDBRANCH   1  14
TORSDOF 5
ENDMDL
MODEL 9
REMARK VINA RESULT:    -3.388      7.300      8.291
REMARK INTER + INTRA:          -4.218
REMARK INTER:                  -3.971
REMARK INTRA:                  -0.247
REMARK UNBOUND:                -0.236
REMARK  Name = resultss/4CJN/ligands/lig_107_t0.pdb
REMARK  5 active torsions:
REMARK  status: ('A' for Active; 'I' for Inactive)
REMARK    1  A    between atoms: O1_1  and  C1_2
REMARK    2  A    between atoms: C1_2  and  C2_3
REMARK    3  A    between atoms: C4_6  and  O2_7
REMARK    4  A    between atoms: C5_8  and  O3_9
REMARK    5  A    between atoms: C6_10  and  O4_11
REMARK                            x       y       z     vdW  Elec       q    Type
REMARK                         _______ _______ _______ _____ _____    ______ ____
ROOT
ATOM      1  C2  UNL     1      26.110  -9.016 -41.412  0.00  0.00    +0.000 C 
ATOM      2  N1  UNL     1      27.201  -8.129 -40.961  0.00  0.00    +0.000 NA
ATOM      3  C3  UNL     1      28.532  -8.749 -41.070  0.00  0.00    +0.000 C 
ATOM      4  C4  UNL     1      28.624 -10.045 -40.248  0.00  0.00    +0.000 C 
ATOM      5  C5  UNL     1      27.542 -11.036 -40.708  0.00  0.00    +0.000 C 
ATOM      6  C6  UNL     1      26.145 -10.374 -40.654  0.00  0.00    +0.000 C 
ATOM      7  H5  UNL     1      27.034  -7.871 -39.960  0.00  0.00    +0.000 HD
ENDROOT
BRANCH   4   8
ATOM      8  O2  UNL     1      29.889 -10.628 -40.419  0.00  0.00    +0.000 OA
ATOM      9  H9  UNL     1      29.874 -11.094 -41.297  0.00  0.00    +0.000 HD
ENDBRANCH   4   8
BRANCH   5  10
ATOM     10  O3  UNL     1      27.570 -12.203 -39.921  0.00  0.00    +0.000 OA
ATOM     11  H11 UNL     1      26.653 -12.353 -39.569  0.00  0.00    +0.000 HD
ENDBRANCH   5  10
BRANCH   6  12
ATOM     12  O4  UNL     1      25.136 -11.245 -41.107  0.00  0.00    +0.000 OA
ATOM     13  H13 UNL     1      25.475 -11.722 -41.908  0.00  0.00    +0.000 HD
ENDBRANCH   6  12
BRANCH   1  14
ATOM     14  C1  UNL     1      26.115  -9.140 -42.954  0.00  0.00    +0.000 C 
BRANCH  14  15
ATOM     15  O1  UNL     1      24.888  -9.633 -43.422  0.00  0.00    +0.000 OA
ATOM     16  H1  UNL     1      24.961 -10.623 -43.427  0.00  0.00    +0.000 HD
ENDBRANCH  14  15
ENDBRANCH   1  14
TORSDOF 5
ENDMDL
