MODEL 1
REMARK VINA RESULT:    -4.565      0.000      0.000
REMARK INTER + INTRA:          -6.716
REMARK INTER:                  -6.033
REMARK INTRA:                  -0.683
REMARK UNBOUND:                -0.683
REMARK  Name = resultss/4CJN/ligands/lig_78_t0.pdb
REMARK  8 active torsions:
REMARK  status: ('A' for Active; 'I' for Inactive)
REMARK    1  A    between atoms: O1_1  and  C1_2
REMARK    2  A    between atoms: C1_2  and  C2_3
REMARK    3  A    between atoms: C2_3  and  O2_4
REMARK    4  A    between atoms: C4_6  and  N1_7
REMARK    5  A    between atoms: N1_7  and  C5_8
REMARK    6  A    between atoms: C11_14  and  O3_15
REMARK    7  A    between atoms: C12_16  and  O4_17
REMARK    8  A    between atoms: C13_18  and  O5_19
REMARK                            x       y       z     vdW  Elec       q    Type
REMARK                         _______ _______ _______ _____ _____    ______ ____
ROOT
ATOM      1  C2  UNL     1      26.020  -9.485 -34.600  0.00  0.00    +0.000 C 
ATOM      2  C3  UNL     1      27.441  -9.565 -33.972  0.00  0.00    +0.000 C 
ATOM      3  C4  UNL     1      28.160  -8.200 -33.947  0.00  0.00    +0.000 C 
ATOM      4  C11 UNL     1      27.344  -7.106 -33.211  0.00  0.00    +0.000 C 
ATOM      5  C12 UNL     1      25.914  -6.988 -33.790  0.00  0.00    +0.000 C 
ATOM      6  C13 UNL     1      25.180  -8.358 -33.917  0.00  0.00    +0.000 C 
ENDROOT
BRANCH   1   7
ATOM      7  O2  UNL     1      25.358 -10.708 -34.361  0.00  0.00    +0.000 OA
ATOM      8  H4  UNL     1      25.386 -11.246 -35.197  0.00  0.00    +0.000 HD
ENDBRANCH   1   7
BRANCH   3   9
ATOM      9  N1  UNL     1      29.572  -8.301 -33.515  0.00  0.00    +0.000 NA
ATOM     10  H8  UNL     1      29.662  -7.954 -32.532  0.00  0.00    +0.000 HD
BRANCH   9  11
ATOM     11  C5  UNL     1      30.260  -9.597 -33.710  0.00  0.00    +0.000 C 
ATOM     12  C6  UNL     1      31.037  -9.550 -35.035  0.00  0.00    +0.000 C 
ATOM     13  C7  UNL     1      32.182  -8.519 -35.009  0.00  0.00    +0.000 C 
ATOM     14  C8  UNL     1      32.879  -8.403 -33.638  0.00  0.00    +0.000 C 
ATOM     15  C9  UNL     1      32.689  -9.661 -32.785  0.00  0.00    +0.000 C 
ATOM     16  C10 UNL     1      31.198  -9.948 -32.517  0.00  0.00    +0.000 C 
ENDBRANCH   9  11
ENDBRANCH   3   9
BRANCH   4  17
ATOM     17  O3  UNL     1      27.310  -7.281 -31.815  0.00  0.00    +0.000 OA
ATOM     18  H21 UNL     1      26.892  -8.154 -31.616  0.00  0.00    +0.000 HD
ENDBRANCH   4  17
BRANCH   5  19
ATOM     19  O4  UNL     1      25.973  -6.345 -35.038  0.00  0.00    +0.000 OA
ATOM     20  H23 UNL     1      25.135  -5.821 -35.136  0.00  0.00    +0.000 HD
ENDBRANCH   5  19
BRANCH   6  21
ATOM     21  O5  UNL     1      24.769  -8.795 -32.645  0.00  0.00    +0.000 OA
ATOM     22  H25 UNL     1      25.032  -8.092 -31.994  0.00  0.00    +0.000 HD
ENDBRANCH   6  21
BRANCH   1  23
ATOM     23  C1  UNL     1      26.100  -9.282 -36.140  0.00  0.00    +0.000 C 
BRANCH  23  24
ATOM     24  O1  UNL     1      24.884  -8.782 -36.628  0.00  0.00    +0.000 OA
ATOM     25  H1  UNL     1      25.118  -8.119 -37.328  0.00  0.00    +0.000 HD
ENDBRANCH  23  24
ENDBRANCH   1  23
TORSDOF 8
ENDMDL
MODEL 2
REMARK VINA RESULT:    -4.561      3.223      5.858
REMARK INTER + INTRA:          -6.710
REMARK INTER:                  -5.985
REMARK INTRA:                  -0.725
REMARK UNBOUND:                -0.683
REMARK  Name = resultss/4CJN/ligands/lig_78_t0.pdb
REMARK  8 active torsions:
REMARK  status: ('A' for Active; 'I' for Inactive)
REMARK    1  A    between atoms: O1_1  and  C1_2
REMARK    2  A    between atoms: C1_2  and  C2_3
REMARK    3  A    between atoms: C2_3  and  O2_4
REMARK    4  A    between atoms: C4_6  and  N1_7
REMARK    5  A    between atoms: N1_7  and  C5_8
REMARK    6  A    between atoms: C11_14  and  O3_15
REMARK    7  A    between atoms: C12_16  and  O4_17
REMARK    8  A    between atoms: C13_18  and  O5_19
REMARK                            x       y       z     vdW  Elec       q    Type
REMARK                         _______ _______ _______ _____ _____    ______ ____
ROOT
ATOM      1  C2  UNL     1      24.861  -8.390 -34.802  0.00  0.00    +0.000 C 
ATOM      2  C3  UNL     1      25.039  -8.376 -36.348  0.00  0.00    +0.000 C 
ATOM      3  C4  UNL     1      26.501  -8.134 -36.778  0.00  0.00    +0.000 C 
ATOM      4  C11 UNL     1      27.483  -9.167 -36.168  0.00  0.00    +0.000 C 
ATOM      5  C12 UNL     1      27.345  -9.231 -34.628  0.00  0.00    +0.000 C 
ATOM      6  C13 UNL     1      25.871  -9.384 -34.143  0.00  0.00    +0.000 C 
ENDROOT
BRANCH   1   7
ATOM      7  O2  UNL     1      23.560  -8.852 -34.508  0.00  0.00    +0.000 OA
ATOM      8  H4  UNL     1      23.086  -8.143 -33.997  0.00  0.00    +0.000 HD
ENDBRANCH   1   7
BRANCH   3   9
ATOM      9  N1  UNL     1      26.647  -7.945 -38.239  0.00  0.00    +0.000 NA
ATOM     10  H8  UNL     1      27.624  -8.185 -38.526  0.00  0.00    +0.000 HD
BRANCH   9  11
ATOM     11  C5  UNL     1      25.638  -8.578 -39.118  0.00  0.00    +0.000 C 
ATOM     12  C6  UNL     1      24.920  -7.480 -39.918  0.00  0.00    +0.000 C 
ATOM     13  C7  UNL     1      25.863  -6.751 -40.895  0.00  0.00    +0.000 C 
ATOM     14  C8  UNL     1      26.930  -7.669 -41.526  0.00  0.00    +0.000 C 
ATOM     15  C9  UNL     1      26.512  -9.142 -41.502  0.00  0.00    +0.000 C 
ATOM     16  C10 UNL     1      26.271  -9.643 -40.064  0.00  0.00    +0.000 C 
ENDBRANCH   9  11
ENDBRANCH   3   9
BRANCH   4  17
ATOM     17  O3  UNL     1      27.371 -10.449 -36.738  0.00  0.00    +0.000 OA
ATOM     18  H21 UNL     1      26.415 -10.701 -36.762  0.00  0.00    +0.000 HD
ENDBRANCH   4  17
BRANCH   5  19
ATOM     19  O4  UNL     1      27.929  -8.084 -34.064  0.00  0.00    +0.000 OA
ATOM     20  H23 UNL     1      28.647  -7.788 -34.684  0.00  0.00    +0.000 HD
ENDBRANCH   5  19
BRANCH   6  21
ATOM     21  O5  UNL     1      25.434 -10.702 -34.367  0.00  0.00    +0.000 OA
ATOM     22  H25 UNL     1      26.244 -11.275 -34.424  0.00  0.00    +0.000 HD
ENDBRANCH   6  21
BRANCH   1  23
ATOM     23  C1  UNL     1      25.003  -6.959 -34.210  0.00  0.00    +0.000 C 
BRANCH  23  24
ATOM     24  O1  UNL     1      25.310  -7.027 -32.843  0.00  0.00    +0.000 OA
ATOM     25  H1  UNL     1      26.280  -7.224 -32.786  0.00  0.00    +0.000 HD
ENDBRANCH  23  24
ENDBRANCH   1  23
TORSDOF 8
ENDMDL
MODEL 3
REMARK VINA RESULT:    -4.501      1.148      2.012
REMARK INTER + INTRA:          -6.630
REMARK INTER:                  -5.709
REMARK INTRA:                  -0.921
REMARK UNBOUND:                -0.683
REMARK  Name = resultss/4CJN/ligands/lig_78_t0.pdb
REMARK  8 active torsions:
REMARK  status: ('A' for Active; 'I' for Inactive)
REMARK    1  A    between atoms: O1_1  and  C1_2
REMARK    2  A    between atoms: C1_2  and  C2_3
REMARK    3  A    between atoms: C2_3  and  O2_4
REMARK    4  A    between atoms: C4_6  and  N1_7
REMARK    5  A    between atoms: N1_7  and  C5_8
REMARK    6  A    between atoms: C11_14  and  O3_15
REMARK    7  A    between atoms: C12_16  and  O4_17
REMARK    8  A    between atoms: C13_18  and  O5_19
REMARK                            x       y       z     vdW  Elec       q    Type
REMARK                         _______ _______ _______ _____ _____    ______ ____
ROOT
ATOM      1  C2  UNL     1      25.904  -9.377 -34.651  0.00  0.00    +0.000 C 
ATOM      2  C3  UNL     1      27.329  -9.233 -34.043  0.00  0.00    +0.000 C 
ATOM      3  C4  UNL     1      27.850  -7.781 -34.083  0.00  0.00    +0.000 C 
ATOM      4  C11 UNL     1      26.898  -6.783 -33.374  0.00  0.00    +0.000 C 
ATOM      5  C12 UNL     1      25.459  -6.889 -33.933  0.00  0.00    +0.000 C 
ATOM      6  C13 UNL     1      24.922  -8.352 -33.997  0.00  0.00    +0.000 C 
ENDROOT
BRANCH   1   7
ATOM      7  O2  UNL     1      25.422 -10.670 -34.354  0.00  0.00    +0.000 OA
ATOM      8  H4  UNL     1      25.737 -11.291 -35.064  0.00  0.00    +0.000 HD
ENDBRANCH   1   7
BRANCH   3   9
ATOM      9  N1  UNL     1      29.267  -7.667 -33.671  0.00  0.00    +0.000 NA
ATOM     10  H8  UNL     1      29.587  -8.577 -33.265  0.00  0.00    +0.000 HD
BRANCH   9  11
ATOM     11  C5  UNL     1      30.229  -7.132 -34.661  0.00  0.00    +0.000 C 
ATOM     12  C6  UNL     1      31.533  -7.941 -34.570  0.00  0.00    +0.000 C 
ATOM     13  C7  UNL     1      31.343  -9.412 -34.990  0.00  0.00    +0.000 C 
ATOM     14  C8  UNL     1      30.330  -9.601 -36.138  0.00  0.00    +0.000 C 
ATOM     15  C9  UNL     1      30.154  -8.327 -36.969  0.00  0.00    +0.000 C 
ATOM     16  C10 UNL     1      29.653  -7.150 -36.109  0.00  0.00    +0.000 C 
ENDBRANCH   9  11
ENDBRANCH   3   9
BRANCH   4  17
ATOM     17  O3  UNL     1      26.904  -6.906 -31.972  0.00  0.00    +0.000 OA
ATOM     18  H21 UNL     1      26.261  -6.257 -31.596  0.00  0.00    +0.000 HD
ENDBRANCH   4  17
BRANCH   5  19
ATOM     19  O4  UNL     1      25.413  -6.294 -35.206  0.00  0.00    +0.000 OA
ATOM     20  H23 UNL     1      24.746  -5.559 -35.160  0.00  0.00    +0.000 HD
ENDBRANCH   5  19
BRANCH   6  21
ATOM     21  O5  UNL     1      24.591  -8.790 -32.702  0.00  0.00    +0.000 OA
ATOM     22  H25 UNL     1      23.610  -8.943 -32.686  0.00  0.00    +0.000 HD
ENDBRANCH   6  21
BRANCH   1  23
ATOM     23  C1  UNL     1      25.937  -9.226 -36.198  0.00  0.00    +0.000 C 
BRANCH  23  24
ATOM     24  O1  UNL     1      24.699  -8.764 -36.668  0.00  0.00    +0.000 OA
ATOM     25  H1  UNL     1      24.226  -9.557 -37.029  0.00  0.00    +0.000 HD
ENDBRANCH  23  24
ENDBRANCH   1  23
TORSDOF 8
ENDMDL
MODEL 4
REMARK VINA RESULT:    -4.478      4.106      6.457
REMARK INTER + INTRA:          -6.601
REMARK INTER:                  -6.070
REMARK INTRA:                  -0.531
REMARK UNBOUND:                -0.683
REMARK  Name = resultss/4CJN/ligands/lig_78_t0.pdb
REMARK  8 active torsions:
REMARK  status: ('A' for Active; 'I' for Inactive)
REMARK    1  A    between atoms: O1_1  and  C1_2
REMARK    2  A    between atoms: C1_2  and  C2_3
REMARK    3  A    between atoms: C2_3  and  O2_4
REMARK    4  A    between atoms: C4_6  and  N1_7
REMARK    5  A    between atoms: N1_7  and  C5_8
REMARK    6  A    between atoms: C11_14  and  O3_15
REMARK    7  A    between atoms: C12_16  and  O4_17
REMARK    8  A    between atoms: C13_18  and  O5_19
REMARK                            x       y       z     vdW  Elec       q    Type
REMARK                         _______ _______ _______ _____ _____    ______ ____
ROOT
ATOM      1  C2  UNL     1      26.421  -8.529 -39.478  0.00  0.00    +0.000 C 
ATOM      2  C3  UNL     1      25.728  -8.153 -38.136  0.00  0.00    +0.000 C 
ATOM      3  C4  UNL     1      25.893  -9.240 -37.054  0.00  0.00    +0.000 C 
ATOM      4  C11 UNL     1      27.378  -9.587 -36.774  0.00  0.00    +0.000 C 
ATOM      5  C12 UNL     1      28.122  -9.962 -38.078  0.00  0.00    +0.000 C 
ATOM      6  C13 UNL     1      27.910  -8.934 -39.232  0.00  0.00    +0.000 C 
ENDROOT
BRANCH   1   7
ATOM      7  O2  UNL     1      26.425  -7.391 -40.312  0.00  0.00    +0.000 OA
ATOM      8  H4  UNL     1      25.510  -7.271 -40.681  0.00  0.00    +0.000 HD
ENDBRANCH   1   7
BRANCH   3   9
ATOM      9  N1  UNL     1      25.092  -8.970 -35.840  0.00  0.00    +0.000 NA
ATOM     10  H8  UNL     1      25.633  -9.259 -34.992  0.00  0.00    +0.000 HD
BRANCH   9  11
ATOM     11  C5  UNL     1      24.508  -7.618 -35.689  0.00  0.00    +0.000 C 
ATOM     12  C6  UNL     1      22.980  -7.748 -35.582  0.00  0.00    +0.000 C 
ATOM     13  C7  UNL     1      22.541  -8.489 -34.304  0.00  0.00    +0.000 C 
ATOM     14  C8  UNL     1      23.434  -8.196 -33.081  0.00  0.00    +0.000 C 
ATOM     15  C9  UNL     1      24.186  -6.869 -33.219  0.00  0.00    +0.000 C 
ATOM     16  C10 UNL     1      25.098  -6.858 -34.462  0.00  0.00    +0.000 C 
ENDBRANCH   9  11
ENDBRANCH   3   9
BRANCH   4  17
ATOM     17  O3  UNL     1      28.065  -8.576 -36.075  0.00  0.00    +0.000 OA
ATOM     18  H21 UNL     1      28.409  -7.918 -36.728  0.00  0.00    +0.000 HD
ENDBRANCH   4  17
BRANCH   5  19
ATOM     19  O4  UNL     1      27.721 -11.245 -38.486  0.00  0.00    +0.000 OA
ATOM     20  H23 UNL     1      27.568 -11.206 -39.466  0.00  0.00    +0.000 HD
ENDBRANCH   5  19
BRANCH   6  21
ATOM     21  O5  UNL     1      28.668  -7.776 -38.979  0.00  0.00    +0.000 OA
ATOM     22  H25 UNL     1      28.658  -7.628 -37.997  0.00  0.00    +0.000 HD
ENDBRANCH   6  21
BRANCH   1  23
ATOM     23  C1  UNL     1      25.640  -9.654 -40.214  0.00  0.00    +0.000 C 
BRANCH  23  24
ATOM     24  O1  UNL     1      24.258  -9.450 -40.086  0.00  0.00    +0.000 OA
ATOM     25  H1  UNL     1      23.937 -10.127 -39.436  0.00  0.00    +0.000 HD
ENDBRANCH  23  24
ENDBRANCH   1  23
TORSDOF 8
ENDMDL
MODEL 5
REMARK VINA RESULT:    -4.476      2.918      4.014
REMARK INTER + INTRA:          -6.598
REMARK INTER:                  -5.810
REMARK INTRA:                  -0.788
REMARK UNBOUND:                -0.683
REMARK  Name = resultss/4CJN/ligands/lig_78_t0.pdb
REMARK  8 active torsions:
REMARK  status: ('A' for Active; 'I' for Inactive)
REMARK    1  A    between atoms: O1_1  and  C1_2
REMARK    2  A    between atoms: C1_2  and  C2_3
REMARK    3  A    between atoms: C2_3  and  O2_4
REMARK    4  A    between atoms: C4_6  and  N1_7
REMARK    5  A    between atoms: N1_7  and  C5_8
REMARK    6  A    between atoms: C11_14  and  O3_15
REMARK    7  A    between atoms: C12_16  and  O4_17
REMARK    8  A    between atoms: C13_18  and  O5_19
REMARK                            x       y       z     vdW  Elec       q    Type
REMARK                         _______ _______ _______ _____ _____    ______ ____
ROOT
ATOM      1  C2  UNL     1      24.302  -7.543 -35.898  0.00  0.00    +0.000 C 
ATOM      2  C3  UNL     1      25.147  -8.669 -36.561  0.00  0.00    +0.000 C 
ATOM      3  C4  UNL     1      26.380  -9.063 -35.721  0.00  0.00    +0.000 C 
ATOM      4  C11 UNL     1      26.009  -9.495 -34.279  0.00  0.00    +0.000 C 
ATOM      5  C12 UNL     1      25.158  -8.414 -33.571  0.00  0.00    +0.000 C 
ATOM      6  C13 UNL     1      23.949  -7.919 -34.422  0.00  0.00    +0.000 C 
ENDROOT
BRANCH   1   7
ATOM      7  O2  UNL     1      23.086  -7.423 -36.605  0.00  0.00    +0.000 OA
ATOM      8  H4  UNL     1      22.774  -6.482 -36.531  0.00  0.00    +0.000 HD
ENDBRANCH   1   7
BRANCH   3   9
ATOM      9  N1  UNL     1      27.279 -10.003 -36.426  0.00  0.00    +0.000 NA
ATOM     10  H8  UNL     1      26.834 -10.308 -37.322  0.00  0.00    +0.000 HD
BRANCH   9  11
ATOM     11  C5  UNL     1      28.688  -9.591 -36.620  0.00  0.00    +0.000 C 
ATOM     12  C6  UNL     1      29.149 -10.046 -38.014  0.00  0.00    +0.000 C 
ATOM     13  C7  UNL     1      28.391  -9.329 -39.147  0.00  0.00    +0.000 C 
ATOM     14  C8  UNL     1      28.048  -7.859 -38.829  0.00  0.00    +0.000 C 
ATOM     15  C9  UNL     1      28.970  -7.270 -37.758  0.00  0.00    +0.000 C 
ATOM     16  C10 UNL     1      28.882  -8.056 -36.435  0.00  0.00    +0.000 C 
ENDBRANCH   9  11
ENDBRANCH   3   9
BRANCH   4  17
ATOM     17  O3  UNL     1      25.380 -10.752 -34.218  0.00  0.00    +0.000 OA
ATOM     18  H21 UNL     1      25.323 -11.031 -33.271  0.00  0.00    +0.000 HD
ENDBRANCH   4  17
BRANCH   5  19
ATOM     19  O4  UNL     1      25.984  -7.333 -33.219  0.00  0.00    +0.000 OA
ATOM     20  H23 UNL     1      26.791  -7.713 -32.781  0.00  0.00    +0.000 HD
ENDBRANCH   5  19
BRANCH   6  21
ATOM     21  O5  UNL     1      22.939  -8.898 -34.424  0.00  0.00    +0.000 OA
ATOM     22  H25 UNL     1      22.111  -8.467 -34.085  0.00  0.00    +0.000 HD
ENDBRANCH   6  21
BRANCH   1  23
ATOM     23  C1  UNL     1      25.035  -6.174 -35.977  0.00  0.00    +0.000 C 
BRANCH  23  24
ATOM     24  O1  UNL     1      25.449  -5.919 -37.292  0.00  0.00    +0.000 OA
ATOM     25  H1  UNL     1      25.082  -6.655 -37.846  0.00  0.00    +0.000 HD
ENDBRANCH  23  24
ENDBRANCH   1  23
TORSDOF 8
ENDMDL
MODEL 6
REMARK VINA RESULT:    -4.305      3.764      5.999
REMARK INTER + INTRA:          -6.372
REMARK INTER:                  -5.850
REMARK INTRA:                  -0.522
REMARK UNBOUND:                -0.683
REMARK  Name = resultss/4CJN/ligands/lig_78_t0.pdb
REMARK  8 active torsions:
REMARK  status: ('A' for Active; 'I' for Inactive)
REMARK    1  A    between atoms: O1_1  and  C1_2
REMARK    2  A    between atoms: C1_2  and  C2_3
REMARK    3  A    between atoms: C2_3  and  O2_4
REMARK    4  A    between atoms: C4_6  and  N1_7
REMARK    5  A    between atoms: N1_7  and  C5_8
REMARK    6  A    between atoms: C11_14  and  O3_15
REMARK    7  A    between atoms: C12_16  and  O4_17
REMARK    8  A    between atoms: C13_18  and  O5_19
REMARK                            x       y       z     vdW  Elec       q    Type
REMARK                         _______ _______ _______ _____ _____    ______ ____
ROOT
ATOM      1  C2  UNL     1      27.724 -10.538 -40.124  0.00  0.00    +0.000 C 
ATOM      2  C3  UNL     1      27.456 -10.259 -38.616  0.00  0.00    +0.000 C 
ATOM      3  C4  UNL     1      27.069  -8.791 -38.342  0.00  0.00    +0.000 C 
ATOM      4  C11 UNL     1      25.838  -8.331 -39.165  0.00  0.00    +0.000 C 
ATOM      5  C12 UNL     1      26.045  -8.594 -40.676  0.00  0.00    +0.000 C 
ATOM      6  C13 UNL     1      26.525 -10.043 -40.995  0.00  0.00    +0.000 C 
ENDROOT
BRANCH   1   7
ATOM      7  O2  UNL     1      27.830 -11.934 -40.306  0.00  0.00    +0.000 OA
ATOM      8  H4  UNL     1      27.192 -12.378 -39.687  0.00  0.00    +0.000 HD
ENDBRANCH   1   7
BRANCH   3   9
ATOM      9  N1  UNL     1      26.986  -8.478 -36.898  0.00  0.00    +0.000 NA
ATOM     10  H8  UNL     1      26.217  -7.788 -36.733  0.00  0.00    +0.000 HD
BRANCH   9  11
ATOM     11  C5  UNL     1      26.923  -9.615 -35.951  0.00  0.00    +0.000 C 
ATOM     12  C6  UNL     1      28.192  -9.609 -35.085  0.00  0.00    +0.000 C 
ATOM     13  C7  UNL     1      28.277  -8.368 -34.174  0.00  0.00    +0.000 C 
ATOM     14  C8  UNL     1      26.908  -7.899 -33.639  0.00  0.00    +0.000 C 
ATOM     15  C9  UNL     1      25.868  -9.023 -33.649  0.00  0.00    +0.000 C 
ATOM     16  C10 UNL     1      25.637  -9.573 -35.070  0.00  0.00    +0.000 C 
ENDBRANCH   9  11
ENDBRANCH   3   9
BRANCH   4  17
ATOM     17  O3  UNL     1      24.627  -8.891 -38.717  0.00  0.00    +0.000 OA
ATOM     18  H21 UNL     1      24.581  -9.830 -39.023  0.00  0.00    +0.000 HD
ENDBRANCH   4  17
BRANCH   5  19
ATOM     19  O4  UNL     1      26.954  -7.652 -41.188  0.00  0.00    +0.000 OA
ATOM     20  H23 UNL     1      27.849  -7.883 -40.824  0.00  0.00    +0.000 HD
ENDBRANCH   5  19
BRANCH   6  21
ATOM     21  O5  UNL     1      25.450 -10.939 -40.854  0.00  0.00    +0.000 OA
ATOM     22  H25 UNL     1      25.489 -11.568 -41.622  0.00  0.00    +0.000 HD
ENDBRANCH   6  21
BRANCH   1  23
ATOM     23  C1  UNL     1      29.064  -9.896 -40.582  0.00  0.00    +0.000 C 
BRANCH  23  24
ATOM     24  O1  UNL     1      30.135 -10.431 -39.852  0.00  0.00    +0.000 OA
ATOM     25  H1  UNL     1      30.489  -9.691 -39.296  0.00  0.00    +0.000 HD
ENDBRANCH  23  24
ENDBRANCH   1  23
TORSDOF 8
ENDMDL
MODEL 7
REMARK VINA RESULT:    -4.260      5.906      7.884
REMARK INTER + INTRA:          -6.313
REMARK INTER:                  -5.495
REMARK INTRA:                  -0.818
REMARK UNBOUND:                -0.683
REMARK  Name = resultss/4CJN/ligands/lig_78_t0.pdb
REMARK  8 active torsions:
REMARK  status: ('A' for Active; 'I' for Inactive)
REMARK    1  A    between atoms: O1_1  and  C1_2
REMARK    2  A    between atoms: C1_2  and  C2_3
REMARK    3  A    between atoms: C2_3  and  O2_4
REMARK    4  A    between atoms: C4_6  and  N1_7
REMARK    5  A    between atoms: N1_7  and  C5_8
REMARK    6  A    between atoms: C11_14  and  O3_15
REMARK    7  A    between atoms: C12_16  and  O4_17
REMARK    8  A    between atoms: C13_18  and  O5_19
REMARK                            x       y       z     vdW  Elec       q    Type
REMARK                         _______ _______ _______ _____ _____    ______ ____
ROOT
ATOM      1  C2  UNL     1      25.305  -9.764 -41.352  0.00  0.00    +0.000 C 
ATOM      2  C3  UNL     1      24.628  -9.165 -40.084  0.00  0.00    +0.000 C 
ATOM      3  C4  UNL     1      24.588  -7.623 -40.102  0.00  0.00    +0.000 C 
ATOM      4  C11 UNL     1      23.885  -7.056 -41.362  0.00  0.00    +0.000 C 
ATOM      5  C12 UNL     1      24.513  -7.625 -42.657  0.00  0.00    +0.000 C 
ATOM      6  C13 UNL     1      24.657  -9.178 -42.648  0.00  0.00    +0.000 C 
ENDROOT
BRANCH   1   7
ATOM      7  O2  UNL     1      25.081 -11.157 -41.361  0.00  0.00    +0.000 OA
ATOM      8  H4  UNL     1      25.652 -11.560 -42.067  0.00  0.00    +0.000 HD
ENDBRANCH   1   7
BRANCH   3   9
ATOM      9  N1  UNL     1      24.107  -7.046 -38.826  0.00  0.00    +0.000 NA
ATOM     10  H8  UNL     1      23.522  -7.752 -38.322  0.00  0.00    +0.000 HD
BRANCH   9  11
ATOM     11  C5  UNL     1      25.109  -6.419 -37.935  0.00  0.00    +0.000 C 
ATOM     12  C6  UNL     1      24.665  -6.612 -36.477  0.00  0.00    +0.000 C 
ATOM     13  C7  UNL     1      24.664  -8.094 -36.054  0.00  0.00    +0.000 C 
ATOM     14  C8  UNL     1      25.804  -8.919 -36.687  0.00  0.00    +0.000 C 
ATOM     15  C9  UNL     1      26.977  -8.039 -37.129  0.00  0.00    +0.000 C 
ATOM     16  C10 UNL     1      26.541  -6.989 -38.170  0.00  0.00    +0.000 C 
ENDBRANCH   9  11
ENDBRANCH   3   9
BRANCH   4  17
ATOM     17  O3  UNL     1      22.490  -7.241 -41.355  0.00  0.00    +0.000 OA
ATOM     18  H21 UNL     1      22.067  -6.439 -40.962  0.00  0.00    +0.000 HD
ENDBRANCH   4  17
BRANCH   5  19
ATOM     19  O4  UNL     1      25.763  -7.018 -42.870  0.00  0.00    +0.000 OA
ATOM     20  H23 UNL     1      26.013  -6.561 -42.024  0.00  0.00    +0.000 HD
ENDBRANCH   5  19
BRANCH   6  21
ATOM     21  O5  UNL     1      23.397  -9.771 -42.843  0.00  0.00    +0.000 OA
ATOM     22  H25 UNL     1      22.838  -9.116 -43.339  0.00  0.00    +0.000 HD
ENDBRANCH   6  21
BRANCH   1  23
ATOM     23  C1  UNL     1      26.842  -9.530 -41.328  0.00  0.00    +0.000 C 
BRANCH  23  24
ATOM     24  O1  UNL     1      27.359  -9.560 -42.631  0.00  0.00    +0.000 OA
ATOM     25  H1  UNL     1      26.584  -9.445 -43.240  0.00  0.00    +0.000 HD
ENDBRANCH  23  24
ENDBRANCH   1  23
TORSDOF 8
ENDMDL
MODEL 8
REMARK VINA RESULT:    -4.054      1.873      3.724
REMARK INTER + INTRA:          -6.040
REMARK INTER:                  -5.378
REMARK INTRA:                  -0.662
REMARK UNBOUND:                -0.683
REMARK  Name = resultss/4CJN/ligands/lig_78_t0.pdb
REMARK  8 active torsions:
REMARK  status: ('A' for Active; 'I' for Inactive)
REMARK    1  A    between atoms: O1_1  and  C1_2
REMARK    2  A    between atoms: C1_2  and  C2_3
REMARK    3  A    between atoms: C2_3  and  O2_4
REMARK    4  A    between atoms: C4_6  and  N1_7
REMARK    5  A    between atoms: N1_7  and  C5_8
REMARK    6  A    between atoms: C11_14  and  O3_15
REMARK    7  A    between atoms: C12_16  and  O4_17
REMARK    8  A    between atoms: C13_18  and  O5_19
REMARK                            x       y       z     vdW  Elec       q    Type
REMARK                         _______ _______ _______ _____ _____    ______ ____
ROOT
ATOM      1  C2  UNL     1      23.884  -6.656 -34.349  0.00  0.00    +0.000 C 
ATOM      2  C3  UNL     1      25.316  -6.811 -34.939  0.00  0.00    +0.000 C 
ATOM      3  C4  UNL     1      26.168  -7.846 -34.175  0.00  0.00    +0.000 C 
ATOM      4  C11 UNL     1      25.497  -9.243 -34.110  0.00  0.00    +0.000 C 
ATOM      5  C12 UNL     1      24.063  -9.150 -33.538  0.00  0.00    +0.000 C 
ATOM      6  C13 UNL     1      23.191  -8.051 -34.220  0.00  0.00    +0.000 C 
ENDROOT
BRANCH   1   7
ATOM      7  O2  UNL     1      23.115  -5.883 -35.244  0.00  0.00    +0.000 OA
ATOM      8  H4  UNL     1      23.735  -5.404 -35.856  0.00  0.00    +0.000 HD
ENDBRANCH   1   7
BRANCH   3   9
ATOM      9  N1  UNL     1      27.579  -7.869 -34.618  0.00  0.00    +0.000 NA
ATOM     10  H8  UNL     1      27.631  -7.624 -35.634  0.00  0.00    +0.000 HD
BRANCH   9  11
ATOM     11  C5  UNL     1      28.564  -7.110 -33.815  0.00  0.00    +0.000 C 
ATOM     12  C6  UNL     1      28.660  -7.745 -32.419  0.00  0.00    +0.000 C 
ATOM     13  C7  UNL     1      29.235  -9.175 -32.462  0.00  0.00    +0.000 C 
ATOM     14  C8  UNL     1      30.324  -9.371 -33.536  0.00  0.00    +0.000 C 
ATOM     15  C9  UNL     1      30.986  -8.050 -33.937  0.00  0.00    +0.000 C 
ATOM     16  C10 UNL     1      29.961  -7.048 -34.505  0.00  0.00    +0.000 C 
ENDBRANCH   9  11
ENDBRANCH   3   9
BRANCH   4  17
ATOM     17  O3  UNL     1      25.505  -9.923 -35.342  0.00  0.00    +0.000 OA
ATOM     18  H21 UNL     1      25.996 -10.774 -35.230  0.00  0.00    +0.000 HD
ENDBRANCH   4  17
BRANCH   5  19
ATOM     19  O4  UNL     1      24.132  -8.929 -32.152  0.00  0.00    +0.000 OA
ATOM     20  H23 UNL     1      23.226  -9.104 -31.783  0.00  0.00    +0.000 HD
ENDBRANCH   5  19
BRANCH   6  21
ATOM     21  O5  UNL     1      22.793  -8.489 -35.497  0.00  0.00    +0.000 OA
ATOM     22  H25 UNL     1      21.801  -8.540 -35.494  0.00  0.00    +0.000 HD
ENDBRANCH   6  21
BRANCH   1  23
ATOM     23  C1  UNL     1      23.919  -5.910 -32.985  0.00  0.00    +0.000 C 
BRANCH  23  24
ATOM     24  O1  UNL     1      22.806  -6.264 -32.209  0.00  0.00    +0.000 OA
ATOM     25  H1  UNL     1      22.683  -7.241 -32.330  0.00  0.00    +0.000 HD
ENDBRANCH  23  24
ENDBRANCH   1  23
TORSDOF 8
ENDMDL
MODEL 9
REMARK VINA RESULT:    -4.024      3.874      6.029
REMARK INTER + INTRA:          -6.000
REMARK INTER:                  -5.585
REMARK INTRA:                  -0.415
REMARK UNBOUND:                -0.683
REMARK  Name = resultss/4CJN/ligands/lig_78_t0.pdb
REMARK  8 active torsions:
REMARK  status: ('A' for Active; 'I' for Inactive)
REMARK    1  A    between atoms: O1_1  and  C1_2
REMARK    2  A    between atoms: C1_2  and  C2_3
REMARK    3  A    between atoms: C2_3  and  O2_4
REMARK    4  A    between atoms: C4_6  and  N1_7
REMARK    5  A    between atoms: N1_7  and  C5_8
REMARK    6  A    between atoms: C11_14  and  O3_15
REMARK    7  A    between atoms: C12_16  and  O4_17
REMARK    8  A    between atoms: C13_18  and  O5_19
REMARK                            x       y       z     vdW  Elec       q    Type
REMARK                         _______ _______ _______ _____ _____    ______ ____
ROOT
ATOM      1  C2  UNL     1      26.515  -8.788 -40.444  0.00  0.00    +0.000 C 
ATOM      2  C3  UNL     1      26.607  -8.193 -39.009  0.00  0.00    +0.000 C 
ATOM      3  C4  UNL     1      27.140  -9.207 -37.976  0.00  0.00    +0.000 C 
ATOM      4  C11 UNL     1      28.522  -9.791 -38.367  0.00  0.00    +0.000 C 
ATOM      5  C12 UNL     1      28.493 -10.391 -39.793  0.00  0.00    +0.000 C 
ATOM      6  C13 UNL     1      27.878  -9.433 -40.858  0.00  0.00    +0.000 C 
ENDROOT
BRANCH   1   7
ATOM      7  O2  UNL     1      26.255  -7.736 -41.347  0.00  0.00    +0.000 OA
ATOM      8  H4  UNL     1      25.290  -7.763 -41.587  0.00  0.00    +0.000 HD
ENDBRANCH   1   7
BRANCH   3   9
ATOM      9  N1  UNL     1      27.063  -8.706 -36.586  0.00  0.00    +0.000 NA
ATOM     10  H8  UNL     1      26.533  -7.804 -36.568  0.00  0.00    +0.000 HD
BRANCH   9  11
ATOM     11  C5  UNL     1      26.593  -9.645 -35.541  0.00  0.00    +0.000 C 
ATOM     12  C6  UNL     1      27.775  -9.997 -34.625  0.00  0.00    +0.000 C 
ATOM     13  C7  UNL     1      28.286  -8.779 -33.830  0.00  0.00    +0.000 C 
ATOM     14  C8  UNL     1      27.168  -7.807 -33.401  0.00  0.00    +0.000 C 
ATOM     15  C9  UNL     1      25.797  -8.488 -33.353  0.00  0.00    +0.000 C 
ATOM     16  C10 UNL     1      25.399  -9.064 -34.726  0.00  0.00    +0.000 C 
ENDBRANCH   9  11
ENDBRANCH   3   9
BRANCH   4  17
ATOM     17  O3  UNL     1      29.577  -8.869 -38.229  0.00  0.00    +0.000 OA
ATOM     18  H21 UNL     1      29.217  -8.033 -37.844  0.00  0.00    +0.000 HD
ENDBRANCH   4  17
BRANCH   5  19
ATOM     19  O4  UNL     1      27.794 -11.610 -39.768  0.00  0.00    +0.000 OA
ATOM     20  H23 UNL     1      27.510 -11.763 -38.828  0.00  0.00    +0.000 HD
ENDBRANCH   5  19
BRANCH   6  21
ATOM     21  O5  UNL     1      28.797  -8.413 -41.165  0.00  0.00    +0.000 OA
ATOM     22  H25 UNL     1      29.194  -8.108 -40.307  0.00  0.00    +0.000 HD
ENDBRANCH   6  21
BRANCH   1  23
ATOM     23  C1  UNL     1      25.347  -9.808 -40.553  0.00  0.00    +0.000 C 
BRANCH  23  24
ATOM     24  O1  UNL     1      24.196  -9.296 -39.937  0.00  0.00    +0.000 OA
ATOM     25  H1  UNL     1      23.700  -8.804 -40.641  0.00  0.00    +0.000 HD
ENDBRANCH  23  24
ENDBRANCH   1  23
TORSDOF 8
ENDMDL
