MODEL 1
REMARK VINA RESULT:    -7.505      0.000      0.000
REMARK INTER + INTRA:         -13.304
REMARK INTER:                 -11.673
REMARK INTRA:                  -1.631
REMARK UNBOUND:                -1.631
REMARK  Name = resultss/4CJN/ligands/lig_348_t1.pdb
REMARK  10 active torsions:
REMARK  status: ('A' for Active; 'I' for Inactive)
REMARK    1  A    between atoms: O1_1  and  C1_2
REMARK    2  A    between atoms: C1_2  and  C2_3
REMARK    3  A    between atoms: C2_3  and  N1_4
REMARK    4  A    between atoms: C4_6  and  C5_7
REMARK    5  A    between atoms: C5_7  and  O2_8
REMARK    6  A    between atoms: O2_8  and  C6_9
REMARK    7  A    between atoms: C9_12  and  C10_13
REMARK    8  A    between atoms: N3_23  and  N4_24
REMARK    9  A    between atoms: N4_24  and  C18_25
REMARK   10  A    between atoms: N7_35  and  C26_36
REMARK                            x       y       z     vdW  Elec       q    Type
REMARK                         _______ _______ _______ _____ _____    ______ ____
ROOT
ATOM      1  C6  UNL     1      27.019  -9.089 -38.840  0.00  0.00    +0.000 A 
ATOM      2  C7  UNL     1      27.250  -9.683 -37.594  0.00  0.00    +0.000 A 
ATOM      3  C8  UNL     1      27.697  -8.920 -36.514  0.00  0.00    +0.000 A 
ATOM      4  C9  UNL     1      27.884  -7.529 -36.651  0.00  0.00    +0.000 A 
ATOM      5  C24 UNL     1      27.637  -6.931 -37.897  0.00  0.00    +0.000 A 
ATOM      6  C25 UNL     1      27.205  -7.700 -38.981  0.00  0.00    +0.000 A 
ENDROOT
BRANCH   4   7
ATOM      7  C10 UNL     1      28.437  -6.682 -35.521  0.00  0.00    +0.000 C 
ATOM      8  N2  UNL     1      29.857  -6.996 -35.339  0.00  0.00    +0.000 N 
ATOM      9  C11 UNL     1      30.294  -8.029 -34.449  0.00  0.00    +0.000 A 
ATOM     10  C12 UNL     1      31.566  -8.599 -34.595  0.00  0.00    +0.000 A 
ATOM     11  C13 UNL     1      31.982  -9.613 -33.730  0.00  0.00    +0.000 A 
ATOM     12  C14 UNL     1      31.136 -10.052 -32.708  0.00  0.00    +0.000 A 
ATOM     13  C15 UNL     1      29.875  -9.477 -32.546  0.00  0.00    +0.000 A 
ATOM     14  C16 UNL     1      29.447  -8.463 -33.421  0.00  0.00    +0.000 A 
ATOM     15  C17 UNL     1      28.126  -7.823 -33.280  0.00  0.00    +0.000 C 
ATOM     16  O3  UNL     1      27.397  -8.104 -32.289  0.00  0.00    +0.000 OA
ATOM     17  N3  UNL     1      27.670  -6.872 -34.270  0.00  0.00    +0.000 N 
ATOM     18  H10 UNL     1      30.537  -6.598 -36.026  0.00  0.00    +0.000 HD
BRANCH  17  19
ATOM     19  N4  UNL     1      26.421  -6.233 -34.085  0.00  0.00    +0.000 N 
ATOM     20  H15 UNL     1      26.380  -5.186 -34.060  0.00  0.00    +0.000 HD
BRANCH  19  21
ATOM     21  C18 UNL     1      25.175  -6.897 -34.331  0.00  0.00    +0.000 A 
ATOM     22  C19 UNL     1      24.681  -6.971 -35.642  0.00  0.00    +0.000 A 
ATOM     23  C20 UNL     1      23.459  -7.599 -35.900  0.00  0.00    +0.000 A 
ATOM     24  C21 UNL     1      22.719  -8.146 -34.845  0.00  0.00    +0.000 A 
ATOM     25  C22 UNL     1      23.197  -8.059 -33.532  0.00  0.00    +0.000 A 
ATOM     26  C23 UNL     1      24.418  -7.427 -33.272  0.00  0.00    +0.000 A 
ENDBRANCH  19  21
ENDBRANCH  17  19
ENDBRANCH   4   7
BRANCH   1  27
ATOM     27  O2  UNL     1      26.618  -9.911 -39.903  0.00  0.00    +0.000 OA
BRANCH  27  28
ATOM     28  C5  UNL     1      27.357 -11.028 -40.396  0.00  0.00    +0.000 C 
BRANCH  28  31
ATOM     29  N1  UNL     1      30.517  -9.948 -41.809  0.00  0.00    +0.000 N 
ATOM     30  C3  UNL     1      29.847 -10.605 -40.848  0.00  0.00    +0.000 A 
ATOM     31  C4  UNL     1      28.519 -10.554 -41.209  0.00  0.00    +0.000 A 
ATOM     32  N5  UNL     1      28.416  -9.868 -42.366  0.00  0.00    +0.000 NA
ATOM     33  N6  UNL     1      29.649  -9.522 -42.713  0.00  0.00    +0.000 NA
BRANCH  29  34
ATOM     34  C2  UNL     1      31.959  -9.756 -41.898  0.00  0.00    +0.000 C 
BRANCH  34  35
ATOM     35  C1  UNL     1      32.565 -10.871 -42.686  0.00  0.00    +0.000 C 
ATOM     36  N7  UNL     1      32.461 -10.860 -43.984  0.00  0.00    +0.000 NA
BRANCH  36  37
ATOM     37  C26 UNL     1      32.855 -11.903 -44.888  0.00  0.00    +0.000 A 
ATOM     38  C27 UNL     1      32.173 -13.131 -44.937  0.00  0.00    +0.000 A 
ATOM     39  C28 UNL     1      32.570 -14.121 -45.840  0.00  0.00    +0.000 A 
ATOM     40  C29 UNL     1      33.623 -13.879 -46.726  0.00  0.00    +0.000 A 
ATOM     41 BR1  UNL     1      34.178 -15.246 -47.941  0.00  0.00    +0.000 Br
ATOM     42  C30 UNL     1      34.267 -12.640 -46.722  0.00  0.00    +0.000 A 
ATOM     43  C31 UNL     1      33.877 -11.651 -45.815  0.00  0.00    +0.000 A 
ENDBRANCH  36  37
BRANCH  35  44
ATOM     44  O1  UNL     1      33.234 -11.886 -41.995  0.00  0.00    +0.000 OA
ATOM     45  H1  UNL     1      33.612 -12.707 -42.448  0.00  0.00    +0.000 HD
ENDBRANCH  35  44
ENDBRANCH  34  35
ENDBRANCH  29  34
ENDBRANCH  28  31
ENDBRANCH  27  28
ENDBRANCH   1  27
TORSDOF 10
ENDMDL
MODEL 2
REMARK VINA RESULT:    -7.362      1.713      2.141
REMARK INTER + INTRA:         -13.081
REMARK INTER:                 -11.543
REMARK INTRA:                  -1.538
REMARK UNBOUND:                -1.631
REMARK  Name = resultss/4CJN/ligands/lig_348_t1.pdb
REMARK  10 active torsions:
REMARK  status: ('A' for Active; 'I' for Inactive)
REMARK    1  A    between atoms: O1_1  and  C1_2
REMARK    2  A    between atoms: C1_2  and  C2_3
REMARK    3  A    between atoms: C2_3  and  N1_4
REMARK    4  A    between atoms: C4_6  and  C5_7
REMARK    5  A    between atoms: C5_7  and  O2_8
REMARK    6  A    between atoms: O2_8  and  C6_9
REMARK    7  A    between atoms: C9_12  and  C10_13
REMARK    8  A    between atoms: N3_23  and  N4_24
REMARK    9  A    between atoms: N4_24  and  C18_25
REMARK   10  A    between atoms: N7_35  and  C26_36
REMARK                            x       y       z     vdW  Elec       q    Type
REMARK                         _______ _______ _______ _____ _____    ______ ____
ROOT
ATOM      1  C6  UNL     1      26.788  -7.757 -41.067  0.00  0.00    +0.000 A 
ATOM      2  C7  UNL     1      25.757  -8.257 -40.264  0.00  0.00    +0.000 A 
ATOM      3  C8  UNL     1      25.766  -8.046 -38.884  0.00  0.00    +0.000 A 
ATOM      4  C9  UNL     1      26.793  -7.290 -38.283  0.00  0.00    +0.000 A 
ATOM      5  C24 UNL     1      27.819  -6.776 -39.093  0.00  0.00    +0.000 A 
ATOM      6  C25 UNL     1      27.816  -7.001 -40.472  0.00  0.00    +0.000 A 
ENDROOT
BRANCH   4   7
ATOM      7  C10 UNL     1      26.874  -7.102 -36.781  0.00  0.00    +0.000 C 
ATOM      8  N2  UNL     1      28.218  -6.630 -36.430  0.00  0.00    +0.000 N 
ATOM      9  C11 UNL     1      29.283  -7.537 -36.127  0.00  0.00    +0.000 A 
ATOM     10  C12 UNL     1      30.617  -7.118 -36.215  0.00  0.00    +0.000 A 
ATOM     11  C13 UNL     1      31.652  -8.010 -35.928  0.00  0.00    +0.000 A 
ATOM     12  C14 UNL     1      31.358  -9.320 -35.539  0.00  0.00    +0.000 A 
ATOM     13  C15 UNL     1      30.031  -9.739 -35.433  0.00  0.00    +0.000 A 
ATOM     14  C16 UNL     1      28.986  -8.847 -35.731  0.00  0.00    +0.000 A 
ATOM     15  C17 UNL     1      27.571  -9.247 -35.623  0.00  0.00    +0.000 C 
ATOM     16  O3  UNL     1      27.274 -10.378 -35.148  0.00  0.00    +0.000 OA
ATOM     17  N3  UNL     1      26.526  -8.344 -36.055  0.00  0.00    +0.000 N 
ATOM     18  H10 UNL     1      28.443  -5.625 -36.610  0.00  0.00    +0.000 HD
BRANCH  17  19
ATOM     19  N4  UNL     1      25.174  -8.730 -35.894  0.00  0.00    +0.000 N 
ATOM     20  H15 UNL     1      24.812  -9.558 -36.424  0.00  0.00    +0.000 HD
BRANCH  19  21
ATOM     21  C18 UNL     1      24.387  -8.320 -34.769  0.00  0.00    +0.000 A 
ATOM     22  C19 UNL     1      24.342  -9.133 -33.627  0.00  0.00    +0.000 A 
ATOM     23  C20 UNL     1      23.566  -8.759 -32.526  0.00  0.00    +0.000 A 
ATOM     24  C21 UNL     1      22.820  -7.575 -32.568  0.00  0.00    +0.000 A 
ATOM     25  C22 UNL     1      22.844  -6.769 -33.712  0.00  0.00    +0.000 A 
ATOM     26  C23 UNL     1      23.618  -7.145 -34.817  0.00  0.00    +0.000 A 
ENDBRANCH  19  21
ENDBRANCH  17  19
ENDBRANCH   4   7
BRANCH   1  27
ATOM     27  O2  UNL     1      26.754  -8.040 -42.442  0.00  0.00    +0.000 OA
BRANCH  27  28
ATOM     28  C5  UNL     1      27.171  -9.270 -43.032  0.00  0.00    +0.000 C 
BRANCH  28  31
ATOM     29  N1  UNL     1      30.559 -10.075 -42.023  0.00  0.00    +0.000 N 
ATOM     30  C3  UNL     1      29.719  -9.298 -42.725  0.00  0.00    +0.000 A 
ATOM     31  C4  UNL     1      28.450  -9.730 -42.408  0.00  0.00    +0.000 A 
ATOM     32  N5  UNL     1      28.552 -10.751 -41.534  0.00  0.00    +0.000 NA
ATOM     33  N6  UNL     1      29.846 -10.931 -41.309  0.00  0.00    +0.000 NA
BRANCH  29  34
ATOM     34  C2  UNL     1      32.014  -9.987 -41.992  0.00  0.00    +0.000 C 
BRANCH  34  35
ATOM     35  C1  UNL     1      32.599 -11.108 -42.787  0.00  0.00    +0.000 C 
ATOM     36  N7  UNL     1      32.531 -11.067 -44.088  0.00  0.00    +0.000 NA
BRANCH  36  37
ATOM     37  C26 UNL     1      32.911 -12.106 -45.003  0.00  0.00    +0.000 A 
ATOM     38  C27 UNL     1      32.156 -13.284 -45.133  0.00  0.00    +0.000 A 
ATOM     39  C28 UNL     1      32.541 -14.270 -46.045  0.00  0.00    +0.000 A 
ATOM     40  C29 UNL     1      33.658 -14.071 -46.861  0.00  0.00    +0.000 A 
ATOM     41 BR1  UNL     1      34.196 -15.434 -48.088  0.00  0.00    +0.000 Br
ATOM     42  C30 UNL     1      34.379 -12.878 -46.778  0.00  0.00    +0.000 A 
ATOM     43  C31 UNL     1      33.999 -11.893 -45.861  0.00  0.00    +0.000 A 
ENDBRANCH  36  37
BRANCH  35  44
ATOM     44  O1  UNL     1      33.211 -12.162 -42.101  0.00  0.00    +0.000 OA
ATOM     45  H1  UNL     1      34.148 -12.108 -41.728  0.00  0.00    +0.000 HD
ENDBRANCH  35  44
ENDBRANCH  34  35
ENDBRANCH  29  34
ENDBRANCH  28  31
ENDBRANCH  27  28
ENDBRANCH   1  27
TORSDOF 10
ENDMDL
MODEL 3
REMARK VINA RESULT:    -7.146      5.481      8.352
REMARK INTER + INTRA:         -12.745
REMARK INTER:                 -10.978
REMARK INTRA:                  -1.767
REMARK UNBOUND:                -1.631
REMARK  Name = resultss/4CJN/ligands/lig_348_t1.pdb
REMARK  10 active torsions:
REMARK  status: ('A' for Active; 'I' for Inactive)
REMARK    1  A    between atoms: O1_1  and  C1_2
REMARK    2  A    between atoms: C1_2  and  C2_3
REMARK    3  A    between atoms: C2_3  and  N1_4
REMARK    4  A    between atoms: C4_6  and  C5_7
REMARK    5  A    between atoms: C5_7  and  O2_8
REMARK    6  A    between atoms: O2_8  and  C6_9
REMARK    7  A    between atoms: C9_12  and  C10_13
REMARK    8  A    between atoms: N3_23  and  N4_24
REMARK    9  A    between atoms: N4_24  and  C18_25
REMARK   10  A    between atoms: N7_35  and  C26_36
REMARK                            x       y       z     vdW  Elec       q    Type
REMARK                         _______ _______ _______ _____ _____    ______ ____
ROOT
ATOM      1  C6  UNL     1      27.393  -9.210 -38.838  0.00  0.00    +0.000 A 
ATOM      2  C7  UNL     1      26.489  -8.431 -38.108  0.00  0.00    +0.000 A 
ATOM      3  C8  UNL     1      26.323  -8.634 -36.736  0.00  0.00    +0.000 A 
ATOM      4  C9  UNL     1      27.094  -9.598 -36.058  0.00  0.00    +0.000 A 
ATOM      5  C24 UNL     1      28.012 -10.369 -36.789  0.00  0.00    +0.000 A 
ATOM      6  C25 UNL     1      28.166 -10.176 -38.164  0.00  0.00    +0.000 A 
ENDROOT
BRANCH   4   7
ATOM      7  C10 UNL     1      26.888  -9.895 -34.584  0.00  0.00    +0.000 C 
ATOM      8  N2  UNL     1      25.452  -9.882 -34.290  0.00  0.00    +0.000 N 
ATOM      9  C11 UNL     1      24.772  -8.686 -33.892  0.00  0.00    +0.000 A 
ATOM     10  C12 UNL     1      23.381  -8.583 -34.028  0.00  0.00    +0.000 A 
ATOM     11  C13 UNL     1      22.726  -7.410 -33.647  0.00  0.00    +0.000 A 
ATOM     12  C14 UNL     1      23.454  -6.342 -33.118  0.00  0.00    +0.000 A 
ATOM     13  C15 UNL     1      24.838  -6.444 -32.964  0.00  0.00    +0.000 A 
ATOM     14  C16 UNL     1      25.504  -7.619 -33.355  0.00  0.00    +0.000 A 
ATOM     15  C17 UNL     1      26.963  -7.771 -33.202  0.00  0.00    +0.000 C 
ATOM     16  O3  UNL     1      27.626  -6.878 -32.606  0.00  0.00    +0.000 OA
ATOM     17  N3  UNL     1      27.629  -8.943 -33.727  0.00  0.00    +0.000 N 
ATOM     18  H10 UNL     1      24.888 -10.713 -34.578  0.00  0.00    +0.000 HD
BRANCH  17  19
ATOM     19  N4  UNL     1      29.022  -9.090 -33.523  0.00  0.00    +0.000 N 
ATOM     20  H15 UNL     1      29.364  -9.748 -32.782  0.00  0.00    +0.000 HD
BRANCH  19  21
ATOM     21  C18 UNL     1      29.988  -8.715 -34.513  0.00  0.00    +0.000 A 
ATOM     22  C19 UNL     1      29.835  -7.501 -35.199  0.00  0.00    +0.000 A 
ATOM     23  C20 UNL     1      30.757  -7.126 -36.180  0.00  0.00    +0.000 A 
ATOM     24  C21 UNL     1      31.830  -7.969 -36.489  0.00  0.00    +0.000 A 
ATOM     25  C22 UNL     1      31.978  -9.191 -35.822  0.00  0.00    +0.000 A 
ATOM     26  C23 UNL     1      31.053  -9.570 -34.842  0.00  0.00    +0.000 A 
ENDBRANCH  19  21
ENDBRANCH  17  19
ENDBRANCH   4   7
BRANCH   1  27
ATOM     27  O2  UNL     1      27.485  -8.998 -40.222  0.00  0.00    +0.000 OA
BRANCH  27  28
ATOM     28  C5  UNL     1      27.210  -9.982 -41.219  0.00  0.00    +0.000 C 
BRANCH  28  31
ATOM     29  N1  UNL     1      25.406  -8.076 -43.721  0.00  0.00    +0.000 N 
ATOM     30  C3  UNL     1      26.537  -8.292 -43.030  0.00  0.00    +0.000 A 
ATOM     31  C4  UNL     1      26.302  -9.412 -42.262  0.00  0.00    +0.000 A 
ATOM     32  N5  UNL     1      25.046  -9.839 -42.500  0.00  0.00    +0.000 NA
ATOM     33  N6  UNL     1      24.529  -9.013 -43.401  0.00  0.00    +0.000 NA
BRANCH  29  34
ATOM     34  C2  UNL     1      25.166  -7.023 -44.700  0.00  0.00    +0.000 C 
BRANCH  34  35
ATOM     35  C1  UNL     1      23.773  -7.139 -45.228  0.00  0.00    +0.000 C 
ATOM     36  N7  UNL     1      22.846  -6.357 -44.751  0.00  0.00    +0.000 NA
BRANCH  36  37
ATOM     37  C26 UNL     1      21.440  -6.417 -45.034  0.00  0.00    +0.000 A 
ATOM     38  C27 UNL     1      20.500  -6.716 -44.033  0.00  0.00    +0.000 A 
ATOM     39  C28 UNL     1      19.137  -6.749 -44.336  0.00  0.00    +0.000 A 
ATOM     40  C29 UNL     1      18.698  -6.446 -45.628  0.00  0.00    +0.000 A 
ATOM     41 BR1  UNL     1      16.834  -6.519 -46.043  0.00  0.00    +0.000 Br
ATOM     42  C30 UNL     1      19.623  -6.092 -46.613  0.00  0.00    +0.000 A 
ATOM     43  C31 UNL     1      20.988  -6.065 -46.314  0.00  0.00    +0.000 A 
ENDBRANCH  36  37
BRANCH  35  44
ATOM     44  O1  UNL     1      23.518  -8.082 -46.228  0.00  0.00    +0.000 OA
ATOM     45  H1  UNL     1      23.132  -8.997 -46.040  0.00  0.00    +0.000 HD
ENDBRANCH  35  44
ENDBRANCH  34  35
ENDBRANCH  29  34
ENDBRANCH  28  31
ENDBRANCH  27  28
ENDBRANCH   1  27
TORSDOF 10
ENDMDL
MODEL 4
REMARK VINA RESULT:    -7.035      6.544      8.925
REMARK INTER + INTRA:         -12.572
REMARK INTER:                 -10.321
REMARK INTRA:                  -2.251
REMARK UNBOUND:                -1.631
REMARK  Name = resultss/4CJN/ligands/lig_348_t1.pdb
REMARK  10 active torsions:
REMARK  status: ('A' for Active; 'I' for Inactive)
REMARK    1  A    between atoms: O1_1  and  C1_2
REMARK    2  A    between atoms: C1_2  and  C2_3
REMARK    3  A    between atoms: C2_3  and  N1_4
REMARK    4  A    between atoms: C4_6  and  C5_7
REMARK    5  A    between atoms: C5_7  and  O2_8
REMARK    6  A    between atoms: O2_8  and  C6_9
REMARK    7  A    between atoms: C9_12  and  C10_13
REMARK    8  A    between atoms: N3_23  and  N4_24
REMARK    9  A    between atoms: N4_24  and  C18_25
REMARK   10  A    between atoms: N7_35  and  C26_36
REMARK                            x       y       z     vdW  Elec       q    Type
REMARK                         _______ _______ _______ _____ _____    ______ ____
ROOT
ATOM      1  C6  UNL     1      25.003  -9.173 -40.779  0.00  0.00    +0.000 A 
ATOM      2  C7  UNL     1      25.761 -10.282 -41.168  0.00  0.00    +0.000 A 
ATOM      3  C8  UNL     1      26.962 -10.584 -40.523  0.00  0.00    +0.000 A 
ATOM      4  C9  UNL     1      27.408  -9.799 -39.441  0.00  0.00    +0.000 A 
ATOM      5  C24 UNL     1      26.638  -8.695 -39.040  0.00  0.00    +0.000 A 
ATOM      6  C25 UNL     1      25.445  -8.385 -39.698  0.00  0.00    +0.000 A 
ENDROOT
BRANCH   4   7
ATOM      7  C10 UNL     1      28.741 -10.054 -38.764  0.00  0.00    +0.000 C 
ATOM      8  N2  UNL     1      28.500 -10.537 -37.400  0.00  0.00    +0.000 N 
ATOM      9  C11 UNL     1      28.386  -9.640 -36.290  0.00  0.00    +0.000 A 
ATOM     10  C12 UNL     1      27.750 -10.050 -35.110  0.00  0.00    +0.000 A 
ATOM     11  C13 UNL     1      27.633  -9.168 -34.035  0.00  0.00    +0.000 A 
ATOM     12  C14 UNL     1      28.162  -7.878 -34.127  0.00  0.00    +0.000 A 
ATOM     13  C15 UNL     1      28.812  -7.468 -35.293  0.00  0.00    +0.000 A 
ATOM     14  C16 UNL     1      28.923  -8.350 -36.383  0.00  0.00    +0.000 A 
ATOM     15  C17 UNL     1      29.609  -7.960 -37.628  0.00  0.00    +0.000 C 
ATOM     16  O3  UNL     1      30.211  -6.853 -37.691  0.00  0.00    +0.000 OA
ATOM     17  N3  UNL     1      29.598  -8.847 -38.771  0.00  0.00    +0.000 N 
ATOM     18  H10 UNL     1      28.202 -11.532 -37.281  0.00  0.00    +0.000 HD
BRANCH  17  19
ATOM     19  N4  UNL     1      30.306  -8.473 -39.938  0.00  0.00    +0.000 N 
ATOM     20  H15 UNL     1      31.349  -8.576 -39.959  0.00  0.00    +0.000 HD
BRANCH  19  21
ATOM     21  C18 UNL     1      29.669  -8.345 -41.215  0.00  0.00    +0.000 A 
ATOM     22  C19 UNL     1      29.897  -9.319 -42.200  0.00  0.00    +0.000 A 
ATOM     23  C20 UNL     1      29.299  -9.202 -43.457  0.00  0.00    +0.000 A 
ATOM     24  C21 UNL     1      28.479  -8.104 -43.741  0.00  0.00    +0.000 A 
ATOM     25  C22 UNL     1      28.263  -7.119 -42.771  0.00  0.00    +0.000 A 
ATOM     26  C23 UNL     1      28.864  -7.232 -41.512  0.00  0.00    +0.000 A 
ENDBRANCH  19  21
ENDBRANCH  17  19
ENDBRANCH   4   7
BRANCH   1  27
ATOM     27  O2  UNL     1      23.829  -8.887 -41.494  0.00  0.00    +0.000 OA
BRANCH  27  28
ATOM     28  C5  UNL     1      23.349  -7.576 -41.784  0.00  0.00    +0.000 C 
BRANCH  28  31
ATOM     29  N1  UNL     1      24.604  -6.969 -45.131  0.00  0.00    +0.000 N 
ATOM     30  C3  UNL     1      23.788  -7.650 -44.311  0.00  0.00    +0.000 A 
ATOM     31  C4  UNL     1      23.944  -7.085 -43.065  0.00  0.00    +0.000 A 
ATOM     32  N5  UNL     1      24.847  -6.088 -43.158  0.00  0.00    +0.000 NA
ATOM     33  N6  UNL     1      25.223  -6.033 -44.429  0.00  0.00    +0.000 NA
BRANCH  29  34
ATOM     34  C2  UNL     1      24.772  -7.169 -46.565  0.00  0.00    +0.000 C 
BRANCH  34  35
ATOM     35  C1  UNL     1      23.439  -7.405 -47.197  0.00  0.00    +0.000 C 
ATOM     36  N7  UNL     1      22.556  -6.446 -47.193  0.00  0.00    +0.000 NA
BRANCH  36  37
ATOM     37  C26 UNL     1      21.190  -6.532 -47.625  0.00  0.00    +0.000 A 
ATOM     38  C27 UNL     1      20.849  -6.538 -48.989  0.00  0.00    +0.000 A 
ATOM     39  C28 UNL     1      19.512  -6.641 -49.379  0.00  0.00    +0.000 A 
ATOM     40  C29 UNL     1      18.509  -6.778 -48.415  0.00  0.00    +0.000 A 
ATOM     41 BR1  UNL     1      16.679  -6.892 -48.954  0.00  0.00    +0.000 Br
ATOM     42  C30 UNL     1      18.846  -6.831 -47.061  0.00  0.00    +0.000 A 
ATOM     43  C31 UNL     1      20.184  -6.722 -46.668  0.00  0.00    +0.000 A 
ENDBRANCH  36  37
BRANCH  35  44
ATOM     44  O1  UNL     1      23.191  -8.651 -47.781  0.00  0.00    +0.000 OA
ATOM     45  H1  UNL     1      22.868  -8.761 -48.732  0.00  0.00    +0.000 HD
ENDBRANCH  35  44
ENDBRANCH  34  35
ENDBRANCH  29  34
ENDBRANCH  28  31
ENDBRANCH  27  28
ENDBRANCH   1  27
TORSDOF 10
ENDMDL
MODEL 5
REMARK VINA RESULT:    -6.943      1.374      4.455
REMARK INTER + INTRA:         -12.430
REMARK INTER:                 -11.259
REMARK INTRA:                  -1.171
REMARK UNBOUND:                -1.631
REMARK  Name = resultss/4CJN/ligands/lig_348_t1.pdb
REMARK  10 active torsions:
REMARK  status: ('A' for Active; 'I' for Inactive)
REMARK    1  A    between atoms: O1_1  and  C1_2
REMARK    2  A    between atoms: C1_2  and  C2_3
REMARK    3  A    between atoms: C2_3  and  N1_4
REMARK    4  A    between atoms: C4_6  and  C5_7
REMARK    5  A    between atoms: C5_7  and  O2_8
REMARK    6  A    between atoms: O2_8  and  C6_9
REMARK    7  A    between atoms: C9_12  and  C10_13
REMARK    8  A    between atoms: N3_23  and  N4_24
REMARK    9  A    between atoms: N4_24  and  C18_25
REMARK   10  A    between atoms: N7_35  and  C26_36
REMARK                            x       y       z     vdW  Elec       q    Type
REMARK                         _______ _______ _______ _____ _____    ______ ____
ROOT
ATOM      1  C6  UNL     1      26.942  -9.224 -39.120  0.00  0.00    +0.000 A 
ATOM      2  C7  UNL     1      26.686  -8.094 -38.336  0.00  0.00    +0.000 A 
ATOM      3  C8  UNL     1      26.918  -8.116 -36.960  0.00  0.00    +0.000 A 
ATOM      4  C9  UNL     1      27.453  -9.265 -36.344  0.00  0.00    +0.000 A 
ATOM      5  C24 UNL     1      27.723 -10.394 -37.135  0.00  0.00    +0.000 A 
ATOM      6  C25 UNL     1      27.476 -10.375 -38.510  0.00  0.00    +0.000 A 
ENDROOT
BRANCH   4   7
ATOM      7  C10 UNL     1      27.650  -9.351 -34.843  0.00  0.00    +0.000 C 
ATOM      8  N2  UNL     1      26.387  -9.758 -34.218  0.00  0.00    +0.000 N 
ATOM      9  C11 UNL     1      25.413  -8.801 -33.788  0.00  0.00    +0.000 A 
ATOM     10  C12 UNL     1      24.078  -9.185 -33.599  0.00  0.00    +0.000 A 
ATOM     11  C13 UNL     1      23.131  -8.245 -33.189  0.00  0.00    +0.000 A 
ATOM     12  C14 UNL     1      23.514  -6.921 -32.955  0.00  0.00    +0.000 A 
ATOM     13  C15 UNL     1      24.845  -6.536 -33.126  0.00  0.00    +0.000 A 
ATOM     14  C16 UNL     1      25.801  -7.477 -33.548  0.00  0.00    +0.000 A 
ATOM     15  C17 UNL     1      27.218  -7.113 -33.732  0.00  0.00    +0.000 C 
ATOM     16  O3  UNL     1      27.617  -5.963 -33.401  0.00  0.00    +0.000 OA
ATOM     17  N3  UNL     1      28.148  -8.074 -34.284  0.00  0.00    +0.000 N 
ATOM     18  H10 UNL     1      26.115 -10.766 -34.281  0.00  0.00    +0.000 HD
BRANCH  17  19
ATOM     19  N4  UNL     1      29.513  -7.719 -34.403  0.00  0.00    +0.000 N 
ATOM     20  H15 UNL     1      29.766  -6.726 -34.622  0.00  0.00    +0.000 HD
BRANCH  19  21
ATOM     21  C18 UNL     1      30.566  -8.522 -33.857  0.00  0.00    +0.000 A 
ATOM     22  C19 UNL     1      30.360  -9.196 -32.644  0.00  0.00    +0.000 A 
ATOM     23  C20 UNL     1      31.382  -9.971 -32.086  0.00  0.00    +0.000 A 
ATOM     24  C21 UNL     1      32.619 -10.064 -32.734  0.00  0.00    +0.000 A 
ATOM     25  C22 UNL     1      32.838  -9.379 -33.935  0.00  0.00    +0.000 A 
ATOM     26  C23 UNL     1      31.818  -8.600 -34.492  0.00  0.00    +0.000 A 
ENDBRANCH  19  21
ENDBRANCH  17  19
ENDBRANCH   4   7
BRANCH   1  27
ATOM     27  O2  UNL     1      26.645  -9.162 -40.490  0.00  0.00    +0.000 OA
BRANCH  27  28
ATOM     28  C5  UNL     1      27.441  -9.738 -41.525  0.00  0.00    +0.000 C 
BRANCH  28  31
ATOM     29  N1  UNL     1      30.975  -9.150 -40.972  0.00  0.00    +0.000 N 
ATOM     30  C3  UNL     1      29.955 -10.014 -41.094  0.00  0.00    +0.000 A 
ATOM     31  C4  UNL     1      28.852  -9.255 -41.414  0.00  0.00    +0.000 A 
ATOM     32  N5  UNL     1      29.225  -7.961 -41.472  0.00  0.00    +0.000 NA
ATOM     33  N6  UNL     1      30.525  -7.929 -41.210  0.00  0.00    +0.000 NA
BRANCH  29  34
ATOM     34  C2  UNL     1      32.365  -9.472 -40.674  0.00  0.00    +0.000 C 
BRANCH  34  35
ATOM     35  C1  UNL     1      32.889 -10.424 -41.700  0.00  0.00    +0.000 C 
ATOM     36  N7  UNL     1      32.326 -10.465 -42.874  0.00  0.00    +0.000 NA
BRANCH  36  37
ATOM     37  C26 UNL     1      32.601 -11.400 -43.928  0.00  0.00    +0.000 A 
ATOM     38  C27 UNL     1      33.561 -11.129 -44.919  0.00  0.00    +0.000 A 
ATOM     39  C28 UNL     1      33.819 -12.067 -45.923  0.00  0.00    +0.000 A 
ATOM     40  C29 UNL     1      33.152 -13.295 -45.923  0.00  0.00    +0.000 A 
ATOM     41 BR1  UNL     1      33.490 -14.563 -47.312  0.00  0.00    +0.000 Br
ATOM     42  C30 UNL     1      32.240 -13.593 -44.908  0.00  0.00    +0.000 A 
ATOM     43  C31 UNL     1      31.974 -12.654 -43.907  0.00  0.00    +0.000 A 
ENDBRANCH  36  37
BRANCH  35  44
ATOM     44  O1  UNL     1      33.978 -11.234 -41.361  0.00  0.00    +0.000 OA
ATOM     45  H1  UNL     1      34.020 -11.775 -40.509  0.00  0.00    +0.000 HD
ENDBRANCH  35  44
ENDBRANCH  34  35
ENDBRANCH  29  34
ENDBRANCH  28  31
ENDBRANCH  27  28
ENDBRANCH   1  27
TORSDOF 10
ENDMDL
MODEL 6
REMARK VINA RESULT:    -6.915      3.382      9.587
REMARK INTER + INTRA:         -12.387
REMARK INTER:                  -9.590
REMARK INTRA:                  -2.797
REMARK UNBOUND:                -1.631
REMARK  Name = resultss/4CJN/ligands/lig_348_t1.pdb
REMARK  10 active torsions:
REMARK  status: ('A' for Active; 'I' for Inactive)
REMARK    1  A    between atoms: O1_1  and  C1_2
REMARK    2  A    between atoms: C1_2  and  C2_3
REMARK    3  A    between atoms: C2_3  and  N1_4
REMARK    4  A    between atoms: C4_6  and  C5_7
REMARK    5  A    between atoms: C5_7  and  O2_8
REMARK    6  A    between atoms: O2_8  and  C6_9
REMARK    7  A    between atoms: C9_12  and  C10_13
REMARK    8  A    between atoms: N3_23  and  N4_24
REMARK    9  A    between atoms: N4_24  and  C18_25
REMARK   10  A    between atoms: N7_35  and  C26_36
REMARK                            x       y       z     vdW  Elec       q    Type
REMARK                         _______ _______ _______ _____ _____    ______ ____
ROOT
ATOM      1  C6  UNL     1      26.434  -9.115 -37.855  0.00  0.00    +0.000 A 
ATOM      2  C7  UNL     1      27.232  -9.721 -36.880  0.00  0.00    +0.000 A 
ATOM      3  C8  UNL     1      28.581  -9.985 -37.128  0.00  0.00    +0.000 A 
ATOM      4  C9  UNL     1      29.169  -9.607 -38.352  0.00  0.00    +0.000 A 
ATOM      5  C24 UNL     1      28.369  -8.984 -39.324  0.00  0.00    +0.000 A 
ATOM      6  C25 UNL     1      27.016  -8.736 -39.080  0.00  0.00    +0.000 A 
ENDROOT
BRANCH   4   7
ATOM      7  C10 UNL     1      30.610  -9.942 -38.684  0.00  0.00    +0.000 C 
ATOM      8  N2  UNL     1      31.413  -9.867 -37.459  0.00  0.00    +0.000 N 
ATOM      9  C11 UNL     1      32.048  -8.653 -37.045  0.00  0.00    +0.000 A 
ATOM     10  C12 UNL     1      32.435  -8.476 -35.709  0.00  0.00    +0.000 A 
ATOM     11  C13 UNL     1      33.045  -7.285 -35.309  0.00  0.00    +0.000 A 
ATOM     12  C14 UNL     1      33.283  -6.273 -36.243  0.00  0.00    +0.000 A 
ATOM     13  C15 UNL     1      32.916  -6.450 -37.578  0.00  0.00    +0.000 A 
ATOM     14  C16 UNL     1      32.292  -7.643 -37.984  0.00  0.00    +0.000 A 
ATOM     15  C17 UNL     1      31.895  -7.872 -39.385  0.00  0.00    +0.000 C 
ATOM     16  O3  UNL     1      32.217  -7.034 -40.272  0.00  0.00    +0.000 OA
ATOM     17  N3  UNL     1      31.147  -9.057 -39.743  0.00  0.00    +0.000 N 
ATOM     18  H10 UNL     1      31.342 -10.659 -36.781  0.00  0.00    +0.000 HD
BRANCH  17  19
ATOM     19  N4  UNL     1      30.822  -9.281 -41.102  0.00  0.00    +0.000 N 
ATOM     20  H15 UNL     1      30.364  -8.516 -41.651  0.00  0.00    +0.000 HD
BRANCH  19  21
ATOM     21  C18 UNL     1      31.431 -10.322 -41.876  0.00  0.00    +0.000 A 
ATOM     22  C19 UNL     1      30.620 -11.270 -42.517  0.00  0.00    +0.000 A 
ATOM     23  C20 UNL     1      31.196 -12.302 -43.262  0.00  0.00    +0.000 A 
ATOM     24  C21 UNL     1      32.589 -12.399 -43.359  0.00  0.00    +0.000 A 
ATOM     25  C22 UNL     1      33.406 -11.468 -42.706  0.00  0.00    +0.000 A 
ATOM     26  C23 UNL     1      32.830 -10.436 -41.956  0.00  0.00    +0.000 A 
ENDBRANCH  19  21
ENDBRANCH  17  19
ENDBRANCH   4   7
BRANCH   1  27
ATOM     27  O2  UNL     1      25.074  -8.918 -37.571  0.00  0.00    +0.000 OA
BRANCH  27  28
ATOM     28  C5  UNL     1      24.520  -7.725 -37.017  0.00  0.00    +0.000 C 
BRANCH  28  31
ATOM     29  N1  UNL     1      25.917  -6.968 -33.758  0.00  0.00    +0.000 N 
ATOM     30  C3  UNL     1      25.714  -6.612 -35.037  0.00  0.00    +0.000 A 
ATOM     31  C4  UNL     1      24.917  -7.595 -35.581  0.00  0.00    +0.000 A 
ATOM     32  N5  UNL     1      24.665  -8.516 -34.630  0.00  0.00    +0.000 NA
ATOM     33  N6  UNL     1      25.277  -8.103 -33.528  0.00  0.00    +0.000 NA
BRANCH  29  34
ATOM     34  C2  UNL     1      26.673  -6.230 -32.753  0.00  0.00    +0.000 C 
BRANCH  34  35
ATOM     35  C1  UNL     1      27.779  -7.088 -32.230  0.00  0.00    +0.000 C 
ATOM     36  N7  UNL     1      28.892  -7.168 -32.902  0.00  0.00    +0.000 NA
BRANCH  36  37
ATOM     37  C26 UNL     1      30.001  -8.038 -32.630  0.00  0.00    +0.000 A 
ATOM     38  C27 UNL     1      29.989  -9.388 -33.021  0.00  0.00    +0.000 A 
ATOM     39  C28 UNL     1      31.091 -10.207 -32.757  0.00  0.00    +0.000 A 
ATOM     40  C29 UNL     1      32.226  -9.675 -32.139  0.00  0.00    +0.000 A 
ATOM     41 BR1  UNL     1      33.720 -10.804 -31.757  0.00  0.00    +0.000 Br
ATOM     42  C30 UNL     1      32.266  -8.321 -31.800  0.00  0.00    +0.000 A 
ATOM     43  C31 UNL     1      31.162  -7.502 -32.056  0.00  0.00    +0.000 A 
ENDBRANCH  36  37
BRANCH  35  44
ATOM     44  O1  UNL     1      27.579  -7.768 -31.025  0.00  0.00    +0.000 OA
ATOM     45  H1  UNL     1      27.502  -7.301 -30.132  0.00  0.00    +0.000 HD
ENDBRANCH  35  44
ENDBRANCH  34  35
ENDBRANCH  29  34
ENDBRANCH  28  31
ENDBRANCH  27  28
ENDBRANCH   1  27
TORSDOF 10
ENDMDL
MODEL 7
REMARK VINA RESULT:    -6.806      6.555      9.676
REMARK INTER + INTRA:         -12.217
REMARK INTER:                 -10.958
REMARK INTRA:                  -1.259
REMARK UNBOUND:                -1.631
REMARK  Name = resultss/4CJN/ligands/lig_348_t1.pdb
REMARK  10 active torsions:
REMARK  status: ('A' for Active; 'I' for Inactive)
REMARK    1  A    between atoms: O1_1  and  C1_2
REMARK    2  A    between atoms: C1_2  and  C2_3
REMARK    3  A    between atoms: C2_3  and  N1_4
REMARK    4  A    between atoms: C4_6  and  C5_7
REMARK    5  A    between atoms: C5_7  and  O2_8
REMARK    6  A    between atoms: O2_8  and  C6_9
REMARK    7  A    between atoms: C9_12  and  C10_13
REMARK    8  A    between atoms: N3_23  and  N4_24
REMARK    9  A    between atoms: N4_24  and  C18_25
REMARK   10  A    between atoms: N7_35  and  C26_36
REMARK                            x       y       z     vdW  Elec       q    Type
REMARK                         _______ _______ _______ _____ _____    ______ ____
ROOT
ATOM      1  C6  UNL     1      24.561  -8.871 -41.211  0.00  0.00    +0.000 A 
ATOM      2  C7  UNL     1      25.322  -9.600 -42.131  0.00  0.00    +0.000 A 
ATOM      3  C8  UNL     1      26.539 -10.170 -41.753  0.00  0.00    +0.000 A 
ATOM      4  C9  UNL     1      27.000 -10.055 -40.427  0.00  0.00    +0.000 A 
ATOM      5  C24 UNL     1      26.228  -9.336 -39.500  0.00  0.00    +0.000 A 
ATOM      6  C25 UNL     1      25.018  -8.752 -39.885  0.00  0.00    +0.000 A 
ENDROOT
BRANCH   4   7
ATOM      7  C10 UNL     1      28.350 -10.598 -39.998  0.00  0.00    +0.000 C 
ATOM      8  N2  UNL     1      28.335 -10.828 -38.550  0.00  0.00    +0.000 N 
ATOM      9  C11 UNL     1      28.724  -9.812 -37.619  0.00  0.00    +0.000 A 
ATOM     10  C12 UNL     1      28.312  -9.882 -36.281  0.00  0.00    +0.000 A 
ATOM     11  C13 UNL     1      28.686  -8.883 -35.381  0.00  0.00    +0.000 A 
ATOM     12  C14 UNL     1      29.484  -7.818 -35.809  0.00  0.00    +0.000 A 
ATOM     13  C15 UNL     1      29.912  -7.752 -37.136  0.00  0.00    +0.000 A 
ATOM     14  C16 UNL     1      29.529  -8.750 -38.049  0.00  0.00    +0.000 A 
ATOM     15  C17 UNL     1      29.966  -8.722 -39.457  0.00  0.00    +0.000 C 
ATOM     16  O3  UNL     1      30.793  -7.848 -39.839  0.00  0.00    +0.000 OA
ATOM     17  N3  UNL     1      29.454  -9.696 -40.396  0.00  0.00    +0.000 N 
ATOM     18  H10 UNL     1      27.835 -11.676 -38.196  0.00  0.00    +0.000 HD
BRANCH  17  19
ATOM     19  N4  UNL     1      29.927  -9.681 -41.730  0.00  0.00    +0.000 N 
ATOM     20  H15 UNL     1      29.757  -8.834 -42.323  0.00  0.00    +0.000 HD
BRANCH  19  21
ATOM     21  C18 UNL     1      30.956 -10.565 -42.190  0.00  0.00    +0.000 A 
ATOM     22  C19 UNL     1      30.606 -11.705 -42.929  0.00  0.00    +0.000 A 
ATOM     23  C20 UNL     1      31.594 -12.588 -43.372  0.00  0.00    +0.000 A 
ATOM     24  C21 UNL     1      32.938 -12.343 -43.066  0.00  0.00    +0.000 A 
ATOM     25  C22 UNL     1      33.293 -11.218 -42.312  0.00  0.00    +0.000 A 
ATOM     26  C23 UNL     1      32.304 -10.334 -41.865  0.00  0.00    +0.000 A 
ENDBRANCH  19  21
ENDBRANCH  17  19
ENDBRANCH   4   7
BRANCH   1  27
ATOM     27  O2  UNL     1      23.370  -8.278 -41.658  0.00  0.00    +0.000 OA
BRANCH  27  28
ATOM     28  C5  UNL     1      23.234  -6.911 -42.047  0.00  0.00    +0.000 C 
BRANCH  28  31
ATOM     29  N1  UNL     1      24.619  -6.764 -45.394  0.00  0.00    +0.000 N 
ATOM     30  C3  UNL     1      23.597  -7.077 -44.582  0.00  0.00    +0.000 A 
ATOM     31  C4  UNL     1      23.975  -6.666 -43.323  0.00  0.00    +0.000 A 
ATOM     32  N5  UNL     1      25.207  -6.125 -43.401  0.00  0.00    +0.000 NA
ATOM     33  N6  UNL     1      25.569  -6.188 -44.675  0.00  0.00    +0.000 NA
BRANCH  29  34
ATOM     34  C2  UNL     1      24.687  -6.968 -46.836  0.00  0.00    +0.000 C 
BRANCH  34  35
ATOM     35  C1  UNL     1      23.328  -7.303 -47.358  0.00  0.00    +0.000 C 
ATOM     36  N7  UNL     1      22.420  -6.369 -47.411  0.00  0.00    +0.000 NA
BRANCH  36  37
ATOM     37  C26 UNL     1      21.035  -6.534 -47.750  0.00  0.00    +0.000 A 
ATOM     38  C27 UNL     1      20.598  -6.517 -49.086  0.00  0.00    +0.000 A 
ATOM     39  C28 UNL     1      19.245  -6.697 -49.386  0.00  0.00    +0.000 A 
ATOM     40  C29 UNL     1      18.326  -6.935 -48.360  0.00  0.00    +0.000 A 
ATOM     41 BR1  UNL     1      16.473  -7.155 -48.774  0.00  0.00    +0.000 Br
ATOM     42  C30 UNL     1      18.763  -7.010 -47.036  0.00  0.00    +0.000 A 
ATOM     43  C31 UNL     1      20.115  -6.823 -46.733  0.00  0.00    +0.000 A 
ENDBRANCH  36  37
BRANCH  35  44
ATOM     44  O1  UNL     1      23.082  -8.613 -47.782  0.00  0.00    +0.000 OA
ATOM     45  H1  UNL     1      23.234  -9.422 -47.196  0.00  0.00    +0.000 HD
ENDBRANCH  35  44
ENDBRANCH  34  35
ENDBRANCH  29  34
ENDBRANCH  28  31
ENDBRANCH  27  28
ENDBRANCH   1  27
TORSDOF 10
ENDMDL
MODEL 8
REMARK VINA RESULT:    -6.772      7.533     10.818
REMARK INTER + INTRA:         -12.164
REMARK INTER:                 -11.138
REMARK INTRA:                  -1.026
REMARK UNBOUND:                -1.631
REMARK  Name = resultss/4CJN/ligands/lig_348_t1.pdb
REMARK  10 active torsions:
REMARK  status: ('A' for Active; 'I' for Inactive)
REMARK    1  A    between atoms: O1_1  and  C1_2
REMARK    2  A    between atoms: C1_2  and  C2_3
REMARK    3  A    between atoms: C2_3  and  N1_4
REMARK    4  A    between atoms: C4_6  and  C5_7
REMARK    5  A    between atoms: C5_7  and  O2_8
REMARK    6  A    between atoms: O2_8  and  C6_9
REMARK    7  A    between atoms: C9_12  and  C10_13
REMARK    8  A    between atoms: N3_23  and  N4_24
REMARK    9  A    between atoms: N4_24  and  C18_25
REMARK   10  A    between atoms: N7_35  and  C26_36
REMARK                            x       y       z     vdW  Elec       q    Type
REMARK                         _______ _______ _______ _____ _____    ______ ____
ROOT
ATOM      1  C6  UNL     1      24.390  -7.078 -43.018  0.00  0.00    +0.000 A 
ATOM      2  C7  UNL     1      24.887  -8.382 -42.916  0.00  0.00    +0.000 A 
ATOM      3  C8  UNL     1      25.875  -8.694 -41.980  0.00  0.00    +0.000 A 
ATOM      4  C9  UNL     1      26.356  -7.710 -41.094  0.00  0.00    +0.000 A 
ATOM      5  C24 UNL     1      25.845  -6.405 -41.187  0.00  0.00    +0.000 A 
ATOM      6  C25 UNL     1      24.868  -6.091 -42.136  0.00  0.00    +0.000 A 
ENDROOT
BRANCH   4   7
ATOM      7  C10 UNL     1      27.478  -7.995 -40.114  0.00  0.00    +0.000 C 
ATOM      8  N2  UNL     1      28.758  -7.958 -40.829  0.00  0.00    +0.000 N 
ATOM      9  C11 UNL     1      29.320  -9.127 -41.434  0.00  0.00    +0.000 A 
ATOM     10  C12 UNL     1      30.283  -9.009 -42.446  0.00  0.00    +0.000 A 
ATOM     11  C13 UNL     1      30.820 -10.153 -43.038  0.00  0.00    +0.000 A 
ATOM     12  C14 UNL     1      30.408 -11.419 -42.615  0.00  0.00    +0.000 A 
ATOM     13  C15 UNL     1      29.462 -11.545 -41.596  0.00  0.00    +0.000 A 
ATOM     14  C16 UNL     1      28.911 -10.396 -41.003  0.00  0.00    +0.000 A 
ATOM     15  C17 UNL     1      27.916 -10.484 -39.918  0.00  0.00    +0.000 C 
ATOM     16  O3  UNL     1      27.625 -11.609 -39.425  0.00  0.00    +0.000 OA
ATOM     17  N3  UNL     1      27.280  -9.285 -39.417  0.00  0.00    +0.000 N 
ATOM     18  H10 UNL     1      29.153  -7.021 -41.073  0.00  0.00    +0.000 HD
BRANCH  17  19
ATOM     19  N4  UNL     1      26.366  -9.390 -38.341  0.00  0.00    +0.000 N 
ATOM     20  H15 UNL     1      25.388  -9.715 -38.531  0.00  0.00    +0.000 HD
BRANCH  19  21
ATOM     21  C18 UNL     1      26.793  -9.469 -36.976  0.00  0.00    +0.000 A 
ATOM     22  C19 UNL     1      28.152  -9.670 -36.689  0.00  0.00    +0.000 A 
ATOM     23  C20 UNL     1      28.585  -9.767 -35.363  0.00  0.00    +0.000 A 
ATOM     24  C21 UNL     1      27.658  -9.677 -34.318  0.00  0.00    +0.000 A 
ATOM     25  C22 UNL     1      26.299  -9.496 -34.597  0.00  0.00    +0.000 A 
ATOM     26  C23 UNL     1      25.863  -9.402 -35.924  0.00  0.00    +0.000 A 
ENDBRANCH  19  21
ENDBRANCH  17  19
ENDBRANCH   4   7
BRANCH   1  27
ATOM     27  O2  UNL     1      23.434  -6.809 -44.010  0.00  0.00    +0.000 OA
BRANCH  27  28
ATOM     28  C5  UNL     1      23.695  -6.118 -45.230  0.00  0.00    +0.000 C 
BRANCH  28  31
ATOM     29  N1  UNL     1      20.996  -7.024 -47.475  0.00  0.00    +0.000 N 
ATOM     30  C3  UNL     1      21.465  -6.235 -46.495  0.00  0.00    +0.000 A 
ATOM     31  C4  UNL     1      22.777  -6.609 -46.304  0.00  0.00    +0.000 A 
ATOM     32  N5  UNL     1      23.066  -7.609 -47.160  0.00  0.00    +0.000 NA
ATOM     33  N6  UNL     1      21.967  -7.833 -47.868  0.00  0.00    +0.000 NA
BRANCH  29  34
ATOM     34  C2  UNL     1      19.662  -6.992 -48.062  0.00  0.00    +0.000 C 
BRANCH  34  35
ATOM     35  C1  UNL     1      18.647  -7.316 -47.015  0.00  0.00    +0.000 C 
ATOM     36  N7  UNL     1      18.108  -6.347 -46.331  0.00  0.00    +0.000 NA
BRANCH  36  37
ATOM     37  C26 UNL     1      17.227  -6.474 -45.205  0.00  0.00    +0.000 A 
ATOM     38  C27 UNL     1      15.832  -6.542 -45.367  0.00  0.00    +0.000 A 
ATOM     39  C28 UNL     1      15.001  -6.684 -44.252  0.00  0.00    +0.000 A 
ATOM     40  C29 UNL     1      15.555  -6.799 -42.975  0.00  0.00    +0.000 A 
ATOM     41 BR1  UNL     1      14.413  -6.967 -41.452  0.00  0.00    +0.000 Br
ATOM     42  C30 UNL     1      16.943  -6.790 -42.813  0.00  0.00    +0.000 A 
ATOM     43  C31 UNL     1      17.776  -6.642 -43.926  0.00  0.00    +0.000 A 
ENDBRANCH  36  37
BRANCH  35  44
ATOM     44  O1  UNL     1      18.304  -8.657 -46.814  0.00  0.00    +0.000 OA
ATOM     45  H1  UNL     1      18.964  -9.416 -46.905  0.00  0.00    +0.000 HD
ENDBRANCH  35  44
ENDBRANCH  34  35
ENDBRANCH  29  34
ENDBRANCH  28  31
ENDBRANCH  27  28
ENDBRANCH   1  27
TORSDOF 10
ENDMDL
MODEL 9
REMARK VINA RESULT:    -6.719      5.578      7.480
REMARK INTER + INTRA:         -12.081
REMARK INTER:                 -10.051
REMARK INTRA:                  -2.030
REMARK UNBOUND:                -1.631
REMARK  Name = resultss/4CJN/ligands/lig_348_t1.pdb
REMARK  10 active torsions:
REMARK  status: ('A' for Active; 'I' for Inactive)
REMARK    1  A    between atoms: O1_1  and  C1_2
REMARK    2  A    between atoms: C1_2  and  C2_3
REMARK    3  A    between atoms: C2_3  and  N1_4
REMARK    4  A    between atoms: C4_6  and  C5_7
REMARK    5  A    between atoms: C5_7  and  O2_8
REMARK    6  A    between atoms: O2_8  and  C6_9
REMARK    7  A    between atoms: C9_12  and  C10_13
REMARK    8  A    between atoms: N3_23  and  N4_24
REMARK    9  A    between atoms: N4_24  and  C18_25
REMARK   10  A    between atoms: N7_35  and  C26_36
REMARK                            x       y       z     vdW  Elec       q    Type
REMARK                         _______ _______ _______ _____ _____    ______ ____
ROOT
ATOM      1  C6  UNL     1      26.003  -8.527 -37.967  0.00  0.00    +0.000 A 
ATOM      2  C7  UNL     1      26.388  -9.236 -36.823  0.00  0.00    +0.000 A 
ATOM      3  C8  UNL     1      26.928  -8.569 -35.722  0.00  0.00    +0.000 A 
ATOM      4  C9  UNL     1      27.056  -7.165 -35.730  0.00  0.00    +0.000 A 
ATOM      5  C24 UNL     1      26.656  -6.454 -36.873  0.00  0.00    +0.000 A 
ATOM      6  C25 UNL     1      26.130  -7.125 -37.980  0.00  0.00    +0.000 A 
ENDROOT
BRANCH   4   7
ATOM      7  C10 UNL     1      27.705  -6.415 -34.582  0.00  0.00    +0.000 C 
ATOM      8  N2  UNL     1      29.162  -6.481 -34.731  0.00  0.00    +0.000 N 
ATOM      9  C11 UNL     1      29.933  -7.539 -34.151  0.00  0.00    +0.000 A 
ATOM     10  C12 UNL     1      31.215  -7.830 -34.637  0.00  0.00    +0.000 A 
ATOM     11  C13 UNL     1      31.958  -8.870 -34.074  0.00  0.00    +0.000 A 
ATOM     12  C14 UNL     1      31.430  -9.614 -33.015  0.00  0.00    +0.000 A 
ATOM     13  C15 UNL     1      30.161  -9.318 -32.515  0.00  0.00    +0.000 A 
ATOM     14  C16 UNL     1      29.404  -8.279 -33.085  0.00  0.00    +0.000 A 
ATOM     15  C17 UNL     1      28.064  -7.929 -32.581  0.00  0.00    +0.000 C 
ATOM     16  O3  UNL     1      27.617  -8.493 -31.544  0.00  0.00    +0.000 OA
ATOM     17  N3  UNL     1      27.265  -6.938 -33.270  0.00  0.00    +0.000 N 
ATOM     18  H10 UNL     1      29.609  -5.861 -35.444  0.00  0.00    +0.000 HD
BRANCH  17  19
ATOM     19  N4  UNL     1      26.003  -6.582 -32.738  0.00  0.00    +0.000 N 
ATOM     20  H15 UNL     1      25.927  -5.739 -32.120  0.00  0.00    +0.000 HD
BRANCH  19  21
ATOM     21  C18 UNL     1      24.772  -7.050 -33.302  0.00  0.00    +0.000 A 
ATOM     22  C19 UNL     1      24.387  -8.385 -33.104  0.00  0.00    +0.000 A 
ATOM     23  C20 UNL     1      23.198  -8.865 -33.661  0.00  0.00    +0.000 A 
ATOM     24  C21 UNL     1      22.395  -8.015 -34.431  0.00  0.00    +0.000 A 
ATOM     25  C22 UNL     1      22.783  -6.688 -34.649  0.00  0.00    +0.000 A 
ATOM     26  C23 UNL     1      23.975  -6.207 -34.095  0.00  0.00    +0.000 A 
ENDBRANCH  19  21
ENDBRANCH  17  19
ENDBRANCH   4   7
BRANCH   1  27
ATOM     27  O2  UNL     1      25.512  -9.253 -39.063  0.00  0.00    +0.000 OA
BRANCH  27  28
ATOM     28  C5  UNL     1      26.293  -9.673 -40.181  0.00  0.00    +0.000 C 
BRANCH  28  31
ATOM     29  N1  UNL     1      24.653  -7.954 -42.919  0.00  0.00    +0.000 N 
ATOM     30  C3  UNL     1      25.286  -7.898 -41.736  0.00  0.00    +0.000 A 
ATOM     31  C4  UNL     1      25.669  -9.190 -41.451  0.00  0.00    +0.000 A 
ATOM     32  N5  UNL     1      25.258  -9.990 -42.455  0.00  0.00    +0.000 NA
ATOM     33  N6  UNL     1      24.652  -9.208 -43.340  0.00  0.00    +0.000 NA
BRANCH  29  34
ATOM     34  C2  UNL     1      24.089  -6.835 -43.664  0.00  0.00    +0.000 C 
BRANCH  34  35
ATOM     35  C1  UNL     1      22.727  -7.199 -44.158  0.00  0.00    +0.000 C 
ATOM     36  N7  UNL     1      22.253  -6.598 -45.213  0.00  0.00    +0.000 NA
BRANCH  36  37
ATOM     37  C26 UNL     1      20.925  -6.716 -45.747  0.00  0.00    +0.000 A 
ATOM     38  C27 UNL     1      20.686  -7.317 -46.994  0.00  0.00    +0.000 A 
ATOM     39  C28 UNL     1      19.381  -7.434 -47.480  0.00  0.00    +0.000 A 
ATOM     40  C29 UNL     1      18.304  -6.988 -46.709  0.00  0.00    +0.000 A 
ATOM     41 BR1  UNL     1      16.524  -7.126 -47.389  0.00  0.00    +0.000 Br
ATOM     42  C30 UNL     1      18.531  -6.442 -45.444  0.00  0.00    +0.000 A 
ATOM     43  C31 UNL     1      19.836  -6.318 -44.959  0.00  0.00    +0.000 A 
ENDBRANCH  36  37
BRANCH  35  44
ATOM     44  O1  UNL     1      22.012  -8.185 -43.472  0.00  0.00    +0.000 OA
ATOM     45  H1  UNL     1      21.161  -8.599 -43.827  0.00  0.00    +0.000 HD
ENDBRANCH  35  44
ENDBRANCH  34  35
ENDBRANCH  29  34
ENDBRANCH  28  31
ENDBRANCH  27  28
ENDBRANCH   1  27
TORSDOF 10
ENDMDL
