MODEL 1
REMARK VINA RESULT:    -6.302      0.000      0.000
REMARK INTER + INTRA:         -13.076
REMARK INTER:                  -9.803
REMARK INTRA:                  -3.274
REMARK UNBOUND:                -3.274
REMARK  Name = resultss/4CJN/ligands/lig_357_t2.pdb
REMARK  12 active torsions:
REMARK  status: ('A' for Active; 'I' for Inactive)
REMARK    1  A    between atoms: C1_1  and  C2_2
REMARK    2  A    between atoms: C5_5  and  N1_6
REMARK    3  A    between atoms: C6_7  and  C7_9
REMARK    4  A    between atoms: C7_9  and  N2_10
REMARK    5  A    between atoms: C9_12  and  C10_13
REMARK    6  A    between atoms: C10_13  and  O2_14
REMARK    7  A    between atoms: O2_14  and  C11_15
REMARK    8  A    between atoms: C14_18  and  C15_19
REMARK    9  A    between atoms: C22_27  and  O3_28
REMARK   10  A    between atoms: N4_29  and  N5_30
REMARK   11  A    between atoms: N5_30  and  C23_31
REMARK   12  A    between atoms: C31_41  and  C32_42
REMARK                            x       y       z     vdW  Elec       q    Type
REMARK                         _______ _______ _______ _____ _____    ______ ____
ROOT
ATOM      1  C11 UNL     1      24.234  -7.767 -36.585  0.00  0.00    +0.000 A 
ATOM      2  C12 UNL     1      23.701  -6.511 -36.930  0.00  0.00    +0.000 A 
ATOM      3  C13 UNL     1      23.803  -6.037 -38.239  0.00  0.00    +0.000 A 
ATOM      4  C14 UNL     1      24.441  -6.803 -39.228  0.00  0.00    +0.000 A 
ATOM      5  C29 UNL     1      24.983  -8.051 -38.879  0.00  0.00    +0.000 A 
ATOM      6  C30 UNL     1      24.875  -8.527 -37.570  0.00  0.00    +0.000 A 
ENDROOT
BRANCH   4   7
ATOM      7  C15 UNL     1      24.567  -6.285 -40.643  0.00  0.00    +0.000 C 
ATOM      8  N3  UNL     1      25.972  -6.036 -40.952  0.00  0.00    +0.000 NA
ATOM      9  C16 UNL     1      26.704  -6.782 -41.725  0.00  0.00    +0.000 A 
ATOM     10  C17 UNL     1      28.063  -6.467 -41.856  0.00  0.00    +0.000 A 
ATOM     11  C18 UNL     1      28.905  -7.267 -42.624  0.00  0.00    +0.000 A 
ATOM     12  C19 UNL     1      28.394  -8.387 -43.275  0.00  0.00    +0.000 A 
ATOM     13  C20 UNL     1      27.037  -8.702 -43.179  0.00  0.00    +0.000 A 
ATOM     14  C21 UNL     1      26.158  -7.898 -42.414  0.00  0.00    +0.000 A 
ATOM     15  C22 UNL     1      24.822  -8.137 -42.342  0.00  0.00    +0.000 C 
ATOM     16  N4  UNL     1      23.980  -7.249 -41.583  0.00  0.00    +0.000 N 
BRANCH  15  17
ATOM     17  O3  UNL     1      24.201  -9.208 -42.999  0.00  0.00    +0.000 OA
ATOM     18  H19 UNL     1      24.273  -9.417 -43.984  0.00  0.00    +0.000 HD
ENDBRANCH  15  17
BRANCH  16  19
ATOM     19  N5  UNL     1      22.594  -7.501 -41.536  0.00  0.00    +0.000 N 
ATOM     20  H20 UNL     1      22.212  -8.088 -40.761  0.00  0.00    +0.000 HD
BRANCH  19  21
ATOM     21  C23 UNL     1      21.682  -6.968 -42.507  0.00  0.00    +0.000 A 
ATOM     22  C24 UNL     1      20.446  -6.426 -42.117  0.00  0.00    +0.000 A 
ATOM     23  C25 UNL     1      19.578  -5.891 -43.074  0.00  0.00    +0.000 A 
ATOM     24  C26 UNL     1      19.943  -5.883 -44.424  0.00  0.00    +0.000 A 
ATOM     25  C27 UNL     1      21.179  -6.403 -44.816  0.00  0.00    +0.000 A 
ATOM     26  C28 UNL     1      22.050  -6.937 -43.861  0.00  0.00    +0.000 A 
ENDBRANCH  19  21
ENDBRANCH  16  19
ENDBRANCH   4   7
BRANCH   1  27
ATOM     27  O2  UNL     1      24.152  -8.295 -35.286  0.00  0.00    +0.000 OA
BRANCH  27  28
ATOM     28  C10 UNL     1      25.133  -8.126 -34.264  0.00  0.00    +0.000 C 
BRANCH  28  31
ATOM     29  N2  UNL     1      28.545  -8.582 -35.414  0.00  0.00    +0.000 N 
ATOM     30  C8  UNL     1      27.558  -7.757 -35.028  0.00  0.00    +0.000 A 
ATOM     31  C9  UNL     1      26.480  -8.566 -34.744  0.00  0.00    +0.000 A 
ATOM     32  N6  UNL     1      26.840  -9.849 -34.950  0.00  0.00    +0.000 NA
ATOM     33  N7  UNL     1      28.102  -9.828 -35.353  0.00  0.00    +0.000 NA
BRANCH  29  34
ATOM     34  C7  UNL     1      29.913  -8.207 -35.753  0.00  0.00    +0.000 C 
BRANCH  34  36
ATOM     35  N1  UNL     1      29.897  -8.485 -38.278  0.00  0.00    +0.000 N 
ATOM     36  C6  UNL     1      30.350  -8.930 -36.990  0.00  0.00    +0.000 C 
ATOM     37  O1  UNL     1      31.141  -9.906 -36.890  0.00  0.00    +0.000 OA
ATOM     38  H6  UNL     1      29.460  -7.539 -38.335  0.00  0.00    +0.000 HD
BRANCH  35  43
ATOM     39  C1  UNL     1      30.637 -11.628 -43.048  0.00  0.00    +0.000 C 
ATOM     40  C2  UNL     1      30.448 -10.809 -41.804  0.00  0.00    +0.000 A 
ATOM     41  C3  UNL     1      31.431  -9.902 -41.392  0.00  0.00    +0.000 A 
ATOM     42  C4  UNL     1      31.245  -9.137 -40.240  0.00  0.00    +0.000 A 
ATOM     43  C5  UNL     1      30.060  -9.246 -39.490  0.00  0.00    +0.000 A 
ATOM     44  C31 UNL     1      29.059 -10.152 -39.909  0.00  0.00    +0.000 A 
ATOM     45  C32 UNL     1      27.781 -10.313 -39.131  0.00  0.00    +0.000 C 
ATOM     46  C33 UNL     1      29.265 -10.928 -41.063  0.00  0.00    +0.000 A 
ENDBRANCH  35  43
ENDBRANCH  34  36
ENDBRANCH  29  34
ENDBRANCH  28  31
ENDBRANCH  27  28
ENDBRANCH   1  27
TORSDOF 10
ENDMDL
MODEL 2
REMARK VINA RESULT:    -6.273      3.332      6.311
REMARK INTER + INTRA:         -13.031
REMARK INTER:                  -9.095
REMARK INTRA:                  -3.936
REMARK UNBOUND:                -3.274
REMARK  Name = resultss/4CJN/ligands/lig_357_t2.pdb
REMARK  12 active torsions:
REMARK  status: ('A' for Active; 'I' for Inactive)
REMARK    1  A    between atoms: C1_1  and  C2_2
REMARK    2  A    between atoms: C5_5  and  N1_6
REMARK    3  A    between atoms: C6_7  and  C7_9
REMARK    4  A    between atoms: C7_9  and  N2_10
REMARK    5  A    between atoms: C9_12  and  C10_13
REMARK    6  A    between atoms: C10_13  and  O2_14
REMARK    7  A    between atoms: O2_14  and  C11_15
REMARK    8  A    between atoms: C14_18  and  C15_19
REMARK    9  A    between atoms: C22_27  and  O3_28
REMARK   10  A    between atoms: N4_29  and  N5_30
REMARK   11  A    between atoms: N5_30  and  C23_31
REMARK   12  A    between atoms: C31_41  and  C32_42
REMARK                            x       y       z     vdW  Elec       q    Type
REMARK                         _______ _______ _______ _____ _____    ______ ____
ROOT
ATOM      1  C11 UNL     1      25.381  -7.986 -37.695  0.00  0.00    +0.000 A 
ATOM      2  C12 UNL     1      25.662  -6.827 -38.440  0.00  0.00    +0.000 A 
ATOM      3  C13 UNL     1      26.968  -6.551 -38.851  0.00  0.00    +0.000 A 
ATOM      4  C14 UNL     1      28.019  -7.424 -38.521  0.00  0.00    +0.000 A 
ATOM      5  C29 UNL     1      27.737  -8.574 -37.766  0.00  0.00    +0.000 A 
ATOM      6  C30 UNL     1      26.429  -8.851 -37.361  0.00  0.00    +0.000 A 
ENDROOT
BRANCH   4   7
ATOM      7  C15 UNL     1      29.435  -7.120 -38.951  0.00  0.00    +0.000 C 
ATOM      8  N3  UNL     1      30.273  -6.915 -37.772  0.00  0.00    +0.000 NA
ATOM      9  C16 UNL     1      31.153  -7.766 -37.332  0.00  0.00    +0.000 A 
ATOM     10  C17 UNL     1      31.818  -7.469 -36.135  0.00  0.00    +0.000 A 
ATOM     11  C18 UNL     1      32.726  -8.372 -35.588  0.00  0.00    +0.000 A 
ATOM     12  C19 UNL     1      32.983  -9.577 -36.236  0.00  0.00    +0.000 A 
ATOM     13  C20 UNL     1      32.351  -9.878 -37.444  0.00  0.00    +0.000 A 
ATOM     14  C21 UNL     1      31.433  -8.972 -38.027  0.00  0.00    +0.000 A 
ATOM     15  C22 UNL     1      30.839  -9.201 -39.229  0.00  0.00    +0.000 C 
ATOM     16  N4  UNL     1      29.952  -8.213 -39.785  0.00  0.00    +0.000 N 
BRANCH  15  17
ATOM     17  O3  UNL     1      31.068 -10.359 -39.985  0.00  0.00    +0.000 OA
ATOM     18  H19 UNL     1      30.377 -10.855 -40.528  0.00  0.00    +0.000 HD
ENDBRANCH  15  17
BRANCH  16  19
ATOM     19  N5  UNL     1      29.362  -8.459 -41.041  0.00  0.00    +0.000 N 
ATOM     20  H20 UNL     1      29.895  -8.218 -41.907  0.00  0.00    +0.000 HD
BRANCH  19  21
ATOM     21  C23 UNL     1      28.058  -9.043 -41.177  0.00  0.00    +0.000 A 
ATOM     22  C24 UNL     1      27.772 -10.307 -40.634  0.00  0.00    +0.000 A 
ATOM     23  C25 UNL     1      26.489 -10.852 -40.757  0.00  0.00    +0.000 A 
ATOM     24  C26 UNL     1      25.483 -10.134 -41.410  0.00  0.00    +0.000 A 
ATOM     25  C27 UNL     1      25.755  -8.868 -41.934  0.00  0.00    +0.000 A 
ATOM     26  C28 UNL     1      27.037  -8.320 -41.812  0.00  0.00    +0.000 A 
ENDBRANCH  19  21
ENDBRANCH  16  19
ENDBRANCH   4   7
BRANCH   1  27
ATOM     27  O2  UNL     1      24.085  -8.315 -37.263  0.00  0.00    +0.000 OA
BRANCH  27  28
ATOM     28  C10 UNL     1      23.428  -7.759 -36.125  0.00  0.00    +0.000 C 
BRANCH  28  31
ATOM     29  N2  UNL     1      25.746  -6.902 -33.467  0.00  0.00    +0.000 N 
ATOM     30  C8  UNL     1      25.018  -6.522 -34.531  0.00  0.00    +0.000 A 
ATOM     31  C9  UNL     1      24.370  -7.656 -34.968  0.00  0.00    +0.000 A 
ATOM     32  N6  UNL     1      24.705  -8.681 -34.158  0.00  0.00    +0.000 NA
ATOM     33  N7  UNL     1      25.540  -8.192 -33.252  0.00  0.00    +0.000 NA
BRANCH  29  34
ATOM     34  C7  UNL     1      26.556  -6.041 -32.612  0.00  0.00    +0.000 C 
BRANCH  34  36
ATOM     35  N1  UNL     1      28.794  -7.096 -33.182  0.00  0.00    +0.000 N 
ATOM     36  C6  UNL     1      27.804  -6.759 -32.198  0.00  0.00    +0.000 C 
ATOM     37  O1  UNL     1      27.988  -7.032 -30.982  0.00  0.00    +0.000 OA
ATOM     38  H6  UNL     1      28.724  -6.635 -34.116  0.00  0.00    +0.000 HD
BRANCH  35  43
ATOM     39  C1  UNL     1      33.157 -10.680 -32.040  0.00  0.00    +0.000 C 
ATOM     40  C2  UNL     1      32.021  -9.744 -32.334  0.00  0.00    +0.000 A 
ATOM     41  C3  UNL     1      32.074  -8.407 -31.922  0.00  0.00    +0.000 A 
ATOM     42  C4  UNL     1      31.018  -7.540 -32.208  0.00  0.00    +0.000 A 
ATOM     43  C5  UNL     1      29.898  -7.987 -32.932  0.00  0.00    +0.000 A 
ATOM     44  C31 UNL     1      29.846  -9.334 -33.360  0.00  0.00    +0.000 A 
ATOM     45  C32 UNL     1      28.662  -9.860 -34.126  0.00  0.00    +0.000 C 
ATOM     46  C33 UNL     1      30.909 -10.201 -33.054  0.00  0.00    +0.000 A 
ENDBRANCH  35  43
ENDBRANCH  34  36
ENDBRANCH  29  34
ENDBRANCH  28  31
ENDBRANCH  27  28
ENDBRANCH   1  27
TORSDOF 10
ENDMDL
MODEL 3
REMARK VINA RESULT:    -6.169      3.132      7.657
REMARK INTER + INTRA:         -12.868
REMARK INTER:                 -10.980
REMARK INTRA:                  -1.889
REMARK UNBOUND:                -3.274
REMARK  Name = resultss/4CJN/ligands/lig_357_t2.pdb
REMARK  12 active torsions:
REMARK  status: ('A' for Active; 'I' for Inactive)
REMARK    1  A    between atoms: C1_1  and  C2_2
REMARK    2  A    between atoms: C5_5  and  N1_6
REMARK    3  A    between atoms: C6_7  and  C7_9
REMARK    4  A    between atoms: C7_9  and  N2_10
REMARK    5  A    between atoms: C9_12  and  C10_13
REMARK    6  A    between atoms: C10_13  and  O2_14
REMARK    7  A    between atoms: O2_14  and  C11_15
REMARK    8  A    between atoms: C14_18  and  C15_19
REMARK    9  A    between atoms: C22_27  and  O3_28
REMARK   10  A    between atoms: N4_29  and  N5_30
REMARK   11  A    between atoms: N5_30  and  C23_31
REMARK   12  A    between atoms: C31_41  and  C32_42
REMARK                            x       y       z     vdW  Elec       q    Type
REMARK                         _______ _______ _______ _____ _____    ______ ____
ROOT
ATOM      1  C11 UNL     1      30.423  -7.835 -37.525  0.00  0.00    +0.000 A 
ATOM      2  C12 UNL     1      29.540  -7.342 -38.504  0.00  0.00    +0.000 A 
ATOM      3  C13 UNL     1      29.074  -8.180 -39.519  0.00  0.00    +0.000 A 
ATOM      4  C14 UNL     1      29.482  -9.522 -39.581  0.00  0.00    +0.000 A 
ATOM      5  C29 UNL     1      30.373 -10.008 -38.610  0.00  0.00    +0.000 A 
ATOM      6  C30 UNL     1      30.834  -9.171 -37.591  0.00  0.00    +0.000 A 
ENDROOT
BRANCH   4   7
ATOM      7  C15 UNL     1      28.992 -10.427 -40.688  0.00  0.00    +0.000 C 
ATOM      8  N3  UNL     1      27.534 -10.513 -40.642  0.00  0.00    +0.000 NA
ATOM      9  C16 UNL     1      26.732  -9.931 -41.484  0.00  0.00    +0.000 A 
ATOM     10  C17 UNL     1      25.352 -10.030 -41.259  0.00  0.00    +0.000 A 
ATOM     11  C18 UNL     1      24.450  -9.377 -42.094  0.00  0.00    +0.000 A 
ATOM     12  C19 UNL     1      24.918  -8.624 -43.168  0.00  0.00    +0.000 A 
ATOM     13  C20 UNL     1      26.288  -8.535 -43.424  0.00  0.00    +0.000 A 
ATOM     14  C21 UNL     1      27.225  -9.199 -42.597  0.00  0.00    +0.000 A 
ATOM     15  C22 UNL     1      28.562  -9.186 -42.845  0.00  0.00    +0.000 C 
ATOM     16  N4  UNL     1      29.453  -9.923 -41.988  0.00  0.00    +0.000 N 
BRANCH  15  17
ATOM     17  O3  UNL     1      29.130  -8.499 -43.927  0.00  0.00    +0.000 OA
ATOM     18  H19 UNL     1      29.399  -8.908 -44.809  0.00  0.00    +0.000 HD
ENDBRANCH  15  17
BRANCH  16  19
ATOM     19  N5  UNL     1      30.833  -9.914 -42.273  0.00  0.00    +0.000 N 
ATOM     20  H20 UNL     1      31.435  -9.181 -41.835  0.00  0.00    +0.000 HD
BRANCH  19  21
ATOM     21  C23 UNL     1      31.447 -10.884 -43.133  0.00  0.00    +0.000 A 
ATOM     22  C24 UNL     1      32.347 -10.491 -44.138  0.00  0.00    +0.000 A 
ATOM     23  C25 UNL     1      32.955 -11.452 -44.954  0.00  0.00    +0.000 A 
ATOM     24  C26 UNL     1      32.677 -12.809 -44.764  0.00  0.00    +0.000 A 
ATOM     25  C27 UNL     1      31.799 -13.207 -43.753  0.00  0.00    +0.000 A 
ATOM     26  C28 UNL     1      31.191 -12.249 -42.935  0.00  0.00    +0.000 A 
ENDBRANCH  19  21
ENDBRANCH  16  19
ENDBRANCH   4   7
BRANCH   1  27
ATOM     27  O2  UNL     1      30.915  -7.038 -36.478  0.00  0.00    +0.000 OA
BRANCH  27  28
ATOM     28  C10 UNL     1      31.655  -7.517 -35.356  0.00  0.00    +0.000 C 
BRANCH  28  31
ATOM     29  N2  UNL     1      29.308  -7.563 -32.588  0.00  0.00    +0.000 N 
ATOM     30  C8  UNL     1      29.633  -7.952 -33.832  0.00  0.00    +0.000 A 
ATOM     31  C9  UNL     1      30.857  -7.379 -34.098  0.00  0.00    +0.000 A 
ATOM     32  N6  UNL     1      31.246  -6.677 -33.015  0.00  0.00    +0.000 NA
ATOM     33  N7  UNL     1      30.286  -6.809 -32.111  0.00  0.00    +0.000 NA
BRANCH  29  34
ATOM     34  C7  UNL     1      28.131  -7.966 -31.827  0.00  0.00    +0.000 C 
BRANCH  34  36
ATOM     35  N1  UNL     1      25.840  -8.331 -32.861  0.00  0.00    +0.000 N 
ATOM     36  C6  UNL     1      26.892  -7.432 -32.478  0.00  0.00    +0.000 C 
ATOM     37  O1  UNL     1      26.771  -6.190 -32.654  0.00  0.00    +0.000 OA
ATOM     38  H6  UNL     1      25.868  -9.300 -32.473  0.00  0.00    +0.000 HD
BRANCH  35  43
ATOM     39  C1  UNL     1      21.466  -6.680 -36.226  0.00  0.00    +0.000 C 
ATOM     40  C2  UNL     1      22.605  -7.107 -35.347  0.00  0.00    +0.000 A 
ATOM     41  C3  UNL     1      22.589  -6.831 -33.974  0.00  0.00    +0.000 A 
ATOM     42  C4  UNL     1      23.647  -7.239 -33.161  0.00  0.00    +0.000 A 
ATOM     43  C5  UNL     1      24.732  -7.954 -33.700  0.00  0.00    +0.000 A 
ATOM     44  C31 UNL     1      24.747  -8.246 -35.084  0.00  0.00    +0.000 A 
ATOM     45  C32 UNL     1      25.893  -8.996 -35.708  0.00  0.00    +0.000 C 
ATOM     46  C33 UNL     1      23.682  -7.816 -35.895  0.00  0.00    +0.000 A 
ENDBRANCH  35  43
ENDBRANCH  34  36
ENDBRANCH  29  34
ENDBRANCH  28  31
ENDBRANCH  27  28
ENDBRANCH   1  27
TORSDOF 10
ENDMDL
MODEL 4
REMARK VINA RESULT:    -6.150      2.693      9.173
REMARK INTER + INTRA:         -12.839
REMARK INTER:                 -11.404
REMARK INTRA:                  -1.435
REMARK UNBOUND:                -3.274
REMARK  Name = resultss/4CJN/ligands/lig_357_t2.pdb
REMARK  12 active torsions:
REMARK  status: ('A' for Active; 'I' for Inactive)
REMARK    1  A    between atoms: C1_1  and  C2_2
REMARK    2  A    between atoms: C5_5  and  N1_6
REMARK    3  A    between atoms: C6_7  and  C7_9
REMARK    4  A    between atoms: C7_9  and  N2_10
REMARK    5  A    between atoms: C9_12  and  C10_13
REMARK    6  A    between atoms: C10_13  and  O2_14
REMARK    7  A    between atoms: O2_14  and  C11_15
REMARK    8  A    between atoms: C14_18  and  C15_19
REMARK    9  A    between atoms: C22_27  and  O3_28
REMARK   10  A    between atoms: N4_29  and  N5_30
REMARK   11  A    between atoms: N5_30  and  C23_31
REMARK   12  A    between atoms: C31_41  and  C32_42
REMARK                            x       y       z     vdW  Elec       q    Type
REMARK                         _______ _______ _______ _____ _____    ______ ____
ROOT
ATOM      1  C11 UNL     1      29.399  -9.963 -38.235  0.00  0.00    +0.000 A 
ATOM      2  C12 UNL     1      28.121 -10.246 -37.719  0.00  0.00    +0.000 A 
ATOM      3  C13 UNL     1      27.865 -10.110 -36.354  0.00  0.00    +0.000 A 
ATOM      4  C14 UNL     1      28.881  -9.696 -35.475  0.00  0.00    +0.000 A 
ATOM      5  C29 UNL     1      30.159  -9.426 -35.991  0.00  0.00    +0.000 A 
ATOM      6  C30 UNL     1      30.412  -9.556 -37.359  0.00  0.00    +0.000 A 
ENDROOT
BRANCH   4   7
ATOM      7  C15 UNL     1      28.611  -9.563 -33.994  0.00  0.00    +0.000 C 
ATOM      8  N3  UNL     1      29.694 -10.188 -33.240  0.00  0.00    +0.000 NA
ATOM      9  C16 UNL     1      30.615  -9.539 -32.591  0.00  0.00    +0.000 A 
ATOM     10  C17 UNL     1      31.644 -10.276 -31.987  0.00  0.00    +0.000 A 
ATOM     11  C18 UNL     1      32.687  -9.629 -31.331  0.00  0.00    +0.000 A 
ATOM     12  C19 UNL     1      32.708  -8.238 -31.264  0.00  0.00    +0.000 A 
ATOM     13  C20 UNL     1      31.678  -7.487 -31.835  0.00  0.00    +0.000 A 
ATOM     14  C21 UNL     1      30.600  -8.122 -32.498  0.00  0.00    +0.000 A 
ATOM     15  C22 UNL     1      29.550  -7.432 -33.017  0.00  0.00    +0.000 C 
ATOM     16  N4  UNL     1      28.464  -8.146 -33.636  0.00  0.00    +0.000 N 
BRANCH  15  17
ATOM     17  O3  UNL     1      29.450  -6.035 -32.959  0.00  0.00    +0.000 OA
ATOM     18  H19 UNL     1      30.224  -5.391 -32.884  0.00  0.00    +0.000 HD
ENDBRANCH  15  17
BRANCH  16  19
ATOM     19  N5  UNL     1      27.374  -7.416 -34.150  0.00  0.00    +0.000 N 
ATOM     20  H20 UNL     1      27.551  -6.687 -34.878  0.00  0.00    +0.000 HD
BRANCH  19  21
ATOM     21  C23 UNL     1      26.024  -7.644 -33.721  0.00  0.00    +0.000 A 
ATOM     22  C24 UNL     1      25.173  -6.569 -33.412  0.00  0.00    +0.000 A 
ATOM     23  C25 UNL     1      23.852  -6.808 -33.017  0.00  0.00    +0.000 A 
ATOM     24  C26 UNL     1      23.371  -8.118 -32.937  0.00  0.00    +0.000 A 
ATOM     25  C27 UNL     1      24.207  -9.190 -33.261  0.00  0.00    +0.000 A 
ATOM     26  C28 UNL     1      25.527  -8.954 -33.659  0.00  0.00    +0.000 A 
ENDBRANCH  19  21
ENDBRANCH  16  19
ENDBRANCH   4   7
BRANCH   1  27
ATOM     27  O2  UNL     1      29.708 -10.075 -39.601  0.00  0.00    +0.000 OA
BRANCH  27  28
ATOM     28  C10 UNL     1      29.551  -9.039 -40.570  0.00  0.00    +0.000 C 
BRANCH  28  31
ATOM     29  N2  UNL     1      25.999  -8.317 -40.767  0.00  0.00    +0.000 N 
ATOM     30  C8  UNL     1      27.016  -9.172 -40.969  0.00  0.00    +0.000 A 
ATOM     31  C9  UNL     1      28.151  -8.510 -40.557  0.00  0.00    +0.000 A 
ATOM     32  N6  UNL     1      27.797  -7.289 -40.108  0.00  0.00    +0.000 NA
ATOM     33  N7  UNL     1      26.482  -7.200 -40.244  0.00  0.00    +0.000 NA
BRANCH  29  34
ATOM     34  C7  UNL     1      24.582  -8.580 -40.985  0.00  0.00    +0.000 C 
BRANCH  34  36
ATOM     35  N1  UNL     1      24.154  -7.299 -43.136  0.00  0.00    +0.000 N 
ATOM     36  C6  UNL     1      24.275  -8.555 -42.451  0.00  0.00    +0.000 C 
ATOM     37  O1  UNL     1      24.158  -9.642 -43.078  0.00  0.00    +0.000 OA
ATOM     38  H6  UNL     1      24.505  -6.447 -42.645  0.00  0.00    +0.000 HD
BRANCH  35  43
ATOM     39  C1  UNL     1      22.036  -6.600 -48.446  0.00  0.00    +0.000 C 
ATOM     40  C2  UNL     1      22.585  -6.780 -47.061  0.00  0.00    +0.000 A 
ATOM     41  C3  UNL     1      21.724  -6.916 -45.965  0.00  0.00    +0.000 A 
ATOM     42  C4  UNL     1      22.241  -7.092 -44.681  0.00  0.00    +0.000 A 
ATOM     43  C5  UNL     1      23.630  -7.162 -44.470  0.00  0.00    +0.000 A 
ATOM     44  C31 UNL     1      24.503  -7.038 -45.576  0.00  0.00    +0.000 A 
ATOM     45  C32 UNL     1      25.997  -7.093 -45.396  0.00  0.00    +0.000 C 
ATOM     46  C33 UNL     1      23.970  -6.846 -46.862  0.00  0.00    +0.000 A 
ENDBRANCH  35  43
ENDBRANCH  34  36
ENDBRANCH  29  34
ENDBRANCH  28  31
ENDBRANCH  27  28
ENDBRANCH   1  27
TORSDOF 10
ENDMDL
MODEL 5
REMARK VINA RESULT:    -6.008      2.693      8.406
REMARK INTER + INTRA:         -12.619
REMARK INTER:                  -9.562
REMARK INTRA:                  -3.057
REMARK UNBOUND:                -3.274
REMARK  Name = resultss/4CJN/ligands/lig_357_t2.pdb
REMARK  12 active torsions:
REMARK  status: ('A' for Active; 'I' for Inactive)
REMARK    1  A    between atoms: C1_1  and  C2_2
REMARK    2  A    between atoms: C5_5  and  N1_6
REMARK    3  A    between atoms: C6_7  and  C7_9
REMARK    4  A    between atoms: C7_9  and  N2_10
REMARK    5  A    between atoms: C9_12  and  C10_13
REMARK    6  A    between atoms: C10_13  and  O2_14
REMARK    7  A    between atoms: O2_14  and  C11_15
REMARK    8  A    between atoms: C14_18  and  C15_19
REMARK    9  A    between atoms: C22_27  and  O3_28
REMARK   10  A    between atoms: N4_29  and  N5_30
REMARK   11  A    between atoms: N5_30  and  C23_31
REMARK   12  A    between atoms: C31_41  and  C32_42
REMARK                            x       y       z     vdW  Elec       q    Type
REMARK                         _______ _______ _______ _____ _____    ______ ____
ROOT
ATOM      1  C11 UNL     1      26.395  -8.111 -34.972  0.00  0.00    +0.000 A 
ATOM      2  C12 UNL     1      27.395  -7.271 -35.494  0.00  0.00    +0.000 A 
ATOM      3  C13 UNL     1      28.668  -7.775 -35.767  0.00  0.00    +0.000 A 
ATOM      4  C14 UNL     1      28.969  -9.125 -35.519  0.00  0.00    +0.000 A 
ATOM      5  C29 UNL     1      27.972  -9.958 -34.986  0.00  0.00    +0.000 A 
ATOM      6  C30 UNL     1      26.697  -9.454 -34.720  0.00  0.00    +0.000 A 
ENDROOT
BRANCH   4   7
ATOM      7  C15 UNL     1      30.351  -9.669 -35.799  0.00  0.00    +0.000 C 
ATOM      8  N3  UNL     1      30.558  -9.769 -37.241  0.00  0.00    +0.000 NA
ATOM      9  C16 UNL     1      31.310  -8.970 -37.939  0.00  0.00    +0.000 A 
ATOM     10  C17 UNL     1      31.338  -9.135 -39.330  0.00  0.00    +0.000 A 
ATOM     11  C18 UNL     1      32.080  -8.270 -40.130  0.00  0.00    +0.000 A 
ATOM     12  C19 UNL     1      32.806  -7.235 -39.547  0.00  0.00    +0.000 A 
ATOM     13  C20 UNL     1      32.812  -7.071 -38.160  0.00  0.00    +0.000 A 
ATOM     14  C21 UNL     1      32.076  -7.945 -37.323  0.00  0.00    +0.000 A 
ATOM     15  C22 UNL     1      32.101  -7.855 -35.967  0.00  0.00    +0.000 C 
ATOM     16  N4  UNL     1      31.365  -8.807 -35.177  0.00  0.00    +0.000 N 
BRANCH  15  17
ATOM     17  O3  UNL     1      32.838  -6.881 -35.279  0.00  0.00    +0.000 OA
ATOM     18  H19 UNL     1      32.892  -5.903 -35.520  0.00  0.00    +0.000 HD
ENDBRANCH  15  17
BRANCH  16  19
ATOM     19  N5  UNL     1      31.418  -8.711 -33.772  0.00  0.00    +0.000 N 
ATOM     20  H20 UNL     1      30.907  -7.933 -33.298  0.00  0.00    +0.000 HD
BRANCH  19  21
ATOM     21  C23 UNL     1      32.140  -9.652 -32.963  0.00  0.00    +0.000 A 
ATOM     22  C24 UNL     1      33.518  -9.855 -33.147  0.00  0.00    +0.000 A 
ATOM     23  C25 UNL     1      34.211 -10.760 -32.336  0.00  0.00    +0.000 A 
ATOM     24  C26 UNL     1      33.536 -11.457 -31.329  0.00  0.00    +0.000 A 
ATOM     25  C27 UNL     1      32.170 -11.244 -31.128  0.00  0.00    +0.000 A 
ATOM     26  C28 UNL     1      31.475 -10.339 -31.937  0.00  0.00    +0.000 A 
ENDBRANCH  19  21
ENDBRANCH  16  19
ENDBRANCH   4   7
BRANCH   1  27
ATOM     27  O2  UNL     1      25.096  -7.657 -34.688  0.00  0.00    +0.000 OA
BRANCH  27  28
ATOM     28  C10 UNL     1      24.277  -6.892 -35.571  0.00  0.00    +0.000 C 
BRANCH  28  31
ATOM     29  N2  UNL     1      24.762  -7.377 -39.135  0.00  0.00    +0.000 N 
ATOM     30  C8  UNL     1      24.636  -6.541 -38.091  0.00  0.00    +0.000 A 
ATOM     31  C9  UNL     1      24.458  -7.344 -36.986  0.00  0.00    +0.000 A 
ATOM     32  N6  UNL     1      24.493  -8.633 -37.381  0.00  0.00    +0.000 NA
ATOM     33  N7  UNL     1      24.683  -8.622 -38.692  0.00  0.00    +0.000 NA
BRANCH  29  34
ATOM     34  C7  UNL     1      25.038  -7.008 -40.519  0.00  0.00    +0.000 C 
BRANCH  34  36
ATOM     35  N1  UNL     1      27.198  -8.337 -40.660  0.00  0.00    +0.000 N 
ATOM     36  C6  UNL     1      25.885  -8.059 -41.169  0.00  0.00    +0.000 C 
ATOM     37  O1  UNL     1      25.421  -8.714 -42.141  0.00  0.00    +0.000 OA
ATOM     38  H6  UNL     1      27.439  -7.961 -39.716  0.00  0.00    +0.000 HD
BRANCH  35  43
ATOM     39  C1  UNL     1      31.199 -11.494 -43.343  0.00  0.00    +0.000 C 
ATOM     40  C2  UNL     1      30.158 -10.668 -42.645  0.00  0.00    +0.000 A 
ATOM     41  C3  UNL     1      29.891  -9.358 -43.060  0.00  0.00    +0.000 A 
ATOM     42  C4  UNL     1      28.916  -8.599 -42.412  0.00  0.00    +0.000 A 
ATOM     43  C5  UNL     1      28.170  -9.144 -41.351  0.00  0.00    +0.000 A 
ATOM     44  C31 UNL     1      28.428 -10.471 -40.936  0.00  0.00    +0.000 A 
ATOM     45  C32 UNL     1      27.665 -11.091 -39.797  0.00  0.00    +0.000 C 
ATOM     46  C33 UNL     1      29.424 -11.220 -41.588  0.00  0.00    +0.000 A 
ENDBRANCH  35  43
ENDBRANCH  34  36
ENDBRANCH  29  34
ENDBRANCH  28  31
ENDBRANCH  27  28
ENDBRANCH   1  27
TORSDOF 10
ENDMDL
MODEL 6
REMARK VINA RESULT:    -5.962      2.406      9.789
REMARK INTER + INTRA:         -12.547
REMARK INTER:                 -11.201
REMARK INTRA:                  -1.346
REMARK UNBOUND:                -3.274
REMARK  Name = resultss/4CJN/ligands/lig_357_t2.pdb
REMARK  12 active torsions:
REMARK  status: ('A' for Active; 'I' for Inactive)
REMARK    1  A    between atoms: C1_1  and  C2_2
REMARK    2  A    between atoms: C5_5  and  N1_6
REMARK    3  A    between atoms: C6_7  and  C7_9
REMARK    4  A    between atoms: C7_9  and  N2_10
REMARK    5  A    between atoms: C9_12  and  C10_13
REMARK    6  A    between atoms: C10_13  and  O2_14
REMARK    7  A    between atoms: O2_14  and  C11_15
REMARK    8  A    between atoms: C14_18  and  C15_19
REMARK    9  A    between atoms: C22_27  and  O3_28
REMARK   10  A    between atoms: N4_29  and  N5_30
REMARK   11  A    between atoms: N5_30  and  C23_31
REMARK   12  A    between atoms: C31_41  and  C32_42
REMARK                            x       y       z     vdW  Elec       q    Type
REMARK                         _______ _______ _______ _____ _____    ______ ____
ROOT
ATOM      1  C11 UNL     1      27.924  -9.483 -39.968  0.00  0.00    +0.000 A 
ATOM      2  C12 UNL     1      28.096  -8.112 -39.704  0.00  0.00    +0.000 A 
ATOM      3  C13 UNL     1      27.895  -7.611 -38.416  0.00  0.00    +0.000 A 
ATOM      4  C14 UNL     1      27.513  -8.467 -37.369  0.00  0.00    +0.000 A 
ATOM      5  C29 UNL     1      27.331  -9.834 -37.639  0.00  0.00    +0.000 A 
ATOM      6  C30 UNL     1      27.539 -10.334 -38.926  0.00  0.00    +0.000 A 
ENDROOT
BRANCH   4   7
ATOM      7  C15 UNL     1      27.279  -7.925 -35.978  0.00  0.00    +0.000 C 
ATOM      8  N3  UNL     1      26.206  -6.935 -36.011  0.00  0.00    +0.000 NA
ATOM      9  C16 UNL     1      25.002  -7.133 -35.562  0.00  0.00    +0.000 A 
ATOM     10  C17 UNL     1      24.052  -6.118 -35.744  0.00  0.00    +0.000 A 
ATOM     11  C18 UNL     1      22.734  -6.301 -35.336  0.00  0.00    +0.000 A 
ATOM     12  C19 UNL     1      22.353  -7.498 -34.735  0.00  0.00    +0.000 A 
ATOM     13  C20 UNL     1      23.291  -8.510 -34.520  0.00  0.00    +0.000 A 
ATOM     14  C21 UNL     1      24.640  -8.344 -34.915  0.00  0.00    +0.000 A 
ATOM     15  C22 UNL     1      25.595  -9.281 -34.672  0.00  0.00    +0.000 C 
ATOM     16  N4  UNL     1      26.958  -9.025 -35.059  0.00  0.00    +0.000 N 
BRANCH  15  17
ATOM     17  O3  UNL     1      25.326 -10.498 -34.029  0.00  0.00    +0.000 OA
ATOM     18  H19 UNL     1      24.443 -10.986 -34.037  0.00  0.00    +0.000 HD
ENDBRANCH  15  17
BRANCH  16  19
ATOM     19  N5  UNL     1      27.938  -9.998 -34.781  0.00  0.00    +0.000 N 
ATOM     20  H20 UNL     1      27.708 -11.006 -34.931  0.00  0.00    +0.000 HD
BRANCH  19  21
ATOM     21  C23 UNL     1      29.251  -9.657 -34.312  0.00  0.00    +0.000 A 
ATOM     22  C24 UNL     1      30.351  -9.649 -35.186  0.00  0.00    +0.000 A 
ATOM     23  C25 UNL     1      31.620  -9.292 -34.717  0.00  0.00    +0.000 A 
ATOM     24  C26 UNL     1      31.796  -8.929 -33.379  0.00  0.00    +0.000 A 
ATOM     25  C27 UNL     1      30.702  -8.915 -32.510  0.00  0.00    +0.000 A 
ATOM     26  C28 UNL     1      29.432  -9.271 -32.975  0.00  0.00    +0.000 A 
ENDBRANCH  19  21
ENDBRANCH  16  19
ENDBRANCH   4   7
BRANCH   1  27
ATOM     27  O2  UNL     1      28.122 -10.041 -41.243  0.00  0.00    +0.000 OA
BRANCH  27  28
ATOM     28  C10 UNL     1      28.542  -9.322 -42.401  0.00  0.00    +0.000 C 
BRANCH  28  31
ATOM     29  N2  UNL     1      26.109  -7.667 -44.526  0.00  0.00    +0.000 N 
ATOM     30  C8  UNL     1      27.391  -7.870 -44.182  0.00  0.00    +0.000 A 
ATOM     31  C9  UNL     1      27.363  -8.766 -43.136  0.00  0.00    +0.000 A 
ATOM     32  N6  UNL     1      26.079  -9.092 -42.885  0.00  0.00    +0.000 NA
ATOM     33  N7  UNL     1      25.338  -8.411 -43.748  0.00  0.00    +0.000 NA
BRANCH  29  34
ATOM     34  C7  UNL     1      25.621  -6.849 -45.631  0.00  0.00    +0.000 C 
BRANCH  34  36
ATOM     35  N1  UNL     1      23.300  -6.121 -44.900  0.00  0.00    +0.000 N 
ATOM     36  C6  UNL     1      24.129  -6.953 -45.725  0.00  0.00    +0.000 C 
ATOM     37  O1  UNL     1      23.616  -7.750 -46.556  0.00  0.00    +0.000 OA
ATOM     38  H6  UNL     1      23.753  -5.311 -44.422  0.00  0.00    +0.000 HD
BRANCH  35  43
ATOM     39  C1  UNL     1      17.639  -7.022 -44.340  0.00  0.00    +0.000 C 
ATOM     40  C2  UNL     1      19.113  -6.788 -44.490  0.00  0.00    +0.000 A 
ATOM     41  C3  UNL     1      19.636  -6.271 -45.681  0.00  0.00    +0.000 A 
ATOM     42  C4  UNL     1      21.007  -6.047 -45.810  0.00  0.00    +0.000 A 
ATOM     43  C5  UNL     1      21.882  -6.313 -44.741  0.00  0.00    +0.000 A 
ATOM     44  C31 UNL     1      21.357  -6.824 -43.531  0.00  0.00    +0.000 A 
ATOM     45  C32 UNL     1      22.255  -7.137 -42.365  0.00  0.00    +0.000 C 
ATOM     46  C33 UNL     1      19.975  -7.059 -43.419  0.00  0.00    +0.000 A 
ENDBRANCH  35  43
ENDBRANCH  34  36
ENDBRANCH  29  34
ENDBRANCH  28  31
ENDBRANCH  27  28
ENDBRANCH   1  27
TORSDOF 10
ENDMDL
MODEL 7
REMARK VINA RESULT:    -5.918      2.690      7.816
REMARK INTER + INTRA:         -12.479
REMARK INTER:                  -9.055
REMARK INTRA:                  -3.424
REMARK UNBOUND:                -3.274
REMARK  Name = resultss/4CJN/ligands/lig_357_t2.pdb
REMARK  12 active torsions:
REMARK  status: ('A' for Active; 'I' for Inactive)
REMARK    1  A    between atoms: C1_1  and  C2_2
REMARK    2  A    between atoms: C5_5  and  N1_6
REMARK    3  A    between atoms: C6_7  and  C7_9
REMARK    4  A    between atoms: C7_9  and  N2_10
REMARK    5  A    between atoms: C9_12  and  C10_13
REMARK    6  A    between atoms: C10_13  and  O2_14
REMARK    7  A    between atoms: O2_14  and  C11_15
REMARK    8  A    between atoms: C14_18  and  C15_19
REMARK    9  A    between atoms: C22_27  and  O3_28
REMARK   10  A    between atoms: N4_29  and  N5_30
REMARK   11  A    between atoms: N5_30  and  C23_31
REMARK   12  A    between atoms: C31_41  and  C32_42
REMARK                            x       y       z     vdW  Elec       q    Type
REMARK                         _______ _______ _______ _____ _____    ______ ____
ROOT
ATOM      1  C11 UNL     1      27.205  -6.383 -40.558  0.00  0.00    +0.000 A 
ATOM      2  C12 UNL     1      27.945  -6.918 -41.628  0.00  0.00    +0.000 A 
ATOM      3  C13 UNL     1      29.269  -7.321 -41.440  0.00  0.00    +0.000 A 
ATOM      4  C14 UNL     1      29.881  -7.192 -40.182  0.00  0.00    +0.000 A 
ATOM      5  C29 UNL     1      29.144  -6.646 -39.118  0.00  0.00    +0.000 A 
ATOM      6  C30 UNL     1      27.817  -6.250 -39.307  0.00  0.00    +0.000 A 
ENDROOT
BRANCH   4   7
ATOM      7  C15 UNL     1      31.318  -7.612 -39.978  0.00  0.00    +0.000 C 
ATOM      8  N3  UNL     1      31.953  -6.733 -39.000  0.00  0.00    +0.000 NA
ATOM      9  C16 UNL     1      32.238  -7.070 -37.777  0.00  0.00    +0.000 A 
ATOM     10  C17 UNL     1      32.765  -6.088 -36.926  0.00  0.00    +0.000 A 
ATOM     11  C18 UNL     1      33.032  -6.378 -35.591  0.00  0.00    +0.000 A 
ATOM     12  C19 UNL     1      32.781  -7.655 -35.094  0.00  0.00    +0.000 A 
ATOM     13  C20 UNL     1      32.282  -8.654 -35.933  0.00  0.00    +0.000 A 
ATOM     14  C21 UNL     1      32.014  -8.388 -37.297  0.00  0.00    +0.000 A 
ATOM     15  C22 UNL     1      31.582  -9.346 -38.160  0.00  0.00    +0.000 C 
ATOM     16  N4  UNL     1      31.375  -9.015 -39.546  0.00  0.00    +0.000 N 
BRANCH  15  17
ATOM     17  O3  UNL     1      31.346 -10.672 -37.773  0.00  0.00    +0.000 OA
ATOM     18  H19 UNL     1      30.491 -11.187 -37.921  0.00  0.00    +0.000 HD
ENDBRANCH  15  17
BRANCH  16  19
ATOM     19  N5  UNL     1      30.946 -10.025 -40.429  0.00  0.00    +0.000 N 
ATOM     20  H20 UNL     1      30.096 -10.583 -40.188  0.00  0.00    +0.000 HD
BRANCH  19  21
ATOM     21  C23 UNL     1      31.627 -10.311 -41.660  0.00  0.00    +0.000 A 
ATOM     22  C24 UNL     1      33.030 -10.372 -41.712  0.00  0.00    +0.000 A 
ATOM     23  C25 UNL     1      33.678 -10.674 -42.914  0.00  0.00    +0.000 A 
ATOM     24  C26 UNL     1      32.930 -10.926 -44.068  0.00  0.00    +0.000 A 
ATOM     25  C27 UNL     1      31.534 -10.886 -44.019  0.00  0.00    +0.000 A 
ATOM     26  C28 UNL     1      30.884 -10.587 -42.817  0.00  0.00    +0.000 A 
ENDBRANCH  19  21
ENDBRANCH  16  19
ENDBRANCH   4   7
BRANCH   1  27
ATOM     27  O2  UNL     1      25.868  -5.971 -40.691  0.00  0.00    +0.000 OA
BRANCH  27  28
ATOM     28  C10 UNL     1      24.727  -6.815 -40.551  0.00  0.00    +0.000 C 
BRANCH  28  31
ATOM     29  N2  UNL     1      24.414  -7.790 -37.069  0.00  0.00    +0.000 N 
ATOM     30  C8  UNL     1      24.271  -6.855 -38.023  0.00  0.00    +0.000 A 
ATOM     31  C9  UNL     1      24.696  -7.443 -39.193  0.00  0.00    +0.000 A 
ATOM     32  N6  UNL     1      25.068  -8.712 -38.926  0.00  0.00    +0.000 NA
ATOM     33  N7  UNL     1      24.882  -8.896 -37.627  0.00  0.00    +0.000 NA
BRANCH  29  34
ATOM     34  C7  UNL     1      24.033  -7.671 -35.666  0.00  0.00    +0.000 C 
BRANCH  34  36
ATOM     35  N1  UNL     1      26.496  -7.692 -35.051  0.00  0.00    +0.000 N 
ATOM     36  C6  UNL     1      25.156  -8.134 -34.789  0.00  0.00    +0.000 C 
ATOM     37  O1  UNL     1      24.907  -8.883 -33.807  0.00  0.00    +0.000 OA
ATOM     38  H6  UNL     1      26.620  -6.885 -35.703  0.00  0.00    +0.000 HD
BRANCH  35  43
ATOM     39  C1  UNL     1      31.068 -10.062 -32.471  0.00  0.00    +0.000 C 
ATOM     40  C2  UNL     1      29.876  -9.443 -33.140  0.00  0.00    +0.000 A 
ATOM     41  C3  UNL     1      29.150  -8.428 -32.506  0.00  0.00    +0.000 A 
ATOM     42  C4  UNL     1      28.047  -7.851 -33.138  0.00  0.00    +0.000 A 
ATOM     43  C5  UNL     1      27.663  -8.261 -34.427  0.00  0.00    +0.000 A 
ATOM     44  C31 UNL     1      28.400  -9.278 -35.076  0.00  0.00    +0.000 A 
ATOM     45  C32 UNL     1      28.018  -9.760 -36.450  0.00  0.00    +0.000 C 
ATOM     46  C33 UNL     1      29.500  -9.862 -34.423  0.00  0.00    +0.000 A 
ENDBRANCH  35  43
ENDBRANCH  34  36
ENDBRANCH  29  34
ENDBRANCH  28  31
ENDBRANCH  27  28
ENDBRANCH   1  27
TORSDOF 10
ENDMDL
MODEL 8
REMARK VINA RESULT:    -5.874      2.310      8.774
REMARK INTER + INTRA:         -12.409
REMARK INTER:                  -9.618
REMARK INTRA:                  -2.791
REMARK UNBOUND:                -3.274
REMARK  Name = resultss/4CJN/ligands/lig_357_t2.pdb
REMARK  12 active torsions:
REMARK  status: ('A' for Active; 'I' for Inactive)
REMARK    1  A    between atoms: C1_1  and  C2_2
REMARK    2  A    between atoms: C5_5  and  N1_6
REMARK    3  A    between atoms: C6_7  and  C7_9
REMARK    4  A    between atoms: C7_9  and  N2_10
REMARK    5  A    between atoms: C9_12  and  C10_13
REMARK    6  A    between atoms: C10_13  and  O2_14
REMARK    7  A    between atoms: O2_14  and  C11_15
REMARK    8  A    between atoms: C14_18  and  C15_19
REMARK    9  A    between atoms: C22_27  and  O3_28
REMARK   10  A    between atoms: N4_29  and  N5_30
REMARK   11  A    between atoms: N5_30  and  C23_31
REMARK   12  A    between atoms: C31_41  and  C32_42
REMARK                            x       y       z     vdW  Elec       q    Type
REMARK                         _______ _______ _______ _____ _____    ______ ____
ROOT
ATOM      1  C11 UNL     1      29.223  -9.244 -37.026  0.00  0.00    +0.000 A 
ATOM      2  C12 UNL     1      29.611  -7.937 -36.681  0.00  0.00    +0.000 A 
ATOM      3  C13 UNL     1      28.785  -7.143 -35.882  0.00  0.00    +0.000 A 
ATOM      4  C14 UNL     1      27.555  -7.637 -35.417  0.00  0.00    +0.000 A 
ATOM      5  C29 UNL     1      27.164  -8.938 -35.774  0.00  0.00    +0.000 A 
ATOM      6  C30 UNL     1      27.994  -9.733 -36.568  0.00  0.00    +0.000 A 
ENDROOT
BRANCH   4   7
ATOM      7  C15 UNL     1      26.652  -6.775 -34.566  0.00  0.00    +0.000 C 
ATOM      8  N3  UNL     1      25.625  -6.160 -35.404  0.00  0.00    +0.000 NA
ATOM      9  C16 UNL     1      24.376  -6.519 -35.428  0.00  0.00    +0.000 A 
ATOM     10  C17 UNL     1      23.526  -5.896 -36.352  0.00  0.00    +0.000 A 
ATOM     11  C18 UNL     1      22.193  -6.283 -36.460  0.00  0.00    +0.000 A 
ATOM     12  C19 UNL     1      21.695  -7.293 -35.642  0.00  0.00    +0.000 A 
ATOM     13  C20 UNL     1      22.519  -7.907 -34.696  0.00  0.00    +0.000 A 
ATOM     14  C21 UNL     1      23.874  -7.523 -34.557  0.00  0.00    +0.000 A 
ATOM     15  C22 UNL     1      24.694  -8.055 -33.612  0.00  0.00    +0.000 C 
ATOM     16  N4  UNL     1      26.049  -7.582 -33.497  0.00  0.00    +0.000 N 
BRANCH  15  17
ATOM     17  O3  UNL     1      24.277  -9.041 -32.707  0.00  0.00    +0.000 OA
ATOM     18  H19 UNL     1      23.522  -8.951 -32.043  0.00  0.00    +0.000 HD
ENDBRANCH  15  17
BRANCH  16  19
ATOM     19  N5  UNL     1      26.878  -8.131 -32.498  0.00  0.00    +0.000 N 
ATOM     20  H20 UNL     1      26.469  -8.808 -31.816  0.00  0.00    +0.000 HD
BRANCH  19  21
ATOM     21  C23 UNL     1      28.271  -7.804 -32.390  0.00  0.00    +0.000 A 
ATOM     22  C24 UNL     1      28.684  -6.511 -32.026  0.00  0.00    +0.000 A 
ATOM     23  C25 UNL     1      30.046  -6.215 -31.903  0.00  0.00    +0.000 A 
ATOM     24  C26 UNL     1      31.002  -7.209 -32.132  0.00  0.00    +0.000 A 
ATOM     25  C27 UNL     1      30.598  -8.501 -32.475  0.00  0.00    +0.000 A 
ATOM     26  C28 UNL     1      29.237  -8.801 -32.597  0.00  0.00    +0.000 A 
ENDBRANCH  19  21
ENDBRANCH  16  19
ENDBRANCH   4   7
BRANCH   1  27
ATOM     27  O2  UNL     1      30.019 -10.087 -37.820  0.00  0.00    +0.000 OA
BRANCH  27  28
ATOM     28  C10 UNL     1      30.690  -9.701 -39.018  0.00  0.00    +0.000 C 
BRANCH  28  31
ATOM     29  N2  UNL     1      28.630  -8.980 -41.918  0.00  0.00    +0.000 N 
ATOM     30  C8  UNL     1      29.601  -8.603 -41.070  0.00  0.00    +0.000 A 
ATOM     31  C9  UNL     1      29.731  -9.633 -40.164  0.00  0.00    +0.000 A 
ATOM     32  N6  UNL     1      28.854 -10.604 -40.490  0.00  0.00    +0.000 NA
ATOM     33  N7  UNL     1      28.201 -10.182 -41.562  0.00  0.00    +0.000 NA
BRANCH  29  34
ATOM     34  C7  UNL     1      28.172  -8.256 -43.098  0.00  0.00    +0.000 C 
BRANCH  34  36
ATOM     35  N1  UNL     1      26.004  -7.971 -41.806  0.00  0.00    +0.000 N 
ATOM     36  C6  UNL     1      26.942  -7.466 -42.768  0.00  0.00    +0.000 C 
ATOM     37  O1  UNL     1      26.760  -6.346 -43.317  0.00  0.00    +0.000 OA
ATOM     38  H6  UNL     1      26.313  -8.761 -41.198  0.00  0.00    +0.000 HD
BRANCH  35  43
ATOM     39  C1  UNL     1      20.708  -5.883 -40.925  0.00  0.00    +0.000 C 
ATOM     40  C2  UNL     1      22.086  -6.430 -41.157  0.00  0.00    +0.000 A 
ATOM     41  C3  UNL     1      22.358  -7.229 -42.274  0.00  0.00    +0.000 A 
ATOM     42  C4  UNL     1      23.644  -7.727 -42.488  0.00  0.00    +0.000 A 
ATOM     43  C5  UNL     1      24.691  -7.415 -41.602  0.00  0.00    +0.000 A 
ATOM     44  C31 UNL     1      24.424  -6.598 -40.478  0.00  0.00    +0.000 A 
ATOM     45  C32 UNL     1      25.509  -6.249 -39.495  0.00  0.00    +0.000 C 
ATOM     46  C33 UNL     1      23.121  -6.115 -40.266  0.00  0.00    +0.000 A 
ENDBRANCH  35  43
ENDBRANCH  34  36
ENDBRANCH  29  34
ENDBRANCH  28  31
ENDBRANCH  27  28
ENDBRANCH   1  27
TORSDOF 10
ENDMDL
MODEL 9
REMARK VINA RESULT:    -5.787      2.291      8.972
REMARK INTER + INTRA:         -12.274
REMARK INTER:                 -10.006
REMARK INTRA:                  -2.268
REMARK UNBOUND:                -3.274
REMARK  Name = resultss/4CJN/ligands/lig_357_t2.pdb
REMARK  12 active torsions:
REMARK  status: ('A' for Active; 'I' for Inactive)
REMARK    1  A    between atoms: C1_1  and  C2_2
REMARK    2  A    between atoms: C5_5  and  N1_6
REMARK    3  A    between atoms: C6_7  and  C7_9
REMARK    4  A    between atoms: C7_9  and  N2_10
REMARK    5  A    between atoms: C9_12  and  C10_13
REMARK    6  A    between atoms: C10_13  and  O2_14
REMARK    7  A    between atoms: O2_14  and  C11_15
REMARK    8  A    between atoms: C14_18  and  C15_19
REMARK    9  A    between atoms: C22_27  and  O3_28
REMARK   10  A    between atoms: N4_29  and  N5_30
REMARK   11  A    between atoms: N5_30  and  C23_31
REMARK   12  A    between atoms: C31_41  and  C32_42
REMARK                            x       y       z     vdW  Elec       q    Type
REMARK                         _______ _______ _______ _____ _____    ______ ____
ROOT
ATOM      1  C11 UNL     1      29.439  -9.223 -37.926  0.00  0.00    +0.000 A 
ATOM      2  C12 UNL     1      28.359  -9.717 -37.173  0.00  0.00    +0.000 A 
ATOM      3  C13 UNL     1      27.587  -8.853 -36.394  0.00  0.00    +0.000 A 
ATOM      4  C14 UNL     1      27.882  -7.480 -36.347  0.00  0.00    +0.000 A 
ATOM      5  C29 UNL     1      28.969  -6.991 -37.090  0.00  0.00    +0.000 A 
ATOM      6  C30 UNL     1      29.736  -7.856 -37.874  0.00  0.00    +0.000 A 
ENDROOT
BRANCH   4   7
ATOM      7  C15 UNL     1      27.058  -6.545 -35.492  0.00  0.00    +0.000 C 
ATOM      8  N3  UNL     1      25.654  -6.625 -35.888  0.00  0.00    +0.000 NA
ATOM      9  C16 UNL     1      24.724  -7.219 -35.201  0.00  0.00    +0.000 A 
ATOM     10  C17 UNL     1      23.437  -7.292 -35.753  0.00  0.00    +0.000 A 
ATOM     11  C18 UNL     1      22.418  -7.967 -35.087  0.00  0.00    +0.000 A 
ATOM     12  C19 UNL     1      22.673  -8.571 -33.858  0.00  0.00    +0.000 A 
ATOM     13  C20 UNL     1      23.941  -8.485 -33.279  0.00  0.00    +0.000 A 
ATOM     14  C21 UNL     1      24.991  -7.794 -33.930  0.00  0.00    +0.000 A 
ATOM     15  C22 UNL     1      26.222  -7.638 -33.374  0.00  0.00    +0.000 C 
ATOM     16  N4  UNL     1      27.228  -6.882 -34.073  0.00  0.00    +0.000 N 
BRANCH  15  17
ATOM     17  O3  UNL     1      26.566  -8.163 -32.121  0.00  0.00    +0.000 OA
ATOM     18  H19 UNL     1      25.925  -8.568 -31.455  0.00  0.00    +0.000 HD
ENDBRANCH  15  17
BRANCH  16  19
ATOM     19  N5  UNL     1      28.492  -6.714 -33.472  0.00  0.00    +0.000 N 
ATOM     20  H20 UNL     1      28.667  -5.866 -32.888  0.00  0.00    +0.000 HD
BRANCH  19  21
ATOM     21  C23 UNL     1      29.548  -7.674 -33.622  0.00  0.00    +0.000 A 
ATOM     22  C24 UNL     1      29.345  -9.028 -33.303  0.00  0.00    +0.000 A 
ATOM     23  C25 UNL     1      30.378  -9.955 -33.476  0.00  0.00    +0.000 A 
ATOM     24  C26 UNL     1      31.615  -9.539 -33.979  0.00  0.00    +0.000 A 
ATOM     25  C27 UNL     1      31.817  -8.199 -34.317  0.00  0.00    +0.000 A 
ATOM     26  C28 UNL     1      30.785  -7.270 -34.146  0.00  0.00    +0.000 A 
ENDBRANCH  19  21
ENDBRANCH  16  19
ENDBRANCH   4   7
BRANCH   1  27
ATOM     27  O2  UNL     1      30.243 -10.046 -38.733  0.00  0.00    +0.000 OA
BRANCH  27  28
ATOM     28  C10 UNL     1      30.940  -9.626 -39.904  0.00  0.00    +0.000 C 
BRANCH  28  31
ATOM     29  N2  UNL     1      28.875  -8.704 -42.743  0.00  0.00    +0.000 N 
ATOM     30  C8  UNL     1      29.790  -8.360 -41.821  0.00  0.00    +0.000 A 
ATOM     31  C9  UNL     1      30.001  -9.489 -41.060  0.00  0.00    +0.000 A 
ATOM     32  N6  UNL     1      29.228 -10.483 -41.543  0.00  0.00    +0.000 NA
ATOM     33  N7  UNL     1      28.557  -9.978 -42.568  0.00  0.00    +0.000 NA
BRANCH  29  34
ATOM     34  C7  UNL     1      28.372  -7.869 -43.827  0.00  0.00    +0.000 C 
BRANCH  34  36
ATOM     35  N1  UNL     1      25.885  -8.307 -43.558  0.00  0.00    +0.000 N 
ATOM     36  C6  UNL     1      26.989  -7.391 -43.505  0.00  0.00    +0.000 C 
ATOM     37  O1  UNL     1      26.813  -6.192 -43.158  0.00  0.00    +0.000 OA
ATOM     38  H6  UNL     1      26.105  -9.326 -43.598  0.00  0.00    +0.000 HD
BRANCH  35  43
ATOM     39  C1  UNL     1      20.324  -6.811 -43.418  0.00  0.00    +0.000 C 
ATOM     40  C2  UNL     1      21.773  -7.201 -43.458  0.00  0.00    +0.000 A 
ATOM     41  C3  UNL     1      22.530  -7.012 -44.621  0.00  0.00    +0.000 A 
ATOM     42  C4  UNL     1      23.879  -7.369 -44.648  0.00  0.00    +0.000 A 
ATOM     43  C5  UNL     1      24.504  -7.899 -43.506  0.00  0.00    +0.000 A 
ATOM     44  C31 UNL     1      23.746  -8.080 -42.325  0.00  0.00    +0.000 A 
ATOM     45  C32 UNL     1      24.370  -8.657 -41.082  0.00  0.00    +0.000 C 
ATOM     46  C33 UNL     1      22.385  -7.731 -42.315  0.00  0.00    +0.000 A 
ENDBRANCH  35  43
ENDBRANCH  34  36
ENDBRANCH  29  34
ENDBRANCH  28  31
ENDBRANCH  27  28
ENDBRANCH   1  27
TORSDOF 10
ENDMDL
