MODEL 1
REMARK VINA RESULT:    -6.758      0.000      0.000
REMARK INTER + INTRA:          -9.296
REMARK INTER:                  -8.931
REMARK INTRA:                  -0.365
REMARK UNBOUND:                -0.365
REMARK  Name = resultss/4CJN/ligands/lig_185_t1.pdb
REMARK  7 active torsions:
REMARK  status: ('A' for Active; 'I' for Inactive)
REMARK    1  A    between atoms: O1_1  and  C1_2
REMARK    2  A    between atoms: C1_2  and  C9_14
REMARK    3  A    between atoms: N1_3  and  N2_4
REMARK    4  A    between atoms: C2_5  and  C3_6
REMARK    5  A    between atoms: C5_8  and  O2_9
REMARK    6  A    between atoms: C8_12  and  O3_13
REMARK    7  A    between atoms: C12_17  and  C13_18
REMARK                            x       y       z     vdW  Elec       q    Type
REMARK                         _______ _______ _______ _____ _____    ______ ____
ROOT
ATOM      1  C1  UNL     1      28.989 -10.850 -41.148  0.00  0.00    +0.000 C 
ATOM      2  N1  UNL     1      29.644 -10.102 -41.987  0.00  0.00    +0.000 NA
ENDROOT
BRANCH   1   3
ATOM      3  C9  UNL     1      28.097 -10.225 -40.141  0.00  0.00    +0.000 A 
ATOM      4  C10 UNL     1      28.404 -10.273 -38.768  0.00  0.00    +0.000 A 
ATOM      5  C11 UNL     1      27.556  -9.683 -37.829  0.00  0.00    +0.000 A 
ATOM      6  C12 UNL     1      26.380  -9.029 -38.237  0.00  0.00    +0.000 A 
ATOM      7  C20 UNL     1      26.075  -8.978 -39.607  0.00  0.00    +0.000 A 
ATOM      8  C21 UNL     1      26.923  -9.570 -40.548  0.00  0.00    +0.000 A 
BRANCH   6   9
ATOM      9  C13 UNL     1      25.486  -8.410 -37.231  0.00  0.00    +0.000 A 
ATOM     10  N3  UNL     1      25.392  -8.850 -35.949  0.00  0.00    +0.000 NA
ATOM     11  C14 UNL     1      24.500  -8.116 -35.237  0.00  0.00    +0.000 A 
ATOM     12  C15 UNL     1      24.191  -8.336 -33.893  0.00  0.00    +0.000 A 
ATOM     13  C16 UNL     1      23.244  -7.503 -33.273  0.00  0.00    +0.000 A 
ATOM     14  C17 UNL     1      22.622  -6.465 -33.996  0.00  0.00    +0.000 A 
ATOM     15  C18 UNL     1      22.941  -6.254 -35.348  0.00  0.00    +0.000 A 
ATOM     16  C19 UNL     1      23.881  -7.094 -35.938  0.00  0.00    +0.000 A 
ATOM     17  S1  UNL     1      24.455  -7.088 -37.512  0.00  0.00    +0.000 S 
ENDBRANCH   6   9
ENDBRANCH   1   3
BRANCH   1  18
ATOM     18  O1  UNL     1      29.116 -12.242 -41.181  0.00  0.00    +0.000 OA
ATOM     19  H1  UNL     1      29.764 -12.718 -41.796  0.00  0.00    +0.000 HD
ENDBRANCH   1  18
BRANCH   2  20
ATOM     20  N2  UNL     1      30.499 -10.641 -42.957  0.00  0.00    +0.000 NA
ATOM     21  C2  UNL     1      31.719 -10.956 -42.662  0.00  0.00    +0.000 C 
BRANCH  21  22
ATOM     22  C3  UNL     1      32.652 -11.461 -43.691  0.00  0.00    +0.000 A 
ATOM     23  C4  UNL     1      32.665 -10.808 -44.936  0.00  0.00    +0.000 A 
ATOM     24  C5  UNL     1      33.466 -11.280 -45.984  0.00  0.00    +0.000 A 
ATOM     25  C6  UNL     1      34.267 -12.406 -45.791  0.00  0.00    +0.000 A 
ATOM     26  C7  UNL     1      34.288 -13.048 -44.552  0.00  0.00    +0.000 A 
ATOM     27  C8  UNL     1      33.509 -12.575 -43.489  0.00  0.00    +0.000 A 
BRANCH  24  28
ATOM     28  O2  UNL     1      33.467 -10.641 -47.221  0.00  0.00    +0.000 OA
ATOM     29  H4  UNL     1      32.943 -11.008 -48.007  0.00  0.00    +0.000 HD
ENDBRANCH  24  28
BRANCH  27  30
ATOM     30  O3  UNL     1      33.644 -13.212 -42.254  0.00  0.00    +0.000 OA
ATOM     31  H7  UNL     1      32.967 -13.865 -41.885  0.00  0.00    +0.000 HD
ENDBRANCH  27  30
ENDBRANCH  21  22
ENDBRANCH   2  20
TORSDOF 7
ENDMDL
MODEL 2
REMARK VINA RESULT:    -6.471      6.375      9.624
REMARK INTER + INTRA:          -8.917
REMARK INTER:                  -8.277
REMARK INTRA:                  -0.639
REMARK UNBOUND:                -0.365
REMARK  Name = resultss/4CJN/ligands/lig_185_t1.pdb
REMARK  7 active torsions:
REMARK  status: ('A' for Active; 'I' for Inactive)
REMARK    1  A    between atoms: O1_1  and  C1_2
REMARK    2  A    between atoms: C1_2  and  C9_14
REMARK    3  A    between atoms: N1_3  and  N2_4
REMARK    4  A    between atoms: C2_5  and  C3_6
REMARK    5  A    between atoms: C5_8  and  O2_9
REMARK    6  A    between atoms: C8_12  and  O3_13
REMARK    7  A    between atoms: C12_17  and  C13_18
REMARK                            x       y       z     vdW  Elec       q    Type
REMARK                         _______ _______ _______ _____ _____    ______ ____
ROOT
ATOM      1  C1  UNL     1      23.896  -9.035 -42.021  0.00  0.00    +0.000 C 
ATOM      2  N1  UNL     1      23.085  -8.020 -42.089  0.00  0.00    +0.000 NA
ENDROOT
BRANCH   1   3
ATOM      3  C9  UNL     1      24.866  -9.133 -40.904  0.00  0.00    +0.000 A 
ATOM      4  C10 UNL     1      24.623  -8.498 -39.672  0.00  0.00    +0.000 A 
ATOM      5  C11 UNL     1      25.545  -8.596 -38.627  0.00  0.00    +0.000 A 
ATOM      6  C12 UNL     1      26.732  -9.332 -38.786  0.00  0.00    +0.000 A 
ATOM      7  C20 UNL     1      26.974  -9.969 -40.015  0.00  0.00    +0.000 A 
ATOM      8  C21 UNL     1      26.052  -9.870 -41.062  0.00  0.00    +0.000 A 
BRANCH   6   9
ATOM      9  C13 UNL     1      27.704  -9.426 -37.672  0.00  0.00    +0.000 A 
ATOM     10  N3  UNL     1      27.333  -9.529 -36.370  0.00  0.00    +0.000 NA
ATOM     11  C14 UNL     1      28.413  -9.594 -35.550  0.00  0.00    +0.000 A 
ATOM     12  C15 UNL     1      28.343  -9.703 -34.160  0.00  0.00    +0.000 A 
ATOM     13  C16 UNL     1      29.541  -9.759 -33.426  0.00  0.00    +0.000 A 
ATOM     14  C17 UNL     1      30.786  -9.708 -34.085  0.00  0.00    +0.000 A 
ATOM     15  C18 UNL     1      30.843  -9.599 -35.484  0.00  0.00    +0.000 A 
ATOM     16  C19 UNL     1      29.642  -9.544 -36.187  0.00  0.00    +0.000 A 
ATOM     17  S1  UNL     1      29.395  -9.413 -37.839  0.00  0.00    +0.000 S 
ENDBRANCH   6   9
ENDBRANCH   1   3
BRANCH   1  18
ATOM     18  O1  UNL     1      23.868 -10.038 -42.995  0.00  0.00    +0.000 OA
ATOM     19  H1  UNL     1      23.059 -10.213 -43.577  0.00  0.00    +0.000 HD
ENDBRANCH   1  18
BRANCH   2  20
ATOM     20  N2  UNL     1      22.151  -7.878 -43.123  0.00  0.00    +0.000 NA
ATOM     21  C2  UNL     1      21.210  -6.993 -43.049  0.00  0.00    +0.000 C 
BRANCH  21  22
ATOM     22  C3  UNL     1      20.179  -6.878 -44.101  0.00  0.00    +0.000 A 
ATOM     23  C4  UNL     1      18.834  -7.000 -43.709  0.00  0.00    +0.000 A 
ATOM     24  C5  UNL     1      17.806  -6.980 -44.662  0.00  0.00    +0.000 A 
ATOM     25  C6  UNL     1      18.117  -6.831 -46.013  0.00  0.00    +0.000 A 
ATOM     26  C7  UNL     1      19.445  -6.681 -46.415  0.00  0.00    +0.000 A 
ATOM     27  C8  UNL     1      20.480  -6.677 -45.473  0.00  0.00    +0.000 A 
BRANCH  24  28
ATOM     28  O2  UNL     1      16.475  -7.115 -44.273  0.00  0.00    +0.000 OA
ATOM     29  H4  UNL     1      16.189  -7.813 -43.597  0.00  0.00    +0.000 HD
ENDBRANCH  24  28
BRANCH  27  30
ATOM     30  O3  UNL     1      21.776  -6.435 -45.935  0.00  0.00    +0.000 OA
ATOM     31  H7  UNL     1      22.571  -6.305 -45.326  0.00  0.00    +0.000 HD
ENDBRANCH  27  30
ENDBRANCH  21  22
ENDBRANCH   2  20
TORSDOF 7
ENDMDL
MODEL 3
REMARK VINA RESULT:    -6.368      5.999      8.464
REMARK INTER + INTRA:          -8.781
REMARK INTER:                  -8.111
REMARK INTRA:                  -0.670
REMARK UNBOUND:                -0.365
REMARK  Name = resultss/4CJN/ligands/lig_185_t1.pdb
REMARK  7 active torsions:
REMARK  status: ('A' for Active; 'I' for Inactive)
REMARK    1  A    between atoms: O1_1  and  C1_2
REMARK    2  A    between atoms: C1_2  and  C9_14
REMARK    3  A    between atoms: N1_3  and  N2_4
REMARK    4  A    between atoms: C2_5  and  C3_6
REMARK    5  A    between atoms: C5_8  and  O2_9
REMARK    6  A    between atoms: C8_12  and  O3_13
REMARK    7  A    between atoms: C12_17  and  C13_18
REMARK                            x       y       z     vdW  Elec       q    Type
REMARK                         _______ _______ _______ _____ _____    ______ ____
ROOT
ATOM      1  C1  UNL     1      24.770  -9.101 -42.448  0.00  0.00    +0.000 C 
ATOM      2  N1  UNL     1      24.982  -8.157 -43.317  0.00  0.00    +0.000 NA
ENDROOT
BRANCH   1   3
ATOM      3  C9  UNL     1      25.613  -9.189 -41.232  0.00  0.00    +0.000 A 
ATOM      4  C10 UNL     1      25.148  -8.721 -39.989  0.00  0.00    +0.000 A 
ATOM      5  C11 UNL     1      25.952  -8.807 -38.850  0.00  0.00    +0.000 A 
ATOM      6  C12 UNL     1      27.241  -9.364 -38.924  0.00  0.00    +0.000 A 
ATOM      7  C20 UNL     1      27.705  -9.834 -40.165  0.00  0.00    +0.000 A 
ATOM      8  C21 UNL     1      26.900  -9.747 -41.305  0.00  0.00    +0.000 A 
BRANCH   6   9
ATOM      9  C13 UNL     1      28.086  -9.447 -37.711  0.00  0.00    +0.000 A 
ATOM     10  N3  UNL     1      27.577  -9.492 -36.452  0.00  0.00    +0.000 NA
ATOM     11  C14 UNL     1      28.561  -9.560 -35.521  0.00  0.00    +0.000 A 
ATOM     12  C15 UNL     1      28.342  -9.617 -34.143  0.00  0.00    +0.000 A 
ATOM     13  C16 UNL     1      29.453  -9.682 -33.284  0.00  0.00    +0.000 A 
ATOM     14  C17 UNL     1      30.761  -9.692 -33.808  0.00  0.00    +0.000 A 
ATOM     15  C18 UNL     1      30.969  -9.635 -35.196  0.00  0.00    +0.000 A 
ATOM     16  C19 UNL     1      29.852  -9.570 -36.024  0.00  0.00    +0.000 A 
ATOM     17  S1  UNL     1      29.785  -9.491 -37.696  0.00  0.00    +0.000 S 
ENDBRANCH   6   9
ENDBRANCH   1   3
BRANCH   1  18
ATOM     18  O1  UNL     1      23.753 -10.041 -42.648  0.00  0.00    +0.000 OA
ATOM     19  H1  UNL     1      22.860  -9.802 -43.061  0.00  0.00    +0.000 HD
ENDBRANCH   1  18
BRANCH   2  20
ATOM     20  N2  UNL     1      24.215  -8.029 -44.483  0.00  0.00    +0.000 NA
ATOM     21  C2  UNL     1      23.323  -7.098 -44.590  0.00  0.00    +0.000 C 
BRANCH  21  22
ATOM     22  C3  UNL     1      22.461  -6.994 -45.785  0.00  0.00    +0.000 A 
ATOM     23  C4  UNL     1      21.153  -6.510 -45.605  0.00  0.00    +0.000 A 
ATOM     24  C5  UNL     1      20.254  -6.458 -46.678  0.00  0.00    +0.000 A 
ATOM     25  C6  UNL     1      20.660  -6.883 -47.943  0.00  0.00    +0.000 A 
ATOM     26  C7  UNL     1      21.963  -7.340 -48.145  0.00  0.00    +0.000 A 
ATOM     27  C8  UNL     1      22.879  -7.377 -47.086  0.00  0.00    +0.000 A 
BRANCH  24  28
ATOM     28  O2  UNL     1      18.955  -5.991 -46.495  0.00  0.00    +0.000 OA
ATOM     29  H4  UNL     1      18.554  -5.286 -47.102  0.00  0.00    +0.000 HD
ENDBRANCH  24  28
BRANCH  27  30
ATOM     30  O3  UNL     1      24.189  -7.761 -47.378  0.00  0.00    +0.000 OA
ATOM     31  H7  UNL     1      24.464  -8.194 -48.248  0.00  0.00    +0.000 HD
ENDBRANCH  27  30
ENDBRANCH  21  22
ENDBRANCH   2  20
TORSDOF 7
ENDMDL
MODEL 4
REMARK VINA RESULT:    -6.366      5.550      7.537
REMARK INTER + INTRA:          -8.778
REMARK INTER:                  -8.161
REMARK INTRA:                  -0.617
REMARK UNBOUND:                -0.365
REMARK  Name = resultss/4CJN/ligands/lig_185_t1.pdb
REMARK  7 active torsions:
REMARK  status: ('A' for Active; 'I' for Inactive)
REMARK    1  A    between atoms: O1_1  and  C1_2
REMARK    2  A    between atoms: C1_2  and  C9_14
REMARK    3  A    between atoms: N1_3  and  N2_4
REMARK    4  A    between atoms: C2_5  and  C3_6
REMARK    5  A    between atoms: C5_8  and  O2_9
REMARK    6  A    between atoms: C8_12  and  O3_13
REMARK    7  A    between atoms: C12_17  and  C13_18
REMARK                            x       y       z     vdW  Elec       q    Type
REMARK                         _______ _______ _______ _____ _____    ______ ____
ROOT
ATOM      1  C1  UNL     1      25.773  -9.540 -41.269  0.00  0.00    +0.000 C 
ATOM      2  N1  UNL     1      25.889  -8.531 -42.081  0.00  0.00    +0.000 NA
ENDROOT
BRANCH   1   3
ATOM      3  C9  UNL     1      26.522  -9.550 -39.989  0.00  0.00    +0.000 A 
ATOM      4  C10 UNL     1      26.303  -8.562 -39.011  0.00  0.00    +0.000 A 
ATOM      5  C11 UNL     1      27.016  -8.580 -37.809  0.00  0.00    +0.000 A 
ATOM      6  C12 UNL     1      27.966  -9.585 -37.555  0.00  0.00    +0.000 A 
ATOM      7  C20 UNL     1      28.183 -10.573 -38.531  0.00  0.00    +0.000 A 
ATOM      8  C21 UNL     1      27.470 -10.555 -39.734  0.00  0.00    +0.000 A 
BRANCH   6   9
ATOM      9  C13 UNL     1      28.718  -9.592 -36.280  0.00  0.00    +0.000 A 
ATOM     10  N3  UNL     1      30.075  -9.545 -36.217  0.00  0.00    +0.000 NA
ATOM     11  C14 UNL     1      30.513  -9.570 -34.933  0.00  0.00    +0.000 A 
ATOM     12  C15 UNL     1      31.857  -9.535 -34.557  0.00  0.00    +0.000 A 
ATOM     13  C16 UNL     1      32.177  -9.569 -33.188  0.00  0.00    +0.000 A 
ATOM     14  C17 UNL     1      31.156  -9.635 -32.218  0.00  0.00    +0.000 A 
ATOM     15  C18 UNL     1      29.808  -9.669 -32.608  0.00  0.00    +0.000 A 
ATOM     16  C19 UNL     1      29.519  -9.636 -33.970  0.00  0.00    +0.000 A 
ATOM     17  S1  UNL     1      28.026  -9.666 -34.730  0.00  0.00    +0.000 S 
ENDBRANCH   6   9
ENDBRANCH   1   3
BRANCH   1  18
ATOM     18  O1  UNL     1      24.949 -10.624 -41.589  0.00  0.00    +0.000 OA
ATOM     19  H1  UNL     1      24.774 -10.916 -42.542  0.00  0.00    +0.000 HD
ENDBRANCH   1  18
BRANCH   2  20
ATOM     20  N2  UNL     1      25.205  -8.472 -43.302  0.00  0.00    +0.000 NA
ATOM     21  C2  UNL     1      25.246  -7.406 -44.033  0.00  0.00    +0.000 C 
BRANCH  21  22
ATOM     22  C3  UNL     1      24.475  -7.305 -45.289  0.00  0.00    +0.000 A 
ATOM     23  C4  UNL     1      25.194  -7.115 -46.482  0.00  0.00    +0.000 A 
ATOM     24  C5  UNL     1      24.525  -6.933 -47.701  0.00  0.00    +0.000 A 
ATOM     25  C6  UNL     1      23.131  -6.947 -47.735  0.00  0.00    +0.000 A 
ATOM     26  C7  UNL     1      22.403  -7.163 -46.564  0.00  0.00    +0.000 A 
ATOM     27  C8  UNL     1      23.058  -7.369 -45.343  0.00  0.00    +0.000 A 
BRANCH  24  28
ATOM     28  O2  UNL     1      25.239  -6.730 -48.879  0.00  0.00    +0.000 OA
ATOM     29  H4  UNL     1      25.089  -5.910 -49.455  0.00  0.00    +0.000 HD
ENDBRANCH  24  28
BRANCH  27  30
ATOM     30  O3  UNL     1      22.271  -7.666 -44.229  0.00  0.00    +0.000 OA
ATOM     31  H7  UNL     1      22.557  -7.482 -43.277  0.00  0.00    +0.000 HD
ENDBRANCH  27  30
ENDBRANCH  21  22
ENDBRANCH   2  20
TORSDOF 7
ENDMDL
MODEL 5
REMARK VINA RESULT:    -6.033      6.113      8.837
REMARK INTER + INTRA:          -8.337
REMARK INTER:                  -7.868
REMARK INTRA:                  -0.470
REMARK UNBOUND:                -0.365
REMARK  Name = resultss/4CJN/ligands/lig_185_t1.pdb
REMARK  7 active torsions:
REMARK  status: ('A' for Active; 'I' for Inactive)
REMARK    1  A    between atoms: O1_1  and  C1_2
REMARK    2  A    between atoms: C1_2  and  C9_14
REMARK    3  A    between atoms: N1_3  and  N2_4
REMARK    4  A    between atoms: C2_5  and  C3_6
REMARK    5  A    between atoms: C5_8  and  O2_9
REMARK    6  A    between atoms: C8_12  and  O3_13
REMARK    7  A    between atoms: C12_17  and  C13_18
REMARK                            x       y       z     vdW  Elec       q    Type
REMARK                         _______ _______ _______ _____ _____    ______ ____
ROOT
ATOM      1  C1  UNL     1      24.348  -8.924 -42.131  0.00  0.00    +0.000 C 
ATOM      2  N1  UNL     1      24.186  -7.768 -42.706  0.00  0.00    +0.000 NA
ENDROOT
BRANCH   1   3
ATOM      3  C9  UNL     1      25.163  -9.028 -40.897  0.00  0.00    +0.000 A 
ATOM      4  C10 UNL     1      26.364  -9.763 -40.879  0.00  0.00    +0.000 A 
ATOM      5  C11 UNL     1      27.123  -9.856 -39.710  0.00  0.00    +0.000 A 
ATOM      6  C12 UNL     1      26.702  -9.219 -38.530  0.00  0.00    +0.000 A 
ATOM      7  C20 UNL     1      25.504  -8.483 -38.548  0.00  0.00    +0.000 A 
ATOM      8  C21 UNL     1      24.744  -8.390 -39.718  0.00  0.00    +0.000 A 
BRANCH   6   9
ATOM      9  C13 UNL     1      27.513  -9.328 -37.295  0.00  0.00    +0.000 A 
ATOM     10  N3  UNL     1      28.871  -9.328 -37.297  0.00  0.00    +0.000 NA
ATOM     11  C14 UNL     1      29.368  -9.445 -36.039  0.00  0.00    +0.000 A 
ATOM     12  C15 UNL     1      30.729  -9.476 -35.728  0.00  0.00    +0.000 A 
ATOM     13  C16 UNL     1      31.112  -9.603 -34.382  0.00  0.00    +0.000 A 
ATOM     14  C17 UNL     1      30.137  -9.696 -33.368  0.00  0.00    +0.000 A 
ATOM     15  C18 UNL     1      28.771  -9.664 -33.693  0.00  0.00    +0.000 A 
ATOM     16  C19 UNL     1      28.419  -9.538 -35.034  0.00  0.00    +0.000 A 
ATOM     17  S1  UNL     1      26.892  -9.474 -35.720  0.00  0.00    +0.000 S 
ENDBRANCH   6   9
ENDBRANCH   1   3
BRANCH   1  18
ATOM     18  O1  UNL     1      23.761 -10.076 -42.665  0.00  0.00    +0.000 OA
ATOM     19  H1  UNL     1      23.162 -10.057 -43.481  0.00  0.00    +0.000 HD
ENDBRANCH   1  18
BRANCH   2  20
ATOM     20  N2  UNL     1      23.427  -7.614 -43.873  0.00  0.00    +0.000 NA
ATOM     21  C2  UNL     1      22.277  -7.022 -43.841  0.00  0.00    +0.000 C 
BRANCH  21  22
ATOM     22  C3  UNL     1      21.435  -6.913 -45.051  0.00  0.00    +0.000 A 
ATOM     23  C4  UNL     1      22.062  -7.081 -46.298  0.00  0.00    +0.000 A 
ATOM     24  C5  UNL     1      21.343  -6.914 -47.489  0.00  0.00    +0.000 A 
ATOM     25  C6  UNL     1      19.988  -6.586 -47.440  0.00  0.00    +0.000 A 
ATOM     26  C7  UNL     1      19.344  -6.444 -46.210  0.00  0.00    +0.000 A 
ATOM     27  C8  UNL     1      20.045  -6.629 -45.012  0.00  0.00    +0.000 A 
BRANCH  24  28
ATOM     28  O2  UNL     1      21.969  -7.066 -48.724  0.00  0.00    +0.000 OA
ATOM     29  H4  UNL     1      22.958  -6.881 -48.842  0.00  0.00    +0.000 HD
ENDBRANCH  24  28
BRANCH  27  30
ATOM     30  O3  UNL     1      19.320  -6.558 -43.821  0.00  0.00    +0.000 OA
ATOM     31  H7  UNL     1      19.501  -5.879 -43.096  0.00  0.00    +0.000 HD
ENDBRANCH  27  30
ENDBRANCH  21  22
ENDBRANCH   2  20
TORSDOF 7
ENDMDL
MODEL 6
REMARK VINA RESULT:    -5.835      6.617      9.827
REMARK INTER + INTRA:          -8.076
REMARK INTER:                  -7.443
REMARK INTRA:                  -0.633
REMARK UNBOUND:                -0.365
REMARK  Name = resultss/4CJN/ligands/lig_185_t1.pdb
REMARK  7 active torsions:
REMARK  status: ('A' for Active; 'I' for Inactive)
REMARK    1  A    between atoms: O1_1  and  C1_2
REMARK    2  A    between atoms: C1_2  and  C9_14
REMARK    3  A    between atoms: N1_3  and  N2_4
REMARK    4  A    between atoms: C2_5  and  C3_6
REMARK    5  A    between atoms: C5_8  and  O2_9
REMARK    6  A    between atoms: C8_12  and  O3_13
REMARK    7  A    between atoms: C12_17  and  C13_18
REMARK                            x       y       z     vdW  Elec       q    Type
REMARK                         _______ _______ _______ _____ _____    ______ ____
ROOT
ATOM      1  C1  UNL     1      25.054  -8.718 -39.511  0.00  0.00    +0.000 C 
ATOM      2  N1  UNL     1      26.283  -9.123 -39.379  0.00  0.00    +0.000 NA
ENDROOT
BRANCH   1   3
ATOM      3  C9  UNL     1      24.530  -8.371 -40.854  0.00  0.00    +0.000 A 
ATOM      4  C10 UNL     1      24.776  -9.197 -41.966  0.00  0.00    +0.000 A 
ATOM      5  C11 UNL     1      24.279  -8.858 -43.227  0.00  0.00    +0.000 A 
ATOM      6  C12 UNL     1      23.524  -7.686 -43.408  0.00  0.00    +0.000 A 
ATOM      7  C20 UNL     1      23.276  -6.863 -42.297  0.00  0.00    +0.000 A 
ATOM      8  C21 UNL     1      23.774  -7.201 -41.035  0.00  0.00    +0.000 A 
BRANCH   6   9
ATOM      9  C13 UNL     1      23.005  -7.336 -44.750  0.00  0.00    +0.000 A 
ATOM     10  N3  UNL     1      21.679  -7.293 -45.047  0.00  0.00    +0.000 NA
ATOM     11  C14 UNL     1      21.472  -6.952 -46.344  0.00  0.00    +0.000 A 
ATOM     12  C15 UNL     1      20.214  -6.830 -46.936  0.00  0.00    +0.000 A 
ATOM     13  C16 UNL     1      20.138  -6.472 -48.294  0.00  0.00    +0.000 A 
ATOM     14  C17 UNL     1      21.312  -6.239 -49.037  0.00  0.00    +0.000 A 
ATOM     15  C18 UNL     1      22.572  -6.365 -48.431  0.00  0.00    +0.000 A 
ATOM     16  C19 UNL     1      22.619  -6.722 -47.085  0.00  0.00    +0.000 A 
ATOM     17  S1  UNL     1      23.958  -6.948 -46.103  0.00  0.00    +0.000 S 
ENDBRANCH   6   9
ENDBRANCH   1   3
BRANCH   1  18
ATOM     18  O1  UNL     1      24.215  -8.603 -38.397  0.00  0.00    +0.000 OA
ATOM     19  H1  UNL     1      23.896  -9.405 -37.868  0.00  0.00    +0.000 HD
ENDBRANCH   1  18
BRANCH   2  20
ATOM     20  N2  UNL     1      26.827  -9.463 -38.133  0.00  0.00    +0.000 NA
ATOM     21  C2  UNL     1      27.464  -8.585 -37.428  0.00  0.00    +0.000 C 
BRANCH  21  22
ATOM     22  C3  UNL     1      28.102  -8.946 -36.145  0.00  0.00    +0.000 A 
ATOM     23  C4  UNL     1      29.399  -8.461 -35.904  0.00  0.00    +0.000 A 
ATOM     24  C5  UNL     1      30.097  -8.827 -34.744  0.00  0.00    +0.000 A 
ATOM     25  C6  UNL     1      29.497  -9.676 -33.814  0.00  0.00    +0.000 A 
ATOM     26  C7  UNL     1      28.199 -10.143 -34.025  0.00  0.00    +0.000 A 
ATOM     27  C8  UNL     1      27.482  -9.769 -35.169  0.00  0.00    +0.000 A 
BRANCH  24  28
ATOM     28  O2  UNL     1      31.387  -8.357 -34.514  0.00  0.00    +0.000 OA
ATOM     29  H4  UNL     1      32.192  -8.969 -34.572  0.00  0.00    +0.000 HD
ENDBRANCH  24  28
BRANCH  27  30
ATOM     30  O3  UNL     1      26.159 -10.202 -35.273  0.00  0.00    +0.000 OA
ATOM     31  H7  UNL     1      25.830 -11.085 -34.910  0.00  0.00    +0.000 HD
ENDBRANCH  27  30
ENDBRANCH  21  22
ENDBRANCH   2  20
TORSDOF 7
ENDMDL
MODEL 7
REMARK VINA RESULT:    -5.831      6.446     10.381
REMARK INTER + INTRA:          -8.070
REMARK INTER:                  -7.390
REMARK INTRA:                  -0.681
REMARK UNBOUND:                -0.365
REMARK  Name = resultss/4CJN/ligands/lig_185_t1.pdb
REMARK  7 active torsions:
REMARK  status: ('A' for Active; 'I' for Inactive)
REMARK    1  A    between atoms: O1_1  and  C1_2
REMARK    2  A    between atoms: C1_2  and  C9_14
REMARK    3  A    between atoms: N1_3  and  N2_4
REMARK    4  A    between atoms: C2_5  and  C3_6
REMARK    5  A    between atoms: C5_8  and  O2_9
REMARK    6  A    between atoms: C8_12  and  O3_13
REMARK    7  A    between atoms: C12_17  and  C13_18
REMARK                            x       y       z     vdW  Elec       q    Type
REMARK                         _______ _______ _______ _____ _____    ______ ____
ROOT
ATOM      1  C1  UNL     1      25.670  -8.833 -40.668  0.00  0.00    +0.000 C 
ATOM      2  N1  UNL     1      25.632  -8.086 -39.604  0.00  0.00    +0.000 NA
ENDROOT
BRANCH   1   3
ATOM      3  C9  UNL     1      24.911  -8.435 -41.878  0.00  0.00    +0.000 A 
ATOM      4  C10 UNL     1      23.505  -8.358 -41.862  0.00  0.00    +0.000 A 
ATOM      5  C11 UNL     1      22.800  -7.984 -43.009  0.00  0.00    +0.000 A 
ATOM      6  C12 UNL     1      23.481  -7.679 -44.200  0.00  0.00    +0.000 A 
ATOM      7  C20 UNL     1      24.884  -7.753 -44.216  0.00  0.00    +0.000 A 
ATOM      8  C21 UNL     1      25.590  -8.128 -43.069  0.00  0.00    +0.000 A 
BRANCH   6   9
ATOM      9  C13 UNL     1      22.723  -7.287 -45.410  0.00  0.00    +0.000 A 
ATOM     10  N3  UNL     1      21.389  -7.028 -45.400  0.00  0.00    +0.000 NA
ATOM     11  C14 UNL     1      20.939  -6.698 -46.637  0.00  0.00    +0.000 A 
ATOM     12  C15 UNL     1      19.612  -6.381 -46.935  0.00  0.00    +0.000 A 
ATOM     13  C16 UNL     1      19.276  -6.058 -48.262  0.00  0.00    +0.000 A 
ATOM     14  C17 UNL     1      20.264  -6.054 -49.268  0.00  0.00    +0.000 A 
ATOM     15  C18 UNL     1      21.595  -6.374 -48.955  0.00  0.00    +0.000 A 
ATOM     16  C19 UNL     1      21.900  -6.691 -47.634  0.00  0.00    +0.000 A 
ATOM     17  S1  UNL     1      23.379  -7.111 -46.968  0.00  0.00    +0.000 S 
ENDBRANCH   6   9
ENDBRANCH   1   3
BRANCH   1  18
ATOM     18  O1  UNL     1      26.421 -10.013 -40.687  0.00  0.00    +0.000 OA
ATOM     19  H1  UNL     1      27.159 -10.182 -41.358  0.00  0.00    +0.000 HD
ENDBRANCH   1  18
BRANCH   2  20
ATOM     20  N2  UNL     1      26.330  -8.416 -38.435  0.00  0.00    +0.000 NA
ATOM     21  C2  UNL     1      25.697  -8.670 -37.335  0.00  0.00    +0.000 C 
BRANCH  21  22
ATOM     22  C3  UNL     1      26.422  -8.952 -36.079  0.00  0.00    +0.000 A 
ATOM     23  C4  UNL     1      25.974  -8.311 -34.911  0.00  0.00    +0.000 A 
ATOM     24  C5  UNL     1      26.660  -8.469 -33.699  0.00  0.00    +0.000 A 
ATOM     25  C6  UNL     1      27.796  -9.277 -33.646  0.00  0.00    +0.000 A 
ATOM     26  C7  UNL     1      28.237  -9.942 -34.791  0.00  0.00    +0.000 A 
ATOM     27  C8  UNL     1      27.549  -9.811 -36.003  0.00  0.00    +0.000 A 
BRANCH  24  28
ATOM     28  O2  UNL     1      26.223  -7.822 -32.546  0.00  0.00    +0.000 OA
ATOM     29  H4  UNL     1      25.268  -7.495 -32.451  0.00  0.00    +0.000 HD
ENDBRANCH  24  28
BRANCH  27  30
ATOM     30  O3  UNL     1      27.994 -10.573 -37.086  0.00  0.00    +0.000 OA
ATOM     31  H7  UNL     1      27.375 -11.072 -37.709  0.00  0.00    +0.000 HD
ENDBRANCH  27  30
ENDBRANCH  21  22
ENDBRANCH   2  20
TORSDOF 7
ENDMDL
MODEL 8
REMARK VINA RESULT:    -5.743      5.448      9.691
REMARK INTER + INTRA:          -7.955
REMARK INTER:                  -7.269
REMARK INTRA:                  -0.686
REMARK UNBOUND:                -0.365
REMARK  Name = resultss/4CJN/ligands/lig_185_t1.pdb
REMARK  7 active torsions:
REMARK  status: ('A' for Active; 'I' for Inactive)
REMARK    1  A    between atoms: O1_1  and  C1_2
REMARK    2  A    between atoms: C1_2  and  C9_14
REMARK    3  A    between atoms: N1_3  and  N2_4
REMARK    4  A    between atoms: C2_5  and  C3_6
REMARK    5  A    between atoms: C5_8  and  O2_9
REMARK    6  A    between atoms: C8_12  and  O3_13
REMARK    7  A    between atoms: C12_17  and  C13_18
REMARK                            x       y       z     vdW  Elec       q    Type
REMARK                         _______ _______ _______ _____ _____    ______ ____
ROOT
ATOM      1  C1  UNL     1      28.118  -9.404 -38.979  0.00  0.00    +0.000 C 
ATOM      2  N1  UNL     1      28.202  -8.538 -38.012  0.00  0.00    +0.000 NA
ENDROOT
BRANCH   1   3
ATOM      3  C9  UNL     1      27.716  -8.960 -40.336  0.00  0.00    +0.000 A 
ATOM      4  C10 UNL     1      27.905  -9.789 -41.457  0.00  0.00    +0.000 A 
ATOM      5  C11 UNL     1      27.524  -9.359 -42.731  0.00  0.00    +0.000 A 
ATOM      6  C12 UNL     1      26.945  -8.091 -42.916  0.00  0.00    +0.000 A 
ATOM      7  C20 UNL     1      26.755  -7.265 -41.796  0.00  0.00    +0.000 A 
ATOM      8  C21 UNL     1      27.136  -7.694 -40.521  0.00  0.00    +0.000 A 
BRANCH   6   9
ATOM      9  C13 UNL     1      26.549  -7.645 -44.271  0.00  0.00    +0.000 A 
ATOM     10  N3  UNL     1      27.445  -7.378 -45.257  0.00  0.00    +0.000 NA
ATOM     11  C14 UNL     1      26.824  -6.982 -46.397  0.00  0.00    +0.000 A 
ATOM     12  C15 UNL     1      27.486  -6.639 -47.578  0.00  0.00    +0.000 A 
ATOM     13  C16 UNL     1      26.722  -6.242 -48.690  0.00  0.00    +0.000 A 
ATOM     14  C17 UNL     1      25.316  -6.196 -48.610  0.00  0.00    +0.000 A 
ATOM     15  C18 UNL     1      24.661  -6.544 -47.417  0.00  0.00    +0.000 A 
ATOM     16  C19 UNL     1      25.441  -6.932 -46.331  0.00  0.00    +0.000 A 
ATOM     17  S1  UNL     1      24.952  -7.395 -44.797  0.00  0.00    +0.000 S 
ENDBRANCH   6   9
ENDBRANCH   1   3
BRANCH   1  18
ATOM     18  O1  UNL     1      28.401 -10.755 -38.755  0.00  0.00    +0.000 OA
ATOM     19  H1  UNL     1      28.293 -11.463 -39.471  0.00  0.00    +0.000 HD
ENDBRANCH   1  18
BRANCH   2  20
ATOM     20  N2  UNL     1      28.576  -8.904 -36.712  0.00  0.00    +0.000 NA
ATOM     21  C2  UNL     1      29.737  -8.580 -36.241  0.00  0.00    +0.000 C 
BRANCH  21  22
ATOM     22  C3  UNL     1      30.170  -9.018 -34.898  0.00  0.00    +0.000 A 
ATOM     23  C4  UNL     1      31.505  -9.435 -34.749  0.00  0.00    +0.000 A 
ATOM     24  C5  UNL     1      31.965  -9.938 -33.524  0.00  0.00    +0.000 A 
ATOM     25  C6  UNL     1      31.095 -10.019 -32.437  0.00  0.00    +0.000 A 
ATOM     26  C7  UNL     1      29.775  -9.583 -32.561  0.00  0.00    +0.000 A 
ATOM     27  C8  UNL     1      29.307  -9.058 -33.773  0.00  0.00    +0.000 A 
BRANCH  24  28
ATOM     28  O2  UNL     1      33.284 -10.364 -33.382  0.00  0.00    +0.000 OA
ATOM     29  H4  UNL     1      33.508 -11.330 -33.174  0.00  0.00    +0.000 HD
ENDBRANCH  24  28
BRANCH  27  30
ATOM     30  O3  UNL     1      28.003  -8.560 -33.801  0.00  0.00    +0.000 OA
ATOM     31  H7  UNL     1      27.566  -8.092 -33.019  0.00  0.00    +0.000 HD
ENDBRANCH  27  30
ENDBRANCH  21  22
ENDBRANCH   2  20
TORSDOF 7
ENDMDL
MODEL 9
REMARK VINA RESULT:    -5.508      5.696      9.370
REMARK INTER + INTRA:          -7.645
REMARK INTER:                  -7.169
REMARK INTRA:                  -0.476
REMARK UNBOUND:                -0.365
REMARK  Name = resultss/4CJN/ligands/lig_185_t1.pdb
REMARK  7 active torsions:
REMARK  status: ('A' for Active; 'I' for Inactive)
REMARK    1  A    between atoms: O1_1  and  C1_2
REMARK    2  A    between atoms: C1_2  and  C9_14
REMARK    3  A    between atoms: N1_3  and  N2_4
REMARK    4  A    between atoms: C2_5  and  C3_6
REMARK    5  A    between atoms: C5_8  and  O2_9
REMARK    6  A    between atoms: C8_12  and  O3_13
REMARK    7  A    between atoms: C12_17  and  C13_18
REMARK                            x       y       z     vdW  Elec       q    Type
REMARK                         _______ _______ _______ _____ _____    ______ ____
ROOT
ATOM      1  C1  UNL     1      27.274  -9.556 -39.067  0.00  0.00    +0.000 C 
ATOM      2  N1  UNL     1      27.178  -8.896 -37.950  0.00  0.00    +0.000 NA
ENDROOT
BRANCH   1   3
ATOM      3  C9  UNL     1      26.513  -9.108 -40.258  0.00  0.00    +0.000 A 
ATOM      4  C10 UNL     1      26.046  -7.785 -40.367  0.00  0.00    +0.000 A 
ATOM      5  C11 UNL     1      25.328  -7.375 -41.493  0.00  0.00    +0.000 A 
ATOM      6  C12 UNL     1      25.060  -8.276 -42.539  0.00  0.00    +0.000 A 
ATOM      7  C20 UNL     1      25.529  -9.596 -42.431  0.00  0.00    +0.000 A 
ATOM      8  C21 UNL     1      26.247 -10.007 -41.304  0.00  0.00    +0.000 A 
BRANCH   6   9
ATOM      9  C13 UNL     1      24.295  -7.831 -43.726  0.00  0.00    +0.000 A 
ATOM     10  N3  UNL     1      24.834  -7.755 -44.971  0.00  0.00    +0.000 NA
ATOM     11  C14 UNL     1      23.926  -7.315 -45.879  0.00  0.00    +0.000 A 
ATOM     12  C15 UNL     1      24.191  -7.135 -47.237  0.00  0.00    +0.000 A 
ATOM     13  C16 UNL     1      23.160  -6.669 -48.071  0.00  0.00    +0.000 A 
ATOM     14  C17 UNL     1      21.884  -6.391 -47.542  0.00  0.00    +0.000 A 
ATOM     15  C18 UNL     1      21.629  -6.576 -46.173  0.00  0.00    +0.000 A 
ATOM     16  C19 UNL     1      22.668  -7.038 -45.370  0.00  0.00    +0.000 A 
ATOM     17  S1  UNL     1      22.666  -7.348 -43.723  0.00  0.00    +0.000 S 
ENDBRANCH   6   9
ENDBRANCH   1   3
BRANCH   1  18
ATOM     18  O1  UNL     1      28.088 -10.690 -39.159  0.00  0.00    +0.000 OA
ATOM     19  H1  UNL     1      28.931 -10.714 -39.719  0.00  0.00    +0.000 HD
ENDBRANCH   1  18
BRANCH   2  20
ATOM     20  N2  UNL     1      27.875  -9.277 -36.795  0.00  0.00    +0.000 NA
ATOM     21  C2  UNL     1      28.503  -8.400 -36.081  0.00  0.00    +0.000 C 
BRANCH  21  22
ATOM     22  C3  UNL     1      29.297  -8.796 -34.900  0.00  0.00    +0.000 A 
ATOM     23  C4  UNL     1      30.628  -9.196 -35.115  0.00  0.00    +0.000 A 
ATOM     24  C5  UNL     1      31.417  -9.660 -34.054  0.00  0.00    +0.000 A 
ATOM     25  C6  UNL     1      30.881  -9.721 -32.767  0.00  0.00    +0.000 A 
ATOM     26  C7  UNL     1      29.571  -9.301 -32.532  0.00  0.00    +0.000 A 
ATOM     27  C8  UNL     1      28.778  -8.814 -33.579  0.00  0.00    +0.000 A 
BRANCH  24  28
ATOM     28  O2  UNL     1      32.730 -10.068 -34.271  0.00  0.00    +0.000 OA
ATOM     29  H4  UNL     1      33.517  -9.512 -33.956  0.00  0.00    +0.000 HD
ENDBRANCH  24  28
BRANCH  27  30
ATOM     30  O3  UNL     1      27.508  -8.330 -33.258  0.00  0.00    +0.000 OA
ATOM     31  H7  UNL     1      26.747  -8.275 -33.921  0.00  0.00    +0.000 HD
ENDBRANCH  27  30
ENDBRANCH  21  22
ENDBRANCH   2  20
TORSDOF 7
ENDMDL
