MODEL 1
REMARK VINA RESULT:    -7.288      0.000      0.000
REMARK INTER + INTRA:         -10.983
REMARK INTER:                 -10.058
REMARK INTRA:                  -0.925
REMARK UNBOUND:                -0.925
REMARK  Name = resultss/4CJN/ligands/lig_239_t1.pdb
REMARK  8 active torsions:
REMARK  status: ('A' for Active; 'I' for Inactive)
REMARK    1  A    between atoms: C1_1  and  O1_2
REMARK    2  A    between atoms: O1_2  and  C2_3
REMARK    3  A    between atoms: C5_6  and  C6_7
REMARK    4  A    between atoms: N1_9  and  C7_10
REMARK    5  A    between atoms: C11_14  and  C12_15
REMARK    6  A    between atoms: C12_15  and  C13_17
REMARK    7  A    between atoms: C13_17  and  C14_18
REMARK    8  A    between atoms: C21_27  and  O4_28
REMARK                            x       y       z     vdW  Elec       q    Type
REMARK                         _______ _______ _______ _____ _____    ______ ____
ROOT
ATOM      1  C7  UNL     1      28.028  -9.111 -40.140  0.00  0.00    +0.000 A 
ATOM      2  C8  UNL     1      29.126  -9.480 -40.929  0.00  0.00    +0.000 A 
ATOM      3  C9  UNL     1      28.977  -9.666 -42.304  0.00  0.00    +0.000 A 
ATOM      4  C10 UNL     1      27.728  -9.497 -42.905  0.00  0.00    +0.000 A 
ATOM      5  C11 UNL     1      26.607  -9.142 -42.132  0.00  0.00    +0.000 A 
ATOM      6  C22 UNL     1      26.766  -8.965 -40.745  0.00  0.00    +0.000 A 
ENDROOT
BRANCH   1   9
ATOM      7  C6  UNL     1      28.193 -10.037 -37.785  0.00  0.00    +0.000 C 
ATOM      8  O2  UNL     1      27.630 -11.122 -38.096  0.00  0.00    +0.000 OA
ATOM      9  N1  UNL     1      28.203  -8.946 -38.722  0.00  0.00    +0.000 N 
ATOM     10  H6  UNL     1      28.218  -7.973 -38.342  0.00  0.00    +0.000 HD
BRANCH   7  14
ATOM     11  C2  UNL     1      29.920  -9.624 -33.861  0.00  0.00    +0.000 A 
ATOM     12  C3  UNL     1      28.554  -9.874 -34.014  0.00  0.00    +0.000 A 
ATOM     13  C4  UNL     1      27.993 -10.009 -35.288  0.00  0.00    +0.000 A 
ATOM     14  C5  UNL     1      28.794  -9.887 -36.437  0.00  0.00    +0.000 A 
ATOM     15  C23 UNL     1      30.170  -9.643 -36.282  0.00  0.00    +0.000 A 
ATOM     16  C24 UNL     1      30.729  -9.510 -35.007  0.00  0.00    +0.000 A 
BRANCH  11  18
ATOM     17  C1  UNL     1      31.672 -10.050 -32.128  0.00  0.00    +0.000 C 
ATOM     18  O1  UNL     1      30.434  -9.496 -32.562  0.00  0.00    +0.000 OA
ENDBRANCH  11  18
ENDBRANCH   7  14
ENDBRANCH   1   9
BRANCH   5  19
ATOM     19  C12 UNL     1      25.267  -8.977 -42.749  0.00  0.00    +0.000 C 
ATOM     20  O3  UNL     1      24.581 -10.001 -43.017  0.00  0.00    +0.000 OA
BRANCH  19  21
ATOM     21  C13 UNL     1      24.726  -7.615 -43.112  0.00  0.00    +0.000 C 
BRANCH  21  22
ATOM     22  C14 UNL     1      24.920  -7.309 -44.573  0.00  0.00    +0.000 A 
ATOM     23  N2  UNL     1      26.167  -6.976 -45.010  0.00  0.00    +0.000 NA
ATOM     24  C15 UNL     1      26.413  -6.700 -46.316  0.00  0.00    +0.000 A 
ATOM     25  C16 UNL     1      27.701  -6.358 -46.743  0.00  0.00    +0.000 A 
ATOM     26  C17 UNL     1      27.934  -6.075 -48.094  0.00  0.00    +0.000 A 
ATOM     27  C18 UNL     1      26.883  -6.135 -49.018  0.00  0.00    +0.000 A 
ATOM     28  C19 UNL     1      25.594  -6.478 -48.595  0.00  0.00    +0.000 A 
ATOM     29  C20 UNL     1      25.356  -6.760 -47.245  0.00  0.00    +0.000 A 
ATOM     30  N3  UNL     1      24.114  -7.098 -46.816  0.00  0.00    +0.000 NA
ATOM     31  C21 UNL     1      23.862  -7.378 -45.509  0.00  0.00    +0.000 A 
BRANCH  31  32
ATOM     32  O4  UNL     1      22.562  -7.729 -45.139  0.00  0.00    +0.000 OA
ATOM     33  H16 UNL     1      21.874  -7.056 -44.833  0.00  0.00    +0.000 HD
ENDBRANCH  31  32
ENDBRANCH  21  22
ENDBRANCH  19  21
ENDBRANCH   5  19
TORSDOF 7
ENDMDL
MODEL 2
REMARK VINA RESULT:    -6.847      4.178      9.607
REMARK INTER + INTRA:         -10.374
REMARK INTER:                  -9.631
REMARK INTRA:                  -0.743
REMARK UNBOUND:                -0.925
REMARK  Name = resultss/4CJN/ligands/lig_239_t1.pdb
REMARK  8 active torsions:
REMARK  status: ('A' for Active; 'I' for Inactive)
REMARK    1  A    between atoms: C1_1  and  O1_2
REMARK    2  A    between atoms: O1_2  and  C2_3
REMARK    3  A    between atoms: C5_6  and  C6_7
REMARK    4  A    between atoms: N1_9  and  C7_10
REMARK    5  A    between atoms: C11_14  and  C12_15
REMARK    6  A    between atoms: C12_15  and  C13_17
REMARK    7  A    between atoms: C13_17  and  C14_18
REMARK    8  A    between atoms: C21_27  and  O4_28
REMARK                            x       y       z     vdW  Elec       q    Type
REMARK                         _______ _______ _______ _____ _____    ______ ____
ROOT
ATOM      1  C7  UNL     1      28.086  -9.122 -42.244  0.00  0.00    +0.000 A 
ATOM      2  C8  UNL     1      26.944  -9.499 -42.964  0.00  0.00    +0.000 A 
ATOM      3  C9  UNL     1      25.673  -9.148 -42.507  0.00  0.00    +0.000 A 
ATOM      4  C10 UNL     1      25.527  -8.425 -41.321  0.00  0.00    +0.000 A 
ATOM      5  C11 UNL     1      26.657  -8.048 -40.572  0.00  0.00    +0.000 A 
ATOM      6  C22 UNL     1      27.934  -8.414 -41.037  0.00  0.00    +0.000 A 
ENDROOT
BRANCH   1   9
ATOM      7  C6  UNL     1      29.977 -10.796 -42.460  0.00  0.00    +0.000 C 
ATOM      8  O2  UNL     1      29.584 -11.476 -41.473  0.00  0.00    +0.000 OA
ATOM      9  N1  UNL     1      29.384  -9.513 -42.725  0.00  0.00    +0.000 N 
ATOM     10  H6  UNL     1      29.974  -8.786 -43.187  0.00  0.00    +0.000 HD
BRANCH   7  14
ATOM     11  C2  UNL     1      33.199 -12.270 -44.910  0.00  0.00    +0.000 A 
ATOM     12  C3  UNL     1      32.920 -10.902 -44.849  0.00  0.00    +0.000 A 
ATOM     13  C4  UNL     1      31.875 -10.423 -44.053  0.00  0.00    +0.000 A 
ATOM     14  C5  UNL     1      31.081 -11.312 -43.307  0.00  0.00    +0.000 A 
ATOM     15  C23 UNL     1      31.368 -12.688 -43.362  0.00  0.00    +0.000 A 
ATOM     16  C24 UNL     1      32.415 -13.164 -44.158  0.00  0.00    +0.000 A 
BRANCH  11  18
ATOM     17  C1  UNL     1      34.126 -13.633 -46.790  0.00  0.00    +0.000 C 
ATOM     18  O1  UNL     1      34.258 -12.699 -45.724  0.00  0.00    +0.000 OA
ENDBRANCH  11  18
ENDBRANCH   7  14
ENDBRANCH   1   9
BRANCH   5  19
ATOM     19  C12 UNL     1      26.522  -7.296 -39.299  0.00  0.00    +0.000 C 
ATOM     20  O3  UNL     1      25.621  -6.418 -39.194  0.00  0.00    +0.000 OA
BRANCH  19  21
ATOM     21  C13 UNL     1      27.467  -7.520 -38.144  0.00  0.00    +0.000 C 
BRANCH  21  22
ATOM     22  C14 UNL     1      26.759  -8.094 -36.946  0.00  0.00    +0.000 A 
ATOM     23  N2  UNL     1      25.990  -7.267 -36.184  0.00  0.00    +0.000 NA
ATOM     24  C15 UNL     1      25.315  -7.721 -35.098  0.00  0.00    +0.000 A 
ATOM     25  C16 UNL     1      24.533  -6.854 -34.328  0.00  0.00    +0.000 A 
ATOM     26  C17 UNL     1      23.846  -7.342 -33.211  0.00  0.00    +0.000 A 
ATOM     27  C18 UNL     1      23.939  -8.695 -32.863  0.00  0.00    +0.000 A 
ATOM     28  C19 UNL     1      24.720  -9.567 -33.631  0.00  0.00    +0.000 A 
ATOM     29  C20 UNL     1      25.409  -9.082 -34.748  0.00  0.00    +0.000 A 
ATOM     30  N3  UNL     1      26.168  -9.912 -35.508  0.00  0.00    +0.000 NA
ATOM     31  C21 UNL     1      26.845  -9.462 -36.598  0.00  0.00    +0.000 A 
BRANCH  31  32
ATOM     32  O4  UNL     1      27.598 -10.373 -37.341  0.00  0.00    +0.000 OA
ATOM     33  H16 UNL     1      28.164 -11.096 -36.919  0.00  0.00    +0.000 HD
ENDBRANCH  31  32
ENDBRANCH  21  22
ENDBRANCH  19  21
ENDBRANCH   5  19
TORSDOF 7
ENDMDL
MODEL 3
REMARK VINA RESULT:    -6.747      5.679     10.151
REMARK INTER + INTRA:         -10.237
REMARK INTER:                  -9.462
REMARK INTRA:                  -0.775
REMARK UNBOUND:                -0.925
REMARK  Name = resultss/4CJN/ligands/lig_239_t1.pdb
REMARK  8 active torsions:
REMARK  status: ('A' for Active; 'I' for Inactive)
REMARK    1  A    between atoms: C1_1  and  O1_2
REMARK    2  A    between atoms: O1_2  and  C2_3
REMARK    3  A    between atoms: C5_6  and  C6_7
REMARK    4  A    between atoms: N1_9  and  C7_10
REMARK    5  A    between atoms: C11_14  and  C12_15
REMARK    6  A    between atoms: C12_15  and  C13_17
REMARK    7  A    between atoms: C13_17  and  C14_18
REMARK    8  A    between atoms: C21_27  and  O4_28
REMARK                            x       y       z     vdW  Elec       q    Type
REMARK                         _______ _______ _______ _____ _____    ______ ____
ROOT
ATOM      1  C7  UNL     1      31.347  -9.271 -40.170  0.00  0.00    +0.000 A 
ATOM      2  C8  UNL     1      31.535  -7.918 -40.481  0.00  0.00    +0.000 A 
ATOM      3  C9  UNL     1      31.094  -6.924 -39.606  0.00  0.00    +0.000 A 
ATOM      4  C10 UNL     1      30.451  -7.270 -38.415  0.00  0.00    +0.000 A 
ATOM      5  C11 UNL     1      30.237  -8.622 -38.088  0.00  0.00    +0.000 A 
ATOM      6  C22 UNL     1      30.678  -9.616 -38.981  0.00  0.00    +0.000 A 
ENDROOT
BRANCH   1   9
ATOM      7  C6  UNL     1      31.079 -10.622 -42.299  0.00  0.00    +0.000 C 
ATOM      8  O2  UNL     1      29.847 -10.367 -42.391  0.00  0.00    +0.000 OA
ATOM      9  N1  UNL     1      31.791 -10.276 -41.098  0.00  0.00    +0.000 N 
ATOM     10  H6  UNL     1      32.608 -10.866 -40.825  0.00  0.00    +0.000 HD
BRANCH   7  14
ATOM     11  C2  UNL     1      33.044 -12.669 -45.540  0.00  0.00    +0.000 A 
ATOM     12  C3  UNL     1      32.274 -13.377 -44.614  0.00  0.00    +0.000 A 
ATOM     13  C4  UNL     1      31.635 -12.713 -43.562  0.00  0.00    +0.000 A 
ATOM     14  C5  UNL     1      31.764 -11.321 -43.414  0.00  0.00    +0.000 A 
ATOM     15  C23 UNL     1      32.533 -10.607 -44.351  0.00  0.00    +0.000 A 
ATOM     16  C24 UNL     1      33.169 -11.274 -45.403  0.00  0.00    +0.000 A 
BRANCH  11  18
ATOM     17  C1  UNL     1      33.979 -14.769 -46.523  0.00  0.00    +0.000 C 
ATOM     18  O1  UNL     1      33.665 -13.381 -46.577  0.00  0.00    +0.000 OA
ENDBRANCH  11  18
ENDBRANCH   7  14
ENDBRANCH   1   9
BRANCH   5  19
ATOM     19  C12 UNL     1      29.538  -9.010 -36.836  0.00  0.00    +0.000 C 
ATOM     20  O3  UNL     1      29.919  -8.516 -35.739  0.00  0.00    +0.000 OA
BRANCH  19  21
ATOM     21  C13 UNL     1      28.418 -10.020 -36.837  0.00  0.00    +0.000 C 
BRANCH  21  22
ATOM     22  C14 UNL     1      27.287  -9.601 -35.936  0.00  0.00    +0.000 A 
ATOM     23  N2  UNL     1      26.176  -9.047 -36.498  0.00  0.00    +0.000 NA
ATOM     24  C15 UNL     1      25.115  -8.658 -35.745  0.00  0.00    +0.000 A 
ATOM     25  C16 UNL     1      23.986  -8.088 -36.343  0.00  0.00    +0.000 A 
ATOM     26  C17 UNL     1      22.903  -7.693 -35.548  0.00  0.00    +0.000 A 
ATOM     27  C18 UNL     1      22.948  -7.867 -34.160  0.00  0.00    +0.000 A 
ATOM     28  C19 UNL     1      24.076  -8.437 -33.558  0.00  0.00    +0.000 A 
ATOM     29  C20 UNL     1      25.161  -8.833 -34.348  0.00  0.00    +0.000 A 
ATOM     30  N3  UNL     1      26.262  -9.391 -33.785  0.00  0.00    +0.000 NA
ATOM     31  C21 UNL     1      27.326  -9.784 -34.535  0.00  0.00    +0.000 A 
BRANCH  31  32
ATOM     32  O4  UNL     1      28.422 -10.361 -33.890  0.00  0.00    +0.000 OA
ATOM     33  H16 UNL     1      28.573 -10.296 -32.893  0.00  0.00    +0.000 HD
ENDBRANCH  31  32
ENDBRANCH  21  22
ENDBRANCH  19  21
ENDBRANCH   5  19
TORSDOF 7
ENDMDL
MODEL 4
REMARK VINA RESULT:    -6.730      3.604      9.558
REMARK INTER + INTRA:         -10.213
REMARK INTER:                  -9.346
REMARK INTRA:                  -0.867
REMARK UNBOUND:                -0.925
REMARK  Name = resultss/4CJN/ligands/lig_239_t1.pdb
REMARK  8 active torsions:
REMARK  status: ('A' for Active; 'I' for Inactive)
REMARK    1  A    between atoms: C1_1  and  O1_2
REMARK    2  A    between atoms: O1_2  and  C2_3
REMARK    3  A    between atoms: C5_6  and  C6_7
REMARK    4  A    between atoms: N1_9  and  C7_10
REMARK    5  A    between atoms: C11_14  and  C12_15
REMARK    6  A    between atoms: C12_15  and  C13_17
REMARK    7  A    between atoms: C13_17  and  C14_18
REMARK    8  A    between atoms: C21_27  and  O4_28
REMARK                            x       y       z     vdW  Elec       q    Type
REMARK                         _______ _______ _______ _____ _____    ______ ____
ROOT
ATOM      1  C7  UNL     1      28.139  -8.859 -42.389  0.00  0.00    +0.000 A 
ATOM      2  C8  UNL     1      27.153  -8.713 -43.374  0.00  0.00    +0.000 A 
ATOM      3  C9  UNL     1      25.875  -8.269 -43.034  0.00  0.00    +0.000 A 
ATOM      4  C10 UNL     1      25.563  -7.974 -41.705  0.00  0.00    +0.000 A 
ATOM      5  C11 UNL     1      26.531  -8.127 -40.695  0.00  0.00    +0.000 A 
ATOM      6  C22 UNL     1      27.815  -8.585 -41.048  0.00  0.00    +0.000 A 
ENDROOT
BRANCH   1   9
ATOM      7  C6  UNL     1      29.925 -10.658 -42.449  0.00  0.00    +0.000 C 
ATOM      8  O2  UNL     1      29.408 -11.304 -41.497  0.00  0.00    +0.000 OA
ATOM      9  N1  UNL     1      29.443  -9.339 -42.762  0.00  0.00    +0.000 N 
ATOM     10  H6  UNL     1      30.115  -8.655 -43.174  0.00  0.00    +0.000 HD
BRANCH   7  14
ATOM     11  C2  UNL     1      33.229 -12.355 -44.631  0.00  0.00    +0.000 A 
ATOM     12  C3  UNL     1      32.922 -10.996 -44.747  0.00  0.00    +0.000 A 
ATOM     13  C4  UNL     1      31.850 -10.445 -44.038  0.00  0.00    +0.000 A 
ATOM     14  C5  UNL     1      31.057 -11.251 -43.202  0.00  0.00    +0.000 A 
ATOM     15  C23 UNL     1      31.371 -12.616 -43.080  0.00  0.00    +0.000 A 
ATOM     16  C24 UNL     1      32.445 -13.165 -43.789  0.00  0.00    +0.000 A 
BRANCH  11  18
ATOM     17  C1  UNL     1      34.210 -13.436 -46.660  0.00  0.00    +0.000 C 
ATOM     18  O1  UNL     1      34.314 -12.859 -45.363  0.00  0.00    +0.000 OA
ENDBRANCH  11  18
ENDBRANCH   7  14
ENDBRANCH   1   9
BRANCH   5  19
ATOM     19  C12 UNL     1      26.214  -7.838 -39.273  0.00  0.00    +0.000 C 
ATOM     20  O3  UNL     1      26.369  -6.666 -38.833  0.00  0.00    +0.000 OA
BRANCH  19  21
ATOM     21  C13 UNL     1      25.759  -8.924 -38.328  0.00  0.00    +0.000 C 
BRANCH  21  22
ATOM     22  C14 UNL     1      26.751  -9.150 -37.219  0.00  0.00    +0.000 A 
ATOM     23  N2  UNL     1      26.566  -8.500 -36.036  0.00  0.00    +0.000 NA
ATOM     24  C15 UNL     1      27.416  -8.668 -34.991  0.00  0.00    +0.000 A 
ATOM     25  C16 UNL     1      27.209  -7.988 -33.786  0.00  0.00    +0.000 A 
ATOM     26  C17 UNL     1      28.098  -8.174 -32.720  0.00  0.00    +0.000 A 
ATOM     27  C18 UNL     1      29.191  -9.038 -32.858  0.00  0.00    +0.000 A 
ATOM     28  C19 UNL     1      29.401  -9.720 -34.061  0.00  0.00    +0.000 A 
ATOM     29  C20 UNL     1      28.516  -9.537 -35.129  0.00  0.00    +0.000 A 
ATOM     30  N3  UNL     1      28.700 -10.192 -36.303  0.00  0.00    +0.000 NA
ATOM     31  C21 UNL     1      27.851 -10.029 -37.352  0.00  0.00    +0.000 A 
BRANCH  31  32
ATOM     32  O4  UNL     1      28.094 -10.743 -38.527  0.00  0.00    +0.000 OA
ATOM     33  H16 UNL     1      29.008 -10.810 -38.954  0.00  0.00    +0.000 HD
ENDBRANCH  31  32
ENDBRANCH  21  22
ENDBRANCH  19  21
ENDBRANCH   5  19
TORSDOF 7
ENDMDL
MODEL 5
REMARK VINA RESULT:    -6.683      4.282      8.274
REMARK INTER + INTRA:         -10.148
REMARK INTER:                  -9.113
REMARK INTRA:                  -1.035
REMARK UNBOUND:                -0.925
REMARK  Name = resultss/4CJN/ligands/lig_239_t1.pdb
REMARK  8 active torsions:
REMARK  status: ('A' for Active; 'I' for Inactive)
REMARK    1  A    between atoms: C1_1  and  O1_2
REMARK    2  A    between atoms: O1_2  and  C2_3
REMARK    3  A    between atoms: C5_6  and  C6_7
REMARK    4  A    between atoms: N1_9  and  C7_10
REMARK    5  A    between atoms: C11_14  and  C12_15
REMARK    6  A    between atoms: C12_15  and  C13_17
REMARK    7  A    between atoms: C13_17  and  C14_18
REMARK    8  A    between atoms: C21_27  and  O4_28
REMARK                            x       y       z     vdW  Elec       q    Type
REMARK                         _______ _______ _______ _____ _____    ______ ____
ROOT
ATOM      1  C7  UNL     1      31.790  -9.443 -40.350  0.00  0.00    +0.000 A 
ATOM      2  C8  UNL     1      32.417  -8.190 -40.331  0.00  0.00    +0.000 A 
ATOM      3  C9  UNL     1      32.037  -7.223 -39.400  0.00  0.00    +0.000 A 
ATOM      4  C10 UNL     1      31.019  -7.493 -38.482  0.00  0.00    +0.000 A 
ATOM      5  C11 UNL     1      30.364  -8.738 -38.491  0.00  0.00    +0.000 A 
ATOM      6  C22 UNL     1      30.749  -9.703 -39.440  0.00  0.00    +0.000 A 
ENDROOT
BRANCH   1   9
ATOM      7  C6  UNL     1      31.384 -10.763 -42.477  0.00  0.00    +0.000 C 
ATOM      8  O2  UNL     1      30.141 -10.548 -42.458  0.00  0.00    +0.000 OA
ATOM      9  N1  UNL     1      32.185 -10.415 -41.334  0.00  0.00    +0.000 N 
ATOM     10  H6  UNL     1      33.041 -10.982 -41.144  0.00  0.00    +0.000 HD
BRANCH   7  14
ATOM     11  C2  UNL     1      33.127 -12.680 -45.918  0.00  0.00    +0.000 A 
ATOM     12  C3  UNL     1      32.395 -13.420 -44.985  0.00  0.00    +0.000 A 
ATOM     13  C4  UNL     1      31.829 -12.798 -43.868  0.00  0.00    +0.000 A 
ATOM     14  C5  UNL     1      31.993 -11.417 -43.661  0.00  0.00    +0.000 A 
ATOM     15  C23 UNL     1      32.722 -10.671 -44.604  0.00  0.00    +0.000 A 
ATOM     16  C24 UNL     1      33.287 -11.295 -45.721  0.00  0.00    +0.000 A 
BRANCH  11  18
ATOM     17  C1  UNL     1      33.481 -14.734 -47.299  0.00  0.00    +0.000 C 
ATOM     18  O1  UNL     1      33.676 -13.351 -47.021  0.00  0.00    +0.000 OA
ENDBRANCH  11  18
ENDBRANCH   7  14
ENDBRANCH   1   9
BRANCH   5  19
ATOM     19  C12 UNL     1      29.265  -9.036 -37.537  0.00  0.00    +0.000 C 
ATOM     20  O3  UNL     1      29.191  -8.385 -36.459  0.00  0.00    +0.000 OA
BRANCH  19  21
ATOM     21  C13 UNL     1      28.266 -10.136 -37.801  0.00  0.00    +0.000 C 
BRANCH  21  22
ATOM     22  C14 UNL     1      27.109  -9.650 -38.632  0.00  0.00    +0.000 A 
ATOM     23  N2  UNL     1      27.123  -9.889 -39.974  0.00  0.00    +0.000 NA
ATOM     24  C15 UNL     1      26.107  -9.490 -40.779  0.00  0.00    +0.000 A 
ATOM     25  C16 UNL     1      26.144  -9.742 -42.155  0.00  0.00    +0.000 A 
ATOM     26  C17 UNL     1      25.086  -9.321 -42.969  0.00  0.00    +0.000 A 
ATOM     27  C18 UNL     1      23.992  -8.649 -42.410  0.00  0.00    +0.000 A 
ATOM     28  C19 UNL     1      23.951  -8.395 -41.034  0.00  0.00    +0.000 A 
ATOM     29  C20 UNL     1      25.006  -8.814 -40.217  0.00  0.00    +0.000 A 
ATOM     30  N3  UNL     1      24.983  -8.580 -38.880  0.00  0.00    +0.000 NA
ATOM     31  C21 UNL     1      25.998  -8.980 -38.069  0.00  0.00    +0.000 A 
BRANCH  31  32
ATOM     32  O4  UNL     1      25.904  -8.717 -36.701  0.00  0.00    +0.000 OA
ATOM     33  H16 UNL     1      26.664  -8.330 -36.158  0.00  0.00    +0.000 HD
ENDBRANCH  31  32
ENDBRANCH  21  22
ENDBRANCH  19  21
ENDBRANCH   5  19
TORSDOF 7
ENDMDL
MODEL 6
REMARK VINA RESULT:    -6.676      2.801     10.848
REMARK INTER + INTRA:         -10.138
REMARK INTER:                  -9.306
REMARK INTRA:                  -0.833
REMARK UNBOUND:                -0.925
REMARK  Name = resultss/4CJN/ligands/lig_239_t1.pdb
REMARK  8 active torsions:
REMARK  status: ('A' for Active; 'I' for Inactive)
REMARK    1  A    between atoms: C1_1  and  O1_2
REMARK    2  A    between atoms: O1_2  and  C2_3
REMARK    3  A    between atoms: C5_6  and  C6_7
REMARK    4  A    between atoms: N1_9  and  C7_10
REMARK    5  A    between atoms: C11_14  and  C12_15
REMARK    6  A    between atoms: C12_15  and  C13_17
REMARK    7  A    between atoms: C13_17  and  C14_18
REMARK    8  A    between atoms: C21_27  and  O4_28
REMARK                            x       y       z     vdW  Elec       q    Type
REMARK                         _______ _______ _______ _____ _____    ______ ____
ROOT
ATOM      1  C7  UNL     1      26.406  -9.275 -42.262  0.00  0.00    +0.000 A 
ATOM      2  C8  UNL     1      27.561  -9.480 -43.028  0.00  0.00    +0.000 A 
ATOM      3  C9  UNL     1      28.763  -9.833 -42.415  0.00  0.00    +0.000 A 
ATOM      4  C10 UNL     1      28.829  -9.975 -41.027  0.00  0.00    +0.000 A 
ATOM      5  C11 UNL     1      27.687  -9.759 -40.234  0.00  0.00    +0.000 A 
ATOM      6  C22 UNL     1      26.481  -9.395 -40.862  0.00  0.00    +0.000 A 
ENDROOT
BRANCH   1   9
ATOM      7  C6  UNL     1      24.953  -7.584 -43.469  0.00  0.00    +0.000 C 
ATOM      8  O2  UNL     1      25.628  -6.602 -43.056  0.00  0.00    +0.000 OA
ATOM      9  N1  UNL     1      25.183  -8.891 -42.916  0.00  0.00    +0.000 N 
ATOM     10  H6  UNL     1      24.381  -9.558 -42.880  0.00  0.00    +0.000 HD
BRANCH   7  14
ATOM     11  C2  UNL     1      21.896  -6.971 -46.441  0.00  0.00    +0.000 A 
ATOM     12  C3  UNL     1      23.207  -7.272 -46.820  0.00  0.00    +0.000 A 
ATOM     13  C4  UNL     1      24.199  -7.472 -45.856  0.00  0.00    +0.000 A 
ATOM     14  C5  UNL     1      23.896  -7.365 -44.487  0.00  0.00    +0.000 A 
ATOM     15  C23 UNL     1      22.575  -7.070 -44.106  0.00  0.00    +0.000 A 
ATOM     16  C24 UNL     1      21.584  -6.872 -45.073  0.00  0.00    +0.000 A 
BRANCH  11  18
ATOM     17  C1  UNL     1      21.244  -6.585 -48.824  0.00  0.00    +0.000 C 
ATOM     18  O1  UNL     1      20.937  -6.779 -47.447  0.00  0.00    +0.000 OA
ENDBRANCH  11  18
ENDBRANCH   7  14
ENDBRANCH   1   9
BRANCH   5  19
ATOM     19  C12 UNL     1      27.741  -9.886 -38.755  0.00  0.00    +0.000 C 
ATOM     20  O3  UNL     1      27.670 -11.032 -38.231  0.00  0.00    +0.000 OA
BRANCH  19  21
ATOM     21  C13 UNL     1      27.827  -8.674 -37.860  0.00  0.00    +0.000 C 
BRANCH  21  22
ATOM     22  C14 UNL     1      26.955  -8.816 -36.641  0.00  0.00    +0.000 A 
ATOM     23  N2  UNL     1      25.689  -8.314 -36.683  0.00  0.00    +0.000 NA
ATOM     24  C15 UNL     1      24.846  -8.419 -35.624  0.00  0.00    +0.000 A 
ATOM     25  C16 UNL     1      23.551  -7.893 -35.687  0.00  0.00    +0.000 A 
ATOM     26  C17 UNL     1      22.697  -8.011 -34.584  0.00  0.00    +0.000 A 
ATOM     27  C18 UNL     1      23.136  -8.653 -33.420  0.00  0.00    +0.000 A 
ATOM     28  C19 UNL     1      24.431  -9.181 -33.353  0.00  0.00    +0.000 A 
ATOM     29  C20 UNL     1      25.287  -9.065 -34.453  0.00  0.00    +0.000 A 
ATOM     30  N3  UNL     1      26.545  -9.574 -34.409  0.00  0.00    +0.000 NA
ATOM     31  C21 UNL     1      27.392  -9.473 -35.468  0.00  0.00    +0.000 A 
BRANCH  31  32
ATOM     32  O4  UNL     1      28.668 -10.028 -35.358  0.00  0.00    +0.000 OA
ATOM     33  H16 UNL     1      29.255 -10.228 -36.157  0.00  0.00    +0.000 HD
ENDBRANCH  31  32
ENDBRANCH  21  22
ENDBRANCH  19  21
ENDBRANCH   5  19
TORSDOF 7
ENDMDL
MODEL 7
REMARK VINA RESULT:    -6.425      4.367      6.462
REMARK INTER + INTRA:          -9.791
REMARK INTER:                  -8.593
REMARK INTRA:                  -1.198
REMARK UNBOUND:                -0.925
REMARK  Name = resultss/4CJN/ligands/lig_239_t1.pdb
REMARK  8 active torsions:
REMARK  status: ('A' for Active; 'I' for Inactive)
REMARK    1  A    between atoms: C1_1  and  O1_2
REMARK    2  A    between atoms: O1_2  and  C2_3
REMARK    3  A    between atoms: C5_6  and  C6_7
REMARK    4  A    between atoms: N1_9  and  C7_10
REMARK    5  A    between atoms: C11_14  and  C12_15
REMARK    6  A    between atoms: C12_15  and  C13_17
REMARK    7  A    between atoms: C13_17  and  C14_18
REMARK    8  A    between atoms: C21_27  and  O4_28
REMARK                            x       y       z     vdW  Elec       q    Type
REMARK                         _______ _______ _______ _____ _____    ______ ____
ROOT
ATOM      1  C7  UNL     1      25.155  -8.505 -34.060  0.00  0.00    +0.000 A 
ATOM      2  C8  UNL     1      24.076  -8.979 -33.301  0.00  0.00    +0.000 A 
ATOM      3  C9  UNL     1      22.767  -8.641 -33.647  0.00  0.00    +0.000 A 
ATOM      4  C10 UNL     1      22.520  -7.818 -34.749  0.00  0.00    +0.000 A 
ATOM      5  C11 UNL     1      23.587  -7.318 -35.517  0.00  0.00    +0.000 A 
ATOM      6  C22 UNL     1      24.905  -7.658 -35.155  0.00  0.00    +0.000 A 
ENDROOT
BRANCH   1   9
ATOM      7  C6  UNL     1      27.394  -9.612 -34.497  0.00  0.00    +0.000 C 
ATOM      8  O2  UNL     1      26.930 -10.354 -35.405  0.00  0.00    +0.000 OA
ATOM      9  N1  UNL     1      26.496  -8.850 -33.671  0.00  0.00    +0.000 N 
ATOM     10  H6  UNL     1      26.790  -8.640 -32.691  0.00  0.00    +0.000 HD
BRANCH   7  14
ATOM     11  C2  UNL     1      31.650  -9.481 -33.844  0.00  0.00    +0.000 A 
ATOM     12  C3  UNL     1      31.130  -9.539 -35.140  0.00  0.00    +0.000 A 
ATOM     13  C4  UNL     1      29.749  -9.580 -35.352  0.00  0.00    +0.000 A 
ATOM     14  C5  UNL     1      28.858  -9.573 -34.264  0.00  0.00    +0.000 A 
ATOM     15  C23 UNL     1      29.382  -9.506 -32.960  0.00  0.00    +0.000 A 
ATOM     16  C24 UNL     1      30.764  -9.463 -32.750  0.00  0.00    +0.000 A 
BRANCH  11  18
ATOM     17  C1  UNL     1      33.743 -10.015 -32.586  0.00  0.00    +0.000 C 
ATOM     18  O1  UNL     1      33.043  -9.441 -33.684  0.00  0.00    +0.000 OA
ENDBRANCH  11  18
ENDBRANCH   7  14
ENDBRANCH   1   9
BRANCH   5  19
ATOM     19  C12 UNL     1      23.347  -6.427 -36.680  0.00  0.00    +0.000 C 
ATOM     20  O3  UNL     1      22.163  -6.107 -36.978  0.00  0.00    +0.000 OA
BRANCH  19  21
ATOM     21  C13 UNL     1      24.481  -5.935 -37.547  0.00  0.00    +0.000 C 
BRANCH  21  22
ATOM     22  C14 UNL     1      24.956  -6.998 -38.501  0.00  0.00    +0.000 A 
ATOM     23  N2  UNL     1      26.083  -7.697 -38.192  0.00  0.00    +0.000 NA
ATOM     24  C15 UNL     1      26.559  -8.676 -39.002  0.00  0.00    +0.000 A 
ATOM     25  C16 UNL     1      27.721  -9.379 -38.666  0.00  0.00    +0.000 A 
ATOM     26  C17 UNL     1      28.197 -10.385 -39.516  0.00  0.00    +0.000 A 
ATOM     27  C18 UNL     1      27.512 -10.689 -40.699  0.00  0.00    +0.000 A 
ATOM     28  C19 UNL     1      26.349  -9.989 -41.038  0.00  0.00    +0.000 A 
ATOM     29  C20 UNL     1      25.870  -8.982 -40.192  0.00  0.00    +0.000 A 
ATOM     30  N3  UNL     1      24.742  -8.294 -40.501  0.00  0.00    +0.000 NA
ATOM     31  C21 UNL     1      24.260  -7.313 -39.692  0.00  0.00    +0.000 A 
BRANCH  31  32
ATOM     32  O4  UNL     1      23.088  -6.654 -40.066  0.00  0.00    +0.000 OA
ATOM     33  H16 UNL     1      23.059  -5.672 -40.308  0.00  0.00    +0.000 HD
ENDBRANCH  31  32
ENDBRANCH  21  22
ENDBRANCH  19  21
ENDBRANCH   5  19
TORSDOF 7
ENDMDL
MODEL 8
REMARK VINA RESULT:    -6.367      2.451      3.561
REMARK INTER + INTRA:          -9.712
REMARK INTER:                  -8.969
REMARK INTRA:                  -0.743
REMARK UNBOUND:                -0.925
REMARK  Name = resultss/4CJN/ligands/lig_239_t1.pdb
REMARK  8 active torsions:
REMARK  status: ('A' for Active; 'I' for Inactive)
REMARK    1  A    between atoms: C1_1  and  O1_2
REMARK    2  A    between atoms: O1_2  and  C2_3
REMARK    3  A    between atoms: C5_6  and  C6_7
REMARK    4  A    between atoms: N1_9  and  C7_10
REMARK    5  A    between atoms: C11_14  and  C12_15
REMARK    6  A    between atoms: C12_15  and  C13_17
REMARK    7  A    between atoms: C13_17  and  C14_18
REMARK    8  A    between atoms: C21_27  and  O4_28
REMARK                            x       y       z     vdW  Elec       q    Type
REMARK                         _______ _______ _______ _____ _____    ______ ____
ROOT
ATOM      1  C7  UNL     1      28.218  -9.141 -40.190  0.00  0.00    +0.000 A 
ATOM      2  C8  UNL     1      29.280  -9.677 -40.932  0.00  0.00    +0.000 A 
ATOM      3  C9  UNL     1      29.148  -9.883 -42.306  0.00  0.00    +0.000 A 
ATOM      4  C10 UNL     1      27.952  -9.566 -42.954  0.00  0.00    +0.000 A 
ATOM      5  C11 UNL     1      26.867  -9.041 -42.229  0.00  0.00    +0.000 A 
ATOM      6  C22 UNL     1      27.006  -8.845 -40.842  0.00  0.00    +0.000 A 
ENDROOT
BRANCH   1   9
ATOM      7  C6  UNL     1      28.270 -10.027 -37.816  0.00  0.00    +0.000 C 
ATOM      8  O2  UNL     1      27.646 -11.081 -38.119  0.00  0.00    +0.000 OA
ATOM      9  N1  UNL     1      28.370  -8.958 -38.772  0.00  0.00    +0.000 N 
ATOM     10  H6  UNL     1      28.438  -7.981 -38.410  0.00  0.00    +0.000 HD
BRANCH   7  14
ATOM     11  C2  UNL     1      29.930  -9.645 -33.859  0.00  0.00    +0.000 A 
ATOM     12  C3  UNL     1      28.562  -9.866 -34.039  0.00  0.00    +0.000 A 
ATOM     13  C4  UNL     1      28.023  -9.991 -35.323  0.00  0.00    +0.000 A 
ATOM     14  C5  UNL     1      28.848  -9.888 -36.457  0.00  0.00    +0.000 A 
ATOM     15  C23 UNL     1      30.226  -9.674 -36.275  0.00  0.00    +0.000 A 
ATOM     16  C24 UNL     1      30.763  -9.551 -34.990  0.00  0.00    +0.000 A 
BRANCH  11  18
ATOM     17  C1  UNL     1      31.722  -9.934 -32.140  0.00  0.00    +0.000 C 
ATOM     18  O1  UNL     1      30.421  -9.526 -32.551  0.00  0.00    +0.000 OA
ENDBRANCH  11  18
ENDBRANCH   7  14
ENDBRANCH   1   9
BRANCH   5  19
ATOM     19  C12 UNL     1      25.580  -8.716 -42.895  0.00  0.00    +0.000 C 
ATOM     20  O3  UNL     1      24.838  -9.656 -43.293  0.00  0.00    +0.000 OA
BRANCH  19  21
ATOM     21  C13 UNL     1      25.162  -7.290 -43.155  0.00  0.00    +0.000 C 
BRANCH  21  22
ATOM     22  C14 UNL     1      23.665  -7.150 -43.223  0.00  0.00    +0.000 A 
ATOM     23  N2  UNL     1      23.078  -7.001 -44.443  0.00  0.00    +0.000 NA
ATOM     24  C15 UNL     1      21.732  -6.882 -44.577  0.00  0.00    +0.000 A 
ATOM     25  C16 UNL     1      21.151  -6.726 -45.839  0.00  0.00    +0.000 A 
ATOM     26  C17 UNL     1      19.761  -6.604 -45.956  0.00  0.00    +0.000 A 
ATOM     27  C18 UNL     1      18.953  -6.637 -44.812  0.00  0.00    +0.000 A 
ATOM     28  C19 UNL     1      19.532  -6.793 -43.547  0.00  0.00    +0.000 A 
ATOM     29  C20 UNL     1      20.920  -6.915 -43.427  0.00  0.00    +0.000 A 
ATOM     30  N3  UNL     1      21.499  -7.071 -42.209  0.00  0.00    +0.000 NA
ATOM     31  C21 UNL     1      22.847  -7.192 -42.071  0.00  0.00    +0.000 A 
BRANCH  31  32
ATOM     32  O4  UNL     1      23.374  -7.361 -40.789  0.00  0.00    +0.000 OA
ATOM     33  H16 UNL     1      23.672  -8.257 -40.427  0.00  0.00    +0.000 HD
ENDBRANCH  31  32
ENDBRANCH  21  22
ENDBRANCH  19  21
ENDBRANCH   5  19
TORSDOF 7
ENDMDL
MODEL 9
REMARK VINA RESULT:    -5.447      3.697      6.452
REMARK INTER + INTRA:          -8.442
REMARK INTER:                  -7.456
REMARK INTRA:                  -0.986
REMARK UNBOUND:                -0.925
REMARK  Name = resultss/4CJN/ligands/lig_239_t1.pdb
REMARK  8 active torsions:
REMARK  status: ('A' for Active; 'I' for Inactive)
REMARK    1  A    between atoms: C1_1  and  O1_2
REMARK    2  A    between atoms: O1_2  and  C2_3
REMARK    3  A    between atoms: C5_6  and  C6_7
REMARK    4  A    between atoms: N1_9  and  C7_10
REMARK    5  A    between atoms: C11_14  and  C12_15
REMARK    6  A    between atoms: C12_15  and  C13_17
REMARK    7  A    between atoms: C13_17  and  C14_18
REMARK    8  A    between atoms: C21_27  and  O4_28
REMARK                            x       y       z     vdW  Elec       q    Type
REMARK                         _______ _______ _______ _____ _____    ______ ____
ROOT
ATOM      1  C7  UNL     1      29.502  -9.282 -41.798  0.00  0.00    +0.000 A 
ATOM      2  C8  UNL     1      29.683  -8.646 -40.562  0.00  0.00    +0.000 A 
ATOM      3  C9  UNL     1      28.593  -8.109 -39.877  0.00  0.00    +0.000 A 
ATOM      4  C10 UNL     1      27.310  -8.191 -40.422  0.00  0.00    +0.000 A 
ATOM      5  C11 UNL     1      27.103  -8.811 -41.668  0.00  0.00    +0.000 A 
ATOM      6  C22 UNL     1      28.211  -9.342 -42.356  0.00  0.00    +0.000 A 
ENDROOT
BRANCH   1   9
ATOM      7  C6  UNL     1      30.821 -11.206 -42.791  0.00  0.00    +0.000 C 
ATOM      8  O2  UNL     1      30.207 -12.072 -42.111  0.00  0.00    +0.000 OA
ATOM      9  N1  UNL     1      30.644  -9.809 -42.495  0.00  0.00    +0.000 N 
ATOM     10  H6  UNL     1      31.440  -9.162 -42.688  0.00  0.00    +0.000 HD
BRANCH   7  14
ATOM     11  C2  UNL     1      33.517 -12.498 -45.893  0.00  0.00    +0.000 A 
ATOM     12  C3  UNL     1      32.741 -13.425 -45.192  0.00  0.00    +0.000 A 
ATOM     13  C4  UNL     1      31.865 -13.006 -44.185  0.00  0.00    +0.000 A 
ATOM     14  C5  UNL     1      31.756 -11.643 -43.856  0.00  0.00    +0.000 A 
ATOM     15  C23 UNL     1      32.532 -10.710 -44.567  0.00  0.00    +0.000 A 
ATOM     16  C24 UNL     1      33.405 -11.132 -45.574  0.00  0.00    +0.000 A 
BRANCH  11  18
ATOM     17  C1  UNL     1      34.357 -14.293 -47.416  0.00  0.00    +0.000 C 
ATOM     18  O1  UNL     1      34.380 -12.969 -46.893  0.00  0.00    +0.000 OA
ENDBRANCH  11  18
ENDBRANCH   7  14
ENDBRANCH   1   9
BRANCH   5  19
ATOM     19  C12 UNL     1      25.750  -8.891 -42.275  0.00  0.00    +0.000 C 
ATOM     20  O3  UNL     1      25.258 -10.023 -42.536  0.00  0.00    +0.000 OA
BRANCH  19  21
ATOM     21  C13 UNL     1      24.970  -7.650 -42.633  0.00  0.00    +0.000 C 
BRANCH  21  22
ATOM     22  C14 UNL     1      24.980  -7.393 -44.117  0.00  0.00    +0.000 A 
ATOM     23  N2  UNL     1      26.174  -7.159 -44.730  0.00  0.00    +0.000 NA
ATOM     24  C15 UNL     1      26.256  -6.932 -46.066  0.00  0.00    +0.000 A 
ATOM     25  C16 UNL     1      27.492  -6.690 -46.674  0.00  0.00    +0.000 A 
ATOM     26  C17 UNL     1      27.555  -6.457 -48.053  0.00  0.00    +0.000 A 
ATOM     27  C18 UNL     1      26.386  -6.466 -48.823  0.00  0.00    +0.000 A 
ATOM     28  C19 UNL     1      25.147  -6.709 -48.218  0.00  0.00    +0.000 A 
ATOM     29  C20 UNL     1      25.080  -6.941 -46.840  0.00  0.00    +0.000 A 
ATOM     30  N3  UNL     1      23.888  -7.182 -46.235  0.00  0.00    +0.000 NA
ATOM     31  C21 UNL     1      23.801  -7.411 -44.898  0.00  0.00    +0.000 A 
BRANCH  31  32
ATOM     32  O4  UNL     1      22.545  -7.663 -44.343  0.00  0.00    +0.000 OA
ATOM     33  H16 UNL     1      21.680  -7.528 -44.849  0.00  0.00    +0.000 HD
ENDBRANCH  31  32
ENDBRANCH  21  22
ENDBRANCH  19  21
ENDBRANCH   5  19
TORSDOF 7
ENDMDL
