MODEL 1
REMARK VINA RESULT:    -7.960      0.000      0.000
REMARK INTER + INTRA:         -11.165
REMARK INTER:                 -10.752
REMARK INTRA:                  -0.413
REMARK UNBOUND:                -0.413
REMARK  Name = resultss/4CJN/ligands/lig_410_t0.pdb
REMARK  6 active torsions:
REMARK  status: ('A' for Active; 'I' for Inactive)
REMARK    1  A    between atoms: C1_2  and  C9_15
REMARK    2  A    between atoms: N1_3  and  N2_4
REMARK    3  A    between atoms: N2_4  and  C2_5
REMARK    4  A    between atoms: C2_5  and  N3_7
REMARK    5  A    between atoms: N3_7  and  C3_8
REMARK    6  A    between atoms: C19_26  and  C20_27
REMARK                            x       y       z     vdW  Elec       q    Type
REMARK                         _______ _______ _______ _____ _____    ______ ____
ROOT
ATOM      1  C9  UNL     1      27.921  -9.976 -37.655  0.00  0.00    +0.000 A 
ATOM      2  C10 UNL     1      29.122  -9.915 -36.916  0.00  0.00    +0.000 A 
ATOM      3  C11 UNL     1      29.028  -9.542 -35.580  0.00  0.00    +0.000 A 
ATOM      4  C12 UNL     1      27.823  -9.235 -34.988  0.00  0.00    +0.000 A 
ATOM      5  N4  UNL     1      27.977  -8.965 -33.670  0.00  0.00    +0.000 N 
ATOM      6  C13 UNL     1      29.302  -9.088 -33.445  0.00  0.00    +0.000 A 
ATOM      7  C14 UNL     1      29.970  -8.920 -32.232  0.00  0.00    +0.000 A 
ATOM      8  C15 UNL     1      31.364  -9.115 -32.214  0.00  0.00    +0.000 A 
ATOM      9  C16 UNL     1      32.055  -9.478 -33.393  0.00  0.00    +0.000 A 
ATOM     10  C17 UNL     1      31.359  -9.648 -34.603  0.00  0.00    +0.000 A 
ATOM     11  C18 UNL     1      29.981  -9.440 -34.593  0.00  0.00    +0.000 A 
ATOM     12  C19 UNL     1      26.639  -9.283 -35.737  0.00  0.00    +0.000 A 
ATOM     13  N5  UNL     1      26.732  -9.664 -37.046  0.00  0.00    +0.000 NA
ATOM     14  H9  UNL     1      27.241  -8.746 -32.963  0.00  0.00    +0.000 HD
ENDROOT
BRANCH  12  15
ATOM     15  C20 UNL     1      25.315  -8.949 -35.172  0.00  0.00    +0.000 A 
ATOM     16  C21 UNL     1      24.965  -9.337 -33.866  0.00  0.00    +0.000 A 
ATOM     17  C22 UNL     1      23.718  -8.989 -33.337  0.00  0.00    +0.000 A 
ATOM     18  C23 UNL     1      22.817  -8.242 -34.100  0.00  0.00    +0.000 A 
ATOM     19  C24 UNL     1      23.165  -7.833 -35.391  0.00  0.00    +0.000 A 
ATOM     20  C25 UNL     1      24.411  -8.178 -35.923  0.00  0.00    +0.000 A 
ENDBRANCH  12  15
BRANCH   1  22
ATOM     21  O1  UNL     1      26.841 -10.477 -39.709  0.00  0.00    +0.000 OA
ATOM     22  C1  UNL     1      27.929 -10.374 -39.080  0.00  0.00    +0.000 C 
ATOM     23  N1  UNL     1      29.168 -10.644 -39.756  0.00  0.00    +0.000 N 
ATOM     24  H1  UNL     1      30.064 -10.553 -39.227  0.00  0.00    +0.000 HD
BRANCH  23  25
ATOM     25  N2  UNL     1      29.191 -11.064 -41.098  0.00  0.00    +0.000 N 
ATOM     26  H2  UNL     1      28.436 -11.692 -41.454  0.00  0.00    +0.000 HD
BRANCH  25  27
ATOM     27  C2  UNL     1      30.246 -10.689 -42.000  0.00  0.00    +0.000 C 
ATOM     28  S1  UNL     1      29.934  -9.715 -43.283  0.00  0.00    +0.000 S 
BRANCH  27  29
ATOM     29  N3  UNL     1      31.533 -11.320 -41.908  0.00  0.00    +0.000 N 
ATOM     30  H3  UNL     1      31.951 -11.449 -40.960  0.00  0.00    +0.000 HD
BRANCH  29  31
ATOM     31  C3  UNL     1      32.258 -11.813 -43.048  0.00  0.00    +0.000 A 
ATOM     32  C4  UNL     1      31.705 -12.815 -43.868  0.00  0.00    +0.000 A 
ATOM     33  C5  UNL     1      32.424 -13.319 -44.954  0.00  0.00    +0.000 A 
ATOM     34  C6  UNL     1      33.704 -12.836 -45.231  0.00  0.00    +0.000 A 
ATOM     35  C7  UNL     1      34.270 -11.852 -44.418  0.00  0.00    +0.000 A 
ATOM     36  C8  UNL     1      33.559 -11.343 -43.324  0.00  0.00    +0.000 A 
ATOM     37 CL1  UNL     1      34.305 -10.090 -42.341  0.00  0.00    +0.000 Cl
ENDBRANCH  29  31
ENDBRANCH  27  29
ENDBRANCH  25  27
ENDBRANCH  23  25
ENDBRANCH   1  22
TORSDOF 6
ENDMDL
MODEL 2
REMARK VINA RESULT:    -7.946      5.059      7.957
REMARK INTER + INTRA:         -11.146
REMARK INTER:                 -10.262
REMARK INTRA:                  -0.884
REMARK UNBOUND:                -0.413
REMARK  Name = resultss/4CJN/ligands/lig_410_t0.pdb
REMARK  6 active torsions:
REMARK  status: ('A' for Active; 'I' for Inactive)
REMARK    1  A    between atoms: C1_2  and  C9_15
REMARK    2  A    between atoms: N1_3  and  N2_4
REMARK    3  A    between atoms: N2_4  and  C2_5
REMARK    4  A    between atoms: C2_5  and  N3_7
REMARK    5  A    between atoms: N3_7  and  C3_8
REMARK    6  A    between atoms: C19_26  and  C20_27
REMARK                            x       y       z     vdW  Elec       q    Type
REMARK                         _______ _______ _______ _____ _____    ______ ____
ROOT
ATOM      1  C9  UNL     1      26.530  -9.749 -41.224  0.00  0.00    +0.000 A 
ATOM      2  C10 UNL     1      26.314  -9.643 -39.833  0.00  0.00    +0.000 A 
ATOM      3  C11 UNL     1      27.413  -9.832 -39.003  0.00  0.00    +0.000 A 
ATOM      4  C12 UNL     1      28.665 -10.120 -39.499  0.00  0.00    +0.000 A 
ATOM      5  N4  UNL     1      29.583 -10.196 -38.506  0.00  0.00    +0.000 N 
ATOM      6  C13 UNL     1      28.884  -9.972 -37.372  0.00  0.00    +0.000 A 
ATOM      7  C14 UNL     1      29.380  -9.935 -36.070  0.00  0.00    +0.000 A 
ATOM      8  C15 UNL     1      28.476  -9.665 -35.027  0.00  0.00    +0.000 A 
ATOM      9  C16 UNL     1      27.109  -9.432 -35.302  0.00  0.00    +0.000 A 
ATOM     10  C17 UNL     1      26.632  -9.468 -36.625  0.00  0.00    +0.000 A 
ATOM     11  C18 UNL     1      27.549  -9.746 -37.636  0.00  0.00    +0.000 A 
ATOM     12  C19 UNL     1      28.864 -10.239 -40.881  0.00  0.00    +0.000 A 
ATOM     13  N5  UNL     1      27.785 -10.038 -41.696  0.00  0.00    +0.000 NA
ATOM     14  H9  UNL     1      30.612 -10.355 -38.584  0.00  0.00    +0.000 HD
ENDROOT
BRANCH  12  15
ATOM     15  C20 UNL     1      30.175 -10.562 -41.482  0.00  0.00    +0.000 A 
ATOM     16  C21 UNL     1      30.303 -11.589 -42.433  0.00  0.00    +0.000 A 
ATOM     17  C22 UNL     1      31.547 -11.864 -43.011  0.00  0.00    +0.000 A 
ATOM     18  C23 UNL     1      32.668 -11.110 -42.655  0.00  0.00    +0.000 A 
ATOM     19  C24 UNL     1      32.545 -10.072 -41.726  0.00  0.00    +0.000 A 
ATOM     20  C25 UNL     1      31.303  -9.794 -41.146  0.00  0.00    +0.000 A 
ENDBRANCH  12  15
BRANCH   1  22
ATOM     21  O1  UNL     1      25.641  -9.596 -43.419  0.00  0.00    +0.000 OA
ATOM     22  C1  UNL     1      25.418  -9.552 -42.179  0.00  0.00    +0.000 C 
ATOM     23  N1  UNL     1      24.083  -9.312 -41.706  0.00  0.00    +0.000 N 
ATOM     24  H1  UNL     1      23.907  -9.280 -40.676  0.00  0.00    +0.000 HD
BRANCH  23  25
ATOM     25  N2  UNL     1      23.021  -9.081 -42.600  0.00  0.00    +0.000 N 
ATOM     26  H2  UNL     1      22.481  -9.891 -42.979  0.00  0.00    +0.000 HD
BRANCH  25  27
ATOM     27  C2  UNL     1      22.672  -7.761 -43.050  0.00  0.00    +0.000 C 
ATOM     28  S1  UNL     1      21.115  -7.247 -42.985  0.00  0.00    +0.000 S 
BRANCH  27  29
ATOM     29  N3  UNL     1      23.637  -6.955 -43.744  0.00  0.00    +0.000 N 
ATOM     30  H3  UNL     1      24.220  -6.295 -43.184  0.00  0.00    +0.000 HD
BRANCH  29  31
ATOM     31  C3  UNL     1      23.865  -7.034 -45.162  0.00  0.00    +0.000 A 
ATOM     32  C4  UNL     1      22.803  -7.317 -46.041  0.00  0.00    +0.000 A 
ATOM     33  C5  UNL     1      23.030  -7.429 -47.415  0.00  0.00    +0.000 A 
ATOM     34  C6  UNL     1      24.319  -7.267 -47.926  0.00  0.00    +0.000 A 
ATOM     35  C7  UNL     1      25.384  -6.999 -47.064  0.00  0.00    +0.000 A 
ATOM     36  C8  UNL     1      25.166  -6.888 -45.685  0.00  0.00    +0.000 A 
ATOM     37 CL1  UNL     1      26.536  -6.529 -44.641  0.00  0.00    +0.000 Cl
ENDBRANCH  29  31
ENDBRANCH  27  29
ENDBRANCH  25  27
ENDBRANCH  23  25
ENDBRANCH   1  22
TORSDOF 6
ENDMDL
MODEL 3
REMARK VINA RESULT:    -7.802      2.291      3.669
REMARK INTER + INTRA:         -10.952
REMARK INTER:                  -9.810
REMARK INTRA:                  -1.142
REMARK UNBOUND:                -0.413
REMARK  Name = resultss/4CJN/ligands/lig_410_t0.pdb
REMARK  6 active torsions:
REMARK  status: ('A' for Active; 'I' for Inactive)
REMARK    1  A    between atoms: C1_2  and  C9_15
REMARK    2  A    between atoms: N1_3  and  N2_4
REMARK    3  A    between atoms: N2_4  and  C2_5
REMARK    4  A    between atoms: C2_5  and  N3_7
REMARK    5  A    between atoms: N3_7  and  C3_8
REMARK    6  A    between atoms: C19_26  and  C20_27
REMARK                            x       y       z     vdW  Elec       q    Type
REMARK                         _______ _______ _______ _____ _____    ______ ____
ROOT
ATOM      1  C9  UNL     1      27.888 -10.042 -37.663  0.00  0.00    +0.000 A 
ATOM      2  C10 UNL     1      29.107  -9.973 -36.954  0.00  0.00    +0.000 A 
ATOM      3  C11 UNL     1      29.045  -9.589 -35.619  0.00  0.00    +0.000 A 
ATOM      4  C12 UNL     1      27.854  -9.278 -35.000  0.00  0.00    +0.000 A 
ATOM      5  N4  UNL     1      28.039  -8.997 -33.689  0.00  0.00    +0.000 N 
ATOM      6  C13 UNL     1      29.370  -9.117 -33.495  0.00  0.00    +0.000 A 
ATOM      7  C14 UNL     1      30.067  -8.937 -32.300  0.00  0.00    +0.000 A 
ATOM      8  C15 UNL     1      31.461  -9.129 -32.315  0.00  0.00    +0.000 A 
ATOM      9  C16 UNL     1      32.123  -9.501 -33.507  0.00  0.00    +0.000 A 
ATOM     10  C17 UNL     1      31.399  -9.683 -34.698  0.00  0.00    +0.000 A 
ATOM     11  C18 UNL     1      30.021  -9.477 -34.656  0.00  0.00    +0.000 A 
ATOM     12  C19 UNL     1      26.652  -9.335 -35.720  0.00  0.00    +0.000 A 
ATOM     13  N5  UNL     1      26.714  -9.727 -37.028  0.00  0.00    +0.000 NA
ATOM     14  H9  UNL     1      27.320  -8.773 -32.966  0.00  0.00    +0.000 HD
ENDROOT
BRANCH  12  15
ATOM     15  C20 UNL     1      25.342  -8.998 -35.125  0.00  0.00    +0.000 A 
ATOM     16  C21 UNL     1      25.015  -9.396 -33.817  0.00  0.00    +0.000 A 
ATOM     17  C22 UNL     1      23.781  -9.045 -33.260  0.00  0.00    +0.000 A 
ATOM     18  C23 UNL     1      22.869  -8.285 -33.998  0.00  0.00    +0.000 A 
ATOM     19  C24 UNL     1      23.194  -7.867 -35.292  0.00  0.00    +0.000 A 
ATOM     20  C25 UNL     1      24.428  -8.215 -35.851  0.00  0.00    +0.000 A 
ENDBRANCH  12  15
BRANCH   1  22
ATOM     21  O1  UNL     1      26.762 -10.525 -39.696  0.00  0.00    +0.000 OA
ATOM     22  C1  UNL     1      27.862 -10.453 -39.084  0.00  0.00    +0.000 C 
ATOM     23  N1  UNL     1      29.082 -10.769 -39.775  0.00  0.00    +0.000 N 
ATOM     24  H1  UNL     1      29.988 -10.703 -39.260  0.00  0.00    +0.000 HD
BRANCH  23  25
ATOM     25  N2  UNL     1      29.071 -11.201 -41.114  0.00  0.00    +0.000 N 
ATOM     26  H2  UNL     1      28.594 -12.097 -41.362  0.00  0.00    +0.000 HD
BRANCH  25  27
ATOM     27  C2  UNL     1      29.731 -10.469 -42.160  0.00  0.00    +0.000 C 
ATOM     28  S1  UNL     1      31.028 -11.113 -42.933  0.00  0.00    +0.000 S 
BRANCH  27  29
ATOM     29  N3  UNL     1      29.396  -9.093 -42.403  0.00  0.00    +0.000 N 
ATOM     30  H3  UNL     1      30.163  -8.442 -42.682  0.00  0.00    +0.000 HD
BRANCH  29  31
ATOM     31  C3  UNL     1      28.057  -8.576 -42.316  0.00  0.00    +0.000 A 
ATOM     32  C4  UNL     1      27.076  -8.972 -43.244  0.00  0.00    +0.000 A 
ATOM     33  C5  UNL     1      25.785  -8.442 -43.181  0.00  0.00    +0.000 A 
ATOM     34  C6  UNL     1      25.460  -7.508 -42.197  0.00  0.00    +0.000 A 
ATOM     35  C7  UNL     1      26.427  -7.095 -41.277  0.00  0.00    +0.000 A 
ATOM     36  C8  UNL     1      27.725  -7.618 -41.335  0.00  0.00    +0.000 A 
ATOM     37 CL1  UNL     1      28.903  -7.084 -40.143  0.00  0.00    +0.000 Cl
ENDBRANCH  29  31
ENDBRANCH  27  29
ENDBRANCH  25  27
ENDBRANCH  23  25
ENDBRANCH   1  22
TORSDOF 6
ENDMDL
MODEL 4
REMARK VINA RESULT:    -7.797      3.452      4.085
REMARK INTER + INTRA:         -10.945
REMARK INTER:                  -9.622
REMARK INTRA:                  -1.323
REMARK UNBOUND:                -0.413
REMARK  Name = resultss/4CJN/ligands/lig_410_t0.pdb
REMARK  6 active torsions:
REMARK  status: ('A' for Active; 'I' for Inactive)
REMARK    1  A    between atoms: C1_2  and  C9_15
REMARK    2  A    between atoms: N1_3  and  N2_4
REMARK    3  A    between atoms: N2_4  and  C2_5
REMARK    4  A    between atoms: C2_5  and  N3_7
REMARK    5  A    between atoms: N3_7  and  C3_8
REMARK    6  A    between atoms: C19_26  and  C20_27
REMARK                            x       y       z     vdW  Elec       q    Type
REMARK                         _______ _______ _______ _____ _____    ______ ____
ROOT
ATOM      1  C9  UNL     1      25.848  -8.365 -37.979  0.00  0.00    +0.000 A 
ATOM      2  C10 UNL     1      27.226  -8.627 -37.822  0.00  0.00    +0.000 A 
ATOM      3  C11 UNL     1      27.706  -8.752 -36.523  0.00  0.00    +0.000 A 
ATOM      4  C12 UNL     1      26.887  -8.622 -35.424  0.00  0.00    +0.000 A 
ATOM      5  N4  UNL     1      27.566  -8.848 -34.274  0.00  0.00    +0.000 N 
ATOM      6  C13 UNL     1      28.832  -9.104 -34.666  0.00  0.00    +0.000 A 
ATOM      7  C14 UNL     1      29.921  -9.411 -33.851  0.00  0.00    +0.000 A 
ATOM      8  C15 UNL     1      31.159  -9.662 -34.470  0.00  0.00    +0.000 A 
ATOM      9  C16 UNL     1      31.283  -9.611 -35.878  0.00  0.00    +0.000 A 
ATOM     10  C17 UNL     1      30.169  -9.306 -36.681  0.00  0.00    +0.000 A 
ATOM     11  C18 UNL     1      28.958  -9.054 -36.039  0.00  0.00    +0.000 A 
ATOM     12  C19 UNL     1      25.523  -8.346 -35.592  0.00  0.00    +0.000 A 
ATOM     13  N5  UNL     1      25.051  -8.237 -36.870  0.00  0.00    +0.000 NA
ATOM     14  H9  UNL     1      27.199  -8.863 -33.297  0.00  0.00    +0.000 HD
ENDROOT
BRANCH  12  15
ATOM     15  C20 UNL     1      24.590  -8.175 -34.458  0.00  0.00    +0.000 A 
ATOM     16  C21 UNL     1      24.237  -9.264 -33.640  0.00  0.00    +0.000 A 
ATOM     17  C22 UNL     1      23.375  -9.079 -32.555  0.00  0.00    +0.000 A 
ATOM     18  C23 UNL     1      22.868  -7.808 -32.269  0.00  0.00    +0.000 A 
ATOM     19  C24 UNL     1      23.231  -6.717 -33.064  0.00  0.00    +0.000 A 
ATOM     20  C25 UNL     1      24.095  -6.897 -34.150  0.00  0.00    +0.000 A 
ENDBRANCH  12  15
BRANCH   1  22
ATOM     21  O1  UNL     1      25.541  -7.229 -40.040  0.00  0.00    +0.000 OA
ATOM     22  C1  UNL     1      25.253  -8.228 -39.326  0.00  0.00    +0.000 C 
ATOM     23  N1  UNL     1      24.350  -9.225 -39.830  0.00  0.00    +0.000 N 
ATOM     24  H1  UNL     1      24.120 -10.050 -39.232  0.00  0.00    +0.000 HD
BRANCH  23  25
ATOM     25  N2  UNL     1      23.743  -9.089 -41.093  0.00  0.00    +0.000 N 
ATOM     26  H2  UNL     1      22.701  -9.084 -41.165  0.00  0.00    +0.000 HD
BRANCH  25  27
ATOM     27  C2  UNL     1      24.510  -8.996 -42.305  0.00  0.00    +0.000 C 
ATOM     28  S1  UNL     1      24.022  -8.009 -43.522  0.00  0.00    +0.000 S 
BRANCH  27  29
ATOM     29  N3  UNL     1      25.593  -9.908 -42.548  0.00  0.00    +0.000 N 
ATOM     30  H3  UNL     1      25.359 -10.871 -42.878  0.00  0.00    +0.000 HD
BRANCH  29  31
ATOM     31  C3  UNL     1      26.978  -9.555 -42.393  0.00  0.00    +0.000 A 
ATOM     32  C4  UNL     1      27.585  -8.642 -43.276  0.00  0.00    +0.000 A 
ATOM     33  C5  UNL     1      28.939  -8.325 -43.148  0.00  0.00    +0.000 A 
ATOM     34  C6  UNL     1      29.705  -8.920 -42.143  0.00  0.00    +0.000 A 
ATOM     35  C7  UNL     1      29.119  -9.837 -41.269  0.00  0.00    +0.000 A 
ATOM     36  C8  UNL     1      27.762 -10.164 -41.392  0.00  0.00    +0.000 A 
ATOM     37 CL1  UNL     1      27.064 -11.309 -40.254  0.00  0.00    +0.000 Cl
ENDBRANCH  29  31
ENDBRANCH  27  29
ENDBRANCH  25  27
ENDBRANCH  23  25
ENDBRANCH   1  22
TORSDOF 6
ENDMDL
MODEL 5
REMARK VINA RESULT:    -7.762      4.574      7.431
REMARK INTER + INTRA:         -10.898
REMARK INTER:                  -9.793
REMARK INTRA:                  -1.105
REMARK UNBOUND:                -0.413
REMARK  Name = resultss/4CJN/ligands/lig_410_t0.pdb
REMARK  6 active torsions:
REMARK  status: ('A' for Active; 'I' for Inactive)
REMARK    1  A    between atoms: C1_2  and  C9_15
REMARK    2  A    between atoms: N1_3  and  N2_4
REMARK    3  A    between atoms: N2_4  and  C2_5
REMARK    4  A    between atoms: C2_5  and  N3_7
REMARK    5  A    between atoms: N3_7  and  C3_8
REMARK    6  A    between atoms: C19_26  and  C20_27
REMARK                            x       y       z     vdW  Elec       q    Type
REMARK                         _______ _______ _______ _____ _____    ______ ____
ROOT
ATOM      1  C9  UNL     1      26.530  -9.722 -40.284  0.00  0.00    +0.000 A 
ATOM      2  C10 UNL     1      26.525  -9.646 -38.874  0.00  0.00    +0.000 A 
ATOM      3  C11 UNL     1      27.745  -9.794 -38.224  0.00  0.00    +0.000 A 
ATOM      4  C12 UNL     1      28.919 -10.013 -38.911  0.00  0.00    +0.000 A 
ATOM      5  N4  UNL     1      29.980 -10.059 -38.071  0.00  0.00    +0.000 N 
ATOM      6  C13 UNL     1      29.453  -9.885 -36.840  0.00  0.00    +0.000 A 
ATOM      7  C14 UNL     1      30.140  -9.842 -35.627  0.00  0.00    +0.000 A 
ATOM      8  C15 UNL     1      29.394  -9.632 -34.453  0.00  0.00    +0.000 A 
ATOM      9  C16 UNL     1      27.992  -9.461 -34.513  0.00  0.00    +0.000 A 
ATOM     10  C17 UNL     1      27.321  -9.501 -35.748  0.00  0.00    +0.000 A 
ATOM     11  C18 UNL     1      28.085  -9.720 -36.893  0.00  0.00    +0.000 A 
ATOM     12  C19 UNL     1      28.910 -10.102 -40.310  0.00  0.00    +0.000 A 
ATOM     13  N5  UNL     1      27.711  -9.942 -40.947  0.00  0.00    +0.000 NA
ATOM     14  H9  UNL     1      30.991 -10.166 -38.308  0.00  0.00    +0.000 HD
ENDROOT
BRANCH  12  15
ATOM     15  C20 UNL     1      30.127 -10.353 -41.109  0.00  0.00    +0.000 A 
ATOM     16  C21 UNL     1      30.088 -11.169 -42.254  0.00  0.00    +0.000 A 
ATOM     17  C22 UNL     1      31.243 -11.374 -43.013  0.00  0.00    +0.000 A 
ATOM     18  C23 UNL     1      32.443 -10.758 -42.647  0.00  0.00    +0.000 A 
ATOM     19  C24 UNL     1      32.486  -9.927 -41.523  0.00  0.00    +0.000 A 
ATOM     20  C25 UNL     1      31.332  -9.719 -40.761  0.00  0.00    +0.000 A 
ENDBRANCH  12  15
BRANCH   1  22
ATOM     21  O1  UNL     1      25.003 -10.378 -41.978  0.00  0.00    +0.000 OA
ATOM     22  C1  UNL     1      25.278  -9.565 -41.054  0.00  0.00    +0.000 C 
ATOM     23  N1  UNL     1      24.368  -8.493 -40.758  0.00  0.00    +0.000 N 
ATOM     24  H1  UNL     1      24.603  -7.826 -39.989  0.00  0.00    +0.000 HD
BRANCH  23  25
ATOM     25  N2  UNL     1      23.192  -8.305 -41.508  0.00  0.00    +0.000 N 
ATOM     26  H2  UNL     1      22.288  -8.690 -41.153  0.00  0.00    +0.000 HD
BRANCH  25  27
ATOM     27  C2  UNL     1      23.193  -7.632 -42.778  0.00  0.00    +0.000 C 
ATOM     28  S1  UNL     1      22.379  -6.220 -42.969  0.00  0.00    +0.000 S 
BRANCH  27  29
ATOM     29  N3  UNL     1      23.733  -8.281 -43.940  0.00  0.00    +0.000 N 
ATOM     30  H3  UNL     1      23.283  -9.167 -44.261  0.00  0.00    +0.000 HD
BRANCH  29  31
ATOM     31  C3  UNL     1      24.834  -7.758 -44.702  0.00  0.00    +0.000 A 
ATOM     32  C4  UNL     1      26.120  -7.679 -44.137  0.00  0.00    +0.000 A 
ATOM     33  C5  UNL     1      27.183  -7.138 -44.865  0.00  0.00    +0.000 A 
ATOM     34  C6  UNL     1      26.973  -6.664 -46.161  0.00  0.00    +0.000 A 
ATOM     35  C7  UNL     1      25.699  -6.724 -46.729  0.00  0.00    +0.000 A 
ATOM     36  C8  UNL     1      24.627  -7.261 -46.006  0.00  0.00    +0.000 A 
ATOM     37 CL1  UNL     1      23.045  -7.335 -46.772  0.00  0.00    +0.000 Cl
ENDBRANCH  29  31
ENDBRANCH  27  29
ENDBRANCH  25  27
ENDBRANCH  23  25
ENDBRANCH   1  22
TORSDOF 6
ENDMDL
MODEL 6
REMARK VINA RESULT:    -7.584      2.486      3.065
REMARK INTER + INTRA:         -10.657
REMARK INTER:                  -9.426
REMARK INTRA:                  -1.231
REMARK UNBOUND:                -0.413
REMARK  Name = resultss/4CJN/ligands/lig_410_t0.pdb
REMARK  6 active torsions:
REMARK  status: ('A' for Active; 'I' for Inactive)
REMARK    1  A    between atoms: C1_2  and  C9_15
REMARK    2  A    between atoms: N1_3  and  N2_4
REMARK    3  A    between atoms: N2_4  and  C2_5
REMARK    4  A    between atoms: C2_5  and  N3_7
REMARK    5  A    between atoms: N3_7  and  C3_8
REMARK    6  A    between atoms: C19_26  and  C20_27
REMARK                            x       y       z     vdW  Elec       q    Type
REMARK                         _______ _______ _______ _____ _____    ______ ____
ROOT
ATOM      1  C9  UNL     1      27.464  -9.901 -37.694  0.00  0.00    +0.000 A 
ATOM      2  C10 UNL     1      28.739  -9.853 -37.089  0.00  0.00    +0.000 A 
ATOM      3  C11 UNL     1      28.794  -9.483 -35.750  0.00  0.00    +0.000 A 
ATOM      4  C12 UNL     1      27.663  -9.167 -35.030  0.00  0.00    +0.000 A 
ATOM      5  N4  UNL     1      27.961  -8.902 -33.736  0.00  0.00    +0.000 N 
ATOM      6  C13 UNL     1      29.303  -9.038 -33.656  0.00  0.00    +0.000 A 
ATOM      7  C14 UNL     1      30.100  -8.879 -32.523  0.00  0.00    +0.000 A 
ATOM      8  C15 UNL     1      31.485  -9.086 -32.656  0.00  0.00    +0.000 A 
ATOM      9  C16 UNL     1      32.041  -9.451 -33.904  0.00  0.00    +0.000 A 
ATOM     10  C17 UNL     1      31.216  -9.612 -35.032  0.00  0.00    +0.000 A 
ATOM     11  C18 UNL     1      29.850  -9.393 -34.871  0.00  0.00    +0.000 A 
ATOM     12  C19 UNL     1      26.404  -9.203 -35.645  0.00  0.00    +0.000 A 
ATOM     13  N5  UNL     1      26.351  -9.581 -36.958  0.00  0.00    +0.000 NA
ATOM     14  H9  UNL     1      27.308  -8.679 -32.952  0.00  0.00    +0.000 HD
ENDROOT
BRANCH  12  15
ATOM     15  C20 UNL     1      25.153  -8.859 -34.939  0.00  0.00    +0.000 A 
ATOM     16  C21 UNL     1      24.142  -8.115 -35.574  0.00  0.00    +0.000 A 
ATOM     17  C22 UNL     1      22.953  -7.822 -34.900  0.00  0.00    +0.000 A 
ATOM     18  C23 UNL     1      22.756  -8.278 -33.594  0.00  0.00    +0.000 A 
ATOM     19  C24 UNL     1      23.745  -9.037 -32.963  0.00  0.00    +0.000 A 
ATOM     20  C25 UNL     1      24.937  -9.333 -33.634  0.00  0.00    +0.000 A 
ENDBRANCH  12  15
BRANCH   1  22
ATOM     21  O1  UNL     1      28.059 -11.191 -39.595  0.00  0.00    +0.000 OA
ATOM     22  C1  UNL     1      27.314 -10.296 -39.111  0.00  0.00    +0.000 C 
ATOM     23  N1  UNL     1      26.325  -9.668 -39.943  0.00  0.00    +0.000 N 
ATOM     24  H1  UNL     1      25.711  -8.929 -39.532  0.00  0.00    +0.000 HD
BRANCH  23  25
ATOM     25  N2  UNL     1      26.197 -10.002 -41.304  0.00  0.00    +0.000 N 
ATOM     26  H2  UNL     1      26.051 -11.000 -41.578  0.00  0.00    +0.000 HD
BRANCH  25  27
ATOM     27  C2  UNL     1      26.300  -9.019 -42.347  0.00  0.00    +0.000 C 
ATOM     28  S1  UNL     1      24.947  -8.381 -43.023  0.00  0.00    +0.000 S 
BRANCH  27  29
ATOM     29  N3  UNL     1      27.573  -8.732 -42.947  0.00  0.00    +0.000 N 
ATOM     30  H3  UNL     1      27.584  -8.204 -43.848  0.00  0.00    +0.000 HD
BRANCH  29  31
ATOM     31  C3  UNL     1      28.831  -9.103 -42.357  0.00  0.00    +0.000 A 
ATOM     32  C4  UNL     1      29.472 -10.298 -42.736  0.00  0.00    +0.000 A 
ATOM     33  C5  UNL     1      30.676 -10.676 -42.137  0.00  0.00    +0.000 A 
ATOM     34  C6  UNL     1      31.251  -9.872 -41.151  0.00  0.00    +0.000 A 
ATOM     35  C7  UNL     1      30.618  -8.691 -40.757  0.00  0.00    +0.000 A 
ATOM     36  C8  UNL     1      29.409  -8.305 -41.349  0.00  0.00    +0.000 A 
ATOM     37 CL1  UNL     1      28.661  -6.799 -40.834  0.00  0.00    +0.000 Cl
ENDBRANCH  29  31
ENDBRANCH  27  29
ENDBRANCH  25  27
ENDBRANCH  23  25
ENDBRANCH   1  22
TORSDOF 6
ENDMDL
MODEL 7
REMARK VINA RESULT:    -7.556      3.620     10.444
REMARK INTER + INTRA:         -10.619
REMARK INTER:                  -9.616
REMARK INTRA:                  -1.002
REMARK UNBOUND:                -0.413
REMARK  Name = resultss/4CJN/ligands/lig_410_t0.pdb
REMARK  6 active torsions:
REMARK  status: ('A' for Active; 'I' for Inactive)
REMARK    1  A    between atoms: C1_2  and  C9_15
REMARK    2  A    between atoms: N1_3  and  N2_4
REMARK    3  A    between atoms: N2_4  and  C2_5
REMARK    4  A    between atoms: C2_5  and  N3_7
REMARK    5  A    between atoms: N3_7  and  C3_8
REMARK    6  A    between atoms: C19_26  and  C20_27
REMARK                            x       y       z     vdW  Elec       q    Type
REMARK                         _______ _______ _______ _____ _____    ______ ____
ROOT
ATOM      1  C9  UNL     1      28.197  -9.918 -39.953  0.00  0.00    +0.000 A 
ATOM      2  C10 UNL     1      27.464  -8.960 -40.686  0.00  0.00    +0.000 A 
ATOM      3  C11 UNL     1      27.928  -8.640 -41.957  0.00  0.00    +0.000 A 
ATOM      4  C12 UNL     1      29.058  -9.219 -42.492  0.00  0.00    +0.000 A 
ATOM      5  N4  UNL     1      29.273  -8.799 -43.761  0.00  0.00    +0.000 N 
ATOM      6  C13 UNL     1      28.271  -7.930 -44.012  0.00  0.00    +0.000 A 
ATOM      7  C14 UNL     1      28.039  -7.229 -45.195  0.00  0.00    +0.000 A 
ATOM      8  C15 UNL     1      26.918  -6.382 -45.250  0.00  0.00    +0.000 A 
ATOM      9  C16 UNL     1      26.053  -6.258 -44.139  0.00  0.00    +0.000 A 
ATOM     10  C17 UNL     1      26.303  -6.981 -42.958  0.00  0.00    +0.000 A 
ATOM     11  C18 UNL     1      27.426  -7.805 -42.929  0.00  0.00    +0.000 A 
ATOM     12  C19 UNL     1      29.787 -10.157 -41.748  0.00  0.00    +0.000 A 
ATOM     13  N5  UNL     1      29.320 -10.481 -40.504  0.00  0.00    +0.000 NA
ATOM     14  H9  UNL     1      30.021  -9.099 -44.425  0.00  0.00    +0.000 HD
ENDROOT
BRANCH  12  15
ATOM     15  C20 UNL     1      31.017 -10.804 -42.251  0.00  0.00    +0.000 A 
ATOM     16  C21 UNL     1      32.287 -10.287 -41.940  0.00  0.00    +0.000 A 
ATOM     17  C22 UNL     1      33.441 -10.927 -42.402  0.00  0.00    +0.000 A 
ATOM     18  C23 UNL     1      33.339 -12.093 -43.166  0.00  0.00    +0.000 A 
ATOM     19  C24 UNL     1      32.081 -12.626 -43.461  0.00  0.00    +0.000 A 
ATOM     20  C25 UNL     1      30.924 -11.989 -43.000  0.00  0.00    +0.000 A 
ENDBRANCH  12  15
BRANCH   1  22
ATOM     21  O1  UNL     1      27.688 -11.548 -38.305  0.00  0.00    +0.000 OA
ATOM     22  C1  UNL     1      27.767 -10.324 -38.598  0.00  0.00    +0.000 C 
ATOM     23  N1  UNL     1      27.439  -9.335 -37.609  0.00  0.00    +0.000 N 
ATOM     24  H1  UNL     1      27.510  -8.323 -37.860  0.00  0.00    +0.000 HD
BRANCH  23  25
ATOM     25  N2  UNL     1      26.988  -9.704 -36.328  0.00  0.00    +0.000 N 
ATOM     26  H2  UNL     1      26.287 -10.473 -36.231  0.00  0.00    +0.000 HD
BRANCH  25  27
ATOM     27  C2  UNL     1      27.430  -9.032 -35.137  0.00  0.00    +0.000 C 
ATOM     28  S1  UNL     1      28.755  -9.563 -34.327  0.00  0.00    +0.000 S 
BRANCH  27  29
ATOM     29  N3  UNL     1      26.610  -8.020 -34.532  0.00  0.00    +0.000 N 
ATOM     30  H3  UNL     1      27.080  -7.168 -34.153  0.00  0.00    +0.000 HD
BRANCH  29  31
ATOM     31  C3  UNL     1      25.177  -8.104 -34.450  0.00  0.00    +0.000 A 
ATOM     32  C4  UNL     1      24.560  -8.774 -33.376  0.00  0.00    +0.000 A 
ATOM     33  C5  UNL     1      23.169  -8.885 -33.316  0.00  0.00    +0.000 A 
ATOM     34  C6  UNL     1      22.378  -8.337 -34.326  0.00  0.00    +0.000 A 
ATOM     35  C7  UNL     1      22.977  -7.682 -35.404  0.00  0.00    +0.000 A 
ATOM     36  C8  UNL     1      24.371  -7.568 -35.476  0.00  0.00    +0.000 A 
ATOM     37 CL1  UNL     1      25.079  -6.715 -36.842  0.00  0.00    +0.000 Cl
ENDBRANCH  29  31
ENDBRANCH  27  29
ENDBRANCH  25  27
ENDBRANCH  23  25
ENDBRANCH   1  22
TORSDOF 6
ENDMDL
MODEL 8
REMARK VINA RESULT:    -7.432      3.180      5.535
REMARK INTER + INTRA:         -10.452
REMARK INTER:                  -8.783
REMARK INTRA:                  -1.670
REMARK UNBOUND:                -0.413
REMARK  Name = resultss/4CJN/ligands/lig_410_t0.pdb
REMARK  6 active torsions:
REMARK  status: ('A' for Active; 'I' for Inactive)
REMARK    1  A    between atoms: C1_2  and  C9_15
REMARK    2  A    between atoms: N1_3  and  N2_4
REMARK    3  A    between atoms: N2_4  and  C2_5
REMARK    4  A    between atoms: C2_5  and  N3_7
REMARK    5  A    between atoms: N3_7  and  C3_8
REMARK    6  A    between atoms: C19_26  and  C20_27
REMARK                            x       y       z     vdW  Elec       q    Type
REMARK                         _______ _______ _______ _____ _____    ______ ____
ROOT
ATOM      1  C9  UNL     1      28.185  -9.115 -37.229  0.00  0.00    +0.000 A 
ATOM      2  C10 UNL     1      27.415  -8.889 -36.067  0.00  0.00    +0.000 A 
ATOM      3  C11 UNL     1      26.074  -8.567 -36.246  0.00  0.00    +0.000 A 
ATOM      4  C12 UNL     1      25.506  -8.461 -37.497  0.00  0.00    +0.000 A 
ATOM      5  N4  UNL     1      24.180  -8.202 -37.415  0.00  0.00    +0.000 N 
ATOM      6  C13 UNL     1      23.924  -8.128 -36.091  0.00  0.00    +0.000 A 
ATOM      7  C14 UNL     1      22.691  -7.888 -35.484  0.00  0.00    +0.000 A 
ATOM      8  C15 UNL     1      22.642  -7.868 -34.078  0.00  0.00    +0.000 A 
ATOM      9  C16 UNL     1      23.810  -8.094 -33.314  0.00  0.00    +0.000 A 
ATOM     10  C17 UNL     1      25.041  -8.339 -33.949  0.00  0.00    +0.000 A 
ATOM     11  C18 UNL     1      25.061  -8.345 -35.342  0.00  0.00    +0.000 A 
ATOM     12  C19 UNL     1      26.286  -8.671 -38.643  0.00  0.00    +0.000 A 
ATOM     13  N5  UNL     1      27.600  -9.002 -38.464  0.00  0.00    +0.000 NA
ATOM     14  H9  UNL     1      23.487  -8.115 -38.192  0.00  0.00    +0.000 HD
ENDROOT
BRANCH  12  15
ATOM     15  C20 UNL     1      25.748  -8.557 -40.014  0.00  0.00    +0.000 A 
ATOM     16  C21 UNL     1      25.490  -7.300 -40.590  0.00  0.00    +0.000 A 
ATOM     17  C22 UNL     1      25.007  -7.209 -41.899  0.00  0.00    +0.000 A 
ATOM     18  C23 UNL     1      24.788  -8.368 -42.648  0.00  0.00    +0.000 A 
ATOM     19  C24 UNL     1      25.061  -9.621 -42.092  0.00  0.00    +0.000 A 
ATOM     20  C25 UNL     1      25.546  -9.716 -40.783  0.00  0.00    +0.000 A 
ENDBRANCH  12  15
BRANCH   1  22
ATOM     21  O1  UNL     1      30.255  -9.216 -36.071  0.00  0.00    +0.000 OA
ATOM     22  C1  UNL     1      29.617  -9.473 -37.128  0.00  0.00    +0.000 C 
ATOM     23  N1  UNL     1      30.287 -10.116 -38.224  0.00  0.00    +0.000 N 
ATOM     24  H1  UNL     1      29.749 -10.328 -39.094  0.00  0.00    +0.000 HD
BRANCH  23  25
ATOM     25  N2  UNL     1      31.658 -10.426 -38.160  0.00  0.00    +0.000 N 
ATOM     26  H2  UNL     1      32.015 -11.026 -37.383  0.00  0.00    +0.000 HD
BRANCH  25  27
ATOM     27  C2  UNL     1      32.605  -9.911 -39.111  0.00  0.00    +0.000 C 
ATOM     28  S1  UNL     1      33.871  -8.994 -38.610  0.00  0.00    +0.000 S 
BRANCH  27  29
ATOM     29  N3  UNL     1      32.347 -10.020 -40.520  0.00  0.00    +0.000 N 
ATOM     30  H3  UNL     1      33.034 -10.544 -41.107  0.00  0.00    +0.000 HD
BRANCH  29  31
ATOM     31  C3  UNL     1      31.178  -9.477 -41.157  0.00  0.00    +0.000 A 
ATOM     32  C4  UNL     1      30.693  -8.206 -40.796  0.00  0.00    +0.000 A 
ATOM     33  C5  UNL     1      29.537  -7.693 -41.389  0.00  0.00    +0.000 A 
ATOM     34  C6  UNL     1      28.849  -8.443 -42.344  0.00  0.00    +0.000 A 
ATOM     35  C7  UNL     1      29.311  -9.711 -42.703  0.00  0.00    +0.000 A 
ATOM     36  C8  UNL     1      30.467 -10.235 -42.110  0.00  0.00    +0.000 A 
ATOM     37 CL1  UNL     1      31.023 -11.828 -42.610  0.00  0.00    +0.000 Cl
ENDBRANCH  29  31
ENDBRANCH  27  29
ENDBRANCH  25  27
ENDBRANCH  23  25
ENDBRANCH   1  22
TORSDOF 6
ENDMDL
MODEL 9
REMARK VINA RESULT:    -7.383      5.424      7.717
REMARK INTER + INTRA:         -10.385
REMARK INTER:                  -9.438
REMARK INTRA:                  -0.948
REMARK UNBOUND:                -0.413
REMARK  Name = resultss/4CJN/ligands/lig_410_t0.pdb
REMARK  6 active torsions:
REMARK  status: ('A' for Active; 'I' for Inactive)
REMARK    1  A    between atoms: C1_2  and  C9_15
REMARK    2  A    between atoms: N1_3  and  N2_4
REMARK    3  A    between atoms: N2_4  and  C2_5
REMARK    4  A    between atoms: C2_5  and  N3_7
REMARK    5  A    between atoms: N3_7  and  C3_8
REMARK    6  A    between atoms: C19_26  and  C20_27
REMARK                            x       y       z     vdW  Elec       q    Type
REMARK                         _______ _______ _______ _____ _____    ______ ____
ROOT
ATOM      1  C9  UNL     1      24.976  -7.857 -40.310  0.00  0.00    +0.000 A 
ATOM      2  C10 UNL     1      24.921  -8.050 -38.913  0.00  0.00    +0.000 A 
ATOM      3  C11 UNL     1      25.989  -8.715 -38.321  0.00  0.00    +0.000 A 
ATOM      4  C12 UNL     1      27.060  -9.179 -39.053  0.00  0.00    +0.000 A 
ATOM      5  N4  UNL     1      28.000  -9.734 -38.252  0.00  0.00    +0.000 N 
ATOM      6  C13 UNL     1      27.496  -9.629 -37.004  0.00  0.00    +0.000 A 
ATOM      7  C14 UNL     1      28.094 -10.047 -35.815  0.00  0.00    +0.000 A 
ATOM      8  C15 UNL     1      27.398  -9.825 -34.613  0.00  0.00    +0.000 A 
ATOM      9  C16 UNL     1      26.136  -9.189 -34.619  0.00  0.00    +0.000 A 
ATOM     10  C17 UNL     1      25.555  -8.769 -35.830  0.00  0.00    +0.000 A 
ATOM     11  C18 UNL     1      26.263  -9.011 -37.005  0.00  0.00    +0.000 A 
ATOM     12  C19 UNL     1      27.095  -8.996 -40.442  0.00  0.00    +0.000 A 
ATOM     13  N5  UNL     1      26.051  -8.329 -41.020  0.00  0.00    +0.000 NA
ATOM     14  H9  UNL     1      28.931 -10.125 -38.519  0.00  0.00    +0.000 HD
ENDROOT
BRANCH  12  15
ATOM     15  C20 UNL     1      28.202  -9.483 -41.291  0.00  0.00    +0.000 A 
ATOM     16  C21 UNL     1      28.865 -10.688 -40.997  0.00  0.00    +0.000 A 
ATOM     17  C22 UNL     1      29.893 -11.147 -41.826  0.00  0.00    +0.000 A 
ATOM     18  C23 UNL     1      30.259 -10.417 -42.960  0.00  0.00    +0.000 A 
ATOM     19  C24 UNL     1      29.590  -9.230 -43.272  0.00  0.00    +0.000 A 
ATOM     20  C25 UNL     1      28.561  -8.767 -42.445  0.00  0.00    +0.000 A 
ENDBRANCH  12  15
BRANCH   1  22
ATOM     21  O1  UNL     1      23.187  -6.300 -40.403  0.00  0.00    +0.000 OA
ATOM     22  C1  UNL     1      23.887  -7.149 -41.019  0.00  0.00    +0.000 C 
ATOM     23  N1  UNL     1      23.620  -7.420 -42.404  0.00  0.00    +0.000 N 
ATOM     24  H1  UNL     1      24.207  -8.124 -42.906  0.00  0.00    +0.000 HD
BRANCH  23  25
ATOM     25  N2  UNL     1      22.562  -6.786 -43.081  0.00  0.00    +0.000 N 
ATOM     26  H2  UNL     1      21.798  -6.331 -42.532  0.00  0.00    +0.000 HD
BRANCH  25  27
ATOM     27  C2  UNL     1      22.468  -6.774 -44.515  0.00  0.00    +0.000 C 
ATOM     28  S1  UNL     1      21.296  -5.902 -45.263  0.00  0.00    +0.000 S 
BRANCH  27  29
ATOM     29  N3  UNL     1      23.263  -7.678 -45.299  0.00  0.00    +0.000 N 
ATOM     30  H3  UNL     1      22.870  -8.621 -45.511  0.00  0.00    +0.000 HD
BRANCH  29  31
ATOM     31  C3  UNL     1      24.554  -7.339 -45.835  0.00  0.00    +0.000 A 
ATOM     32  C4  UNL     1      25.692  -7.333 -45.006  0.00  0.00    +0.000 A 
ATOM     33  C5  UNL     1      26.940  -6.970 -45.518  0.00  0.00    +0.000 A 
ATOM     34  C6  UNL     1      27.067  -6.602 -46.858  0.00  0.00    +0.000 A 
ATOM     35  C7  UNL     1      25.944  -6.591 -47.688  0.00  0.00    +0.000 A 
ATOM     36  C8  UNL     1      24.687  -6.950 -47.183  0.00  0.00    +0.000 A 
ATOM     37 CL1  UNL     1      23.306  -6.940 -48.273  0.00  0.00    +0.000 Cl
ENDBRANCH  29  31
ENDBRANCH  27  29
ENDBRANCH  25  27
ENDBRANCH  23  25
ENDBRANCH   1  22
TORSDOF 6
ENDMDL
