MODEL 1
REMARK VINA RESULT:    -5.063      0.000      0.000
REMARK INTER + INTRA:         -11.015
REMARK INTER:                  -9.356
REMARK INTRA:                  -1.659
REMARK UNBOUND:                -1.659
REMARK  Name = resultss/4CJN/ligands/lig_210_t0.pdb
REMARK  18 active torsions:
REMARK  status: ('A' for Active; 'I' for Inactive)
REMARK    1  A    between atoms: C1_1  and  C2_2
REMARK    2  A    between atoms: C2_2  and  C3_3
REMARK    3  A    between atoms: C3_3  and  C4_4
REMARK    4  A    between atoms: C4_4  and  C5_5
REMARK    5  A    between atoms: C5_5  and  C6_6
REMARK    6  A    between atoms: C6_6  and  C7_7
REMARK    7  A    between atoms: C7_7  and  O1_8
REMARK    8  A    between atoms: C7_7  and  C8_9
REMARK    9  A    between atoms: C8_9  and  O2_10
REMARK   10  A    between atoms: C8_9  and  C9_15
REMARK   11  A    between atoms: O2_10  and  S1_11
REMARK   12  A    between atoms: C9_15  and  O6_16
REMARK   13  A    between atoms: C9_15  and  C10_17
REMARK   14  A    between atoms: C10_17  and  S2_18
REMARK   15  A    between atoms: C12_20  and  O7_21
REMARK   16  A    between atoms: C13_22  and  O8_23
REMARK   17  A    between atoms: C14_24  and  C15_25
REMARK   18  A    between atoms: C15_25  and  O9_26
REMARK                            x       y       z     vdW  Elec       q    Type
REMARK                         _______ _______ _______ _____ _____    ______ ____
ROOT
ATOM      1  C9  UNL     1      25.934  -9.004 -38.520  0.00  0.00    +0.000 C 
ENDROOT
BRANCH   1   2
ATOM      2  O6  UNL     1      24.552  -8.911 -38.763  0.00  0.00    +0.000 OA
ATOM      3  H18 UNL     1      24.135  -9.738 -38.404  0.00  0.00    +0.000 HD
ENDBRANCH   1   2
BRANCH   1   4
ATOM      4  C8  UNL     1      26.658  -9.563 -39.772  0.00  0.00    +0.000 C 
BRANCH   4   5
ATOM      5  O2  UNL     1      27.031  -8.475 -40.601  0.00  0.00    +0.000 OA
BRANCH   5   6
ATOM      6  S1  UNL     1      26.115  -8.477 -42.029  0.00  0.00    +0.000 S 
ATOM      7  O3  UNL     1      26.812  -9.327 -43.053  0.00  0.00    +0.000 OA
ATOM      8  O4  UNL     1      25.979  -7.079 -42.565  0.00  0.00    +0.000 OA
ATOM      9  O5  UNL     1      24.591  -9.121 -41.733  0.00  0.00    +0.000 OA
ENDBRANCH   5   6
ENDBRANCH   4   5
BRANCH   4  10
ATOM     10  C7  UNL     1      27.922 -10.399 -39.434  0.00  0.00    +0.000 C 
BRANCH  10  11
ATOM     11  O1  UNL     1      27.778 -11.082 -38.211  0.00  0.00    +0.000 OA
ATOM     12  H15 UNL     1      28.369 -11.879 -38.237  0.00  0.00    +0.000 HD
ENDBRANCH  10  11
BRANCH  10  13
ATOM     13  C6  UNL     1      29.189  -9.516 -39.424  0.00  0.00    +0.000 C 
BRANCH  13  14
ATOM     14  C5  UNL     1      30.244 -10.021 -40.421  0.00  0.00    +0.000 C 
BRANCH  14  15
ATOM     15  C4  UNL     1      29.643 -10.902 -41.531  0.00  0.00    +0.000 C 
BRANCH  15  16
ATOM     16  C3  UNL     1      30.102 -10.555 -42.962  0.00  0.00    +0.000 C 
BRANCH  16  18
ATOM     17  C1  UNL     1      31.496 -12.695 -43.099  0.00  0.00    +0.000 C 
ATOM     18  C2  UNL     1      31.435 -11.195 -43.389  0.00  0.00    +0.000 C 
ENDBRANCH  16  18
ENDBRANCH  15  16
ENDBRANCH  14  15
ENDBRANCH  13  14
ENDBRANCH  10  13
ENDBRANCH   4  10
ENDBRANCH   1   4
BRANCH   1  19
ATOM     19  C10 UNL     1      26.491  -7.639 -38.077  0.00  0.00    +0.000 C 
BRANCH  19  20
ATOM     20  S2  UNL     1      26.499  -7.497 -36.295  0.00  0.00    +0.000 S 
ATOM     21  C11 UNL     1      27.984  -8.196 -35.639  0.00  0.00    +0.000 C 
ATOM     22  C12 UNL     1      27.580  -9.568 -35.102  0.00  0.00    +0.000 C 
ATOM     23  C13 UNL     1      26.144  -9.461 -34.567  0.00  0.00    +0.000 C 
ATOM     24  C14 UNL     1      25.332  -8.623 -35.574  0.00  0.00    +0.000 C 
BRANCH  23  25
ATOM     25  O8  UNL     1      25.594 -10.747 -34.432  0.00  0.00    +0.000 OA
ATOM     26  H26 UNL     1      25.907 -11.277 -35.210  0.00  0.00    +0.000 HD
ENDBRANCH  23  25
BRANCH  22  27
ATOM     27  O7  UNL     1      28.448  -9.977 -34.078  0.00  0.00    +0.000 OA
ATOM     28  H24 UNL     1      28.098 -10.842 -33.740  0.00  0.00    +0.000 HD
ENDBRANCH  22  27
BRANCH  24  29
ATOM     29  C15 UNL     1      24.181  -7.845 -34.918  0.00  0.00    +0.000 C 
BRANCH  29  30
ATOM     30  O9  UNL     1      23.280  -8.720 -34.296  0.00  0.00    +0.000 OA
ATOM     31  H30 UNL     1      23.742  -9.080 -33.494  0.00  0.00    +0.000 HD
ENDBRANCH  29  30
ENDBRANCH  24  29
ENDBRANCH  19  20
ENDBRANCH   1  19
TORSDOF 17
ENDMDL
MODEL 2
REMARK VINA RESULT:    -4.969      1.403      2.449
REMARK INTER + INTRA:         -10.840
REMARK INTER:                  -9.799
REMARK INTRA:                  -1.041
REMARK UNBOUND:                -1.659
REMARK  Name = resultss/4CJN/ligands/lig_210_t0.pdb
REMARK  18 active torsions:
REMARK  status: ('A' for Active; 'I' for Inactive)
REMARK    1  A    between atoms: C1_1  and  C2_2
REMARK    2  A    between atoms: C2_2  and  C3_3
REMARK    3  A    between atoms: C3_3  and  C4_4
REMARK    4  A    between atoms: C4_4  and  C5_5
REMARK    5  A    between atoms: C5_5  and  C6_6
REMARK    6  A    between atoms: C6_6  and  C7_7
REMARK    7  A    between atoms: C7_7  and  O1_8
REMARK    8  A    between atoms: C7_7  and  C8_9
REMARK    9  A    between atoms: C8_9  and  O2_10
REMARK   10  A    between atoms: C8_9  and  C9_15
REMARK   11  A    between atoms: O2_10  and  S1_11
REMARK   12  A    between atoms: C9_15  and  O6_16
REMARK   13  A    between atoms: C9_15  and  C10_17
REMARK   14  A    between atoms: C10_17  and  S2_18
REMARK   15  A    between atoms: C12_20  and  O7_21
REMARK   16  A    between atoms: C13_22  and  O8_23
REMARK   17  A    between atoms: C14_24  and  C15_25
REMARK   18  A    between atoms: C15_25  and  O9_26
REMARK                            x       y       z     vdW  Elec       q    Type
REMARK                         _______ _______ _______ _____ _____    ______ ____
ROOT
ATOM      1  C9  UNL     1      27.869 -10.124 -39.540  0.00  0.00    +0.000 C 
ENDROOT
BRANCH   1   2
ATOM      2  O6  UNL     1      27.948 -11.444 -39.064  0.00  0.00    +0.000 OA
ATOM      3  H18 UNL     1      28.783 -11.838 -39.430  0.00  0.00    +0.000 HD
ENDBRANCH   1   2
BRANCH   1   4
ATOM      4  C8  UNL     1      28.099 -10.095 -41.073  0.00  0.00    +0.000 C 
BRANCH   4   5
ATOM      5  O2  UNL     1      27.972  -8.758 -41.525  0.00  0.00    +0.000 OA
BRANCH   5   6
ATOM      6  S1  UNL     1      26.646  -8.610 -42.572  0.00  0.00    +0.000 S 
ATOM      7  O3  UNL     1      25.719  -7.555 -42.037  0.00  0.00    +0.000 OA
ATOM      8  O4  UNL     1      25.903  -9.913 -42.663  0.00  0.00    +0.000 OA
ATOM      9  O5  UNL     1      27.170  -8.149 -44.101  0.00  0.00    +0.000 OA
ENDBRANCH   5   6
ENDBRANCH   4   5
BRANCH   4  10
ATOM     10  C7  UNL     1      29.487 -10.646 -41.501  0.00  0.00    +0.000 C 
BRANCH  10  11
ATOM     11  O1  UNL     1      30.434 -10.518 -40.467  0.00  0.00    +0.000 OA
ATOM     12  H15 UNL     1      30.601  -9.550 -40.328  0.00  0.00    +0.000 HD
ENDBRANCH  10  11
BRANCH  10  13
ATOM     13  C6  UNL     1      29.986  -9.958 -42.791  0.00  0.00    +0.000 C 
BRANCH  13  14
ATOM     14  C5  UNL     1      31.212 -10.673 -43.380  0.00  0.00    +0.000 C 
BRANCH  14  15
ATOM     15  C4  UNL     1      31.129 -12.205 -43.252  0.00  0.00    +0.000 C 
BRANCH  15  16
ATOM     16  C3  UNL     1      32.479 -12.916 -43.026  0.00  0.00    +0.000 C 
BRANCH  16  18
ATOM     17  C1  UNL     1      32.529 -13.486 -45.518  0.00  0.00    +0.000 C 
ATOM     18  C2  UNL     1      33.343 -13.084 -44.288  0.00  0.00    +0.000 C 
ENDBRANCH  16  18
ENDBRANCH  15  16
ENDBRANCH  14  15
ENDBRANCH  13  14
ENDBRANCH  10  13
ENDBRANCH   4  10
ENDBRANCH   1   4
BRANCH   1  19
ATOM     19  C10 UNL     1      26.526  -9.490 -39.133  0.00  0.00    +0.000 C 
BRANCH  19  20
ATOM     20  S2  UNL     1      26.686  -8.572 -37.608  0.00  0.00    +0.000 S 
ATOM     21  C11 UNL     1      28.155  -9.063 -36.757  0.00  0.00    +0.000 C 
ATOM     22  C12 UNL     1      27.684 -10.000 -35.646  0.00  0.00    +0.000 C 
ATOM     23  C13 UNL     1      26.308  -9.512 -35.170  0.00  0.00    +0.000 C 
ATOM     24  C14 UNL     1      25.491  -9.126 -36.418  0.00  0.00    +0.000 C 
BRANCH  23  25
ATOM     25  O8  UNL     1      25.667 -10.535 -34.451  0.00  0.00    +0.000 OA
ATOM     26  H26 UNL     1      26.030 -11.395 -34.789  0.00  0.00    +0.000 HD
ENDBRANCH  23  25
BRANCH  22  27
ATOM     27  O7  UNL     1      28.593 -10.003 -34.577  0.00  0.00    +0.000 OA
ATOM     28  H24 UNL     1      28.735  -9.054 -34.325  0.00  0.00    +0.000 HD
ENDBRANCH  22  27
BRANCH  24  29
ATOM     29  C15 UNL     1      24.463  -8.018 -36.144  0.00  0.00    +0.000 C 
BRANCH  29  30
ATOM     30  O9  UNL     1      23.737  -7.715 -37.304  0.00  0.00    +0.000 OA
ATOM     31  H30 UNL     1      24.401  -7.464 -37.998  0.00  0.00    +0.000 HD
ENDBRANCH  29  30
ENDBRANCH  24  29
ENDBRANCH  19  20
ENDBRANCH   1  19
TORSDOF 17
ENDMDL
MODEL 3
REMARK VINA RESULT:    -4.887      1.157      1.787
REMARK INTER + INTRA:         -10.690
REMARK INTER:                  -8.994
REMARK INTRA:                  -1.696
REMARK UNBOUND:                -1.659
REMARK  Name = resultss/4CJN/ligands/lig_210_t0.pdb
REMARK  18 active torsions:
REMARK  status: ('A' for Active; 'I' for Inactive)
REMARK    1  A    between atoms: C1_1  and  C2_2
REMARK    2  A    between atoms: C2_2  and  C3_3
REMARK    3  A    between atoms: C3_3  and  C4_4
REMARK    4  A    between atoms: C4_4  and  C5_5
REMARK    5  A    between atoms: C5_5  and  C6_6
REMARK    6  A    between atoms: C6_6  and  C7_7
REMARK    7  A    between atoms: C7_7  and  O1_8
REMARK    8  A    between atoms: C7_7  and  C8_9
REMARK    9  A    between atoms: C8_9  and  O2_10
REMARK   10  A    between atoms: C8_9  and  C9_15
REMARK   11  A    between atoms: O2_10  and  S1_11
REMARK   12  A    between atoms: C9_15  and  O6_16
REMARK   13  A    between atoms: C9_15  and  C10_17
REMARK   14  A    between atoms: C10_17  and  S2_18
REMARK   15  A    between atoms: C12_20  and  O7_21
REMARK   16  A    between atoms: C13_22  and  O8_23
REMARK   17  A    between atoms: C14_24  and  C15_25
REMARK   18  A    between atoms: C15_25  and  O9_26
REMARK                            x       y       z     vdW  Elec       q    Type
REMARK                         _______ _______ _______ _____ _____    ______ ____
ROOT
ATOM      1  C9  UNL     1      25.603  -8.485 -38.263  0.00  0.00    +0.000 C 
ENDROOT
BRANCH   1   2
ATOM      2  O6  UNL     1      24.241  -8.757 -38.484  0.00  0.00    +0.000 OA
ATOM      3  H18 UNL     1      23.821  -8.891 -37.594  0.00  0.00    +0.000 HD
ENDBRANCH   1   2
BRANCH   1   4
ATOM      4  C8  UNL     1      26.395  -8.621 -39.589  0.00  0.00    +0.000 C 
BRANCH   4   5
ATOM      5  O2  UNL     1      25.501  -8.430 -40.672  0.00  0.00    +0.000 OA
BRANCH   5   6
ATOM      6  S1  UNL     1      25.623  -9.714 -41.774  0.00  0.00    +0.000 S 
ATOM      7  O3  UNL     1      24.370  -9.765 -42.601  0.00  0.00    +0.000 OA
ATOM      8  O4  UNL     1      25.779 -11.019 -41.042  0.00  0.00    +0.000 OA
ATOM      9  O5  UNL     1      26.939  -9.475 -42.792  0.00  0.00    +0.000 OA
ENDBRANCH   5   6
ENDBRANCH   4   5
BRANCH   4  10
ATOM     10  C7  UNL     1      27.568  -7.611 -39.714  0.00  0.00    +0.000 C 
BRANCH  10  11
ATOM     11  O1  UNL     1      27.579  -6.987 -40.976  0.00  0.00    +0.000 OA
ATOM     12  H15 UNL     1      28.291  -6.295 -40.966  0.00  0.00    +0.000 HD
ENDBRANCH  10  11
BRANCH  10  13
ATOM     13  C6  UNL     1      28.924  -8.291 -39.426  0.00  0.00    +0.000 C 
BRANCH  13  14
ATOM     14  C5  UNL     1      28.940  -9.753 -39.897  0.00  0.00    +0.000 C 
BRANCH  14  15
ATOM     15  C4  UNL     1      30.163 -10.086 -40.770  0.00  0.00    +0.000 C 
BRANCH  15  16
ATOM     16  C3  UNL     1      29.921 -11.154 -41.856  0.00  0.00    +0.000 C 
BRANCH  16  18
ATOM     17  C1  UNL     1      31.491 -12.594 -43.269  0.00  0.00    +0.000 C 
ATOM     18  C2  UNL     1      30.970 -11.186 -42.982  0.00  0.00    +0.000 C 
ENDBRANCH  16  18
ENDBRANCH  15  16
ENDBRANCH  14  15
ENDBRANCH  13  14
ENDBRANCH  10  13
ENDBRANCH   4  10
ENDBRANCH   1   4
BRANCH   1  19
ATOM     19  C10 UNL     1      25.771  -7.098 -37.616  0.00  0.00    +0.000 C 
BRANCH  19  20
ATOM     20  S2  UNL     1      26.223  -7.244 -35.893  0.00  0.00    +0.000 S 
ATOM     21  C11 UNL     1      27.751  -8.119 -35.740  0.00  0.00    +0.000 C 
ATOM     22  C12 UNL     1      27.364  -9.535 -35.318  0.00  0.00    +0.000 C 
ATOM     23  C13 UNL     1      26.116  -9.438 -34.428  0.00  0.00    +0.000 C 
ATOM     24  C14 UNL     1      25.166  -8.407 -35.067  0.00  0.00    +0.000 C 
BRANCH  23  25
ATOM     25  O8  UNL     1      25.499 -10.697 -34.341  0.00  0.00    +0.000 OA
ATOM     26  H26 UNL     1      25.763 -11.203 -35.153  0.00  0.00    +0.000 HD
ENDBRANCH  23  25
BRANCH  22  27
ATOM     27  O7  UNL     1      28.412 -10.150 -34.616  0.00  0.00    +0.000 OA
ATOM     28  H24 UNL     1      28.402 -11.108 -34.875  0.00  0.00    +0.000 HD
ENDBRANCH  22  27
BRANCH  24  29
ATOM     29  C15 UNL     1      24.285  -7.683 -34.037  0.00  0.00    +0.000 C 
BRANCH  29  30
ATOM     30  O9  UNL     1      24.353  -8.318 -32.790  0.00  0.00    +0.000 OA
ATOM     31  H30 UNL     1      24.937  -7.755 -32.217  0.00  0.00    +0.000 HD
ENDBRANCH  29  30
ENDBRANCH  24  29
ENDBRANCH  19  20
ENDBRANCH   1  19
TORSDOF 17
ENDMDL
MODEL 4
REMARK VINA RESULT:    -4.855      2.140      5.858
REMARK INTER + INTRA:         -10.630
REMARK INTER:                  -8.981
REMARK INTRA:                  -1.649
REMARK UNBOUND:                -1.659
REMARK  Name = resultss/4CJN/ligands/lig_210_t0.pdb
REMARK  18 active torsions:
REMARK  status: ('A' for Active; 'I' for Inactive)
REMARK    1  A    between atoms: C1_1  and  C2_2
REMARK    2  A    between atoms: C2_2  and  C3_3
REMARK    3  A    between atoms: C3_3  and  C4_4
REMARK    4  A    between atoms: C4_4  and  C5_5
REMARK    5  A    between atoms: C5_5  and  C6_6
REMARK    6  A    between atoms: C6_6  and  C7_7
REMARK    7  A    between atoms: C7_7  and  O1_8
REMARK    8  A    between atoms: C7_7  and  C8_9
REMARK    9  A    between atoms: C8_9  and  O2_10
REMARK   10  A    between atoms: C8_9  and  C9_15
REMARK   11  A    between atoms: O2_10  and  S1_11
REMARK   12  A    between atoms: C9_15  and  O6_16
REMARK   13  A    between atoms: C9_15  and  C10_17
REMARK   14  A    between atoms: C10_17  and  S2_18
REMARK   15  A    between atoms: C12_20  and  O7_21
REMARK   16  A    between atoms: C13_22  and  O8_23
REMARK   17  A    between atoms: C14_24  and  C15_25
REMARK   18  A    between atoms: C15_25  and  O9_26
REMARK                            x       y       z     vdW  Elec       q    Type
REMARK                         _______ _______ _______ _____ _____    ______ ____
ROOT
ATOM      1  C9  UNL     1      26.757  -7.908 -38.509  0.00  0.00    +0.000 C 
ENDROOT
BRANCH   1   2
ATOM      2  O6  UNL     1      26.924  -6.862 -37.585  0.00  0.00    +0.000 OA
ATOM      3  H18 UNL     1      27.837  -6.496 -37.718  0.00  0.00    +0.000 HD
ENDBRANCH   1   2
BRANCH   1   4
ATOM      4  C8  UNL     1      27.207  -9.252 -37.880  0.00  0.00    +0.000 C 
BRANCH   4   5
ATOM      5  O2  UNL     1      26.144  -9.761 -37.093  0.00  0.00    +0.000 OA
BRANCH   5   6
ATOM      6  S1  UNL     1      26.330  -9.294 -35.473  0.00  0.00    +0.000 S 
ATOM      7  O3  UNL     1      25.408  -8.141 -35.191  0.00  0.00    +0.000 OA
ATOM      8  O4  UNL     1      27.746  -8.862 -35.212  0.00  0.00    +0.000 OA
ATOM      9  O5  UNL     1      25.930 -10.571 -34.457  0.00  0.00    +0.000 OA
ENDBRANCH   5   6
ENDBRANCH   4   5
BRANCH   4  10
ATOM     10  C7  UNL     1      27.616 -10.320 -38.931  0.00  0.00    +0.000 C 
BRANCH  10  11
ATOM     11  O1  UNL     1      27.918 -11.553 -38.324  0.00  0.00    +0.000 OA
ATOM     12  H15 UNL     1      27.230 -12.209 -38.611  0.00  0.00    +0.000 HD
ENDBRANCH  10  11
BRANCH  10  13
ATOM     13  C6  UNL     1      28.800  -9.829 -39.794  0.00  0.00    +0.000 C 
BRANCH  13  14
ATOM     14  C5  UNL     1      29.044 -10.746 -41.002  0.00  0.00    +0.000 C 
BRANCH  14  15
ATOM     15  C4  UNL     1      30.421 -10.522 -41.654  0.00  0.00    +0.000 C 
BRANCH  15  16
ATOM     16  C3  UNL     1      30.606 -11.184 -43.034  0.00  0.00    +0.000 C 
BRANCH  16  18
ATOM     17  C1  UNL     1      32.200 -12.772 -44.248  0.00  0.00    +0.000 C 
ATOM     18  C2  UNL     1      31.334 -12.541 -43.011  0.00  0.00    +0.000 C 
ENDBRANCH  16  18
ENDBRANCH  15  16
ENDBRANCH  14  15
ENDBRANCH  13  14
ENDBRANCH  10  13
ENDBRANCH   4  10
ENDBRANCH   1   4
BRANCH   1  19
ATOM     19  C10 UNL     1      25.302  -7.950 -39.011  0.00  0.00    +0.000 C 
BRANCH  19  20
ATOM     20  S2  UNL     1      25.177  -7.298 -40.670  0.00  0.00    +0.000 S 
ATOM     21  C11 UNL     1      23.494  -7.333 -41.208  0.00  0.00    +0.000 C 
ATOM     22  C12 UNL     1      23.392  -8.544 -42.134  0.00  0.00    +0.000 C 
ATOM     23  C13 UNL     1      24.733  -8.690 -42.869  0.00  0.00    +0.000 C 
ATOM     24  C14 UNL     1      25.857  -8.442 -41.844  0.00  0.00    +0.000 C 
BRANCH  23  25
ATOM     25  O8  UNL     1      24.833  -9.979 -43.417  0.00  0.00    +0.000 OA
ATOM     26  H26 UNL     1      25.176 -10.571 -42.697  0.00  0.00    +0.000 HD
ENDBRANCH  23  25
BRANCH  22  27
ATOM     27  O7  UNL     1      22.349  -8.379 -43.059  0.00  0.00    +0.000 OA
ATOM     28  H24 UNL     1      21.559  -8.074 -42.542  0.00  0.00    +0.000 HD
ENDBRANCH  22  27
BRANCH  24  29
ATOM     29  C15 UNL     1      27.129  -7.859 -42.477  0.00  0.00    +0.000 C 
BRANCH  29  30
ATOM     30  O9  UNL     1      27.614  -8.701 -43.486  0.00  0.00    +0.000 OA
ATOM     31  H30 UNL     1      26.991  -8.613 -44.254  0.00  0.00    +0.000 HD
ENDBRANCH  29  30
ENDBRANCH  24  29
ENDBRANCH  19  20
ENDBRANCH   1  19
TORSDOF 17
ENDMDL
MODEL 5
REMARK VINA RESULT:    -4.815      1.834      2.747
REMARK INTER + INTRA:         -10.557
REMARK INTER:                  -8.868
REMARK INTRA:                  -1.689
REMARK UNBOUND:                -1.659
REMARK  Name = resultss/4CJN/ligands/lig_210_t0.pdb
REMARK  18 active torsions:
REMARK  status: ('A' for Active; 'I' for Inactive)
REMARK    1  A    between atoms: C1_1  and  C2_2
REMARK    2  A    between atoms: C2_2  and  C3_3
REMARK    3  A    between atoms: C3_3  and  C4_4
REMARK    4  A    between atoms: C4_4  and  C5_5
REMARK    5  A    between atoms: C5_5  and  C6_6
REMARK    6  A    between atoms: C6_6  and  C7_7
REMARK    7  A    between atoms: C7_7  and  O1_8
REMARK    8  A    between atoms: C7_7  and  C8_9
REMARK    9  A    between atoms: C8_9  and  O2_10
REMARK   10  A    between atoms: C8_9  and  C9_15
REMARK   11  A    between atoms: O2_10  and  S1_11
REMARK   12  A    between atoms: C9_15  and  O6_16
REMARK   13  A    between atoms: C9_15  and  C10_17
REMARK   14  A    between atoms: C10_17  and  S2_18
REMARK   15  A    between atoms: C12_20  and  O7_21
REMARK   16  A    between atoms: C13_22  and  O8_23
REMARK   17  A    between atoms: C14_24  and  C15_25
REMARK   18  A    between atoms: C15_25  and  O9_26
REMARK                            x       y       z     vdW  Elec       q    Type
REMARK                         _______ _______ _______ _____ _____    ______ ____
ROOT
ATOM      1  C9  UNL     1      25.525  -8.577 -38.040  0.00  0.00    +0.000 C 
ENDROOT
BRANCH   1   2
ATOM      2  O6  UNL     1      24.346  -8.793 -38.774  0.00  0.00    +0.000 OA
ATOM      3  H18 UNL     1      24.339  -8.135 -39.517  0.00  0.00    +0.000 HD
ENDBRANCH   1   2
BRANCH   1   4
ATOM      4  C8  UNL     1      26.764  -8.829 -38.937  0.00  0.00    +0.000 C 
BRANCH   4   5
ATOM      5  O2  UNL     1      27.494  -9.921 -38.404  0.00  0.00    +0.000 OA
BRANCH   5   6
ATOM      6  S1  UNL     1      29.127  -9.505 -38.211  0.00  0.00    +0.000 S 
ATOM      7  O3  UNL     1      29.909 -10.055 -39.369  0.00  0.00    +0.000 OA
ATOM      8  O4  UNL     1      29.668 -10.087 -36.935  0.00  0.00    +0.000 OA
ATOM      9  O5  UNL     1      29.294  -7.832 -38.186  0.00  0.00    +0.000 OA
ENDBRANCH   5   6
ENDBRANCH   4   5
BRANCH   4  10
ATOM     10  C7  UNL     1      26.404  -9.134 -40.417  0.00  0.00    +0.000 C 
BRANCH  10  11
ATOM     11  O1  UNL     1      26.361 -10.519 -40.664  0.00  0.00    +0.000 OA
ATOM     12  H15 UNL     1      26.225 -10.978 -39.794  0.00  0.00    +0.000 HD
ENDBRANCH  10  11
BRANCH  10  13
ATOM     13  C6  UNL     1      27.383  -8.434 -41.385  0.00  0.00    +0.000 C 
BRANCH  13  14
ATOM     14  C5  UNL     1      27.619  -9.264 -42.657  0.00  0.00    +0.000 C 
BRANCH  14  15
ATOM     15  C4  UNL     1      29.108  -9.374 -43.031  0.00  0.00    +0.000 C 
BRANCH  15  16
ATOM     16  C3  UNL     1      29.798 -10.679 -42.588  0.00  0.00    +0.000 C 
BRANCH  16  18
ATOM     17  C1  UNL     1      31.432 -12.411 -43.522  0.00  0.00    +0.000 C 
ATOM     18  C2  UNL     1      31.177 -10.933 -43.223  0.00  0.00    +0.000 C 
ENDBRANCH  16  18
ENDBRANCH  15  16
ENDBRANCH  14  15
ENDBRANCH  13  14
ENDBRANCH  10  13
ENDBRANCH   4  10
ENDBRANCH   1   4
BRANCH   1  19
ATOM     19  C10 UNL     1      25.520  -7.165 -37.426  0.00  0.00    +0.000 C 
BRANCH  19  20
ATOM     20  S2  UNL     1      25.781  -7.233 -35.659  0.00  0.00    +0.000 S 
ATOM     21  C11 UNL     1      27.394  -7.865 -35.309  0.00  0.00    +0.000 C 
ATOM     22  C12 UNL     1      27.177  -9.322 -34.904  0.00  0.00    +0.000 C 
ATOM     23  C13 UNL     1      25.832  -9.411 -34.167  0.00  0.00    +0.000 C 
ATOM     24  C14 UNL     1      24.820  -8.538 -34.936  0.00  0.00    +0.000 C 
BRANCH  23  25
ATOM     25  O8  UNL     1      25.405 -10.748 -34.125  0.00  0.00    +0.000 OA
ATOM     26  H26 UNL     1      26.035 -11.270 -34.687  0.00  0.00    +0.000 HD
ENDBRANCH  23  25
BRANCH  22  27
ATOM     27  O7  UNL     1      28.215  -9.767 -34.071  0.00  0.00    +0.000 OA
ATOM     28  H24 UNL     1      28.705 -10.465 -34.579  0.00  0.00    +0.000 HD
ENDBRANCH  22  27
BRANCH  24  29
ATOM     29  C15 UNL     1      23.725  -7.952 -34.033  0.00  0.00    +0.000 C 
BRANCH  29  30
ATOM     30  O9  UNL     1      23.867  -8.410 -32.716  0.00  0.00    +0.000 OA
ATOM     31  H30 UNL     1      24.578  -7.858 -32.298  0.00  0.00    +0.000 HD
ENDBRANCH  29  30
ENDBRANCH  24  29
ENDBRANCH  19  20
ENDBRANCH   1  19
TORSDOF 17
ENDMDL
MODEL 6
REMARK VINA RESULT:    -4.807      2.641      7.714
REMARK INTER + INTRA:         -10.542
REMARK INTER:                  -8.777
REMARK INTRA:                  -1.765
REMARK UNBOUND:                -1.659
REMARK  Name = resultss/4CJN/ligands/lig_210_t0.pdb
REMARK  18 active torsions:
REMARK  status: ('A' for Active; 'I' for Inactive)
REMARK    1  A    between atoms: C1_1  and  C2_2
REMARK    2  A    between atoms: C2_2  and  C3_3
REMARK    3  A    between atoms: C3_3  and  C4_4
REMARK    4  A    between atoms: C4_4  and  C5_5
REMARK    5  A    between atoms: C5_5  and  C6_6
REMARK    6  A    between atoms: C6_6  and  C7_7
REMARK    7  A    between atoms: C7_7  and  O1_8
REMARK    8  A    between atoms: C7_7  and  C8_9
REMARK    9  A    between atoms: C8_9  and  O2_10
REMARK   10  A    between atoms: C8_9  and  C9_15
REMARK   11  A    between atoms: O2_10  and  S1_11
REMARK   12  A    between atoms: C9_15  and  O6_16
REMARK   13  A    between atoms: C9_15  and  C10_17
REMARK   14  A    between atoms: C10_17  and  S2_18
REMARK   15  A    between atoms: C12_20  and  O7_21
REMARK   16  A    between atoms: C13_22  and  O8_23
REMARK   17  A    between atoms: C14_24  and  C15_25
REMARK   18  A    between atoms: C15_25  and  O9_26
REMARK                            x       y       z     vdW  Elec       q    Type
REMARK                         _______ _______ _______ _____ _____    ______ ____
ROOT
ATOM      1  C9  UNL     1      28.181  -9.813 -36.893  0.00  0.00    +0.000 C 
ENDROOT
BRANCH   1   2
ATOM      2  O6  UNL     1      29.234 -10.592 -37.404  0.00  0.00    +0.000 OA
ATOM      3  H18 UNL     1      29.354 -10.334 -38.356  0.00  0.00    +0.000 HD
ENDBRANCH   1   2
BRANCH   1   4
ATOM      4  C8  UNL     1      28.195  -9.849 -35.343  0.00  0.00    +0.000 C 
BRANCH   4   5
ATOM      5  O2  UNL     1      28.850  -8.685 -34.870  0.00  0.00    +0.000 OA
BRANCH   5   6
ATOM      6  S1  UNL     1      30.313  -9.093 -34.115  0.00  0.00    +0.000 S 
ATOM      7  O3  UNL     1      30.030 -10.049 -32.991  0.00  0.00    +0.000 OA
ATOM      8  O4  UNL     1      30.975  -7.864 -33.557  0.00  0.00    +0.000 OA
ATOM      9  O5  UNL     1      31.340  -9.839 -35.217  0.00  0.00    +0.000 OA
ENDBRANCH   5   6
ENDBRANCH   4   5
BRANCH   4  10
ATOM     10  C7  UNL     1      26.778  -9.925 -34.714  0.00  0.00    +0.000 C 
BRANCH  10  11
ATOM     11  O1  UNL     1      25.778 -10.005 -35.701  0.00  0.00    +0.000 OA
ATOM     12  H15 UNL     1      25.003  -9.466 -35.392  0.00  0.00    +0.000 HD
ENDBRANCH  10  11
BRANCH  10  13
ATOM     13  C6  UNL     1      26.522  -8.730 -33.769  0.00  0.00    +0.000 C 
BRANCH  13  14
ATOM     14  C5  UNL     1      25.231  -7.982 -34.133  0.00  0.00    +0.000 C 
BRANCH  14  15
ATOM     15  C4  UNL     1      24.043  -8.366 -33.232  0.00  0.00    +0.000 C 
BRANCH  15  16
ATOM     16  C3  UNL     1      22.715  -8.618 -33.974  0.00  0.00    +0.000 C 
BRANCH  16  18
ATOM     17  C1  UNL     1      22.031  -6.360 -34.960  0.00  0.00    +0.000 C 
ATOM     18  C2  UNL     1      22.514  -7.781 -35.250  0.00  0.00    +0.000 C 
ENDBRANCH  16  18
ENDBRANCH  15  16
ENDBRANCH  14  15
ENDBRANCH  13  14
ENDBRANCH  10  13
ENDBRANCH   4  10
ENDBRANCH   1   4
BRANCH   1  19
ATOM     19  C10 UNL     1      28.260  -8.380 -37.450  0.00  0.00    +0.000 C 
BRANCH  19  20
ATOM     20  S2  UNL     1      27.852  -8.344 -39.189  0.00  0.00    +0.000 S 
ATOM     21  C11 UNL     1      26.875  -6.917 -39.553  0.00  0.00    +0.000 C 
ATOM     22  C12 UNL     1      25.439  -7.428 -39.662  0.00  0.00    +0.000 C 
ATOM     23  C13 UNL     1      25.488  -8.845 -40.253  0.00  0.00    +0.000 C 
ATOM     24  C14 UNL     1      26.652  -9.594 -39.575  0.00  0.00    +0.000 C 
BRANCH  23  25
ATOM     25  O8  UNL     1      24.268  -9.499 -40.011  0.00  0.00    +0.000 OA
ATOM     26  H26 UNL     1      24.072 -10.049 -40.815  0.00  0.00    +0.000 HD
ENDBRANCH  23  25
BRANCH  22  27
ATOM     27  O7  UNL     1      24.672  -6.588 -40.484  0.00  0.00    +0.000 OA
ATOM     28  H24 UNL     1      24.085  -6.062 -39.881  0.00  0.00    +0.000 HD
ENDBRANCH  22  27
BRANCH  24  29
ATOM     29  C15 UNL     1      27.279 -10.670 -40.474  0.00  0.00    +0.000 C 
BRANCH  29  30
ATOM     30  O9  UNL     1      27.660 -11.788 -39.721  0.00  0.00    +0.000 OA
ATOM     31  H30 UNL     1      26.986 -12.494 -39.899  0.00  0.00    +0.000 HD
ENDBRANCH  29  30
ENDBRANCH  24  29
ENDBRANCH  19  20
ENDBRANCH   1  19
TORSDOF 17
ENDMDL
MODEL 7
REMARK VINA RESULT:    -4.715      2.234      6.956
REMARK INTER + INTRA:         -10.370
REMARK INTER:                  -8.511
REMARK INTRA:                  -1.860
REMARK UNBOUND:                -1.659
REMARK  Name = resultss/4CJN/ligands/lig_210_t0.pdb
REMARK  18 active torsions:
REMARK  status: ('A' for Active; 'I' for Inactive)
REMARK    1  A    between atoms: C1_1  and  C2_2
REMARK    2  A    between atoms: C2_2  and  C3_3
REMARK    3  A    between atoms: C3_3  and  C4_4
REMARK    4  A    between atoms: C4_4  and  C5_5
REMARK    5  A    between atoms: C5_5  and  C6_6
REMARK    6  A    between atoms: C6_6  and  C7_7
REMARK    7  A    between atoms: C7_7  and  O1_8
REMARK    8  A    between atoms: C7_7  and  C8_9
REMARK    9  A    between atoms: C8_9  and  O2_10
REMARK   10  A    between atoms: C8_9  and  C9_15
REMARK   11  A    between atoms: O2_10  and  S1_11
REMARK   12  A    between atoms: C9_15  and  O6_16
REMARK   13  A    between atoms: C9_15  and  C10_17
REMARK   14  A    between atoms: C10_17  and  S2_18
REMARK   15  A    between atoms: C12_20  and  O7_21
REMARK   16  A    between atoms: C13_22  and  O8_23
REMARK   17  A    between atoms: C14_24  and  C15_25
REMARK   18  A    between atoms: C15_25  and  O9_26
REMARK                            x       y       z     vdW  Elec       q    Type
REMARK                         _______ _______ _______ _____ _____    ______ ____
ROOT
ATOM      1  C9  UNL     1      26.756  -9.312 -37.185  0.00  0.00    +0.000 C 
ENDROOT
BRANCH   1   2
ATOM      2  O6  UNL     1      27.437 -10.486 -36.821  0.00  0.00    +0.000 OA
ATOM      3  H18 UNL     1      28.305 -10.483 -37.304  0.00  0.00    +0.000 HD
ENDBRANCH   1   2
BRANCH   1   4
ATOM      4  C8  UNL     1      26.098  -8.669 -35.936  0.00  0.00    +0.000 C 
BRANCH   4   5
ATOM      5  O2  UNL     1      24.709  -8.530 -36.178  0.00  0.00    +0.000 OA
BRANCH   5   6
ATOM      6  S1  UNL     1      24.245  -6.903 -36.052  0.00  0.00    +0.000 S 
ATOM      7  O3  UNL     1      23.282  -6.585 -37.160  0.00  0.00    +0.000 OA
ATOM      8  O4  UNL     1      25.445  -6.006 -36.174  0.00  0.00    +0.000 OA
ATOM      9  O5  UNL     1      23.486  -6.634 -34.576  0.00  0.00    +0.000 OA
ENDBRANCH   5   6
ENDBRANCH   4   5
BRANCH   4  10
ATOM     10  C7  UNL     1      26.307  -9.491 -34.635  0.00  0.00    +0.000 C 
BRANCH  10  11
ATOM     11  O1  UNL     1      25.490 -10.636 -34.611  0.00  0.00    +0.000 OA
ATOM     12  H15 UNL     1      24.567 -10.346 -34.388  0.00  0.00    +0.000 HD
ENDBRANCH  10  11
BRANCH  10  13
ATOM     13  C6  UNL     1      26.070  -8.621 -33.381  0.00  0.00    +0.000 C 
BRANCH  13  14
ATOM     14  C5  UNL     1      27.109  -7.494 -33.265  0.00  0.00    +0.000 C 
BRANCH  14  15
ATOM     15  C4  UNL     1      28.027  -7.653 -32.039  0.00  0.00    +0.000 C 
BRANCH  15  16
ATOM     16  C3  UNL     1      29.506  -7.945 -32.364  0.00  0.00    +0.000 C 
BRANCH  16  18
ATOM     17  C1  UNL     1      29.953  -9.577 -34.281  0.00  0.00    +0.000 C 
ATOM     18  C2  UNL     1      29.806  -9.400 -32.770  0.00  0.00    +0.000 C 
ENDBRANCH  16  18
ENDBRANCH  15  16
ENDBRANCH  14  15
ENDBRANCH  13  14
ENDBRANCH  10  13
ENDBRANCH   4  10
ENDBRANCH   1   4
BRANCH   1  19
ATOM     19  C10 UNL     1      27.709  -8.345 -37.912  0.00  0.00    +0.000 C 
BRANCH  19  20
ATOM     20  S2  UNL     1      27.220  -8.123 -39.616  0.00  0.00    +0.000 S 
ATOM     21  C11 UNL     1      25.508  -7.692 -39.704  0.00  0.00    +0.000 C 
ATOM     22  C12 UNL     1      24.788  -8.977 -40.109  0.00  0.00    +0.000 C 
ATOM     23  C13 UNL     1      25.721  -9.765 -41.041  0.00  0.00    +0.000 C 
ATOM     24  C14 UNL     1      27.144  -9.687 -40.453  0.00  0.00    +0.000 C 
BRANCH  23  25
ATOM     25  O8  UNL     1      25.289 -11.099 -41.123  0.00  0.00    +0.000 OA
ATOM     26  H26 UNL     1      25.809 -11.612 -40.450  0.00  0.00    +0.000 HD
ENDBRANCH  23  25
BRANCH  22  27
ATOM     27  O7  UNL     1      23.582  -8.687 -40.766  0.00  0.00    +0.000 OA
ATOM     28  H24 UNL     1      22.862  -9.118 -40.236  0.00  0.00    +0.000 HD
ENDBRANCH  22  27
BRANCH  24  29
ATOM     29  C15 UNL     1      28.242  -9.768 -41.524  0.00  0.00    +0.000 C 
BRANCH  29  30
ATOM     30  O9  UNL     1      27.690  -9.693 -42.810  0.00  0.00    +0.000 OA
ATOM     31  H30 UNL     1      28.068  -8.879 -43.234  0.00  0.00    +0.000 HD
ENDBRANCH  29  30
ENDBRANCH  24  29
ENDBRANCH  19  20
ENDBRANCH   1  19
TORSDOF 17
ENDMDL
MODEL 8
REMARK VINA RESULT:    -4.699      3.837      6.411
REMARK INTER + INTRA:         -10.341
REMARK INTER:                  -9.297
REMARK INTRA:                  -1.044
REMARK UNBOUND:                -1.659
REMARK  Name = resultss/4CJN/ligands/lig_210_t0.pdb
REMARK  18 active torsions:
REMARK  status: ('A' for Active; 'I' for Inactive)
REMARK    1  A    between atoms: C1_1  and  C2_2
REMARK    2  A    between atoms: C2_2  and  C3_3
REMARK    3  A    between atoms: C3_3  and  C4_4
REMARK    4  A    between atoms: C4_4  and  C5_5
REMARK    5  A    between atoms: C5_5  and  C6_6
REMARK    6  A    between atoms: C6_6  and  C7_7
REMARK    7  A    between atoms: C7_7  and  O1_8
REMARK    8  A    between atoms: C7_7  and  C8_9
REMARK    9  A    between atoms: C8_9  and  O2_10
REMARK   10  A    between atoms: C8_9  and  C9_15
REMARK   11  A    between atoms: O2_10  and  S1_11
REMARK   12  A    between atoms: C9_15  and  O6_16
REMARK   13  A    between atoms: C9_15  and  C10_17
REMARK   14  A    between atoms: C10_17  and  S2_18
REMARK   15  A    between atoms: C12_20  and  O7_21
REMARK   16  A    between atoms: C13_22  and  O8_23
REMARK   17  A    between atoms: C14_24  and  C15_25
REMARK   18  A    between atoms: C15_25  and  O9_26
REMARK                            x       y       z     vdW  Elec       q    Type
REMARK                         _______ _______ _______ _____ _____    ______ ____
ROOT
ATOM      1  C9  UNL     1      29.108 -10.068 -41.344  0.00  0.00    +0.000 C 
ENDROOT
BRANCH   1   2
ATOM      2  O6  UNL     1      28.879 -11.432 -41.095  0.00  0.00    +0.000 OA
ATOM      3  H18 UNL     1      29.641 -11.934 -41.487  0.00  0.00    +0.000 HD
ENDBRANCH   1   2
BRANCH   1   4
ATOM      4  C8  UNL     1      30.632  -9.784 -41.390  0.00  0.00    +0.000 C 
BRANCH   4   5
ATOM      5  O2  UNL     1      31.106  -9.640 -40.062  0.00  0.00    +0.000 OA
BRANCH   5   6
ATOM      6  S1  UNL     1      31.800  -8.107 -39.844  0.00  0.00    +0.000 S 
ATOM      7  O3  UNL     1      31.797  -7.776 -38.379  0.00  0.00    +0.000 OA
ATOM      8  O4  UNL     1      31.007  -7.064 -40.582  0.00  0.00    +0.000 OA
ATOM      9  O5  UNL     1      33.387  -8.110 -40.399  0.00  0.00    +0.000 OA
ENDBRANCH   5   6
ENDBRANCH   4   5
BRANCH   4  10
ATOM     10  C7  UNL     1      31.447 -10.899 -42.101  0.00  0.00    +0.000 C 
BRANCH  10  11
ATOM     11  O1  UNL     1      32.780 -10.933 -41.650  0.00  0.00    +0.000 OA
ATOM     12  H15 UNL     1      32.995 -10.040 -41.274  0.00  0.00    +0.000 HD
ENDBRANCH  10  11
BRANCH  10  13
ATOM     13  C6  UNL     1      31.391 -10.737 -43.637  0.00  0.00    +0.000 C 
BRANCH  13  14
ATOM     14  C5  UNL     1      32.747 -11.046 -44.292  0.00  0.00    +0.000 C 
BRANCH  14  15
ATOM     15  C4  UNL     1      32.834 -12.483 -44.837  0.00  0.00    +0.000 C 
BRANCH  15  16
ATOM     16  C3  UNL     1      34.113 -12.803 -45.636  0.00  0.00    +0.000 C 
BRANCH  16  18
ATOM     17  C1  UNL     1      32.663 -14.673 -46.605  0.00  0.00    +0.000 C 
ATOM     18  C2  UNL     1      33.935 -13.839 -46.760  0.00  0.00    +0.000 C 
ENDBRANCH  16  18
ENDBRANCH  15  16
ENDBRANCH  14  15
ENDBRANCH  13  14
ENDBRANCH  10  13
ENDBRANCH   4  10
ENDBRANCH   1   4
BRANCH   1  19
ATOM     19  C10 UNL     1      28.388  -9.632 -42.633  0.00  0.00    +0.000 C 
BRANCH  19  20
ATOM     20  S2  UNL     1      27.039  -8.518 -42.269  0.00  0.00    +0.000 S 
ATOM     21  C11 UNL     1      26.362  -8.887 -40.679  0.00  0.00    +0.000 C 
ATOM     22  C12 UNL     1      25.079  -9.668 -40.959  0.00  0.00    +0.000 C 
ATOM     23  C13 UNL     1      24.469  -9.123 -42.259  0.00  0.00    +0.000 C 
ATOM     24  C14 UNL     1      25.620  -8.910 -43.262  0.00  0.00    +0.000 C 
BRANCH  23  25
ATOM     25  O8  UNL     1      23.534 -10.042 -42.763  0.00  0.00    +0.000 OA
ATOM     26  H26 UNL     1      23.454  -9.866 -43.737  0.00  0.00    +0.000 HD
ENDBRANCH  23  25
BRANCH  22  27
ATOM     27  O7  UNL     1      24.167  -9.525 -39.901  0.00  0.00    +0.000 OA
ATOM     28  H24 UNL     1      24.364  -8.650 -39.476  0.00  0.00    +0.000 HD
ENDBRANCH  22  27
BRANCH  24  29
ATOM     29  C15 UNL     1      25.345  -7.778 -44.262  0.00  0.00    +0.000 C 
BRANCH  29  30
ATOM     30  O9  UNL     1      24.284  -8.113 -45.114  0.00  0.00    +0.000 OA
ATOM     31  H30 UNL     1      24.329  -7.489 -45.884  0.00  0.00    +0.000 HD
ENDBRANCH  29  30
ENDBRANCH  24  29
ENDBRANCH  19  20
ENDBRANCH   1  19
TORSDOF 17
ENDMDL
MODEL 9
REMARK VINA RESULT:    -4.631      1.642      1.976
REMARK INTER + INTRA:         -10.216
REMARK INTER:                  -8.592
REMARK INTRA:                  -1.625
REMARK UNBOUND:                -1.659
REMARK  Name = resultss/4CJN/ligands/lig_210_t0.pdb
REMARK  18 active torsions:
REMARK  status: ('A' for Active; 'I' for Inactive)
REMARK    1  A    between atoms: C1_1  and  C2_2
REMARK    2  A    between atoms: C2_2  and  C3_3
REMARK    3  A    between atoms: C3_3  and  C4_4
REMARK    4  A    between atoms: C4_4  and  C5_5
REMARK    5  A    between atoms: C5_5  and  C6_6
REMARK    6  A    between atoms: C6_6  and  C7_7
REMARK    7  A    between atoms: C7_7  and  O1_8
REMARK    8  A    between atoms: C7_7  and  C8_9
REMARK    9  A    between atoms: C8_9  and  O2_10
REMARK   10  A    between atoms: C8_9  and  C9_15
REMARK   11  A    between atoms: O2_10  and  S1_11
REMARK   12  A    between atoms: C9_15  and  O6_16
REMARK   13  A    between atoms: C9_15  and  C10_17
REMARK   14  A    between atoms: C10_17  and  S2_18
REMARK   15  A    between atoms: C12_20  and  O7_21
REMARK   16  A    between atoms: C13_22  and  O8_23
REMARK   17  A    between atoms: C14_24  and  C15_25
REMARK   18  A    between atoms: C15_25  and  O9_26
REMARK                            x       y       z     vdW  Elec       q    Type
REMARK                         _______ _______ _______ _____ _____    ______ ____
ROOT
ATOM      1  C9  UNL     1      25.062  -8.607 -39.725  0.00  0.00    +0.000 C 
ENDROOT
BRANCH   1   2
ATOM      2  O6  UNL     1      23.885  -9.326 -39.999  0.00  0.00    +0.000 OA
ATOM      3  H18 UNL     1      23.384  -8.816 -40.689  0.00  0.00    +0.000 HD
ENDBRANCH   1   2
BRANCH   1   4
ATOM      4  C8  UNL     1      26.035  -8.701 -40.929  0.00  0.00    +0.000 C 
BRANCH   4   5
ATOM      5  O2  UNL     1      25.722  -7.666 -41.845  0.00  0.00    +0.000 OA
BRANCH   5   6
ATOM      6  S1  UNL     1      24.752  -8.261 -43.102  0.00  0.00    +0.000 S 
ATOM      7  O3  UNL     1      25.044  -9.723 -43.291  0.00  0.00    +0.000 OA
ATOM      8  O4  UNL     1      25.051  -7.534 -44.383  0.00  0.00    +0.000 OA
ATOM      9  O5  UNL     1      23.127  -8.077 -42.711  0.00  0.00    +0.000 OA
ENDBRANCH   5   6
ENDBRANCH   4   5
BRANCH   4  10
ATOM     10  C7  UNL     1      27.530  -8.585 -40.524  0.00  0.00    +0.000 C 
BRANCH  10  11
ATOM     11  O1  UNL     1      28.095  -7.376 -40.972  0.00  0.00    +0.000 OA
ATOM     12  H15 UNL     1      27.436  -6.938 -41.572  0.00  0.00    +0.000 HD
ENDBRANCH  10  11
BRANCH  10  13
ATOM     13  C6  UNL     1      28.342  -9.794 -41.039  0.00  0.00    +0.000 C 
BRANCH  13  14
ATOM     14  C5  UNL     1      28.555  -9.733 -42.560  0.00  0.00    +0.000 C 
BRANCH  14  15
ATOM     15  C4  UNL     1      30.012 -10.008 -42.971  0.00  0.00    +0.000 C 
BRANCH  15  16
ATOM     16  C3  UNL     1      30.668 -11.222 -42.282  0.00  0.00    +0.000 C 
BRANCH  16  18
ATOM     17  C1  UNL     1      31.830 -12.906 -43.816  0.00  0.00    +0.000 C 
ATOM     18  C2  UNL     1      31.995 -11.687 -42.909  0.00  0.00    +0.000 C 
ENDBRANCH  16  18
ENDBRANCH  15  16
ENDBRANCH  14  15
ENDBRANCH  13  14
ENDBRANCH  10  13
ENDBRANCH   4  10
ENDBRANCH   1   4
BRANCH   1  19
ATOM     19  C10 UNL     1      24.723  -7.152 -39.353  0.00  0.00    +0.000 C 
BRANCH  19  20
ATOM     20  S2  UNL     1      25.064  -6.835 -37.627  0.00  0.00    +0.000 S 
ATOM     21  C11 UNL     1      26.801  -6.958 -37.321  0.00  0.00    +0.000 C 
ATOM     22  C12 UNL     1      27.000  -8.325 -36.670  0.00  0.00    +0.000 C 
ATOM     23  C13 UNL     1      25.759  -8.625 -35.815  0.00  0.00    +0.000 C 
ATOM     24  C14 UNL     1      24.520  -8.194 -36.624  0.00  0.00    +0.000 C 
BRANCH  23  25
ATOM     25  O8  UNL     1      25.709  -9.998 -35.522  0.00  0.00    +0.000 OA
ATOM     26  H26 UNL     1      25.670 -10.477 -36.391  0.00  0.00    +0.000 HD
ENDBRANCH  23  25
BRANCH  22  27
ATOM     27  O7  UNL     1      28.152  -8.333 -35.868  0.00  0.00    +0.000 OA
ATOM     28  H24 UNL     1      27.845  -8.464 -34.934  0.00  0.00    +0.000 HD
ENDBRANCH  22  27
BRANCH  24  29
ATOM     29  C15 UNL     1      23.345  -7.759 -35.735  0.00  0.00    +0.000 C 
BRANCH  29  30
ATOM     30  O9  UNL     1      23.148  -8.669 -34.688  0.00  0.00    +0.000 OA
ATOM     31  H30 UNL     1      24.035  -8.813 -34.267  0.00  0.00    +0.000 HD
ENDBRANCH  29  30
ENDBRANCH  24  29
ENDBRANCH  19  20
ENDBRANCH   1  19
TORSDOF 17
ENDMDL
