MODEL 1
REMARK VINA RESULT:    -6.202      0.000      0.000
REMARK INTER + INTRA:          -8.588
REMARK INTER:                  -7.834
REMARK INTRA:                  -0.755
REMARK UNBOUND:                -0.755
REMARK  Name = resultss/4CJN/ligands/lig_162_t1.pdb
REMARK  5 active torsions:
REMARK  status: ('A' for Active; 'I' for Inactive)
REMARK    1  A    between atoms: O1_1  and  C1_2
REMARK    2  A    between atoms: C1_2  and  C8_12
REMARK    3  A    between atoms: N1_3  and  N2_4
REMARK    4  A    between atoms: C2_5  and  C3_6
REMARK    5  A    between atoms: C11_15  and  C12_16
REMARK                            x       y       z     vdW  Elec       q    Type
REMARK                         _______ _______ _______ _____ _____    ______ ____
ROOT
ATOM      1  C8  UNL     1      26.589  -9.332 -40.102  0.00  0.00    +0.000 A 
ATOM      2  C9  UNL     1      26.887  -9.049 -41.444  0.00  0.00    +0.000 A 
ATOM      3  C10 UNL     1      28.088  -9.483 -42.011  0.00  0.00    +0.000 A 
ATOM      4  C11 UNL     1      29.010 -10.225 -41.252  0.00  0.00    +0.000 A 
ATOM      5  C19 UNL     1      28.699 -10.528 -39.914  0.00  0.00    +0.000 A 
ATOM      6  C20 UNL     1      27.497 -10.092 -39.348  0.00  0.00    +0.000 A 
ENDROOT
BRANCH   4   7
ATOM      7  C12 UNL     1      30.281 -10.681 -41.861  0.00  0.00    +0.000 A 
ATOM      8  N4  UNL     1      30.352 -11.707 -42.748  0.00  0.00    +0.000 NA
ATOM      9  C13 UNL     1      31.630 -11.923 -43.156  0.00  0.00    +0.000 A 
ATOM     10  C14 UNL     1      32.010 -12.911 -44.065  0.00  0.00    +0.000 A 
ATOM     11  C15 UNL     1      33.370 -13.029 -44.403  0.00  0.00    +0.000 A 
ATOM     12  C16 UNL     1      34.325 -12.165 -43.832  0.00  0.00    +0.000 A 
ATOM     13  C17 UNL     1      33.929 -11.174 -42.919  0.00  0.00    +0.000 A 
ATOM     14  C18 UNL     1      32.577 -11.080 -42.601  0.00  0.00    +0.000 A 
ATOM     15  S1  UNL     1      31.814 -10.012 -41.559  0.00  0.00    +0.000 S 
ENDBRANCH   4   7
BRANCH   1  16
ATOM     16  C1  UNL     1      25.298  -8.883 -39.533  0.00  0.00    +0.000 C 
ATOM     17  N1  UNL     1      25.205  -7.878 -38.712  0.00  0.00    +0.000 NA
BRANCH  16  18
ATOM     18  O1  UNL     1      24.137  -9.551 -39.913  0.00  0.00    +0.000 OA
ATOM     19  H1  UNL     1      24.143 -10.548 -40.095  0.00  0.00    +0.000 HD
ENDBRANCH  16  18
BRANCH  17  20
ATOM     20  N2  UNL     1      26.307  -7.097 -38.328  0.00  0.00    +0.000 NA
ATOM     21  C2  UNL     1      26.799  -7.104 -37.125  0.00  0.00    +0.000 C 
BRANCH  21  22
ATOM     22  C3  UNL     1      26.279  -7.945 -36.028  0.00  0.00    +0.000 A 
ATOM     23  C4  UNL     1      26.846  -9.190 -35.705  0.00  0.00    +0.000 A 
ATOM     24  C5  UNL     1      26.330  -9.922 -34.633  0.00  0.00    +0.000 A 
ATOM     25  C6  UNL     1      25.273  -9.407 -33.883  0.00  0.00    +0.000 A 
ATOM     26  C7  UNL     1      24.751  -8.154 -34.212  0.00  0.00    +0.000 A 
ATOM     27  N3  UNL     1      25.265  -7.456 -35.261  0.00  0.00    +0.000 NA
ENDBRANCH  21  22
ENDBRANCH  17  20
ENDBRANCH   1  16
TORSDOF 5
ENDMDL
MODEL 2
REMARK VINA RESULT:    -6.199      2.526      3.412
REMARK INTER + INTRA:          -8.585
REMARK INTER:                  -7.886
REMARK INTRA:                  -0.699
REMARK UNBOUND:                -0.755
REMARK  Name = resultss/4CJN/ligands/lig_162_t1.pdb
REMARK  5 active torsions:
REMARK  status: ('A' for Active; 'I' for Inactive)
REMARK    1  A    between atoms: O1_1  and  C1_2
REMARK    2  A    between atoms: C1_2  and  C8_12
REMARK    3  A    between atoms: N1_3  and  N2_4
REMARK    4  A    between atoms: C2_5  and  C3_6
REMARK    5  A    between atoms: C11_15  and  C12_16
REMARK                            x       y       z     vdW  Elec       q    Type
REMARK                         _______ _______ _______ _____ _____    ______ ____
ROOT
ATOM      1  C8  UNL     1      29.417  -8.876 -41.107  0.00  0.00    +0.000 A 
ATOM      2  C9  UNL     1      30.535  -9.609 -40.681  0.00  0.00    +0.000 A 
ATOM      3  C10 UNL     1      31.286 -10.351 -41.595  0.00  0.00    +0.000 A 
ATOM      4  C11 UNL     1      30.945 -10.364 -42.959  0.00  0.00    +0.000 A 
ATOM      5  C19 UNL     1      29.839  -9.609 -43.389  0.00  0.00    +0.000 A 
ATOM      6  C20 UNL     1      29.087  -8.866 -42.472  0.00  0.00    +0.000 A 
ENDROOT
BRANCH   4   7
ATOM      7  C12 UNL     1      31.748 -11.154 -43.921  0.00  0.00    +0.000 A 
ATOM      8  N4  UNL     1      31.386 -12.392 -44.348  0.00  0.00    +0.000 NA
ATOM      9  C13 UNL     1      32.290 -12.898 -45.226  0.00  0.00    +0.000 A 
ATOM     10  C14 UNL     1      32.184 -14.151 -45.832  0.00  0.00    +0.000 A 
ATOM     11  C15 UNL     1      33.192 -14.556 -46.724  0.00  0.00    +0.000 A 
ATOM     12  C16 UNL     1      34.285 -13.710 -46.999  0.00  0.00    +0.000 A 
ATOM     13  C17 UNL     1      34.380 -12.451 -46.383  0.00  0.00    +0.000 A 
ATOM     14  C18 UNL     1      33.368 -12.076 -45.502  0.00  0.00    +0.000 A 
ATOM     15  S1  UNL     1      33.209 -10.655 -44.630  0.00  0.00    +0.000 S 
ENDBRANCH   4   7
BRANCH   1  16
ATOM     16  C1  UNL     1      28.652  -8.076 -40.122  0.00  0.00    +0.000 C 
ATOM     17  N1  UNL     1      27.731  -8.593 -39.363  0.00  0.00    +0.000 NA
BRANCH  16  18
ATOM     18  O1  UNL     1      28.952  -6.723 -39.992  0.00  0.00    +0.000 OA
ATOM     19  H1  UNL     1      28.875  -6.254 -39.096  0.00  0.00    +0.000 HD
ENDBRANCH  16  18
BRANCH  17  20
ATOM     20  N2  UNL     1      27.410  -9.959 -39.370  0.00  0.00    +0.000 NA
ATOM     21  C2  UNL     1      27.656 -10.752 -38.369  0.00  0.00    +0.000 C 
BRANCH  21  22
ATOM     22  C3  UNL     1      28.278 -10.313 -37.104  0.00  0.00    +0.000 A 
ATOM     23  C4  UNL     1      29.659 -10.065 -36.995  0.00  0.00    +0.000 A 
ATOM     24  C5  UNL     1      30.181  -9.617 -35.779  0.00  0.00    +0.000 A 
ATOM     25  C6  UNL     1      29.332  -9.404 -34.693  0.00  0.00    +0.000 A 
ATOM     26  C7  UNL     1      27.964  -9.632 -34.843  0.00  0.00    +0.000 A 
ATOM     27  N3  UNL     1      27.472 -10.070 -36.034  0.00  0.00    +0.000 NA
ENDBRANCH  21  22
ENDBRANCH  17  20
ENDBRANCH   1  16
TORSDOF 5
ENDMDL
MODEL 3
REMARK VINA RESULT:    -6.150      2.187      2.804
REMARK INTER + INTRA:          -8.522
REMARK INTER:                  -8.095
REMARK INTRA:                  -0.427
REMARK UNBOUND:                -0.755
REMARK  Name = resultss/4CJN/ligands/lig_162_t1.pdb
REMARK  5 active torsions:
REMARK  status: ('A' for Active; 'I' for Inactive)
REMARK    1  A    between atoms: O1_1  and  C1_2
REMARK    2  A    between atoms: C1_2  and  C8_12
REMARK    3  A    between atoms: N1_3  and  N2_4
REMARK    4  A    between atoms: C2_5  and  C3_6
REMARK    5  A    between atoms: C11_15  and  C12_16
REMARK                            x       y       z     vdW  Elec       q    Type
REMARK                         _______ _______ _______ _____ _____    ______ ____
ROOT
ATOM      1  C8  UNL     1      29.042  -9.034 -40.551  0.00  0.00    +0.000 A 
ATOM      2  C9  UNL     1      28.454  -9.740 -41.611  0.00  0.00    +0.000 A 
ATOM      3  C10 UNL     1      29.249 -10.408 -42.547  0.00  0.00    +0.000 A 
ATOM      4  C11 UNL     1      30.650 -10.398 -42.431  0.00  0.00    +0.000 A 
ATOM      5  C19 UNL     1      31.237  -9.711 -41.353  0.00  0.00    +0.000 A 
ATOM      6  C20 UNL     1      30.440  -9.042 -40.419  0.00  0.00    +0.000 A 
ENDROOT
BRANCH   4   7
ATOM      7  C12 UNL     1      31.485 -11.109 -43.427  0.00  0.00    +0.000 A 
ATOM      8  N4  UNL     1      32.205 -10.468 -44.385  0.00  0.00    +0.000 NA
ATOM      9  C13 UNL     1      32.882 -11.346 -45.168  0.00  0.00    +0.000 A 
ATOM     10  C14 UNL     1      33.706 -10.979 -46.233  0.00  0.00    +0.000 A 
ATOM     11  C15 UNL     1      34.351 -11.991 -46.966  0.00  0.00    +0.000 A 
ATOM     12  C16 UNL     1      34.168 -13.346 -46.627  0.00  0.00    +0.000 A 
ATOM     13  C17 UNL     1      33.337 -13.702 -45.552  0.00  0.00    +0.000 A 
ATOM     14  C18 UNL     1      32.709 -12.681 -44.844  0.00  0.00    +0.000 A 
ATOM     15  S1  UNL     1      31.675 -12.795 -43.531  0.00  0.00    +0.000 S 
ENDBRANCH   4   7
BRANCH   1  16
ATOM     16  C1  UNL     1      28.177  -8.356 -39.558  0.00  0.00    +0.000 C 
ATOM     17  N1  UNL     1      27.930  -8.859 -38.385  0.00  0.00    +0.000 NA
BRANCH  16  18
ATOM     18  O1  UNL     1      27.628  -7.121 -39.891  0.00  0.00    +0.000 OA
ATOM     19  H1  UNL     1      27.977  -6.588 -40.679  0.00  0.00    +0.000 HD
ENDBRANCH  16  18
BRANCH  17  20
ATOM     20  N2  UNL     1      28.496 -10.061 -37.931  0.00  0.00    +0.000 NA
ATOM     21  C2  UNL     1      28.412 -10.466 -36.698  0.00  0.00    +0.000 C 
BRANCH  21  22
ATOM     22  C3  UNL     1      27.697  -9.729 -35.637  0.00  0.00    +0.000 A 
ATOM     23  C4  UNL     1      28.335  -8.769 -34.831  0.00  0.00    +0.000 A 
ATOM     24  C5  UNL     1      27.595  -8.081 -33.867  0.00  0.00    +0.000 A 
ATOM     25  C6  UNL     1      26.231  -8.337 -33.723  0.00  0.00    +0.000 A 
ATOM     26  C7  UNL     1      25.622  -9.275 -34.558  0.00  0.00    +0.000 A 
ATOM     27  N3  UNL     1      26.359  -9.938 -35.490  0.00  0.00    +0.000 NA
ENDBRANCH  21  22
ENDBRANCH  17  20
ENDBRANCH   1  16
TORSDOF 5
ENDMDL
MODEL 4
REMARK VINA RESULT:    -5.933      3.009      9.766
REMARK INTER + INTRA:          -8.249
REMARK INTER:                  -7.818
REMARK INTRA:                  -0.432
REMARK UNBOUND:                -0.755
REMARK  Name = resultss/4CJN/ligands/lig_162_t1.pdb
REMARK  5 active torsions:
REMARK  status: ('A' for Active; 'I' for Inactive)
REMARK    1  A    between atoms: O1_1  and  C1_2
REMARK    2  A    between atoms: C1_2  and  C8_12
REMARK    3  A    between atoms: N1_3  and  N2_4
REMARK    4  A    between atoms: C2_5  and  C3_6
REMARK    5  A    between atoms: C11_15  and  C12_16
REMARK                            x       y       z     vdW  Elec       q    Type
REMARK                         _______ _______ _______ _____ _____    ______ ____
ROOT
ATOM      1  C8  UNL     1      30.282  -9.121 -38.828  0.00  0.00    +0.000 A 
ATOM      2  C9  UNL     1      30.155 -10.021 -37.759  0.00  0.00    +0.000 A 
ATOM      3  C10 UNL     1      29.057  -9.950 -36.898  0.00  0.00    +0.000 A 
ATOM      4  C11 UNL     1      28.052  -8.987 -37.099  0.00  0.00    +0.000 A 
ATOM      5  C19 UNL     1      28.168  -8.102 -38.186  0.00  0.00    +0.000 A 
ATOM      6  C20 UNL     1      29.269  -8.174 -39.046  0.00  0.00    +0.000 A 
ENDROOT
BRANCH   4   7
ATOM      7  C12 UNL     1      26.892  -8.918 -36.181  0.00  0.00    +0.000 A 
ATOM      8  N4  UNL     1      25.743  -8.259 -36.486  0.00  0.00    +0.000 NA
ATOM      9  C13 UNL     1      24.837  -8.349 -35.478  0.00  0.00    +0.000 A 
ATOM     10  C14 UNL     1      23.567  -7.772 -35.506  0.00  0.00    +0.000 A 
ATOM     11  C15 UNL     1      22.725  -7.941 -34.393  0.00  0.00    +0.000 A 
ATOM     12  C16 UNL     1      23.158  -8.680 -33.275  0.00  0.00    +0.000 A 
ATOM     13  C17 UNL     1      24.439  -9.257 -33.259  0.00  0.00    +0.000 A 
ATOM     14  C18 UNL     1      25.253  -9.073 -34.373  0.00  0.00    +0.000 A 
ATOM     15  S1  UNL     1      26.809  -9.634 -34.642  0.00  0.00    +0.000 S 
ENDBRANCH   4   7
BRANCH   1  16
ATOM     16  C1  UNL     1      31.442  -9.235 -39.742  0.00  0.00    +0.000 C 
ATOM     17  N1  UNL     1      31.375  -9.847 -40.887  0.00  0.00    +0.000 NA
BRANCH  16  18
ATOM     18  O1  UNL     1      32.644  -8.640 -39.365  0.00  0.00    +0.000 OA
ATOM     19  H1  UNL     1      33.524  -8.934 -39.774  0.00  0.00    +0.000 HD
ENDBRANCH  16  18
BRANCH  17  20
ATOM     20  N2  UNL     1      30.191 -10.413 -41.386  0.00  0.00    +0.000 NA
ATOM     21  C2  UNL     1      30.148 -11.135 -42.466  0.00  0.00    +0.000 C 
BRANCH  21  22
ATOM     22  C3  UNL     1      31.333 -11.467 -43.283  0.00  0.00    +0.000 A 
ATOM     23  C4  UNL     1      31.923 -12.744 -43.264  0.00  0.00    +0.000 A 
ATOM     24  C5  UNL     1      33.021 -13.004 -44.086  0.00  0.00    +0.000 A 
ATOM     25  C6  UNL     1      33.513 -12.007 -44.928  0.00  0.00    +0.000 A 
ATOM     26  C7  UNL     1      32.887 -10.759 -44.944  0.00  0.00    +0.000 A 
ATOM     27  N3  UNL     1      31.819 -10.522 -44.135  0.00  0.00    +0.000 NA
ENDBRANCH  21  22
ENDBRANCH  17  20
ENDBRANCH   1  16
TORSDOF 5
ENDMDL
MODEL 5
REMARK VINA RESULT:    -5.916      2.551      9.564
REMARK INTER + INTRA:          -8.227
REMARK INTER:                  -7.955
REMARK INTRA:                  -0.273
REMARK UNBOUND:                -0.755
REMARK  Name = resultss/4CJN/ligands/lig_162_t1.pdb
REMARK  5 active torsions:
REMARK  status: ('A' for Active; 'I' for Inactive)
REMARK    1  A    between atoms: O1_1  and  C1_2
REMARK    2  A    between atoms: C1_2  and  C8_12
REMARK    3  A    between atoms: N1_3  and  N2_4
REMARK    4  A    between atoms: C2_5  and  C3_6
REMARK    5  A    between atoms: C11_15  and  C12_16
REMARK                            x       y       z     vdW  Elec       q    Type
REMARK                         _______ _______ _______ _____ _____    ______ ____
ROOT
ATOM      1  C8  UNL     1      28.510  -9.047 -41.801  0.00  0.00    +0.000 A 
ATOM      2  C9  UNL     1      27.315  -9.756 -41.615  0.00  0.00    +0.000 A 
ATOM      3  C10 UNL     1      26.625  -9.678 -40.402  0.00  0.00    +0.000 A 
ATOM      4  C11 UNL     1      27.108  -8.873 -39.355  0.00  0.00    +0.000 A 
ATOM      5  C19 UNL     1      28.293  -8.143 -39.553  0.00  0.00    +0.000 A 
ATOM      6  C20 UNL     1      28.983  -8.223 -40.767  0.00  0.00    +0.000 A 
ENDROOT
BRANCH   4   7
ATOM      7  C12 UNL     1      26.370  -8.796 -38.073  0.00  0.00    +0.000 A 
ATOM      8  N4  UNL     1      26.759  -9.459 -36.953  0.00  0.00    +0.000 NA
ATOM      9  C13 UNL     1      25.914  -9.220 -35.917  0.00  0.00    +0.000 A 
ATOM     10  C14 UNL     1      26.059  -9.764 -34.639  0.00  0.00    +0.000 A 
ATOM     11  C15 UNL     1      25.112  -9.435 -33.655  0.00  0.00    +0.000 A 
ATOM     12  C16 UNL     1      24.040  -8.572 -33.955  0.00  0.00    +0.000 A 
ATOM     13  C17 UNL     1      23.904  -8.031 -35.244  0.00  0.00    +0.000 A 
ATOM     14  C18 UNL     1      24.856  -8.374 -36.201  0.00  0.00    +0.000 A 
ATOM     15  S1  UNL     1      24.958  -7.891 -37.802  0.00  0.00    +0.000 S 
ENDBRANCH   4   7
BRANCH   1  16
ATOM     16  C1  UNL     1      29.208  -9.126 -43.106  0.00  0.00    +0.000 C 
ATOM     17  N1  UNL     1      30.174  -9.966 -43.333  0.00  0.00    +0.000 NA
BRANCH  16  18
ATOM     18  O1  UNL     1      28.794  -8.282 -44.132  0.00  0.00    +0.000 OA
ATOM     19  H1  UNL     1      27.850  -8.327 -44.499  0.00  0.00    +0.000 HD
ENDBRANCH  16  18
BRANCH  17  20
ATOM     20  N2  UNL     1      30.612 -10.906 -42.386  0.00  0.00    +0.000 NA
ATOM     21  C2  UNL     1      31.521 -11.800 -42.640  0.00  0.00    +0.000 C 
BRANCH  21  22
ATOM     22  C3  UNL     1      32.217 -11.922 -43.937  0.00  0.00    +0.000 A 
ATOM     23  C4  UNL     1      32.991 -10.877 -44.473  0.00  0.00    +0.000 A 
ATOM     24  C5  UNL     1      33.653 -11.067 -45.688  0.00  0.00    +0.000 A 
ATOM     25  C6  UNL     1      33.556 -12.291 -46.350  0.00  0.00    +0.000 A 
ATOM     26  C7  UNL     1      32.804 -13.317 -45.776  0.00  0.00    +0.000 A 
ATOM     27  N3  UNL     1      32.164 -13.114 -44.593  0.00  0.00    +0.000 NA
ENDBRANCH  21  22
ENDBRANCH  17  20
ENDBRANCH   1  16
TORSDOF 5
ENDMDL
MODEL 6
REMARK VINA RESULT:    -5.766      3.887      5.418
REMARK INTER + INTRA:          -8.038
REMARK INTER:                  -7.312
REMARK INTRA:                  -0.726
REMARK UNBOUND:                -0.755
REMARK  Name = resultss/4CJN/ligands/lig_162_t1.pdb
REMARK  5 active torsions:
REMARK  status: ('A' for Active; 'I' for Inactive)
REMARK    1  A    between atoms: O1_1  and  C1_2
REMARK    2  A    between atoms: C1_2  and  C8_12
REMARK    3  A    between atoms: N1_3  and  N2_4
REMARK    4  A    between atoms: C2_5  and  C3_6
REMARK    5  A    between atoms: C11_15  and  C12_16
REMARK                            x       y       z     vdW  Elec       q    Type
REMARK                         _______ _______ _______ _____ _____    ______ ____
ROOT
ATOM      1  C8  UNL     1      26.142  -9.225 -36.168  0.00  0.00    +0.000 A 
ATOM      2  C9  UNL     1      25.140  -8.520 -36.851  0.00  0.00    +0.000 A 
ATOM      3  C10 UNL     1      25.275  -8.235 -38.212  0.00  0.00    +0.000 A 
ATOM      4  C11 UNL     1      26.408  -8.665 -38.924  0.00  0.00    +0.000 A 
ATOM      5  C19 UNL     1      27.401  -9.394 -38.244  0.00  0.00    +0.000 A 
ATOM      6  C20 UNL     1      27.264  -9.677 -36.881  0.00  0.00    +0.000 A 
ENDROOT
BRANCH   4   7
ATOM      7  C12 UNL     1      26.543  -8.359 -40.367  0.00  0.00    +0.000 A 
ATOM      8  N4  UNL     1      27.720  -8.452 -41.039  0.00  0.00    +0.000 NA
ATOM      9  C13 UNL     1      27.573  -8.119 -42.347  0.00  0.00    +0.000 A 
ATOM     10  C14 UNL     1      28.609  -8.122 -43.282  0.00  0.00    +0.000 A 
ATOM     11  C15 UNL     1      28.321  -7.754 -44.608  0.00  0.00    +0.000 A 
ATOM     12  C16 UNL     1      27.012  -7.391 -44.981  0.00  0.00    +0.000 A 
ATOM     13  C17 UNL     1      25.978  -7.392 -44.030  0.00  0.00    +0.000 A 
ATOM     14  C18 UNL     1      26.290  -7.760 -42.724  0.00  0.00    +0.000 A 
ATOM     15  S1  UNL     1      25.282  -7.856 -41.389  0.00  0.00    +0.000 S 
ENDBRANCH   4   7
BRANCH   1  16
ATOM     16  C1  UNL     1      25.963  -9.537 -34.731  0.00  0.00    +0.000 C 
ATOM     17  N1  UNL     1      26.294  -8.705 -33.787  0.00  0.00    +0.000 NA
BRANCH  16  18
ATOM     18  O1  UNL     1      25.396 -10.760 -34.383  0.00  0.00    +0.000 OA
ATOM     19  H1  UNL     1      24.527 -10.806 -33.864  0.00  0.00    +0.000 HD
ENDBRANCH  16  18
BRANCH  17  20
ATOM     20  N2  UNL     1      26.803  -7.422 -34.039  0.00  0.00    +0.000 NA
ATOM     21  C2  UNL     1      28.074  -7.152 -34.060  0.00  0.00    +0.000 C 
BRANCH  21  22
ATOM     22  C3  UNL     1      29.133  -8.159 -33.844  0.00  0.00    +0.000 A 
ATOM     23  C4  UNL     1      29.878  -8.702 -34.907  0.00  0.00    +0.000 A 
ATOM     24  C5  UNL     1      30.890  -9.625 -34.634  0.00  0.00    +0.000 A 
ATOM     25  C6  UNL     1      31.164  -9.988 -33.315  0.00  0.00    +0.000 A 
ATOM     26  C7  UNL     1      30.425  -9.409 -32.281  0.00  0.00    +0.000 A 
ATOM     27  N3  UNL     1      29.442  -8.513 -32.566  0.00  0.00    +0.000 NA
ENDBRANCH  21  22
ENDBRANCH  17  20
ENDBRANCH   1  16
TORSDOF 5
ENDMDL
MODEL 7
REMARK VINA RESULT:    -5.765      3.284      9.543
REMARK INTER + INTRA:          -8.036
REMARK INTER:                  -7.618
REMARK INTRA:                  -0.418
REMARK UNBOUND:                -0.755
REMARK  Name = resultss/4CJN/ligands/lig_162_t1.pdb
REMARK  5 active torsions:
REMARK  status: ('A' for Active; 'I' for Inactive)
REMARK    1  A    between atoms: O1_1  and  C1_2
REMARK    2  A    between atoms: C1_2  and  C8_12
REMARK    3  A    between atoms: N1_3  and  N2_4
REMARK    4  A    between atoms: C2_5  and  C3_6
REMARK    5  A    between atoms: C11_15  and  C12_16
REMARK                            x       y       z     vdW  Elec       q    Type
REMARK                         _______ _______ _______ _____ _____    ______ ____
ROOT
ATOM      1  C8  UNL     1      30.008 -10.005 -41.427  0.00  0.00    +0.000 A 
ATOM      2  C9  UNL     1      28.764 -10.257 -40.830  0.00  0.00    +0.000 A 
ATOM      3  C10 UNL     1      28.591 -10.096 -39.453  0.00  0.00    +0.000 A 
ATOM      4  C11 UNL     1      29.657  -9.663 -38.645  0.00  0.00    +0.000 A 
ATOM      5  C19 UNL     1      30.898  -9.386 -39.248  0.00  0.00    +0.000 A 
ATOM      6  C20 UNL     1      31.068  -9.549 -40.627  0.00  0.00    +0.000 A 
ENDROOT
BRANCH   4   7
ATOM      7  C12 UNL     1      29.466  -9.495 -37.186  0.00  0.00    +0.000 A 
ATOM      8  N4  UNL     1      30.428  -9.789 -36.273  0.00  0.00    +0.000 NA
ATOM      9  C13 UNL     1      30.002  -9.546 -35.006  0.00  0.00    +0.000 A 
ATOM     10  C14 UNL     1      30.772  -9.754 -33.861  0.00  0.00    +0.000 A 
ATOM     11  C15 UNL     1      30.209  -9.462 -32.607  0.00  0.00    +0.000 A 
ATOM     12  C16 UNL     1      28.892  -8.969 -32.512  0.00  0.00    +0.000 A 
ATOM     13  C17 UNL     1      28.127  -8.764 -33.672  0.00  0.00    +0.000 A 
ATOM     14  C18 UNL     1      28.709  -9.063 -34.901  0.00  0.00    +0.000 A 
ATOM     15  S1  UNL     1      28.052  -8.923 -36.436  0.00  0.00    +0.000 S 
ENDBRANCH   4   7
BRANCH   1  16
ATOM     16  C1  UNL     1      30.157 -10.157 -42.893  0.00  0.00    +0.000 C 
ATOM     17  N1  UNL     1      30.739 -11.187 -43.434  0.00  0.00    +0.000 NA
BRANCH  16  18
ATOM     18  O1  UNL     1      29.632  -9.168 -43.719  0.00  0.00    +0.000 OA
ATOM     19  H1  UNL     1      29.710  -8.187 -43.477  0.00  0.00    +0.000 HD
ENDBRANCH  16  18
BRANCH  17  20
ATOM     20  N2  UNL     1      31.233 -12.269 -42.689  0.00  0.00    +0.000 NA
ATOM     21  C2  UNL     1      32.197 -13.037 -43.103  0.00  0.00    +0.000 C 
BRANCH  21  22
ATOM     22  C3  UNL     1      32.900 -12.854 -44.389  0.00  0.00    +0.000 A 
ATOM     23  C4  UNL     1      32.689 -13.709 -45.486  0.00  0.00    +0.000 A 
ATOM     24  C5  UNL     1      33.359 -13.462 -46.687  0.00  0.00    +0.000 A 
ATOM     25  C6  UNL     1      34.214 -12.365 -46.793  0.00  0.00    +0.000 A 
ATOM     26  C7  UNL     1      34.379 -11.520 -45.695  0.00  0.00    +0.000 A 
ATOM     27  N3  UNL     1      33.720 -11.777 -44.532  0.00  0.00    +0.000 NA
ENDBRANCH  21  22
ENDBRANCH  17  20
ENDBRANCH   1  16
TORSDOF 5
ENDMDL
MODEL 8
REMARK VINA RESULT:    -5.401      4.177      8.291
REMARK INTER + INTRA:          -7.577
REMARK INTER:                  -7.223
REMARK INTRA:                  -0.355
REMARK UNBOUND:                -0.755
REMARK  Name = resultss/4CJN/ligands/lig_162_t1.pdb
REMARK  5 active torsions:
REMARK  status: ('A' for Active; 'I' for Inactive)
REMARK    1  A    between atoms: O1_1  and  C1_2
REMARK    2  A    between atoms: C1_2  and  C8_12
REMARK    3  A    between atoms: N1_3  and  N2_4
REMARK    4  A    between atoms: C2_5  and  C3_6
REMARK    5  A    between atoms: C11_15  and  C12_16
REMARK                            x       y       z     vdW  Elec       q    Type
REMARK                         _______ _______ _______ _____ _____    ______ ____
ROOT
ATOM      1  C8  UNL     1      25.965  -9.329 -41.428  0.00  0.00    +0.000 A 
ATOM      2  C9  UNL     1      26.926 -10.331 -41.228  0.00  0.00    +0.000 A 
ATOM      3  C10 UNL     1      27.664 -10.380 -40.043  0.00  0.00    +0.000 A 
ATOM      4  C11 UNL     1      27.445  -9.435 -39.024  0.00  0.00    +0.000 A 
ATOM      5  C19 UNL     1      26.463  -8.446 -39.217  0.00  0.00    +0.000 A 
ATOM      6  C20 UNL     1      25.726  -8.399 -40.404  0.00  0.00    +0.000 A 
ENDROOT
BRANCH   4   7
ATOM      7  C12 UNL     1      28.232  -9.493 -37.772  0.00  0.00    +0.000 A 
ATOM      8  N4  UNL     1      27.664  -9.601 -36.542  0.00  0.00    +0.000 NA
ATOM      9  C13 UNL     1      28.603  -9.635 -35.562  0.00  0.00    +0.000 A 
ATOM     10  C14 UNL     1      28.318  -9.743 -34.200  0.00  0.00    +0.000 A 
ATOM     11  C15 UNL     1      29.387  -9.767 -33.287  0.00  0.00    +0.000 A 
ATOM     12  C16 UNL     1      30.717  -9.686 -33.743  0.00  0.00    +0.000 A 
ATOM     13  C17 UNL     1      30.992  -9.579 -35.116  0.00  0.00    +0.000 A 
ATOM     14  C18 UNL     1      29.915  -9.555 -35.999  0.00  0.00    +0.000 A 
ATOM     15  S1  UNL     1      29.928  -9.437 -37.670  0.00  0.00    +0.000 S 
ENDBRANCH   4   7
BRANCH   1  16
ATOM     16  C1  UNL     1      25.177  -9.316 -42.683  0.00  0.00    +0.000 C 
ATOM     17  N1  UNL     1      25.542  -8.641 -43.733  0.00  0.00    +0.000 NA
BRANCH  16  18
ATOM     18  O1  UNL     1      24.013 -10.078 -42.743  0.00  0.00    +0.000 OA
ATOM     19  H1  UNL     1      23.100  -9.638 -42.759  0.00  0.00    +0.000 HD
ENDBRANCH  16  18
BRANCH  17  20
ATOM     20  N2  UNL     1      26.736  -7.905 -43.794  0.00  0.00    +0.000 NA
ATOM     21  C2  UNL     1      27.017  -7.087 -44.764  0.00  0.00    +0.000 C 
BRANCH  21  22
ATOM     22  C3  UNL     1      26.114  -6.816 -45.901  0.00  0.00    +0.000 A 
ATOM     23  C4  UNL     1      24.877  -6.167 -45.738  0.00  0.00    +0.000 A 
ATOM     24  C5  UNL     1      24.084  -5.909 -46.858  0.00  0.00    +0.000 A 
ATOM     25  C6  UNL     1      24.530  -6.280 -48.127  0.00  0.00    +0.000 A 
ATOM     26  C7  UNL     1      25.776  -6.897 -48.258  0.00  0.00    +0.000 A 
ATOM     27  N3  UNL     1      26.534  -7.142 -47.155  0.00  0.00    +0.000 NA
ENDBRANCH  21  22
ENDBRANCH  17  20
ENDBRANCH   1  16
TORSDOF 5
ENDMDL
MODEL 9
REMARK VINA RESULT:    -5.309      2.467      9.440
REMARK INTER + INTRA:          -7.460
REMARK INTER:                  -6.982
REMARK INTRA:                  -0.478
REMARK UNBOUND:                -0.755
REMARK  Name = resultss/4CJN/ligands/lig_162_t1.pdb
REMARK  5 active torsions:
REMARK  status: ('A' for Active; 'I' for Inactive)
REMARK    1  A    between atoms: O1_1  and  C1_2
REMARK    2  A    between atoms: C1_2  and  C8_12
REMARK    3  A    between atoms: N1_3  and  N2_4
REMARK    4  A    between atoms: C2_5  and  C3_6
REMARK    5  A    between atoms: C11_15  and  C12_16
REMARK                            x       y       z     vdW  Elec       q    Type
REMARK                         _______ _______ _______ _____ _____    ______ ____
ROOT
ATOM      1  C8  UNL     1      28.113  -8.420 -41.148  0.00  0.00    +0.000 A 
ATOM      2  C9  UNL     1      28.707  -7.933 -39.975  0.00  0.00    +0.000 A 
ATOM      3  C10 UNL     1      28.021  -7.981 -38.759  0.00  0.00    +0.000 A 
ATOM      4  C11 UNL     1      26.730  -8.533 -38.687  0.00  0.00    +0.000 A 
ATOM      5  C19 UNL     1      26.145  -9.043 -39.861  0.00  0.00    +0.000 A 
ATOM      6  C20 UNL     1      26.833  -8.994 -41.077  0.00  0.00    +0.000 A 
ENDROOT
BRANCH   4   7
ATOM      7  C12 UNL     1      26.009  -8.579 -37.394  0.00  0.00    +0.000 A 
ATOM      8  N4  UNL     1      24.761  -8.071 -37.222  0.00  0.00    +0.000 NA
ATOM      9  C13 UNL     1      24.327  -8.242 -35.946  0.00  0.00    +0.000 A 
ATOM     10  C14 UNL     1      23.083  -7.822 -35.474  0.00  0.00    +0.000 A 
ATOM     11  C15 UNL     1      22.757  -8.061 -34.127  0.00  0.00    +0.000 A 
ATOM     12  C16 UNL     1      23.671  -8.712 -33.276  0.00  0.00    +0.000 A 
ATOM     13  C17 UNL     1      24.920  -9.130 -33.764  0.00  0.00    +0.000 A 
ATOM     14  C18 UNL     1      25.218  -8.880 -35.101  0.00  0.00    +0.000 A 
ATOM     15  S1  UNL     1      26.609  -9.257 -35.956  0.00  0.00    +0.000 S 
ENDBRANCH   4   7
BRANCH   1  16
ATOM     16  C1  UNL     1      28.872  -8.381 -42.420  0.00  0.00    +0.000 C 
ATOM     17  N1  UNL     1      29.532  -9.406 -42.872  0.00  0.00    +0.000 NA
BRANCH  16  18
ATOM     18  O1  UNL     1      28.855  -7.207 -43.167  0.00  0.00    +0.000 OA
ATOM     19  H1  UNL     1      27.981  -6.777 -43.447  0.00  0.00    +0.000 HD
ENDBRANCH  16  18
BRANCH  17  20
ATOM     20  N2  UNL     1      29.548 -10.654 -42.229  0.00  0.00    +0.000 NA
ATOM     21  C2  UNL     1      30.568 -11.459 -42.263  0.00  0.00    +0.000 C 
BRANCH  21  22
ATOM     22  C3  UNL     1      31.835 -11.153 -42.959  0.00  0.00    +0.000 A 
ATOM     23  C4  UNL     1      32.984 -10.724 -42.269  0.00  0.00    +0.000 A 
ATOM     24  C5  UNL     1      34.161 -10.485 -42.981  0.00  0.00    +0.000 A 
ATOM     25  C6  UNL     1      34.195 -10.689 -44.360  0.00  0.00    +0.000 A 
ATOM     26  C7  UNL     1      33.046 -11.143 -45.010  0.00  0.00    +0.000 A 
ATOM     27  N3  UNL     1      31.907 -11.369 -44.302  0.00  0.00    +0.000 NA
ENDBRANCH  21  22
ENDBRANCH  17  20
ENDBRANCH   1  16
TORSDOF 5
ENDMDL
