MODEL 1
REMARK VINA RESULT:    -7.765      0.000      0.000
REMARK INTER + INTRA:         -10.980
REMARK INTER:                 -10.489
REMARK INTRA:                  -0.491
REMARK UNBOUND:                -0.491
REMARK  Name = resultss/4CJN/ligands/lig_359_t0.pdb
REMARK  6 active torsions:
REMARK  status: ('A' for Active; 'I' for Inactive)
REMARK    1  A    between atoms: C1_2  and  C2_3
REMARK    2  A    between atoms: C2_3  and  N1_4
REMARK    3  A    between atoms: C3_5  and  C4_6
REMARK    4  A    between atoms: C4_6  and  C5_7
REMARK    5  A    between atoms: N3_23  and  N4_24
REMARK    6  A    between atoms: C18_25  and  C19_27
REMARK                            x       y       z     vdW  Elec       q    Type
REMARK                         _______ _______ _______ _____ _____    ______ ____
ROOT
ATOM      1  C2  UNL     1      31.521  -8.663 -40.430  0.00  0.00    +0.000 C 
ENDROOT
BRANCH   1   2
ATOM      2  N1  UNL     1      31.641  -9.773 -41.403  0.00  0.00    +0.000 N 
ATOM      3  C3  UNL     1      30.521 -10.434 -41.866  0.00  0.00    +0.000 A 
ATOM      4  N2  UNL     1      30.660 -11.475 -42.731  0.00  0.00    +0.000 NA
ATOM      5  C11 UNL     1      31.868 -11.868 -43.197  0.00  0.00    +0.000 A 
ATOM      6  C12 UNL     1      31.957 -12.936 -44.096  0.00  0.00    +0.000 A 
ATOM      7  C13 UNL     1      33.204 -13.337 -44.582  0.00  0.00    +0.000 A 
ATOM      8  C14 UNL     1      34.363 -12.673 -44.172  0.00  0.00    +0.000 A 
ATOM      9  C15 UNL     1      34.280 -11.605 -43.273  0.00  0.00    +0.000 A 
ATOM     10  C16 UNL     1      33.027 -11.195 -42.776  0.00  0.00    +0.000 A 
ATOM     11  C17 UNL     1      32.886 -10.134 -41.867  0.00  0.00    +0.000 A 
ATOM     12  O2  UNL     1      33.916  -9.510 -41.484  0.00  0.00    +0.000 OA
BRANCH   3  13
ATOM     13  C4  UNL     1      29.124 -10.090 -41.380  0.00  0.00    +0.000 C 
BRANCH  13  14
ATOM     14  C5  UNL     1      28.341  -9.310 -42.407  0.00  0.00    +0.000 A 
ATOM     15  C6  UNL     1      26.936  -9.358 -42.408  0.00  0.00    +0.000 A 
ATOM     16  C7  UNL     1      26.207  -8.600 -43.328  0.00  0.00    +0.000 A 
ATOM     17  C8  UNL     1      26.871  -7.783 -44.248  0.00  0.00    +0.000 A 
ATOM     18 BR1  UNL     1      25.872  -6.744 -45.501  0.00  0.00    +0.000 Br
ATOM     19  C9  UNL     1      28.268  -7.721 -44.244  0.00  0.00    +0.000 A 
ATOM     20  C10 UNL     1      29.002  -8.478 -43.325  0.00  0.00    +0.000 A 
ENDBRANCH  13  14
ENDBRANCH   3  13
ENDBRANCH   1   2
BRANCH   1  22
ATOM     21  O1  UNL     1      31.035 -10.029 -38.538  0.00  0.00    +0.000 OA
ATOM     22  C1  UNL     1      30.678  -9.046 -39.242  0.00  0.00    +0.000 C 
ATOM     23  N3  UNL     1      29.502  -8.300 -38.889  0.00  0.00    +0.000 N 
ATOM     24  H13 UNL     1      29.052  -7.687 -39.602  0.00  0.00    +0.000 HD
BRANCH  23  25
ATOM     25  N4  UNL     1      28.805  -8.529 -37.688  0.00  0.00    +0.000 N 
ATOM     26  C18 UNL     1      27.499  -9.126 -37.666  0.00  0.00    +0.000 C 
ATOM     27  O3  UNL     1      27.055  -9.686 -38.705  0.00  0.00    +0.000 OA
ATOM     28  H14 UNL     1      29.335  -8.452 -36.790  0.00  0.00    +0.000 HD
BRANCH  26  29
ATOM     29  C19 UNL     1      26.684  -9.116 -36.424  0.00  0.00    +0.000 A 
ATOM     30  C20 UNL     1      25.382  -8.591 -36.439  0.00  0.00    +0.000 A 
ATOM     31  C21 UNL     1      24.618  -8.586 -35.269  0.00  0.00    +0.000 A 
ATOM     32  C22 UNL     1      23.313  -8.072 -35.247  0.00  0.00    +0.000 A 
ATOM     33  C23 UNL     1      22.579  -8.085 -34.056  0.00  0.00    +0.000 A 
ATOM     34  C24 UNL     1      23.144  -8.611 -32.888  0.00  0.00    +0.000 A 
ATOM     35  C25 UNL     1      24.443  -9.127 -32.906  0.00  0.00    +0.000 A 
ATOM     36  C26 UNL     1      25.185  -9.119 -34.093  0.00  0.00    +0.000 A 
ATOM     37  O4  UNL     1      26.418  -9.613 -34.109  0.00  0.00    +0.000 OA
ATOM     38  C27 UNL     1      27.174  -9.634 -35.203  0.00  0.00    +0.000 A 
ATOM     39  O5  UNL     1      28.335 -10.113 -35.129  0.00  0.00    +0.000 OA
ENDBRANCH  26  29
ENDBRANCH  23  25
ENDBRANCH   1  22
TORSDOF 6
ENDMDL
MODEL 2
REMARK VINA RESULT:    -7.551      3.290      9.763
REMARK INTER + INTRA:         -10.690
REMARK INTER:                  -9.865
REMARK INTRA:                  -0.826
REMARK UNBOUND:                -0.491
REMARK  Name = resultss/4CJN/ligands/lig_359_t0.pdb
REMARK  6 active torsions:
REMARK  status: ('A' for Active; 'I' for Inactive)
REMARK    1  A    between atoms: C1_2  and  C2_3
REMARK    2  A    between atoms: C2_3  and  N1_4
REMARK    3  A    between atoms: C3_5  and  C4_6
REMARK    4  A    between atoms: C4_6  and  C5_7
REMARK    5  A    between atoms: N3_23  and  N4_24
REMARK    6  A    between atoms: C18_25  and  C19_27
REMARK                            x       y       z     vdW  Elec       q    Type
REMARK                         _______ _______ _______ _____ _____    ______ ____
ROOT
ATOM      1  C2  UNL     1      28.659  -8.143 -37.805  0.00  0.00    +0.000 C 
ENDROOT
BRANCH   1   2
ATOM      2  N1  UNL     1      29.223  -8.666 -36.540  0.00  0.00    +0.000 N 
ATOM      3  C3  UNL     1      28.478  -9.488 -35.718  0.00  0.00    +0.000 A 
ATOM      4  N2  UNL     1      29.007  -9.925 -34.543  0.00  0.00    +0.000 NA
ATOM      5  C11 UNL     1      30.267  -9.617 -34.161  0.00  0.00    +0.000 A 
ATOM      6  C12 UNL     1      30.769 -10.102 -32.948  0.00  0.00    +0.000 A 
ATOM      7  C13 UNL     1      32.074  -9.790 -32.557  0.00  0.00    +0.000 A 
ATOM      8  C14 UNL     1      32.879  -8.993 -33.375  0.00  0.00    +0.000 A 
ATOM      9  C15 UNL     1      32.382  -8.504 -34.588  0.00  0.00    +0.000 A 
ATOM     10  C16 UNL     1      31.067  -8.813 -34.989  0.00  0.00    +0.000 A 
ATOM     11  C17 UNL     1      30.516  -8.344 -36.192  0.00  0.00    +0.000 A 
ATOM     12  O2  UNL     1      31.223  -7.627 -36.956  0.00  0.00    +0.000 OA
BRANCH   3  13
ATOM     13  C4  UNL     1      27.044  -9.866 -36.042  0.00  0.00    +0.000 C 
BRANCH  13  14
ATOM     14  C5  UNL     1      26.049  -9.011 -35.298  0.00  0.00    +0.000 A 
ATOM     15  C6  UNL     1      25.306  -9.556 -34.236  0.00  0.00    +0.000 A 
ATOM     16  C7  UNL     1      24.417  -8.754 -33.515  0.00  0.00    +0.000 A 
ATOM     17  C8  UNL     1      24.268  -7.403 -33.841  0.00  0.00    +0.000 A 
ATOM     18 BR1  UNL     1      23.056  -6.308 -32.850  0.00  0.00    +0.000 Br
ATOM     19  C9  UNL     1      25.012  -6.851 -34.889  0.00  0.00    +0.000 A 
ATOM     20  C10 UNL     1      25.904  -7.650 -35.613  0.00  0.00    +0.000 A 
ENDBRANCH  13  14
ENDBRANCH   3  13
ENDBRANCH   1   2
BRANCH   1  22
ATOM     21  O1  UNL     1      29.746  -7.634 -39.865  0.00  0.00    +0.000 OA
ATOM     22  C1  UNL     1      29.506  -8.514 -38.994  0.00  0.00    +0.000 C 
ATOM     23  N3  UNL     1      30.059  -9.833 -39.135  0.00  0.00    +0.000 N 
ATOM     24  H13 UNL     1      29.646 -10.620 -38.593  0.00  0.00    +0.000 HD
BRANCH  23  25
ATOM     25  N4  UNL     1      30.993 -10.146 -40.139  0.00  0.00    +0.000 N 
ATOM     26  C18 UNL     1      30.591 -10.525 -41.465  0.00  0.00    +0.000 C 
ATOM     27  O3  UNL     1      29.397 -10.341 -41.827  0.00  0.00    +0.000 OA
ATOM     28  H14 UNL     1      31.995  -9.900 -39.973  0.00  0.00    +0.000 HD
BRANCH  26  29
ATOM     29  C19 UNL     1      31.574 -11.100 -42.419  0.00  0.00    +0.000 A 
ATOM     30  C20 UNL     1      31.176 -12.093 -43.328  0.00  0.00    +0.000 A 
ATOM     31  C21 UNL     1      32.104 -12.629 -44.225  0.00  0.00    +0.000 A 
ATOM     32  C22 UNL     1      31.743 -13.621 -45.149  0.00  0.00    +0.000 A 
ATOM     33  C23 UNL     1      32.700 -14.133 -46.031  0.00  0.00    +0.000 A 
ATOM     34  C24 UNL     1      34.015 -13.656 -45.995  0.00  0.00    +0.000 A 
ATOM     35  C25 UNL     1      34.380 -12.666 -45.078  0.00  0.00    +0.000 A 
ATOM     36  C26 UNL     1      33.429 -12.147 -44.192  0.00  0.00    +0.000 A 
ATOM     37  O4  UNL     1      33.775 -11.203 -43.324  0.00  0.00    +0.000 OA
ATOM     38  C27 UNL     1      32.920 -10.671 -42.456  0.00  0.00    +0.000 A 
ATOM     39  O5  UNL     1      33.334  -9.786 -41.661  0.00  0.00    +0.000 OA
ENDBRANCH  26  29
ENDBRANCH  23  25
ENDBRANCH   1  22
TORSDOF 6
ENDMDL
MODEL 3
REMARK VINA RESULT:    -7.515      3.532     10.483
REMARK INTER + INTRA:         -10.641
REMARK INTER:                  -9.186
REMARK INTRA:                  -1.455
REMARK UNBOUND:                -0.491
REMARK  Name = resultss/4CJN/ligands/lig_359_t0.pdb
REMARK  6 active torsions:
REMARK  status: ('A' for Active; 'I' for Inactive)
REMARK    1  A    between atoms: C1_2  and  C2_3
REMARK    2  A    between atoms: C2_3  and  N1_4
REMARK    3  A    between atoms: C3_5  and  C4_6
REMARK    4  A    between atoms: C4_6  and  C5_7
REMARK    5  A    between atoms: N3_23  and  N4_24
REMARK    6  A    between atoms: C18_25  and  C19_27
REMARK                            x       y       z     vdW  Elec       q    Type
REMARK                         _______ _______ _______ _____ _____    ______ ____
ROOT
ATOM      1  C2  UNL     1      27.268  -6.472 -37.804  0.00  0.00    +0.000 C 
ENDROOT
BRANCH   1   2
ATOM      2  N1  UNL     1      26.546  -6.870 -36.574  0.00  0.00    +0.000 N 
ATOM      3  C3  UNL     1      27.186  -6.886 -35.351  0.00  0.00    +0.000 A 
ATOM      4  N2  UNL     1      26.510  -7.291 -34.241  0.00  0.00    +0.000 NA
ATOM      5  C11 UNL     1      25.206  -7.644 -34.280  0.00  0.00    +0.000 A 
ATOM      6  C12 UNL     1      24.552  -8.041 -33.109  0.00  0.00    +0.000 A 
ATOM      7  C13 UNL     1      23.202  -8.400 -33.149  0.00  0.00    +0.000 A 
ATOM      8  C14 UNL     1      22.503  -8.362 -34.358  0.00  0.00    +0.000 A 
ATOM      9  C15 UNL     1      23.151  -7.967 -35.532  0.00  0.00    +0.000 A 
ATOM     10  C16 UNL     1      24.512  -7.606 -35.501  0.00  0.00    +0.000 A 
ATOM     11  C17 UNL     1      25.213  -7.208 -36.651  0.00  0.00    +0.000 A 
ATOM     12  O2  UNL     1      24.605  -7.157 -37.757  0.00  0.00    +0.000 OA
BRANCH   3  13
ATOM     13  C4  UNL     1      28.656  -6.538 -35.206  0.00  0.00    +0.000 C 
BRANCH  13  14
ATOM     14  C5  UNL     1      29.402  -7.552 -34.375  0.00  0.00    +0.000 A 
ATOM     15  C6  UNL     1      29.487  -8.888 -34.802  0.00  0.00    +0.000 A 
ATOM     16  C7  UNL     1      30.216  -9.820 -34.058  0.00  0.00    +0.000 A 
ATOM     17  C8  UNL     1      30.872  -9.425 -32.888  0.00  0.00    +0.000 A 
ATOM     18 BR1  UNL     1      31.872 -10.699 -31.876  0.00  0.00    +0.000 Br
ATOM     19  C9  UNL     1      30.801  -8.094 -32.463  0.00  0.00    +0.000 A 
ATOM     20  C10 UNL     1      30.072  -7.158 -33.205  0.00  0.00    +0.000 A 
ENDBRANCH  13  14
ENDBRANCH   3  13
ENDBRANCH   1   2
BRANCH   1  22
ATOM     21  O1  UNL     1      27.124  -8.233 -39.406  0.00  0.00    +0.000 OA
ATOM     22  C1  UNL     1      27.834  -7.663 -38.533  0.00  0.00    +0.000 C 
ATOM     23  N3  UNL     1      29.166  -8.135 -38.271  0.00  0.00    +0.000 N 
ATOM     24  H13 UNL     1      29.638  -7.864 -37.383  0.00  0.00    +0.000 HD
BRANCH  23  25
ATOM     25  N4  UNL     1      29.775  -9.126 -39.062  0.00  0.00    +0.000 N 
ATOM     26  C18 UNL     1      30.484  -8.810 -40.270  0.00  0.00    +0.000 C 
ATOM     27  O3  UNL     1      30.790  -7.611 -40.514  0.00  0.00    +0.000 OA
ATOM     28  H14 UNL     1      29.886 -10.082 -38.654  0.00  0.00    +0.000 HD
BRANCH  26  29
ATOM     29  C19 UNL     1      30.886  -9.884 -41.215  0.00  0.00    +0.000 A 
ATOM     30  C20 UNL     1      32.215  -9.970 -41.659  0.00  0.00    +0.000 A 
ATOM     31  C21 UNL     1      32.589 -10.983 -42.547  0.00  0.00    +0.000 A 
ATOM     32  C22 UNL     1      33.908 -11.102 -43.011  0.00  0.00    +0.000 A 
ATOM     33  C23 UNL     1      34.244 -12.129 -43.898  0.00  0.00    +0.000 A 
ATOM     34  C24 UNL     1      33.269 -13.039 -44.321  0.00  0.00    +0.000 A 
ATOM     35  C25 UNL     1      31.953 -12.927 -43.860  0.00  0.00    +0.000 A 
ATOM     36  C26 UNL     1      31.607 -11.902 -42.971  0.00  0.00    +0.000 A 
ATOM     37  O4  UNL     1      30.359 -11.799 -42.530  0.00  0.00    +0.000 OA
ATOM     38  C27 UNL     1      29.967 -10.848 -41.687  0.00  0.00    +0.000 A 
ATOM     39  O5  UNL     1      28.762 -10.818 -41.325  0.00  0.00    +0.000 OA
ENDBRANCH  26  29
ENDBRANCH  23  25
ENDBRANCH   1  22
TORSDOF 6
ENDMDL
MODEL 4
REMARK VINA RESULT:    -7.426      4.911     10.341
REMARK INTER + INTRA:         -10.522
REMARK INTER:                  -9.566
REMARK INTRA:                  -0.956
REMARK UNBOUND:                -0.491
REMARK  Name = resultss/4CJN/ligands/lig_359_t0.pdb
REMARK  6 active torsions:
REMARK  status: ('A' for Active; 'I' for Inactive)
REMARK    1  A    between atoms: C1_2  and  C2_3
REMARK    2  A    between atoms: C2_3  and  N1_4
REMARK    3  A    between atoms: C3_5  and  C4_6
REMARK    4  A    between atoms: C4_6  and  C5_7
REMARK    5  A    between atoms: N3_23  and  N4_24
REMARK    6  A    between atoms: C18_25  and  C19_27
REMARK                            x       y       z     vdW  Elec       q    Type
REMARK                         _______ _______ _______ _____ _____    ______ ____
ROOT
ATOM      1  C2  UNL     1      27.964  -7.340 -37.213  0.00  0.00    +0.000 C 
ENDROOT
BRANCH   1   2
ATOM      2  N1  UNL     1      27.011  -7.846 -36.199  0.00  0.00    +0.000 N 
ATOM      3  C3  UNL     1      27.192  -9.082 -35.611  0.00  0.00    +0.000 A 
ATOM      4  N2  UNL     1      26.282  -9.539 -34.709  0.00  0.00    +0.000 NA
ATOM      5  C11 UNL     1      25.213  -8.804 -34.327  0.00  0.00    +0.000 A 
ATOM      6  C12 UNL     1      24.312  -9.314 -33.386  0.00  0.00    +0.000 A 
ATOM      7  C13 UNL     1      23.212  -8.551 -32.986  0.00  0.00    +0.000 A 
ATOM      8  C14 UNL     1      23.009  -7.278 -33.525  0.00  0.00    +0.000 A 
ATOM      9  C15 UNL     1      23.906  -6.763 -34.467  0.00  0.00    +0.000 A 
ATOM     10  C16 UNL     1      25.016  -7.527 -34.877  0.00  0.00    +0.000 A 
ATOM     11  C17 UNL     1      25.944  -7.062 -35.823  0.00  0.00    +0.000 A 
ATOM     12  O2  UNL     1      25.790  -5.911 -36.323  0.00  0.00    +0.000 OA
BRANCH   3  13
ATOM     13  C4  UNL     1      28.341  -9.996 -35.994  0.00  0.00    +0.000 C 
BRANCH  13  14
ATOM     14  C5  UNL     1      29.560  -9.768 -35.135  0.00  0.00    +0.000 A 
ATOM     15  C6  UNL     1      30.805  -9.510 -35.734  0.00  0.00    +0.000 A 
ATOM     16  C7  UNL     1      31.927  -9.252 -34.941  0.00  0.00    +0.000 A 
ATOM     17  C8  UNL     1      31.814  -9.242 -33.547  0.00  0.00    +0.000 A 
ATOM     18 BR1  UNL     1      33.348  -8.885 -32.466  0.00  0.00    +0.000 Br
ATOM     19  C9  UNL     1      30.576  -9.488 -32.946  0.00  0.00    +0.000 A 
ATOM     20  C10 UNL     1      29.450  -9.745 -33.736  0.00  0.00    +0.000 A 
ENDBRANCH  13  14
ENDBRANCH   3  13
ENDBRANCH   1   2
BRANCH   1  22
ATOM     21  O1  UNL     1      27.457  -5.993 -39.114  0.00  0.00    +0.000 OA
ATOM     22  C1  UNL     1      27.297  -7.107 -38.544  0.00  0.00    +0.000 C 
ATOM     23  N3  UNL     1      26.514  -8.131 -39.178  0.00  0.00    +0.000 N 
ATOM     24  H13 UNL     1      26.149  -8.922 -38.606  0.00  0.00    +0.000 HD
BRANCH  23  25
ATOM     25  N4  UNL     1      26.034  -7.997 -40.493  0.00  0.00    +0.000 N 
ATOM     26  C18 UNL     1      26.785  -8.454 -41.629  0.00  0.00    +0.000 C 
ATOM     27  O3  UNL     1      27.778  -9.212 -41.454  0.00  0.00    +0.000 OA
ATOM     28  H14 UNL     1      25.028  -7.748 -40.627  0.00  0.00    +0.000 HD
BRANCH  26  29
ATOM     29  C19 UNL     1      26.383  -8.068 -43.007  0.00  0.00    +0.000 A 
ATOM     30  C20 UNL     1      27.354  -7.676 -43.940  0.00  0.00    +0.000 A 
ATOM     31  C21 UNL     1      26.971  -7.316 -45.236  0.00  0.00    +0.000 A 
ATOM     32  C22 UNL     1      27.914  -6.921 -46.196  0.00  0.00    +0.000 A 
ATOM     33  C23 UNL     1      27.493  -6.568 -47.483  0.00  0.00    +0.000 A 
ATOM     34  C24 UNL     1      26.133  -6.611 -47.813  0.00  0.00    +0.000 A 
ATOM     35  C25 UNL     1      25.190  -7.006 -46.860  0.00  0.00    +0.000 A 
ATOM     36  C26 UNL     1      25.602  -7.362 -45.570  0.00  0.00    +0.000 A 
ATOM     37  O4  UNL     1      24.706  -7.742 -44.667  0.00  0.00    +0.000 OA
ATOM     38  C27 UNL     1      25.033  -8.090 -43.426  0.00  0.00    +0.000 A 
ATOM     39  O5  UNL     1      24.119  -8.429 -42.630  0.00  0.00    +0.000 OA
ENDBRANCH  26  29
ENDBRANCH  23  25
ENDBRANCH   1  22
TORSDOF 6
ENDMDL
MODEL 5
REMARK VINA RESULT:    -7.074      2.925     10.064
REMARK INTER + INTRA:         -10.046
REMARK INTER:                  -9.359
REMARK INTRA:                  -0.688
REMARK UNBOUND:                -0.491
REMARK  Name = resultss/4CJN/ligands/lig_359_t0.pdb
REMARK  6 active torsions:
REMARK  status: ('A' for Active; 'I' for Inactive)
REMARK    1  A    between atoms: C1_2  and  C2_3
REMARK    2  A    between atoms: C2_3  and  N1_4
REMARK    3  A    between atoms: C3_5  and  C4_6
REMARK    4  A    between atoms: C4_6  and  C5_7
REMARK    5  A    between atoms: N3_23  and  N4_24
REMARK    6  A    between atoms: C18_25  and  C19_27
REMARK                            x       y       z     vdW  Elec       q    Type
REMARK                         _______ _______ _______ _____ _____    ______ ____
ROOT
ATOM      1  C2  UNL     1      27.297 -10.213 -36.680  0.00  0.00    +0.000 C 
ENDROOT
BRANCH   1   2
ATOM      2  N1  UNL     1      27.209  -9.116 -35.690  0.00  0.00    +0.000 N 
ATOM      3  C3  UNL     1      26.470  -7.980 -35.955  0.00  0.00    +0.000 A 
ATOM      4  N2  UNL     1      26.435  -6.970 -35.044  0.00  0.00    +0.000 NA
ATOM      5  C11 UNL     1      27.070  -7.051 -33.853  0.00  0.00    +0.000 A 
ATOM      6  C12 UNL     1      26.992  -5.990 -32.944  0.00  0.00    +0.000 A 
ATOM      7  C13 UNL     1      27.642  -6.078 -31.710  0.00  0.00    +0.000 A 
ATOM      8  C14 UNL     1      28.370  -7.225 -31.382  0.00  0.00    +0.000 A 
ATOM      9  C15 UNL     1      28.452  -8.288 -32.286  0.00  0.00    +0.000 A 
ATOM     10  C16 UNL     1      27.801  -8.207 -33.533  0.00  0.00    +0.000 A 
ATOM     11  C17 UNL     1      27.855  -9.242 -34.481  0.00  0.00    +0.000 A 
ATOM     12  O2  UNL     1      28.500 -10.294 -34.209  0.00  0.00    +0.000 OA
BRANCH   3  13
ATOM     13  C4  UNL     1      25.748  -7.778 -37.275  0.00  0.00    +0.000 C 
BRANCH  13  14
ATOM     14  C5  UNL     1      24.316  -7.347 -37.079  0.00  0.00    +0.000 A 
ATOM     15  C6  UNL     1      23.564  -7.863 -36.009  0.00  0.00    +0.000 A 
ATOM     16  C7  UNL     1      22.252  -7.431 -35.798  0.00  0.00    +0.000 A 
ATOM     17  C8  UNL     1      21.682  -6.476 -36.646  0.00  0.00    +0.000 A 
ATOM     18 BR1  UNL     1      19.891  -5.883 -36.352  0.00  0.00    +0.000 Br
ATOM     19  C9  UNL     1      22.428  -5.950 -37.706  0.00  0.00    +0.000 A 
ATOM     20  C10 UNL     1      23.742  -6.379 -37.920  0.00  0.00    +0.000 A 
ENDBRANCH  13  14
ENDBRANCH   3  13
ENDBRANCH   1   2
BRANCH   1  22
ATOM     21  O1  UNL     1      29.623  -9.778 -36.974  0.00  0.00    +0.000 OA
ATOM     22  C1  UNL     1      28.539 -10.107 -37.527  0.00  0.00    +0.000 C 
ATOM     23  N3  UNL     1      28.511 -10.399 -38.934  0.00  0.00    +0.000 N 
ATOM     24  H13 UNL     1      27.599 -10.391 -39.439  0.00  0.00    +0.000 HD
BRANCH  23  25
ATOM     25  N4  UNL     1      29.686 -10.479 -39.703  0.00  0.00    +0.000 N 
ATOM     26  C18 UNL     1      29.660 -10.480 -41.139  0.00  0.00    +0.000 C 
ATOM     27  O3  UNL     1      28.600 -10.155 -41.741  0.00  0.00    +0.000 OA
ATOM     28  H14 UNL     1      30.601 -10.329 -39.220  0.00  0.00    +0.000 HD
BRANCH  26  29
ATOM     29  C19 UNL     1      30.877 -10.828 -41.917  0.00  0.00    +0.000 A 
ATOM     30  C20 UNL     1      30.833 -11.857 -42.870  0.00  0.00    +0.000 A 
ATOM     31  C21 UNL     1      31.980 -12.179 -43.602  0.00  0.00    +0.000 A 
ATOM     32  C22 UNL     1      31.974 -13.200 -44.564  0.00  0.00    +0.000 A 
ATOM     33  C23 UNL     1      33.141 -13.493 -45.277  0.00  0.00    +0.000 A 
ATOM     34  C24 UNL     1      34.314 -12.768 -45.033  0.00  0.00    +0.000 A 
ATOM     35  C25 UNL     1      34.325 -11.748 -44.077  0.00  0.00    +0.000 A 
ATOM     36  C26 UNL     1      33.161 -11.447 -43.359  0.00  0.00    +0.000 A 
ATOM     37  O4  UNL     1      33.171 -10.475 -42.455  0.00  0.00    +0.000 OA
ATOM     38  C27 UNL     1      32.100 -10.142 -41.740  0.00  0.00    +0.000 A 
ATOM     39  O5  UNL     1      32.199  -9.213 -40.896  0.00  0.00    +0.000 OA
ENDBRANCH  26  29
ENDBRANCH  23  25
ENDBRANCH   1  22
TORSDOF 6
ENDMDL
MODEL 6
REMARK VINA RESULT:    -7.046      5.346      8.560
REMARK INTER + INTRA:         -10.008
REMARK INTER:                  -8.980
REMARK INTRA:                  -1.028
REMARK UNBOUND:                -0.491
REMARK  Name = resultss/4CJN/ligands/lig_359_t0.pdb
REMARK  6 active torsions:
REMARK  status: ('A' for Active; 'I' for Inactive)
REMARK    1  A    between atoms: C1_2  and  C2_3
REMARK    2  A    between atoms: C2_3  and  N1_4
REMARK    3  A    between atoms: C3_5  and  C4_6
REMARK    4  A    between atoms: C4_6  and  C5_7
REMARK    5  A    between atoms: N3_23  and  N4_24
REMARK    6  A    between atoms: C18_25  and  C19_27
REMARK                            x       y       z     vdW  Elec       q    Type
REMARK                         _______ _______ _______ _____ _____    ______ ____
ROOT
ATOM      1  C2  UNL     1      26.184 -10.367 -40.659  0.00  0.00    +0.000 C 
ENDROOT
BRANCH   1   2
ATOM      2  N1  UNL     1      27.390  -9.580 -40.317  0.00  0.00    +0.000 N 
ATOM      3  C3  UNL     1      27.287  -8.390 -39.625  0.00  0.00    +0.000 A 
ATOM      4  N2  UNL     1      28.408  -7.667 -39.354  0.00  0.00    +0.000 NA
ATOM      5  C11 UNL     1      29.643  -8.094 -39.704  0.00  0.00    +0.000 A 
ATOM      6  C12 UNL     1      30.766  -7.320 -39.392  0.00  0.00    +0.000 A 
ATOM      7  C13 UNL     1      32.042  -7.765 -39.748  0.00  0.00    +0.000 A 
ATOM      8  C14 UNL     1      32.198  -8.983 -40.415  0.00  0.00    +0.000 A 
ATOM      9  C15 UNL     1      31.080  -9.760 -40.731  0.00  0.00    +0.000 A 
ATOM     10  C16 UNL     1      29.790  -9.318 -40.378  0.00  0.00    +0.000 A 
ATOM     11  C17 UNL     1      28.632 -10.055 -40.675  0.00  0.00    +0.000 A 
ATOM     12  O2  UNL     1      28.743 -11.163 -41.272  0.00  0.00    +0.000 OA
BRANCH   3  13
ATOM     13  C4  UNL     1      25.946  -7.809 -39.215  0.00  0.00    +0.000 C 
BRANCH  13  14
ATOM     14  C5  UNL     1      25.633  -8.070 -37.762  0.00  0.00    +0.000 A 
ATOM     15  C6  UNL     1      24.608  -7.352 -37.122  0.00  0.00    +0.000 A 
ATOM     16  C7  UNL     1      24.285  -7.624 -35.790  0.00  0.00    +0.000 A 
ATOM     17  C8  UNL     1      24.975  -8.617 -35.088  0.00  0.00    +0.000 A 
ATOM     18 BR1  UNL     1      24.528  -8.989 -33.269  0.00  0.00    +0.000 Br
ATOM     19  C9  UNL     1      25.989  -9.342 -35.723  0.00  0.00    +0.000 A 
ATOM     20  C10 UNL     1      26.315  -9.074 -37.056  0.00  0.00    +0.000 A 
ENDBRANCH  13  14
ENDBRANCH   3  13
ENDBRANCH   1   2
BRANCH   1  22
ATOM     21  O1  UNL     1      25.924  -9.367 -42.808  0.00  0.00    +0.000 OA
ATOM     22  C1  UNL     1      25.361  -9.697 -41.729  0.00  0.00    +0.000 C 
ATOM     23  N3  UNL     1      23.956  -9.457 -41.551  0.00  0.00    +0.000 N 
ATOM     24  H13 UNL     1      23.555  -9.463 -40.589  0.00  0.00    +0.000 HD
BRANCH  23  25
ATOM     25  N4  UNL     1      23.138  -8.999 -42.600  0.00  0.00    +0.000 N 
ATOM     26  C18 UNL     1      22.687  -7.638 -42.677  0.00  0.00    +0.000 C 
ATOM     27  O3  UNL     1      23.222  -6.764 -41.941  0.00  0.00    +0.000 OA
ATOM     28  H14 UNL     1      23.028  -9.610 -43.440  0.00  0.00    +0.000 HD
BRANCH  26  29
ATOM     29  C19 UNL     1      21.623  -7.246 -43.637  0.00  0.00    +0.000 A 
ATOM     30  C20 UNL     1      20.303  -7.074 -43.194  0.00  0.00    +0.000 A 
ATOM     31  C21 UNL     1      19.305  -6.704 -44.100  0.00  0.00    +0.000 A 
ATOM     32  C22 UNL     1      17.975  -6.520 -43.693  0.00  0.00    +0.000 A 
ATOM     33  C23 UNL     1      17.005  -6.149 -44.630  0.00  0.00    +0.000 A 
ATOM     34  C24 UNL     1      17.359  -5.958 -45.971  0.00  0.00    +0.000 A 
ATOM     35  C25 UNL     1      18.684  -6.138 -46.381  0.00  0.00    +0.000 A 
ATOM     36  C26 UNL     1      19.662  -6.508 -45.451  0.00  0.00    +0.000 A 
ATOM     37  O4  UNL     1      20.921  -6.674 -45.840  0.00  0.00    +0.000 OA
ATOM     38  C27 UNL     1      21.895  -7.026 -45.007  0.00  0.00    +0.000 A 
ATOM     39  O5  UNL     1      23.060  -7.171 -45.462  0.00  0.00    +0.000 OA
ENDBRANCH  26  29
ENDBRANCH  23  25
ENDBRANCH   1  22
TORSDOF 6
ENDMDL
MODEL 7
REMARK VINA RESULT:    -7.011      4.628     10.543
REMARK INTER + INTRA:          -9.961
REMARK INTER:                  -8.774
REMARK INTRA:                  -1.187
REMARK UNBOUND:                -0.491
REMARK  Name = resultss/4CJN/ligands/lig_359_t0.pdb
REMARK  6 active torsions:
REMARK  status: ('A' for Active; 'I' for Inactive)
REMARK    1  A    between atoms: C1_2  and  C2_3
REMARK    2  A    between atoms: C2_3  and  N1_4
REMARK    3  A    between atoms: C3_5  and  C4_6
REMARK    4  A    between atoms: C4_6  and  C5_7
REMARK    5  A    between atoms: N3_23  and  N4_24
REMARK    6  A    between atoms: C18_25  and  C19_27
REMARK                            x       y       z     vdW  Elec       q    Type
REMARK                         _______ _______ _______ _____ _____    ______ ____
ROOT
ATOM      1  C2  UNL     1      27.875  -8.913 -37.372  0.00  0.00    +0.000 C 
ENDROOT
BRANCH   1   2
ATOM      2  N1  UNL     1      27.058  -8.248 -36.332  0.00  0.00    +0.000 N 
ATOM      3  C3  UNL     1      27.641  -7.418 -35.396  0.00  0.00    +0.000 A 
ATOM      4  N2  UNL     1      26.873  -6.848 -34.428  0.00  0.00    +0.000 NA
ATOM      5  C11 UNL     1      25.535  -7.031 -34.368  0.00  0.00    +0.000 A 
ATOM      6  C12 UNL     1      24.788  -6.412 -33.360  0.00  0.00    +0.000 A 
ATOM      7  C13 UNL     1      23.403  -6.596 -33.303  0.00  0.00    +0.000 A 
ATOM      8  C14 UNL     1      22.764  -7.397 -34.253  0.00  0.00    +0.000 A 
ATOM      9  C15 UNL     1      23.505  -8.019 -35.262  0.00  0.00    +0.000 A 
ATOM     10  C16 UNL     1      24.901  -7.840 -35.325  0.00  0.00    +0.000 A 
ATOM     11  C17 UNL     1      25.695  -8.446 -36.313  0.00  0.00    +0.000 A 
ATOM     12  O2  UNL     1      25.143  -9.170 -37.189  0.00  0.00    +0.000 OA
BRANCH   3  13
ATOM     13  C4  UNL     1      29.138  -7.173 -35.358  0.00  0.00    +0.000 C 
BRANCH  13  14
ATOM     14  C5  UNL     1      29.857  -8.176 -34.490  0.00  0.00    +0.000 A 
ATOM     15  C6  UNL     1      31.165  -8.578 -34.813  0.00  0.00    +0.000 A 
ATOM     16  C7  UNL     1      31.851  -9.471 -33.986  0.00  0.00    +0.000 A 
ATOM     17  C8  UNL     1      31.242  -9.964 -32.827  0.00  0.00    +0.000 A 
ATOM     18 BR1  UNL     1      32.184 -11.181 -31.696  0.00  0.00    +0.000 Br
ATOM     19  C9  UNL     1      29.946  -9.559 -32.494  0.00  0.00    +0.000 A 
ATOM     20  C10 UNL     1      29.256  -8.664 -33.319  0.00  0.00    +0.000 A 
ENDBRANCH  13  14
ENDBRANCH   3  13
ENDBRANCH   1   2
BRANCH   1  22
ATOM     21  O1  UNL     1      28.784  -7.354 -38.930  0.00  0.00    +0.000 OA
ATOM     22  C1  UNL     1      27.847  -8.159 -38.676  0.00  0.00    +0.000 C 
ATOM     23  N3  UNL     1      26.795  -8.361 -39.634  0.00  0.00    +0.000 N 
ATOM     24  H13 UNL     1      25.897  -8.789 -39.323  0.00  0.00    +0.000 HD
BRANCH  23  25
ATOM     25  N4  UNL     1      26.844  -7.804 -40.925  0.00  0.00    +0.000 N 
ATOM     26  C18 UNL     1      26.440  -8.540 -42.089  0.00  0.00    +0.000 C 
ATOM     27  O3  UNL     1      25.794  -9.615 -41.951  0.00  0.00    +0.000 OA
ATOM     28  H14 UNL     1      26.984  -6.772 -41.010  0.00  0.00    +0.000 HD
BRANCH  26  29
ATOM     29  C19 UNL     1      26.746  -8.031 -43.451  0.00  0.00    +0.000 A 
ATOM     30  C20 UNL     1      25.703  -7.696 -44.329  0.00  0.00    +0.000 A 
ATOM     31  C21 UNL     1      25.996  -7.216 -45.608  0.00  0.00    +0.000 A 
ATOM     32  C22 UNL     1      24.981  -6.869 -46.513  0.00  0.00    +0.000 A 
ATOM     33  C23 UNL     1      25.314  -6.391 -47.784  0.00  0.00    +0.000 A 
ATOM     34  C24 UNL     1      26.657  -6.256 -48.155  0.00  0.00    +0.000 A 
ATOM     35  C25 UNL     1      27.672  -6.598 -47.257  0.00  0.00    +0.000 A 
ATOM     36  C26 UNL     1      27.349  -7.076 -45.982  0.00  0.00    +0.000 A 
ATOM     37  O4  UNL     1      28.315  -7.397 -45.128  0.00  0.00    +0.000 OA
ATOM     38  C27 UNL     1      28.073  -7.857 -43.904  0.00  0.00    +0.000 A 
ATOM     39  O5  UNL     1      29.048  -8.145 -43.161  0.00  0.00    +0.000 OA
ENDBRANCH  26  29
ENDBRANCH  23  25
ENDBRANCH   1  22
TORSDOF 6
ENDMDL
MODEL 8
REMARK VINA RESULT:    -6.940      1.611      2.017
REMARK INTER + INTRA:          -9.865
REMARK INTER:                  -8.701
REMARK INTRA:                  -1.164
REMARK UNBOUND:                -0.491
REMARK  Name = resultss/4CJN/ligands/lig_359_t0.pdb
REMARK  6 active torsions:
REMARK  status: ('A' for Active; 'I' for Inactive)
REMARK    1  A    between atoms: C1_2  and  C2_3
REMARK    2  A    between atoms: C2_3  and  N1_4
REMARK    3  A    between atoms: C3_5  and  C4_6
REMARK    4  A    between atoms: C4_6  and  C5_7
REMARK    5  A    between atoms: N3_23  and  N4_24
REMARK    6  A    between atoms: C18_25  and  C19_27
REMARK                            x       y       z     vdW  Elec       q    Type
REMARK                         _______ _______ _______ _____ _____    ______ ____
ROOT
ATOM      1  C2  UNL     1      32.238  -7.466 -39.454  0.00  0.00    +0.000 C 
ENDROOT
BRANCH   1   2
ATOM      2  N1  UNL     1      31.862  -8.477 -40.469  0.00  0.00    +0.000 N 
ATOM      3  C3  UNL     1      30.655  -8.398 -41.134  0.00  0.00    +0.000 A 
ATOM      4  N2  UNL     1      30.317  -9.360 -42.035  0.00  0.00    +0.000 NA
ATOM      5  C11 UNL     1      31.146 -10.383 -42.343  0.00  0.00    +0.000 A 
ATOM      6  C12 UNL     1      30.757 -11.340 -43.287  0.00  0.00    +0.000 A 
ATOM      7  C13 UNL     1      31.618 -12.392 -43.609  0.00  0.00    +0.000 A 
ATOM      8  C14 UNL     1      32.867 -12.492 -42.990  0.00  0.00    +0.000 A 
ATOM      9  C15 UNL     1      33.260 -11.539 -42.046  0.00  0.00    +0.000 A 
ATOM     10  C16 UNL     1      32.398 -10.475 -41.713  0.00  0.00    +0.000 A 
ATOM     11  C17 UNL     1      32.739  -9.495 -40.768  0.00  0.00    +0.000 A 
ATOM     12  O2  UNL     1      33.865  -9.555 -40.197  0.00  0.00    +0.000 OA
BRANCH   3  13
ATOM     13  C4  UNL     1      29.641  -7.308 -40.838  0.00  0.00    +0.000 C 
BRANCH  13  14
ATOM     14  C5  UNL     1      28.235  -7.727 -41.188  0.00  0.00    +0.000 A 
ATOM     15  C6  UNL     1      27.701  -7.421 -42.451  0.00  0.00    +0.000 A 
ATOM     16  C7  UNL     1      26.416  -7.849 -42.795  0.00  0.00    +0.000 A 
ATOM     17  C8  UNL     1      25.657  -8.592 -41.885  0.00  0.00    +0.000 A 
ATOM     18 BR1  UNL     1      23.903  -9.180 -42.359  0.00  0.00    +0.000 Br
ATOM     19  C9  UNL     1      26.186  -8.910 -40.631  0.00  0.00    +0.000 A 
ATOM     20  C10 UNL     1      27.473  -8.484 -40.283  0.00  0.00    +0.000 A 
ENDBRANCH  13  14
ENDBRANCH   3  13
ENDBRANCH   1   2
BRANCH   1  22
ATOM     21  O1  UNL     1      31.013  -6.370 -37.728  0.00  0.00    +0.000 OA
ATOM     22  C1  UNL     1      31.291  -7.467 -38.283  0.00  0.00    +0.000 C 
ATOM     23  N3  UNL     1      30.686  -8.683 -37.812  0.00  0.00    +0.000 N 
ATOM     24  H13 UNL     1      31.114  -9.598 -38.067  0.00  0.00    +0.000 HD
BRANCH  23  25
ATOM     25  N4  UNL     1      29.668  -8.682 -36.841  0.00  0.00    +0.000 N 
ATOM     26  C18 UNL     1      28.537  -9.564 -36.920  0.00  0.00    +0.000 C 
ATOM     27  O3  UNL     1      28.560 -10.532 -37.728  0.00  0.00    +0.000 OA
ATOM     28  H14 UNL     1      29.844  -8.175 -35.944  0.00  0.00    +0.000 HD
BRANCH  26  29
ATOM     29  C19 UNL     1      27.358  -9.364 -36.037  0.00  0.00    +0.000 A 
ATOM     30  C20 UNL     1      26.194  -8.766 -36.542  0.00  0.00    +0.000 A 
ATOM     31  C21 UNL     1      25.087  -8.583 -35.709  0.00  0.00    +0.000 A 
ATOM     32  C22 UNL     1      23.905  -7.991 -36.178  0.00  0.00    +0.000 A 
ATOM     33  C23 UNL     1      22.818  -7.825 -35.314  0.00  0.00    +0.000 A 
ATOM     34  C24 UNL     1      22.907  -8.249 -33.983  0.00  0.00    +0.000 A 
ATOM     35  C25 UNL     1      24.081  -8.842 -33.511  0.00  0.00    +0.000 A 
ATOM     36  C26 UNL     1      25.174  -9.013 -34.368  0.00  0.00    +0.000 A 
ATOM     37  O4  UNL     1      26.288  -9.581 -33.920  0.00  0.00    +0.000 OA
ATOM     38  C27 UNL     1      27.360  -9.770 -34.683  0.00  0.00    +0.000 A 
ATOM     39  O5  UNL     1      28.379 -10.308 -34.175  0.00  0.00    +0.000 OA
ENDBRANCH  26  29
ENDBRANCH  23  25
ENDBRANCH   1  22
TORSDOF 6
ENDMDL
MODEL 9
REMARK VINA RESULT:    -6.916      5.464      8.707
REMARK INTER + INTRA:          -9.832
REMARK INTER:                  -8.768
REMARK INTRA:                  -1.065
REMARK UNBOUND:                -0.491
REMARK  Name = resultss/4CJN/ligands/lig_359_t0.pdb
REMARK  6 active torsions:
REMARK  status: ('A' for Active; 'I' for Inactive)
REMARK    1  A    between atoms: C1_2  and  C2_3
REMARK    2  A    between atoms: C2_3  and  N1_4
REMARK    3  A    between atoms: C3_5  and  C4_6
REMARK    4  A    between atoms: C4_6  and  C5_7
REMARK    5  A    between atoms: N3_23  and  N4_24
REMARK    6  A    between atoms: C18_25  and  C19_27
REMARK                            x       y       z     vdW  Elec       q    Type
REMARK                         _______ _______ _______ _____ _____    ______ ____
ROOT
ATOM      1  C2  UNL     1      25.820  -8.859 -39.351  0.00  0.00    +0.000 C 
ENDROOT
BRANCH   1   2
ATOM      2  N1  UNL     1      27.254  -9.024 -39.680  0.00  0.00    +0.000 N 
ATOM      3  C3  UNL     1      28.232  -8.434 -38.904  0.00  0.00    +0.000 A 
ATOM      4  N2  UNL     1      29.541  -8.571 -39.248  0.00  0.00    +0.000 NA
ATOM      5  C11 UNL     1      29.933  -9.308 -40.312  0.00  0.00    +0.000 A 
ATOM      6  C12 UNL     1      31.293  -9.428 -40.618  0.00  0.00    +0.000 A 
ATOM      7  C13 UNL     1      31.698 -10.196 -41.713  0.00  0.00    +0.000 A 
ATOM      8  C14 UNL     1      30.747 -10.844 -42.505  0.00  0.00    +0.000 A 
ATOM      9  C15 UNL     1      29.386 -10.726 -42.205  0.00  0.00    +0.000 A 
ATOM     10  C16 UNL     1      28.969  -9.953 -41.104  0.00  0.00    +0.000 A 
ATOM     11  C17 UNL     1      27.616  -9.796 -40.761  0.00  0.00    +0.000 A 
ATOM     12  O2  UNL     1      26.733 -10.376 -41.455  0.00  0.00    +0.000 OA
BRANCH   3  13
ATOM     13  C4  UNL     1      27.895  -7.561 -37.708  0.00  0.00    +0.000 C 
BRANCH  13  14
ATOM     14  C5  UNL     1      28.555  -8.050 -36.443  0.00  0.00    +0.000 A 
ATOM     15  C6  UNL     1      28.221  -9.308 -35.914  0.00  0.00    +0.000 A 
ATOM     16  C7  UNL     1      28.865  -9.783 -34.768  0.00  0.00    +0.000 A 
ATOM     17  C8  UNL     1      29.852  -9.012 -34.147  0.00  0.00    +0.000 A 
ATOM     18 BR1  UNL     1      30.734  -9.665 -32.584  0.00  0.00    +0.000 Br
ATOM     19  C9  UNL     1      30.198  -7.764 -34.675  0.00  0.00    +0.000 A 
ATOM     20  C10 UNL     1      29.556  -7.285 -35.822  0.00  0.00    +0.000 A 
ENDBRANCH  13  14
ENDBRANCH   3  13
ENDBRANCH   1   2
BRANCH   1  22
ATOM     21  O1  UNL     1      25.476  -7.194 -41.023  0.00  0.00    +0.000 OA
ATOM     22  C1  UNL     1      25.048  -8.256 -40.495  0.00  0.00    +0.000 C 
ATOM     23  N3  UNL     1      23.858  -8.881 -41.005  0.00  0.00    +0.000 N 
ATOM     24  H13 UNL     1      23.352  -9.574 -40.414  0.00  0.00    +0.000 HD
BRANCH  23  25
ATOM     25  N4  UNL     1      23.226  -8.434 -42.180  0.00  0.00    +0.000 N 
ATOM     26  C18 UNL     1      22.266  -7.366 -42.171  0.00  0.00    +0.000 C 
ATOM     27  O3  UNL     1      22.157  -6.638 -41.147  0.00  0.00    +0.000 OA
ATOM     28  H14 UNL     1      23.615  -8.749 -43.097  0.00  0.00    +0.000 HD
BRANCH  26  29
ATOM     29  C19 UNL     1      21.427  -7.093 -43.367  0.00  0.00    +0.000 A 
ATOM     30  C20 UNL     1      20.036  -6.963 -43.236  0.00  0.00    +0.000 A 
ATOM     31  C21 UNL     1      19.251  -6.703 -44.363  0.00  0.00    +0.000 A 
ATOM     32  C22 UNL     1      17.858  -6.565 -44.271  0.00  0.00    +0.000 A 
ATOM     33  C23 UNL     1      17.106  -6.305 -45.422  0.00  0.00    +0.000 A 
ATOM     34  C24 UNL     1      17.741  -6.181 -46.663  0.00  0.00    +0.000 A 
ATOM     35  C25 UNL     1      19.129  -6.316 -46.760  0.00  0.00    +0.000 A 
ATOM     36  C26 UNL     1      19.890  -6.575 -45.614  0.00  0.00    +0.000 A 
ATOM     37  O4  UNL     1      21.210  -6.698 -45.706  0.00  0.00    +0.000 OA
ATOM     38  C27 UNL     1      21.987  -6.945 -44.656  0.00  0.00    +0.000 A 
ATOM     39  O5  UNL     1      23.229  -7.056 -44.834  0.00  0.00    +0.000 OA
ENDBRANCH  26  29
ENDBRANCH  23  25
ENDBRANCH   1  22
TORSDOF 6
ENDMDL
