MODEL 1
REMARK VINA RESULT:    -4.066      0.000      0.000
REMARK INTER + INTRA:          -4.986
REMARK INTER:                  -4.779
REMARK INTRA:                  -0.207
REMARK UNBOUND:                -0.207
REMARK  Name = resultss/4CJN/ligands/lig_220_t0.pdb
REMARK  5 active torsions:
REMARK  status: ('A' for Active; 'I' for Inactive)
REMARK    1  A    between atoms: O1_1  and  C1_2
REMARK    2  A    between atoms: C1_2  and  C2_3
REMARK    3  A    between atoms: C4_6  and  O2_7
REMARK    4  A    between atoms: C5_8  and  O3_9
REMARK    5  A    between atoms: C6_10  and  O4_11
REMARK                            x       y       z     vdW  Elec       q    Type
REMARK                         _______ _______ _______ _____ _____    ______ ____
ROOT
ATOM      1  C2  UNL     1      26.980  -8.898 -34.120  0.00  0.00    +0.000 C 
ATOM      2  N1  UNL     1      27.077  -7.427 -34.171  0.00  0.00    +0.000 NA
ATOM      3  C3  UNL     1      26.201  -6.801 -33.170  0.00  0.00    +0.000 C 
ATOM      4  C4  UNL     1      24.725  -7.174 -33.407  0.00  0.00    +0.000 C 
ATOM      5  C5  UNL     1      24.549  -8.708 -33.404  0.00  0.00    +0.000 C 
ATOM      6  C6  UNL     1      25.526  -9.369 -34.401  0.00  0.00    +0.000 C 
ATOM      7  H5  UNL     1      26.791  -7.088 -35.121  0.00  0.00    +0.000 HD
ENDROOT
BRANCH   4   8
ATOM      8  O2  UNL     1      23.898  -6.571 -32.443  0.00  0.00    +0.000 OA
ATOM      9  H9  UNL     1      22.982  -6.517 -32.823  0.00  0.00    +0.000 HD
ENDBRANCH   4   8
BRANCH   5  10
ATOM     10  O3  UNL     1      23.219  -9.058 -33.700  0.00  0.00    +0.000 OA
ATOM     11  H11 UNL     1      22.635  -8.624 -33.026  0.00  0.00    +0.000 HD
ENDBRANCH   5  10
BRANCH   6  12
ATOM     12  O4  UNL     1      25.423 -10.770 -34.334  0.00  0.00    +0.000 OA
ATOM     13  H13 UNL     1      25.790 -11.139 -35.180  0.00  0.00    +0.000 HD
ENDBRANCH   6  12
BRANCH   1  14
ATOM     14  C1  UNL     1      27.986  -9.522 -35.101  0.00  0.00    +0.000 C 
BRANCH  14  15
ATOM     15  O1  UNL     1      27.321 -10.151 -36.163  0.00  0.00    +0.000 OA
ATOM     16  H1  UNL     1      26.438  -9.704 -36.237  0.00  0.00    +0.000 HD
ENDBRANCH  14  15
ENDBRANCH   1  14
TORSDOF 5
ENDMDL
MODEL 2
REMARK VINA RESULT:    -4.028      2.050      2.675
REMARK INTER + INTRA:          -4.942
REMARK INTER:                  -4.707
REMARK INTRA:                  -0.235
REMARK UNBOUND:                -0.207
REMARK  Name = resultss/4CJN/ligands/lig_220_t0.pdb
REMARK  5 active torsions:
REMARK  status: ('A' for Active; 'I' for Inactive)
REMARK    1  A    between atoms: O1_1  and  C1_2
REMARK    2  A    between atoms: C1_2  and  C2_3
REMARK    3  A    between atoms: C4_6  and  O2_7
REMARK    4  A    between atoms: C5_8  and  O3_9
REMARK    5  A    between atoms: C6_10  and  O4_11
REMARK                            x       y       z     vdW  Elec       q    Type
REMARK                         _______ _______ _______ _____ _____    ______ ____
ROOT
ATOM      1  C2  UNL     1      25.260  -8.357 -34.993  0.00  0.00    +0.000 C 
ATOM      2  N1  UNL     1      24.209  -8.385 -36.028  0.00  0.00    +0.000 NA
ATOM      3  C3  UNL     1      23.375  -7.176 -35.971  0.00  0.00    +0.000 C 
ATOM      4  C4  UNL     1      22.674  -7.044 -34.605  0.00  0.00    +0.000 C 
ATOM      5  C5  UNL     1      23.712  -7.044 -33.463  0.00  0.00    +0.000 C 
ATOM      6  C6  UNL     1      24.638  -8.276 -33.572  0.00  0.00    +0.000 C 
ATOM      7  H5  UNL     1      23.593  -9.221 -35.881  0.00  0.00    +0.000 HD
ENDROOT
BRANCH   4   8
ATOM      8  O2  UNL     1      21.881  -5.883 -34.563  0.00  0.00    +0.000 OA
ATOM      9  H9  UNL     1      21.982  -5.418 -35.435  0.00  0.00    +0.000 HD
ENDBRANCH   4   8
BRANCH   5  10
ATOM     10  O3  UNL     1      23.076  -7.005 -32.210  0.00  0.00    +0.000 OA
ATOM     11  H11 UNL     1      23.692  -7.411 -31.546  0.00  0.00    +0.000 HD
ENDBRANCH   5  10
BRANCH   6  12
ATOM     12  O4  UNL     1      25.636  -8.229 -32.582  0.00  0.00    +0.000 OA
ATOM     13  H13 UNL     1      25.932  -9.161 -32.409  0.00  0.00    +0.000 HD
ENDBRANCH   6  12
BRANCH   1  14
ATOM     14  C1  UNL     1      26.179  -9.580 -35.150  0.00  0.00    +0.000 C 
BRANCH  14  15
ATOM     15  O1  UNL     1      25.691 -10.666 -34.411  0.00  0.00    +0.000 OA
ATOM     16  H1  UNL     1      24.831 -10.924 -34.834  0.00  0.00    +0.000 HD
ENDBRANCH  14  15
ENDBRANCH   1  14
TORSDOF 5
ENDMDL
MODEL 3
REMARK VINA RESULT:    -4.006      1.186      3.716
REMARK INTER + INTRA:          -4.916
REMARK INTER:                  -4.669
REMARK INTRA:                  -0.246
REMARK UNBOUND:                -0.207
REMARK  Name = resultss/4CJN/ligands/lig_220_t0.pdb
REMARK  5 active torsions:
REMARK  status: ('A' for Active; 'I' for Inactive)
REMARK    1  A    between atoms: O1_1  and  C1_2
REMARK    2  A    between atoms: C1_2  and  C2_3
REMARK    3  A    between atoms: C4_6  and  O2_7
REMARK    4  A    between atoms: C5_8  and  O3_9
REMARK    5  A    between atoms: C6_10  and  O4_11
REMARK                            x       y       z     vdW  Elec       q    Type
REMARK                         _______ _______ _______ _____ _____    ______ ____
ROOT
ATOM      1  C2  UNL     1      24.854  -7.036 -33.580  0.00  0.00    +0.000 C 
ATOM      2  N1  UNL     1      26.098  -6.785 -32.828  0.00  0.00    +0.000 NA
ATOM      3  C3  UNL     1      27.257  -7.391 -33.501  0.00  0.00    +0.000 C 
ATOM      4  C4  UNL     1      27.095  -8.918 -33.626  0.00  0.00    +0.000 C 
ATOM      5  C5  UNL     1      25.789  -9.262 -34.373  0.00  0.00    +0.000 C 
ATOM      6  C6  UNL     1      24.583  -8.560 -33.711  0.00  0.00    +0.000 C 
ATOM      7  H5  UNL     1      26.019  -7.197 -31.867  0.00  0.00    +0.000 HD
ENDROOT
BRANCH   4   8
ATOM      8  O2  UNL     1      28.208  -9.485 -34.272  0.00  0.00    +0.000 OA
ATOM      9  H9  UNL     1      27.910  -9.797 -35.167  0.00  0.00    +0.000 HD
ENDBRANCH   4   8
BRANCH   5  10
ATOM     10  O3  UNL     1      25.593 -10.654 -34.421  0.00  0.00    +0.000 OA
ATOM     11  H11 UNL     1      25.957 -11.040 -33.582  0.00  0.00    +0.000 HD
ENDBRANCH   5  10
BRANCH   6  12
ATOM     12  O4  UNL     1      23.407  -8.806 -34.444  0.00  0.00    +0.000 OA
ATOM     13  H13 UNL     1      22.895  -9.508 -33.963  0.00  0.00    +0.000 HD
ENDBRANCH   6  12
BRANCH   1  14
ATOM     14  C1  UNL     1      23.682  -6.299 -32.910  0.00  0.00    +0.000 C 
BRANCH  14  15
ATOM     15  O1  UNL     1      22.953  -7.168 -32.087  0.00  0.00    +0.000 OA
ATOM     16  H1  UNL     1      22.739  -6.654 -31.265  0.00  0.00    +0.000 HD
ENDBRANCH  14  15
ENDBRANCH   1  14
TORSDOF 5
ENDMDL
MODEL 4
REMARK VINA RESULT:    -3.876      1.729      3.774
REMARK INTER + INTRA:          -4.763
REMARK INTER:                  -4.526
REMARK INTRA:                  -0.237
REMARK UNBOUND:                -0.207
REMARK  Name = resultss/4CJN/ligands/lig_220_t0.pdb
REMARK  5 active torsions:
REMARK  status: ('A' for Active; 'I' for Inactive)
REMARK    1  A    between atoms: O1_1  and  C1_2
REMARK    2  A    between atoms: C1_2  and  C2_3
REMARK    3  A    between atoms: C4_6  and  O2_7
REMARK    4  A    between atoms: C5_8  and  O3_9
REMARK    5  A    between atoms: C6_10  and  O4_11
REMARK                            x       y       z     vdW  Elec       q    Type
REMARK                         _______ _______ _______ _____ _____    ______ ____
ROOT
ATOM      1  C2  UNL     1      27.413  -7.430 -33.418  0.00  0.00    +0.000 C 
ATOM      2  N1  UNL     1      28.722  -7.849 -33.954  0.00  0.00    +0.000 NA
ATOM      3  C3  UNL     1      28.576  -8.504 -35.262  0.00  0.00    +0.000 C 
ATOM      4  C4  UNL     1      27.694  -9.763 -35.162  0.00  0.00    +0.000 C 
ATOM      5  C5  UNL     1      26.312  -9.409 -34.571  0.00  0.00    +0.000 C 
ATOM      6  C6  UNL     1      26.470  -8.652 -33.235  0.00  0.00    +0.000 C 
ATOM      7  H5  UNL     1      29.173  -8.526 -33.292  0.00  0.00    +0.000 HD
ENDROOT
BRANCH   4   8
ATOM      8  O2  UNL     1      27.560 -10.379 -36.419  0.00  0.00    +0.000 OA
ATOM      9  H9  UNL     1      26.609 -10.645 -36.524  0.00  0.00    +0.000 HD
ENDBRANCH   4   8
BRANCH   5  10
ATOM     10  O3  UNL     1      25.530 -10.566 -34.401  0.00  0.00    +0.000 OA
ATOM     11  H11 UNL     1      26.050 -11.203 -33.845  0.00  0.00    +0.000 HD
ENDBRANCH   5  10
BRANCH   6  12
ATOM     12  O4  UNL     1      25.214  -8.255 -32.742  0.00  0.00    +0.000 OA
ATOM     13  H13 UNL     1      25.247  -7.275 -32.586  0.00  0.00    +0.000 HD
ENDBRANCH   6  12
BRANCH   1  14
ATOM     14  C1  UNL     1      27.611  -6.654 -32.105  0.00  0.00    +0.000 C 
BRANCH  14  15
ATOM     15  O1  UNL     1      27.603  -7.525 -31.007  0.00  0.00    +0.000 OA
ATOM     16  H1  UNL     1      27.610  -6.949 -30.199  0.00  0.00    +0.000 HD
ENDBRANCH  14  15
ENDBRANCH   1  14
TORSDOF 5
ENDMDL
MODEL 5
REMARK VINA RESULT:    -3.695      1.647      3.489
REMARK INTER + INTRA:          -4.551
REMARK INTER:                  -4.322
REMARK INTRA:                  -0.229
REMARK UNBOUND:                -0.207
REMARK  Name = resultss/4CJN/ligands/lig_220_t0.pdb
REMARK  5 active torsions:
REMARK  status: ('A' for Active; 'I' for Inactive)
REMARK    1  A    between atoms: O1_1  and  C1_2
REMARK    2  A    between atoms: C1_2  and  C2_3
REMARK    3  A    between atoms: C4_6  and  O2_7
REMARK    4  A    between atoms: C5_8  and  O3_9
REMARK    5  A    between atoms: C6_10  and  O4_11
REMARK                            x       y       z     vdW  Elec       q    Type
REMARK                         _______ _______ _______ _____ _____    ______ ____
ROOT
ATOM      1  C2  UNL     1      24.843  -8.270 -33.650  0.00  0.00    +0.000 C 
ATOM      2  N1  UNL     1      25.382  -7.142 -32.868  0.00  0.00    +0.000 NA
ATOM      3  C3  UNL     1      26.624  -6.628 -33.463  0.00  0.00    +0.000 C 
ATOM      4  C4  UNL     1      27.713  -7.717 -33.512  0.00  0.00    +0.000 C 
ATOM      5  C5  UNL     1      27.207  -8.952 -34.287  0.00  0.00    +0.000 C 
ATOM      6  C6  UNL     1      25.861  -9.442 -33.709  0.00  0.00    +0.000 C 
ATOM      7  H5  UNL     1      25.589  -7.459 -31.890  0.00  0.00    +0.000 HD
ENDROOT
BRANCH   4   8
ATOM      8  O2  UNL     1      28.895  -7.214 -34.084  0.00  0.00    +0.000 OA
ATOM      9  H9  UNL     1      29.199  -6.451 -33.524  0.00  0.00    +0.000 HD
ENDBRANCH   4   8
BRANCH   5  10
ATOM     10  O3  UNL     1      28.165  -9.982 -34.267  0.00  0.00    +0.000 OA
ATOM     11  H11 UNL     1      29.042  -9.574 -34.044  0.00  0.00    +0.000 HD
ENDBRANCH   5  10
BRANCH   6  12
ATOM     12  O4  UNL     1      25.360 -10.514 -34.471  0.00  0.00    +0.000 OA
ATOM     13  H13 UNL     1      25.708 -10.414 -35.395  0.00  0.00    +0.000 HD
ENDBRANCH   6  12
BRANCH   1  14
ATOM     14  C1  UNL     1      23.491  -8.712 -33.066  0.00  0.00    +0.000 C 
BRANCH  14  15
ATOM     15  O1  UNL     1      22.639  -9.175 -34.078  0.00  0.00    +0.000 OA
ATOM     16  H1  UNL     1      23.211  -9.314 -34.877  0.00  0.00    +0.000 HD
ENDBRANCH  14  15
ENDBRANCH   1  14
TORSDOF 5
ENDMDL
MODEL 6
REMARK VINA RESULT:    -3.688     12.815     13.699
REMARK INTER + INTRA:          -4.542
REMARK INTER:                  -4.312
REMARK INTRA:                  -0.230
REMARK UNBOUND:                -0.207
REMARK  Name = resultss/4CJN/ligands/lig_220_t0.pdb
REMARK  5 active torsions:
REMARK  status: ('A' for Active; 'I' for Inactive)
REMARK    1  A    between atoms: O1_1  and  C1_2
REMARK    2  A    between atoms: C1_2  and  C2_3
REMARK    3  A    between atoms: C4_6  and  O2_7
REMARK    4  A    between atoms: C5_8  and  O3_9
REMARK    5  A    between atoms: C6_10  and  O4_11
REMARK                            x       y       z     vdW  Elec       q    Type
REMARK                         _______ _______ _______ _____ _____    ______ ____
ROOT
ATOM      1  C2  UNL     1      20.762  -6.732 -46.480  0.00  0.00    +0.000 C 
ATOM      2  N1  UNL     1      21.104  -7.105 -45.094  0.00  0.00    +0.000 NA
ATOM      3  C3  UNL     1      22.501  -6.765 -44.782  0.00  0.00    +0.000 C 
ATOM      4  C4  UNL     1      23.478  -7.506 -45.715  0.00  0.00    +0.000 C 
ATOM      5  C5  UNL     1      23.158  -7.193 -47.192  0.00  0.00    +0.000 C 
ATOM      6  C6  UNL     1      21.670  -7.477 -47.497  0.00  0.00    +0.000 C 
ATOM      7  H5  UNL     1      20.977  -8.137 -44.966  0.00  0.00    +0.000 HD
ENDROOT
BRANCH   4   8
ATOM      8  O2  UNL     1      24.809  -7.172 -45.407  0.00  0.00    +0.000 OA
ATOM      9  H9  UNL     1      24.851  -6.965 -44.437  0.00  0.00    +0.000 HD
ENDBRANCH   4   8
BRANCH   5  10
ATOM     10  O3  UNL     1      23.993  -7.929 -48.051  0.00  0.00    +0.000 OA
ATOM     11  H11 UNL     1      24.918  -7.871 -47.696  0.00  0.00    +0.000 HD
ENDBRANCH   5  10
BRANCH   6  12
ATOM     12  O4  UNL     1      21.360  -7.110 -48.819  0.00  0.00    +0.000 OA
ATOM     13  H13 UNL     1      20.592  -6.483 -48.785  0.00  0.00    +0.000 HD
ENDBRANCH   6  12
BRANCH   1  14
ATOM     14  C1  UNL     1      19.269  -6.999 -46.738  0.00  0.00    +0.000 C 
BRANCH  14  15
ATOM     15  O1  UNL     1      19.067  -8.318 -47.166  0.00  0.00    +0.000 OA
ATOM     16  H1  UNL     1      19.707  -8.876 -46.651  0.00  0.00    +0.000 HD
ENDBRANCH  14  15
ENDBRANCH   1  14
TORSDOF 5
ENDMDL
MODEL 7
REMARK VINA RESULT:    -3.583      6.154      7.635
REMARK INTER + INTRA:          -4.419
REMARK INTER:                  -4.181
REMARK INTRA:                  -0.239
REMARK UNBOUND:                -0.207
REMARK  Name = resultss/4CJN/ligands/lig_220_t0.pdb
REMARK  5 active torsions:
REMARK  status: ('A' for Active; 'I' for Inactive)
REMARK    1  A    between atoms: O1_1  and  C1_2
REMARK    2  A    between atoms: C1_2  and  C2_3
REMARK    3  A    between atoms: C4_6  and  O2_7
REMARK    4  A    between atoms: C5_8  and  O3_9
REMARK    5  A    between atoms: C6_10  and  O4_11
REMARK                            x       y       z     vdW  Elec       q    Type
REMARK                         _______ _______ _______ _____ _____    ______ ____
ROOT
ATOM      1  C2  UNL     1      25.780  -9.766 -41.885  0.00  0.00    +0.000 C 
ATOM      2  N1  UNL     1      27.149  -9.519 -42.376  0.00  0.00    +0.000 NA
ATOM      3  C3  UNL     1      28.148 -10.152 -41.502  0.00  0.00    +0.000 C 
ATOM      4  C4  UNL     1      28.066  -9.599 -40.066  0.00  0.00    +0.000 C 
ATOM      5  C5  UNL     1      26.644  -9.789 -39.495  0.00  0.00    +0.000 C 
ATOM      6  C6  UNL     1      25.590  -9.192 -40.454  0.00  0.00    +0.000 C 
ATOM      7  H5  UNL     1      27.334  -8.487 -42.399  0.00  0.00    +0.000 HD
ENDROOT
BRANCH   4   8
ATOM      8  O2  UNL     1      29.025 -10.213 -39.241  0.00  0.00    +0.000 OA
ATOM      9  H9  UNL     1      29.524  -9.492 -38.772  0.00  0.00    +0.000 HD
ENDBRANCH   4   8
BRANCH   5  10
ATOM     10  O3  UNL     1      26.539  -9.214 -38.216  0.00  0.00    +0.000 OA
ATOM     11  H11 UNL     1      26.705  -9.930 -37.549  0.00  0.00    +0.000 HD
ENDBRANCH   5  10
BRANCH   6  12
ATOM     12  O4  UNL     1      24.292  -9.441 -39.974  0.00  0.00    +0.000 OA
ATOM     13  H13 UNL     1      24.132  -8.832 -39.206  0.00  0.00    +0.000 HD
ENDBRANCH   6  12
BRANCH   1  14
ATOM     14  C1  UNL     1      24.758  -9.186 -42.878  0.00  0.00    +0.000 C 
BRANCH  14  15
ATOM     15  O1  UNL     1      23.562  -9.917 -42.845  0.00  0.00    +0.000 OA
ATOM     16  H1  UNL     1      23.694 -10.630 -42.166  0.00  0.00    +0.000 HD
ENDBRANCH  14  15
ENDBRANCH   1  14
TORSDOF 5
ENDMDL
MODEL 8
REMARK VINA RESULT:    -3.429      2.442      3.943
REMARK INTER + INTRA:          -4.238
REMARK INTER:                  -4.009
REMARK INTRA:                  -0.229
REMARK UNBOUND:                -0.207
REMARK  Name = resultss/4CJN/ligands/lig_220_t0.pdb
REMARK  5 active torsions:
REMARK  status: ('A' for Active; 'I' for Inactive)
REMARK    1  A    between atoms: O1_1  and  C1_2
REMARK    2  A    between atoms: C1_2  and  C2_3
REMARK    3  A    between atoms: C4_6  and  O2_7
REMARK    4  A    between atoms: C5_8  and  O3_9
REMARK    5  A    between atoms: C6_10  and  O4_11
REMARK                            x       y       z     vdW  Elec       q    Type
REMARK                         _______ _______ _______ _____ _____    ______ ____
ROOT
ATOM      1  C2  UNL     1      26.639  -8.607 -33.943  0.00  0.00    +0.000 C 
ATOM      2  N1  UNL     1      26.640  -8.101 -32.557  0.00  0.00    +0.000 NA
ATOM      3  C3  UNL     1      27.881  -7.371 -32.258  0.00  0.00    +0.000 C 
ATOM      4  C4  UNL     1      29.116  -8.278 -32.420  0.00  0.00    +0.000 C 
ATOM      5  C5  UNL     1      29.164  -8.877 -33.842  0.00  0.00    +0.000 C 
ATOM      6  C6  UNL     1      27.829  -9.576 -34.182  0.00  0.00    +0.000 C 
ATOM      7  H5  UNL     1      26.559  -8.905 -31.889  0.00  0.00    +0.000 HD
ENDROOT
BRANCH   4   8
ATOM      8  O2  UNL     1      30.296  -7.568 -32.133  0.00  0.00    +0.000 OA
ATOM      9  H9  UNL     1      30.944  -7.755 -32.863  0.00  0.00    +0.000 HD
ENDBRANCH   4   8
BRANCH   5  10
ATOM     10  O3  UNL     1      30.243  -9.770 -33.972  0.00  0.00    +0.000 OA
ATOM     11  H11 UNL     1      29.939 -10.660 -33.654  0.00  0.00    +0.000 HD
ENDBRANCH   5  10
BRANCH   6  12
ATOM     12  O4  UNL     1      27.844 -10.046 -35.508  0.00  0.00    +0.000 OA
ATOM     13  H13 UNL     1      27.751  -9.260 -36.107  0.00  0.00    +0.000 HD
ENDBRANCH   6  12
BRANCH   1  14
ATOM     14  C1  UNL     1      25.286  -9.268 -34.256  0.00  0.00    +0.000 C 
BRANCH  14  15
ATOM     15  O1  UNL     1      25.414 -10.663 -34.304  0.00  0.00    +0.000 OA
ATOM     16  H1  UNL     1      25.767 -10.938 -33.418  0.00  0.00    +0.000 HD
ENDBRANCH  14  15
ENDBRANCH   1  14
TORSDOF 5
ENDMDL
MODEL 9
REMARK VINA RESULT:    -3.380     10.865     11.698
REMARK INTER + INTRA:          -4.180
REMARK INTER:                  -3.937
REMARK INTRA:                  -0.243
REMARK UNBOUND:                -0.207
REMARK  Name = resultss/4CJN/ligands/lig_220_t0.pdb
REMARK  5 active torsions:
REMARK  status: ('A' for Active; 'I' for Inactive)
REMARK    1  A    between atoms: O1_1  and  C1_2
REMARK    2  A    between atoms: C1_2  and  C2_3
REMARK    3  A    between atoms: C4_6  and  O2_7
REMARK    4  A    between atoms: C5_8  and  O3_9
REMARK    5  A    between atoms: C6_10  and  O4_11
REMARK                            x       y       z     vdW  Elec       q    Type
REMARK                         _______ _______ _______ _____ _____    ______ ____
ROOT
ATOM      1  C2  UNL     1      22.974  -6.985 -46.022  0.00  0.00    +0.000 C 
ATOM      2  N1  UNL     1      22.096  -7.446 -44.930  0.00  0.00    +0.000 NA
ATOM      3  C3  UNL     1      22.515  -6.885 -43.637  0.00  0.00    +0.000 C 
ATOM      4  C4  UNL     1      23.953  -7.311 -43.283  0.00  0.00    +0.000 C 
ATOM      5  C5  UNL     1      24.931  -6.894 -44.402  0.00  0.00    +0.000 C 
ATOM      6  C6  UNL     1      24.445  -7.418 -45.772  0.00  0.00    +0.000 C 
ATOM      7  H5  UNL     1      22.133  -8.492 -44.866  0.00  0.00    +0.000 HD
ENDROOT
BRANCH   4   8
ATOM      8  O2  UNL     1      24.343  -6.768 -42.046  0.00  0.00    +0.000 OA
ATOM      9  H9  UNL     1      24.342  -5.779 -42.139  0.00  0.00    +0.000 HD
ENDBRANCH   4   8
BRANCH   5  10
ATOM     10  O3  UNL     1      26.232  -7.350 -44.125  0.00  0.00    +0.000 OA
ATOM     11  H11 UNL     1      26.870  -6.686 -44.495  0.00  0.00    +0.000 HD
ENDBRANCH   5  10
BRANCH   6  12
ATOM     12  O4  UNL     1      25.291  -6.964 -46.800  0.00  0.00    +0.000 OA
ATOM     13  H13 UNL     1      24.959  -7.347 -47.654  0.00  0.00    +0.000 HD
ENDBRANCH   6  12
BRANCH   1  14
ATOM     14  C1  UNL     1      22.444  -7.500 -47.371  0.00  0.00    +0.000 C 
BRANCH  14  15
ATOM     15  O1  UNL     1      23.177  -8.614 -47.800  0.00  0.00    +0.000 OA
ATOM     16  H1  UNL     1      24.014  -8.616 -47.266  0.00  0.00    +0.000 HD
ENDBRANCH  14  15
ENDBRANCH   1  14
TORSDOF 5
ENDMDL
