MODEL 1
REMARK VINA RESULT:    -7.088      0.000      0.000
REMARK INTER + INTRA:         -11.102
REMARK INTER:                  -8.953
REMARK INTRA:                  -2.149
REMARK UNBOUND:                -2.149
REMARK  Name = resultss/4CJN/ligands/lig_416_t1.pdb
REMARK  6 active torsions:
REMARK  status: ('A' for Active; 'I' for Inactive)
REMARK    1  A    between atoms: C1_1  and  C2_2
REMARK    2  A    between atoms: C7_7  and  N1_8
REMARK    3  A    between atoms: C8_9  and  S1_10
REMARK    4  A    between atoms: N2_11  and  N3_12
REMARK    5  A    between atoms: C9_13  and  C10_15
REMARK    6  A    between atoms: C20_26  and  C21_27
REMARK                            x       y       z     vdW  Elec       q    Type
REMARK                         _______ _______ _______ _____ _____    ______ ____
ROOT
ATOM      1  C10 UNL     1      28.188  -9.654 -37.271  0.00  0.00    +0.000 A 
ATOM      2  C11 UNL     1      27.354  -9.459 -36.152  0.00  0.00    +0.000 A 
ATOM      3  C12 UNL     1      26.070  -8.988 -36.391  0.00  0.00    +0.000 A 
ATOM      4  C13 UNL     1      25.605  -8.742 -37.663  0.00  0.00    +0.000 A 
ATOM      5  N4  UNL     1      24.362  -8.204 -37.637  0.00  0.00    +0.000 N 
ATOM      6  C14 UNL     1      24.044  -8.132 -36.326  0.00  0.00    +0.000 A 
ATOM      7  C15 UNL     1      22.870  -7.625 -35.770  0.00  0.00    +0.000 A 
ATOM      8  C16 UNL     1      22.756  -7.613 -34.368  0.00  0.00    +0.000 A 
ATOM      9  C17 UNL     1      23.809  -8.096 -33.557  0.00  0.00    +0.000 A 
ATOM     10  C18 UNL     1      24.988  -8.596 -34.140  0.00  0.00    +0.000 A 
ATOM     11  C19 UNL     1      25.067  -8.604 -35.531  0.00  0.00    +0.000 A 
ATOM     12  C20 UNL     1      26.430  -8.978 -38.772  0.00  0.00    +0.000 A 
ATOM     13  N5  UNL     1      27.705  -9.407 -38.531  0.00  0.00    +0.000 NA
ATOM     14  H12 UNL     1      23.783  -7.866 -38.437  0.00  0.00    +0.000 HD
ENDROOT
BRANCH  12  15
ATOM     15  C21 UNL     1      25.986  -8.767 -40.168  0.00  0.00    +0.000 A 
ATOM     16  C22 UNL     1      25.625  -9.869 -40.960  0.00  0.00    +0.000 A 
ATOM     17  C23 UNL     1      25.184  -9.681 -42.274  0.00  0.00    +0.000 A 
ATOM     18  C24 UNL     1      25.083  -8.392 -42.801  0.00  0.00    +0.000 A 
ATOM     19  C25 UNL     1      25.412  -7.287 -42.012  0.00  0.00    +0.000 A 
ATOM     20  C26 UNL     1      25.853  -7.470 -40.698  0.00  0.00    +0.000 A 
ENDBRANCH  12  15
BRANCH   1  22
ATOM     21  N3  UNL     1      30.418 -10.318 -38.243  0.00  0.00    +0.000 N 
ATOM     22  C9  UNL     1      29.604 -10.027 -37.097  0.00  0.00    +0.000 C 
ATOM     23  O1  UNL     1      30.118 -10.046 -35.946  0.00  0.00    +0.000 OA
ATOM     24  H10 UNL     1      29.983 -10.779 -39.071  0.00  0.00    +0.000 HD
BRANCH  21  27
ATOM     25  N1  UNL     1      31.913  -8.370 -40.025  0.00  0.00    +0.000 NA
ATOM     26  C8  UNL     1      32.333  -8.836 -38.882  0.00  0.00    +0.000 C 
ATOM     27  N2  UNL     1      31.795 -10.027 -38.282  0.00  0.00    +0.000 N 
ATOM     28  H9  UNL     1      32.457 -10.686 -37.816  0.00  0.00    +0.000 HD
BRANCH  25  35
ATOM     29  C1  UNL     1      29.451  -7.006 -40.681  0.00  0.00    +0.000 C 
ATOM     30  C2  UNL     1      29.786  -8.347 -41.271  0.00  0.00    +0.000 A 
ATOM     31  C3  UNL     1      28.877  -8.978 -42.138  0.00  0.00    +0.000 A 
ATOM     32  C4  UNL     1      29.176 -10.227 -42.688  0.00  0.00    +0.000 A 
ATOM     33  C5  UNL     1      30.387 -10.852 -42.388  0.00  0.00    +0.000 A 
ATOM     34  C6  UNL     1      31.291 -10.243 -41.514  0.00  0.00    +0.000 A 
ATOM     35  C7  UNL     1      30.988  -9.002 -40.927  0.00  0.00    +0.000 A 
ENDBRANCH  25  35
BRANCH  26  36
ATOM     36  S1  UNL     1      33.621  -7.947 -38.021  0.00  0.00    +0.000 S 
ATOM     37  H8  UNL     1      34.524  -8.123 -39.086  0.00  0.00    +0.000 HD
ENDBRANCH  26  36
ENDBRANCH  21  27
ENDBRANCH   1  22
TORSDOF 5
ENDMDL
MODEL 2
REMARK VINA RESULT:    -6.553      3.371      6.519
REMARK INTER + INTRA:         -10.426
REMARK INTER:                  -8.603
REMARK INTRA:                  -1.823
REMARK UNBOUND:                -2.149
REMARK  Name = resultss/4CJN/ligands/lig_416_t1.pdb
REMARK  6 active torsions:
REMARK  status: ('A' for Active; 'I' for Inactive)
REMARK    1  A    between atoms: C1_1  and  C2_2
REMARK    2  A    between atoms: C7_7  and  N1_8
REMARK    3  A    between atoms: C8_9  and  S1_10
REMARK    4  A    between atoms: N2_11  and  N3_12
REMARK    5  A    between atoms: C9_13  and  C10_15
REMARK    6  A    between atoms: C20_26  and  C21_27
REMARK                            x       y       z     vdW  Elec       q    Type
REMARK                         _______ _______ _______ _____ _____    ______ ____
ROOT
ATOM      1  C10 UNL     1      26.322  -9.646 -40.836  0.00  0.00    +0.000 A 
ATOM      2  C11 UNL     1      26.194  -9.434 -39.448  0.00  0.00    +0.000 A 
ATOM      3  C12 UNL     1      27.331  -9.613 -38.671  0.00  0.00    +0.000 A 
ATOM      4  C13 UNL     1      28.547  -9.955 -39.219  0.00  0.00    +0.000 A 
ATOM      5  N4  UNL     1      29.479 -10.161 -38.258  0.00  0.00    +0.000 N 
ATOM      6  C14 UNL     1      28.834  -9.925 -37.094  0.00  0.00    +0.000 A 
ATOM      7  C15 UNL     1      29.357 -10.027 -35.806  0.00  0.00    +0.000 A 
ATOM      8  C16 UNL     1      28.496  -9.767 -34.724  0.00  0.00    +0.000 A 
ATOM      9  C17 UNL     1      27.143  -9.422 -34.947  0.00  0.00    +0.000 A 
ATOM     10  C18 UNL     1      26.636  -9.333 -36.257  0.00  0.00    +0.000 A 
ATOM     11  C19 UNL     1      27.515  -9.586 -37.308  0.00  0.00    +0.000 A 
ATOM     12  C20 UNL     1      28.672 -10.123 -40.605  0.00  0.00    +0.000 A 
ATOM     13  N5  UNL     1      27.543  -9.983 -41.363  0.00  0.00    +0.000 NA
ATOM     14  H12 UNL     1      30.466 -10.481 -38.368  0.00  0.00    +0.000 HD
ENDROOT
BRANCH  12  15
ATOM     15  C21 UNL     1      29.953 -10.459 -41.265  0.00  0.00    +0.000 A 
ATOM     16  C22 UNL     1      30.000 -11.492 -42.215  0.00  0.00    +0.000 A 
ATOM     17  C23 UNL     1      31.200 -11.806 -42.861  0.00  0.00    +0.000 A 
ATOM     18  C24 UNL     1      32.358 -11.078 -42.577  0.00  0.00    +0.000 A 
ATOM     19  C25 UNL     1      32.316 -10.030 -41.655  0.00  0.00    +0.000 A 
ATOM     20  C26 UNL     1      31.118  -9.714 -41.007  0.00  0.00    +0.000 A 
ENDBRANCH  12  15
BRANCH   1  22
ATOM     21  N3  UNL     1      23.901  -9.065 -41.230  0.00  0.00    +0.000 N 
ATOM     22  C9  UNL     1      25.139  -9.605 -41.714  0.00  0.00    +0.000 C 
ATOM     23  O1  UNL     1      25.222 -10.000 -42.909  0.00  0.00    +0.000 OA
ATOM     24  H10 UNL     1      23.648  -9.195 -40.226  0.00  0.00    +0.000 HD
BRANCH  21  27
ATOM     25  N1  UNL     1      23.969  -6.186 -42.185  0.00  0.00    +0.000 NA
ATOM     26  C8  UNL     1      23.321  -7.164 -42.754  0.00  0.00    +0.000 C 
ATOM     27  N2  UNL     1      22.996  -8.385 -42.067  0.00  0.00    +0.000 N 
ATOM     28  H9  UNL     1      22.056  -8.808 -42.233  0.00  0.00    +0.000 HD
BRANCH  25  35
ATOM     29  C1  UNL     1      26.771  -6.111 -41.479  0.00  0.00    +0.000 C 
ATOM     30  C2  UNL     1      25.696  -6.032 -40.432  0.00  0.00    +0.000 A 
ATOM     31  C3  UNL     1      26.046  -5.952 -39.073  0.00  0.00    +0.000 A 
ATOM     32  C4  UNL     1      25.055  -5.883 -38.091  0.00  0.00    +0.000 A 
ATOM     33  C5  UNL     1      23.708  -5.883 -38.456  0.00  0.00    +0.000 A 
ATOM     34  C6  UNL     1      23.347  -5.980 -39.801  0.00  0.00    +0.000 A 
ATOM     35  C7  UNL     1      24.334  -6.084 -40.797  0.00  0.00    +0.000 A 
ENDBRANCH  25  35
BRANCH  26  36
ATOM     36  S1  UNL     1      22.830  -6.982 -44.461  0.00  0.00    +0.000 S 
ATOM     37  H8  UNL     1      22.301  -8.285 -44.501  0.00  0.00    +0.000 HD
ENDBRANCH  26  36
ENDBRANCH  21  27
ENDBRANCH   1  22
TORSDOF 5
ENDMDL
MODEL 3
REMARK VINA RESULT:    -6.169      2.723      3.785
REMARK INTER + INTRA:          -9.942
REMARK INTER:                  -7.768
REMARK INTRA:                  -2.173
REMARK UNBOUND:                -2.149
REMARK  Name = resultss/4CJN/ligands/lig_416_t1.pdb
REMARK  6 active torsions:
REMARK  status: ('A' for Active; 'I' for Inactive)
REMARK    1  A    between atoms: C1_1  and  C2_2
REMARK    2  A    between atoms: C7_7  and  N1_8
REMARK    3  A    between atoms: C8_9  and  S1_10
REMARK    4  A    between atoms: N2_11  and  N3_12
REMARK    5  A    between atoms: C9_13  and  C10_15
REMARK    6  A    between atoms: C20_26  and  C21_27
REMARK                            x       y       z     vdW  Elec       q    Type
REMARK                         _______ _______ _______ _____ _____    ______ ____
ROOT
ATOM      1  C10 UNL     1      28.518  -9.619 -34.829  0.00  0.00    +0.000 A 
ATOM      2  C11 UNL     1      27.357  -9.238 -34.125  0.00  0.00    +0.000 A 
ATOM      3  C12 UNL     1      26.222  -8.960 -34.876  0.00  0.00    +0.000 A 
ATOM      4  C13 UNL     1      26.205  -9.071 -36.248  0.00  0.00    +0.000 A 
ATOM      5  N4  UNL     1      25.020  -8.660 -36.760  0.00  0.00    +0.000 N 
ATOM      6  C14 UNL     1      24.283  -8.304 -35.685  0.00  0.00    +0.000 A 
ATOM      7  C15 UNL     1      22.988  -7.790 -35.685  0.00  0.00    +0.000 A 
ATOM      8  C16 UNL     1      22.413  -7.451 -34.446  0.00  0.00    +0.000 A 
ATOM      9  C17 UNL     1      23.140  -7.625 -33.245  0.00  0.00    +0.000 A 
ATOM     10  C18 UNL     1      24.449  -8.139 -33.271  0.00  0.00    +0.000 A 
ATOM     11  C19 UNL     1      24.987  -8.474 -34.512  0.00  0.00    +0.000 A 
ATOM     12  C20 UNL     1      27.354  -9.489 -36.935  0.00  0.00    +0.000 A 
ATOM     13  N5  UNL     1      28.480  -9.728 -36.196  0.00  0.00    +0.000 NA
ATOM     14  H12 UNL     1      24.739  -8.580 -37.762  0.00  0.00    +0.000 HD
ENDROOT
BRANCH  12  15
ATOM     15  C21 UNL     1      27.398  -9.662 -38.403  0.00  0.00    +0.000 A 
ATOM     16  C22 UNL     1      27.217  -8.551 -39.243  0.00  0.00    +0.000 A 
ATOM     17  C23 UNL     1      27.277  -8.698 -40.633  0.00  0.00    +0.000 A 
ATOM     18  C24 UNL     1      27.536  -9.951 -41.194  0.00  0.00    +0.000 A 
ATOM     19  C25 UNL     1      27.745 -11.056 -40.367  0.00  0.00    +0.000 A 
ATOM     20  C26 UNL     1      27.686 -10.914 -38.977  0.00  0.00    +0.000 A 
ENDBRANCH  12  15
BRANCH   1  22
ATOM     21  N3  UNL     1      31.038  -9.658 -34.827  0.00  0.00    +0.000 N 
ATOM     22  C9  UNL     1      29.797  -9.806 -34.122  0.00  0.00    +0.000 C 
ATOM     23  O1  UNL     1      29.808 -10.050 -32.885  0.00  0.00    +0.000 OA
ATOM     24  H10 UNL     1      31.091  -9.945 -35.829  0.00  0.00    +0.000 HD
BRANCH  21  27
ATOM     25  N1  UNL     1      31.920  -6.782 -34.433  0.00  0.00    +0.000 NA
ATOM     26  C8  UNL     1      32.332  -7.808 -33.742  0.00  0.00    +0.000 C 
ATOM     27  N2  UNL     1      32.202  -9.162 -34.209  0.00  0.00    +0.000 N 
ATOM     28  H9  UNL     1      32.996  -9.820 -34.041  0.00  0.00    +0.000 HD
BRANCH  25  35
ATOM     29  C1  UNL     1      29.159  -6.068 -34.903  0.00  0.00    +0.000 C 
ATOM     30  C2  UNL     1      30.078  -6.436 -36.034  0.00  0.00    +0.000 A 
ATOM     31  C3  UNL     1      29.589  -6.467 -37.351  0.00  0.00    +0.000 A 
ATOM     32  C4  UNL     1      30.432  -6.812 -38.410  0.00  0.00    +0.000 A 
ATOM     33  C5  UNL     1      31.772  -7.117 -38.166  0.00  0.00    +0.000 A 
ATOM     34  C6  UNL     1      32.266  -7.106 -36.860  0.00  0.00    +0.000 A 
ATOM     35  C7  UNL     1      31.419  -6.793 -35.781  0.00  0.00    +0.000 A 
ENDBRANCH  25  35
BRANCH  26  36
ATOM     36  S1  UNL     1      33.076  -7.517 -32.145  0.00  0.00    +0.000 S 
ATOM     37  H8  UNL     1      32.626  -6.184 -32.122  0.00  0.00    +0.000 HD
ENDBRANCH  26  36
ENDBRANCH  21  27
ENDBRANCH   1  22
TORSDOF 5
ENDMDL
MODEL 4
REMARK VINA RESULT:    -6.089      3.312      6.406
REMARK INTER + INTRA:          -9.840
REMARK INTER:                  -8.404
REMARK INTRA:                  -1.436
REMARK UNBOUND:                -2.149
REMARK  Name = resultss/4CJN/ligands/lig_416_t1.pdb
REMARK  6 active torsions:
REMARK  status: ('A' for Active; 'I' for Inactive)
REMARK    1  A    between atoms: C1_1  and  C2_2
REMARK    2  A    between atoms: C7_7  and  N1_8
REMARK    3  A    between atoms: C8_9  and  S1_10
REMARK    4  A    between atoms: N2_11  and  N3_12
REMARK    5  A    between atoms: C9_13  and  C10_15
REMARK    6  A    between atoms: C20_26  and  C21_27
REMARK                            x       y       z     vdW  Elec       q    Type
REMARK                         _______ _______ _______ _____ _____    ______ ____
ROOT
ATOM      1  C10 UNL     1      25.671  -7.244 -38.983  0.00  0.00    +0.000 A 
ATOM      2  C11 UNL     1      27.010  -7.670 -39.099  0.00  0.00    +0.000 A 
ATOM      3  C12 UNL     1      27.582  -8.275 -37.987  0.00  0.00    +0.000 A 
ATOM      4  C13 UNL     1      26.878  -8.481 -36.821  0.00  0.00    +0.000 A 
ATOM      5  N4  UNL     1      27.672  -9.001 -35.854  0.00  0.00    +0.000 N 
ATOM      6  C14 UNL     1      28.883  -9.135 -36.435  0.00  0.00    +0.000 A 
ATOM      7  C15 UNL     1      30.054  -9.609 -35.844  0.00  0.00    +0.000 A 
ATOM      8  C16 UNL     1      31.223  -9.635 -36.625  0.00  0.00    +0.000 A 
ATOM      9  C17 UNL     1      31.202  -9.185 -37.966  0.00  0.00    +0.000 A 
ATOM     10  C18 UNL     1      30.011  -8.705 -38.540  0.00  0.00    +0.000 A 
ATOM     11  C19 UNL     1      28.867  -8.700 -37.744  0.00  0.00    +0.000 A 
ATOM     12  C20 UNL     1      25.535  -8.089 -36.732  0.00  0.00    +0.000 A 
ATOM     13  N5  UNL     1      24.986  -7.462 -37.815  0.00  0.00    +0.000 NA
ATOM     14  H12 UNL     1      27.431  -9.209 -34.860  0.00  0.00    +0.000 HD
ENDROOT
BRANCH  12  15
ATOM     15  C21 UNL     1      24.710  -8.309 -35.523  0.00  0.00    +0.000 A 
ATOM     16  C22 UNL     1      23.355  -7.937 -35.526  0.00  0.00    +0.000 A 
ATOM     17  C23 UNL     1      22.559  -8.158 -34.397  0.00  0.00    +0.000 A 
ATOM     18  C24 UNL     1      23.104  -8.769 -33.265  0.00  0.00    +0.000 A 
ATOM     19  C25 UNL     1      24.442  -9.168 -33.263  0.00  0.00    +0.000 A 
ATOM     20  C26 UNL     1      25.242  -8.948 -34.388  0.00  0.00    +0.000 A 
ENDBRANCH  12  15
BRANCH   1  22
ATOM     21  N3  UNL     1      25.666  -6.376 -41.350  0.00  0.00    +0.000 N 
ATOM     22  C9  UNL     1      25.030  -6.478 -40.068  0.00  0.00    +0.000 C 
ATOM     23  O1  UNL     1      23.899  -5.951 -39.889  0.00  0.00    +0.000 OA
ATOM     24  H10 UNL     1      26.708  -6.341 -41.399  0.00  0.00    +0.000 HD
BRANCH  21  27
ATOM     25  N1  UNL     1      25.027  -8.560 -43.356  0.00  0.00    +0.000 NA
ATOM     26  C8  UNL     1      24.375  -7.439 -43.213  0.00  0.00    +0.000 C 
ATOM     27  N2  UNL     1      24.935  -6.294 -42.550  0.00  0.00    +0.000 N 
ATOM     28  H9  UNL     1      24.752  -5.350 -42.958  0.00  0.00    +0.000 HD
BRANCH  25  35
ATOM     29  C1  UNL     1      25.648 -10.362 -41.183  0.00  0.00    +0.000 C 
ATOM     30  C2  UNL     1      26.731  -9.691 -41.980  0.00  0.00    +0.000 A 
ATOM     31  C3  UNL     1      28.080  -9.910 -41.652  0.00  0.00    +0.000 A 
ATOM     32  C4  UNL     1      29.095  -9.288 -42.382  0.00  0.00    +0.000 A 
ATOM     33  C5  UNL     1      28.775  -8.451 -43.452  0.00  0.00    +0.000 A 
ATOM     34  C6  UNL     1      27.438  -8.211 -43.777  0.00  0.00    +0.000 A 
ATOM     35  C7  UNL     1      26.406  -8.804 -43.029  0.00  0.00    +0.000 A 
ENDBRANCH  25  35
BRANCH  26  36
ATOM     36  S1  UNL     1      22.713  -7.333 -43.857  0.00  0.00    +0.000 S 
ATOM     37  H8  UNL     1      22.310  -6.475 -42.816  0.00  0.00    +0.000 HD
ENDBRANCH  26  36
ENDBRANCH  21  27
ENDBRANCH   1  22
TORSDOF 5
ENDMDL
MODEL 5
REMARK VINA RESULT:    -6.078      2.814      6.708
REMARK INTER + INTRA:          -9.826
REMARK INTER:                  -8.665
REMARK INTRA:                  -1.161
REMARK UNBOUND:                -2.149
REMARK  Name = resultss/4CJN/ligands/lig_416_t1.pdb
REMARK  6 active torsions:
REMARK  status: ('A' for Active; 'I' for Inactive)
REMARK    1  A    between atoms: C1_1  and  C2_2
REMARK    2  A    between atoms: C7_7  and  N1_8
REMARK    3  A    between atoms: C8_9  and  S1_10
REMARK    4  A    between atoms: N2_11  and  N3_12
REMARK    5  A    between atoms: C9_13  and  C10_15
REMARK    6  A    between atoms: C20_26  and  C21_27
REMARK                            x       y       z     vdW  Elec       q    Type
REMARK                         _______ _______ _______ _____ _____    ______ ____
ROOT
ATOM      1  C10 UNL     1      27.428  -9.699 -38.941  0.00  0.00    +0.000 A 
ATOM      2  C11 UNL     1      26.422  -9.057 -39.691  0.00  0.00    +0.000 A 
ATOM      3  C12 UNL     1      26.696  -8.796 -41.028  0.00  0.00    +0.000 A 
ATOM      4  C13 UNL     1      27.883  -9.166 -41.619  0.00  0.00    +0.000 A 
ATOM      5  N4  UNL     1      27.955  -8.725 -42.898  0.00  0.00    +0.000 N 
ATOM      6  C14 UNL     1      26.784  -8.086 -43.109  0.00  0.00    +0.000 A 
ATOM      7  C15 UNL     1      26.378  -7.432 -44.272  0.00  0.00    +0.000 A 
ATOM      8  C16 UNL     1      25.123  -6.797 -44.267  0.00  0.00    +0.000 A 
ATOM      9  C17 UNL     1      24.309  -6.821 -43.111  0.00  0.00    +0.000 A 
ATOM     10  C18 UNL     1      24.742  -7.480 -41.946  0.00  0.00    +0.000 A 
ATOM     11  C19 UNL     1      25.985  -8.109 -41.984  0.00  0.00    +0.000 A 
ATOM     12  C20 UNL     1      28.860  -9.841 -40.873  0.00  0.00    +0.000 A 
ATOM     13  N5  UNL     1      28.603 -10.064 -39.549  0.00  0.00    +0.000 NA
ATOM     14  H12 UNL     1      28.749  -8.806 -43.569  0.00  0.00    +0.000 HD
ENDROOT
BRANCH  12  15
ATOM     15  C21 UNL     1      30.144 -10.297 -41.450  0.00  0.00    +0.000 A 
ATOM     16  C22 UNL     1      30.150 -11.293 -42.440  0.00  0.00    +0.000 A 
ATOM     17  C23 UNL     1      31.355 -11.719 -43.008  0.00  0.00    +0.000 A 
ATOM     18  C24 UNL     1      32.561 -11.140 -42.606  0.00  0.00    +0.000 A 
ATOM     19  C25 UNL     1      32.563 -10.129 -41.643  0.00  0.00    +0.000 A 
ATOM     20  C26 UNL     1      31.361  -9.701 -41.072  0.00  0.00    +0.000 A 
ENDBRANCH  12  15
BRANCH   1  22
ATOM     21  N3  UNL     1      26.348  -9.085 -36.747  0.00  0.00    +0.000 N 
ATOM     22  C9  UNL     1      27.271  -9.896 -37.488  0.00  0.00    +0.000 C 
ATOM     23  O1  UNL     1      27.912 -10.809 -36.900  0.00  0.00    +0.000 OA
ATOM     24  H10 UNL     1      26.201  -8.092 -37.034  0.00  0.00    +0.000 HD
BRANCH  21  27
ATOM     25  N1  UNL     1      26.681  -8.359 -33.821  0.00  0.00    +0.000 NA
ATOM     26  C8  UNL     1      25.620  -8.893 -34.359  0.00  0.00    +0.000 C 
ATOM     27  N2  UNL     1      25.650  -9.571 -35.627  0.00  0.00    +0.000 N 
ATOM     28  H9  UNL     1      25.089 -10.447 -35.730  0.00  0.00    +0.000 HD
BRANCH  25  35
ATOM     29  C1  UNL     1      27.814  -6.165 -35.324  0.00  0.00    +0.000 C 
ATOM     30  C2  UNL     1      28.612  -7.402 -35.016  0.00  0.00    +0.000 A 
ATOM     31  C3  UNL     1      29.930  -7.521 -35.490  0.00  0.00    +0.000 A 
ATOM     32  C4  UNL     1      30.680  -8.666 -35.214  0.00  0.00    +0.000 A 
ATOM     33  C5  UNL     1      30.126  -9.698 -34.454  0.00  0.00    +0.000 A 
ATOM     34  C6  UNL     1      28.812  -9.599 -33.992  0.00  0.00    +0.000 A 
ATOM     35  C7  UNL     1      28.035  -8.466 -34.292  0.00  0.00    +0.000 A 
ENDBRANCH  25  35
BRANCH  26  36
ATOM     36  S1  UNL     1      24.066  -8.763 -33.490  0.00  0.00    +0.000 S 
ATOM     37  H8  UNL     1      23.642  -7.696 -34.304  0.00  0.00    +0.000 HD
ENDBRANCH  26  36
ENDBRANCH  21  27
ENDBRANCH   1  22
TORSDOF 5
ENDMDL
MODEL 6
REMARK VINA RESULT:    -5.977      2.380      6.279
REMARK INTER + INTRA:          -9.699
REMARK INTER:                  -8.745
REMARK INTRA:                  -0.954
REMARK UNBOUND:                -2.149
REMARK  Name = resultss/4CJN/ligands/lig_416_t1.pdb
REMARK  6 active torsions:
REMARK  status: ('A' for Active; 'I' for Inactive)
REMARK    1  A    between atoms: C1_1  and  C2_2
REMARK    2  A    between atoms: C7_7  and  N1_8
REMARK    3  A    between atoms: C8_9  and  S1_10
REMARK    4  A    between atoms: N2_11  and  N3_12
REMARK    5  A    between atoms: C9_13  and  C10_15
REMARK    6  A    between atoms: C20_26  and  C21_27
REMARK                            x       y       z     vdW  Elec       q    Type
REMARK                         _______ _______ _______ _____ _____    ______ ____
ROOT
ATOM      1  C10 UNL     1      30.105  -9.025 -38.322  0.00  0.00    +0.000 A 
ATOM      2  C11 UNL     1      28.706  -8.902 -38.440  0.00  0.00    +0.000 A 
ATOM      3  C12 UNL     1      28.134  -9.294 -39.644  0.00  0.00    +0.000 A 
ATOM      4  C13 UNL     1      28.883  -9.808 -40.679  0.00  0.00    +0.000 A 
ATOM      5  N4  UNL     1      28.120 -10.031 -41.775  0.00  0.00    +0.000 N 
ATOM      6  C14 UNL     1      26.872  -9.664 -41.408  0.00  0.00    +0.000 A 
ATOM      7  C15 UNL     1      25.723  -9.682 -42.197  0.00  0.00    +0.000 A 
ATOM      8  C16 UNL     1      24.523  -9.224 -41.623  0.00  0.00    +0.000 A 
ATOM      9  C17 UNL     1      24.497  -8.753 -40.290  0.00  0.00    +0.000 A 
ATOM     10  C18 UNL     1      25.671  -8.737 -39.515  0.00  0.00    +0.000 A 
ATOM     11  C19 UNL     1      26.842  -9.208 -40.108  0.00  0.00    +0.000 A 
ATOM     12  C20 UNL     1      30.269  -9.963 -40.534  0.00  0.00    +0.000 A 
ATOM     13  N5  UNL     1      30.834  -9.543 -39.362  0.00  0.00    +0.000 NA
ATOM     14  H12 UNL     1      28.419 -10.361 -42.719  0.00  0.00    +0.000 HD
ENDROOT
BRANCH  12  15
ATOM     15  C21 UNL     1      31.131 -10.538 -41.591  0.00  0.00    +0.000 A 
ATOM     16  C22 UNL     1      32.480 -10.156 -41.677  0.00  0.00    +0.000 A 
ATOM     17  C23 UNL     1      33.310 -10.708 -42.658  0.00  0.00    +0.000 A 
ATOM     18  C24 UNL     1      32.806 -11.658 -43.549  0.00  0.00    +0.000 A 
ATOM     19  C25 UNL     1      31.473 -12.065 -43.454  0.00  0.00    +0.000 A 
ATOM     20  C26 UNL     1      30.639 -11.516 -42.475  0.00  0.00    +0.000 A 
ENDBRANCH  12  15
BRANCH   1  22
ATOM     21  N3  UNL     1      30.070  -8.219 -35.933  0.00  0.00    +0.000 N 
ATOM     22  C9  UNL     1      30.806  -8.513 -37.130  0.00  0.00    +0.000 C 
ATOM     23  O1  UNL     1      32.059  -8.375 -37.142  0.00  0.00    +0.000 OA
ATOM     24  H10 UNL     1      29.097  -7.852 -36.012  0.00  0.00    +0.000 HD
BRANCH  21  27
ATOM     25  N1  UNL     1      29.125  -9.980 -33.651  0.00  0.00    +0.000 NA
ATOM     26  C8  UNL     1      30.331  -9.506 -33.801  0.00  0.00    +0.000 C 
ATOM     27  N2  UNL     1      30.624  -8.383 -34.650  0.00  0.00    +0.000 N 
ATOM     28  H9  UNL     1      31.316  -7.677 -34.311  0.00  0.00    +0.000 HD
BRANCH  25  35
ATOM     29  C1  UNL     1      27.898  -7.791 -32.217  0.00  0.00    +0.000 C 
ATOM     30  C2  UNL     1      27.297  -8.337 -33.482  0.00  0.00    +0.000 A 
ATOM     31  C3  UNL     1      26.094  -7.800 -33.974  0.00  0.00    +0.000 A 
ATOM     32  C4  UNL     1      25.523  -8.302 -35.146  0.00  0.00    +0.000 A 
ATOM     33  C5  UNL     1      26.152  -9.334 -35.844  0.00  0.00    +0.000 A 
ATOM     34  C6  UNL     1      27.338  -9.887 -35.357  0.00  0.00    +0.000 A 
ATOM     35  C7  UNL     1      27.905  -9.414 -34.160  0.00  0.00    +0.000 A 
ENDBRANCH  25  35
BRANCH  26  36
ATOM     36  S1  UNL     1      31.672 -10.294 -32.924  0.00  0.00    +0.000 S 
ATOM     37  H8  UNL     1      30.822 -10.684 -31.871  0.00  0.00    +0.000 HD
ENDBRANCH  26  36
ENDBRANCH  21  27
ENDBRANCH   1  22
TORSDOF 5
ENDMDL
MODEL 7
REMARK VINA RESULT:    -5.940      3.250      6.212
REMARK INTER + INTRA:          -9.652
REMARK INTER:                  -8.824
REMARK INTRA:                  -0.828
REMARK UNBOUND:                -2.149
REMARK  Name = resultss/4CJN/ligands/lig_416_t1.pdb
REMARK  6 active torsions:
REMARK  status: ('A' for Active; 'I' for Inactive)
REMARK    1  A    between atoms: C1_1  and  C2_2
REMARK    2  A    between atoms: C7_7  and  N1_8
REMARK    3  A    between atoms: C8_9  and  S1_10
REMARK    4  A    between atoms: N2_11  and  N3_12
REMARK    5  A    between atoms: C9_13  and  C10_15
REMARK    6  A    between atoms: C20_26  and  C21_27
REMARK                            x       y       z     vdW  Elec       q    Type
REMARK                         _______ _______ _______ _____ _____    ______ ____
ROOT
ATOM      1  C10 UNL     1      27.250  -8.442 -37.390  0.00  0.00    +0.000 A 
ATOM      2  C11 UNL     1      28.523  -8.842 -36.933  0.00  0.00    +0.000 A 
ATOM      3  C12 UNL     1      28.700  -8.946 -35.559  0.00  0.00    +0.000 A 
ATOM      4  C13 UNL     1      27.680  -8.699 -34.668  0.00  0.00    +0.000 A 
ATOM      5  N4  UNL     1      28.116  -8.776 -33.388  0.00  0.00    +0.000 N 
ATOM      6  C14 UNL     1      29.426  -9.093 -33.487  0.00  0.00    +0.000 A 
ATOM      7  C15 UNL     1      30.333  -9.264 -32.442  0.00  0.00    +0.000 A 
ATOM      8  C16 UNL     1      31.668  -9.561 -32.771  0.00  0.00    +0.000 A 
ATOM      9  C17 UNL     1      32.068  -9.674 -34.122  0.00  0.00    +0.000 A 
ATOM     10  C18 UNL     1      31.136  -9.490 -35.161  0.00  0.00    +0.000 A 
ATOM     11  C19 UNL     1      29.820  -9.206 -34.804  0.00  0.00    +0.000 A 
ATOM     12  C20 UNL     1      26.407  -8.341 -35.136  0.00  0.00    +0.000 A 
ATOM     13  N5  UNL     1      26.246  -8.204 -36.487  0.00  0.00    +0.000 NA
ATOM     14  H12 UNL     1      27.587  -8.585 -32.509  0.00  0.00    +0.000 HD
ENDROOT
BRANCH  12  15
ATOM     15  C21 UNL     1      25.258  -8.093 -34.238  0.00  0.00    +0.000 A 
ATOM     16  C22 UNL     1      24.842  -6.776 -33.984  0.00  0.00    +0.000 A 
ATOM     17  C23 UNL     1      23.744  -6.530 -33.153  0.00  0.00    +0.000 A 
ATOM     18  C24 UNL     1      23.042  -7.595 -32.585  0.00  0.00    +0.000 A 
ATOM     19  C25 UNL     1      23.431  -8.909 -32.855  0.00  0.00    +0.000 A 
ATOM     20  C26 UNL     1      24.528  -9.161 -33.684  0.00  0.00    +0.000 A 
ENDBRANCH  12  15
BRANCH   1  22
ATOM     21  N3  UNL     1      25.798  -8.620 -39.443  0.00  0.00    +0.000 N 
ATOM     22  C9  UNL     1      27.015  -8.181 -38.822  0.00  0.00    +0.000 C 
ATOM     23  O1  UNL     1      27.860  -7.531 -39.496  0.00  0.00    +0.000 OA
ATOM     24  H10 UNL     1      25.354  -9.508 -39.121  0.00  0.00    +0.000 HD
BRANCH  21  27
ATOM     25  N1  UNL     1      25.493  -9.399 -42.359  0.00  0.00    +0.000 NA
ATOM     26  C8  UNL     1      24.767  -8.522 -41.723  0.00  0.00    +0.000 C 
ATOM     27  N2  UNL     1      25.190  -7.908 -40.494  0.00  0.00    +0.000 N 
ATOM     28  H9  UNL     1      24.996  -6.890 -40.360  0.00  0.00    +0.000 HD
BRANCH  25  35
ATOM     29  C1  UNL     1      27.671  -8.105 -43.750  0.00  0.00    +0.000 C 
ATOM     30  C2  UNL     1      27.921  -9.160 -42.709  0.00  0.00    +0.000 A 
ATOM     31  C3  UNL     1      29.237  -9.559 -42.418  0.00  0.00    +0.000 A 
ATOM     32  C4  UNL     1      29.482 -10.542 -41.457  0.00  0.00    +0.000 A 
ATOM     33  C5  UNL     1      28.418 -11.127 -40.769  0.00  0.00    +0.000 A 
ATOM     34  C6  UNL     1      27.105 -10.753 -41.061  0.00  0.00    +0.000 A 
ATOM     35  C7  UNL     1      26.843  -9.789 -42.051  0.00  0.00    +0.000 A 
ENDBRANCH  25  35
BRANCH  26  36
ATOM     36  S1  UNL     1      23.176  -8.080 -42.403  0.00  0.00    +0.000 S 
ATOM     37  H8  UNL     1      23.768  -7.292 -43.408  0.00  0.00    +0.000 HD
ENDBRANCH  26  36
ENDBRANCH  21  27
ENDBRANCH   1  22
TORSDOF 5
ENDMDL
MODEL 8
REMARK VINA RESULT:    -5.908      2.759      7.152
REMARK INTER + INTRA:          -9.612
REMARK INTER:                  -8.554
REMARK INTRA:                  -1.058
REMARK UNBOUND:                -2.149
REMARK  Name = resultss/4CJN/ligands/lig_416_t1.pdb
REMARK  6 active torsions:
REMARK  status: ('A' for Active; 'I' for Inactive)
REMARK    1  A    between atoms: C1_1  and  C2_2
REMARK    2  A    between atoms: C7_7  and  N1_8
REMARK    3  A    between atoms: C8_9  and  S1_10
REMARK    4  A    between atoms: N2_11  and  N3_12
REMARK    5  A    between atoms: C9_13  and  C10_15
REMARK    6  A    between atoms: C20_26  and  C21_27
REMARK                            x       y       z     vdW  Elec       q    Type
REMARK                         _______ _______ _______ _____ _____    ______ ____
ROOT
ATOM      1  C10 UNL     1      31.279  -8.399 -39.938  0.00  0.00    +0.000 A 
ATOM      2  C11 UNL     1      32.253  -9.151 -40.627  0.00  0.00    +0.000 A 
ATOM      3  C12 UNL     1      31.800 -10.052 -41.582  0.00  0.00    +0.000 A 
ATOM      4  C13 UNL     1      30.463 -10.198 -41.877  0.00  0.00    +0.000 A 
ATOM      5  N4  UNL     1      30.263 -11.196 -42.770  0.00  0.00    +0.000 N 
ATOM      6  C14 UNL     1      31.499 -11.665 -43.048  0.00  0.00    +0.000 A 
ATOM      7  C15 UNL     1      31.829 -12.717 -43.902  0.00  0.00    +0.000 A 
ATOM      8  C16 UNL     1      33.186 -13.066 -44.022  0.00  0.00    +0.000 A 
ATOM      9  C17 UNL     1      34.175 -12.371 -43.290  0.00  0.00    +0.000 A 
ATOM     10  C18 UNL     1      33.818 -11.317 -42.429  0.00  0.00    +0.000 A 
ATOM     11  C19 UNL     1      32.467 -10.987 -42.338  0.00  0.00    +0.000 A 
ATOM     12  C20 UNL     1      29.507  -9.416 -41.214  0.00  0.00    +0.000 A 
ATOM     13  N5  UNL     1      29.952  -8.556 -40.248  0.00  0.00    +0.000 NA
ATOM     14  H12 UNL     1      29.359 -11.568 -43.136  0.00  0.00    +0.000 HD
ENDROOT
BRANCH  12  15
ATOM     15  C21 UNL     1      28.058  -9.496 -41.502  0.00  0.00    +0.000 A 
ATOM     16  C22 UNL     1      27.537  -8.869 -42.646  0.00  0.00    +0.000 A 
ATOM     17  C23 UNL     1      26.173  -8.954 -42.940  0.00  0.00    +0.000 A 
ATOM     18  C24 UNL     1      25.321  -9.682 -42.106  0.00  0.00    +0.000 A 
ATOM     19  C25 UNL     1      25.833 -10.333 -40.982  0.00  0.00    +0.000 A 
ATOM     20  C26 UNL     1      27.196 -10.250 -40.683  0.00  0.00    +0.000 A 
ENDBRANCH  12  15
BRANCH   1  22
ATOM     21  N3  UNL     1      30.957  -7.586 -37.573  0.00  0.00    +0.000 N 
ATOM     22  C9  UNL     1      31.664  -7.517 -38.820  0.00  0.00    +0.000 C 
ATOM     23  O1  UNL     1      32.644  -6.733 -38.940  0.00  0.00    +0.000 OA
ATOM     24  H10 UNL     1      29.936  -7.801 -37.579  0.00  0.00    +0.000 HD
BRANCH  21  27
ATOM     25  N1  UNL     1      31.262  -9.439 -35.191  0.00  0.00    +0.000 NA
ATOM     26  C8  UNL     1      32.003  -8.397 -35.447  0.00  0.00    +0.000 C 
ATOM     27  N2  UNL     1      31.587  -7.347 -36.337  0.00  0.00    +0.000 N 
ATOM     28  H9  UNL     1      31.801  -6.361 -36.069  0.00  0.00    +0.000 HD
BRANCH  25  35
ATOM     29  C1  UNL     1      29.130  -8.952 -33.301  0.00  0.00    +0.000 C 
ATOM     30  C2  UNL     1      28.846  -9.411 -34.704  0.00  0.00    +0.000 A 
ATOM     31  C3  UNL     1      27.520  -9.642 -35.110  0.00  0.00    +0.000 A 
ATOM     32  C4  UNL     1      27.244 -10.073 -36.410  0.00  0.00    +0.000 A 
ATOM     33  C5  UNL     1      28.286 -10.266 -37.319  0.00  0.00    +0.000 A 
ATOM     34  C6  UNL     1      29.608 -10.056 -36.923  0.00  0.00    +0.000 A 
ATOM     35  C7  UNL     1      29.902  -9.655 -35.607  0.00  0.00    +0.000 A 
ENDBRANCH  25  35
BRANCH  26  36
ATOM     36  S1  UNL     1      33.607  -8.281 -34.671  0.00  0.00    +0.000 S 
ATOM     37  H8  UNL     1      34.043  -9.473 -35.278  0.00  0.00    +0.000 HD
ENDBRANCH  26  36
ENDBRANCH  21  27
ENDBRANCH   1  22
TORSDOF 5
ENDMDL
MODEL 9
REMARK VINA RESULT:    -5.834      3.276      5.187
REMARK INTER + INTRA:          -9.517
REMARK INTER:                  -7.604
REMARK INTRA:                  -1.914
REMARK UNBOUND:                -2.149
REMARK  Name = resultss/4CJN/ligands/lig_416_t1.pdb
REMARK  6 active torsions:
REMARK  status: ('A' for Active; 'I' for Inactive)
REMARK    1  A    between atoms: C1_1  and  C2_2
REMARK    2  A    between atoms: C7_7  and  N1_8
REMARK    3  A    between atoms: C8_9  and  S1_10
REMARK    4  A    between atoms: N2_11  and  N3_12
REMARK    5  A    between atoms: C9_13  and  C10_15
REMARK    6  A    between atoms: C20_26  and  C21_27
REMARK                            x       y       z     vdW  Elec       q    Type
REMARK                         _______ _______ _______ _____ _____    ______ ____
ROOT
ATOM      1  C10 UNL     1      25.745  -6.862 -39.313  0.00  0.00    +0.000 A 
ATOM      2  C11 UNL     1      24.772  -6.975 -38.299  0.00  0.00    +0.000 A 
ATOM      3  C12 UNL     1      25.158  -7.588 -37.114  0.00  0.00    +0.000 A 
ATOM      4  C13 UNL     1      26.440  -8.049 -36.910  0.00  0.00    +0.000 A 
ATOM      5  N4  UNL     1      26.550  -8.688 -35.721  0.00  0.00    +0.000 N 
ATOM      6  C14 UNL     1      25.319  -8.606 -35.170  0.00  0.00    +0.000 A 
ATOM      7  C15 UNL     1      24.907  -9.135 -33.947  0.00  0.00    +0.000 A 
ATOM      8  C16 UNL     1      23.561  -8.963 -33.575  0.00  0.00    +0.000 A 
ATOM      9  C17 UNL     1      22.662  -8.280 -34.426  0.00  0.00    +0.000 A 
ATOM     10  C18 UNL     1      23.099  -7.761 -35.658  0.00  0.00    +0.000 A 
ATOM     11  C19 UNL     1      24.439  -7.939 -35.995  0.00  0.00    +0.000 A 
ATOM     12  C20 UNL     1      27.410  -7.895 -37.911  0.00  0.00    +0.000 A 
ATOM     13  N5  UNL     1      27.018  -7.324 -39.089  0.00  0.00    +0.000 NA
ATOM     14  H12 UNL     1      27.378  -9.184 -35.325  0.00  0.00    +0.000 HD
ENDROOT
BRANCH  12  15
ATOM     15  C21 UNL     1      28.813  -8.337 -37.749  0.00  0.00    +0.000 A 
ATOM     16  C22 UNL     1      29.088  -9.617 -37.241  0.00  0.00    +0.000 A 
ATOM     17  C23 UNL     1      30.410 -10.053 -37.103  0.00  0.00    +0.000 A 
ATOM     18  C24 UNL     1      31.466  -9.223 -37.486  0.00  0.00    +0.000 A 
ATOM     19  C25 UNL     1      31.201  -7.959 -38.019  0.00  0.00    +0.000 A 
ATOM     20  C26 UNL     1      29.882  -7.518 -38.158  0.00  0.00    +0.000 A 
ENDBRANCH  12  15
BRANCH   1  22
ATOM     21  N3  UNL     1      26.330  -6.408 -41.723  0.00  0.00    +0.000 N 
ATOM     22  C9  UNL     1      25.385  -6.343 -40.645  0.00  0.00    +0.000 C 
ATOM     23  O1  UNL     1      24.230  -5.883 -40.854  0.00  0.00    +0.000 OA
ATOM     24  H10 UNL     1      27.347  -6.300 -41.514  0.00  0.00    +0.000 HD
BRANCH  21  27
ATOM     25  N1  UNL     1      25.859  -8.985 -43.253  0.00  0.00    +0.000 NA
ATOM     26  C8  UNL     1      25.378  -7.813 -43.564  0.00  0.00    +0.000 C 
ATOM     27  N2  UNL     1      25.934  -6.586 -43.061  0.00  0.00    +0.000 N 
ATOM     28  H9  UNL     1      26.008  -5.775 -43.715  0.00  0.00    +0.000 HD
BRANCH  25  35
ATOM     29  C1  UNL     1      25.668 -10.477 -40.785  0.00  0.00    +0.000 C 
ATOM     30  C2  UNL     1      26.991  -9.993 -41.310  0.00  0.00    +0.000 A 
ATOM     31  C3  UNL     1      28.166 -10.238 -40.578  0.00  0.00    +0.000 A 
ATOM     32  C4  UNL     1      29.401  -9.789 -41.053  0.00  0.00    +0.000 A 
ATOM     33  C5  UNL     1      29.476  -9.103 -42.266  0.00  0.00    +0.000 A 
ATOM     34  C6  UNL     1      28.313  -8.839 -42.994  0.00  0.00    +0.000 A 
ATOM     35  C7  UNL     1      27.060  -9.255 -42.510  0.00  0.00    +0.000 A 
ENDBRANCH  25  35
BRANCH  26  36
ATOM     36  S1  UNL     1      23.960  -7.734 -44.647  0.00  0.00    +0.000 S 
ATOM     37  H8  UNL     1      23.151  -7.192 -43.631  0.00  0.00    +0.000 HD
ENDBRANCH  26  36
ENDBRANCH  21  27
ENDBRANCH   1  22
TORSDOF 5
ENDMDL
