MODEL 1
REMARK VINA RESULT:    -5.807      0.000      0.000
REMARK INTER + INTRA:          -7.153
REMARK INTER:                  -6.825
REMARK INTRA:                  -0.328
REMARK UNBOUND:                -0.328
REMARK  Name = resultss/4CJN/ligands/lig_236_t1.pdb
REMARK  5 active torsions:
REMARK  status: ('A' for Active; 'I' for Inactive)
REMARK    1  A    between atoms: C3_5  and  C4_6
REMARK    2  A    between atoms: C7_9  and  O3_10
REMARK    3  A    between atoms: C8_11  and  O4_12
REMARK    4  A    between atoms: C12_17  and  O6_18
REMARK    5  A    between atoms: C14_20  and  O7_21
REMARK                            x       y       z     vdW  Elec       q    Type
REMARK                         _______ _______ _______ _____ _____    ______ ____
ROOT
ATOM      1  O1  UNL     1      29.994  -9.411 -35.583  0.00  0.00    +0.000 OA
ATOM      2  C1  UNL     1      28.800  -9.567 -35.950  0.00  0.00    +0.000 C 
ATOM      3  C2  UNL     1      27.726  -9.495 -34.948  0.00  0.00    +0.000 C 
ATOM      4  O2  UNL     1      28.013  -9.393 -33.724  0.00  0.00    +0.000 OA
ATOM      5  C3  UNL     1      26.291  -9.632 -35.387  0.00  0.00    +0.000 C 
ATOM      6  O5  UNL     1      26.131  -9.255 -36.758  0.00  0.00    +0.000 OA
ATOM      7  C10 UNL     1      27.101  -9.496 -37.740  0.00  0.00    +0.000 A 
ATOM      8  C11 UNL     1      26.721  -9.470 -39.084  0.00  0.00    +0.000 A 
ATOM      9  C12 UNL     1      27.660  -9.711 -40.086  0.00  0.00    +0.000 A 
ATOM     10  C13 UNL     1      28.984  -9.998 -39.743  0.00  0.00    +0.000 A 
ATOM     11  C14 UNL     1      29.385 -10.038 -38.401  0.00  0.00    +0.000 A 
ATOM     12  C15 UNL     1      28.444  -9.735 -37.382  0.00  0.00    +0.000 A 
ENDROOT
BRANCH   5  13
ATOM     13  C4  UNL     1      25.374  -8.790 -34.532  0.00  0.00    +0.000 A 
ATOM     14  C5  UNL     1      25.271  -7.409 -34.754  0.00  0.00    +0.000 A 
ATOM     15  C6  UNL     1      24.438  -6.627 -33.950  0.00  0.00    +0.000 A 
ATOM     16  C7  UNL     1      23.701  -7.205 -32.911  0.00  0.00    +0.000 A 
ATOM     17  C8  UNL     1      23.807  -8.596 -32.673  0.00  0.00    +0.000 A 
ATOM     18  C9  UNL     1      24.644  -9.372 -33.484  0.00  0.00    +0.000 A 
BRANCH  16  19
ATOM     19  O3  UNL     1      22.885  -6.368 -32.146  0.00  0.00    +0.000 OA
ATOM     20  H4  UNL     1      23.235  -5.651 -31.527  0.00  0.00    +0.000 HD
ENDBRANCH  16  19
BRANCH  17  21
ATOM     21  O4  UNL     1      23.107  -9.242 -31.651  0.00  0.00    +0.000 OA
ATOM     22  H5  UNL     1      22.925 -10.235 -31.631  0.00  0.00    +0.000 HD
ENDBRANCH  17  21
ENDBRANCH   5  13
BRANCH   9  23
ATOM     23  O6  UNL     1      27.264  -9.673 -41.422  0.00  0.00    +0.000 OA
ATOM     24  H8  UNL     1      26.430  -9.176 -41.714  0.00  0.00    +0.000 HD
ENDBRANCH   9  23
BRANCH  11  25
ATOM     25  O7  UNL     1      30.704 -10.411 -38.135  0.00  0.00    +0.000 OA
ATOM     26  H10 UNL     1      31.069 -10.560 -37.206  0.00  0.00    +0.000 HD
ENDBRANCH  11  25
TORSDOF 5
ENDMDL
MODEL 2
REMARK VINA RESULT:    -5.753      4.619      9.822
REMARK INTER + INTRA:          -7.090
REMARK INTER:                  -6.809
REMARK INTRA:                  -0.281
REMARK UNBOUND:                -0.328
REMARK  Name = resultss/4CJN/ligands/lig_236_t1.pdb
REMARK  5 active torsions:
REMARK  status: ('A' for Active; 'I' for Inactive)
REMARK    1  A    between atoms: C3_5  and  C4_6
REMARK    2  A    between atoms: C7_9  and  O3_10
REMARK    3  A    between atoms: C8_11  and  O4_12
REMARK    4  A    between atoms: C12_17  and  O6_18
REMARK    5  A    between atoms: C14_20  and  O7_21
REMARK                            x       y       z     vdW  Elec       q    Type
REMARK                         _______ _______ _______ _____ _____    ______ ____
ROOT
ATOM      1  O1  UNL     1      30.773  -9.611 -38.803  0.00  0.00    +0.000 OA
ATOM      2  C1  UNL     1      30.262  -9.652 -39.953  0.00  0.00    +0.000 C 
ATOM      3  C2  UNL     1      31.132  -9.887 -41.116  0.00  0.00    +0.000 C 
ATOM      4  O2  UNL     1      32.383  -9.930 -40.967  0.00  0.00    +0.000 OA
ATOM      5  C3  UNL     1      30.521  -9.987 -42.491  0.00  0.00    +0.000 C 
ATOM      6  O5  UNL     1      29.152 -10.398 -42.420  0.00  0.00    +0.000 OA
ATOM      7  C10 UNL     1      28.287 -10.013 -41.389  0.00  0.00    +0.000 A 
ATOM      8  C11 UNL     1      26.908 -10.112 -41.593  0.00  0.00    +0.000 A 
ATOM      9  C12 UNL     1      26.018  -9.732 -40.590  0.00  0.00    +0.000 A 
ATOM     10  C13 UNL     1      26.508  -9.232 -39.379  0.00  0.00    +0.000 A 
ATOM     11  C14 UNL     1      27.886  -9.115 -39.157  0.00  0.00    +0.000 A 
ATOM     12  C15 UNL     1      28.795  -9.558 -40.154  0.00  0.00    +0.000 A 
ENDROOT
BRANCH   5  13
ATOM     13  C4  UNL     1      31.286 -10.958 -43.359  0.00  0.00    +0.000 A 
ATOM     14  C5  UNL     1      31.373 -12.311 -43.000  0.00  0.00    +0.000 A 
ATOM     15  C6  UNL     1      32.096 -13.205 -43.792  0.00  0.00    +0.000 A 
ATOM     16  C7  UNL     1      32.748 -12.767 -44.949  0.00  0.00    +0.000 A 
ATOM     17  C8  UNL     1      32.675 -11.401 -45.314  0.00  0.00    +0.000 A 
ATOM     18  C9  UNL     1      31.947 -10.512 -44.514  0.00  0.00    +0.000 A 
BRANCH  16  19
ATOM     19  O3  UNL     1      33.452 -13.712 -45.699  0.00  0.00    +0.000 OA
ATOM     20  H4  UNL     1      33.627 -14.659 -45.393  0.00  0.00    +0.000 HD
ENDBRANCH  16  19
BRANCH  17  21
ATOM     21  O4  UNL     1      33.305 -10.889 -46.451  0.00  0.00    +0.000 OA
ATOM     22  H5  UNL     1      32.867 -10.255 -47.102  0.00  0.00    +0.000 HD
ENDBRANCH  17  21
ENDBRANCH   5  13
BRANCH   9  23
ATOM     23  O6  UNL     1      24.647  -9.846 -40.809  0.00  0.00    +0.000 OA
ATOM     24  H8  UNL     1      24.077  -9.038 -41.037  0.00  0.00    +0.000 HD
ENDBRANCH   9  23
BRANCH  11  25
ATOM     25  O7  UNL     1      28.296  -8.533 -37.956  0.00  0.00    +0.000 OA
ATOM     26  H10 UNL     1      28.446  -7.543 -37.834  0.00  0.00    +0.000 HD
ENDBRANCH  11  25
TORSDOF 5
ENDMDL
MODEL 3
REMARK VINA RESULT:    -5.661      2.622      6.839
REMARK INTER + INTRA:          -6.982
REMARK INTER:                  -6.655
REMARK INTRA:                  -0.328
REMARK UNBOUND:                -0.328
REMARK  Name = resultss/4CJN/ligands/lig_236_t1.pdb
REMARK  5 active torsions:
REMARK  status: ('A' for Active; 'I' for Inactive)
REMARK    1  A    between atoms: C3_5  and  C4_6
REMARK    2  A    between atoms: C7_9  and  O3_10
REMARK    3  A    between atoms: C8_11  and  O4_12
REMARK    4  A    between atoms: C12_17  and  O6_18
REMARK    5  A    between atoms: C14_20  and  O7_21
REMARK                            x       y       z     vdW  Elec       q    Type
REMARK                         _______ _______ _______ _____ _____    ______ ____
ROOT
ATOM      1  O1  UNL     1      27.970 -10.724 -37.317  0.00  0.00    +0.000 OA
ATOM      2  C1  UNL     1      27.217  -9.741 -37.544  0.00  0.00    +0.000 C 
ATOM      3  C2  UNL     1      27.186  -9.159 -38.894  0.00  0.00    +0.000 C 
ATOM      4  O2  UNL     1      27.990  -9.569 -39.776  0.00  0.00    +0.000 OA
ATOM      5  C3  UNL     1      26.250  -8.013 -39.187  0.00  0.00    +0.000 C 
ATOM      6  O5  UNL     1      25.134  -8.015 -38.291  0.00  0.00    +0.000 OA
ATOM      7  C10 UNL     1      25.226  -8.408 -36.950  0.00  0.00    +0.000 A 
ATOM      8  C11 UNL     1      24.224  -8.011 -36.061  0.00  0.00    +0.000 A 
ATOM      9  C12 UNL     1      24.287  -8.380 -34.718  0.00  0.00    +0.000 A 
ATOM     10  C13 UNL     1      25.368  -9.136 -34.255  0.00  0.00    +0.000 A 
ATOM     11  C14 UNL     1      26.388  -9.537 -35.127  0.00  0.00    +0.000 A 
ATOM     12  C15 UNL     1      26.296  -9.214 -36.507  0.00  0.00    +0.000 A 
ENDROOT
BRANCH   5  13
ATOM     13  C4  UNL     1      25.745  -8.070 -40.609  0.00  0.00    +0.000 A 
ATOM     14  C5  UNL     1      26.089  -7.063 -41.523  0.00  0.00    +0.000 A 
ATOM     15  C6  UNL     1      25.606  -7.105 -42.832  0.00  0.00    +0.000 A 
ATOM     16  C7  UNL     1      24.768  -8.144 -43.251  0.00  0.00    +0.000 A 
ATOM     17  C8  UNL     1      24.407  -9.159 -42.333  0.00  0.00    +0.000 A 
ATOM     18  C9  UNL     1      24.897  -9.109 -41.022  0.00  0.00    +0.000 A 
BRANCH  16  19
ATOM     19  O3  UNL     1      24.321  -8.128 -44.574  0.00  0.00    +0.000 OA
ATOM     20  H4  UNL     1      23.719  -7.415 -44.958  0.00  0.00    +0.000 HD
ENDBRANCH  16  19
BRANCH  17  21
ATOM     21  O4  UNL     1      23.570 -10.224 -42.677  0.00  0.00    +0.000 OA
ATOM     22  H5  UNL     1      23.119 -10.827 -42.005  0.00  0.00    +0.000 HD
ENDBRANCH  17  21
ENDBRANCH   5  13
BRANCH   9  23
ATOM     23  O6  UNL     1      23.275  -7.981 -33.848  0.00  0.00    +0.000 OA
ATOM     24  H8  UNL     1      23.030  -8.530 -33.031  0.00  0.00    +0.000 HD
ENDBRANCH   9  23
BRANCH  11  25
ATOM     25  O7  UNL     1      27.474 -10.221 -34.576  0.00  0.00    +0.000 OA
ATOM     26  H10 UNL     1      28.361  -9.789 -34.365  0.00  0.00    +0.000 HD
ENDBRANCH  11  25
TORSDOF 5
ENDMDL
MODEL 4
REMARK VINA RESULT:    -5.602      2.184      3.983
REMARK INTER + INTRA:          -6.912
REMARK INTER:                  -6.560
REMARK INTRA:                  -0.352
REMARK UNBOUND:                -0.328
REMARK  Name = resultss/4CJN/ligands/lig_236_t1.pdb
REMARK  5 active torsions:
REMARK  status: ('A' for Active; 'I' for Inactive)
REMARK    1  A    between atoms: C3_5  and  C4_6
REMARK    2  A    between atoms: C7_9  and  O3_10
REMARK    3  A    between atoms: C8_11  and  O4_12
REMARK    4  A    between atoms: C12_17  and  O6_18
REMARK    5  A    between atoms: C14_20  and  O7_21
REMARK                            x       y       z     vdW  Elec       q    Type
REMARK                         _______ _______ _______ _____ _____    ______ ____
ROOT
ATOM      1  O1  UNL     1      25.046  -9.043 -41.190  0.00  0.00    +0.000 OA
ATOM      2  C1  UNL     1      26.026  -8.791 -40.440  0.00  0.00    +0.000 C 
ATOM      3  C2  UNL     1      25.784  -8.155 -39.136  0.00  0.00    +0.000 C 
ATOM      4  O2  UNL     1      24.625  -7.767 -38.830  0.00  0.00    +0.000 OA
ATOM      5  C3  UNL     1      26.947  -7.895 -38.212  0.00  0.00    +0.000 C 
ATOM      6  O5  UNL     1      28.029  -8.793 -38.476  0.00  0.00    +0.000 OA
ATOM      7  C10 UNL     1      28.354  -9.249 -39.760  0.00  0.00    +0.000 A 
ATOM      8  C11 UNL     1      29.626  -9.780 -39.985  0.00  0.00    +0.000 A 
ATOM      9  C12 UNL     1      29.985 -10.237 -41.253  0.00  0.00    +0.000 A 
ATOM     10  C13 UNL     1      29.071 -10.147 -42.307  0.00  0.00    +0.000 A 
ATOM     11  C14 UNL     1      27.793  -9.610 -42.106  0.00  0.00    +0.000 A 
ATOM     12  C15 UNL     1      27.406  -9.199 -40.803  0.00  0.00    +0.000 A 
ENDROOT
BRANCH   5  13
ATOM     13  C4  UNL     1      26.535  -8.028 -36.765  0.00  0.00    +0.000 A 
ATOM     14  C5  UNL     1      26.453  -6.892 -35.946  0.00  0.00    +0.000 A 
ATOM     15  C6  UNL     1      26.091  -7.017 -34.603  0.00  0.00    +0.000 A 
ATOM     16  C7  UNL     1      25.811  -8.272 -34.052  0.00  0.00    +0.000 A 
ATOM     17  C8  UNL     1      25.901  -9.425 -34.869  0.00  0.00    +0.000 A 
ATOM     18  C9  UNL     1      26.264  -9.290 -36.214  0.00  0.00    +0.000 A 
BRANCH  16  19
ATOM     19  O3  UNL     1      25.453  -8.327 -32.703  0.00  0.00    +0.000 OA
ATOM     20  H4  UNL     1      25.004  -9.121 -32.271  0.00  0.00    +0.000 HD
ENDBRANCH  16  19
BRANCH  17  21
ATOM     21  O4  UNL     1      25.643 -10.711 -34.388  0.00  0.00    +0.000 OA
ATOM     22  H5  UNL     1      26.359 -11.355 -34.085  0.00  0.00    +0.000 HD
ENDBRANCH  17  21
ENDBRANCH   5  13
BRANCH   9  23
ATOM     23  O6  UNL     1      31.255 -10.770 -41.457  0.00  0.00    +0.000 OA
ATOM     24  H8  UNL     1      31.963 -10.268 -41.981  0.00  0.00    +0.000 HD
ENDBRANCH   9  23
BRANCH  11  25
ATOM     25  O7  UNL     1      26.967  -9.480 -43.223  0.00  0.00    +0.000 OA
ATOM     26  H10 UNL     1      27.181  -8.892 -44.015  0.00  0.00    +0.000 HD
ENDBRANCH  11  25
TORSDOF 5
ENDMDL
MODEL 5
REMARK VINA RESULT:    -5.529      1.851      6.930
REMARK INTER + INTRA:          -6.826
REMARK INTER:                  -6.942
REMARK INTRA:                   0.116
REMARK UNBOUND:                -0.328
REMARK  Name = resultss/4CJN/ligands/lig_236_t1.pdb
REMARK  5 active torsions:
REMARK  status: ('A' for Active; 'I' for Inactive)
REMARK    1  A    between atoms: C3_5  and  C4_6
REMARK    2  A    between atoms: C7_9  and  O3_10
REMARK    3  A    between atoms: C8_11  and  O4_12
REMARK    4  A    between atoms: C12_17  and  O6_18
REMARK    5  A    between atoms: C14_20  and  O7_21
REMARK                            x       y       z     vdW  Elec       q    Type
REMARK                         _______ _______ _______ _____ _____    ______ ____
ROOT
ATOM      1  O1  UNL     1      24.872  -7.050 -37.657  0.00  0.00    +0.000 OA
ATOM      2  C1  UNL     1      25.292  -7.963 -36.898  0.00  0.00    +0.000 C 
ATOM      3  C2  UNL     1      26.550  -8.648 -37.230  0.00  0.00    +0.000 C 
ATOM      4  O2  UNL     1      27.135  -8.399 -38.319  0.00  0.00    +0.000 OA
ATOM      5  C3  UNL     1      27.084  -9.708 -36.300  0.00  0.00    +0.000 C 
ATOM      6  O5  UNL     1      26.607  -9.515 -34.966  0.00  0.00    +0.000 OA
ATOM      7  C10 UNL     1      25.328  -9.025 -34.670  0.00  0.00    +0.000 A 
ATOM      8  C11 UNL     1      24.802  -9.240 -33.394  0.00  0.00    +0.000 A 
ATOM      9  C12 UNL     1      23.529  -8.770 -33.068  0.00  0.00    +0.000 A 
ATOM     10  C13 UNL     1      22.770  -8.097 -34.031  0.00  0.00    +0.000 A 
ATOM     11  C14 UNL     1      23.275  -7.879 -35.319  0.00  0.00    +0.000 A 
ATOM     12  C15 UNL     1      24.593  -8.303 -35.634  0.00  0.00    +0.000 A 
ENDROOT
BRANCH   5  13
ATOM     13  C4  UNL     1      28.594  -9.715 -36.290  0.00  0.00    +0.000 A 
ATOM     14  C5  UNL     1      29.295  -9.375 -35.124  0.00  0.00    +0.000 A 
ATOM     15  C6  UNL     1      30.692  -9.362 -35.119  0.00  0.00    +0.000 A 
ATOM     16  C7  UNL     1      31.412  -9.683 -36.275  0.00  0.00    +0.000 A 
ATOM     17  C8  UNL     1      30.713 -10.018 -37.459  0.00  0.00    +0.000 A 
ATOM     18  C9  UNL     1      29.313 -10.028 -37.454  0.00  0.00    +0.000 A 
BRANCH  16  19
ATOM     19  O3  UNL     1      32.807  -9.654 -36.203  0.00  0.00    +0.000 OA
ATOM     20  H4  UNL     1      33.347  -8.813 -36.061  0.00  0.00    +0.000 HD
ENDBRANCH  16  19
BRANCH  17  21
ATOM     21  O4  UNL     1      31.364 -10.342 -38.652  0.00  0.00    +0.000 OA
ATOM     22  H5  UNL     1      31.903 -11.185 -38.790  0.00  0.00    +0.000 HD
ENDBRANCH  17  21
ENDBRANCH   5  13
BRANCH   9  23
ATOM     23  O6  UNL     1      23.024  -8.988 -31.789  0.00  0.00    +0.000 OA
ATOM     24  H8  UNL     1      22.032  -8.917 -31.591  0.00  0.00    +0.000 HD
ENDBRANCH   9  23
BRANCH  11  25
ATOM     25  O7  UNL     1      22.427  -7.271 -36.247  0.00  0.00    +0.000 OA
ATOM     26  H10 UNL     1      22.094  -7.724 -37.085  0.00  0.00    +0.000 HD
ENDBRANCH  11  25
TORSDOF 5
ENDMDL
MODEL 6
REMARK VINA RESULT:    -5.526      1.884      6.896
REMARK INTER + INTRA:          -6.823
REMARK INTER:                  -6.502
REMARK INTRA:                  -0.321
REMARK UNBOUND:                -0.328
REMARK  Name = resultss/4CJN/ligands/lig_236_t1.pdb
REMARK  5 active torsions:
REMARK  status: ('A' for Active; 'I' for Inactive)
REMARK    1  A    between atoms: C3_5  and  C4_6
REMARK    2  A    between atoms: C7_9  and  O3_10
REMARK    3  A    between atoms: C8_11  and  O4_12
REMARK    4  A    between atoms: C12_17  and  O6_18
REMARK    5  A    between atoms: C14_20  and  O7_21
REMARK                            x       y       z     vdW  Elec       q    Type
REMARK                         _______ _______ _______ _____ _____    ______ ____
ROOT
ATOM      1  O1  UNL     1      25.927 -10.449 -34.492  0.00  0.00    +0.000 OA
ATOM      2  C1  UNL     1      25.779  -9.497 -35.304  0.00  0.00    +0.000 C 
ATOM      3  C2  UNL     1      26.652  -9.422 -36.485  0.00  0.00    +0.000 C 
ATOM      4  O2  UNL     1      27.606 -10.235 -36.617  0.00  0.00    +0.000 OA
ATOM      5  C3  UNL     1      26.448  -8.313 -37.487  0.00  0.00    +0.000 C 
ATOM      6  O5  UNL     1      25.104  -7.825 -37.453  0.00  0.00    +0.000 OA
ATOM      7  C10 UNL     1      24.347  -7.738 -36.277  0.00  0.00    +0.000 A 
ATOM      8  C11 UNL     1      23.228  -6.902 -36.255  0.00  0.00    +0.000 A 
ATOM      9  C12 UNL     1      22.456  -6.788 -35.100  0.00  0.00    +0.000 A 
ATOM     10  C13 UNL     1      22.815  -7.501 -33.952  0.00  0.00    +0.000 A 
ATOM     11  C14 UNL     1      23.938  -8.338 -33.949  0.00  0.00    +0.000 A 
ATOM     12  C15 UNL     1      24.690  -8.502 -35.142  0.00  0.00    +0.000 A 
ENDROOT
BRANCH   5  13
ATOM     13  C4  UNL     1      26.772  -8.776 -38.888  0.00  0.00    +0.000 A 
ATOM     14  C5  UNL     1      28.034  -8.521 -39.443  0.00  0.00    +0.000 A 
ATOM     15  C6  UNL     1      28.327  -8.932 -40.745  0.00  0.00    +0.000 A 
ATOM     16  C7  UNL     1      27.368  -9.597 -41.517  0.00  0.00    +0.000 A 
ATOM     17  C8  UNL     1      26.088  -9.849 -40.968  0.00  0.00    +0.000 A 
ATOM     18  C9  UNL     1      25.803  -9.434 -39.661  0.00  0.00    +0.000 A 
BRANCH  16  19
ATOM     19  O3  UNL     1      27.725  -9.983 -42.811  0.00  0.00    +0.000 OA
ATOM     20  H4  UNL     1      28.674 -10.164 -43.104  0.00  0.00    +0.000 HD
ENDBRANCH  16  19
BRANCH  17  21
ATOM     21  O4  UNL     1      25.078 -10.501 -41.680  0.00  0.00    +0.000 OA
ATOM     22  H5  UNL     1      25.051 -10.571 -42.687  0.00  0.00    +0.000 HD
ENDBRANCH  17  21
ENDBRANCH   5  13
BRANCH   9  23
ATOM     23  O6  UNL     1      21.340  -5.954 -35.099  0.00  0.00    +0.000 OA
ATOM     24  H8  UNL     1      20.496  -6.198 -34.593  0.00  0.00    +0.000 HD
ENDBRANCH   9  23
BRANCH  11  25
ATOM     25  O7  UNL     1      24.277  -8.954 -32.743  0.00  0.00    +0.000 OA
ATOM     26  H10 UNL     1      25.088  -8.708 -32.195  0.00  0.00    +0.000 HD
ENDBRANCH  11  25
TORSDOF 5
ENDMDL
MODEL 7
REMARK VINA RESULT:    -5.451      5.684      7.270
REMARK INTER + INTRA:          -6.735
REMARK INTER:                  -6.429
REMARK INTRA:                  -0.307
REMARK UNBOUND:                -0.328
REMARK  Name = resultss/4CJN/ligands/lig_236_t1.pdb
REMARK  5 active torsions:
REMARK  status: ('A' for Active; 'I' for Inactive)
REMARK    1  A    between atoms: C3_5  and  C4_6
REMARK    2  A    between atoms: C7_9  and  O3_10
REMARK    3  A    between atoms: C8_11  and  O4_12
REMARK    4  A    between atoms: C12_17  and  O6_18
REMARK    5  A    between atoms: C14_20  and  O7_21
REMARK                            x       y       z     vdW  Elec       q    Type
REMARK                         _______ _______ _______ _____ _____    ______ ____
ROOT
ATOM      1  O1  UNL     1      31.958  -8.346 -40.565  0.00  0.00    +0.000 OA
ATOM      2  C1  UNL     1      31.237  -9.298 -40.965  0.00  0.00    +0.000 C 
ATOM      3  C2  UNL     1      29.789  -9.257 -40.708  0.00  0.00    +0.000 C 
ATOM      4  O2  UNL     1      29.301  -8.336 -39.999  0.00  0.00    +0.000 OA
ATOM      5  C3  UNL     1      28.912 -10.368 -41.227  0.00  0.00    +0.000 C 
ATOM      6  O5  UNL     1      29.506 -11.011 -42.359  0.00  0.00    +0.000 OA
ATOM      7  C10 UNL     1      30.886 -11.200 -42.499  0.00  0.00    +0.000 A 
ATOM      8  C11 UNL     1      31.347 -12.162 -43.402  0.00  0.00    +0.000 A 
ATOM      9  C12 UNL     1      32.715 -12.380 -43.562  0.00  0.00    +0.000 A 
ATOM     10  C13 UNL     1      33.629 -11.644 -42.801  0.00  0.00    +0.000 A 
ATOM     11  C14 UNL     1      33.189 -10.682 -41.884  0.00  0.00    +0.000 A 
ATOM     12  C15 UNL     1      31.799 -10.416 -41.763  0.00  0.00    +0.000 A 
ENDROOT
BRANCH   5  13
ATOM     13  C4  UNL     1      27.545  -9.853 -41.610  0.00  0.00    +0.000 A 
ATOM     14  C5  UNL     1      27.340  -9.254 -42.861  0.00  0.00    +0.000 A 
ATOM     15  C6  UNL     1      26.081  -8.760 -43.208  0.00  0.00    +0.000 A 
ATOM     16  C7  UNL     1      25.009  -8.848 -42.314  0.00  0.00    +0.000 A 
ATOM     17  C8  UNL     1      25.208  -9.442 -41.045  0.00  0.00    +0.000 A 
ATOM     18  C9  UNL     1      26.475  -9.935 -40.706  0.00  0.00    +0.000 A 
BRANCH  16  19
ATOM     19  O3  UNL     1      23.775  -8.337 -42.723  0.00  0.00    +0.000 OA
ATOM     20  H4  UNL     1      23.281  -7.600 -42.240  0.00  0.00    +0.000 HD
ENDBRANCH  16  19
BRANCH  17  21
ATOM     21  O4  UNL     1      24.188  -9.560 -40.098  0.00  0.00    +0.000 OA
ATOM     22  H5  UNL     1      23.230  -9.285 -40.264  0.00  0.00    +0.000 HD
ENDBRANCH  17  21
ENDBRANCH   5  13
BRANCH   9  23
ATOM     23  O6  UNL     1      33.156 -13.338 -44.472  0.00  0.00    +0.000 OA
ATOM     24  H8  UNL     1      34.059 -13.261 -44.927  0.00  0.00    +0.000 HD
ENDBRANCH   9  23
BRANCH  11  25
ATOM     25  O7  UNL     1      34.157 -10.046 -41.104  0.00  0.00    +0.000 OA
ATOM     26  H10 UNL     1      35.146 -10.076 -41.302  0.00  0.00    +0.000 HD
ENDBRANCH  11  25
TORSDOF 5
ENDMDL
MODEL 8
REMARK VINA RESULT:    -5.411      4.873      8.843
REMARK INTER + INTRA:          -6.687
REMARK INTER:                  -6.418
REMARK INTRA:                  -0.270
REMARK UNBOUND:                -0.328
REMARK  Name = resultss/4CJN/ligands/lig_236_t1.pdb
REMARK  5 active torsions:
REMARK  status: ('A' for Active; 'I' for Inactive)
REMARK    1  A    between atoms: C3_5  and  C4_6
REMARK    2  A    between atoms: C7_9  and  O3_10
REMARK    3  A    between atoms: C8_11  and  O4_12
REMARK    4  A    between atoms: C12_17  and  O6_18
REMARK    5  A    between atoms: C14_20  and  O7_21
REMARK                            x       y       z     vdW  Elec       q    Type
REMARK                         _______ _______ _______ _____ _____    ______ ____
ROOT
ATOM      1  O1  UNL     1      27.244 -10.208 -38.533  0.00  0.00    +0.000 OA
ATOM      2  C1  UNL     1      27.578  -9.841 -39.691  0.00  0.00    +0.000 C 
ATOM      3  C2  UNL     1      28.993  -9.912 -40.085  0.00  0.00    +0.000 C 
ATOM      4  O2  UNL     1      29.869 -10.226 -39.234  0.00  0.00    +0.000 OA
ATOM      5  C3  UNL     1      29.393  -9.521 -41.485  0.00  0.00    +0.000 C 
ATOM      6  O5  UNL     1      28.300  -9.673 -42.397  0.00  0.00    +0.000 OA
ATOM      7  C10 UNL     1      26.967  -9.426 -42.046  0.00  0.00    +0.000 A 
ATOM      8  C11 UNL     1      26.032  -9.207 -43.061  0.00  0.00    +0.000 A 
ATOM      9  C12 UNL     1      24.697  -8.953 -42.747  0.00  0.00    +0.000 A 
ATOM     10  C13 UNL     1      24.297  -8.898 -41.408  0.00  0.00    +0.000 A 
ATOM     11  C14 UNL     1      25.220  -9.105 -40.375  0.00  0.00    +0.000 A 
ATOM     12  C15 UNL     1      26.566  -9.424 -40.693  0.00  0.00    +0.000 A 
ENDROOT
BRANCH   5  13
ATOM     13  C4  UNL     1      30.560 -10.347 -41.970  0.00  0.00    +0.000 A 
ATOM     14  C5  UNL     1      30.342 -11.586 -42.590  0.00  0.00    +0.000 A 
ATOM     15  C6  UNL     1      31.422 -12.358 -43.022  0.00  0.00    +0.000 A 
ATOM     16  C7  UNL     1      32.736 -11.914 -42.838  0.00  0.00    +0.000 A 
ATOM     17  C8  UNL     1      32.967 -10.669 -42.204  0.00  0.00    +0.000 A 
ATOM     18  C9  UNL     1      31.877  -9.901 -41.775  0.00  0.00    +0.000 A 
BRANCH  16  19
ATOM     19  O3  UNL     1      33.771 -12.733 -43.294  0.00  0.00    +0.000 OA
ATOM     20  H4  UNL     1      34.319 -12.543 -44.121  0.00  0.00    +0.000 HD
ENDBRANCH  16  19
BRANCH  17  21
ATOM     21  O4  UNL     1      34.250 -10.163 -41.980  0.00  0.00    +0.000 OA
ATOM     22  H5  UNL     1      34.632  -9.361 -42.459  0.00  0.00    +0.000 HD
ENDBRANCH  17  21
ENDBRANCH   5  13
BRANCH   9  23
ATOM     23  O6  UNL     1      23.778  -8.745 -43.772  0.00  0.00    +0.000 OA
ATOM     24  H8  UNL     1      23.893  -9.175 -44.684  0.00  0.00    +0.000 HD
ENDBRANCH   9  23
BRANCH  11  25
ATOM     25  O7  UNL     1      24.761  -8.956 -39.064  0.00  0.00    +0.000 OA
ATOM     26  H10 UNL     1      25.368  -8.826 -38.268  0.00  0.00    +0.000 HD
ENDBRANCH  11  25
TORSDOF 5
ENDMDL
MODEL 9
REMARK VINA RESULT:    -5.328      6.607      9.268
REMARK INTER + INTRA:          -6.590
REMARK INTER:                  -6.265
REMARK INTRA:                  -0.325
REMARK UNBOUND:                -0.328
REMARK  Name = resultss/4CJN/ligands/lig_236_t1.pdb
REMARK  5 active torsions:
REMARK  status: ('A' for Active; 'I' for Inactive)
REMARK    1  A    between atoms: C3_5  and  C4_6
REMARK    2  A    between atoms: C7_9  and  O3_10
REMARK    3  A    between atoms: C8_11  and  O4_12
REMARK    4  A    between atoms: C12_17  and  O6_18
REMARK    5  A    between atoms: C14_20  and  O7_21
REMARK                            x       y       z     vdW  Elec       q    Type
REMARK                         _______ _______ _______ _____ _____    ______ ____
ROOT
ATOM      1  O1  UNL     1      24.994 -10.357 -41.910  0.00  0.00    +0.000 OA
ATOM      2  C1  UNL     1      25.912  -9.562 -42.245  0.00  0.00    +0.000 C 
ATOM      3  C2  UNL     1      27.242  -9.706 -41.634  0.00  0.00    +0.000 C 
ATOM      4  O2  UNL     1      27.422 -10.541 -40.706  0.00  0.00    +0.000 OA
ATOM      5  C3  UNL     1      28.359  -8.789 -42.065  0.00  0.00    +0.000 C 
ATOM      6  O5  UNL     1      28.135  -8.287 -43.387  0.00  0.00    +0.000 OA
ATOM      7  C10 UNL     1      26.863  -7.987 -43.890  0.00  0.00    +0.000 A 
ATOM      8  C11 UNL     1      26.759  -7.147 -45.001  0.00  0.00    +0.000 A 
ATOM      9  C12 UNL     1      25.508  -6.822 -45.524  0.00  0.00    +0.000 A 
ATOM     10  C13 UNL     1      24.351  -7.326 -44.921  0.00  0.00    +0.000 A 
ATOM     11  C14 UNL     1      24.432  -8.162 -43.800  0.00  0.00    +0.000 A 
ATOM     12  C15 UNL     1      25.707  -8.542 -43.303  0.00  0.00    +0.000 A 
ENDROOT
BRANCH   5  13
ATOM     13  C4  UNL     1      29.693  -9.496 -42.023  0.00  0.00    +0.000 A 
ATOM     14  C5  UNL     1      30.688  -9.075 -41.128  0.00  0.00    +0.000 A 
ATOM     15  C6  UNL     1      31.928  -9.716 -41.101  0.00  0.00    +0.000 A 
ATOM     16  C7  UNL     1      32.201 -10.779 -41.968  0.00  0.00    +0.000 A 
ATOM     17  C8  UNL     1      31.207 -11.204 -42.882  0.00  0.00    +0.000 A 
ATOM     18  C9  UNL     1      29.965 -10.556 -42.901  0.00  0.00    +0.000 A 
BRANCH  16  19
ATOM     19  O3  UNL     1      33.460 -11.378 -41.890  0.00  0.00    +0.000 OA
ATOM     20  H4  UNL     1      34.046 -11.568 -42.691  0.00  0.00    +0.000 HD
ENDBRANCH  16  19
BRANCH  17  21
ATOM     21  O4  UNL     1      31.409 -12.253 -43.782  0.00  0.00    +0.000 OA
ATOM     22  H5  UNL     1      31.919 -13.096 -43.561  0.00  0.00    +0.000 HD
ENDBRANCH  17  21
ENDBRANCH   5  13
BRANCH   9  23
ATOM     23  O6  UNL     1      25.424  -5.989 -46.638  0.00  0.00    +0.000 OA
ATOM     24  H8  UNL     1      25.759  -6.285 -47.548  0.00  0.00    +0.000 HD
ENDBRANCH   9  23
BRANCH  11  25
ATOM     25  O7  UNL     1      23.233  -8.559 -43.206  0.00  0.00    +0.000 OA
ATOM     26  H10 UNL     1      22.638  -9.287 -43.573  0.00  0.00    +0.000 HD
ENDBRANCH  11  25
TORSDOF 5
ENDMDL
