MODEL 1
REMARK VINA RESULT:    -4.053      0.000      0.000
REMARK INTER + INTRA:          -5.759
REMARK INTER:                  -5.356
REMARK INTRA:                  -0.403
REMARK UNBOUND:                -0.403
REMARK  Name = resultss/4CJN/ligands/lig_104_t0.pdb
REMARK  8 active torsions:
REMARK  status: ('A' for Active; 'I' for Inactive)
REMARK    1  A    between atoms: O1_1  and  C1_2
REMARK    2  A    between atoms: C1_2  and  C2_3
REMARK    3  A    between atoms: C2_3  and  N1_4
REMARK    4  A    between atoms: C4_6  and  O2_7
REMARK    5  A    between atoms: C5_8  and  O3_9
REMARK    6  A    between atoms: C6_10  and  O4_11
REMARK    7  A    between atoms: C7_12  and  C8_13
REMARK    8  A    between atoms: C8_13  and  O5_14
REMARK                            x       y       z     vdW  Elec       q    Type
REMARK                         _______ _______ _______ _____ _____    ______ ____
ROOT
ATOM      1  N1  UNL     1      27.194  -7.469 -34.079  0.00  0.00    +0.000 NA
ATOM      2  C3  UNL     1      26.272  -6.890 -33.073  0.00  0.00    +0.000 C 
ATOM      3  C4  UNL     1      24.816  -7.219 -33.410  0.00  0.00    +0.000 C 
ATOM      4  C5  UNL     1      24.626  -8.742 -33.417  0.00  0.00    +0.000 C 
ATOM      5  C6  UNL     1      25.611  -9.393 -34.406  0.00  0.00    +0.000 C 
ATOM      6  C7  UNL     1      27.079  -8.959 -34.127  0.00  0.00    +0.000 C 
ENDROOT
BRANCH   3   7
ATOM      7  O2  UNL     1      23.941  -6.607 -32.494  0.00  0.00    +0.000 OA
ATOM      8  H9  UNL     1      23.016  -6.891 -32.720  0.00  0.00    +0.000 HD
ENDBRANCH   3   7
BRANCH   4   9
ATOM      9  O3  UNL     1      23.296  -9.076 -33.738  0.00  0.00    +0.000 OA
ATOM     10  H11 UNL     1      22.869  -8.271 -34.133  0.00  0.00    +0.000 HD
ENDBRANCH   4   9
BRANCH   5  11
ATOM     11  O4  UNL     1      25.509 -10.791 -34.299  0.00  0.00    +0.000 OA
ATOM     12  H13 UNL     1      25.857 -11.173 -35.146  0.00  0.00    +0.000 HD
ENDBRANCH   5  11
BRANCH   1  13
ATOM     13  C2  UNL     1      28.575  -7.000 -33.786  0.00  0.00    +0.000 C 
BRANCH  13  14
ATOM     14  C1  UNL     1      28.973  -7.370 -32.357  0.00  0.00    +0.000 C 
BRANCH  14  15
ATOM     15  O1  UNL     1      30.093  -8.211 -32.378  0.00  0.00    +0.000 OA
ATOM     16  H1  UNL     1      30.875  -7.623 -32.540  0.00  0.00    +0.000 HD
ENDBRANCH  14  15
ENDBRANCH  13  14
ENDBRANCH   1  13
BRANCH   6  17
ATOM     17  C8  UNL     1      27.985  -9.564 -35.243  0.00  0.00    +0.000 C 
BRANCH  17  18
ATOM     18  O5  UNL     1      27.212 -10.100 -36.283  0.00  0.00    +0.000 OA
ATOM     19  H17 UNL     1      27.116 -11.069 -36.095  0.00  0.00    +0.000 HD
ENDBRANCH  17  18
ENDBRANCH   6  17
TORSDOF 8
ENDMDL
MODEL 2
REMARK VINA RESULT:    -4.017      2.543      4.124
REMARK INTER + INTRA:          -5.711
REMARK INTER:                  -5.367
REMARK INTRA:                  -0.344
REMARK UNBOUND:                -0.403
REMARK  Name = resultss/4CJN/ligands/lig_104_t0.pdb
REMARK  8 active torsions:
REMARK  status: ('A' for Active; 'I' for Inactive)
REMARK    1  A    between atoms: O1_1  and  C1_2
REMARK    2  A    between atoms: C1_2  and  C2_3
REMARK    3  A    between atoms: C2_3  and  N1_4
REMARK    4  A    between atoms: C4_6  and  O2_7
REMARK    5  A    between atoms: C5_8  and  O3_9
REMARK    6  A    between atoms: C6_10  and  O4_11
REMARK    7  A    between atoms: C7_12  and  C8_13
REMARK    8  A    between atoms: C8_13  and  O5_14
REMARK                            x       y       z     vdW  Elec       q    Type
REMARK                         _______ _______ _______ _____ _____    ______ ____
ROOT
ATOM      1  N1  UNL     1      24.737  -8.398 -36.026  0.00  0.00    +0.000 NA
ATOM      2  C3  UNL     1      23.891  -7.181 -36.002  0.00  0.00    +0.000 C 
ATOM      3  C4  UNL     1      23.050  -7.123 -34.724  0.00  0.00    +0.000 C 
ATOM      4  C5  UNL     1      23.980  -7.088 -33.503  0.00  0.00    +0.000 C 
ATOM      5  C6  UNL     1      24.923  -8.304 -33.523  0.00  0.00    +0.000 C 
ATOM      6  C7  UNL     1      25.688  -8.421 -34.873  0.00  0.00    +0.000 C 
ENDROOT
BRANCH   3   7
ATOM      7  O2  UNL     1      22.196  -6.005 -34.739  0.00  0.00    +0.000 OA
ATOM      8  H9  UNL     1      22.150  -5.645 -33.814  0.00  0.00    +0.000 HD
ENDBRANCH   3   7
BRANCH   4   9
ATOM      9  O3  UNL     1      23.234  -7.048 -32.311  0.00  0.00    +0.000 OA
ATOM     10  H11 UNL     1      22.389  -7.548 -32.465  0.00  0.00    +0.000 HD
ENDBRANCH   4   9
BRANCH   5  11
ATOM     11  O4  UNL     1      25.849  -8.182 -32.472  0.00  0.00    +0.000 OA
ATOM     12  H13 UNL     1      25.367  -7.777 -31.705  0.00  0.00    +0.000 HD
ENDBRANCH   5  11
BRANCH   1  13
ATOM     13  C2  UNL     1      25.420  -8.477 -37.346  0.00  0.00    +0.000 C 
BRANCH  13  14
ATOM     14  C1  UNL     1      24.499  -7.968 -38.455  0.00  0.00    +0.000 C 
BRANCH  14  15
ATOM     15  O1  UNL     1      24.242  -8.999 -39.369  0.00  0.00    +0.000 OA
ATOM     16  H1  UNL     1      25.119  -9.240 -39.766  0.00  0.00    +0.000 HD
ENDBRANCH  14  15
ENDBRANCH  13  14
ENDBRANCH   1  13
BRANCH   6  17
ATOM     17  C8  UNL     1      26.520  -9.740 -34.848  0.00  0.00    +0.000 C 
BRANCH  17  18
ATOM     18  O5  UNL     1      25.781 -10.791 -34.286  0.00  0.00    +0.000 OA
ATOM     19  H17 UNL     1      25.118 -10.376 -33.674  0.00  0.00    +0.000 HD
ENDBRANCH  17  18
ENDBRANCH   6  17
TORSDOF 8
ENDMDL
MODEL 3
REMARK VINA RESULT:    -4.013     10.973     12.658
REMARK INTER + INTRA:          -5.706
REMARK INTER:                  -5.319
REMARK INTRA:                  -0.387
REMARK UNBOUND:                -0.403
REMARK  Name = resultss/4CJN/ligands/lig_104_t0.pdb
REMARK  8 active torsions:
REMARK  status: ('A' for Active; 'I' for Inactive)
REMARK    1  A    between atoms: O1_1  and  C1_2
REMARK    2  A    between atoms: C1_2  and  C2_3
REMARK    3  A    between atoms: C2_3  and  N1_4
REMARK    4  A    between atoms: C4_6  and  O2_7
REMARK    5  A    between atoms: C5_8  and  O3_9
REMARK    6  A    between atoms: C6_10  and  O4_11
REMARK    7  A    between atoms: C7_12  and  C8_13
REMARK    8  A    between atoms: C8_13  and  O5_14
REMARK                            x       y       z     vdW  Elec       q    Type
REMARK                         _______ _______ _______ _____ _____    ______ ____
ROOT
ATOM      1  N1  UNL     1      24.580  -7.673 -44.918  0.00  0.00    +0.000 NA
ATOM      2  C3  UNL     1      25.857  -7.181 -44.349  0.00  0.00    +0.000 C 
ATOM      3  C4  UNL     1      27.020  -7.436 -45.310  0.00  0.00    +0.000 C 
ATOM      4  C5  UNL     1      26.764  -6.694 -46.629  0.00  0.00    +0.000 C 
ATOM      5  C6  UNL     1      25.412  -7.129 -47.225  0.00  0.00    +0.000 C 
ATOM      6  C7  UNL     1      24.252  -6.976 -46.199  0.00  0.00    +0.000 C 
ENDROOT
BRANCH   3   7
ATOM      7  O2  UNL     1      28.240  -7.034 -44.735  0.00  0.00    +0.000 OA
ATOM      8  H9  UNL     1      28.716  -6.467 -45.398  0.00  0.00    +0.000 HD
ENDBRANCH   3   7
BRANCH   4   9
ATOM      9  O3  UNL     1      27.812  -6.922 -47.540  0.00  0.00    +0.000 OA
ATOM     10  H11 UNL     1      27.802  -6.183 -48.205  0.00  0.00    +0.000 HD
ENDBRANCH   4   9
BRANCH   5  11
ATOM     11  O4  UNL     1      25.139  -6.345 -48.359  0.00  0.00    +0.000 OA
ATOM     12  H13 UNL     1      25.411  -6.875 -49.153  0.00  0.00    +0.000 HD
ENDBRANCH   5  11
BRANCH   1  13
ATOM     13  C2  UNL     1      23.514  -7.532 -43.890  0.00  0.00    +0.000 C 
BRANCH  13  14
ATOM     14  C1  UNL     1      23.829  -8.401 -42.672  0.00  0.00    +0.000 C 
BRANCH  14  15
ATOM     15  O1  UNL     1      23.541  -9.742 -42.957  0.00  0.00    +0.000 OA
ATOM     16  H1  UNL     1      23.231 -10.145 -42.105  0.00  0.00    +0.000 HD
ENDBRANCH  14  15
ENDBRANCH  13  14
ENDBRANCH   1  13
BRANCH   6  17
ATOM     17  C8  UNL     1      22.954  -7.551 -46.844  0.00  0.00    +0.000 C 
BRANCH  17  18
ATOM     18  O5  UNL     1      23.255  -8.574 -47.755  0.00  0.00    +0.000 OA
ATOM     19  H17 UNL     1      24.243  -8.593 -47.844  0.00  0.00    +0.000 HD
ENDBRANCH  17  18
ENDBRANCH   6  17
TORSDOF 8
ENDMDL
MODEL 4
REMARK VINA RESULT:    -3.915     11.814     13.157
REMARK INTER + INTRA:          -5.577
REMARK INTER:                  -5.208
REMARK INTRA:                  -0.369
REMARK UNBOUND:                -0.403
REMARK  Name = resultss/4CJN/ligands/lig_104_t0.pdb
REMARK  8 active torsions:
REMARK  status: ('A' for Active; 'I' for Inactive)
REMARK    1  A    between atoms: O1_1  and  C1_2
REMARK    2  A    between atoms: C1_2  and  C2_3
REMARK    3  A    between atoms: C2_3  and  N1_4
REMARK    4  A    between atoms: C4_6  and  O2_7
REMARK    5  A    between atoms: C5_8  and  O3_9
REMARK    6  A    between atoms: C6_10  and  O4_11
REMARK    7  A    between atoms: C7_12  and  C8_13
REMARK    8  A    between atoms: C8_13  and  O5_14
REMARK                            x       y       z     vdW  Elec       q    Type
REMARK                         _______ _______ _______ _____ _____    ______ ____
ROOT
ATOM      1  N1  UNL     1      20.774  -7.135 -45.643  0.00  0.00    +0.000 NA
ATOM      2  C3  UNL     1      20.614  -6.624 -44.260  0.00  0.00    +0.000 C 
ATOM      3  C4  UNL     1      21.676  -7.216 -43.331  0.00  0.00    +0.000 C 
ATOM      4  C5  UNL     1      23.071  -6.819 -43.833  0.00  0.00    +0.000 C 
ATOM      5  C6  UNL     1      23.257  -7.276 -45.291  0.00  0.00    +0.000 C 
ATOM      6  C7  UNL     1      22.108  -6.765 -46.207  0.00  0.00    +0.000 C 
ENDROOT
BRANCH   3   7
ATOM      7  O2  UNL     1      21.476  -6.785 -42.006  0.00  0.00    +0.000 OA
ATOM      8  H9  UNL     1      21.707  -5.819 -41.963  0.00  0.00    +0.000 HD
ENDBRANCH   3   7
BRANCH   4   9
ATOM      9  O3  UNL     1      24.071  -7.362 -43.004  0.00  0.00    +0.000 OA
ATOM     10  H11 UNL     1      23.810  -8.295 -42.786  0.00  0.00    +0.000 HD
ENDBRANCH   4   9
BRANCH   5  11
ATOM     11  O4  UNL     1      24.486  -6.789 -45.770  0.00  0.00    +0.000 OA
ATOM     12  H13 UNL     1      24.281  -6.064 -46.416  0.00  0.00    +0.000 HD
ENDBRANCH   5  11
BRANCH   1  13
ATOM     13  C2  UNL     1      19.637  -6.644 -46.467  0.00  0.00    +0.000 C 
BRANCH  13  14
ATOM     14  C1  UNL     1      18.376  -7.460 -46.178  0.00  0.00    +0.000 C 
BRANCH  14  15
ATOM     15  O1  UNL     1      18.395  -8.645 -46.926  0.00  0.00    +0.000 OA
ATOM     16  H1  UNL     1      18.749  -9.346 -46.320  0.00  0.00    +0.000 HD
ENDBRANCH  14  15
ENDBRANCH  13  14
ENDBRANCH   1  13
BRANCH   6  17
ATOM     17  C8  UNL     1      22.312  -7.374 -47.629  0.00  0.00    +0.000 C 
BRANCH  17  18
ATOM     18  O5  UNL     1      23.174  -8.480 -47.584  0.00  0.00    +0.000 OA
ATOM     19  H17 UNL     1      23.978  -8.234 -48.112  0.00  0.00    +0.000 HD
ENDBRANCH  17  18
ENDBRANCH   6  17
TORSDOF 8
ENDMDL
MODEL 5
REMARK VINA RESULT:    -3.828      5.172      7.682
REMARK INTER + INTRA:          -5.462
REMARK INTER:                  -5.078
REMARK INTRA:                  -0.384
REMARK UNBOUND:                -0.403
REMARK  Name = resultss/4CJN/ligands/lig_104_t0.pdb
REMARK  8 active torsions:
REMARK  status: ('A' for Active; 'I' for Inactive)
REMARK    1  A    between atoms: O1_1  and  C1_2
REMARK    2  A    between atoms: C1_2  and  C2_3
REMARK    3  A    between atoms: C2_3  and  N1_4
REMARK    4  A    between atoms: C4_6  and  O2_7
REMARK    5  A    between atoms: C5_8  and  O3_9
REMARK    6  A    between atoms: C6_10  and  O4_11
REMARK    7  A    between atoms: C7_12  and  C8_13
REMARK    8  A    between atoms: C8_13  and  O5_14
REMARK                            x       y       z     vdW  Elec       q    Type
REMARK                         _______ _______ _______ _____ _____    ______ ____
ROOT
ATOM      1  N1  UNL     1      26.058  -8.849 -40.417  0.00  0.00    +0.000 NA
ATOM      2  C3  UNL     1      26.790 -10.015 -40.967  0.00  0.00    +0.000 C 
ATOM      3  C4  UNL     1      28.089 -10.260 -40.196  0.00  0.00    +0.000 C 
ATOM      4  C5  UNL     1      27.761 -10.547 -38.724  0.00  0.00    +0.000 C 
ATOM      5  C6  UNL     1      26.944  -9.387 -38.129  0.00  0.00    +0.000 C 
ATOM      6  C7  UNL     1      25.685  -9.068 -38.986  0.00  0.00    +0.000 C 
ENDROOT
BRANCH   3   7
ATOM      7  O2  UNL     1      28.815 -11.322 -40.767  0.00  0.00    +0.000 OA
ATOM      8  H9  UNL     1      29.746 -11.272 -40.424  0.00  0.00    +0.000 HD
ENDBRANCH   3   7
BRANCH   4   9
ATOM      9  O3  UNL     1      28.940 -10.764 -37.985  0.00  0.00    +0.000 OA
ATOM     10  H11 UNL     1      28.729 -10.612 -37.026  0.00  0.00    +0.000 HD
ENDBRANCH   4   9
BRANCH   5  11
ATOM     11  O4  UNL     1      26.545  -9.729 -36.825  0.00  0.00    +0.000 OA
ATOM     12  H13 UNL     1      25.838  -9.086 -36.558  0.00  0.00    +0.000 HD
ENDBRANCH   5  11
BRANCH   1  13
ATOM     13  C2  UNL     1      24.885  -8.569 -41.288  0.00  0.00    +0.000 C 
BRANCH  13  14
ATOM     14  C1  UNL     1      24.965  -9.392 -42.574  0.00  0.00    +0.000 C 
BRANCH  14  15
ATOM     15  O1  UNL     1      23.747 -10.050 -42.794  0.00  0.00    +0.000 OA
ATOM     16  H1  UNL     1      23.180  -9.414 -43.303  0.00  0.00    +0.000 HD
ENDBRANCH  14  15
ENDBRANCH  13  14
ENDBRANCH   1  13
BRANCH   6  17
ATOM     17  C8  UNL     1      24.990  -7.809 -38.381  0.00  0.00    +0.000 C 
BRANCH  17  18
ATOM     18  O5  UNL     1      24.013  -8.175 -37.444  0.00  0.00    +0.000 OA
ATOM     19  H17 UNL     1      24.496  -8.441 -36.619  0.00  0.00    +0.000 HD
ENDBRANCH  17  18
ENDBRANCH   6  17
TORSDOF 8
ENDMDL
MODEL 6
REMARK VINA RESULT:    -3.773     13.081     14.213
REMARK INTER + INTRA:          -5.388
REMARK INTER:                  -5.050
REMARK INTRA:                  -0.338
REMARK UNBOUND:                -0.403
REMARK  Name = resultss/4CJN/ligands/lig_104_t0.pdb
REMARK  8 active torsions:
REMARK  status: ('A' for Active; 'I' for Inactive)
REMARK    1  A    between atoms: O1_1  and  C1_2
REMARK    2  A    between atoms: C1_2  and  C2_3
REMARK    3  A    between atoms: C2_3  and  N1_4
REMARK    4  A    between atoms: C4_6  and  O2_7
REMARK    5  A    between atoms: C5_8  and  O3_9
REMARK    6  A    between atoms: C6_10  and  O4_11
REMARK    7  A    between atoms: C7_12  and  C8_13
REMARK    8  A    between atoms: C8_13  and  O5_14
REMARK                            x       y       z     vdW  Elec       q    Type
REMARK                         _______ _______ _______ _____ _____    ______ ____
ROOT
ATOM      1  N1  UNL     1      20.919  -7.209 -46.158  0.00  0.00    +0.000 NA
ATOM      2  C3  UNL     1      20.108  -7.129 -47.396  0.00  0.00    +0.000 C 
ATOM      3  C4  UNL     1      18.696  -7.672 -47.163  0.00  0.00    +0.000 C 
ATOM      4  C5  UNL     1      18.002  -6.838 -46.077  0.00  0.00    +0.000 C 
ATOM      5  C6  UNL     1      18.845  -6.841 -44.789  0.00  0.00    +0.000 C 
ATOM      6  C7  UNL     1      20.312  -6.399 -45.058  0.00  0.00    +0.000 C 
ENDROOT
BRANCH   3   7
ATOM      7  O2  UNL     1      17.954  -7.661 -48.358  0.00  0.00    +0.000 OA
ATOM      8  H9  UNL     1      18.456  -8.190 -49.032  0.00  0.00    +0.000 HD
ENDBRANCH   3   7
BRANCH   4   9
ATOM      9  O3  UNL     1      16.704  -7.323 -45.831  0.00  0.00    +0.000 OA
ATOM     10  H11 UNL     1      16.401  -6.951 -44.961  0.00  0.00    +0.000 HD
ENDBRANCH   4   9
BRANCH   5  11
ATOM     11  O4  UNL     1      18.258  -5.968 -43.856  0.00  0.00    +0.000 OA
ATOM     12  H13 UNL     1      17.995  -5.149 -44.350  0.00  0.00    +0.000 HD
ENDBRANCH   5  11
BRANCH   1  13
ATOM     13  C2  UNL     1      22.315  -6.807 -46.476  0.00  0.00    +0.000 C 
BRANCH  13  14
ATOM     14  C1  UNL     1      22.706  -7.289 -47.872  0.00  0.00    +0.000 C 
BRANCH  14  15
ATOM     15  O1  UNL     1      23.328  -8.542 -47.786  0.00  0.00    +0.000 OA
ATOM     16  H1  UNL     1      23.308  -8.923 -48.702  0.00  0.00    +0.000 HD
ENDBRANCH  14  15
ENDBRANCH  13  14
ENDBRANCH   1  13
BRANCH   6  17
ATOM     17  C8  UNL     1      21.117  -6.550 -43.730  0.00  0.00    +0.000 C 
BRANCH  17  18
ATOM     18  O5  UNL     1      20.796  -7.751 -43.081  0.00  0.00    +0.000 OA
ATOM     19  H17 UNL     1      20.734  -7.543 -42.113  0.00  0.00    +0.000 HD
ENDBRANCH  17  18
ENDBRANCH   6  17
TORSDOF 8
ENDMDL
MODEL 7
REMARK VINA RESULT:    -3.718      1.289      3.930
REMARK INTER + INTRA:          -5.316
REMARK INTER:                  -4.858
REMARK INTRA:                  -0.458
REMARK UNBOUND:                -0.403
REMARK  Name = resultss/4CJN/ligands/lig_104_t0.pdb
REMARK  8 active torsions:
REMARK  status: ('A' for Active; 'I' for Inactive)
REMARK    1  A    between atoms: O1_1  and  C1_2
REMARK    2  A    between atoms: C1_2  and  C2_3
REMARK    3  A    between atoms: C2_3  and  N1_4
REMARK    4  A    between atoms: C4_6  and  O2_7
REMARK    5  A    between atoms: C5_8  and  O3_9
REMARK    6  A    between atoms: C6_10  and  O4_11
REMARK    7  A    between atoms: C7_12  and  C8_13
REMARK    8  A    between atoms: C8_13  and  O5_14
REMARK                            x       y       z     vdW  Elec       q    Type
REMARK                         _______ _______ _______ _____ _____    ______ ____
ROOT
ATOM      1  N1  UNL     1      25.972  -7.717 -33.437  0.00  0.00    +0.000 NA
ATOM      2  C3  UNL     1      26.871  -6.788 -32.712  0.00  0.00    +0.000 C 
ATOM      3  C4  UNL     1      28.003  -7.550 -32.018  0.00  0.00    +0.000 C 
ATOM      4  C5  UNL     1      28.831  -8.301 -33.070  0.00  0.00    +0.000 C 
ATOM      5  C6  UNL     1      27.922  -9.233 -33.891  0.00  0.00    +0.000 C 
ATOM      6  C7  UNL     1      26.709  -8.470 -34.497  0.00  0.00    +0.000 C 
ENDROOT
BRANCH   3   7
ATOM      7  O2  UNL     1      28.811  -6.672 -31.272  0.00  0.00    +0.000 OA
ATOM      8  H9  UNL     1      29.484  -7.218 -30.786  0.00  0.00    +0.000 HD
ENDBRANCH   3   7
BRANCH   4   9
ATOM      9  O3  UNL     1      29.873  -9.023 -32.459  0.00  0.00    +0.000 OA
ATOM     10  H11 UNL     1      30.654  -9.006 -33.073  0.00  0.00    +0.000 HD
ENDBRANCH   4   9
BRANCH   5  11
ATOM     11  O4  UNL     1      28.676  -9.809 -34.929  0.00  0.00    +0.000 OA
ATOM     12  H13 UNL     1      28.180 -10.611 -35.238  0.00  0.00    +0.000 HD
ENDBRANCH   5  11
BRANCH   1  13
ATOM     13  C2  UNL     1      24.816  -6.944 -33.968  0.00  0.00    +0.000 C 
BRANCH  13  14
ATOM     14  C1  UNL     1      23.548  -7.267 -33.177  0.00  0.00    +0.000 C 
BRANCH  14  15
ATOM     15  O1  UNL     1      23.727  -8.455 -32.456  0.00  0.00    +0.000 OA
ATOM     16  H1  UNL     1      23.591  -9.194 -33.104  0.00  0.00    +0.000 HD
ENDBRANCH  14  15
ENDBRANCH  13  14
ENDBRANCH   1  13
BRANCH   6  17
ATOM     17  C8  UNL     1      25.785  -9.509 -35.203  0.00  0.00    +0.000 C 
BRANCH  17  18
ATOM     18  O5  UNL     1      25.651 -10.672 -34.430  0.00  0.00    +0.000 OA
ATOM     19  H17 UNL     1      26.566 -11.035 -34.303  0.00  0.00    +0.000 HD
ENDBRANCH  17  18
ENDBRANCH   6  17
TORSDOF 8
ENDMDL
MODEL 8
REMARK VINA RESULT:    -3.649      7.123      9.213
REMARK INTER + INTRA:          -5.226
REMARK INTER:                  -4.776
REMARK INTRA:                  -0.450
REMARK UNBOUND:                -0.403
REMARK  Name = resultss/4CJN/ligands/lig_104_t0.pdb
REMARK  8 active torsions:
REMARK  status: ('A' for Active; 'I' for Inactive)
REMARK    1  A    between atoms: O1_1  and  C1_2
REMARK    2  A    between atoms: C1_2  and  C2_3
REMARK    3  A    between atoms: C2_3  and  N1_4
REMARK    4  A    between atoms: C4_6  and  O2_7
REMARK    5  A    between atoms: C5_8  and  O3_9
REMARK    6  A    between atoms: C6_10  and  O4_11
REMARK    7  A    between atoms: C7_12  and  C8_13
REMARK    8  A    between atoms: C8_13  and  O5_14
REMARK                            x       y       z     vdW  Elec       q    Type
REMARK                         _______ _______ _______ _____ _____    ______ ____
ROOT
ATOM      1  N1  UNL     1      26.134  -9.270 -41.645  0.00  0.00    +0.000 NA
ATOM      2  C3  UNL     1      26.497  -9.825 -40.319  0.00  0.00    +0.000 C 
ATOM      3  C4  UNL     1      27.535 -10.941 -40.458  0.00  0.00    +0.000 C 
ATOM      4  C5  UNL     1      28.806 -10.377 -41.109  0.00  0.00    +0.000 C 
ATOM      5  C6  UNL     1      28.463  -9.732 -42.464  0.00  0.00    +0.000 C 
ATOM      6  C7  UNL     1      27.324  -8.681 -42.331  0.00  0.00    +0.000 C 
ENDROOT
BRANCH   3   7
ATOM      7  O2  UNL     1      27.822 -11.513 -39.205  0.00  0.00    +0.000 OA
ATOM      8  H9  UNL     1      28.689 -11.142 -38.893  0.00  0.00    +0.000 HD
ENDBRANCH   3   7
BRANCH   4   9
ATOM      9  O3  UNL     1      29.776 -11.386 -41.262  0.00  0.00    +0.000 OA
ATOM     10  H11 UNL     1      30.450 -11.061 -41.915  0.00  0.00    +0.000 HD
ENDBRANCH   4   9
BRANCH   5  11
ATOM     11  O4  UNL     1      29.614  -9.110 -42.978  0.00  0.00    +0.000 OA
ATOM     12  H13 UNL     1      29.944  -8.486 -42.280  0.00  0.00    +0.000 HD
ENDBRANCH   5  11
BRANCH   1  13
ATOM     13  C2  UNL     1      25.023  -8.297 -41.466  0.00  0.00    +0.000 C 
BRANCH  13  14
ATOM     14  C1  UNL     1      23.712  -8.878 -41.997  0.00  0.00    +0.000 C 
BRANCH  14  15
ATOM     15  O1  UNL     1      23.975 -10.017 -42.769  0.00  0.00    +0.000 OA
ATOM     16  H1  UNL     1      24.491 -10.632 -42.185  0.00  0.00    +0.000 HD
ENDBRANCH  14  15
ENDBRANCH  13  14
ENDBRANCH   1  13
BRANCH   6  17
ATOM     17  C8  UNL     1      26.962  -8.173 -43.761  0.00  0.00    +0.000 C 
BRANCH  17  18
ATOM     18  O5  UNL     1      27.815  -7.132 -44.157  0.00  0.00    +0.000 OA
ATOM     19  H17 UNL     1      28.742  -7.449 -43.998  0.00  0.00    +0.000 HD
ENDBRANCH  17  18
ENDBRANCH   6  17
TORSDOF 8
ENDMDL
MODEL 9
REMARK VINA RESULT:    -3.586      1.885      4.099
REMARK INTER + INTRA:          -5.142
REMARK INTER:                  -4.747
REMARK INTRA:                  -0.395
REMARK UNBOUND:                -0.403
REMARK  Name = resultss/4CJN/ligands/lig_104_t0.pdb
REMARK  8 active torsions:
REMARK  status: ('A' for Active; 'I' for Inactive)
REMARK    1  A    between atoms: O1_1  and  C1_2
REMARK    2  A    between atoms: C1_2  and  C2_3
REMARK    3  A    between atoms: C2_3  and  N1_4
REMARK    4  A    between atoms: C4_6  and  O2_7
REMARK    5  A    between atoms: C5_8  and  O3_9
REMARK    6  A    between atoms: C6_10  and  O4_11
REMARK    7  A    between atoms: C7_12  and  C8_13
REMARK    8  A    between atoms: C8_13  and  O5_14
REMARK                            x       y       z     vdW  Elec       q    Type
REMARK                         _______ _______ _______ _____ _____    ______ ____
ROOT
ATOM      1  N1  UNL     1      25.310  -6.985 -34.333  0.00  0.00    +0.000 NA
ATOM      2  C3  UNL     1      24.394  -7.622 -35.309  0.00  0.00    +0.000 C 
ATOM      3  C4  UNL     1      25.178  -8.285 -36.445  0.00  0.00    +0.000 C 
ATOM      4  C5  UNL     1      26.095  -9.370 -35.865  0.00  0.00    +0.000 C 
ATOM      5  C6  UNL     1      27.023  -8.763 -34.797  0.00  0.00    +0.000 C 
ATOM      6  C7  UNL     1      26.223  -7.991 -33.709  0.00  0.00    +0.000 C 
ENDROOT
BRANCH   3   7
ATOM      7  O2  UNL     1      24.303  -8.824 -37.405  0.00  0.00    +0.000 OA
ATOM      8  H9  UNL     1      24.753  -8.771 -38.290  0.00  0.00    +0.000 HD
ENDBRANCH   3   7
BRANCH   4   9
ATOM      9  O3  UNL     1      26.840  -9.989 -36.887  0.00  0.00    +0.000 OA
ATOM     10  H11 UNL     1      27.662 -10.367 -36.476  0.00  0.00    +0.000 HD
ENDBRANCH   4   9
BRANCH   5  11
ATOM     11  O4  UNL     1      27.760  -9.795 -34.190  0.00  0.00    +0.000 OA
ATOM     12  H13 UNL     1      28.649  -9.421 -33.958  0.00  0.00    +0.000 HD
ENDBRANCH   5  11
BRANCH   1  13
ATOM     13  C2  UNL     1      24.498  -6.238 -33.335  0.00  0.00    +0.000 C 
BRANCH  13  14
ATOM     14  C1  UNL     1      23.116  -6.874 -33.186  0.00  0.00    +0.000 C 
BRANCH  14  15
ATOM     15  O1  UNL     1      23.083  -7.677 -32.038  0.00  0.00    +0.000 OA
ATOM     16  H1  UNL     1      22.243  -8.201 -32.094  0.00  0.00    +0.000 HD
ENDBRANCH  14  15
ENDBRANCH  13  14
ENDBRANCH   1  13
BRANCH   6  17
ATOM     17  C8  UNL     1      27.244  -7.312 -32.745  0.00  0.00    +0.000 C 
BRANCH  17  18
ATOM     18  O5  UNL     1      27.414  -8.068 -31.576  0.00  0.00    +0.000 OA
ATOM     19  H17 UNL     1      27.041  -8.968 -31.765  0.00  0.00    +0.000 HD
ENDBRANCH  17  18
ENDBRANCH   6  17
TORSDOF 8
ENDMDL
