MODEL 1
REMARK VINA RESULT:    -5.616      0.000      0.000
REMARK INTER + INTRA:          -6.127
REMARK INTER:                  -6.109
REMARK INTRA:                  -0.019
REMARK UNBOUND:                -0.019
REMARK  Name = resultss/4CJN/ligands/lig_288_t1.pdb
REMARK  3 active torsions:
REMARK  status: ('A' for Active; 'I' for Inactive)
REMARK    1  A    between atoms: C1_1  and  O1_2
REMARK    2  A    between atoms: O1_2  and  C2_3
REMARK    3  A    between atoms: C14_19  and  O6_20
REMARK                            x       y       z     vdW  Elec       q    Type
REMARK                         _______ _______ _______ _____ _____    ______ ____
ROOT
ATOM      1  C2  UNL     1      29.706  -9.929 -41.645  0.00  0.00    +0.000 A 
ATOM      2  C3  UNL     1      28.332  -9.785 -41.897  0.00  0.00    +0.000 A 
ATOM      3  C4  UNL     1      27.428  -9.713 -40.843  0.00  0.00    +0.000 A 
ATOM      4  C5  UNL     1      27.877  -9.739 -39.523  0.00  0.00    +0.000 A 
ATOM      5  O2  UNL     1      26.983  -9.647 -38.548  0.00  0.00    +0.000 OA
ATOM      6  C6  UNL     1      27.302  -9.633 -37.261  0.00  0.00    +0.000 A 
ATOM      7  C7  UNL     1      26.180  -9.516 -36.265  0.00  0.00    +0.000 C 
ATOM      8  C8  UNL     1      26.606  -9.944 -34.893  0.00  0.00    +0.000 C 
ATOM      9  O3  UNL     1      25.838 -10.569 -34.179  0.00  0.00    +0.000 OA
ATOM     10  C9  UNL     1      27.937  -9.503 -34.363  0.00  0.00    +0.000 C 
ATOM     11  C10 UNL     1      29.001  -9.646 -35.412  0.00  0.00    +0.000 C 
ATOM     12  O4  UNL     1      30.202  -9.702 -35.035  0.00  0.00    +0.000 OA
ATOM     13  C11 UNL     1      28.656  -9.680 -36.865  0.00  0.00    +0.000 A 
ATOM     14  C12 UNL     1      29.643  -9.764 -37.872  0.00  0.00    +0.000 A 
ATOM     15  O5  UNL     1      30.858  -9.723 -37.548  0.00  0.00    +0.000 OA
ATOM     16  C13 UNL     1      29.259  -9.848 -39.233  0.00  0.00    +0.000 A 
ATOM     17  C14 UNL     1      30.173  -9.997 -40.322  0.00  0.00    +0.000 A 
ENDROOT
BRANCH   1  19
ATOM     18  C1  UNL     1      31.015 -11.248 -43.326  0.00  0.00    +0.000 C 
ATOM     19  O1  UNL     1      30.642 -10.030 -42.688  0.00  0.00    +0.000 OA
ENDBRANCH   1  19
BRANCH  17  20
ATOM     20  O6  UNL     1      31.539 -10.244 -40.151  0.00  0.00    +0.000 OA
ATOM     21  H10 UNL     1      32.087 -10.856 -40.738  0.00  0.00    +0.000 HD
ENDBRANCH  17  20
TORSDOF 2
ENDMDL
MODEL 2
REMARK VINA RESULT:    -5.458      2.678      7.287
REMARK INTER + INTRA:          -5.956
REMARK INTER:                  -5.895
REMARK INTRA:                  -0.061
REMARK UNBOUND:                -0.019
REMARK  Name = resultss/4CJN/ligands/lig_288_t1.pdb
REMARK  3 active torsions:
REMARK  status: ('A' for Active; 'I' for Inactive)
REMARK    1  A    between atoms: C1_1  and  O1_2
REMARK    2  A    between atoms: O1_2  and  C2_3
REMARK    3  A    between atoms: C14_19  and  O6_20
REMARK                            x       y       z     vdW  Elec       q    Type
REMARK                         _______ _______ _______ _____ _____    ______ ____
ROOT
ATOM      1  C2  UNL     1      23.969  -8.313 -34.351  0.00  0.00    +0.000 A 
ATOM      2  C3  UNL     1      24.976  -9.115 -33.790  0.00  0.00    +0.000 A 
ATOM      3  C4  UNL     1      25.971  -9.659 -34.595  0.00  0.00    +0.000 A 
ATOM      4  C5  UNL     1      26.008  -9.380 -35.960  0.00  0.00    +0.000 A 
ATOM      5  O2  UNL     1      26.987  -9.903 -36.687  0.00  0.00    +0.000 OA
ATOM      6  C6  UNL     1      27.133  -9.680 -37.986  0.00  0.00    +0.000 A 
ATOM      7  C7  UNL     1      28.297 -10.334 -38.679  0.00  0.00    +0.000 C 
ATOM      8  C8  UNL     1      28.110 -10.372 -40.167  0.00  0.00    +0.000 C 
ATOM      9  O3  UNL     1      28.468 -11.348 -40.806  0.00  0.00    +0.000 OA
ATOM     10  C9  UNL     1      27.585  -9.160 -40.874  0.00  0.00    +0.000 C 
ATOM     11  C10 UNL     1      26.431  -8.562 -40.123  0.00  0.00    +0.000 C 
ATOM     12  O4  UNL     1      25.640  -7.809 -40.751  0.00  0.00    +0.000 OA
ATOM     13  C11 UNL     1      26.244  -8.818 -38.663  0.00  0.00    +0.000 A 
ATOM     14  C12 UNL     1      25.195  -8.228 -37.923  0.00  0.00    +0.000 A 
ATOM     15  O5  UNL     1      24.440  -7.392 -38.485  0.00  0.00    +0.000 OA
ATOM     16  C13 UNL     1      25.029  -8.546 -36.553  0.00  0.00    +0.000 A 
ATOM     17  C14 UNL     1      23.968  -8.053 -35.733  0.00  0.00    +0.000 A 
ENDROOT
BRANCH   1  19
ATOM     18  C1  UNL     1      23.038  -6.564 -32.818  0.00  0.00    +0.000 C 
ATOM     19  O1  UNL     1      22.936  -7.769 -33.571  0.00  0.00    +0.000 OA
ENDBRANCH   1  19
BRANCH  17  20
ATOM     20  O6  UNL     1      22.878  -7.334 -36.233  0.00  0.00    +0.000 OA
ATOM     21  H10 UNL     1      22.640  -7.264 -37.211  0.00  0.00    +0.000 HD
ENDBRANCH  17  20
TORSDOF 2
ENDMDL
MODEL 3
REMARK VINA RESULT:    -5.385      2.165      3.002
REMARK INTER + INTRA:          -5.875
REMARK INTER:                  -5.806
REMARK INTRA:                  -0.069
REMARK UNBOUND:                -0.019
REMARK  Name = resultss/4CJN/ligands/lig_288_t1.pdb
REMARK  3 active torsions:
REMARK  status: ('A' for Active; 'I' for Inactive)
REMARK    1  A    between atoms: C1_1  and  O1_2
REMARK    2  A    between atoms: O1_2  and  C2_3
REMARK    3  A    between atoms: C14_19  and  O6_20
REMARK                            x       y       z     vdW  Elec       q    Type
REMARK                         _______ _______ _______ _____ _____    ______ ____
ROOT
ATOM      1  C2  UNL     1      27.279  -9.198 -40.910  0.00  0.00    +0.000 A 
ATOM      2  C3  UNL     1      26.284  -8.236 -41.147  0.00  0.00    +0.000 A 
ATOM      3  C4  UNL     1      25.442  -7.829 -40.118  0.00  0.00    +0.000 A 
ATOM      4  C5  UNL     1      25.603  -8.335 -38.829  0.00  0.00    +0.000 A 
ATOM      5  O2  UNL     1      24.791  -7.903 -37.873  0.00  0.00    +0.000 OA
ATOM      6  C6  UNL     1      24.874  -8.298 -36.610  0.00  0.00    +0.000 A 
ATOM      7  C7  UNL     1      23.889  -7.716 -35.632  0.00  0.00    +0.000 C 
ATOM      8  C8  UNL     1      23.795  -8.537 -34.381  0.00  0.00    +0.000 C 
ATOM      9  O3  UNL     1      22.715  -8.704 -33.836  0.00  0.00    +0.000 OA
ATOM     10  C9  UNL     1      25.047  -9.058 -33.745  0.00  0.00    +0.000 C 
ATOM     11  C10 UNL     1      25.979  -9.617 -34.781  0.00  0.00    +0.000 C 
ATOM     12  O4  UNL     1      26.866 -10.430 -34.405  0.00  0.00    +0.000 OA
ATOM     13  C11 UNL     1      25.887  -9.195 -36.211  0.00  0.00    +0.000 A 
ATOM     14  C12 UNL     1      26.783  -9.669 -37.195  0.00  0.00    +0.000 A 
ATOM     15  O5  UNL     1      27.744 -10.405 -36.850  0.00  0.00    +0.000 OA
ATOM     16  C13 UNL     1      26.619  -9.281 -38.548  0.00  0.00    +0.000 A 
ATOM     17  C14 UNL     1      27.430  -9.750 -39.626  0.00  0.00    +0.000 A 
ENDROOT
BRANCH   1  19
ATOM     18  C1  UNL     1      29.124  -8.854 -42.569  0.00  0.00    +0.000 C 
ATOM     19  O1  UNL     1      28.129  -9.650 -41.933  0.00  0.00    +0.000 OA
ENDBRANCH   1  19
BRANCH  17  20
ATOM     20  O6  UNL     1      28.371 -10.775 -39.492  0.00  0.00    +0.000 OA
ATOM     21  H10 UNL     1      28.192 -11.661 -39.043  0.00  0.00    +0.000 HD
ENDBRANCH  17  20
TORSDOF 2
ENDMDL
MODEL 4
REMARK VINA RESULT:    -5.300      4.985      8.582
REMARK INTER + INTRA:          -5.783
REMARK INTER:                  -5.713
REMARK INTRA:                  -0.070
REMARK UNBOUND:                -0.019
REMARK  Name = resultss/4CJN/ligands/lig_288_t1.pdb
REMARK  3 active torsions:
REMARK  status: ('A' for Active; 'I' for Inactive)
REMARK    1  A    between atoms: C1_1  and  O1_2
REMARK    2  A    between atoms: O1_2  and  C2_3
REMARK    3  A    between atoms: C14_19  and  O6_20
REMARK                            x       y       z     vdW  Elec       q    Type
REMARK                         _______ _______ _______ _____ _____    ______ ____
ROOT
ATOM      1  C2  UNL     1      27.143 -10.068 -41.193  0.00  0.00    +0.000 A 
ATOM      2  C3  UNL     1      28.283  -9.605 -41.870  0.00  0.00    +0.000 A 
ATOM      3  C4  UNL     1      28.151  -8.840 -43.025  0.00  0.00    +0.000 A 
ATOM      4  C5  UNL     1      26.889  -8.485 -43.499  0.00  0.00    +0.000 A 
ATOM      5  O2  UNL     1      26.810  -7.737 -44.591  0.00  0.00    +0.000 OA
ATOM      6  C6  UNL     1      25.663  -7.321 -45.111  0.00  0.00    +0.000 A 
ATOM      7  C7  UNL     1      25.728  -6.470 -46.350  0.00  0.00    +0.000 C 
ATOM      8  C8  UNL     1      24.414  -6.435 -47.071  0.00  0.00    +0.000 C 
ATOM      9  O3  UNL     1      24.382  -6.449 -48.291  0.00  0.00    +0.000 OA
ATOM     10  C9  UNL     1      23.147  -6.270 -46.287  0.00  0.00    +0.000 C 
ATOM     11  C10 UNL     1      23.159  -7.146 -45.067  0.00  0.00    +0.000 C 
ATOM     12  O4  UNL     1      22.054  -7.428 -44.529  0.00  0.00    +0.000 OA
ATOM     13  C11 UNL     1      24.441  -7.636 -44.480  0.00  0.00    +0.000 A 
ATOM     14  C12 UNL     1      24.481  -8.420 -43.305  0.00  0.00    +0.000 A 
ATOM     15  O5  UNL     1      23.412  -8.645 -42.678  0.00  0.00    +0.000 OA
ATOM     16  C13 UNL     1      25.720  -8.906 -42.819  0.00  0.00    +0.000 A 
ATOM     17  C14 UNL     1      25.863  -9.754 -41.678  0.00  0.00    +0.000 A 
ENDROOT
BRANCH   1  19
ATOM     18  C1  UNL     1      27.667 -10.391 -38.764  0.00  0.00    +0.000 C 
ATOM     19  O1  UNL     1      27.242 -10.863 -40.039  0.00  0.00    +0.000 OA
ENDBRANCH   1  19
BRANCH  17  20
ATOM     20  O6  UNL     1      24.780 -10.336 -41.011  0.00  0.00    +0.000 OA
ATOM     21  H10 UNL     1      24.784 -11.263 -40.613  0.00  0.00    +0.000 HD
ENDBRANCH  17  20
TORSDOF 2
ENDMDL
MODEL 5
REMARK VINA RESULT:    -5.266      1.313      5.873
REMARK INTER + INTRA:          -5.747
REMARK INTER:                  -5.678
REMARK INTRA:                  -0.069
REMARK UNBOUND:                -0.019
REMARK  Name = resultss/4CJN/ligands/lig_288_t1.pdb
REMARK  3 active torsions:
REMARK  status: ('A' for Active; 'I' for Inactive)
REMARK    1  A    between atoms: C1_1  and  O1_2
REMARK    2  A    between atoms: O1_2  and  C2_3
REMARK    3  A    between atoms: C14_19  and  O6_20
REMARK                            x       y       z     vdW  Elec       q    Type
REMARK                         _______ _______ _______ _____ _____    ______ ____
ROOT
ATOM      1  C2  UNL     1      28.509  -9.719 -34.462  0.00  0.00    +0.000 A 
ATOM      2  C3  UNL     1      27.110  -9.681 -34.580  0.00  0.00    +0.000 A 
ATOM      3  C4  UNL     1      26.511  -9.656 -35.835  0.00  0.00    +0.000 A 
ATOM      4  C5  UNL     1      27.287  -9.713 -36.991  0.00  0.00    +0.000 A 
ATOM      5  O2  UNL     1      26.673  -9.708 -38.167  0.00  0.00    +0.000 OA
ATOM      6  C6  UNL     1      27.313  -9.787 -39.326  0.00  0.00    +0.000 A 
ATOM      7  C7  UNL     1      26.483  -9.778 -40.581  0.00  0.00    +0.000 C 
ATOM      8  C8  UNL     1      27.304  -9.435 -41.789  0.00  0.00    +0.000 C 
ATOM      9  O3  UNL     1      26.835  -8.729 -42.668  0.00  0.00    +0.000 OA
ATOM     10  C9  UNL     1      28.658 -10.052 -41.960  0.00  0.00    +0.000 C 
ATOM     11  C10 UNL     1      29.422 -10.027 -40.667  0.00  0.00    +0.000 C 
ATOM     12  O4  UNL     1      30.677 -10.133 -40.718  0.00  0.00    +0.000 OA
ATOM     13  C11 UNL     1      28.717  -9.922 -39.355  0.00  0.00    +0.000 A 
ATOM     14  C12 UNL     1      29.410  -9.947 -38.123  0.00  0.00    +0.000 A 
ATOM     15  O5  UNL     1      30.652 -10.149 -38.120  0.00  0.00    +0.000 OA
ATOM     16  C13 UNL     1      28.699  -9.788 -36.908  0.00  0.00    +0.000 A 
ATOM     17  C14 UNL     1      29.309  -9.737 -35.617  0.00  0.00    +0.000 A 
ENDROOT
BRANCH   1  19
ATOM     18  C1  UNL     1      29.255  -8.584 -32.357  0.00  0.00    +0.000 C 
ATOM     19  O1  UNL     1      29.146  -9.720 -33.211  0.00  0.00    +0.000 OA
ENDBRANCH   1  19
BRANCH  17  20
ATOM     20  O6  UNL     1      30.692  -9.670 -35.422  0.00  0.00    +0.000 OA
ATOM     21  H10 UNL     1      31.350  -9.319 -36.102  0.00  0.00    +0.000 HD
ENDBRANCH  17  20
TORSDOF 2
ENDMDL
MODEL 6
REMARK VINA RESULT:    -5.262      1.338      6.557
REMARK INTER + INTRA:          -5.742
REMARK INTER:                  -5.673
REMARK INTRA:                  -0.070
REMARK UNBOUND:                -0.019
REMARK  Name = resultss/4CJN/ligands/lig_288_t1.pdb
REMARK  3 active torsions:
REMARK  status: ('A' for Active; 'I' for Inactive)
REMARK    1  A    between atoms: C1_1  and  O1_2
REMARK    2  A    between atoms: O1_2  and  C2_3
REMARK    3  A    between atoms: C14_19  and  O6_20
REMARK                            x       y       z     vdW  Elec       q    Type
REMARK                         _______ _______ _______ _____ _____    ______ ____
ROOT
ATOM      1  C2  UNL     1      27.418  -9.559 -35.233  0.00  0.00    +0.000 A 
ATOM      2  C3  UNL     1      28.811  -9.641 -35.072  0.00  0.00    +0.000 A 
ATOM      3  C4  UNL     1      29.639  -9.786 -36.179  0.00  0.00    +0.000 A 
ATOM      4  C5  UNL     1      29.103  -9.807 -37.466  0.00  0.00    +0.000 A 
ATOM      5  O2  UNL     1      29.932  -9.926 -38.495  0.00  0.00    +0.000 OA
ATOM      6  C6  UNL     1      29.531  -9.930 -39.760  0.00  0.00    +0.000 A 
ATOM      7  C7  UNL     1      30.587 -10.064 -40.824  0.00  0.00    +0.000 C 
ATOM      8  C8  UNL     1      30.001 -10.489 -42.138  0.00  0.00    +0.000 C 
ATOM      9  O3  UNL     1      30.601 -11.277 -42.851  0.00  0.00    +0.000 OA
ATOM     10  C9  UNL     1      28.731  -9.854 -42.618  0.00  0.00    +0.000 C 
ATOM     11  C10 UNL     1      27.732  -9.752 -41.502  0.00  0.00    +0.000 C 
ATOM     12  O4  UNL     1      26.516  -9.620 -41.805  0.00  0.00    +0.000 OA
ATOM     13  C11 UNL     1      28.166  -9.763 -40.073  0.00  0.00    +0.000 A 
ATOM     14  C12 UNL     1      27.250  -9.619 -39.006  0.00  0.00    +0.000 A 
ATOM     15  O5  UNL     1      26.040  -9.386 -39.261  0.00  0.00    +0.000 OA
ATOM     16  C13 UNL     1      27.706  -9.692 -37.667  0.00  0.00    +0.000 A 
ATOM     17  C14 UNL     1      26.857  -9.619 -36.520  0.00  0.00    +0.000 A 
ENDROOT
BRANCH   1  19
ATOM     18  C1  UNL     1      26.322  -8.230 -33.415  0.00  0.00    +0.000 C 
ATOM     19  O1  UNL     1      26.552  -9.438 -34.134  0.00  0.00    +0.000 OA
ENDBRANCH   1  19
BRANCH  17  20
ATOM     20  O6  UNL     1      25.461  -9.635 -36.594  0.00  0.00    +0.000 OA
ATOM     21  H10 UNL     1      24.857  -8.944 -36.174  0.00  0.00    +0.000 HD
ENDBRANCH  17  20
TORSDOF 2
ENDMDL
MODEL 7
REMARK VINA RESULT:    -5.215      2.714      4.106
REMARK INTER + INTRA:          -5.690
REMARK INTER:                  -5.619
REMARK INTRA:                  -0.071
REMARK UNBOUND:                -0.019
REMARK  Name = resultss/4CJN/ligands/lig_288_t1.pdb
REMARK  3 active torsions:
REMARK  status: ('A' for Active; 'I' for Inactive)
REMARK    1  A    between atoms: C1_1  and  O1_2
REMARK    2  A    between atoms: O1_2  and  C2_3
REMARK    3  A    between atoms: C14_19  and  O6_20
REMARK                            x       y       z     vdW  Elec       q    Type
REMARK                         _______ _______ _______ _____ _____    ______ ____
ROOT
ATOM      1  C2  UNL     1      26.091  -9.743 -40.641  0.00  0.00    +0.000 A 
ATOM      2  C3  UNL     1      27.251 -10.503 -40.420  0.00  0.00    +0.000 A 
ATOM      3  C4  UNL     1      27.802 -10.589 -39.146  0.00  0.00    +0.000 A 
ATOM      4  C5  UNL     1      27.186  -9.960 -38.064  0.00  0.00    +0.000 A 
ATOM      5  O2  UNL     1      27.734 -10.086 -36.863  0.00  0.00    +0.000 OA
ATOM      6  C6  UNL     1      27.216  -9.553 -35.764  0.00  0.00    +0.000 A 
ATOM      7  C7  UNL     1      27.944  -9.786 -34.468  0.00  0.00    +0.000 C 
ATOM      8  C8  UNL     1      27.529  -8.805 -33.412  0.00  0.00    +0.000 C 
ATOM      9  O3  UNL     1      28.356  -8.349 -32.639  0.00  0.00    +0.000 OA
ATOM     10  C9  UNL     1      26.077  -8.474 -33.243  0.00  0.00    +0.000 C 
ATOM     11  C10 UNL     1      25.421  -8.260 -34.576  0.00  0.00    +0.000 C 
ATOM     12  O4  UNL     1      24.344  -7.606 -34.610  0.00  0.00    +0.000 OA
ATOM     13  C11 UNL     1      26.000  -8.840 -35.825  0.00  0.00    +0.000 A 
ATOM     14  C12 UNL     1      25.375  -8.694 -37.084  0.00  0.00    +0.000 A 
ATOM     15  O5  UNL     1      24.250  -8.134 -37.152  0.00  0.00    +0.000 OA
ATOM     16  C13 UNL     1      25.995  -9.215 -38.246  0.00  0.00    +0.000 A 
ATOM     17  C14 UNL     1      25.478  -9.070 -39.570  0.00  0.00    +0.000 A 
ENDROOT
BRANCH   1  19
ATOM     18  C1  UNL     1      26.115  -8.898 -43.000  0.00  0.00    +0.000 C 
ATOM     19  O1  UNL     1      25.524  -9.615 -41.920  0.00  0.00    +0.000 OA
ENDBRANCH   1  19
BRANCH  17  20
ATOM     20  O6  UNL     1      24.389  -8.252 -39.886  0.00  0.00    +0.000 OA
ATOM     21  H10 UNL     1      24.133  -7.418 -39.378  0.00  0.00    +0.000 HD
ENDBRANCH  17  20
TORSDOF 2
ENDMDL
MODEL 8
REMARK VINA RESULT:    -5.193      2.346      4.185
REMARK INTER + INTRA:          -5.667
REMARK INTER:                  -5.596
REMARK INTRA:                  -0.070
REMARK UNBOUND:                -0.019
REMARK  Name = resultss/4CJN/ligands/lig_288_t1.pdb
REMARK  3 active torsions:
REMARK  status: ('A' for Active; 'I' for Inactive)
REMARK    1  A    between atoms: C1_1  and  O1_2
REMARK    2  A    between atoms: O1_2  and  C2_3
REMARK    3  A    between atoms: C14_19  and  O6_20
REMARK                            x       y       z     vdW  Elec       q    Type
REMARK                         _______ _______ _______ _____ _____    ______ ____
ROOT
ATOM      1  C2  UNL     1      25.465  -8.984 -42.314  0.00  0.00    +0.000 A 
ATOM      2  C3  UNL     1      26.730  -9.460 -42.695  0.00  0.00    +0.000 A 
ATOM      3  C4  UNL     1      27.694  -9.739 -41.732  0.00  0.00    +0.000 A 
ATOM      4  C5  UNL     1      27.404  -9.593 -40.376  0.00  0.00    +0.000 A 
ATOM      5  O2  UNL     1      28.347  -9.891 -39.492  0.00  0.00    +0.000 OA
ATOM      6  C6  UNL     1      28.168  -9.814 -38.180  0.00  0.00    +0.000 A 
ATOM      7  C7  UNL     1      29.327 -10.191 -37.296  0.00  0.00    +0.000 C 
ATOM      8  C8  UNL     1      29.161  -9.660 -35.904  0.00  0.00    +0.000 C 
ATOM      9  O3  UNL     1      30.127  -9.233 -35.291  0.00  0.00    +0.000 OA
ATOM     10  C9  UNL     1      27.826  -9.759 -35.231  0.00  0.00    +0.000 C 
ATOM     11  C10 UNL     1      26.724  -9.371 -36.174  0.00  0.00    +0.000 C 
ATOM     12  O4  UNL     1      25.617  -9.022 -35.683  0.00  0.00    +0.000 OA
ATOM     13  C11 UNL     1      26.915  -9.436 -37.654  0.00  0.00    +0.000 A 
ATOM     14  C12 UNL     1      25.878  -9.124 -38.562  0.00  0.00    +0.000 A 
ATOM     15  O5  UNL     1      24.729  -8.865 -38.119  0.00  0.00    +0.000 OA
ATOM     16  C13 UNL     1      26.127  -9.148 -39.957  0.00  0.00    +0.000 A 
ATOM     17  C14 UNL     1      25.168  -8.792 -40.954  0.00  0.00    +0.000 A 
ENDROOT
BRANCH   1  19
ATOM     18  C1  UNL     1      24.612  -7.671 -44.270  0.00  0.00    +0.000 C 
ATOM     19  O1  UNL     1      24.477  -8.668 -43.262  0.00  0.00    +0.000 OA
ENDBRANCH   1  19
BRANCH  17  20
ATOM     20  O6  UNL     1      23.927  -8.219 -40.659  0.00  0.00    +0.000 OA
ATOM     21  H10 UNL     1      23.718  -7.712 -39.811  0.00  0.00    +0.000 HD
ENDBRANCH  17  20
TORSDOF 2
ENDMDL
MODEL 9
REMARK VINA RESULT:    -5.027      5.594      7.338
REMARK INTER + INTRA:          -5.486
REMARK INTER:                  -5.431
REMARK INTRA:                  -0.055
REMARK UNBOUND:                -0.019
REMARK  Name = resultss/4CJN/ligands/lig_288_t1.pdb
REMARK  3 active torsions:
REMARK  status: ('A' for Active; 'I' for Inactive)
REMARK    1  A    between atoms: C1_1  and  O1_2
REMARK    2  A    between atoms: O1_2  and  C2_3
REMARK    3  A    between atoms: C14_19  and  O6_20
REMARK                            x       y       z     vdW  Elec       q    Type
REMARK                         _______ _______ _______ _____ _____    ______ ____
ROOT
ATOM      1  C2  UNL     1      24.780  -8.227 -33.868  0.00  0.00    +0.000 A 
ATOM      2  C3  UNL     1      24.871  -6.909 -33.392  0.00  0.00    +0.000 A 
ATOM      3  C4  UNL     1      26.086  -6.408 -32.937  0.00  0.00    +0.000 A 
ATOM      4  C5  UNL     1      27.238  -7.191 -32.989  0.00  0.00    +0.000 A 
ATOM      5  O2  UNL     1      28.380  -6.667 -32.565  0.00  0.00    +0.000 OA
ATOM      6  C6  UNL     1      29.538  -7.313 -32.595  0.00  0.00    +0.000 A 
ATOM      7  C7  UNL     1      30.754  -6.588 -32.087  0.00  0.00    +0.000 C 
ATOM      8  C8  UNL     1      31.874  -7.534 -31.768  0.00  0.00    +0.000 C 
ATOM      9  O3  UNL     1      32.582  -7.339 -30.793  0.00  0.00    +0.000 OA
ATOM     10  C9  UNL     1      32.185  -8.654 -32.713  0.00  0.00    +0.000 C 
ATOM     11  C10 UNL     1      30.924  -9.324 -33.178  0.00  0.00    +0.000 C 
ATOM     12  O4  UNL     1      31.010 -10.493 -33.641  0.00  0.00    +0.000 OA
ATOM     13  C11 UNL     1      29.610  -8.615 -33.134  0.00  0.00    +0.000 A 
ATOM     14  C12 UNL     1      28.419  -9.206 -33.611  0.00  0.00    +0.000 A 
ATOM     15  O5  UNL     1      28.472 -10.333 -34.171  0.00  0.00    +0.000 OA
ATOM     16  C13 UNL     1      27.189  -8.513 -33.496  0.00  0.00    +0.000 A 
ATOM     17  C14 UNL     1      25.923  -9.044 -33.891  0.00  0.00    +0.000 A 
ENDROOT
BRANCH   1  19
ATOM     18  C1  UNL     1      22.422  -8.005 -34.684  0.00  0.00    +0.000 C 
ATOM     19  O1  UNL     1      23.563  -8.771 -34.311  0.00  0.00    +0.000 OA
ENDBRANCH   1  19
BRANCH  17  20
ATOM     20  O6  UNL     1      25.734 -10.374 -34.280  0.00  0.00    +0.000 OA
ATOM     21  H10 UNL     1      26.318 -11.144 -33.989  0.00  0.00    +0.000 HD
ENDBRANCH  17  20
TORSDOF 2
ENDMDL
