MODEL 1
REMARK VINA RESULT:    -5.480      0.000      0.000
REMARK INTER + INTRA:          -6.993
REMARK INTER:                  -6.762
REMARK INTRA:                  -0.231
REMARK UNBOUND:                -0.231
REMARK  Name = resultss/4CJN/ligands/lig_323_t0.pdb
REMARK  8 active torsions:
REMARK  status: ('A' for Active; 'I' for Inactive)
REMARK    1  A    between atoms: C1_1  and  O1_2
REMARK    2  A    between atoms: O1_2  and  C2_3
REMARK    3  A    between atoms: C4_5  and  O2_6
REMARK    4  A    between atoms: C8_11  and  O4_12
REMARK    5  A    between atoms: O4_12  and  C9_13
REMARK    6  A    between atoms: C11_15  and  O5_16
REMARK    7  A    between atoms: C15_21  and  O7_22
REMARK    8  A    between atoms: O7_22  and  C16_23
REMARK                            x       y       z     vdW  Elec       q    Type
REMARK                         _______ _______ _______ _____ _____    ______ ____
ROOT
ATOM      1  C2  UNL     1      24.853  -8.625 -34.683  0.00  0.00    +0.000 A 
ATOM      2  C3  UNL     1      23.970  -7.804 -35.403  0.00  0.00    +0.000 A 
ATOM      3  C4  UNL     1      24.025  -7.711 -36.795  0.00  0.00    +0.000 A 
ATOM      4  C5  UNL     1      25.047  -8.397 -37.508  0.00  0.00    +0.000 A 
ATOM      5  C6  UNL     1      25.279  -8.256 -38.899  0.00  0.00    +0.000 A 
ATOM      6  O3  UNL     1      24.630  -7.412 -39.573  0.00  0.00    +0.000 OA
ATOM      7  C7  UNL     1      26.275  -9.036 -39.531  0.00  0.00    +0.000 A 
ATOM      8  C8  UNL     1      26.529  -8.985 -40.928  0.00  0.00    +0.000 A 
ATOM      9  C10 UNL     1      27.549  -9.793 -41.472  0.00  0.00    +0.000 A 
ATOM     10  C11 UNL     1      28.304 -10.636 -40.657  0.00  0.00    +0.000 A 
ATOM     11  C12 UNL     1      28.054 -10.686 -39.285  0.00  0.00    +0.000 A 
ATOM     12  C13 UNL     1      27.052  -9.894 -38.722  0.00  0.00    +0.000 A 
ATOM     13  O6  UNL     1      26.851  -9.952 -37.414  0.00  0.00    +0.000 OA
ATOM     14  C14 UNL     1      25.916  -9.251 -36.783  0.00  0.00    +0.000 A 
ATOM     15  C15 UNL     1      25.824  -9.374 -35.388  0.00  0.00    +0.000 A 
ENDROOT
BRANCH   1  17
ATOM     16  C1  UNL     1      23.574  -8.908 -32.542  0.00  0.00    +0.000 C 
ATOM     17  O1  UNL     1      24.774  -8.715 -33.284  0.00  0.00    +0.000 OA
ENDBRANCH   1  17
BRANCH   3  18
ATOM     18  O2  UNL     1      23.023  -6.953 -37.409  0.00  0.00    +0.000 OA
ATOM     19  H5  UNL     1      23.159  -6.030 -37.793  0.00  0.00    +0.000 HD
ENDBRANCH   3  18
BRANCH   8  20
ATOM     20  O4  UNL     1      25.763  -8.138 -41.749  0.00  0.00    +0.000 OA
ATOM     21  C9  UNL     1      25.049  -8.554 -42.908  0.00  0.00    +0.000 C 
ENDBRANCH   8  20
BRANCH  10  22
ATOM     22  O5  UNL     1      29.304 -11.425 -41.225  0.00  0.00    +0.000 OA
ATOM     23  H10 UNL     1      29.601 -12.293 -40.795  0.00  0.00    +0.000 HD
ENDBRANCH  10  22
BRANCH  15  24
ATOM     24  O7  UNL     1      26.735 -10.250 -34.768  0.00  0.00    +0.000 OA
ATOM     25  C16 UNL     1      28.039  -9.928 -34.295  0.00  0.00    +0.000 C 
ENDBRANCH  15  24
TORSDOF 5
ENDMDL
MODEL 2
REMARK VINA RESULT:    -5.255      1.426      6.001
REMARK INTER + INTRA:          -6.715
REMARK INTER:                  -6.402
REMARK INTRA:                  -0.313
REMARK UNBOUND:                -0.231
REMARK  Name = resultss/4CJN/ligands/lig_323_t0.pdb
REMARK  8 active torsions:
REMARK  status: ('A' for Active; 'I' for Inactive)
REMARK    1  A    between atoms: C1_1  and  O1_2
REMARK    2  A    between atoms: O1_2  and  C2_3
REMARK    3  A    between atoms: C4_5  and  O2_6
REMARK    4  A    between atoms: C8_11  and  O4_12
REMARK    5  A    between atoms: O4_12  and  C9_13
REMARK    6  A    between atoms: C11_15  and  O5_16
REMARK    7  A    between atoms: C15_21  and  O7_22
REMARK    8  A    between atoms: O7_22  and  C16_23
REMARK                            x       y       z     vdW  Elec       q    Type
REMARK                         _______ _______ _______ _____ _____    ______ ____
ROOT
ATOM      1  C2  UNL     1      26.572  -9.051 -41.540  0.00  0.00    +0.000 A 
ATOM      2  C3  UNL     1      25.334  -8.460 -41.244  0.00  0.00    +0.000 A 
ATOM      3  C4  UNL     1      24.928  -8.227 -39.929  0.00  0.00    +0.000 A 
ATOM      4  C5  UNL     1      25.743  -8.669 -38.851  0.00  0.00    +0.000 A 
ATOM      5  C6  UNL     1      25.360  -8.612 -37.487  0.00  0.00    +0.000 A 
ATOM      6  O3  UNL     1      24.198  -8.245 -37.165  0.00  0.00    +0.000 OA
ATOM      7  C7  UNL     1      26.269  -9.010 -36.481  0.00  0.00    +0.000 A 
ATOM      8  C8  UNL     1      25.973  -8.934 -35.093  0.00  0.00    +0.000 A 
ATOM      9  C10 UNL     1      26.939  -9.361 -34.159  0.00  0.00    +0.000 A 
ATOM     10  C11 UNL     1      28.174  -9.854 -34.581  0.00  0.00    +0.000 A 
ATOM     11  C12 UNL     1      28.464  -9.929 -35.944  0.00  0.00    +0.000 A 
ATOM     12  C13 UNL     1      27.524  -9.514 -36.889  0.00  0.00    +0.000 A 
ATOM     13  O6  UNL     1      27.825  -9.615 -38.176  0.00  0.00    +0.000 OA
ATOM     14  C14 UNL     1      27.007  -9.237 -39.151  0.00  0.00    +0.000 A 
ATOM     15  C15 UNL     1      27.427  -9.424 -40.477  0.00  0.00    +0.000 A 
ENDROOT
BRANCH   1  17
ATOM     16  C1  UNL     1      27.432  -8.255 -43.761  0.00  0.00    +0.000 C 
ATOM     17  O1  UNL     1      26.968  -9.266 -42.871  0.00  0.00    +0.000 OA
ENDBRANCH   1  17
BRANCH   3  18
ATOM     18  O2  UNL     1      23.729  -7.528 -39.761  0.00  0.00    +0.000 OA
ATOM     19  H5  UNL     1      23.508  -6.653 -40.213  0.00  0.00    +0.000 HD
ENDBRANCH   3  18
BRANCH   8  20
ATOM     20  O4  UNL     1      24.730  -8.432 -34.669  0.00  0.00    +0.000 OA
ATOM     21  C9  UNL     1      24.039  -8.850 -33.497  0.00  0.00    +0.000 C 
ENDBRANCH   8  20
BRANCH  10  22
ATOM     22  O5  UNL     1      29.109 -10.266 -33.633  0.00  0.00    +0.000 OA
ATOM     23  H10 UNL     1      28.958 -11.091 -33.064  0.00  0.00    +0.000 HD
ENDBRANCH  10  22
BRANCH  15  24
ATOM     24  O7  UNL     1      28.701  -9.995 -40.663  0.00  0.00    +0.000 OA
ATOM     25  C16 UNL     1      29.903  -9.306 -40.988  0.00  0.00    +0.000 C 
ENDBRANCH  15  24
TORSDOF 5
ENDMDL
MODEL 3
REMARK VINA RESULT:    -5.250      1.228      3.507
REMARK INTER + INTRA:          -6.709
REMARK INTER:                  -6.414
REMARK INTRA:                  -0.295
REMARK UNBOUND:                -0.231
REMARK  Name = resultss/4CJN/ligands/lig_323_t0.pdb
REMARK  8 active torsions:
REMARK  status: ('A' for Active; 'I' for Inactive)
REMARK    1  A    between atoms: C1_1  and  O1_2
REMARK    2  A    between atoms: O1_2  and  C2_3
REMARK    3  A    between atoms: C4_5  and  O2_6
REMARK    4  A    between atoms: C8_11  and  O4_12
REMARK    5  A    between atoms: O4_12  and  C9_13
REMARK    6  A    between atoms: C11_15  and  O5_16
REMARK    7  A    between atoms: C15_21  and  O7_22
REMARK    8  A    between atoms: O7_22  and  C16_23
REMARK                            x       y       z     vdW  Elec       q    Type
REMARK                         _______ _______ _______ _____ _____    ______ ____
ROOT
ATOM      1  C2  UNL     1      25.123  -8.495 -34.605  0.00  0.00    +0.000 A 
ATOM      2  C3  UNL     1      26.372  -9.111 -34.427  0.00  0.00    +0.000 A 
ATOM      3  C4  UNL     1      27.153  -9.513 -35.512  0.00  0.00    +0.000 A 
ATOM      4  C5  UNL     1      26.648  -9.374 -36.834  0.00  0.00    +0.000 A 
ATOM      5  C6  UNL     1      27.295  -9.879 -37.991  0.00  0.00    +0.000 A 
ATOM      6  O3  UNL     1      28.334 -10.584 -37.886  0.00  0.00    +0.000 OA
ATOM      7  C7  UNL     1      26.749  -9.628 -39.271  0.00  0.00    +0.000 A 
ATOM      8  C8  UNL     1      27.366 -10.059 -40.475  0.00  0.00    +0.000 A 
ATOM      9  C10 UNL     1      26.746  -9.771 -41.709  0.00  0.00    +0.000 A 
ATOM     10  C11 UNL     1      25.540  -9.071 -41.757  0.00  0.00    +0.000 A 
ATOM     11  C12 UNL     1      24.933  -8.649 -40.573  0.00  0.00    +0.000 A 
ATOM     12  C13 UNL     1      25.526  -8.924 -39.339  0.00  0.00    +0.000 A 
ATOM     13  O6  UNL     1      24.915  -8.523 -38.234  0.00  0.00    +0.000 OA
ATOM     14  C14 UNL     1      25.401  -8.722 -37.014  0.00  0.00    +0.000 A 
ATOM     15  C15 UNL     1      24.644  -8.280 -35.919  0.00  0.00    +0.000 A 
ENDROOT
BRANCH   1  17
ATOM     16  C1  UNL     1      23.357  -8.873 -32.862  0.00  0.00    +0.000 C 
ATOM     17  O1  UNL     1      24.357  -8.086 -33.501  0.00  0.00    +0.000 OA
ENDBRANCH   1  17
BRANCH   3  18
ATOM     18  O2  UNL     1      28.426 -10.009 -35.215  0.00  0.00    +0.000 OA
ATOM     19  H5  UNL     1      28.966  -9.747 -34.404  0.00  0.00    +0.000 HD
ENDBRANCH   3  18
BRANCH   8  20
ATOM     20  O4  UNL     1      28.585 -10.759 -40.426  0.00  0.00    +0.000 OA
ATOM     21  C9  UNL     1      29.542 -10.806 -41.480  0.00  0.00    +0.000 C 
ENDBRANCH   8  20
BRANCH  10  22
ATOM     22  O5  UNL     1      24.953  -8.800 -42.991  0.00  0.00    +0.000 OA
ATOM     23  H10 UNL     1      25.509  -8.533 -43.795  0.00  0.00    +0.000 HD
ENDBRANCH  10  22
BRANCH  15  24
ATOM     24  O7  UNL     1      23.422  -7.644 -36.210  0.00  0.00    +0.000 OA
ATOM     25  C16 UNL     1      23.170  -6.243 -36.209  0.00  0.00    +0.000 C 
ENDBRANCH  15  24
TORSDOF 5
ENDMDL
MODEL 4
REMARK VINA RESULT:    -5.215      1.875      6.966
REMARK INTER + INTRA:          -6.665
REMARK INTER:                  -6.361
REMARK INTRA:                  -0.304
REMARK UNBOUND:                -0.231
REMARK  Name = resultss/4CJN/ligands/lig_323_t0.pdb
REMARK  8 active torsions:
REMARK  status: ('A' for Active; 'I' for Inactive)
REMARK    1  A    between atoms: C1_1  and  O1_2
REMARK    2  A    between atoms: O1_2  and  C2_3
REMARK    3  A    between atoms: C4_5  and  O2_6
REMARK    4  A    between atoms: C8_11  and  O4_12
REMARK    5  A    between atoms: O4_12  and  C9_13
REMARK    6  A    between atoms: C11_15  and  O5_16
REMARK    7  A    between atoms: C15_21  and  O7_22
REMARK    8  A    between atoms: O7_22  and  C16_23
REMARK                            x       y       z     vdW  Elec       q    Type
REMARK                         _______ _______ _______ _____ _____    ______ ____
ROOT
ATOM      1  C2  UNL     1      27.469  -9.537 -41.667  0.00  0.00    +0.000 A 
ATOM      2  C3  UNL     1      28.830  -9.829 -41.480  0.00  0.00    +0.000 A 
ATOM      3  C4  UNL     1      29.374 -10.006 -40.206  0.00  0.00    +0.000 A 
ATOM      4  C5  UNL     1      28.559  -9.807 -39.058  0.00  0.00    +0.000 A 
ATOM      5  C6  UNL     1      29.045  -9.821 -37.726  0.00  0.00    +0.000 A 
ATOM      6  O3  UNL     1      30.280  -9.914 -37.496  0.00  0.00    +0.000 OA
ATOM      7  C7  UNL     1      28.143  -9.684 -36.645  0.00  0.00    +0.000 A 
ATOM      8  C8  UNL     1      28.550  -9.737 -35.284  0.00  0.00    +0.000 A 
ATOM      9  C10 UNL     1      27.582  -9.584 -34.270  0.00  0.00    +0.000 A 
ATOM     10  C11 UNL     1      26.239  -9.382 -34.588  0.00  0.00    +0.000 A 
ATOM     11  C12 UNL     1      25.840  -9.329 -35.924  0.00  0.00    +0.000 A 
ATOM     12  C13 UNL     1      26.779  -9.476 -36.947  0.00  0.00    +0.000 A 
ATOM     13  O6  UNL     1      26.370  -9.404 -38.205  0.00  0.00    +0.000 OA
ATOM     14  C14 UNL     1      27.179  -9.544 -39.248  0.00  0.00    +0.000 A 
ATOM     15  C15 UNL     1      26.632  -9.414 -40.534  0.00  0.00    +0.000 A 
ENDROOT
BRANCH   1  17
ATOM     16  C1  UNL     1      26.987  -8.171 -43.717  0.00  0.00    +0.000 C 
ATOM     17  O1  UNL     1      26.938  -9.375 -42.956  0.00  0.00    +0.000 OA
ENDBRANCH   1  17
BRANCH   3  18
ATOM     18  O2  UNL     1      30.712 -10.407 -40.150  0.00  0.00    +0.000 OA
ATOM     19  H5  UNL     1      31.023 -11.324 -39.864  0.00  0.00    +0.000 HD
ENDBRANCH   3  18
BRANCH   8  20
ATOM     20  O4  UNL     1      29.903  -9.946 -34.966  0.00  0.00    +0.000 OA
ATOM     21  C9  UNL     1      30.488  -9.703 -33.690  0.00  0.00    +0.000 C 
ENDBRANCH   8  20
BRANCH  10  22
ATOM     22  O5  UNL     1      25.306  -9.236 -33.563  0.00  0.00    +0.000 OA
ATOM     23  H10 UNL     1      24.497  -8.632 -33.665  0.00  0.00    +0.000 HD
ENDBRANCH  10  22
BRANCH  15  24
ATOM     24  O7  UNL     1      25.249  -9.153 -40.610  0.00  0.00    +0.000 OA
ATOM     25  C16 UNL     1      24.631  -7.882 -40.770  0.00  0.00    +0.000 C 
ENDBRANCH  15  24
TORSDOF 5
ENDMDL
MODEL 5
REMARK VINA RESULT:    -5.055      4.351      7.488
REMARK INTER + INTRA:          -6.468
REMARK INTER:                  -6.188
REMARK INTRA:                  -0.279
REMARK UNBOUND:                -0.231
REMARK  Name = resultss/4CJN/ligands/lig_323_t0.pdb
REMARK  8 active torsions:
REMARK  status: ('A' for Active; 'I' for Inactive)
REMARK    1  A    between atoms: C1_1  and  O1_2
REMARK    2  A    between atoms: O1_2  and  C2_3
REMARK    3  A    between atoms: C4_5  and  O2_6
REMARK    4  A    between atoms: C8_11  and  O4_12
REMARK    5  A    between atoms: O4_12  and  C9_13
REMARK    6  A    between atoms: C11_15  and  O5_16
REMARK    7  A    between atoms: C15_21  and  O7_22
REMARK    8  A    between atoms: O7_22  and  C16_23
REMARK                            x       y       z     vdW  Elec       q    Type
REMARK                         _______ _______ _______ _____ _____    ______ ____
ROOT
ATOM      1  C2  UNL     1      24.137  -6.912 -44.900  0.00  0.00    +0.000 A 
ATOM      2  C3  UNL     1      25.305  -6.653 -45.636  0.00  0.00    +0.000 A 
ATOM      3  C4  UNL     1      26.534  -7.211 -45.282  0.00  0.00    +0.000 A 
ATOM      4  C5  UNL     1      26.637  -7.998 -44.102  0.00  0.00    +0.000 A 
ATOM      5  C6  UNL     1      27.859  -8.490 -43.577  0.00  0.00    +0.000 A 
ATOM      6  O3  UNL     1      28.958  -8.156 -44.096  0.00  0.00    +0.000 OA
ATOM      7  C7  UNL     1      27.853  -9.325 -42.436  0.00  0.00    +0.000 A 
ATOM      8  C8  UNL     1      29.032  -9.894 -41.885  0.00  0.00    +0.000 A 
ATOM      9  C10 UNL     1      28.932 -10.711 -40.739  0.00  0.00    +0.000 A 
ATOM     10  C11 UNL     1      27.694 -10.963 -40.147  0.00  0.00    +0.000 A 
ATOM     11  C12 UNL     1      26.536 -10.403 -40.689  0.00  0.00    +0.000 A 
ATOM     12  C13 UNL     1      26.609  -9.590 -41.822  0.00  0.00    +0.000 A 
ATOM     13  O6  UNL     1      25.493  -9.061 -42.301  0.00  0.00    +0.000 OA
ATOM     14  C14 UNL     1      25.452  -8.286 -43.378  0.00  0.00    +0.000 A 
ATOM     15  C15 UNL     1      24.212  -7.758 -43.769  0.00  0.00    +0.000 A 
ENDROOT
BRANCH   1  17
ATOM     16  C1  UNL     1      21.963  -6.961 -46.154  0.00  0.00    +0.000 C 
ATOM     17  O1  UNL     1      22.907  -6.351 -45.279  0.00  0.00    +0.000 OA
ENDBRANCH   1  17
BRANCH   3  18
ATOM     18  O2  UNL     1      27.601  -6.975 -46.154  0.00  0.00    +0.000 OA
ATOM     19  H5  UNL     1      27.537  -7.022 -47.160  0.00  0.00    +0.000 HD
ENDBRANCH   3  18
BRANCH   8  20
ATOM     20  O4  UNL     1      30.278  -9.643 -42.486  0.00  0.00    +0.000 OA
ATOM     21  C9  UNL     1      31.116 -10.636 -43.069  0.00  0.00    +0.000 C 
ENDBRANCH   8  20
BRANCH  10  22
ATOM     22  O5  UNL     1      27.627 -11.776 -39.017  0.00  0.00    +0.000 OA
ATOM     23  H10 UNL     1      27.612 -11.383 -38.082  0.00  0.00    +0.000 HD
ENDBRANCH  10  22
BRANCH  15  24
ATOM     24  O7  UNL     1      23.099  -8.108 -42.980  0.00  0.00    +0.000 OA
ATOM     25  C16 UNL     1      22.456  -7.293 -42.006  0.00  0.00    +0.000 C 
ENDBRANCH  15  24
TORSDOF 5
ENDMDL
MODEL 6
REMARK VINA RESULT:    -5.003      3.310      6.283
REMARK INTER + INTRA:          -6.404
REMARK INTER:                  -6.137
REMARK INTRA:                  -0.268
REMARK UNBOUND:                -0.231
REMARK  Name = resultss/4CJN/ligands/lig_323_t0.pdb
REMARK  8 active torsions:
REMARK  status: ('A' for Active; 'I' for Inactive)
REMARK    1  A    between atoms: C1_1  and  O1_2
REMARK    2  A    between atoms: O1_2  and  C2_3
REMARK    3  A    between atoms: C4_5  and  O2_6
REMARK    4  A    between atoms: C8_11  and  O4_12
REMARK    5  A    between atoms: O4_12  and  C9_13
REMARK    6  A    between atoms: C11_15  and  O5_16
REMARK    7  A    between atoms: C15_21  and  O7_22
REMARK    8  A    between atoms: O7_22  and  C16_23
REMARK                            x       y       z     vdW  Elec       q    Type
REMARK                         _______ _______ _______ _____ _____    ______ ____
ROOT
ATOM      1  C2  UNL     1      27.023  -9.019 -40.345  0.00  0.00    +0.000 A 
ATOM      2  C3  UNL     1      25.622  -9.110 -40.360  0.00  0.00    +0.000 A 
ATOM      3  C4  UNL     1      24.881  -8.824 -41.508  0.00  0.00    +0.000 A 
ATOM      4  C5  UNL     1      25.541  -8.348 -42.674  0.00  0.00    +0.000 A 
ATOM      5  C6  UNL     1      24.873  -7.894 -43.839  0.00  0.00    +0.000 A 
ATOM      6  O3  UNL     1      23.616  -7.795 -43.857  0.00  0.00    +0.000 OA
ATOM      7  C7  UNL     1      25.619  -7.506 -44.975  0.00  0.00    +0.000 A 
ATOM      8  C8  UNL     1      25.018  -7.088 -46.192  0.00  0.00    +0.000 A 
ATOM      9  C10 UNL     1      25.841  -6.711 -47.274  0.00  0.00    +0.000 A 
ATOM     10  C11 UNL     1      27.231  -6.745 -47.160  0.00  0.00    +0.000 A 
ATOM     11  C12 UNL     1      27.821  -7.155 -45.963  0.00  0.00    +0.000 A 
ATOM     12  C13 UNL     1      27.028  -7.531 -44.877  0.00  0.00    +0.000 A 
ATOM     13  O6  UNL     1      27.620  -7.899 -43.751  0.00  0.00    +0.000 OA
ATOM     14  C14 UNL     1      26.958  -8.287 -42.667  0.00  0.00    +0.000 A 
ATOM     15  C15 UNL     1      27.698  -8.622 -41.523  0.00  0.00    +0.000 A 
ENDROOT
BRANCH   1  17
ATOM     16  C1  UNL     1      27.189  -9.522 -37.892  0.00  0.00    +0.000 C 
ATOM     17  O1  UNL     1      27.753  -9.323 -39.185  0.00  0.00    +0.000 OA
ENDBRANCH   1  17
BRANCH   3  18
ATOM     18  O2  UNL     1      23.505  -9.061 -41.436  0.00  0.00    +0.000 OA
ATOM     19  H5  UNL     1      22.827  -8.398 -41.089  0.00  0.00    +0.000 HD
ENDBRANCH   3  18
BRANCH   8  20
ATOM     20  O4  UNL     1      23.616  -7.059 -46.307  0.00  0.00    +0.000 OA
ATOM     21  C9  UNL     1      22.872  -7.670 -47.357  0.00  0.00    +0.000 C 
ENDBRANCH   8  20
BRANCH  10  22
ATOM     22  O5  UNL     1      28.018  -6.369 -48.246  0.00  0.00    +0.000 OA
ATOM     23  H10 UNL     1      28.727  -5.649 -48.163  0.00  0.00    +0.000 HD
ENDBRANCH  10  22
BRANCH  15  24
ATOM     24  O7  UNL     1      29.100  -8.527 -41.626  0.00  0.00    +0.000 OA
ATOM     25  C16 UNL     1      30.010  -9.597 -41.856  0.00  0.00    +0.000 C 
ENDBRANCH  15  24
TORSDOF 5
ENDMDL
MODEL 7
REMARK VINA RESULT:    -4.975      2.193      6.693
REMARK INTER + INTRA:          -6.370
REMARK INTER:                  -6.111
REMARK INTRA:                  -0.259
REMARK UNBOUND:                -0.231
REMARK  Name = resultss/4CJN/ligands/lig_323_t0.pdb
REMARK  8 active torsions:
REMARK  status: ('A' for Active; 'I' for Inactive)
REMARK    1  A    between atoms: C1_1  and  O1_2
REMARK    2  A    between atoms: O1_2  and  C2_3
REMARK    3  A    between atoms: C4_5  and  O2_6
REMARK    4  A    between atoms: C8_11  and  O4_12
REMARK    5  A    between atoms: O4_12  and  C9_13
REMARK    6  A    between atoms: C11_15  and  O5_16
REMARK    7  A    between atoms: C15_21  and  O7_22
REMARK    8  A    between atoms: O7_22  and  C16_23
REMARK                            x       y       z     vdW  Elec       q    Type
REMARK                         _______ _______ _______ _____ _____    ______ ____
ROOT
ATOM      1  C2  UNL     1      25.640  -8.918 -39.057  0.00  0.00    +0.000 A 
ATOM      2  C3  UNL     1      26.803  -9.605 -39.440  0.00  0.00    +0.000 A 
ATOM      3  C4  UNL     1      27.812  -9.907 -38.524  0.00  0.00    +0.000 A 
ATOM      4  C5  UNL     1      27.709  -9.444 -37.183  0.00  0.00    +0.000 A 
ATOM      5  C6  UNL     1      28.737  -9.572 -36.215  0.00  0.00    +0.000 A 
ATOM      6  O3  UNL     1      29.866 -10.029 -36.539  0.00  0.00    +0.000 OA
ATOM      7  C7  UNL     1      28.513  -9.143 -34.887  0.00  0.00    +0.000 A 
ATOM      8  C8  UNL     1      29.478  -9.284 -33.853  0.00  0.00    +0.000 A 
ATOM      9  C10 UNL     1      29.171  -8.820 -32.557  0.00  0.00    +0.000 A 
ATOM     10  C11 UNL     1      27.938  -8.229 -32.282  0.00  0.00    +0.000 A 
ATOM     11  C12 UNL     1      26.991  -8.090 -33.298  0.00  0.00    +0.000 A 
ATOM     12  C13 UNL     1      27.271  -8.538 -34.590  0.00  0.00    +0.000 A 
ATOM     13  O6  UNL     1      26.357  -8.376 -35.535  0.00  0.00    +0.000 OA
ATOM     14  C14 UNL     1      26.519  -8.779 -36.790  0.00  0.00    +0.000 A 
ATOM     15  C15 UNL     1      25.490  -8.520 -37.708  0.00  0.00    +0.000 A 
ENDROOT
BRANCH   1  17
ATOM     16  C1  UNL     1      24.546  -9.187 -41.300  0.00  0.00    +0.000 C 
ATOM     17  O1  UNL     1      24.630  -8.633 -39.990  0.00  0.00    +0.000 OA
ENDBRANCH   1  17
BRANCH   3  18
ATOM     18  O2  UNL     1      28.867 -10.693 -38.995  0.00  0.00    +0.000 OA
ATOM     19  H5  UNL     1      28.755 -11.585 -39.455  0.00  0.00    +0.000 HD
ENDBRANCH   3  18
BRANCH   8  20
ATOM     20  O4  UNL     1      30.718  -9.886 -34.131  0.00  0.00    +0.000 OA
ATOM     21  C9  UNL     1      31.980  -9.392 -33.693  0.00  0.00    +0.000 C 
ENDBRANCH   8  20
BRANCH  10  22
ATOM     22  O5  UNL     1      27.663  -7.782 -30.991  0.00  0.00    +0.000 OA
ATOM     23  H10 UNL     1      27.794  -8.382 -30.184  0.00  0.00    +0.000 HD
ENDBRANCH  10  22
BRANCH  15  24
ATOM     24  O7  UNL     1      24.352  -7.855 -37.211  0.00  0.00    +0.000 OA
ATOM     25  C16 UNL     1      24.062  -6.466 -37.322  0.00  0.00    +0.000 C 
ENDBRANCH  15  24
TORSDOF 5
ENDMDL
MODEL 8
REMARK VINA RESULT:    -4.924      1.797      5.942
REMARK INTER + INTRA:          -6.306
REMARK INTER:                  -6.050
REMARK INTRA:                  -0.256
REMARK UNBOUND:                -0.231
REMARK  Name = resultss/4CJN/ligands/lig_323_t0.pdb
REMARK  8 active torsions:
REMARK  status: ('A' for Active; 'I' for Inactive)
REMARK    1  A    between atoms: C1_1  and  O1_2
REMARK    2  A    between atoms: O1_2  and  C2_3
REMARK    3  A    between atoms: C4_5  and  O2_6
REMARK    4  A    between atoms: C8_11  and  O4_12
REMARK    5  A    between atoms: O4_12  and  C9_13
REMARK    6  A    between atoms: C11_15  and  O5_16
REMARK    7  A    between atoms: C15_21  and  O7_22
REMARK    8  A    between atoms: O7_22  and  C16_23
REMARK                            x       y       z     vdW  Elec       q    Type
REMARK                         _______ _______ _______ _____ _____    ______ ____
ROOT
ATOM      1  C2  UNL     1      26.063  -9.628 -40.438  0.00  0.00    +0.000 A 
ATOM      2  C3  UNL     1      24.980  -8.943 -39.864  0.00  0.00    +0.000 A 
ATOM      3  C4  UNL     1      25.001  -8.522 -38.533  0.00  0.00    +0.000 A 
ATOM      4  C5  UNL     1      26.106  -8.861 -37.704  0.00  0.00    +0.000 A 
ATOM      5  C6  UNL     1      26.162  -8.610 -36.310  0.00  0.00    +0.000 A 
ATOM      6  O3  UNL     1      25.159  -8.148 -35.703  0.00  0.00    +0.000 OA
ATOM      7  C7  UNL     1      27.335  -8.919 -35.583  0.00  0.00    +0.000 A 
ATOM      8  C8  UNL     1      27.481  -8.650 -34.196  0.00  0.00    +0.000 A 
ATOM      9  C10 UNL     1      28.685  -9.000 -33.550  0.00  0.00    +0.000 A 
ATOM     10  C11 UNL     1      29.726  -9.603 -34.256  0.00  0.00    +0.000 A 
ATOM     11  C12 UNL     1      29.581  -9.868 -35.618  0.00  0.00    +0.000 A 
ATOM     12  C13 UNL     1      28.399  -9.533 -36.280  0.00  0.00    +0.000 A 
ATOM     13  O6  UNL     1      28.287  -9.814 -37.570  0.00  0.00    +0.000 OA
ATOM     14  C14 UNL     1      27.212  -9.525 -38.293  0.00  0.00    +0.000 A 
ATOM     15  C15 UNL     1      27.201  -9.902 -39.645  0.00  0.00    +0.000 A 
ENDROOT
BRANCH   1  17
ATOM     16  C1  UNL     1      25.497  -9.261 -42.856  0.00  0.00    +0.000 C 
ATOM     17  O1  UNL     1      26.028 -10.032 -41.783  0.00  0.00    +0.000 OA
ENDBRANCH   1  17
BRANCH   3  18
ATOM     18  O2  UNL     1      23.917  -7.750 -38.106  0.00  0.00    +0.000 OA
ATOM     19  H5  UNL     1      23.050  -8.127 -37.753  0.00  0.00    +0.000 HD
ENDBRANCH   3  18
BRANCH   8  20
ATOM     20  O4  UNL     1      26.433  -8.036 -33.487  0.00  0.00    +0.000 OA
ATOM     21  C9  UNL     1      26.513  -6.765 -32.851  0.00  0.00    +0.000 C 
ENDBRANCH   8  20
BRANCH  10  22
ATOM     22  O5  UNL     1      30.905  -9.935 -33.590  0.00  0.00    +0.000 OA
ATOM     23  H10 UNL     1      31.277 -10.878 -33.610  0.00  0.00    +0.000 HD
ENDBRANCH  10  22
BRANCH  15  24
ATOM     24  O7  UNL     1      28.351 -10.555 -40.129  0.00  0.00    +0.000 OA
ATOM     25  C16 UNL     1      29.425  -9.963 -40.853  0.00  0.00    +0.000 C 
ENDBRANCH  15  24
TORSDOF 5
ENDMDL
MODEL 9
REMARK VINA RESULT:    -4.542      3.479      7.300
REMARK INTER + INTRA:          -5.835
REMARK INTER:                  -5.564
REMARK INTRA:                  -0.271
REMARK UNBOUND:                -0.231
REMARK  Name = resultss/4CJN/ligands/lig_323_t0.pdb
REMARK  8 active torsions:
REMARK  status: ('A' for Active; 'I' for Inactive)
REMARK    1  A    between atoms: C1_1  and  O1_2
REMARK    2  A    between atoms: O1_2  and  C2_3
REMARK    3  A    between atoms: C4_5  and  O2_6
REMARK    4  A    between atoms: C8_11  and  O4_12
REMARK    5  A    between atoms: O4_12  and  C9_13
REMARK    6  A    between atoms: C11_15  and  O5_16
REMARK    7  A    between atoms: C15_21  and  O7_22
REMARK    8  A    between atoms: O7_22  and  C16_23
REMARK                            x       y       z     vdW  Elec       q    Type
REMARK                         _______ _______ _______ _____ _____    ______ ____
ROOT
ATOM      1  C2  UNL     1      26.811  -9.123 -41.466  0.00  0.00    +0.000 A 
ATOM      2  C3  UNL     1      27.437  -8.772 -42.673  0.00  0.00    +0.000 A 
ATOM      3  C4  UNL     1      26.736  -8.156 -43.711  0.00  0.00    +0.000 A 
ATOM      4  C5  UNL     1      25.334  -7.948 -43.588  0.00  0.00    +0.000 A 
ATOM      5  C6  UNL     1      24.507  -7.465 -44.634  0.00  0.00    +0.000 A 
ATOM      6  O3  UNL     1      24.975  -7.287 -45.790  0.00  0.00    +0.000 OA
ATOM      7  C7  UNL     1      23.135  -7.223 -44.393  0.00  0.00    +0.000 A 
ATOM      8  C8  UNL     1      22.256  -6.693 -45.376  0.00  0.00    +0.000 A 
ATOM      9  C10 UNL     1      20.899  -6.491 -45.050  0.00  0.00    +0.000 A 
ATOM     10  C11 UNL     1      20.415  -6.803 -43.779  0.00  0.00    +0.000 A 
ATOM     11  C12 UNL     1      21.278  -7.323 -42.814  0.00  0.00    +0.000 A 
ATOM     12  C13 UNL     1      22.626  -7.535 -43.113  0.00  0.00    +0.000 A 
ATOM     13  O6  UNL     1      23.414  -8.046 -42.179  0.00  0.00    +0.000 OA
ATOM     14  C14 UNL     1      24.710  -8.273 -42.358  0.00  0.00    +0.000 A 
ATOM     15  C15 UNL     1      25.434  -8.849 -41.302  0.00  0.00    +0.000 A 
ENDROOT
BRANCH   1  17
ATOM     16  C1  UNL     1      27.665 -11.136 -40.232  0.00  0.00    +0.000 C 
ATOM     17  O1  UNL     1      27.537  -9.731 -40.429  0.00  0.00    +0.000 OA
ENDBRANCH   1  17
BRANCH   3  18
ATOM     18  O2  UNL     1      27.488  -7.749 -44.817  0.00  0.00    +0.000 OA
ATOM     19  H5  UNL     1      27.591  -8.283 -45.667  0.00  0.00    +0.000 HD
ENDBRANCH   3  18
BRANCH   8  20
ATOM     20  O4  UNL     1      22.747  -6.374 -46.654  0.00  0.00    +0.000 OA
ATOM     21  C9  UNL     1      22.214  -6.867 -47.879  0.00  0.00    +0.000 C 
ENDBRANCH   8  20
BRANCH  10  22
ATOM     22  O5  UNL     1      19.070  -6.589 -43.486  0.00  0.00    +0.000 OA
ATOM     23  H10 UNL     1      18.783  -5.980 -42.728  0.00  0.00    +0.000 HD
ENDBRANCH  10  22
BRANCH  15  24
ATOM     24  O7  UNL     1      24.717  -9.132 -40.123  0.00  0.00    +0.000 OA
ATOM     25  C16 UNL     1      24.838  -8.464 -38.872  0.00  0.00    +0.000 C 
ENDBRANCH  15  24
TORSDOF 5
ENDMDL
