MODEL 1
REMARK VINA RESULT:    -5.451      0.000      0.000
REMARK INTER + INTRA:          -7.559
REMARK INTER:                  -7.044
REMARK INTRA:                  -0.515
REMARK UNBOUND:                -0.515
REMARK  Name = resultss/4CJN/ligands/lig_286_t1.pdb
REMARK  8 active torsions:
REMARK  status: ('A' for Active; 'I' for Inactive)
REMARK    1  A    between atoms: C4_5  and  O2_6
REMARK    2  A    between atoms: C5_7  and  O3_8
REMARK    3  A    between atoms: C11_16  and  C12_17
REMARK    4  A    between atoms: C13_19  and  C14_20
REMARK    5  A    between atoms: C14_20  and  O7_21
REMARK    6  A    between atoms: C15_22  and  O8_23
REMARK    7  A    between atoms: C16_24  and  O9_25
REMARK    8  A    between atoms: C17_26  and  O10_27
REMARK                            x       y       z     vdW  Elec       q    Type
REMARK                         _______ _______ _______ _____ _____    ______ ____
ROOT
ATOM      1  O1  UNL     1      28.538  -6.207 -37.199  0.00  0.00    +0.000 OA
ATOM      2  C1  UNL     1      28.547  -7.459 -37.042  0.00  0.00    +0.000 A 
ATOM      3  C2  UNL     1      28.867  -8.007 -35.788  0.00  0.00    +0.000 A 
ATOM      4  C3  UNL     1      29.192  -7.203 -34.680  0.00  0.00    +0.000 A 
ATOM      5  C4  UNL     1      29.502  -7.792 -33.446  0.00  0.00    +0.000 A 
ATOM      6  C5  UNL     1      29.489  -9.186 -33.312  0.00  0.00    +0.000 A 
ATOM      7  C6  UNL     1      29.165  -9.990 -34.412  0.00  0.00    +0.000 A 
ATOM      8  C7  UNL     1      28.855  -9.410 -35.646  0.00  0.00    +0.000 A 
ATOM      9  O4  UNL     1      28.551 -10.187 -36.677  0.00  0.00    +0.000 OA
ATOM     10  C8  UNL     1      28.248  -9.713 -37.882  0.00  0.00    +0.000 A 
ATOM     11  C9  UNL     1      27.916 -10.713 -38.958  0.00  0.00    +0.000 C 
ATOM     12  C10 UNL     1      27.858 -10.093 -40.327  0.00  0.00    +0.000 C 
ATOM     13  O5  UNL     1      28.206 -10.743 -41.302  0.00  0.00    +0.000 OA
ATOM     14  C11 UNL     1      27.288  -8.710 -40.511  0.00  0.00    +0.000 C 
ATOM     15  C18 UNL     1      27.889  -7.801 -39.470  0.00  0.00    +0.000 C 
ATOM     16  O11 UNL     1      28.076  -6.587 -39.757  0.00  0.00    +0.000 OA
ATOM     17  C19 UNL     1      28.229  -8.318 -38.115  0.00  0.00    +0.000 A 
ENDROOT
BRANCH  14  18
ATOM     18  C12 UNL     1      25.737  -8.702 -40.408  0.00  0.00    +0.000 C 
ATOM     19  O6  UNL     1      25.264  -7.409 -40.023  0.00  0.00    +0.000 OA
ATOM     20  C13 UNL     1      24.702  -6.611 -41.060  0.00  0.00    +0.000 C 
ATOM     21  C15 UNL     1      23.540  -7.306 -41.826  0.00  0.00    +0.000 C 
ATOM     22  C16 UNL     1      23.581  -8.835 -41.686  0.00  0.00    +0.000 C 
ATOM     23  C17 UNL     1      25.034  -9.313 -41.651  0.00  0.00    +0.000 C 
BRANCH  21  24
ATOM     24  O8  UNL     1      22.308  -6.828 -41.345  0.00  0.00    +0.000 OA
ATOM     25  H14 UNL     1      21.774  -7.620 -41.077  0.00  0.00    +0.000 HD
ENDBRANCH  21  24
BRANCH  22  26
ATOM     26  O9  UNL     1      22.900  -9.416 -42.770  0.00  0.00    +0.000 OA
ATOM     27  H16 UNL     1      23.385  -9.149 -43.594  0.00  0.00    +0.000 HD
ENDBRANCH  22  26
BRANCH  23  28
ATOM     28  O10 UNL     1      25.064 -10.716 -41.564  0.00  0.00    +0.000 OA
ATOM     29  H18 UNL     1      25.613 -10.950 -40.770  0.00  0.00    +0.000 HD
ENDBRANCH  23  28
BRANCH  20  30
ATOM     30  C14 UNL     1      25.773  -6.021 -42.002  0.00  0.00    +0.000 C 
BRANCH  30  31
ATOM     31  O7  UNL     1      25.413  -6.204 -43.344  0.00  0.00    +0.000 OA
ATOM     32  H12 UNL     1      24.437  -6.384 -43.355  0.00  0.00    +0.000 HD
ENDBRANCH  30  31
ENDBRANCH  20  30
ENDBRANCH  14  18
BRANCH   5  33
ATOM     33  O2  UNL     1      29.824  -6.997 -32.347  0.00  0.00    +0.000 OA
ATOM     34  H2  UNL     1      29.271  -6.186 -32.098  0.00  0.00    +0.000 HD
ENDBRANCH   5  33
BRANCH   6  35
ATOM     35  O3  UNL     1      29.798  -9.764 -32.082  0.00  0.00    +0.000 OA
ATOM     36  H3  UNL     1      29.613  -9.284 -31.208  0.00  0.00    +0.000 HD
ENDBRANCH   6  35
TORSDOF 8
ENDMDL
MODEL 2
REMARK VINA RESULT:    -5.381      3.349      7.598
REMARK INTER + INTRA:          -7.468
REMARK INTER:                  -6.719
REMARK INTRA:                  -0.749
REMARK UNBOUND:                -0.515
REMARK  Name = resultss/4CJN/ligands/lig_286_t1.pdb
REMARK  8 active torsions:
REMARK  status: ('A' for Active; 'I' for Inactive)
REMARK    1  A    between atoms: C4_5  and  O2_6
REMARK    2  A    between atoms: C5_7  and  O3_8
REMARK    3  A    between atoms: C11_16  and  C12_17
REMARK    4  A    between atoms: C13_19  and  C14_20
REMARK    5  A    between atoms: C14_20  and  O7_21
REMARK    6  A    between atoms: C15_22  and  O8_23
REMARK    7  A    between atoms: C16_24  and  O9_25
REMARK    8  A    between atoms: C17_26  and  O10_27
REMARK                            x       y       z     vdW  Elec       q    Type
REMARK                         _______ _______ _______ _____ _____    ______ ____
ROOT
ATOM      1  O1  UNL     1      32.509  -8.976 -40.188  0.00  0.00    +0.000 OA
ATOM      2  C1  UNL     1      31.520  -9.588 -40.680  0.00  0.00    +0.000 A 
ATOM      3  C2  UNL     1      31.710 -10.489 -41.741  0.00  0.00    +0.000 A 
ATOM      4  C3  UNL     1      32.979 -10.737 -42.295  0.00  0.00    +0.000 A 
ATOM      5  C4  UNL     1      33.123 -11.648 -43.353  0.00  0.00    +0.000 A 
ATOM      6  C5  UNL     1      32.001 -12.314 -43.861  0.00  0.00    +0.000 A 
ATOM      7  C6  UNL     1      30.735 -12.070 -43.312  0.00  0.00    +0.000 A 
ATOM      8  C7  UNL     1      30.585 -11.163 -42.258  0.00  0.00    +0.000 A 
ATOM      9  O4  UNL     1      29.379 -10.945 -41.751  0.00  0.00    +0.000 OA
ATOM     10  C8  UNL     1      29.152 -10.097 -40.751  0.00  0.00    +0.000 A 
ATOM     11  C9  UNL     1      27.732  -9.954 -40.271  0.00  0.00    +0.000 C 
ATOM     12  C10 UNL     1      27.549  -8.788 -39.339  0.00  0.00    +0.000 C 
ATOM     13  O5  UNL     1      26.497  -8.168 -39.342  0.00  0.00    +0.000 OA
ATOM     14  C11 UNL     1      28.624  -8.439 -38.340  0.00  0.00    +0.000 C 
ATOM     15  C18 UNL     1      29.955  -8.434 -39.049  0.00  0.00    +0.000 C 
ATOM     16  O11 UNL     1      30.847  -7.632 -38.662  0.00  0.00    +0.000 OA
ATOM     17  C19 UNL     1      30.223  -9.381 -40.167  0.00  0.00    +0.000 A 
ENDROOT
BRANCH  14  18
ATOM     18  C12 UNL     1      28.650  -9.431 -37.144  0.00  0.00    +0.000 C 
ATOM     19  O6  UNL     1      29.907  -9.372 -36.467  0.00  0.00    +0.000 OA
ATOM     20  C13 UNL     1      29.925  -8.660 -35.234  0.00  0.00    +0.000 C 
ATOM     21  C15 UNL     1      28.881  -9.172 -34.200  0.00  0.00    +0.000 C 
ATOM     22  C16 UNL     1      27.731  -9.944 -34.865  0.00  0.00    +0.000 C 
ATOM     23  C17 UNL     1      27.404  -9.316 -36.222  0.00  0.00    +0.000 C 
BRANCH  21  24
ATOM     24  O8  UNL     1      29.518 -10.005 -33.263  0.00  0.00    +0.000 OA
ATOM     25  H14 UNL     1      30.286 -10.429 -33.727  0.00  0.00    +0.000 HD
ENDBRANCH  21  24
BRANCH  22  26
ATOM     26  O9  UNL     1      26.604  -9.906 -34.025  0.00  0.00    +0.000 OA
ATOM     27  H16 UNL     1      26.356 -10.848 -33.829  0.00  0.00    +0.000 HD
ENDBRANCH  22  26
BRANCH  23  28
ATOM     28  O10 UNL     1      26.324 -10.001 -36.807  0.00  0.00    +0.000 OA
ATOM     29  H18 UNL     1      26.357  -9.822 -37.784  0.00  0.00    +0.000 HD
ENDBRANCH  23  28
BRANCH  20  30
ATOM     30  C14 UNL     1      29.874  -7.130 -35.429  0.00  0.00    +0.000 C 
BRANCH  30  31
ATOM     31  O7  UNL     1      31.068  -6.660 -35.995  0.00  0.00    +0.000 OA
ATOM     32  H12 UNL     1      31.487  -7.432 -36.459  0.00  0.00    +0.000 HD
ENDBRANCH  30  31
ENDBRANCH  20  30
ENDBRANCH  14  18
BRANCH   5  33
ATOM     33  O2  UNL     1      34.380 -11.895 -43.903  0.00  0.00    +0.000 OA
ATOM     34  H2  UNL     1      34.608 -12.788 -44.324  0.00  0.00    +0.000 HD
ENDBRANCH   5  33
BRANCH   6  35
ATOM     35  O3  UNL     1      32.152 -13.217 -44.912  0.00  0.00    +0.000 OA
ATOM     36  H3  UNL     1      32.872 -13.097 -45.615  0.00  0.00    +0.000 HD
ENDBRANCH   6  35
TORSDOF 8
ENDMDL
MODEL 3
REMARK VINA RESULT:    -5.374      3.212      4.089
REMARK INTER + INTRA:          -7.460
REMARK INTER:                  -6.958
REMARK INTRA:                  -0.503
REMARK UNBOUND:                -0.515
REMARK  Name = resultss/4CJN/ligands/lig_286_t1.pdb
REMARK  8 active torsions:
REMARK  status: ('A' for Active; 'I' for Inactive)
REMARK    1  A    between atoms: C4_5  and  O2_6
REMARK    2  A    between atoms: C5_7  and  O3_8
REMARK    3  A    between atoms: C11_16  and  C12_17
REMARK    4  A    between atoms: C13_19  and  C14_20
REMARK    5  A    between atoms: C14_20  and  O7_21
REMARK    6  A    between atoms: C15_22  and  O8_23
REMARK    7  A    between atoms: C16_24  and  O9_25
REMARK    8  A    between atoms: C17_26  and  O10_27
REMARK                            x       y       z     vdW  Elec       q    Type
REMARK                         _______ _______ _______ _____ _____    ______ ____
ROOT
ATOM      1  O1  UNL     1      26.160  -5.883 -35.963  0.00  0.00    +0.000 OA
ATOM      2  C1  UNL     1      26.222  -7.102 -35.641  0.00  0.00    +0.000 A 
ATOM      3  C2  UNL     1      25.388  -7.602 -34.626  0.00  0.00    +0.000 A 
ATOM      4  C3  UNL     1      24.476  -6.784 -33.935  0.00  0.00    +0.000 A 
ATOM      5  C4  UNL     1      23.661  -7.326 -32.930  0.00  0.00    +0.000 A 
ATOM      6  C5  UNL     1      23.753  -8.687 -32.612  0.00  0.00    +0.000 A 
ATOM      7  C6  UNL     1      24.660  -9.505 -33.298  0.00  0.00    +0.000 A 
ATOM      8  C7  UNL     1      25.476  -8.971 -34.300  0.00  0.00    +0.000 A 
ATOM      9  O4  UNL     1      26.329  -9.761 -34.939  0.00  0.00    +0.000 OA
ATOM     10  C8  UNL     1      27.140  -9.329 -35.901  0.00  0.00    +0.000 A 
ATOM     11  C9  UNL     1      28.051 -10.340 -36.545  0.00  0.00    +0.000 C 
ATOM     12  C10 UNL     1      29.102  -9.704 -37.413  0.00  0.00    +0.000 C 
ATOM     13  O5  UNL     1      30.208 -10.215 -37.501  0.00  0.00    +0.000 OA
ATOM     14  C11 UNL     1      28.767  -8.490 -38.244  0.00  0.00    +0.000 C 
ATOM     15  C18 UNL     1      28.031  -7.502 -37.375  0.00  0.00    +0.000 C 
ATOM     16  O11 UNL     1      28.183  -6.270 -37.594  0.00  0.00    +0.000 OA
ATOM     17  C19 UNL     1      27.117  -7.972 -36.297  0.00  0.00    +0.000 A 
ENDROOT
BRANCH  14  18
ATOM     18  C12 UNL     1      27.914  -8.857 -39.490  0.00  0.00    +0.000 C 
ATOM     19  O6  UNL     1      27.143  -7.734 -39.922  0.00  0.00    +0.000 OA
ATOM     20  C13 UNL     1      27.625  -7.046 -41.073  0.00  0.00    +0.000 C 
ATOM     21  C15 UNL     1      27.821  -7.962 -42.315  0.00  0.00    +0.000 C 
ATOM     22  C16 UNL     1      27.968  -9.442 -41.931  0.00  0.00    +0.000 C 
ATOM     23  C17 UNL     1      28.731  -9.560 -40.610  0.00  0.00    +0.000 C 
BRANCH  21  24
ATOM     24  O8  UNL     1      26.726  -7.814 -43.184  0.00  0.00    +0.000 OA
ATOM     25  H14 UNL     1      26.603  -8.683 -43.647  0.00  0.00    +0.000 HD
ENDBRANCH  21  24
BRANCH  22  26
ATOM     26  O9  UNL     1      28.655 -10.118 -42.955  0.00  0.00    +0.000 OA
ATOM     27  H16 UNL     1      29.130 -10.880 -42.531  0.00  0.00    +0.000 HD
ENDBRANCH  22  26
BRANCH  23  28
ATOM     28  O10 UNL     1      28.898 -10.919 -40.285  0.00  0.00    +0.000 OA
ATOM     29  H18 UNL     1      28.124 -11.410 -40.669  0.00  0.00    +0.000 HD
ENDBRANCH  23  28
BRANCH  20  30
ATOM     30  C14 UNL     1      28.862  -6.175 -40.769  0.00  0.00    +0.000 C 
BRANCH  30  31
ATOM     31  O7  UNL     1      29.888  -6.425 -41.691  0.00  0.00    +0.000 OA
ATOM     32  H12 UNL     1      29.515  -6.232 -42.591  0.00  0.00    +0.000 HD
ENDBRANCH  30  31
ENDBRANCH  20  30
ENDBRANCH  14  18
BRANCH   5  33
ATOM     33  O2  UNL     1      22.756  -6.518 -32.244  0.00  0.00    +0.000 OA
ATOM     34  H2  UNL     1      22.961  -6.156 -31.321  0.00  0.00    +0.000 HD
ENDBRANCH   5  33
BRANCH   6  35
ATOM     35  O3  UNL     1      22.939  -9.219 -31.612  0.00  0.00    +0.000 OA
ATOM     36  H3  UNL     1      22.076  -9.701 -31.832  0.00  0.00    +0.000 HD
ENDBRANCH   6  35
TORSDOF 8
ENDMDL
MODEL 4
REMARK VINA RESULT:    -5.337      2.399      8.115
REMARK INTER + INTRA:          -7.412
REMARK INTER:                  -6.767
REMARK INTRA:                  -0.645
REMARK UNBOUND:                -0.515
REMARK  Name = resultss/4CJN/ligands/lig_286_t1.pdb
REMARK  8 active torsions:
REMARK  status: ('A' for Active; 'I' for Inactive)
REMARK    1  A    between atoms: C4_5  and  O2_6
REMARK    2  A    between atoms: C5_7  and  O3_8
REMARK    3  A    between atoms: C11_16  and  C12_17
REMARK    4  A    between atoms: C13_19  and  C14_20
REMARK    5  A    between atoms: C14_20  and  O7_21
REMARK    6  A    between atoms: C15_22  and  O8_23
REMARK    7  A    between atoms: C16_24  and  O9_25
REMARK    8  A    between atoms: C17_26  and  O10_27
REMARK                            x       y       z     vdW  Elec       q    Type
REMARK                         _______ _______ _______ _____ _____    ______ ____
ROOT
ATOM      1  O1  UNL     1      24.711  -9.465 -40.200  0.00  0.00    +0.000 OA
ATOM      2  C1  UNL     1      25.310  -9.207 -41.281  0.00  0.00    +0.000 A 
ATOM      3  C2  UNL     1      24.607  -8.626 -42.351  0.00  0.00    +0.000 A 
ATOM      4  C3  UNL     1      23.237  -8.322 -42.269  0.00  0.00    +0.000 A 
ATOM      5  C4  UNL     1      22.575  -7.740 -43.361  0.00  0.00    +0.000 A 
ATOM      6  C5  UNL     1      23.280  -7.460 -44.538  0.00  0.00    +0.000 A 
ATOM      7  C6  UNL     1      24.646  -7.761 -44.624  0.00  0.00    +0.000 A 
ATOM      8  C7  UNL     1      25.311  -8.341 -43.539  0.00  0.00    +0.000 A 
ATOM      9  O4  UNL     1      26.604  -8.620 -43.638  0.00  0.00    +0.000 OA
ATOM     10  C8  UNL     1      27.307  -9.174 -42.653  0.00  0.00    +0.000 A 
ATOM     11  C9  UNL     1      28.770  -9.427 -42.903  0.00  0.00    +0.000 C 
ATOM     12  C10 UNL     1      29.397 -10.292 -41.845  0.00  0.00    +0.000 C 
ATOM     13  O5  UNL     1      30.293 -11.067 -42.147  0.00  0.00    +0.000 OA
ATOM     14  C11 UNL     1      28.988 -10.143 -40.401  0.00  0.00    +0.000 C 
ATOM     15  C18 UNL     1      27.483 -10.110 -40.330  0.00  0.00    +0.000 C 
ATOM     16  O11 UNL     1      26.911 -10.594 -39.316  0.00  0.00    +0.000 OA
ATOM     17  C19 UNL     1      26.684  -9.489 -41.423  0.00  0.00    +0.000 A 
ENDROOT
BRANCH  14  18
ATOM     18  C12 UNL     1      29.590  -8.864 -39.756  0.00  0.00    +0.000 C 
ATOM     19  O6  UNL     1      28.765  -8.403 -38.685  0.00  0.00    +0.000 OA
ATOM     20  C13 UNL     1      29.229  -8.683 -37.368  0.00  0.00    +0.000 C 
ATOM     21  C15 UNL     1      30.667  -8.160 -37.085  0.00  0.00    +0.000 C 
ATOM     22  C16 UNL     1      31.470  -7.935 -38.375  0.00  0.00    +0.000 C 
ATOM     23  C17 UNL     1      31.098  -9.001 -39.408  0.00  0.00    +0.000 C 
BRANCH  21  24
ATOM     24  O8  UNL     1      30.594  -6.954 -36.366  0.00  0.00    +0.000 OA
ATOM     25  H14 UNL     1      30.413  -7.190 -35.420  0.00  0.00    +0.000 HD
ENDBRANCH  21  24
BRANCH  22  26
ATOM     26  O9  UNL     1      32.843  -7.997 -38.080  0.00  0.00    +0.000 OA
ATOM     27  H16 UNL     1      33.066  -8.953 -37.935  0.00  0.00    +0.000 HD
ENDBRANCH  22  26
BRANCH  23  28
ATOM     28  O10 UNL     1      31.867  -8.815 -40.571  0.00  0.00    +0.000 OA
ATOM     29  H18 UNL     1      32.820  -8.925 -40.314  0.00  0.00    +0.000 HD
ENDBRANCH  23  28
BRANCH  20  30
ATOM     30  C14 UNL     1      29.041 -10.164 -36.974  0.00  0.00    +0.000 C 
BRANCH  30  31
ATOM     31  O7  UNL     1      27.716 -10.413 -36.589  0.00  0.00    +0.000 OA
ATOM     32  H12 UNL     1      27.267  -9.530 -36.524  0.00  0.00    +0.000 HD
ENDBRANCH  30  31
ENDBRANCH  20  30
ENDBRANCH  14  18
BRANCH   5  33
ATOM     33  O2  UNL     1      21.217  -7.437 -43.283  0.00  0.00    +0.000 OA
ATOM     34  H2  UNL     1      20.527  -8.144 -43.056  0.00  0.00    +0.000 HD
ENDBRANCH   5  33
BRANCH   6  35
ATOM     35  O3  UNL     1      22.616  -6.882 -45.619  0.00  0.00    +0.000 OA
ATOM     36  H3  UNL     1      21.798  -7.315 -46.032  0.00  0.00    +0.000 HD
ENDBRANCH   6  35
TORSDOF 8
ENDMDL
MODEL 5
REMARK VINA RESULT:    -5.157      3.181      6.622
REMARK INTER + INTRA:          -7.179
REMARK INTER:                  -6.474
REMARK INTRA:                  -0.705
REMARK UNBOUND:                -0.515
REMARK  Name = resultss/4CJN/ligands/lig_286_t1.pdb
REMARK  8 active torsions:
REMARK  status: ('A' for Active; 'I' for Inactive)
REMARK    1  A    between atoms: C4_5  and  O2_6
REMARK    2  A    between atoms: C5_7  and  O3_8
REMARK    3  A    between atoms: C11_16  and  C12_17
REMARK    4  A    between atoms: C13_19  and  C14_20
REMARK    5  A    between atoms: C14_20  and  O7_21
REMARK    6  A    between atoms: C15_22  and  O8_23
REMARK    7  A    between atoms: C16_24  and  O9_25
REMARK    8  A    between atoms: C17_26  and  O10_27
REMARK                            x       y       z     vdW  Elec       q    Type
REMARK                         _______ _______ _______ _____ _____    ______ ____
ROOT
ATOM      1  O1  UNL     1      31.447  -8.290 -39.783  0.00  0.00    +0.000 OA
ATOM      2  C1  UNL     1      30.619  -8.898 -40.516  0.00  0.00    +0.000 A 
ATOM      3  C2  UNL     1      31.071  -9.853 -41.444  0.00  0.00    +0.000 A 
ATOM      4  C3  UNL     1      32.435 -10.160 -41.597  0.00  0.00    +0.000 A 
ATOM      5  C4  UNL     1      32.843 -11.122 -42.533  0.00  0.00    +0.000 A 
ATOM      6  C5  UNL     1      31.890 -11.782 -43.319  0.00  0.00    +0.000 A 
ATOM      7  C6  UNL     1      30.530 -11.480 -43.169  0.00  0.00    +0.000 A 
ATOM      8  C7  UNL     1      30.117 -10.521 -42.238  0.00  0.00    +0.000 A 
ATOM      9  O4  UNL     1      28.825 -10.248 -42.109  0.00  0.00    +0.000 OA
ATOM     10  C8  UNL     1      28.353  -9.349 -41.250  0.00  0.00    +0.000 A 
ATOM     11  C9  UNL     1      26.861  -9.148 -41.206  0.00  0.00    +0.000 C 
ATOM     12  C10 UNL     1      26.463  -7.935 -40.411  0.00  0.00    +0.000 C 
ATOM     13  O5  UNL     1      25.481  -7.289 -40.741  0.00  0.00    +0.000 OA
ATOM     14  C11 UNL     1      27.218  -7.567 -39.159  0.00  0.00    +0.000 C 
ATOM     15  C18 UNL     1      28.695  -7.630 -39.452  0.00  0.00    +0.000 C 
ATOM     16  O11 UNL     1      29.468  -6.834 -38.853  0.00  0.00    +0.000 OA
ATOM     17  C19 UNL     1      29.237  -8.634 -40.409  0.00  0.00    +0.000 A 
ENDROOT
BRANCH  14  18
ATOM     18  C12 UNL     1      26.861  -8.502 -37.969  0.00  0.00    +0.000 C 
ATOM     19  O6  UNL     1      27.920  -8.526 -37.011  0.00  0.00    +0.000 OA
ATOM     20  C13 UNL     1      27.712  -7.764 -35.825  0.00  0.00    +0.000 C 
ATOM     21  C15 UNL     1      26.407  -8.133 -35.063  0.00  0.00    +0.000 C 
ATOM     22  C16 UNL     1      25.379  -8.828 -35.969  0.00  0.00    +0.000 C 
ATOM     23  C17 UNL     1      25.449  -8.235 -37.379  0.00  0.00    +0.000 C 
BRANCH  21  24
ATOM     24  O8  UNL     1      26.718  -8.976 -33.982  0.00  0.00    +0.000 OA
ATOM     25  H14 UNL     1      27.657  -8.782 -33.723  0.00  0.00    +0.000 HD
ENDBRANCH  21  24
BRANCH  22  26
ATOM     26  O9  UNL     1      24.094  -8.652 -35.427  0.00  0.00    +0.000 OA
ATOM     27  H16 UNL     1      23.465  -8.568 -36.192  0.00  0.00    +0.000 HD
ENDBRANCH  22  26
BRANCH  23  28
ATOM     28  O10 UNL     1      24.477  -8.846 -38.192  0.00  0.00    +0.000 OA
ATOM     29  H18 UNL     1      24.593  -8.485 -39.110  0.00  0.00    +0.000 HD
ENDBRANCH  23  28
BRANCH  20  30
ATOM     30  C14 UNL     1      27.860  -6.246 -36.062  0.00  0.00    +0.000 C 
BRANCH  30  31
ATOM     31  O7  UNL     1      29.212  -5.883 -36.143  0.00  0.00    +0.000 OA
ATOM     32  H12 UNL     1      29.667  -6.303 -35.366  0.00  0.00    +0.000 HD
ENDBRANCH  30  31
ENDBRANCH  20  30
ENDBRANCH  14  18
BRANCH   5  33
ATOM     33  O2  UNL     1      34.194 -11.427 -42.687  0.00  0.00    +0.000 OA
ATOM     34  H2  UNL     1      34.682 -12.022 -42.029  0.00  0.00    +0.000 HD
ENDBRANCH   5  33
BRANCH   6  35
ATOM     35  O3  UNL     1      32.302 -12.737 -44.247  0.00  0.00    +0.000 OA
ATOM     36  H3  UNL     1      32.717 -12.471 -45.133  0.00  0.00    +0.000 HD
ENDBRANCH   6  35
TORSDOF 8
ENDMDL
MODEL 6
REMARK VINA RESULT:    -4.921      2.764      4.505
REMARK INTER + INTRA:          -6.874
REMARK INTER:                  -6.418
REMARK INTRA:                  -0.456
REMARK UNBOUND:                -0.515
REMARK  Name = resultss/4CJN/ligands/lig_286_t1.pdb
REMARK  8 active torsions:
REMARK  status: ('A' for Active; 'I' for Inactive)
REMARK    1  A    between atoms: C4_5  and  O2_6
REMARK    2  A    between atoms: C5_7  and  O3_8
REMARK    3  A    between atoms: C11_16  and  C12_17
REMARK    4  A    between atoms: C13_19  and  C14_20
REMARK    5  A    between atoms: C14_20  and  O7_21
REMARK    6  A    between atoms: C15_22  and  O8_23
REMARK    7  A    between atoms: C16_24  and  O9_25
REMARK    8  A    between atoms: C17_26  and  O10_27
REMARK                            x       y       z     vdW  Elec       q    Type
REMARK                         _______ _______ _______ _____ _____    ______ ____
ROOT
ATOM      1  O1  UNL     1      30.023 -10.039 -36.303  0.00  0.00    +0.000 OA
ATOM      2  C1  UNL     1      29.643  -9.468 -35.244  0.00  0.00    +0.000 A 
ATOM      3  C2  UNL     1      30.587  -9.086 -34.275  0.00  0.00    +0.000 A 
ATOM      4  C3  UNL     1      31.964  -9.324 -34.437  0.00  0.00    +0.000 A 
ATOM      5  C4  UNL     1      32.872  -8.923 -33.446  0.00  0.00    +0.000 A 
ATOM      6  C5  UNL     1      32.409  -8.281 -32.290  0.00  0.00    +0.000 A 
ATOM      7  C6  UNL     1      31.039  -8.041 -32.126  0.00  0.00    +0.000 A 
ATOM      8  C7  UNL     1      30.128  -8.439 -33.109  0.00  0.00    +0.000 A 
ATOM      9  O4  UNL     1      28.834  -8.204 -32.937  0.00  0.00    +0.000 OA
ATOM     10  C8  UNL     1      27.906  -8.554 -33.823  0.00  0.00    +0.000 A 
ATOM     11  C9  UNL     1      26.474  -8.216 -33.498  0.00  0.00    +0.000 C 
ATOM     12  C10 UNL     1      25.496  -8.888 -34.422  0.00  0.00    +0.000 C 
ATOM     13  O5  UNL     1      24.405  -9.238 -33.999  0.00  0.00    +0.000 OA
ATOM     14  C11 UNL     1      25.823  -9.050 -35.885  0.00  0.00    +0.000 C 
ATOM     15  C18 UNL     1      27.225  -9.588 -36.008  0.00  0.00    +0.000 C 
ATOM     16  O11 UNL     1      27.502 -10.351 -36.973  0.00  0.00    +0.000 OA
ATOM     17  C19 UNL     1      28.275  -9.201 -35.024  0.00  0.00    +0.000 A 
ENDROOT
BRANCH  14  18
ATOM     18  C12 UNL     1      25.685  -7.712 -36.663  0.00  0.00    +0.000 C 
ATOM     19  O6  UNL     1      26.550  -7.698 -37.800  0.00  0.00    +0.000 OA
ATOM     20  C13 UNL     1      25.931  -7.920 -39.064  0.00  0.00    +0.000 C 
ATOM     21  C15 UNL     1      24.766  -6.936 -39.373  0.00  0.00    +0.000 C 
ATOM     22  C16 UNL     1      24.185  -6.302 -38.099  0.00  0.00    +0.000 C 
ATOM     23  C17 UNL     1      24.210  -7.320 -36.957  0.00  0.00    +0.000 C 
BRANCH  21  24
ATOM     24  O8  UNL     1      25.224  -5.921 -40.230  0.00  0.00    +0.000 OA
ATOM     25  H14 UNL     1      24.976  -5.055 -39.814  0.00  0.00    +0.000 HD
ENDBRANCH  21  24
BRANCH  22  26
ATOM     26  O9  UNL     1      22.867  -5.884 -38.353  0.00  0.00    +0.000 OA
ATOM     27  H16 UNL     1      22.767  -5.817 -39.339  0.00  0.00    +0.000 HD
ENDBRANCH  22  26
BRANCH  23  28
ATOM     28  O10 UNL     1      23.639  -6.746 -35.807  0.00  0.00    +0.000 OA
ATOM     29  H18 UNL     1      22.856  -7.304 -35.559  0.00  0.00    +0.000 HD
ENDBRANCH  23  28
BRANCH  20  30
ATOM     30  C14 UNL     1      25.543  -9.397 -39.284  0.00  0.00    +0.000 C 
BRANCH  30  31
ATOM     31  O7  UNL     1      24.271  -9.498 -39.866  0.00  0.00    +0.000 OA
ATOM     32  H12 UNL     1      24.291 -10.294 -40.458  0.00  0.00    +0.000 HD
ENDBRANCH  30  31
ENDBRANCH  20  30
ENDBRANCH  14  18
BRANCH   5  33
ATOM     33  O2  UNL     1      34.237  -9.158 -33.604  0.00  0.00    +0.000 OA
ATOM     34  H2  UNL     1      34.908  -8.399 -33.617  0.00  0.00    +0.000 HD
ENDBRANCH   5  33
BRANCH   6  35
ATOM     35  O3  UNL     1      33.317  -7.885 -31.309  0.00  0.00    +0.000 OA
ATOM     36  H3  UNL     1      33.370  -6.924 -30.993  0.00  0.00    +0.000 HD
ENDBRANCH   6  35
TORSDOF 8
ENDMDL
MODEL 7
REMARK VINA RESULT:    -4.799      3.772      6.550
REMARK INTER + INTRA:          -6.717
REMARK INTER:                  -6.009
REMARK INTRA:                  -0.708
REMARK UNBOUND:                -0.515
REMARK  Name = resultss/4CJN/ligands/lig_286_t1.pdb
REMARK  8 active torsions:
REMARK  status: ('A' for Active; 'I' for Inactive)
REMARK    1  A    between atoms: C4_5  and  O2_6
REMARK    2  A    between atoms: C5_7  and  O3_8
REMARK    3  A    between atoms: C11_16  and  C12_17
REMARK    4  A    between atoms: C13_19  and  C14_20
REMARK    5  A    between atoms: C14_20  and  O7_21
REMARK    6  A    between atoms: C15_22  and  O8_23
REMARK    7  A    between atoms: C16_24  and  O9_25
REMARK    8  A    between atoms: C17_26  and  O10_27
REMARK                            x       y       z     vdW  Elec       q    Type
REMARK                         _______ _______ _______ _____ _____    ______ ____
ROOT
ATOM      1  O1  UNL     1      27.637  -9.033 -33.959  0.00  0.00    +0.000 OA
ATOM      2  C1  UNL     1      26.929  -8.855 -34.988  0.00  0.00    +0.000 A 
ATOM      3  C2  UNL     1      25.614  -8.374 -34.861  0.00  0.00    +0.000 A 
ATOM      4  C3  UNL     1      25.042  -8.082 -33.609  0.00  0.00    +0.000 A 
ATOM      5  C4  UNL     1      23.727  -7.601 -33.529  0.00  0.00    +0.000 A 
ATOM      6  C5  UNL     1      22.979  -7.407 -34.697  0.00  0.00    +0.000 A 
ATOM      7  C6  UNL     1      23.546  -7.695 -35.945  0.00  0.00    +0.000 A 
ATOM      8  C7  UNL     1      24.856  -8.176 -36.032  0.00  0.00    +0.000 A 
ATOM      9  O4  UNL     1      25.376  -8.444 -37.223  0.00  0.00    +0.000 OA
ATOM     10  C8  UNL     1      26.612  -8.906 -37.390  0.00  0.00    +0.000 A 
ATOM     11  C9  UNL     1      27.074  -9.158 -38.801  0.00  0.00    +0.000 C 
ATOM     12  C10 UNL     1      28.366  -9.926 -38.860  0.00  0.00    +0.000 C 
ATOM     13  O5  UNL     1      28.564 -10.710 -39.776  0.00  0.00    +0.000 OA
ATOM     14  C11 UNL     1      29.450  -9.666 -37.845  0.00  0.00    +0.000 C 
ATOM     15  C18 UNL     1      28.829  -9.648 -36.472  0.00  0.00    +0.000 C 
ATOM     16  O11 UNL     1      29.508 -10.057 -35.492  0.00  0.00    +0.000 OA
ATOM     17  C19 UNL     1      27.447  -9.129 -36.271  0.00  0.00    +0.000 A 
ENDROOT
BRANCH  14  18
ATOM     18  C12 UNL     1      30.196  -8.331 -38.121  0.00  0.00    +0.000 C 
ATOM     19  O6  UNL     1      30.798  -7.833 -36.925  0.00  0.00    +0.000 OA
ATOM     20  C13 UNL     1      32.206  -8.017 -36.807  0.00  0.00    +0.000 C 
ATOM     21  C15 UNL     1      33.017  -7.430 -37.997  0.00  0.00    +0.000 C 
ATOM     22  C16 UNL     1      32.158  -7.256 -39.259  0.00  0.00    +0.000 C 
ATOM     23  C17 UNL     1      31.141  -8.396 -39.352  0.00  0.00    +0.000 C 
BRANCH  21  24
ATOM     24  O8  UNL     1      33.557  -6.185 -37.628  0.00  0.00    +0.000 OA
ATOM     25  H14 UNL     1      34.540  -6.248 -37.749  0.00  0.00    +0.000 HD
ENDBRANCH  21  24
BRANCH  22  26
ATOM     26  O9  UNL     1      32.995  -7.254 -40.389  0.00  0.00    +0.000 OA
ATOM     27  H16 UNL     1      33.930  -7.305 -40.059  0.00  0.00    +0.000 HD
ENDBRANCH  22  26
BRANCH  23  28
ATOM     28  O10 UNL     1      30.386  -8.254 -40.531  0.00  0.00    +0.000 OA
ATOM     29  H18 UNL     1      30.741  -7.462 -41.014  0.00  0.00    +0.000 HD
ENDBRANCH  23  28
BRANCH  20  30
ATOM     30  C14 UNL     1      32.589  -9.476 -36.482  0.00  0.00    +0.000 C 
BRANCH  30  31
ATOM     31  O7  UNL     1      32.359  -9.763 -35.128  0.00  0.00    +0.000 OA
ATOM     32  H12 UNL     1      33.100 -10.354 -34.833  0.00  0.00    +0.000 HD
ENDBRANCH  30  31
ENDBRANCH  20  30
ENDBRANCH  14  18
BRANCH   5  33
ATOM     33  O2  UNL     1      23.157  -7.312 -32.290  0.00  0.00    +0.000 OA
ATOM     34  H2  UNL     1      22.254  -6.859 -32.213  0.00  0.00    +0.000 HD
ENDBRANCH   5  33
BRANCH   6  35
ATOM     35  O3  UNL     1      21.673  -6.928 -34.609  0.00  0.00    +0.000 OA
ATOM     36  H3  UNL     1      20.891  -7.444 -34.997  0.00  0.00    +0.000 HD
ENDBRANCH   6  35
TORSDOF 8
ENDMDL
MODEL 8
REMARK VINA RESULT:    -4.761      2.513      8.404
REMARK INTER + INTRA:          -6.667
REMARK INTER:                  -6.128
REMARK INTRA:                  -0.539
REMARK UNBOUND:                -0.515
REMARK  Name = resultss/4CJN/ligands/lig_286_t1.pdb
REMARK  8 active torsions:
REMARK  status: ('A' for Active; 'I' for Inactive)
REMARK    1  A    between atoms: C4_5  and  O2_6
REMARK    2  A    between atoms: C5_7  and  O3_8
REMARK    3  A    between atoms: C11_16  and  C12_17
REMARK    4  A    between atoms: C13_19  and  C14_20
REMARK    5  A    between atoms: C14_20  and  O7_21
REMARK    6  A    between atoms: C15_22  and  O8_23
REMARK    7  A    between atoms: C16_24  and  O9_25
REMARK    8  A    between atoms: C17_26  and  O10_27
REMARK                            x       y       z     vdW  Elec       q    Type
REMARK                         _______ _______ _______ _____ _____    ______ ____
ROOT
ATOM      1  O1  UNL     1      23.895  -8.167 -41.992  0.00  0.00    +0.000 OA
ATOM      2  C1  UNL     1      24.929  -8.154 -42.716  0.00  0.00    +0.000 A 
ATOM      3  C2  UNL     1      24.881  -7.580 -43.998  0.00  0.00    +0.000 A 
ATOM      4  C3  UNL     1      23.705  -7.015 -44.521  0.00  0.00    +0.000 A 
ATOM      5  C4  UNL     1      23.702  -6.450 -45.805  0.00  0.00    +0.000 A 
ATOM      6  C5  UNL     1      24.875  -6.446 -46.571  0.00  0.00    +0.000 A 
ATOM      7  C6  UNL     1      26.049  -7.008 -46.053  0.00  0.00    +0.000 A 
ATOM      8  C7  UNL     1      26.058  -7.574 -44.774  0.00  0.00    +0.000 A 
ATOM      9  O4  UNL     1      27.179  -8.101 -44.300  0.00  0.00    +0.000 OA
ATOM     10  C8  UNL     1      27.269  -8.659 -43.096  0.00  0.00    +0.000 A 
ATOM     11  C9  UNL     1      28.608  -9.212 -42.685  0.00  0.00    +0.000 C 
ATOM     12  C10 UNL     1      28.532 -10.051 -41.439  0.00  0.00    +0.000 C 
ATOM     13  O5  UNL     1      29.277 -11.010 -41.308  0.00  0.00    +0.000 OA
ATOM     14  C11 UNL     1      27.605  -9.660 -40.317  0.00  0.00    +0.000 C 
ATOM     15  C18 UNL     1      26.254  -9.335 -40.901  0.00  0.00    +0.000 C 
ATOM     16  O11 UNL     1      25.221  -9.582 -40.220  0.00  0.00    +0.000 OA
ATOM     17  C19 UNL     1      26.139  -8.706 -42.246  0.00  0.00    +0.000 A 
ENDROOT
BRANCH  14  18
ATOM     18  C12 UNL     1      28.150  -8.452 -39.506  0.00  0.00    +0.000 C 
ATOM     19  O6  UNL     1      27.099  -7.820 -38.773  0.00  0.00    +0.000 OA
ATOM     20  C13 UNL     1      27.052  -8.097 -37.377  0.00  0.00    +0.000 C 
ATOM     21  C15 UNL     1      28.378  -7.777 -36.629  0.00  0.00    +0.000 C 
ATOM     22  C16 UNL     1      29.587  -7.738 -37.575  0.00  0.00    +0.000 C 
ATOM     23  C17 UNL     1      29.418  -8.791 -38.673  0.00  0.00    +0.000 C 
BRANCH  21  24
ATOM     24  O8  UNL     1      28.260  -6.537 -35.975  0.00  0.00    +0.000 OA
ATOM     25  H14 UNL     1      28.129  -5.850 -36.679  0.00  0.00    +0.000 HD
ENDBRANCH  21  24
BRANCH  22  26
ATOM     26  O9  UNL     1      30.758  -7.985 -36.837  0.00  0.00    +0.000 OA
ATOM     27  H16 UNL     1      30.629  -8.851 -36.368  0.00  0.00    +0.000 HD
ENDBRANCH  22  26
BRANCH  23  28
ATOM     28  O10 UNL     1      30.547  -8.779 -39.512  0.00  0.00    +0.000 OA
ATOM     29  H18 UNL     1      31.166  -8.085 -39.161  0.00  0.00    +0.000 HD
ENDBRANCH  23  28
BRANCH  20  30
ATOM     30  C14 UNL     1      26.517  -9.512 -37.070  0.00  0.00    +0.000 C 
BRANCH  30  31
ATOM     31  O7  UNL     1      27.404 -10.212 -36.240  0.00  0.00    +0.000 OA
ATOM     32  H12 UNL     1      28.202 -10.424 -36.791  0.00  0.00    +0.000 HD
ENDBRANCH  30  31
ENDBRANCH  20  30
ENDBRANCH  14  18
BRANCH   5  33
ATOM     33  O2  UNL     1      22.537  -5.889 -46.326  0.00  0.00    +0.000 OA
ATOM     34  H2  UNL     1      21.801  -6.463 -46.720  0.00  0.00    +0.000 HD
ENDBRANCH   5  33
BRANCH   6  35
ATOM     35  O3  UNL     1      24.865  -5.883 -47.846  0.00  0.00    +0.000 OA
ATOM     36  H3  UNL     1      24.981  -6.451 -48.677  0.00  0.00    +0.000 HD
ENDBRANCH   6  35
TORSDOF 8
ENDMDL
MODEL 9
REMARK VINA RESULT:    -4.716      1.975      3.924
REMARK INTER + INTRA:          -6.609
REMARK INTER:                  -5.939
REMARK INTRA:                  -0.670
REMARK UNBOUND:                -0.515
REMARK  Name = resultss/4CJN/ligands/lig_286_t1.pdb
REMARK  8 active torsions:
REMARK  status: ('A' for Active; 'I' for Inactive)
REMARK    1  A    between atoms: C4_5  and  O2_6
REMARK    2  A    between atoms: C5_7  and  O3_8
REMARK    3  A    between atoms: C11_16  and  C12_17
REMARK    4  A    between atoms: C13_19  and  C14_20
REMARK    5  A    between atoms: C14_20  and  O7_21
REMARK    6  A    between atoms: C15_22  and  O8_23
REMARK    7  A    between atoms: C16_24  and  O9_25
REMARK    8  A    between atoms: C17_26  and  O10_27
REMARK                            x       y       z     vdW  Elec       q    Type
REMARK                         _______ _______ _______ _____ _____    ______ ____
ROOT
ATOM      1  O1  UNL     1      29.682 -10.007 -35.726  0.00  0.00    +0.000 OA
ATOM      2  C1  UNL     1      29.051  -9.010 -35.274  0.00  0.00    +0.000 A 
ATOM      3  C2  UNL     1      29.600  -8.248 -34.229  0.00  0.00    +0.000 A 
ATOM      4  C3  UNL     1      30.843  -8.558 -33.648  0.00  0.00    +0.000 A 
ATOM      5  C4  UNL     1      31.355  -7.768 -32.609  0.00  0.00    +0.000 A 
ATOM      6  C5  UNL     1      30.628  -6.664 -32.145  0.00  0.00    +0.000 A 
ATOM      7  C6  UNL     1      29.390  -6.351 -32.721  0.00  0.00    +0.000 A 
ATOM      8  C7  UNL     1      28.874  -7.135 -33.757  0.00  0.00    +0.000 A 
ATOM      9  O4  UNL     1      27.700  -6.824 -34.291  0.00  0.00    +0.000 OA
ATOM     10  C8  UNL     1      27.140  -7.520 -35.276  0.00  0.00    +0.000 A 
ATOM     11  C9  UNL     1      25.806  -7.046 -35.790  0.00  0.00    +0.000 C 
ATOM     12  C10 UNL     1      25.147  -8.047 -36.699  0.00  0.00    +0.000 C 
ATOM     13  O5  UNL     1      23.929  -8.147 -36.709  0.00  0.00    +0.000 OA
ATOM     14  C11 UNL     1      25.975  -8.860 -37.661  0.00  0.00    +0.000 C 
ATOM     15  C18 UNL     1      27.162  -9.420 -36.918  0.00  0.00    +0.000 C 
ATOM     16  O11 UNL     1      27.621 -10.543 -37.264  0.00  0.00    +0.000 OA
ATOM     17  C19 UNL     1      27.800  -8.649 -35.815  0.00  0.00    +0.000 A 
ENDROOT
BRANCH  14  18
ATOM     18  C12 UNL     1      26.447  -8.017 -38.879  0.00  0.00    +0.000 C 
ATOM     19  O6  UNL     1      27.647  -8.559 -39.433  0.00  0.00    +0.000 OA
ATOM     20  C13 UNL     1      27.503  -9.305 -40.638  0.00  0.00    +0.000 C 
ATOM     21  C15 UNL     1      26.794  -8.520 -41.780  0.00  0.00    +0.000 C 
ATOM     22  C16 UNL     1      25.950  -7.352 -41.248  0.00  0.00    +0.000 C 
ATOM     23  C17 UNL     1      25.317  -7.739 -39.909  0.00  0.00    +0.000 C 
BRANCH  21  24
ATOM     24  O8  UNL     1      27.757  -8.027 -42.677  0.00  0.00    +0.000 OA
ATOM     25  H14 UNL     1      27.714  -8.595 -43.490  0.00  0.00    +0.000 HD
ENDBRANCH  21  24
BRANCH  22  26
ATOM     26  O9  UNL     1      24.952  -7.039 -42.188  0.00  0.00    +0.000 OA
ATOM     27  H16 UNL     1      25.397  -6.974 -43.073  0.00  0.00    +0.000 HD
ENDBRANCH  22  26
BRANCH  23  28
ATOM     28  O10 UNL     1      24.513  -6.682 -39.448  0.00  0.00    +0.000 OA
ATOM     29  H18 UNL     1      24.130  -6.233 -40.248  0.00  0.00    +0.000 HD
ENDBRANCH  23  28
BRANCH  20  30
ATOM     30  C14 UNL     1      26.893 -10.702 -40.402  0.00  0.00    +0.000 C 
BRANCH  30  31
ATOM     31  O7  UNL     1      27.864 -11.598 -39.933  0.00  0.00    +0.000 OA
ATOM     32  H12 UNL     1      28.747 -11.186 -40.123  0.00  0.00    +0.000 HD
ENDBRANCH  30  31
ENDBRANCH  20  30
ENDBRANCH  14  18
BRANCH   5  33
ATOM     33  O2  UNL     1      32.587  -8.073 -32.032  0.00  0.00    +0.000 OA
ATOM     34  H2  UNL     1      33.450  -8.010 -32.558  0.00  0.00    +0.000 HD
ENDBRANCH   5  33
BRANCH   6  35
ATOM     35  O3  UNL     1      31.144  -5.883 -31.112  0.00  0.00    +0.000 OA
ATOM     36  H3  UNL     1      31.903  -6.212 -30.527  0.00  0.00    +0.000 HD
ENDBRANCH   6  35
TORSDOF 8
ENDMDL
