MODEL 1
REMARK VINA RESULT:    -4.140      0.000      0.000
REMARK INTER + INTRA:          -6.446
REMARK INTER:                  -5.835
REMARK INTRA:                  -0.612
REMARK UNBOUND:                -0.612
REMARK  Name = resultss/4CJN/ligands/lig_27_t0.pdb
REMARK  12 active torsions:
REMARK  status: ('A' for Active; 'I' for Inactive)
REMARK    1  A    between atoms: C1_1  and  C2_2
REMARK    2  A    between atoms: C2_2  and  C3_3
REMARK    3  A    between atoms: C3_3  and  SI1_4
REMARK    4  A    between atoms: SI1_4  and  C4_5
REMARK    5  A    between atoms: SI1_4  and  C5_6
REMARK    6  A    between atoms: SI1_4  and  C6_7
REMARK    7  A    between atoms: C6_7  and  N1_8
REMARK    8  A    between atoms: C8_10  and  O1_11
REMARK    9  A    between atoms: C9_12  and  O2_13
REMARK   10  A    between atoms: C10_14  and  O3_15
REMARK   11  A    between atoms: C11_16  and  C12_17
REMARK   12  A    between atoms: C12_17  and  O4_18
REMARK                            x       y       z     vdW  Elec       q    Type
REMARK                         _______ _______ _______ _____ _____    ______ ____
ROOT
ATOM      1  N1  UNL     1      26.482  -7.269 -35.108  0.00  0.00    +0.000 NA
ATOM      2  C7  UNL     1      25.572  -6.299 -34.453  0.00  0.00    +0.000 C 
ATOM      3  C8  UNL     1      24.494  -6.950 -33.551  0.00  0.00    +0.000 C 
ATOM      4  C9  UNL     1      24.796  -8.423 -33.254  0.00  0.00    +0.000 C 
ATOM      5  C10 UNL     1      24.938  -9.222 -34.567  0.00  0.00    +0.000 C 
ATOM      6  C11 UNL     1      25.817  -8.489 -35.631  0.00  0.00    +0.000 C 
ENDROOT
BRANCH   3   7
ATOM      7  O1  UNL     1      24.395  -6.247 -32.339  0.00  0.00    +0.000 OA
ATOM      8  H19 UNL     1      23.506  -6.464 -31.955  0.00  0.00    +0.000 HD
ENDBRANCH   3   7
BRANCH   4   9
ATOM      9  O2  UNL     1      23.747  -8.957 -32.485  0.00  0.00    +0.000 OA
ATOM     10  H21 UNL     1      22.905  -8.559 -32.828  0.00  0.00    +0.000 HD
ENDBRANCH   4   9
BRANCH   5  11
ATOM     11  O3  UNL     1      25.507 -10.477 -34.288  0.00  0.00    +0.000 OA
ATOM     12  H23 UNL     1      26.373 -10.523 -34.773  0.00  0.00    +0.000 HD
ENDBRANCH   5  11
BRANCH   1  13
ATOM     13  C6  UNL     1      27.698  -7.561 -34.314  0.00  0.00    +0.000 C 
BRANCH  13  14
ATOM     14 SI1  UNL     1      29.136  -7.832 -35.474  0.00  0.00    +0.000 Si
ATOM     15  C4  UNL     1      28.818  -6.882 -37.054  0.00  0.00    +0.000 C 
ATOM     16  C5  UNL     1      30.681  -7.183 -34.645  0.00  0.00    +0.000 C 
BRANCH  14  17
ATOM     17  C3  UNL     1      29.284  -9.683 -35.795  0.00  0.00    +0.000 C 
BRANCH  17  19
ATOM     18  C1  UNL     1      28.076 -10.459 -37.909  0.00  0.00    +0.000 C 
ATOM     19  C2  UNL     1      29.410 -10.065 -37.277  0.00  0.00    +0.000 C 
ENDBRANCH  17  19
ENDBRANCH  14  17
ENDBRANCH  13  14
ENDBRANCH   1  13
BRANCH   6  20
ATOM     20  C12 UNL     1      25.049  -8.176 -36.932  0.00  0.00    +0.000 C 
BRANCH  20  21
ATOM     21  O4  UNL     1      23.663  -8.256 -36.741  0.00  0.00    +0.000 OA
ATOM     22  H27 UNL     1      23.460  -9.215 -36.588  0.00  0.00    +0.000 HD
ENDBRANCH  20  21
ENDBRANCH   6  20
TORSDOF 9
ENDMDL
MODEL 2
REMARK VINA RESULT:    -4.037      1.593      2.283
REMARK INTER + INTRA:          -6.301
REMARK INTER:                  -5.913
REMARK INTRA:                  -0.388
REMARK UNBOUND:                -0.612
REMARK  Name = resultss/4CJN/ligands/lig_27_t0.pdb
REMARK  12 active torsions:
REMARK  status: ('A' for Active; 'I' for Inactive)
REMARK    1  A    between atoms: C1_1  and  C2_2
REMARK    2  A    between atoms: C2_2  and  C3_3
REMARK    3  A    between atoms: C3_3  and  SI1_4
REMARK    4  A    between atoms: SI1_4  and  C4_5
REMARK    5  A    between atoms: SI1_4  and  C5_6
REMARK    6  A    between atoms: SI1_4  and  C6_7
REMARK    7  A    between atoms: C6_7  and  N1_8
REMARK    8  A    between atoms: C8_10  and  O1_11
REMARK    9  A    between atoms: C9_12  and  O2_13
REMARK   10  A    between atoms: C10_14  and  O3_15
REMARK   11  A    between atoms: C11_16  and  C12_17
REMARK   12  A    between atoms: C12_17  and  O4_18
REMARK                            x       y       z     vdW  Elec       q    Type
REMARK                         _______ _______ _______ _____ _____    ______ ____
ROOT
ATOM      1  N1  UNL     1      27.188  -7.970 -35.184  0.00  0.00    +0.000 NA
ATOM      2  C7  UNL     1      26.603  -6.753 -34.573  0.00  0.00    +0.000 C 
ATOM      3  C8  UNL     1      25.388  -7.027 -33.651  0.00  0.00    +0.000 C 
ATOM      4  C9  UNL     1      25.252  -8.511 -33.294  0.00  0.00    +0.000 C 
ATOM      5  C10 UNL     1      25.146  -9.368 -34.574  0.00  0.00    +0.000 C 
ATOM      6  C11 UNL     1      26.193  -8.964 -35.661  0.00  0.00    +0.000 C 
ENDROOT
BRANCH   3   7
ATOM      7  O1  UNL     1      25.505  -6.278 -32.468  0.00  0.00    +0.000 OA
ATOM      8  H19 UNL     1      24.792  -5.589 -32.494  0.00  0.00    +0.000 HD
ENDBRANCH   3   7
BRANCH   4   9
ATOM      9  O2  UNL     1      24.098  -8.686 -32.510  0.00  0.00    +0.000 OA
ATOM     10  H21 UNL     1      23.847  -9.645 -32.570  0.00  0.00    +0.000 HD
ENDBRANCH   4   9
BRANCH   5  11
ATOM     11  O3  UNL     1      25.328 -10.722 -34.241  0.00  0.00    +0.000 OA
ATOM     12  H23 UNL     1      25.263 -10.794 -33.253  0.00  0.00    +0.000 HD
ENDBRANCH   5  11
BRANCH   1  13
ATOM     13  C6  UNL     1      28.271  -8.571 -34.372  0.00  0.00    +0.000 C 
BRANCH  13  14
ATOM     14 SI1  UNL     1      29.772  -8.832 -35.453  0.00  0.00    +0.000 Si
ATOM     15  C4  UNL     1      29.299  -9.955 -36.873  0.00  0.00    +0.000 C 
ATOM     16  C5  UNL     1      30.308  -7.167 -36.113  0.00  0.00    +0.000 C 
BRANCH  14  17
ATOM     17  C3  UNL     1      31.130  -9.592 -34.390  0.00  0.00    +0.000 C 
BRANCH  17  19
ATOM     18  C1  UNL     1      31.765 -10.635 -32.145  0.00  0.00    +0.000 C 
ATOM     19  C2  UNL     1      30.747  -9.797 -32.918  0.00  0.00    +0.000 C 
ENDBRANCH  17  19
ENDBRANCH  14  17
ENDBRANCH  13  14
ENDBRANCH   1  13
BRANCH   6  20
ATOM     20  C12 UNL     1      25.540  -8.494 -36.977  0.00  0.00    +0.000 C 
BRANCH  20  21
ATOM     21  O4  UNL     1      24.144  -8.455 -36.872  0.00  0.00    +0.000 OA
ATOM     22  H27 UNL     1      23.793  -8.887 -37.693  0.00  0.00    +0.000 HD
ENDBRANCH  20  21
ENDBRANCH   6  20
TORSDOF 9
ENDMDL
MODEL 3
REMARK VINA RESULT:    -3.996      1.926      2.487
REMARK INTER + INTRA:          -6.243
REMARK INTER:                  -5.810
REMARK INTRA:                  -0.433
REMARK UNBOUND:                -0.612
REMARK  Name = resultss/4CJN/ligands/lig_27_t0.pdb
REMARK  12 active torsions:
REMARK  status: ('A' for Active; 'I' for Inactive)
REMARK    1  A    between atoms: C1_1  and  C2_2
REMARK    2  A    between atoms: C2_2  and  C3_3
REMARK    3  A    between atoms: C3_3  and  SI1_4
REMARK    4  A    between atoms: SI1_4  and  C4_5
REMARK    5  A    between atoms: SI1_4  and  C5_6
REMARK    6  A    between atoms: SI1_4  and  C6_7
REMARK    7  A    between atoms: C6_7  and  N1_8
REMARK    8  A    between atoms: C8_10  and  O1_11
REMARK    9  A    between atoms: C9_12  and  O2_13
REMARK   10  A    between atoms: C10_14  and  O3_15
REMARK   11  A    between atoms: C11_16  and  C12_17
REMARK   12  A    between atoms: C12_17  and  O4_18
REMARK                            x       y       z     vdW  Elec       q    Type
REMARK                         _______ _______ _______ _____ _____    ______ ____
ROOT
ATOM      1  N1  UNL     1      27.073  -8.145 -36.485  0.00  0.00    +0.000 NA
ATOM      2  C7  UNL     1      27.204  -6.874 -35.733  0.00  0.00    +0.000 C 
ATOM      3  C8  UNL     1      26.662  -6.938 -34.282  0.00  0.00    +0.000 C 
ATOM      4  C9  UNL     1      26.416  -8.377 -33.815  0.00  0.00    +0.000 C 
ATOM      5  C10 UNL     1      25.443  -9.097 -34.774  0.00  0.00    +0.000 C 
ATOM      6  C11 UNL     1      25.787  -8.859 -36.279  0.00  0.00    +0.000 C 
ENDROOT
BRANCH   3   7
ATOM      7  O1  UNL     1      27.567  -6.318 -33.405  0.00  0.00    +0.000 OA
ATOM      8  H19 UNL     1      28.407  -6.177 -33.913  0.00  0.00    +0.000 HD
ENDBRANCH   3   7
BRANCH   4   9
ATOM      9  O2  UNL     1      25.870  -8.348 -32.520  0.00  0.00    +0.000 OA
ATOM     10  H21 UNL     1      25.147  -9.027 -32.494  0.00  0.00    +0.000 HD
ENDBRANCH   4   9
BRANCH   5  11
ATOM     11  O3  UNL     1      25.470 -10.478 -34.510  0.00  0.00    +0.000 OA
ATOM     12  H23 UNL     1      25.802 -10.929 -35.330  0.00  0.00    +0.000 HD
ENDBRANCH   5  11
BRANCH   1  13
ATOM     13  C6  UNL     1      28.257  -9.025 -36.360  0.00  0.00    +0.000 C 
BRANCH  13  14
ATOM     14 SI1  UNL     1      28.956  -9.356 -38.060  0.00  0.00    +0.000 Si
ATOM     15  C4  UNL     1      28.930  -7.761 -39.038  0.00  0.00    +0.000 C 
ATOM     16  C5  UNL     1      30.718  -9.947 -37.858  0.00  0.00    +0.000 C 
BRANCH  14  17
ATOM     17  C3  UNL     1      27.900 -10.688 -38.875  0.00  0.00    +0.000 C 
BRANCH  17  19
ATOM     18  C1  UNL     1      29.027 -10.898 -41.159  0.00  0.00    +0.000 C 
ATOM     19  C2  UNL     1      27.752 -10.542 -40.396  0.00  0.00    +0.000 C 
ENDBRANCH  17  19
ENDBRANCH  14  17
ENDBRANCH  13  14
ENDBRANCH   1  13
BRANCH   6  20
ATOM     20  C12 UNL     1      24.647  -8.165 -37.053  0.00  0.00    +0.000 C 
BRANCH  20  21
ATOM     21  O4  UNL     1      24.414  -8.784 -38.287  0.00  0.00    +0.000 OA
ATOM     22  H27 UNL     1      24.660  -8.118 -38.982  0.00  0.00    +0.000 HD
ENDBRANCH  20  21
ENDBRANCH   6  20
TORSDOF 9
ENDMDL
MODEL 4
REMARK VINA RESULT:    -3.920      2.885      4.331
REMARK INTER + INTRA:          -6.136
REMARK INTER:                  -5.736
REMARK INTRA:                  -0.400
REMARK UNBOUND:                -0.612
REMARK  Name = resultss/4CJN/ligands/lig_27_t0.pdb
REMARK  12 active torsions:
REMARK  status: ('A' for Active; 'I' for Inactive)
REMARK    1  A    between atoms: C1_1  and  C2_2
REMARK    2  A    between atoms: C2_2  and  C3_3
REMARK    3  A    between atoms: C3_3  and  SI1_4
REMARK    4  A    between atoms: SI1_4  and  C4_5
REMARK    5  A    between atoms: SI1_4  and  C5_6
REMARK    6  A    between atoms: SI1_4  and  C6_7
REMARK    7  A    between atoms: C6_7  and  N1_8
REMARK    8  A    between atoms: C8_10  and  O1_11
REMARK    9  A    between atoms: C9_12  and  O2_13
REMARK   10  A    between atoms: C10_14  and  O3_15
REMARK   11  A    between atoms: C11_16  and  C12_17
REMARK   12  A    between atoms: C12_17  and  O4_18
REMARK                            x       y       z     vdW  Elec       q    Type
REMARK                         _______ _______ _______ _____ _____    ______ ____
ROOT
ATOM      1  N1  UNL     1      25.974  -7.944 -36.375  0.00  0.00    +0.000 NA
ATOM      2  C7  UNL     1      27.343  -7.406 -36.187  0.00  0.00    +0.000 C 
ATOM      3  C8  UNL     1      28.221  -8.231 -35.213  0.00  0.00    +0.000 C 
ATOM      4  C9  UNL     1      27.617  -9.607 -34.909  0.00  0.00    +0.000 C 
ATOM      5  C10 UNL     1      26.191  -9.456 -34.336  0.00  0.00    +0.000 C 
ATOM      6  C11 UNL     1      25.323  -8.430 -35.132  0.00  0.00    +0.000 C 
ENDROOT
BRANCH   3   7
ATOM      7  O1  UNL     1      29.506  -8.402 -35.753  0.00  0.00    +0.000 OA
ATOM      8  H19 UNL     1      29.454  -9.171 -36.379  0.00  0.00    +0.000 HD
ENDBRANCH   3   7
BRANCH   4   9
ATOM      9  O2  UNL     1      28.436 -10.266 -33.975  0.00  0.00    +0.000 OA
ATOM     10  H21 UNL     1      28.124 -11.208 -33.930  0.00  0.00    +0.000 HD
ENDBRANCH   4   9
BRANCH   5  11
ATOM     11  O3  UNL     1      25.551 -10.709 -34.352  0.00  0.00    +0.000 OA
ATOM     12  H23 UNL     1      24.643 -10.580 -33.971  0.00  0.00    +0.000 HD
ENDBRANCH   5  11
BRANCH   1  13
ATOM     13  C6  UNL     1      25.869  -8.898 -37.502  0.00  0.00    +0.000 C 
BRANCH  13  14
ATOM     14 SI1  UNL     1      25.526  -7.951 -39.075  0.00  0.00    +0.000 Si
ATOM     15  C4  UNL     1      24.483  -6.455 -38.658  0.00  0.00    +0.000 C 
ATOM     16  C5  UNL     1      27.164  -7.402 -39.790  0.00  0.00    +0.000 C 
BRANCH  14  17
ATOM     17  C3  UNL     1      24.637  -9.107 -40.269  0.00  0.00    +0.000 C 
BRANCH  17  19
ATOM     18  C1  UNL     1      25.567  -9.519 -42.613  0.00  0.00    +0.000 C 
ATOM     19  C2  UNL     1      25.567  -9.954 -41.148  0.00  0.00    +0.000 C 
ENDBRANCH  17  19
ENDBRANCH  14  17
ENDBRANCH  13  14
ENDBRANCH   1  13
BRANCH   6  20
ATOM     20  C12 UNL     1      24.849  -7.245 -34.265  0.00  0.00    +0.000 C 
BRANCH  20  21
ATOM     21  O4  UNL     1      24.744  -7.607 -32.916  0.00  0.00    +0.000 OA
ATOM     22  H27 UNL     1      25.394  -7.038 -32.426  0.00  0.00    +0.000 HD
ENDBRANCH  20  21
ENDBRANCH   6  20
TORSDOF 9
ENDMDL
MODEL 5
REMARK VINA RESULT:    -3.889      4.601      6.602
REMARK INTER + INTRA:          -6.092
REMARK INTER:                  -5.727
REMARK INTRA:                  -0.365
REMARK UNBOUND:                -0.612
REMARK  Name = resultss/4CJN/ligands/lig_27_t0.pdb
REMARK  12 active torsions:
REMARK  status: ('A' for Active; 'I' for Inactive)
REMARK    1  A    between atoms: C1_1  and  C2_2
REMARK    2  A    between atoms: C2_2  and  C3_3
REMARK    3  A    between atoms: C3_3  and  SI1_4
REMARK    4  A    between atoms: SI1_4  and  C4_5
REMARK    5  A    between atoms: SI1_4  and  C5_6
REMARK    6  A    between atoms: SI1_4  and  C6_7
REMARK    7  A    between atoms: C6_7  and  N1_8
REMARK    8  A    between atoms: C8_10  and  O1_11
REMARK    9  A    between atoms: C9_12  and  O2_13
REMARK   10  A    between atoms: C10_14  and  O3_15
REMARK   11  A    between atoms: C11_16  and  C12_17
REMARK   12  A    between atoms: C12_17  and  O4_18
REMARK                            x       y       z     vdW  Elec       q    Type
REMARK                         _______ _______ _______ _____ _____    ______ ____
ROOT
ATOM      1  N1  UNL     1      26.313  -8.549 -39.809  0.00  0.00    +0.000 NA
ATOM      2  C7  UNL     1      26.351  -7.505 -40.861  0.00  0.00    +0.000 C 
ATOM      3  C8  UNL     1      25.759  -7.954 -42.221  0.00  0.00    +0.000 C 
ATOM      4  C9  UNL     1      24.956  -9.254 -42.106  0.00  0.00    +0.000 C 
ATOM      5  C10 UNL     1      25.832 -10.380 -41.515  0.00  0.00    +0.000 C 
ATOM      6  C11 UNL     1      26.664  -9.915 -40.277  0.00  0.00    +0.000 C 
ENDROOT
BRANCH   3   7
ATOM      7  O1  UNL     1      24.930  -6.945 -42.739  0.00  0.00    +0.000 OA
ATOM      8  H19 UNL     1      23.996  -7.210 -42.535  0.00  0.00    +0.000 HD
ENDBRANCH   3   7
BRANCH   4   9
ATOM      9  O2  UNL     1      24.507  -9.625 -43.385  0.00  0.00    +0.000 OA
ATOM     10  H21 UNL     1      23.986 -10.464 -43.279  0.00  0.00    +0.000 HD
ENDBRANCH   4   9
BRANCH   5  11
ATOM     11  O3  UNL     1      25.010 -11.457 -41.138  0.00  0.00    +0.000 OA
ATOM     12  H23 UNL     1      24.189 -11.073 -40.733  0.00  0.00    +0.000 HD
ENDBRANCH   5  11
BRANCH   1  13
ATOM     13  C6  UNL     1      25.081  -8.511 -38.989  0.00  0.00    +0.000 C 
BRANCH  13  14
ATOM     14 SI1  UNL     1      25.533  -8.094 -37.225  0.00  0.00    +0.000 Si
ATOM     15  C4  UNL     1      26.489  -6.486 -37.216  0.00  0.00    +0.000 C 
ATOM     16  C5  UNL     1      23.949  -7.895 -36.252  0.00  0.00    +0.000 C 
BRANCH  14  17
ATOM     17  C3  UNL     1      26.560  -9.516 -36.535  0.00  0.00    +0.000 C 
BRANCH  17  19
ATOM     18  C1  UNL     1      27.920  -9.757 -34.386  0.00  0.00    +0.000 C 
ATOM     19  C2  UNL     1      26.529  -9.641 -35.006  0.00  0.00    +0.000 C 
ENDBRANCH  17  19
ENDBRANCH  14  17
ENDBRANCH  13  14
ENDBRANCH   1  13
BRANCH   6  20
ATOM     20  C12 UNL     1      28.186 -10.043 -40.493  0.00  0.00    +0.000 C 
BRANCH  20  21
ATOM     21  O4  UNL     1      28.577 -11.384 -40.602  0.00  0.00    +0.000 OA
ATOM     22  H27 UNL     1      28.558 -11.599 -41.571  0.00  0.00    +0.000 HD
ENDBRANCH  20  21
ENDBRANCH   6  20
TORSDOF 9
ENDMDL
MODEL 6
REMARK VINA RESULT:    -3.802      5.002      6.921
REMARK INTER + INTRA:          -5.969
REMARK INTER:                  -5.395
REMARK INTRA:                  -0.574
REMARK UNBOUND:                -0.612
REMARK  Name = resultss/4CJN/ligands/lig_27_t0.pdb
REMARK  12 active torsions:
REMARK  status: ('A' for Active; 'I' for Inactive)
REMARK    1  A    between atoms: C1_1  and  C2_2
REMARK    2  A    between atoms: C2_2  and  C3_3
REMARK    3  A    between atoms: C3_3  and  SI1_4
REMARK    4  A    between atoms: SI1_4  and  C4_5
REMARK    5  A    between atoms: SI1_4  and  C5_6
REMARK    6  A    between atoms: SI1_4  and  C6_7
REMARK    7  A    between atoms: C6_7  and  N1_8
REMARK    8  A    between atoms: C8_10  and  O1_11
REMARK    9  A    between atoms: C9_12  and  O2_13
REMARK   10  A    between atoms: C10_14  and  O3_15
REMARK   11  A    between atoms: C11_16  and  C12_17
REMARK   12  A    between atoms: C12_17  and  O4_18
REMARK                            x       y       z     vdW  Elec       q    Type
REMARK                         _______ _______ _______ _____ _____    ______ ____
ROOT
ATOM      1  N1  UNL     1      25.446  -7.721 -40.841  0.00  0.00    +0.000 NA
ATOM      2  C7  UNL     1      24.394  -6.682 -40.742  0.00  0.00    +0.000 C 
ATOM      3  C8  UNL     1      23.191  -6.905 -41.693  0.00  0.00    +0.000 C 
ATOM      4  C9  UNL     1      23.175  -8.316 -42.290  0.00  0.00    +0.000 C 
ATOM      5  C10 UNL     1      24.497  -8.604 -43.034  0.00  0.00    +0.000 C 
ATOM      6  C11 UNL     1      25.758  -8.160 -42.225  0.00  0.00    +0.000 C 
ENDROOT
BRANCH   3   7
ATOM      7  O1  UNL     1      21.987  -6.682 -41.005  0.00  0.00    +0.000 OA
ATOM      8  H19 UNL     1      22.087  -5.819 -40.526  0.00  0.00    +0.000 HD
ENDBRANCH   3   7
BRANCH   4   9
ATOM      9  O2  UNL     1      22.095  -8.419 -43.185  0.00  0.00    +0.000 OA
ATOM     10  H21 UNL     1      22.479  -8.549 -44.090  0.00  0.00    +0.000 HD
ENDBRANCH   4   9
BRANCH   5  11
ATOM     11  O3  UNL     1      24.586  -9.981 -43.305  0.00  0.00    +0.000 OA
ATOM     12  H23 UNL     1      25.381 -10.117 -43.884  0.00  0.00    +0.000 HD
ENDBRANCH   5  11
BRANCH   1  13
ATOM     13  C6  UNL     1      25.247  -8.849 -39.901  0.00  0.00    +0.000 C 
BRANCH  13  14
ATOM     14 SI1  UNL     1      26.650  -8.873 -38.668  0.00  0.00    +0.000 Si
ATOM     15  C4  UNL     1      27.683  -7.332 -38.907  0.00  0.00    +0.000 C 
ATOM     16  C5  UNL     1      25.913  -8.883 -36.950  0.00  0.00    +0.000 C 
BRANCH  14  17
ATOM     17  C3  UNL     1      27.659 -10.438 -38.965  0.00  0.00    +0.000 C 
BRANCH  17  19
ATOM     18  C1  UNL     1      28.638 -10.351 -41.324  0.00  0.00    +0.000 C 
ATOM     19  C2  UNL     1      27.592 -10.975 -40.402  0.00  0.00    +0.000 C 
ENDBRANCH  17  19
ENDBRANCH  14  17
ENDBRANCH  13  14
ENDBRANCH   1  13
BRANCH   6  20
ATOM     20  C12 UNL     1      26.598  -7.095 -42.959  0.00  0.00    +0.000 C 
BRANCH  20  21
ATOM     21  O4  UNL     1      27.349  -7.660 -43.997  0.00  0.00    +0.000 OA
ATOM     22  H27 UNL     1      26.741  -8.289 -44.468  0.00  0.00    +0.000 HD
ENDBRANCH  20  21
ENDBRANCH   6  20
TORSDOF 9
ENDMDL
MODEL 7
REMARK VINA RESULT:    -3.790      1.573      3.025
REMARK INTER + INTRA:          -5.953
REMARK INTER:                  -5.505
REMARK INTRA:                  -0.448
REMARK UNBOUND:                -0.612
REMARK  Name = resultss/4CJN/ligands/lig_27_t0.pdb
REMARK  12 active torsions:
REMARK  status: ('A' for Active; 'I' for Inactive)
REMARK    1  A    between atoms: C1_1  and  C2_2
REMARK    2  A    between atoms: C2_2  and  C3_3
REMARK    3  A    between atoms: C3_3  and  SI1_4
REMARK    4  A    between atoms: SI1_4  and  C4_5
REMARK    5  A    between atoms: SI1_4  and  C5_6
REMARK    6  A    between atoms: SI1_4  and  C6_7
REMARK    7  A    between atoms: C6_7  and  N1_8
REMARK    8  A    between atoms: C8_10  and  O1_11
REMARK    9  A    between atoms: C9_12  and  O2_13
REMARK   10  A    between atoms: C10_14  and  O3_15
REMARK   11  A    between atoms: C11_16  and  C12_17
REMARK   12  A    between atoms: C12_17  and  O4_18
REMARK                            x       y       z     vdW  Elec       q    Type
REMARK                         _______ _______ _______ _____ _____    ______ ____
ROOT
ATOM      1  N1  UNL     1      25.378  -7.995 -35.286  0.00  0.00    +0.000 NA
ATOM      2  C7  UNL     1      24.250  -8.121 -36.240  0.00  0.00    +0.000 C 
ATOM      3  C8  UNL     1      22.953  -7.406 -35.785  0.00  0.00    +0.000 C 
ATOM      4  C9  UNL     1      23.197  -6.443 -34.618  0.00  0.00    +0.000 C 
ATOM      5  C10 UNL     1      23.835  -7.188 -33.426  0.00  0.00    +0.000 C 
ATOM      6  C11 UNL     1      25.000  -8.136 -33.856  0.00  0.00    +0.000 C 
ENDROOT
BRANCH   3   7
ATOM      7  O1  UNL     1      22.394  -6.695 -36.860  0.00  0.00    +0.000 OA
ATOM      8  H19 UNL     1      22.221  -5.774 -36.534  0.00  0.00    +0.000 HD
ENDBRANCH   3   7
BRANCH   4   9
ATOM      9  O2  UNL     1      21.968  -5.883 -34.225  0.00  0.00    +0.000 OA
ATOM     10  H21 UNL     1      22.098  -4.900 -34.179  0.00  0.00    +0.000 HD
ENDBRANCH   4   9
BRANCH   5  11
ATOM     11  O3  UNL     1      24.324  -6.248 -32.501  0.00  0.00    +0.000 OA
ATOM     12  H23 UNL     1      25.256  -6.512 -32.279  0.00  0.00    +0.000 HD
ENDBRANCH   5  11
BRANCH   1  13
ATOM     13  C6  UNL     1      26.242  -6.822 -35.550  0.00  0.00    +0.000 C 
BRANCH  13  14
ATOM     14 SI1  UNL     1      27.744  -7.373 -36.514  0.00  0.00    +0.000 Si
ATOM     15  C4  UNL     1      27.475  -6.973 -38.321  0.00  0.00    +0.000 C 
ATOM     16  C5  UNL     1      29.225  -6.431 -35.870  0.00  0.00    +0.000 C 
BRANCH  14  17
ATOM     17  C3  UNL     1      27.966  -9.225 -36.238  0.00  0.00    +0.000 C 
BRANCH  17  19
ATOM     18  C1  UNL     1      28.912  -9.813 -33.938  0.00  0.00    +0.000 C 
ATOM     19  C2  UNL     1      29.210  -9.602 -35.422  0.00  0.00    +0.000 C 
ENDBRANCH  17  19
ENDBRANCH  14  17
ENDBRANCH  13  14
ENDBRANCH   1  13
BRANCH   6  20
ATOM     20  C12 UNL     1      24.733  -9.613 -33.505  0.00  0.00    +0.000 C 
BRANCH  20  21
ATOM     21  O4  UNL     1      25.437 -10.478 -34.352  0.00  0.00    +0.000 OA
ATOM     22  H27 UNL     1      24.786 -10.789 -35.033  0.00  0.00    +0.000 HD
ENDBRANCH  20  21
ENDBRANCH   6  20
TORSDOF 9
ENDMDL
MODEL 8
REMARK VINA RESULT:    -3.752      3.729      5.824
REMARK INTER + INTRA:          -5.898
REMARK INTER:                  -5.486
REMARK INTRA:                  -0.413
REMARK UNBOUND:                -0.612
REMARK  Name = resultss/4CJN/ligands/lig_27_t0.pdb
REMARK  12 active torsions:
REMARK  status: ('A' for Active; 'I' for Inactive)
REMARK    1  A    between atoms: C1_1  and  C2_2
REMARK    2  A    between atoms: C2_2  and  C3_3
REMARK    3  A    between atoms: C3_3  and  SI1_4
REMARK    4  A    between atoms: SI1_4  and  C4_5
REMARK    5  A    between atoms: SI1_4  and  C5_6
REMARK    6  A    between atoms: SI1_4  and  C6_7
REMARK    7  A    between atoms: C6_7  and  N1_8
REMARK    8  A    between atoms: C8_10  and  O1_11
REMARK    9  A    between atoms: C9_12  and  O2_13
REMARK   10  A    between atoms: C10_14  and  O3_15
REMARK   11  A    between atoms: C11_16  and  C12_17
REMARK   12  A    between atoms: C12_17  and  O4_18
REMARK                            x       y       z     vdW  Elec       q    Type
REMARK                         _______ _______ _______ _____ _____    ______ ____
ROOT
ATOM      1  N1  UNL     1      27.970  -9.053 -38.809  0.00  0.00    +0.000 NA
ATOM      2  C7  UNL     1      27.057  -8.111 -39.500  0.00  0.00    +0.000 C 
ATOM      3  C8  UNL     1      26.105  -8.785 -40.521  0.00  0.00    +0.000 C 
ATOM      4  C9  UNL     1      26.067 -10.309 -40.363  0.00  0.00    +0.000 C 
ATOM      5  C10 UNL     1      27.486 -10.902 -40.494  0.00  0.00    +0.000 C 
ATOM      6  C11 UNL     1      28.555 -10.103 -39.681  0.00  0.00    +0.000 C 
ENDROOT
BRANCH   3   7
ATOM      7  O1  UNL     1      24.805  -8.273 -40.373  0.00  0.00    +0.000 OA
ATOM      8  H19 UNL     1      24.534  -8.447 -39.434  0.00  0.00    +0.000 HD
ENDBRANCH   3   7
BRANCH   4   9
ATOM      9  O2  UNL     1      25.233 -10.848 -41.358  0.00  0.00    +0.000 OA
ATOM     10  H21 UNL     1      24.297 -10.719 -41.055  0.00  0.00    +0.000 HD
ENDBRANCH   4   9
BRANCH   5  11
ATOM     11  O3  UNL     1      27.473 -12.236 -40.049  0.00  0.00    +0.000 OA
ATOM     12  H23 UNL     1      26.528 -12.475 -39.862  0.00  0.00    +0.000 HD
ENDBRANCH   5  11
BRANCH   1  13
ATOM     13  C6  UNL     1      27.414  -9.586 -37.544  0.00  0.00    +0.000 C 
BRANCH  13  14
ATOM     14 SI1  UNL     1      28.509  -9.060 -36.125  0.00  0.00    +0.000 Si
ATOM     15  C4  UNL     1      30.250  -9.660 -36.458  0.00  0.00    +0.000 C 
ATOM     16  C5  UNL     1      28.489  -7.192 -36.039  0.00  0.00    +0.000 C 
BRANCH  14  17
ATOM     17  C3  UNL     1      27.809  -9.804 -34.541  0.00  0.00    +0.000 C 
BRANCH  17  19
ATOM     18  C1  UNL     1      25.501  -8.931 -33.875  0.00  0.00    +0.000 C 
ATOM     19  C2  UNL     1      26.292 -10.040 -34.566  0.00  0.00    +0.000 C 
ENDBRANCH  17  19
ENDBRANCH  14  17
ENDBRANCH  13  14
ENDBRANCH   1  13
BRANCH   6  20
ATOM     20  C12 UNL     1      29.669  -9.515 -40.570  0.00  0.00    +0.000 C 
BRANCH  20  21
ATOM     21  O4  UNL     1      30.861 -10.240 -40.445  0.00  0.00    +0.000 OA
ATOM     22  H27 UNL     1      31.208 -10.047 -39.535  0.00  0.00    +0.000 HD
ENDBRANCH  20  21
ENDBRANCH   6  20
TORSDOF 9
ENDMDL
MODEL 9
REMARK VINA RESULT:    -3.739      4.310      6.778
REMARK INTER + INTRA:          -5.880
REMARK INTER:                  -5.457
REMARK INTRA:                  -0.423
REMARK UNBOUND:                -0.612
REMARK  Name = resultss/4CJN/ligands/lig_27_t0.pdb
REMARK  12 active torsions:
REMARK  status: ('A' for Active; 'I' for Inactive)
REMARK    1  A    between atoms: C1_1  and  C2_2
REMARK    2  A    between atoms: C2_2  and  C3_3
REMARK    3  A    between atoms: C3_3  and  SI1_4
REMARK    4  A    between atoms: SI1_4  and  C4_5
REMARK    5  A    between atoms: SI1_4  and  C5_6
REMARK    6  A    between atoms: SI1_4  and  C6_7
REMARK    7  A    between atoms: C6_7  and  N1_8
REMARK    8  A    between atoms: C8_10  and  O1_11
REMARK    9  A    between atoms: C9_12  and  O2_13
REMARK   10  A    between atoms: C10_14  and  O3_15
REMARK   11  A    between atoms: C11_16  and  C12_17
REMARK   12  A    between atoms: C12_17  and  O4_18
REMARK                            x       y       z     vdW  Elec       q    Type
REMARK                         _______ _______ _______ _____ _____    ______ ____
ROOT
ATOM      1  N1  UNL     1      27.082  -9.459 -39.581  0.00  0.00    +0.000 NA
ATOM      2  C7  UNL     1      27.920 -10.650 -39.861  0.00  0.00    +0.000 C 
ATOM      3  C8  UNL     1      28.751 -10.548 -41.166  0.00  0.00    +0.000 C 
ATOM      4  C9  UNL     1      28.797  -9.118 -41.715  0.00  0.00    +0.000 C 
ATOM      5  C10 UNL     1      27.369  -8.585 -41.957  0.00  0.00    +0.000 C 
ATOM      6  C11 UNL     1      26.400  -8.887 -40.769  0.00  0.00    +0.000 C 
ENDROOT
BRANCH   3   7
ATOM      7  O1  UNL     1      30.062 -10.995 -40.935  0.00  0.00    +0.000 OA
ATOM      8  H19 UNL     1      30.565 -10.227 -40.559  0.00  0.00    +0.000 HD
ENDBRANCH   3   7
BRANCH   4   9
ATOM      9  O2  UNL     1      29.514  -9.119 -42.925  0.00  0.00    +0.000 OA
ATOM     10  H21 UNL     1      28.973  -9.628 -43.583  0.00  0.00    +0.000 HD
ENDBRANCH   4   9
BRANCH   5  11
ATOM     11  O3  UNL     1      27.422  -7.195 -42.165  0.00  0.00    +0.000 OA
ATOM     12  H23 UNL     1      26.633  -6.949 -42.716  0.00  0.00    +0.000 HD
ENDBRANCH   5  11
BRANCH   1  13
ATOM     13  C6  UNL     1      27.769  -8.441 -38.754  0.00  0.00    +0.000 C 
BRANCH  13  14
ATOM     14 SI1  UNL     1      27.044  -8.459 -37.033  0.00  0.00    +0.000 Si
ATOM     15  C4  UNL     1      27.484  -6.854 -36.180  0.00  0.00    +0.000 C 
ATOM     16  C5  UNL     1      25.186  -8.605 -37.188  0.00  0.00    +0.000 C 
BRANCH  14  17
ATOM     17  C3  UNL     1      27.751  -9.948 -36.119  0.00  0.00    +0.000 C 
BRANCH  17  19
ATOM     18  C1  UNL     1      28.992  -9.706 -33.898  0.00  0.00    +0.000 C 
ATOM     19  C2  UNL     1      27.640  -9.869 -34.590  0.00  0.00    +0.000 C 
ENDBRANCH  17  19
ENDBRANCH  14  17
ENDBRANCH  13  14
ENDBRANCH   1  13
BRANCH   6  20
ATOM     20  C12 UNL     1      25.198  -9.761 -41.182  0.00  0.00    +0.000 C 
BRANCH  20  21
ATOM     21  O4  UNL     1      24.023  -9.355 -40.538  0.00  0.00    +0.000 OA
ATOM     22  H27 UNL     1      24.117  -8.380 -40.378  0.00  0.00    +0.000 HD
ENDBRANCH  20  21
ENDBRANCH   6  20
TORSDOF 9
ENDMDL
