MODEL 1
REMARK VINA RESULT:    -5.380      0.000      0.000
REMARK INTER + INTRA:          -6.047
REMARK INTER:                  -6.009
REMARK INTRA:                  -0.038
REMARK UNBOUND:                -0.038
REMARK  Name = resultss/4CJN/ligands/lig_289_t2.pdb
REMARK  4 active torsions:
REMARK  status: ('A' for Active; 'I' for Inactive)
REMARK    1  A    between atoms: C1_1  and  O1_2
REMARK    2  A    between atoms: O1_2  and  C2_3
REMARK    3  A    between atoms: C6_8  and  O3_9
REMARK    4  A    between atoms: C9_12  and  O4_13
REMARK                            x       y       z     vdW  Elec       q    Type
REMARK                         _______ _______ _______ _____ _____    ______ ____
ROOT
ATOM      1  C2  UNL     1      26.765  -8.627 -39.714  0.00  0.00    +0.000 A 
ATOM      2  C3  UNL     1      27.624  -9.518 -39.062  0.00  0.00    +0.000 A 
ATOM      3  C4  UNL     1      27.452  -9.864 -37.716  0.00  0.00    +0.000 A 
ATOM      4  O2  UNL     1      28.230 -10.718 -37.219  0.00  0.00    +0.000 OA
ATOM      5  C5  UNL     1      26.406  -9.281 -36.962  0.00  0.00    +0.000 A 
ATOM      6  C6  UNL     1      26.152  -9.509 -35.585  0.00  0.00    +0.000 A 
ATOM      7  C7  UNL     1      24.992  -8.956 -35.005  0.00  0.00    +0.000 A 
ATOM      8  C8  UNL     1      24.670  -9.187 -33.652  0.00  0.00    +0.000 A 
ATOM      9  C9  UNL     1      23.521  -8.623 -33.088  0.00  0.00    +0.000 A 
ATOM     10  C10 UNL     1      22.684  -7.817 -33.869  0.00  0.00    +0.000 A 
ATOM     11  C11 UNL     1      22.993  -7.574 -35.208  0.00  0.00    +0.000 A 
ATOM     12  C12 UNL     1      24.139  -8.135 -35.783  0.00  0.00    +0.000 A 
ATOM     13  O5  UNL     1      24.410  -7.878 -37.054  0.00  0.00    +0.000 OA
ATOM     14  C13 UNL     1      25.463  -8.381 -37.679  0.00  0.00    +0.000 A 
ATOM     15  C14 UNL     1      25.680  -8.068 -39.020  0.00  0.00    +0.000 A 
ENDROOT
BRANCH   1  17
ATOM     16  C1  UNL     1      26.746  -9.219 -42.146  0.00  0.00    +0.000 C 
ATOM     17  O1  UNL     1      27.020  -8.335 -41.063  0.00  0.00    +0.000 OA
ENDBRANCH   1  17
BRANCH   6  18
ATOM     18  O3  UNL     1      27.016 -10.240 -34.760  0.00  0.00    +0.000 OA
ATOM     19  H5  UNL     1      27.620  -9.837 -34.059  0.00  0.00    +0.000 HD
ENDBRANCH   6  18
BRANCH   9  20
ATOM     20  O4  UNL     1      23.221  -8.868 -31.750  0.00  0.00    +0.000 OA
ATOM     21  H7  UNL     1      23.051  -9.808 -31.409  0.00  0.00    +0.000 HD
ENDBRANCH   9  20
TORSDOF 3
ENDMDL
MODEL 2
REMARK VINA RESULT:    -5.257      1.452      2.980
REMARK INTER + INTRA:          -5.910
REMARK INTER:                  -5.862
REMARK INTRA:                  -0.047
REMARK UNBOUND:                -0.038
REMARK  Name = resultss/4CJN/ligands/lig_289_t2.pdb
REMARK  4 active torsions:
REMARK  status: ('A' for Active; 'I' for Inactive)
REMARK    1  A    between atoms: C1_1  and  O1_2
REMARK    2  A    between atoms: O1_2  and  C2_3
REMARK    3  A    between atoms: C6_8  and  O3_9
REMARK    4  A    between atoms: C9_12  and  O4_13
REMARK                            x       y       z     vdW  Elec       q    Type
REMARK                         _______ _______ _______ _____ _____    ______ ____
ROOT
ATOM      1  C2  UNL     1      28.135 -10.168 -40.086  0.00  0.00    +0.000 A 
ATOM      2  C3  UNL     1      27.273  -9.248 -40.691  0.00  0.00    +0.000 A 
ATOM      3  C4  UNL     1      26.275  -8.581 -39.970  0.00  0.00    +0.000 A 
ATOM      4  O2  UNL     1      25.580  -7.723 -40.574  0.00  0.00    +0.000 OA
ATOM      5  C5  UNL     1      26.089  -8.856 -38.595  0.00  0.00    +0.000 A 
ATOM      6  C6  UNL     1      25.089  -8.288 -37.765  0.00  0.00    +0.000 A 
ATOM      7  C7  UNL     1      25.114  -8.562 -36.382  0.00  0.00    +0.000 A 
ATOM      8  C8  UNL     1      24.170  -7.989 -35.506  0.00  0.00    +0.000 A 
ATOM      9  C9  UNL     1      24.200  -8.279 -34.138  0.00  0.00    +0.000 A 
ATOM     10  C10 UNL     1      25.172  -9.151 -33.632  0.00  0.00    +0.000 A 
ATOM     11  C11 UNL     1      26.110  -9.731 -34.488  0.00  0.00    +0.000 A 
ATOM     12  C12 UNL     1      26.089  -9.446 -35.858  0.00  0.00    +0.000 A 
ATOM     13  O5  UNL     1      26.987 -10.019 -36.645  0.00  0.00    +0.000 OA
ATOM     14  C13 UNL     1      27.047  -9.792 -37.947  0.00  0.00    +0.000 A 
ATOM     15  C14 UNL     1      28.023 -10.431 -38.711  0.00  0.00    +0.000 A 
ENDROOT
BRANCH   1  17
ATOM     16  C1  UNL     1      29.420 -10.398 -42.221  0.00  0.00    +0.000 C 
ATOM     17  O1  UNL     1      29.101 -10.793 -40.890  0.00  0.00    +0.000 OA
ENDBRANCH   1  17
BRANCH   6  18
ATOM     18  O3  UNL     1      24.055  -7.482 -38.258  0.00  0.00    +0.000 OA
ATOM     19  H5  UNL     1      24.154  -6.814 -39.008  0.00  0.00    +0.000 HD
ENDBRANCH   6  18
BRANCH   9  20
ATOM     20  O4  UNL     1      23.260  -7.698 -33.292  0.00  0.00    +0.000 OA
ATOM     21  H7  UNL     1      23.245  -6.698 -33.122  0.00  0.00    +0.000 HD
ENDBRANCH   9  20
TORSDOF 3
ENDMDL
MODEL 3
REMARK VINA RESULT:    -5.254      5.492      7.042
REMARK INTER + INTRA:          -5.907
REMARK INTER:                  -5.866
REMARK INTRA:                  -0.041
REMARK UNBOUND:                -0.038
REMARK  Name = resultss/4CJN/ligands/lig_289_t2.pdb
REMARK  4 active torsions:
REMARK  status: ('A' for Active; 'I' for Inactive)
REMARK    1  A    between atoms: C1_1  and  O1_2
REMARK    2  A    between atoms: O1_2  and  C2_3
REMARK    3  A    between atoms: C6_8  and  O3_9
REMARK    4  A    between atoms: C9_12  and  O4_13
REMARK                            x       y       z     vdW  Elec       q    Type
REMARK                         _______ _______ _______ _____ _____    ______ ____
ROOT
ATOM      1  C2  UNL     1      29.584  -9.969 -42.170  0.00  0.00    +0.000 A 
ATOM      2  C3  UNL     1      28.969 -10.665 -41.125  0.00  0.00    +0.000 A 
ATOM      3  C4  UNL     1      27.590 -10.587 -40.891  0.00  0.00    +0.000 A 
ATOM      4  O2  UNL     1      27.104 -11.292 -39.968  0.00  0.00    +0.000 OA
ATOM      5  C5  UNL     1      26.779  -9.758 -41.701  0.00  0.00    +0.000 A 
ATOM      6  C6  UNL     1      25.385  -9.554 -41.541  0.00  0.00    +0.000 A 
ATOM      7  C7  UNL     1      24.691  -8.799 -42.509  0.00  0.00    +0.000 A 
ATOM      8  C8  UNL     1      23.298  -8.602 -42.422  0.00  0.00    +0.000 A 
ATOM      9  C9  UNL     1      22.625  -7.842 -43.384  0.00  0.00    +0.000 A 
ATOM     10  C10 UNL     1      23.339  -7.265 -44.442  0.00  0.00    +0.000 A 
ATOM     11  C11 UNL     1      24.719  -7.446 -44.538  0.00  0.00    +0.000 A 
ATOM     12  C12 UNL     1      25.402  -8.206 -43.581  0.00  0.00    +0.000 A 
ATOM     13  O5  UNL     1      26.714  -8.352 -43.696  0.00  0.00    +0.000 OA
ATOM     14  C13 UNL     1      27.433  -9.067 -42.845  0.00  0.00    +0.000 A 
ATOM     15  C14 UNL     1      28.809  -9.177 -43.033  0.00  0.00    +0.000 A 
ENDROOT
BRANCH   1  17
ATOM     16  C1  UNL     1      31.606 -11.134 -43.075  0.00  0.00    +0.000 C 
ATOM     17  O1  UNL     1      30.973 -10.103 -42.323  0.00  0.00    +0.000 OA
ENDBRANCH   1  17
BRANCH   6  18
ATOM     18  O3  UNL     1      24.661 -10.047 -40.448  0.00  0.00    +0.000 OA
ATOM     19  H5  UNL     1      23.655 -10.114 -40.407  0.00  0.00    +0.000 HD
ENDBRANCH   6  18
BRANCH   9  20
ATOM     20  O4  UNL     1      21.248  -7.664 -43.279  0.00  0.00    +0.000 OA
ATOM     21  H7  UNL     1      20.851  -6.861 -42.804  0.00  0.00    +0.000 HD
ENDBRANCH   9  20
TORSDOF 3
ENDMDL
MODEL 4
REMARK VINA RESULT:    -5.222      5.310      7.636
REMARK INTER + INTRA:          -5.871
REMARK INTER:                  -5.829
REMARK INTRA:                  -0.042
REMARK UNBOUND:                -0.038
REMARK  Name = resultss/4CJN/ligands/lig_289_t2.pdb
REMARK  4 active torsions:
REMARK  status: ('A' for Active; 'I' for Inactive)
REMARK    1  A    between atoms: C1_1  and  O1_2
REMARK    2  A    between atoms: O1_2  and  C2_3
REMARK    3  A    between atoms: C6_8  and  O3_9
REMARK    4  A    between atoms: C9_12  and  O4_13
REMARK                            x       y       z     vdW  Elec       q    Type
REMARK                         _______ _______ _______ _____ _____    ______ ____
ROOT
ATOM      1  C2  UNL     1      25.885  -6.687 -45.874  0.00  0.00    +0.000 A 
ATOM      2  C3  UNL     1      24.607  -6.878 -45.338  0.00  0.00    +0.000 A 
ATOM      3  C4  UNL     1      24.390  -7.661 -44.197  0.00  0.00    +0.000 A 
ATOM      4  O2  UNL     1      23.219  -7.734 -43.743  0.00  0.00    +0.000 OA
ATOM      5  C5  UNL     1      25.475  -8.318 -43.571  0.00  0.00    +0.000 A 
ATOM      6  C6  UNL     1      25.385  -9.174 -42.443  0.00  0.00    +0.000 A 
ATOM      7  C7  UNL     1      26.572  -9.651 -41.852  0.00  0.00    +0.000 A 
ATOM      8  C8  UNL     1      26.541 -10.469 -40.705  0.00  0.00    +0.000 A 
ATOM      9  C9  UNL     1      27.728 -10.944 -40.137  0.00  0.00    +0.000 A 
ATOM     10  C10 UNL     1      28.960 -10.610 -40.713  0.00  0.00    +0.000 A 
ATOM     11  C11 UNL     1      29.006  -9.806 -41.853  0.00  0.00    +0.000 A 
ATOM     12  C12 UNL     1      27.825  -9.325 -42.428  0.00  0.00    +0.000 A 
ATOM     13  O5  UNL     1      27.903  -8.571 -43.515  0.00  0.00    +0.000 OA
ATOM     14  C13 UNL     1      26.837  -8.062 -44.113  0.00  0.00    +0.000 A 
ATOM     15  C14 UNL     1      26.998  -7.275 -45.252  0.00  0.00    +0.000 A 
ENDROOT
BRANCH   1  17
ATOM     16  C1  UNL     1      26.370  -6.382 -48.310  0.00  0.00    +0.000 C 
ATOM     17  O1  UNL     1      26.005  -5.891 -47.024  0.00  0.00    +0.000 OA
ENDBRANCH   1  17
BRANCH   6  18
ATOM     18  O3  UNL     1      24.164  -9.593 -41.898  0.00  0.00    +0.000 OA
ATOM     19  H5  UNL     1      23.398  -9.977 -42.431  0.00  0.00    +0.000 HD
ENDBRANCH   6  18
BRANCH   9  20
ATOM     20  O4  UNL     1      27.671 -11.748 -39.001  0.00  0.00    +0.000 OA
ATOM     21  H7  UNL     1      27.707 -11.351 -38.068  0.00  0.00    +0.000 HD
ENDBRANCH   9  20
TORSDOF 3
ENDMDL
MODEL 5
REMARK VINA RESULT:    -5.199      2.428      3.630
REMARK INTER + INTRA:          -5.846
REMARK INTER:                  -5.797
REMARK INTRA:                  -0.048
REMARK UNBOUND:                -0.038
REMARK  Name = resultss/4CJN/ligands/lig_289_t2.pdb
REMARK  4 active torsions:
REMARK  status: ('A' for Active; 'I' for Inactive)
REMARK    1  A    between atoms: C1_1  and  O1_2
REMARK    2  A    between atoms: O1_2  and  C2_3
REMARK    3  A    between atoms: C6_8  and  O3_9
REMARK    4  A    between atoms: C9_12  and  O4_13
REMARK                            x       y       z     vdW  Elec       q    Type
REMARK                         _______ _______ _______ _____ _____    ______ ____
ROOT
ATOM      1  C2  UNL     1      25.333  -9.197 -41.603  0.00  0.00    +0.000 A 
ATOM      2  C3  UNL     1      26.575  -9.756 -41.920  0.00  0.00    +0.000 A 
ATOM      3  C4  UNL     1      27.519 -10.074 -40.936  0.00  0.00    +0.000 A 
ATOM      4  O2  UNL     1      28.588 -10.630 -41.298  0.00  0.00    +0.000 OA
ATOM      5  C5  UNL     1      27.246  -9.798 -39.575  0.00  0.00    +0.000 A 
ATOM      6  C6  UNL     1      28.131 -10.027 -38.491  0.00  0.00    +0.000 A 
ATOM      7  C7  UNL     1      27.666  -9.823 -37.176  0.00  0.00    +0.000 A 
ATOM      8  C8  UNL     1      28.489 -10.076 -36.061  0.00  0.00    +0.000 A 
ATOM      9  C9  UNL     1      28.017  -9.858 -34.762  0.00  0.00    +0.000 A 
ATOM     10  C10 UNL     1      26.716  -9.378 -34.565  0.00  0.00    +0.000 A 
ATOM     11  C11 UNL     1      25.891  -9.117 -35.660  0.00  0.00    +0.000 A 
ATOM     12  C12 UNL     1      26.353  -9.333 -36.962  0.00  0.00    +0.000 A 
ATOM     13  O5  UNL     1      25.548  -9.067 -37.981  0.00  0.00    +0.000 OA
ATOM     14  C13 UNL     1      25.900  -9.258 -39.242  0.00  0.00    +0.000 A 
ATOM     15  C14 UNL     1      24.997  -8.958 -40.260  0.00  0.00    +0.000 A 
ENDROOT
BRANCH   1  17
ATOM     16  C1  UNL     1      23.120  -8.434 -42.487  0.00  0.00    +0.000 C 
ATOM     17  O1  UNL     1      24.453  -8.905 -42.657  0.00  0.00    +0.000 OA
ENDBRANCH   1  17
BRANCH   6  18
ATOM     18  O3  UNL     1      29.463 -10.425 -38.663  0.00  0.00    +0.000 OA
ATOM     19  H5  UNL     1      30.166 -10.409 -37.939  0.00  0.00    +0.000 HD
ENDBRANCH   6  18
BRANCH   9  20
ATOM     20  O4  UNL     1      28.848 -10.119 -33.676  0.00  0.00    +0.000 OA
ATOM     21  H7  UNL     1      29.647  -9.531 -33.466  0.00  0.00    +0.000 HD
ENDBRANCH   9  20
TORSDOF 3
ENDMDL
MODEL 6
REMARK VINA RESULT:    -5.155      1.844      6.345
REMARK INTER + INTRA:          -5.797
REMARK INTER:                  -5.749
REMARK INTRA:                  -0.047
REMARK UNBOUND:                -0.038
REMARK  Name = resultss/4CJN/ligands/lig_289_t2.pdb
REMARK  4 active torsions:
REMARK  status: ('A' for Active; 'I' for Inactive)
REMARK    1  A    between atoms: C1_1  and  O1_2
REMARK    2  A    between atoms: O1_2  and  C2_3
REMARK    3  A    between atoms: C6_8  and  O3_9
REMARK    4  A    between atoms: C9_12  and  O4_13
REMARK                            x       y       z     vdW  Elec       q    Type
REMARK                         _______ _______ _______ _____ _____    ______ ____
ROOT
ATOM      1  C2  UNL     1      26.442  -9.120 -34.508  0.00  0.00    +0.000 A 
ATOM      2  C3  UNL     1      27.797  -9.398 -34.297  0.00  0.00    +0.000 A 
ATOM      3  C4  UNL     1      28.670  -9.679 -35.356  0.00  0.00    +0.000 A 
ATOM      4  O2  UNL     1      29.887  -9.858 -35.088  0.00  0.00    +0.000 OA
ATOM      5  C5  UNL     1      28.184  -9.726 -36.683  0.00  0.00    +0.000 A 
ATOM      6  C6  UNL     1      28.950 -10.044 -37.834  0.00  0.00    +0.000 A 
ATOM      7  C7  UNL     1      28.353  -9.921 -39.106  0.00  0.00    +0.000 A 
ATOM      8  C8  UNL     1      29.081 -10.183 -40.283  0.00  0.00    +0.000 A 
ATOM      9  C9  UNL     1      28.473 -10.067 -41.538  0.00  0.00    +0.000 A 
ATOM     10  C10 UNL     1      27.126  -9.692 -41.627  0.00  0.00    +0.000 A 
ATOM     11  C11 UNL     1      26.391  -9.435 -40.469  0.00  0.00    +0.000 A 
ATOM     12  C12 UNL     1      26.991  -9.547 -39.210  0.00  0.00    +0.000 A 
ATOM     13  O5  UNL     1      26.263  -9.305 -38.129  0.00  0.00    +0.000 OA
ATOM     14  C13 UNL     1      26.756  -9.372 -36.903  0.00  0.00    +0.000 A 
ATOM     15  C14 UNL     1      25.928  -9.101 -35.815  0.00  0.00    +0.000 A 
ENDROOT
BRANCH   1  17
ATOM     16  C1  UNL     1      24.228  -9.024 -33.346  0.00  0.00    +0.000 C 
ATOM     17  O1  UNL     1      25.642  -8.856 -33.386  0.00  0.00    +0.000 OA
ENDBRANCH   1  17
BRANCH   6  18
ATOM     18  O3  UNL     1      30.271 -10.503 -37.769  0.00  0.00    +0.000 OA
ATOM     19  H5  UNL     1      30.553 -11.393 -37.386  0.00  0.00    +0.000 HD
ENDBRANCH   6  18
BRANCH   9  20
ATOM     20  O4  UNL     1      29.213 -10.327 -42.687  0.00  0.00    +0.000 OA
ATOM     21  H7  UNL     1      28.935 -11.045 -43.347  0.00  0.00    +0.000 HD
ENDBRANCH   9  20
TORSDOF 3
ENDMDL
MODEL 7
REMARK VINA RESULT:    -5.148      1.965      6.140
REMARK INTER + INTRA:          -5.788
REMARK INTER:                  -5.748
REMARK INTRA:                  -0.039
REMARK UNBOUND:                -0.038
REMARK  Name = resultss/4CJN/ligands/lig_289_t2.pdb
REMARK  4 active torsions:
REMARK  status: ('A' for Active; 'I' for Inactive)
REMARK    1  A    between atoms: C1_1  and  O1_2
REMARK    2  A    between atoms: O1_2  and  C2_3
REMARK    3  A    between atoms: C6_8  and  O3_9
REMARK    4  A    between atoms: C9_12  and  O4_13
REMARK                            x       y       z     vdW  Elec       q    Type
REMARK                         _______ _______ _______ _____ _____    ______ ____
ROOT
ATOM      1  C2  UNL     1      27.869  -9.715 -34.725  0.00  0.00    +0.000 A 
ATOM      2  C3  UNL     1      26.632  -9.152 -34.395  0.00  0.00    +0.000 A 
ATOM      3  C4  UNL     1      25.696  -8.791 -35.372  0.00  0.00    +0.000 A 
ATOM      4  O2  UNL     1      24.582  -8.348 -34.991  0.00  0.00    +0.000 OA
ATOM      5  C5  UNL     1      26.001  -8.959 -36.743  0.00  0.00    +0.000 A 
ATOM      6  C6  UNL     1      25.165  -8.592 -37.828  0.00  0.00    +0.000 A 
ATOM      7  C7  UNL     1      25.553  -8.943 -39.137  0.00  0.00    +0.000 A 
ATOM      8  C8  UNL     1      24.738  -8.641 -40.247  0.00  0.00    +0.000 A 
ATOM      9  C9  UNL     1      25.142  -8.985 -41.541  0.00  0.00    +0.000 A 
ATOM     10  C10 UNL     1      26.369  -9.631 -41.741  0.00  0.00    +0.000 A 
ATOM     11  C11 UNL     1      27.189  -9.931 -40.652  0.00  0.00    +0.000 A 
ATOM     12  C12 UNL     1      26.793  -9.592 -39.353  0.00  0.00    +0.000 A 
ATOM     13  O5  UNL     1      27.598  -9.883 -38.342  0.00  0.00    +0.000 OA
ATOM     14  C13 UNL     1      27.295  -9.612 -37.083  0.00  0.00    +0.000 A 
ATOM     15  C14 UNL     1      28.192  -9.950 -36.071  0.00  0.00    +0.000 A 
ENDROOT
BRANCH   1  17
ATOM     16  C1  UNL     1      29.396  -9.082 -32.846  0.00  0.00    +0.000 C 
ATOM     17  O1  UNL     1      28.746 -10.038 -33.678  0.00  0.00    +0.000 OA
ENDBRANCH   1  17
BRANCH   6  18
ATOM     18  O3  UNL     1      23.975  -7.871 -37.665  0.00  0.00    +0.000 OA
ATOM     19  H5  UNL     1      23.526  -7.331 -38.390  0.00  0.00    +0.000 HD
ENDBRANCH   6  18
BRANCH   9  20
ATOM     20  O4  UNL     1      24.318  -8.680 -42.622  0.00  0.00    +0.000 OA
ATOM     21  H7  UNL     1      23.325  -8.884 -42.606  0.00  0.00    +0.000 HD
ENDBRANCH   9  20
TORSDOF 3
ENDMDL
MODEL 8
REMARK VINA RESULT:    -4.768      3.258      4.388
REMARK INTER + INTRA:          -5.364
REMARK INTER:                  -5.323
REMARK INTRA:                  -0.041
REMARK UNBOUND:                -0.038
REMARK  Name = resultss/4CJN/ligands/lig_289_t2.pdb
REMARK  4 active torsions:
REMARK  status: ('A' for Active; 'I' for Inactive)
REMARK    1  A    between atoms: C1_1  and  O1_2
REMARK    2  A    between atoms: O1_2  and  C2_3
REMARK    3  A    between atoms: C6_8  and  O3_9
REMARK    4  A    between atoms: C9_12  and  O4_13
REMARK                            x       y       z     vdW  Elec       q    Type
REMARK                         _______ _______ _______ _____ _____    ______ ____
ROOT
ATOM      1  C2  UNL     1      26.698 -10.036 -40.840  0.00  0.00    +0.000 A 
ATOM      2  C3  UNL     1      28.035 -10.102 -41.246  0.00  0.00    +0.000 A 
ATOM      3  C4  UNL     1      29.092 -10.059 -40.329  0.00  0.00    +0.000 A 
ATOM      4  O2  UNL     1      30.264 -10.186 -40.770  0.00  0.00    +0.000 OA
ATOM      5  C5  UNL     1      28.827  -9.909 -38.948  0.00  0.00    +0.000 A 
ATOM      6  C6  UNL     1      29.804  -9.805 -37.924  0.00  0.00    +0.000 A 
ATOM      7  C7  UNL     1      29.383  -9.792 -36.579  0.00  0.00    +0.000 A 
ATOM      8  C8  UNL     1      30.314  -9.733 -35.522  0.00  0.00    +0.000 A 
ATOM      9  C9  UNL     1      29.880  -9.710 -34.192  0.00  0.00    +0.000 A 
ATOM     10  C10 UNL     1      28.510  -9.738 -33.905  0.00  0.00    +0.000 A 
ATOM     11  C11 UNL     1      27.577  -9.790 -34.941  0.00  0.00    +0.000 A 
ATOM     12  C12 UNL     1      28.000  -9.816 -36.274  0.00  0.00    +0.000 A 
ATOM     13  O5  UNL     1      27.088  -9.856 -37.235  0.00  0.00    +0.000 OA
ATOM     14  C13 UNL     1      27.402  -9.899 -38.520  0.00  0.00    +0.000 A 
ATOM     15  C14 UNL     1      26.387  -9.943 -39.474  0.00  0.00    +0.000 A 
ENDROOT
BRANCH   1  17
ATOM     16  C1  UNL     1      25.648  -9.204 -42.954  0.00  0.00    +0.000 C 
ATOM     17  O1  UNL     1      25.705 -10.079 -41.832  0.00  0.00    +0.000 OA
ENDBRANCH   1  17
BRANCH   6  18
ATOM     18  O3  UNL     1      31.175  -9.689 -38.186  0.00  0.00    +0.000 OA
ATOM     19  H5  UNL     1      31.645 -10.093 -38.982  0.00  0.00    +0.000 HD
ENDBRANCH   6  18
BRANCH   9  20
ATOM     20  O4  UNL     1      30.819  -9.656 -33.165  0.00  0.00    +0.000 OA
ATOM     21  H7  UNL     1      31.604 -10.297 -33.129  0.00  0.00    +0.000 HD
ENDBRANCH   9  20
TORSDOF 3
ENDMDL
MODEL 9
REMARK VINA RESULT:    -4.703      3.004      6.653
REMARK INTER + INTRA:          -5.291
REMARK INTER:                  -5.252
REMARK INTRA:                  -0.039
REMARK UNBOUND:                -0.038
REMARK  Name = resultss/4CJN/ligands/lig_289_t2.pdb
REMARK  4 active torsions:
REMARK  status: ('A' for Active; 'I' for Inactive)
REMARK    1  A    between atoms: C1_1  and  O1_2
REMARK    2  A    between atoms: O1_2  and  C2_3
REMARK    3  A    between atoms: C6_8  and  O3_9
REMARK    4  A    between atoms: C9_12  and  O4_13
REMARK                            x       y       z     vdW  Elec       q    Type
REMARK                         _______ _______ _______ _____ _____    ______ ____
ROOT
ATOM      1  C2  UNL     1      30.380  -9.588 -34.227  0.00  0.00    +0.000 A 
ATOM      2  C3  UNL     1      29.058  -9.675 -33.778  0.00  0.00    +0.000 A 
ATOM      3  C4  UNL     1      27.977  -9.764 -34.665  0.00  0.00    +0.000 A 
ATOM      4  O2  UNL     1      26.823  -9.901 -34.182  0.00  0.00    +0.000 OA
ATOM      5  C5  UNL     1      28.201  -9.730 -36.062  0.00  0.00    +0.000 A 
ATOM      6  C6  UNL     1      27.196  -9.764 -37.062  0.00  0.00    +0.000 A 
ATOM      7  C7  UNL     1      27.582  -9.855 -38.414  0.00  0.00    +0.000 A 
ATOM      8  C8  UNL     1      26.625  -9.935 -39.445  0.00  0.00    +0.000 A 
ATOM      9  C9  UNL     1      27.024 -10.015 -40.783  0.00  0.00    +0.000 A 
ATOM     10  C10 UNL     1      28.386 -10.009 -41.106  0.00  0.00    +0.000 A 
ATOM     11  C11 UNL     1      29.347  -9.924 -40.097  0.00  0.00    +0.000 A 
ATOM     12  C12 UNL     1      28.958  -9.846 -38.755  0.00  0.00    +0.000 A 
ATOM     13  O5  UNL     1      29.893  -9.757 -37.821  0.00  0.00    +0.000 OA
ATOM     14  C13 UNL     1      29.613  -9.696 -36.529  0.00  0.00    +0.000 A 
ATOM     15  C14 UNL     1      30.652  -9.606 -35.604  0.00  0.00    +0.000 A 
ENDROOT
BRANCH   1  17
ATOM     16  C1  UNL     1      31.785 -10.557 -32.397  0.00  0.00    +0.000 C 
ATOM     17  O1  UNL     1      31.397  -9.495 -33.264  0.00  0.00    +0.000 OA
ENDBRANCH   1  17
BRANCH   6  18
ATOM     18  O3  UNL     1      25.828  -9.685 -36.772  0.00  0.00    +0.000 OA
ATOM     19  H5  UNL     1      25.273 -10.443 -36.404  0.00  0.00    +0.000 HD
ENDBRANCH   6  18
BRANCH   9  20
ATOM     20  O4  UNL     1      26.059 -10.097 -41.784  0.00  0.00    +0.000 OA
ATOM     21  H7  UNL     1      25.730  -9.272 -42.273  0.00  0.00    +0.000 HD
ENDBRANCH   9  20
TORSDOF 3
ENDMDL
