MODEL 1
REMARK VINA RESULT:    -6.755      0.000      0.000
REMARK INTER + INTRA:         -10.460
REMARK INTER:                  -9.322
REMARK INTRA:                  -1.138
REMARK UNBOUND:                -1.138
REMARK  Name = resultss/4CJN/ligands/lig_266_t1.pdb
REMARK  8 active torsions:
REMARK  status: ('A' for Active; 'I' for Inactive)
REMARK    1  A    between atoms: C1_1  and  O1_2
REMARK    2  A    between atoms: O1_2  and  C2_3
REMARK    3  A    between atoms: C5_6  and  C6_7
REMARK    4  A    between atoms: C6_7  and  N1_8
REMARK    5  A    between atoms: C7_9  and  O2_10
REMARK    6  A    between atoms: C7_9  and  C8_11
REMARK    7  A    between atoms: C9_12  and  N2_13
REMARK    8  A    between atoms: C10_14  and  C11_16
REMARK                            x       y       z     vdW  Elec       q    Type
REMARK                         _______ _______ _______ _____ _____    ______ ____
ROOT
ATOM      1  C8  UNL     1      28.000  -8.554 -42.320  0.00  0.00    +0.000 A 
ATOM      2  C9  UNL     1      26.943  -8.815 -41.437  0.00  0.00    +0.000 A 
ATOM      3  S1  UNL     1      25.493  -8.304 -42.135  0.00  0.00    +0.000 S 
ATOM      4  C16 UNL     1      26.178  -7.760 -43.564  0.00  0.00    +0.000 A 
ATOM      5  C17 UNL     1      27.552  -7.987 -43.539  0.00  0.00    +0.000 A 
ATOM      6  C18 UNL     1      28.434  -7.590 -44.698  0.00  0.00    +0.000 C 
ATOM      7  C19 UNL     1      27.626  -7.343 -45.985  0.00  0.00    +0.000 C 
ATOM      8  C20 UNL     1      26.373  -6.497 -45.707  0.00  0.00    +0.000 C 
ATOM      9  C21 UNL     1      25.425  -7.226 -44.744  0.00  0.00    +0.000 C 
ENDROOT
BRANCH   2  10
ATOM     10  N2  UNL     1      27.086  -9.270 -40.082  0.00  0.00    +0.000 N 
ATOM     11  C10 UNL     1      27.562  -8.437 -39.008  0.00  0.00    +0.000 C 
ATOM     12  O3  UNL     1      27.850  -7.230 -39.230  0.00  0.00    +0.000 OA
ATOM     13  H9  UNL     1      26.881 -10.275 -39.892  0.00  0.00    +0.000 HD
BRANCH  11  14
ATOM     14  C11 UNL     1      27.723  -8.972 -37.632  0.00  0.00    +0.000 A 
ATOM     15  C12 UNL     1      28.985  -9.078 -37.022  0.00  0.00    +0.000 A 
ATOM     16  C13 UNL     1      29.099  -9.592 -35.727  0.00  0.00    +0.000 A 
ATOM     17  C14 UNL     1      27.951 -10.011 -35.055  0.00  0.00    +0.000 A 
ATOM     18  N3  UNL     1      26.737  -9.919 -35.657  0.00  0.00    +0.000 NA
ATOM     19  C15 UNL     1      26.599  -9.420 -36.915  0.00  0.00    +0.000 A 
ENDBRANCH  11  14
ENDBRANCH   2  10
BRANCH   1  21
ATOM     20  N1  UNL     1      29.923 -10.001 -42.398  0.00  0.00    +0.000 NA
ATOM     21  C7  UNL     1      29.414  -8.866 -42.011  0.00  0.00    +0.000 C 
BRANCH  21  22
ATOM     22  O2  UNL     1      30.174  -7.923 -41.311  0.00  0.00    +0.000 OA
ATOM     23  H8  UNL     1      29.979  -6.932 -41.321  0.00  0.00    +0.000 HD
ENDBRANCH  21  22
BRANCH  20  24
ATOM     24  C6  UNL     1      31.287 -10.467 -42.158  0.00  0.00    +0.000 C 
BRANCH  24  28
ATOM     25  C2  UNL     1      32.798 -12.648 -45.575  0.00  0.00    +0.000 A 
ATOM     26  C3  UNL     1      32.125 -13.319 -44.548  0.00  0.00    +0.000 A 
ATOM     27  C4  UNL     1      31.639 -12.619 -43.441  0.00  0.00    +0.000 A 
ATOM     28  C5  UNL     1      31.812 -11.229 -43.348  0.00  0.00    +0.000 A 
ATOM     29  C22 UNL     1      32.504 -10.557 -44.365  0.00  0.00    +0.000 A 
ATOM     30  C23 UNL     1      32.990 -11.257 -45.474  0.00  0.00    +0.000 A 
BRANCH  25  32
ATOM     31  C1  UNL     1      33.080 -14.799 -46.819  0.00  0.00    +0.000 C 
ATOM     32  O1  UNL     1      33.256 -13.394 -46.672  0.00  0.00    +0.000 OA
ENDBRANCH  25  32
ENDBRANCH  24  28
ENDBRANCH  20  24
ENDBRANCH   1  21
TORSDOF 7
ENDMDL
MODEL 2
REMARK VINA RESULT:    -6.692      3.395      7.506
REMARK INTER + INTRA:         -10.374
REMARK INTER:                  -8.732
REMARK INTRA:                  -1.641
REMARK UNBOUND:                -1.138
REMARK  Name = resultss/4CJN/ligands/lig_266_t1.pdb
REMARK  8 active torsions:
REMARK  status: ('A' for Active; 'I' for Inactive)
REMARK    1  A    between atoms: C1_1  and  O1_2
REMARK    2  A    between atoms: O1_2  and  C2_3
REMARK    3  A    between atoms: C5_6  and  C6_7
REMARK    4  A    between atoms: C6_7  and  N1_8
REMARK    5  A    between atoms: C7_9  and  O2_10
REMARK    6  A    between atoms: C7_9  and  C8_11
REMARK    7  A    between atoms: C9_12  and  N2_13
REMARK    8  A    between atoms: C10_14  and  C11_16
REMARK                            x       y       z     vdW  Elec       q    Type
REMARK                         _______ _______ _______ _____ _____    ______ ____
ROOT
ATOM      1  C8  UNL     1      25.310  -8.394 -37.153  0.00  0.00    +0.000 A 
ATOM      2  C9  UNL     1      26.645  -8.793 -36.998  0.00  0.00    +0.000 A 
ATOM      3  S1  UNL     1      26.990  -8.967 -35.356  0.00  0.00    +0.000 S 
ATOM      4  C16 UNL     1      25.456  -8.554 -34.819  0.00  0.00    +0.000 A 
ATOM      5  C17 UNL     1      24.634  -8.295 -35.912  0.00  0.00    +0.000 A 
ATOM      6  C18 UNL     1      23.190  -7.891 -35.729  0.00  0.00    +0.000 C 
ATOM      7  C19 UNL     1      22.669  -8.221 -34.319  0.00  0.00    +0.000 C 
ATOM      8  C20 UNL     1      23.679  -7.806 -33.236  0.00  0.00    +0.000 C 
ATOM      9  C21 UNL     1      24.995  -8.579 -33.393  0.00  0.00    +0.000 C 
ENDROOT
BRANCH   2  10
ATOM     10  N2  UNL     1      27.618  -8.862 -38.053  0.00  0.00    +0.000 N 
ATOM     11  C10 UNL     1      28.136 -10.098 -38.580  0.00  0.00    +0.000 C 
ATOM     12  O3  UNL     1      27.713 -11.198 -38.132  0.00  0.00    +0.000 OA
ATOM     13  H9  UNL     1      27.999  -7.959 -38.409  0.00  0.00    +0.000 HD
BRANCH  11  14
ATOM     14  C11 UNL     1      29.168 -10.107 -39.647  0.00  0.00    +0.000 A 
ATOM     15  C12 UNL     1      28.979 -10.802 -40.855  0.00  0.00    +0.000 A 
ATOM     16  C13 UNL     1      29.976 -10.793 -41.835  0.00  0.00    +0.000 A 
ATOM     17  C14 UNL     1      31.163 -10.102 -41.596  0.00  0.00    +0.000 A 
ATOM     18  N3  UNL     1      31.345  -9.447 -40.420  0.00  0.00    +0.000 NA
ATOM     19  C15 UNL     1      30.390  -9.437 -39.452  0.00  0.00    +0.000 A 
ENDBRANCH  11  14
ENDBRANCH   2  10
BRANCH   1  21
ATOM     20  N1  UNL     1      24.784  -9.027 -39.415  0.00  0.00    +0.000 NA
ATOM     21  C7  UNL     1      24.686  -8.136 -38.471  0.00  0.00    +0.000 C 
BRANCH  21  22
ATOM     22  O2  UNL     1      23.996  -6.935 -38.666  0.00  0.00    +0.000 OA
ATOM     23  H8  UNL     1      23.072  -6.883 -39.070  0.00  0.00    +0.000 HD
ENDBRANCH  21  22
BRANCH  20  24
ATOM     24  C6  UNL     1      24.244  -8.920 -40.770  0.00  0.00    +0.000 C 
BRANCH  24  28
ATOM     25  C2  UNL     1      27.312  -7.710 -43.568  0.00  0.00    +0.000 A 
ATOM     26  C3  UNL     1      26.591  -6.749 -42.848  0.00  0.00    +0.000 A 
ATOM     27  C4  UNL     1      25.597  -7.136 -41.947  0.00  0.00    +0.000 A 
ATOM     28  C5  UNL     1      25.313  -8.496 -41.743  0.00  0.00    +0.000 A 
ATOM     29  C22 UNL     1      26.018  -9.459 -42.478  0.00  0.00    +0.000 A 
ATOM     30  C23 UNL     1      27.014  -9.072 -43.381  0.00  0.00    +0.000 A 
BRANCH  25  32
ATOM     31  C1  UNL     1      28.128  -7.116 -45.856  0.00  0.00    +0.000 C 
ATOM     32  O1  UNL     1      28.309  -7.271 -44.453  0.00  0.00    +0.000 OA
ENDBRANCH  25  32
ENDBRANCH  24  28
ENDBRANCH  20  24
ENDBRANCH   1  21
TORSDOF 7
ENDMDL
MODEL 3
REMARK VINA RESULT:    -6.646      3.871      7.519
REMARK INTER + INTRA:         -10.309
REMARK INTER:                  -8.308
REMARK INTRA:                  -2.001
REMARK UNBOUND:                -1.138
REMARK  Name = resultss/4CJN/ligands/lig_266_t1.pdb
REMARK  8 active torsions:
REMARK  status: ('A' for Active; 'I' for Inactive)
REMARK    1  A    between atoms: C1_1  and  O1_2
REMARK    2  A    between atoms: O1_2  and  C2_3
REMARK    3  A    between atoms: C5_6  and  C6_7
REMARK    4  A    between atoms: C6_7  and  N1_8
REMARK    5  A    between atoms: C7_9  and  O2_10
REMARK    6  A    between atoms: C7_9  and  C8_11
REMARK    7  A    between atoms: C9_12  and  N2_13
REMARK    8  A    between atoms: C10_14  and  C11_16
REMARK                            x       y       z     vdW  Elec       q    Type
REMARK                         _______ _______ _______ _____ _____    ______ ____
ROOT
ATOM      1  C8  UNL     1      26.537  -9.295 -39.840  0.00  0.00    +0.000 A 
ATOM      2  C9  UNL     1      25.261  -8.852 -39.465  0.00  0.00    +0.000 A 
ATOM      3  S1  UNL     1      24.555  -8.025 -40.756  0.00  0.00    +0.000 S 
ATOM      4  C16 UNL     1      25.843  -8.228 -41.809  0.00  0.00    +0.000 A 
ATOM      5  C17 UNL     1      26.845  -8.967 -41.184  0.00  0.00    +0.000 A 
ATOM      6  C18 UNL     1      28.134  -9.300 -41.895  0.00  0.00    +0.000 C 
ATOM      7  C19 UNL     1      28.017  -9.126 -43.420  0.00  0.00    +0.000 C 
ATOM      8  C20 UNL     1      27.311  -7.810 -43.782  0.00  0.00    +0.000 C 
ATOM      9  C21 UNL     1      25.874  -7.795 -43.243  0.00  0.00    +0.000 C 
ENDROOT
BRANCH   2  10
ATOM     10  N2  UNL     1      24.714  -8.923 -38.139  0.00  0.00    +0.000 N 
ATOM     11  C10 UNL     1      24.983  -7.949 -37.113  0.00  0.00    +0.000 C 
ATOM     12  O3  UNL     1      25.713  -6.953 -37.369  0.00  0.00    +0.000 OA
ATOM     13  H9  UNL     1      24.135  -9.759 -37.906  0.00  0.00    +0.000 HD
BRANCH  11  14
ATOM     14  C11 UNL     1      24.418  -8.093 -35.747  0.00  0.00    +0.000 A 
ATOM     15  C12 UNL     1      25.201  -8.528 -34.663  0.00  0.00    +0.000 A 
ATOM     16  C13 UNL     1      24.632  -8.656 -33.392  0.00  0.00    +0.000 A 
ATOM     17  C14 UNL     1      23.280  -8.364 -33.216  0.00  0.00    +0.000 A 
ATOM     18  N3  UNL     1      22.527  -7.960 -34.272  0.00  0.00    +0.000 NA
ATOM     19  C15 UNL     1      23.056  -7.823 -35.517  0.00  0.00    +0.000 A 
ENDBRANCH  11  14
ENDBRANCH   2  10
BRANCH   1  21
ATOM     20  N1  UNL     1      27.944  -9.447 -37.892  0.00  0.00    +0.000 NA
ATOM     21  C7  UNL     1      27.437 -10.044 -38.933  0.00  0.00    +0.000 C 
BRANCH  21  22
ATOM     22  O2  UNL     1      27.716 -11.385 -39.218  0.00  0.00    +0.000 OA
ATOM     23  H8  UNL     1      27.512 -11.819 -40.106  0.00  0.00    +0.000 HD
ENDBRANCH  21  22
BRANCH  20  24
ATOM     24  C6  UNL     1      28.858 -10.035 -36.914  0.00  0.00    +0.000 C 
BRANCH  24  28
ATOM     25  C2  UNL     1      28.770  -7.816 -33.202  0.00  0.00    +0.000 A 
ATOM     26  C3  UNL     1      28.880  -9.212 -33.191  0.00  0.00    +0.000 A 
ATOM     27  C4  UNL     1      28.905  -9.932 -34.387  0.00  0.00    +0.000 A 
ATOM     28  C5  UNL     1      28.829  -9.264 -35.620  0.00  0.00    +0.000 A 
ATOM     29  C22 UNL     1      28.697  -7.869 -35.634  0.00  0.00    +0.000 A 
ATOM     30  C23 UNL     1      28.672  -7.146 -34.436  0.00  0.00    +0.000 A 
BRANCH  25  32
ATOM     31  C1  UNL     1      27.723  -6.263 -31.545  0.00  0.00    +0.000 C 
ATOM     32  O1  UNL     1      28.762  -7.137 -31.974  0.00  0.00    +0.000 OA
ENDBRANCH  25  32
ENDBRANCH  24  28
ENDBRANCH  20  24
ENDBRANCH   1  21
TORSDOF 7
ENDMDL
MODEL 4
REMARK VINA RESULT:    -6.568      2.901      7.459
REMARK INTER + INTRA:         -10.202
REMARK INTER:                  -8.735
REMARK INTRA:                  -1.467
REMARK UNBOUND:                -1.138
REMARK  Name = resultss/4CJN/ligands/lig_266_t1.pdb
REMARK  8 active torsions:
REMARK  status: ('A' for Active; 'I' for Inactive)
REMARK    1  A    between atoms: C1_1  and  O1_2
REMARK    2  A    between atoms: O1_2  and  C2_3
REMARK    3  A    between atoms: C5_6  and  C6_7
REMARK    4  A    between atoms: C6_7  and  N1_8
REMARK    5  A    between atoms: C7_9  and  O2_10
REMARK    6  A    between atoms: C7_9  and  C8_11
REMARK    7  A    between atoms: C9_12  and  N2_13
REMARK    8  A    between atoms: C10_14  and  C11_16
REMARK                            x       y       z     vdW  Elec       q    Type
REMARK                         _______ _______ _______ _____ _____    ______ ____
ROOT
ATOM      1  C8  UNL     1      28.438 -10.128 -37.747  0.00  0.00    +0.000 A 
ATOM      2  C9  UNL     1      29.838 -10.054 -37.769  0.00  0.00    +0.000 A 
ATOM      3  S1  UNL     1      30.381  -9.312 -36.354  0.00  0.00    +0.000 S 
ATOM      4  C16 UNL     1      28.859  -9.088 -35.689  0.00  0.00    +0.000 A 
ATOM      5  C17 UNL     1      27.893  -9.608 -36.547  0.00  0.00    +0.000 A 
ATOM      6  C18 UNL     1      26.424  -9.541 -36.207  0.00  0.00    +0.000 C 
ATOM      7  C19 UNL     1      26.185  -9.259 -34.713  0.00  0.00    +0.000 C 
ATOM      8  C20 UNL     1      27.098  -8.133 -34.202  0.00  0.00    +0.000 C 
ATOM      9  C21 UNL     1      28.576  -8.528 -34.328  0.00  0.00    +0.000 C 
ENDROOT
BRANCH   2  10
ATOM     10  N2  UNL     1      30.669 -10.384 -38.893  0.00  0.00    +0.000 N 
ATOM     11  C10 UNL     1      30.777  -9.564 -40.072  0.00  0.00    +0.000 C 
ATOM     12  O3  UNL     1      30.141  -8.477 -40.141  0.00  0.00    +0.000 OA
ATOM     13  H9  UNL     1      31.175 -11.296 -38.862  0.00  0.00    +0.000 HD
BRANCH  11  14
ATOM     14  C11 UNL     1      31.626  -9.972 -41.219  0.00  0.00    +0.000 A 
ATOM     15  C12 UNL     1      31.070 -10.464 -42.414  0.00  0.00    +0.000 A 
ATOM     16  C13 UNL     1      31.901 -10.844 -43.472  0.00  0.00    +0.000 A 
ATOM     17  C14 UNL     1      33.285 -10.745 -43.323  0.00  0.00    +0.000 A 
ATOM     18  N3  UNL     1      33.814 -10.284 -42.161  0.00  0.00    +0.000 NA
ATOM     19  C15 UNL     1      33.027  -9.904 -41.118  0.00  0.00    +0.000 A 
ENDBRANCH  11  14
ENDBRANCH   2  10
BRANCH   1  21
ATOM     20  N1  UNL     1      26.949  -9.926 -39.628  0.00  0.00    +0.000 NA
ATOM     21  C7  UNL     1      27.637 -10.710 -38.848  0.00  0.00    +0.000 C 
BRANCH  21  22
ATOM     22  O2  UNL     1      27.645 -12.097 -39.026  0.00  0.00    +0.000 OA
ATOM     23  H8  UNL     1      27.941 -12.548 -39.880  0.00  0.00    +0.000 HD
ENDBRANCH  21  22
BRANCH  20  24
ATOM     24  C6  UNL     1      26.098 -10.339 -40.742  0.00  0.00    +0.000 C 
BRANCH  24  28
ATOM     25  C2  UNL     1      26.742  -7.814 -44.194  0.00  0.00    +0.000 A 
ATOM     26  C3  UNL     1      25.444  -8.064 -43.732  0.00  0.00    +0.000 A 
ATOM     27  C4  UNL     1      25.232  -8.882 -42.620  0.00  0.00    +0.000 A 
ATOM     28  C5  UNL     1      26.319  -9.458 -41.944  0.00  0.00    +0.000 A 
ATOM     29  C22 UNL     1      27.618  -9.227 -42.418  0.00  0.00    +0.000 A 
ATOM     30  C23 UNL     1      27.832  -8.408 -43.532  0.00  0.00    +0.000 A 
BRANCH  25  32
ATOM     31  C1  UNL     1      27.912  -7.138 -46.298  0.00  0.00    +0.000 C 
ATOM     32  O1  UNL     1      26.903  -6.975 -45.308  0.00  0.00    +0.000 OA
ENDBRANCH  25  32
ENDBRANCH  24  28
ENDBRANCH  20  24
ENDBRANCH   1  21
TORSDOF 7
ENDMDL
MODEL 5
REMARK VINA RESULT:    -6.350      4.057      7.054
REMARK INTER + INTRA:          -9.901
REMARK INTER:                  -8.925
REMARK INTRA:                  -0.976
REMARK UNBOUND:                -1.138
REMARK  Name = resultss/4CJN/ligands/lig_266_t1.pdb
REMARK  8 active torsions:
REMARK  status: ('A' for Active; 'I' for Inactive)
REMARK    1  A    between atoms: C1_1  and  O1_2
REMARK    2  A    between atoms: O1_2  and  C2_3
REMARK    3  A    between atoms: C5_6  and  C6_7
REMARK    4  A    between atoms: C6_7  and  N1_8
REMARK    5  A    between atoms: C7_9  and  O2_10
REMARK    6  A    between atoms: C7_9  and  C8_11
REMARK    7  A    between atoms: C9_12  and  N2_13
REMARK    8  A    between atoms: C10_14  and  C11_16
REMARK                            x       y       z     vdW  Elec       q    Type
REMARK                         _______ _______ _______ _____ _____    ______ ____
ROOT
ATOM      1  C8  UNL     1      26.575  -8.876 -39.618  0.00  0.00    +0.000 A 
ATOM      2  C9  UNL     1      27.014  -8.640 -38.308  0.00  0.00    +0.000 A 
ATOM      3  S1  UNL     1      28.626  -9.119 -38.164  0.00  0.00    +0.000 S 
ATOM      4  C16 UNL     1      28.795  -9.615 -39.756  0.00  0.00    +0.000 A 
ATOM      5  C17 UNL     1      27.603  -9.397 -40.442  0.00  0.00    +0.000 A 
ATOM      6  C18 UNL     1      27.460  -9.757 -41.902  0.00  0.00    +0.000 C 
ATOM      7  C19 UNL     1      28.824  -9.953 -42.587  0.00  0.00    +0.000 C 
ATOM      8  C20 UNL     1      29.770 -10.802 -41.722  0.00  0.00    +0.000 C 
ATOM      9  C21 UNL     1      30.063 -10.104 -40.388  0.00  0.00    +0.000 C 
ENDROOT
BRANCH   2  10
ATOM     10  N2  UNL     1      26.177  -8.235 -37.213  0.00  0.00    +0.000 N 
ATOM     11  C10 UNL     1      25.944  -9.045 -36.046  0.00  0.00    +0.000 C 
ATOM     12  O3  UNL     1      26.511 -10.166 -35.936  0.00  0.00    +0.000 OA
ATOM     13  H9  UNL     1      25.677  -7.324 -37.307  0.00  0.00    +0.000 HD
BRANCH  11  14
ATOM     14  C11 UNL     1      25.040  -8.589 -34.960  0.00  0.00    +0.000 A 
ATOM     15  C12 UNL     1      24.733  -9.408 -33.859  0.00  0.00    +0.000 A 
ATOM     16  C13 UNL     1      23.873  -8.946 -32.857  0.00  0.00    +0.000 A 
ATOM     17  C14 UNL     1      23.315  -7.673 -32.970  0.00  0.00    +0.000 A 
ATOM     18  N3  UNL     1      23.604  -6.895 -34.044  0.00  0.00    +0.000 NA
ATOM     19  C15 UNL     1      24.439  -7.318 -35.030  0.00  0.00    +0.000 A 
ENDBRANCH  11  14
ENDBRANCH   2  10
BRANCH   1  21
ATOM     20  N1  UNL     1      24.932  -7.424 -40.613  0.00  0.00    +0.000 NA
ATOM     21  C7  UNL     1      25.199  -8.582 -40.081  0.00  0.00    +0.000 C 
BRANCH  21  22
ATOM     22  O2  UNL     1      24.216  -9.566 -39.937  0.00  0.00    +0.000 OA
ATOM     23  H8  UNL     1      23.301  -9.506 -40.362  0.00  0.00    +0.000 HD
ENDBRANCH  21  22
BRANCH  20  24
ATOM     24  C6  UNL     1      23.630  -6.971 -41.100  0.00  0.00    +0.000 C 
BRANCH  24  28
ATOM     25  C2  UNL     1      23.378  -7.361 -45.400  0.00  0.00    +0.000 A 
ATOM     26  C3  UNL     1      22.242  -7.033 -44.651  0.00  0.00    +0.000 A 
ATOM     27  C4  UNL     1      22.318  -6.910 -43.262  0.00  0.00    +0.000 A 
ATOM     28  C5  UNL     1      23.539  -7.105 -42.598  0.00  0.00    +0.000 A 
ATOM     29  C22 UNL     1      24.674  -7.455 -43.344  0.00  0.00    +0.000 A 
ATOM     30  C23 UNL     1      24.599  -7.578 -44.735  0.00  0.00    +0.000 A 
BRANCH  25  32
ATOM     31  C1  UNL     1      22.010  -7.514 -47.488  0.00  0.00    +0.000 C 
ATOM     32  O1  UNL     1      23.252  -7.461 -46.795  0.00  0.00    +0.000 OA
ENDBRANCH  25  32
ENDBRANCH  24  28
ENDBRANCH  20  24
ENDBRANCH   1  21
TORSDOF 7
ENDMDL
MODEL 6
REMARK VINA RESULT:    -6.300      1.499      2.107
REMARK INTER + INTRA:          -9.831
REMARK INTER:                  -8.935
REMARK INTRA:                  -0.897
REMARK UNBOUND:                -1.138
REMARK  Name = resultss/4CJN/ligands/lig_266_t1.pdb
REMARK  8 active torsions:
REMARK  status: ('A' for Active; 'I' for Inactive)
REMARK    1  A    between atoms: C1_1  and  O1_2
REMARK    2  A    between atoms: O1_2  and  C2_3
REMARK    3  A    between atoms: C5_6  and  C6_7
REMARK    4  A    between atoms: C6_7  and  N1_8
REMARK    5  A    between atoms: C7_9  and  O2_10
REMARK    6  A    between atoms: C7_9  and  C8_11
REMARK    7  A    between atoms: C9_12  and  N2_13
REMARK    8  A    between atoms: C10_14  and  C11_16
REMARK                            x       y       z     vdW  Elec       q    Type
REMARK                         _______ _______ _______ _____ _____    ______ ____
ROOT
ATOM      1  C8  UNL     1      29.085  -8.499 -40.859  0.00  0.00    +0.000 A 
ATOM      2  C9  UNL     1      28.383  -8.456 -39.647  0.00  0.00    +0.000 A 
ATOM      3  S1  UNL     1      26.781  -8.014 -39.944  0.00  0.00    +0.000 S 
ATOM      4  C16 UNL     1      26.949  -7.886 -41.607  0.00  0.00    +0.000 A 
ATOM      5  C17 UNL     1      28.255  -8.208 -41.970  0.00  0.00    +0.000 A 
ATOM      6  C18 UNL     1      28.699  -8.172 -43.412  0.00  0.00    +0.000 C 
ATOM      7  C19 UNL     1      27.508  -8.178 -44.387  0.00  0.00    +0.000 C 
ATOM      8  C20 UNL     1      26.415  -7.194 -43.943  0.00  0.00    +0.000 C 
ATOM      9  C21 UNL     1      25.844  -7.592 -42.575  0.00  0.00    +0.000 C 
ENDROOT
BRANCH   2  10
ATOM     10  N2  UNL     1      28.970  -8.582 -38.342  0.00  0.00    +0.000 N 
ATOM     11  C10 UNL     1      28.609  -9.611 -37.402  0.00  0.00    +0.000 C 
ATOM     12  O3  UNL     1      27.754 -10.481 -37.720  0.00  0.00    +0.000 OA
ATOM     13  H9  UNL     1      29.656  -7.850 -38.055  0.00  0.00    +0.000 HD
BRANCH  11  14
ATOM     14  C11 UNL     1      29.226  -9.671 -36.052  0.00  0.00    +0.000 A 
ATOM     15  C12 UNL     1      30.610  -9.513 -35.862  0.00  0.00    +0.000 A 
ATOM     16  C13 UNL     1      31.156  -9.582 -34.577  0.00  0.00    +0.000 A 
ATOM     17  C14 UNL     1      30.316  -9.824 -33.490  0.00  0.00    +0.000 A 
ATOM     18  N3  UNL     1      28.983  -9.992 -33.684  0.00  0.00    +0.000 NA
ATOM     19  C15 UNL     1      28.426  -9.926 -34.923  0.00  0.00    +0.000 A 
ENDBRANCH  11  14
ENDBRANCH   2  10
BRANCH   1  21
ATOM     20  N1  UNL     1      30.895  -9.879 -41.645  0.00  0.00    +0.000 NA
ATOM     21  C7  UNL     1      30.523  -8.839 -40.955  0.00  0.00    +0.000 C 
BRANCH  21  22
ATOM     22  O2  UNL     1      31.453  -8.023 -40.301  0.00  0.00    +0.000 OA
ATOM     23  H8  UNL     1      31.937  -8.296 -39.458  0.00  0.00    +0.000 HD
ENDBRANCH  21  22
BRANCH  20  24
ATOM     24  C6  UNL     1      32.264 -10.359 -41.822  0.00  0.00    +0.000 C 
BRANCH  24  28
ATOM     25  C2  UNL     1      32.608 -12.735 -45.421  0.00  0.00    +0.000 A 
ATOM     26  C3  UNL     1      33.153 -11.446 -45.368  0.00  0.00    +0.000 A 
ATOM     27  C4  UNL     1      33.040 -10.675 -44.209  0.00  0.00    +0.000 A 
ATOM     28  C5  UNL     1      32.386 -11.185 -43.077  0.00  0.00    +0.000 A 
ATOM     29  C22 UNL     1      31.821 -12.467 -43.135  0.00  0.00    +0.000 A 
ATOM     30  C23 UNL     1      31.933 -13.240 -44.294  0.00  0.00    +0.000 A 
BRANCH  25  32
ATOM     31  C1  UNL     1      33.049 -14.867 -46.651  0.00  0.00    +0.000 C 
ATOM     32  O1  UNL     1      32.757 -13.474 -46.604  0.00  0.00    +0.000 OA
ENDBRANCH  25  32
ENDBRANCH  24  28
ENDBRANCH  20  24
ENDBRANCH   1  21
TORSDOF 7
ENDMDL
MODEL 7
REMARK VINA RESULT:    -6.203      2.816      6.987
REMARK INTER + INTRA:          -9.698
REMARK INTER:                  -7.793
REMARK INTRA:                  -1.905
REMARK UNBOUND:                -1.138
REMARK  Name = resultss/4CJN/ligands/lig_266_t1.pdb
REMARK  8 active torsions:
REMARK  status: ('A' for Active; 'I' for Inactive)
REMARK    1  A    between atoms: C1_1  and  O1_2
REMARK    2  A    between atoms: O1_2  and  C2_3
REMARK    3  A    between atoms: C5_6  and  C6_7
REMARK    4  A    between atoms: C6_7  and  N1_8
REMARK    5  A    between atoms: C7_9  and  O2_10
REMARK    6  A    between atoms: C7_9  and  C8_11
REMARK    7  A    between atoms: C9_12  and  N2_13
REMARK    8  A    between atoms: C10_14  and  C11_16
REMARK                            x       y       z     vdW  Elec       q    Type
REMARK                         _______ _______ _______ _____ _____    ______ ____
ROOT
ATOM      1  C8  UNL     1      25.911  -8.452 -36.640  0.00  0.00    +0.000 A 
ATOM      2  C9  UNL     1      25.439  -7.579 -37.631  0.00  0.00    +0.000 A 
ATOM      3  S1  UNL     1      23.944  -6.954 -37.159  0.00  0.00    +0.000 S 
ATOM      4  C16 UNL     1      23.879  -7.764 -35.693  0.00  0.00    +0.000 A 
ATOM      5  C17 UNL     1      25.035  -8.523 -35.528  0.00  0.00    +0.000 A 
ATOM      6  C18 UNL     1      25.250  -9.367 -34.295  0.00  0.00    +0.000 C 
ATOM      7  C19 UNL     1      24.318  -8.956 -33.140  0.00  0.00    +0.000 C 
ATOM      8  C20 UNL     1      22.876  -8.747 -33.631  0.00  0.00    +0.000 C 
ATOM      9  C21 UNL     1      22.809  -7.607 -34.656  0.00  0.00    +0.000 C 
ENDROOT
BRANCH   2  10
ATOM     10  N2  UNL     1      26.036  -7.391 -38.923  0.00  0.00    +0.000 N 
ATOM     11  C10 UNL     1      25.748  -8.222 -40.063  0.00  0.00    +0.000 C 
ATOM     12  O3  UNL     1      24.910  -9.158 -39.962  0.00  0.00    +0.000 OA
ATOM     13  H9  UNL     1      26.755  -6.640 -39.011  0.00  0.00    +0.000 HD
BRANCH  11  14
ATOM     14  C11 UNL     1      26.423  -8.001 -41.367  0.00  0.00    +0.000 A 
ATOM     15  C12 UNL     1      27.683  -7.383 -41.454  0.00  0.00    +0.000 A 
ATOM     16  C13 UNL     1      28.285  -7.187 -42.701  0.00  0.00    +0.000 A 
ATOM     17  C14 UNL     1      27.617  -7.597 -43.854  0.00  0.00    +0.000 A 
ATOM     18  N3  UNL     1      26.393  -8.178 -43.763  0.00  0.00    +0.000 NA
ATOM     19  C15 UNL     1      25.787  -8.384 -42.563  0.00  0.00    +0.000 A 
ENDBRANCH  11  14
ENDBRANCH   2  10
BRANCH   1  21
ATOM     20  N1  UNL     1      28.195  -8.643 -37.377  0.00  0.00    +0.000 NA
ATOM     21  C7  UNL     1      27.193  -9.185 -36.745  0.00  0.00    +0.000 C 
BRANCH  21  22
ATOM     22  O2  UNL     1      27.296 -10.448 -36.154  0.00  0.00    +0.000 OA
ATOM     23  H8  UNL     1      28.114 -10.763 -35.651  0.00  0.00    +0.000 HD
ENDBRANCH  21  22
BRANCH  20  24
ATOM     24  C6  UNL     1      29.514  -9.239 -37.586  0.00  0.00    +0.000 C 
BRANCH  24  28
ATOM     25  C2  UNL     1      30.007 -10.477 -41.701  0.00  0.00    +0.000 A 
ATOM     26  C3  UNL     1      30.989  -9.702 -41.072  0.00  0.00    +0.000 A 
ATOM     27  C4  UNL     1      30.831  -9.297 -39.744  0.00  0.00    +0.000 A 
ATOM     28  C5  UNL     1      29.689  -9.669 -39.019  0.00  0.00    +0.000 A 
ATOM     29  C22 UNL     1      28.694 -10.427 -39.653  0.00  0.00    +0.000 A 
ATOM     30  C23 UNL     1      28.851 -10.834 -40.982  0.00  0.00    +0.000 A 
BRANCH  25  32
ATOM     31  C1  UNL     1      31.482 -10.849 -43.686  0.00  0.00    +0.000 C 
ATOM     32  O1  UNL     1      30.218 -10.869 -43.032  0.00  0.00    +0.000 OA
ENDBRANCH  25  32
ENDBRANCH  24  28
ENDBRANCH  20  24
ENDBRANCH   1  21
TORSDOF 7
ENDMDL
MODEL 8
REMARK VINA RESULT:    -6.195      2.979      5.999
REMARK INTER + INTRA:          -9.686
REMARK INTER:                  -8.475
REMARK INTRA:                  -1.211
REMARK UNBOUND:                -1.138
REMARK  Name = resultss/4CJN/ligands/lig_266_t1.pdb
REMARK  8 active torsions:
REMARK  status: ('A' for Active; 'I' for Inactive)
REMARK    1  A    between atoms: C1_1  and  O1_2
REMARK    2  A    between atoms: O1_2  and  C2_3
REMARK    3  A    between atoms: C5_6  and  C6_7
REMARK    4  A    between atoms: C6_7  and  N1_8
REMARK    5  A    between atoms: C7_9  and  O2_10
REMARK    6  A    between atoms: C7_9  and  C8_11
REMARK    7  A    between atoms: C9_12  and  N2_13
REMARK    8  A    between atoms: C10_14  and  C11_16
REMARK                            x       y       z     vdW  Elec       q    Type
REMARK                         _______ _______ _______ _____ _____    ______ ____
ROOT
ATOM      1  C8  UNL     1      29.004  -9.614 -40.740  0.00  0.00    +0.000 A 
ATOM      2  C9  UNL     1      29.410  -9.218 -39.458  0.00  0.00    +0.000 A 
ATOM      3  S1  UNL     1      31.081  -9.412 -39.317  0.00  0.00    +0.000 S 
ATOM      4  C16 UNL     1      31.315  -9.983 -40.875  0.00  0.00    +0.000 A 
ATOM      5  C17 UNL     1      30.096 -10.013 -41.549  0.00  0.00    +0.000 A 
ATOM      6  C18 UNL     1      30.001 -10.493 -42.977  0.00  0.00    +0.000 C 
ATOM      7  C19 UNL     1      31.372 -10.508 -43.677  0.00  0.00    +0.000 C 
ATOM      8  C20 UNL     1      32.454 -11.126 -42.778  0.00  0.00    +0.000 C 
ATOM      9  C21 UNL     1      32.641 -10.297 -41.500  0.00  0.00    +0.000 C 
ENDROOT
BRANCH   2  10
ATOM     10  N2  UNL     1      28.529  -8.882 -38.374  0.00  0.00    +0.000 N 
ATOM     11  C10 UNL     1      27.761  -9.853 -37.640  0.00  0.00    +0.000 C 
ATOM     12  O3  UNL     1      27.866 -11.078 -37.921  0.00  0.00    +0.000 OA
ATOM     13  H9  UNL     1      28.410  -7.869 -38.154  0.00  0.00    +0.000 HD
BRANCH  11  14
ATOM     14  C11 UNL     1      26.839  -9.443 -36.552  0.00  0.00    +0.000 A 
ATOM     15  C12 UNL     1      27.103  -9.746 -35.204  0.00  0.00    +0.000 A 
ATOM     16  C13 UNL     1      26.208  -9.348 -34.206  0.00  0.00    +0.000 A 
ATOM     17  C14 UNL     1      25.047  -8.663 -34.563  0.00  0.00    +0.000 A 
ATOM     18  N3  UNL     1      24.792  -8.389 -35.868  0.00  0.00    +0.000 NA
ATOM     19  C15 UNL     1      25.647  -8.761 -36.858  0.00  0.00    +0.000 A 
ENDBRANCH  11  14
ENDBRANCH   2  10
BRANCH   1  21
ATOM     20  N1  UNL     1      27.202  -8.664 -42.024  0.00  0.00    +0.000 NA
ATOM     21  C7  UNL     1      27.593  -9.585 -41.191  0.00  0.00    +0.000 C 
BRANCH  21  22
ATOM     22  O2  UNL     1      26.713 -10.560 -40.711  0.00  0.00    +0.000 OA
ATOM     23  H8  UNL     1      26.642 -11.488 -41.104  0.00  0.00    +0.000 HD
ENDBRANCH  21  22
BRANCH  20  24
ATOM     24  C6  UNL     1      25.850  -8.485 -42.549  0.00  0.00    +0.000 C 
BRANCH  24  28
ATOM     25  C2  UNL     1      25.935  -6.648 -46.464  0.00  0.00    +0.000 A 
ATOM     26  C3  UNL     1      27.129  -6.959 -45.802  0.00  0.00    +0.000 A 
ATOM     27  C4  UNL     1      27.105  -7.549 -44.536  0.00  0.00    +0.000 A 
ATOM     28  C5  UNL     1      25.882  -7.846 -43.913  0.00  0.00    +0.000 A 
ATOM     29  C22 UNL     1      24.686  -7.516 -44.565  0.00  0.00    +0.000 A 
ATOM     30  C23 UNL     1      24.708  -6.926 -45.833  0.00  0.00    +0.000 A 
BRANCH  25  32
ATOM     31  C1  UNL     1      24.918  -5.965 -48.644  0.00  0.00    +0.000 C 
ATOM     32  O1  UNL     1      26.012  -6.068 -47.740  0.00  0.00    +0.000 OA
ENDBRANCH  25  32
ENDBRANCH  24  28
ENDBRANCH  20  24
ENDBRANCH   1  21
TORSDOF 7
ENDMDL
MODEL 9
REMARK VINA RESULT:    -6.121      3.953      7.473
REMARK INTER + INTRA:          -9.585
REMARK INTER:                  -8.133
REMARK INTRA:                  -1.452
REMARK UNBOUND:                -1.138
REMARK  Name = resultss/4CJN/ligands/lig_266_t1.pdb
REMARK  8 active torsions:
REMARK  status: ('A' for Active; 'I' for Inactive)
REMARK    1  A    between atoms: C1_1  and  O1_2
REMARK    2  A    between atoms: O1_2  and  C2_3
REMARK    3  A    between atoms: C5_6  and  C6_7
REMARK    4  A    between atoms: C6_7  and  N1_8
REMARK    5  A    between atoms: C7_9  and  O2_10
REMARK    6  A    between atoms: C7_9  and  C8_11
REMARK    7  A    between atoms: C9_12  and  N2_13
REMARK    8  A    between atoms: C10_14  and  C11_16
REMARK                            x       y       z     vdW  Elec       q    Type
REMARK                         _______ _______ _______ _____ _____    ______ ____
ROOT
ATOM      1  C8  UNL     1      29.652  -9.190 -39.345  0.00  0.00    +0.000 A 
ATOM      2  C9  UNL     1      28.318  -9.616 -39.285  0.00  0.00    +0.000 A 
ATOM      3  S1  UNL     1      27.972 -10.563 -40.638  0.00  0.00    +0.000 S 
ATOM      4  C16 UNL     1      29.504 -10.460 -41.310  0.00  0.00    +0.000 A 
ATOM      5  C17 UNL     1      30.327  -9.702 -40.481  0.00  0.00    +0.000 A 
ATOM      6  C18 UNL     1      31.769  -9.436 -40.838  0.00  0.00    +0.000 C 
ATOM      7  C19 UNL     1      32.290 -10.406 -41.914  0.00  0.00    +0.000 C 
ATOM      8  C20 UNL     1      31.279 -10.568 -43.060  0.00  0.00    +0.000 C 
ATOM      9  C21 UNL     1      29.964 -11.170 -42.547  0.00  0.00    +0.000 C 
ENDROOT
BRANCH   2  10
ATOM     10  N2  UNL     1      27.346  -9.167 -38.327  0.00  0.00    +0.000 N 
ATOM     11  C10 UNL     1      27.194  -9.744 -37.017  0.00  0.00    +0.000 C 
ATOM     12  O3  UNL     1      27.958 -10.676 -36.648  0.00  0.00    +0.000 OA
ATOM     13  H9  UNL     1      26.687  -8.418 -38.632  0.00  0.00    +0.000 HD
BRANCH  11  14
ATOM     14  C11 UNL     1      26.147  -9.262 -36.080  0.00  0.00    +0.000 A 
ATOM     15  C12 UNL     1      26.150  -9.616 -34.719  0.00  0.00    +0.000 A 
ATOM     16  C13 UNL     1      25.145  -9.148 -33.868  0.00  0.00    +0.000 A 
ATOM     17  C14 UNL     1      24.132  -8.341 -34.386  0.00  0.00    +0.000 A 
ATOM     18  N3  UNL     1      24.127  -8.017 -35.705  0.00  0.00    +0.000 NA
ATOM     19  C15 UNL     1      25.095  -8.456 -36.554  0.00  0.00    +0.000 A 
ENDBRANCH  11  14
ENDBRANCH   2  10
BRANCH   1  21
ATOM     20  N1  UNL     1      31.140  -8.835 -37.486  0.00  0.00    +0.000 NA
ATOM     21  C7  UNL     1      30.277  -8.325 -38.318  0.00  0.00    +0.000 C 
BRANCH  21  22
ATOM     22  O2  UNL     1      29.926  -6.973 -38.271  0.00  0.00    +0.000 OA
ATOM     23  H8  UNL     1      30.596  -6.227 -38.154  0.00  0.00    +0.000 HD
ENDBRANCH  21  22
BRANCH  20  24
ATOM     24  C6  UNL     1      31.830  -8.128 -36.409  0.00  0.00    +0.000 C 
BRANCH  24  28
ATOM     25  C2  UNL     1      31.384 -10.233 -32.656  0.00  0.00    +0.000 A 
ATOM     26  C3  UNL     1      32.655  -9.867 -33.117  0.00  0.00    +0.000 A 
ATOM     27  C4  UNL     1      32.803  -9.191 -34.330  0.00  0.00    +0.000 A 
ATOM     28  C5  UNL     1      31.678  -8.860 -35.101  0.00  0.00    +0.000 A 
ATOM     29  C22 UNL     1      30.406  -9.244 -34.652  0.00  0.00    +0.000 A 
ATOM     30  C23 UNL     1      30.256  -9.921 -33.438  0.00  0.00    +0.000 A 
BRANCH  25  32
ATOM     31  C1  UNL     1      32.236 -11.847 -30.947  0.00  0.00    +0.000 C 
ATOM     32  O1  UNL     1      31.287 -10.900 -31.425  0.00  0.00    +0.000 OA
ENDBRANCH  25  32
ENDBRANCH  24  28
ENDBRANCH  20  24
ENDBRANCH   1  21
TORSDOF 7
ENDMDL
