MODEL 1
REMARK VINA RESULT:    -5.513      0.000      0.000
REMARK INTER + INTRA:          -6.281
REMARK INTER:                  -5.996
REMARK INTRA:                  -0.285
REMARK UNBOUND:                -0.285
REMARK  Name = resultss/4CJN/ligands/lig_36_t1.pdb
REMARK  2 active torsions:
REMARK  status: ('A' for Active; 'I' for Inactive)
REMARK    1  A    between atoms: C2_3  and  C3_4
REMARK    2  A    between atoms: C6_7  and  O2_8
REMARK                            x       y       z     vdW  Elec       q    Type
REMARK                         _______ _______ _______ _____ _____    ______ ____
ROOT
ATOM      1  O1  UNL     1      27.636 -10.409 -36.681  0.00  0.00    +0.000 OA
ATOM      2  C1  UNL     1      26.854  -9.515 -37.106  0.00  0.00    +0.000 A 
ATOM      3  C2  UNL     1      26.998  -9.025 -38.417  0.00  0.00    +0.000 A 
ATOM      4  C9  UNL     1      26.136  -8.004 -38.839  0.00  0.00    +0.000 A 
ATOM      5  O3  UNL     1      25.206  -7.521 -38.027  0.00  0.00    +0.000 OA
ATOM      6  C10 UNL     1      25.024  -7.964 -36.787  0.00  0.00    +0.000 A 
ATOM      7  C11 UNL     1      23.947  -7.313 -35.961  0.00  0.00    +0.000 C 
ATOM      8  C12 UNL     1      23.531  -8.182 -34.811  0.00  0.00    +0.000 C 
ATOM      9  O4  UNL     1      22.355  -8.249 -34.487  0.00  0.00    +0.000 OA
ATOM     10  C13 UNL     1      24.576  -8.879 -33.994  0.00  0.00    +0.000 C 
ATOM     11  C14 UNL     1      25.635  -9.478 -34.875  0.00  0.00    +0.000 C 
ATOM     12  O5  UNL     1      26.365 -10.387 -34.395  0.00  0.00    +0.000 OA
ATOM     13  C15 UNL     1      25.850  -8.985 -36.267  0.00  0.00    +0.000 A 
ENDROOT
BRANCH   3  14
ATOM     14  C3  UNL     1      28.027  -9.555 -39.347  0.00  0.00    +0.000 A 
ATOM     15  C4  UNL     1      27.712 -10.602 -40.230  0.00  0.00    +0.000 A 
ATOM     16  C5  UNL     1      28.681 -11.109 -41.102  0.00  0.00    +0.000 A 
ATOM     17  C6  UNL     1      29.977 -10.581 -41.098  0.00  0.00    +0.000 A 
ATOM     18  C7  UNL     1      30.300  -9.542 -40.215  0.00  0.00    +0.000 A 
ATOM     19  C8  UNL     1      29.333  -9.033 -39.344  0.00  0.00    +0.000 A 
BRANCH  17  20
ATOM     20  O2  UNL     1      30.932 -11.096 -41.972  0.00  0.00    +0.000 OA
ATOM     21  H3  UNL     1      31.903 -10.813 -41.920  0.00  0.00    +0.000 HD
ENDBRANCH  17  20
ENDBRANCH   3  14
TORSDOF 2
ENDMDL
MODEL 2
REMARK VINA RESULT:    -5.282      1.594      6.971
REMARK INTER + INTRA:          -6.030
REMARK INTER:                  -5.795
REMARK INTRA:                  -0.235
REMARK UNBOUND:                -0.285
REMARK  Name = resultss/4CJN/ligands/lig_36_t1.pdb
REMARK  2 active torsions:
REMARK  status: ('A' for Active; 'I' for Inactive)
REMARK    1  A    between atoms: C2_3  and  C3_4
REMARK    2  A    between atoms: C6_7  and  O2_8
REMARK                            x       y       z     vdW  Elec       q    Type
REMARK                         _______ _______ _______ _____ _____    ______ ____
ROOT
ATOM      1  O1  UNL     1      24.665  -8.794 -38.023  0.00  0.00    +0.000 OA
ATOM      2  C1  UNL     1      25.908  -8.871 -37.822  0.00  0.00    +0.000 A 
ATOM      3  C2  UNL     1      26.429  -8.585 -36.547  0.00  0.00    +0.000 A 
ATOM      4  C9  UNL     1      27.818  -8.642 -36.373  0.00  0.00    +0.000 A 
ATOM      5  O3  UNL     1      28.617  -8.966 -37.381  0.00  0.00    +0.000 OA
ATOM      6  C10 UNL     1      28.168  -9.259 -38.597  0.00  0.00    +0.000 A 
ATOM      7  C11 UNL     1      29.183  -9.587 -39.659  0.00  0.00    +0.000 C 
ATOM      8  C12 UNL     1      28.564 -10.339 -40.801  0.00  0.00    +0.000 C 
ATOM      9  O4  UNL     1      29.176 -11.250 -41.338  0.00  0.00    +0.000 OA
ATOM     10  C13 UNL     1      27.243  -9.894 -41.350  0.00  0.00    +0.000 C 
ATOM     11  C14 UNL     1      26.288  -9.553 -40.242  0.00  0.00    +0.000 C 
ATOM     12  O5  UNL     1      25.057  -9.520 -40.506  0.00  0.00    +0.000 OA
ATOM     13  C15 UNL     1      26.783  -9.219 -38.874  0.00  0.00    +0.000 A 
ENDROOT
BRANCH   3  14
ATOM     14  C3  UNL     1      25.555  -8.227 -35.401  0.00  0.00    +0.000 A 
ATOM     15  C4  UNL     1      25.016  -6.933 -35.298  0.00  0.00    +0.000 A 
ATOM     16  C5  UNL     1      24.198  -6.591 -34.216  0.00  0.00    +0.000 A 
ATOM     17  C6  UNL     1      23.914  -7.534 -33.222  0.00  0.00    +0.000 A 
ATOM     18  C7  UNL     1      24.454  -8.823 -33.314  0.00  0.00    +0.000 A 
ATOM     19  C8  UNL     1      25.271  -9.168 -34.395  0.00  0.00    +0.000 A 
BRANCH  17  20
ATOM     20  O2  UNL     1      23.098  -7.179 -32.150  0.00  0.00    +0.000 OA
ATOM     21  H3  UNL     1      22.862  -7.843 -31.423  0.00  0.00    +0.000 HD
ENDBRANCH  17  20
ENDBRANCH   3  14
TORSDOF 2
ENDMDL
MODEL 3
REMARK VINA RESULT:    -5.185      1.572      3.122
REMARK INTER + INTRA:          -5.924
REMARK INTER:                  -5.976
REMARK INTRA:                   0.052
REMARK UNBOUND:                -0.285
REMARK  Name = resultss/4CJN/ligands/lig_36_t1.pdb
REMARK  2 active torsions:
REMARK  status: ('A' for Active; 'I' for Inactive)
REMARK    1  A    between atoms: C2_3  and  C3_4
REMARK    2  A    between atoms: C6_7  and  O2_8
REMARK                            x       y       z     vdW  Elec       q    Type
REMARK                         _______ _______ _______ _____ _____    ______ ____
ROOT
ATOM      1  O1  UNL     1      25.458  -7.882 -37.506  0.00  0.00    +0.000 OA
ATOM      2  C1  UNL     1      25.583  -8.427 -36.375  0.00  0.00    +0.000 A 
ATOM      3  C2  UNL     1      26.659  -9.300 -36.134  0.00  0.00    +0.000 A 
ATOM      4  C9  UNL     1      26.741  -9.917 -34.879  0.00  0.00    +0.000 A 
ATOM      5  O3  UNL     1      25.834  -9.676 -33.942  0.00  0.00    +0.000 OA
ATOM      6  C10 UNL     1      24.810  -8.847 -34.120  0.00  0.00    +0.000 A 
ATOM      7  C11 UNL     1      23.838  -8.680 -32.983  0.00  0.00    +0.000 C 
ATOM      8  C12 UNL     1      23.044  -7.414 -33.117  0.00  0.00    +0.000 C 
ATOM      9  O4  UNL     1      22.782  -6.747 -32.128  0.00  0.00    +0.000 OA
ATOM     10  C13 UNL     1      22.478  -7.034 -34.452  0.00  0.00    +0.000 C 
ATOM     11  C14 UNL     1      23.486  -7.253 -35.544  0.00  0.00    +0.000 C 
ATOM     12  O5  UNL     1      23.315  -6.656 -36.640  0.00  0.00    +0.000 OA
ATOM     13  C15 UNL     1      24.636  -8.184 -35.356  0.00  0.00    +0.000 A 
ENDROOT
BRANCH   3  14
ATOM     14  C3  UNL     1      27.692  -9.580 -37.164  0.00  0.00    +0.000 A 
ATOM     15  C4  UNL     1      29.055  -9.428 -36.861  0.00  0.00    +0.000 A 
ATOM     16  C5  UNL     1      30.029  -9.684 -37.831  0.00  0.00    +0.000 A 
ATOM     17  C6  UNL     1      29.653 -10.087 -39.117  0.00  0.00    +0.000 A 
ATOM     18  C7  UNL     1      28.296 -10.233 -39.429  0.00  0.00    +0.000 A 
ATOM     19  C8  UNL     1      27.320  -9.980 -38.461  0.00  0.00    +0.000 A 
BRANCH  17  20
ATOM     20  O2  UNL     1      30.635 -10.339 -40.073  0.00  0.00    +0.000 OA
ATOM     21  H3  UNL     1      30.458 -10.945 -40.865  0.00  0.00    +0.000 HD
ENDBRANCH  17  20
ENDBRANCH   3  14
TORSDOF 2
ENDMDL
MODEL 4
REMARK VINA RESULT:    -5.023      4.876      6.296
REMARK INTER + INTRA:          -5.748
REMARK INTER:                  -5.463
REMARK INTRA:                  -0.285
REMARK UNBOUND:                -0.285
REMARK  Name = resultss/4CJN/ligands/lig_36_t1.pdb
REMARK  2 active torsions:
REMARK  status: ('A' for Active; 'I' for Inactive)
REMARK    1  A    between atoms: C2_3  and  C3_4
REMARK    2  A    between atoms: C6_7  and  O2_8
REMARK                            x       y       z     vdW  Elec       q    Type
REMARK                         _______ _______ _______ _____ _____    ______ ____
ROOT
ATOM      1  O1  UNL     1      27.747  -7.997 -43.987  0.00  0.00    +0.000 OA
ATOM      2  C1  UNL     1      26.932  -8.552 -43.199  0.00  0.00    +0.000 A 
ATOM      3  C2  UNL     1      27.410  -9.391 -42.176  0.00  0.00    +0.000 A 
ATOM      4  C9  UNL     1      26.472 -10.021 -41.347  0.00  0.00    +0.000 A 
ATOM      5  O3  UNL     1      25.172  -9.822 -41.517  0.00  0.00    +0.000 OA
ATOM      6  C10 UNL     1      24.677  -9.027 -42.460  0.00  0.00    +0.000 A 
ATOM      7  C11 UNL     1      23.180  -8.907 -42.561  0.00  0.00    +0.000 C 
ATOM      8  C12 UNL     1      22.774  -7.668 -43.303  0.00  0.00    +0.000 C 
ATOM      9  O4  UNL     1      21.804  -7.022 -42.934  0.00  0.00    +0.000 OA
ATOM     10  C13 UNL     1      23.493  -7.290 -44.562  0.00  0.00    +0.000 C 
ATOM     11  C14 UNL     1      24.977  -7.460 -44.405  0.00  0.00    +0.000 C 
ATOM     12  O5  UNL     1      25.735  -6.856 -45.209  0.00  0.00    +0.000 OA
ATOM     13  C15 UNL     1      25.543  -8.355 -43.352  0.00  0.00    +0.000 A 
ENDROOT
BRANCH   3  14
ATOM     14  C3  UNL     1      28.861  -9.623 -41.961  0.00  0.00    +0.000 A 
ATOM     15  C4  UNL     1      29.531 -10.629 -42.677  0.00  0.00    +0.000 A 
ATOM     16  C5  UNL     1      30.896 -10.855 -42.471  0.00  0.00    +0.000 A 
ATOM     17  C6  UNL     1      31.605 -10.084 -41.544  0.00  0.00    +0.000 A 
ATOM     18  C7  UNL     1      30.942  -9.084 -40.821  0.00  0.00    +0.000 A 
ATOM     19  C8  UNL     1      29.578  -8.855 -41.025  0.00  0.00    +0.000 A 
BRANCH  17  20
ATOM     20  O2  UNL     1      32.964 -10.320 -41.349  0.00  0.00    +0.000 OA
ATOM     21  H3  UNL     1      33.452  -9.963 -40.536  0.00  0.00    +0.000 HD
ENDBRANCH  17  20
ENDBRANCH   3  14
TORSDOF 2
ENDMDL
MODEL 5
REMARK VINA RESULT:    -5.013      2.561      4.028
REMARK INTER + INTRA:          -5.737
REMARK INTER:                  -5.455
REMARK INTRA:                  -0.282
REMARK UNBOUND:                -0.285
REMARK  Name = resultss/4CJN/ligands/lig_36_t1.pdb
REMARK  2 active torsions:
REMARK  status: ('A' for Active; 'I' for Inactive)
REMARK    1  A    between atoms: C2_3  and  C3_4
REMARK    2  A    between atoms: C6_7  and  O2_8
REMARK                            x       y       z     vdW  Elec       q    Type
REMARK                         _______ _______ _______ _____ _____    ______ ____
ROOT
ATOM      1  O1  UNL     1      24.599  -8.427 -37.983  0.00  0.00    +0.000 OA
ATOM      2  C1  UNL     1      25.772  -8.873 -37.855  0.00  0.00    +0.000 A 
ATOM      3  C2  UNL     1      26.532  -9.180 -38.998  0.00  0.00    +0.000 A 
ATOM      4  C9  UNL     1      27.815  -9.712 -38.815  0.00  0.00    +0.000 A 
ATOM      5  O3  UNL     1      28.301  -9.910 -37.597  0.00  0.00    +0.000 OA
ATOM      6  C10 UNL     1      27.626  -9.621 -36.490  0.00  0.00    +0.000 A 
ATOM      7  C11 UNL     1      28.283  -9.918 -35.170  0.00  0.00    +0.000 C 
ATOM      8  C12 UNL     1      27.657  -9.136 -34.052  0.00  0.00    +0.000 C 
ATOM      9  O4  UNL     1      28.355  -8.667 -33.166  0.00  0.00    +0.000 OA
ATOM     10  C13 UNL     1      26.165  -9.030 -33.969  0.00  0.00    +0.000 C 
ATOM     11  C14 UNL     1      25.570  -8.764 -35.322  0.00  0.00    +0.000 C 
ATOM     12  O5  UNL     1      24.403  -8.293 -35.378  0.00  0.00    +0.000 OA
ATOM     13  C15 UNL     1      26.319  -9.090 -36.572  0.00  0.00    +0.000 A 
ENDROOT
BRANCH   3  14
ATOM     14  C3  UNL     1      26.013  -8.959 -40.372  0.00  0.00    +0.000 A 
ATOM     15  C4  UNL     1      26.110  -7.692 -40.971  0.00  0.00    +0.000 A 
ATOM     16  C5  UNL     1      25.614  -7.479 -42.262  0.00  0.00    +0.000 A 
ATOM     17  C6  UNL     1      25.011  -8.526 -42.966  0.00  0.00    +0.000 A 
ATOM     18  C7  UNL     1      24.904  -9.790 -42.372  0.00  0.00    +0.000 A 
ATOM     19  C8  UNL     1      25.399 -10.006 -41.083  0.00  0.00    +0.000 A 
BRANCH  17  20
ATOM     20  O2  UNL     1      24.522  -8.299 -44.250  0.00  0.00    +0.000 OA
ATOM     21  H3  UNL     1      25.096  -8.455 -45.070  0.00  0.00    +0.000 HD
ENDBRANCH  17  20
ENDBRANCH   3  14
TORSDOF 2
ENDMDL
MODEL 6
REMARK VINA RESULT:    -4.932      3.581      5.041
REMARK INTER + INTRA:          -5.649
REMARK INTER:                  -5.362
REMARK INTRA:                  -0.288
REMARK UNBOUND:                -0.285
REMARK  Name = resultss/4CJN/ligands/lig_36_t1.pdb
REMARK  2 active torsions:
REMARK  status: ('A' for Active; 'I' for Inactive)
REMARK    1  A    between atoms: C2_3  and  C3_4
REMARK    2  A    between atoms: C6_7  and  O2_8
REMARK                            x       y       z     vdW  Elec       q    Type
REMARK                         _______ _______ _______ _____ _____    ______ ____
ROOT
ATOM      1  O1  UNL     1      30.595  -9.595 -37.690  0.00  0.00    +0.000 OA
ATOM      2  C1  UNL     1      29.758  -9.625 -36.746  0.00  0.00    +0.000 A 
ATOM      3  C2  UNL     1      28.381  -9.650 -37.033  0.00  0.00    +0.000 A 
ATOM      4  C9  UNL     1      27.483  -9.642 -35.958  0.00  0.00    +0.000 A 
ATOM      5  O3  UNL     1      27.920  -9.622 -34.706  0.00  0.00    +0.000 OA
ATOM      6  C10 UNL     1      29.211  -9.613 -34.389  0.00  0.00    +0.000 A 
ATOM      7  C11 UNL     1      29.573  -9.565 -32.929  0.00  0.00    +0.000 C 
ATOM      8  C12 UNL     1      30.980 -10.031 -32.693  0.00  0.00    +0.000 C 
ATOM      9  O4  UNL     1      31.244 -10.714 -31.715  0.00  0.00    +0.000 OA
ATOM     10  C13 UNL     1      32.076  -9.561 -33.600  0.00  0.00    +0.000 C 
ATOM     11  C14 UNL     1      31.641  -9.604 -35.036  0.00  0.00    +0.000 C 
ATOM     12  O5  UNL     1      32.530  -9.599 -35.929  0.00  0.00    +0.000 OA
ATOM     13  C15 UNL     1      30.194  -9.610 -35.403  0.00  0.00    +0.000 A 
ENDROOT
BRANCH   3  14
ATOM     14  C3  UNL     1      27.867  -9.681 -38.426  0.00  0.00    +0.000 A 
ATOM     15  C4  UNL     1      27.480  -8.491 -39.065  0.00  0.00    +0.000 A 
ATOM     16  C5  UNL     1      26.988  -8.518 -40.374  0.00  0.00    +0.000 A 
ATOM     17  C6  UNL     1      26.872  -9.733 -41.057  0.00  0.00    +0.000 A 
ATOM     18  C7  UNL     1      27.249 -10.924 -40.424  0.00  0.00    +0.000 A 
ATOM     19  C8  UNL     1      27.742 -10.900 -39.116  0.00  0.00    +0.000 A 
BRANCH  17  20
ATOM     20  O2  UNL     1      26.381  -9.744 -42.361  0.00  0.00    +0.000 OA
ATOM     21  H3  UNL     1      25.817  -8.984 -42.720  0.00  0.00    +0.000 HD
ENDBRANCH  17  20
ENDBRANCH   3  14
TORSDOF 2
ENDMDL
MODEL 7
REMARK VINA RESULT:    -4.896      2.484      3.076
REMARK INTER + INTRA:          -5.610
REMARK INTER:                  -5.331
REMARK INTRA:                  -0.279
REMARK UNBOUND:                -0.285
REMARK  Name = resultss/4CJN/ligands/lig_36_t1.pdb
REMARK  2 active torsions:
REMARK  status: ('A' for Active; 'I' for Inactive)
REMARK    1  A    between atoms: C2_3  and  C3_4
REMARK    2  A    between atoms: C6_7  and  O2_8
REMARK                            x       y       z     vdW  Elec       q    Type
REMARK                         _______ _______ _______ _____ _____    ______ ____
ROOT
ATOM      1  O1  UNL     1      28.883  -9.149 -39.011  0.00  0.00    +0.000 OA
ATOM      2  C1  UNL     1      27.689  -8.935 -38.663  0.00  0.00    +0.000 A 
ATOM      3  C2  UNL     1      26.760  -8.461 -39.607  0.00  0.00    +0.000 A 
ATOM      4  C9  UNL     1      25.454  -8.197 -39.173  0.00  0.00    +0.000 A 
ATOM      5  O3  UNL     1      25.103  -8.399 -37.910  0.00  0.00    +0.000 OA
ATOM      6  C10 UNL     1      25.942  -8.860 -36.989  0.00  0.00    +0.000 A 
ATOM      7  C11 UNL     1      25.423  -9.022 -35.586  0.00  0.00    +0.000 C 
ATOM      8  C12 UNL     1      26.275  -9.963 -34.786  0.00  0.00    +0.000 C 
ATOM      9  O4  UNL     1      25.756 -10.748 -34.006  0.00  0.00    +0.000 OA
ATOM     10  C13 UNL     1      27.768  -9.859 -34.866  0.00  0.00    +0.000 C 
ATOM     11  C14 UNL     1      28.218  -9.669 -36.286  0.00  0.00    +0.000 C 
ATOM     12  O5  UNL     1      29.418  -9.927 -36.571  0.00  0.00    +0.000 OA
ATOM     13  C15 UNL     1      27.284  -9.147 -37.327  0.00  0.00    +0.000 A 
ENDROOT
BRANCH   3  14
ATOM     14  C3  UNL     1      27.127  -8.234 -41.028  0.00  0.00    +0.000 A 
ATOM     15  C4  UNL     1      26.903  -9.237 -41.986  0.00  0.00    +0.000 A 
ATOM     16  C5  UNL     1      27.254  -9.029 -43.324  0.00  0.00    +0.000 A 
ATOM     17  C6  UNL     1      27.840  -7.822 -43.719  0.00  0.00    +0.000 A 
ATOM     18  C7  UNL     1      28.073  -6.821 -42.768  0.00  0.00    +0.000 A 
ATOM     19  C8  UNL     1      27.722  -7.024 -41.430  0.00  0.00    +0.000 A 
BRANCH  17  20
ATOM     20  O2  UNL     1      28.185  -7.629 -45.055  0.00  0.00    +0.000 OA
ATOM     21  H3  UNL     1      28.170  -6.709 -45.477  0.00  0.00    +0.000 HD
ENDBRANCH  17  20
ENDBRANCH   3  14
TORSDOF 2
ENDMDL
MODEL 8
REMARK VINA RESULT:    -4.893      3.176      5.735
REMARK INTER + INTRA:          -5.607
REMARK INTER:                  -5.312
REMARK INTRA:                  -0.295
REMARK UNBOUND:                -0.285
REMARK  Name = resultss/4CJN/ligands/lig_36_t1.pdb
REMARK  2 active torsions:
REMARK  status: ('A' for Active; 'I' for Inactive)
REMARK    1  A    between atoms: C2_3  and  C3_4
REMARK    2  A    between atoms: C6_7  and  O2_8
REMARK                            x       y       z     vdW  Elec       q    Type
REMARK                         _______ _______ _______ _____ _____    ______ ____
ROOT
ATOM      1  O1  UNL     1      27.969 -11.001 -37.962  0.00  0.00    +0.000 OA
ATOM      2  C1  UNL     1      27.823  -9.777 -38.232  0.00  0.00    +0.000 A 
ATOM      3  C2  UNL     1      28.232  -8.802 -37.303  0.00  0.00    +0.000 A 
ATOM      4  C9  UNL     1      28.016  -7.455 -37.622  0.00  0.00    +0.000 A 
ATOM      5  O3  UNL     1      27.451  -7.111 -38.771  0.00  0.00    +0.000 OA
ATOM      6  C10 UNL     1      27.063  -7.996 -39.684  0.00  0.00    +0.000 A 
ATOM      7  C11 UNL     1      26.413  -7.473 -40.936  0.00  0.00    +0.000 C 
ATOM      8  C12 UNL     1      26.462  -8.480 -42.047  0.00  0.00    +0.000 C 
ATOM      9  O4  UNL     1      26.672  -8.118 -43.194  0.00  0.00    +0.000 OA
ATOM     10  C13 UNL     1      26.142  -9.916 -41.758  0.00  0.00    +0.000 C 
ATOM     11  C14 UNL     1      26.795 -10.365 -40.482  0.00  0.00    +0.000 C 
ATOM     12  O5  UNL     1      26.934 -11.602 -40.288  0.00  0.00    +0.000 OA
ATOM     13  C15 UNL     1      27.230  -9.379 -39.450  0.00  0.00    +0.000 A 
ENDROOT
BRANCH   3  14
ATOM     14  C3  UNL     1      28.874  -9.164 -36.014  0.00  0.00    +0.000 A 
ATOM     15  C4  UNL     1      28.089  -9.376 -34.867  0.00  0.00    +0.000 A 
ATOM     16  C5  UNL     1      28.692  -9.709 -33.649  0.00  0.00    +0.000 A 
ATOM     17  C6  UNL     1      30.082  -9.827 -33.561  0.00  0.00    +0.000 A 
ATOM     18  C7  UNL     1      30.871  -9.609 -34.698  0.00  0.00    +0.000 A 
ATOM     19  C8  UNL     1      30.272  -9.277 -35.916  0.00  0.00    +0.000 A 
BRANCH  17  20
ATOM     20  O2  UNL     1      30.668 -10.159 -32.341  0.00  0.00    +0.000 OA
ATOM     21  H3  UNL     1      31.461 -10.787 -32.289  0.00  0.00    +0.000 HD
ENDBRANCH  17  20
ENDBRANCH   3  14
TORSDOF 2
ENDMDL
MODEL 9
REMARK VINA RESULT:    -4.892      1.987      7.091
REMARK INTER + INTRA:          -5.606
REMARK INTER:                  -5.311
REMARK INTRA:                  -0.295
REMARK UNBOUND:                -0.285
REMARK  Name = resultss/4CJN/ligands/lig_36_t1.pdb
REMARK  2 active torsions:
REMARK  status: ('A' for Active; 'I' for Inactive)
REMARK    1  A    between atoms: C2_3  and  C3_4
REMARK    2  A    between atoms: C6_7  and  O2_8
REMARK                            x       y       z     vdW  Elec       q    Type
REMARK                         _______ _______ _______ _____ _____    ______ ____
ROOT
ATOM      1  O1  UNL     1      26.568  -9.263 -38.941  0.00  0.00    +0.000 OA
ATOM      2  C1  UNL     1      27.818  -9.405 -38.833  0.00  0.00    +0.000 A 
ATOM      3  C2  UNL     1      28.430  -9.274 -37.573  0.00  0.00    +0.000 A 
ATOM      4  C9  UNL     1      29.824  -9.398 -37.500  0.00  0.00    +0.000 A 
ATOM      5  O3  UNL     1      30.542  -9.642 -38.588  0.00  0.00    +0.000 OA
ATOM      6  C10 UNL     1      30.005  -9.789 -39.795  0.00  0.00    +0.000 A 
ATOM      7  C11 UNL     1      30.936 -10.039 -40.950  0.00  0.00    +0.000 C 
ATOM      8  C12 UNL     1      30.216 -10.645 -42.119  0.00  0.00    +0.000 C 
ATOM      9  O4  UNL     1      30.753 -11.515 -42.787  0.00  0.00    +0.000 OA
ATOM     10  C13 UNL     1      28.882 -10.098 -42.529  0.00  0.00    +0.000 C 
ATOM     11  C14 UNL     1      28.015  -9.842 -41.330  0.00  0.00    +0.000 C 
ATOM     12  O5  UNL     1      26.771  -9.737 -41.505  0.00  0.00    +0.000 OA
ATOM     13  C15 UNL     1      28.608  -9.671 -39.972  0.00  0.00    +0.000 A 
ENDROOT
BRANCH   3  14
ATOM     14  C3  UNL     1      27.646  -9.008 -36.340  0.00  0.00    +0.000 A 
ATOM     15  C4  UNL     1      27.441  -7.688 -35.902  0.00  0.00    +0.000 A 
ATOM     16  C5  UNL     1      26.709  -7.435 -34.737  0.00  0.00    +0.000 A 
ATOM     17  C6  UNL     1      26.180  -8.495 -33.994  0.00  0.00    +0.000 A 
ATOM     18  C7  UNL     1      26.388  -9.813 -34.420  0.00  0.00    +0.000 A 
ATOM     19  C8  UNL     1      27.117 -10.069 -35.584  0.00  0.00    +0.000 A 
BRANCH  17  20
ATOM     20  O2  UNL     1      25.454  -8.227 -32.835  0.00  0.00    +0.000 OA
ATOM     21  H3  UNL     1      24.904  -8.945 -32.378  0.00  0.00    +0.000 HD
ENDBRANCH  17  20
ENDBRANCH   3  14
TORSDOF 2
ENDMDL
