MODEL 1
REMARK VINA RESULT:    -6.663      0.000      0.000
REMARK INTER + INTRA:          -9.292
REMARK INTER:                  -8.610
REMARK INTRA:                  -0.682
REMARK UNBOUND:                -0.682
REMARK  Name = resultss/4CJN/ligands/lig_182_t1.pdb
REMARK  6 active torsions:
REMARK  status: ('A' for Active; 'I' for Inactive)
REMARK    1  A    between atoms: O1_1  and  C1_2
REMARK    2  A    between atoms: C1_2  and  C9_13
REMARK    3  A    between atoms: N1_3  and  N2_4
REMARK    4  A    between atoms: C2_5  and  C3_6
REMARK    5  A    between atoms: C7_10  and  O2_11
REMARK    6  A    between atoms: C12_16  and  C13_17
REMARK                            x       y       z     vdW  Elec       q    Type
REMARK                         _______ _______ _______ _____ _____    ______ ____
ROOT
ATOM      1  C9  UNL     1      29.943 -10.007 -40.429  0.00  0.00    +0.000 A 
ATOM      2  C10 UNL     1      31.259  -9.603 -40.713  0.00  0.00    +0.000 A 
ATOM      3  C11 UNL     1      31.948 -10.147 -41.800  0.00  0.00    +0.000 A 
ATOM      4  C12 UNL     1      31.332 -11.097 -42.634  0.00  0.00    +0.000 A 
ATOM      5  C20 UNL     1      30.007 -11.481 -42.361  0.00  0.00    +0.000 A 
ATOM      6  C21 UNL     1      29.319 -10.935 -41.275  0.00  0.00    +0.000 A 
ENDROOT
BRANCH   4   7
ATOM      7  C13 UNL     1      32.054 -11.682 -43.788  0.00  0.00    +0.000 A 
ATOM      8  N3  UNL     1      31.786 -12.918 -44.282  0.00  0.00    +0.000 NA
ATOM      9  C14 UNL     1      32.587 -13.216 -45.337  0.00  0.00    +0.000 A 
ATOM     10  C15 UNL     1      32.541 -14.416 -46.048  0.00  0.00    +0.000 A 
ATOM     11  C16 UNL     1      33.429 -14.598 -47.124  0.00  0.00    +0.000 A 
ATOM     12  C17 UNL     1      34.344 -13.584 -47.473  0.00  0.00    +0.000 A 
ATOM     13  C18 UNL     1      34.380 -12.381 -46.750  0.00  0.00    +0.000 A 
ATOM     14  C19 UNL     1      33.490 -12.228 -45.689  0.00  0.00    +0.000 A 
ATOM     15  S1  UNL     1      33.301 -10.921 -44.657  0.00  0.00    +0.000 S 
ENDBRANCH   4   7
BRANCH   1  16
ATOM     16  C1  UNL     1      29.183  -9.423 -39.300  0.00  0.00    +0.000 C 
ATOM     17  N1  UNL     1      28.756  -8.194 -39.304  0.00  0.00    +0.000 NA
BRANCH  16  18
ATOM     18  O1  UNL     1      28.940 -10.217 -38.182  0.00  0.00    +0.000 OA
ATOM     19  H1  UNL     1      28.573  -9.818 -37.326  0.00  0.00    +0.000 HD
ENDBRANCH  16  18
BRANCH  17  20
ATOM     20  N2  UNL     1      29.013  -7.295 -40.350  0.00  0.00    +0.000 NA
ATOM     21  C2  UNL     1      28.129  -6.976 -41.246  0.00  0.00    +0.000 C 
BRANCH  21  22
ATOM     22  C3  UNL     1      26.746  -7.503 -41.260  0.00  0.00    +0.000 A 
ATOM     23  C4  UNL     1      25.826  -7.021 -40.316  0.00  0.00    +0.000 A 
ATOM     24  C5  UNL     1      24.518  -7.517 -40.286  0.00  0.00    +0.000 A 
ATOM     25  C6  UNL     1      24.124  -8.510 -41.186  0.00  0.00    +0.000 A 
ATOM     26  C7  UNL     1      25.038  -9.020 -42.111  0.00  0.00    +0.000 A 
ATOM     27  C8  UNL     1      26.350  -8.524 -42.144  0.00  0.00    +0.000 A 
BRANCH  26  28
ATOM     28  O2  UNL     1      24.637 -10.024 -42.990  0.00  0.00    +0.000 OA
ATOM     29  H6  UNL     1      25.010 -10.965 -42.927  0.00  0.00    +0.000 HD
ENDBRANCH  26  28
ENDBRANCH  21  22
ENDBRANCH  17  20
ENDBRANCH   1  16
TORSDOF 6
ENDMDL
MODEL 2
REMARK VINA RESULT:    -6.633      4.378      9.740
REMARK INTER + INTRA:          -9.254
REMARK INTER:                  -8.901
REMARK INTRA:                  -0.353
REMARK UNBOUND:                -0.682
REMARK  Name = resultss/4CJN/ligands/lig_182_t1.pdb
REMARK  6 active torsions:
REMARK  status: ('A' for Active; 'I' for Inactive)
REMARK    1  A    between atoms: O1_1  and  C1_2
REMARK    2  A    between atoms: C1_2  and  C9_13
REMARK    3  A    between atoms: N1_3  and  N2_4
REMARK    4  A    between atoms: C2_5  and  C3_6
REMARK    5  A    between atoms: C7_10  and  O2_11
REMARK    6  A    between atoms: C12_16  and  C13_17
REMARK                            x       y       z     vdW  Elec       q    Type
REMARK                         _______ _______ _______ _____ _____    ______ ____
ROOT
ATOM      1  C9  UNL     1      28.384  -8.986 -41.811  0.00  0.00    +0.000 A 
ATOM      2  C10 UNL     1      27.483 -10.000 -41.442  0.00  0.00    +0.000 A 
ATOM      3  C11 UNL     1      26.795  -9.928 -40.228  0.00  0.00    +0.000 A 
ATOM      4  C12 UNL     1      26.983  -8.836 -39.363  0.00  0.00    +0.000 A 
ATOM      5  C20 UNL     1      27.867  -7.812 -39.746  0.00  0.00    +0.000 A 
ATOM      6  C21 UNL     1      28.553  -7.884 -40.961  0.00  0.00    +0.000 A 
ENDROOT
BRANCH   4   7
ATOM      7  C13 UNL     1      26.261  -8.751 -38.072  0.00  0.00    +0.000 A 
ATOM      8  N3  UNL     1      26.679  -9.383 -36.945  0.00  0.00    +0.000 NA
ATOM      9  C14 UNL     1      25.841  -9.146 -35.903  0.00  0.00    +0.000 A 
ATOM     10  C15 UNL     1      26.014  -9.663 -34.618  0.00  0.00    +0.000 A 
ATOM     11  C16 UNL     1      25.071  -9.338 -33.627  0.00  0.00    +0.000 A 
ATOM     12  C17 UNL     1      23.974  -8.505 -33.930  0.00  0.00    +0.000 A 
ATOM     13  C18 UNL     1      23.812  -7.991 -35.227  0.00  0.00    +0.000 A 
ATOM     14  C19 UNL     1      24.760  -8.329 -36.189  0.00  0.00    +0.000 A 
ATOM     15  S1  UNL     1      24.831  -7.873 -37.800  0.00  0.00    +0.000 S 
ENDBRANCH   4   7
BRANCH   1  16
ATOM     16  C1  UNL     1      29.103  -9.025 -43.106  0.00  0.00    +0.000 C 
ATOM     17  N1  UNL     1      30.246  -9.629 -43.254  0.00  0.00    +0.000 NA
BRANCH  16  18
ATOM     18  O1  UNL     1      28.542  -8.368 -44.197  0.00  0.00    +0.000 OA
ATOM     19  H1  UNL     1      27.538  -8.263 -44.286  0.00  0.00    +0.000 HD
ENDBRANCH  16  18
BRANCH  17  20
ATOM     20  N2  UNL     1      30.926 -10.256 -42.199  0.00  0.00    +0.000 NA
ATOM     21  C2  UNL     1      31.841 -11.160 -42.381  0.00  0.00    +0.000 C 
BRANCH  21  22
ATOM     22  C3  UNL     1      32.287 -11.619 -43.716  0.00  0.00    +0.000 A 
ATOM     23  C4  UNL     1      32.138 -12.974 -44.053  0.00  0.00    +0.000 A 
ATOM     24  C5  UNL     1      32.572 -13.445 -45.296  0.00  0.00    +0.000 A 
ATOM     25  C6  UNL     1      33.173 -12.572 -46.205  0.00  0.00    +0.000 A 
ATOM     26  C7  UNL     1      33.354 -11.227 -45.872  0.00  0.00    +0.000 A 
ATOM     27  C8  UNL     1      32.920 -10.752 -44.626  0.00  0.00    +0.000 A 
BRANCH  26  28
ATOM     28  O2  UNL     1      33.973 -10.372 -46.781  0.00  0.00    +0.000 OA
ATOM     29  H6  UNL     1      33.504  -9.546 -47.137  0.00  0.00    +0.000 HD
ENDBRANCH  26  28
ENDBRANCH  21  22
ENDBRANCH  17  20
ENDBRANCH   1  16
TORSDOF 6
ENDMDL
MODEL 3
REMARK VINA RESULT:    -6.617      3.268      4.560
REMARK INTER + INTRA:          -9.234
REMARK INTER:                  -8.449
REMARK INTRA:                  -0.785
REMARK UNBOUND:                -0.682
REMARK  Name = resultss/4CJN/ligands/lig_182_t1.pdb
REMARK  6 active torsions:
REMARK  status: ('A' for Active; 'I' for Inactive)
REMARK    1  A    between atoms: O1_1  and  C1_2
REMARK    2  A    between atoms: C1_2  and  C9_13
REMARK    3  A    between atoms: N1_3  and  N2_4
REMARK    4  A    between atoms: C2_5  and  C3_6
REMARK    5  A    between atoms: C7_10  and  O2_11
REMARK    6  A    between atoms: C12_16  and  C13_17
REMARK                            x       y       z     vdW  Elec       q    Type
REMARK                         _______ _______ _______ _____ _____    ______ ____
ROOT
ATOM      1  C9  UNL     1      26.465  -9.277 -40.347  0.00  0.00    +0.000 A 
ATOM      2  C10 UNL     1      26.838  -8.943 -41.659  0.00  0.00    +0.000 A 
ATOM      3  C11 UNL     1      28.055  -9.384 -42.184  0.00  0.00    +0.000 A 
ATOM      4  C12 UNL     1      28.920 -10.181 -41.412  0.00  0.00    +0.000 A 
ATOM      5  C20 UNL     1      28.533 -10.533 -40.108  0.00  0.00    +0.000 A 
ATOM      6  C21 UNL     1      27.315 -10.092 -39.585  0.00  0.00    +0.000 A 
ENDROOT
BRANCH   4   7
ATOM      7  C13 UNL     1      30.214 -10.653 -41.959  0.00  0.00    +0.000 A 
ATOM      8  N3  UNL     1      30.314 -11.664 -42.859  0.00  0.00    +0.000 NA
ATOM      9  C14 UNL     1      31.607 -11.902 -43.197  0.00  0.00    +0.000 A 
ATOM     10  C15 UNL     1      32.020 -12.882 -44.101  0.00  0.00    +0.000 A 
ATOM     11  C16 UNL     1      33.394 -13.024 -44.363  0.00  0.00    +0.000 A 
ATOM     12  C17 UNL     1      34.333 -12.190 -43.723  0.00  0.00    +0.000 A 
ATOM     13  C18 UNL     1      33.905 -11.208 -42.815  0.00  0.00    +0.000 A 
ATOM     14  C19 UNL     1      32.539 -11.089 -42.574  0.00  0.00    +0.000 A 
ATOM     15  S1  UNL     1      31.741 -10.023 -41.556  0.00  0.00    +0.000 S 
ENDBRANCH   4   7
BRANCH   1  16
ATOM     16  C1  UNL     1      25.167  -8.845 -39.778  0.00  0.00    +0.000 C 
ATOM     17  N1  UNL     1      25.049  -7.789 -39.027  0.00  0.00    +0.000 NA
BRANCH  16  18
ATOM     18  O1  UNL     1      24.038  -9.615 -40.040  0.00  0.00    +0.000 OA
ATOM     19  H1  UNL     1      23.984 -10.204 -40.862  0.00  0.00    +0.000 HD
ENDBRANCH  16  18
BRANCH  17  20
ATOM     20  N2  UNL     1      26.139  -6.991 -38.646  0.00  0.00    +0.000 NA
ATOM     21  C2  UNL     1      26.498  -6.825 -37.408  0.00  0.00    +0.000 C 
BRANCH  21  22
ATOM     22  C3  UNL     1      25.820  -7.470 -36.262  0.00  0.00    +0.000 A 
ATOM     23  C4  UNL     1      24.908  -6.719 -35.503  0.00  0.00    +0.000 A 
ATOM     24  C5  UNL     1      24.269  -7.292 -34.398  0.00  0.00    +0.000 A 
ATOM     25  C6  UNL     1      24.547  -8.610 -34.032  0.00  0.00    +0.000 A 
ATOM     26  C7  UNL     1      25.474  -9.360 -34.762  0.00  0.00    +0.000 A 
ATOM     27  C8  UNL     1      26.116  -8.789 -35.870  0.00  0.00    +0.000 A 
BRANCH  26  28
ATOM     28  O2  UNL     1      25.756 -10.668 -34.375  0.00  0.00    +0.000 OA
ATOM     29  H6  UNL     1      25.672 -11.443 -35.023  0.00  0.00    +0.000 HD
ENDBRANCH  26  28
ENDBRANCH  21  22
ENDBRANCH  17  20
ENDBRANCH   1  16
TORSDOF 6
ENDMDL
MODEL 4
REMARK VINA RESULT:    -6.576      3.211      4.419
REMARK INTER + INTRA:          -9.180
REMARK INTER:                  -8.669
REMARK INTRA:                  -0.511
REMARK UNBOUND:                -0.682
REMARK  Name = resultss/4CJN/ligands/lig_182_t1.pdb
REMARK  6 active torsions:
REMARK  status: ('A' for Active; 'I' for Inactive)
REMARK    1  A    between atoms: O1_1  and  C1_2
REMARK    2  A    between atoms: C1_2  and  C9_13
REMARK    3  A    between atoms: N1_3  and  N2_4
REMARK    4  A    between atoms: C2_5  and  C3_6
REMARK    5  A    between atoms: C7_10  and  O2_11
REMARK    6  A    between atoms: C12_16  and  C13_17
REMARK                            x       y       z     vdW  Elec       q    Type
REMARK                         _______ _______ _______ _____ _____    ______ ____
ROOT
ATOM      1  C9  UNL     1      29.172  -9.002 -40.240  0.00  0.00    +0.000 A 
ATOM      2  C10 UNL     1      30.484  -8.597 -40.538  0.00  0.00    +0.000 A 
ATOM      3  C11 UNL     1      31.237  -9.282 -41.496  0.00  0.00    +0.000 A 
ATOM      4  C12 UNL     1      30.689 -10.379 -42.185  0.00  0.00    +0.000 A 
ATOM      5  C20 UNL     1      29.368 -10.766 -41.901  0.00  0.00    +0.000 A 
ATOM      6  C21 UNL     1      28.616 -10.079 -40.945  0.00  0.00    +0.000 A 
ENDROOT
BRANCH   4   7
ATOM      7  C13 UNL     1      31.479 -11.113 -43.201  0.00  0.00    +0.000 A 
ATOM      8  N3  UNL     1      32.181 -10.494 -44.185  0.00  0.00    +0.000 NA
ATOM      9  C14 UNL     1      32.814 -11.392 -44.983  0.00  0.00    +0.000 A 
ATOM     10  C15 UNL     1      33.611 -11.050 -46.077  0.00  0.00    +0.000 A 
ATOM     11  C16 UNL     1      34.212 -12.080 -46.822  0.00  0.00    +0.000 A 
ATOM     12  C17 UNL     1      34.012 -13.429 -46.466  0.00  0.00    +0.000 A 
ATOM     13  C18 UNL     1      33.209 -13.760 -45.363  0.00  0.00    +0.000 A 
ATOM     14  C19 UNL     1      32.625 -12.720 -44.643  0.00  0.00    +0.000 A 
ATOM     15  S1  UNL     1      31.631 -12.804 -43.296  0.00  0.00    +0.000 S 
ENDBRANCH   4   7
BRANCH   1  16
ATOM     16  C1  UNL     1      28.345  -8.274 -39.250  0.00  0.00    +0.000 C 
ATOM     17  N1  UNL     1      28.492  -8.429 -37.967  0.00  0.00    +0.000 NA
BRANCH  16  18
ATOM     18  O1  UNL     1      27.357  -7.411 -39.716  0.00  0.00    +0.000 OA
ATOM     19  H1  UNL     1      26.680  -6.999 -39.084  0.00  0.00    +0.000 HD
ENDBRANCH  16  18
BRANCH  17  20
ATOM     20  N2  UNL     1      29.408  -9.329 -37.401  0.00  0.00    +0.000 NA
ATOM     21  C2  UNL     1      29.348  -9.718 -36.162  0.00  0.00    +0.000 C 
BRANCH  21  22
ATOM     22  C3  UNL     1      28.302  -9.277 -35.213  0.00  0.00    +0.000 A 
ATOM     23  C4  UNL     1      28.556  -8.171 -34.388  0.00  0.00    +0.000 A 
ATOM     24  C5  UNL     1      27.598  -7.744 -33.462  0.00  0.00    +0.000 A 
ATOM     25  C6  UNL     1      26.387  -8.429 -33.340  0.00  0.00    +0.000 A 
ATOM     26  C7  UNL     1      26.133  -9.550 -34.134  0.00  0.00    +0.000 A 
ATOM     27  C8  UNL     1      27.091  -9.980 -35.064  0.00  0.00    +0.000 A 
BRANCH  26  28
ATOM     28  O2  UNL     1      24.929 -10.236 -33.989  0.00  0.00    +0.000 OA
ATOM     29  H6  UNL     1      24.119 -10.011 -34.556  0.00  0.00    +0.000 HD
ENDBRANCH  26  28
ENDBRANCH  21  22
ENDBRANCH  17  20
ENDBRANCH   1  16
TORSDOF 6
ENDMDL
MODEL 5
REMARK VINA RESULT:    -6.399      5.333      8.201
REMARK INTER + INTRA:          -8.951
REMARK INTER:                  -8.375
REMARK INTRA:                  -0.576
REMARK UNBOUND:                -0.682
REMARK  Name = resultss/4CJN/ligands/lig_182_t1.pdb
REMARK  6 active torsions:
REMARK  status: ('A' for Active; 'I' for Inactive)
REMARK    1  A    between atoms: O1_1  and  C1_2
REMARK    2  A    between atoms: C1_2  and  C9_13
REMARK    3  A    between atoms: N1_3  and  N2_4
REMARK    4  A    between atoms: C2_5  and  C3_6
REMARK    5  A    between atoms: C7_10  and  O2_11
REMARK    6  A    between atoms: C12_16  and  C13_17
REMARK                            x       y       z     vdW  Elec       q    Type
REMARK                         _______ _______ _______ _____ _____    ______ ____
ROOT
ATOM      1  C9  UNL     1      26.857  -9.922 -41.220  0.00  0.00    +0.000 A 
ATOM      2  C10 UNL     1      27.419  -9.366 -42.381  0.00  0.00    +0.000 A 
ATOM      3  C11 UNL     1      26.607  -8.743 -43.332  0.00  0.00    +0.000 A 
ATOM      4  C12 UNL     1      25.217  -8.652 -43.136  0.00  0.00    +0.000 A 
ATOM      5  C20 UNL     1      24.662  -9.188 -41.961  0.00  0.00    +0.000 A 
ATOM      6  C21 UNL     1      25.475  -9.809 -41.010  0.00  0.00    +0.000 A 
ENDROOT
BRANCH   4   7
ATOM      7  C13 UNL     1      24.346  -7.995 -44.139  0.00  0.00    +0.000 A 
ATOM      8  N3  UNL     1      24.675  -7.892 -45.453  0.00  0.00    +0.000 NA
ATOM      9  C14 UNL     1      23.709  -7.247 -46.157  0.00  0.00    +0.000 A 
ATOM     10  C15 UNL     1      23.769  -6.993 -47.528  0.00  0.00    +0.000 A 
ATOM     11  C16 UNL     1      22.699  -6.314 -48.136  0.00  0.00    +0.000 A 
ATOM     12  C17 UNL     1      21.588  -5.901 -47.372  0.00  0.00    +0.000 A 
ATOM     13  C18 UNL     1      21.540  -6.162 -45.993  0.00  0.00    +0.000 A 
ATOM     14  C19 UNL     1      22.614  -6.836 -45.416  0.00  0.00    +0.000 A 
ATOM     15  S1  UNL     1      22.836  -7.284 -43.817  0.00  0.00    +0.000 S 
ENDBRANCH   4   7
BRANCH   1  16
ATOM     16  C1  UNL     1      27.701 -10.562 -40.184  0.00  0.00    +0.000 C 
ATOM     17  N1  UNL     1      28.222  -9.896 -39.195  0.00  0.00    +0.000 NA
BRANCH  16  18
ATOM     18  O1  UNL     1      27.966 -11.924 -40.291  0.00  0.00    +0.000 OA
ATOM     19  H1  UNL     1      28.069 -12.369 -41.196  0.00  0.00    +0.000 HD
ENDBRANCH  16  18
BRANCH  17  20
ATOM     20  N2  UNL     1      28.075  -8.509 -39.041  0.00  0.00    +0.000 NA
ATOM     21  C2  UNL     1      27.914  -7.935 -37.887  0.00  0.00    +0.000 C 
BRANCH  21  22
ATOM     22  C3  UNL     1      27.888  -8.669 -36.602  0.00  0.00    +0.000 A 
ATOM     23  C4  UNL     1      29.090  -8.859 -35.903  0.00  0.00    +0.000 A 
ATOM     24  C5  UNL     1      29.104  -9.569 -34.698  0.00  0.00    +0.000 A 
ATOM     25  C6  UNL     1      27.921 -10.111 -34.191  0.00  0.00    +0.000 A 
ATOM     26  C7  UNL     1      26.721  -9.955 -34.891  0.00  0.00    +0.000 A 
ATOM     27  C8  UNL     1      26.705  -9.242 -36.098  0.00  0.00    +0.000 A 
BRANCH  26  28
ATOM     28  O2  UNL     1      25.552 -10.517 -34.382  0.00  0.00    +0.000 OA
ATOM     29  H6  UNL     1      24.795 -10.808 -34.991  0.00  0.00    +0.000 HD
ENDBRANCH  26  28
ENDBRANCH  21  22
ENDBRANCH  17  20
ENDBRANCH   1  16
TORSDOF 6
ENDMDL
MODEL 6
REMARK VINA RESULT:    -6.368      5.521      8.063
REMARK INTER + INTRA:          -8.912
REMARK INTER:                  -8.410
REMARK INTRA:                  -0.502
REMARK UNBOUND:                -0.682
REMARK  Name = resultss/4CJN/ligands/lig_182_t1.pdb
REMARK  6 active torsions:
REMARK  status: ('A' for Active; 'I' for Inactive)
REMARK    1  A    between atoms: O1_1  and  C1_2
REMARK    2  A    between atoms: C1_2  and  C9_13
REMARK    3  A    between atoms: N1_3  and  N2_4
REMARK    4  A    between atoms: C2_5  and  C3_6
REMARK    5  A    between atoms: C7_10  and  O2_11
REMARK    6  A    between atoms: C12_16  and  C13_17
REMARK                            x       y       z     vdW  Elec       q    Type
REMARK                         _______ _______ _______ _____ _____    ______ ____
ROOT
ATOM      1  C9  UNL     1      25.130  -9.154 -41.340  0.00  0.00    +0.000 A 
ATOM      2  C10 UNL     1      24.700  -8.699 -40.082  0.00  0.00    +0.000 A 
ATOM      3  C11 UNL     1      25.550  -8.769 -38.975  0.00  0.00    +0.000 A 
ATOM      4  C12 UNL     1      26.852  -9.284 -39.104  0.00  0.00    +0.000 A 
ATOM      5  C20 UNL     1      27.288  -9.716 -40.369  0.00  0.00    +0.000 A 
ATOM      6  C21 UNL     1      26.438  -9.644 -41.476  0.00  0.00    +0.000 A 
ENDROOT
BRANCH   4   7
ATOM      7  C13 UNL     1      27.761  -9.364 -37.937  0.00  0.00    +0.000 A 
ATOM      8  N3  UNL     1      27.318  -9.513 -36.662  0.00  0.00    +0.000 NA
ATOM      9  C14 UNL     1      28.350  -9.557 -35.780  0.00  0.00    +0.000 A 
ATOM     10  C15 UNL     1      28.203  -9.703 -34.400  0.00  0.00    +0.000 A 
ATOM     11  C16 UNL     1      29.357  -9.735 -33.597  0.00  0.00    +0.000 A 
ATOM     12  C17 UNL     1      30.635  -9.621 -34.180  0.00  0.00    +0.000 A 
ATOM     13  C18 UNL     1      30.770  -9.475 -35.570  0.00  0.00    +0.000 A 
ATOM     14  C19 UNL     1      29.611  -9.446 -36.341  0.00  0.00    +0.000 A 
ATOM     15  S1  UNL     1      29.457  -9.285 -38.002  0.00  0.00    +0.000 S 
ENDBRANCH   4   7
BRANCH   1  16
ATOM     16  C1  UNL     1      24.258  -9.064 -42.534  0.00  0.00    +0.000 C 
ATOM     17  N1  UNL     1      24.070  -7.951 -43.181  0.00  0.00    +0.000 NA
BRANCH  16  18
ATOM     18  O1  UNL     1      23.596 -10.212 -42.961  0.00  0.00    +0.000 OA
ATOM     19  H1  UNL     1      22.651 -10.416 -42.657  0.00  0.00    +0.000 HD
ENDBRANCH  16  18
BRANCH  17  20
ATOM     20  N2  UNL     1      24.633  -6.728 -42.786  0.00  0.00    +0.000 NA
ATOM     21  C2  UNL     1      25.491  -6.075 -43.510  0.00  0.00    +0.000 C 
BRANCH  21  22
ATOM     22  C3  UNL     1      25.959  -6.529 -44.839  0.00  0.00    +0.000 A 
ATOM     23  C4  UNL     1      27.324  -6.797 -45.024  0.00  0.00    +0.000 A 
ATOM     24  C5  UNL     1      27.802  -7.204 -46.273  0.00  0.00    +0.000 A 
ATOM     25  C6  UNL     1      26.925  -7.328 -47.353  0.00  0.00    +0.000 A 
ATOM     26  C7  UNL     1      25.568  -7.036 -47.191  0.00  0.00    +0.000 A 
ATOM     27  C8  UNL     1      25.086  -6.629 -45.939  0.00  0.00    +0.000 A 
BRANCH  26  28
ATOM     28  O2  UNL     1      24.707  -7.146 -48.281  0.00  0.00    +0.000 OA
ATOM     29  H6  UNL     1      24.729  -6.479 -49.044  0.00  0.00    +0.000 HD
ENDBRANCH  26  28
ENDBRANCH  21  22
ENDBRANCH  17  20
ENDBRANCH   1  16
TORSDOF 6
ENDMDL
MODEL 7
REMARK VINA RESULT:    -6.204      4.517      9.954
REMARK INTER + INTRA:          -8.700
REMARK INTER:                  -8.184
REMARK INTRA:                  -0.516
REMARK UNBOUND:                -0.682
REMARK  Name = resultss/4CJN/ligands/lig_182_t1.pdb
REMARK  6 active torsions:
REMARK  status: ('A' for Active; 'I' for Inactive)
REMARK    1  A    between atoms: O1_1  and  C1_2
REMARK    2  A    between atoms: C1_2  and  C9_13
REMARK    3  A    between atoms: N1_3  and  N2_4
REMARK    4  A    between atoms: C2_5  and  C3_6
REMARK    5  A    between atoms: C7_10  and  O2_11
REMARK    6  A    between atoms: C12_16  and  C13_17
REMARK                            x       y       z     vdW  Elec       q    Type
REMARK                         _______ _______ _______ _____ _____    ______ ____
ROOT
ATOM      1  C9  UNL     1      30.304  -9.153 -39.061  0.00  0.00    +0.000 A 
ATOM      2  C10 UNL     1      29.343  -8.135 -39.191  0.00  0.00    +0.000 A 
ATOM      3  C11 UNL     1      28.259  -8.069 -38.313  0.00  0.00    +0.000 A 
ATOM      4  C12 UNL     1      28.118  -9.012 -37.278  0.00  0.00    +0.000 A 
ATOM      5  C20 UNL     1      29.094 -10.014 -37.136  0.00  0.00    +0.000 A 
ATOM      6  C21 UNL     1      30.179 -10.077 -38.014  0.00  0.00    +0.000 A 
ENDROOT
BRANCH   4   7
ATOM      7  C13 UNL     1      26.970  -8.952 -36.342  0.00  0.00    +0.000 A 
ATOM      8  N3  UNL     1      25.793  -8.349 -36.650  0.00  0.00    +0.000 NA
ATOM      9  C14 UNL     1      24.909  -8.433 -35.623  0.00  0.00    +0.000 A 
ATOM     10  C15 UNL     1      23.618  -7.904 -35.648  0.00  0.00    +0.000 A 
ATOM     11  C16 UNL     1      22.802  -8.061 -34.514  0.00  0.00    +0.000 A 
ATOM     12  C17 UNL     1      23.283  -8.740 -33.376  0.00  0.00    +0.000 A 
ATOM     13  C18 UNL     1      24.584  -9.268 -33.363  0.00  0.00    +0.000 A 
ATOM     14  C19 UNL     1      25.371  -9.098 -34.499  0.00  0.00    +0.000 A 
ATOM     15  S1  UNL     1      26.943  -9.611 -34.775  0.00  0.00    +0.000 S 
ENDBRANCH   4   7
BRANCH   1  16
ATOM     16  C1  UNL     1      31.478  -9.226 -39.962  0.00  0.00    +0.000 C 
ATOM     17  N1  UNL     1      31.426  -9.786 -41.135  0.00  0.00    +0.000 NA
BRANCH  16  18
ATOM     18  O1  UNL     1      32.687  -8.696 -39.521  0.00  0.00    +0.000 OA
ATOM     19  H1  UNL     1      33.498  -9.287 -39.381  0.00  0.00    +0.000 HD
ENDBRANCH  16  18
BRANCH  17  20
ATOM     20  N2  UNL     1      30.275 -10.413 -41.637  0.00  0.00    +0.000 NA
ATOM     21  C2  UNL     1      30.287 -11.191 -42.677  0.00  0.00    +0.000 C 
BRANCH  21  22
ATOM     22  C3  UNL     1      31.511 -11.525 -43.439  0.00  0.00    +0.000 A 
ATOM     23  C4  UNL     1      32.287 -12.621 -43.032  0.00  0.00    +0.000 A 
ATOM     24  C5  UNL     1      33.463 -12.948 -43.716  0.00  0.00    +0.000 A 
ATOM     25  C6  UNL     1      33.882 -12.174 -44.799  0.00  0.00    +0.000 A 
ATOM     26  C7  UNL     1      33.134 -11.062 -45.198  0.00  0.00    +0.000 A 
ATOM     27  C8  UNL     1      31.955 -10.733 -44.515  0.00  0.00    +0.000 A 
BRANCH  26  28
ATOM     28  O2  UNL     1      33.574 -10.287 -46.269  0.00  0.00    +0.000 OA
ATOM     29  H6  UNL     1      34.556 -10.233 -46.517  0.00  0.00    +0.000 HD
ENDBRANCH  26  28
ENDBRANCH  21  22
ENDBRANCH  17  20
ENDBRANCH   1  16
TORSDOF 6
ENDMDL
MODEL 8
REMARK VINA RESULT:    -6.094      5.266      7.994
REMARK INTER + INTRA:          -8.557
REMARK INTER:                  -7.779
REMARK INTRA:                  -0.779
REMARK UNBOUND:                -0.682
REMARK  Name = resultss/4CJN/ligands/lig_182_t1.pdb
REMARK  6 active torsions:
REMARK  status: ('A' for Active; 'I' for Inactive)
REMARK    1  A    between atoms: O1_1  and  C1_2
REMARK    2  A    between atoms: C1_2  and  C9_13
REMARK    3  A    between atoms: N1_3  and  N2_4
REMARK    4  A    between atoms: C2_5  and  C3_6
REMARK    5  A    between atoms: C7_10  and  O2_11
REMARK    6  A    between atoms: C12_16  and  C13_17
REMARK                            x       y       z     vdW  Elec       q    Type
REMARK                         _______ _______ _______ _____ _____    ______ ____
ROOT
ATOM      1  C9  UNL     1      26.038  -9.147 -36.162  0.00  0.00    +0.000 A 
ATOM      2  C10 UNL     1      25.024  -8.468 -36.859  0.00  0.00    +0.000 A 
ATOM      3  C11 UNL     1      25.165  -8.190 -38.221  0.00  0.00    +0.000 A 
ATOM      4  C12 UNL     1      26.316  -8.597 -38.918  0.00  0.00    +0.000 A 
ATOM      5  C20 UNL     1      27.318  -9.298 -38.223  0.00  0.00    +0.000 A 
ATOM      6  C21 UNL     1      27.175  -9.576 -36.862  0.00  0.00    +0.000 A 
ENDROOT
BRANCH   4   7
ATOM      7  C13 UNL     1      26.477  -8.307 -40.362  0.00  0.00    +0.000 A 
ATOM      8  N3  UNL     1      27.665  -8.407 -41.012  0.00  0.00    +0.000 NA
ATOM      9  C14 UNL     1      27.542  -8.085 -42.325  0.00  0.00    +0.000 A 
ATOM     10  C15 UNL     1      28.594  -8.097 -43.243  0.00  0.00    +0.000 A 
ATOM     11  C16 UNL     1      28.330  -7.742 -44.577  0.00  0.00    +0.000 A 
ATOM     12  C17 UNL     1      27.026  -7.382 -44.976  0.00  0.00    +0.000 A 
ATOM     13  C18 UNL     1      25.977  -7.375 -44.044  0.00  0.00    +0.000 A 
ATOM     14  C19 UNL     1      26.266  -7.731 -42.729  0.00  0.00    +0.000 A 
ATOM     15  S1  UNL     1      25.233  -7.814 -41.411  0.00  0.00    +0.000 S 
ENDBRANCH   4   7
BRANCH   1  16
ATOM     16  C1  UNL     1      25.899  -9.478 -34.724  0.00  0.00    +0.000 C 
ATOM     17  N1  UNL     1      26.180  -8.628 -33.780  0.00  0.00    +0.000 NA
BRANCH  16  18
ATOM     18  O1  UNL     1      25.476 -10.757 -34.375  0.00  0.00    +0.000 OA
ATOM     19  H1  UNL     1      24.511 -10.939 -34.126  0.00  0.00    +0.000 HD
ENDBRANCH  16  18
BRANCH  17  20
ATOM     20  N2  UNL     1      26.683  -7.342 -34.029  0.00  0.00    +0.000 NA
ATOM     21  C2  UNL     1      27.953  -7.068 -34.047  0.00  0.00    +0.000 C 
BRANCH  21  22
ATOM     22  C3  UNL     1      29.014  -8.076 -33.830  0.00  0.00    +0.000 A 
ATOM     23  C4  UNL     1      29.240  -8.556 -32.530  0.00  0.00    +0.000 A 
ATOM     24  C5  UNL     1      30.251  -9.491 -32.287  0.00  0.00    +0.000 A 
ATOM     25  C6  UNL     1      31.057  -9.941 -33.336  0.00  0.00    +0.000 A 
ATOM     26  C7  UNL     1      30.863  -9.449 -34.629  0.00  0.00    +0.000 A 
ATOM     27  C8  UNL     1      29.849  -8.513 -34.876  0.00  0.00    +0.000 A 
BRANCH  26  28
ATOM     28  O2  UNL     1      31.686  -9.892 -35.662  0.00  0.00    +0.000 OA
ATOM     29  H6  UNL     1      31.358  -9.935 -36.621  0.00  0.00    +0.000 HD
ENDBRANCH  26  28
ENDBRANCH  21  22
ENDBRANCH  17  20
ENDBRANCH   1  16
TORSDOF 6
ENDMDL
MODEL 9
REMARK VINA RESULT:    -6.067      8.637     12.058
REMARK INTER + INTRA:          -8.522
REMARK INTER:                  -8.131
REMARK INTRA:                  -0.391
REMARK UNBOUND:                -0.682
REMARK  Name = resultss/4CJN/ligands/lig_182_t1.pdb
REMARK  6 active torsions:
REMARK  status: ('A' for Active; 'I' for Inactive)
REMARK    1  A    between atoms: O1_1  and  C1_2
REMARK    2  A    between atoms: C1_2  and  C9_13
REMARK    3  A    between atoms: N1_3  and  N2_4
REMARK    4  A    between atoms: C2_5  and  C3_6
REMARK    5  A    between atoms: C7_10  and  O2_11
REMARK    6  A    between atoms: C12_16  and  C13_17
REMARK                            x       y       z     vdW  Elec       q    Type
REMARK                         _______ _______ _______ _____ _____    ______ ____
ROOT
ATOM      1  C9  UNL     1      31.174  -9.276 -34.696  0.00  0.00    +0.000 A 
ATOM      2  C10 UNL     1      30.285 -10.064 -33.945  0.00  0.00    +0.000 A 
ATOM      3  C11 UNL     1      28.908  -9.841 -34.016  0.00  0.00    +0.000 A 
ATOM      4  C12 UNL     1      28.388  -8.834 -34.850  0.00  0.00    +0.000 A 
ATOM      5  C20 UNL     1      29.279  -8.064 -35.618  0.00  0.00    +0.000 A 
ATOM      6  C21 UNL     1      30.656  -8.289 -35.547  0.00  0.00    +0.000 A 
ENDROOT
BRANCH   4   7
ATOM      7  C13 UNL     1      26.929  -8.587 -34.931  0.00  0.00    +0.000 A 
ATOM      8  N3  UNL     1      26.054  -8.996 -33.977  0.00  0.00    +0.000 NA
ATOM      9  C14 UNL     1      24.780  -8.648 -34.291  0.00  0.00    +0.000 A 
ATOM     10  C15 UNL     1      23.666  -8.933 -33.500  0.00  0.00    +0.000 A 
ATOM     11  C16 UNL     1      22.398  -8.515 -33.942  0.00  0.00    +0.000 A 
ATOM     12  C17 UNL     1      22.260  -7.820 -35.161  0.00  0.00    +0.000 A 
ATOM     13  C18 UNL     1      23.389  -7.539 -35.948  0.00  0.00    +0.000 A 
ATOM     14  C19 UNL     1      24.632  -7.965 -35.487  0.00  0.00    +0.000 A 
ATOM     15  S1  UNL     1      26.137  -7.777 -36.198  0.00  0.00    +0.000 S 
ENDBRANCH   4   7
BRANCH   1  16
ATOM     16  C1  UNL     1      32.636  -9.513 -34.659  0.00  0.00    +0.000 C 
ATOM     17  N1  UNL     1      33.354  -9.288 -33.598  0.00  0.00    +0.000 NA
BRANCH  16  18
ATOM     18  O1  UNL     1      33.264  -9.969 -35.814  0.00  0.00    +0.000 OA
ATOM     19  H1  UNL     1      33.362 -10.960 -36.001  0.00  0.00    +0.000 HD
ENDBRANCH  16  18
BRANCH  17  20
ATOM     20  N2  UNL     1      32.827  -8.759 -32.410  0.00  0.00    +0.000 NA
ATOM     21  C2  UNL     1      32.570  -9.483 -31.363  0.00  0.00    +0.000 C 
BRANCH  21  22
ATOM     22  C3  UNL     1      32.820 -10.940 -31.290  0.00  0.00    +0.000 A 
ATOM     23  C4  UNL     1      34.115 -11.421 -31.541  0.00  0.00    +0.000 A 
ATOM     24  C5  UNL     1      34.379 -12.794 -31.504  0.00  0.00    +0.000 A 
ATOM     25  C6  UNL     1      33.350 -13.699 -31.235  0.00  0.00    +0.000 A 
ATOM     26  C7  UNL     1      32.050 -13.236 -31.012  0.00  0.00    +0.000 A 
ATOM     27  C8  UNL     1      31.783 -11.860 -31.048  0.00  0.00    +0.000 A 
BRANCH  26  28
ATOM     28  O2  UNL     1      31.029 -14.152 -30.764  0.00  0.00    +0.000 OA
ATOM     29  H6  UNL     1      30.116 -14.058 -31.194  0.00  0.00    +0.000 HD
ENDBRANCH  26  28
ENDBRANCH  21  22
ENDBRANCH  17  20
ENDBRANCH   1  16
TORSDOF 6
ENDMDL
