MODEL 1
REMARK VINA RESULT:    -6.961      0.000      0.000
REMARK INTER + INTRA:          -8.449
REMARK INTER:                  -9.199
REMARK INTRA:                   0.750
REMARK UNBOUND:                 0.750
REMARK  Name = resultss/4CJN/ligands/lig_372_t0.pdb
REMARK  8 active torsions:
REMARK  status: ('A' for Active; 'I' for Inactive)
REMARK    1  A    between atoms: C1_1  and  O1_2
REMARK    2  A    between atoms: O1_2  and  C2_3
REMARK    3  A    between atoms: C4_5  and  C5_6
REMARK    4  A    between atoms: C5_6  and  C6_7
REMARK    5  A    between atoms: C5_6  and  C15_20
REMARK    6  A    between atoms: C7_8  and  O2_9
REMARK    7  A    between atoms: C16_21  and  O5_22
REMARK    8  A    between atoms: C26_35  and  O8_36
REMARK                            x       y       z     vdW  Elec       q    Type
REMARK                         _______ _______ _______ _____ _____    ______ ____
ROOT
ATOM      1  C5  UNL     1      27.274  -7.938 -39.641  0.00  0.00    +0.000 C 
ENDROOT
BRANCH   1   2
ATOM      2  C6  UNL     1      28.649  -8.431 -40.109  0.00  0.00    +0.000 A 
ATOM      3  C7  UNL     1      28.739  -9.582 -40.924  0.00  0.00    +0.000 A 
ATOM      4  C8  UNL     1      30.009 -10.032 -41.357  0.00  0.00    +0.000 A 
ATOM      5  C9  UNL     1      30.190 -11.143 -42.211  0.00  0.00    +0.000 A 
ATOM      6  C10 UNL     1      31.477 -11.536 -42.600  0.00  0.00    +0.000 A 
ATOM      7 CL1  UNL     1      31.688 -12.915 -43.663  0.00  0.00    +0.000 Cl
ATOM      8  C11 UNL     1      32.593 -10.832 -42.145  0.00  0.00    +0.000 A 
ATOM      9  C12 UNL     1      32.431  -9.732 -41.304  0.00  0.00    +0.000 A 
ATOM     10  C13 UNL     1      31.151  -9.328 -40.910  0.00  0.00    +0.000 A 
ATOM     11  O3  UNL     1      31.026  -8.280 -40.109  0.00  0.00    +0.000 OA
ATOM     12  C14 UNL     1      29.855  -7.820 -39.692  0.00  0.00    +0.000 A 
ATOM     13  O4  UNL     1      29.845  -6.837 -38.908  0.00  0.00    +0.000 OA
BRANCH   3  14
ATOM     14  O2  UNL     1      27.555 -10.247 -41.271  0.00  0.00    +0.000 OA
ATOM     15  H6  UNL     1      26.945  -9.981 -42.030  0.00  0.00    +0.000 HD
ENDBRANCH   3  14
ENDBRANCH   1   2
BRANCH   1  16
ATOM     16  C15 UNL     1      26.892  -8.444 -38.240  0.00  0.00    +0.000 A 
ATOM     17  C16 UNL     1      26.144  -7.615 -37.363  0.00  0.00    +0.000 A 
ATOM     18  C17 UNL     1      25.761  -8.104 -36.103  0.00  0.00    +0.000 A 
ATOM     19  C18 UNL     1      24.993  -7.336 -35.206  0.00  0.00    +0.000 A 
ATOM     20  C19 UNL     1      24.633  -7.859 -33.961  0.00  0.00    +0.000 A 
ATOM     21 CL2  UNL     1      23.674  -6.898 -32.849  0.00  0.00    +0.000 Cl
ATOM     22  C20 UNL     1      25.036  -9.149 -33.598  0.00  0.00    +0.000 A 
ATOM     23  C21 UNL     1      25.800  -9.917 -34.481  0.00  0.00    +0.000 A 
ATOM     24  C22 UNL     1      26.165  -9.401 -35.728  0.00  0.00    +0.000 A 
ATOM     25  O6  UNL     1      26.900 -10.136 -36.549  0.00  0.00    +0.000 OA
ATOM     26  C23 UNL     1      27.280  -9.723 -37.752  0.00  0.00    +0.000 A 
ATOM     27  O7  UNL     1      28.005 -10.490 -38.437  0.00  0.00    +0.000 OA
BRANCH  17  28
ATOM     28  O5  UNL     1      25.777  -6.307 -37.706  0.00  0.00    +0.000 OA
ATOM     29  H10 UNL     1      26.264  -5.478 -37.397  0.00  0.00    +0.000 HD
ENDBRANCH  17  28
ENDBRANCH   1  16
BRANCH   1  32
ATOM     30  C2  UNL     1      25.327  -7.499 -42.916  0.00  0.00    +0.000 A 
ATOM     31  C3  UNL     1      26.315  -7.403 -41.917  0.00  0.00    +0.000 A 
ATOM     32  C4  UNL     1      26.187  -8.099 -40.700  0.00  0.00    +0.000 A 
ATOM     33  C24 UNL     1      25.035  -8.884 -40.488  0.00  0.00    +0.000 A 
ATOM     34  C25 UNL     1      24.056  -8.984 -41.476  0.00  0.00    +0.000 A 
ATOM     35  C26 UNL     1      24.194  -8.300 -42.686  0.00  0.00    +0.000 A 
BRANCH  30  37
ATOM     36  C1  UNL     1      26.473  -7.026 -45.091  0.00  0.00    +0.000 C 
ATOM     37  O1  UNL     1      25.436  -6.816 -44.138  0.00  0.00    +0.000 OA
ENDBRANCH  30  37
BRANCH  35  38
ATOM     38  O8  UNL     1      23.193  -8.426 -43.648  0.00  0.00    +0.000 OA
ATOM     39  H16 UNL     1      22.958  -9.315 -44.071  0.00  0.00    +0.000 HD
ENDBRANCH  35  38
ENDBRANCH   1  32
TORSDOF 7
ENDMDL
MODEL 2
REMARK VINA RESULT:    -6.613      4.259      6.705
REMARK INTER + INTRA:          -7.989
REMARK INTER:                  -8.415
REMARK INTRA:                   0.426
REMARK UNBOUND:                 0.750
REMARK  Name = resultss/4CJN/ligands/lig_372_t0.pdb
REMARK  8 active torsions:
REMARK  status: ('A' for Active; 'I' for Inactive)
REMARK    1  A    between atoms: C1_1  and  O1_2
REMARK    2  A    between atoms: O1_2  and  C2_3
REMARK    3  A    between atoms: C4_5  and  C5_6
REMARK    4  A    between atoms: C5_6  and  C6_7
REMARK    5  A    between atoms: C5_6  and  C15_20
REMARK    6  A    between atoms: C7_8  and  O2_9
REMARK    7  A    between atoms: C16_21  and  O5_22
REMARK    8  A    between atoms: C26_35  and  O8_36
REMARK                            x       y       z     vdW  Elec       q    Type
REMARK                         _______ _______ _______ _____ _____    ______ ____
ROOT
ATOM      1  C5  UNL     1      28.846  -7.782 -35.518  0.00  0.00    +0.000 C 
ENDROOT
BRANCH   1   2
ATOM      2  C6  UNL     1      28.587  -8.729 -36.697  0.00  0.00    +0.000 A 
ATOM      3  C7  UNL     1      29.176  -8.460 -37.953  0.00  0.00    +0.000 A 
ATOM      4  C8  UNL     1      28.938  -9.339 -39.037  0.00  0.00    +0.000 A 
ATOM      5  C9  UNL     1      29.522  -9.175 -40.313  0.00  0.00    +0.000 A 
ATOM      6  C10 UNL     1      29.242 -10.081 -41.343  0.00  0.00    +0.000 A 
ATOM      7 CL1  UNL     1      29.976  -9.867 -42.922  0.00  0.00    +0.000 Cl
ATOM      8  C11 UNL     1      28.381 -11.157 -41.117  0.00  0.00    +0.000 A 
ATOM      9  C12 UNL     1      27.799 -11.335 -39.862  0.00  0.00    +0.000 A 
ATOM     10  C13 UNL     1      28.073 -10.437 -38.825  0.00  0.00    +0.000 A 
ATOM     11  O3  UNL     1      27.504 -10.629 -37.643  0.00  0.00    +0.000 OA
ATOM     12  C14 UNL     1      27.712  -9.837 -36.601  0.00  0.00    +0.000 A 
ATOM     13  O4  UNL     1      27.100 -10.088 -35.530  0.00  0.00    +0.000 OA
BRANCH   3  14
ATOM     14  O2  UNL     1      29.975  -7.317 -38.083  0.00  0.00    +0.000 OA
ATOM     15  H6  UNL     1      30.472  -6.871 -37.326  0.00  0.00    +0.000 HD
ENDBRANCH   3  14
ENDBRANCH   1   2
BRANCH   1  16
ATOM     16  C15 UNL     1      30.093  -8.157 -34.701  0.00  0.00    +0.000 A 
ATOM     17  C16 UNL     1      30.082  -9.314 -33.876  0.00  0.00    +0.000 A 
ATOM     18  C17 UNL     1      31.242  -9.673 -33.170  0.00  0.00    +0.000 A 
ATOM     19  C18 UNL     1      31.296 -10.825 -32.362  0.00  0.00    +0.000 A 
ATOM     20  C19 UNL     1      32.470 -11.148 -31.674  0.00  0.00    +0.000 A 
ATOM     21 CL2  UNL     1      32.532 -12.586 -30.671  0.00  0.00    +0.000 Cl
ATOM     22  C20 UNL     1      33.596 -10.325 -31.782  0.00  0.00    +0.000 A 
ATOM     23  C21 UNL     1      33.550  -9.178 -32.579  0.00  0.00    +0.000 A 
ATOM     24  C22 UNL     1      32.380  -8.847 -33.271  0.00  0.00    +0.000 A 
ATOM     25  O6  UNL     1      32.347  -7.751 -34.012  0.00  0.00    +0.000 OA
ATOM     26  C23 UNL     1      31.280  -7.373 -34.705  0.00  0.00    +0.000 A 
ATOM     27  O7  UNL     1      31.347  -6.295 -35.351  0.00  0.00    +0.000 OA
BRANCH  17  28
ATOM     28  O5  UNL     1      28.942 -10.114 -33.732  0.00  0.00    +0.000 OA
ATOM     29  H10 UNL     1      27.994  -9.767 -33.753  0.00  0.00    +0.000 HD
ENDBRANCH  17  28
ENDBRANCH   1  16
BRANCH   1  32
ATOM     30  C2  UNL     1      25.212  -6.933 -34.635  0.00  0.00    +0.000 A 
ATOM     31  C3  UNL     1      26.387  -7.222 -35.355  0.00  0.00    +0.000 A 
ATOM     32  C4  UNL     1      27.596  -7.501 -34.690  0.00  0.00    +0.000 A 
ATOM     33  C24 UNL     1      27.615  -7.466 -33.281  0.00  0.00    +0.000 A 
ATOM     34  C25 UNL     1      26.453  -7.183 -32.564  0.00  0.00    +0.000 A 
ATOM     35  C26 UNL     1      25.254  -6.918 -33.230  0.00  0.00    +0.000 A 
BRANCH  30  37
ATOM     36  C1  UNL     1      23.142  -7.639 -35.855  0.00  0.00    +0.000 C 
ATOM     37  O1  UNL     1      23.995  -6.655 -35.279  0.00  0.00    +0.000 OA
ENDBRANCH  30  37
BRANCH  35  38
ATOM     38  O8  UNL     1      24.113  -6.638 -32.477  0.00  0.00    +0.000 OA
ATOM     39  H16 UNL     1      24.163  -6.218 -31.557  0.00  0.00    +0.000 HD
ENDBRANCH  35  38
ENDBRANCH   1  32
TORSDOF 7
ENDMDL
MODEL 3
REMARK VINA RESULT:    -6.566      2.843      6.000
REMARK INTER + INTRA:          -7.927
REMARK INTER:                  -8.640
REMARK INTRA:                   0.713
REMARK UNBOUND:                 0.750
REMARK  Name = resultss/4CJN/ligands/lig_372_t0.pdb
REMARK  8 active torsions:
REMARK  status: ('A' for Active; 'I' for Inactive)
REMARK    1  A    between atoms: C1_1  and  O1_2
REMARK    2  A    between atoms: O1_2  and  C2_3
REMARK    3  A    between atoms: C4_5  and  C5_6
REMARK    4  A    between atoms: C5_6  and  C6_7
REMARK    5  A    between atoms: C5_6  and  C15_20
REMARK    6  A    between atoms: C7_8  and  O2_9
REMARK    7  A    between atoms: C16_21  and  O5_22
REMARK    8  A    between atoms: C26_35  and  O8_36
REMARK                            x       y       z     vdW  Elec       q    Type
REMARK                         _______ _______ _______ _____ _____    ______ ____
ROOT
ATOM      1  C5  UNL     1      28.666 -10.036 -40.815  0.00  0.00    +0.000 C 
ENDROOT
BRANCH   1   2
ATOM      2  C6  UNL     1      27.653  -9.441 -41.802  0.00  0.00    +0.000 A 
ATOM      3  C7  UNL     1      28.111  -8.672 -42.895  0.00  0.00    +0.000 A 
ATOM      4  C8  UNL     1      27.173  -8.128 -43.806  0.00  0.00    +0.000 A 
ATOM      5  C9  UNL     1      27.542  -7.388 -44.951  0.00  0.00    +0.000 A 
ATOM      6  C10 UNL     1      26.562  -6.875 -45.810  0.00  0.00    +0.000 A 
ATOM      7 CL1  UNL     1      27.034  -5.960 -47.230  0.00  0.00    +0.000 Cl
ATOM      8  C11 UNL     1      25.209  -7.093 -45.541  0.00  0.00    +0.000 A 
ATOM      9  C12 UNL     1      24.829  -7.824 -44.416  0.00  0.00    +0.000 A 
ATOM     10  C13 UNL     1      25.799  -8.342 -43.551  0.00  0.00    +0.000 A 
ATOM     11  O3  UNL     1      25.410  -9.032 -42.489  0.00  0.00    +0.000 OA
ATOM     12  C14 UNL     1      26.256  -9.568 -41.621  0.00  0.00    +0.000 A 
ATOM     13  O4  UNL     1      25.784 -10.179 -40.627  0.00  0.00    +0.000 OA
BRANCH   3  14
ATOM     14  O2  UNL     1      29.490  -8.467 -43.035  0.00  0.00    +0.000 OA
ATOM     15  H6  UNL     1      29.924  -7.953 -43.787  0.00  0.00    +0.000 HD
ENDBRANCH   3  14
ENDBRANCH   1   2
BRANCH   1  16
ATOM     16  C15 UNL     1      28.848  -9.187 -39.546  0.00  0.00    +0.000 A 
ATOM     17  C16 UNL     1      28.705  -9.782 -38.265  0.00  0.00    +0.000 A 
ATOM     18  C17 UNL     1      28.919  -9.008 -37.113  0.00  0.00    +0.000 A 
ATOM     19  C18 UNL     1      28.820  -9.554 -35.818  0.00  0.00    +0.000 A 
ATOM     20  C19 UNL     1      29.039  -8.749 -34.696  0.00  0.00    +0.000 A 
ATOM     21 CL2  UNL     1      28.917  -9.436 -33.086  0.00  0.00    +0.000 Cl
ATOM     22  C20 UNL     1      29.356  -7.396 -34.854  0.00  0.00    +0.000 A 
ATOM     23  C21 UNL     1      29.453  -6.845 -36.134  0.00  0.00    +0.000 A 
ATOM     24  C22 UNL     1      29.235  -7.643 -37.262  0.00  0.00    +0.000 A 
ATOM     25  O6  UNL     1      29.318  -7.104 -38.469  0.00  0.00    +0.000 OA
ATOM     26  C23 UNL     1      29.134  -7.794 -39.588  0.00  0.00    +0.000 A 
ATOM     27  O7  UNL     1      29.204  -7.175 -40.681  0.00  0.00    +0.000 OA
BRANCH  17  28
ATOM     28  O5  UNL     1      28.345 -11.127 -38.104  0.00  0.00    +0.000 OA
ATOM     29  H10 UNL     1      27.395 -11.469 -38.121  0.00  0.00    +0.000 HD
ENDBRANCH  17  28
ENDBRANCH   1  16
BRANCH   1  32
ATOM     30  C2  UNL     1      32.396 -10.234 -41.688  0.00  0.00    +0.000 A 
ATOM     31  C3  UNL     1      31.174  -9.877 -41.085  0.00  0.00    +0.000 A 
ATOM     32  C4  UNL     1      29.965 -10.479 -41.483  0.00  0.00    +0.000 A 
ATOM     33  C24 UNL     1      29.996 -11.437 -42.516  0.00  0.00    +0.000 A 
ATOM     34  C25 UNL     1      31.204 -11.795 -43.113  0.00  0.00    +0.000 A 
ATOM     35  C26 UNL     1      32.402 -11.202 -42.706  0.00  0.00    +0.000 A 
BRANCH  30  37
ATOM     36  C1  UNL     1      33.747  -8.645 -40.301  0.00  0.00    +0.000 C 
ATOM     37  O1  UNL     1      33.613  -9.648 -41.303  0.00  0.00    +0.000 OA
ENDBRANCH  30  37
BRANCH  35  38
ATOM     38  O8  UNL     1      33.589 -11.587 -43.329  0.00  0.00    +0.000 OA
ATOM     39  H16 UNL     1      33.895 -11.183 -44.206  0.00  0.00    +0.000 HD
ENDBRANCH  35  38
ENDBRANCH   1  32
TORSDOF 7
ENDMDL
MODEL 4
REMARK VINA RESULT:    -6.342      3.159      6.236
REMARK INTER + INTRA:          -7.631
REMARK INTER:                  -8.388
REMARK INTRA:                   0.757
REMARK UNBOUND:                 0.750
REMARK  Name = resultss/4CJN/ligands/lig_372_t0.pdb
REMARK  8 active torsions:
REMARK  status: ('A' for Active; 'I' for Inactive)
REMARK    1  A    between atoms: C1_1  and  O1_2
REMARK    2  A    between atoms: O1_2  and  C2_3
REMARK    3  A    between atoms: C4_5  and  C5_6
REMARK    4  A    between atoms: C5_6  and  C6_7
REMARK    5  A    between atoms: C5_6  and  C15_20
REMARK    6  A    between atoms: C7_8  and  O2_9
REMARK    7  A    between atoms: C16_21  and  O5_22
REMARK    8  A    between atoms: C26_35  and  O8_36
REMARK                            x       y       z     vdW  Elec       q    Type
REMARK                         _______ _______ _______ _____ _____    ______ ____
ROOT
ATOM      1  C5  UNL     1      28.829  -9.994 -40.907  0.00  0.00    +0.000 C 
ENDROOT
BRANCH   1   2
ATOM      2  C6  UNL     1      27.882  -9.305 -41.898  0.00  0.00    +0.000 A 
ATOM      3  C7  UNL     1      26.493  -9.287 -41.640  0.00  0.00    +0.000 A 
ATOM      4  C8  UNL     1      25.623  -8.647 -42.556  0.00  0.00    +0.000 A 
ATOM      5  C9  UNL     1      24.228  -8.539 -42.356  0.00  0.00    +0.000 A 
ATOM      6  C10 UNL     1      23.424  -7.894 -43.304  0.00  0.00    +0.000 A 
ATOM      7 CL1  UNL     1      21.694  -7.765 -43.042  0.00  0.00    +0.000 Cl
ATOM      8  C11 UNL     1      23.995  -7.352 -44.457  0.00  0.00    +0.000 A 
ATOM      9  C12 UNL     1      25.370  -7.447 -44.667  0.00  0.00    +0.000 A 
ATOM     10  C13 UNL     1      26.185  -8.088 -43.727  0.00  0.00    +0.000 A 
ATOM     11  O3  UNL     1      27.488  -8.166 -43.953  0.00  0.00    +0.000 OA
ATOM     12  C14 UNL     1      28.337  -8.744 -43.115  0.00  0.00    +0.000 A 
ATOM     13  O4  UNL     1      29.552  -8.793 -43.437  0.00  0.00    +0.000 OA
BRANCH   3  14
ATOM     14  O2  UNL     1      26.022  -9.916 -40.481  0.00  0.00    +0.000 OA
ATOM     15  H6  UNL     1      26.441  -9.830 -39.567  0.00  0.00    +0.000 HD
ENDBRANCH   3  14
ENDBRANCH   1   2
BRANCH   1  16
ATOM     16  C15 UNL     1      29.064  -9.177 -39.625  0.00  0.00    +0.000 A 
ATOM     17  C16 UNL     1      28.901  -9.788 -38.353  0.00  0.00    +0.000 A 
ATOM     18  C17 UNL     1      29.163  -9.046 -37.189  0.00  0.00    +0.000 A 
ATOM     19  C18 UNL     1      29.047  -9.610 -35.904  0.00  0.00    +0.000 A 
ATOM     20  C19 UNL     1      29.315  -8.837 -34.769  0.00  0.00    +0.000 A 
ATOM     21 CL2  UNL     1      29.172  -9.546 -33.171  0.00  0.00    +0.000 Cl
ATOM     22  C20 UNL     1      29.698  -7.499 -34.906  0.00  0.00    +0.000 A 
ATOM     23  C21 UNL     1      29.812  -6.930 -36.178  0.00  0.00    +0.000 A 
ATOM     24  C22 UNL     1      29.545  -7.696 -37.317  0.00  0.00    +0.000 A 
ATOM     25  O6  UNL     1      29.646  -7.140 -38.515  0.00  0.00    +0.000 OA
ATOM     26  C23 UNL     1      29.418  -7.800 -39.644  0.00  0.00    +0.000 A 
ATOM     27  O7  UNL     1      29.511  -7.165 -40.727  0.00  0.00    +0.000 OA
BRANCH  17  28
ATOM     28  O5  UNL     1      28.475 -11.115 -38.213  0.00  0.00    +0.000 OA
ATOM     29  H10 UNL     1      27.509 -11.402 -38.163  0.00  0.00    +0.000 HD
ENDBRANCH  17  28
ENDBRANCH   1  16
BRANCH   1  32
ATOM     30  C2  UNL     1      32.523 -10.368 -41.871  0.00  0.00    +0.000 A 
ATOM     31  C3  UNL     1      31.329  -9.921 -41.271  0.00  0.00    +0.000 A 
ATOM     32  C4  UNL     1      30.096 -10.534 -41.564  0.00  0.00    +0.000 A 
ATOM     33  C24 UNL     1      30.073 -11.598 -42.489  0.00  0.00    +0.000 A 
ATOM     34  C25 UNL     1      31.253 -12.045 -43.082  0.00  0.00    +0.000 A 
ATOM     35  C26 UNL     1      32.475 -11.439 -42.779  0.00  0.00    +0.000 A 
BRANCH  30  37
ATOM     36  C1  UNL     1      33.989  -8.825 -40.551  0.00  0.00    +0.000 C 
ATOM     37  O1  UNL     1      33.763  -9.772 -41.590  0.00  0.00    +0.000 OA
ENDBRANCH  30  37
BRANCH  35  38
ATOM     38  O8  UNL     1      33.633 -11.915 -43.394  0.00  0.00    +0.000 OA
ATOM     39  H16 UNL     1      33.642 -12.763 -43.947  0.00  0.00    +0.000 HD
ENDBRANCH  35  38
ENDBRANCH   1  32
TORSDOF 7
ENDMDL
MODEL 5
REMARK VINA RESULT:    -6.215      1.547      2.445
REMARK INTER + INTRA:          -7.463
REMARK INTER:                  -8.217
REMARK INTRA:                   0.754
REMARK UNBOUND:                 0.750
REMARK  Name = resultss/4CJN/ligands/lig_372_t0.pdb
REMARK  8 active torsions:
REMARK  status: ('A' for Active; 'I' for Inactive)
REMARK    1  A    between atoms: C1_1  and  O1_2
REMARK    2  A    between atoms: O1_2  and  C2_3
REMARK    3  A    between atoms: C4_5  and  C5_6
REMARK    4  A    between atoms: C5_6  and  C6_7
REMARK    5  A    between atoms: C5_6  and  C15_20
REMARK    6  A    between atoms: C7_8  and  O2_9
REMARK    7  A    between atoms: C16_21  and  O5_22
REMARK    8  A    between atoms: C26_35  and  O8_36
REMARK                            x       y       z     vdW  Elec       q    Type
REMARK                         _______ _______ _______ _____ _____    ______ ____
ROOT
ATOM      1  C5  UNL     1      29.128  -8.189 -40.670  0.00  0.00    +0.000 C 
ENDROOT
BRANCH   1   2
ATOM      2  C6  UNL     1      30.357  -8.987 -41.125  0.00  0.00    +0.000 A 
ATOM      3  C7  UNL     1      30.212 -10.002 -42.097  0.00  0.00    +0.000 A 
ATOM      4  C8  UNL     1      31.349 -10.733 -42.517  0.00  0.00    +0.000 A 
ATOM      5  C9  UNL     1      31.306 -11.731 -43.516  0.00  0.00    +0.000 A 
ATOM      6  C10 UNL     1      32.469 -12.418 -43.882  0.00  0.00    +0.000 A 
ATOM      7 CL1  UNL     1      32.402 -13.654 -45.126  0.00  0.00    +0.000 Cl
ATOM      8  C11 UNL     1      33.685 -12.122 -43.262  0.00  0.00    +0.000 A 
ATOM      9  C12 UNL     1      33.745 -11.137 -42.277  0.00  0.00    +0.000 A 
ATOM     10  C13 UNL     1      32.589 -10.443 -41.903  0.00  0.00    +0.000 A 
ATOM     11  O3  UNL     1      32.675  -9.513 -40.962  0.00  0.00    +0.000 OA
ATOM     12  C14 UNL     1      31.637  -8.799 -40.551  0.00  0.00    +0.000 A 
ATOM     13  O4  UNL     1      31.817  -7.961 -39.630  0.00  0.00    +0.000 OA
BRANCH   3  14
ATOM     14  O2  UNL     1      28.933 -10.256 -42.609  0.00  0.00    +0.000 OA
ATOM     15  H6  UNL     1      28.648 -11.118 -43.049  0.00  0.00    +0.000 HD
ENDBRANCH   3  14
ENDBRANCH   1   2
BRANCH   1  16
ATOM     16  C15 UNL     1      28.537  -8.691 -39.342  0.00  0.00    +0.000 A 
ATOM     17  C16 UNL     1      28.402  -7.803 -38.242  0.00  0.00    +0.000 A 
ATOM     18  C17 UNL     1      27.818  -8.259 -37.049  0.00  0.00    +0.000 A 
ATOM     19  C18 UNL     1      27.633  -7.413 -35.938  0.00  0.00    +0.000 A 
ATOM     20  C19 UNL     1      27.048  -7.907 -34.767  0.00  0.00    +0.000 A 
ATOM     21 CL2  UNL     1      26.817  -6.847 -33.388  0.00  0.00    +0.000 Cl
ATOM     22  C20 UNL     1      26.647  -9.245 -34.694  0.00  0.00    +0.000 A 
ATOM     23  C21 UNL     1      26.830 -10.092 -35.790  0.00  0.00    +0.000 A 
ATOM     24  C22 UNL     1      27.414  -9.607 -36.964  0.00  0.00    +0.000 A 
ATOM     25  O6  UNL     1      27.593 -10.424 -37.991  0.00  0.00    +0.000 OA
ATOM     26  C23 UNL     1      28.131 -10.040 -39.141  0.00  0.00    +0.000 A 
ATOM     27  O7  UNL     1      28.284 -10.907 -40.040  0.00  0.00    +0.000 OA
BRANCH  17  28
ATOM     28  O5  UNL     1      28.844  -6.474 -38.299  0.00  0.00    +0.000 OA
ATOM     29  H10 UNL     1      29.810  -6.190 -38.228  0.00  0.00    +0.000 HD
ENDBRANCH  17  28
ENDBRANCH   1  16
BRANCH   1  32
ATOM     30  C2  UNL     1      25.827  -8.296 -42.619  0.00  0.00    +0.000 A 
ATOM     31  C3  UNL     1      26.797  -8.452 -41.610  0.00  0.00    +0.000 A 
ATOM     32  C4  UNL     1      28.109  -7.971 -41.784  0.00  0.00    +0.000 A 
ATOM     33  C24 UNL     1      28.442  -7.343 -43.001  0.00  0.00    +0.000 A 
ATOM     34  C25 UNL     1      27.484  -7.185 -44.002  0.00  0.00    +0.000 A 
ATOM     35  C26 UNL     1      26.181  -7.655 -43.819  0.00  0.00    +0.000 A 
BRANCH  30  37
ATOM     36  C1  UNL     1      23.496  -8.096 -41.727  0.00  0.00    +0.000 C 
ATOM     37  O1  UNL     1      24.513  -8.766 -42.465  0.00  0.00    +0.000 OA
ENDBRANCH  30  37
BRANCH  35  38
ATOM     38  O8  UNL     1      25.252  -7.477 -44.843  0.00  0.00    +0.000 OA
ATOM     39  H16 UNL     1      25.519  -7.466 -45.820  0.00  0.00    +0.000 HD
ENDBRANCH  35  38
ENDBRANCH   1  32
TORSDOF 7
ENDMDL
MODEL 6
REMARK VINA RESULT:    -6.150      2.989      9.078
REMARK INTER + INTRA:          -7.377
REMARK INTER:                  -7.775
REMARK INTRA:                   0.398
REMARK UNBOUND:                 0.750
REMARK  Name = resultss/4CJN/ligands/lig_372_t0.pdb
REMARK  8 active torsions:
REMARK  status: ('A' for Active; 'I' for Inactive)
REMARK    1  A    between atoms: C1_1  and  O1_2
REMARK    2  A    between atoms: O1_2  and  C2_3
REMARK    3  A    between atoms: C4_5  and  C5_6
REMARK    4  A    between atoms: C5_6  and  C6_7
REMARK    5  A    between atoms: C5_6  and  C15_20
REMARK    6  A    between atoms: C7_8  and  O2_9
REMARK    7  A    between atoms: C16_21  and  O5_22
REMARK    8  A    between atoms: C26_35  and  O8_36
REMARK                            x       y       z     vdW  Elec       q    Type
REMARK                         _______ _______ _______ _____ _____    ______ ____
ROOT
ATOM      1  C5  UNL     1      29.403  -7.737 -36.954  0.00  0.00    +0.000 C 
ENDROOT
BRANCH   1   2
ATOM      2  C6  UNL     1      28.162  -8.254 -36.215  0.00  0.00    +0.000 A 
ATOM      3  C7  UNL     1      27.370  -7.355 -35.464  0.00  0.00    +0.000 A 
ATOM      4  C8  UNL     1      26.224  -7.835 -34.786  0.00  0.00    +0.000 A 
ATOM      5  C9  UNL     1      25.350  -7.002 -34.052  0.00  0.00    +0.000 A 
ATOM      6  C10 UNL     1      24.234  -7.544 -33.403  0.00  0.00    +0.000 A 
ATOM      7 CL1  UNL     1      23.155  -6.498 -32.497  0.00  0.00    +0.000 Cl
ATOM      8  C11 UNL     1      23.974  -8.913 -33.477  0.00  0.00    +0.000 A 
ATOM      9  C12 UNL     1      24.825  -9.748 -34.200  0.00  0.00    +0.000 A 
ATOM     10  C13 UNL     1      25.943  -9.219 -34.854  0.00  0.00    +0.000 A 
ATOM     11  O3  UNL     1      26.736 -10.036 -35.532  0.00  0.00    +0.000 OA
ATOM     12  C14 UNL     1      27.810  -9.624 -36.190  0.00  0.00    +0.000 A 
ATOM     13  O4  UNL     1      28.515 -10.484 -36.779  0.00  0.00    +0.000 OA
BRANCH   3  14
ATOM     14  O2  UNL     1      27.759  -6.010 -35.410  0.00  0.00    +0.000 OA
ATOM     15  H6  UNL     1      27.632  -5.405 -34.613  0.00  0.00    +0.000 HD
ENDBRANCH   3  14
ENDBRANCH   1   2
BRANCH   1  16
ATOM     16  C15 UNL     1      29.338  -7.956 -38.475  0.00  0.00    +0.000 A 
ATOM     17  C16 UNL     1      29.962  -9.091 -39.058  0.00  0.00    +0.000 A 
ATOM     18  C17 UNL     1      29.857  -9.305 -40.442  0.00  0.00    +0.000 A 
ATOM     19  C18 UNL     1      30.430 -10.429 -41.068  0.00  0.00    +0.000 A 
ATOM     20  C19 UNL     1      30.304 -10.606 -42.450  0.00  0.00    +0.000 A 
ATOM     21 CL2  UNL     1      31.018 -12.010 -43.224  0.00  0.00    +0.000 Cl
ATOM     22  C20 UNL     1      29.610  -9.665 -43.217  0.00  0.00    +0.000 A 
ATOM     23  C21 UNL     1      29.041  -8.545 -42.605  0.00  0.00    +0.000 A 
ATOM     24  C22 UNL     1      29.162  -8.360 -41.224  0.00  0.00    +0.000 A 
ATOM     25  O6  UNL     1      28.629  -7.288 -40.659  0.00  0.00    +0.000 OA
ATOM     26  C23 UNL     1      28.692  -7.045 -39.356  0.00  0.00    +0.000 A 
ATOM     27  O7  UNL     1      28.178  -5.978 -38.929  0.00  0.00    +0.000 OA
BRANCH  17  28
ATOM     28  O5  UNL     1      30.695 -10.011 -38.297  0.00  0.00    +0.000 OA
ATOM     29  H10 UNL     1      30.467 -10.278 -37.350  0.00  0.00    +0.000 HD
ENDBRANCH  17  28
ENDBRANCH   1  16
BRANCH   1  32
ATOM     30  C2  UNL     1      31.849  -9.483 -34.571  0.00  0.00    +0.000 A 
ATOM     31  C3  UNL     1      30.670  -9.074 -35.224  0.00  0.00    +0.000 A 
ATOM     32  C4  UNL     1      30.713  -8.167 -36.300  0.00  0.00    +0.000 A 
ATOM     33  C24 UNL     1      31.963  -7.655 -36.702  0.00  0.00    +0.000 A 
ATOM     34  C25 UNL     1      33.133  -8.058 -36.060  0.00  0.00    +0.000 A 
ATOM     35  C26 UNL     1      33.085  -8.968 -35.001  0.00  0.00    +0.000 A 
BRANCH  30  37
ATOM     36  C1  UNL     1      31.516 -10.043 -32.154  0.00  0.00    +0.000 C 
ATOM     37  O1  UNL     1      31.829 -10.389 -33.499  0.00  0.00    +0.000 OA
ENDBRANCH  30  37
BRANCH  35  38
ATOM     38  O8  UNL     1      34.277  -9.346 -34.385  0.00  0.00    +0.000 OA
ATOM     39  H16 UNL     1      34.655 -10.282 -34.466  0.00  0.00    +0.000 HD
ENDBRANCH  35  38
ENDBRANCH   1  32
TORSDOF 7
ENDMDL
MODEL 7
REMARK VINA RESULT:    -6.113      2.334      7.534
REMARK INTER + INTRA:          -7.329
REMARK INTER:                  -8.267
REMARK INTRA:                   0.938
REMARK UNBOUND:                 0.750
REMARK  Name = resultss/4CJN/ligands/lig_372_t0.pdb
REMARK  8 active torsions:
REMARK  status: ('A' for Active; 'I' for Inactive)
REMARK    1  A    between atoms: C1_1  and  O1_2
REMARK    2  A    between atoms: O1_2  and  C2_3
REMARK    3  A    between atoms: C4_5  and  C5_6
REMARK    4  A    between atoms: C5_6  and  C6_7
REMARK    5  A    between atoms: C5_6  and  C15_20
REMARK    6  A    between atoms: C7_8  and  O2_9
REMARK    7  A    between atoms: C16_21  and  O5_22
REMARK    8  A    between atoms: C26_35  and  O8_36
REMARK                            x       y       z     vdW  Elec       q    Type
REMARK                         _______ _______ _______ _____ _____    ______ ____
ROOT
ATOM      1  C5  UNL     1      27.422  -8.131 -39.842  0.00  0.00    +0.000 C 
ENDROOT
BRANCH   1   2
ATOM      2  C6  UNL     1      27.118  -8.460 -38.375  0.00  0.00    +0.000 A 
ATOM      3  C7  UNL     1      26.769  -7.421 -37.483  0.00  0.00    +0.000 A 
ATOM      4  C8  UNL     1      26.486  -7.729 -36.131  0.00  0.00    +0.000 A 
ATOM      5  C9  UNL     1      26.084  -6.762 -35.182  0.00  0.00    +0.000 A 
ATOM      6  C10 UNL     1      25.821  -7.136 -33.858  0.00  0.00    +0.000 A 
ATOM      7 CL1  UNL     1      25.320  -5.926 -32.690  0.00  0.00    +0.000 Cl
ATOM      8  C11 UNL     1      25.953  -8.469 -33.465  0.00  0.00    +0.000 A 
ATOM      9  C12 UNL     1      26.346  -9.435 -34.390  0.00  0.00    +0.000 A 
ATOM     10  C13 UNL     1      26.610  -9.075 -35.716  0.00  0.00    +0.000 A 
ATOM     11  O3  UNL     1      26.984 -10.013 -36.574  0.00  0.00    +0.000 OA
ATOM     12  C14 UNL     1      27.246  -9.767 -37.850  0.00  0.00    +0.000 A 
ATOM     13  O4  UNL     1      27.623 -10.723 -38.576  0.00  0.00    +0.000 OA
BRANCH   3  14
ATOM     14  O2  UNL     1      26.725  -6.109 -37.973  0.00  0.00    +0.000 OA
ATOM     15  H6  UNL     1      27.521  -5.493 -38.047  0.00  0.00    +0.000 HD
ENDBRANCH   3  14
ENDBRANCH   1   2
BRANCH   1  16
ATOM     16  C15 UNL     1      26.164  -8.069 -40.724  0.00  0.00    +0.000 A 
ATOM     17  C16 UNL     1      26.192  -7.362 -41.956  0.00  0.00    +0.000 A 
ATOM     18  C17 UNL     1      25.051  -7.351 -42.775  0.00  0.00    +0.000 A 
ATOM     19  C18 UNL     1      25.033  -6.692 -44.020  0.00  0.00    +0.000 A 
ATOM     20  C19 UNL     1      23.877  -6.703 -44.806  0.00  0.00    +0.000 A 
ATOM     21 CL2  UNL     1      23.862  -5.883 -46.357  0.00  0.00    +0.000 Cl
ATOM     22  C20 UNL     1      22.730  -7.367 -44.357  0.00  0.00    +0.000 A 
ATOM     23  C21 UNL     1      22.738  -8.021 -43.122  0.00  0.00    +0.000 A 
ATOM     24  C22 UNL     1      23.890  -8.014 -42.330  0.00  0.00    +0.000 A 
ATOM     25  O6  UNL     1      23.879  -8.627 -41.156  0.00  0.00    +0.000 OA
ATOM     26  C23 UNL     1      24.932  -8.675 -40.350  0.00  0.00    +0.000 A 
ATOM     27  O7  UNL     1      24.802  -9.257 -39.242  0.00  0.00    +0.000 OA
BRANCH  17  28
ATOM     28  O5  UNL     1      27.325  -6.660 -42.385  0.00  0.00    +0.000 OA
ATOM     29  H10 UNL     1      28.054  -6.323 -41.774  0.00  0.00    +0.000 HD
ENDBRANCH  17  28
ENDBRANCH   1  16
BRANCH   1  32
ATOM     30  C2  UNL     1      30.980  -9.379 -40.543  0.00  0.00    +0.000 A 
ATOM     31  C3  UNL     1      29.886  -8.661 -40.022  0.00  0.00    +0.000 A 
ATOM     32  C4  UNL     1      28.568  -8.958 -40.417  0.00  0.00    +0.000 A 
ATOM     33  C24 UNL     1      28.362  -9.982 -41.364  0.00  0.00    +0.000 A 
ATOM     34  C25 UNL     1      29.441 -10.697 -41.880  0.00  0.00    +0.000 A 
ATOM     35  C26 UNL     1      30.746 -10.405 -41.475  0.00  0.00    +0.000 A 
BRANCH  30  37
ATOM     36  C1  UNL     1      32.910  -9.561 -38.957  0.00  0.00    +0.000 C 
ATOM     37  O1  UNL     1      32.302  -9.101 -40.160  0.00  0.00    +0.000 OA
ENDBRANCH  30  37
BRANCH  35  38
ATOM     38  O8  UNL     1      31.799 -11.143 -42.015  0.00  0.00    +0.000 OA
ATOM     39  H16 UNL     1      32.611 -10.702 -42.429  0.00  0.00    +0.000 HD
ENDBRANCH  35  38
ENDBRANCH   1  32
TORSDOF 7
ENDMDL
MODEL 8
REMARK VINA RESULT:    -6.102      2.737      3.499
REMARK INTER + INTRA:          -7.314
REMARK INTER:                  -7.852
REMARK INTRA:                   0.538
REMARK UNBOUND:                 0.750
REMARK  Name = resultss/4CJN/ligands/lig_372_t0.pdb
REMARK  8 active torsions:
REMARK  status: ('A' for Active; 'I' for Inactive)
REMARK    1  A    between atoms: C1_1  and  O1_2
REMARK    2  A    between atoms: O1_2  and  C2_3
REMARK    3  A    between atoms: C4_5  and  C5_6
REMARK    4  A    between atoms: C5_6  and  C6_7
REMARK    5  A    between atoms: C5_6  and  C15_20
REMARK    6  A    between atoms: C7_8  and  O2_9
REMARK    7  A    between atoms: C16_21  and  O5_22
REMARK    8  A    between atoms: C26_35  and  O8_36
REMARK                            x       y       z     vdW  Elec       q    Type
REMARK                         _______ _______ _______ _____ _____    ______ ____
ROOT
ATOM      1  C5  UNL     1      28.557  -8.213 -38.849  0.00  0.00    +0.000 C 
ENDROOT
BRANCH   1   2
ATOM      2  C6  UNL     1      29.117  -9.206 -39.876  0.00  0.00    +0.000 A 
ATOM      3  C7  UNL     1      30.440  -9.052 -40.348  0.00  0.00    +0.000 A 
ATOM      4  C8  UNL     1      30.954  -9.973 -41.293  0.00  0.00    +0.000 A 
ATOM      5  C9  UNL     1      32.278  -9.924 -41.783  0.00  0.00    +0.000 A 
ATOM      6  C10 UNL     1      32.722 -10.865 -42.720  0.00  0.00    +0.000 A 
ATOM      7 CL1  UNL     1      34.369 -10.795 -43.319  0.00  0.00    +0.000 Cl
ATOM      8  C11 UNL     1      31.858 -11.862 -43.178  0.00  0.00    +0.000 A 
ATOM      9  C12 UNL     1      30.549 -11.925 -42.701  0.00  0.00    +0.000 A 
ATOM     10  C13 UNL     1      30.094 -10.991 -41.764  0.00  0.00    +0.000 A 
ATOM     11  O3  UNL     1      28.845 -11.074 -41.329  0.00  0.00    +0.000 OA
ATOM     12  C14 UNL     1      28.330 -10.241 -40.436  0.00  0.00    +0.000 A 
ATOM     13  O4  UNL     1      27.123 -10.385 -40.111  0.00  0.00    +0.000 OA
BRANCH   3  14
ATOM     14  O2  UNL     1      31.199  -7.979 -39.865  0.00  0.00    +0.000 OA
ATOM     15  H6  UNL     1      31.815  -7.409 -40.425  0.00  0.00    +0.000 HD
ENDBRANCH   3  14
ENDBRANCH   1   2
BRANCH   1  16
ATOM     16  C15 UNL     1      28.846  -8.618 -37.394  0.00  0.00    +0.000 A 
ATOM     17  C16 UNL     1      29.697  -7.816 -36.588  0.00  0.00    +0.000 A 
ATOM     18  C17 UNL     1      29.918  -8.170 -35.247  0.00  0.00    +0.000 A 
ATOM     19  C18 UNL     1      30.728  -7.394 -34.395  0.00  0.00    +0.000 A 
ATOM     20  C19 UNL     1      30.924  -7.780 -33.065  0.00  0.00    +0.000 A 
ATOM     21 CL2  UNL     1      31.932  -6.808 -32.007  0.00  0.00    +0.000 Cl
ATOM     22  C20 UNL     1      30.317  -8.942 -32.575  0.00  0.00    +0.000 A 
ATOM     23  C21 UNL     1      29.515  -9.720 -33.415  0.00  0.00    +0.000 A 
ATOM     24  C22 UNL     1      29.314  -9.340 -34.746  0.00  0.00    +0.000 A 
ATOM     25  O6  UNL     1      28.561 -10.093 -35.533  0.00  0.00    +0.000 OA
ATOM     26  C23 UNL     1      28.315  -9.798 -36.803  0.00  0.00    +0.000 A 
ATOM     27  O7  UNL     1      27.612 -10.601 -37.470  0.00  0.00    +0.000 OA
BRANCH  17  28
ATOM     28  O5  UNL     1      30.341  -6.677 -37.089  0.00  0.00    +0.000 OA
ATOM     29  H10 UNL     1      30.063  -5.728 -36.883  0.00  0.00    +0.000 HD
ENDBRANCH  17  28
ENDBRANCH   1  16
BRANCH   1  32
ATOM     30  C2  UNL     1      25.451  -6.963 -40.719  0.00  0.00    +0.000 A 
ATOM     31  C3  UNL     1      26.766  -7.367 -40.418  0.00  0.00    +0.000 A 
ATOM     32  C4  UNL     1      27.111  -7.813 -39.128  0.00  0.00    +0.000 A 
ATOM     33  C24 UNL     1      26.115  -7.831 -38.131  0.00  0.00    +0.000 A 
ATOM     34  C25 UNL     1      24.811  -7.435 -38.425  0.00  0.00    +0.000 A 
ATOM     35  C26 UNL     1      24.472  -7.004 -39.710  0.00  0.00    +0.000 A 
BRANCH  30  37
ATOM     36  C1  UNL     1      25.044  -7.340 -43.161  0.00  0.00    +0.000 C 
ATOM     37  O1  UNL     1      25.085  -6.517 -41.999  0.00  0.00    +0.000 OA
ENDBRANCH  30  37
BRANCH  35  38
ATOM     38  O8  UNL     1      23.157  -6.615 -39.965  0.00  0.00    +0.000 OA
ATOM     39  H16 UNL     1      22.797  -6.512 -40.905  0.00  0.00    +0.000 HD
ENDBRANCH  35  38
ENDBRANCH   1  32
TORSDOF 7
ENDMDL
MODEL 9
REMARK VINA RESULT:    -5.953      2.821      5.979
REMARK INTER + INTRA:          -7.117
REMARK INTER:                  -7.924
REMARK INTRA:                   0.807
REMARK UNBOUND:                 0.750
REMARK  Name = resultss/4CJN/ligands/lig_372_t0.pdb
REMARK  8 active torsions:
REMARK  status: ('A' for Active; 'I' for Inactive)
REMARK    1  A    between atoms: C1_1  and  O1_2
REMARK    2  A    between atoms: O1_2  and  C2_3
REMARK    3  A    between atoms: C4_5  and  C5_6
REMARK    4  A    between atoms: C5_6  and  C6_7
REMARK    5  A    between atoms: C5_6  and  C15_20
REMARK    6  A    between atoms: C7_8  and  O2_9
REMARK    7  A    between atoms: C16_21  and  O5_22
REMARK    8  A    between atoms: C26_35  and  O8_36
REMARK                            x       y       z     vdW  Elec       q    Type
REMARK                         _______ _______ _______ _____ _____    ______ ____
ROOT
ATOM      1  C5  UNL     1      26.927  -8.852 -41.556  0.00  0.00    +0.000 C 
ENDROOT
BRANCH   1   2
ATOM      2  C6  UNL     1      26.516  -8.076 -42.813  0.00  0.00    +0.000 A 
ATOM      3  C7  UNL     1      25.242  -8.294 -43.385  0.00  0.00    +0.000 A 
ATOM      4  C8  UNL     1      24.866  -7.573 -44.544  0.00  0.00    +0.000 A 
ATOM      5  C9  UNL     1      23.597  -7.692 -45.155  0.00  0.00    +0.000 A 
ATOM      6  C10 UNL     1      23.291  -6.950 -46.302  0.00  0.00    +0.000 A 
ATOM      7 CL1  UNL     1      21.711  -7.105 -47.049  0.00  0.00    +0.000 Cl
ATOM      8  C11 UNL     1      24.237  -6.084 -46.852  0.00  0.00    +0.000 A 
ATOM      9  C12 UNL     1      25.492  -5.952 -46.259  0.00  0.00    +0.000 A 
ATOM     10  C13 UNL     1      25.811  -6.688 -45.112  0.00  0.00    +0.000 A 
ATOM     11  O3  UNL     1      27.011  -6.545 -44.570  0.00  0.00    +0.000 OA
ATOM     12  C14 UNL     1      27.397  -7.192 -43.480  0.00  0.00    +0.000 A 
ATOM     13  O4  UNL     1      28.570  -7.010 -43.062  0.00  0.00    +0.000 OA
BRANCH   3  14
ATOM     14  O2  UNL     1      24.394  -9.232 -42.784  0.00  0.00    +0.000 OA
ATOM     15  H6  UNL     1      23.886  -9.952 -43.277  0.00  0.00    +0.000 HD
ENDBRANCH   3  14
ENDBRANCH   1   2
BRANCH   1  16
ATOM     16  C15 UNL     1      26.613  -8.102 -40.250  0.00  0.00    +0.000 A 
ATOM     17  C16 UNL     1      25.525  -8.515 -39.437  0.00  0.00    +0.000 A 
ATOM     18  C17 UNL     1      25.276  -7.852 -38.223  0.00  0.00    +0.000 A 
ATOM     19  C18 UNL     1      24.229  -8.239 -37.364  0.00  0.00    +0.000 A 
ATOM     20  C19 UNL     1      24.013  -7.552 -36.164  0.00  0.00    +0.000 A 
ATOM     21 CL2  UNL     1      22.710  -8.040 -35.096  0.00  0.00    +0.000 Cl
ATOM     22  C20 UNL     1      24.835  -6.476 -35.814  0.00  0.00    +0.000 A 
ATOM     23  C21 UNL     1      25.874  -6.083 -36.663  0.00  0.00    +0.000 A 
ATOM     24  C22 UNL     1      26.097  -6.764 -37.864  0.00  0.00    +0.000 A 
ATOM     25  O6  UNL     1      27.077  -6.374 -38.664  0.00  0.00    +0.000 OA
ATOM     26  C23 UNL     1      27.358  -6.971 -39.815  0.00  0.00    +0.000 A 
ATOM     27  O7  UNL     1      28.291  -6.497 -40.514  0.00  0.00    +0.000 OA
BRANCH  17  28
ATOM     28  O5  UNL     1      24.674  -9.564 -39.807  0.00  0.00    +0.000 OA
ATOM     29  H10 UNL     1      23.870  -9.863 -39.273  0.00  0.00    +0.000 HD
ENDBRANCH  17  28
ENDBRANCH   1  16
BRANCH   1  32
ATOM     30  C2  UNL     1      30.515  -9.786 -40.575  0.00  0.00    +0.000 A 
ATOM     31  C3  UNL     1      29.197  -9.291 -40.536  0.00  0.00    +0.000 A 
ATOM     32  C4  UNL     1      28.336  -9.430 -41.641  0.00  0.00    +0.000 A 
ATOM     33  C24 UNL     1      28.826 -10.060 -42.803  0.00  0.00    +0.000 A 
ATOM     34  C25 UNL     1      30.129 -10.554 -42.845  0.00  0.00    +0.000 A 
ATOM     35  C26 UNL     1      30.975 -10.423 -41.740  0.00  0.00    +0.000 A 
BRANCH  30  37
ATOM     36  C1  UNL     1      31.022  -9.885 -38.124  0.00  0.00    +0.000 C 
ATOM     37  O1  UNL     1      31.388  -9.661 -39.482  0.00  0.00    +0.000 OA
ENDBRANCH  30  37
BRANCH  35  38
ATOM     38  O8  UNL     1      32.272 -10.930 -41.821  0.00  0.00    +0.000 OA
ATOM     39  H16 UNL     1      33.089 -10.346 -41.689  0.00  0.00    +0.000 HD
ENDBRANCH  35  38
ENDBRANCH   1  32
TORSDOF 7
ENDMDL
