MODEL 1
REMARK VINA RESULT:    -5.558      0.000      0.000
REMARK INTER + INTRA:          -9.042
REMARK INTER:                  -8.482
REMARK INTRA:                  -0.560
REMARK UNBOUND:                -0.560
REMARK  Name = resultss/4CJN/ligands/lig_79_t0.pdb
REMARK  18 active torsions:
REMARK  status: ('A' for Active; 'I' for Inactive)
REMARK    1  A    between atoms: C1_1  and  C2_2
REMARK    2  A    between atoms: C2_2  and  C3_3
REMARK    3  A    between atoms: C2_2  and  C4_4
REMARK    4  A    between atoms: C2_2  and  C5_5
REMARK    5  A    between atoms: C7_7  and  C8_8
REMARK    6  A    between atoms: C8_8  and  N1_9
REMARK    7  A    between atoms: N1_9  and  C9_10
REMARK    8  A    between atoms: C11_12  and  O1_13
REMARK    9  A    between atoms: C11_12  and  C12_14
REMARK   10  A    between atoms: C12_14  and  O2_15
REMARK   11  A    between atoms: C13_16  and  O3_17
REMARK   12  A    between atoms: C14_18  and  O4_19
REMARK   13  A    between atoms: C15_20  and  O5_21
REMARK   14  A    between atoms: C17_23  and  C18_24
REMARK   15  A    between atoms: C18_24  and  C19_25
REMARK   16  A    between atoms: C18_24  and  C20_26
REMARK   17  A    between atoms: C18_24  and  C21_27
REMARK   18  A    between atoms: C22_28  and  O6_29
REMARK                            x       y       z     vdW  Elec       q    Type
REMARK                         _______ _______ _______ _____ _____    ______ ____
ROOT
ATOM      1  N1  UNL     1      25.630  -6.123 -37.007  0.00  0.00    +0.000 NA
ATOM      2  H13 UNL     1      24.727  -6.061 -37.535  0.00  0.00    +0.000 HD
ENDROOT
BRANCH   1   3
ATOM      3  C9  UNL     1      25.580  -7.333 -36.140  0.00  0.00    +0.000 C 
ATOM      4  C10 UNL     1      26.199  -7.159 -34.725  0.00  0.00    +0.000 C 
ATOM      5  C11 UNL     1      25.943  -8.385 -33.802  0.00  0.00    +0.000 C 
ATOM      6  C13 UNL     1      24.391  -8.642 -33.658  0.00  0.00    +0.000 C 
ATOM      7  C14 UNL     1      23.514  -7.922 -34.723  0.00  0.00    +0.000 C 
ATOM      8  C15 UNL     1      24.163  -7.992 -36.114  0.00  0.00    +0.000 C 
BRANCH   5   9
ATOM      9  O1  UNL     1      26.475  -8.112 -32.523  0.00  0.00    +0.000 OA
ATOM     10  H17 UNL     1      27.322  -8.622 -32.418  0.00  0.00    +0.000 HD
ENDBRANCH   5   9
BRANCH   6  11
ATOM     11  O3  UNL     1      23.932  -8.304 -32.370  0.00  0.00    +0.000 OA
ATOM     12  H22 UNL     1      23.569  -9.131 -31.957  0.00  0.00    +0.000 HD
ENDBRANCH   6  11
BRANCH   7  13
ATOM     13  O4  UNL     1      22.244  -8.520 -34.775  0.00  0.00    +0.000 OA
ATOM     14  H24 UNL     1      21.587  -7.787 -34.913  0.00  0.00    +0.000 HD
ENDBRANCH   7  13
BRANCH   8  15
ATOM     15  O5  UNL     1      23.306  -7.410 -37.061  0.00  0.00    +0.000 OA
ATOM     16  H26 UNL     1      23.360  -6.427 -36.930  0.00  0.00    +0.000 HD
ENDBRANCH   8  15
BRANCH   5  17
ATOM     17  C12 UNL     1      26.639  -9.667 -34.346  0.00  0.00    +0.000 C 
BRANCH  17  18
ATOM     18  O2  UNL     1      25.747 -10.749 -34.418  0.00  0.00    +0.000 OA
ATOM     19  H20 UNL     1      24.858 -10.379 -34.657  0.00  0.00    +0.000 HD
ENDBRANCH  17  18
ENDBRANCH   5  17
ENDBRANCH   1   3
BRANCH   1  20
ATOM     20  C8  UNL     1      26.716  -6.013 -38.001  0.00  0.00    +0.000 C 
BRANCH  20  23
ATOM     21  C5  UNL     1      27.267  -8.927 -40.420  0.00  0.00    +0.000 A 
ATOM     22  C6  UNL     1      27.406  -8.032 -39.339  0.00  0.00    +0.000 A 
ATOM     23  C7  UNL     1      26.529  -6.967 -39.156  0.00  0.00    +0.000 A 
ATOM     24  C16 UNL     1      25.452  -6.802 -40.024  0.00  0.00    +0.000 A 
ATOM     25  C17 UNL     1      25.258  -7.638 -41.147  0.00  0.00    +0.000 A 
ATOM     26  C22 UNL     1      26.149  -8.754 -41.291  0.00  0.00    +0.000 A 
BRANCH  21  28
ATOM     27  C1  UNL     1      27.648 -11.445 -40.306  0.00  0.00    +0.000 C 
ATOM     28  C2  UNL     1      28.294 -10.079 -40.636  0.00  0.00    +0.000 C 
ATOM     29  C3  UNL     1      29.553  -9.952 -39.735  0.00  0.00    +0.000 C 
ATOM     30  C4  UNL     1      28.800 -10.070 -42.098  0.00  0.00    +0.000 C 
ENDBRANCH  21  28
BRANCH  25  31
ATOM     31  C18 UNL     1      24.120  -7.309 -42.166  0.00  0.00    +0.000 C 
ATOM     32  C19 UNL     1      24.696  -6.944 -43.560  0.00  0.00    +0.000 C 
ATOM     33  C20 UNL     1      23.141  -8.499 -42.270  0.00  0.00    +0.000 C 
ATOM     34  C21 UNL     1      23.272  -6.076 -41.736  0.00  0.00    +0.000 C 
ENDBRANCH  25  31
BRANCH  26  35
ATOM     35  O6  UNL     1      25.946  -9.722 -42.272  0.00  0.00    +0.000 OA
ATOM     36  H37 UNL     1      25.447 -10.583 -42.122  0.00  0.00    +0.000 HD
ENDBRANCH  26  35
ENDBRANCH  20  23
ENDBRANCH   1  20
TORSDOF 12
ENDMDL
MODEL 2
REMARK VINA RESULT:    -5.554      0.200      3.392
REMARK INTER + INTRA:          -9.036
REMARK INTER:                  -8.508
REMARK INTRA:                  -0.528
REMARK UNBOUND:                -0.560
REMARK  Name = resultss/4CJN/ligands/lig_79_t0.pdb
REMARK  18 active torsions:
REMARK  status: ('A' for Active; 'I' for Inactive)
REMARK    1  A    between atoms: C1_1  and  C2_2
REMARK    2  A    between atoms: C2_2  and  C3_3
REMARK    3  A    between atoms: C2_2  and  C4_4
REMARK    4  A    between atoms: C2_2  and  C5_5
REMARK    5  A    between atoms: C7_7  and  C8_8
REMARK    6  A    between atoms: C8_8  and  N1_9
REMARK    7  A    between atoms: N1_9  and  C9_10
REMARK    8  A    between atoms: C11_12  and  O1_13
REMARK    9  A    between atoms: C11_12  and  C12_14
REMARK   10  A    between atoms: C12_14  and  O2_15
REMARK   11  A    between atoms: C13_16  and  O3_17
REMARK   12  A    between atoms: C14_18  and  O4_19
REMARK   13  A    between atoms: C15_20  and  O5_21
REMARK   14  A    between atoms: C17_23  and  C18_24
REMARK   15  A    between atoms: C18_24  and  C19_25
REMARK   16  A    between atoms: C18_24  and  C20_26
REMARK   17  A    between atoms: C18_24  and  C21_27
REMARK   18  A    between atoms: C22_28  and  O6_29
REMARK                            x       y       z     vdW  Elec       q    Type
REMARK                         _______ _______ _______ _____ _____    ______ ____
ROOT
ATOM      1  N1  UNL     1      25.655  -6.065 -36.983  0.00  0.00    +0.000 NA
ATOM      2  H13 UNL     1      24.748  -5.976 -37.500  0.00  0.00    +0.000 HD
ENDROOT
BRANCH   1   3
ATOM      3  C9  UNL     1      25.589  -7.290 -36.137  0.00  0.00    +0.000 C 
ATOM      4  C10 UNL     1      26.199  -7.144 -34.715  0.00  0.00    +0.000 C 
ATOM      5  C11 UNL     1      25.928  -8.384 -33.815  0.00  0.00    +0.000 C 
ATOM      6  C13 UNL     1      24.373  -8.632 -33.687  0.00  0.00    +0.000 C 
ATOM      7  C14 UNL     1      23.509  -7.888 -34.745  0.00  0.00    +0.000 C 
ATOM      8  C15 UNL     1      24.168  -7.939 -36.133  0.00  0.00    +0.000 C 
BRANCH   5   9
ATOM      9  O1  UNL     1      26.452  -8.136 -32.527  0.00  0.00    +0.000 OA
ATOM     10  H17 UNL     1      25.841  -8.540 -31.855  0.00  0.00    +0.000 HD
ENDBRANCH   5   9
BRANCH   6  11
ATOM     11  O3  UNL     1      23.907  -8.313 -32.397  0.00  0.00    +0.000 OA
ATOM     12  H22 UNL     1      23.087  -8.850 -32.234  0.00  0.00    +0.000 HD
ENDBRANCH   6  11
BRANCH   7  13
ATOM     13  O4  UNL     1      22.235  -8.475 -34.817  0.00  0.00    +0.000 OA
ATOM     14  H24 UNL     1      21.639  -7.815 -35.261  0.00  0.00    +0.000 HD
ENDBRANCH   7  13
BRANCH   8  15
ATOM     15  O5  UNL     1      23.322  -7.334 -37.076  0.00  0.00    +0.000 OA
ATOM     16  H26 UNL     1      22.954  -8.065 -37.639  0.00  0.00    +0.000 HD
ENDBRANCH   8  15
BRANCH   5  17
ATOM     17  C12 UNL     1      26.619  -9.661 -34.376  0.00  0.00    +0.000 C 
BRANCH  17  18
ATOM     18  O2  UNL     1      25.736 -10.753 -34.411  0.00  0.00    +0.000 OA
ATOM     19  H20 UNL     1      25.232 -10.693 -35.264  0.00  0.00    +0.000 HD
ENDBRANCH  17  18
ENDBRANCH   5  17
ENDBRANCH   1   3
BRANCH   1  20
ATOM     20  C8  UNL     1      26.733  -5.959 -37.985  0.00  0.00    +0.000 C 
BRANCH  20  23
ATOM     21  C5  UNL     1      25.259  -7.644 -41.089  0.00  0.00    +0.000 A 
ATOM     22  C6  UNL     1      25.476  -6.752 -40.019  0.00  0.00    +0.000 A 
ATOM     23  C7  UNL     1      26.539  -6.918 -39.135  0.00  0.00    +0.000 A 
ATOM     24  C16 UNL     1      27.448  -7.954 -39.335  0.00  0.00    +0.000 A 
ATOM     25  C17 UNL     1      27.286  -8.907 -40.367  0.00  0.00    +0.000 A 
ATOM     26  C22 UNL     1      26.209  -8.690 -41.290  0.00  0.00    +0.000 A 
BRANCH  21  28
ATOM     27  C1  UNL     1      22.978  -6.543 -41.379  0.00  0.00    +0.000 C 
ATOM     28  C2  UNL     1      24.030  -7.469 -42.032  0.00  0.00    +0.000 C 
ATOM     29  C3  UNL     1      23.310  -8.807 -42.350  0.00  0.00    +0.000 C 
ATOM     30  C4  UNL     1      24.484  -6.883 -43.389  0.00  0.00    +0.000 C 
ENDBRANCH  21  28
BRANCH  25  31
ATOM     31  C18 UNL     1      28.254 -10.131 -40.445  0.00  0.00    +0.000 C 
ATOM     32  C19 UNL     1      29.424  -9.992 -39.435  0.00  0.00    +0.000 C 
ATOM     33  C20 UNL     1      27.472 -11.441 -40.204  0.00  0.00    +0.000 C 
ATOM     34  C21 UNL     1      28.929 -10.270 -41.840  0.00  0.00    +0.000 C 
ENDBRANCH  25  31
BRANCH  26  35
ATOM     35  O6  UNL     1      26.059  -9.481 -42.428  0.00  0.00    +0.000 OA
ATOM     36  H37 UNL     1      25.426  -9.271 -43.182  0.00  0.00    +0.000 HD
ENDBRANCH  26  35
ENDBRANCH  20  23
ENDBRANCH   1  20
TORSDOF 12
ENDMDL
MODEL 3
REMARK VINA RESULT:    -5.431      1.710      2.385
REMARK INTER + INTRA:          -8.848
REMARK INTER:                  -8.689
REMARK INTRA:                  -0.159
REMARK UNBOUND:                -0.560
REMARK  Name = resultss/4CJN/ligands/lig_79_t0.pdb
REMARK  18 active torsions:
REMARK  status: ('A' for Active; 'I' for Inactive)
REMARK    1  A    between atoms: C1_1  and  C2_2
REMARK    2  A    between atoms: C2_2  and  C3_3
REMARK    3  A    between atoms: C2_2  and  C4_4
REMARK    4  A    between atoms: C2_2  and  C5_5
REMARK    5  A    between atoms: C7_7  and  C8_8
REMARK    6  A    between atoms: C8_8  and  N1_9
REMARK    7  A    between atoms: N1_9  and  C9_10
REMARK    8  A    between atoms: C11_12  and  O1_13
REMARK    9  A    between atoms: C11_12  and  C12_14
REMARK   10  A    between atoms: C12_14  and  O2_15
REMARK   11  A    between atoms: C13_16  and  O3_17
REMARK   12  A    between atoms: C14_18  and  O4_19
REMARK   13  A    between atoms: C15_20  and  O5_21
REMARK   14  A    between atoms: C17_23  and  C18_24
REMARK   15  A    between atoms: C18_24  and  C19_25
REMARK   16  A    between atoms: C18_24  and  C20_26
REMARK   17  A    between atoms: C18_24  and  C21_27
REMARK   18  A    between atoms: C22_28  and  O6_29
REMARK                            x       y       z     vdW  Elec       q    Type
REMARK                         _______ _______ _______ _____ _____    ______ ____
ROOT
ATOM      1  N1  UNL     1      28.122  -7.829 -36.834  0.00  0.00    +0.000 NA
ATOM      2  H13 UNL     1      28.986  -7.243 -36.923  0.00  0.00    +0.000 HD
ENDROOT
BRANCH   1   3
ATOM      3  C9  UNL     1      27.870  -8.067 -35.384  0.00  0.00    +0.000 C 
ATOM      4  C10 UNL     1      27.090  -6.939 -34.655  0.00  0.00    +0.000 C 
ATOM      5  C11 UNL     1      26.687  -7.327 -33.203  0.00  0.00    +0.000 C 
ATOM      6  C13 UNL     1      25.806  -8.639 -33.217  0.00  0.00    +0.000 C 
ATOM      7  C14 UNL     1      25.865  -9.444 -34.547  0.00  0.00    +0.000 C 
ATOM      8  C15 UNL     1      27.296  -9.493 -35.103  0.00  0.00    +0.000 C 
BRANCH   5   9
ATOM      9  O1  UNL     1      25.925  -6.278 -32.645  0.00  0.00    +0.000 OA
ATOM     10  H17 UNL     1      25.830  -6.442 -31.669  0.00  0.00    +0.000 HD
ENDBRANCH   5   9
BRANCH   6  11
ATOM     11  O3  UNL     1      24.463  -8.358 -32.900  0.00  0.00    +0.000 OA
ATOM     12  H22 UNL     1      23.940  -8.417 -33.741  0.00  0.00    +0.000 HD
ENDBRANCH   6  11
BRANCH   7  13
ATOM     13  O4  UNL     1      25.408 -10.755 -34.329  0.00  0.00    +0.000 OA
ATOM     14  H24 UNL     1      26.064 -11.189 -33.721  0.00  0.00    +0.000 HD
ENDBRANCH   7  13
BRANCH   8  15
ATOM     15  O5  UNL     1      27.325 -10.297 -36.253  0.00  0.00    +0.000 OA
ATOM     16  H26 UNL     1      26.381 -10.459 -36.513  0.00  0.00    +0.000 HD
ENDBRANCH   8  15
BRANCH   5  17
ATOM     17  C12 UNL     1      27.937  -7.544 -32.301  0.00  0.00    +0.000 C 
BRANCH  17  18
ATOM     18  O2  UNL     1      27.669  -7.223 -30.961  0.00  0.00    +0.000 OA
ATOM     19  H20 UNL     1      27.618  -6.234 -30.902  0.00  0.00    +0.000 HD
ENDBRANCH  17  18
ENDBRANCH   5  17
ENDBRANCH   1   3
BRANCH   1  20
ATOM     20  C8  UNL     1      27.071  -7.167 -37.631  0.00  0.00    +0.000 C 
BRANCH  20  23
ATOM     21  C5  UNL     1      28.103  -8.804 -40.934  0.00  0.00    +0.000 A 
ATOM     22  C6  UNL     1      28.121  -8.322 -39.608  0.00  0.00    +0.000 A 
ATOM     23  C7  UNL     1      27.014  -7.692 -39.046  0.00  0.00    +0.000 A 
ATOM     24  C16 UNL     1      25.837  -7.578 -39.781  0.00  0.00    +0.000 A 
ATOM     25  C17 UNL     1      25.746  -8.010 -41.124  0.00  0.00    +0.000 A 
ATOM     26  C22 UNL     1      26.884  -8.694 -41.668  0.00  0.00    +0.000 A 
BRANCH  21  28
ATOM     27  C1  UNL     1      30.646  -8.954 -40.838  0.00  0.00    +0.000 C 
ATOM     28  C2  UNL     1      29.373  -9.455 -41.560  0.00  0.00    +0.000 C 
ATOM     29  C3  UNL     1      29.552  -9.120 -43.065  0.00  0.00    +0.000 C 
ATOM     30  C4  UNL     1      29.279 -10.996 -41.462  0.00  0.00    +0.000 C 
ENDBRANCH  21  28
BRANCH  25  31
ATOM     31  C18 UNL     1      24.446  -7.717 -41.941  0.00  0.00    +0.000 C 
ATOM     32  C19 UNL     1      24.762  -6.934 -43.245  0.00  0.00    +0.000 C 
ATOM     33  C20 UNL     1      23.709  -9.037 -42.258  0.00  0.00    +0.000 C 
ATOM     34  C21 UNL     1      23.438  -6.824 -41.160  0.00  0.00    +0.000 C 
ENDBRANCH  25  31
BRANCH  26  35
ATOM     35  O6  UNL     1      26.837  -9.294 -42.925  0.00  0.00    +0.000 OA
ATOM     36  H37 UNL     1      27.013 -10.271 -43.091  0.00  0.00    +0.000 HD
ENDBRANCH  26  35
ENDBRANCH  20  23
ENDBRANCH   1  20
TORSDOF 12
ENDMDL
MODEL 4
REMARK VINA RESULT:    -5.404      2.339      8.045
REMARK INTER + INTRA:          -8.807
REMARK INTER:                  -8.719
REMARK INTRA:                  -0.088
REMARK UNBOUND:                -0.560
REMARK  Name = resultss/4CJN/ligands/lig_79_t0.pdb
REMARK  18 active torsions:
REMARK  status: ('A' for Active; 'I' for Inactive)
REMARK    1  A    between atoms: C1_1  and  C2_2
REMARK    2  A    between atoms: C2_2  and  C3_3
REMARK    3  A    between atoms: C2_2  and  C4_4
REMARK    4  A    between atoms: C2_2  and  C5_5
REMARK    5  A    between atoms: C7_7  and  C8_8
REMARK    6  A    between atoms: C8_8  and  N1_9
REMARK    7  A    between atoms: N1_9  and  C9_10
REMARK    8  A    between atoms: C11_12  and  O1_13
REMARK    9  A    between atoms: C11_12  and  C12_14
REMARK   10  A    between atoms: C12_14  and  O2_15
REMARK   11  A    between atoms: C13_16  and  O3_17
REMARK   12  A    between atoms: C14_18  and  O4_19
REMARK   13  A    between atoms: C15_20  and  O5_21
REMARK   14  A    between atoms: C17_23  and  C18_24
REMARK   15  A    between atoms: C18_24  and  C19_25
REMARK   16  A    between atoms: C18_24  and  C20_26
REMARK   17  A    between atoms: C18_24  and  C21_27
REMARK   18  A    between atoms: C22_28  and  O6_29
REMARK                            x       y       z     vdW  Elec       q    Type
REMARK                         _______ _______ _______ _____ _____    ______ ____
ROOT
ATOM      1  N1  UNL     1      24.818  -8.349 -38.694  0.00  0.00    +0.000 NA
ATOM      2  H13 UNL     1      24.554  -7.483 -38.168  0.00  0.00    +0.000 HD
ENDROOT
BRANCH   1   3
ATOM      3  C9  UNL     1      24.854  -8.018 -40.146  0.00  0.00    +0.000 C 
ATOM      4  C10 UNL     1      24.641  -9.223 -41.105  0.00  0.00    +0.000 C 
ATOM      5  C11 UNL     1      24.494  -8.789 -42.592  0.00  0.00    +0.000 C 
ATOM      6  C13 UNL     1      23.284  -7.785 -42.747  0.00  0.00    +0.000 C 
ATOM      7  C14 UNL     1      22.784  -7.161 -41.412  0.00  0.00    +0.000 C 
ATOM      8  C15 UNL     1      23.963  -6.785 -40.501  0.00  0.00    +0.000 C 
BRANCH   5   9
ATOM      9  O1  UNL     1      24.233  -9.934 -43.377  0.00  0.00    +0.000 OA
ATOM     10  H17 UNL     1      23.249 -10.025 -43.483  0.00  0.00    +0.000 HD
ENDBRANCH   5   9
BRANCH   6  11
ATOM     11  O3  UNL     1      22.200  -8.388 -43.415  0.00  0.00    +0.000 OA
ATOM     12  H22 UNL     1      22.551  -8.782 -44.256  0.00  0.00    +0.000 HD
ENDBRANCH   6  11
BRANCH   7  13
ATOM     13  O4  UNL     1      22.022  -6.013 -41.681  0.00  0.00    +0.000 OA
ATOM     14  H24 UNL     1      21.254  -6.024 -41.050  0.00  0.00    +0.000 HD
ENDBRANCH   7  13
BRANCH   8  15
ATOM     15  O5  UNL     1      23.479  -6.148 -39.347  0.00  0.00    +0.000 OA
ATOM     16  H26 UNL     1      22.661  -6.639 -39.072  0.00  0.00    +0.000 HD
ENDBRANCH   8  15
BRANCH   5  17
ATOM     17  C12 UNL     1      25.797  -8.127 -43.127  0.00  0.00    +0.000 C 
BRANCH  17  18
ATOM     18  O2  UNL     1      26.875  -9.027 -43.118  0.00  0.00    +0.000 OA
ATOM     19  H20 UNL     1      26.548  -9.878 -43.509  0.00  0.00    +0.000 HD
ENDBRANCH  17  18
ENDBRANCH   5  17
ENDBRANCH   1   3
BRANCH   1  20
ATOM     20  C8  UNL     1      26.042  -8.879 -38.062  0.00  0.00    +0.000 C 
BRANCH  20  23
ATOM     21  C5  UNL     1      24.900  -8.200 -34.472  0.00  0.00    +0.000 A 
ATOM     22  C6  UNL     1      24.895  -8.472 -35.856  0.00  0.00    +0.000 A 
ATOM     23  C7  UNL     1      26.079  -8.609 -36.577  0.00  0.00    +0.000 A 
ATOM     24  C16 UNL     1      27.302  -8.534 -35.916  0.00  0.00    +0.000 A 
ATOM     25  C17 UNL     1      27.394  -8.237 -34.537  0.00  0.00    +0.000 A 
ATOM     26  C22 UNL     1      26.162  -8.142 -33.807  0.00  0.00    +0.000 A 
BRANCH  21  28
ATOM     27  C1  UNL     1      22.362  -8.062 -34.672  0.00  0.00    +0.000 C 
ATOM     28  C2  UNL     1      23.563  -7.995 -33.699  0.00  0.00    +0.000 C 
ATOM     29  C3  UNL     1      23.478  -6.622 -32.980  0.00  0.00    +0.000 C 
ATOM     30  C4  UNL     1      23.417  -9.074 -32.600  0.00  0.00    +0.000 C 
ENDBRANCH  21  28
BRANCH  25  31
ATOM     31  C18 UNL     1      28.798  -8.016 -33.887  0.00  0.00    +0.000 C 
ATOM     32  C19 UNL     1      28.847  -6.689 -33.083  0.00  0.00    +0.000 C 
ATOM     33  C20 UNL     1      29.161  -9.218 -32.987  0.00  0.00    +0.000 C 
ATOM     34  C21 UNL     1      29.933  -7.898 -34.945  0.00  0.00    +0.000 C 
ENDBRANCH  25  31
BRANCH  26  35
ATOM     35  O6  UNL     1      26.148  -8.008 -32.420  0.00  0.00    +0.000 OA
ATOM     36  H37 UNL     1      25.652  -8.625 -31.798  0.00  0.00    +0.000 HD
ENDBRANCH  26  35
ENDBRANCH  20  23
ENDBRANCH   1  20
TORSDOF 12
ENDMDL
MODEL 5
REMARK VINA RESULT:    -5.370      2.075      6.931
REMARK INTER + INTRA:          -8.755
REMARK INTER:                  -8.453
REMARK INTRA:                  -0.302
REMARK UNBOUND:                -0.560
REMARK  Name = resultss/4CJN/ligands/lig_79_t0.pdb
REMARK  18 active torsions:
REMARK  status: ('A' for Active; 'I' for Inactive)
REMARK    1  A    between atoms: C1_1  and  C2_2
REMARK    2  A    between atoms: C2_2  and  C3_3
REMARK    3  A    between atoms: C2_2  and  C4_4
REMARK    4  A    between atoms: C2_2  and  C5_5
REMARK    5  A    between atoms: C7_7  and  C8_8
REMARK    6  A    between atoms: C8_8  and  N1_9
REMARK    7  A    between atoms: N1_9  and  C9_10
REMARK    8  A    between atoms: C11_12  and  O1_13
REMARK    9  A    between atoms: C11_12  and  C12_14
REMARK   10  A    between atoms: C12_14  and  O2_15
REMARK   11  A    between atoms: C13_16  and  O3_17
REMARK   12  A    between atoms: C14_18  and  O4_19
REMARK   13  A    between atoms: C15_20  and  O5_21
REMARK   14  A    between atoms: C17_23  and  C18_24
REMARK   15  A    between atoms: C18_24  and  C19_25
REMARK   16  A    between atoms: C18_24  and  C20_26
REMARK   17  A    between atoms: C18_24  and  C21_27
REMARK   18  A    between atoms: C22_28  and  O6_29
REMARK                            x       y       z     vdW  Elec       q    Type
REMARK                         _______ _______ _______ _____ _____    ______ ____
ROOT
ATOM      1  N1  UNL     1      25.540  -7.172 -38.829  0.00  0.00    +0.000 NA
ATOM      2  H13 UNL     1      24.882  -6.590 -39.399  0.00  0.00    +0.000 HD
ENDROOT
BRANCH   1   3
ATOM      3  C9  UNL     1      26.400  -7.952 -39.764  0.00  0.00    +0.000 C 
ATOM      4  C10 UNL     1      27.601  -8.683 -39.103  0.00  0.00    +0.000 C 
ATOM      5  C11 UNL     1      28.343  -9.633 -40.087  0.00  0.00    +0.000 C 
ATOM      6  C13 UNL     1      27.338 -10.707 -40.665  0.00  0.00    +0.000 C 
ATOM      7  C14 UNL     1      25.834 -10.363 -40.462  0.00  0.00    +0.000 C 
ATOM      8  C15 UNL     1      25.569  -8.871 -40.715  0.00  0.00    +0.000 C 
BRANCH   5   9
ATOM      9  O1  UNL     1      29.368 -10.305 -39.387  0.00  0.00    +0.000 OA
ATOM     10  H17 UNL     1      29.922  -9.629 -38.913  0.00  0.00    +0.000 HD
ENDBRANCH   5   9
BRANCH   6  11
ATOM     11  O3  UNL     1      27.599 -11.988 -40.139  0.00  0.00    +0.000 OA
ATOM     12  H22 UNL     1      28.243 -12.434 -40.749  0.00  0.00    +0.000 HD
ENDBRANCH   6  11
BRANCH   7  13
ATOM     13  O4  UNL     1      25.050 -11.129 -41.340  0.00  0.00    +0.000 OA
ATOM     14  H24 UNL     1      24.175 -11.273 -40.891  0.00  0.00    +0.000 HD
ENDBRANCH   7  13
BRANCH   8  15
ATOM     15  O5  UNL     1      24.192  -8.615 -40.608  0.00  0.00    +0.000 OA
ATOM     16  H26 UNL     1      23.748  -9.135 -41.328  0.00  0.00    +0.000 HD
ENDBRANCH   8  15
BRANCH   5  17
ATOM     17  C12 UNL     1      28.999  -8.845 -41.258  0.00  0.00    +0.000 C 
BRANCH  17  18
ATOM     18  O2  UNL     1      28.716  -9.434 -42.501  0.00  0.00    +0.000 OA
ATOM     19  H20 UNL     1      29.172 -10.315 -42.516  0.00  0.00    +0.000 HD
ENDBRANCH  17  18
ENDBRANCH   5  17
ENDBRANCH   1   3
BRANCH   1  20
ATOM     20  C8  UNL     1      26.191  -6.263 -37.865  0.00  0.00    +0.000 C 
BRANCH  20  23
ATOM     21  C5  UNL     1      27.340  -7.680 -34.500  0.00  0.00    +0.000 A 
ATOM     22  C6  UNL     1      27.341  -7.151 -35.808  0.00  0.00    +0.000 A 
ATOM     23  C7  UNL     1      26.159  -6.807 -36.458  0.00  0.00    +0.000 A 
ATOM     24  C16 UNL     1      24.943  -6.932 -35.790  0.00  0.00    +0.000 A 
ATOM     25  C17 UNL     1      24.853  -7.480 -34.490  0.00  0.00    +0.000 A 
ATOM     26  C22 UNL     1      26.086  -7.786 -33.825  0.00  0.00    +0.000 A 
BRANCH  21  28
ATOM     27  C1  UNL     1      28.778  -9.651 -33.765  0.00  0.00    +0.000 C 
ATOM     28  C2  UNL     1      28.672  -8.109 -33.815  0.00  0.00    +0.000 C 
ATOM     29  C3  UNL     1      28.796  -7.606 -32.352  0.00  0.00    +0.000 C 
ATOM     30  C4  UNL     1      29.876  -7.518 -34.584  0.00  0.00    +0.000 C 
ENDBRANCH  21  28
BRANCH  25  31
ATOM     31  C18 UNL     1      23.447  -7.734 -33.857  0.00  0.00    +0.000 C 
ATOM     32  C19 UNL     1      23.071  -6.618 -32.845  0.00  0.00    +0.000 C 
ATOM     33  C20 UNL     1      22.378  -7.852 -34.966  0.00  0.00    +0.000 C 
ATOM     34  C21 UNL     1      23.389  -9.061 -33.045  0.00  0.00    +0.000 C 
ENDBRANCH  25  31
BRANCH  26  35
ATOM     35  O6  UNL     1      26.111  -8.181 -32.488  0.00  0.00    +0.000 OA
ATOM     36  H37 UNL     1      26.330  -7.566 -31.722  0.00  0.00    +0.000 HD
ENDBRANCH  26  35
ENDBRANCH  20  23
ENDBRANCH   1  20
TORSDOF 12
ENDMDL
MODEL 6
REMARK VINA RESULT:    -5.313      1.991      7.589
REMARK INTER + INTRA:          -8.669
REMARK INTER:                  -8.301
REMARK INTRA:                  -0.368
REMARK UNBOUND:                -0.560
REMARK  Name = resultss/4CJN/ligands/lig_79_t0.pdb
REMARK  18 active torsions:
REMARK  status: ('A' for Active; 'I' for Inactive)
REMARK    1  A    between atoms: C1_1  and  C2_2
REMARK    2  A    between atoms: C2_2  and  C3_3
REMARK    3  A    between atoms: C2_2  and  C4_4
REMARK    4  A    between atoms: C2_2  and  C5_5
REMARK    5  A    between atoms: C7_7  and  C8_8
REMARK    6  A    between atoms: C8_8  and  N1_9
REMARK    7  A    between atoms: N1_9  and  C9_10
REMARK    8  A    between atoms: C11_12  and  O1_13
REMARK    9  A    between atoms: C11_12  and  C12_14
REMARK   10  A    between atoms: C12_14  and  O2_15
REMARK   11  A    between atoms: C13_16  and  O3_17
REMARK   12  A    between atoms: C14_18  and  O4_19
REMARK   13  A    between atoms: C15_20  and  O5_21
REMARK   14  A    between atoms: C17_23  and  C18_24
REMARK   15  A    between atoms: C18_24  and  C19_25
REMARK   16  A    between atoms: C18_24  and  C20_26
REMARK   17  A    between atoms: C18_24  and  C21_27
REMARK   18  A    between atoms: C22_28  and  O6_29
REMARK                            x       y       z     vdW  Elec       q    Type
REMARK                         _______ _______ _______ _____ _____    ______ ____
ROOT
ATOM      1  N1  UNL     1      25.729  -7.120 -38.929  0.00  0.00    +0.000 NA
ATOM      2  H13 UNL     1      25.184  -6.424 -39.492  0.00  0.00    +0.000 HD
ENDROOT
BRANCH   1   3
ATOM      3  C9  UNL     1      26.532  -7.951 -39.869  0.00  0.00    +0.000 C 
ATOM      4  C10 UNL     1      27.752  -8.675 -39.234  0.00  0.00    +0.000 C 
ATOM      5  C11 UNL     1      28.432  -9.677 -40.211  0.00  0.00    +0.000 C 
ATOM      6  C13 UNL     1      27.386 -10.757 -40.696  0.00  0.00    +0.000 C 
ATOM      7  C14 UNL     1      25.899 -10.379 -40.439  0.00  0.00    +0.000 C 
ATOM      8  C15 UNL     1      25.644  -8.895 -40.743  0.00  0.00    +0.000 C 
BRANCH   5   9
ATOM      9  O1  UNL     1      29.479 -10.337 -39.531  0.00  0.00    +0.000 OA
ATOM     10  H17 UNL     1      29.141 -10.637 -38.646  0.00  0.00    +0.000 HD
ENDBRANCH   5   9
BRANCH   6  11
ATOM     11  O3  UNL     1      27.652 -12.019 -40.130  0.00  0.00    +0.000 OA
ATOM     12  H22 UNL     1      28.358 -11.895 -39.444  0.00  0.00    +0.000 HD
ENDBRANCH   6  11
BRANCH   7  13
ATOM     13  O4  UNL     1      25.062 -11.166 -41.248  0.00  0.00    +0.000 OA
ATOM     14  H24 UNL     1      25.509 -11.244 -42.133  0.00  0.00    +0.000 HD
ENDBRANCH   7  13
BRANCH   8  15
ATOM     15  O5  UNL     1      24.278  -8.611 -40.583  0.00  0.00    +0.000 OA
ATOM     16  H26 UNL     1      24.009  -8.057 -41.362  0.00  0.00    +0.000 HD
ENDBRANCH   8  15
BRANCH   5  17
ATOM     17  C12 UNL     1      29.045  -8.949 -41.443  0.00  0.00    +0.000 C 
BRANCH  17  18
ATOM     18  O2  UNL     1      28.624  -9.530 -42.649  0.00  0.00    +0.000 OA
ATOM     19  H20 UNL     1      28.254 -10.424 -42.429  0.00  0.00    +0.000 HD
ENDBRANCH  17  18
ENDBRANCH   5  17
ENDBRANCH   1   3
BRANCH   1  20
ATOM     20  C8  UNL     1      26.437  -6.361 -37.879  0.00  0.00    +0.000 C 
BRANCH  20  23
ATOM     21  C5  UNL     1      24.605  -7.500 -34.718  0.00  0.00    +0.000 A 
ATOM     22  C6  UNL     1      24.876  -7.003 -36.009  0.00  0.00    +0.000 A 
ATOM     23  C7  UNL     1      26.176  -6.918 -36.501  0.00  0.00    +0.000 A 
ATOM     24  C16 UNL     1      27.238  -7.384 -35.729  0.00  0.00    +0.000 A 
ATOM     25  C17 UNL     1      27.053  -7.871 -34.414  0.00  0.00    +0.000 A 
ATOM     26  C22 UNL     1      25.702  -7.989 -33.946  0.00  0.00    +0.000 A 
BRANCH  21  28
ATOM     27  C1  UNL     1      23.014  -6.605 -32.938  0.00  0.00    +0.000 C 
ATOM     28  C2  UNL     1      23.147  -7.533 -34.169  0.00  0.00    +0.000 C 
ATOM     29  C3  UNL     1      22.698  -8.947 -33.711  0.00  0.00    +0.000 C 
ATOM     30  C4  UNL     1      22.156  -7.095 -35.273  0.00  0.00    +0.000 C 
ENDBRANCH  21  28
BRANCH  25  31
ATOM     31  C18 UNL     1      28.300  -8.237 -33.546  0.00  0.00    +0.000 C 
ATOM     32  C19 UNL     1      28.075  -7.878 -32.053  0.00  0.00    +0.000 C 
ATOM     33  C20 UNL     1      28.637  -9.736 -33.706  0.00  0.00    +0.000 C 
ATOM     34  C21 UNL     1      29.575  -7.451 -33.971  0.00  0.00    +0.000 C 
ENDBRANCH  25  31
BRANCH  26  35
ATOM     35  O6  UNL     1      25.407  -8.601 -32.730  0.00  0.00    +0.000 OA
ATOM     36  H37 UNL     1      24.837  -8.186 -32.012  0.00  0.00    +0.000 HD
ENDBRANCH  26  35
ENDBRANCH  20  23
ENDBRANCH   1  20
TORSDOF 12
ENDMDL
MODEL 7
REMARK VINA RESULT:    -5.303      1.721      3.986
REMARK INTER + INTRA:          -8.653
REMARK INTER:                  -8.604
REMARK INTRA:                  -0.050
REMARK UNBOUND:                -0.560
REMARK  Name = resultss/4CJN/ligands/lig_79_t0.pdb
REMARK  18 active torsions:
REMARK  status: ('A' for Active; 'I' for Inactive)
REMARK    1  A    between atoms: C1_1  and  C2_2
REMARK    2  A    between atoms: C2_2  and  C3_3
REMARK    3  A    between atoms: C2_2  and  C4_4
REMARK    4  A    between atoms: C2_2  and  C5_5
REMARK    5  A    between atoms: C7_7  and  C8_8
REMARK    6  A    between atoms: C8_8  and  N1_9
REMARK    7  A    between atoms: N1_9  and  C9_10
REMARK    8  A    between atoms: C11_12  and  O1_13
REMARK    9  A    between atoms: C11_12  and  C12_14
REMARK   10  A    between atoms: C12_14  and  O2_15
REMARK   11  A    between atoms: C13_16  and  O3_17
REMARK   12  A    between atoms: C14_18  and  O4_19
REMARK   13  A    between atoms: C15_20  and  O5_21
REMARK   14  A    between atoms: C17_23  and  C18_24
REMARK   15  A    between atoms: C18_24  and  C19_25
REMARK   16  A    between atoms: C18_24  and  C20_26
REMARK   17  A    between atoms: C18_24  and  C21_27
REMARK   18  A    between atoms: C22_28  and  O6_29
REMARK                            x       y       z     vdW  Elec       q    Type
REMARK                         _______ _______ _______ _____ _____    ______ ____
ROOT
ATOM      1  N1  UNL     1      28.123  -7.834 -36.860  0.00  0.00    +0.000 NA
ATOM      2  H13 UNL     1      28.982  -7.241 -36.952  0.00  0.00    +0.000 HD
ENDROOT
BRANCH   1   3
ATOM      3  C9  UNL     1      27.875  -8.072 -35.411  0.00  0.00    +0.000 C 
ATOM      4  C10 UNL     1      27.110  -6.936 -34.676  0.00  0.00    +0.000 C 
ATOM      5  C11 UNL     1      26.710  -7.323 -33.223  0.00  0.00    +0.000 C 
ATOM      6  C13 UNL     1      25.815  -8.625 -33.235  0.00  0.00    +0.000 C 
ATOM      7  C14 UNL     1      25.858  -9.428 -34.567  0.00  0.00    +0.000 C 
ATOM      8  C15 UNL     1      27.286  -9.492 -35.129  0.00  0.00    +0.000 C 
BRANCH   5   9
ATOM      9  O1  UNL     1      25.961  -6.266 -32.660  0.00  0.00    +0.000 OA
ATOM     10  H17 UNL     1      25.092  -6.630 -32.342  0.00  0.00    +0.000 HD
ENDBRANCH   5   9
BRANCH   6  11
ATOM     11  O3  UNL     1      24.476  -8.330 -32.911  0.00  0.00    +0.000 OA
ATOM     12  H22 UNL     1      24.405  -8.319 -31.921  0.00  0.00    +0.000 HD
ENDBRANCH   6  11
BRANCH   7  13
ATOM     13  O4  UNL     1      25.388 -10.734 -34.349  0.00  0.00    +0.000 OA
ATOM     14  H24 UNL     1      25.366 -11.183 -35.235  0.00  0.00    +0.000 HD
ENDBRANCH   7  13
BRANCH   8  15
ATOM     15  O5  UNL     1      27.302 -10.294 -36.281  0.00  0.00    +0.000 OA
ATOM     16  H26 UNL     1      27.804 -11.119 -36.048  0.00  0.00    +0.000 HD
ENDBRANCH   8  15
BRANCH   5  17
ATOM     17  C12 UNL     1      27.962  -7.555 -32.327  0.00  0.00    +0.000 C 
BRANCH  17  18
ATOM     18  O2  UNL     1      27.610  -7.691 -30.974  0.00  0.00    +0.000 OA
ATOM     19  H20 UNL     1      28.286  -7.193 -30.446  0.00  0.00    +0.000 HD
ENDBRANCH  17  18
ENDBRANCH   5  17
ENDBRANCH   1   3
BRANCH   1  20
ATOM     20  C8  UNL     1      27.065  -7.184 -37.658  0.00  0.00    +0.000 C 
BRANCH  20  23
ATOM     21  C5  UNL     1      25.837  -7.992 -41.192  0.00  0.00    +0.000 A 
ATOM     22  C6  UNL     1      25.897  -7.519 -39.865  0.00  0.00    +0.000 A 
ATOM     23  C7  UNL     1      27.038  -7.682 -39.083  0.00  0.00    +0.000 A 
ATOM     24  C16 UNL     1      28.173  -8.275 -39.632  0.00  0.00    +0.000 A 
ATOM     25  C17 UNL     1      28.185  -8.800 -40.945  0.00  0.00    +0.000 A 
ATOM     26  C22 UNL     1      27.014  -8.582 -41.745  0.00  0.00    +0.000 A 
BRANCH  21  28
ATOM     27  C1  UNL     1      24.006  -9.241 -42.451  0.00  0.00    +0.000 C 
ATOM     28  C2  UNL     1      24.530  -7.848 -42.028  0.00  0.00    +0.000 C 
ATOM     29  C3  UNL     1      24.727  -7.031 -43.333  0.00  0.00    +0.000 C 
ATOM     30  C4  UNL     1      23.454  -7.104 -41.203  0.00  0.00    +0.000 C 
ENDBRANCH  21  28
BRANCH  25  31
ATOM     31  C18 UNL     1      29.437  -9.587 -41.448  0.00  0.00    +0.000 C 
ATOM     32  C19 UNL     1      30.712  -9.188 -40.656  0.00  0.00    +0.000 C 
ATOM     33  C20 UNL     1      29.183 -11.108 -41.350  0.00  0.00    +0.000 C 
ATOM     34  C21 UNL     1      29.770  -9.290 -42.939  0.00  0.00    +0.000 C 
ENDBRANCH  25  31
BRANCH  26  35
ATOM     35  O6  UNL     1      26.985  -8.922 -43.096  0.00  0.00    +0.000 OA
ATOM     36  H37 UNL     1      26.326  -8.548 -43.758  0.00  0.00    +0.000 HD
ENDBRANCH  26  35
ENDBRANCH  20  23
ENDBRANCH   1  20
TORSDOF 12
ENDMDL
MODEL 8
REMARK VINA RESULT:    -5.282      2.502      7.310
REMARK INTER + INTRA:          -8.621
REMARK INTER:                  -8.065
REMARK INTRA:                  -0.556
REMARK UNBOUND:                -0.560
REMARK  Name = resultss/4CJN/ligands/lig_79_t0.pdb
REMARK  18 active torsions:
REMARK  status: ('A' for Active; 'I' for Inactive)
REMARK    1  A    between atoms: C1_1  and  C2_2
REMARK    2  A    between atoms: C2_2  and  C3_3
REMARK    3  A    between atoms: C2_2  and  C4_4
REMARK    4  A    between atoms: C2_2  and  C5_5
REMARK    5  A    between atoms: C7_7  and  C8_8
REMARK    6  A    between atoms: C8_8  and  N1_9
REMARK    7  A    between atoms: N1_9  and  C9_10
REMARK    8  A    between atoms: C11_12  and  O1_13
REMARK    9  A    between atoms: C11_12  and  C12_14
REMARK   10  A    between atoms: C12_14  and  O2_15
REMARK   11  A    between atoms: C13_16  and  O3_17
REMARK   12  A    between atoms: C14_18  and  O4_19
REMARK   13  A    between atoms: C15_20  and  O5_21
REMARK   14  A    between atoms: C17_23  and  C18_24
REMARK   15  A    between atoms: C18_24  and  C19_25
REMARK   16  A    between atoms: C18_24  and  C20_26
REMARK   17  A    between atoms: C18_24  and  C21_27
REMARK   18  A    between atoms: C22_28  and  O6_29
REMARK                            x       y       z     vdW  Elec       q    Type
REMARK                         _______ _______ _______ _____ _____    ______ ____
ROOT
ATOM      1  N1  UNL     1      25.592  -9.723 -39.617  0.00  0.00    +0.000 NA
ATOM      2  H13 UNL     1      24.771 -10.218 -40.038  0.00  0.00    +0.000 HD
ENDROOT
BRANCH   1   3
ATOM      3  C9  UNL     1      26.621  -9.541 -40.679  0.00  0.00    +0.000 C 
ATOM      4  C10 UNL     1      26.972  -8.065 -41.013  0.00  0.00    +0.000 C 
ATOM      5  C11 UNL     1      28.183  -7.939 -41.981  0.00  0.00    +0.000 C 
ATOM      6  C13 UNL     1      29.452  -8.642 -41.356  0.00  0.00    +0.000 C 
ATOM      7  C14 UNL     1      29.143  -9.604 -40.172  0.00  0.00    +0.000 C 
ATOM      8  C15 UNL     1      27.881 -10.436 -40.450  0.00  0.00    +0.000 C 
BRANCH   5   9
ATOM      9  O1  UNL     1      28.474  -6.570 -42.172  0.00  0.00    +0.000 OA
ATOM     10  H17 UNL     1      28.464  -6.119 -41.286  0.00  0.00    +0.000 HD
ENDBRANCH   5   9
BRANCH   6  11
ATOM     11  O3  UNL     1      30.415  -7.697 -40.950  0.00  0.00    +0.000 OA
ATOM     12  H22 UNL     1      30.029  -6.795 -41.104  0.00  0.00    +0.000 HD
ENDBRANCH   6  11
BRANCH   7  13
ATOM     13  O4  UNL     1      30.231 -10.468 -39.966  0.00  0.00    +0.000 OA
ATOM     14  H24 UNL     1      30.728 -10.513 -40.825  0.00  0.00    +0.000 HD
ENDBRANCH   7  13
BRANCH   8  15
ATOM     15  O5  UNL     1      27.682 -11.350 -39.403  0.00  0.00    +0.000 OA
ATOM     16  H26 UNL     1      27.735 -12.257 -39.803  0.00  0.00    +0.000 HD
ENDBRANCH   8  15
BRANCH   5  17
ATOM     17  C12 UNL     1      27.871  -8.561 -43.374  0.00  0.00    +0.000 C 
BRANCH  17  18
ATOM     18  O2  UNL     1      26.637  -8.114 -43.874  0.00  0.00    +0.000 OA
ATOM     19  H20 UNL     1      26.802  -7.768 -44.789  0.00  0.00    +0.000 HD
ENDBRANCH  17  18
ENDBRANCH   5  17
ENDBRANCH   1   3
BRANCH   1  20
ATOM     20  C8  UNL     1      25.065  -8.525 -38.934  0.00  0.00    +0.000 C 
BRANCH  20  23
ATOM     21  C5  UNL     1      27.170  -8.708 -35.742  0.00  0.00    +0.000 A 
ATOM     22  C6  UNL     1      26.777  -8.725 -37.097  0.00  0.00    +0.000 A 
ATOM     23  C7  UNL     1      25.460  -8.479 -37.477  0.00  0.00    +0.000 A 
ATOM     24  C16 UNL     1      24.511  -8.154 -36.511  0.00  0.00    +0.000 A 
ATOM     25  C17 UNL     1      24.818  -8.143 -35.131  0.00  0.00    +0.000 A 
ATOM     26  C22 UNL     1      26.189  -8.357 -34.766  0.00  0.00    +0.000 A 
BRANCH  21  28
ATOM     27  C1  UNL     1      29.343  -9.826 -36.467  0.00  0.00    +0.000 C 
ATOM     28  C2  UNL     1      28.637  -9.041 -35.337  0.00  0.00    +0.000 C 
ATOM     29  C3  UNL     1      28.734  -9.917 -34.059  0.00  0.00    +0.000 C 
ATOM     30  C4  UNL     1      29.411  -7.737 -35.034  0.00  0.00    +0.000 C 
ENDBRANCH  21  28
BRANCH  25  31
ATOM     31  C18 UNL     1      23.675  -7.919 -34.090  0.00  0.00    +0.000 C 
ATOM     32  C19 UNL     1      23.866  -6.586 -33.317  0.00  0.00    +0.000 C 
ATOM     33  C20 UNL     1      22.300  -7.954 -34.795  0.00  0.00    +0.000 C 
ATOM     34  C21 UNL     1      23.638  -9.027 -32.996  0.00  0.00    +0.000 C 
ENDBRANCH  25  31
BRANCH  26  35
ATOM     35  O6  UNL     1      26.620  -8.211 -33.449  0.00  0.00    +0.000 OA
ATOM     36  H37 UNL     1      26.466  -8.895 -32.726  0.00  0.00    +0.000 HD
ENDBRANCH  26  35
ENDBRANCH  20  23
ENDBRANCH   1  20
TORSDOF 12
ENDMDL
MODEL 9
REMARK VINA RESULT:    -5.242      2.670      7.939
REMARK INTER + INTRA:          -8.561
REMARK INTER:                  -7.908
REMARK INTRA:                  -0.653
REMARK UNBOUND:                -0.560
REMARK  Name = resultss/4CJN/ligands/lig_79_t0.pdb
REMARK  18 active torsions:
REMARK  status: ('A' for Active; 'I' for Inactive)
REMARK    1  A    between atoms: C1_1  and  C2_2
REMARK    2  A    between atoms: C2_2  and  C3_3
REMARK    3  A    between atoms: C2_2  and  C4_4
REMARK    4  A    between atoms: C2_2  and  C5_5
REMARK    5  A    between atoms: C7_7  and  C8_8
REMARK    6  A    between atoms: C8_8  and  N1_9
REMARK    7  A    between atoms: N1_9  and  C9_10
REMARK    8  A    between atoms: C11_12  and  O1_13
REMARK    9  A    between atoms: C11_12  and  C12_14
REMARK   10  A    between atoms: C12_14  and  O2_15
REMARK   11  A    between atoms: C13_16  and  O3_17
REMARK   12  A    between atoms: C14_18  and  O4_19
REMARK   13  A    between atoms: C15_20  and  O5_21
REMARK   14  A    between atoms: C17_23  and  C18_24
REMARK   15  A    between atoms: C18_24  and  C19_25
REMARK   16  A    between atoms: C18_24  and  C20_26
REMARK   17  A    between atoms: C18_24  and  C21_27
REMARK   18  A    between atoms: C22_28  and  O6_29
REMARK                            x       y       z     vdW  Elec       q    Type
REMARK                         _______ _______ _______ _____ _____    ______ ____
ROOT
ATOM      1  N1  UNL     1      25.979  -9.622 -39.046  0.00  0.00    +0.000 NA
ATOM      2  H13 UNL     1      25.134  -9.974 -39.555  0.00  0.00    +0.000 HD
ENDROOT
BRANCH   1   3
ATOM      3  C9  UNL     1      27.145  -9.702 -39.970  0.00  0.00    +0.000 C 
ATOM      4  C10 UNL     1      27.581  -8.350 -40.602  0.00  0.00    +0.000 C 
ATOM      5  C11 UNL     1      28.914  -8.460 -41.397  0.00  0.00    +0.000 C 
ATOM      6  C13 UNL     1      30.067  -8.986 -40.453  0.00  0.00    +0.000 C 
ATOM      7  C14 UNL     1      29.575  -9.630 -39.125  0.00  0.00    +0.000 C 
ATOM      8  C15 UNL     1      28.337 -10.509 -39.362  0.00  0.00    +0.000 C 
BRANCH   5   9
ATOM      9  O1  UNL     1      29.269  -7.179 -41.872  0.00  0.00    +0.000 OA
ATOM     10  H17 UNL     1      28.754  -6.997 -42.703  0.00  0.00    +0.000 HD
ENDBRANCH   5   9
BRANCH   6  11
ATOM     11  O3  UNL     1      30.995  -7.967 -40.161  0.00  0.00    +0.000 OA
ATOM     12  H22 UNL     1      30.487  -7.200 -39.787  0.00  0.00    +0.000 HD
ENDBRANCH   6  11
BRANCH   7  13
ATOM     13  O4  UNL     1      30.599 -10.414 -38.569  0.00  0.00    +0.000 OA
ATOM     14  H24 UNL     1      30.636 -10.193 -37.601  0.00  0.00    +0.000 HD
ENDBRANCH   7  13
BRANCH   8  15
ATOM     15  O5  UNL     1      27.973 -11.140 -38.162  0.00  0.00    +0.000 OA
ATOM     16  H26 UNL     1      28.759 -11.672 -37.869  0.00  0.00    +0.000 HD
ENDBRANCH   8  15
BRANCH   5  17
ATOM     17  C12 UNL     1      28.771  -9.405 -42.626  0.00  0.00    +0.000 C 
BRANCH  17  18
ATOM     18  O2  UNL     1      29.761 -10.400 -42.632  0.00  0.00    +0.000 OA
ATOM     19  H20 UNL     1      29.419 -11.150 -43.184  0.00  0.00    +0.000 HD
ENDBRANCH  17  18
ENDBRANCH   5  17
ENDBRANCH   1   3
BRANCH   1  20
ATOM     20  C8  UNL     1      25.620  -8.308 -38.476  0.00  0.00    +0.000 C 
BRANCH  20  23
ATOM     21  C5  UNL     1      24.757  -8.111 -34.753  0.00  0.00    +0.000 A 
ATOM     22  C6  UNL     1      24.647  -8.161 -36.158  0.00  0.00    +0.000 A 
ATOM     23  C7  UNL     1      25.768  -8.279 -36.974  0.00  0.00    +0.000 A 
ATOM     24  C16 UNL     1      27.030  -8.408 -36.399  0.00  0.00    +0.000 A 
ATOM     25  C17 UNL     1      27.229  -8.340 -35.001  0.00  0.00    +0.000 A 
ATOM     26  C22 UNL     1      26.055  -8.261 -34.179  0.00  0.00    +0.000 A 
BRANCH  21  28
ATOM     27  C1  UNL     1      22.220  -7.852 -34.743  0.00  0.00    +0.000 C 
ATOM     28  C2  UNL     1      23.491  -7.922 -33.863  0.00  0.00    +0.000 C 
ATOM     29  C3  UNL     1      23.525  -6.616 -33.024  0.00  0.00    +0.000 C 
ATOM     30  C4  UNL     1      23.376  -9.088 -32.854  0.00  0.00    +0.000 C 
ENDBRANCH  21  28
BRANCH  25  31
ATOM     31  C18 UNL     1      28.682  -8.339 -34.428  0.00  0.00    +0.000 C 
ATOM     32  C19 UNL     1      28.931  -7.108 -33.516  0.00  0.00    +0.000 C 
ATOM     33  C20 UNL     1      28.952  -9.654 -33.662  0.00  0.00    +0.000 C 
ATOM     34  C21 UNL     1      29.764  -8.249 -35.544  0.00  0.00    +0.000 C 
ENDBRANCH  25  31
BRANCH  26  35
ATOM     35  O6  UNL     1      26.135  -8.346 -32.791  0.00  0.00    +0.000 OA
ATOM     36  H37 UNL     1      26.999  -8.397 -32.277  0.00  0.00    +0.000 HD
ENDBRANCH  26  35
ENDBRANCH  20  23
ENDBRANCH   1  20
TORSDOF 12
ENDMDL
