MODEL 1
REMARK VINA RESULT:    -6.229      0.000      0.000
REMARK INTER + INTRA:          -7.632
REMARK INTER:                  -7.686
REMARK INTRA:                   0.054
REMARK UNBOUND:                 0.054
REMARK  Name = resultss/4CJN/ligands/lig_365_t2.pdb
REMARK  5 active torsions:
REMARK  status: ('A' for Active; 'I' for Inactive)
REMARK    1  A    between atoms: O1_1  and  C1_2
REMARK    2  A    between atoms: C9_13  and  C10_14
REMARK    3  A    between atoms: C10_14  and  C11_15
REMARK    4  A    between atoms: C10_14  and  C17_23
REMARK    5  A    between atoms: C18_24  and  O4_25
REMARK                            x       y       z     vdW  Elec       q    Type
REMARK                         _______ _______ _______ _____ _____    ______ ____
ROOT
ATOM      1  C10 UNL     1      28.193  -7.782 -35.451  0.00  0.00    +0.000 C 
ENDROOT
BRANCH   1  13
ATOM      2  C1  UNL     1      27.054  -9.641 -36.869  0.00  0.00    +0.000 A 
ATOM      3  O2  UNL     1      27.004 -10.381 -37.972  0.00  0.00    +0.000 OA
ATOM      4  C2  UNL     1      27.889 -10.282 -38.954  0.00  0.00    +0.000 A 
ATOM      5  C3  UNL     1      27.761 -11.097 -40.084  0.00  0.00    +0.000 A 
ATOM      6  C4  UNL     1      28.693 -11.009 -41.122  0.00  0.00    +0.000 A 
ATOM      7  C5  UNL     1      29.757 -10.107 -41.036  0.00  0.00    +0.000 A 
ATOM      8 CL1  UNL     1      30.924 -10.002 -42.342  0.00  0.00    +0.000 Cl
ATOM      9  C6  UNL     1      29.893  -9.287 -39.911  0.00  0.00    +0.000 A 
ATOM     10  C7  UNL     1      28.958  -9.367 -38.860  0.00  0.00    +0.000 A 
ATOM     11  C8  UNL     1      29.050  -8.565 -37.712  0.00  0.00    +0.000 A 
ATOM     12  O3  UNL     1      30.005  -7.746 -37.592  0.00  0.00    +0.000 OA
ATOM     13  C9  UNL     1      28.076  -8.673 -36.695  0.00  0.00    +0.000 A 
BRANCH   2  14
ATOM     14  O1  UNL     1      26.091  -9.854 -35.889  0.00  0.00    +0.000 OA
ATOM     15  H1  UNL     1      25.496  -9.099 -35.572  0.00  0.00    +0.000 HD
ENDBRANCH   2  14
ENDBRANCH   1  13
BRANCH   1  16
ATOM     16  C17 UNL     1      29.187  -8.327 -34.413  0.00  0.00    +0.000 A 
ATOM     17  C18 UNL     1      30.197  -7.481 -33.900  0.00  0.00    +0.000 A 
ATOM     18  C19 UNL     1      31.114  -7.988 -32.949  0.00  0.00    +0.000 A 
ATOM     19  C20 UNL     1      32.184  -7.232 -32.421  0.00  0.00    +0.000 A 
ATOM     20  C21 UNL     1      33.054  -7.795 -31.480  0.00  0.00    +0.000 A 
ATOM     21 CL4  UNL     1      34.380  -6.845 -30.832  0.00  0.00    +0.000 Cl
ATOM     22  C22 UNL     1      32.873  -9.114 -31.057  0.00  0.00    +0.000 A 
ATOM     23  C23 UNL     1      31.824  -9.874 -31.573  0.00  0.00    +0.000 A 
ATOM     24  C24 UNL     1      30.948  -9.323 -32.513  0.00  0.00    +0.000 A 
ATOM     25  O5  UNL     1      29.959 -10.069 -32.985  0.00  0.00    +0.000 OA
ATOM     26  C25 UNL     1      29.089  -9.636 -33.885  0.00  0.00    +0.000 A 
ATOM     27  O6  UNL     1      28.166 -10.412 -34.244  0.00  0.00    +0.000 OA
BRANCH  17  28
ATOM     28  O4  UNL     1      30.247  -6.154 -34.347  0.00  0.00    +0.000 OA
ATOM     29  H9  UNL     1      29.445  -5.554 -34.469  0.00  0.00    +0.000 HD
ENDBRANCH  17  28
ENDBRANCH   1  16
BRANCH   1  30
ATOM     30  C11 UNL     1      26.853  -7.347 -34.852  0.00  0.00    +0.000 A 
ATOM     31  C12 UNL     1      26.428  -7.808 -33.586  0.00  0.00    +0.000 A 
ATOM     32  C13 UNL     1      25.194  -7.417 -33.061  0.00  0.00    +0.000 A 
ATOM     33  C14 UNL     1      24.360  -6.567 -33.785  0.00  0.00    +0.000 A 
ATOM     34 CL2  UNL     1      22.810  -6.082 -33.120  0.00  0.00    +0.000 Cl
ATOM     35  C15 UNL     1      24.755  -6.109 -35.042  0.00  0.00    +0.000 A 
ATOM     36  C16 UNL     1      25.988  -6.492 -35.582  0.00  0.00    +0.000 A 
ATOM     37 CL3  UNL     1      26.404  -5.888 -37.185  0.00  0.00    +0.000 Cl
ENDBRANCH   1  30
TORSDOF 5
ENDMDL
MODEL 2
REMARK VINA RESULT:    -6.090      3.368      5.806
REMARK INTER + INTRA:          -7.461
REMARK INTER:                  -8.338
REMARK INTRA:                   0.878
REMARK UNBOUND:                 0.054
REMARK  Name = resultss/4CJN/ligands/lig_365_t2.pdb
REMARK  5 active torsions:
REMARK  status: ('A' for Active; 'I' for Inactive)
REMARK    1  A    between atoms: O1_1  and  C1_2
REMARK    2  A    between atoms: C9_13  and  C10_14
REMARK    3  A    between atoms: C10_14  and  C11_15
REMARK    4  A    between atoms: C10_14  and  C17_23
REMARK    5  A    between atoms: C18_24  and  O4_25
REMARK                            x       y       z     vdW  Elec       q    Type
REMARK                         _______ _______ _______ _____ _____    ______ ____
ROOT
ATOM      1  C10 UNL     1      27.779  -8.795 -40.547  0.00  0.00    +0.000 C 
ENDROOT
BRANCH   1  13
ATOM      2  C1  UNL     1      28.596 -11.237 -40.914  0.00  0.00    +0.000 A 
ATOM      3  O2  UNL     1      29.402 -12.105 -41.517  0.00  0.00    +0.000 OA
ATOM      4  C2  UNL     1      30.326 -11.746 -42.397  0.00  0.00    +0.000 A 
ATOM      5  C3  UNL     1      31.132 -12.724 -42.990  0.00  0.00    +0.000 A 
ATOM      6  C4  UNL     1      32.117 -12.359 -43.912  0.00  0.00    +0.000 A 
ATOM      7  C5  UNL     1      32.302 -11.014 -44.246  0.00  0.00    +0.000 A 
ATOM      8 CL1  UNL     1      33.540 -10.561 -45.403  0.00  0.00    +0.000 Cl
ATOM      9  C6  UNL     1      31.501 -10.028 -43.658  0.00  0.00    +0.000 A 
ATOM     10  C7  UNL     1      30.505 -10.388 -42.729  0.00  0.00    +0.000 A 
ATOM     11  C8  UNL     1      29.675  -9.436 -42.116  0.00  0.00    +0.000 A 
ATOM     12  O3  UNL     1      29.820  -8.210 -42.381  0.00  0.00    +0.000 OA
ATOM     13  C9  UNL     1      28.680  -9.851 -41.203  0.00  0.00    +0.000 A 
BRANCH   2  14
ATOM     14  O1  UNL     1      27.684 -11.723 -39.982  0.00  0.00    +0.000 OA
ATOM     15  H1  UNL     1      27.401 -11.160 -39.190  0.00  0.00    +0.000 HD
ENDBRANCH   2  14
ENDBRANCH   1  13
BRANCH   1  16
ATOM     16  C17 UNL     1      27.531  -9.061 -39.055  0.00  0.00    +0.000 A 
ATOM     17  C18 UNL     1      28.617  -9.036 -38.150  0.00  0.00    +0.000 A 
ATOM     18  C19 UNL     1      28.385  -9.287 -36.776  0.00  0.00    +0.000 A 
ATOM     19  C20 UNL     1      29.414  -9.333 -35.810  0.00  0.00    +0.000 A 
ATOM     20  C21 UNL     1      29.114  -9.584 -34.465  0.00  0.00    +0.000 A 
ATOM     21 CL4  UNL     1      30.403  -9.639 -33.275  0.00  0.00    +0.000 Cl
ATOM     22  C22 UNL     1      27.793  -9.797 -34.068  0.00  0.00    +0.000 A 
ATOM     23  C23 UNL     1      26.767  -9.760 -35.011  0.00  0.00    +0.000 A 
ATOM     24  C24 UNL     1      27.053  -9.510 -36.357  0.00  0.00    +0.000 A 
ATOM     25  O5  UNL     1      26.057  -9.479 -37.231  0.00  0.00    +0.000 OA
ATOM     26  C25 UNL     1      26.233  -9.260 -38.526  0.00  0.00    +0.000 A 
ATOM     27  O6  UNL     1      25.218  -9.218 -39.268  0.00  0.00    +0.000 OA
BRANCH  17  28
ATOM     28  O4  UNL     1      29.894  -8.748 -38.647  0.00  0.00    +0.000 OA
ATOM     29  H9  UNL     1      30.479  -7.987 -38.335  0.00  0.00    +0.000 HD
ENDBRANCH  17  28
ENDBRANCH   1  16
BRANCH   1  30
ATOM     30  C11 UNL     1      26.509  -8.465 -41.335  0.00  0.00    +0.000 A 
ATOM     31  C12 UNL     1      25.893  -9.422 -42.172  0.00  0.00    +0.000 A 
ATOM     32  C13 UNL     1      24.744  -9.101 -42.899  0.00  0.00    +0.000 A 
ATOM     33  C14 UNL     1      24.192  -7.824 -42.812  0.00  0.00    +0.000 A 
ATOM     34 CL2  UNL     1      22.750  -7.427 -43.729  0.00  0.00    +0.000 Cl
ATOM     35  C15 UNL     1      24.790  -6.860 -41.999  0.00  0.00    +0.000 A 
ATOM     36  C16 UNL     1      25.942  -7.167 -41.265  0.00  0.00    +0.000 A 
ATOM     37 CL3  UNL     1      26.650  -5.888 -40.280  0.00  0.00    +0.000 Cl
ENDBRANCH   1  30
TORSDOF 5
ENDMDL
MODEL 3
REMARK VINA RESULT:    -6.046      3.702      9.706
REMARK INTER + INTRA:          -7.406
REMARK INTER:                  -8.249
REMARK INTRA:                   0.843
REMARK UNBOUND:                 0.054
REMARK  Name = resultss/4CJN/ligands/lig_365_t2.pdb
REMARK  5 active torsions:
REMARK  status: ('A' for Active; 'I' for Inactive)
REMARK    1  A    between atoms: O1_1  and  C1_2
REMARK    2  A    between atoms: C9_13  and  C10_14
REMARK    3  A    between atoms: C10_14  and  C11_15
REMARK    4  A    between atoms: C10_14  and  C17_23
REMARK    5  A    between atoms: C18_24  and  O4_25
REMARK                            x       y       z     vdW  Elec       q    Type
REMARK                         _______ _______ _______ _____ _____    ______ ____
ROOT
ATOM      1  C10 UNL     1      28.586  -8.643 -40.796  0.00  0.00    +0.000 C 
ENDROOT
BRANCH   1  13
ATOM      2  C1  UNL     1      28.010 -10.336 -38.907  0.00  0.00    +0.000 A 
ATOM      3  O2  UNL     1      27.665 -10.584 -37.648  0.00  0.00    +0.000 OA
ATOM      4  C2  UNL     1      27.452  -9.631 -36.752  0.00  0.00    +0.000 A 
ATOM      5  C3  UNL     1      27.096  -9.979 -35.444  0.00  0.00    +0.000 A 
ATOM      6  C4  UNL     1      26.860  -8.984 -34.492  0.00  0.00    +0.000 A 
ATOM      7  C5  UNL     1      26.978  -7.635 -34.841  0.00  0.00    +0.000 A 
ATOM      8 CL1  UNL     1      26.679  -6.390 -33.642  0.00  0.00    +0.000 Cl
ATOM      9  C6  UNL     1      27.334  -7.277 -36.146  0.00  0.00    +0.000 A 
ATOM     10  C7  UNL     1      27.576  -8.274 -37.112  0.00  0.00    +0.000 A 
ATOM     11  C8  UNL     1      27.938  -7.965 -38.433  0.00  0.00    +0.000 A 
ATOM     12  O3  UNL     1      28.041  -6.758 -38.791  0.00  0.00    +0.000 OA
ATOM     13  C9  UNL     1      28.185  -9.002 -39.358  0.00  0.00    +0.000 A 
BRANCH   2  14
ATOM     14  O1  UNL     1      28.174 -11.414 -39.770  0.00  0.00    +0.000 OA
ATOM     15  H1  UNL     1      27.718 -11.432 -40.673  0.00  0.00    +0.000 HD
ENDBRANCH   2  14
ENDBRANCH   1  13
BRANCH   1  16
ATOM     16  C17 UNL     1      27.378  -8.490 -41.734  0.00  0.00    +0.000 A 
ATOM     17  C18 UNL     1      27.522  -7.779 -42.948  0.00  0.00    +0.000 A 
ATOM     18  C19 UNL     1      26.405  -7.635 -43.807  0.00  0.00    +0.000 A 
ATOM     19  C20 UNL     1      26.443  -6.900 -45.012  0.00  0.00    +0.000 A 
ATOM     20  C21 UNL     1      25.302  -6.800 -45.818  0.00  0.00    +0.000 A 
ATOM     21 CL4  UNL     1      25.361  -5.883 -47.313  0.00  0.00    +0.000 Cl
ATOM     22  C22 UNL     1      24.114  -7.424 -45.433  0.00  0.00    +0.000 A 
ATOM     23  C23 UNL     1      24.060  -8.150 -44.243  0.00  0.00    +0.000 A 
ATOM     24  C24 UNL     1      25.193  -8.257 -43.430  0.00  0.00    +0.000 A 
ATOM     25  O5  UNL     1      25.113  -8.954 -42.306  0.00  0.00    +0.000 OA
ATOM     26  C25 UNL     1      26.130  -9.101 -41.468  0.00  0.00    +0.000 A 
ATOM     27  O6  UNL     1      25.961  -9.810 -40.443  0.00  0.00    +0.000 OA
BRANCH  17  28
ATOM     28  O4  UNL     1      28.778  -7.247 -43.266  0.00  0.00    +0.000 OA
ATOM     29  H9  UNL     1      29.557  -7.183 -42.628  0.00  0.00    +0.000 HD
ENDBRANCH  17  28
ENDBRANCH   1  16
BRANCH   1  30
ATOM     30  C11 UNL     1      29.713  -9.500 -41.375  0.00  0.00    +0.000 A 
ATOM     31  C12 UNL     1      29.454 -10.510 -42.329  0.00  0.00    +0.000 A 
ATOM     32  C13 UNL     1      30.490 -11.297 -42.836  0.00  0.00    +0.000 A 
ATOM     33  C14 UNL     1      31.799 -11.100 -42.401  0.00  0.00    +0.000 A 
ATOM     34 CL2  UNL     1      33.096 -12.094 -43.040  0.00  0.00    +0.000 Cl
ATOM     35  C15 UNL     1      32.077 -10.115 -41.451  0.00  0.00    +0.000 A 
ATOM     36  C16 UNL     1      31.048  -9.319 -40.934  0.00  0.00    +0.000 A 
ATOM     37 CL3  UNL     1      31.477  -8.113 -39.722  0.00  0.00    +0.000 Cl
ENDBRANCH   1  30
TORSDOF 5
ENDMDL
MODEL 4
REMARK VINA RESULT:    -5.938      4.821      8.771
REMARK INTER + INTRA:          -7.273
REMARK INTER:                  -7.718
REMARK INTRA:                   0.445
REMARK UNBOUND:                 0.054
REMARK  Name = resultss/4CJN/ligands/lig_365_t2.pdb
REMARK  5 active torsions:
REMARK  status: ('A' for Active; 'I' for Inactive)
REMARK    1  A    between atoms: O1_1  and  C1_2
REMARK    2  A    between atoms: C9_13  and  C10_14
REMARK    3  A    between atoms: C10_14  and  C11_15
REMARK    4  A    between atoms: C10_14  and  C17_23
REMARK    5  A    between atoms: C18_24  and  O4_25
REMARK                            x       y       z     vdW  Elec       q    Type
REMARK                         _______ _______ _______ _____ _____    ______ ____
ROOT
ATOM      1  C10 UNL     1      26.820  -9.170 -41.826  0.00  0.00    +0.000 C 
ENDROOT
BRANCH   1  13
ATOM      2  C1  UNL     1      27.066  -7.219 -43.528  0.00  0.00    +0.000 A 
ATOM      3  O2  UNL     1      26.575  -6.491 -44.525  0.00  0.00    +0.000 OA
ATOM      4  C2  UNL     1      25.374  -6.694 -45.049  0.00  0.00    +0.000 A 
ATOM      5  C3  UNL     1      24.933  -5.883 -46.101  0.00  0.00    +0.000 A 
ATOM      6  C4  UNL     1      23.666  -6.080 -46.656  0.00  0.00    +0.000 A 
ATOM      7  C5  UNL     1      22.832  -7.088 -46.163  0.00  0.00    +0.000 A 
ATOM      8 CL1  UNL     1      21.241  -7.330 -46.862  0.00  0.00    +0.000 Cl
ATOM      9  C6  UNL     1      23.264  -7.904 -45.111  0.00  0.00    +0.000 A 
ATOM     10  C7  UNL     1      24.540  -7.714 -44.547  0.00  0.00    +0.000 A 
ATOM     11  C8  UNL     1      25.019  -8.508 -43.493  0.00  0.00    +0.000 A 
ATOM     12  O3  UNL     1      24.290  -9.420 -43.011  0.00  0.00    +0.000 OA
ATOM     13  C9  UNL     1      26.314  -8.287 -42.974  0.00  0.00    +0.000 A 
BRANCH   2  14
ATOM     14  O1  UNL     1      28.326  -6.895 -43.035  0.00  0.00    +0.000 OA
ATOM     15  H1  UNL     1      29.083  -6.653 -43.662  0.00  0.00    +0.000 HD
ENDBRANCH   2  14
ENDBRANCH   1  13
BRANCH   1  16
ATOM     16  C17 UNL     1      26.690  -8.499 -40.450  0.00  0.00    +0.000 A 
ATOM     17  C18 UNL     1      25.523  -8.705 -39.678  0.00  0.00    +0.000 A 
ATOM     18  C19 UNL     1      25.405  -8.080 -38.414  0.00  0.00    +0.000 A 
ATOM     19  C20 UNL     1      24.256  -8.188 -37.599  0.00  0.00    +0.000 A 
ATOM     20  C21 UNL     1      24.206  -7.545 -36.355  0.00  0.00    +0.000 A 
ATOM     21 CL4  UNL     1      22.773  -7.687 -35.353  0.00  0.00    +0.000 Cl
ATOM     22  C22 UNL     1      25.291  -6.787 -35.912  0.00  0.00    +0.000 A 
ATOM     23  C23 UNL     1      26.430  -6.667 -36.708  0.00  0.00    +0.000 A 
ATOM     24  C24 UNL     1      26.493  -7.304 -37.952  0.00  0.00    +0.000 A 
ATOM     25  O5  UNL     1      27.589  -7.173 -38.686  0.00  0.00    +0.000 OA
ATOM     26  C25 UNL     1      27.734  -7.731 -39.879  0.00  0.00    +0.000 A 
ATOM     27  O6  UNL     1      28.826  -7.574 -40.482  0.00  0.00    +0.000 OA
BRANCH  17  28
ATOM     28  O4  UNL     1      24.522  -9.538 -40.193  0.00  0.00    +0.000 OA
ATOM     29  H9  UNL     1      23.561  -9.266 -40.337  0.00  0.00    +0.000 HD
ENDBRANCH  17  28
ENDBRANCH   1  16
BRANCH   1  30
ATOM     30  C11 UNL     1      28.188  -9.811 -42.072  0.00  0.00    +0.000 A 
ATOM     31  C12 UNL     1      29.031  -9.370 -43.117  0.00  0.00    +0.000 A 
ATOM     32  C13 UNL     1      30.268  -9.976 -43.342  0.00  0.00    +0.000 A 
ATOM     33  C14 UNL     1      30.688 -11.035 -42.538  0.00  0.00    +0.000 A 
ATOM     34 CL2  UNL     1      32.243 -11.793 -42.827  0.00  0.00    +0.000 Cl
ATOM     35  C15 UNL     1      29.867 -11.494 -41.507  0.00  0.00    +0.000 A 
ATOM     36  C16 UNL     1      28.624 -10.896 -41.270  0.00  0.00    +0.000 A 
ATOM     37 CL3  UNL     1      27.637 -11.549 -39.963  0.00  0.00    +0.000 Cl
ENDBRANCH   1  30
TORSDOF 5
ENDMDL
MODEL 5
REMARK VINA RESULT:    -5.732      3.839      6.389
REMARK INTER + INTRA:          -7.018
REMARK INTER:                  -8.069
REMARK INTRA:                   1.051
REMARK UNBOUND:                 0.054
REMARK  Name = resultss/4CJN/ligands/lig_365_t2.pdb
REMARK  5 active torsions:
REMARK  status: ('A' for Active; 'I' for Inactive)
REMARK    1  A    between atoms: O1_1  and  C1_2
REMARK    2  A    between atoms: C9_13  and  C10_14
REMARK    3  A    between atoms: C10_14  and  C11_15
REMARK    4  A    between atoms: C10_14  and  C17_23
REMARK    5  A    between atoms: C18_24  and  O4_25
REMARK                            x       y       z     vdW  Elec       q    Type
REMARK                         _______ _______ _______ _____ _____    ______ ____
ROOT
ATOM      1  C10 UNL     1      28.504  -8.061 -40.279  0.00  0.00    +0.000 C 
ENDROOT
BRANCH   1  13
ATOM      2  C1  UNL     1      31.073  -8.438 -40.136  0.00  0.00    +0.000 A 
ATOM      3  O2  UNL     1      32.169  -9.075 -40.537  0.00  0.00    +0.000 OA
ATOM      4  C2  UNL     1      32.161 -10.014 -41.473  0.00  0.00    +0.000 A 
ATOM      5  C3  UNL     1      33.360 -10.639 -41.834  0.00  0.00    +0.000 A 
ATOM      6  C4  UNL     1      33.367 -11.624 -42.826  0.00  0.00    +0.000 A 
ATOM      7  C5  UNL     1      32.177 -11.988 -43.462  0.00  0.00    +0.000 A 
ATOM      8 CL1  UNL     1      32.193 -13.224 -44.707  0.00  0.00    +0.000 Cl
ATOM      9  C6  UNL     1      30.974 -11.369 -43.108  0.00  0.00    +0.000 A 
ATOM     10  C7  UNL     1      30.956 -10.377 -42.108  0.00  0.00    +0.000 A 
ATOM     11  C8  UNL     1      29.774  -9.729 -41.716  0.00  0.00    +0.000 A 
ATOM     12  O3  UNL     1      28.681 -10.021 -42.277  0.00  0.00    +0.000 OA
ATOM     13  C9  UNL     1      29.809  -8.753 -40.696  0.00  0.00    +0.000 A 
BRANCH   2  14
ATOM     14  O1  UNL     1      31.206  -7.446 -39.170  0.00  0.00    +0.000 OA
ATOM     15  H1  UNL     1      30.492  -6.737 -39.052  0.00  0.00    +0.000 HD
ENDBRANCH   2  14
ENDBRANCH   1  13
BRANCH   1  16
ATOM     16  C17 UNL     1      27.967  -8.557 -38.927  0.00  0.00    +0.000 A 
ATOM     17  C18 UNL     1      27.495  -7.623 -37.977  0.00  0.00    +0.000 A 
ATOM     18  C19 UNL     1      27.006  -8.084 -36.730  0.00  0.00    +0.000 A 
ATOM     19  C20 UNL     1      26.563  -7.222 -35.703  0.00  0.00    +0.000 A 
ATOM     20  C21 UNL     1      26.089  -7.745 -34.494  0.00  0.00    +0.000 A 
ATOM     21 CL4  UNL     1      25.541  -6.663 -33.225  0.00  0.00    +0.000 Cl
ATOM     22  C22 UNL     1      26.054  -9.126 -34.292  0.00  0.00    +0.000 A 
ATOM     23  C23 UNL     1      26.492  -9.989 -35.295  0.00  0.00    +0.000 A 
ATOM     24  C24 UNL     1      26.969  -9.480 -36.507  0.00  0.00    +0.000 A 
ATOM     25  O5  UNL     1      27.377 -10.324 -37.443  0.00  0.00    +0.000 OA
ATOM     26  C25 UNL     1      27.854  -9.933 -38.616  0.00  0.00    +0.000 A 
ATOM     27  O6  UNL     1      28.185 -10.815 -39.449  0.00  0.00    +0.000 OA
BRANCH  17  28
ATOM     28  O4  UNL     1      27.517  -6.262 -38.309  0.00  0.00    +0.000 OA
ATOM     29  H9  UNL     1      27.101  -5.526 -37.759  0.00  0.00    +0.000 HD
ENDBRANCH  17  28
ENDBRANCH   1  16
BRANCH   1  30
ATOM     30  C11 UNL     1      27.441  -7.992 -41.378  0.00  0.00    +0.000 A 
ATOM     31  C12 UNL     1      26.290  -8.812 -41.341  0.00  0.00    +0.000 A 
ATOM     32  C13 UNL     1      25.337  -8.752 -42.360  0.00  0.00    +0.000 A 
ATOM     33  C14 UNL     1      25.513  -7.882 -43.435  0.00  0.00    +0.000 A 
ATOM     34 CL2  UNL     1      24.313  -7.814 -44.713  0.00  0.00    +0.000 Cl
ATOM     35  C15 UNL     1      26.648  -7.072 -43.498  0.00  0.00    +0.000 A 
ATOM     36  C16 UNL     1      27.612  -7.122 -42.484  0.00  0.00    +0.000 A 
ATOM     37 CL3  UNL     1      29.027  -6.083 -42.648  0.00  0.00    +0.000 Cl
ENDBRANCH   1  30
TORSDOF 5
ENDMDL
MODEL 6
REMARK VINA RESULT:    -5.726      4.151      8.285
REMARK INTER + INTRA:          -7.011
REMARK INTER:                  -7.337
REMARK INTRA:                   0.325
REMARK UNBOUND:                 0.054
REMARK  Name = resultss/4CJN/ligands/lig_365_t2.pdb
REMARK  5 active torsions:
REMARK  status: ('A' for Active; 'I' for Inactive)
REMARK    1  A    between atoms: O1_1  and  C1_2
REMARK    2  A    between atoms: C9_13  and  C10_14
REMARK    3  A    between atoms: C10_14  and  C11_15
REMARK    4  A    between atoms: C10_14  and  C17_23
REMARK    5  A    between atoms: C18_24  and  O4_25
REMARK                            x       y       z     vdW  Elec       q    Type
REMARK                         _______ _______ _______ _____ _____    ______ ____
ROOT
ATOM      1  C10 UNL     1      27.044  -8.869 -39.753  0.00  0.00    +0.000 C 
ENDROOT
BRANCH   1  13
ATOM      2  C1  UNL     1      29.587  -8.324 -39.795  0.00  0.00    +0.000 A 
ATOM      3  O2  UNL     1      30.817  -8.593 -40.222  0.00  0.00    +0.000 OA
ATOM      4  C2  UNL     1      31.095  -9.589 -41.051  0.00  0.00    +0.000 A 
ATOM      5  C3  UNL     1      32.419  -9.808 -41.448  0.00  0.00    +0.000 A 
ATOM      6  C4  UNL     1      32.726 -10.848 -42.329  0.00  0.00    +0.000 A 
ATOM      7  C5  UNL     1      31.710 -11.676 -42.819  0.00  0.00    +0.000 A 
ATOM      8 CL1  UNL     1      32.101 -12.979 -43.926  0.00  0.00    +0.000 Cl
ATOM      9  C6  UNL     1      30.384 -11.465 -42.428  0.00  0.00    +0.000 A 
ATOM     10  C7  UNL     1      30.066 -10.420 -41.538  0.00  0.00    +0.000 A 
ATOM     11  C8  UNL     1      28.751 -10.171 -41.114  0.00  0.00    +0.000 A 
ATOM     12  O3  UNL     1      27.805 -10.888 -41.545  0.00  0.00    +0.000 OA
ATOM     13  C9  UNL     1      28.489  -9.120 -40.208  0.00  0.00    +0.000 A 
BRANCH   2  14
ATOM     14  O1  UNL     1      29.408  -7.232 -38.952  0.00  0.00    +0.000 OA
ATOM     15  H1  UNL     1      29.732  -6.311 -39.219  0.00  0.00    +0.000 HD
ENDBRANCH   2  14
ENDBRANCH   1  13
BRANCH   1  16
ATOM     16  C17 UNL     1      26.219  -8.084 -40.783  0.00  0.00    +0.000 A 
ATOM     17  C18 UNL     1      24.835  -8.344 -40.916  0.00  0.00    +0.000 A 
ATOM     18  C19 UNL     1      24.079  -7.622 -41.871  0.00  0.00    +0.000 A 
ATOM     19  C20 UNL     1      22.706  -7.852 -42.108  0.00  0.00    +0.000 A 
ATOM     20  C21 UNL     1      22.016  -7.099 -43.067  0.00  0.00    +0.000 A 
ATOM     21 CL4  UNL     1      20.310  -7.394 -43.352  0.00  0.00    +0.000 Cl
ATOM     22  C22 UNL     1      22.683  -6.117 -43.802  0.00  0.00    +0.000 A 
ATOM     23  C23 UNL     1      24.040  -5.883 -43.582  0.00  0.00    +0.000 A 
ATOM     24  C24 UNL     1      24.740  -6.628 -42.628  0.00  0.00    +0.000 A 
ATOM     25  O5  UNL     1      26.029  -6.382 -42.440  0.00  0.00    +0.000 OA
ATOM     26  C25 UNL     1      26.775  -7.043 -41.566  0.00  0.00    +0.000 A 
ATOM     27  O6  UNL     1      27.981  -6.712 -41.440  0.00  0.00    +0.000 OA
BRANCH  17  28
ATOM     28  O4  UNL     1      24.254  -9.308 -40.082  0.00  0.00    +0.000 OA
ATOM     29  H9  UNL     1      23.594  -9.111 -39.345  0.00  0.00    +0.000 HD
ENDBRANCH  17  28
ENDBRANCH   1  16
BRANCH   1  30
ATOM     30  C11 UNL     1      26.912  -8.339 -38.323  0.00  0.00    +0.000 A 
ATOM     31  C12 UNL     1      26.403  -7.047 -38.061  0.00  0.00    +0.000 A 
ATOM     32  C13 UNL     1      26.304  -6.569 -36.752  0.00  0.00    +0.000 A 
ATOM     33  C14 UNL     1      26.714  -7.364 -35.682  0.00  0.00    +0.000 A 
ATOM     34 CL2  UNL     1      26.590  -6.757 -34.041  0.00  0.00    +0.000 Cl
ATOM     35  C15 UNL     1      27.230  -8.638 -35.919  0.00  0.00    +0.000 A 
ATOM     36  C16 UNL     1      27.336  -9.130 -37.225  0.00  0.00    +0.000 A 
ATOM     37 CL3  UNL     1      28.018 -10.741 -37.441  0.00  0.00    +0.000 Cl
ENDBRANCH   1  30
TORSDOF 5
ENDMDL
MODEL 7
REMARK VINA RESULT:    -5.577      2.216      7.549
REMARK INTER + INTRA:          -6.827
REMARK INTER:                  -7.064
REMARK INTRA:                   0.237
REMARK UNBOUND:                 0.054
REMARK  Name = resultss/4CJN/ligands/lig_365_t2.pdb
REMARK  5 active torsions:
REMARK  status: ('A' for Active; 'I' for Inactive)
REMARK    1  A    between atoms: O1_1  and  C1_2
REMARK    2  A    between atoms: C9_13  and  C10_14
REMARK    3  A    between atoms: C10_14  and  C11_15
REMARK    4  A    between atoms: C10_14  and  C17_23
REMARK    5  A    between atoms: C18_24  and  O4_25
REMARK                            x       y       z     vdW  Elec       q    Type
REMARK                         _______ _______ _______ _____ _____    ______ ____
ROOT
ATOM      1  C10 UNL     1      28.329  -7.956 -36.637  0.00  0.00    +0.000 C 
ENDROOT
BRANCH   1  13
ATOM      2  C1  UNL     1      26.961  -9.192 -34.803  0.00  0.00    +0.000 A 
ATOM      3  O2  UNL     1      25.825  -9.369 -34.135  0.00  0.00    +0.000 OA
ATOM      4  C2  UNL     1      24.722  -8.677 -34.382  0.00  0.00    +0.000 A 
ATOM      5  C3  UNL     1      23.569  -8.923 -33.629  0.00  0.00    +0.000 A 
ATOM      6  C4  UNL     1      22.396  -8.207 -33.885  0.00  0.00    +0.000 A 
ATOM      7  C5  UNL     1      22.369  -7.242 -34.896  0.00  0.00    +0.000 A 
ATOM      8 CL1  UNL     1      20.894  -6.348 -35.214  0.00  0.00    +0.000 Cl
ATOM      9  C6  UNL     1      23.517  -6.988 -35.655  0.00  0.00    +0.000 A 
ATOM     10  C7  UNL     1      24.704  -7.704 -35.402  0.00  0.00    +0.000 A 
ATOM     11  C8  UNL     1      25.882  -7.483 -36.133  0.00  0.00    +0.000 A 
ATOM     12  O3  UNL     1      25.894  -6.629 -37.064  0.00  0.00    +0.000 OA
ATOM     13  C9  UNL     1      27.050  -8.216 -35.829  0.00  0.00    +0.000 A 
BRANCH   2  14
ATOM     14  O1  UNL     1      28.047  -9.999 -34.481  0.00  0.00    +0.000 OA
ATOM     15  H1  UNL     1      28.974  -9.782 -34.824  0.00  0.00    +0.000 HD
ENDBRANCH   2  14
ENDBRANCH   1  13
BRANCH   1  16
ATOM     16  C17 UNL     1      28.301  -8.604 -38.030  0.00  0.00    +0.000 A 
ATOM     17  C18 UNL     1      28.490  -7.803 -39.179  0.00  0.00    +0.000 A 
ATOM     18  C19 UNL     1      28.458  -8.404 -40.461  0.00  0.00    +0.000 A 
ATOM     19  C20 UNL     1      28.587  -7.675 -41.663  0.00  0.00    +0.000 A 
ATOM     20  C21 UNL     1      28.549  -8.333 -42.899  0.00  0.00    +0.000 A 
ATOM     21 CL4  UNL     1      28.710  -7.416 -44.386  0.00  0.00    +0.000 Cl
ATOM     22  C22 UNL     1      28.378  -9.718 -42.952  0.00  0.00    +0.000 A 
ATOM     23  C23 UNL     1      28.245 -10.450 -41.773  0.00  0.00    +0.000 A 
ATOM     24  C24 UNL     1      28.281  -9.805 -40.533  0.00  0.00    +0.000 A 
ATOM     25  O5  UNL     1      28.154 -10.527 -39.429  0.00  0.00    +0.000 OA
ATOM     26  C25 UNL     1      28.165 -10.002 -38.212  0.00  0.00    +0.000 A 
ATOM     27  O6  UNL     1      28.069 -10.777 -37.227  0.00  0.00    +0.000 OA
BRANCH  17  28
ATOM     28  O4  UNL     1      28.718  -6.432 -39.007  0.00  0.00    +0.000 OA
ATOM     29  H9  UNL     1      28.334  -5.704 -39.591  0.00  0.00    +0.000 HD
ENDBRANCH  17  28
ENDBRANCH   1  16
BRANCH   1  30
ATOM     30  C11 UNL     1      29.629  -8.202 -35.868  0.00  0.00    +0.000 A 
ATOM     31  C12 UNL     1      30.501  -9.258 -36.215  0.00  0.00    +0.000 A 
ATOM     32  C13 UNL     1      31.674  -9.482 -35.492  0.00  0.00    +0.000 A 
ATOM     33  C14 UNL     1      32.000  -8.665 -34.411  0.00  0.00    +0.000 A 
ATOM     34 CL2  UNL     1      33.475  -8.954 -33.506  0.00  0.00    +0.000 Cl
ATOM     35  C15 UNL     1      31.148  -7.623 -34.044  0.00  0.00    +0.000 A 
ATOM     36  C16 UNL     1      29.968  -7.386 -34.758  0.00  0.00    +0.000 A 
ATOM     37 CL3  UNL     1      28.934  -6.064 -34.218  0.00  0.00    +0.000 Cl
ENDBRANCH   1  30
TORSDOF 5
ENDMDL
MODEL 8
REMARK VINA RESULT:    -5.405      2.327      2.882
REMARK INTER + INTRA:          -6.615
REMARK INTER:                  -7.201
REMARK INTRA:                   0.586
REMARK UNBOUND:                 0.054
REMARK  Name = resultss/4CJN/ligands/lig_365_t2.pdb
REMARK  5 active torsions:
REMARK  status: ('A' for Active; 'I' for Inactive)
REMARK    1  A    between atoms: O1_1  and  C1_2
REMARK    2  A    between atoms: C9_13  and  C10_14
REMARK    3  A    between atoms: C10_14  and  C11_15
REMARK    4  A    between atoms: C10_14  and  C17_23
REMARK    5  A    between atoms: C18_24  and  O4_25
REMARK                            x       y       z     vdW  Elec       q    Type
REMARK                         _______ _______ _______ _____ _____    ______ ____
ROOT
ATOM      1  C10 UNL     1      27.857  -7.893 -35.969  0.00  0.00    +0.000 C 
ENDROOT
BRANCH   1  13
ATOM      2  C1  UNL     1      27.946  -9.880 -37.644  0.00  0.00    +0.000 A 
ATOM      3  O2  UNL     1      27.791 -10.359 -38.875  0.00  0.00    +0.000 OA
ATOM      4  C2  UNL     1      27.422  -9.608 -39.904  0.00  0.00    +0.000 A 
ATOM      5  C3  UNL     1      27.278 -10.192 -41.167  0.00  0.00    +0.000 A 
ATOM      6  C4  UNL     1      26.899  -9.411 -42.263  0.00  0.00    +0.000 A 
ATOM      7  C5  UNL     1      26.663  -8.043 -42.101  0.00  0.00    +0.000 A 
ATOM      8 CL1  UNL     1      26.189  -7.067 -43.480  0.00  0.00    +0.000 Cl
ATOM      9  C6  UNL     1      26.804  -7.450 -40.842  0.00  0.00    +0.000 A 
ATOM     10  C7  UNL     1      27.184  -8.230 -39.732  0.00  0.00    +0.000 A 
ATOM     11  C8  UNL     1      27.336  -7.682 -38.448  0.00  0.00    +0.000 A 
ATOM     12  O3  UNL     1      27.144  -6.447 -38.264  0.00  0.00    +0.000 OA
ATOM     13  C9  UNL     1      27.702  -8.511 -37.365  0.00  0.00    +0.000 A 
BRANCH   2  14
ATOM     14  O1  UNL     1      28.369 -10.754 -36.648  0.00  0.00    +0.000 OA
ATOM     15  H1  UNL     1      29.014 -11.506 -36.855  0.00  0.00    +0.000 HD
ENDBRANCH   2  14
ENDBRANCH   1  13
BRANCH   1  16
ATOM     16  C17 UNL     1      29.235  -8.161 -35.344  0.00  0.00    +0.000 A 
ATOM     17  C18 UNL     1      29.382  -9.197 -34.393  0.00  0.00    +0.000 A 
ATOM     18  C19 UNL     1      30.652  -9.437 -33.815  0.00  0.00    +0.000 A 
ATOM     19  C20 UNL     1      30.881 -10.415 -32.822  0.00  0.00    +0.000 A 
ATOM     20  C21 UNL     1      32.164 -10.603 -32.294  0.00  0.00    +0.000 A 
ATOM     21 CL4  UNL     1      32.435 -11.821 -31.060  0.00  0.00    +0.000 Cl
ATOM     22  C22 UNL     1      33.230  -9.820 -32.743  0.00  0.00    +0.000 A 
ATOM     23  C23 UNL     1      33.018  -8.847 -33.719  0.00  0.00    +0.000 A 
ATOM     24  C24 UNL     1      31.741  -8.650 -34.254  0.00  0.00    +0.000 A 
ATOM     25  O5  UNL     1      31.570  -7.720 -35.182  0.00  0.00    +0.000 OA
ATOM     26  C25 UNL     1      30.397  -7.455 -35.738  0.00  0.00    +0.000 A 
ATOM     27  O6  UNL     1      30.346  -6.574 -36.634  0.00  0.00    +0.000 OA
BRANCH  17  28
ATOM     28  O4  UNL     1      28.258  -9.965 -34.062  0.00  0.00    +0.000 OA
ATOM     29  H9  UNL     1      27.522  -9.672 -33.437  0.00  0.00    +0.000 HD
ENDBRANCH  17  28
ENDBRANCH   1  16
BRANCH   1  30
ATOM     30  C11 UNL     1      26.686  -8.162 -35.020  0.00  0.00    +0.000 A 
ATOM     31  C12 UNL     1      25.801  -9.242 -35.233  0.00  0.00    +0.000 A 
ATOM     32  C13 UNL     1      24.726  -9.465 -34.370  0.00  0.00    +0.000 A 
ATOM     33  C14 UNL     1      24.508  -8.616 -33.285  0.00  0.00    +0.000 A 
ATOM     34 CL2  UNL     1      23.155  -8.900 -32.206  0.00  0.00    +0.000 Cl
ATOM     35  C15 UNL     1      25.364  -7.537 -33.063  0.00  0.00    +0.000 A 
ATOM     36  C16 UNL     1      26.446  -7.301 -33.920  0.00  0.00    +0.000 A 
ATOM     37 CL3  UNL     1      27.467  -5.904 -33.584  0.00  0.00    +0.000 Cl
ENDBRANCH   1  30
TORSDOF 5
ENDMDL
MODEL 9
REMARK VINA RESULT:    -5.199      4.252      7.648
REMARK INTER + INTRA:          -6.360
REMARK INTER:                  -6.471
REMARK INTRA:                   0.111
REMARK UNBOUND:                 0.054
REMARK  Name = resultss/4CJN/ligands/lig_365_t2.pdb
REMARK  5 active torsions:
REMARK  status: ('A' for Active; 'I' for Inactive)
REMARK    1  A    between atoms: O1_1  and  C1_2
REMARK    2  A    between atoms: C9_13  and  C10_14
REMARK    3  A    between atoms: C10_14  and  C11_15
REMARK    4  A    between atoms: C10_14  and  C17_23
REMARK    5  A    between atoms: C18_24  and  O4_25
REMARK                            x       y       z     vdW  Elec       q    Type
REMARK                         _______ _______ _______ _____ _____    ______ ____
ROOT
ATOM      1  C10 UNL     1      28.318  -8.740 -40.574  0.00  0.00    +0.000 C 
ENDROOT
BRANCH   1  13
ATOM      2  C1  UNL     1      28.641  -6.962 -42.443  0.00  0.00    +0.000 A 
ATOM      3  O2  UNL     1      28.195  -6.333 -43.526  0.00  0.00    +0.000 OA
ATOM      4  C2  UNL     1      27.018  -6.588 -44.080  0.00  0.00    +0.000 A 
ATOM      5  C3  UNL     1      26.625  -5.883 -45.223  0.00  0.00    +0.000 A 
ATOM      6  C4  UNL     1      25.383  -6.135 -45.811  0.00  0.00    +0.000 A 
ATOM      7  C5  UNL     1      24.526  -7.093 -45.260  0.00  0.00    +0.000 A 
ATOM      8 CL1  UNL     1      22.967  -7.404 -46.002  0.00  0.00    +0.000 Cl
ATOM      9  C6  UNL     1      24.910  -7.803 -44.117  0.00  0.00    +0.000 A 
ATOM     10  C7  UNL     1      26.161  -7.557 -43.519  0.00  0.00    +0.000 A 
ATOM     11  C8  UNL     1      26.592  -8.245 -42.374  0.00  0.00    +0.000 A 
ATOM     12  O3  UNL     1      25.841  -9.108 -41.838  0.00  0.00    +0.000 OA
ATOM     13  C9  UNL     1      27.864  -7.972 -41.823  0.00  0.00    +0.000 A 
BRANCH   2  14
ATOM     14  O1  UNL     1      29.879  -6.589 -41.929  0.00  0.00    +0.000 OA
ATOM     15  H1  UNL     1      30.005  -6.439 -40.935  0.00  0.00    +0.000 HD
ENDBRANCH   2  14
ENDBRANCH   1  13
BRANCH   1  16
ATOM     16  C17 UNL     1      27.751  -8.156 -39.271  0.00  0.00    +0.000 A 
ATOM     17  C18 UNL     1      27.232  -9.023 -38.282  0.00  0.00    +0.000 A 
ATOM     18  C19 UNL     1      26.706  -8.480 -37.085  0.00  0.00    +0.000 A 
ATOM     19  C20 UNL     1      26.121  -9.265 -36.067  0.00  0.00    +0.000 A 
ATOM     20  C21 UNL     1      25.621  -8.663 -34.906  0.00  0.00    +0.000 A 
ATOM     21 CL4  UNL     1      24.897  -9.651 -33.649  0.00  0.00    +0.000 Cl
ATOM     22  C22 UNL     1      25.693  -7.278 -34.747  0.00  0.00    +0.000 A 
ATOM     23  C23 UNL     1      26.262  -6.489 -35.745  0.00  0.00    +0.000 A 
ATOM     24  C24 UNL     1      26.765  -7.078 -36.910  0.00  0.00    +0.000 A 
ATOM     25  O5  UNL     1      27.303  -6.304 -37.841  0.00  0.00    +0.000 OA
ATOM     26  C25 UNL     1      27.794  -6.771 -38.980  0.00  0.00    +0.000 A 
ATOM     27  O6  UNL     1      28.312  -5.956 -39.785  0.00  0.00    +0.000 OA
BRANCH  17  28
ATOM     28  O4  UNL     1      27.268 -10.403 -38.519  0.00  0.00    +0.000 OA
ATOM     29  H9  UNL     1      27.165 -10.837 -39.424  0.00  0.00    +0.000 HD
ENDBRANCH  17  28
ENDBRANCH   1  16
BRANCH   1  30
ATOM     30  C11 UNL     1      29.819  -9.032 -40.517  0.00  0.00    +0.000 A 
ATOM     31  C12 UNL     1      30.632  -8.513 -39.484  0.00  0.00    +0.000 A 
ATOM     32  C13 UNL     1      32.003  -8.772 -39.456  0.00  0.00    +0.000 A 
ATOM     33  C14 UNL     1      32.593  -9.546 -40.455  0.00  0.00    +0.000 A 
ATOM     34 CL2  UNL     1      34.318  -9.865 -40.414  0.00  0.00    +0.000 Cl
ATOM     35  C15 UNL     1      31.812 -10.059 -41.490  0.00  0.00    +0.000 A 
ATOM     36  C16 UNL     1      30.435  -9.807 -41.533  0.00  0.00    +0.000 A 
ATOM     37 CL3  UNL     1      29.522 -10.473 -42.885  0.00  0.00    +0.000 Cl
ENDBRANCH   1  30
TORSDOF 5
ENDMDL
