MODEL 1
REMARK VINA RESULT:    -7.028      0.000      0.000
REMARK INTER + INTRA:          -9.717
REMARK INTER:                  -9.287
REMARK INTRA:                  -0.430
REMARK UNBOUND:                -0.430
REMARK  Name = resultss/4CJN/ligands/lig_169_t1.pdb
REMARK  7 active torsions:
REMARK  status: ('A' for Active; 'I' for Inactive)
REMARK    1  A    between atoms: O1_1  and  C1_2
REMARK    2  A    between atoms: C1_2  and  C9_14
REMARK    3  A    between atoms: N1_3  and  N2_4
REMARK    4  A    between atoms: C2_5  and  C3_6
REMARK    5  A    between atoms: C6_9  and  O2_10
REMARK    6  A    between atoms: C7_11  and  O3_12
REMARK    7  A    between atoms: C12_17  and  C13_18
REMARK                            x       y       z     vdW  Elec       q    Type
REMARK                         _______ _______ _______ _____ _____    ______ ____
ROOT
ATOM      1  C1  UNL     1      28.931  -9.247 -42.896  0.00  0.00    +0.000 C 
ATOM      2  N1  UNL     1      30.162  -9.602 -43.117  0.00  0.00    +0.000 NA
ENDROOT
BRANCH   1   3
ATOM      3  C9  UNL     1      28.338  -9.219 -41.539  0.00  0.00    +0.000 A 
ATOM      4  C10 UNL     1      28.211  -7.996 -40.866  0.00  0.00    +0.000 A 
ATOM      5  C11 UNL     1      27.632  -7.942 -39.595  0.00  0.00    +0.000 A 
ATOM      6  C12 UNL     1      27.154  -9.111 -38.977  0.00  0.00    +0.000 A 
ATOM      7  C20 UNL     1      27.260 -10.334 -39.664  0.00  0.00    +0.000 A 
ATOM      8  C21 UNL     1      27.840 -10.386 -40.935  0.00  0.00    +0.000 A 
BRANCH   6   9
ATOM      9  C13 UNL     1      26.543  -9.044 -37.629  0.00  0.00    +0.000 A 
ATOM     10  N3  UNL     1      25.337  -8.465 -37.389  0.00  0.00    +0.000 NA
ATOM     11  C14 UNL     1      25.006  -8.535 -36.074  0.00  0.00    +0.000 A 
ATOM     12  C15 UNL     1      23.826  -8.026 -35.531  0.00  0.00    +0.000 A 
ATOM     13  C16 UNL     1      23.605  -8.164 -34.149  0.00  0.00    +0.000 A 
ATOM     14  C17 UNL     1      24.559  -8.806 -33.334  0.00  0.00    +0.000 A 
ATOM     15  C18 UNL     1      25.742  -9.315 -33.892  0.00  0.00    +0.000 A 
ATOM     16  C19 UNL     1      25.936  -9.163 -35.264  0.00  0.00    +0.000 A 
ATOM     17  S1  UNL     1      27.231  -9.661 -36.203  0.00  0.00    +0.000 S 
ENDBRANCH   6   9
ENDBRANCH   1   3
BRANCH   1  18
ATOM     18  O1  UNL     1      28.141  -8.851 -43.973  0.00  0.00    +0.000 OA
ATOM     19  H1  UNL     1      28.390  -9.098 -44.924  0.00  0.00    +0.000 HD
ENDBRANCH   1  18
BRANCH   2  20
ATOM     20  N2  UNL     1      31.058  -9.945 -42.092  0.00  0.00    +0.000 NA
ATOM     21  C2  UNL     1      32.048 -10.768 -42.260  0.00  0.00    +0.000 C 
BRANCH  21  22
ATOM     22  C3  UNL     1      32.362 -11.422 -43.551  0.00  0.00    +0.000 A 
ATOM     23  C4  UNL     1      32.228 -12.813 -43.657  0.00  0.00    +0.000 A 
ATOM     24  C5  UNL     1      32.539 -13.465 -44.854  0.00  0.00    +0.000 A 
ATOM     25  C6  UNL     1      33.006 -12.739 -45.953  0.00  0.00    +0.000 A 
ATOM     26  C7  UNL     1      33.172 -11.348 -45.850  0.00  0.00    +0.000 A 
ATOM     27  C8  UNL     1      32.858 -10.695 -44.648  0.00  0.00    +0.000 A 
BRANCH  25  28
ATOM     28  O2  UNL     1      33.304 -13.416 -47.135  0.00  0.00    +0.000 OA
ATOM     29  H5  UNL     1      32.727 -14.173 -47.482  0.00  0.00    +0.000 HD
ENDBRANCH  25  28
BRANCH  26  30
ATOM     30  O3  UNL     1      33.654 -10.620 -46.937  0.00  0.00    +0.000 OA
ATOM     31  H6  UNL     1      33.278  -9.709 -47.175  0.00  0.00    +0.000 HD
ENDBRANCH  26  30
ENDBRANCH  21  22
ENDBRANCH   2  20
TORSDOF 7
ENDMDL
MODEL 2
REMARK VINA RESULT:    -6.982      4.311      9.883
REMARK INTER + INTRA:          -9.657
REMARK INTER:                  -8.955
REMARK INTRA:                  -0.701
REMARK UNBOUND:                -0.430
REMARK  Name = resultss/4CJN/ligands/lig_169_t1.pdb
REMARK  7 active torsions:
REMARK  status: ('A' for Active; 'I' for Inactive)
REMARK    1  A    between atoms: O1_1  and  C1_2
REMARK    2  A    between atoms: C1_2  and  C9_14
REMARK    3  A    between atoms: N1_3  and  N2_4
REMARK    4  A    between atoms: C2_5  and  C3_6
REMARK    5  A    between atoms: C6_9  and  O2_10
REMARK    6  A    between atoms: C7_11  and  O3_12
REMARK    7  A    between atoms: C12_17  and  C13_18
REMARK                            x       y       z     vdW  Elec       q    Type
REMARK                         _______ _______ _______ _____ _____    ______ ____
ROOT
ATOM      1  C1  UNL     1      29.703  -8.233 -39.948  0.00  0.00    +0.000 C 
ATOM      2  N1  UNL     1      29.014  -8.740 -38.968  0.00  0.00    +0.000 NA
ENDROOT
BRANCH   1   3
ATOM      3  C9  UNL     1      30.350  -9.068 -40.987  0.00  0.00    +0.000 A 
ATOM      4  C10 UNL     1      29.683  -9.304 -42.197  0.00  0.00    +0.000 A 
ATOM      5  C11 UNL     1      30.283 -10.068 -43.201  0.00  0.00    +0.000 A 
ATOM      6  C12 UNL     1      31.572 -10.600 -43.021  0.00  0.00    +0.000 A 
ATOM      7  C20 UNL     1      32.250 -10.341 -41.815  0.00  0.00    +0.000 A 
ATOM      8  C21 UNL     1      31.647  -9.577 -40.812  0.00  0.00    +0.000 A 
BRANCH   6   9
ATOM      9  C13 UNL     1      32.200 -11.409 -44.091  0.00  0.00    +0.000 A 
ATOM     10  N3  UNL     1      31.777 -12.657 -44.422  0.00  0.00    +0.000 NA
ATOM     11  C14 UNL     1      32.520 -13.181 -45.431  0.00  0.00    +0.000 A 
ATOM     12  C15 UNL     1      32.318 -14.447 -45.983  0.00  0.00    +0.000 A 
ATOM     13  C16 UNL     1      33.161 -14.870 -47.027  0.00  0.00    +0.000 A 
ATOM     14  C17 UNL     1      34.187 -14.028 -47.501  0.00  0.00    +0.000 A 
ATOM     15  C18 UNL     1      34.379 -12.756 -46.939  0.00  0.00    +0.000 A 
ATOM     16  C19 UNL     1      33.531 -12.363 -45.906  0.00  0.00    +0.000 A 
ATOM     17  S1  UNL     1      33.516 -10.923 -45.049  0.00  0.00    +0.000 S 
ENDBRANCH   6   9
ENDBRANCH   1   3
BRANCH   1  18
ATOM     18  O1  UNL     1      29.819  -6.848 -40.043  0.00  0.00    +0.000 OA
ATOM     19  H1  UNL     1      29.744  -6.258 -39.222  0.00  0.00    +0.000 HD
ENDBRANCH   1  18
BRANCH   2  20
ATOM     20  N2  UNL     1      28.777 -10.116 -38.829  0.00  0.00    +0.000 NA
ATOM     21  C2  UNL     1      27.672 -10.688 -39.202  0.00  0.00    +0.000 C 
BRANCH  21  22
ATOM     22  C3  UNL     1      26.546  -9.963 -39.834  0.00  0.00    +0.000 A 
ATOM     23  C4  UNL     1      25.892  -8.958 -39.108  0.00  0.00    +0.000 A 
ATOM     24  C5  UNL     1      24.811  -8.271 -39.666  0.00  0.00    +0.000 A 
ATOM     25  C6  UNL     1      24.356  -8.591 -40.949  0.00  0.00    +0.000 A 
ATOM     26  C7  UNL     1      24.984  -9.616 -41.675  0.00  0.00    +0.000 A 
ATOM     27  C8  UNL     1      26.071 -10.304 -41.114  0.00  0.00    +0.000 A 
BRANCH  25  28
ATOM     28  O2  UNL     1      23.277  -7.886 -41.481  0.00  0.00    +0.000 OA
ATOM     29  H5  UNL     1      23.025  -6.961 -41.153  0.00  0.00    +0.000 HD
ENDBRANCH  25  28
BRANCH  26  30
ATOM     30  O3  UNL     1      24.525  -9.953 -42.948  0.00  0.00    +0.000 OA
ATOM     31  H6  UNL     1      23.636 -10.422 -43.085  0.00  0.00    +0.000 HD
ENDBRANCH  26  30
ENDBRANCH  21  22
ENDBRANCH   2  20
TORSDOF 7
ENDMDL
MODEL 3
REMARK VINA RESULT:    -6.945      3.887     10.241
REMARK INTER + INTRA:          -9.607
REMARK INTER:                  -8.817
REMARK INTRA:                  -0.790
REMARK UNBOUND:                -0.430
REMARK  Name = resultss/4CJN/ligands/lig_169_t1.pdb
REMARK  7 active torsions:
REMARK  status: ('A' for Active; 'I' for Inactive)
REMARK    1  A    between atoms: O1_1  and  C1_2
REMARK    2  A    between atoms: C1_2  and  C9_14
REMARK    3  A    between atoms: N1_3  and  N2_4
REMARK    4  A    between atoms: C2_5  and  C3_6
REMARK    5  A    between atoms: C6_9  and  O2_10
REMARK    6  A    between atoms: C7_11  and  O3_12
REMARK    7  A    between atoms: C12_17  and  C13_18
REMARK                            x       y       z     vdW  Elec       q    Type
REMARK                         _______ _______ _______ _____ _____    ______ ____
ROOT
ATOM      1  C1  UNL     1      25.241  -8.797 -39.697  0.00  0.00    +0.000 C 
ATOM      2  N1  UNL     1      25.146  -7.749 -38.932  0.00  0.00    +0.000 NA
ENDROOT
BRANCH   1   3
ATOM      3  C9  UNL     1      26.525  -9.245 -40.284  0.00  0.00    +0.000 A 
ATOM      4  C10 UNL     1      27.363 -10.092 -39.546  0.00  0.00    +0.000 A 
ATOM      5  C11 UNL     1      28.568 -10.547 -40.089  0.00  0.00    +0.000 A 
ATOM      6  C12 UNL     1      28.952 -10.174 -41.389  0.00  0.00    +0.000 A 
ATOM      7  C20 UNL     1      28.097  -9.344 -42.137  0.00  0.00    +0.000 A 
ATOM      8  C21 UNL     1      26.893  -8.890 -41.592  0.00  0.00    +0.000 A 
BRANCH   6   9
ATOM      9  C13 UNL     1      30.231 -10.661 -41.957  0.00  0.00    +0.000 A 
ATOM     10  N3  UNL     1      30.305 -11.680 -42.853  0.00  0.00    +0.000 NA
ATOM     11  C14 UNL     1      31.590 -11.931 -43.213  0.00  0.00    +0.000 A 
ATOM     12  C15 UNL     1      31.975 -12.920 -44.119  0.00  0.00    +0.000 A 
ATOM     13  C16 UNL     1      33.343 -13.077 -44.405  0.00  0.00    +0.000 A 
ATOM     14  C17 UNL     1      34.301 -12.249 -43.787  0.00  0.00    +0.000 A 
ATOM     15  C18 UNL     1      33.901 -11.257 -42.877  0.00  0.00    +0.000 A 
ATOM     16  C19 UNL     1      32.540 -11.124 -42.612  0.00  0.00    +0.000 A 
ATOM     17  S1  UNL     1      31.770 -10.045 -41.586  0.00  0.00    +0.000 S 
ENDBRANCH   6   9
ENDBRANCH   1   3
BRANCH   1  18
ATOM     18  O1  UNL     1      24.095  -9.547 -39.955  0.00  0.00    +0.000 OA
ATOM     19  H1  UNL     1      23.219  -9.342 -39.491  0.00  0.00    +0.000 HD
ENDBRANCH   1  18
BRANCH   2  20
ATOM     20  N2  UNL     1      26.252  -6.973 -38.553  0.00  0.00    +0.000 NA
ATOM     21  C2  UNL     1      26.615  -6.810 -37.316  0.00  0.00    +0.000 C 
BRANCH  21  22
ATOM     22  C3  UNL     1      25.921  -7.437 -36.168  0.00  0.00    +0.000 A 
ATOM     23  C4  UNL     1      25.064  -6.654 -35.383  0.00  0.00    +0.000 A 
ATOM     24  C5  UNL     1      24.412  -7.208 -34.278  0.00  0.00    +0.000 A 
ATOM     25  C6  UNL     1      24.622  -8.546 -33.931  0.00  0.00    +0.000 A 
ATOM     26  C7  UNL     1      25.500  -9.333 -34.693  0.00  0.00    +0.000 A 
ATOM     27  C8  UNL     1      26.153  -8.776 -35.803  0.00  0.00    +0.000 A 
BRANCH  25  28
ATOM     28  O2  UNL     1      23.954  -9.072 -32.826  0.00  0.00    +0.000 OA
ATOM     29  H5  UNL     1      24.399  -9.721 -32.188  0.00  0.00    +0.000 HD
ENDBRANCH  25  28
BRANCH  26  30
ATOM     30  O3  UNL     1      25.728 -10.664 -34.343  0.00  0.00    +0.000 OA
ATOM     31  H6  UNL     1      26.273 -11.282 -34.932  0.00  0.00    +0.000 HD
ENDBRANCH  26  30
ENDBRANCH  21  22
ENDBRANCH   2  20
TORSDOF 7
ENDMDL
MODEL 4
REMARK VINA RESULT:    -6.917      4.926      6.039
REMARK INTER + INTRA:          -9.571
REMARK INTER:                  -9.149
REMARK INTRA:                  -0.422
REMARK UNBOUND:                -0.430
REMARK  Name = resultss/4CJN/ligands/lig_169_t1.pdb
REMARK  7 active torsions:
REMARK  status: ('A' for Active; 'I' for Inactive)
REMARK    1  A    between atoms: O1_1  and  C1_2
REMARK    2  A    between atoms: C1_2  and  C9_14
REMARK    3  A    between atoms: N1_3  and  N2_4
REMARK    4  A    between atoms: C2_5  and  C3_6
REMARK    5  A    between atoms: C6_9  and  O2_10
REMARK    6  A    between atoms: C7_11  and  O3_12
REMARK    7  A    between atoms: C12_17  and  C13_18
REMARK                            x       y       z     vdW  Elec       q    Type
REMARK                         _______ _______ _______ _____ _____    ______ ____
ROOT
ATOM      1  C1  UNL     1      24.298  -9.058 -42.583  0.00  0.00    +0.000 C 
ATOM      2  N1  UNL     1      24.106  -7.959 -43.252  0.00  0.00    +0.000 NA
ENDROOT
BRANCH   1   3
ATOM      3  C9  UNL     1      25.196  -9.131 -41.407  0.00  0.00    +0.000 A 
ATOM      4  C10 UNL     1      24.696  -8.816 -40.136  0.00  0.00    +0.000 A 
ATOM      5  C11 UNL     1      25.518  -8.902 -39.009  0.00  0.00    +0.000 A 
ATOM      6  C12 UNL     1      26.855  -9.319 -39.129  0.00  0.00    +0.000 A 
ATOM      7  C20 UNL     1      27.348  -9.659 -40.402  0.00  0.00    +0.000 A 
ATOM      8  C21 UNL     1      26.524  -9.572 -41.528  0.00  0.00    +0.000 A 
BRANCH   6   9
ATOM      9  C13 UNL     1      27.719  -9.407 -37.929  0.00  0.00    +0.000 A 
ATOM     10  N3  UNL     1      27.227  -9.468 -36.664  0.00  0.00    +0.000 NA
ATOM     11  C14 UNL     1      28.225  -9.541 -35.746  0.00  0.00    +0.000 A 
ATOM     12  C15 UNL     1      28.024  -9.615 -34.367  0.00  0.00    +0.000 A 
ATOM     13  C16 UNL     1      29.148  -9.685 -33.524  0.00  0.00    +0.000 A 
ATOM     14  C17 UNL     1      30.449  -9.681 -34.067  0.00  0.00    +0.000 A 
ATOM     15  C18 UNL     1      30.638  -9.606 -35.456  0.00  0.00    +0.000 A 
ATOM     16  C19 UNL     1      29.508  -9.537 -36.268  0.00  0.00    +0.000 A 
ATOM     17  S1  UNL     1      29.418  -9.441 -37.938  0.00  0.00    +0.000 S 
ENDBRANCH   6   9
ENDBRANCH   1   3
BRANCH   1  18
ATOM     18  O1  UNL     1      23.614 -10.208 -42.969  0.00  0.00    +0.000 OA
ATOM     19  H1  UNL     1      23.888 -11.121 -42.624  0.00  0.00    +0.000 HD
ENDBRANCH   1  18
BRANCH   2  20
ATOM     20  N2  UNL     1      24.689  -6.732 -42.897  0.00  0.00    +0.000 NA
ATOM     21  C2  UNL     1      25.468  -6.061 -43.691  0.00  0.00    +0.000 C 
BRANCH  21  22
ATOM     22  C3  UNL     1      25.814  -6.495 -45.064  0.00  0.00    +0.000 A 
ATOM     23  C4  UNL     1      27.164  -6.573 -45.431  0.00  0.00    +0.000 A 
ATOM     24  C5  UNL     1      27.525  -6.957 -46.726  0.00  0.00    +0.000 A 
ATOM     25  C6  UNL     1      26.541  -7.249 -47.675  0.00  0.00    +0.000 A 
ATOM     26  C7  UNL     1      25.185  -7.146 -47.328  0.00  0.00    +0.000 A 
ATOM     27  C8  UNL     1      24.825  -6.762 -46.027  0.00  0.00    +0.000 A 
BRANCH  25  28
ATOM     28  O2  UNL     1      26.931  -7.632 -48.958  0.00  0.00    +0.000 OA
ATOM     29  H5  UNL     1      27.882  -7.911 -49.171  0.00  0.00    +0.000 HD
ENDBRANCH  25  28
BRANCH  26  30
ATOM     30  O3  UNL     1      24.199  -7.419 -48.276  0.00  0.00    +0.000 OA
ATOM     31  H6  UNL     1      23.339  -6.883 -48.316  0.00  0.00    +0.000 HD
ENDBRANCH  26  30
ENDBRANCH  21  22
ENDBRANCH   2  20
TORSDOF 7
ENDMDL
MODEL 5
REMARK VINA RESULT:    -6.710      4.901      6.030
REMARK INTER + INTRA:          -9.297
REMARK INTER:                  -8.916
REMARK INTRA:                  -0.381
REMARK UNBOUND:                -0.430
REMARK  Name = resultss/4CJN/ligands/lig_169_t1.pdb
REMARK  7 active torsions:
REMARK  status: ('A' for Active; 'I' for Inactive)
REMARK    1  A    between atoms: O1_1  and  C1_2
REMARK    2  A    between atoms: C1_2  and  C9_14
REMARK    3  A    between atoms: N1_3  and  N2_4
REMARK    4  A    between atoms: C2_5  and  C3_6
REMARK    5  A    between atoms: C6_9  and  O2_10
REMARK    6  A    between atoms: C7_11  and  O3_12
REMARK    7  A    between atoms: C12_17  and  C13_18
REMARK                            x       y       z     vdW  Elec       q    Type
REMARK                         _______ _______ _______ _____ _____    ______ ____
ROOT
ATOM      1  C1  UNL     1      24.588  -9.082 -42.414  0.00  0.00    +0.000 C 
ATOM      2  N1  UNL     1      24.620  -8.017 -43.160  0.00  0.00    +0.000 NA
ENDROOT
BRANCH   1   3
ATOM      3  C9  UNL     1      25.317  -9.181 -41.129  0.00  0.00    +0.000 A 
ATOM      4  C10 UNL     1      26.553  -9.841 -41.085  0.00  0.00    +0.000 A 
ATOM      5  C11 UNL     1      27.271  -9.925 -39.889  0.00  0.00    +0.000 A 
ATOM      6  C12 UNL     1      26.773  -9.337 -38.713  0.00  0.00    +0.000 A 
ATOM      7  C20 UNL     1      25.544  -8.653 -38.765  0.00  0.00    +0.000 A 
ATOM      8  C21 UNL     1      24.828  -8.571 -39.962  0.00  0.00    +0.000 A 
BRANCH   6   9
ATOM      9  C13 UNL     1      27.540  -9.432 -37.450  0.00  0.00    +0.000 A 
ATOM     10  N3  UNL     1      28.898  -9.389 -37.401  0.00  0.00    +0.000 NA
ATOM     11  C14 UNL     1      29.352  -9.497 -36.127  0.00  0.00    +0.000 A 
ATOM     12  C15 UNL     1      30.700  -9.484 -35.767  0.00  0.00    +0.000 A 
ATOM     13  C16 UNL     1      31.037  -9.606 -34.407  0.00  0.00    +0.000 A 
ATOM     14  C17 UNL     1      30.029  -9.738 -33.431  0.00  0.00    +0.000 A 
ATOM     15  C18 UNL     1      28.676  -9.749 -33.805  0.00  0.00    +0.000 A 
ATOM     16  C19 UNL     1      28.371  -9.628 -35.159  0.00  0.00    +0.000 A 
ATOM     17  S1  UNL     1      26.868  -9.608 -35.899  0.00  0.00    +0.000 S 
ENDBRANCH   6   9
ENDBRANCH   1   3
BRANCH   1  18
ATOM     18  O1  UNL     1      23.816 -10.167 -42.824  0.00  0.00    +0.000 OA
ATOM     19  H1  UNL     1      23.073 -10.055 -43.504  0.00  0.00    +0.000 HD
ENDBRANCH   1  18
BRANCH   2  20
ATOM     20  N2  UNL     1      25.306  -6.847 -42.797  0.00  0.00    +0.000 NA
ATOM     21  C2  UNL     1      26.037  -6.166 -43.627  0.00  0.00    +0.000 C 
BRANCH  21  22
ATOM     22  C3  UNL     1      26.215  -6.528 -45.052  0.00  0.00    +0.000 A 
ATOM     23  C4  UNL     1      27.500  -6.840 -45.517  0.00  0.00    +0.000 A 
ATOM     24  C5  UNL     1      27.707  -7.163 -46.862  0.00  0.00    +0.000 A 
ATOM     25  C6  UNL     1      26.637  -7.160 -47.762  0.00  0.00    +0.000 A 
ATOM     26  C7  UNL     1      25.350  -6.821 -47.314  0.00  0.00    +0.000 A 
ATOM     27  C8  UNL     1      25.144  -6.499 -45.964  0.00  0.00    +0.000 A 
BRANCH  25  28
ATOM     28  O2  UNL     1      26.874  -7.490 -49.096  0.00  0.00    +0.000 OA
ATOM     29  H5  UNL     1      26.956  -6.785 -49.818  0.00  0.00    +0.000 HD
ENDBRANCH  25  28
BRANCH  26  30
ATOM     30  O3  UNL     1      24.282  -6.799 -48.210  0.00  0.00    +0.000 OA
ATOM     31  H6  UNL     1      23.373  -7.172 -47.961  0.00  0.00    +0.000 HD
ENDBRANCH  26  30
ENDBRANCH  21  22
ENDBRANCH   2  20
TORSDOF 7
ENDMDL
MODEL 6
REMARK VINA RESULT:    -6.604      3.964     10.782
REMARK INTER + INTRA:          -9.157
REMARK INTER:                  -8.639
REMARK INTRA:                  -0.517
REMARK UNBOUND:                -0.430
REMARK  Name = resultss/4CJN/ligands/lig_169_t1.pdb
REMARK  7 active torsions:
REMARK  status: ('A' for Active; 'I' for Inactive)
REMARK    1  A    between atoms: O1_1  and  C1_2
REMARK    2  A    between atoms: C1_2  and  C9_14
REMARK    3  A    between atoms: N1_3  and  N2_4
REMARK    4  A    between atoms: C2_5  and  C3_6
REMARK    5  A    between atoms: C6_9  and  O2_10
REMARK    6  A    between atoms: C7_11  and  O3_12
REMARK    7  A    between atoms: C12_17  and  C13_18
REMARK                            x       y       z     vdW  Elec       q    Type
REMARK                         _______ _______ _______ _____ _____    ______ ____
ROOT
ATOM      1  C1  UNL     1      29.511  -8.023 -39.261  0.00  0.00    +0.000 C 
ATOM      2  N1  UNL     1      28.837  -8.569 -38.292  0.00  0.00    +0.000 NA
ENDROOT
BRANCH   1   3
ATOM      3  C9  UNL     1      30.113  -8.812 -40.361  0.00  0.00    +0.000 A 
ATOM      4  C10 UNL     1      31.448  -9.229 -40.261  0.00  0.00    +0.000 A 
ATOM      5  C11 UNL     1      32.030  -9.995 -41.275  0.00  0.00    +0.000 A 
ATOM      6  C12 UNL     1      31.282 -10.372 -42.405  0.00  0.00    +0.000 A 
ATOM      7  C20 UNL     1      29.936  -9.973 -42.491  0.00  0.00    +0.000 A 
ATOM      8  C21 UNL     1      29.356  -9.207 -41.476  0.00  0.00    +0.000 A 
BRANCH   6   9
ATOM      9  C13 UNL     1      31.908 -11.184 -43.474  0.00  0.00    +0.000 A 
ATOM     10  N3  UNL     1      32.711 -10.654 -44.433  0.00  0.00    +0.000 NA
ATOM     11  C14 UNL     1      33.154 -11.608 -45.292  0.00  0.00    +0.000 A 
ATOM     12  C15 UNL     1      33.995 -11.362 -46.378  0.00  0.00    +0.000 A 
ATOM     13  C16 UNL     1      34.379 -12.443 -47.193  0.00  0.00    +0.000 A 
ATOM     14  C17 UNL     1      33.920 -13.746 -46.913  0.00  0.00    +0.000 A 
ATOM     15  C18 UNL     1      33.074 -13.981 -45.818  0.00  0.00    +0.000 A 
ATOM     16  C19 UNL     1      32.709 -12.893 -45.028  0.00  0.00    +0.000 A 
ATOM     17  S1  UNL     1      31.725 -12.861 -43.672  0.00  0.00    +0.000 S 
ENDBRANCH   6   9
ENDBRANCH   1   3
BRANCH   1  18
ATOM     18  O1  UNL     1      29.653  -6.637 -39.284  0.00  0.00    +0.000 OA
ATOM     19  H1  UNL     1      30.530  -6.196 -39.034  0.00  0.00    +0.000 HD
ENDBRANCH   1  18
BRANCH   2  20
ATOM     20  N2  UNL     1      28.576  -9.947 -38.222  0.00  0.00    +0.000 NA
ATOM     21  C2  UNL     1      28.009 -10.510 -37.197  0.00  0.00    +0.000 C 
BRANCH  21  22
ATOM     22  C3  UNL     1      27.555  -9.768 -35.999  0.00  0.00    +0.000 A 
ATOM     23  C4  UNL     1      28.434  -9.623 -34.917  0.00  0.00    +0.000 A 
ATOM     24  C5  UNL     1      28.030  -8.948 -33.762  0.00  0.00    +0.000 A 
ATOM     25  C6  UNL     1      26.736  -8.428 -33.664  0.00  0.00    +0.000 A 
ATOM     26  C7  UNL     1      25.836  -8.592 -34.729  0.00  0.00    +0.000 A 
ATOM     27  C8  UNL     1      26.245  -9.268 -35.889  0.00  0.00    +0.000 A 
BRANCH  25  28
ATOM     28  O2  UNL     1      26.362  -7.757 -32.500  0.00  0.00    +0.000 OA
ATOM     29  H5  UNL     1      25.526  -8.002 -31.983  0.00  0.00    +0.000 HD
ENDBRANCH  25  28
BRANCH  26  30
ATOM     30  O3  UNL     1      24.539  -8.091 -34.631  0.00  0.00    +0.000 OA
ATOM     31  H6  UNL     1      23.834  -8.550 -34.065  0.00  0.00    +0.000 HD
ENDBRANCH  26  30
ENDBRANCH  21  22
ENDBRANCH   2  20
TORSDOF 7
ENDMDL
MODEL 7
REMARK VINA RESULT:    -6.491      5.525      8.768
REMARK INTER + INTRA:          -9.007
REMARK INTER:                  -8.107
REMARK INTRA:                  -0.900
REMARK UNBOUND:                -0.430
REMARK  Name = resultss/4CJN/ligands/lig_169_t1.pdb
REMARK  7 active torsions:
REMARK  status: ('A' for Active; 'I' for Inactive)
REMARK    1  A    between atoms: O1_1  and  C1_2
REMARK    2  A    between atoms: C1_2  and  C9_14
REMARK    3  A    between atoms: N1_3  and  N2_4
REMARK    4  A    between atoms: C2_5  and  C3_6
REMARK    5  A    between atoms: C6_9  and  O2_10
REMARK    6  A    between atoms: C7_11  and  O3_12
REMARK    7  A    between atoms: C12_17  and  C13_18
REMARK                            x       y       z     vdW  Elec       q    Type
REMARK                         _______ _______ _______ _____ _____    ______ ____
ROOT
ATOM      1  C1  UNL     1      28.244 -10.569 -40.470  0.00  0.00    +0.000 C 
ATOM      2  N1  UNL     1      29.069  -9.895 -39.724  0.00  0.00    +0.000 NA
ENDROOT
BRANCH   1   3
ATOM      3  C9  UNL     1      27.154  -9.926 -41.241  0.00  0.00    +0.000 A 
ATOM      4  C10 UNL     1      25.858  -9.895 -40.710  0.00  0.00    +0.000 A 
ATOM      5  C11 UNL     1      24.820  -9.272 -41.408  0.00  0.00    +0.000 A 
ATOM      6  C12 UNL     1      25.062  -8.654 -42.647  0.00  0.00    +0.000 A 
ATOM      7  C20 UNL     1      26.369  -8.664 -43.167  0.00  0.00    +0.000 A 
ATOM      8  C21 UNL     1      27.406  -9.288 -42.467  0.00  0.00    +0.000 A 
BRANCH   6   9
ATOM      9  C13 UNL     1      23.955  -7.996 -43.381  0.00  0.00    +0.000 A 
ATOM     10  N3  UNL     1      22.715  -7.824 -42.853  0.00  0.00    +0.000 NA
ATOM     11  C14 UNL     1      21.886  -7.197 -43.727  0.00  0.00    +0.000 A 
ATOM     12  C15 UNL     1      20.552  -6.884 -43.463  0.00  0.00    +0.000 A 
ATOM     13  C16 UNL     1      19.802  -6.233 -44.458  0.00  0.00    +0.000 A 
ATOM     14  C17 UNL     1      20.390  -5.905 -45.695  0.00  0.00    +0.000 A 
ATOM     15  C18 UNL     1      21.733  -6.224 -45.950  0.00  0.00    +0.000 A 
ATOM     16  C19 UNL     1      22.453  -6.870 -44.947  0.00  0.00    +0.000 A 
ATOM     17  S1  UNL     1      24.052  -7.371 -44.958  0.00  0.00    +0.000 S 
ENDBRANCH   6   9
ENDBRANCH   1   3
BRANCH   1  18
ATOM     18  O1  UNL     1      28.403 -11.949 -40.571  0.00  0.00    +0.000 OA
ATOM     19  H1  UNL     1      29.288 -12.392 -40.355  0.00  0.00    +0.000 HD
ENDBRANCH   1  18
BRANCH   2  20
ATOM     20  N2  UNL     1      29.038  -8.496 -39.617  0.00  0.00    +0.000 NA
ATOM     21  C2  UNL     1      28.453  -7.871 -38.639  0.00  0.00    +0.000 C 
BRANCH  21  22
ATOM     22  C3  UNL     1      27.772  -8.557 -37.518  0.00  0.00    +0.000 A 
ATOM     23  C4  UNL     1      26.371  -8.620 -37.511  0.00  0.00    +0.000 A 
ATOM     24  C5  UNL     1      25.696  -9.240 -36.455  0.00  0.00    +0.000 A 
ATOM     25  C6  UNL     1      26.409  -9.786 -35.384  0.00  0.00    +0.000 A 
ATOM     26  C7  UNL     1      27.810  -9.704 -35.365  0.00  0.00    +0.000 A 
ATOM     27  C8  UNL     1      28.487  -9.083 -36.427  0.00  0.00    +0.000 A 
BRANCH  25  28
ATOM     28  O2  UNL     1      25.708 -10.401 -34.347  0.00  0.00    +0.000 OA
ATOM     29  H5  UNL     1      24.884  -9.982 -33.932  0.00  0.00    +0.000 HD
ENDBRANCH  25  28
BRANCH  26  30
ATOM     30  O3  UNL     1      28.527 -10.231 -34.292  0.00  0.00    +0.000 OA
ATOM     31  H6  UNL     1      29.361  -9.778 -33.936  0.00  0.00    +0.000 HD
ENDBRANCH  26  30
ENDBRANCH  21  22
ENDBRANCH   2  20
TORSDOF 7
ENDMDL
MODEL 8
REMARK VINA RESULT:    -6.005      5.623      9.229
REMARK INTER + INTRA:          -8.366
REMARK INTER:                  -7.796
REMARK INTRA:                  -0.569
REMARK UNBOUND:                -0.430
REMARK  Name = resultss/4CJN/ligands/lig_169_t1.pdb
REMARK  7 active torsions:
REMARK  status: ('A' for Active; 'I' for Inactive)
REMARK    1  A    between atoms: O1_1  and  C1_2
REMARK    2  A    between atoms: C1_2  and  C9_14
REMARK    3  A    between atoms: N1_3  and  N2_4
REMARK    4  A    between atoms: C2_5  and  C3_6
REMARK    5  A    between atoms: C6_9  and  O2_10
REMARK    6  A    between atoms: C7_11  and  O3_12
REMARK    7  A    between atoms: C12_17  and  C13_18
REMARK                            x       y       z     vdW  Elec       q    Type
REMARK                         _______ _______ _______ _____ _____    ______ ____
ROOT
ATOM      1  C1  UNL     1      27.483 -10.622 -39.694  0.00  0.00    +0.000 C 
ATOM      2  N1  UNL     1      28.067  -9.974 -38.730  0.00  0.00    +0.000 NA
ENDROOT
BRANCH   1   3
ATOM      3  C9  UNL     1      26.695  -9.945 -40.751  0.00  0.00    +0.000 A 
ATOM      4  C10 UNL     1      27.299  -9.655 -41.982  0.00  0.00    +0.000 A 
ATOM      5  C11 UNL     1      26.569  -9.039 -43.002  0.00  0.00    +0.000 A 
ATOM      6  C12 UNL     1      25.214  -8.713 -42.816  0.00  0.00    +0.000 A 
ATOM      7  C20 UNL     1      24.604  -9.028 -41.588  0.00  0.00    +0.000 A 
ATOM      8  C21 UNL     1      25.336  -9.644 -40.569  0.00  0.00    +0.000 A 
BRANCH   6   9
ATOM      9  C13 UNL     1      24.449  -8.060 -43.903  0.00  0.00    +0.000 A 
ATOM     10  N3  UNL     1      24.903  -7.972 -45.181  0.00  0.00    +0.000 NA
ATOM     11  C14 UNL     1      24.015  -7.327 -45.979  0.00  0.00    +0.000 A 
ATOM     12  C15 UNL     1      24.208  -7.087 -47.341  0.00  0.00    +0.000 A 
ATOM     13  C16 UNL     1      23.206  -6.405 -48.055  0.00  0.00    +0.000 A 
ATOM     14  C17 UNL     1      22.033  -5.974 -47.404  0.00  0.00    +0.000 A 
ATOM     15  C18 UNL     1      21.850  -6.222 -46.034  0.00  0.00    +0.000 A 
ATOM     16  C19 UNL     1      22.858  -6.898 -45.351  0.00  0.00    +0.000 A 
ATOM     17  S1  UNL     1      22.923  -7.333 -43.734  0.00  0.00    +0.000 S 
ENDBRANCH   6   9
ENDBRANCH   1   3
BRANCH   1  18
ATOM     18  O1  UNL     1      27.621 -12.007 -39.754  0.00  0.00    +0.000 OA
ATOM     19  H1  UNL     1      28.172 -12.447 -40.482  0.00  0.00    +0.000 HD
ENDBRANCH   1  18
BRANCH   2  20
ATOM     20  N2  UNL     1      28.049  -8.574 -38.625  0.00  0.00    +0.000 NA
ATOM     21  C2  UNL     1      28.426  -7.937 -37.558  0.00  0.00    +0.000 C 
BRANCH  21  22
ATOM     22  C3  UNL     1      28.936  -8.607 -36.339  0.00  0.00    +0.000 A 
ATOM     23  C4  UNL     1      28.036  -8.930 -35.315  0.00  0.00    +0.000 A 
ATOM     24  C5  UNL     1      28.487  -9.541 -34.142  0.00  0.00    +0.000 A 
ATOM     25  C6  UNL     1      29.846  -9.819 -33.968  0.00  0.00    +0.000 A 
ATOM     26  C7  UNL     1      30.763  -9.473 -34.975  0.00  0.00    +0.000 A 
ATOM     27  C8  UNL     1      30.307  -8.862 -36.153  0.00  0.00    +0.000 A 
BRANCH  25  28
ATOM     28  O2  UNL     1      30.267 -10.432 -32.789  0.00  0.00    +0.000 OA
ATOM     29  H5  UNL     1      29.615 -10.860 -32.143  0.00  0.00    +0.000 HD
ENDBRANCH  25  28
BRANCH  26  30
ATOM     30  O3  UNL     1      32.122  -9.732 -34.801  0.00  0.00    +0.000 OA
ATOM     31  H6  UNL     1      32.529 -10.624 -35.057  0.00  0.00    +0.000 HD
ENDBRANCH  26  30
ENDBRANCH  21  22
ENDBRANCH   2  20
TORSDOF 7
ENDMDL
MODEL 9
REMARK VINA RESULT:    -5.899      5.319      7.518
REMARK INTER + INTRA:          -8.225
REMARK INTER:                  -7.757
REMARK INTRA:                  -0.468
REMARK UNBOUND:                -0.430
REMARK  Name = resultss/4CJN/ligands/lig_169_t1.pdb
REMARK  7 active torsions:
REMARK  status: ('A' for Active; 'I' for Inactive)
REMARK    1  A    between atoms: O1_1  and  C1_2
REMARK    2  A    between atoms: C1_2  and  C9_14
REMARK    3  A    between atoms: N1_3  and  N2_4
REMARK    4  A    between atoms: C2_5  and  C3_6
REMARK    5  A    between atoms: C6_9  and  O2_10
REMARK    6  A    between atoms: C7_11  and  O3_12
REMARK    7  A    between atoms: C12_17  and  C13_18
REMARK                            x       y       z     vdW  Elec       q    Type
REMARK                         _______ _______ _______ _____ _____    ______ ____
ROOT
ATOM      1  C1  UNL     1      27.618 -10.554 -39.118  0.00  0.00    +0.000 C 
ATOM      2  N1  UNL     1      26.867  -9.683 -39.727  0.00  0.00    +0.000 NA
ENDROOT
BRANCH   1   3
ATOM      3  C9  UNL     1      28.390 -10.228 -37.897  0.00  0.00    +0.000 A 
ATOM      4  C10 UNL     1      29.762  -9.957 -37.999  0.00  0.00    +0.000 A 
ATOM      5  C11 UNL     1      30.506  -9.623 -36.864  0.00  0.00    +0.000 A 
ATOM      6  C12 UNL     1      29.889  -9.540 -35.604  0.00  0.00    +0.000 A 
ATOM      7  C20 UNL     1      28.507  -9.789 -35.507  0.00  0.00    +0.000 A 
ATOM      8  C21 UNL     1      27.765 -10.123 -36.643  0.00  0.00    +0.000 A 
BRANCH   6   9
ATOM      9  C13 UNL     1      30.686  -9.186 -34.406  0.00  0.00    +0.000 A 
ATOM     10  N3  UNL     1      31.370 -10.103 -33.673  0.00  0.00    +0.000 NA
ATOM     11  C14 UNL     1      32.015  -9.522 -32.630  0.00  0.00    +0.000 A 
ATOM     12  C15 UNL     1      32.798 -10.213 -31.704  0.00  0.00    +0.000 A 
ATOM     13  C16 UNL     1      33.414  -9.489 -30.667  0.00  0.00    +0.000 A 
ATOM     14  C17 UNL     1      33.240  -8.094 -30.569  0.00  0.00    +0.000 A 
ATOM     15  C18 UNL     1      32.450  -7.410 -31.507  0.00  0.00    +0.000 A 
ATOM     16  C19 UNL     1      31.852  -8.151 -32.523  0.00  0.00    +0.000 A 
ATOM     17  S1  UNL     1      30.867  -7.621 -33.771  0.00  0.00    +0.000 S 
ENDBRANCH   6   9
ENDBRANCH   1   3
BRANCH   1  18
ATOM     18  O1  UNL     1      27.680 -11.853 -39.617  0.00  0.00    +0.000 OA
ATOM     19  H1  UNL     1      26.871 -12.293 -40.038  0.00  0.00    +0.000 HD
ENDBRANCH   1  18
BRANCH   2  20
ATOM     20  N2  UNL     1      26.679  -8.373 -39.260  0.00  0.00    +0.000 NA
ATOM     21  C2  UNL     1      26.095  -7.447 -39.960  0.00  0.00    +0.000 C 
BRANCH  21  22
ATOM     22  C3  UNL     1      25.543  -7.668 -41.316  0.00  0.00    +0.000 A 
ATOM     23  C4  UNL     1      26.317  -7.313 -42.430  0.00  0.00    +0.000 A 
ATOM     24  C5  UNL     1      25.817  -7.487 -43.724  0.00  0.00    +0.000 A 
ATOM     25  C6  UNL     1      24.531  -7.998 -43.921  0.00  0.00    +0.000 A 
ATOM     26  C7  UNL     1      23.735  -8.329 -42.813  0.00  0.00    +0.000 A 
ATOM     27  C8  UNL     1      24.239  -8.156 -41.515  0.00  0.00    +0.000 A 
BRANCH  25  28
ATOM     28  O2  UNL     1      24.060  -8.163 -45.224  0.00  0.00    +0.000 OA
ATOM     29  H5  UNL     1      23.478  -8.948 -45.490  0.00  0.00    +0.000 HD
ENDBRANCH  25  28
BRANCH  26  30
ATOM     30  O3  UNL     1      22.444  -8.822 -43.002  0.00  0.00    +0.000 OA
ATOM     31  H6  UNL     1      21.627  -8.299 -42.710  0.00  0.00    +0.000 HD
ENDBRANCH  26  30
ENDBRANCH  21  22
ENDBRANCH   2  20
TORSDOF 7
ENDMDL
