MODEL 1
REMARK VINA RESULT:    -6.765      0.000      0.000
REMARK INTER + INTRA:         -12.629
REMARK INTER:                 -10.917
REMARK INTRA:                  -1.712
REMARK UNBOUND:                -1.712
REMARK  Name = resultss/4CJN/ligands/lig_343_t2.pdb
REMARK  13 active torsions:
REMARK  status: ('A' for Active; 'I' for Inactive)
REMARK    1  A    between atoms: C1_1  and  O1_2
REMARK    2  A    between atoms: O1_2  and  C2_3
REMARK    3  A    between atoms: C4_5  and  C5_6
REMARK    4  A    between atoms: C12_14  and  O2_15
REMARK    5  A    between atoms: N2_16  and  N3_17
REMARK    6  A    between atoms: N3_17  and  C13_18
REMARK    7  A    between atoms: C21_26  and  O3_27
REMARK    8  A    between atoms: O3_27  and  C22_28
REMARK    9  A    between atoms: C22_28  and  C23_29
REMARK   10  A    between atoms: N4_31  and  C25_32
REMARK   11  A    between atoms: C25_32  and  C26_33
REMARK   12  A    between atoms: N5_35  and  C27_36
REMARK   13  A    between atoms: C30_39  and  C31_40
REMARK                            x       y       z     vdW  Elec       q    Type
REMARK                         _______ _______ _______ _____ _____    ______ ____
ROOT
ATOM      1  C2  UNL     1      26.043  -6.649 -40.370  0.00  0.00    +0.000 A 
ATOM      2  C3  UNL     1      26.006  -6.127 -39.063  0.00  0.00    +0.000 A 
ATOM      3  C4  UNL     1      25.541  -6.908 -37.992  0.00  0.00    +0.000 A 
ATOM      4  C19 UNL     1      25.110  -8.220 -38.240  0.00  0.00    +0.000 A 
ATOM      5  C20 UNL     1      25.155  -8.748 -39.530  0.00  0.00    +0.000 A 
ATOM      6  C21 UNL     1      25.615  -7.966 -40.605  0.00  0.00    +0.000 A 
ENDROOT
BRANCH   3   7
ATOM      7  C5  UNL     1      25.471  -6.329 -36.598  0.00  0.00    +0.000 C 
ATOM      8  N1  UNL     1      24.162  -6.635 -36.015  0.00  0.00    +0.000 NA
ATOM      9  C6  UNL     1      23.962  -7.474 -35.041  0.00  0.00    +0.000 A 
ATOM     10  C7  UNL     1      22.645  -7.726 -34.631  0.00  0.00    +0.000 A 
ATOM     11  C8  UNL     1      22.385  -8.645 -33.611  0.00  0.00    +0.000 A 
ATOM     12  C9  UNL     1      23.441  -9.310 -32.984  0.00  0.00    +0.000 A 
ATOM     13  C10 UNL     1      24.760  -9.056 -33.371  0.00  0.00    +0.000 A 
ATOM     14  C11 UNL     1      25.039  -8.128 -34.397  0.00  0.00    +0.000 A 
ATOM     15  C12 UNL     1      26.308  -7.836 -34.744  0.00  0.00    +0.000 C 
ATOM     16  N2  UNL     1      26.566  -6.859 -35.771  0.00  0.00    +0.000 N 
BRANCH  15  17
ATOM     17  O2  UNL     1      27.373  -8.459 -34.086  0.00  0.00    +0.000 OA
ATOM     18  H10 UNL     1      27.376  -9.448 -33.874  0.00  0.00    +0.000 HD
ENDBRANCH  15  17
BRANCH  16  19
ATOM     19  N3  UNL     1      27.892  -6.569 -36.134  0.00  0.00    +0.000 N 
ATOM     20  H11 UNL     1      28.164  -5.571 -36.289  0.00  0.00    +0.000 HD
BRANCH  19  21
ATOM     21  C13 UNL     1      28.869  -7.600 -36.355  0.00  0.00    +0.000 A 
ATOM     22  C14 UNL     1      30.117  -7.578 -35.707  0.00  0.00    +0.000 A 
ATOM     23  C15 UNL     1      31.044  -8.602 -35.931  0.00  0.00    +0.000 A 
ATOM     24  C16 UNL     1      30.731  -9.661 -36.789  0.00  0.00    +0.000 A 
ATOM     25  C17 UNL     1      29.489  -9.696 -37.426  0.00  0.00    +0.000 A 
ATOM     26  C18 UNL     1      28.561  -8.672 -37.210  0.00  0.00    +0.000 A 
ENDBRANCH  19  21
ENDBRANCH  16  19
ENDBRANCH   3   7
BRANCH   1  28
ATOM     27  C1  UNL     1      27.838  -5.883 -41.939  0.00  0.00    +0.000 C 
ATOM     28  O1  UNL     1      26.495  -5.892 -41.462  0.00  0.00    +0.000 OA
ENDBRANCH   1  28
BRANCH   6  29
ATOM     29  O3  UNL     1      25.654  -8.455 -41.919  0.00  0.00    +0.000 OA
BRANCH  29  30
ATOM     30  C22 UNL     1      26.166  -9.732 -42.292  0.00  0.00    +0.000 C 
BRANCH  30  31
ATOM     31  C23 UNL     1      27.510  -9.925 -41.675  0.00  0.00    +0.000 A 
ATOM     32  C24 UNL     1      28.607  -9.098 -41.804  0.00  0.00    +0.000 A 
ATOM     33  N4  UNL     1      29.582  -9.663 -41.075  0.00  0.00    +0.000 N 
ATOM     34  N6  UNL     1      29.116 -10.780 -40.537  0.00  0.00    +0.000 NA
ATOM     35  N7  UNL     1      27.847 -10.962 -40.881  0.00  0.00    +0.000 NA
BRANCH  33  36
ATOM     36  C25 UNL     1      30.964  -9.211 -40.970  0.00  0.00    +0.000 C 
BRANCH  36  37
ATOM     37  C26 UNL     1      31.853 -10.117 -41.763  0.00  0.00    +0.000 C 
ATOM     38  O4  UNL     1      33.093 -10.135 -41.530  0.00  0.00    +0.000 OA
ATOM     39  N5  UNL     1      31.285 -10.969 -42.770  0.00  0.00    +0.000 N 
ATOM     40  H24 UNL     1      30.269 -11.204 -42.693  0.00  0.00    +0.000 HD
BRANCH  39  41
ATOM     41  C27 UNL     1      32.037 -11.562 -43.842  0.00  0.00    +0.000 A 
ATOM     42  C28 UNL     1      32.002 -12.955 -44.016  0.00  0.00    +0.000 A 
ATOM     43  C29 UNL     1      32.689 -13.554 -45.076  0.00  0.00    +0.000 A 
ATOM     44  C30 UNL     1      33.421 -12.770 -45.979  0.00  0.00    +0.000 A 
ATOM     45  C31 UNL     1      34.110 -13.406 -47.148  0.00  0.00    +0.000 C 
ATOM     46  C32 UNL     1      33.433 -11.374 -45.827  0.00  0.00    +0.000 A 
ATOM     47  C33 UNL     1      32.745 -10.773 -44.769  0.00  0.00    +0.000 A 
ENDBRANCH  39  41
ENDBRANCH  36  37
ENDBRANCH  33  36
ENDBRANCH  30  31
ENDBRANCH  29  30
ENDBRANCH   6  29
TORSDOF 11
ENDMDL
MODEL 2
REMARK VINA RESULT:    -6.740      2.313      9.477
REMARK INTER + INTRA:         -12.589
REMARK INTER:                 -10.353
REMARK INTRA:                  -2.236
REMARK UNBOUND:                -1.712
REMARK  Name = resultss/4CJN/ligands/lig_343_t2.pdb
REMARK  13 active torsions:
REMARK  status: ('A' for Active; 'I' for Inactive)
REMARK    1  A    between atoms: C1_1  and  O1_2
REMARK    2  A    between atoms: O1_2  and  C2_3
REMARK    3  A    between atoms: C4_5  and  C5_6
REMARK    4  A    between atoms: C12_14  and  O2_15
REMARK    5  A    between atoms: N2_16  and  N3_17
REMARK    6  A    between atoms: N3_17  and  C13_18
REMARK    7  A    between atoms: C21_26  and  O3_27
REMARK    8  A    between atoms: O3_27  and  C22_28
REMARK    9  A    between atoms: C22_28  and  C23_29
REMARK   10  A    between atoms: N4_31  and  C25_32
REMARK   11  A    between atoms: C25_32  and  C26_33
REMARK   12  A    between atoms: N5_35  and  C27_36
REMARK   13  A    between atoms: C30_39  and  C31_40
REMARK                            x       y       z     vdW  Elec       q    Type
REMARK                         _______ _______ _______ _____ _____    ______ ____
ROOT
ATOM      1  C2  UNL     1      28.965  -8.837 -43.357  0.00  0.00    +0.000 A 
ATOM      2  C3  UNL     1      30.136  -9.615 -43.287  0.00  0.00    +0.000 A 
ATOM      3  C4  UNL     1      30.216 -10.711 -42.412  0.00  0.00    +0.000 A 
ATOM      4  C19 UNL     1      29.111 -11.022 -41.604  0.00  0.00    +0.000 A 
ATOM      5  C20 UNL     1      27.944 -10.263 -41.678  0.00  0.00    +0.000 A 
ATOM      6  C21 UNL     1      27.864  -9.162 -42.549  0.00  0.00    +0.000 A 
ENDROOT
BRANCH   3   7
ATOM      7  C5  UNL     1      31.489 -11.520 -42.315  0.00  0.00    +0.000 C 
ATOM      8  N1  UNL     1      31.422 -12.638 -43.260  0.00  0.00    +0.000 NA
ATOM      9  C6  UNL     1      32.138 -12.738 -44.342  0.00  0.00    +0.000 A 
ATOM     10  C7  UNL     1      31.917 -13.827 -45.196  0.00  0.00    +0.000 A 
ATOM     11  C8  UNL     1      32.642 -13.953 -46.384  0.00  0.00    +0.000 A 
ATOM     12  C9  UNL     1      33.601 -12.997 -46.721  0.00  0.00    +0.000 A 
ATOM     13  C10 UNL     1      33.844 -11.914 -45.872  0.00  0.00    +0.000 A 
ATOM     14  C11 UNL     1      33.123 -11.775 -44.666  0.00  0.00    +0.000 A 
ATOM     15  C12 UNL     1      33.383 -10.764 -43.813  0.00  0.00    +0.000 C 
ATOM     16  N2  UNL     1      32.656 -10.665 -42.573  0.00  0.00    +0.000 N 
BRANCH  15  17
ATOM     17  O2  UNL     1      34.379  -9.831 -44.119  0.00  0.00    +0.000 OA
ATOM     18  H10 UNL     1      34.836  -9.273 -43.409  0.00  0.00    +0.000 HD
ENDBRANCH  15  17
BRANCH  16  19
ATOM     19  N3  UNL     1      32.926  -9.601 -41.694  0.00  0.00    +0.000 N 
ATOM     20  H11 UNL     1      33.075  -8.646 -42.093  0.00  0.00    +0.000 HD
BRANCH  19  21
ATOM     21  C13 UNL     1      33.061  -9.795 -40.276  0.00  0.00    +0.000 A 
ATOM     22  C14 UNL     1      34.258 -10.270 -39.712  0.00  0.00    +0.000 A 
ATOM     23  C15 UNL     1      34.366 -10.438 -38.327  0.00  0.00    +0.000 A 
ATOM     24  C16 UNL     1      33.288 -10.122 -37.494  0.00  0.00    +0.000 A 
ATOM     25  C17 UNL     1      32.100  -9.638 -38.046  0.00  0.00    +0.000 A 
ATOM     26  C18 UNL     1      31.986  -9.474 -39.430  0.00  0.00    +0.000 A 
ENDBRANCH  19  21
ENDBRANCH  16  19
ENDBRANCH   3   7
BRANCH   1  28
ATOM     27  C1  UNL     1      28.373  -7.792 -45.555  0.00  0.00    +0.000 C 
ATOM     28  O1  UNL     1      28.856  -7.731 -44.216  0.00  0.00    +0.000 OA
ENDBRANCH   1  28
BRANCH   6  29
ATOM     29  O3  UNL     1      26.714  -8.362 -42.635  0.00  0.00    +0.000 OA
BRANCH  29  30
ATOM     30  C22 UNL     1      25.484  -8.641 -41.972  0.00  0.00    +0.000 C 
BRANCH  30  31
ATOM     31  C23 UNL     1      25.547  -8.122 -40.574  0.00  0.00    +0.000 A 
ATOM     32  C24 UNL     1      25.242  -8.814 -39.421  0.00  0.00    +0.000 A 
ATOM     33  N4  UNL     1      25.449  -7.954 -38.411  0.00  0.00    +0.000 N 
ATOM     34  N6  UNL     1      25.846  -6.795 -38.915  0.00  0.00    +0.000 NA
ATOM     35  N7  UNL     1      25.923  -6.872 -40.237  0.00  0.00    +0.000 NA
BRANCH  33  36
ATOM     36  C25 UNL     1      25.176  -8.188 -36.997  0.00  0.00    +0.000 C 
BRANCH  36  37
ATOM     37  C26 UNL     1      26.336  -8.898 -36.371  0.00  0.00    +0.000 C 
ATOM     38  O4  UNL     1      26.321 -10.157 -36.282  0.00  0.00    +0.000 OA
ATOM     39  N5  UNL     1      27.460  -8.143 -35.894  0.00  0.00    +0.000 N 
ATOM     40  H24 UNL     1      27.613  -7.191 -36.296  0.00  0.00    +0.000 HD
BRANCH  39  41
ATOM     41  C27 UNL     1      28.417  -8.637 -34.942  0.00  0.00    +0.000 A 
ATOM     42  C28 UNL     1      29.518  -9.379 -35.397  0.00  0.00    +0.000 A 
ATOM     43  C29 UNL     1      30.487  -9.835 -34.499  0.00  0.00    +0.000 A 
ATOM     44  C30 UNL     1      30.370  -9.555 -33.129  0.00  0.00    +0.000 A 
ATOM     45  C31 UNL     1      31.437  -9.995 -32.173  0.00  0.00    +0.000 C 
ATOM     46  C32 UNL     1      29.287  -8.788 -32.673  0.00  0.00    +0.000 A 
ATOM     47  C33 UNL     1      28.318  -8.329 -33.571  0.00  0.00    +0.000 A 
ENDBRANCH  39  41
ENDBRANCH  36  37
ENDBRANCH  33  36
ENDBRANCH  30  31
ENDBRANCH  29  30
ENDBRANCH   6  29
TORSDOF 11
ENDMDL
MODEL 3
REMARK VINA RESULT:    -6.730      2.211      8.827
REMARK INTER + INTRA:         -12.574
REMARK INTER:                 -10.136
REMARK INTRA:                  -2.438
REMARK UNBOUND:                -1.712
REMARK  Name = resultss/4CJN/ligands/lig_343_t2.pdb
REMARK  13 active torsions:
REMARK  status: ('A' for Active; 'I' for Inactive)
REMARK    1  A    between atoms: C1_1  and  O1_2
REMARK    2  A    between atoms: O1_2  and  C2_3
REMARK    3  A    between atoms: C4_5  and  C5_6
REMARK    4  A    between atoms: C12_14  and  O2_15
REMARK    5  A    between atoms: N2_16  and  N3_17
REMARK    6  A    between atoms: N3_17  and  C13_18
REMARK    7  A    between atoms: C21_26  and  O3_27
REMARK    8  A    between atoms: O3_27  and  C22_28
REMARK    9  A    between atoms: C22_28  and  C23_29
REMARK   10  A    between atoms: N4_31  and  C25_32
REMARK   11  A    between atoms: C25_32  and  C26_33
REMARK   12  A    between atoms: N5_35  and  C27_36
REMARK   13  A    between atoms: C30_39  and  C31_40
REMARK                            x       y       z     vdW  Elec       q    Type
REMARK                         _______ _______ _______ _____ _____    ______ ____
ROOT
ATOM      1  C2  UNL     1      27.987  -7.933 -43.505  0.00  0.00    +0.000 A 
ATOM      2  C3  UNL     1      28.916  -8.756 -42.840  0.00  0.00    +0.000 A 
ATOM      3  C4  UNL     1      28.483  -9.851 -42.074  0.00  0.00    +0.000 A 
ATOM      4  C19 UNL     1      27.108 -10.116 -41.977  0.00  0.00    +0.000 A 
ATOM      5  C20 UNL     1      26.183  -9.312 -42.642  0.00  0.00    +0.000 A 
ATOM      6  C21 UNL     1      26.615  -8.212 -43.405  0.00  0.00    +0.000 A 
ENDROOT
BRANCH   3   7
ATOM      7  C5  UNL     1      29.483 -10.709 -41.334  0.00  0.00    +0.000 C 
ATOM      8  N1  UNL     1      30.036 -11.706 -42.254  0.00  0.00    +0.000 NA
ATOM      9  C6  UNL     1      31.257 -11.704 -42.703  0.00  0.00    +0.000 A 
ATOM     10  C7  UNL     1      31.632 -12.679 -43.638  0.00  0.00    +0.000 A 
ATOM     11  C8  UNL     1      32.924 -12.690 -44.169  0.00  0.00    +0.000 A 
ATOM     12  C9  UNL     1      33.855 -11.734 -43.761  0.00  0.00    +0.000 A 
ATOM     13  C10 UNL     1      33.502 -10.767 -42.816  0.00  0.00    +0.000 A 
ATOM     14  C11 UNL     1      32.202 -10.744 -42.267  0.00  0.00    +0.000 A 
ATOM     15  C12 UNL     1      31.864  -9.849 -41.318  0.00  0.00    +0.000 C 
ATOM     16  N2  UNL     1      30.540  -9.870 -40.750  0.00  0.00    +0.000 N 
BRANCH  15  17
ATOM     17  O2  UNL     1      32.807  -8.922 -40.865  0.00  0.00    +0.000 OA
ATOM     18  H10 UNL     1      32.573  -7.954 -40.684  0.00  0.00    +0.000 HD
ENDBRANCH  15  17
BRANCH  16  19
ATOM     19  N3  UNL     1      30.192  -8.926 -39.768  0.00  0.00    +0.000 N 
ATOM     20  H11 UNL     1      30.340  -7.911 -39.972  0.00  0.00    +0.000 HD
BRANCH  19  21
ATOM     21  C13 UNL     1      29.695  -9.312 -38.476  0.00  0.00    +0.000 A 
ATOM     22  C14 UNL     1      30.538  -9.357 -37.351  0.00  0.00    +0.000 A 
ATOM     23  C15 UNL     1      30.025  -9.725 -36.101  0.00  0.00    +0.000 A 
ATOM     24  C16 UNL     1      28.669 -10.037 -35.962  0.00  0.00    +0.000 A 
ATOM     25  C17 UNL     1      27.824  -9.983 -37.072  0.00  0.00    +0.000 A 
ATOM     26  C18 UNL     1      28.333  -9.621 -38.323  0.00  0.00    +0.000 A 
ENDBRANCH  19  21
ENDBRANCH  16  19
ENDBRANCH   3   7
BRANCH   1  28
ATOM     27  C1  UNL     1      28.238  -6.727 -45.686  0.00  0.00    +0.000 C 
ATOM     28  O1  UNL     1      28.388  -6.827 -44.272  0.00  0.00    +0.000 OA
ENDBRANCH   1  28
BRANCH   6  29
ATOM     29  O3  UNL     1      25.712  -7.368 -44.071  0.00  0.00    +0.000 OA
BRANCH  29  30
ATOM     30  C22 UNL     1      24.478  -6.912 -43.525  0.00  0.00    +0.000 C 
BRANCH  30  31
ATOM     31  C23 UNL     1      24.660  -6.609 -42.075  0.00  0.00    +0.000 A 
ATOM     32  C24 UNL     1      23.800  -6.933 -41.048  0.00  0.00    +0.000 A 
ATOM     33  N4  UNL     1      24.374  -6.470 -39.926  0.00  0.00    +0.000 N 
ATOM     34  N6  UNL     1      25.517  -5.883 -40.247  0.00  0.00    +0.000 NA
ATOM     35  N7  UNL     1      25.722  -5.960 -41.556  0.00  0.00    +0.000 NA
BRANCH  33  36
ATOM     36  C25 UNL     1      23.805  -6.489 -38.584  0.00  0.00    +0.000 C 
BRANCH  36  37
ATOM     37  C26 UNL     1      24.746  -7.179 -37.647  0.00  0.00    +0.000 C 
ATOM     38  O4  UNL     1      24.679  -8.432 -37.507  0.00  0.00    +0.000 OA
ATOM     39  N5  UNL     1      25.725  -6.413 -36.928  0.00  0.00    +0.000 N 
ATOM     40  H24 UNL     1      25.999  -5.484 -37.319  0.00  0.00    +0.000 HD
BRANCH  39  41
ATOM     41  C27 UNL     1      26.391  -6.870 -35.738  0.00  0.00    +0.000 A 
ATOM     42  C28 UNL     1      27.683  -6.401 -35.452  0.00  0.00    +0.000 A 
ATOM     43  C29 UNL     1      28.336  -6.794 -34.281  0.00  0.00    +0.000 A 
ATOM     44  C30 UNL     1      27.708  -7.663 -33.377  0.00  0.00    +0.000 A 
ATOM     45  C31 UNL     1      28.385  -8.039 -32.093  0.00  0.00    +0.000 C 
ATOM     46  C32 UNL     1      26.404  -8.109 -33.643  0.00  0.00    +0.000 A 
ATOM     47  C33 UNL     1      25.748  -7.714 -34.813  0.00  0.00    +0.000 A 
ENDBRANCH  39  41
ENDBRANCH  36  37
ENDBRANCH  33  36
ENDBRANCH  30  31
ENDBRANCH  29  30
ENDBRANCH   6  29
TORSDOF 11
ENDMDL
MODEL 4
REMARK VINA RESULT:    -6.683      3.096      5.551
REMARK INTER + INTRA:         -12.498
REMARK INTER:                 -10.257
REMARK INTRA:                  -2.241
REMARK UNBOUND:                -1.712
REMARK  Name = resultss/4CJN/ligands/lig_343_t2.pdb
REMARK  13 active torsions:
REMARK  status: ('A' for Active; 'I' for Inactive)
REMARK    1  A    between atoms: C1_1  and  O1_2
REMARK    2  A    between atoms: O1_2  and  C2_3
REMARK    3  A    between atoms: C4_5  and  C5_6
REMARK    4  A    between atoms: C12_14  and  O2_15
REMARK    5  A    between atoms: N2_16  and  N3_17
REMARK    6  A    between atoms: N3_17  and  C13_18
REMARK    7  A    between atoms: C21_26  and  O3_27
REMARK    8  A    between atoms: O3_27  and  C22_28
REMARK    9  A    between atoms: C22_28  and  C23_29
REMARK   10  A    between atoms: N4_31  and  C25_32
REMARK   11  A    between atoms: C25_32  and  C26_33
REMARK   12  A    between atoms: N5_35  and  C27_36
REMARK   13  A    between atoms: C30_39  and  C31_40
REMARK                            x       y       z     vdW  Elec       q    Type
REMARK                         _______ _______ _______ _____ _____    ______ ____
ROOT
ATOM      1  C2  UNL     1      28.855  -9.877 -35.945  0.00  0.00    +0.000 A 
ATOM      2  C3  UNL     1      29.713  -9.624 -34.858  0.00  0.00    +0.000 A 
ATOM      3  C4  UNL     1      29.204  -9.129 -33.645  0.00  0.00    +0.000 A 
ATOM      4  C19 UNL     1      27.827  -8.887 -33.530  0.00  0.00    +0.000 A 
ATOM      5  C20 UNL     1      26.970  -9.146 -34.599  0.00  0.00    +0.000 A 
ATOM      6  C21 UNL     1      27.478  -9.636 -35.816  0.00  0.00    +0.000 A 
ENDROOT
BRANCH   3   7
ATOM      7  C5  UNL     1      30.135  -8.827 -32.493  0.00  0.00    +0.000 C 
ATOM      8  N1  UNL     1      30.592 -10.086 -31.900  0.00  0.00    +0.000 NA
ATOM      9  C6  UNL     1      31.804 -10.550 -31.987  0.00  0.00    +0.000 A 
ATOM     10  C7  UNL     1      32.085 -11.807 -31.433  0.00  0.00    +0.000 A 
ATOM     11  C8  UNL     1      33.366 -12.355 -31.535  0.00  0.00    +0.000 A 
ATOM     12  C9  UNL     1      34.380 -11.645 -32.181  0.00  0.00    +0.000 A 
ATOM     13  C10 UNL     1      34.120 -10.384 -32.723  0.00  0.00    +0.000 A 
ATOM     14  C11 UNL     1      32.831  -9.814 -32.625  0.00  0.00    +0.000 A 
ATOM     15  C12 UNL     1      32.580  -8.578 -33.098  0.00  0.00    +0.000 C 
ATOM     16  N2  UNL     1      31.265  -8.007 -32.954  0.00  0.00    +0.000 N 
BRANCH  15  17
ATOM     17  O2  UNL     1      33.603  -7.839 -33.700  0.00  0.00    +0.000 OA
ATOM     18  H10 UNL     1      34.515  -8.233 -33.895  0.00  0.00    +0.000 HD
ENDBRANCH  15  17
BRANCH  16  19
ATOM     19  N3  UNL     1      31.009  -6.721 -33.460  0.00  0.00    +0.000 N 
ATOM     20  H11 UNL     1      31.010  -5.911 -32.798  0.00  0.00    +0.000 HD
BRANCH  19  21
ATOM     21  C13 UNL     1      30.689  -6.492 -34.843  0.00  0.00    +0.000 A 
ATOM     22  C14 UNL     1      31.646  -6.680 -35.856  0.00  0.00    +0.000 A 
ATOM     23  C15 UNL     1      31.305  -6.462 -37.196  0.00  0.00    +0.000 A 
ATOM     24  C16 UNL     1      30.007  -6.069 -37.536  0.00  0.00    +0.000 A 
ATOM     25  C17 UNL     1      29.048  -5.892 -36.536  0.00  0.00    +0.000 A 
ATOM     26  C18 UNL     1      29.386  -6.103 -35.196  0.00  0.00    +0.000 A 
ENDBRANCH  19  21
ENDBRANCH  16  19
ENDBRANCH   3   7
BRANCH   1  28
ATOM     27  C1  UNL     1      30.582 -10.001 -37.755  0.00  0.00    +0.000 C 
ATOM     28  O1  UNL     1      29.333 -10.364 -37.172  0.00  0.00    +0.000 OA
ENDBRANCH   1  28
BRANCH   6  29
ATOM     29  O3  UNL     1      26.650  -9.888 -36.920  0.00  0.00    +0.000 OA
BRANCH  29  30
ATOM     30  C22 UNL     1      26.025  -8.880 -37.710  0.00  0.00    +0.000 C 
BRANCH  30  31
ATOM     31  C23 UNL     1      26.649  -8.856 -39.065  0.00  0.00    +0.000 A 
ATOM     32  C24 UNL     1      27.857  -8.288 -39.410  0.00  0.00    +0.000 A 
ATOM     33  N4  UNL     1      28.009  -8.514 -40.724  0.00  0.00    +0.000 N 
ATOM     34  N6  UNL     1      26.948  -9.173 -41.166  0.00  0.00    +0.000 NA
ATOM     35  N7  UNL     1      26.102  -9.403 -40.170  0.00  0.00    +0.000 NA
BRANCH  33  36
ATOM     36  C25 UNL     1      29.089  -8.026 -41.573  0.00  0.00    +0.000 C 
BRANCH  36  37
ATOM     37  C26 UNL     1      30.106  -9.107 -41.767  0.00  0.00    +0.000 C 
ATOM     38  O4  UNL     1      31.164  -9.099 -41.078  0.00  0.00    +0.000 OA
ATOM     39  N5  UNL     1      29.862 -10.152 -42.721  0.00  0.00    +0.000 N 
ATOM     40  H24 UNL     1      28.871 -10.342 -42.993  0.00  0.00    +0.000 HD
BRANCH  39  41
ATOM     41  C27 UNL     1      30.889 -10.989 -43.280  0.00  0.00    +0.000 A 
ATOM     42  C28 UNL     1      31.856 -10.418 -44.123  0.00  0.00    +0.000 A 
ATOM     43  C29 UNL     1      32.891 -11.198 -44.646  0.00  0.00    +0.000 A 
ATOM     44  C30 UNL     1      32.976 -12.563 -44.333  0.00  0.00    +0.000 A 
ATOM     45  C31 UNL     1      34.117 -13.388 -44.847  0.00  0.00    +0.000 C 
ATOM     46  C32 UNL     1      32.030 -13.131 -43.466  0.00  0.00    +0.000 A 
ATOM     47  C33 UNL     1      30.995 -12.351 -42.940  0.00  0.00    +0.000 A 
ENDBRANCH  39  41
ENDBRANCH  36  37
ENDBRANCH  33  36
ENDBRANCH  30  31
ENDBRANCH  29  30
ENDBRANCH   6  29
TORSDOF 11
ENDMDL
MODEL 5
REMARK VINA RESULT:    -6.667      2.789      9.075
REMARK INTER + INTRA:         -12.471
REMARK INTER:                  -9.886
REMARK INTRA:                  -2.585
REMARK UNBOUND:                -1.712
REMARK  Name = resultss/4CJN/ligands/lig_343_t2.pdb
REMARK  13 active torsions:
REMARK  status: ('A' for Active; 'I' for Inactive)
REMARK    1  A    between atoms: C1_1  and  O1_2
REMARK    2  A    between atoms: O1_2  and  C2_3
REMARK    3  A    between atoms: C4_5  and  C5_6
REMARK    4  A    between atoms: C12_14  and  O2_15
REMARK    5  A    between atoms: N2_16  and  N3_17
REMARK    6  A    between atoms: N3_17  and  C13_18
REMARK    7  A    between atoms: C21_26  and  O3_27
REMARK    8  A    between atoms: O3_27  and  C22_28
REMARK    9  A    between atoms: C22_28  and  C23_29
REMARK   10  A    between atoms: N4_31  and  C25_32
REMARK   11  A    between atoms: C25_32  and  C26_33
REMARK   12  A    between atoms: N5_35  and  C27_36
REMARK   13  A    between atoms: C30_39  and  C31_40
REMARK                            x       y       z     vdW  Elec       q    Type
REMARK                         _______ _______ _______ _____ _____    ______ ____
ROOT
ATOM      1  C2  UNL     1      30.456  -9.284 -41.546  0.00  0.00    +0.000 A 
ATOM      2  C3  UNL     1      29.446  -8.466 -42.086  0.00  0.00    +0.000 A 
ATOM      3  C4  UNL     1      29.238  -7.166 -41.595  0.00  0.00    +0.000 A 
ATOM      4  C19 UNL     1      30.050  -6.691 -40.555  0.00  0.00    +0.000 A 
ATOM      5  C20 UNL     1      31.061  -7.491 -40.023  0.00  0.00    +0.000 A 
ATOM      6  C21 UNL     1      31.267  -8.795 -40.509  0.00  0.00    +0.000 A 
ENDROOT
BRANCH   3   7
ATOM      7  C5  UNL     1      28.128  -6.307 -42.155  0.00  0.00    +0.000 C 
ATOM      8  N1  UNL     1      28.482  -5.887 -43.513  0.00  0.00    +0.000 NA
ATOM      9  C6  UNL     1      27.900  -6.312 -44.596  0.00  0.00    +0.000 A 
ATOM     10  C7  UNL     1      28.391  -5.883 -45.837  0.00  0.00    +0.000 A 
ATOM     11  C8  UNL     1      27.815  -6.343 -47.024  0.00  0.00    +0.000 A 
ATOM     12  C9  UNL     1      26.735  -7.226 -46.979  0.00  0.00    +0.000 A 
ATOM     13  C10 UNL     1      26.223  -7.650 -45.750  0.00  0.00    +0.000 A 
ATOM     14  C11 UNL     1      26.792  -7.191 -44.541  0.00  0.00    +0.000 A 
ATOM     15  C12 UNL     1      26.276  -7.552 -43.350  0.00  0.00    +0.000 C 
ATOM     16  N2  UNL     1      26.854  -7.042 -42.133  0.00  0.00    +0.000 N 
BRANCH  15  17
ATOM     17  O2  UNL     1      25.162  -8.394 -43.297  0.00  0.00    +0.000 OA
ATOM     18  H10 UNL     1      24.290  -8.172 -43.761  0.00  0.00    +0.000 HD
ENDBRANCH  15  17
BRANCH  16  19
ATOM     19  N3  UNL     1      26.317  -7.431 -40.894  0.00  0.00    +0.000 N 
ATOM     20  H11 UNL     1      25.567  -6.843 -40.465  0.00  0.00    +0.000 HD
BRANCH  19  21
ATOM     21  C13 UNL     1      26.805  -8.576 -40.173  0.00  0.00    +0.000 A 
ATOM     22  C14 UNL     1      26.773  -9.863 -40.738  0.00  0.00    +0.000 A 
ATOM     23  C15 UNL     1      27.267 -10.959 -40.019  0.00  0.00    +0.000 A 
ATOM     24  C16 UNL     1      27.805 -10.777 -38.741  0.00  0.00    +0.000 A 
ATOM     25  C17 UNL     1      27.851  -9.499 -38.180  0.00  0.00    +0.000 A 
ATOM     26  C18 UNL     1      27.354  -8.403 -38.892  0.00  0.00    +0.000 A 
ENDBRANCH  19  21
ENDBRANCH  16  19
ENDBRANCH   3   7
BRANCH   1  28
ATOM     27  C1  UNL     1      31.172 -10.912 -43.309  0.00  0.00    +0.000 C 
ATOM     28  O1  UNL     1      30.685 -10.589 -42.009  0.00  0.00    +0.000 OA
ENDBRANCH   1  28
BRANCH   6  29
ATOM     29  O3  UNL     1      32.260  -9.637 -39.985  0.00  0.00    +0.000 OA
BRANCH  29  30
ATOM     30  C22 UNL     1      33.126  -9.292 -38.907  0.00  0.00    +0.000 C 
BRANCH  30  31
ATOM     31  C23 UNL     1      32.405  -9.478 -37.614  0.00  0.00    +0.000 A 
ATOM     32  C24 UNL     1      32.838  -9.093 -36.363  0.00  0.00    +0.000 A 
ATOM     33  N4  UNL     1      31.866  -9.456 -35.510  0.00  0.00    +0.000 N 
ATOM     34  N6  UNL     1      30.897 -10.042 -36.196  0.00  0.00    +0.000 NA
ATOM     35  N7  UNL     1      31.196 -10.063 -37.488  0.00  0.00    +0.000 NA
BRANCH  33  36
ATOM     36  C25 UNL     1      31.898  -9.344 -34.056  0.00  0.00    +0.000 C 
BRANCH  36  37
ATOM     37  C26 UNL     1      30.502  -9.380 -33.518  0.00  0.00    +0.000 C 
ATOM     38  O4  UNL     1      30.210 -10.190 -32.594  0.00  0.00    +0.000 OA
ATOM     39  N5  UNL     1      29.513  -8.481 -34.043  0.00  0.00    +0.000 N 
ATOM     40  H24 UNL     1      29.847  -7.610 -34.512  0.00  0.00    +0.000 HD
BRANCH  39  41
ATOM     41  C27 UNL     1      28.094  -8.679 -33.913  0.00  0.00    +0.000 A 
ATOM     42  C28 UNL     1      27.329  -7.727 -33.221  0.00  0.00    +0.000 A 
ATOM     43  C29 UNL     1      25.943  -7.871 -33.117  0.00  0.00    +0.000 A 
ATOM     44  C30 UNL     1      25.299  -8.971 -33.704  0.00  0.00    +0.000 A 
ATOM     45  C31 UNL     1      23.807  -9.095 -33.642  0.00  0.00    +0.000 C 
ATOM     46  C32 UNL     1      26.056  -9.908 -34.423  0.00  0.00    +0.000 A 
ATOM     47  C33 UNL     1      27.443  -9.764 -34.531  0.00  0.00    +0.000 A 
ENDBRANCH  39  41
ENDBRANCH  36  37
ENDBRANCH  33  36
ENDBRANCH  30  31
ENDBRANCH  29  30
ENDBRANCH   6  29
TORSDOF 11
ENDMDL
MODEL 6
REMARK VINA RESULT:    -6.546      2.338      8.439
REMARK INTER + INTRA:         -12.276
REMARK INTER:                  -9.041
REMARK INTRA:                  -3.235
REMARK UNBOUND:                -1.712
REMARK  Name = resultss/4CJN/ligands/lig_343_t2.pdb
REMARK  13 active torsions:
REMARK  status: ('A' for Active; 'I' for Inactive)
REMARK    1  A    between atoms: C1_1  and  O1_2
REMARK    2  A    between atoms: O1_2  and  C2_3
REMARK    3  A    between atoms: C4_5  and  C5_6
REMARK    4  A    between atoms: C12_14  and  O2_15
REMARK    5  A    between atoms: N2_16  and  N3_17
REMARK    6  A    between atoms: N3_17  and  C13_18
REMARK    7  A    between atoms: C21_26  and  O3_27
REMARK    8  A    between atoms: O3_27  and  C22_28
REMARK    9  A    between atoms: C22_28  and  C23_29
REMARK   10  A    between atoms: N4_31  and  C25_32
REMARK   11  A    between atoms: C25_32  and  C26_33
REMARK   12  A    between atoms: N5_35  and  C27_36
REMARK   13  A    between atoms: C30_39  and  C31_40
REMARK                            x       y       z     vdW  Elec       q    Type
REMARK                         _______ _______ _______ _____ _____    ______ ____
ROOT
ATOM      1  C2  UNL     1      28.042  -9.340 -40.250  0.00  0.00    +0.000 A 
ATOM      2  C3  UNL     1      29.438  -9.206 -40.124  0.00  0.00    +0.000 A 
ATOM      3  C4  UNL     1      30.124  -8.189 -40.809  0.00  0.00    +0.000 A 
ATOM      4  C19 UNL     1      29.400  -7.306 -41.625  0.00  0.00    +0.000 A 
ATOM      5  C20 UNL     1      28.016  -7.426 -41.744  0.00  0.00    +0.000 A 
ATOM      6  C21 UNL     1      27.328  -8.446 -41.064  0.00  0.00    +0.000 A 
ENDROOT
BRANCH   3   7
ATOM      7  C5  UNL     1      31.627  -8.073 -40.698  0.00  0.00    +0.000 C 
ATOM      8  N1  UNL     1      31.959  -6.943 -39.827  0.00  0.00    +0.000 NA
ATOM      9  C6  UNL     1      32.470  -7.049 -38.635  0.00  0.00    +0.000 A 
ATOM     10  C7  UNL     1      32.669  -5.883 -37.882  0.00  0.00    +0.000 A 
ATOM     11  C8  UNL     1      33.183  -5.958 -36.585  0.00  0.00    +0.000 A 
ATOM     12  C9  UNL     1      33.514  -7.198 -36.036  0.00  0.00    +0.000 A 
ATOM     13  C10 UNL     1      33.337  -8.367 -36.781  0.00  0.00    +0.000 A 
ATOM     14  C11 UNL     1      32.822  -8.308 -38.094  0.00  0.00    +0.000 A 
ATOM     15  C12 UNL     1      32.695  -9.422 -38.841  0.00  0.00    +0.000 C 
ATOM     16  N2  UNL     1      32.198  -9.329 -40.190  0.00  0.00    +0.000 N 
BRANCH  15  17
ATOM     17  O2  UNL     1      33.073 -10.662 -38.317  0.00  0.00    +0.000 OA
ATOM     18  H10 UNL     1      32.929 -10.908 -37.346  0.00  0.00    +0.000 HD
ENDBRANCH  15  17
BRANCH  16  19
ATOM     19  N3  UNL     1      32.058 -10.498 -40.959  0.00  0.00    +0.000 N 
ATOM     20  H11 UNL     1      31.620 -11.339 -40.520  0.00  0.00    +0.000 HD
BRANCH  19  21
ATOM     21  C13 UNL     1      32.550 -10.591 -42.307  0.00  0.00    +0.000 A 
ATOM     22  C14 UNL     1      33.928 -10.570 -42.587  0.00  0.00    +0.000 A 
ATOM     23  C15 UNL     1      34.380 -10.675 -43.908  0.00  0.00    +0.000 A 
ATOM     24  C16 UNL     1      33.464 -10.814 -44.956  0.00  0.00    +0.000 A 
ATOM     25  C17 UNL     1      32.095 -10.848 -44.684  0.00  0.00    +0.000 A 
ATOM     26  C18 UNL     1      31.639 -10.738 -43.367  0.00  0.00    +0.000 A 
ENDBRANCH  19  21
ENDBRANCH  16  19
ENDBRANCH   3   7
BRANCH   1  28
ATOM     27  C1  UNL     1      27.601 -10.792 -38.257  0.00  0.00    +0.000 C 
ATOM     28  O1  UNL     1      27.328 -10.350 -39.584  0.00  0.00    +0.000 OA
ENDBRANCH   1  28
BRANCH   6  29
ATOM     29  O3  UNL     1      25.939  -8.611 -41.177  0.00  0.00    +0.000 OA
BRANCH  29  30
ATOM     30  C22 UNL     1      24.972  -7.675 -40.708  0.00  0.00    +0.000 C 
BRANCH  30  31
ATOM     31  C23 UNL     1      25.089  -7.545 -39.226  0.00  0.00    +0.000 A 
ATOM     32  C24 UNL     1      24.758  -8.496 -38.284  0.00  0.00    +0.000 A 
ATOM     33  N4  UNL     1      25.034  -7.943 -37.091  0.00  0.00    +0.000 N 
ATOM     34  N6  UNL     1      25.496  -6.718 -37.288  0.00  0.00    +0.000 NA
ATOM     35  N7  UNL     1      25.548  -6.450 -38.587  0.00  0.00    +0.000 NA
BRANCH  33  36
ATOM     36  C25 UNL     1      24.768  -8.524 -35.780  0.00  0.00    +0.000 C 
BRANCH  36  37
ATOM     37  C26 UNL     1      26.000  -9.202 -35.270  0.00  0.00    +0.000 C 
ATOM     38  O4  UNL     1      25.915 -10.360 -34.774  0.00  0.00    +0.000 OA
ATOM     39  N5  UNL     1      27.270  -8.538 -35.364  0.00  0.00    +0.000 N 
ATOM     40  H24 UNL     1      27.373  -7.783 -36.079  0.00  0.00    +0.000 HD
BRANCH  39  41
ATOM     41  C27 UNL     1      28.421  -8.885 -34.575  0.00  0.00    +0.000 A 
ATOM     42  C28 UNL     1      29.564  -9.390 -35.215  0.00  0.00    +0.000 A 
ATOM     43  C29 UNL     1      30.713  -9.694 -34.479  0.00  0.00    +0.000 A 
ATOM     44  C30 UNL     1      30.736  -9.498 -33.090  0.00  0.00    +0.000 A 
ATOM     45  C31 UNL     1      31.986  -9.769 -32.309  0.00  0.00    +0.000 C 
ATOM     46  C32 UNL     1      29.607  -8.963 -32.451  0.00  0.00    +0.000 A 
ATOM     47  C33 UNL     1      28.458  -8.656 -33.186  0.00  0.00    +0.000 A 
ENDBRANCH  39  41
ENDBRANCH  36  37
ENDBRANCH  33  36
ENDBRANCH  30  31
ENDBRANCH  29  30
ENDBRANCH   6  29
TORSDOF 11
ENDMDL
MODEL 7
REMARK VINA RESULT:    -6.514      2.326      9.718
REMARK INTER + INTRA:         -12.224
REMARK INTER:                  -9.257
REMARK INTRA:                  -2.967
REMARK UNBOUND:                -1.712
REMARK  Name = resultss/4CJN/ligands/lig_343_t2.pdb
REMARK  13 active torsions:
REMARK  status: ('A' for Active; 'I' for Inactive)
REMARK    1  A    between atoms: C1_1  and  O1_2
REMARK    2  A    between atoms: O1_2  and  C2_3
REMARK    3  A    between atoms: C4_5  and  C5_6
REMARK    4  A    between atoms: C12_14  and  O2_15
REMARK    5  A    between atoms: N2_16  and  N3_17
REMARK    6  A    between atoms: N3_17  and  C13_18
REMARK    7  A    between atoms: C21_26  and  O3_27
REMARK    8  A    between atoms: O3_27  and  C22_28
REMARK    9  A    between atoms: C22_28  and  C23_29
REMARK   10  A    between atoms: N4_31  and  C25_32
REMARK   11  A    between atoms: C25_32  and  C26_33
REMARK   12  A    between atoms: N5_35  and  C27_36
REMARK   13  A    between atoms: C30_39  and  C31_40
REMARK                            x       y       z     vdW  Elec       q    Type
REMARK                         _______ _______ _______ _____ _____    ______ ____
ROOT
ATOM      1  C2  UNL     1      31.870  -8.853 -37.774  0.00  0.00    +0.000 A 
ATOM      2  C3  UNL     1      31.168  -9.202 -38.943  0.00  0.00    +0.000 A 
ATOM      3  C4  UNL     1      30.502  -8.222 -39.698  0.00  0.00    +0.000 A 
ATOM      4  C19 UNL     1      30.543  -6.886 -39.271  0.00  0.00    +0.000 A 
ATOM      5  C20 UNL     1      31.248  -6.531 -38.121  0.00  0.00    +0.000 A 
ATOM      6  C21 UNL     1      31.910  -7.511 -37.361  0.00  0.00    +0.000 A 
ENDROOT
BRANCH   3   7
ATOM      7  C5  UNL     1      29.719  -8.608 -40.932  0.00  0.00    +0.000 C 
ATOM      8  N1  UNL     1      30.653  -8.909 -42.020  0.00  0.00    +0.000 NA
ATOM      9  C6  UNL     1      30.870 -10.096 -42.505  0.00  0.00    +0.000 A 
ATOM     10  C7  UNL     1      31.849 -10.249 -43.497  0.00  0.00    +0.000 A 
ATOM     11  C8  UNL     1      32.135 -11.513 -44.020  0.00  0.00    +0.000 A 
ATOM     12  C9  UNL     1      31.438 -12.632 -43.562  0.00  0.00    +0.000 A 
ATOM     13  C10 UNL     1      30.448 -12.493 -42.585  0.00  0.00    +0.000 A 
ATOM     14  C11 UNL     1      30.144 -11.222 -42.050  0.00  0.00    +0.000 A 
ATOM     15  C12 UNL     1      29.157 -11.067 -41.146  0.00  0.00    +0.000 C 
ATOM     16  N2  UNL     1      28.845  -9.754 -40.642  0.00  0.00    +0.000 N 
BRANCH  15  17
ATOM     17  O2  UNL     1      28.418 -12.175 -40.721  0.00  0.00    +0.000 OA
ATOM     18  H10 UNL     1      27.831 -12.153 -39.898  0.00  0.00    +0.000 HD
ENDBRANCH  15  17
BRANCH  16  19
ATOM     19  N3  UNL     1      27.821  -9.603 -39.690  0.00  0.00    +0.000 N 
ATOM     20  H11 UNL     1      27.970  -9.981 -38.727  0.00  0.00    +0.000 HD
BRANCH  19  21
ATOM     21  C13 UNL     1      26.558  -8.997 -40.014  0.00  0.00    +0.000 A 
ATOM     22  C14 UNL     1      26.145  -7.797 -39.408  0.00  0.00    +0.000 A 
ATOM     23  C15 UNL     1      24.915  -7.222 -39.752  0.00  0.00    +0.000 A 
ATOM     24  C16 UNL     1      24.097  -7.830 -40.709  0.00  0.00    +0.000 A 
ATOM     25  C17 UNL     1      24.507  -9.015 -41.324  0.00  0.00    +0.000 A 
ATOM     26  C18 UNL     1      25.732  -9.596 -40.980  0.00  0.00    +0.000 A 
ENDBRANCH  19  21
ENDBRANCH  16  19
ENDBRANCH   3   7
BRANCH   1  28
ATOM     27  C1  UNL     1      33.883 -10.234 -37.213  0.00  0.00    +0.000 C 
ATOM     28  O1  UNL     1      32.540  -9.809 -36.995  0.00  0.00    +0.000 OA
ENDBRANCH   1  28
BRANCH   6  29
ATOM     29  O3  UNL     1      32.611  -7.196 -36.187  0.00  0.00    +0.000 OA
BRANCH  29  30
ATOM     30  C22 UNL     1      32.025  -6.607 -35.029  0.00  0.00    +0.000 C 
BRANCH  30  31
ATOM     31  C23 UNL     1      30.685  -7.217 -34.788  0.00  0.00    +0.000 A 
ATOM     32  C24 UNL     1      30.424  -8.514 -34.398  0.00  0.00    +0.000 A 
ATOM     33  N4  UNL     1      29.088  -8.608 -34.301  0.00  0.00    +0.000 N 
ATOM     34  N6  UNL     1      28.557  -7.439 -34.626  0.00  0.00    +0.000 NA
ATOM     35  N7  UNL     1      29.512  -6.566 -34.922  0.00  0.00    +0.000 NA
BRANCH  33  36
ATOM     36  C25 UNL     1      28.319  -9.811 -34.007  0.00  0.00    +0.000 C 
BRANCH  36  37
ATOM     37  C26 UNL     1      26.928  -9.662 -34.538  0.00  0.00    +0.000 C 
ATOM     38  O4  UNL     1      26.580 -10.308 -35.566  0.00  0.00    +0.000 OA
ATOM     39  N5  UNL     1      25.997  -8.800 -33.866  0.00  0.00    +0.000 N 
ATOM     40  H24 UNL     1      26.176  -8.581 -32.860  0.00  0.00    +0.000 HD
BRANCH  39  41
ATOM     41  C27 UNL     1      24.808  -8.267 -34.473  0.00  0.00    +0.000 A 
ATOM     42  C28 UNL     1      23.555  -8.590 -33.928  0.00  0.00    +0.000 A 
ATOM     43  C29 UNL     1      22.385  -8.052 -34.472  0.00  0.00    +0.000 A 
ATOM     44  C30 UNL     1      22.450  -7.181 -35.570  0.00  0.00    +0.000 A 
ATOM     45  C31 UNL     1      21.201  -6.559 -36.117  0.00  0.00    +0.000 C 
ATOM     46  C32 UNL     1      23.702  -6.831 -36.098  0.00  0.00    +0.000 A 
ATOM     47  C33 UNL     1      24.874  -7.367 -35.554  0.00  0.00    +0.000 A 
ENDBRANCH  39  41
ENDBRANCH  36  37
ENDBRANCH  33  36
ENDBRANCH  30  31
ENDBRANCH  29  30
ENDBRANCH   6  29
TORSDOF 11
ENDMDL
MODEL 8
REMARK VINA RESULT:    -6.466      3.230      8.402
REMARK INTER + INTRA:         -12.146
REMARK INTER:                  -8.928
REMARK INTRA:                  -3.219
REMARK UNBOUND:                -1.712
REMARK  Name = resultss/4CJN/ligands/lig_343_t2.pdb
REMARK  13 active torsions:
REMARK  status: ('A' for Active; 'I' for Inactive)
REMARK    1  A    between atoms: C1_1  and  O1_2
REMARK    2  A    between atoms: O1_2  and  C2_3
REMARK    3  A    between atoms: C4_5  and  C5_6
REMARK    4  A    between atoms: C12_14  and  O2_15
REMARK    5  A    between atoms: N2_16  and  N3_17
REMARK    6  A    between atoms: N3_17  and  C13_18
REMARK    7  A    between atoms: C21_26  and  O3_27
REMARK    8  A    between atoms: O3_27  and  C22_28
REMARK    9  A    between atoms: C22_28  and  C23_29
REMARK   10  A    between atoms: N4_31  and  C25_32
REMARK   11  A    between atoms: C25_32  and  C26_33
REMARK   12  A    between atoms: N5_35  and  C27_36
REMARK   13  A    between atoms: C30_39  and  C31_40
REMARK                            x       y       z     vdW  Elec       q    Type
REMARK                         _______ _______ _______ _____ _____    ______ ____
ROOT
ATOM      1  C2  UNL     1      25.950  -8.897 -37.070  0.00  0.00    +0.000 A 
ATOM      2  C3  UNL     1      26.780  -8.782 -38.201  0.00  0.00    +0.000 A 
ATOM      3  C4  UNL     1      26.555  -7.776 -39.155  0.00  0.00    +0.000 A 
ATOM      4  C19 UNL     1      25.488  -6.884 -38.968  0.00  0.00    +0.000 A 
ATOM      5  C20 UNL     1      24.669  -6.985 -37.844  0.00  0.00    +0.000 A 
ATOM      6  C21 UNL     1      24.889  -7.995 -36.891  0.00  0.00    +0.000 A 
ENDROOT
BRANCH   3   7
ATOM      7  C5  UNL     1      27.428  -7.680 -40.385  0.00  0.00    +0.000 C 
ATOM      8  N1  UNL     1      28.717  -7.090 -40.016  0.00  0.00    +0.000 NA
ATOM      9  C6  UNL     1      29.847  -7.736 -39.985  0.00  0.00    +0.000 A 
ATOM     10  C7  UNL     1      30.994  -7.064 -39.540  0.00  0.00    +0.000 A 
ATOM     11  C8  UNL     1      32.219  -7.731 -39.462  0.00  0.00    +0.000 A 
ATOM     12  C9  UNL     1      32.309  -9.072 -39.839  0.00  0.00    +0.000 A 
ATOM     13  C10 UNL     1      31.178  -9.751 -40.301  0.00  0.00    +0.000 A 
ATOM     14  C11 UNL     1      29.934  -9.089 -40.390  0.00  0.00    +0.000 A 
ATOM     15  C12 UNL     1      28.847  -9.717 -40.881  0.00  0.00    +0.000 C 
ATOM     16  N2  UNL     1      27.598  -9.008 -40.993  0.00  0.00    +0.000 N 
BRANCH  15  17
ATOM     17  O2  UNL     1      28.941 -11.044 -41.311  0.00  0.00    +0.000 OA
ATOM     18  H10 UNL     1      28.753 -11.320 -42.266  0.00  0.00    +0.000 HD
ENDBRANCH  15  17
BRANCH  16  19
ATOM     19  N3  UNL     1      26.466  -9.673 -41.497  0.00  0.00    +0.000 N 
ATOM     20  H11 UNL     1      26.388 -10.706 -41.360  0.00  0.00    +0.000 HD
BRANCH  19  21
ATOM     21  C13 UNL     1      25.444  -8.988 -42.242  0.00  0.00    +0.000 A 
ATOM     22  C14 UNL     1      25.719  -8.397 -43.488  0.00  0.00    +0.000 A 
ATOM     23  C15 UNL     1      24.703  -7.748 -44.199  0.00  0.00    +0.000 A 
ATOM     24  C16 UNL     1      23.405  -7.695 -43.680  0.00  0.00    +0.000 A 
ATOM     25  C17 UNL     1      23.122  -8.291 -42.449  0.00  0.00    +0.000 A 
ATOM     26  C18 UNL     1      24.136  -8.936 -41.734  0.00  0.00    +0.000 A 
ENDBRANCH  19  21
ENDBRANCH  16  19
ENDBRANCH   3   7
BRANCH   1  28
ATOM     27  C1  UNL     1      27.295 -10.001 -35.268  0.00  0.00    +0.000 C 
ATOM     28  O1  UNL     1      26.144  -9.896 -36.102  0.00  0.00    +0.000 OA
ENDBRANCH   1  28
BRANCH   6  29
ATOM     29  O3  UNL     1      24.073  -8.141 -35.758  0.00  0.00    +0.000 OA
BRANCH  29  30
ATOM     30  C22 UNL     1      23.985  -7.194 -34.697  0.00  0.00    +0.000 C 
BRANCH  30  31
ATOM     31  C23 UNL     1      25.324  -7.046 -34.055  0.00  0.00    +0.000 A 
ATOM     32  C24 UNL     1      25.863  -7.848 -33.071  0.00  0.00    +0.000 A 
ATOM     33  N4  UNL     1      27.079  -7.342 -32.809  0.00  0.00    +0.000 N 
ATOM     34  N6  UNL     1      27.271  -6.282 -33.579  0.00  0.00    +0.000 NA
ATOM     35  N7  UNL     1      26.216  -6.081 -34.358  0.00  0.00    +0.000 NA
BRANCH  33  36
ATOM     36  C25 UNL     1      28.004  -7.790 -31.775  0.00  0.00    +0.000 C 
BRANCH  36  37
ATOM     37  C26 UNL     1      29.382  -7.905 -32.346  0.00  0.00    +0.000 C 
ATOM     38  O4  UNL     1      30.165  -6.916 -32.289  0.00  0.00    +0.000 OA
ATOM     39  N5  UNL     1      29.807  -9.142 -32.939  0.00  0.00    +0.000 N 
ATOM     40  H24 UNL     1      29.308 -10.015 -32.653  0.00  0.00    +0.000 HD
BRANCH  39  41
ATOM     41  C27 UNL     1      30.909  -9.261 -33.854  0.00  0.00    +0.000 A 
ATOM     42  C28 UNL     1      30.660  -9.241 -35.235  0.00  0.00    +0.000 A 
ATOM     43  C29 UNL     1      31.717  -9.311 -36.147  0.00  0.00    +0.000 A 
ATOM     44  C30 UNL     1      33.041  -9.402 -35.692  0.00  0.00    +0.000 A 
ATOM     45  C31 UNL     1      34.177  -9.419 -36.669  0.00  0.00    +0.000 C 
ATOM     46  C32 UNL     1      33.297  -9.390 -34.312  0.00  0.00    +0.000 A 
ATOM     47  C33 UNL     1      32.241  -9.318 -33.398  0.00  0.00    +0.000 A 
ENDBRANCH  39  41
ENDBRANCH  36  37
ENDBRANCH  33  36
ENDBRANCH  30  31
ENDBRANCH  29  30
ENDBRANCH   6  29
TORSDOF 11
ENDMDL
MODEL 9
REMARK VINA RESULT:    -6.293      2.640      3.822
REMARK INTER + INTRA:         -11.868
REMARK INTER:                  -8.113
REMARK INTRA:                  -3.755
REMARK UNBOUND:                -1.712
REMARK  Name = resultss/4CJN/ligands/lig_343_t2.pdb
REMARK  13 active torsions:
REMARK  status: ('A' for Active; 'I' for Inactive)
REMARK    1  A    between atoms: C1_1  and  O1_2
REMARK    2  A    between atoms: O1_2  and  C2_3
REMARK    3  A    between atoms: C4_5  and  C5_6
REMARK    4  A    between atoms: C12_14  and  O2_15
REMARK    5  A    between atoms: N2_16  and  N3_17
REMARK    6  A    between atoms: N3_17  and  C13_18
REMARK    7  A    between atoms: C21_26  and  O3_27
REMARK    8  A    between atoms: O3_27  and  C22_28
REMARK    9  A    between atoms: C22_28  and  C23_29
REMARK   10  A    between atoms: N4_31  and  C25_32
REMARK   11  A    between atoms: C25_32  and  C26_33
REMARK   12  A    between atoms: N5_35  and  C27_36
REMARK   13  A    between atoms: C30_39  and  C31_40
REMARK                            x       y       z     vdW  Elec       q    Type
REMARK                         _______ _______ _______ _____ _____    ______ ____
ROOT
ATOM      1  C2  UNL     1      25.962  -6.608 -40.103  0.00  0.00    +0.000 A 
ATOM      2  C3  UNL     1      26.425  -6.439 -38.785  0.00  0.00    +0.000 A 
ATOM      3  C4  UNL     1      25.861  -7.175 -37.728  0.00  0.00    +0.000 A 
ATOM      4  C19 UNL     1      24.827  -8.082 -38.003  0.00  0.00    +0.000 A 
ATOM      5  C20 UNL     1      24.371  -8.263 -39.309  0.00  0.00    +0.000 A 
ATOM      6  C21 UNL     1      24.930  -7.524 -40.367  0.00  0.00    +0.000 A 
ENDROOT
BRANCH   3   7
ATOM      7  C5  UNL     1      26.338  -6.963 -36.310  0.00  0.00    +0.000 C 
ATOM      8  N1  UNL     1      25.209  -6.533 -35.481  0.00  0.00    +0.000 NA
ATOM      9  C6  UNL     1      24.647  -7.259 -34.559  0.00  0.00    +0.000 A 
ATOM     10  C7  UNL     1      23.524  -6.749 -33.893  0.00  0.00    +0.000 A 
ATOM     11  C8  UNL     1      22.873  -7.510 -32.919  0.00  0.00    +0.000 A 
ATOM     12  C9  UNL     1      23.346  -8.784 -32.596  0.00  0.00    +0.000 A 
ATOM     13  C10 UNL     1      24.475  -9.299 -33.240  0.00  0.00    +0.000 A 
ATOM     14  C11 UNL     1      25.146  -8.540 -34.223  0.00  0.00    +0.000 A 
ATOM     15  C12 UNL     1      26.265  -9.004 -34.814  0.00  0.00    +0.000 C 
ATOM     16  N2  UNL     1      26.950  -8.194 -35.789  0.00  0.00    +0.000 N 
BRANCH  15  17
ATOM     17  O2  UNL     1      26.776 -10.255 -34.458  0.00  0.00    +0.000 OA
ATOM     18  H10 UNL     1      27.256 -10.417 -33.583  0.00  0.00    +0.000 HD
ENDBRANCH  15  17
BRANCH  16  19
ATOM     19  N3  UNL     1      28.110  -8.690 -36.409  0.00  0.00    +0.000 N 
ATOM     20  H11 UNL     1      28.012  -9.233 -37.297  0.00  0.00    +0.000 HD
BRANCH  19  21
ATOM     21  C13 UNL     1      29.417  -8.523 -35.833  0.00  0.00    +0.000 A 
ATOM     22  C14 UNL     1      29.887  -7.257 -35.440  0.00  0.00    +0.000 A 
ATOM     23  C15 UNL     1      31.159  -7.125 -34.869  0.00  0.00    +0.000 A 
ATOM     24  C16 UNL     1      31.964  -8.252 -34.676  0.00  0.00    +0.000 A 
ATOM     25  C17 UNL     1      31.498  -9.514 -35.053  0.00  0.00    +0.000 A 
ATOM     26  C18 UNL     1      30.231  -9.650 -35.628  0.00  0.00    +0.000 A 
ENDBRANCH  19  21
ENDBRANCH  16  19
ENDBRANCH   3   7
BRANCH   1  28
ATOM     27  C1  UNL     1      27.874  -5.894 -41.555  0.00  0.00    +0.000 C 
ATOM     28  O1  UNL     1      26.499  -5.883 -41.179  0.00  0.00    +0.000 OA
ENDBRANCH   1  28
BRANCH   6  29
ATOM     29  O3  UNL     1      24.484  -7.663 -41.690  0.00  0.00    +0.000 OA
BRANCH  29  30
ATOM     30  C22 UNL     1      25.148  -8.428 -42.691  0.00  0.00    +0.000 C 
BRANCH  30  31
ATOM     31  C23 UNL     1      26.025  -9.443 -42.038  0.00  0.00    +0.000 A 
ATOM     32  C24 UNL     1      27.400  -9.516 -42.107  0.00  0.00    +0.000 A 
ATOM     33  N4  UNL     1      27.750 -10.578 -41.364  0.00  0.00    +0.000 N 
ATOM     34  N6  UNL     1      26.652 -11.135 -40.877  0.00  0.00    +0.000 NA
ATOM     35  N7  UNL     1      25.581 -10.457 -41.267  0.00  0.00    +0.000 NA
BRANCH  33  36
ATOM     36  C25 UNL     1      29.094 -11.122 -41.201  0.00  0.00    +0.000 C 
BRANCH  36  37
ATOM     37  C26 UNL     1      30.054 -10.013 -40.907  0.00  0.00    +0.000 C 
ATOM     38  O4  UNL     1      30.826  -9.598 -41.817  0.00  0.00    +0.000 OA
ATOM     39  N5  UNL     1      30.079  -9.421 -39.599  0.00  0.00    +0.000 N 
ATOM     40  H24 UNL     1      29.224  -9.513 -39.007  0.00  0.00    +0.000 HD
BRANCH  39  41
ATOM     41  C27 UNL     1      31.184  -8.661 -39.080  0.00  0.00    +0.000 A 
ATOM     42  C28 UNL     1      31.051  -7.272 -38.928  0.00  0.00    +0.000 A 
ATOM     43  C29 UNL     1      32.092  -6.515 -38.384  0.00  0.00    +0.000 A 
ATOM     44  C30 UNL     1      33.285  -7.136 -37.983  0.00  0.00    +0.000 A 
ATOM     45  C31 UNL     1      34.380  -6.333 -37.348  0.00  0.00    +0.000 C 
ATOM     46  C32 UNL     1      33.410  -8.529 -38.104  0.00  0.00    +0.000 A 
ATOM     47  C33 UNL     1      32.368  -9.288 -38.645  0.00  0.00    +0.000 A 
ENDBRANCH  39  41
ENDBRANCH  36  37
ENDBRANCH  33  36
ENDBRANCH  30  31
ENDBRANCH  29  30
ENDBRANCH   6  29
TORSDOF 11
ENDMDL
