MODEL 1
REMARK VINA RESULT:    -5.417      0.000      0.000
REMARK INTER + INTRA:          -6.955
REMARK INTER:                  -6.683
REMARK INTRA:                  -0.271
REMARK UNBOUND:                -0.271
REMARK  Name = resultss/4CJN/ligands/lig_302_t2.pdb
REMARK  8 active torsions:
REMARK  status: ('A' for Active; 'I' for Inactive)
REMARK    1  A    between atoms: C1_1  and  O1_2
REMARK    2  A    between atoms: O1_2  and  C2_3
REMARK    3  A    between atoms: C6_8  and  O3_9
REMARK    4  A    between atoms: C8_11  and  O4_12
REMARK    5  A    between atoms: O4_12  and  C9_13
REMARK    6  A    between atoms: C11_15  and  O5_16
REMARK    7  A    between atoms: C15_21  and  O7_22
REMARK    8  A    between atoms: O7_22  and  C16_23
REMARK                            x       y       z     vdW  Elec       q    Type
REMARK                         _______ _______ _______ _____ _____    ______ ____
ROOT
ATOM      1  C2  UNL     1      25.499  -8.624 -34.658  0.00  0.00    +0.000 A 
ATOM      2  C3  UNL     1      26.790  -9.172 -34.519  0.00  0.00    +0.000 A 
ATOM      3  C4  UNL     1      27.535  -9.605 -35.620  0.00  0.00    +0.000 A 
ATOM      4  O2  UNL     1      28.709 -10.013 -35.417  0.00  0.00    +0.000 OA
ATOM      5  C5  UNL     1      26.985  -9.544 -36.917  0.00  0.00    +0.000 A 
ATOM      6  C6  UNL     1      27.615 -10.013 -38.098  0.00  0.00    +0.000 A 
ATOM      7  C7  UNL     1      27.028  -9.728 -39.356  0.00  0.00    +0.000 A 
ATOM      8  C8  UNL     1      27.640 -10.101 -40.586  0.00  0.00    +0.000 A 
ATOM      9  C10 UNL     1      26.987  -9.807 -41.800  0.00  0.00    +0.000 A 
ATOM     10  C11 UNL     1      25.755  -9.156 -41.812  0.00  0.00    +0.000 A 
ATOM     11  C12 UNL     1      25.152  -8.786 -40.610  0.00  0.00    +0.000 A 
ATOM     12  C13 UNL     1      25.774  -9.064 -39.390  0.00  0.00    +0.000 A 
ATOM     13  O6  UNL     1      25.155  -8.700 -38.276  0.00  0.00    +0.000 OA
ATOM     14  C14 UNL     1      25.660  -8.894 -37.069  0.00  0.00    +0.000 A 
ATOM     15  C15 UNL     1      24.937  -8.470 -35.948  0.00  0.00    +0.000 A 
ENDROOT
BRANCH   1  17
ATOM     16  C1  UNL     1      23.694  -8.947 -32.940  0.00  0.00    +0.000 C 
ATOM     17  O1  UNL     1      24.769  -8.219 -33.528  0.00  0.00    +0.000 OA
ENDBRANCH   1  17
BRANCH   6  18
ATOM     18  O3  UNL     1      28.783 -10.783 -38.055  0.00  0.00    +0.000 OA
ATOM     19  H5  UNL     1      29.476 -10.728 -37.322  0.00  0.00    +0.000 HD
ENDBRANCH   6  18
BRANCH   8  20
ATOM     20  O4  UNL     1      28.888 -10.749 -40.581  0.00  0.00    +0.000 OA
ATOM     21  C9  UNL     1      29.765 -10.841 -41.699  0.00  0.00    +0.000 C 
ENDBRANCH   8  20
BRANCH  10  22
ATOM     22  O5  UNL     1      25.136  -8.880 -43.029  0.00  0.00    +0.000 OA
ATOM     23  H10 UNL     1      24.182  -9.168 -43.217  0.00  0.00    +0.000 HD
ENDBRANCH  10  22
BRANCH  15  24
ATOM     24  O7  UNL     1      23.672  -7.899 -36.190  0.00  0.00    +0.000 OA
ATOM     25  C16 UNL     1      23.358  -6.511 -36.225  0.00  0.00    +0.000 C 
ENDBRANCH  15  24
TORSDOF 5
ENDMDL
MODEL 2
REMARK VINA RESULT:    -5.320      1.961      2.949
REMARK INTER + INTRA:          -6.835
REMARK INTER:                  -6.598
REMARK INTRA:                  -0.237
REMARK UNBOUND:                -0.271
REMARK  Name = resultss/4CJN/ligands/lig_302_t2.pdb
REMARK  8 active torsions:
REMARK  status: ('A' for Active; 'I' for Inactive)
REMARK    1  A    between atoms: C1_1  and  O1_2
REMARK    2  A    between atoms: O1_2  and  C2_3
REMARK    3  A    between atoms: C6_8  and  O3_9
REMARK    4  A    between atoms: C8_11  and  O4_12
REMARK    5  A    between atoms: O4_12  and  C9_13
REMARK    6  A    between atoms: C11_15  and  O5_16
REMARK    7  A    between atoms: C15_21  and  O7_22
REMARK    8  A    between atoms: O7_22  and  C16_23
REMARK                            x       y       z     vdW  Elec       q    Type
REMARK                         _______ _______ _______ _____ _____    ______ ____
ROOT
ATOM      1  C2  UNL     1      29.001  -9.807 -35.030  0.00  0.00    +0.000 A 
ATOM      2  C3  UNL     1      30.327  -9.660 -35.485  0.00  0.00    +0.000 A 
ATOM      3  C4  UNL     1      30.646  -9.633 -36.846  0.00  0.00    +0.000 A 
ATOM      4  O2  UNL     1      31.845  -9.423 -37.169  0.00  0.00    +0.000 OA
ATOM      5  C5  UNL     1      29.636  -9.800 -37.815  0.00  0.00    +0.000 A 
ATOM      6  C6  UNL     1      29.845  -9.859 -39.217  0.00  0.00    +0.000 A 
ATOM      7  C7  UNL     1      28.725  -9.851 -40.085  0.00  0.00    +0.000 A 
ATOM      8  C8  UNL     1      28.859  -9.832 -41.502  0.00  0.00    +0.000 A 
ATOM      9  C10 UNL     1      27.701  -9.850 -42.306  0.00  0.00    +0.000 A 
ATOM     10  C11 UNL     1      26.431  -9.884 -41.733  0.00  0.00    +0.000 A 
ATOM     11  C12 UNL     1      26.295  -9.900 -40.345  0.00  0.00    +0.000 A 
ATOM     12  C13 UNL     1      27.423  -9.883 -39.521  0.00  0.00    +0.000 A 
ATOM     13  O6  UNL     1      27.240  -9.909 -38.209  0.00  0.00    +0.000 OA
ATOM     14  C14 UNL     1      28.234  -9.875 -37.336  0.00  0.00    +0.000 A 
ATOM     15  C15 UNL     1      27.944  -9.900 -35.968  0.00  0.00    +0.000 A 
ENDROOT
BRANCH   1  17
ATOM     16  C1  UNL     1      29.502  -9.239 -32.635  0.00  0.00    +0.000 C 
ATOM     17  O1  UNL     1      28.717  -9.851 -33.655  0.00  0.00    +0.000 OA
ENDBRANCH   1  17
BRANCH   6  18
ATOM     18  O3  UNL     1      31.129  -9.961 -39.767  0.00  0.00    +0.000 OA
ATOM     19  H5  UNL     1      31.319 -10.079 -40.751  0.00  0.00    +0.000 HD
ENDBRANCH   6  18
BRANCH   8  20
ATOM     20  O4  UNL     1      30.137  -9.788 -42.087  0.00  0.00    +0.000 OA
ATOM     21  C9  UNL     1      30.624 -10.710 -43.056  0.00  0.00    +0.000 C 
ENDBRANCH   8  20
BRANCH  10  22
ATOM     22  O5  UNL     1      25.307  -9.901 -42.555  0.00  0.00    +0.000 OA
ATOM     23  H10 UNL     1      25.336 -10.301 -43.486  0.00  0.00    +0.000 HD
ENDBRANCH  10  22
BRANCH  15  24
ATOM     24  O7  UNL     1      26.586 -10.011 -35.610  0.00  0.00    +0.000 OA
ATOM     25  C16 UNL     1      25.722  -8.953 -35.209  0.00  0.00    +0.000 C 
ENDBRANCH  15  24
TORSDOF 5
ENDMDL
MODEL 3
REMARK VINA RESULT:    -5.254      1.680      2.274
REMARK INTER + INTRA:          -6.754
REMARK INTER:                  -6.452
REMARK INTRA:                  -0.302
REMARK UNBOUND:                -0.271
REMARK  Name = resultss/4CJN/ligands/lig_302_t2.pdb
REMARK  8 active torsions:
REMARK  status: ('A' for Active; 'I' for Inactive)
REMARK    1  A    between atoms: C1_1  and  O1_2
REMARK    2  A    between atoms: O1_2  and  C2_3
REMARK    3  A    between atoms: C6_8  and  O3_9
REMARK    4  A    between atoms: C8_11  and  O4_12
REMARK    5  A    between atoms: O4_12  and  C9_13
REMARK    6  A    between atoms: C11_15  and  O5_16
REMARK    7  A    between atoms: C15_21  and  O7_22
REMARK    8  A    between atoms: O7_22  and  C16_23
REMARK                            x       y       z     vdW  Elec       q    Type
REMARK                         _______ _______ _______ _____ _____    ______ ____
ROOT
ATOM      1  C2  UNL     1      27.863  -8.462 -33.394  0.00  0.00    +0.000 A 
ATOM      2  C3  UNL     1      29.087  -9.002 -33.837  0.00  0.00    +0.000 A 
ATOM      3  C4  UNL     1      29.271  -9.444 -35.151  0.00  0.00    +0.000 A 
ATOM      4  O2  UNL     1      30.418  -9.843 -35.486  0.00  0.00    +0.000 OA
ATOM      5  C5  UNL     1      28.202  -9.402 -36.070  0.00  0.00    +0.000 A 
ATOM      6  C6  UNL     1      28.248  -9.883 -37.403  0.00  0.00    +0.000 A 
ATOM      7  C7  UNL     1      27.160  -9.617 -38.273  0.00  0.00    +0.000 A 
ATOM      8  C8  UNL     1      27.167 -10.002 -39.643  0.00  0.00    +0.000 A 
ATOM      9  C10 UNL     1      26.041  -9.727 -40.444  0.00  0.00    +0.000 A 
ATOM     10  C11 UNL     1      24.924  -9.083 -39.914  0.00  0.00    +0.000 A 
ATOM     11  C12 UNL     1      24.914  -8.702 -38.572  0.00  0.00    +0.000 A 
ATOM     12  C13 UNL     1      26.014  -8.960 -37.753  0.00  0.00    +0.000 A 
ATOM     13  O6  UNL     1      25.951  -8.586 -36.483  0.00  0.00    +0.000 OA
ATOM     14  C14 UNL     1      26.941  -8.761 -35.623  0.00  0.00    +0.000 A 
ATOM     15  C15 UNL     1      26.786  -8.328 -34.302  0.00  0.00    +0.000 A 
ENDROOT
BRANCH   1  17
ATOM     16  C1  UNL     1      27.976  -6.735 -31.573  0.00  0.00    +0.000 C 
ATOM     17  O1  UNL     1      27.706  -8.046 -32.061  0.00  0.00    +0.000 OA
ENDBRANCH   1  17
BRANCH   6  18
ATOM     18  O3  UNL     1      29.322 -10.646 -37.876  0.00  0.00    +0.000 OA
ATOM     19  H5  UNL     1      30.267 -10.576 -37.530  0.00  0.00    +0.000 HD
ENDBRANCH   6  18
BRANCH   8  20
ATOM     20  O4  UNL     1      28.295 -10.644 -40.187  0.00  0.00    +0.000 OA
ATOM     21  C9  UNL     1      28.843 -10.380 -41.474  0.00  0.00    +0.000 C 
ENDBRANCH   8  20
BRANCH  10  22
ATOM     22  O5  UNL     1      23.827  -8.826 -40.732  0.00  0.00    +0.000 OA
ATOM     23  H10 UNL     1      22.907  -9.193 -40.517  0.00  0.00    +0.000 HD
ENDBRANCH  10  22
BRANCH  15  24
ATOM     24  O7  UNL     1      25.539  -7.766 -33.962  0.00  0.00    +0.000 OA
ATOM     25  C16 UNL     1      24.443  -8.437 -33.349  0.00  0.00    +0.000 C 
ENDBRANCH  15  24
TORSDOF 5
ENDMDL
MODEL 4
REMARK VINA RESULT:    -5.144      1.282      6.878
REMARK INTER + INTRA:          -6.618
REMARK INTER:                  -6.307
REMARK INTRA:                  -0.311
REMARK UNBOUND:                -0.271
REMARK  Name = resultss/4CJN/ligands/lig_302_t2.pdb
REMARK  8 active torsions:
REMARK  status: ('A' for Active; 'I' for Inactive)
REMARK    1  A    between atoms: C1_1  and  O1_2
REMARK    2  A    between atoms: O1_2  and  C2_3
REMARK    3  A    between atoms: C6_8  and  O3_9
REMARK    4  A    between atoms: C8_11  and  O4_12
REMARK    5  A    between atoms: O4_12  and  C9_13
REMARK    6  A    between atoms: C11_15  and  O5_16
REMARK    7  A    between atoms: C15_21  and  O7_22
REMARK    8  A    between atoms: O7_22  and  C16_23
REMARK                            x       y       z     vdW  Elec       q    Type
REMARK                         _______ _______ _______ _____ _____    ______ ____
ROOT
ATOM      1  C2  UNL     1      26.559  -8.987 -41.804  0.00  0.00    +0.000 A 
ATOM      2  C3  UNL     1      25.347  -8.312 -41.556  0.00  0.00    +0.000 A 
ATOM      3  C4  UNL     1      24.857  -8.118 -40.262  0.00  0.00    +0.000 A 
ATOM      4  O2  UNL     1      23.805  -7.439 -40.122  0.00  0.00    +0.000 OA
ATOM      5  C5  UNL     1      25.554  -8.641 -39.153  0.00  0.00    +0.000 A 
ATOM      6  C6  UNL     1      25.122  -8.567 -37.804  0.00  0.00    +0.000 A 
ATOM      7  C7  UNL     1      26.004  -8.976 -36.772  0.00  0.00    +0.000 A 
ATOM      8  C8  UNL     1      25.669  -8.861 -35.393  0.00  0.00    +0.000 A 
ATOM      9  C10 UNL     1      26.585  -9.311 -34.420  0.00  0.00    +0.000 A 
ATOM     10  C11 UNL     1      27.810  -9.864 -34.790  0.00  0.00    +0.000 A 
ATOM     11  C12 UNL     1      28.142  -9.977 -36.139  0.00  0.00    +0.000 A 
ATOM     12  C13 UNL     1      27.257  -9.541 -37.127  0.00  0.00    +0.000 A 
ATOM     13  O6  UNL     1      27.617  -9.678 -38.395  0.00  0.00    +0.000 OA
ATOM     14  C14 UNL     1      26.867  -9.281 -39.410  0.00  0.00    +0.000 A 
ATOM     15  C15 UNL     1      27.333  -9.462 -40.717  0.00  0.00    +0.000 A 
ENDROOT
BRANCH   1  17
ATOM     16  C1  UNL     1      27.601  -8.181 -43.943  0.00  0.00    +0.000 C 
ATOM     17  O1  UNL     1      27.013  -9.184 -43.119  0.00  0.00    +0.000 OA
ENDBRANCH   1  17
BRANCH   6  18
ATOM     18  O3  UNL     1      23.835  -8.135 -37.463  0.00  0.00    +0.000 OA
ATOM     19  H5  UNL     1      23.057  -8.751 -37.279  0.00  0.00    +0.000 HD
ENDBRANCH   6  18
BRANCH   8  20
ATOM     20  O4  UNL     1      24.439  -8.295 -35.013  0.00  0.00    +0.000 OA
ATOM     21  C9  UNL     1      23.766  -8.553 -33.785  0.00  0.00    +0.000 C 
ENDBRANCH   8  20
BRANCH  10  22
ATOM     22  O5  UNL     1      28.692 -10.299 -33.804  0.00  0.00    +0.000 OA
ATOM     23  H10 UNL     1      29.115 -11.220 -33.839  0.00  0.00    +0.000 HD
ENDBRANCH  10  22
BRANCH  15  24
ATOM     24  O7  UNL     1      28.573 -10.114 -40.863  0.00  0.00    +0.000 OA
ATOM     25  C16 UNL     1      29.839  -9.497 -41.071  0.00  0.00    +0.000 C 
ENDBRANCH  15  24
TORSDOF 5
ENDMDL
MODEL 5
REMARK VINA RESULT:    -5.088      1.326      3.524
REMARK INTER + INTRA:          -6.549
REMARK INTER:                  -6.339
REMARK INTRA:                  -0.210
REMARK UNBOUND:                -0.271
REMARK  Name = resultss/4CJN/ligands/lig_302_t2.pdb
REMARK  8 active torsions:
REMARK  status: ('A' for Active; 'I' for Inactive)
REMARK    1  A    between atoms: C1_1  and  O1_2
REMARK    2  A    between atoms: O1_2  and  C2_3
REMARK    3  A    between atoms: C6_8  and  O3_9
REMARK    4  A    between atoms: C8_11  and  O4_12
REMARK    5  A    between atoms: O4_12  and  C9_13
REMARK    6  A    between atoms: C11_15  and  O5_16
REMARK    7  A    between atoms: C15_21  and  O7_22
REMARK    8  A    between atoms: O7_22  and  C16_23
REMARK                            x       y       z     vdW  Elec       q    Type
REMARK                         _______ _______ _______ _____ _____    ______ ____
ROOT
ATOM      1  C2  UNL     1      24.877  -8.601 -34.611  0.00  0.00    +0.000 A 
ATOM      2  C3  UNL     1      24.014  -7.749 -35.328  0.00  0.00    +0.000 A 
ATOM      3  C4  UNL     1      24.126  -7.571 -36.710  0.00  0.00    +0.000 A 
ATOM      4  O2  UNL     1      23.269  -6.851 -37.287  0.00  0.00    +0.000 OA
ATOM      5  C5  UNL     1      25.154  -8.217 -37.428  0.00  0.00    +0.000 A 
ATOM      6  C6  UNL     1      25.410  -8.062 -38.814  0.00  0.00    +0.000 A 
ATOM      7  C7  UNL     1      26.360  -8.905 -39.442  0.00  0.00    +0.000 A 
ATOM      8  C8  UNL     1      26.615  -8.858 -40.842  0.00  0.00    +0.000 A 
ATOM      9  C10 UNL     1      27.592  -9.709 -41.395  0.00  0.00    +0.000 A 
ATOM     10  C11 UNL     1      28.309 -10.596 -40.592  0.00  0.00    +0.000 A 
ATOM     11  C12 UNL     1      28.061 -10.647 -39.221  0.00  0.00    +0.000 A 
ATOM     12  C13 UNL     1      27.099  -9.816 -38.643  0.00  0.00    +0.000 A 
ATOM     13  O6  UNL     1      26.908  -9.897 -37.334  0.00  0.00    +0.000 OA
ATOM     14  C14 UNL     1      26.010  -9.174 -36.684  0.00  0.00    +0.000 A 
ATOM     15  C15 UNL     1      25.875  -9.332 -35.301  0.00  0.00    +0.000 A 
ENDROOT
BRANCH   1  17
ATOM     16  C1  UNL     1      23.518  -8.894 -32.519  0.00  0.00    +0.000 C 
ATOM     17  O1  UNL     1      24.749  -8.741 -33.219  0.00  0.00    +0.000 OA
ENDBRANCH   1  17
BRANCH   6  18
ATOM     18  O3  UNL     1      24.776  -7.072 -39.575  0.00  0.00    +0.000 OA
ATOM     19  H5  UNL     1      23.783  -6.891 -39.562  0.00  0.00    +0.000 HD
ENDBRANCH   6  18
BRANCH   8  20
ATOM     20  O4  UNL     1      25.889  -7.973 -41.659  0.00  0.00    +0.000 OA
ATOM     21  C9  UNL     1      25.236  -8.331 -42.872  0.00  0.00    +0.000 C 
ENDBRANCH   8  20
BRANCH  10  22
ATOM     22  O5  UNL     1      29.268 -11.424 -41.171  0.00  0.00    +0.000 OA
ATOM     23  H10 UNL     1      29.908 -11.970 -40.605  0.00  0.00    +0.000 HD
ENDBRANCH  10  22
BRANCH  15  24
ATOM     24  O7  UNL     1      26.758 -10.235 -34.677  0.00  0.00    +0.000 OA
ATOM     25  C16 UNL     1      28.088  -9.965 -34.246  0.00  0.00    +0.000 C 
ENDBRANCH  15  24
TORSDOF 5
ENDMDL
MODEL 6
REMARK VINA RESULT:    -4.974      1.149      5.872
REMARK INTER + INTRA:          -6.409
REMARK INTER:                  -6.099
REMARK INTRA:                  -0.309
REMARK UNBOUND:                -0.271
REMARK  Name = resultss/4CJN/ligands/lig_302_t2.pdb
REMARK  8 active torsions:
REMARK  status: ('A' for Active; 'I' for Inactive)
REMARK    1  A    between atoms: C1_1  and  O1_2
REMARK    2  A    between atoms: O1_2  and  C2_3
REMARK    3  A    between atoms: C6_8  and  O3_9
REMARK    4  A    between atoms: C8_11  and  O4_12
REMARK    5  A    between atoms: O4_12  and  C9_13
REMARK    6  A    between atoms: C11_15  and  O5_16
REMARK    7  A    between atoms: C15_21  and  O7_22
REMARK    8  A    between atoms: O7_22  and  C16_23
REMARK                            x       y       z     vdW  Elec       q    Type
REMARK                         _______ _______ _______ _____ _____    ______ ____
ROOT
ATOM      1  C2  UNL     1      25.828  -9.121 -41.798  0.00  0.00    +0.000 A 
ATOM      2  C3  UNL     1      27.018  -9.853 -41.612  0.00  0.00    +0.000 A 
ATOM      3  C4  UNL     1      27.543 -10.105 -40.341  0.00  0.00    +0.000 A 
ATOM      4  O2  UNL     1      28.570 -10.831 -40.258  0.00  0.00    +0.000 OA
ATOM      5  C5  UNL     1      26.908  -9.586 -39.194  0.00  0.00    +0.000 A 
ATOM      6  C6  UNL     1      27.381  -9.717 -37.864  0.00  0.00    +0.000 A 
ATOM      7  C7  UNL     1      26.554  -9.301 -36.791  0.00  0.00    +0.000 A 
ATOM      8  C8  UNL     1      26.930  -9.470 -35.428  0.00  0.00    +0.000 A 
ATOM      9  C10 UNL     1      26.068  -9.011 -34.412  0.00  0.00    +0.000 A 
ATOM     10  C11 UNL     1      24.856  -8.397 -34.722  0.00  0.00    +0.000 A 
ATOM     11  C12 UNL     1      24.482  -8.232 -36.056  0.00  0.00    +0.000 A 
ATOM     12  C13 UNL     1      25.314  -8.676 -37.086  0.00  0.00    +0.000 A 
ATOM     13  O6  UNL     1      24.917  -8.487 -38.336  0.00  0.00    +0.000 OA
ATOM     14  C14 UNL     1      25.615  -8.885 -39.388  0.00  0.00    +0.000 A 
ATOM     15  C15 UNL     1      25.113  -8.647 -40.671  0.00  0.00    +0.000 A 
ENDROOT
BRANCH   1  17
ATOM     16  C1  UNL     1      25.642  -7.716 -43.872  0.00  0.00    +0.000 C 
ATOM     17  O1  UNL     1      25.339  -8.868 -43.091  0.00  0.00    +0.000 OA
ENDBRANCH   1  17
BRANCH   6  18
ATOM     18  O3  UNL     1      28.660 -10.211 -37.581  0.00  0.00    +0.000 OA
ATOM     19  H5  UNL     1      28.846 -11.129 -37.204  0.00  0.00    +0.000 HD
ENDBRANCH   6  18
BRANCH   8  20
ATOM     20  O4  UNL     1      28.147 -10.097 -35.108  0.00  0.00    +0.000 OA
ATOM     21  C9  UNL     1      28.973  -9.760 -33.998  0.00  0.00    +0.000 C 
ENDBRANCH   8  20
BRANCH  10  22
ATOM     22  O5  UNL     1      24.027  -7.955 -33.694  0.00  0.00    +0.000 OA
ATOM     23  H10 UNL     1      23.274  -8.530 -33.334  0.00  0.00    +0.000 HD
ENDBRANCH  10  22
BRANCH  15  24
ATOM     24  O7  UNL     1      23.897  -7.940 -40.755  0.00  0.00    +0.000 OA
ATOM     25  C16 UNL     1      23.738  -6.532 -40.888  0.00  0.00    +0.000 C 
ENDBRANCH  15  24
TORSDOF 5
ENDMDL
MODEL 7
REMARK VINA RESULT:    -4.937      2.385      4.552
REMARK INTER + INTRA:          -6.363
REMARK INTER:                  -6.103
REMARK INTRA:                  -0.260
REMARK UNBOUND:                -0.271
REMARK  Name = resultss/4CJN/ligands/lig_302_t2.pdb
REMARK  8 active torsions:
REMARK  status: ('A' for Active; 'I' for Inactive)
REMARK    1  A    between atoms: C1_1  and  O1_2
REMARK    2  A    between atoms: O1_2  and  C2_3
REMARK    3  A    between atoms: C6_8  and  O3_9
REMARK    4  A    between atoms: C8_11  and  O4_12
REMARK    5  A    between atoms: O4_12  and  C9_13
REMARK    6  A    between atoms: C11_15  and  O5_16
REMARK    7  A    between atoms: C15_21  and  O7_22
REMARK    8  A    between atoms: O7_22  and  C16_23
REMARK                            x       y       z     vdW  Elec       q    Type
REMARK                         _______ _______ _______ _____ _____    ______ ____
ROOT
ATOM      1  C2  UNL     1      29.529  -9.678 -35.140  0.00  0.00    +0.000 A 
ATOM      2  C3  UNL     1      28.120  -9.654 -35.188  0.00  0.00    +0.000 A 
ATOM      3  C4  UNL     1      27.417  -9.684 -36.395  0.00  0.00    +0.000 A 
ATOM      4  O2  UNL     1      26.160  -9.736 -36.348  0.00  0.00    +0.000 OA
ATOM      5  C5  UNL     1      28.113  -9.694 -37.622  0.00  0.00    +0.000 A 
ATOM      6  C6  UNL     1      27.513  -9.657 -38.906  0.00  0.00    +0.000 A 
ATOM      7  C7  UNL     1      28.321  -9.852 -40.054  0.00  0.00    +0.000 A 
ATOM      8  C8  UNL     1      27.779  -9.902 -41.369  0.00  0.00    +0.000 A 
ATOM      9  C10 UNL     1      28.645 -10.075 -42.468  0.00  0.00    +0.000 A 
ATOM     10  C11 UNL     1      30.022 -10.199 -42.283  0.00  0.00    +0.000 A 
ATOM     11  C12 UNL     1      30.557 -10.153 -40.996  0.00  0.00    +0.000 A 
ATOM     12  C13 UNL     1      29.725  -9.982 -39.888  0.00  0.00    +0.000 A 
ATOM     13  O6  UNL     1      30.285  -9.937 -38.687  0.00  0.00    +0.000 OA
ATOM     14  C14 UNL     1      29.592  -9.800 -37.568  0.00  0.00    +0.000 A 
ATOM     15  C15 UNL     1      30.269  -9.768 -36.344  0.00  0.00    +0.000 A 
ENDROOT
BRANCH   1  17
ATOM     16  C1  UNL     1      29.632  -9.198 -32.677  0.00  0.00    +0.000 C 
ATOM     17  O1  UNL     1      30.204  -9.626 -33.909  0.00  0.00    +0.000 OA
ENDBRANCH   1  17
BRANCH   6  18
ATOM     18  O3  UNL     1      26.148  -9.395 -39.075  0.00  0.00    +0.000 OA
ATOM     19  H5  UNL     1      25.641  -8.675 -38.582  0.00  0.00    +0.000 HD
ENDBRANCH   6  18
BRANCH   8  20
ATOM     20  O4  UNL     1      26.391  -9.787 -41.562  0.00  0.00    +0.000 OA
ATOM     21  C9  UNL     1      25.767  -9.341 -42.761  0.00  0.00    +0.000 C 
ENDBRANCH   8  20
BRANCH  10  22
ATOM     22  O5  UNL     1      30.850 -10.369 -43.390  0.00  0.00    +0.000 OA
ATOM     23  H10 UNL     1      31.677 -10.954 -43.349  0.00  0.00    +0.000 HD
ENDBRANCH  10  22
BRANCH  15  24
ATOM     24  O7  UNL     1      31.676  -9.835 -36.396  0.00  0.00    +0.000 OA
ATOM     25  C16 UNL     1      32.585  -8.745 -36.287  0.00  0.00    +0.000 C 
ENDBRANCH  15  24
TORSDOF 5
ENDMDL
MODEL 8
REMARK VINA RESULT:    -4.913      2.202      3.550
REMARK INTER + INTRA:          -6.334
REMARK INTER:                  -6.021
REMARK INTRA:                  -0.313
REMARK UNBOUND:                -0.271
REMARK  Name = resultss/4CJN/ligands/lig_302_t2.pdb
REMARK  8 active torsions:
REMARK  status: ('A' for Active; 'I' for Inactive)
REMARK    1  A    between atoms: C1_1  and  O1_2
REMARK    2  A    between atoms: O1_2  and  C2_3
REMARK    3  A    between atoms: C6_8  and  O3_9
REMARK    4  A    between atoms: C8_11  and  O4_12
REMARK    5  A    between atoms: O4_12  and  C9_13
REMARK    6  A    between atoms: C11_15  and  O5_16
REMARK    7  A    between atoms: C15_21  and  O7_22
REMARK    8  A    between atoms: O7_22  and  C16_23
REMARK                            x       y       z     vdW  Elec       q    Type
REMARK                         _______ _______ _______ _____ _____    ______ ____
ROOT
ATOM      1  C2  UNL     1      29.435  -9.625 -36.355  0.00  0.00    +0.000 A 
ATOM      2  C3  UNL     1      30.517  -9.118 -37.102  0.00  0.00    +0.000 A 
ATOM      3  C4  UNL     1      30.425  -8.882 -38.477  0.00  0.00    +0.000 A 
ATOM      4  O2  UNL     1      31.413  -8.357 -39.056  0.00  0.00    +0.000 OA
ATOM      5  C5  UNL     1      29.239  -9.195 -39.172  0.00  0.00    +0.000 A 
ATOM      6  C6  UNL     1      29.050  -9.065 -40.572  0.00  0.00    +0.000 A 
ATOM      7  C7  UNL     1      27.753  -9.245 -41.115  0.00  0.00    +0.000 A 
ATOM      8  C8  UNL     1      27.473  -9.057 -42.498  0.00  0.00    +0.000 A 
ATOM      9  C10 UNL     1      26.165  -9.278 -42.974  0.00  0.00    +0.000 A 
ATOM     10  C11 UNL     1      25.145  -9.674 -42.110  0.00  0.00    +0.000 A 
ATOM     11  C12 UNL     1      25.414  -9.857 -40.754  0.00  0.00    +0.000 A 
ATOM     12  C13 UNL     1      26.700  -9.647 -40.252  0.00  0.00    +0.000 A 
ATOM     13  O6  UNL     1      26.906  -9.843 -38.958  0.00  0.00    +0.000 OA
ATOM     14  C14 UNL     1      28.077  -9.654 -38.372  0.00  0.00    +0.000 A 
ATOM     15  C15 UNL     1      28.199  -9.881 -36.997  0.00  0.00    +0.000 A 
ENDROOT
BRANCH   1  17
ATOM     16  C1  UNL     1      29.437  -8.889 -33.953  0.00  0.00    +0.000 C 
ATOM     17  O1  UNL     1      29.569  -9.870 -34.978  0.00  0.00    +0.000 OA
ENDBRANCH   1  17
BRANCH   6  18
ATOM     18  O3  UNL     1      30.117  -8.799 -41.439  0.00  0.00    +0.000 OA
ATOM     19  H5  UNL     1      30.184  -7.982 -42.027  0.00  0.00    +0.000 HD
ENDBRANCH   6  18
BRANCH   8  20
ATOM     20  O4  UNL     1      28.495  -8.648 -43.373  0.00  0.00    +0.000 OA
ATOM     21  C9  UNL     1      28.333  -7.719 -44.440  0.00  0.00    +0.000 C 
ENDBRANCH   8  20
BRANCH  10  22
ATOM     22  O5  UNL     1      23.863  -9.883 -42.612  0.00  0.00    +0.000 OA
ATOM     23  H10 UNL     1      23.692 -10.517 -43.386  0.00  0.00    +0.000 HD
ENDBRANCH  10  22
BRANCH  15  24
ATOM     24  O7  UNL     1      27.052 -10.352 -36.328  0.00  0.00    +0.000 OA
ATOM     25  C16 UNL     1      26.153  -9.584 -35.535  0.00  0.00    +0.000 C 
ENDBRANCH  15  24
TORSDOF 5
ENDMDL
MODEL 9
REMARK VINA RESULT:    -4.869      1.600      4.018
REMARK INTER + INTRA:          -6.279
REMARK INTER:                  -5.967
REMARK INTRA:                  -0.312
REMARK UNBOUND:                -0.271
REMARK  Name = resultss/4CJN/ligands/lig_302_t2.pdb
REMARK  8 active torsions:
REMARK  status: ('A' for Active; 'I' for Inactive)
REMARK    1  A    between atoms: C1_1  and  O1_2
REMARK    2  A    between atoms: O1_2  and  C2_3
REMARK    3  A    between atoms: C6_8  and  O3_9
REMARK    4  A    between atoms: C8_11  and  O4_12
REMARK    5  A    between atoms: O4_12  and  C9_13
REMARK    6  A    between atoms: C11_15  and  O5_16
REMARK    7  A    between atoms: C15_21  and  O7_22
REMARK    8  A    between atoms: O7_22  and  C16_23
REMARK                            x       y       z     vdW  Elec       q    Type
REMARK                         _______ _______ _______ _____ _____    ______ ____
ROOT
ATOM      1  C2  UNL     1      27.726  -9.748 -34.983  0.00  0.00    +0.000 A 
ATOM      2  C3  UNL     1      26.414  -9.278 -34.774  0.00  0.00    +0.000 A 
ATOM      3  C4  UNL     1      25.587  -8.888 -35.831  0.00  0.00    +0.000 A 
ATOM      4  O2  UNL     1      24.403  -8.552 -35.564  0.00  0.00    +0.000 OA
ATOM      5  C5  UNL     1      26.070  -8.912 -37.156  0.00  0.00    +0.000 A 
ATOM      6  C6  UNL     1      25.351  -8.478 -38.299  0.00  0.00    +0.000 A 
ATOM      7  C7  UNL     1      25.887  -8.723 -39.588  0.00  0.00    +0.000 A 
ATOM      8  C8  UNL     1      25.190  -8.383 -40.781  0.00  0.00    +0.000 A 
ATOM      9  C10 UNL     1      25.794  -8.634 -42.030  0.00  0.00    +0.000 A 
ATOM     10  C11 UNL     1      27.060  -9.210 -42.111  0.00  0.00    +0.000 A 
ATOM     11  C12 UNL     1      27.747  -9.546 -40.944  0.00  0.00    +0.000 A 
ATOM     12  C13 UNL     1      27.176  -9.310 -39.692  0.00  0.00    +0.000 A 
ATOM     13  O6  UNL     1      27.873  -9.640 -38.614  0.00  0.00    +0.000 OA
ATOM     14  C14 UNL     1      27.422  -9.481 -37.381  0.00  0.00    +0.000 A 
ATOM     15  C15 UNL     1      28.227  -9.864 -36.303  0.00  0.00    +0.000 A 
ENDROOT
BRANCH   1  17
ATOM     16  C1  UNL     1      29.334  -9.214 -33.128  0.00  0.00    +0.000 C 
ATOM     17  O1  UNL     1      28.538 -10.113 -33.896  0.00  0.00    +0.000 OA
ENDBRANCH   1  17
BRANCH   6  18
ATOM     18  O3  UNL     1      24.143  -7.779 -38.189  0.00  0.00    +0.000 OA
ATOM     19  H5  UNL     1      23.528  -7.579 -38.964  0.00  0.00    +0.000 HD
ENDBRANCH   6  18
BRANCH   8  20
ATOM     20  O4  UNL     1      23.907  -7.811 -40.707  0.00  0.00    +0.000 OA
ATOM     21  C9  UNL     1      23.065  -7.545 -41.824  0.00  0.00    +0.000 C 
ENDBRANCH   8  20
BRANCH  10  22
ATOM     22  O5  UNL     1      27.629  -9.444 -43.360  0.00  0.00    +0.000 OA
ATOM     23  H10 UNL     1      28.615  -9.280 -43.534  0.00  0.00    +0.000 HD
ENDBRANCH  10  22
BRANCH  15  24
ATOM     24  O7  UNL     1      29.509 -10.357 -36.614  0.00  0.00    +0.000 OA
ATOM     25  C16 UNL     1      30.723  -9.613 -36.647  0.00  0.00    +0.000 C 
ENDBRANCH  15  24
TORSDOF 5
ENDMDL
