MODEL 1
REMARK VINA RESULT:    -5.414      0.000      0.000
REMARK INTER + INTRA:          -8.085
REMARK INTER:                  -6.839
REMARK INTRA:                  -1.247
REMARK UNBOUND:                -1.247
REMARK  Name = resultss/4CJN/ligands/lig_229_t0.pdb
REMARK  8 active torsions:
REMARK  status: ('A' for Active; 'I' for Inactive)
REMARK    1  A    between atoms: C6_8  and  C7_9
REMARK    2  A    between atoms: C11_13  and  C12_14
REMARK    3  A    between atoms: C14_16  and  O3_17
REMARK    4  A    between atoms: O3_17  and  C15_18
REMARK    5  A    between atoms: C15_18  and  C16_20
REMARK    6  A    between atoms: C16_20  and  C19_23
REMARK    7  A    between atoms: C17_21  and  C18_22
REMARK    8  A    between atoms: C19_23  and  O5_24
REMARK                            x       y       z     vdW  Elec       q    Type
REMARK                         _______ _______ _______ _____ _____    ______ ____
ROOT
ATOM      1  C1  UNL     1      25.671  -6.282 -40.236  0.00  0.00    +0.000 C 
ATOM      2  C2  UNL     1      25.611  -6.873 -39.042  0.00  0.00    +0.000 C 
ATOM      3  C3  UNL     1      24.582  -6.661 -38.052  0.00  0.00    +0.000 C 
ATOM      4  O1  UNL     1      23.575  -5.918 -38.189  0.00  0.00    +0.000 OA
ATOM      5  O2  UNL     1      24.857  -7.368 -36.903  0.00  0.00    +0.000 OA
ATOM      6  C4  UNL     1      26.010  -8.187 -37.071  0.00  0.00    +0.000 C 
ATOM      7  C5  UNL     1      26.973  -7.990 -35.920  0.00  0.00    +0.000 C 
ATOM      8  C6  UNL     1      27.152  -8.900 -34.941  0.00  0.00    +0.000 C 
ATOM      9  C7  UNL     1      26.130  -9.977 -34.662  0.00  0.00    +0.000 C 
ATOM     10  C8  UNL     1      28.523  -8.999 -34.286  0.00  0.00    +0.000 C 
ATOM     11  C9  UNL     1      29.663  -9.332 -35.294  0.00  0.00    +0.000 C 
ATOM     12  C10 UNL     1      29.145 -10.051 -36.526  0.00  0.00    +0.000 C 
ATOM     13  C11 UNL     1      29.037  -9.471 -37.747  0.00  0.00    +0.000 C 
ATOM     14  C12 UNL     1      29.962  -8.356 -38.171  0.00  0.00    +0.000 C 
ATOM     15  C13 UNL     1      28.009 -10.012 -38.728  0.00  0.00    +0.000 C 
ATOM     16  C14 UNL     1      27.064  -8.946 -39.363  0.00  0.00    +0.000 C 
ATOM     17  C20 UNL     1      26.659  -7.761 -38.434  0.00  0.00    +0.000 C 
ENDROOT
BRANCH  16  18
ATOM     18  O3  UNL     1      25.878  -9.586 -39.837  0.00  0.00    +0.000 OA
BRANCH  18  19
ATOM     19  C15 UNL     1      25.770 -10.221 -41.078  0.00  0.00    +0.000 C 
ATOM     20  O4  UNL     1      25.608 -11.471 -41.129  0.00  0.00    +0.000 OA
BRANCH  19  21
ATOM     21  C16 UNL     1      25.823  -9.439 -42.342  0.00  0.00    +0.000 C 
ATOM     22  C17 UNL     1      26.966  -9.186 -43.013  0.00  0.00    +0.000 C 
ATOM     23  C18 UNL     1      28.332  -9.646 -42.596  0.00  0.00    +0.000 C 
BRANCH  21  24
ATOM     24  C19 UNL     1      24.522  -8.969 -42.951  0.00  0.00    +0.000 C 
BRANCH  24  25
ATOM     25  O5  UNL     1      23.532  -9.948 -42.792  0.00  0.00    +0.000 OA
ATOM     26  H25 UNL     1      22.908  -9.848 -43.558  0.00  0.00    +0.000 HD
ENDBRANCH  24  25
ENDBRANCH  21  24
ENDBRANCH  19  21
ENDBRANCH  18  19
ENDBRANCH  16  18
TORSDOF 5
ENDMDL
MODEL 2
REMARK VINA RESULT:    -5.328      1.509      2.311
REMARK INTER + INTRA:          -7.977
REMARK INTER:                  -6.645
REMARK INTRA:                  -1.332
REMARK UNBOUND:                -1.247
REMARK  Name = resultss/4CJN/ligands/lig_229_t0.pdb
REMARK  8 active torsions:
REMARK  status: ('A' for Active; 'I' for Inactive)
REMARK    1  A    between atoms: C6_8  and  C7_9
REMARK    2  A    between atoms: C11_13  and  C12_14
REMARK    3  A    between atoms: C14_16  and  O3_17
REMARK    4  A    between atoms: O3_17  and  C15_18
REMARK    5  A    between atoms: C15_18  and  C16_20
REMARK    6  A    between atoms: C16_20  and  C19_23
REMARK    7  A    between atoms: C17_21  and  C18_22
REMARK    8  A    between atoms: C19_23  and  O5_24
REMARK                            x       y       z     vdW  Elec       q    Type
REMARK                         _______ _______ _______ _____ _____    ______ ____
ROOT
ATOM      1  C1  UNL     1      26.780  -6.787 -39.908  0.00  0.00    +0.000 C 
ATOM      2  C2  UNL     1      26.315  -7.256 -38.750  0.00  0.00    +0.000 C 
ATOM      3  C3  UNL     1      24.974  -7.071 -38.247  0.00  0.00    +0.000 C 
ATOM      4  O1  UNL     1      24.042  -6.473 -38.848  0.00  0.00    +0.000 OA
ATOM      5  O2  UNL     1      24.843  -7.619 -36.991  0.00  0.00    +0.000 OA
ATOM      6  C4  UNL     1      26.030  -8.306 -36.608  0.00  0.00    +0.000 C 
ATOM      7  C5  UNL     1      26.466  -7.877 -35.223  0.00  0.00    +0.000 C 
ATOM      8  C6  UNL     1      26.327  -8.655 -34.129  0.00  0.00    +0.000 C 
ATOM      9  C7  UNL     1      25.358  -9.814 -34.099  0.00  0.00    +0.000 C 
ATOM     10  C8  UNL     1      27.348  -8.521 -33.010  0.00  0.00    +0.000 C 
ATOM     11  C9  UNL     1      28.808  -8.813 -33.470  0.00  0.00    +0.000 C 
ATOM     12  C10 UNL     1      28.851  -9.711 -34.693  0.00  0.00    +0.000 C 
ATOM     13  C11 UNL     1      29.173  -9.276 -35.936  0.00  0.00    +0.000 C 
ATOM     14  C12 UNL     1      30.104  -8.105 -36.141  0.00  0.00    +0.000 C 
ATOM     15  C13 UNL     1      28.639 -10.033 -37.141  0.00  0.00    +0.000 C 
ATOM     16  C14 UNL     1      27.930  -9.159 -38.220  0.00  0.00    +0.000 C 
ATOM     17  C20 UNL     1      27.115  -7.944 -37.681  0.00  0.00    +0.000 C 
ENDROOT
BRANCH  16  18
ATOM     18  O3  UNL     1      27.064  -9.984 -39.003  0.00  0.00    +0.000 OA
BRANCH  18  19
ATOM     19  C15 UNL     1      27.477 -10.725 -40.115  0.00  0.00    +0.000 C 
ATOM     20  O4  UNL     1      27.388 -11.983 -40.096  0.00  0.00    +0.000 OA
BRANCH  19  21
ATOM     21  C16 UNL     1      28.002 -10.048 -41.331  0.00  0.00    +0.000 C 
ATOM     22  C17 UNL     1      27.211  -9.537 -42.298  0.00  0.00    +0.000 C 
ATOM     23  C18 UNL     1      25.712  -9.573 -42.296  0.00  0.00    +0.000 C 
BRANCH  21  24
ATOM     24  C19 UNL     1      29.495  -9.850 -41.455  0.00  0.00    +0.000 C 
BRANCH  24  25
ATOM     25  O5  UNL     1      30.168 -10.664 -40.535  0.00  0.00    +0.000 OA
ATOM     26  H25 UNL     1      31.131 -10.633 -40.780  0.00  0.00    +0.000 HD
ENDBRANCH  24  25
ENDBRANCH  21  24
ENDBRANCH  19  21
ENDBRANCH  18  19
ENDBRANCH  16  18
TORSDOF 5
ENDMDL
MODEL 3
REMARK VINA RESULT:    -5.293      2.638      6.507
REMARK INTER + INTRA:          -7.932
REMARK INTER:                  -6.664
REMARK INTRA:                  -1.269
REMARK UNBOUND:                -1.247
REMARK  Name = resultss/4CJN/ligands/lig_229_t0.pdb
REMARK  8 active torsions:
REMARK  status: ('A' for Active; 'I' for Inactive)
REMARK    1  A    between atoms: C6_8  and  C7_9
REMARK    2  A    between atoms: C11_13  and  C12_14
REMARK    3  A    between atoms: C14_16  and  O3_17
REMARK    4  A    between atoms: O3_17  and  C15_18
REMARK    5  A    between atoms: C15_18  and  C16_20
REMARK    6  A    between atoms: C16_20  and  C19_23
REMARK    7  A    between atoms: C17_21  and  C18_22
REMARK    8  A    between atoms: C19_23  and  O5_24
REMARK                            x       y       z     vdW  Elec       q    Type
REMARK                         _______ _______ _______ _____ _____    ______ ____
ROOT
ATOM      1  C1  UNL     1      29.575  -7.447 -35.698  0.00  0.00    +0.000 C 
ATOM      2  C2  UNL     1      29.333  -8.353 -36.646  0.00  0.00    +0.000 C 
ATOM      3  C3  UNL     1      30.278  -9.330 -37.134  0.00  0.00    +0.000 C 
ATOM      4  O1  UNL     1      31.452  -9.491 -36.707  0.00  0.00    +0.000 OA
ATOM      5  O2  UNL     1      29.733 -10.064 -38.164  0.00  0.00    +0.000 OA
ATOM      6  C4  UNL     1      28.366  -9.724 -38.366  0.00  0.00    +0.000 C 
ATOM      7  C5  UNL     1      28.100  -9.446 -39.830  0.00  0.00    +0.000 C 
ATOM      8  C6  UNL     1      27.431 -10.297 -40.636  0.00  0.00    +0.000 C 
ATOM      9  C7  UNL     1      27.267 -11.757 -40.284  0.00  0.00    +0.000 C 
ATOM     10  C8  UNL     1      26.611  -9.718 -41.779  0.00  0.00    +0.000 C 
ATOM     11  C9  UNL     1      25.502  -8.733 -41.304  0.00  0.00    +0.000 C 
ATOM     12  C10 UNL     1      25.079  -8.998 -39.871  0.00  0.00    +0.000 C 
ATOM     13  C11 UNL     1      25.411  -8.200 -38.827  0.00  0.00    +0.000 C 
ATOM     14  C12 UNL     1      25.643  -6.720 -39.014  0.00  0.00    +0.000 C 
ATOM     15  C13 UNL     1      25.476  -8.803 -37.433  0.00  0.00    +0.000 C 
ATOM     16  C14 UNL     1      26.787  -8.514 -36.640  0.00  0.00    +0.000 C 
ATOM     17  C20 UNL     1      28.093  -8.453 -37.488  0.00  0.00    +0.000 C 
ENDROOT
BRANCH  16  18
ATOM     18  O3  UNL     1      26.947  -9.499 -35.616  0.00  0.00    +0.000 OA
BRANCH  18  19
ATOM     19  C15 UNL     1      26.119  -9.611 -34.496  0.00  0.00    +0.000 C 
ATOM     20  O4  UNL     1      25.729 -10.749 -34.117  0.00  0.00    +0.000 OA
BRANCH  19  21
ATOM     21  C16 UNL     1      25.706  -8.405 -33.729  0.00  0.00    +0.000 C 
ATOM     22  C17 UNL     1      26.522  -7.747 -32.879  0.00  0.00    +0.000 C 
ATOM     23  C18 UNL     1      27.944  -8.124 -32.584  0.00  0.00    +0.000 C 
BRANCH  21  24
ATOM     24  C19 UNL     1      24.326  -7.838 -33.971  0.00  0.00    +0.000 C 
BRANCH  24  25
ATOM     25  O5  UNL     1      23.455  -8.849 -34.397  0.00  0.00    +0.000 OA
ATOM     26  H25 UNL     1      22.539  -8.465 -34.371  0.00  0.00    +0.000 HD
ENDBRANCH  24  25
ENDBRANCH  21  24
ENDBRANCH  19  21
ENDBRANCH  18  19
ENDBRANCH  16  18
TORSDOF 5
ENDMDL
MODEL 4
REMARK VINA RESULT:    -4.834      2.516      6.514
REMARK INTER + INTRA:          -7.352
REMARK INTER:                  -6.024
REMARK INTRA:                  -1.328
REMARK UNBOUND:                -1.247
REMARK  Name = resultss/4CJN/ligands/lig_229_t0.pdb
REMARK  8 active torsions:
REMARK  status: ('A' for Active; 'I' for Inactive)
REMARK    1  A    between atoms: C6_8  and  C7_9
REMARK    2  A    between atoms: C11_13  and  C12_14
REMARK    3  A    between atoms: C14_16  and  O3_17
REMARK    4  A    between atoms: O3_17  and  C15_18
REMARK    5  A    between atoms: C15_18  and  C16_20
REMARK    6  A    between atoms: C16_20  and  C19_23
REMARK    7  A    between atoms: C17_21  and  C18_22
REMARK    8  A    between atoms: C19_23  and  O5_24
REMARK                            x       y       z     vdW  Elec       q    Type
REMARK                         _______ _______ _______ _____ _____    ______ ____
ROOT
ATOM      1  C1  UNL     1      25.467  -9.629 -33.858  0.00  0.00    +0.000 C 
ATOM      2  C2  UNL     1      25.213  -8.930 -34.965  0.00  0.00    +0.000 C 
ATOM      3  C3  UNL     1      24.023  -8.149 -35.209  0.00  0.00    +0.000 C 
ATOM      4  O1  UNL     1      23.075  -7.985 -34.397  0.00  0.00    +0.000 OA
ATOM      5  O2  UNL     1      24.042  -7.614 -36.477  0.00  0.00    +0.000 OA
ATOM      6  C4  UNL     1      25.276  -7.891 -37.130  0.00  0.00    +0.000 C 
ATOM      7  C5  UNL     1      25.029  -8.454 -38.513  0.00  0.00    +0.000 C 
ATOM      8  C6  UNL     1      25.227  -7.748 -39.646  0.00  0.00    +0.000 C 
ATOM      9  C7  UNL     1      25.292  -6.239 -39.639  0.00  0.00    +0.000 C 
ATOM     10  C8  UNL     1      25.650  -8.497 -40.901  0.00  0.00    +0.000 C 
ATOM     11  C9  UNL     1      26.988  -9.277 -40.731  0.00  0.00    +0.000 C 
ATOM     12  C10 UNL     1      27.860  -8.684 -39.639  0.00  0.00    +0.000 C 
ATOM     13  C11 UNL     1      28.051  -9.263 -38.429  0.00  0.00    +0.000 C 
ATOM     14  C12 UNL     1      27.986 -10.762 -38.257  0.00  0.00    +0.000 C 
ATOM     15  C13 UNL     1      28.410  -8.384 -37.241  0.00  0.00    +0.000 C 
ATOM     16  C14 UNL     1      27.534  -8.591 -35.968  0.00  0.00    +0.000 C 
ATOM     17  C20 UNL     1      26.033  -8.924 -36.224  0.00  0.00    +0.000 C 
ENDROOT
BRANCH  16  18
ATOM     18  O3  UNL     1      27.614  -7.425 -35.145  0.00  0.00    +0.000 OA
BRANCH  18  19
ATOM     19  C15 UNL     1      28.611  -7.204 -34.189  0.00  0.00    +0.000 C 
ATOM     20  O4  UNL     1      29.453  -6.281 -34.366  0.00  0.00    +0.000 OA
BRANCH  19  21
ATOM     21  C16 UNL     1      28.681  -8.030 -32.955  0.00  0.00    +0.000 C 
ATOM     22  C17 UNL     1      29.465  -9.122 -32.833  0.00  0.00    +0.000 C 
ATOM     23  C18 UNL     1      30.368  -9.659 -33.904  0.00  0.00    +0.000 C 
BRANCH  21  24
ATOM     24  C19 UNL     1      27.895  -7.581 -31.744  0.00  0.00    +0.000 C 
BRANCH  24  25
ATOM     25  O5  UNL     1      26.797  -6.807 -32.141  0.00  0.00    +0.000 OA
ATOM     26  H25 UNL     1      27.166  -5.987 -32.564  0.00  0.00    +0.000 HD
ENDBRANCH  24  25
ENDBRANCH  21  24
ENDBRANCH  19  21
ENDBRANCH  18  19
ENDBRANCH  16  18
TORSDOF 5
ENDMDL
MODEL 5
REMARK VINA RESULT:    -4.749      2.629      6.352
REMARK INTER + INTRA:          -7.244
REMARK INTER:                  -6.281
REMARK INTRA:                  -0.964
REMARK UNBOUND:                -1.247
REMARK  Name = resultss/4CJN/ligands/lig_229_t0.pdb
REMARK  8 active torsions:
REMARK  status: ('A' for Active; 'I' for Inactive)
REMARK    1  A    between atoms: C6_8  and  C7_9
REMARK    2  A    between atoms: C11_13  and  C12_14
REMARK    3  A    between atoms: C14_16  and  O3_17
REMARK    4  A    between atoms: O3_17  and  C15_18
REMARK    5  A    between atoms: C15_18  and  C16_20
REMARK    6  A    between atoms: C16_20  and  C19_23
REMARK    7  A    between atoms: C17_21  and  C18_22
REMARK    8  A    between atoms: C19_23  and  O5_24
REMARK                            x       y       z     vdW  Elec       q    Type
REMARK                         _______ _______ _______ _____ _____    ______ ____
ROOT
ATOM      1  C1  UNL     1      29.626  -7.092 -35.650  0.00  0.00    +0.000 C 
ATOM      2  C2  UNL     1      29.417  -8.118 -36.476  0.00  0.00    +0.000 C 
ATOM      3  C3  UNL     1      30.111  -9.383 -36.434  0.00  0.00    +0.000 C 
ATOM      4  O1  UNL     1      30.984  -9.713 -35.588  0.00  0.00    +0.000 OA
ATOM      5  O2  UNL     1      29.710 -10.195 -37.471  0.00  0.00    +0.000 OA
ATOM      6  C4  UNL     1      28.650  -9.595 -38.207  0.00  0.00    +0.000 C 
ATOM      7  C5  UNL     1      28.949  -9.631 -39.691  0.00  0.00    +0.000 C 
ATOM      8  C6  UNL     1      28.330 -10.467 -40.551  0.00  0.00    +0.000 C 
ATOM      9  C7  UNL     1      27.618 -11.711 -40.073  0.00  0.00    +0.000 C 
ATOM     10  C8  UNL     1      28.126 -10.008 -41.987  0.00  0.00    +0.000 C 
ATOM     11  C9  UNL     1      27.291  -8.698 -42.102  0.00  0.00    +0.000 C 
ATOM     12  C10 UNL     1      26.386  -8.491 -40.901  0.00  0.00    +0.000 C 
ATOM     13  C11 UNL     1      26.612  -7.565 -39.938  0.00  0.00    +0.000 C 
ATOM     14  C12 UNL     1      27.341  -6.278 -40.243  0.00  0.00    +0.000 C 
ATOM     15  C13 UNL     1      26.053  -7.802 -38.544  0.00  0.00    +0.000 C 
ATOM     16  C14 UNL     1      27.077  -7.652 -37.378  0.00  0.00    +0.000 C 
ATOM     17  C20 UNL     1      28.531  -8.120 -37.689  0.00  0.00    +0.000 C 
ENDROOT
BRANCH  16  18
ATOM     18  O3  UNL     1      26.598  -8.362 -36.234  0.00  0.00    +0.000 OA
BRANCH  18  19
ATOM     19  C15 UNL     1      25.898  -7.771 -35.178  0.00  0.00    +0.000 C 
ATOM     20  O4  UNL     1      26.244  -6.632 -34.759  0.00  0.00    +0.000 OA
BRANCH  19  21
ATOM     21  C16 UNL     1      24.737  -8.458 -34.553  0.00  0.00    +0.000 C 
ATOM     22  C17 UNL     1      23.452  -8.133 -34.812  0.00  0.00    +0.000 C 
ATOM     23  C18 UNL     1      23.008  -7.051 -35.751  0.00  0.00    +0.000 C 
BRANCH  21  24
ATOM     24  C19 UNL     1      25.003  -9.633 -33.641  0.00  0.00    +0.000 C 
BRANCH  24  25
ATOM     25  O5  UNL     1      25.597 -10.678 -34.360  0.00  0.00    +0.000 OA
ATOM     26  H25 UNL     1      25.250 -10.618 -35.289  0.00  0.00    +0.000 HD
ENDBRANCH  24  25
ENDBRANCH  21  24
ENDBRANCH  19  21
ENDBRANCH  18  19
ENDBRANCH  16  18
TORSDOF 5
ENDMDL
MODEL 6
REMARK VINA RESULT:    -4.690      2.470      3.976
REMARK INTER + INTRA:          -7.170
REMARK INTER:                  -5.973
REMARK INTRA:                  -1.197
REMARK UNBOUND:                -1.247
REMARK  Name = resultss/4CJN/ligands/lig_229_t0.pdb
REMARK  8 active torsions:
REMARK  status: ('A' for Active; 'I' for Inactive)
REMARK    1  A    between atoms: C6_8  and  C7_9
REMARK    2  A    between atoms: C11_13  and  C12_14
REMARK    3  A    between atoms: C14_16  and  O3_17
REMARK    4  A    between atoms: O3_17  and  C15_18
REMARK    5  A    between atoms: C15_18  and  C16_20
REMARK    6  A    between atoms: C16_20  and  C19_23
REMARK    7  A    between atoms: C17_21  and  C18_22
REMARK    8  A    between atoms: C19_23  and  O5_24
REMARK                            x       y       z     vdW  Elec       q    Type
REMARK                         _______ _______ _______ _____ _____    ______ ____
ROOT
ATOM      1  C1  UNL     1      26.386 -10.023 -41.395  0.00  0.00    +0.000 C 
ATOM      2  C2  UNL     1      26.915 -10.195 -40.183  0.00  0.00    +0.000 C 
ATOM      3  C3  UNL     1      27.347 -11.456 -39.628  0.00  0.00    +0.000 C 
ATOM      4  O1  UNL     1      27.321 -12.566 -40.222  0.00  0.00    +0.000 OA
ATOM      5  O2  UNL     1      27.777 -11.296 -38.330  0.00  0.00    +0.000 OA
ATOM      6  C4  UNL     1      27.778  -9.921 -37.958  0.00  0.00    +0.000 C 
ATOM      7  C5  UNL     1      27.072  -9.730 -36.633  0.00  0.00    +0.000 C 
ATOM      8  C6  UNL     1      27.722  -9.469 -35.479  0.00  0.00    +0.000 C 
ATOM      9  C7  UNL     1      29.194  -9.764 -35.314  0.00  0.00    +0.000 C 
ATOM     10  C8  UNL     1      27.018  -8.625 -34.427  0.00  0.00    +0.000 C 
ATOM     11  C9  UNL     1      26.620  -7.209 -34.939  0.00  0.00    +0.000 C 
ATOM     12  C10 UNL     1      27.494  -6.753 -36.093  0.00  0.00    +0.000 C 
ATOM     13  C11 UNL     1      27.071  -6.691 -37.380  0.00  0.00    +0.000 C 
ATOM     14  C12 UNL     1      25.621  -6.436 -37.718  0.00  0.00    +0.000 C 
ATOM     15  C13 UNL     1      28.095  -6.810 -38.497  0.00  0.00    +0.000 C 
ATOM     16  C14 UNL     1      27.764  -7.861 -39.599  0.00  0.00    +0.000 C 
ATOM     17  C20 UNL     1      27.041  -9.152 -39.110  0.00  0.00    +0.000 C 
ENDROOT
BRANCH  16  18
ATOM     18  O3  UNL     1      28.967  -8.234 -40.274  0.00  0.00    +0.000 OA
BRANCH  18  19
ATOM     19  C15 UNL     1      29.389  -7.687 -41.490  0.00  0.00    +0.000 C 
ATOM     20  O4  UNL     1      29.952  -6.558 -41.505  0.00  0.00    +0.000 OA
BRANCH  19  21
ATOM     21  C16 UNL     1      29.201  -8.427 -42.766  0.00  0.00    +0.000 C 
ATOM     22  C17 UNL     1      29.750  -9.636 -43.013  0.00  0.00    +0.000 C 
ATOM     23  C18 UNL     1      30.614 -10.403 -42.057  0.00  0.00    +0.000 C 
BRANCH  21  24
ATOM     24  C19 UNL     1      28.286  -7.834 -43.812  0.00  0.00    +0.000 C 
BRANCH  24  25
ATOM     25  O5  UNL     1      27.537  -6.786 -43.261  0.00  0.00    +0.000 OA
ATOM     26  H25 UNL     1      26.919  -6.474 -43.973  0.00  0.00    +0.000 HD
ENDBRANCH  24  25
ENDBRANCH  21  24
ENDBRANCH  19  21
ENDBRANCH  18  19
ENDBRANCH  16  18
TORSDOF 5
ENDMDL
MODEL 7
REMARK VINA RESULT:    -4.629      2.061      4.253
REMARK INTER + INTRA:          -7.093
REMARK INTER:                  -5.944
REMARK INTRA:                  -1.149
REMARK UNBOUND:                -1.247
REMARK  Name = resultss/4CJN/ligands/lig_229_t0.pdb
REMARK  8 active torsions:
REMARK  status: ('A' for Active; 'I' for Inactive)
REMARK    1  A    between atoms: C6_8  and  C7_9
REMARK    2  A    between atoms: C11_13  and  C12_14
REMARK    3  A    between atoms: C14_16  and  O3_17
REMARK    4  A    between atoms: O3_17  and  C15_18
REMARK    5  A    between atoms: C15_18  and  C16_20
REMARK    6  A    between atoms: C16_20  and  C19_23
REMARK    7  A    between atoms: C17_21  and  C18_22
REMARK    8  A    between atoms: C19_23  and  O5_24
REMARK                            x       y       z     vdW  Elec       q    Type
REMARK                         _______ _______ _______ _____ _____    ______ ____
ROOT
ATOM      1  C1  UNL     1      27.084 -11.095 -40.537  0.00  0.00    +0.000 C 
ATOM      2  C2  UNL     1      28.227 -10.559 -40.106  0.00  0.00    +0.000 C 
ATOM      3  C3  UNL     1      29.491 -10.607 -40.803  0.00  0.00    +0.000 C 
ATOM      4  O1  UNL     1      29.685 -11.126 -41.934  0.00  0.00    +0.000 OA
ATOM      5  O2  UNL     1      30.485 -10.023 -40.051  0.00  0.00    +0.000 OA
ATOM      6  C4  UNL     1      29.954  -9.444 -38.863  0.00  0.00    +0.000 C 
ATOM      7  C5  UNL     1      30.755  -9.883 -37.656  0.00  0.00    +0.000 C 
ATOM      8  C6  UNL     1      31.614  -9.073 -37.003  0.00  0.00    +0.000 C 
ATOM      9  C7  UNL     1      32.175  -7.827 -37.648  0.00  0.00    +0.000 C 
ATOM     10  C8  UNL     1      31.812  -9.280 -35.509  0.00  0.00    +0.000 C 
ATOM     11  C9  UNL     1      30.495  -9.137 -34.688  0.00  0.00    +0.000 C 
ATOM     12  C10 UNL     1      29.470  -8.273 -35.400  0.00  0.00    +0.000 C 
ATOM     13  C11 UNL     1      28.353  -8.762 -35.993  0.00  0.00    +0.000 C 
ATOM     14  C12 UNL     1      27.685 -10.020 -35.491  0.00  0.00    +0.000 C 
ATOM     15  C13 UNL     1      27.727  -7.982 -37.138  0.00  0.00    +0.000 C 
ATOM     16  C14 UNL     1      27.435  -8.807 -38.428  0.00  0.00    +0.000 C 
ATOM     17  C20 UNL     1      28.466  -9.928 -38.763  0.00  0.00    +0.000 C 
ENDROOT
BRANCH  16  18
ATOM     18  O3  UNL     1      27.339  -7.921 -39.545  0.00  0.00    +0.000 OA
BRANCH  18  19
ATOM     19  C15 UNL     1      26.132  -7.469 -40.088  0.00  0.00    +0.000 C 
ATOM     20  O4  UNL     1      25.503  -6.534 -39.521  0.00  0.00    +0.000 OA
BRANCH  19  21
ATOM     21  C16 UNL     1      25.589  -8.062 -41.339  0.00  0.00    +0.000 C 
ATOM     22  C17 UNL     1      26.249  -8.050 -42.517  0.00  0.00    +0.000 C 
ATOM     23  C18 UNL     1      27.605  -7.450 -42.739  0.00  0.00    +0.000 C 
BRANCH  21  24
ATOM     24  C19 UNL     1      24.264  -8.786 -41.274  0.00  0.00    +0.000 C 
BRANCH  24  25
ATOM     25  O5  UNL     1      24.052  -9.292 -39.985  0.00  0.00    +0.000 OA
ATOM     26  H25 UNL     1      24.509 -10.173 -39.948  0.00  0.00    +0.000 HD
ENDBRANCH  24  25
ENDBRANCH  21  24
ENDBRANCH  19  21
ENDBRANCH  18  19
ENDBRANCH  16  18
TORSDOF 5
ENDMDL
MODEL 8
REMARK VINA RESULT:    -4.585      2.154      5.755
REMARK INTER + INTRA:          -7.038
REMARK INTER:                  -5.968
REMARK INTRA:                  -1.070
REMARK UNBOUND:                -1.247
REMARK  Name = resultss/4CJN/ligands/lig_229_t0.pdb
REMARK  8 active torsions:
REMARK  status: ('A' for Active; 'I' for Inactive)
REMARK    1  A    between atoms: C6_8  and  C7_9
REMARK    2  A    between atoms: C11_13  and  C12_14
REMARK    3  A    between atoms: C14_16  and  O3_17
REMARK    4  A    between atoms: O3_17  and  C15_18
REMARK    5  A    between atoms: C15_18  and  C16_20
REMARK    6  A    between atoms: C16_20  and  C19_23
REMARK    7  A    between atoms: C17_21  and  C18_22
REMARK    8  A    between atoms: C19_23  and  O5_24
REMARK                            x       y       z     vdW  Elec       q    Type
REMARK                         _______ _______ _______ _____ _____    ______ ____
ROOT
ATOM      1  C1  UNL     1      24.573  -8.463 -37.639  0.00  0.00    +0.000 C 
ATOM      2  C2  UNL     1      25.367  -7.946 -38.577  0.00  0.00    +0.000 C 
ATOM      3  C3  UNL     1      25.154  -6.689 -39.255  0.00  0.00    +0.000 C 
ATOM      4  O1  UNL     1      24.212  -5.884 -39.030  0.00  0.00    +0.000 OA
ATOM      5  O2  UNL     1      26.117  -6.484 -40.217  0.00  0.00    +0.000 OA
ATOM      6  C4  UNL     1      27.101  -7.513 -40.182  0.00  0.00    +0.000 C 
ATOM      7  C5  UNL     1      27.335  -8.070 -41.570  0.00  0.00    +0.000 C 
ATOM      8  C6  UNL     1      28.441  -7.804 -42.297  0.00  0.00    +0.000 C 
ATOM      9  C7  UNL     1      29.323  -6.616 -41.993  0.00  0.00    +0.000 C 
ATOM     10  C8  UNL     1      28.942  -8.865 -43.266  0.00  0.00    +0.000 C 
ATOM     11  C9  UNL     1      29.289 -10.216 -42.573  0.00  0.00    +0.000 C 
ATOM     12  C10 UNL     1      29.628 -10.035 -41.105  0.00  0.00    +0.000 C 
ATOM     13  C11 UNL     1      28.806 -10.403 -40.091  0.00  0.00    +0.000 C 
ATOM     14  C12 UNL     1      27.838 -11.551 -40.243  0.00  0.00    +0.000 C 
ATOM     15  C13 UNL     1      28.922  -9.686 -38.755  0.00  0.00    +0.000 C 
ATOM     16  C14 UNL     1      27.582  -9.144 -38.170  0.00  0.00    +0.000 C 
ATOM     17  C20 UNL     1      26.550  -8.617 -39.213  0.00  0.00    +0.000 C 
ENDROOT
BRANCH  16  18
ATOM     18  O3  UNL     1      27.863  -8.101 -37.233  0.00  0.00    +0.000 OA
BRANCH  18  19
ATOM     19  C15 UNL     1      27.632  -8.198 -35.857  0.00  0.00    +0.000 C 
ATOM     20  O4  UNL     1      26.982  -7.292 -35.267  0.00  0.00    +0.000 OA
BRANCH  19  21
ATOM     21  C16 UNL     1      28.126  -9.366 -35.081  0.00  0.00    +0.000 C 
ATOM     22  C17 UNL     1      29.434  -9.617 -34.864  0.00  0.00    +0.000 C 
ATOM     23  C18 UNL     1      30.569  -8.770 -35.361  0.00  0.00    +0.000 C 
BRANCH  21  24
ATOM     24  C19 UNL     1      27.111 -10.280 -34.434  0.00  0.00    +0.000 C 
BRANCH  24  25
ATOM     25  O5  UNL     1      25.859 -10.118 -35.042  0.00  0.00    +0.000 OA
ATOM     26  H25 UNL     1      25.240  -9.793 -34.336  0.00  0.00    +0.000 HD
ENDBRANCH  24  25
ENDBRANCH  21  24
ENDBRANCH  19  21
ENDBRANCH  18  19
ENDBRANCH  16  18
TORSDOF 5
ENDMDL
MODEL 9
REMARK VINA RESULT:    -4.555      2.163      4.144
REMARK INTER + INTRA:          -7.000
REMARK INTER:                  -5.804
REMARK INTRA:                  -1.196
REMARK UNBOUND:                -1.247
REMARK  Name = resultss/4CJN/ligands/lig_229_t0.pdb
REMARK  8 active torsions:
REMARK  status: ('A' for Active; 'I' for Inactive)
REMARK    1  A    between atoms: C6_8  and  C7_9
REMARK    2  A    between atoms: C11_13  and  C12_14
REMARK    3  A    between atoms: C14_16  and  O3_17
REMARK    4  A    between atoms: O3_17  and  C15_18
REMARK    5  A    between atoms: C15_18  and  C16_20
REMARK    6  A    between atoms: C16_20  and  C19_23
REMARK    7  A    between atoms: C17_21  and  C18_22
REMARK    8  A    between atoms: C19_23  and  O5_24
REMARK                            x       y       z     vdW  Elec       q    Type
REMARK                         _______ _______ _______ _____ _____    ______ ____
ROOT
ATOM      1  C1  UNL     1      27.964 -10.834 -38.938  0.00  0.00    +0.000 C 
ATOM      2  C2  UNL     1      28.562  -9.997 -38.089  0.00  0.00    +0.000 C 
ATOM      3  C3  UNL     1      29.958  -9.627 -38.119  0.00  0.00    +0.000 C 
ATOM      4  O1  UNL     1      30.800 -10.013 -38.973  0.00  0.00    +0.000 OA
ATOM      5  O2  UNL     1      30.267  -8.803 -37.061  0.00  0.00    +0.000 OA
ATOM      6  C4  UNL     1      29.100  -8.465 -36.319  0.00  0.00    +0.000 C 
ATOM      7  C5  UNL     1      29.329  -8.693 -34.840  0.00  0.00    +0.000 C 
ATOM      8  C6  UNL     1      29.507  -7.690 -33.955  0.00  0.00    +0.000 C 
ATOM      9  C7  UNL     1      29.919  -6.306 -34.398  0.00  0.00    +0.000 C 
ATOM     10  C8  UNL     1      29.031  -7.893 -32.524  0.00  0.00    +0.000 C 
ATOM     11  C9  UNL     1      27.505  -8.193 -32.420  0.00  0.00    +0.000 C 
ATOM     12  C10 UNL     1      26.735  -7.650 -33.610  0.00  0.00    +0.000 C 
ATOM     13  C11 UNL     1      26.221  -8.429 -34.593  0.00  0.00    +0.000 C 
ATOM     14  C12 UNL     1      25.790  -9.851 -34.324  0.00  0.00    +0.000 C 
ATOM     15  C13 UNL     1      26.011  -7.826 -35.973  0.00  0.00    +0.000 C 
ATOM     16  C14 UNL     1      26.610  -8.643 -37.158  0.00  0.00    +0.000 C 
ATOM     17  C20 UNL     1      27.950  -9.383 -36.863  0.00  0.00    +0.000 C 
ENDROOT
BRANCH  16  18
ATOM     18  O3  UNL     1      26.798  -7.780 -38.282  0.00  0.00    +0.000 OA
BRANCH  18  19
ATOM     19  C15 UNL     1      25.883  -7.643 -39.330  0.00  0.00    +0.000 C 
ATOM     20  O4  UNL     1      24.894  -6.870 -39.200  0.00  0.00    +0.000 OA
BRANCH  19  21
ATOM     21  C16 UNL     1      26.070  -8.382 -40.607  0.00  0.00    +0.000 C 
ATOM     22  C17 UNL     1      27.125  -8.194 -41.428  0.00  0.00    +0.000 C 
ATOM     23  C18 UNL     1      28.249  -7.232 -41.182  0.00  0.00    +0.000 C 
BRANCH  21  24
ATOM     24  C19 UNL     1      25.069  -9.454 -40.970  0.00  0.00    +0.000 C 
BRANCH  24  25
ATOM     25  O5  UNL     1      24.047  -9.505 -40.013  0.00  0.00    +0.000 OA
ATOM     26  H25 UNL     1      24.368  -8.989 -39.227  0.00  0.00    +0.000 HD
ENDBRANCH  24  25
ENDBRANCH  21  24
ENDBRANCH  19  21
ENDBRANCH  18  19
ENDBRANCH  16  18
TORSDOF 5
ENDMDL
