MODEL 1
REMARK VINA RESULT:    -5.173      0.000      0.000
REMARK INTER + INTRA:          -6.740
REMARK INTER:                  -6.533
REMARK INTRA:                  -0.207
REMARK UNBOUND:                -0.207
REMARK  Name = resultss/4CJN/ligands/lig_287_t1.pdb
REMARK  9 active torsions:
REMARK  status: ('A' for Active; 'I' for Inactive)
REMARK    1  A    between atoms: C1_1  and  O1_2
REMARK    2  A    between atoms: O1_2  and  C2_3
REMARK    3  A    between atoms: C6_8  and  O3_9
REMARK    4  A    between atoms: C8_11  and  O4_12
REMARK    5  A    between atoms: O4_12  and  C9_13
REMARK    6  A    between atoms: C10_14  and  O5_15
REMARK    7  A    between atoms: O5_15  and  C11_16
REMARK    8  A    between atoms: C16_22  and  O7_23
REMARK    9  A    between atoms: O7_23  and  C17_24
REMARK                            x       y       z     vdW  Elec       q    Type
REMARK                         _______ _______ _______ _____ _____    ______ ____
ROOT
ATOM      1  C2  UNL     1      26.795  -8.803 -42.247  0.00  0.00    +0.000 A 
ATOM      2  C3  UNL     1      27.878  -9.551 -41.754  0.00  0.00    +0.000 A 
ATOM      3  C4  UNL     1      28.004  -9.855 -40.397  0.00  0.00    +0.000 A 
ATOM      4  O2  UNL     1      29.042 -10.461 -40.019  0.00  0.00    +0.000 OA
ATOM      5  C5  UNL     1      27.008  -9.449 -39.482  0.00  0.00    +0.000 A 
ATOM      6  C6  UNL     1      26.998  -9.765 -38.099  0.00  0.00    +0.000 A 
ATOM      7  C7  UNL     1      26.055  -9.133 -37.247  0.00  0.00    +0.000 A 
ATOM      8  C8  UNL     1      26.042  -9.332 -35.835  0.00  0.00    +0.000 A 
ATOM      9  C10 UNL     1      25.047  -8.691 -35.046  0.00  0.00    +0.000 A 
ATOM     10  C12 UNL     1      24.094  -7.867 -35.670  0.00  0.00    +0.000 A 
ATOM     11  C13 UNL     1      24.115  -7.671 -37.043  0.00  0.00    +0.000 A 
ATOM     12  C14 UNL     1      25.078  -8.290 -37.833  0.00  0.00    +0.000 A 
ATOM     13  O6  UNL     1      25.042  -8.073 -39.140  0.00  0.00    +0.000 OA
ATOM     14  C15 UNL     1      25.912  -8.586 -39.993  0.00  0.00    +0.000 A 
ATOM     15  C16 UNL     1      25.816  -8.309 -41.375  0.00  0.00    +0.000 A 
ENDROOT
BRANCH   1  17
ATOM     16  C1  UNL     1      27.476  -7.593 -44.335  0.00  0.00    +0.000 C 
ATOM     17  O1  UNL     1      26.660  -8.514 -43.616  0.00  0.00    +0.000 OA
ENDBRANCH   1  17
BRANCH   6  18
ATOM     18  O3  UNL     1      27.872 -10.716 -37.560  0.00  0.00    +0.000 OA
ATOM     19  H5  UNL     1      28.213 -10.698 -36.610  0.00  0.00    +0.000 HD
ENDBRANCH   6  18
BRANCH   8  20
ATOM     20  O4  UNL     1      27.036 -10.157 -35.268  0.00  0.00    +0.000 OA
ATOM     21  C9  UNL     1      28.107  -9.762 -34.418  0.00  0.00    +0.000 C 
ENDBRANCH   8  20
BRANCH   9  22
ATOM     22  O5  UNL     1      25.018  -8.883 -33.655  0.00  0.00    +0.000 OA
ATOM     23  C11 UNL     1      23.837  -9.009 -32.868  0.00  0.00    +0.000 C 
ENDBRANCH   9  22
BRANCH  15  24
ATOM     24  O7  UNL     1      24.779  -7.544 -41.945  0.00  0.00    +0.000 OA
ATOM     25  C17 UNL     1      23.467  -7.999 -42.259  0.00  0.00    +0.000 C 
ENDBRANCH  15  24
TORSDOF 5
ENDMDL
MODEL 2
REMARK VINA RESULT:    -5.119      1.623      2.289
REMARK INTER + INTRA:          -6.672
REMARK INTER:                  -6.420
REMARK INTRA:                  -0.252
REMARK UNBOUND:                -0.207
REMARK  Name = resultss/4CJN/ligands/lig_287_t1.pdb
REMARK  9 active torsions:
REMARK  status: ('A' for Active; 'I' for Inactive)
REMARK    1  A    between atoms: C1_1  and  O1_2
REMARK    2  A    between atoms: O1_2  and  C2_3
REMARK    3  A    between atoms: C6_8  and  O3_9
REMARK    4  A    between atoms: C8_11  and  O4_12
REMARK    5  A    between atoms: O4_12  and  C9_13
REMARK    6  A    between atoms: C10_14  and  O5_15
REMARK    7  A    between atoms: O5_15  and  C11_16
REMARK    8  A    between atoms: C16_22  and  O7_23
REMARK    9  A    between atoms: O7_23  and  C17_24
REMARK                            x       y       z     vdW  Elec       q    Type
REMARK                         _______ _______ _______ _____ _____    ______ ____
ROOT
ATOM      1  C2  UNL     1      25.528  -8.827 -42.733  0.00  0.00    +0.000 A 
ATOM      2  C3  UNL     1      26.865  -9.208 -42.939  0.00  0.00    +0.000 A 
ATOM      3  C4  UNL     1      27.709  -9.534 -41.876  0.00  0.00    +0.000 A 
ATOM      4  O2  UNL     1      28.915  -9.789 -42.133  0.00  0.00    +0.000 OA
ATOM      5  C5  UNL     1      27.218  -9.531 -40.552  0.00  0.00    +0.000 A 
ATOM      6  C6  UNL     1      27.963  -9.915 -39.408  0.00  0.00    +0.000 A 
ATOM      7  C7  UNL     1      27.427  -9.678 -38.115  0.00  0.00    +0.000 A 
ATOM      8  C8  UNL     1      28.154  -9.954 -36.920  0.00  0.00    +0.000 A 
ATOM      9  C10 UNL     1      27.541  -9.722 -35.658  0.00  0.00    +0.000 A 
ATOM     10  C12 UNL     1      26.230  -9.218 -35.607  0.00  0.00    +0.000 A 
ATOM     11  C13 UNL     1      25.529  -8.945 -36.772  0.00  0.00    +0.000 A 
ATOM     12  C14 UNL     1      26.108  -9.167 -38.017  0.00  0.00    +0.000 A 
ATOM     13  O6  UNL     1      25.387  -8.896 -39.095  0.00  0.00    +0.000 OA
ATOM     14  C15 UNL     1      25.831  -9.045 -40.331  0.00  0.00    +0.000 A 
ATOM     15  C16 UNL     1      25.007  -8.732 -41.436  0.00  0.00    +0.000 A 
ENDROOT
BRANCH   1  17
ATOM     16  C1  UNL     1      24.797  -7.362 -44.632  0.00  0.00    +0.000 C 
ATOM     17  O1  UNL     1      24.675  -8.517 -43.806  0.00  0.00    +0.000 OA
ENDBRANCH   1  17
BRANCH   6  18
ATOM     18  O3  UNL     1      29.200 -10.558 -39.524  0.00  0.00    +0.000 OA
ATOM     19  H5  UNL     1      30.092 -10.098 -39.408  0.00  0.00    +0.000 HD
ENDBRANCH   6  18
BRANCH   8  20
ATOM     20  O4  UNL     1      29.473 -10.441 -37.038  0.00  0.00    +0.000 OA
ATOM     21  C9  UNL     1      30.682  -9.740 -36.769  0.00  0.00    +0.000 C 
ENDBRANCH   8  20
BRANCH   9  22
ATOM     22  O5  UNL     1      28.243  -9.995 -34.472  0.00  0.00    +0.000 OA
ATOM     23  C11 UNL     1      28.741  -9.013 -33.568  0.00  0.00    +0.000 C 
ENDBRANCH   9  22
BRANCH  15  24
ATOM     24  O7  UNL     1      23.667  -8.316 -41.314  0.00  0.00    +0.000 OA
ATOM     25  C17 UNL     1      23.206  -6.977 -41.176  0.00  0.00    +0.000 C 
ENDBRANCH  15  24
TORSDOF 5
ENDMDL
MODEL 3
REMARK VINA RESULT:    -5.080      2.152      2.891
REMARK INTER + INTRA:          -6.623
REMARK INTER:                  -6.359
REMARK INTRA:                  -0.264
REMARK UNBOUND:                -0.207
REMARK  Name = resultss/4CJN/ligands/lig_287_t1.pdb
REMARK  9 active torsions:
REMARK  status: ('A' for Active; 'I' for Inactive)
REMARK    1  A    between atoms: C1_1  and  O1_2
REMARK    2  A    between atoms: O1_2  and  C2_3
REMARK    3  A    between atoms: C6_8  and  O3_9
REMARK    4  A    between atoms: C8_11  and  O4_12
REMARK    5  A    between atoms: O4_12  and  C9_13
REMARK    6  A    between atoms: C10_14  and  O5_15
REMARK    7  A    between atoms: O5_15  and  C11_16
REMARK    8  A    between atoms: C16_22  and  O7_23
REMARK    9  A    between atoms: O7_23  and  C17_24
REMARK                            x       y       z     vdW  Elec       q    Type
REMARK                         _______ _______ _______ _____ _____    ______ ____
ROOT
ATOM      1  C2  UNL     1      27.168  -9.576 -41.783  0.00  0.00    +0.000 A 
ATOM      2  C3  UNL     1      28.570  -9.647 -41.858  0.00  0.00    +0.000 A 
ATOM      3  C4  UNL     1      29.364  -9.735 -40.712  0.00  0.00    +0.000 A 
ATOM      4  O2  UNL     1      30.615  -9.715 -40.855  0.00  0.00    +0.000 OA
ATOM      5  C5  UNL     1      28.764  -9.801 -39.435  0.00  0.00    +0.000 A 
ATOM      6  C6  UNL     1      29.468  -9.965 -38.215  0.00  0.00    +0.000 A 
ATOM      7  C7  UNL     1      28.774  -9.814 -36.985  0.00  0.00    +0.000 A 
ATOM      8  C8  UNL     1      29.431  -9.875 -35.721  0.00  0.00    +0.000 A 
ATOM      9  C10 UNL     1      28.668  -9.748 -34.528  0.00  0.00    +0.000 A 
ATOM     10  C12 UNL     1      27.278  -9.557 -34.613  0.00  0.00    +0.000 A 
ATOM     11  C13 UNL     1      26.644  -9.491 -35.845  0.00  0.00    +0.000 A 
ATOM     12  C14 UNL     1      27.371  -9.616 -37.024  0.00  0.00    +0.000 A 
ATOM     13  O6  UNL     1      26.711  -9.554 -38.171  0.00  0.00    +0.000 OA
ATOM     14  C15 UNL     1      27.289  -9.638 -39.356  0.00  0.00    +0.000 A 
ATOM     15  C16 UNL     1      26.522  -9.560 -40.540  0.00  0.00    +0.000 A 
ENDROOT
BRANCH   1  17
ATOM     16  C1  UNL     1      26.181  -8.332 -43.723  0.00  0.00    +0.000 C 
ATOM     17  O1  UNL     1      26.370  -9.506 -42.938  0.00  0.00    +0.000 OA
ENDBRANCH   1  17
BRANCH   6  18
ATOM     18  O3  UNL     1      30.823 -10.311 -38.194  0.00  0.00    +0.000 OA
ATOM     19  H5  UNL     1      31.501  -9.911 -37.561  0.00  0.00    +0.000 HD
ENDBRANCH   6  18
BRANCH   8  20
ATOM     20  O4  UNL     1      30.831 -10.051 -35.704  0.00  0.00    +0.000 OA
ATOM     21  C9  UNL     1      31.818  -9.103 -35.310  0.00  0.00    +0.000 C 
ENDBRANCH   8  20
BRANCH   9  22
ATOM     22  O5  UNL     1      29.300  -9.813 -33.276  0.00  0.00    +0.000 OA
ATOM     23  C11 UNL     1      29.529  -8.703 -32.413  0.00  0.00    +0.000 C 
ENDBRANCH   9  22
BRANCH  15  24
ATOM     24  O7  UNL     1      25.116  -9.459 -40.552  0.00  0.00    +0.000 OA
ATOM     25  C17 UNL     1      24.354  -8.262 -40.444  0.00  0.00    +0.000 C 
ENDBRANCH  15  24
TORSDOF 5
ENDMDL
MODEL 4
REMARK VINA RESULT:    -5.051      1.447      3.563
REMARK INTER + INTRA:          -6.586
REMARK INTER:                  -6.400
REMARK INTRA:                  -0.186
REMARK UNBOUND:                -0.207
REMARK  Name = resultss/4CJN/ligands/lig_287_t1.pdb
REMARK  9 active torsions:
REMARK  status: ('A' for Active; 'I' for Inactive)
REMARK    1  A    between atoms: C1_1  and  O1_2
REMARK    2  A    between atoms: O1_2  and  C2_3
REMARK    3  A    between atoms: C6_8  and  O3_9
REMARK    4  A    between atoms: C8_11  and  O4_12
REMARK    5  A    between atoms: O4_12  and  C9_13
REMARK    6  A    between atoms: C10_14  and  O5_15
REMARK    7  A    between atoms: O5_15  and  C11_16
REMARK    8  A    between atoms: C16_22  and  O7_23
REMARK    9  A    between atoms: O7_23  and  C17_24
REMARK                            x       y       z     vdW  Elec       q    Type
REMARK                         _______ _______ _______ _____ _____    ______ ____
ROOT
ATOM      1  C2  UNL     1      27.734  -9.825 -41.188  0.00  0.00    +0.000 A 
ATOM      2  C3  UNL     1      26.454  -9.349 -41.523  0.00  0.00    +0.000 A 
ATOM      3  C4  UNL     1      25.547  -8.929 -40.547  0.00  0.00    +0.000 A 
ATOM      4  O2  UNL     1      24.393  -8.590 -40.918  0.00  0.00    +0.000 OA
ATOM      5  C5  UNL     1      25.917  -8.933 -39.184  0.00  0.00    +0.000 A 
ATOM      6  C6  UNL     1      25.105  -8.461 -38.121  0.00  0.00    +0.000 A 
ATOM      7  C7  UNL     1      25.504  -8.702 -36.781  0.00  0.00    +0.000 A 
ATOM      8  C8  UNL     1      24.697  -8.339 -35.663  0.00  0.00    +0.000 A 
ATOM      9  C10 UNL     1      25.175  -8.582 -34.345  0.00  0.00    +0.000 A 
ATOM     10  C12 UNL     1      26.433  -9.182 -34.165  0.00  0.00    +0.000 A 
ATOM     11  C13 UNL     1      27.212  -9.541 -35.255  0.00  0.00    +0.000 A 
ATOM     12  C14 UNL     1      26.764  -9.310 -36.553  0.00  0.00    +0.000 A 
ATOM     13  O6  UNL     1      27.555  -9.664 -37.554  0.00  0.00    +0.000 OA
ATOM     14  C15 UNL     1      27.236  -9.517 -38.829  0.00  0.00    +0.000 A 
ATOM     15  C16 UNL     1      28.128  -9.922 -39.847  0.00  0.00    +0.000 A 
ENDROOT
BRANCH   1  17
ATOM     16  C1  UNL     1      29.417  -9.341 -42.982  0.00  0.00    +0.000 C 
ATOM     17  O1  UNL     1      28.651 -10.229 -42.172  0.00  0.00    +0.000 OA
ENDBRANCH   1  17
BRANCH   6  18
ATOM     18  O3  UNL     1      23.938  -7.729 -38.363  0.00  0.00    +0.000 OA
ATOM     19  H5  UNL     1      23.893  -6.912 -38.955  0.00  0.00    +0.000 HD
ENDBRANCH   6  18
BRANCH   8  20
ATOM     20  O4  UNL     1      23.436  -7.756 -35.910  0.00  0.00    +0.000 OA
ATOM     21  C9  UNL     1      22.993  -6.458 -35.529  0.00  0.00    +0.000 C 
ENDBRANCH   8  20
BRANCH   9  22
ATOM     22  O5  UNL     1      24.394  -8.223 -33.234  0.00  0.00    +0.000 OA
ATOM     23  C11 UNL     1      23.355  -9.017 -32.670  0.00  0.00    +0.000 C 
ENDBRANCH   9  22
BRANCH  15  24
ATOM     24  O7  UNL     1      29.415 -10.436 -39.595  0.00  0.00    +0.000 OA
ATOM     25  C17 UNL     1      30.590  -9.679 -39.325  0.00  0.00    +0.000 C 
ENDBRANCH  15  24
TORSDOF 5
ENDMDL
MODEL 5
REMARK VINA RESULT:    -5.038      1.779      6.914
REMARK INTER + INTRA:          -6.569
REMARK INTER:                  -6.351
REMARK INTRA:                  -0.218
REMARK UNBOUND:                -0.207
REMARK  Name = resultss/4CJN/ligands/lig_287_t1.pdb
REMARK  9 active torsions:
REMARK  status: ('A' for Active; 'I' for Inactive)
REMARK    1  A    between atoms: C1_1  and  O1_2
REMARK    2  A    between atoms: O1_2  and  C2_3
REMARK    3  A    between atoms: C6_8  and  O3_9
REMARK    4  A    between atoms: C8_11  and  O4_12
REMARK    5  A    between atoms: O4_12  and  C9_13
REMARK    6  A    between atoms: C10_14  and  O5_15
REMARK    7  A    between atoms: O5_15  and  C11_16
REMARK    8  A    between atoms: C16_22  and  O7_23
REMARK    9  A    between atoms: O7_23  and  C17_24
REMARK                            x       y       z     vdW  Elec       q    Type
REMARK                         _______ _______ _______ _____ _____    ______ ____
ROOT
ATOM      1  C2  UNL     1      28.458  -9.681 -35.860  0.00  0.00    +0.000 A 
ATOM      2  C3  UNL     1      27.185  -9.192 -35.516  0.00  0.00    +0.000 A 
ATOM      3  C4  UNL     1      26.223  -8.901 -36.486  0.00  0.00    +0.000 A 
ATOM      4  O2  UNL     1      25.135  -8.393 -36.107  0.00  0.00    +0.000 OA
ATOM      5  C5  UNL     1      26.497  -9.135 -37.851  0.00  0.00    +0.000 A 
ATOM      6  C6  UNL     1      25.572  -8.944 -38.909  0.00  0.00    +0.000 A 
ATOM      7  C7  UNL     1      26.024  -9.019 -40.253  0.00  0.00    +0.000 A 
ATOM      8  C8  UNL     1      25.174  -8.751 -41.365  0.00  0.00    +0.000 A 
ATOM      9  C10 UNL     1      25.687  -8.877 -42.686  0.00  0.00    +0.000 A 
ATOM     10  C12 UNL     1      27.026  -9.259 -42.874  0.00  0.00    +0.000 A 
ATOM     11  C13 UNL     1      27.853  -9.512 -41.789  0.00  0.00    +0.000 A 
ATOM     12  C14 UNL     1      27.370  -9.397 -40.489  0.00  0.00    +0.000 A 
ATOM     13  O6  UNL     1      28.202  -9.660 -39.492  0.00  0.00    +0.000 OA
ATOM     14  C15 UNL     1      27.871  -9.568 -38.216  0.00  0.00    +0.000 A 
ATOM     15  C16 UNL     1      28.812  -9.860 -37.203  0.00  0.00    +0.000 A 
ENDROOT
BRANCH   1  17
ATOM     16  C1  UNL     1      29.357  -9.570 -33.522  0.00  0.00    +0.000 C 
ATOM     17  O1  UNL     1      29.418  -9.991 -34.882  0.00  0.00    +0.000 OA
ENDBRANCH   1  17
BRANCH   6  18
ATOM     18  O3  UNL     1      24.213  -8.722 -38.661  0.00  0.00    +0.000 OA
ATOM     19  H5  UNL     1      23.774  -7.813 -38.683  0.00  0.00    +0.000 HD
ENDBRANCH   6  18
BRANCH   8  20
ATOM     20  O4  UNL     1      23.844  -8.355 -41.109  0.00  0.00    +0.000 OA
ATOM     21  C9  UNL     1      23.266  -7.072 -41.324  0.00  0.00    +0.000 C 
ENDBRANCH   8  20
BRANCH   9  22
ATOM     22  O5  UNL     1      24.859  -8.623 -43.791  0.00  0.00    +0.000 OA
ATOM     23  C11 UNL     1      24.926  -7.464 -44.617  0.00  0.00    +0.000 C 
ENDBRANCH   9  22
BRANCH  15  24
ATOM     24  O7  UNL     1      30.116 -10.326 -37.464  0.00  0.00    +0.000 OA
ATOM     25  C17 UNL     1      31.242  -9.532 -37.820  0.00  0.00    +0.000 C 
ENDBRANCH  15  24
TORSDOF 5
ENDMDL
MODEL 6
REMARK VINA RESULT:    -4.916      1.666      2.019
REMARK INTER + INTRA:          -6.416
REMARK INTER:                  -6.193
REMARK INTRA:                  -0.222
REMARK UNBOUND:                -0.207
REMARK  Name = resultss/4CJN/ligands/lig_287_t1.pdb
REMARK  9 active torsions:
REMARK  status: ('A' for Active; 'I' for Inactive)
REMARK    1  A    between atoms: C1_1  and  O1_2
REMARK    2  A    between atoms: O1_2  and  C2_3
REMARK    3  A    between atoms: C6_8  and  O3_9
REMARK    4  A    between atoms: C8_11  and  O4_12
REMARK    5  A    between atoms: O4_12  and  C9_13
REMARK    6  A    between atoms: C10_14  and  O5_15
REMARK    7  A    between atoms: O5_15  and  C11_16
REMARK    8  A    between atoms: C16_22  and  O7_23
REMARK    9  A    between atoms: O7_23  and  C17_24
REMARK                            x       y       z     vdW  Elec       q    Type
REMARK                         _______ _______ _______ _____ _____    ______ ____
ROOT
ATOM      1  C2  UNL     1      28.307  -9.773 -40.589  0.00  0.00    +0.000 A 
ATOM      2  C3  UNL     1      29.262 -10.079 -39.604  0.00  0.00    +0.000 A 
ATOM      3  C4  UNL     1      28.975  -9.966 -38.242  0.00  0.00    +0.000 A 
ATOM      4  O2  UNL     1      29.905 -10.182 -37.420  0.00  0.00    +0.000 OA
ATOM      5  C5  UNL     1      27.686  -9.578 -37.817  0.00  0.00    +0.000 A 
ATOM      6  C6  UNL     1      27.265  -9.502 -36.465  0.00  0.00    +0.000 A 
ATOM      7  C7  UNL     1      26.012  -8.908 -36.158  0.00  0.00    +0.000 A 
ATOM      8  C8  UNL     1      25.563  -8.715 -34.818  0.00  0.00    +0.000 A 
ATOM      9  C10 UNL     1      24.282  -8.142 -34.585  0.00  0.00    +0.000 A 
ATOM     10  C12 UNL     1      23.481  -7.769 -35.678  0.00  0.00    +0.000 A 
ATOM     11  C13 UNL     1      23.926  -7.952 -36.980  0.00  0.00    +0.000 A 
ATOM     12  C14 UNL     1      25.174  -8.513 -37.230  0.00  0.00    +0.000 A 
ATOM     13  O6  UNL     1      25.541  -8.672 -38.493  0.00  0.00    +0.000 OA
ATOM     14  C15 UNL     1      26.708  -9.173 -38.861  0.00  0.00    +0.000 A 
ATOM     15  C16 UNL     1      27.035  -9.310 -40.228  0.00  0.00    +0.000 A 
ENDROOT
BRANCH   1  17
ATOM     16  C1  UNL     1      29.800 -10.445 -42.488  0.00  0.00    +0.000 C 
ATOM     17  O1  UNL     1      28.593  -9.905 -41.959  0.00  0.00    +0.000 OA
ENDBRANCH   1  17
BRANCH   6  18
ATOM     18  O3  UNL     1      28.038 -10.035 -35.428  0.00  0.00    +0.000 OA
ATOM     19  H5  UNL     1      27.726 -10.769 -34.808  0.00  0.00    +0.000 HD
ENDBRANCH   6  18
BRANCH   8  20
ATOM     20  O4  UNL     1      26.420  -9.094 -33.764  0.00  0.00    +0.000 OA
ATOM     21  C9  UNL     1      27.116  -8.239 -32.864  0.00  0.00    +0.000 C 
ENDBRANCH   8  20
BRANCH   9  22
ATOM     22  O5  UNL     1      23.823  -7.952 -33.271  0.00  0.00    +0.000 OA
ATOM     23  C11 UNL     1      23.129  -8.925 -32.496  0.00  0.00    +0.000 C 
ENDBRANCH   9  22
BRANCH  15  24
ATOM     24  O7  UNL     1      26.147  -8.999 -41.276  0.00  0.00    +0.000 OA
ATOM     25  C17 UNL     1      25.135  -9.847 -41.807  0.00  0.00    +0.000 C 
ENDBRANCH  15  24
TORSDOF 5
ENDMDL
MODEL 7
REMARK VINA RESULT:    -4.625      1.918      7.355
REMARK INTER + INTRA:          -6.049
REMARK INTER:                  -5.845
REMARK INTRA:                  -0.204
REMARK UNBOUND:                -0.207
REMARK  Name = resultss/4CJN/ligands/lig_287_t1.pdb
REMARK  9 active torsions:
REMARK  status: ('A' for Active; 'I' for Inactive)
REMARK    1  A    between atoms: C1_1  and  O1_2
REMARK    2  A    between atoms: O1_2  and  C2_3
REMARK    3  A    between atoms: C6_8  and  O3_9
REMARK    4  A    between atoms: C8_11  and  O4_12
REMARK    5  A    between atoms: O4_12  and  C9_13
REMARK    6  A    between atoms: C10_14  and  O5_15
REMARK    7  A    between atoms: O5_15  and  C11_16
REMARK    8  A    between atoms: C16_22  and  O7_23
REMARK    9  A    between atoms: O7_23  and  C17_24
REMARK                            x       y       z     vdW  Elec       q    Type
REMARK                         _______ _______ _______ _____ _____    ______ ____
ROOT
ATOM      1  C2  UNL     1      27.100  -7.986 -33.308  0.00  0.00    +0.000 A 
ATOM      2  C3  UNL     1      25.741  -7.745 -33.578  0.00  0.00    +0.000 A 
ATOM      3  C4  UNL     1      25.202  -7.929 -34.853  0.00  0.00    +0.000 A 
ATOM      4  O2  UNL     1      23.995  -7.618 -35.035  0.00  0.00    +0.000 OA
ATOM      5  C5  UNL     1      26.010  -8.411 -35.905  0.00  0.00    +0.000 A 
ATOM      6  C6  UNL     1      25.551  -8.703 -37.214  0.00  0.00    +0.000 A 
ATOM      7  C7  UNL     1      26.494  -8.988 -38.236  0.00  0.00    +0.000 A 
ATOM      8  C8  UNL     1      26.113  -9.202 -39.594  0.00  0.00    +0.000 A 
ATOM      9  C10 UNL     1      27.110  -9.515 -40.560  0.00  0.00    +0.000 A 
ATOM     10  C12 UNL     1      28.455  -9.602 -40.163  0.00  0.00    +0.000 A 
ATOM     11  C13 UNL     1      28.822  -9.386 -38.842  0.00  0.00    +0.000 A 
ATOM     12  C14 UNL     1      27.863  -9.081 -37.881  0.00  0.00    +0.000 A 
ATOM     13  O6  UNL     1      28.271  -8.895 -36.635  0.00  0.00    +0.000 OA
ATOM     14  C15 UNL     1      27.463  -8.581 -35.637  0.00  0.00    +0.000 A 
ATOM     15  C16 UNL     1      27.967  -8.392 -34.331  0.00  0.00    +0.000 A 
ENDROOT
BRANCH   1  17
ATOM     16  C1  UNL     1      27.998  -6.563 -31.450  0.00  0.00    +0.000 C 
ATOM     17  O1  UNL     1      27.638  -7.818 -32.021  0.00  0.00    +0.000 OA
ENDBRANCH   1  17
BRANCH   6  18
ATOM     18  O3  UNL     1      24.185  -8.756 -37.515  0.00  0.00    +0.000 OA
ATOM     19  H5  UNL     1      23.704  -9.589 -37.820  0.00  0.00    +0.000 HD
ENDBRANCH   6  18
BRANCH   8  20
ATOM     20  O4  UNL     1      24.749  -9.083 -39.932  0.00  0.00    +0.000 OA
ATOM     21  C9  UNL     1      24.162  -8.169 -40.852  0.00  0.00    +0.000 C 
ENDBRANCH   8  20
BRANCH   9  22
ATOM     22  O5  UNL     1      26.749  -9.735 -41.899  0.00  0.00    +0.000 OA
ATOM     23  C11 UNL     1      27.452  -9.232 -43.031  0.00  0.00    +0.000 C 
ENDBRANCH   9  22
BRANCH  15  24
ATOM     24  O7  UNL     1      29.319  -8.584 -33.984  0.00  0.00    +0.000 OA
ATOM     25  C17 UNL     1      29.938  -9.820 -33.646  0.00  0.00    +0.000 C 
ENDBRANCH  15  24
TORSDOF 5
ENDMDL
MODEL 8
REMARK VINA RESULT:    -4.499      1.651      3.861
REMARK INTER + INTRA:          -5.890
REMARK INTER:                  -5.746
REMARK INTRA:                  -0.143
REMARK UNBOUND:                -0.207
REMARK  Name = resultss/4CJN/ligands/lig_287_t1.pdb
REMARK  9 active torsions:
REMARK  status: ('A' for Active; 'I' for Inactive)
REMARK    1  A    between atoms: C1_1  and  O1_2
REMARK    2  A    between atoms: O1_2  and  C2_3
REMARK    3  A    between atoms: C6_8  and  O3_9
REMARK    4  A    between atoms: C8_11  and  O4_12
REMARK    5  A    between atoms: O4_12  and  C9_13
REMARK    6  A    between atoms: C10_14  and  O5_15
REMARK    7  A    between atoms: O5_15  and  C11_16
REMARK    8  A    between atoms: C16_22  and  O7_23
REMARK    9  A    between atoms: O7_23  and  C17_24
REMARK                            x       y       z     vdW  Elec       q    Type
REMARK                         _______ _______ _______ _____ _____    ______ ____
ROOT
ATOM      1  C2  UNL     1      24.987  -7.171 -43.564  0.00  0.00    +0.000 A 
ATOM      2  C3  UNL     1      23.882  -6.713 -42.827  0.00  0.00    +0.000 A 
ATOM      3  C4  UNL     1      23.774  -6.931 -41.452  0.00  0.00    +0.000 A 
ATOM      4  O2  UNL     1      22.718  -6.559 -40.874  0.00  0.00    +0.000 OA
ATOM      5  C5  UNL     1      24.810  -7.588 -40.753  0.00  0.00    +0.000 A 
ATOM      6  C6  UNL     1      24.838  -7.796 -39.350  0.00  0.00    +0.000 A 
ATOM      7  C7  UNL     1      25.831  -8.644 -38.792  0.00  0.00    +0.000 A 
ATOM      8  C8  UNL     1      25.867  -8.972 -37.405  0.00  0.00    +0.000 A 
ATOM      9  C10 UNL     1      26.911  -9.802 -36.908  0.00  0.00    +0.000 A 
ATOM     10  C12 UNL     1      27.886 -10.291 -37.794  0.00  0.00    +0.000 A 
ATOM     11  C13 UNL     1      27.843  -9.975 -39.144  0.00  0.00    +0.000 A 
ATOM     12  C14 UNL     1      26.832  -9.163 -39.650  0.00  0.00    +0.000 A 
ATOM     13  O6  UNL     1      26.847  -8.887 -40.945  0.00  0.00    +0.000 OA
ATOM     14  C15 UNL     1      25.934  -8.146 -41.549  0.00  0.00    +0.000 A 
ATOM     15  C16 UNL     1      26.009  -7.896 -42.937  0.00  0.00    +0.000 A 
ENDROOT
BRANCH   1  17
ATOM     16  C1  UNL     1      24.146  -7.338 -45.920  0.00  0.00    +0.000 C 
ATOM     17  O1  UNL     1      25.103  -6.935 -44.945  0.00  0.00    +0.000 OA
ENDBRANCH   1  17
BRANCH   6  18
ATOM     18  O3  UNL     1      23.933  -7.155 -38.497  0.00  0.00    +0.000 OA
ATOM     19  H5  UNL     1      24.138  -6.309 -37.986  0.00  0.00    +0.000 HD
ENDBRANCH   6  18
BRANCH   8  20
ATOM     20  O4  UNL     1      24.849  -8.464 -36.570  0.00  0.00    +0.000 OA
ATOM     21  C9  UNL     1      25.005  -7.668 -35.400  0.00  0.00    +0.000 C 
ENDBRANCH   8  20
BRANCH   9  22
ATOM     22  O5  UNL     1      26.964 -10.128 -35.543  0.00  0.00    +0.000 OA
ATOM     23  C11 UNL     1      28.055  -9.843 -34.673  0.00  0.00    +0.000 C 
ENDBRANCH   9  22
BRANCH  15  24
ATOM     24  O7  UNL     1      27.068  -8.344 -43.752  0.00  0.00    +0.000 OA
ATOM     25  C17 UNL     1      28.342  -7.728 -43.897  0.00  0.00    +0.000 C 
ENDBRANCH  15  24
TORSDOF 5
ENDMDL
MODEL 9
REMARK VINA RESULT:    -4.463      2.201      7.297
REMARK INTER + INTRA:          -5.844
REMARK INTER:                  -5.701
REMARK INTRA:                  -0.143
REMARK UNBOUND:                -0.207
REMARK  Name = resultss/4CJN/ligands/lig_287_t1.pdb
REMARK  9 active torsions:
REMARK  status: ('A' for Active; 'I' for Inactive)
REMARK    1  A    between atoms: C1_1  and  O1_2
REMARK    2  A    between atoms: O1_2  and  C2_3
REMARK    3  A    between atoms: C6_8  and  O3_9
REMARK    4  A    between atoms: C8_11  and  O4_12
REMARK    5  A    between atoms: O4_12  and  C9_13
REMARK    6  A    between atoms: C10_14  and  O5_15
REMARK    7  A    between atoms: O5_15  and  C11_16
REMARK    8  A    between atoms: C16_22  and  O7_23
REMARK    9  A    between atoms: O7_23  and  C17_24
REMARK                            x       y       z     vdW  Elec       q    Type
REMARK                         _______ _______ _______ _____ _____    ______ ____
ROOT
ATOM      1  C2  UNL     1      26.843  -9.551 -39.347  0.00  0.00    +0.000 A 
ATOM      2  C3  UNL     1      27.738  -9.723 -40.417  0.00  0.00    +0.000 A 
ATOM      3  C4  UNL     1      27.408  -9.342 -41.719  0.00  0.00    +0.000 A 
ATOM      4  O2  UNL     1      28.231  -9.599 -42.638  0.00  0.00    +0.000 OA
ATOM      5  C5  UNL     1      26.166  -8.726 -41.987  0.00  0.00    +0.000 A 
ATOM      6  C6  UNL     1      25.760  -8.235 -43.254  0.00  0.00    +0.000 A 
ATOM      7  C7  UNL     1      24.415  -7.822 -43.442  0.00  0.00    +0.000 A 
ATOM      8  C8  UNL     1      23.910  -7.402 -44.708  0.00  0.00    +0.000 A 
ATOM      9  C10 UNL     1      22.559  -6.970 -44.816  0.00  0.00    +0.000 A 
ATOM     10  C12 UNL     1      21.740  -6.969 -43.674  0.00  0.00    +0.000 A 
ATOM     11  C13 UNL     1      22.233  -7.385 -42.445  0.00  0.00    +0.000 A 
ATOM     12  C14 UNL     1      23.552  -7.809 -42.317  0.00  0.00    +0.000 A 
ATOM     13  O6  UNL     1      23.969  -8.185 -41.118  0.00  0.00    +0.000 OA
ATOM     14  C15 UNL     1      25.190  -8.627 -40.871  0.00  0.00    +0.000 A 
ATOM     15  C16 UNL     1      25.567  -9.016 -39.566  0.00  0.00    +0.000 A 
ENDROOT
BRANCH   1  17
ATOM     16  C1  UNL     1      28.278  -9.380 -37.298  0.00  0.00    +0.000 C 
ATOM     17  O1  UNL     1      27.183  -9.918 -38.034  0.00  0.00    +0.000 OA
ENDBRANCH   1  17
BRANCH   6  18
ATOM     18  O3  UNL     1      26.664  -8.111 -44.315  0.00  0.00    +0.000 OA
ATOM     19  H5  UNL     1      27.367  -8.799 -44.543  0.00  0.00    +0.000 HD
ENDBRANCH   6  18
BRANCH   8  20
ATOM     20  O4  UNL     1      24.778  -7.443 -45.820  0.00  0.00    +0.000 OA
ATOM     21  C9  UNL     1      25.229  -6.346 -46.607  0.00  0.00    +0.000 C 
ENDBRANCH   8  20
BRANCH   9  22
ATOM     22  O5  UNL     1      22.051  -6.548 -46.055  0.00  0.00    +0.000 OA
ATOM     23  C11 UNL     1      21.596  -7.411 -47.092  0.00  0.00    +0.000 C 
ENDBRANCH   9  22
BRANCH  15  24
ATOM     24  O7  UNL     1      24.719  -8.904 -38.446  0.00  0.00    +0.000 OA
ATOM     25  C17 UNL     1      24.593  -7.774 -37.591  0.00  0.00    +0.000 C 
ENDBRANCH  15  24
TORSDOF 5
ENDMDL
