MODEL 1
REMARK VINA RESULT:    -6.162      0.000      0.000
REMARK INTER + INTRA:         -10.246
REMARK INTER:                  -9.224
REMARK INTRA:                  -1.023
REMARK UNBOUND:                -1.023
REMARK  Name = resultss/4CJN/ligands/lig_279_t1.pdb
REMARK  10 active torsions:
REMARK  status: ('A' for Active; 'I' for Inactive)
REMARK    1  A    between atoms: C2_2  and  C3_3
REMARK    2  A    between atoms: C3_3  and  C4_4
REMARK    3  A    between atoms: C6_6  and  C7_7
REMARK    4  A    between atoms: C10_10  and  O1_11
REMARK    5  A    between atoms: C11_12  and  C12_13
REMARK    6  A    between atoms: C12_13  and  C13_14
REMARK    7  A    between atoms: C17_19  and  C18_20
REMARK    8  A    between atoms: C18_20  and  C19_21
REMARK    9  A    between atoms: C18_20  and  N1_29
REMARK   10  A    between atoms: C27_32  and  C28_33
REMARK                            x       y       z     vdW  Elec       q    Type
REMARK                         _______ _______ _______ _____ _____    ______ ____
ROOT
ATOM      1  C4  UNL     1      27.627 -12.361 -40.008  0.00  0.00    +0.000 C 
ATOM      2  C5  UNL     1      28.503 -12.167 -41.010  0.00  0.00    +0.000 C 
ATOM      3  C6  UNL     1      28.867 -10.790 -41.513  0.00  0.00    +0.000 C 
ATOM      4  C16 UNL     1      28.493  -9.706 -40.530  0.00  0.00    +0.000 C 
ATOM      5  O2  UNL     1      29.030  -8.568 -40.626  0.00  0.00    +0.000 OA
ATOM      6  C17 UNL     1      27.452  -9.951 -39.504  0.00  0.00    +0.000 C 
ATOM      7  C31 UNL     1      27.027 -11.209 -39.297  0.00  0.00    +0.000 C 
ENDROOT
BRANCH   3   8
ATOM      8  C7  UNL     1      30.342 -10.711 -41.853  0.00  0.00    +0.000 A 
ATOM      9  C8  UNL     1      31.237 -10.024 -41.015  0.00  0.00    +0.000 A 
ATOM     10  C9  UNL     1      32.578  -9.880 -41.379  0.00  0.00    +0.000 A 
ATOM     11  C10 UNL     1      33.041 -10.402 -42.593  0.00  0.00    +0.000 A 
ATOM     12  C11 UNL     1      32.151 -11.080 -43.452  0.00  0.00    +0.000 A 
ATOM     13  C15 UNL     1      30.810 -11.233 -43.070  0.00  0.00    +0.000 A 
BRANCH  11  14
ATOM     14  O1  UNL     1      34.380 -10.236 -42.952  0.00  0.00    +0.000 OA
ATOM     15  H10 UNL     1      35.096 -10.892 -42.661  0.00  0.00    +0.000 HD
ENDBRANCH  11  14
BRANCH  12  16
ATOM     16  C12 UNL     1      32.615 -11.643 -44.774  0.00  0.00    +0.000 C 
BRANCH  16  17
ATOM     17  C13 UNL     1      32.458 -13.137 -44.810  0.00  0.00    +0.000 C 
ATOM     18  C14 UNL     1      32.564 -13.831 -45.949  0.00  0.00    +0.000 C 
ENDBRANCH  16  17
ENDBRANCH  12  16
ENDBRANCH   3   8
BRANCH   1  19
ATOM     19  C3  UNL     1      27.252 -13.759 -39.589  0.00  0.00    +0.000 C 
BRANCH  19  21
ATOM     20  C1  UNL     1      25.154 -14.464 -40.720  0.00  0.00    +0.000 C 
ATOM     21  C2  UNL     1      26.490 -14.469 -40.673  0.00  0.00    +0.000 C 
ENDBRANCH  19  21
ENDBRANCH   1  19
BRANCH   6  22
ATOM     22  C18 UNL     1      26.920  -8.793 -38.666  0.00  0.00    +0.000 C 
BRANCH  22  23
ATOM     23  C19 UNL     1      27.192  -9.116 -37.203  0.00  0.00    +0.000 A 
ATOM     24  C20 UNL     1      26.120  -9.229 -36.300  0.00  0.00    +0.000 A 
ATOM     25  C21 UNL     1      26.358  -9.476 -34.942  0.00  0.00    +0.000 A 
ATOM     26 CL1  UNL     1      25.014  -9.621 -33.824  0.00  0.00    +0.000 Cl
ATOM     27  C22 UNL     1      27.670  -9.606 -34.474  0.00  0.00    +0.000 A 
ATOM     28  C23 UNL     1      28.742  -9.482 -35.360  0.00  0.00    +0.000 A 
ATOM     29 CL2  UNL     1      30.389  -9.640 -34.770  0.00  0.00    +0.000 Cl
ATOM     30  C24 UNL     1      28.508  -9.235 -36.716  0.00  0.00    +0.000 A 
ENDBRANCH  22  23
BRANCH  22  31
ATOM     31  N1  UNL     1      25.479  -8.506 -38.932  0.00  0.00    +0.000 NA
ATOM     32  C25 UNL     1      24.991  -9.191 -40.166  0.00  0.00    +0.000 C 
ATOM     33  C26 UNL     1      25.203  -8.340 -41.427  0.00  0.00    +0.000 C 
ATOM     34  C27 UNL     1      24.399  -7.019 -41.354  0.00  0.00    +0.000 C 
ATOM     35  C28 UNL     1      25.140  -5.896 -42.093  0.00  0.00    +0.000 C 
ATOM     36  C29 UNL     1      24.079  -6.620 -39.895  0.00  0.00    +0.000 C 
ATOM     37  C30 UNL     1      25.212  -7.036 -38.943  0.00  0.00    +0.000 C 
ENDBRANCH  22  31
ENDBRANCH   6  22
TORSDOF 9
ENDMDL
MODEL 2
REMARK VINA RESULT:    -6.151      3.236      6.201
REMARK INTER + INTRA:         -10.231
REMARK INTER:                  -8.669
REMARK INTRA:                  -1.561
REMARK UNBOUND:                -1.023
REMARK  Name = resultss/4CJN/ligands/lig_279_t1.pdb
REMARK  10 active torsions:
REMARK  status: ('A' for Active; 'I' for Inactive)
REMARK    1  A    between atoms: C2_2  and  C3_3
REMARK    2  A    between atoms: C3_3  and  C4_4
REMARK    3  A    between atoms: C6_6  and  C7_7
REMARK    4  A    between atoms: C10_10  and  O1_11
REMARK    5  A    between atoms: C11_12  and  C12_13
REMARK    6  A    between atoms: C12_13  and  C13_14
REMARK    7  A    between atoms: C17_19  and  C18_20
REMARK    8  A    between atoms: C18_20  and  C19_21
REMARK    9  A    between atoms: C18_20  and  N1_29
REMARK   10  A    between atoms: C27_32  and  C28_33
REMARK                            x       y       z     vdW  Elec       q    Type
REMARK                         _______ _______ _______ _____ _____    ______ ____
ROOT
ATOM      1  C4  UNL     1      29.659 -10.716 -41.719  0.00  0.00    +0.000 C 
ATOM      2  C5  UNL     1      28.497 -10.410 -42.323  0.00  0.00    +0.000 C 
ATOM      3  C6  UNL     1      27.378  -9.687 -41.610  0.00  0.00    +0.000 C 
ATOM      4  C16 UNL     1      27.855  -8.997 -40.353  0.00  0.00    +0.000 C 
ATOM      5  O2  UNL     1      27.154  -8.081 -39.844  0.00  0.00    +0.000 OA
ATOM      6  C17 UNL     1      29.099  -9.441 -39.681  0.00  0.00    +0.000 C 
ATOM      7  C31 UNL     1      29.922 -10.284 -40.327  0.00  0.00    +0.000 C 
ENDROOT
BRANCH   3   8
ATOM      8  C7  UNL     1      26.702  -8.695 -42.534  0.00  0.00    +0.000 A 
ATOM      9  C8  UNL     1      25.302  -8.562 -42.547  0.00  0.00    +0.000 A 
ATOM     10  C9  UNL     1      24.680  -7.711 -43.464  0.00  0.00    +0.000 A 
ATOM     11  C10 UNL     1      25.443  -6.994 -44.393  0.00  0.00    +0.000 A 
ATOM     12  C11 UNL     1      26.847  -7.128 -44.403  0.00  0.00    +0.000 A 
ATOM     13  C15 UNL     1      27.464  -7.974 -43.468  0.00  0.00    +0.000 A 
BRANCH  11  14
ATOM     14  O1  UNL     1      24.807  -6.160 -45.313  0.00  0.00    +0.000 OA
ATOM     15  H10 UNL     1      24.301  -5.331 -45.022  0.00  0.00    +0.000 HD
ENDBRANCH  11  14
BRANCH  12  16
ATOM     16  C12 UNL     1      27.698  -6.380 -45.401  0.00  0.00    +0.000 C 
BRANCH  16  17
ATOM     17  C13 UNL     1      27.681  -7.057 -46.742  0.00  0.00    +0.000 C 
ATOM     18  C14 UNL     1      27.517  -6.370 -47.878  0.00  0.00    +0.000 C 
ENDBRANCH  16  17
ENDBRANCH  12  16
ENDBRANCH   3   8
BRANCH   1  19
ATOM     19  C3  UNL     1      30.716 -11.496 -42.458  0.00  0.00    +0.000 C 
BRANCH  19  21
ATOM     20  C1  UNL     1      32.438 -10.903 -44.150  0.00  0.00    +0.000 C 
ATOM     21  C2  UNL     1      31.200 -10.748 -43.669  0.00  0.00    +0.000 C 
ENDBRANCH  19  21
ENDBRANCH   1  19
BRANCH   6  22
ATOM     22  C18 UNL     1      29.454  -8.899 -38.301  0.00  0.00    +0.000 C 
BRANCH  22  23
ATOM     23  C19 UNL     1      30.935  -8.541 -38.309  0.00  0.00    +0.000 A 
ATOM     24  C20 UNL     1      31.398  -7.498 -39.132  0.00  0.00    +0.000 A 
ATOM     25  C21 UNL     1      32.763  -7.191 -39.188  0.00  0.00    +0.000 A 
ATOM     26 CL1  UNL     1      33.330  -5.884 -40.212  0.00  0.00    +0.000 Cl
ATOM     27  C22 UNL     1      33.677  -7.927 -38.428  0.00  0.00    +0.000 A 
ATOM     28  C23 UNL     1      33.230  -8.973 -37.618  0.00  0.00    +0.000 A 
ATOM     29 CL2  UNL     1      34.380  -9.900 -36.668  0.00  0.00    +0.000 Cl
ATOM     30  C24 UNL     1      31.868  -9.283 -37.560  0.00  0.00    +0.000 A 
ENDBRANCH  22  23
BRANCH  22  31
ATOM     31  N1  UNL     1      29.099  -9.847 -37.202  0.00  0.00    +0.000 NA
ATOM     32  C25 UNL     1      27.730 -10.416 -37.377  0.00  0.00    +0.000 C 
ATOM     33  C26 UNL     1      26.648  -9.543 -36.723  0.00  0.00    +0.000 C 
ATOM     34  C27 UNL     1      26.854  -9.448 -35.192  0.00  0.00    +0.000 C 
ATOM     35  C28 UNL     1      26.380  -8.084 -34.668  0.00  0.00    +0.000 C 
ATOM     36  C29 UNL     1      28.321  -9.729 -34.789  0.00  0.00    +0.000 C 
ATOM     37  C30 UNL     1      29.299  -9.221 -35.860  0.00  0.00    +0.000 C 
ENDBRANCH  22  31
ENDBRANCH   6  22
TORSDOF 9
ENDMDL
MODEL 3
REMARK VINA RESULT:    -6.028      0.212      1.533
REMARK INTER + INTRA:         -10.046
REMARK INTER:                  -9.049
REMARK INTRA:                  -0.997
REMARK UNBOUND:                -1.023
REMARK  Name = resultss/4CJN/ligands/lig_279_t1.pdb
REMARK  10 active torsions:
REMARK  status: ('A' for Active; 'I' for Inactive)
REMARK    1  A    between atoms: C2_2  and  C3_3
REMARK    2  A    between atoms: C3_3  and  C4_4
REMARK    3  A    between atoms: C6_6  and  C7_7
REMARK    4  A    between atoms: C10_10  and  O1_11
REMARK    5  A    between atoms: C11_12  and  C12_13
REMARK    6  A    between atoms: C12_13  and  C13_14
REMARK    7  A    between atoms: C17_19  and  C18_20
REMARK    8  A    between atoms: C18_20  and  C19_21
REMARK    9  A    between atoms: C18_20  and  N1_29
REMARK   10  A    between atoms: C27_32  and  C28_33
REMARK                            x       y       z     vdW  Elec       q    Type
REMARK                         _______ _______ _______ _____ _____    ______ ____
ROOT
ATOM      1  C4  UNL     1      27.575 -12.216 -39.971  0.00  0.00    +0.000 C 
ATOM      2  C5  UNL     1      28.441 -12.045 -40.984  0.00  0.00    +0.000 C 
ATOM      3  C6  UNL     1      28.829 -10.677 -41.497  0.00  0.00    +0.000 C 
ATOM      4  C16 UNL     1      28.494  -9.583 -40.512  0.00  0.00    +0.000 C 
ATOM      5  O2  UNL     1      29.054  -8.458 -40.619  0.00  0.00    +0.000 OA
ATOM      6  C17 UNL     1      27.461  -9.801 -39.472  0.00  0.00    +0.000 C 
ATOM      7  C31 UNL     1      27.010 -11.048 -39.256  0.00  0.00    +0.000 C 
ENDROOT
BRANCH   3   8
ATOM      8  C7  UNL     1      30.301 -10.633 -41.857  0.00  0.00    +0.000 A 
ATOM      9  C8  UNL     1      31.239 -10.060 -40.980  0.00  0.00    +0.000 A 
ATOM     10  C9  UNL     1      32.579  -9.943 -41.356  0.00  0.00    +0.000 A 
ATOM     11  C10 UNL     1      33.000 -10.378 -42.619  0.00  0.00    +0.000 A 
ATOM     12  C11 UNL     1      32.068 -10.940 -43.515  0.00  0.00    +0.000 A 
ATOM     13  C15 UNL     1      30.727 -11.068 -43.122  0.00  0.00    +0.000 A 
BRANCH  11  14
ATOM     14  O1  UNL     1      34.339 -10.239 -42.987  0.00  0.00    +0.000 OA
ATOM     15  H10 UNL     1      35.082 -10.216 -42.298  0.00  0.00    +0.000 HD
ENDBRANCH  11  14
BRANCH  12  16
ATOM     16  C12 UNL     1      32.486 -11.406 -44.889  0.00  0.00    +0.000 C 
BRANCH  16  17
ATOM     17  C13 UNL     1      32.950 -12.836 -44.857  0.00  0.00    +0.000 C 
ATOM     18  C14 UNL     1      32.628 -13.705 -45.822  0.00  0.00    +0.000 C 
ENDBRANCH  16  17
ENDBRANCH  12  16
ENDBRANCH   3   8
BRANCH   1  19
ATOM     19  C3  UNL     1      27.173 -13.604 -39.542  0.00  0.00    +0.000 C 
BRANCH  19  21
ATOM     20  C1  UNL     1      25.224 -14.919 -40.349  0.00  0.00    +0.000 C 
ATOM     21  C2  UNL     1      26.379 -14.298 -40.612  0.00  0.00    +0.000 C 
ENDBRANCH  19  21
ENDBRANCH   1  19
BRANCH   6  22
ATOM     22  C18 UNL     1      26.966  -8.629 -38.631  0.00  0.00    +0.000 C 
BRANCH  22  23
ATOM     23  C19 UNL     1      27.209  -8.974 -37.167  0.00  0.00    +0.000 A 
ATOM     24  C20 UNL     1      28.525  -9.118 -36.691  0.00  0.00    +0.000 A 
ATOM     25  C21 UNL     1      28.762  -9.483 -35.360  0.00  0.00    +0.000 A 
ATOM     26 CL1  UNL     1      30.407  -9.654 -34.773  0.00  0.00    +0.000 Cl
ATOM     27  C22 UNL     1      27.687  -9.714 -34.495  0.00  0.00    +0.000 A 
ATOM     28  C23 UNL     1      26.377  -9.587 -34.962  0.00  0.00    +0.000 A 
ATOM     29 CL2  UNL     1      25.028  -9.881 -33.876  0.00  0.00    +0.000 Cl
ATOM     30  C24 UNL     1      26.136  -9.223 -36.290  0.00  0.00    +0.000 A 
ENDBRANCH  22  23
BRANCH  22  31
ATOM     31  N1  UNL     1      25.541  -8.282 -38.910  0.00  0.00    +0.000 NA
ATOM     32  C25 UNL     1      25.006  -9.024 -40.090  0.00  0.00    +0.000 C 
ATOM     33  C26 UNL     1      25.254  -8.276 -41.410  0.00  0.00    +0.000 C 
ATOM     34  C27 UNL     1      24.524  -6.911 -41.425  0.00  0.00    +0.000 C 
ATOM     35  C28 UNL     1      25.320  -5.885 -42.245  0.00  0.00    +0.000 C 
ATOM     36  C29 UNL     1      24.238  -6.394 -39.996  0.00  0.00    +0.000 C 
ATOM     37  C30 UNL     1      25.355  -6.804 -39.022  0.00  0.00    +0.000 C 
ENDBRANCH  22  31
ENDBRANCH   6  22
TORSDOF 9
ENDMDL
MODEL 4
REMARK VINA RESULT:    -5.878      3.746      7.936
REMARK INTER + INTRA:          -9.821
REMARK INTER:                  -8.612
REMARK INTRA:                  -1.209
REMARK UNBOUND:                -1.023
REMARK  Name = resultss/4CJN/ligands/lig_279_t1.pdb
REMARK  10 active torsions:
REMARK  status: ('A' for Active; 'I' for Inactive)
REMARK    1  A    between atoms: C2_2  and  C3_3
REMARK    2  A    between atoms: C3_3  and  C4_4
REMARK    3  A    between atoms: C6_6  and  C7_7
REMARK    4  A    between atoms: C10_10  and  O1_11
REMARK    5  A    between atoms: C11_12  and  C12_13
REMARK    6  A    between atoms: C12_13  and  C13_14
REMARK    7  A    between atoms: C17_19  and  C18_20
REMARK    8  A    between atoms: C18_20  and  C19_21
REMARK    9  A    between atoms: C18_20  and  N1_29
REMARK   10  A    between atoms: C27_32  and  C28_33
REMARK                            x       y       z     vdW  Elec       q    Type
REMARK                         _______ _______ _______ _____ _____    ______ ____
ROOT
ATOM      1  C4  UNL     1      27.505 -10.992 -39.724  0.00  0.00    +0.000 C 
ATOM      2  C5  UNL     1      27.681 -11.007 -38.391  0.00  0.00    +0.000 C 
ATOM      3  C6  UNL     1      28.418  -9.909 -37.659  0.00  0.00    +0.000 C 
ATOM      4  C16 UNL     1      28.539  -8.652 -38.488  0.00  0.00    +0.000 C 
ATOM      5  O2  UNL     1      28.800  -7.557 -37.920  0.00  0.00    +0.000 OA
ATOM      6  C17 UNL     1      28.427  -8.715 -39.964  0.00  0.00    +0.000 C 
ATOM      7  C31 UNL     1      27.972  -9.843 -40.534  0.00  0.00    +0.000 C 
ENDROOT
BRANCH   3   8
ATOM      8  C7  UNL     1      27.752  -9.606 -36.332  0.00  0.00    +0.000 A 
ATOM      9  C8  UNL     1      26.364  -9.392 -36.255  0.00  0.00    +0.000 A 
ATOM     10  C9  UNL     1      25.771  -9.025 -35.045  0.00  0.00    +0.000 A 
ATOM     11  C10 UNL     1      26.554  -8.847 -33.898  0.00  0.00    +0.000 A 
ATOM     12  C11 UNL     1      27.949  -9.043 -33.963  0.00  0.00    +0.000 A 
ATOM     13  C15 UNL     1      28.534  -9.427 -35.179  0.00  0.00    +0.000 A 
BRANCH  11  14
ATOM     14  O1  UNL     1      25.949  -8.465 -32.700  0.00  0.00    +0.000 OA
ATOM     15  H10 UNL     1      24.971  -8.203 -32.656  0.00  0.00    +0.000 HD
ENDBRANCH  11  14
BRANCH  12  16
ATOM     16  C12 UNL     1      28.824  -8.847 -32.748  0.00  0.00    +0.000 C 
BRANCH  16  17
ATOM     17  C13 UNL     1      30.278  -8.998 -33.099  0.00  0.00    +0.000 C 
ATOM     18  C14 UNL     1      31.048  -9.932 -32.528  0.00  0.00    +0.000 C 
ENDBRANCH  16  17
ENDBRANCH  12  16
ENDBRANCH   3   8
BRANCH   1  19
ATOM     19  C3  UNL     1      26.820 -12.145 -40.411  0.00  0.00    +0.000 C 
BRANCH  19  21
ATOM     20  C1  UNL     1      26.633 -14.594 -40.030  0.00  0.00    +0.000 C 
ATOM     21  C2  UNL     1      27.338 -13.465 -39.913  0.00  0.00    +0.000 C 
ENDBRANCH  19  21
ENDBRANCH   1  19
BRANCH   6  22
ATOM     22  C18 UNL     1      28.773  -7.493 -40.807  0.00  0.00    +0.000 C 
BRANCH  22  23
ATOM     23  C19 UNL     1      27.831  -7.472 -42.004  0.00  0.00    +0.000 A 
ATOM     24  C20 UNL     1      28.357  -7.459 -43.309  0.00  0.00    +0.000 A 
ATOM     25  C21 UNL     1      27.505  -7.390 -44.417  0.00  0.00    +0.000 A 
ATOM     26 CL1  UNL     1      28.170  -7.380 -46.041  0.00  0.00    +0.000 Cl
ATOM     27  C22 UNL     1      26.120  -7.326 -44.232  0.00  0.00    +0.000 A 
ATOM     28  C23 UNL     1      25.588  -7.324 -42.940  0.00  0.00    +0.000 A 
ATOM     29 CL2  UNL     1      23.849  -7.240 -42.709  0.00  0.00    +0.000 Cl
ATOM     30  C24 UNL     1      26.436  -7.393 -41.831  0.00  0.00    +0.000 A 
ENDBRANCH  22  23
BRANCH  22  31
ATOM     31  N1  UNL     1      30.212  -7.459 -41.208  0.00  0.00    +0.000 NA
ATOM     32  C25 UNL     1      30.836  -8.815 -41.159  0.00  0.00    +0.000 C 
ATOM     33  C26 UNL     1      31.421  -9.137 -39.776  0.00  0.00    +0.000 C 
ATOM     34  C27 UNL     1      32.558  -8.155 -39.404  0.00  0.00    +0.000 C 
ATOM     35  C28 UNL     1      32.594  -7.922 -37.887  0.00  0.00    +0.000 C 
ATOM     36  C29 UNL     1      32.442  -6.821 -40.178  0.00  0.00    +0.000 C 
ATOM     37  C30 UNL     1      30.971  -6.443 -40.419  0.00  0.00    +0.000 C 
ENDBRANCH  22  31
ENDBRANCH   6  22
TORSDOF 9
ENDMDL
MODEL 5
REMARK VINA RESULT:    -5.802      3.357      6.518
REMARK INTER + INTRA:          -9.708
REMARK INTER:                  -8.696
REMARK INTRA:                  -1.011
REMARK UNBOUND:                -1.023
REMARK  Name = resultss/4CJN/ligands/lig_279_t1.pdb
REMARK  10 active torsions:
REMARK  status: ('A' for Active; 'I' for Inactive)
REMARK    1  A    between atoms: C2_2  and  C3_3
REMARK    2  A    between atoms: C3_3  and  C4_4
REMARK    3  A    between atoms: C6_6  and  C7_7
REMARK    4  A    between atoms: C10_10  and  O1_11
REMARK    5  A    between atoms: C11_12  and  C12_13
REMARK    6  A    between atoms: C12_13  and  C13_14
REMARK    7  A    between atoms: C17_19  and  C18_20
REMARK    8  A    between atoms: C18_20  and  C19_21
REMARK    9  A    between atoms: C18_20  and  N1_29
REMARK   10  A    between atoms: C27_32  and  C28_33
REMARK                            x       y       z     vdW  Elec       q    Type
REMARK                         _______ _______ _______ _____ _____    ______ ____
ROOT
ATOM      1  C4  UNL     1      26.123  -7.610 -36.327  0.00  0.00    +0.000 C 
ATOM      2  C5  UNL     1      26.839  -8.284 -35.411  0.00  0.00    +0.000 C 
ATOM      3  C6  UNL     1      27.515  -9.601 -35.718  0.00  0.00    +0.000 C 
ATOM      4  C16 UNL     1      27.654  -9.837 -37.204  0.00  0.00    +0.000 C 
ATOM      5  O2  UNL     1      28.486 -10.688 -37.622  0.00  0.00    +0.000 OA
ATOM      6  C17 UNL     1      26.770  -9.130 -38.161  0.00  0.00    +0.000 C 
ATOM      7  C31 UNL     1      26.025  -8.103 -37.720  0.00  0.00    +0.000 C 
ENDROOT
BRANCH   3   8
ATOM      8  C7  UNL     1      28.867  -9.684 -35.040  0.00  0.00    +0.000 A 
ATOM      9  C8  UNL     1      28.967  -9.970 -33.666  0.00  0.00    +0.000 A 
ATOM     10  C9  UNL     1      30.210  -9.958 -33.030  0.00  0.00    +0.000 A 
ATOM     11  C10 UNL     1      31.370  -9.641 -33.748  0.00  0.00    +0.000 A 
ATOM     12  C11 UNL     1      31.284  -9.337 -35.122  0.00  0.00    +0.000 A 
ATOM     13  C15 UNL     1      30.032  -9.367 -35.757  0.00  0.00    +0.000 A 
BRANCH  11  14
ATOM     14  O1  UNL     1      32.602  -9.617 -33.095  0.00  0.00    +0.000 OA
ATOM     15  H10 UNL     1      32.779 -10.173 -32.266  0.00  0.00    +0.000 HD
ENDBRANCH  11  14
BRANCH  12  16
ATOM     16  C12 UNL     1      32.513  -8.978 -35.923  0.00  0.00    +0.000 C 
BRANCH  16  17
ATOM     17  C13 UNL     1      32.454  -9.575 -37.301  0.00  0.00    +0.000 C 
ATOM     18  C14 UNL     1      33.406 -10.397 -37.756  0.00  0.00    +0.000 C 
ENDBRANCH  16  17
ENDBRANCH  12  16
ENDBRANCH   3   8
BRANCH   1  19
ATOM     19  C3  UNL     1      25.416  -6.334 -35.949  0.00  0.00    +0.000 C 
BRANCH  19  21
ATOM     20  C1  UNL     1      23.097  -7.145 -35.568  0.00  0.00    +0.000 C 
ATOM     21  C2  UNL     1      24.220  -6.608 -35.080  0.00  0.00    +0.000 C 
ENDBRANCH  19  21
ENDBRANCH   1  19
BRANCH   6  22
ATOM     22  C18 UNL     1      26.759  -9.537 -39.630  0.00  0.00    +0.000 C 
BRANCH  22  23
ATOM     23  C19 UNL     1      28.185  -9.422 -40.155  0.00  0.00    +0.000 A 
ATOM     24  C20 UNL     1      28.708 -10.430 -40.985  0.00  0.00    +0.000 A 
ATOM     25  C21 UNL     1      30.033 -10.362 -41.434  0.00  0.00    +0.000 A 
ATOM     26 CL1  UNL     1      30.676 -11.620 -42.474  0.00  0.00    +0.000 Cl
ATOM     27  C22 UNL     1      30.848  -9.291 -41.052  0.00  0.00    +0.000 A 
ATOM     28  C23 UNL     1      30.342  -8.293 -40.217  0.00  0.00    +0.000 A 
ATOM     29 CL2  UNL     1      31.367  -6.951 -39.734  0.00  0.00    +0.000 Cl
ATOM     30  C24 UNL     1      29.020  -8.357 -39.767  0.00  0.00    +0.000 A 
ENDBRANCH  22  23
BRANCH  22  31
ATOM     31  N1  UNL     1      25.784  -8.745 -40.439  0.00  0.00    +0.000 NA
ATOM     32  C25 UNL     1      25.144  -9.569 -41.506  0.00  0.00    +0.000 C 
ATOM     33  C26 UNL     1      25.952  -9.561 -42.813  0.00  0.00    +0.000 C 
ATOM     34  C27 UNL     1      26.045  -8.134 -43.405  0.00  0.00    +0.000 C 
ATOM     35  C28 UNL     1      27.376  -7.944 -44.146  0.00  0.00    +0.000 C 
ATOM     36  C29 UNL     1      25.839  -7.047 -42.324  0.00  0.00    +0.000 C 
ATOM     37  C30 UNL     1      26.408  -7.495 -40.969  0.00  0.00    +0.000 C 
ENDBRANCH  22  31
ENDBRANCH   6  22
TORSDOF 9
ENDMDL
MODEL 6
REMARK VINA RESULT:    -5.543      3.939      8.031
REMARK INTER + INTRA:          -9.321
REMARK INTER:                  -9.203
REMARK INTRA:                  -0.118
REMARK UNBOUND:                -1.023
REMARK  Name = resultss/4CJN/ligands/lig_279_t1.pdb
REMARK  10 active torsions:
REMARK  status: ('A' for Active; 'I' for Inactive)
REMARK    1  A    between atoms: C2_2  and  C3_3
REMARK    2  A    between atoms: C3_3  and  C4_4
REMARK    3  A    between atoms: C6_6  and  C7_7
REMARK    4  A    between atoms: C10_10  and  O1_11
REMARK    5  A    between atoms: C11_12  and  C12_13
REMARK    6  A    between atoms: C12_13  and  C13_14
REMARK    7  A    between atoms: C17_19  and  C18_20
REMARK    8  A    between atoms: C18_20  and  C19_21
REMARK    9  A    between atoms: C18_20  and  N1_29
REMARK   10  A    between atoms: C27_32  and  C28_33
REMARK                            x       y       z     vdW  Elec       q    Type
REMARK                         _______ _______ _______ _____ _____    ______ ____
ROOT
ATOM      1  C4  UNL     1      26.976  -8.570 -34.099  0.00  0.00    +0.000 C 
ATOM      2  C5  UNL     1      27.923  -9.090 -33.298  0.00  0.00    +0.000 C 
ATOM      3  C6  UNL     1      29.173  -9.743 -33.839  0.00  0.00    +0.000 C 
ATOM      4  C16 UNL     1      29.432  -9.373 -35.280  0.00  0.00    +0.000 C 
ATOM      5  O2  UNL     1      30.585  -9.536 -35.766  0.00  0.00    +0.000 OA
ATOM      6  C17 UNL     1      28.325  -8.892 -36.140  0.00  0.00    +0.000 C 
ATOM      7  C31 UNL     1      27.158  -8.553 -35.569  0.00  0.00    +0.000 C 
ENDROOT
BRANCH   3   8
ATOM      8  C7  UNL     1      30.375  -9.402 -32.981  0.00  0.00    +0.000 A 
ATOM      9  C8  UNL     1      30.766  -8.064 -32.791  0.00  0.00    +0.000 A 
ATOM     10  C9  UNL     1      31.926  -7.762 -32.072  0.00  0.00    +0.000 A 
ATOM     11  C10 UNL     1      32.722  -8.788 -31.550  0.00  0.00    +0.000 A 
ATOM     12  C11 UNL     1      32.351 -10.135 -31.746  0.00  0.00    +0.000 A 
ATOM     13  C15 UNL     1      31.176 -10.428 -32.455  0.00  0.00    +0.000 A 
BRANCH  11  14
ATOM     14  O1  UNL     1      33.886  -8.471 -30.849  0.00  0.00    +0.000 OA
ATOM     15  H10 UNL     1      33.888  -7.793 -30.096  0.00  0.00    +0.000 HD
ENDBRANCH  11  14
BRANCH  12  16
ATOM     16  C12 UNL     1      33.194 -11.265 -31.207  0.00  0.00    +0.000 C 
BRANCH  16  17
ATOM     17  C13 UNL     1      32.346 -12.461 -30.873  0.00  0.00    +0.000 C 
ATOM     18  C14 UNL     1      32.672 -13.693 -31.278  0.00  0.00    +0.000 C 
ENDBRANCH  16  17
ENDBRANCH  12  16
ENDBRANCH   3   8
BRANCH   1  19
ATOM     19  C3  UNL     1      25.718  -7.988 -33.508  0.00  0.00    +0.000 C 
BRANCH  19  21
ATOM     20  C1  UNL     1      23.441  -8.785 -32.905  0.00  0.00    +0.000 C 
ATOM     21  C2  UNL     1      24.574  -8.960 -33.593  0.00  0.00    +0.000 C 
ENDBRANCH  19  21
ENDBRANCH   1  19
BRANCH   6  22
ATOM     22  C18 UNL     1      28.540  -8.737 -37.642  0.00  0.00    +0.000 C 
BRANCH  22  23
ATOM     23  C19 UNL     1      27.330  -8.007 -38.211  0.00  0.00    +0.000 A 
ATOM     24  C20 UNL     1      27.418  -7.377 -39.466  0.00  0.00    +0.000 A 
ATOM     25  C21 UNL     1      26.330  -6.661 -39.978  0.00  0.00    +0.000 A 
ATOM     26 CL1  UNL     1      26.448  -5.884 -41.547  0.00  0.00    +0.000 Cl
ATOM     27  C22 UNL     1      25.146  -6.562 -39.240  0.00  0.00    +0.000 A 
ATOM     28  C23 UNL     1      25.053  -7.172 -37.987  0.00  0.00    +0.000 A 
ATOM     29 CL2  UNL     1      23.568  -7.043 -37.058  0.00  0.00    +0.000 Cl
ATOM     30  C24 UNL     1      26.137  -7.888 -37.471  0.00  0.00    +0.000 A 
ENDBRANCH  22  23
BRANCH  22  31
ATOM     31  N1  UNL     1      28.796 -10.041 -38.324  0.00  0.00    +0.000 NA
ATOM     32  C25 UNL     1      30.066 -10.021 -39.108  0.00  0.00    +0.000 C 
ATOM     33  C26 UNL     1      29.856  -9.522 -40.546  0.00  0.00    +0.000 C 
ATOM     34  C27 UNL     1      28.910 -10.461 -41.332  0.00  0.00    +0.000 C 
ATOM     35  C28 UNL     1      28.091  -9.665 -42.359  0.00  0.00    +0.000 C 
ATOM     36  C29 UNL     1      27.995 -11.279 -40.390  0.00  0.00    +0.000 C 
ATOM     37  C30 UNL     1      27.619 -10.468 -39.139  0.00  0.00    +0.000 C 
ENDBRANCH  22  31
ENDBRANCH   6  22
TORSDOF 9
ENDMDL
MODEL 7
REMARK VINA RESULT:    -5.516      1.442      2.344
REMARK INTER + INTRA:          -9.280
REMARK INTER:                  -7.862
REMARK INTRA:                  -1.418
REMARK UNBOUND:                -1.023
REMARK  Name = resultss/4CJN/ligands/lig_279_t1.pdb
REMARK  10 active torsions:
REMARK  status: ('A' for Active; 'I' for Inactive)
REMARK    1  A    between atoms: C2_2  and  C3_3
REMARK    2  A    between atoms: C3_3  and  C4_4
REMARK    3  A    between atoms: C6_6  and  C7_7
REMARK    4  A    between atoms: C10_10  and  O1_11
REMARK    5  A    between atoms: C11_12  and  C12_13
REMARK    6  A    between atoms: C12_13  and  C13_14
REMARK    7  A    between atoms: C17_19  and  C18_20
REMARK    8  A    between atoms: C18_20  and  C19_21
REMARK    9  A    between atoms: C18_20  and  N1_29
REMARK   10  A    between atoms: C27_32  and  C28_33
REMARK                            x       y       z     vdW  Elec       q    Type
REMARK                         _______ _______ _______ _____ _____    ______ ____
ROOT
ATOM      1  C4  UNL     1      27.402 -11.733 -40.148  0.00  0.00    +0.000 C 
ATOM      2  C5  UNL     1      28.400 -11.823 -41.044  0.00  0.00    +0.000 C 
ATOM      3  C6  UNL     1      28.752 -10.692 -41.982  0.00  0.00    +0.000 C 
ATOM      4  C16 UNL     1      28.179  -9.372 -41.523  0.00  0.00    +0.000 C 
ATOM      5  O2  UNL     1      28.657  -8.296 -41.976  0.00  0.00    +0.000 OA
ATOM      6  C17 UNL     1      27.017  -9.338 -40.604  0.00  0.00    +0.000 C 
ATOM      7  C31 UNL     1      26.640 -10.473 -39.991  0.00  0.00    +0.000 C 
ENDROOT
BRANCH   3   8
ATOM      8  C7  UNL     1      30.254 -10.585 -42.158  0.00  0.00    +0.000 A 
ATOM      9  C8  UNL     1      31.052  -9.977 -41.174  0.00  0.00    +0.000 A 
ATOM     10  C9  UNL     1      32.423  -9.803 -41.382  0.00  0.00    +0.000 A 
ATOM     11  C10 UNL     1      33.013 -10.213 -42.584  0.00  0.00    +0.000 A 
ATOM     12  C11 UNL     1      32.222 -10.810 -43.587  0.00  0.00    +0.000 A 
ATOM     13  C15 UNL     1      30.849 -10.996 -43.362  0.00  0.00    +0.000 A 
BRANCH  11  14
ATOM     14  O1  UNL     1      34.380 -10.017 -42.785  0.00  0.00    +0.000 OA
ATOM     15  H10 UNL     1      34.785  -9.995 -43.714  0.00  0.00    +0.000 HD
ENDBRANCH  11  14
BRANCH  12  16
ATOM     16  C12 UNL     1      32.825 -11.252 -44.899  0.00  0.00    +0.000 C 
BRANCH  16  17
ATOM     17  C13 UNL     1      33.084 -12.733 -44.904  0.00  0.00    +0.000 C 
ATOM     18  C14 UNL     1      32.785 -13.499 -45.959  0.00  0.00    +0.000 C 
ENDBRANCH  16  17
ENDBRANCH  12  16
ENDBRANCH   3   8
BRANCH   1  19
ATOM     19  C3  UNL     1      27.051 -12.916 -39.281  0.00  0.00    +0.000 C 
BRANCH  19  21
ATOM     20  C1  UNL     1      25.707 -14.625 -40.485  0.00  0.00    +0.000 C 
ATOM     21  C2  UNL     1      26.902 -14.167 -40.099  0.00  0.00    +0.000 C 
ENDBRANCH  19  21
ENDBRANCH   1  19
BRANCH   6  22
ATOM     22  C18 UNL     1      26.304  -8.019 -40.325  0.00  0.00    +0.000 C 
BRANCH  22  23
ATOM     23  C19 UNL     1      26.253  -7.830 -38.814  0.00  0.00    +0.000 A 
ATOM     24  C20 UNL     1      27.442  -7.622 -38.094  0.00  0.00    +0.000 A 
ATOM     25  C21 UNL     1      27.415  -7.496 -36.699  0.00  0.00    +0.000 A 
ATOM     26 CL1  UNL     1      28.904  -7.230 -35.810  0.00  0.00    +0.000 Cl
ATOM     27  C22 UNL     1      26.200  -7.585 -36.012  0.00  0.00    +0.000 A 
ATOM     28  C23 UNL     1      25.014  -7.805 -36.717  0.00  0.00    +0.000 A 
ATOM     29 CL2  UNL     1      23.490  -7.921 -35.853  0.00  0.00    +0.000 Cl
ATOM     30  C24 UNL     1      25.038  -7.931 -38.109  0.00  0.00    +0.000 A 
ENDBRANCH  22  23
BRANCH  22  31
ATOM     31  N1  UNL     1      24.954  -7.950 -40.959  0.00  0.00    +0.000 NA
ATOM     32  C25 UNL     1      24.712  -9.096 -41.885  0.00  0.00    +0.000 C 
ATOM     33  C26 UNL     1      25.194  -8.803 -43.314  0.00  0.00    +0.000 C 
ATOM     34  C27 UNL     1      24.421  -7.613 -43.932  0.00  0.00    +0.000 C 
ATOM     35  C28 UNL     1      25.321  -6.831 -44.900  0.00  0.00    +0.000 C 
ATOM     36  C29 UNL     1      23.820  -6.690 -42.848  0.00  0.00    +0.000 C 
ATOM     37  C30 UNL     1      24.727  -6.624 -41.608  0.00  0.00    +0.000 C 
ENDBRANCH  22  31
ENDBRANCH   6  22
TORSDOF 9
ENDMDL
MODEL 8
REMARK VINA RESULT:    -5.490      3.886      8.166
REMARK INTER + INTRA:          -9.241
REMARK INTER:                  -8.445
REMARK INTRA:                  -0.797
REMARK UNBOUND:                -1.023
REMARK  Name = resultss/4CJN/ligands/lig_279_t1.pdb
REMARK  10 active torsions:
REMARK  status: ('A' for Active; 'I' for Inactive)
REMARK    1  A    between atoms: C2_2  and  C3_3
REMARK    2  A    between atoms: C3_3  and  C4_4
REMARK    3  A    between atoms: C6_6  and  C7_7
REMARK    4  A    between atoms: C10_10  and  O1_11
REMARK    5  A    between atoms: C11_12  and  C12_13
REMARK    6  A    between atoms: C12_13  and  C13_14
REMARK    7  A    between atoms: C17_19  and  C18_20
REMARK    8  A    between atoms: C18_20  and  C19_21
REMARK    9  A    between atoms: C18_20  and  N1_29
REMARK   10  A    between atoms: C27_32  and  C28_33
REMARK                            x       y       z     vdW  Elec       q    Type
REMARK                         _______ _______ _______ _____ _____    ______ ____
ROOT
ATOM      1  C4  UNL     1      27.499 -10.786 -39.746  0.00  0.00    +0.000 C 
ATOM      2  C5  UNL     1      27.635 -10.729 -38.410  0.00  0.00    +0.000 C 
ATOM      3  C6  UNL     1      28.268  -9.550 -37.709  0.00  0.00    +0.000 C 
ATOM      4  C16 UNL     1      28.322  -8.325 -38.591  0.00  0.00    +0.000 C 
ATOM      5  O2  UNL     1      28.485  -7.189 -38.068  0.00  0.00    +0.000 OA
ATOM      6  C17 UNL     1      28.259  -8.460 -40.066  0.00  0.00    +0.000 C 
ATOM      7  C31 UNL     1      27.904  -9.642 -40.595  0.00  0.00    +0.000 C 
ENDROOT
BRANCH   3   8
ATOM      8  C7  UNL     1      27.542  -9.238 -36.415  0.00  0.00    +0.000 A 
ATOM      9  C8  UNL     1      27.854  -9.930 -35.231  0.00  0.00    +0.000 A 
ATOM     10  C9  UNL     1      27.121  -9.701 -34.064  0.00  0.00    +0.000 A 
ATOM     11  C10 UNL     1      26.054  -8.794 -34.066  0.00  0.00    +0.000 A 
ATOM     12  C11 UNL     1      25.720  -8.104 -35.249  0.00  0.00    +0.000 A 
ATOM     13  C15 UNL     1      26.472  -8.329 -36.413  0.00  0.00    +0.000 A 
BRANCH  11  14
ATOM     14  O1  UNL     1      25.321  -8.588 -32.897  0.00  0.00    +0.000 OA
ATOM     15  H10 UNL     1      25.354  -7.708 -32.393  0.00  0.00    +0.000 HD
ENDBRANCH  11  14
BRANCH  12  16
ATOM     16  C12 UNL     1      24.568  -7.129 -35.288  0.00  0.00    +0.000 C 
BRANCH  16  17
ATOM     17  C13 UNL     1      23.277  -7.829 -35.612  0.00  0.00    +0.000 C 
ATOM     18  C14 UNL     1      22.372  -8.113 -34.669  0.00  0.00    +0.000 C 
ENDBRANCH  16  17
ENDBRANCH  12  16
ENDBRANCH   3   8
BRANCH   1  19
ATOM     19  C3  UNL     1      26.920 -12.016 -40.398  0.00  0.00    +0.000 C 
BRANCH  19  21
ATOM     20  C1  UNL     1      26.879 -14.471 -40.010  0.00  0.00    +0.000 C 
ATOM     21  C2  UNL     1      27.379 -13.269 -39.706  0.00  0.00    +0.000 C 
ENDBRANCH  19  21
ENDBRANCH   1  19
BRANCH   6  22
ATOM     22  C18 UNL     1      28.540  -7.253 -40.954  0.00  0.00    +0.000 C 
BRANCH  22  23
ATOM     23  C19 UNL     1      27.615  -7.339 -42.161  0.00  0.00    +0.000 A 
ATOM     24  C20 UNL     1      28.154  -7.308 -43.460  0.00  0.00    +0.000 A 
ATOM     25  C21 UNL     1      27.312  -7.336 -44.579  0.00  0.00    +0.000 A 
ATOM     26 CL1  UNL     1      27.994  -7.303 -46.195  0.00  0.00    +0.000 Cl
ATOM     27  C22 UNL     1      25.924  -7.389 -44.409  0.00  0.00    +0.000 A 
ATOM     28  C23 UNL     1      25.379  -7.406 -43.124  0.00  0.00    +0.000 A 
ATOM     29 CL2  UNL     1      23.636  -7.467 -42.912  0.00  0.00    +0.000 Cl
ATOM     30  C24 UNL     1      26.216  -7.378 -42.005  0.00  0.00    +0.000 A 
ENDBRANCH  22  23
BRANCH  22  31
ATOM     31  N1  UNL     1      29.979  -7.147 -41.341  0.00  0.00    +0.000 NA
ATOM     32  C25 UNL     1      30.721  -8.417 -41.085  0.00  0.00    +0.000 C 
ATOM     33  C26 UNL     1      31.299  -8.477 -39.663  0.00  0.00    +0.000 C 
ATOM     34  C27 UNL     1      32.334  -7.350 -39.429  0.00  0.00    +0.000 C 
ATOM     35  C28 UNL     1      32.313  -6.895 -37.963  0.00  0.00    +0.000 C 
ATOM     36  C29 UNL     1      32.118  -6.161 -40.394  0.00  0.00    +0.000 C 
ATOM     37  C30 UNL     1      30.626  -5.960 -40.704  0.00  0.00    +0.000 C 
ENDBRANCH  22  31
ENDBRANCH   6  22
TORSDOF 9
ENDMDL
MODEL 9
REMARK VINA RESULT:    -5.315      2.716      5.135
REMARK INTER + INTRA:          -8.979
REMARK INTER:                  -7.136
REMARK INTRA:                  -1.844
REMARK UNBOUND:                -1.023
REMARK  Name = resultss/4CJN/ligands/lig_279_t1.pdb
REMARK  10 active torsions:
REMARK  status: ('A' for Active; 'I' for Inactive)
REMARK    1  A    between atoms: C2_2  and  C3_3
REMARK    2  A    between atoms: C3_3  and  C4_4
REMARK    3  A    between atoms: C6_6  and  C7_7
REMARK    4  A    between atoms: C10_10  and  O1_11
REMARK    5  A    between atoms: C11_12  and  C12_13
REMARK    6  A    between atoms: C12_13  and  C13_14
REMARK    7  A    between atoms: C17_19  and  C18_20
REMARK    8  A    between atoms: C18_20  and  C19_21
REMARK    9  A    between atoms: C18_20  and  N1_29
REMARK   10  A    between atoms: C27_32  and  C28_33
REMARK                            x       y       z     vdW  Elec       q    Type
REMARK                         _______ _______ _______ _____ _____    ______ ____
ROOT
ATOM      1  C4  UNL     1      29.698 -10.047 -41.632  0.00  0.00    +0.000 C 
ATOM      2  C5  UNL     1      30.732  -9.348 -41.133  0.00  0.00    +0.000 C 
ATOM      3  C6  UNL     1      30.614  -7.893 -40.743  0.00  0.00    +0.000 C 
ATOM      4  C16 UNL     1      29.176  -7.464 -40.571  0.00  0.00    +0.000 C 
ATOM      5  O2  UNL     1      28.914  -6.416 -39.920  0.00  0.00    +0.000 OA
ATOM      6  C17 UNL     1      28.084  -8.225 -41.222  0.00  0.00    +0.000 C 
ATOM      7  C31 UNL     1      28.357  -9.429 -41.752  0.00  0.00    +0.000 C 
ENDROOT
BRANCH   3   8
ATOM      8  C7  UNL     1      31.407  -7.607 -39.483  0.00  0.00    +0.000 A 
ATOM      9  C8  UNL     1      32.389  -6.601 -39.464  0.00  0.00    +0.000 A 
ATOM     10  C9  UNL     1      33.176  -6.403 -38.327  0.00  0.00    +0.000 A 
ATOM     11  C10 UNL     1      33.009  -7.217 -37.200  0.00  0.00    +0.000 A 
ATOM     12  C11 UNL     1      32.039  -8.240 -37.210  0.00  0.00    +0.000 A 
ATOM     13  C15 UNL     1      31.242  -8.421 -38.351  0.00  0.00    +0.000 A 
BRANCH  11  14
ATOM     14  O1  UNL     1      33.814  -7.017 -36.078  0.00  0.00    +0.000 OA
ATOM     15  H10 UNL     1      34.665  -6.468 -36.122  0.00  0.00    +0.000 HD
ENDBRANCH  11  14
BRANCH  12  16
ATOM     16  C12 UNL     1      31.842  -9.144 -36.016  0.00  0.00    +0.000 C 
BRANCH  16  17
ATOM     17  C13 UNL     1      30.382  -9.311 -35.700  0.00  0.00    +0.000 C 
ATOM     18  C14 UNL     1      29.960  -9.660 -34.479  0.00  0.00    +0.000 C 
ENDBRANCH  16  17
ENDBRANCH  12  16
ENDBRANCH   3   8
BRANCH   1  19
ATOM     19  C3  UNL     1      29.888 -11.478 -42.066  0.00  0.00    +0.000 C 
BRANCH  19  21
ATOM     20  C1  UNL     1      31.795 -12.625 -43.174  0.00  0.00    +0.000 C 
ATOM     21  C2  UNL     1      30.949 -11.591 -43.125  0.00  0.00    +0.000 C 
ENDBRANCH  19  21
ENDBRANCH   1  19
BRANCH   6  22
ATOM     22  C18 UNL     1      26.666  -7.664 -41.235  0.00  0.00    +0.000 C 
BRANCH  22  23
ATOM     23  C19 UNL     1      26.101  -7.798 -39.826  0.00  0.00    +0.000 A 
ATOM     24  C20 UNL     1      25.058  -6.953 -39.407  0.00  0.00    +0.000 A 
ATOM     25  C21 UNL     1      24.563  -7.032 -38.100  0.00  0.00    +0.000 A 
ATOM     26 CL1  UNL     1      23.256  -5.978 -37.588  0.00  0.00    +0.000 Cl
ATOM     27  C22 UNL     1      25.110  -7.950 -37.198  0.00  0.00    +0.000 A 
ATOM     28  C23 UNL     1      26.155  -8.784 -37.600  0.00  0.00    +0.000 A 
ATOM     29 CL2  UNL     1      26.845  -9.934 -36.466  0.00  0.00    +0.000 Cl
ATOM     30  C24 UNL     1      26.653  -8.709 -38.905  0.00  0.00    +0.000 A 
ENDBRANCH  22  23
BRANCH  22  31
ATOM     31  N1  UNL     1      25.801  -8.311 -42.265  0.00  0.00    +0.000 NA
ATOM     32  C25 UNL     1      25.466  -7.377 -43.381  0.00  0.00    +0.000 C 
ATOM     33  C26 UNL     1      24.197  -6.560 -43.096  0.00  0.00    +0.000 C 
ATOM     34  C27 UNL     1      22.960  -7.477 -42.952  0.00  0.00    +0.000 C 
ATOM     35  C28 UNL     1      21.958  -6.878 -41.955  0.00  0.00    +0.000 C 
ATOM     36  C29 UNL     1      23.354  -8.920 -42.560  0.00  0.00    +0.000 C 
ATOM     37  C30 UNL     1      24.590  -8.930 -41.645  0.00  0.00    +0.000 C 
ENDBRANCH  22  31
ENDBRANCH   6  22
TORSDOF 9
ENDMDL
