MODEL 1
REMARK VINA RESULT:    -6.811      0.000      0.000
REMARK INTER + INTRA:          -9.217
REMARK INTER:                  -9.400
REMARK INTRA:                   0.183
REMARK UNBOUND:                 0.183
REMARK  Name = resultss/4CJN/ligands/lig_373_t1.pdb
REMARK  9 active torsions:
REMARK  status: ('A' for Active; 'I' for Inactive)
REMARK    1  A    between atoms: C1_1  and  C2_2
REMARK    2  A    between atoms: C2_2  and  O1_3
REMARK    3  A    between atoms: O1_3  and  C3_4
REMARK    4  A    between atoms: C5_6  and  C6_7
REMARK    5  A    between atoms: C6_7  and  C7_8
REMARK    6  A    between atoms: C6_7  and  C16_21
REMARK    7  A    between atoms: C15_19  and  O4_20
REMARK    8  A    between atoms: C17_22  and  O5_23
REMARK    9  A    between atoms: C27_36  and  O8_37
REMARK                            x       y       z     vdW  Elec       q    Type
REMARK                         _______ _______ _______ _____ _____    ______ ____
ROOT
ATOM      1  C6  UNL     1      28.147  -8.238 -40.315  0.00  0.00    +0.000 C 
ENDROOT
BRANCH   1   2
ATOM      2  C7  UNL     1      29.460  -8.884 -40.780  0.00  0.00    +0.000 A 
ATOM      3  C8  UNL     1      29.531  -9.930 -41.732  0.00  0.00    +0.000 A 
ATOM      4  O2  UNL     1      28.484 -10.406 -42.249  0.00  0.00    +0.000 OA
ATOM      5  C9  UNL     1      30.782 -10.460 -42.093  0.00  0.00    +0.000 A 
ATOM      6  C10 UNL     1      30.915 -11.488 -43.046  0.00  0.00    +0.000 A 
ATOM      7  C11 UNL     1      32.182 -11.985 -43.373  0.00  0.00    +0.000 A 
ATOM      8 CL1  UNL     1      32.341 -13.265 -44.563  0.00  0.00    +0.000 Cl
ATOM      9  C12 UNL     1      33.321 -11.464 -42.752  0.00  0.00    +0.000 A 
ATOM     10  C13 UNL     1      33.199 -10.447 -41.803  0.00  0.00    +0.000 A 
ATOM     11  C14 UNL     1      31.936  -9.943 -41.469  0.00  0.00    +0.000 A 
ATOM     12  O3  UNL     1      31.834  -8.983 -40.561  0.00  0.00    +0.000 OA
ATOM     13  C15 UNL     1      30.673  -8.452 -40.195  0.00  0.00    +0.000 A 
BRANCH  13  14
ATOM     14  O4  UNL     1      30.668  -7.459 -39.218  0.00  0.00    +0.000 OA
ATOM     15  H11 UNL     1      30.413  -6.507 -39.448  0.00  0.00    +0.000 HD
ENDBRANCH  13  14
ENDBRANCH   1   2
BRANCH   1  16
ATOM     16  C16 UNL     1      27.708  -8.658 -38.904  0.00  0.00    +0.000 A 
ATOM     17  C17 UNL     1      27.230  -7.691 -37.980  0.00  0.00    +0.000 A 
ATOM     18  C18 UNL     1      26.894  -8.088 -36.676  0.00  0.00    +0.000 A 
ATOM     19  C19 UNL     1      26.461  -7.165 -35.704  0.00  0.00    +0.000 A 
ATOM     20  C20 UNL     1      26.130  -7.602 -34.417  0.00  0.00    +0.000 A 
ATOM     21 CL2  UNL     1      25.595  -6.447 -33.210  0.00  0.00    +0.000 Cl
ATOM     22  C21 UNL     1      26.224  -8.959 -34.092  0.00  0.00    +0.000 A 
ATOM     23  C22 UNL     1      26.647  -9.882 -35.050  0.00  0.00    +0.000 A 
ATOM     24  C23 UNL     1      26.980  -9.454 -36.340  0.00  0.00    +0.000 A 
ATOM     25  O6  UNL     1      27.362 -10.342 -37.245  0.00  0.00    +0.000 OA
ATOM     26  C24 UNL     1      27.707 -10.014 -38.484  0.00  0.00    +0.000 A 
ATOM     27  O7  UNL     1      28.021 -10.940 -39.277  0.00  0.00    +0.000 OA
BRANCH  17  28
ATOM     28  O5  UNL     1      27.061  -6.345 -38.332  0.00  0.00    +0.000 OA
ATOM     29  H12 UNL     1      26.547  -6.028 -39.142  0.00  0.00    +0.000 HD
ENDBRANCH  17  28
ENDBRANCH   1  16
BRANCH   1  32
ATOM     30  C3  UNL     1      25.972  -7.645 -43.449  0.00  0.00    +0.000 A 
ATOM     31  C4  UNL     1      27.045  -7.578 -42.538  0.00  0.00    +0.000 A 
ATOM     32  C5  UNL     1      27.014  -8.307 -41.331  0.00  0.00    +0.000 A 
ATOM     33  C25 UNL     1      25.881  -9.085 -41.040  0.00  0.00    +0.000 A 
ATOM     34  C26 UNL     1      24.817  -9.155 -41.938  0.00  0.00    +0.000 A 
ATOM     35  C27 UNL     1      24.857  -8.443 -43.140  0.00  0.00    +0.000 A 
BRANCH  35  36
ATOM     36  O8  UNL     1      23.774  -8.539 -44.015  0.00  0.00    +0.000 OA
ATOM     37  H18 UNL     1      23.742  -8.034 -44.892  0.00  0.00    +0.000 HD
ENDBRANCH  35  36
BRANCH  30  38
ATOM     38  O1  UNL     1      25.981  -6.935 -44.661  0.00  0.00    +0.000 OA
BRANCH  38  40
ATOM     39  C1  UNL     1      27.850  -7.118 -46.164  0.00  0.00    +0.000 C 
ATOM     40  C2  UNL     1      27.106  -6.231 -45.178  0.00  0.00    +0.000 C 
ENDBRANCH  38  40
ENDBRANCH  30  38
ENDBRANCH   1  32
TORSDOF 8
ENDMDL
MODEL 2
REMARK VINA RESULT:    -6.364      1.115      2.029
REMARK INTER + INTRA:          -8.600
REMARK INTER:                  -8.777
REMARK INTRA:                   0.177
REMARK UNBOUND:                 0.183
REMARK  Name = resultss/4CJN/ligands/lig_373_t1.pdb
REMARK  9 active torsions:
REMARK  status: ('A' for Active; 'I' for Inactive)
REMARK    1  A    between atoms: C1_1  and  C2_2
REMARK    2  A    between atoms: C2_2  and  O1_3
REMARK    3  A    between atoms: O1_3  and  C3_4
REMARK    4  A    between atoms: C5_6  and  C6_7
REMARK    5  A    between atoms: C6_7  and  C7_8
REMARK    6  A    between atoms: C6_7  and  C16_21
REMARK    7  A    between atoms: C15_19  and  O4_20
REMARK    8  A    between atoms: C17_22  and  O5_23
REMARK    9  A    between atoms: C27_36  and  O8_37
REMARK                            x       y       z     vdW  Elec       q    Type
REMARK                         _______ _______ _______ _____ _____    ______ ____
ROOT
ATOM      1  C6  UNL     1      29.146  -8.311 -40.928  0.00  0.00    +0.000 C 
ENDROOT
BRANCH   1   2
ATOM      2  C7  UNL     1      30.338  -9.164 -41.385  0.00  0.00    +0.000 A 
ATOM      3  C8  UNL     1      30.264 -10.142 -42.408  0.00  0.00    +0.000 A 
ATOM      4  O2  UNL     1      29.175 -10.375 -43.000  0.00  0.00    +0.000 OA
ATOM      5  C9  UNL     1      31.410 -10.875 -42.754  0.00  0.00    +0.000 A 
ATOM      6  C10 UNL     1      31.400 -11.846 -43.774  0.00  0.00    +0.000 A 
ATOM      7  C11 UNL     1      32.567 -12.554 -44.085  0.00  0.00    +0.000 A 
ATOM      8 CL1  UNL     1      32.548 -13.761 -45.358  0.00  0.00    +0.000 Cl
ATOM      9  C12 UNL     1      33.748 -12.300 -43.381  0.00  0.00    +0.000 A 
ATOM     10  C13 UNL     1      33.768 -11.341 -42.366  0.00  0.00    +0.000 A 
ATOM     11  C14 UNL     1      32.606 -10.629 -42.048  0.00  0.00    +0.000 A 
ATOM     12  O3  UNL     1      32.636  -9.727 -41.076  0.00  0.00    +0.000 OA
ATOM     13  C15 UNL     1      31.577  -9.009 -40.721  0.00  0.00    +0.000 A 
BRANCH  13  14
ATOM     14  O4  UNL     1      31.705  -8.099 -39.675  0.00  0.00    +0.000 OA
ATOM     15  H11 UNL     1      32.472  -7.438 -39.655  0.00  0.00    +0.000 HD
ENDBRANCH  13  14
ENDBRANCH   1   2
BRANCH   1  16
ATOM     16  C16 UNL     1      28.552  -8.737 -39.577  0.00  0.00    +0.000 A 
ATOM     17  C17 UNL     1      28.261  -7.769 -38.580  0.00  0.00    +0.000 A 
ATOM     18  C18 UNL     1      27.777  -8.189 -37.330  0.00  0.00    +0.000 A 
ATOM     19  C19 UNL     1      27.517  -7.278 -36.288  0.00  0.00    +0.000 A 
ATOM     20  C20 UNL     1      27.030  -7.735 -35.058  0.00  0.00    +0.000 A 
ATOM     21 CL2  UNL     1      26.712  -6.596 -33.763  0.00  0.00    +0.000 Cl
ATOM     22  C21 UNL     1      26.797  -9.100 -34.861  0.00  0.00    +0.000 A 
ATOM     23  C22 UNL     1      27.047 -10.010 -35.890  0.00  0.00    +0.000 A 
ATOM     24  C23 UNL     1      27.533  -9.561 -37.123  0.00  0.00    +0.000 A 
ATOM     25  O6  UNL     1      27.748 -10.432 -38.097  0.00  0.00    +0.000 OA
ATOM     26  C24 UNL     1      28.221 -10.087 -39.288  0.00  0.00    +0.000 A 
ATOM     27  O7  UNL     1      28.355 -10.989 -40.156  0.00  0.00    +0.000 OA
BRANCH  17  28
ATOM     28  O5  UNL     1      28.420  -6.396 -38.807  0.00  0.00    +0.000 OA
ATOM     29  H12 UNL     1      28.626  -5.719 -38.086  0.00  0.00    +0.000 HD
ENDBRANCH  17  28
ENDBRANCH   1  16
BRANCH   1  32
ATOM     30  C3  UNL     1      25.850  -8.469 -42.932  0.00  0.00    +0.000 A 
ATOM     31  C4  UNL     1      26.806  -8.678 -41.918  0.00  0.00    +0.000 A 
ATOM     32  C5  UNL     1      28.083  -8.086 -41.996  0.00  0.00    +0.000 A 
ATOM     33  C25 UNL     1      28.398  -7.302 -43.119  0.00  0.00    +0.000 A 
ATOM     34  C26 UNL     1      27.456  -7.093 -44.126  0.00  0.00    +0.000 A 
ATOM     35  C27 UNL     1      26.186  -7.668 -44.038  0.00  0.00    +0.000 A 
BRANCH  35  36
ATOM     36  O8  UNL     1      25.269  -7.436 -45.065  0.00  0.00    +0.000 OA
ATOM     37  H18 UNL     1      25.214  -6.548 -45.549  0.00  0.00    +0.000 HD
ENDBRANCH  35  36
BRANCH  30  38
ATOM     38  O1  UNL     1      24.569  -9.041 -42.875  0.00  0.00    +0.000 OA
BRANCH  38  40
ATOM     39  C1  UNL     1      22.462  -7.879 -42.920  0.00  0.00    +0.000 C 
ATOM     40  C2  UNL     1      23.507  -8.565 -42.053  0.00  0.00    +0.000 C 
ENDBRANCH  38  40
ENDBRANCH  30  38
ENDBRANCH   1  32
TORSDOF 8
ENDMDL
MODEL 3
REMARK VINA RESULT:    -6.175      2.487      5.874
REMARK INTER + INTRA:          -8.339
REMARK INTER:                  -8.530
REMARK INTRA:                   0.191
REMARK UNBOUND:                 0.183
REMARK  Name = resultss/4CJN/ligands/lig_373_t1.pdb
REMARK  9 active torsions:
REMARK  status: ('A' for Active; 'I' for Inactive)
REMARK    1  A    between atoms: C1_1  and  C2_2
REMARK    2  A    between atoms: C2_2  and  O1_3
REMARK    3  A    between atoms: O1_3  and  C3_4
REMARK    4  A    between atoms: C5_6  and  C6_7
REMARK    5  A    between atoms: C6_7  and  C7_8
REMARK    6  A    between atoms: C6_7  and  C16_21
REMARK    7  A    between atoms: C15_19  and  O4_20
REMARK    8  A    between atoms: C17_22  and  O5_23
REMARK    9  A    between atoms: C27_36  and  O8_37
REMARK                            x       y       z     vdW  Elec       q    Type
REMARK                         _______ _______ _______ _____ _____    ______ ____
ROOT
ATOM      1  C6  UNL     1      28.593  -9.934 -40.978  0.00  0.00    +0.000 C 
ENDROOT
BRANCH   1   2
ATOM      2  C7  UNL     1      27.655  -9.285 -42.005  0.00  0.00    +0.000 A 
ATOM      3  C8  UNL     1      28.104  -8.600 -43.162  0.00  0.00    +0.000 A 
ATOM      4  O2  UNL     1      29.335  -8.476 -43.403  0.00  0.00    +0.000 OA
ATOM      5  C9  UNL     1      27.167  -8.035 -44.043  0.00  0.00    +0.000 A 
ATOM      6  C10 UNL     1      27.553  -7.359 -45.217  0.00  0.00    +0.000 A 
ATOM      7  C11 UNL     1      26.584  -6.811 -46.066  0.00  0.00    +0.000 A 
ATOM      8 CL1  UNL     1      27.072  -5.972 -47.527  0.00  0.00    +0.000 Cl
ATOM      9  C12 UNL     1      25.228  -6.931 -45.749  0.00  0.00    +0.000 A 
ATOM     10  C13 UNL     1      24.834  -7.596 -44.586  0.00  0.00    +0.000 A 
ATOM     11  C14 UNL     1      25.796  -8.147 -43.731  0.00  0.00    +0.000 A 
ATOM     12  O3  UNL     1      25.410  -8.769 -42.626  0.00  0.00    +0.000 OA
ATOM     13  C15 UNL     1      26.262  -9.321 -41.769  0.00  0.00    +0.000 A 
BRANCH  13  14
ATOM     14  O4  UNL     1      25.758  -9.937 -40.626  0.00  0.00    +0.000 OA
ATOM     15  H11 UNL     1      26.381 -10.347 -39.941  0.00  0.00    +0.000 HD
ENDBRANCH  13  14
ENDBRANCH   1   2
BRANCH   1  16
ATOM     16  C16 UNL     1      28.776  -9.116 -39.690  0.00  0.00    +0.000 A 
ATOM     17  C17 UNL     1      28.671  -9.740 -38.419  0.00  0.00    +0.000 A 
ATOM     18  C18 UNL     1      28.779  -8.961 -37.256  0.00  0.00    +0.000 A 
ATOM     19  C19 UNL     1      28.636  -9.518 -35.970  0.00  0.00    +0.000 A 
ATOM     20  C20 UNL     1      28.755  -8.708 -34.835  0.00  0.00    +0.000 A 
ATOM     21 CL2  UNL     1      28.572  -9.407 -33.237  0.00  0.00    +0.000 Cl
ATOM     22  C21 UNL     1      29.021  -7.343 -34.974  0.00  0.00    +0.000 A 
ATOM     23  C22 UNL     1      29.170  -6.783 -36.244  0.00  0.00    +0.000 A 
ATOM     24  C23 UNL     1      29.052  -7.585 -37.385  0.00  0.00    +0.000 A 
ATOM     25  O6  UNL     1      29.214  -7.045 -38.583  0.00  0.00    +0.000 OA
ATOM     26  C24 UNL     1      29.104  -7.736 -39.711  0.00  0.00    +0.000 A 
ATOM     27  O7  UNL     1      29.313  -7.134 -40.797  0.00  0.00    +0.000 OA
BRANCH  17  28
ATOM     28  O5  UNL     1      28.484 -11.122 -38.281  0.00  0.00    +0.000 OA
ATOM     29  H12 UNL     1      29.013 -11.822 -38.783  0.00  0.00    +0.000 HD
ENDBRANCH  17  28
ENDBRANCH   1  16
BRANCH   1  32
ATOM     30  C3  UNL     1      32.350 -10.301 -41.789  0.00  0.00    +0.000 A 
ATOM     31  C4  UNL     1      31.147  -9.833 -41.224  0.00  0.00    +0.000 A 
ATOM     32  C5  UNL     1      29.914 -10.431 -41.554  0.00  0.00    +0.000 A 
ATOM     33  C25 UNL     1      29.901 -11.490 -42.477  0.00  0.00    +0.000 A 
ATOM     34  C26 UNL     1      31.089 -11.957 -43.039  0.00  0.00    +0.000 A 
ATOM     35  C27 UNL     1      32.311 -11.371 -42.699  0.00  0.00    +0.000 A 
BRANCH  35  36
ATOM     36  O8  UNL     1      33.479 -11.866 -43.282  0.00  0.00    +0.000 OA
ATOM     37  H18 UNL     1      33.565 -12.828 -43.586  0.00  0.00    +0.000 HD
ENDBRANCH  35  36
BRANCH  30  38
ATOM     38  O1  UNL     1      33.592  -9.727 -41.473  0.00  0.00    +0.000 OA
BRANCH  38  40
ATOM     39  C1  UNL     1      34.143  -7.789 -40.158  0.00  0.00    +0.000 C 
ATOM     40  C2  UNL     1      33.978  -9.301 -40.169  0.00  0.00    +0.000 C 
ENDBRANCH  38  40
ENDBRANCH  30  38
ENDBRANCH   1  32
TORSDOF 8
ENDMDL
MODEL 4
REMARK VINA RESULT:    -5.775      4.088      6.985
REMARK INTER + INTRA:          -7.786
REMARK INTER:                  -7.705
REMARK INTRA:                  -0.081
REMARK UNBOUND:                 0.183
REMARK  Name = resultss/4CJN/ligands/lig_373_t1.pdb
REMARK  9 active torsions:
REMARK  status: ('A' for Active; 'I' for Inactive)
REMARK    1  A    between atoms: C1_1  and  C2_2
REMARK    2  A    between atoms: C2_2  and  O1_3
REMARK    3  A    between atoms: O1_3  and  C3_4
REMARK    4  A    between atoms: C5_6  and  C6_7
REMARK    5  A    between atoms: C6_7  and  C7_8
REMARK    6  A    between atoms: C6_7  and  C16_21
REMARK    7  A    between atoms: C15_19  and  O4_20
REMARK    8  A    between atoms: C17_22  and  O5_23
REMARK    9  A    between atoms: C27_36  and  O8_37
REMARK                            x       y       z     vdW  Elec       q    Type
REMARK                         _______ _______ _______ _____ _____    ______ ____
ROOT
ATOM      1  C6  UNL     1      28.810  -7.222 -35.644  0.00  0.00    +0.000 C 
ENDROOT
BRANCH   1   2
ATOM      2  C7  UNL     1      28.679  -7.904 -37.013  0.00  0.00    +0.000 A 
ATOM      3  C8  UNL     1      28.242  -9.240 -37.192  0.00  0.00    +0.000 A 
ATOM      4  O2  UNL     1      27.943  -9.960 -36.201  0.00  0.00    +0.000 OA
ATOM      5  C9  UNL     1      28.158  -9.778 -38.487  0.00  0.00    +0.000 A 
ATOM      6  C10 UNL     1      27.713 -11.093 -38.726  0.00  0.00    +0.000 A 
ATOM      7  C11 UNL     1      27.646 -11.587 -40.034  0.00  0.00    +0.000 A 
ATOM      8 CL1  UNL     1      27.089 -13.225 -40.325  0.00  0.00    +0.000 Cl
ATOM      9  C12 UNL     1      28.023 -10.776 -41.109  0.00  0.00    +0.000 A 
ATOM     10  C13 UNL     1      28.469  -9.472 -40.882  0.00  0.00    +0.000 A 
ATOM     11  C14 UNL     1      28.539  -8.969 -39.577  0.00  0.00    +0.000 A 
ATOM     12  O3  UNL     1      28.972  -7.733 -39.375  0.00  0.00    +0.000 OA
ATOM     13  C15 UNL     1      29.062  -7.185 -38.169  0.00  0.00    +0.000 A 
BRANCH  13  14
ATOM     14  O4  UNL     1      29.546  -5.883 -38.058  0.00  0.00    +0.000 OA
ATOM     15  H11 UNL     1      29.583  -5.419 -37.159  0.00  0.00    +0.000 HD
ENDBRANCH  13  14
ENDBRANCH   1   2
BRANCH   1  16
ATOM     16  C16 UNL     1      30.032  -7.677 -34.831  0.00  0.00    +0.000 A 
ATOM     17  C17 UNL     1      29.960  -8.830 -34.005  0.00  0.00    +0.000 A 
ATOM     18  C18 UNL     1      31.069  -9.190 -33.223  0.00  0.00    +0.000 A 
ATOM     19  C19 UNL     1      31.038 -10.295 -32.350  0.00  0.00    +0.000 A 
ATOM     20  C20 UNL     1      32.167 -10.624 -31.592  0.00  0.00    +0.000 A 
ATOM     21 CL2  UNL     1      32.121 -11.999 -30.503  0.00  0.00    +0.000 Cl
ATOM     22  C21 UNL     1      33.333  -9.859 -31.702  0.00  0.00    +0.000 A 
ATOM     23  C22 UNL     1      33.375  -8.766 -32.569  0.00  0.00    +0.000 A 
ATOM     24  C23 UNL     1      32.250  -8.429 -33.331  0.00  0.00    +0.000 A 
ATOM     25  O6  UNL     1      32.310  -7.401 -34.164  0.00  0.00    +0.000 OA
ATOM     26  C24 UNL     1      31.283  -7.011 -34.909  0.00  0.00    +0.000 A 
ATOM     27  O7  UNL     1      31.456  -6.043 -35.695  0.00  0.00    +0.000 OA
BRANCH  17  28
ATOM     28  O5  UNL     1      28.818  -9.641 -33.957  0.00  0.00    +0.000 OA
ATOM     29  H12 UNL     1      28.834 -10.640 -33.807  0.00  0.00    +0.000 HD
ENDBRANCH  17  28
ENDBRANCH   1  16
BRANCH   1  32
ATOM     30  C3  UNL     1      25.135  -7.662 -34.546  0.00  0.00    +0.000 A 
ATOM     31  C4  UNL     1      26.310  -7.711 -35.322  0.00  0.00    +0.000 A 
ATOM     32  C5  UNL     1      27.527  -7.205 -34.821  0.00  0.00    +0.000 A 
ATOM     33  C25 UNL     1      27.544  -6.627 -33.541  0.00  0.00    +0.000 A 
ATOM     34  C26 UNL     1      26.384  -6.576 -32.769  0.00  0.00    +0.000 A 
ATOM     35  C27 UNL     1      25.182  -7.092 -33.262  0.00  0.00    +0.000 A 
BRANCH  35  36
ATOM     36  O8  UNL     1      24.042  -7.024 -32.460  0.00  0.00    +0.000 OA
ATOM     37  H18 UNL     1      23.231  -7.609 -32.624  0.00  0.00    +0.000 HD
ENDBRANCH  35  36
BRANCH  30  38
ATOM     38  O1  UNL     1      23.912  -8.165 -35.018  0.00  0.00    +0.000 OA
BRANCH  38  40
ATOM     39  C1  UNL     1      21.789  -7.102 -35.410  0.00  0.00    +0.000 C 
ATOM     40  C2  UNL     1      23.112  -7.541 -36.019  0.00  0.00    +0.000 C 
ENDBRANCH  38  40
ENDBRANCH  30  38
ENDBRANCH   1  32
TORSDOF 8
ENDMDL
MODEL 5
REMARK VINA RESULT:    -5.735      4.009      7.064
REMARK INTER + INTRA:          -7.731
REMARK INTER:                  -8.682
REMARK INTRA:                   0.951
REMARK UNBOUND:                 0.183
REMARK  Name = resultss/4CJN/ligands/lig_373_t1.pdb
REMARK  9 active torsions:
REMARK  status: ('A' for Active; 'I' for Inactive)
REMARK    1  A    between atoms: C1_1  and  C2_2
REMARK    2  A    between atoms: C2_2  and  O1_3
REMARK    3  A    between atoms: O1_3  and  C3_4
REMARK    4  A    between atoms: C5_6  and  C6_7
REMARK    5  A    between atoms: C6_7  and  C7_8
REMARK    6  A    between atoms: C6_7  and  C16_21
REMARK    7  A    between atoms: C15_19  and  O4_20
REMARK    8  A    between atoms: C17_22  and  O5_23
REMARK    9  A    between atoms: C27_36  and  O8_37
REMARK                            x       y       z     vdW  Elec       q    Type
REMARK                         _______ _______ _______ _____ _____    ______ ____
ROOT
ATOM      1  C6  UNL     1      28.865  -7.680 -35.578  0.00  0.00    +0.000 C 
ENDROOT
BRANCH   1   2
ATOM      2  C7  UNL     1      28.620  -8.634 -36.755  0.00  0.00    +0.000 A 
ATOM      3  C8  UNL     1      29.262  -8.518 -38.013  0.00  0.00    +0.000 A 
ATOM      4  O2  UNL     1      30.081  -7.586 -38.237  0.00  0.00    +0.000 OA
ATOM      5  C9  UNL     1      28.970  -9.441 -39.032  0.00  0.00    +0.000 A 
ATOM      6  C10 UNL     1      29.591  -9.385 -40.295  0.00  0.00    +0.000 A 
ATOM      7  C11 UNL     1      29.267 -10.325 -41.280  0.00  0.00    +0.000 A 
ATOM      8 CL1  UNL     1      30.045 -10.252 -42.851  0.00  0.00    +0.000 Cl
ATOM      9  C12 UNL     1      28.325 -11.323 -41.014  0.00  0.00    +0.000 A 
ATOM     10  C13 UNL     1      27.702 -11.385 -39.765  0.00  0.00    +0.000 A 
ATOM     11  C14 UNL     1      28.018 -10.449 -38.774  0.00  0.00    +0.000 A 
ATOM     12  O3  UNL     1      27.414 -10.514 -37.596  0.00  0.00    +0.000 OA
ATOM     13  C15 UNL     1      27.664  -9.665 -36.605  0.00  0.00    +0.000 A 
BRANCH  13  14
ATOM     14  O4  UNL     1      26.963  -9.805 -35.410  0.00  0.00    +0.000 OA
ATOM     15  H11 UNL     1      25.950  -9.809 -35.401  0.00  0.00    +0.000 HD
ENDBRANCH  13  14
ENDBRANCH   1   2
BRANCH   1  16
ATOM     16  C16 UNL     1      30.067  -8.062 -34.701  0.00  0.00    +0.000 A 
ATOM     17  C17 UNL     1      30.064  -9.275 -33.963  0.00  0.00    +0.000 A 
ATOM     18  C18 UNL     1      31.146  -9.573 -33.119  0.00  0.00    +0.000 A 
ATOM     19  C19 UNL     1      31.175 -10.737 -32.328  0.00  0.00    +0.000 A 
ATOM     20  C20 UNL     1      32.275 -11.001 -31.503  0.00  0.00    +0.000 A 
ATOM     21 CL2  UNL     1      32.303 -12.451 -30.517  0.00  0.00    +0.000 Cl
ATOM     22  C21 UNL     1      33.352 -10.110 -31.466  0.00  0.00    +0.000 A 
ATOM     23  C22 UNL     1      33.335  -8.956 -32.251  0.00  0.00    +0.000 A 
ATOM     24  C23 UNL     1      32.239  -8.684 -33.079  0.00  0.00    +0.000 A 
ATOM     25  O6  UNL     1      32.244  -7.595 -33.832  0.00  0.00    +0.000 OA
ATOM     26  C24 UNL     1      31.238  -7.261 -34.631  0.00  0.00    +0.000 A 
ATOM     27  O7  UNL     1      31.358  -6.224 -35.333  0.00  0.00    +0.000 OA
BRANCH  17  28
ATOM     28  O5  UNL     1      29.021 -10.204 -34.063  0.00  0.00    +0.000 OA
ATOM     29  H12 UNL     1      28.691 -10.776 -33.298  0.00  0.00    +0.000 HD
ENDBRANCH  17  28
ENDBRANCH   1  16
BRANCH   1  32
ATOM     30  C3  UNL     1      25.262  -6.703 -34.592  0.00  0.00    +0.000 A 
ATOM     31  C4  UNL     1      26.391  -7.025 -35.372  0.00  0.00    +0.000 A 
ATOM     32  C5  UNL     1      27.620  -7.349 -34.763  0.00  0.00    +0.000 A 
ATOM     33  C25 UNL     1      27.709  -7.323 -33.361  0.00  0.00    +0.000 A 
ATOM     34  C26 UNL     1      26.595  -7.005 -32.585  0.00  0.00    +0.000 A 
ATOM     35  C27 UNL     1      25.374  -6.698 -33.191  0.00  0.00    +0.000 A 
BRANCH  35  36
ATOM     36  O8  UNL     1      24.280  -6.386 -32.381  0.00  0.00    +0.000 OA
ATOM     37  H18 UNL     1      23.679  -7.099 -31.987  0.00  0.00    +0.000 HD
ENDBRANCH  35  36
BRANCH  30  38
ATOM     38  O1  UNL     1      24.025  -6.382 -35.173  0.00  0.00    +0.000 OA
BRANCH  38  40
ATOM     39  C1  UNL     1      22.397  -8.108 -34.772  0.00  0.00    +0.000 C 
ATOM     40  C2  UNL     1      23.168  -7.319 -35.820  0.00  0.00    +0.000 C 
ENDBRANCH  38  40
ENDBRANCH  30  38
ENDBRANCH   1  32
TORSDOF 8
ENDMDL
MODEL 6
REMARK VINA RESULT:    -5.655      2.595      5.906
REMARK INTER + INTRA:          -7.621
REMARK INTER:                  -8.377
REMARK INTRA:                   0.756
REMARK UNBOUND:                 0.183
REMARK  Name = resultss/4CJN/ligands/lig_373_t1.pdb
REMARK  9 active torsions:
REMARK  status: ('A' for Active; 'I' for Inactive)
REMARK    1  A    between atoms: C1_1  and  C2_2
REMARK    2  A    between atoms: C2_2  and  O1_3
REMARK    3  A    between atoms: O1_3  and  C3_4
REMARK    4  A    between atoms: C5_6  and  C6_7
REMARK    5  A    between atoms: C6_7  and  C7_8
REMARK    6  A    between atoms: C6_7  and  C16_21
REMARK    7  A    between atoms: C15_19  and  O4_20
REMARK    8  A    between atoms: C17_22  and  O5_23
REMARK    9  A    between atoms: C27_36  and  O8_37
REMARK                            x       y       z     vdW  Elec       q    Type
REMARK                         _______ _______ _______ _____ _____    ______ ____
ROOT
ATOM      1  C6  UNL     1      27.813  -9.163 -41.453  0.00  0.00    +0.000 C 
ENDROOT
BRANCH   1   2
ATOM      2  C7  UNL     1      27.235  -8.348 -42.619  0.00  0.00    +0.000 A 
ATOM      3  C8  UNL     1      25.932  -8.535 -43.144  0.00  0.00    +0.000 A 
ATOM      4  O2  UNL     1      25.166  -9.418 -42.671  0.00  0.00    +0.000 OA
ATOM      5  C9  UNL     1      25.493  -7.740 -44.216  0.00  0.00    +0.000 A 
ATOM      6  C10 UNL     1      24.203  -7.870 -44.766  0.00  0.00    +0.000 A 
ATOM      7  C11 UNL     1      23.809  -7.057 -45.836  0.00  0.00    +0.000 A 
ATOM      8 CL1  UNL     1      22.200  -7.221 -46.516  0.00  0.00    +0.000 Cl
ATOM      9  C12 UNL     1      24.697  -6.114 -46.364  0.00  0.00    +0.000 A 
ATOM     10  C13 UNL     1      25.980  -5.981 -45.827  0.00  0.00    +0.000 A 
ATOM     11  C14 UNL     1      26.383  -6.790 -44.757  0.00  0.00    +0.000 A 
ATOM     12  O3  UNL     1      27.606  -6.658 -44.263  0.00  0.00    +0.000 OA
ATOM     13  C15 UNL     1      28.058  -7.385 -43.247  0.00  0.00    +0.000 A 
BRANCH  13  14
ATOM     14  O4  UNL     1      29.366  -7.185 -42.811  0.00  0.00    +0.000 OA
ATOM     15  H11 UNL     1      30.090  -7.861 -43.020  0.00  0.00    +0.000 HD
ENDBRANCH  13  14
ENDBRANCH   1   2
BRANCH   1  16
ATOM     16  C16 UNL     1      27.497  -8.582 -40.066  0.00  0.00    +0.000 A 
ATOM     17  C17 UNL     1      27.213  -9.443 -38.972  0.00  0.00    +0.000 A 
ATOM     18  C18 UNL     1      26.865  -8.889 -37.730  0.00  0.00    +0.000 A 
ATOM     19  C19 UNL     1      26.526  -9.693 -36.625  0.00  0.00    +0.000 A 
ATOM     20  C20 UNL     1      26.191  -9.102 -35.401  0.00  0.00    +0.000 A 
ATOM     21 CL2  UNL     1      25.765 -10.110 -34.029  0.00  0.00    +0.000 Cl
ATOM     22  C21 UNL     1      26.195  -7.711 -35.271  0.00  0.00    +0.000 A 
ATOM     23  C22 UNL     1      26.535  -6.905 -36.360  0.00  0.00    +0.000 A 
ATOM     24  C23 UNL     1      26.872  -7.487 -37.587  0.00  0.00    +0.000 A 
ATOM     25  O6  UNL     1      27.210  -6.713 -38.607  0.00  0.00    +0.000 OA
ATOM     26  C24 UNL     1      27.529  -7.188 -39.804  0.00  0.00    +0.000 A 
ATOM     27  O7  UNL     1      27.871  -6.367 -40.695  0.00  0.00    +0.000 OA
BRANCH  17  28
ATOM     28  O5  UNL     1      27.287 -10.837 -39.084  0.00  0.00    +0.000 OA
ATOM     29  H12 UNL     1      26.596 -11.410 -39.549  0.00  0.00    +0.000 HD
ENDBRANCH  17  28
ENDBRANCH   1  16
BRANCH   1  32
ATOM     30  C3  UNL     1      31.094 -10.689 -42.799  0.00  0.00    +0.000 A 
ATOM     31  C4  UNL     1      29.735 -10.336 -42.688  0.00  0.00    +0.000 A 
ATOM     32  C5  UNL     1      29.280  -9.543 -41.614  0.00  0.00    +0.000 A 
ATOM     33  C25 UNL     1      30.204  -9.130 -40.639  0.00  0.00    +0.000 A 
ATOM     34  C26 UNL     1      31.551  -9.478 -40.744  0.00  0.00    +0.000 A 
ATOM     35  C27 UNL     1      32.001 -10.251 -41.818  0.00  0.00    +0.000 A 
BRANCH  35  36
ATOM     36  O8  UNL     1      33.356 -10.578 -41.890  0.00  0.00    +0.000 OA
ATOM     37  H18 UNL     1      34.052  -9.924 -42.226  0.00  0.00    +0.000 HD
ENDBRANCH  35  36
BRANCH  30  38
ATOM     38  O1  UNL     1      31.574 -11.472 -43.862  0.00  0.00    +0.000 OA
BRANCH  38  40
ATOM     39  C1  UNL     1      32.512 -13.345 -45.044  0.00  0.00    +0.000 C 
ATOM     40  C2  UNL     1      31.750 -12.885 -43.811  0.00  0.00    +0.000 C 
ENDBRANCH  38  40
ENDBRANCH  30  38
ENDBRANCH   1  32
TORSDOF 8
ENDMDL
MODEL 7
REMARK VINA RESULT:    -5.560      2.965      9.318
REMARK INTER + INTRA:          -7.490
REMARK INTER:                  -8.377
REMARK INTRA:                   0.887
REMARK UNBOUND:                 0.183
REMARK  Name = resultss/4CJN/ligands/lig_373_t1.pdb
REMARK  9 active torsions:
REMARK  status: ('A' for Active; 'I' for Inactive)
REMARK    1  A    between atoms: C1_1  and  C2_2
REMARK    2  A    between atoms: C2_2  and  O1_3
REMARK    3  A    between atoms: O1_3  and  C3_4
REMARK    4  A    between atoms: C5_6  and  C6_7
REMARK    5  A    between atoms: C6_7  and  C7_8
REMARK    6  A    between atoms: C6_7  and  C16_21
REMARK    7  A    between atoms: C15_19  and  O4_20
REMARK    8  A    between atoms: C17_22  and  O5_23
REMARK    9  A    between atoms: C27_36  and  O8_37
REMARK                            x       y       z     vdW  Elec       q    Type
REMARK                         _______ _______ _______ _____ _____    ______ ____
ROOT
ATOM      1  C6  UNL     1      29.125  -7.880 -37.086  0.00  0.00    +0.000 C 
ENDROOT
BRANCH   1   2
ATOM      2  C7  UNL     1      27.898  -8.287 -36.257  0.00  0.00    +0.000 A 
ATOM      3  C8  UNL     1      27.103  -7.373 -35.523  0.00  0.00    +0.000 A 
ATOM      4  O2  UNL     1      27.383  -6.144 -35.503  0.00  0.00    +0.000 OA
ATOM      5  C9  UNL     1      26.000  -7.843 -34.791  0.00  0.00    +0.000 A 
ATOM      6  C10 UNL     1      25.163  -6.978 -34.057  0.00  0.00    +0.000 A 
ATOM      7  C11 UNL     1      24.075  -7.491 -33.341  0.00  0.00    +0.000 A 
ATOM      8 CL1  UNL     1      23.036  -6.410 -32.431  0.00  0.00    +0.000 Cl
ATOM      9  C12 UNL     1      23.816  -8.865 -33.350  0.00  0.00    +0.000 A 
ATOM     10  C13 UNL     1      24.641  -9.731 -34.072  0.00  0.00    +0.000 A 
ATOM     11  C14 UNL     1      25.732  -9.227 -34.791  0.00  0.00    +0.000 A 
ATOM     12  O3  UNL     1      26.512 -10.060 -35.465  0.00  0.00    +0.000 OA
ATOM     13  C15 UNL     1      27.561  -9.658 -36.173  0.00  0.00    +0.000 A 
BRANCH  13  14
ATOM     14  O4  UNL     1      28.331 -10.613 -36.832  0.00  0.00    +0.000 OA
ATOM     15  H11 UNL     1      29.005 -11.174 -36.326  0.00  0.00    +0.000 HD
ENDBRANCH  13  14
ENDBRANCH   1   2
BRANCH   1  16
ATOM     16  C16 UNL     1      29.008  -8.211 -38.582  0.00  0.00    +0.000 A 
ATOM     17  C17 UNL     1      29.717  -9.311 -39.134  0.00  0.00    +0.000 A 
ATOM     18  C18 UNL     1      29.645  -9.557 -40.514  0.00  0.00    +0.000 A 
ATOM     19  C19 UNL     1      30.364 -10.603 -41.123  0.00  0.00    +0.000 A 
ATOM     20  C20 UNL     1      30.261 -10.819 -42.502  0.00  0.00    +0.000 A 
ATOM     21 CL2  UNL     1      31.164 -12.121 -43.256  0.00  0.00    +0.000 Cl
ATOM     22  C21 UNL     1      29.440  -9.997 -43.280  0.00  0.00    +0.000 A 
ATOM     23  C22 UNL     1      28.718  -8.961 -42.684  0.00  0.00    +0.000 A 
ATOM     24  C23 UNL     1      28.815  -8.738 -41.306  0.00  0.00    +0.000 A 
ATOM     25  O6  UNL     1      28.111  -7.763 -40.750  0.00  0.00    +0.000 OA
ATOM     26  C24 UNL     1      28.160  -7.481 -39.455  0.00  0.00    +0.000 A 
ATOM     27  O7  UNL     1      27.423  -6.557 -39.022  0.00  0.00    +0.000 OA
BRANCH  17  28
ATOM     28  O5  UNL     1      30.477 -10.181 -38.340  0.00  0.00    +0.000 OA
ATOM     29  H12 UNL     1      30.378 -10.272 -37.339  0.00  0.00    +0.000 HD
ENDBRANCH  17  28
ENDBRANCH   1  16
BRANCH   1  32
ATOM     30  C3  UNL     1      31.792  -9.486 -34.803  0.00  0.00    +0.000 A 
ATOM     31  C4  UNL     1      30.543  -9.126 -35.345  0.00  0.00    +0.000 A 
ATOM     32  C5  UNL     1      30.461  -8.306 -36.489  0.00  0.00    +0.000 A 
ATOM     33  C25 UNL     1      31.650  -7.832 -37.068  0.00  0.00    +0.000 A 
ATOM     34  C26 UNL     1      32.890  -8.185 -36.535  0.00  0.00    +0.000 A 
ATOM     35  C27 UNL     1      32.968  -9.011 -35.410  0.00  0.00    +0.000 A 
BRANCH  35  36
ATOM     36  O8  UNL     1      34.226  -9.344 -34.906  0.00  0.00    +0.000 OA
ATOM     37  H18 UNL     1      34.341  -9.929 -34.088  0.00  0.00    +0.000 HD
ENDBRANCH  35  36
BRANCH  30  38
ATOM     38  O1  UNL     1      31.901 -10.307 -33.669  0.00  0.00    +0.000 OA
BRANCH  38  40
ATOM     39  C1  UNL     1      31.916  -8.521 -32.057  0.00  0.00    +0.000 C 
ATOM     40  C2  UNL     1      31.468  -9.942 -32.361  0.00  0.00    +0.000 C 
ENDBRANCH  38  40
ENDBRANCH  30  38
ENDBRANCH   1  32
TORSDOF 8
ENDMDL
MODEL 8
REMARK VINA RESULT:    -5.433      2.399      7.630
REMARK INTER + INTRA:          -7.315
REMARK INTER:                  -7.460
REMARK INTRA:                   0.144
REMARK UNBOUND:                 0.183
REMARK  Name = resultss/4CJN/ligands/lig_373_t1.pdb
REMARK  9 active torsions:
REMARK  status: ('A' for Active; 'I' for Inactive)
REMARK    1  A    between atoms: C1_1  and  C2_2
REMARK    2  A    between atoms: C2_2  and  O1_3
REMARK    3  A    between atoms: O1_3  and  C3_4
REMARK    4  A    between atoms: C5_6  and  C6_7
REMARK    5  A    between atoms: C6_7  and  C7_8
REMARK    6  A    between atoms: C6_7  and  C16_21
REMARK    7  A    between atoms: C15_19  and  O4_20
REMARK    8  A    between atoms: C17_22  and  O5_23
REMARK    9  A    between atoms: C27_36  and  O8_37
REMARK                            x       y       z     vdW  Elec       q    Type
REMARK                         _______ _______ _______ _____ _____    ______ ____
ROOT
ATOM      1  C6  UNL     1      29.139  -7.797 -39.848  0.00  0.00    +0.000 C 
ENDROOT
BRANCH   1   2
ATOM      2  C7  UNL     1      28.068  -7.374 -40.865  0.00  0.00    +0.000 A 
ATOM      3  C8  UNL     1      26.761  -7.919 -40.907  0.00  0.00    +0.000 A 
ATOM      4  O2  UNL     1      26.408  -8.816 -40.095  0.00  0.00    +0.000 OA
ATOM      5  C9  UNL     1      25.851  -7.469 -41.879  0.00  0.00    +0.000 A 
ATOM      6  C10 UNL     1      24.534  -7.962 -41.957  0.00  0.00    +0.000 A 
ATOM      7  C11 UNL     1      23.662  -7.485 -42.943  0.00  0.00    +0.000 A 
ATOM      8 CL1  UNL     1      22.021  -8.100 -43.035  0.00  0.00    +0.000 Cl
ATOM      9  C12 UNL     1      24.096  -6.518 -43.856  0.00  0.00    +0.000 A 
ATOM     10  C13 UNL     1      25.402  -6.027 -43.788  0.00  0.00    +0.000 A 
ATOM     11  C14 UNL     1      26.281  -6.498 -42.806  0.00  0.00    +0.000 A 
ATOM     12  O3  UNL     1      27.520  -6.028 -42.757  0.00  0.00    +0.000 OA
ATOM     13  C15 UNL     1      28.410  -6.422 -41.853  0.00  0.00    +0.000 A 
BRANCH  13  14
ATOM     14  O4  UNL     1      29.693  -5.883 -41.897  0.00  0.00    +0.000 OA
ATOM     15  H11 UNL     1      30.368  -6.206 -42.580  0.00  0.00    +0.000 HD
ENDBRANCH  13  14
ENDBRANCH   1   2
BRANCH   1  16
ATOM     16  C16 UNL     1      30.311  -8.579 -40.461  0.00  0.00    +0.000 A 
ATOM     17  C17 UNL     1      30.075  -9.586 -41.434  0.00  0.00    +0.000 A 
ATOM     18  C18 UNL     1      31.155 -10.331 -41.933  0.00  0.00    +0.000 A 
ATOM     19  C19 UNL     1      30.974 -11.373 -42.863  0.00  0.00    +0.000 A 
ATOM     20  C20 UNL     1      32.078 -12.089 -43.341  0.00  0.00    +0.000 A 
ATOM     21 CL2  UNL     1      31.846 -13.389 -44.495  0.00  0.00    +0.000 Cl
ATOM     22  C21 UNL     1      33.365 -11.768 -42.899  0.00  0.00    +0.000 A 
ATOM     23  C22 UNL     1      33.554 -10.733 -41.982  0.00  0.00    +0.000 A 
ATOM     24  C23 UNL     1      32.457 -10.012 -41.499  0.00  0.00    +0.000 A 
ATOM     25  O6  UNL     1      32.652  -9.020 -40.643  0.00  0.00    +0.000 OA
ATOM     26  C24 UNL     1      31.662  -8.299 -40.130  0.00  0.00    +0.000 A 
ATOM     27  O7  UNL     1      31.959  -7.355 -39.352  0.00  0.00    +0.000 OA
BRANCH  17  28
ATOM     28  O5  UNL     1      28.793  -9.852 -41.934  0.00  0.00    +0.000 OA
ATOM     29  H12 UNL     1      28.392 -10.775 -42.012  0.00  0.00    +0.000 HD
ENDBRANCH  17  28
ENDBRANCH   1  16
BRANCH   1  32
ATOM     30  C3  UNL     1      27.423  -8.338 -36.432  0.00  0.00    +0.000 A 
ATOM     31  C4  UNL     1      27.902  -7.712 -37.600  0.00  0.00    +0.000 A 
ATOM     32  C5  UNL     1      28.589  -8.449 -38.586  0.00  0.00    +0.000 A 
ATOM     33  C25 UNL     1      28.810  -9.820 -38.373  0.00  0.00    +0.000 A 
ATOM     34  C26 UNL     1      28.339 -10.446 -37.219  0.00  0.00    +0.000 A 
ATOM     35  C27 UNL     1      27.645  -9.715 -36.251  0.00  0.00    +0.000 A 
BRANCH  35  36
ATOM     36  O8  UNL     1      27.187 -10.375 -35.110  0.00  0.00    +0.000 OA
ATOM     37  H18 UNL     1      26.574 -11.179 -35.161  0.00  0.00    +0.000 HD
ENDBRANCH  35  36
BRANCH  30  38
ATOM     38  O1  UNL     1      26.731  -7.628 -35.438  0.00  0.00    +0.000 OA
BRANCH  38  40
ATOM     39  C1  UNL     1      24.493  -7.950 -36.261  0.00  0.00    +0.000 C 
ATOM     40  C2  UNL     1      25.479  -6.977 -35.633  0.00  0.00    +0.000 C 
ENDBRANCH  38  40
ENDBRANCH  30  38
ENDBRANCH   1  32
TORSDOF 8
ENDMDL
MODEL 9
REMARK VINA RESULT:    -5.270      2.938      6.172
REMARK INTER + INTRA:          -7.090
REMARK INTER:                  -7.310
REMARK INTRA:                   0.220
REMARK UNBOUND:                 0.183
REMARK  Name = resultss/4CJN/ligands/lig_373_t1.pdb
REMARK  9 active torsions:
REMARK  status: ('A' for Active; 'I' for Inactive)
REMARK    1  A    between atoms: C1_1  and  C2_2
REMARK    2  A    between atoms: C2_2  and  O1_3
REMARK    3  A    between atoms: O1_3  and  C3_4
REMARK    4  A    between atoms: C5_6  and  C6_7
REMARK    5  A    between atoms: C6_7  and  C7_8
REMARK    6  A    between atoms: C6_7  and  C16_21
REMARK    7  A    between atoms: C15_19  and  O4_20
REMARK    8  A    between atoms: C17_22  and  O5_23
REMARK    9  A    between atoms: C27_36  and  O8_37
REMARK                            x       y       z     vdW  Elec       q    Type
REMARK                         _______ _______ _______ _____ _____    ______ ____
ROOT
ATOM      1  C6  UNL     1      28.897  -9.097 -37.020  0.00  0.00    +0.000 C 
ENDROOT
BRANCH   1   2
ATOM      2  C7  UNL     1      28.449  -9.159 -38.487  0.00  0.00    +0.000 A 
ATOM      3  C8  UNL     1      28.433  -8.039 -39.356  0.00  0.00    +0.000 A 
ATOM      4  O2  UNL     1      28.783  -6.899 -38.947  0.00  0.00    +0.000 OA
ATOM      5  C9  UNL     1      28.003  -8.195 -40.684  0.00  0.00    +0.000 A 
ATOM      6  C10 UNL     1      27.982  -7.122 -41.597  0.00  0.00    +0.000 A 
ATOM      7  C11 UNL     1      27.545  -7.324 -42.911  0.00  0.00    +0.000 A 
ATOM      8 CL1  UNL     1      27.523  -5.985 -44.044  0.00  0.00    +0.000 Cl
ATOM      9  C12 UNL     1      27.124  -8.593 -43.322  0.00  0.00    +0.000 A 
ATOM     10  C13 UNL     1      27.138  -9.662 -42.424  0.00  0.00    +0.000 A 
ATOM     11  C14 UNL     1      27.573  -9.470 -41.107  0.00  0.00    +0.000 A 
ATOM     12  O3  UNL     1      27.573 -10.492 -40.262  0.00  0.00    +0.000 OA
ATOM     13  C15 UNL     1      27.976 -10.388 -39.001  0.00  0.00    +0.000 A 
BRANCH  13  14
ATOM     14  O4  UNL     1      27.921 -11.516 -38.186  0.00  0.00    +0.000 OA
ATOM     15  H11 UNL     1      27.983 -12.446 -38.583  0.00  0.00    +0.000 HD
ENDBRANCH  13  14
ENDBRANCH   1   2
BRANCH   1  16
ATOM     16  C16 UNL     1      27.935  -8.325 -36.103  0.00  0.00    +0.000 A 
ATOM     17  C17 UNL     1      26.926  -9.011 -35.376  0.00  0.00    +0.000 A 
ATOM     18  C18 UNL     1      26.019  -8.278 -34.594  0.00  0.00    +0.000 A 
ATOM     19  C19 UNL     1      24.969  -8.901 -33.891  0.00  0.00    +0.000 A 
ATOM     20  C20 UNL     1      24.089  -8.135 -33.118  0.00  0.00    +0.000 A 
ATOM     21 CL2  UNL     1      22.781  -8.916 -32.248  0.00  0.00    +0.000 Cl
ATOM     22  C21 UNL     1      24.251  -6.749 -33.038  0.00  0.00    +0.000 A 
ATOM     23  C22 UNL     1      25.292  -6.124 -33.728  0.00  0.00    +0.000 A 
ATOM     24  C23 UNL     1      26.177  -6.881 -34.503  0.00  0.00    +0.000 A 
ATOM     25  O6  UNL     1      27.171  -6.278 -35.137  0.00  0.00    +0.000 OA
ATOM     26  C24 UNL     1      28.042  -6.924 -35.902  0.00  0.00    +0.000 A 
ATOM     27  O7  UNL     1      28.972  -6.261 -36.431  0.00  0.00    +0.000 OA
BRANCH  17  28
ATOM     28  O5  UNL     1      26.815 -10.408 -35.395  0.00  0.00    +0.000 OA
ATOM     29  H12 UNL     1      27.590 -11.040 -35.533  0.00  0.00    +0.000 HD
ENDBRANCH  17  28
ENDBRANCH   1  16
BRANCH   1  32
ATOM     30  C3  UNL     1      32.562  -8.086 -37.690  0.00  0.00    +0.000 A 
ATOM     31  C4  UNL     1      31.214  -8.435 -37.905  0.00  0.00    +0.000 A 
ATOM     32  C5  UNL     1      30.353  -8.695 -36.820  0.00  0.00    +0.000 A 
ATOM     33  C25 UNL     1      30.870  -8.626 -35.515  0.00  0.00    +0.000 A 
ATOM     34  C26 UNL     1      32.203  -8.281 -35.296  0.00  0.00    +0.000 A 
ATOM     35  C27 UNL     1      33.050  -8.009 -36.374  0.00  0.00    +0.000 A 
BRANCH  35  36
ATOM     36  O8  UNL     1      34.378  -7.666 -36.116  0.00  0.00    +0.000 OA
ATOM     37  H18 UNL     1      35.132  -8.339 -36.184  0.00  0.00    +0.000 HD
ENDBRANCH  35  36
BRANCH  30  38
ATOM     38  O1  UNL     1      33.438  -7.815 -38.753  0.00  0.00    +0.000 OA
BRANCH  38  40
ATOM     39  C1  UNL     1      34.254  -9.882 -39.673  0.00  0.00    +0.000 C 
ATOM     40  C2  UNL     1      33.518  -8.581 -39.952  0.00  0.00    +0.000 C 
ENDBRANCH  38  40
ENDBRANCH  30  38
ENDBRANCH   1  32
TORSDOF 8
ENDMDL
