MODEL 1
REMARK VINA RESULT:    -7.168      0.000      0.000
REMARK INTER + INTRA:         -13.807
REMARK INTER:                 -11.778
REMARK INTRA:                  -2.029
REMARK UNBOUND:                -2.029
REMARK  Name = resultss/4CJN/ligands/lig_336_t0.pdb
REMARK  12 active torsions:
REMARK  status: ('A' for Active; 'I' for Inactive)
REMARK    1  A    between atoms: C1_1  and  O1_2
REMARK    2  A    between atoms: O1_2  and  C2_3
REMARK    3  A    between atoms: C4_5  and  C5_6
REMARK    4  A    between atoms: N2_16  and  N3_17
REMARK    5  A    between atoms: N3_17  and  C13_18
REMARK    6  A    between atoms: C21_26  and  O3_27
REMARK    7  A    between atoms: O3_27  and  C22_28
REMARK    8  A    between atoms: C22_28  and  C23_29
REMARK    9  A    between atoms: N4_31  and  C25_32
REMARK   10  A    between atoms: C25_32  and  C26_33
REMARK   11  A    between atoms: N5_35  and  C27_36
REMARK   12  A    between atoms: C27_36  and  C28_37
REMARK                            x       y       z     vdW  Elec       q    Type
REMARK                         _______ _______ _______ _____ _____    ______ ____
ROOT
ATOM      1  C2  UNL     1      27.052  -8.914 -40.543  0.00  0.00    +0.000 A 
ATOM      2  C3  UNL     1      27.346  -8.845 -39.168  0.00  0.00    +0.000 A 
ATOM      3  C4  UNL     1      26.872  -7.779 -38.386  0.00  0.00    +0.000 A 
ATOM      4  C19 UNL     1      26.135  -6.754 -38.999  0.00  0.00    +0.000 A 
ATOM      5  C20 UNL     1      25.832  -6.818 -40.357  0.00  0.00    +0.000 A 
ATOM      6  C21 UNL     1      26.271  -7.907 -41.136  0.00  0.00    +0.000 A 
ENDROOT
BRANCH   3   7
ATOM      7  C5  UNL     1      27.208  -7.693 -36.915  0.00  0.00    +0.000 C 
ATOM      8  N1  UNL     1      28.658  -7.848 -36.740  0.00  0.00    +0.000 N 
ATOM      9  C6  UNL     1      29.248  -8.525 -35.624  0.00  0.00    +0.000 A 
ATOM     10  C7  UNL     1      30.613  -8.365 -35.347  0.00  0.00    +0.000 A 
ATOM     11  C8  UNL     1      31.191  -9.022 -34.255  0.00  0.00    +0.000 A 
ATOM     12  C9  UNL     1      30.414  -9.853 -33.446  0.00  0.00    +0.000 A 
ATOM     13  C10 UNL     1      29.053 -10.025 -33.724  0.00  0.00    +0.000 A 
ATOM     14  C11 UNL     1      28.465  -9.354 -34.814  0.00  0.00    +0.000 A 
ATOM     15  C12 UNL     1      27.039  -9.508 -35.135  0.00  0.00    +0.000 C 
ATOM     16  O2  UNL     1      26.335 -10.338 -34.498  0.00  0.00    +0.000 OA
ATOM     17  N2  UNL     1      26.438  -8.711 -36.167  0.00  0.00    +0.000 N 
ATOM     18  H6  UNL     1      29.276  -7.256 -37.338  0.00  0.00    +0.000 HD
BRANCH  17  19
ATOM     19  N3  UNL     1      25.070  -8.896 -36.449  0.00  0.00    +0.000 N 
ATOM     20  H11 UNL     1      24.781  -9.703 -37.043  0.00  0.00    +0.000 HD
BRANCH  19  21
ATOM     21  C13 UNL     1      24.050  -8.036 -35.913  0.00  0.00    +0.000 A 
ATOM     22  C14 UNL     1      23.448  -7.042 -36.703  0.00  0.00    +0.000 A 
ATOM     23  C15 UNL     1      22.497  -6.180 -36.146  0.00  0.00    +0.000 A 
ATOM     24  C16 UNL     1      22.142  -6.300 -34.798  0.00  0.00    +0.000 A 
ATOM     25  C17 UNL     1      22.750  -7.277 -33.999  0.00  0.00    +0.000 A 
ATOM     26  C18 UNL     1      23.700  -8.138 -34.556  0.00  0.00    +0.000 A 
ENDBRANCH  19  21
ENDBRANCH  17  19
ENDBRANCH   3   7
BRANCH   1  28
ATOM     27  C1  UNL     1      28.747 -10.656 -41.131  0.00  0.00    +0.000 C 
ATOM     28  O1  UNL     1      27.529  -9.953 -41.356  0.00  0.00    +0.000 OA
ENDBRANCH   1  28
BRANCH   6  29
ATOM     29  O3  UNL     1      25.956  -8.022 -42.499  0.00  0.00    +0.000 OA
BRANCH  29  30
ATOM     30  C22 UNL     1      25.011  -8.949 -43.031  0.00  0.00    +0.000 C 
BRANCH  30  31
ATOM     31  C23 UNL     1      23.717  -8.254 -43.303  0.00  0.00    +0.000 A 
ATOM     32  C24 UNL     1      23.469  -7.359 -44.322  0.00  0.00    +0.000 A 
ATOM     33  N4  UNL     1      22.161  -7.058 -44.239  0.00  0.00    +0.000 N 
ATOM     34  N6  UNL     1      21.634  -7.745 -43.236  0.00  0.00    +0.000 NA
ATOM     35  N7  UNL     1      22.562  -8.491 -42.649  0.00  0.00    +0.000 NA
BRANCH  33  36
ATOM     36  C25 UNL     1      21.414  -6.166 -45.121  0.00  0.00    +0.000 C 
BRANCH  36  37
ATOM     37  C26 UNL     1      19.992  -6.622 -45.267  0.00  0.00    +0.000 C 
ATOM     38  O4  UNL     1      19.680  -7.364 -46.239  0.00  0.00    +0.000 OA
ATOM     39  N5  UNL     1      19.012  -6.278 -44.277  0.00  0.00    +0.000 N 
ATOM     40  H24 UNL     1      19.304  -5.714 -43.442  0.00  0.00    +0.000 HD
BRANCH  39  41
ATOM     41  C27 UNL     1      17.627  -6.746 -44.327  0.00  0.00    +0.000 C 
BRANCH  41  42
ATOM     42  C28 UNL     1      17.029  -6.699 -42.950  0.00  0.00    +0.000 A 
ATOM     43  C29 UNL     1      17.686  -6.005 -41.920  0.00  0.00    +0.000 A 
ATOM     44  C30 UNL     1      17.148  -5.984 -40.629  0.00  0.00    +0.000 A 
ATOM     45  C31 UNL     1      15.957  -6.662 -40.357  0.00  0.00    +0.000 A 
ATOM     46  C32 UNL     1      15.307  -7.371 -41.373  0.00  0.00    +0.000 A 
ATOM     47  C33 UNL     1      15.844  -7.397 -42.664  0.00  0.00    +0.000 A 
ENDBRANCH  41  42
ENDBRANCH  39  41
ENDBRANCH  36  37
ENDBRANCH  33  36
ENDBRANCH  30  31
ENDBRANCH  29  30
ENDBRANCH   6  29
TORSDOF 11
ENDMDL
MODEL 2
REMARK VINA RESULT:    -6.797      3.904     10.197
REMARK INTER + INTRA:         -13.196
REMARK INTER:                 -10.816
REMARK INTRA:                  -2.380
REMARK UNBOUND:                -2.029
REMARK  Name = resultss/4CJN/ligands/lig_336_t0.pdb
REMARK  12 active torsions:
REMARK  status: ('A' for Active; 'I' for Inactive)
REMARK    1  A    between atoms: C1_1  and  O1_2
REMARK    2  A    between atoms: O1_2  and  C2_3
REMARK    3  A    between atoms: C4_5  and  C5_6
REMARK    4  A    between atoms: N2_16  and  N3_17
REMARK    5  A    between atoms: N3_17  and  C13_18
REMARK    6  A    between atoms: C21_26  and  O3_27
REMARK    7  A    between atoms: O3_27  and  C22_28
REMARK    8  A    between atoms: C22_28  and  C23_29
REMARK    9  A    between atoms: N4_31  and  C25_32
REMARK   10  A    between atoms: C25_32  and  C26_33
REMARK   11  A    between atoms: N5_35  and  C27_36
REMARK   12  A    between atoms: C27_36  and  C28_37
REMARK                            x       y       z     vdW  Elec       q    Type
REMARK                         _______ _______ _______ _____ _____    ______ ____
ROOT
ATOM      1  C2  UNL     1      26.637  -7.791 -39.397  0.00  0.00    +0.000 A 
ATOM      2  C3  UNL     1      26.378  -6.992 -40.528  0.00  0.00    +0.000 A 
ATOM      3  C4  UNL     1      26.083  -7.581 -41.768  0.00  0.00    +0.000 A 
ATOM      4  C19 UNL     1      26.093  -8.980 -41.884  0.00  0.00    +0.000 A 
ATOM      5  C20 UNL     1      26.341  -9.778 -40.769  0.00  0.00    +0.000 A 
ATOM      6  C21 UNL     1      26.596  -9.190 -39.513  0.00  0.00    +0.000 A 
ENDROOT
BRANCH   3   7
ATOM      7  C5  UNL     1      25.828  -6.723 -42.987  0.00  0.00    +0.000 C 
ATOM      8  N1  UNL     1      24.636  -7.218 -43.687  0.00  0.00    +0.000 N 
ATOM      9  C6  UNL     1      24.500  -7.205 -45.112  0.00  0.00    +0.000 A 
ATOM     10  C7  UNL     1      23.239  -7.385 -45.699  0.00  0.00    +0.000 A 
ATOM     11  C8  UNL     1      23.102  -7.369 -47.092  0.00  0.00    +0.000 A 
ATOM     12  C9  UNL     1      24.224  -7.189 -47.904  0.00  0.00    +0.000 A 
ATOM     13  C10 UNL     1      25.486  -7.019 -47.324  0.00  0.00    +0.000 A 
ATOM     14  C11 UNL     1      25.626  -7.021 -45.923  0.00  0.00    +0.000 A 
ATOM     15  C12 UNL     1      26.935  -6.844 -45.278  0.00  0.00    +0.000 C 
ATOM     16  O2  UNL     1      27.981  -6.795 -45.980  0.00  0.00    +0.000 OA
ATOM     17  N2  UNL     1      27.029  -6.716 -43.851  0.00  0.00    +0.000 N 
ATOM     18  H6  UNL     1      23.780  -7.381 -43.113  0.00  0.00    +0.000 HD
BRANCH  17  19
ATOM     19  N3  UNL     1      28.303  -6.556 -43.273  0.00  0.00    +0.000 N 
ATOM     20  H11 UNL     1      28.708  -5.597 -43.199  0.00  0.00    +0.000 HD
BRANCH  19  21
ATOM     21  C13 UNL     1      29.054  -7.662 -42.743  0.00  0.00    +0.000 A 
ATOM     22  C14 UNL     1      29.130  -8.886 -43.429  0.00  0.00    +0.000 A 
ATOM     23  C15 UNL     1      29.819  -9.966 -42.868  0.00  0.00    +0.000 A 
ATOM     24  C16 UNL     1      30.434  -9.836 -41.618  0.00  0.00    +0.000 A 
ATOM     25  C17 UNL     1      30.348  -8.626 -40.919  0.00  0.00    +0.000 A 
ATOM     26  C18 UNL     1      29.659  -7.546 -41.480  0.00  0.00    +0.000 A 
ENDBRANCH  19  21
ENDBRANCH  17  19
ENDBRANCH   3   7
BRANCH   1  28
ATOM     27  C1  UNL     1      28.232  -6.699 -37.811  0.00  0.00    +0.000 C 
ATOM     28  O1  UNL     1      26.957  -7.235 -38.149  0.00  0.00    +0.000 OA
ENDBRANCH   1  28
BRANCH   6  29
ATOM     29  O3  UNL     1      26.815  -9.963 -38.361  0.00  0.00    +0.000 OA
BRANCH  29  30
ATOM     30  C22 UNL     1      27.984 -10.748 -38.129  0.00  0.00    +0.000 C 
BRANCH  30  31
ATOM     31  C23 UNL     1      28.732 -10.208 -36.954  0.00  0.00    +0.000 A 
ATOM     32  C24 UNL     1      28.214  -9.964 -35.700  0.00  0.00    +0.000 A 
ATOM     33  N4  UNL     1      29.254  -9.573 -34.941  0.00  0.00    +0.000 N 
ATOM     34  N6  UNL     1      30.349  -9.596 -35.685  0.00  0.00    +0.000 NA
ATOM     35  N7  UNL     1      30.061  -9.987 -36.920  0.00  0.00    +0.000 NA
BRANCH  33  36
ATOM     36  C25 UNL     1      29.216  -9.225 -33.524  0.00  0.00    +0.000 C 
BRANCH  36  37
ATOM     37  C26 UNL     1      28.328  -8.038 -33.286  0.00  0.00    +0.000 C 
ATOM     38  O4  UNL     1      28.826  -6.879 -33.332  0.00  0.00    +0.000 OA
ATOM     39  N5  UNL     1      26.920  -8.213 -33.080  0.00  0.00    +0.000 N 
ATOM     40  H24 UNL     1      26.513  -9.179 -33.109  0.00  0.00    +0.000 HD
BRANCH  39  41
ATOM     41  C27 UNL     1      25.992  -7.094 -32.909  0.00  0.00    +0.000 C 
BRANCH  41  42
ATOM     42  C28 UNL     1      24.735  -7.358 -33.688  0.00  0.00    +0.000 A 
ATOM     43  C29 UNL     1      24.416  -6.560 -34.801  0.00  0.00    +0.000 A 
ATOM     44  C30 UNL     1      23.232  -6.783 -35.511  0.00  0.00    +0.000 A 
ATOM     45  C31 UNL     1      22.356  -7.796 -35.111  0.00  0.00    +0.000 A 
ATOM     46  C32 UNL     1      22.658  -8.581 -33.994  0.00  0.00    +0.000 A 
ATOM     47  C33 UNL     1      23.840  -8.359 -33.278  0.00  0.00    +0.000 A 
ENDBRANCH  41  42
ENDBRANCH  39  41
ENDBRANCH  36  37
ENDBRANCH  33  36
ENDBRANCH  30  31
ENDBRANCH  29  30
ENDBRANCH   6  29
TORSDOF 11
ENDMDL
MODEL 3
REMARK VINA RESULT:    -6.752      3.394      9.811
REMARK INTER + INTRA:         -13.124
REMARK INTER:                  -9.754
REMARK INTRA:                  -3.370
REMARK UNBOUND:                -2.029
REMARK  Name = resultss/4CJN/ligands/lig_336_t0.pdb
REMARK  12 active torsions:
REMARK  status: ('A' for Active; 'I' for Inactive)
REMARK    1  A    between atoms: C1_1  and  O1_2
REMARK    2  A    between atoms: O1_2  and  C2_3
REMARK    3  A    between atoms: C4_5  and  C5_6
REMARK    4  A    between atoms: N2_16  and  N3_17
REMARK    5  A    between atoms: N3_17  and  C13_18
REMARK    6  A    between atoms: C21_26  and  O3_27
REMARK    7  A    between atoms: O3_27  and  C22_28
REMARK    8  A    between atoms: C22_28  and  C23_29
REMARK    9  A    between atoms: N4_31  and  C25_32
REMARK   10  A    between atoms: C25_32  and  C26_33
REMARK   11  A    between atoms: N5_35  and  C27_36
REMARK   12  A    between atoms: C27_36  and  C28_37
REMARK                            x       y       z     vdW  Elec       q    Type
REMARK                         _______ _______ _______ _____ _____    ______ ____
ROOT
ATOM      1  C2  UNL     1      27.767  -9.918 -38.927  0.00  0.00    +0.000 A 
ATOM      2  C3  UNL     1      27.090  -9.134 -39.881  0.00  0.00    +0.000 A 
ATOM      3  C4  UNL     1      27.234  -7.737 -39.892  0.00  0.00    +0.000 A 
ATOM      4  C19 UNL     1      28.027  -7.121 -38.913  0.00  0.00    +0.000 A 
ATOM      5  C20 UNL     1      28.707  -7.889 -37.970  0.00  0.00    +0.000 A 
ATOM      6  C21 UNL     1      28.598  -9.295 -37.981  0.00  0.00    +0.000 A 
ENDROOT
BRANCH   3   7
ATOM      7  C5  UNL     1      26.487  -6.895 -40.902  0.00  0.00    +0.000 C 
ATOM      8  N1  UNL     1      25.062  -7.247 -40.867  0.00  0.00    +0.000 N 
ATOM      9  C6  UNL     1      24.228  -7.264 -42.031  0.00  0.00    +0.000 A 
ATOM     10  C7  UNL     1      22.833  -7.292 -41.895  0.00  0.00    +0.000 A 
ATOM     11  C8  UNL     1      22.015  -7.305 -43.031  0.00  0.00    +0.000 A 
ATOM     12  C9  UNL     1      22.586  -7.308 -44.305  0.00  0.00    +0.000 A 
ATOM     13  C10 UNL     1      23.979  -7.291 -44.447  0.00  0.00    +0.000 A 
ATOM     14  C11 UNL     1      24.804  -7.264 -43.306  0.00  0.00    +0.000 A 
ATOM     15  C12 UNL     1      26.270  -7.243 -43.416  0.00  0.00    +0.000 C 
ATOM     16  O2  UNL     1      26.819  -7.361 -44.545  0.00  0.00    +0.000 OA
ATOM     17  N2  UNL     1      27.082  -7.081 -42.243  0.00  0.00    +0.000 N 
ATOM     18  H6  UNL     1      24.600  -7.272 -39.931  0.00  0.00    +0.000 HD
BRANCH  17  19
ATOM     19  N3  UNL     1      28.483  -7.075 -42.392  0.00  0.00    +0.000 N 
ATOM     20  H11 UNL     1      28.968  -6.171 -42.583  0.00  0.00    +0.000 HD
BRANCH  19  21
ATOM     21  C13 UNL     1      29.278  -8.265 -42.249  0.00  0.00    +0.000 A 
ATOM     22  C14 UNL     1      28.978  -9.431 -42.973  0.00  0.00    +0.000 A 
ATOM     23  C15 UNL     1      29.731 -10.594 -42.777  0.00  0.00    +0.000 A 
ATOM     24  C16 UNL     1      30.785 -10.604 -41.856  0.00  0.00    +0.000 A 
ATOM     25  C17 UNL     1      31.079  -9.452 -41.118  0.00  0.00    +0.000 A 
ATOM     26  C18 UNL     1      30.326  -8.289 -41.314  0.00  0.00    +0.000 A 
ENDBRANCH  19  21
ENDBRANCH  17  19
ENDBRANCH   3   7
BRANCH   1  28
ATOM     27  C1  UNL     1      27.286 -12.130 -39.990  0.00  0.00    +0.000 C 
ATOM     28  O1  UNL     1      27.627 -11.313 -38.875  0.00  0.00    +0.000 OA
ENDBRANCH   1  28
BRANCH   6  29
ATOM     29  O3  UNL     1      29.295 -10.102 -37.069  0.00  0.00    +0.000 OA
BRANCH  29  30
ATOM     30  C22 UNL     1      30.393  -9.656 -36.274  0.00  0.00    +0.000 C 
BRANCH  30  31
ATOM     31  C23 UNL     1      29.919  -9.323 -34.897  0.00  0.00    +0.000 A 
ATOM     32  C24 UNL     1      29.495  -8.087 -34.457  0.00  0.00    +0.000 A 
ATOM     33  N4  UNL     1      29.079  -8.270 -33.190  0.00  0.00    +0.000 N 
ATOM     34  N6  UNL     1      29.223  -9.549 -32.881  0.00  0.00    +0.000 NA
ATOM     35  N7  UNL     1      29.729 -10.219 -33.909  0.00  0.00    +0.000 NA
BRANCH  33  36
ATOM     36  C25 UNL     1      28.516  -7.256 -32.304  0.00  0.00    +0.000 C 
BRANCH  36  37
ATOM     37  C26 UNL     1      27.039  -7.107 -32.527  0.00  0.00    +0.000 C 
ATOM     38  O4  UNL     1      26.531  -5.952 -32.530  0.00  0.00    +0.000 OA
ATOM     39  N5  UNL     1      26.226  -8.256 -32.805  0.00  0.00    +0.000 N 
ATOM     40  H24 UNL     1      26.677  -9.201 -32.862  0.00  0.00    +0.000 HD
BRANCH  39  41
ATOM     41  C27 UNL     1      24.795  -8.171 -33.097  0.00  0.00    +0.000 C 
BRANCH  41  42
ATOM     42  C28 UNL     1      24.591  -8.001 -34.575  0.00  0.00    +0.000 A 
ATOM     43  C29 UNL     1      25.372  -8.736 -35.483  0.00  0.00    +0.000 A 
ATOM     44  C30 UNL     1      25.205  -8.560 -36.860  0.00  0.00    +0.000 A 
ATOM     45  C31 UNL     1      24.265  -7.645 -37.340  0.00  0.00    +0.000 A 
ATOM     46  C32 UNL     1      23.497  -6.896 -36.442  0.00  0.00    +0.000 A 
ATOM     47  C33 UNL     1      23.664  -7.067 -35.063  0.00  0.00    +0.000 A 
ENDBRANCH  41  42
ENDBRANCH  39  41
ENDBRANCH  36  37
ENDBRANCH  33  36
ENDBRANCH  30  31
ENDBRANCH  29  30
ENDBRANCH   6  29
TORSDOF 11
ENDMDL
MODEL 4
REMARK VINA RESULT:    -6.562      2.819      4.977
REMARK INTER + INTRA:         -12.811
REMARK INTER:                 -10.735
REMARK INTRA:                  -2.076
REMARK UNBOUND:                -2.029
REMARK  Name = resultss/4CJN/ligands/lig_336_t0.pdb
REMARK  12 active torsions:
REMARK  status: ('A' for Active; 'I' for Inactive)
REMARK    1  A    between atoms: C1_1  and  O1_2
REMARK    2  A    between atoms: O1_2  and  C2_3
REMARK    3  A    between atoms: C4_5  and  C5_6
REMARK    4  A    between atoms: N2_16  and  N3_17
REMARK    5  A    between atoms: N3_17  and  C13_18
REMARK    6  A    between atoms: C21_26  and  O3_27
REMARK    7  A    between atoms: O3_27  and  C22_28
REMARK    8  A    between atoms: C22_28  and  C23_29
REMARK    9  A    between atoms: N4_31  and  C25_32
REMARK   10  A    between atoms: C25_32  and  C26_33
REMARK   11  A    between atoms: N5_35  and  C27_36
REMARK   12  A    between atoms: C27_36  and  C28_37
REMARK                            x       y       z     vdW  Elec       q    Type
REMARK                         _______ _______ _______ _____ _____    ______ ____
ROOT
ATOM      1  C2  UNL     1      26.321  -7.952 -39.079  0.00  0.00    +0.000 A 
ATOM      2  C3  UNL     1      27.292  -8.511 -38.224  0.00  0.00    +0.000 A 
ATOM      3  C4  UNL     1      27.755  -9.821 -38.426  0.00  0.00    +0.000 A 
ATOM      4  C19 UNL     1      27.208 -10.590 -39.465  0.00  0.00    +0.000 A 
ATOM      5  C20 UNL     1      26.253 -10.042 -40.320  0.00  0.00    +0.000 A 
ATOM      6  C21 UNL     1      25.816  -8.713 -40.146  0.00  0.00    +0.000 A 
ENDROOT
BRANCH   3   7
ATOM      7  C5  UNL     1      28.779 -10.428 -37.494  0.00  0.00    +0.000 C 
ATOM      8  N1  UNL     1      28.484 -10.015 -36.116  0.00  0.00    +0.000 N 
ATOM      9  C6  UNL     1      29.499  -9.744 -35.142  0.00  0.00    +0.000 A 
ATOM     10  C7  UNL     1      29.165  -9.669 -33.782  0.00  0.00    +0.000 A 
ATOM     11  C8  UNL     1      30.156  -9.409 -32.828  0.00  0.00    +0.000 A 
ATOM     12  C9  UNL     1      31.478  -9.207 -33.229  0.00  0.00    +0.000 A 
ATOM     13  C10 UNL     1      31.814  -9.269 -34.586  0.00  0.00    +0.000 A 
ATOM     14  C11 UNL     1      30.823  -9.545 -35.547  0.00  0.00    +0.000 A 
ATOM     15  C12 UNL     1      31.140  -9.621 -36.981  0.00  0.00    +0.000 C 
ATOM     16  O2  UNL     1      32.297  -9.330 -37.387  0.00  0.00    +0.000 OA
ATOM     17  N2  UNL     1      30.138 -10.034 -37.923  0.00  0.00    +0.000 N 
ATOM     18  H6  UNL     1      27.502 -10.134 -35.782  0.00  0.00    +0.000 HD
BRANCH  17  19
ATOM     19  N3  UNL     1      30.481 -10.085 -39.288  0.00  0.00    +0.000 N 
ATOM     20  H11 UNL     1      30.925 -10.951 -39.667  0.00  0.00    +0.000 HD
BRANCH  19  21
ATOM     21  C13 UNL     1      30.205  -9.003 -40.194  0.00  0.00    +0.000 A 
ATOM     22  C14 UNL     1      30.361  -7.664 -39.796  0.00  0.00    +0.000 A 
ATOM     23  C15 UNL     1      30.034  -6.626 -40.674  0.00  0.00    +0.000 A 
ATOM     24  C16 UNL     1      29.544  -6.913 -41.954  0.00  0.00    +0.000 A 
ATOM     25  C17 UNL     1      29.369  -8.244 -42.351  0.00  0.00    +0.000 A 
ATOM     26  C18 UNL     1      29.697  -9.282 -41.473  0.00  0.00    +0.000 A 
ENDBRANCH  19  21
ENDBRANCH  17  19
ENDBRANCH   3   7
BRANCH   1  28
ATOM     27  C1  UNL     1      25.167  -6.209 -37.707  0.00  0.00    +0.000 C 
ATOM     28  O1  UNL     1      25.821  -6.655 -38.891  0.00  0.00    +0.000 OA
ENDBRANCH   1  28
BRANCH   6  29
ATOM     29  O3  UNL     1      24.883  -8.119 -41.008  0.00  0.00    +0.000 OA
BRANCH  29  30
ATOM     30  C22 UNL     1      23.799  -8.813 -41.625  0.00  0.00    +0.000 C 
BRANCH  30  31
ATOM     31  C23 UNL     1      23.427  -8.139 -42.905  0.00  0.00    +0.000 A 
ATOM     32  C24 UNL     1      24.281  -7.826 -43.940  0.00  0.00    +0.000 A 
ATOM     33  N4  UNL     1      23.508  -7.316 -44.915  0.00  0.00    +0.000 N 
ATOM     34  N6  UNL     1      22.249  -7.333 -44.506  0.00  0.00    +0.000 NA
ATOM     35  N7  UNL     1      22.168  -7.839 -43.281  0.00  0.00    +0.000 NA
BRANCH  33  36
ATOM     36  C25 UNL     1      23.951  -6.859 -46.229  0.00  0.00    +0.000 C 
BRANCH  36  37
ATOM     37  C26 UNL     1      22.959  -7.232 -47.291  0.00  0.00    +0.000 C 
ATOM     38  O4  UNL     1      23.088  -8.332 -47.895  0.00  0.00    +0.000 OA
ATOM     39  N5  UNL     1      21.836  -6.382 -47.568  0.00  0.00    +0.000 N 
ATOM     40  H24 UNL     1      21.710  -5.502 -47.012  0.00  0.00    +0.000 HD
BRANCH  39  41
ATOM     41  C27 UNL     1      20.799  -6.721 -48.543  0.00  0.00    +0.000 C 
BRANCH  41  42
ATOM     42  C28 UNL     1      19.467  -6.802 -47.854  0.00  0.00    +0.000 A 
ATOM     43  C29 UNL     1      18.289  -6.923 -48.611  0.00  0.00    +0.000 A 
ATOM     44  C30 UNL     1      17.044  -6.970 -47.975  0.00  0.00    +0.000 A 
ATOM     45  C31 UNL     1      16.967  -6.887 -46.582  0.00  0.00    +0.000 A 
ATOM     46  C32 UNL     1      18.134  -6.747 -45.824  0.00  0.00    +0.000 A 
ATOM     47  C33 UNL     1      19.380  -6.697 -46.456  0.00  0.00    +0.000 A 
ENDBRANCH  41  42
ENDBRANCH  39  41
ENDBRANCH  36  37
ENDBRANCH  33  36
ENDBRANCH  30  31
ENDBRANCH  29  30
ENDBRANCH   6  29
TORSDOF 11
ENDMDL
MODEL 5
REMARK VINA RESULT:    -6.494      3.271      6.336
REMARK INTER + INTRA:         -12.699
REMARK INTER:                 -10.959
REMARK INTRA:                  -1.741
REMARK UNBOUND:                -2.029
REMARK  Name = resultss/4CJN/ligands/lig_336_t0.pdb
REMARK  12 active torsions:
REMARK  status: ('A' for Active; 'I' for Inactive)
REMARK    1  A    between atoms: C1_1  and  O1_2
REMARK    2  A    between atoms: O1_2  and  C2_3
REMARK    3  A    between atoms: C4_5  and  C5_6
REMARK    4  A    between atoms: N2_16  and  N3_17
REMARK    5  A    between atoms: N3_17  and  C13_18
REMARK    6  A    between atoms: C21_26  and  O3_27
REMARK    7  A    between atoms: O3_27  and  C22_28
REMARK    8  A    between atoms: C22_28  and  C23_29
REMARK    9  A    between atoms: N4_31  and  C25_32
REMARK   10  A    between atoms: C25_32  and  C26_33
REMARK   11  A    between atoms: N5_35  and  C27_36
REMARK   12  A    between atoms: C27_36  and  C28_37
REMARK                            x       y       z     vdW  Elec       q    Type
REMARK                         _______ _______ _______ _____ _____    ______ ____
ROOT
ATOM      1  C2  UNL     1      28.503  -9.040 -39.661  0.00  0.00    +0.000 A 
ATOM      2  C3  UNL     1      28.035  -9.227 -38.346  0.00  0.00    +0.000 A 
ATOM      3  C4  UNL     1      27.037  -8.393 -37.815  0.00  0.00    +0.000 A 
ATOM      4  C19 UNL     1      26.539  -7.337 -38.594  0.00  0.00    +0.000 A 
ATOM      5  C20 UNL     1      26.991  -7.149 -39.898  0.00  0.00    +0.000 A 
ATOM      6  C21 UNL     1      27.962  -8.010 -40.449  0.00  0.00    +0.000 A 
ENDROOT
BRANCH   3   7
ATOM      7  C5  UNL     1      26.553  -8.580 -36.395  0.00  0.00    +0.000 C 
ATOM      8  N1  UNL     1      25.088  -8.485 -36.367  0.00  0.00    +0.000 N 
ATOM      9  C6  UNL     1      24.359  -7.898 -35.282  0.00  0.00    +0.000 A 
ATOM     10  C7  UNL     1      22.980  -8.119 -35.162  0.00  0.00    +0.000 A 
ATOM     11  C8  UNL     1      22.266  -7.551 -34.101  0.00  0.00    +0.000 A 
ATOM     12  C9  UNL     1      22.922  -6.746 -33.167  0.00  0.00    +0.000 A 
ATOM     13  C10 UNL     1      24.296  -6.512 -33.289  0.00  0.00    +0.000 A 
ATOM     14  C11 UNL     1      25.020  -7.094 -34.347  0.00  0.00    +0.000 A 
ATOM     15  C12 UNL     1      26.465  -6.873 -34.505  0.00  0.00    +0.000 C 
ATOM     16  O2  UNL     1      27.065  -6.061 -33.750  0.00  0.00    +0.000 OA
ATOM     17  N2  UNL     1      27.200  -7.585 -35.512  0.00  0.00    +0.000 N 
ATOM     18  H6  UNL     1      24.559  -9.059 -37.060  0.00  0.00    +0.000 HD
BRANCH  17  19
ATOM     19  N3  UNL     1      28.582  -7.337 -35.636  0.00  0.00    +0.000 N 
ATOM     20  H11 UNL     1      28.900  -6.501 -36.173  0.00  0.00    +0.000 HD
BRANCH  19  21
ATOM     21  C13 UNL     1      29.573  -8.172 -35.014  0.00  0.00    +0.000 A 
ATOM     22  C14 UNL     1      30.765  -8.506 -35.680  0.00  0.00    +0.000 A 
ATOM     23  C15 UNL     1      31.691  -9.365 -35.079  0.00  0.00    +0.000 A 
ATOM     24  C16 UNL     1      31.435  -9.901 -33.811  0.00  0.00    +0.000 A 
ATOM     25  C17 UNL     1      30.242  -9.588 -33.149  0.00  0.00    +0.000 A 
ATOM     26  C18 UNL     1      29.317  -8.729 -33.750  0.00  0.00    +0.000 A 
ENDBRANCH  19  21
ENDBRANCH  17  19
ENDBRANCH   3   7
BRANCH   1  28
ATOM     27  C1  UNL     1      30.900  -9.702 -39.919  0.00  0.00    +0.000 C 
ATOM     28  O1  UNL     1      29.514  -9.841 -40.213  0.00  0.00    +0.000 OA
ENDBRANCH   1  28
BRANCH   6  29
ATOM     29  O3  UNL     1      28.415  -7.872 -41.770  0.00  0.00    +0.000 OA
BRANCH  29  30
ATOM     30  C22 UNL     1      27.969  -8.676 -42.862  0.00  0.00    +0.000 C 
BRANCH  30  31
ATOM     31  C23 UNL     1      26.481  -8.797 -42.828  0.00  0.00    +0.000 A 
ATOM     32  C24 UNL     1      25.574  -7.827 -43.197  0.00  0.00    +0.000 A 
ATOM     33  N4  UNL     1      24.360  -8.396 -43.091  0.00  0.00    +0.000 N 
ATOM     34  N6  UNL     1      24.517  -9.650 -42.698  0.00  0.00    +0.000 NA
ATOM     35  N7  UNL     1      25.805  -9.926 -42.536  0.00  0.00    +0.000 NA
BRANCH  33  36
ATOM     36  C25 UNL     1      23.076  -7.773 -43.398  0.00  0.00    +0.000 C 
BRANCH  36  37
ATOM     37  C26 UNL     1      23.113  -7.098 -44.738  0.00  0.00    +0.000 C 
ATOM     38  O4  UNL     1      22.763  -5.889 -44.828  0.00  0.00    +0.000 OA
ATOM     39  N5  UNL     1      23.606  -7.797 -45.891  0.00  0.00    +0.000 N 
ATOM     40  H24 UNL     1      23.952  -8.781 -45.784  0.00  0.00    +0.000 HD
BRANCH  39  41
ATOM     41  C27 UNL     1      23.729  -7.176 -47.209  0.00  0.00    +0.000 C 
BRANCH  41  42
ATOM     42  C28 UNL     1      25.163  -6.804 -47.460  0.00  0.00    +0.000 A 
ATOM     43  C29 UNL     1      25.539  -6.239 -48.691  0.00  0.00    +0.000 A 
ATOM     44  C30 UNL     1      26.877  -5.919 -48.939  0.00  0.00    +0.000 A 
ATOM     45  C31 UNL     1      27.849  -6.169 -47.967  0.00  0.00    +0.000 A 
ATOM     46  C32 UNL     1      27.484  -6.749 -46.747  0.00  0.00    +0.000 A 
ATOM     47  C33 UNL     1      26.147  -7.074 -46.496  0.00  0.00    +0.000 A 
ENDBRANCH  41  42
ENDBRANCH  39  41
ENDBRANCH  36  37
ENDBRANCH  33  36
ENDBRANCH  30  31
ENDBRANCH  29  30
ENDBRANCH   6  29
TORSDOF 11
ENDMDL
MODEL 6
REMARK VINA RESULT:    -6.454      4.204     11.388
REMARK INTER + INTRA:         -12.633
REMARK INTER:                  -9.967
REMARK INTRA:                  -2.666
REMARK UNBOUND:                -2.029
REMARK  Name = resultss/4CJN/ligands/lig_336_t0.pdb
REMARK  12 active torsions:
REMARK  status: ('A' for Active; 'I' for Inactive)
REMARK    1  A    between atoms: C1_1  and  O1_2
REMARK    2  A    between atoms: O1_2  and  C2_3
REMARK    3  A    between atoms: C4_5  and  C5_6
REMARK    4  A    between atoms: N2_16  and  N3_17
REMARK    5  A    between atoms: N3_17  and  C13_18
REMARK    6  A    between atoms: C21_26  and  O3_27
REMARK    7  A    between atoms: O3_27  and  C22_28
REMARK    8  A    between atoms: C22_28  and  C23_29
REMARK    9  A    between atoms: N4_31  and  C25_32
REMARK   10  A    between atoms: C25_32  and  C26_33
REMARK   11  A    between atoms: N5_35  and  C27_36
REMARK   12  A    between atoms: C27_36  and  C28_37
REMARK                            x       y       z     vdW  Elec       q    Type
REMARK                         _______ _______ _______ _____ _____    ______ ____
ROOT
ATOM      1  C2  UNL     1      25.905  -8.948 -40.632  0.00  0.00    +0.000 A 
ATOM      2  C3  UNL     1      25.891  -8.280 -41.872  0.00  0.00    +0.000 A 
ATOM      3  C4  UNL     1      25.915  -6.877 -41.930  0.00  0.00    +0.000 A 
ATOM      4  C19 UNL     1      25.909  -6.140 -40.736  0.00  0.00    +0.000 A 
ATOM      5  C20 UNL     1      25.932  -6.793 -39.505  0.00  0.00    +0.000 A 
ATOM      6  C21 UNL     1      25.949  -8.201 -39.443  0.00  0.00    +0.000 A 
ENDROOT
BRANCH   3   7
ATOM      7  C5  UNL     1      25.875  -6.161 -43.261  0.00  0.00    +0.000 C 
ATOM      8  N1  UNL     1      24.709  -6.622 -44.025  0.00  0.00    +0.000 N 
ATOM      9  C6  UNL     1      24.713  -6.779 -45.449  0.00  0.00    +0.000 A 
ATOM     10  C7  UNL     1      23.503  -6.909 -46.145  0.00  0.00    +0.000 A 
ATOM     11  C8  UNL     1      23.504  -7.057 -47.536  0.00  0.00    +0.000 A 
ATOM     12  C9  UNL     1      24.711  -7.094 -48.236  0.00  0.00    +0.000 A 
ATOM     13  C10 UNL     1      25.923  -6.975 -47.545  0.00  0.00    +0.000 A 
ATOM     14  C11 UNL     1      25.925  -6.811 -46.147  0.00  0.00    +0.000 A 
ATOM     15  C12 UNL     1      27.178  -6.681 -45.388  0.00  0.00    +0.000 C 
ATOM     16  O2  UNL     1      28.285  -6.825 -45.972  0.00  0.00    +0.000 OA
ATOM     17  N2  UNL     1      27.147  -6.382 -43.985  0.00  0.00    +0.000 N 
ATOM     18  H6  UNL     1      23.788  -6.626 -43.533  0.00  0.00    +0.000 HD
BRANCH  17  19
ATOM     19  N3  UNL     1      28.370  -6.274 -43.294  0.00  0.00    +0.000 N 
ATOM     20  H11 UNL     1      28.824  -5.338 -43.213  0.00  0.00    +0.000 HD
BRANCH  19  21
ATOM     21  C13 UNL     1      28.997  -7.400 -42.657  0.00  0.00    +0.000 A 
ATOM     22  C14 UNL     1      29.089  -8.644 -43.305  0.00  0.00    +0.000 A 
ATOM     23  C15 UNL     1      29.654  -9.741 -42.646  0.00  0.00    +0.000 A 
ATOM     24  C16 UNL     1      30.128  -9.608 -41.335  0.00  0.00    +0.000 A 
ATOM     25  C17 UNL     1      30.024  -8.377 -40.676  0.00  0.00    +0.000 A 
ATOM     26  C18 UNL     1      29.459  -7.280 -41.336  0.00  0.00    +0.000 A 
ENDBRANCH  19  21
ENDBRANCH  17  19
ENDBRANCH   3   7
BRANCH   1  28
ATOM     27  C1  UNL     1      27.003 -11.184 -40.418  0.00  0.00    +0.000 C 
ATOM     28  O1  UNL     1      25.858 -10.347 -40.539  0.00  0.00    +0.000 OA
ENDBRANCH   1  28
BRANCH   6  29
ATOM     29  O3  UNL     1      26.006  -8.891 -38.223  0.00  0.00    +0.000 OA
BRANCH  29  30
ATOM     30  C22 UNL     1      25.169  -8.614 -37.101  0.00  0.00    +0.000 C 
BRANCH  30  31
ATOM     31  C23 UNL     1      25.917  -8.874 -35.834  0.00  0.00    +0.000 A 
ATOM     32  C24 UNL     1      26.376  -7.924 -34.947  0.00  0.00    +0.000 A 
ATOM     33  N4  UNL     1      26.905  -8.606 -33.916  0.00  0.00    +0.000 N 
ATOM     34  N6  UNL     1      26.761  -9.901 -34.151  0.00  0.00    +0.000 NA
ATOM     35  N7  UNL     1      26.153 -10.095 -35.314  0.00  0.00    +0.000 NA
BRANCH  33  36
ATOM     36  C25 UNL     1      27.501  -8.038 -32.710  0.00  0.00    +0.000 C 
BRANCH  36  37
ATOM     37  C26 UNL     1      28.999  -8.049 -32.794  0.00  0.00    +0.000 C 
ATOM     38  O4  UNL     1      29.665  -7.334 -31.995  0.00  0.00    +0.000 OA
ATOM     39  N5  UNL     1      29.669  -8.911 -33.724  0.00  0.00    +0.000 N 
ATOM     40  H24 UNL     1      29.101  -9.545 -34.337  0.00  0.00    +0.000 HD
BRANCH  39  41
ATOM     41  C27 UNL     1      31.126  -9.016 -33.810  0.00  0.00    +0.000 C 
BRANCH  41  42
ATOM     42  C28 UNL     1      31.528  -9.311 -35.226  0.00  0.00    +0.000 A 
ATOM     43  C29 UNL     1      30.550  -9.630 -36.184  0.00  0.00    +0.000 A 
ATOM     44  C30 UNL     1      30.923  -9.933 -37.498  0.00  0.00    +0.000 A 
ATOM     45  C31 UNL     1      32.273  -9.931 -37.860  0.00  0.00    +0.000 A 
ATOM     46  C32 UNL     1      33.252  -9.634 -36.907  0.00  0.00    +0.000 A 
ATOM     47  C33 UNL     1      32.884  -9.332 -35.592  0.00  0.00    +0.000 A 
ENDBRANCH  41  42
ENDBRANCH  39  41
ENDBRANCH  36  37
ENDBRANCH  33  36
ENDBRANCH  30  31
ENDBRANCH  29  30
ENDBRANCH   6  29
TORSDOF 11
ENDMDL
MODEL 7
REMARK VINA RESULT:    -6.409      4.087     11.888
REMARK INTER + INTRA:         -12.560
REMARK INTER:                 -10.458
REMARK INTRA:                  -2.102
REMARK UNBOUND:                -2.029
REMARK  Name = resultss/4CJN/ligands/lig_336_t0.pdb
REMARK  12 active torsions:
REMARK  status: ('A' for Active; 'I' for Inactive)
REMARK    1  A    between atoms: C1_1  and  O1_2
REMARK    2  A    between atoms: O1_2  and  C2_3
REMARK    3  A    between atoms: C4_5  and  C5_6
REMARK    4  A    between atoms: N2_16  and  N3_17
REMARK    5  A    between atoms: N3_17  and  C13_18
REMARK    6  A    between atoms: C21_26  and  O3_27
REMARK    7  A    between atoms: O3_27  and  C22_28
REMARK    8  A    between atoms: C22_28  and  C23_29
REMARK    9  A    between atoms: N4_31  and  C25_32
REMARK   10  A    between atoms: C25_32  and  C26_33
REMARK   11  A    between atoms: N5_35  and  C27_36
REMARK   12  A    between atoms: C27_36  and  C28_37
REMARK                            x       y       z     vdW  Elec       q    Type
REMARK                         _______ _______ _______ _____ _____    ______ ____
ROOT
ATOM      1  C2  UNL     1      26.049  -8.981 -40.599  0.00  0.00    +0.000 A 
ATOM      2  C3  UNL     1      25.915  -8.324 -41.837  0.00  0.00    +0.000 A 
ATOM      3  C4  UNL     1      25.906  -6.921 -41.906  0.00  0.00    +0.000 A 
ATOM      4  C19 UNL     1      25.987  -6.175 -40.721  0.00  0.00    +0.000 A 
ATOM      5  C20 UNL     1      26.128  -6.816 -39.492  0.00  0.00    +0.000 A 
ATOM      6  C21 UNL     1      26.179  -8.224 -39.423  0.00  0.00    +0.000 A 
ENDROOT
BRANCH   3   7
ATOM      7  C5  UNL     1      25.737  -6.217 -43.234  0.00  0.00    +0.000 C 
ATOM      8  N1  UNL     1      24.538  -6.733 -43.907  0.00  0.00    +0.000 N 
ATOM      9  C6  UNL     1      24.444  -6.899 -45.326  0.00  0.00    +0.000 A 
ATOM     10  C7  UNL     1      23.192  -7.085 -45.930  0.00  0.00    +0.000 A 
ATOM     11  C8  UNL     1      23.096  -7.243 -47.317  0.00  0.00    +0.000 A 
ATOM     12  C9  UNL     1      24.249  -7.234 -48.104  0.00  0.00    +0.000 A 
ATOM     13  C10 UNL     1      25.502  -7.060 -47.506  0.00  0.00    +0.000 A 
ATOM     14  C11 UNL     1      25.601  -6.886 -46.112  0.00  0.00    +0.000 A 
ATOM     15  C12 UNL     1      26.900  -6.698 -45.449  0.00  0.00    +0.000 C 
ATOM     16  O2  UNL     1      27.967  -6.799 -46.113  0.00  0.00    +0.000 OA
ATOM     17  N2  UNL     1      26.960  -6.390 -44.048  0.00  0.00    +0.000 N 
ATOM     18  H6  UNL     1      23.657  -6.772 -43.348  0.00  0.00    +0.000 HD
BRANCH  17  19
ATOM     19  N3  UNL     1      28.225  -6.226 -43.450  0.00  0.00    +0.000 N 
ATOM     20  H11 UNL     1      28.653  -5.274 -43.424  0.00  0.00    +0.000 HD
BRANCH  19  21
ATOM     21  C13 UNL     1      28.934  -7.315 -42.835  0.00  0.00    +0.000 A 
ATOM     22  C14 UNL     1      29.018  -8.573 -43.458  0.00  0.00    +0.000 A 
ATOM     23  C15 UNL     1      29.665  -9.634 -42.817  0.00  0.00    +0.000 A 
ATOM     24  C16 UNL     1      30.231  -9.452 -41.550  0.00  0.00    +0.000 A 
ATOM     25  C17 UNL     1      30.137  -8.207 -40.915  0.00  0.00    +0.000 A 
ATOM     26  C18 UNL     1      29.490  -7.146 -41.556  0.00  0.00    +0.000 A 
ENDBRANCH  19  21
ENDBRANCH  17  19
ENDBRANCH   3   7
BRANCH   1  28
ATOM     27  C1  UNL     1      27.208 -11.189 -40.409  0.00  0.00    +0.000 C 
ATOM     28  O1  UNL     1      26.039 -10.380 -40.493  0.00  0.00    +0.000 OA
ENDBRANCH   1  28
BRANCH   6  29
ATOM     29  O3  UNL     1      26.355  -8.902 -38.207  0.00  0.00    +0.000 OA
BRANCH  29  30
ATOM     30  C22 UNL     1      25.404  -8.909 -37.143  0.00  0.00    +0.000 C 
BRANCH  30  31
ATOM     31  C23 UNL     1      26.112  -8.977 -35.830  0.00  0.00    +0.000 A 
ATOM     32  C24 UNL     1      26.055  -8.039 -34.822  0.00  0.00    +0.000 A 
ATOM     33  N4  UNL     1      26.766  -8.550 -33.801  0.00  0.00    +0.000 N 
ATOM     34  N6  UNL     1      27.218  -9.742 -34.159  0.00  0.00    +0.000 NA
ATOM     35  N7  UNL     1      26.827 -10.033 -35.393  0.00  0.00    +0.000 NA
BRANCH  33  36
ATOM     36  C25 UNL     1      26.979  -7.935 -32.494  0.00  0.00    +0.000 C 
BRANCH  36  37
ATOM     37  C26 UNL     1      28.399  -7.474 -32.342  0.00  0.00    +0.000 C 
ATOM     38  O4  UNL     1      28.711  -6.758 -31.351  0.00  0.00    +0.000 OA
ATOM     39  N5  UNL     1      29.405  -7.900 -33.272  0.00  0.00    +0.000 N 
ATOM     40  H24 UNL     1      29.140  -8.547 -34.053  0.00  0.00    +0.000 HD
BRANCH  39  41
ATOM     41  C27 UNL     1      30.818  -7.540 -33.142  0.00  0.00    +0.000 C 
BRANCH  41  42
ATOM     42  C28 UNL     1      31.556  -8.642 -32.436  0.00  0.00    +0.000 A 
ATOM     43  C29 UNL     1      31.183  -9.981 -32.638  0.00  0.00    +0.000 A 
ATOM     44  C30 UNL     1      31.849 -11.008 -31.961  0.00  0.00    +0.000 A 
ATOM     45  C31 UNL     1      32.883 -10.703 -31.071  0.00  0.00    +0.000 A 
ATOM     46  C32 UNL     1      33.245  -9.371 -30.850  0.00  0.00    +0.000 A 
ATOM     47  C33 UNL     1      32.580  -8.341 -31.523  0.00  0.00    +0.000 A 
ENDBRANCH  41  42
ENDBRANCH  39  41
ENDBRANCH  36  37
ENDBRANCH  33  36
ENDBRANCH  30  31
ENDBRANCH  29  30
ENDBRANCH   6  29
TORSDOF 11
ENDMDL
MODEL 8
REMARK VINA RESULT:    -6.316      4.177     12.405
REMARK INTER + INTRA:         -12.406
REMARK INTER:                 -10.481
REMARK INTRA:                  -1.925
REMARK UNBOUND:                -2.029
REMARK  Name = resultss/4CJN/ligands/lig_336_t0.pdb
REMARK  12 active torsions:
REMARK  status: ('A' for Active; 'I' for Inactive)
REMARK    1  A    between atoms: C1_1  and  O1_2
REMARK    2  A    between atoms: O1_2  and  C2_3
REMARK    3  A    between atoms: C4_5  and  C5_6
REMARK    4  A    between atoms: N2_16  and  N3_17
REMARK    5  A    between atoms: N3_17  and  C13_18
REMARK    6  A    between atoms: C21_26  and  O3_27
REMARK    7  A    between atoms: O3_27  and  C22_28
REMARK    8  A    between atoms: C22_28  and  C23_29
REMARK    9  A    between atoms: N4_31  and  C25_32
REMARK   10  A    between atoms: C25_32  and  C26_33
REMARK   11  A    between atoms: N5_35  and  C27_36
REMARK   12  A    between atoms: C27_36  and  C28_37
REMARK                            x       y       z     vdW  Elec       q    Type
REMARK                         _______ _______ _______ _____ _____    ______ ____
ROOT
ATOM      1  C2  UNL     1      26.155  -9.427 -40.565  0.00  0.00    +0.000 A 
ATOM      2  C3  UNL     1      26.050  -8.689 -41.759  0.00  0.00    +0.000 A 
ATOM      3  C4  UNL     1      26.001  -7.285 -41.732  0.00  0.00    +0.000 A 
ATOM      4  C19 UNL     1      26.014  -6.622 -40.496  0.00  0.00    +0.000 A 
ATOM      5  C20 UNL     1      26.127  -7.344 -39.309  0.00  0.00    +0.000 A 
ATOM      6  C21 UNL     1      26.217  -8.751 -39.335  0.00  0.00    +0.000 A 
ENDROOT
BRANCH   3   7
ATOM      7  C5  UNL     1      25.864  -6.495 -43.014  0.00  0.00    +0.000 C 
ATOM      8  N1  UNL     1      24.684  -6.967 -43.749  0.00  0.00    +0.000 N 
ATOM      9  C6  UNL     1      24.626  -7.039 -45.179  0.00  0.00    +0.000 A 
ATOM     10  C7  UNL     1      23.390  -7.187 -45.825  0.00  0.00    +0.000 A 
ATOM     11  C8  UNL     1      23.330  -7.253 -47.222  0.00  0.00    +0.000 A 
ATOM     12  C9  UNL     1      24.502  -7.189 -47.977  0.00  0.00    +0.000 A 
ATOM     13  C10 UNL     1      25.739  -7.052 -47.337  0.00  0.00    +0.000 A 
ATOM     14  C11 UNL     1      25.802  -6.971 -45.933  0.00  0.00    +0.000 A 
ATOM     15  C12 UNL     1      27.083  -6.825 -45.226  0.00  0.00    +0.000 C 
ATOM     16  O2  UNL     1      28.167  -6.881 -45.868  0.00  0.00    +0.000 OA
ATOM     17  N2  UNL     1      27.107  -6.611 -43.807  0.00  0.00    +0.000 N 
ATOM     18  H6  UNL     1      23.790  -7.045 -43.217  0.00  0.00    +0.000 HD
BRANCH  17  19
ATOM     19  N3  UNL     1      28.356  -6.485 -43.167  0.00  0.00    +0.000 N 
ATOM     20  H11 UNL     1      28.772  -5.535 -43.053  0.00  0.00    +0.000 HD
BRANCH  19  21
ATOM     21  C13 UNL     1      29.064  -7.614 -42.628  0.00  0.00    +0.000 A 
ATOM     22  C14 UNL     1      29.165  -8.820 -43.344  0.00  0.00    +0.000 A 
ATOM     23  C15 UNL     1      29.809  -9.924 -42.777  0.00  0.00    +0.000 A 
ATOM     24  C16 UNL     1      30.356  -9.837 -41.491  0.00  0.00    +0.000 A 
ATOM     25  C17 UNL     1      30.244  -8.645 -40.764  0.00  0.00    +0.000 A 
ATOM     26  C18 UNL     1      29.599  -7.541 -41.331  0.00  0.00    +0.000 A 
ENDBRANCH  19  21
ENDBRANCH  17  19
ENDBRANCH   3   7
BRANCH   1  28
ATOM     27  C1  UNL     1      27.362 -11.610 -40.392  0.00  0.00    +0.000 C 
ATOM     28  O1  UNL     1      26.183 -10.830 -40.556  0.00  0.00    +0.000 OA
ENDBRANCH   1  28
BRANCH   6  29
ATOM     29  O3  UNL     1      26.366  -9.508 -38.163  0.00  0.00    +0.000 OA
BRANCH  29  30
ATOM     30  C22 UNL     1      26.114  -9.014 -36.848  0.00  0.00    +0.000 C 
BRANCH  30  31
ATOM     31  C23 UNL     1      27.311  -9.240 -35.984  0.00  0.00    +0.000 A 
ATOM     32  C24 UNL     1      28.476  -8.504 -35.996  0.00  0.00    +0.000 A 
ATOM     33  N4  UNL     1      29.236  -8.998 -35.002  0.00  0.00    +0.000 N 
ATOM     34  N6  UNL     1      28.564  -9.970 -34.403  0.00  0.00    +0.000 NA
ATOM     35  N7  UNL     1      27.379 -10.135 -34.978  0.00  0.00    +0.000 NA
BRANCH  33  36
ATOM     36  C25 UNL     1      30.559  -8.529 -34.600  0.00  0.00    +0.000 C 
BRANCH  36  37
ATOM     37  C26 UNL     1      30.839  -8.875 -33.167  0.00  0.00    +0.000 C 
ATOM     38  O4  UNL     1      30.414  -8.113 -32.255  0.00  0.00    +0.000 OA
ATOM     39  N5  UNL     1      31.520 -10.093 -32.832  0.00  0.00    +0.000 N 
ATOM     40  H24 UNL     1      31.809 -10.746 -33.601  0.00  0.00    +0.000 HD
BRANCH  39  41
ATOM     41  C27 UNL     1      31.764 -10.520 -31.454  0.00  0.00    +0.000 C 
BRANCH  41  42
ATOM     42  C28 UNL     1      32.442 -11.860 -31.454  0.00  0.00    +0.000 A 
ATOM     43  C29 UNL     1      33.732 -11.997 -31.994  0.00  0.00    +0.000 A 
ATOM     44  C30 UNL     1      34.355 -13.248 -32.022  0.00  0.00    +0.000 A 
ATOM     45  C31 UNL     1      33.693 -14.372 -31.520  0.00  0.00    +0.000 A 
ATOM     46  C32 UNL     1      32.401 -14.246 -30.999  0.00  0.00    +0.000 A 
ATOM     47  C33 UNL     1      31.773 -12.996 -30.972  0.00  0.00    +0.000 A 
ENDBRANCH  41  42
ENDBRANCH  39  41
ENDBRANCH  36  37
ENDBRANCH  33  36
ENDBRANCH  30  31
ENDBRANCH  29  30
ENDBRANCH   6  29
TORSDOF 11
ENDMDL
MODEL 9
REMARK VINA RESULT:    -5.936      4.377     10.847
REMARK INTER + INTRA:         -11.782
REMARK INTER:                  -8.795
REMARK INTRA:                  -2.986
REMARK UNBOUND:                -2.029
REMARK  Name = resultss/4CJN/ligands/lig_336_t0.pdb
REMARK  12 active torsions:
REMARK  status: ('A' for Active; 'I' for Inactive)
REMARK    1  A    between atoms: C1_1  and  O1_2
REMARK    2  A    between atoms: O1_2  and  C2_3
REMARK    3  A    between atoms: C4_5  and  C5_6
REMARK    4  A    between atoms: N2_16  and  N3_17
REMARK    5  A    between atoms: N3_17  and  C13_18
REMARK    6  A    between atoms: C21_26  and  O3_27
REMARK    7  A    between atoms: O3_27  and  C22_28
REMARK    8  A    between atoms: C22_28  and  C23_29
REMARK    9  A    between atoms: N4_31  and  C25_32
REMARK   10  A    between atoms: C25_32  and  C26_33
REMARK   11  A    between atoms: N5_35  and  C27_36
REMARK   12  A    between atoms: C27_36  and  C28_37
REMARK                            x       y       z     vdW  Elec       q    Type
REMARK                         _______ _______ _______ _____ _____    ______ ____
ROOT
ATOM      1  C2  UNL     1      25.211  -8.588 -40.511  0.00  0.00    +0.000 A 
ATOM      2  C3  UNL     1      25.570  -8.014 -41.746  0.00  0.00    +0.000 A 
ATOM      3  C4  UNL     1      26.100  -6.715 -41.805  0.00  0.00    +0.000 A 
ATOM      4  C19 UNL     1      26.230  -5.972 -40.621  0.00  0.00    +0.000 A 
ATOM      5  C20 UNL     1      25.885  -6.535 -39.394  0.00  0.00    +0.000 A 
ATOM      6  C21 UNL     1      25.391  -7.854 -39.327  0.00  0.00    +0.000 A 
ENDROOT
BRANCH   3   7
ATOM      7  C5  UNL     1      26.462  -6.090 -43.133  0.00  0.00    +0.000 C 
ATOM      8  N1  UNL     1      25.289  -6.118 -44.017  0.00  0.00    +0.000 N 
ATOM      9  C6  UNL     1      25.375  -6.323 -45.432  0.00  0.00    +0.000 A 
ATOM     10  C7  UNL     1      24.279  -6.024 -46.253  0.00  0.00    +0.000 A 
ATOM     11  C8  UNL     1      24.362  -6.219 -47.636  0.00  0.00    +0.000 A 
ATOM     12  C9  UNL     1      25.532  -6.730 -48.202  0.00  0.00    +0.000 A 
ATOM     13  C10 UNL     1      26.625  -7.040 -47.386  0.00  0.00    +0.000 A 
ATOM     14  C11 UNL     1      26.550  -6.831 -45.996  0.00  0.00    +0.000 A 
ATOM     15  C12 UNL     1      27.680  -7.144 -45.108  0.00  0.00    +0.000 C 
ATOM     16  O2  UNL     1      28.706  -7.712 -45.569  0.00  0.00    +0.000 OA
ATOM     17  N2  UNL     1      27.624  -6.797 -43.716  0.00  0.00    +0.000 N 
ATOM     18  H6  UNL     1      24.390  -5.760 -43.626  0.00  0.00    +0.000 HD
BRANCH  17  19
ATOM     19  N3  UNL     1      28.724  -7.122 -42.898  0.00  0.00    +0.000 N 
ATOM     20  H11 UNL     1      29.336  -6.354 -42.545  0.00  0.00    +0.000 HD
BRANCH  19  21
ATOM     21  C13 UNL     1      29.014  -8.471 -42.495  0.00  0.00    +0.000 A 
ATOM     22  C14 UNL     1      28.518  -8.992 -41.287  0.00  0.00    +0.000 A 
ATOM     23  C15 UNL     1      28.859 -10.289 -40.889  0.00  0.00    +0.000 A 
ATOM     24  C16 UNL     1      29.697 -11.075 -41.687  0.00  0.00    +0.000 A 
ATOM     25  C17 UNL     1      30.209 -10.557 -42.883  0.00  0.00    +0.000 A 
ATOM     26  C18 UNL     1      29.869  -9.261 -43.282  0.00  0.00    +0.000 A 
ENDBRANCH  19  21
ENDBRANCH  17  19
ENDBRANCH   3   7
BRANCH   1  28
ATOM     27  C1  UNL     1      25.209 -11.033 -41.036  0.00  0.00    +0.000 C 
ATOM     28  O1  UNL     1      24.657  -9.874 -40.420  0.00  0.00    +0.000 OA
ENDBRANCH   1  28
BRANCH   6  29
ATOM     29  O3  UNL     1      25.067  -8.465 -38.106  0.00  0.00    +0.000 OA
BRANCH  29  30
ATOM     30  C22 UNL     1      25.277  -7.869 -36.826  0.00  0.00    +0.000 C 
BRANCH  30  31
ATOM     31  C23 UNL     1      26.186  -8.729 -36.010  0.00  0.00    +0.000 A 
ATOM     32  C24 UNL     1      27.476  -8.425 -35.632  0.00  0.00    +0.000 A 
ATOM     33  N4  UNL     1      27.877  -9.436 -34.840  0.00  0.00    +0.000 N 
ATOM     34  N6  UNL     1      26.881 -10.300 -34.725  0.00  0.00    +0.000 NA
ATOM     35  N7  UNL     1      25.830  -9.890 -35.425  0.00  0.00    +0.000 NA
BRANCH  33  36
ATOM     36  C25 UNL     1      29.169  -9.558 -34.170  0.00  0.00    +0.000 C 
BRANCH  36  37
ATOM     37  C26 UNL     1      30.290  -9.581 -35.167  0.00  0.00    +0.000 C 
ATOM     38  O4  UNL     1      31.473  -9.401 -34.765  0.00  0.00    +0.000 OA
ATOM     39  N5  UNL     1      30.031  -9.873 -36.547  0.00  0.00    +0.000 N 
ATOM     40  H24 UNL     1      29.050 -10.083 -36.851  0.00  0.00    +0.000 HD
BRANCH  39  41
ATOM     41  C27 UNL     1      31.087  -9.976 -37.554  0.00  0.00    +0.000 C 
BRANCH  41  42
ATOM     42  C28 UNL     1      31.047  -8.772 -38.452  0.00  0.00    +0.000 A 
ATOM     43  C29 UNL     1      31.957  -8.657 -39.516  0.00  0.00    +0.000 A 
ATOM     44  C30 UNL     1      31.942  -7.524 -40.337  0.00  0.00    +0.000 A 
ATOM     45  C31 UNL     1      31.025  -6.498 -40.096  0.00  0.00    +0.000 A 
ATOM     46  C32 UNL     1      30.129  -6.597 -39.027  0.00  0.00    +0.000 A 
ATOM     47  C33 UNL     1      30.143  -7.727 -38.202  0.00  0.00    +0.000 A 
ENDBRANCH  41  42
ENDBRANCH  39  41
ENDBRANCH  36  37
ENDBRANCH  33  36
ENDBRANCH  30  31
ENDBRANCH  29  30
ENDBRANCH   6  29
TORSDOF 11
ENDMDL
