MODEL 1
REMARK VINA RESULT:    -6.460      0.000      0.000
REMARK INTER + INTRA:         -10.771
REMARK INTER:                  -9.859
REMARK INTRA:                  -0.912
REMARK UNBOUND:                -0.912
REMARK  Name = resultss/4CJN/ligands/lig_282_t0.pdb
REMARK  11 active torsions:
REMARK  status: ('A' for Active; 'I' for Inactive)
REMARK    1  A    between atoms: C2_2  and  C3_3
REMARK    2  A    between atoms: C3_3  and  C4_4
REMARK    3  A    between atoms: C6_6  and  C7_7
REMARK    4  A    between atoms: C10_10  and  O1_11
REMARK    5  A    between atoms: C11_12  and  C12_13
REMARK    6  A    between atoms: C12_13  and  C13_14
REMARK    7  A    between atoms: C16_17  and  O2_18
REMARK    8  A    between atoms: C17_19  and  C18_20
REMARK    9  A    between atoms: C18_20  and  C19_21
REMARK   10  A    between atoms: C18_20  and  N1_29
REMARK   11  A    between atoms: C27_32  and  C28_33
REMARK                            x       y       z     vdW  Elec       q    Type
REMARK                         _______ _______ _______ _____ _____    ______ ____
ROOT
ATOM      1  C4  UNL     1      29.602  -9.583 -36.475  0.00  0.00    +0.000 A 
ATOM      2  C5  UNL     1      28.540  -9.228 -35.638  0.00  0.00    +0.000 A 
ATOM      3  C6  UNL     1      27.222  -9.215 -36.117  0.00  0.00    +0.000 A 
ATOM      4  C16 UNL     1      26.966  -9.548 -37.467  0.00  0.00    +0.000 A 
ATOM      5  C17 UNL     1      28.031  -9.946 -38.308  0.00  0.00    +0.000 A 
ATOM      6  C31 UNL     1      29.342  -9.953 -37.800  0.00  0.00    +0.000 A 
ENDROOT
BRANCH   3   7
ATOM      7  C7  UNL     1      26.130  -8.892 -35.172  0.00  0.00    +0.000 A 
ATOM      8  C8  UNL     1      25.764  -9.806 -34.174  0.00  0.00    +0.000 A 
ATOM      9  C9  UNL     1      24.761  -9.483 -33.258  0.00  0.00    +0.000 A 
ATOM     10  C10 UNL     1      24.118  -8.239 -33.320  0.00  0.00    +0.000 A 
ATOM     11  C11 UNL     1      24.477  -7.313 -34.319  0.00  0.00    +0.000 A 
ATOM     12  C15 UNL     1      25.492  -7.643 -35.232  0.00  0.00    +0.000 A 
BRANCH  10  13
ATOM     13  O1  UNL     1      23.129  -7.919 -32.390  0.00  0.00    +0.000 OA
ATOM     14  H9  UNL     1      22.623  -8.638 -31.884  0.00  0.00    +0.000 HD
ENDBRANCH  10  13
BRANCH  11  15
ATOM     15  C12 UNL     1      23.825  -5.955 -34.384  0.00  0.00    +0.000 C 
BRANCH  15  16
ATOM     16  C13 UNL     1      22.857  -5.884 -35.532  0.00  0.00    +0.000 C 
ATOM     17  C14 UNL     1      21.682  -6.519 -35.499  0.00  0.00    +0.000 C 
ENDBRANCH  15  16
ENDBRANCH  11  15
ENDBRANCH   3   7
BRANCH   4  18
ATOM     18  O2  UNL     1      25.672  -9.482 -37.991  0.00  0.00    +0.000 OA
ATOM     19  H16 UNL     1      25.180  -8.612 -38.150  0.00  0.00    +0.000 HD
ENDBRANCH   4  18
BRANCH   1  20
ATOM     20  C3  UNL     1      31.006  -9.632 -35.934  0.00  0.00    +0.000 C 
BRANCH  20  22
ATOM     21  C1  UNL     1      32.998 -10.005 -37.365  0.00  0.00    +0.000 C 
ATOM     22  C2  UNL     1      31.993  -9.210 -36.986  0.00  0.00    +0.000 C 
ENDBRANCH  20  22
ENDBRANCH   1  20
BRANCH   5  23
ATOM     23  C18 UNL     1      27.807 -10.322 -39.772  0.00  0.00    +0.000 C 
BRANCH  23  24
ATOM     24  C19 UNL     1      29.142 -10.198 -40.495  0.00  0.00    +0.000 A 
ATOM     25  C20 UNL     1      30.085  -9.208 -40.154  0.00  0.00    +0.000 A 
ATOM     26  C21 UNL     1      31.317  -9.147 -40.812  0.00  0.00    +0.000 A 
ATOM     27 CL1  UNL     1      32.478  -7.904 -40.383  0.00  0.00    +0.000 Cl
ATOM     28  C22 UNL     1      31.626 -10.075 -41.809  0.00  0.00    +0.000 A 
ATOM     29  C23 UNL     1      30.704 -11.069 -42.149  0.00  0.00    +0.000 A 
ATOM     30 CL2  UNL     1      31.095 -12.240 -43.395  0.00  0.00    +0.000 Cl
ATOM     31  C24 UNL     1      29.471 -11.133 -41.492  0.00  0.00    +0.000 A 
ENDBRANCH  23  24
BRANCH  23  32
ATOM     32  N1  UNL     1      26.724  -9.522 -40.415  0.00  0.00    +0.000 NA
ATOM     33  C25 UNL     1      25.751 -10.386 -41.142  0.00  0.00    +0.000 C 
ATOM     34  C26 UNL     1      24.946  -9.602 -42.184  0.00  0.00    +0.000 C 
ATOM     35  C27 UNL     1      25.872  -9.061 -43.294  0.00  0.00    +0.000 C 
ATOM     36  C28 UNL     1      25.251  -7.825 -43.956  0.00  0.00    +0.000 C 
ATOM     37  C29 UNL     1      27.293  -8.765 -42.761  0.00  0.00    +0.000 C 
ATOM     38  C30 UNL     1      27.271  -8.420 -41.264  0.00  0.00    +0.000 C 
ENDBRANCH  23  32
ENDBRANCH   5  23
TORSDOF 10
ENDMDL
MODEL 2
REMARK VINA RESULT:    -6.163      3.518      8.245
REMARK INTER + INTRA:         -10.318
REMARK INTER:                  -9.176
REMARK INTRA:                  -1.142
REMARK UNBOUND:                -0.912
REMARK  Name = resultss/4CJN/ligands/lig_282_t0.pdb
REMARK  11 active torsions:
REMARK  status: ('A' for Active; 'I' for Inactive)
REMARK    1  A    between atoms: C2_2  and  C3_3
REMARK    2  A    between atoms: C3_3  and  C4_4
REMARK    3  A    between atoms: C6_6  and  C7_7
REMARK    4  A    between atoms: C10_10  and  O1_11
REMARK    5  A    between atoms: C11_12  and  C12_13
REMARK    6  A    between atoms: C12_13  and  C13_14
REMARK    7  A    between atoms: C16_17  and  O2_18
REMARK    8  A    between atoms: C17_19  and  C18_20
REMARK    9  A    between atoms: C18_20  and  C19_21
REMARK   10  A    between atoms: C18_20  and  N1_29
REMARK   11  A    between atoms: C27_32  and  C28_33
REMARK                            x       y       z     vdW  Elec       q    Type
REMARK                         _______ _______ _______ _____ _____    ______ ____
ROOT
ATOM      1  C4  UNL     1      26.926 -11.482 -40.471  0.00  0.00    +0.000 A 
ATOM      2  C5  UNL     1      28.246 -11.404 -40.925  0.00  0.00    +0.000 A 
ATOM      3  C6  UNL     1      28.922 -10.176 -40.958  0.00  0.00    +0.000 A 
ATOM      4  C16 UNL     1      28.255  -9.000 -40.543  0.00  0.00    +0.000 A 
ATOM      5  C17 UNL     1      26.934  -9.079 -40.045  0.00  0.00    +0.000 A 
ATOM      6  C31 UNL     1      26.281 -10.324 -40.021  0.00  0.00    +0.000 A 
ENDROOT
BRANCH   3   7
ATOM      7  C7  UNL     1      30.337 -10.159 -41.389  0.00  0.00    +0.000 A 
ATOM      8  C8  UNL     1      31.333  -9.677 -40.529  0.00  0.00    +0.000 A 
ATOM      9  C9  UNL     1      32.673  -9.700 -40.921  0.00  0.00    +0.000 A 
ATOM     10  C10 UNL     1      33.037 -10.213 -42.173  0.00  0.00    +0.000 A 
ATOM     11  C11 UNL     1      32.044 -10.701 -43.046  0.00  0.00    +0.000 A 
ATOM     12  C15 UNL     1      30.699 -10.680 -42.641  0.00  0.00    +0.000 A 
BRANCH  10  13
ATOM     13  O1  UNL     1      34.379 -10.247 -42.549  0.00  0.00    +0.000 OA
ATOM     14  H9  UNL     1      35.119 -10.377 -41.868  0.00  0.00    +0.000 HD
ENDBRANCH  10  13
BRANCH  11  15
ATOM     15  C12 UNL     1      32.414 -11.291 -44.383  0.00  0.00    +0.000 C 
BRANCH  15  16
ATOM     16  C13 UNL     1      32.101 -12.762 -44.420  0.00  0.00    +0.000 C 
ATOM     17  C14 UNL     1      32.682 -13.580 -45.301  0.00  0.00    +0.000 C 
ENDBRANCH  15  16
ENDBRANCH  11  15
ENDBRANCH   3   7
BRANCH   4  18
ATOM     18  O2  UNL     1      28.879  -7.752 -40.625  0.00  0.00    +0.000 OA
ATOM     19  H16 UNL     1      29.299  -7.396 -41.473  0.00  0.00    +0.000 HD
ENDBRANCH   4  18
BRANCH   1  20
ATOM     20  C3  UNL     1      26.229 -12.815 -40.403  0.00  0.00    +0.000 C 
BRANCH  20  22
ATOM     21  C1  UNL     1      26.881 -14.962 -39.345  0.00  0.00    +0.000 C 
ATOM     22  C2  UNL     1      27.213 -13.911 -40.100  0.00  0.00    +0.000 C 
ENDBRANCH  20  22
ENDBRANCH   1  20
BRANCH   5  23
ATOM     23  C18 UNL     1      26.172  -7.839 -39.578  0.00  0.00    +0.000 C 
BRANCH  23  24
ATOM     24  C19 UNL     1      25.742  -8.072 -38.135  0.00  0.00    +0.000 A 
ATOM     25  C20 UNL     1      24.481  -7.664 -37.657  0.00  0.00    +0.000 A 
ATOM     26  C21 UNL     1      24.104  -7.929 -36.337  0.00  0.00    +0.000 A 
ATOM     27 CL1  UNL     1      22.534  -7.408 -35.753  0.00  0.00    +0.000 Cl
ATOM     28  C22 UNL     1      24.975  -8.609 -35.482  0.00  0.00    +0.000 A 
ATOM     29  C23 UNL     1      26.225  -9.029 -35.947  0.00  0.00    +0.000 A 
ATOM     30 CL2  UNL     1      27.314  -9.892 -34.877  0.00  0.00    +0.000 Cl
ATOM     31  C24 UNL     1      26.604  -8.767 -37.267  0.00  0.00    +0.000 A 
ENDBRANCH  23  24
BRANCH  23  32
ATOM     32  N1  UNL     1      25.029  -7.491 -40.473  0.00  0.00    +0.000 NA
ATOM     33  C25 UNL     1      24.286  -8.703 -40.920  0.00  0.00    +0.000 C 
ATOM     34  C26 UNL     1      23.453  -8.439 -42.180  0.00  0.00    +0.000 C 
ATOM     35  C27 UNL     1      24.367  -8.094 -43.375  0.00  0.00    +0.000 C 
ATOM     36  C28 UNL     1      23.605  -7.257 -44.410  0.00  0.00    +0.000 C 
ATOM     37  C29 UNL     1      25.665  -7.387 -42.919  0.00  0.00    +0.000 C 
ATOM     38  C30 UNL     1      25.453  -6.616 -41.607  0.00  0.00    +0.000 C 
ENDBRANCH  23  32
ENDBRANCH   5  23
TORSDOF 10
ENDMDL
MODEL 3
REMARK VINA RESULT:    -5.765      2.423      3.264
REMARK INTER + INTRA:          -9.710
REMARK INTER:                  -8.762
REMARK INTRA:                  -0.947
REMARK UNBOUND:                -0.912
REMARK  Name = resultss/4CJN/ligands/lig_282_t0.pdb
REMARK  11 active torsions:
REMARK  status: ('A' for Active; 'I' for Inactive)
REMARK    1  A    between atoms: C2_2  and  C3_3
REMARK    2  A    between atoms: C3_3  and  C4_4
REMARK    3  A    between atoms: C6_6  and  C7_7
REMARK    4  A    between atoms: C10_10  and  O1_11
REMARK    5  A    between atoms: C11_12  and  C12_13
REMARK    6  A    between atoms: C12_13  and  C13_14
REMARK    7  A    between atoms: C16_17  and  O2_18
REMARK    8  A    between atoms: C17_19  and  C18_20
REMARK    9  A    between atoms: C18_20  and  C19_21
REMARK   10  A    between atoms: C18_20  and  N1_29
REMARK   11  A    between atoms: C27_32  and  C28_33
REMARK                            x       y       z     vdW  Elec       q    Type
REMARK                         _______ _______ _______ _____ _____    ______ ____
ROOT
ATOM      1  C4  UNL     1      28.072  -6.823 -38.340  0.00  0.00    +0.000 A 
ATOM      2  C5  UNL     1      27.364  -7.127 -37.173  0.00  0.00    +0.000 A 
ATOM      3  C6  UNL     1      26.148  -7.823 -37.232  0.00  0.00    +0.000 A 
ATOM      4  C16 UNL     1      25.623  -8.206 -38.489  0.00  0.00    +0.000 A 
ATOM      5  C17 UNL     1      26.355  -7.937 -39.669  0.00  0.00    +0.000 A 
ATOM      6  C31 UNL     1      27.572  -7.240 -39.579  0.00  0.00    +0.000 A 
ENDROOT
BRANCH   3   7
ATOM      7  C7  UNL     1      25.470  -8.172 -35.964  0.00  0.00    +0.000 A 
ATOM      8  C8  UNL     1      25.927  -9.250 -35.192  0.00  0.00    +0.000 A 
ATOM      9  C9  UNL     1      25.313  -9.553 -33.975  0.00  0.00    +0.000 A 
ATOM     10  C10 UNL     1      24.242  -8.779 -33.510  0.00  0.00    +0.000 A 
ATOM     11  C11 UNL     1      23.775  -7.694 -34.277  0.00  0.00    +0.000 A 
ATOM     12  C15 UNL     1      24.403  -7.391 -35.496  0.00  0.00    +0.000 A 
BRANCH  10  13
ATOM     13  O1  UNL     1      23.646  -9.080 -32.285  0.00  0.00    +0.000 OA
ATOM     14  H9  UNL     1      23.952  -9.867 -31.725  0.00  0.00    +0.000 HD
ENDBRANCH  10  13
BRANCH  11  15
ATOM     15  C12 UNL     1      22.649  -6.824 -33.779  0.00  0.00    +0.000 C 
BRANCH  15  16
ATOM     16  C13 UNL     1      22.140  -5.933 -34.878  0.00  0.00    +0.000 C 
ATOM     17  C14 UNL     1      21.093  -6.278 -35.634  0.00  0.00    +0.000 C 
ENDBRANCH  15  16
ENDBRANCH  11  15
ENDBRANCH   3   7
BRANCH   4  18
ATOM     18  O2  UNL     1      24.384  -8.844 -38.586  0.00  0.00    +0.000 OA
ATOM     19  H16 UNL     1      24.219  -9.653 -39.170  0.00  0.00    +0.000 HD
ENDBRANCH   4  18
BRANCH   1  20
ATOM     20  C3  UNL     1      29.397  -6.112 -38.255  0.00  0.00    +0.000 C 
BRANCH  20  22
ATOM     21  C1  UNL     1      31.011  -6.836 -39.994  0.00  0.00    +0.000 C 
ATOM     22  C2  UNL     1      30.031  -6.011 -39.614  0.00  0.00    +0.000 C 
ENDBRANCH  20  22
ENDBRANCH   1  20
BRANCH   5  23
ATOM     23  C18 UNL     1      25.835  -8.337 -41.049  0.00  0.00    +0.000 C 
BRANCH  23  24
ATOM     24  C19 UNL     1      27.039  -8.666 -41.922  0.00  0.00    +0.000 A 
ATOM     25  C20 UNL     1      27.942  -9.696 -41.591  0.00  0.00    +0.000 A 
ATOM     26  C21 UNL     1      29.015  -9.997 -42.435  0.00  0.00    +0.000 A 
ATOM     27 CL1  UNL     1      30.136 -11.276 -42.005  0.00  0.00    +0.000 Cl
ATOM     28  C22 UNL     1      29.196  -9.282 -43.621  0.00  0.00    +0.000 A 
ATOM     29  C23 UNL     1      28.301  -8.265 -43.968  0.00  0.00    +0.000 A 
ATOM     30 CL2  UNL     1      28.522  -7.373 -45.462  0.00  0.00    +0.000 Cl
ATOM     31  C24 UNL     1      27.226  -7.962 -43.126  0.00  0.00    +0.000 A 
ENDBRANCH  23  24
BRANCH  23  32
ATOM     32  N1  UNL     1      24.947  -7.302 -41.655  0.00  0.00    +0.000 NA
ATOM     33  C25 UNL     1      24.118  -6.612 -40.627  0.00  0.00    +0.000 C 
ATOM     34  C26 UNL     1      22.891  -5.926 -41.238  0.00  0.00    +0.000 C 
ATOM     35  C27 UNL     1      21.934  -6.968 -41.855  0.00  0.00    +0.000 C 
ATOM     36  C28 UNL     1      21.082  -6.328 -42.958  0.00  0.00    +0.000 C 
ATOM     37  C29 UNL     1      22.698  -8.208 -42.378  0.00  0.00    +0.000 C 
ATOM     38  C30 UNL     1      24.137  -7.852 -42.784  0.00  0.00    +0.000 C 
ENDBRANCH  23  32
ENDBRANCH   5  23
TORSDOF 10
ENDMDL
MODEL 4
REMARK VINA RESULT:    -5.687      1.729      2.668
REMARK INTER + INTRA:          -9.591
REMARK INTER:                  -9.181
REMARK INTRA:                  -0.409
REMARK UNBOUND:                -0.912
REMARK  Name = resultss/4CJN/ligands/lig_282_t0.pdb
REMARK  11 active torsions:
REMARK  status: ('A' for Active; 'I' for Inactive)
REMARK    1  A    between atoms: C2_2  and  C3_3
REMARK    2  A    between atoms: C3_3  and  C4_4
REMARK    3  A    between atoms: C6_6  and  C7_7
REMARK    4  A    between atoms: C10_10  and  O1_11
REMARK    5  A    between atoms: C11_12  and  C12_13
REMARK    6  A    between atoms: C12_13  and  C13_14
REMARK    7  A    between atoms: C16_17  and  O2_18
REMARK    8  A    between atoms: C17_19  and  C18_20
REMARK    9  A    between atoms: C18_20  and  C19_21
REMARK   10  A    between atoms: C18_20  and  N1_29
REMARK   11  A    between atoms: C27_32  and  C28_33
REMARK                            x       y       z     vdW  Elec       q    Type
REMARK                         _______ _______ _______ _____ _____    ______ ____
ROOT
ATOM      1  C4  UNL     1      28.362  -9.058 -37.342  0.00  0.00    +0.000 A 
ATOM      2  C5  UNL     1      27.187  -8.455 -36.881  0.00  0.00    +0.000 A 
ATOM      3  C6  UNL     1      26.151  -8.128 -37.768  0.00  0.00    +0.000 A 
ATOM      4  C16 UNL     1      26.304  -8.396 -39.148  0.00  0.00    +0.000 A 
ATOM      5  C17 UNL     1      27.472  -9.042 -39.615  0.00  0.00    +0.000 A 
ATOM      6  C31 UNL     1      28.493  -9.360 -38.702  0.00  0.00    +0.000 A 
ENDROOT
BRANCH   3   7
ATOM      7  C7  UNL     1      24.906  -7.548 -37.219  0.00  0.00    +0.000 A 
ATOM      8  C8  UNL     1      24.314  -6.435 -37.831  0.00  0.00    +0.000 A 
ATOM      9  C9  UNL     1      23.116  -5.914 -37.337  0.00  0.00    +0.000 A 
ATOM     10  C10 UNL     1      22.490  -6.503 -36.231  0.00  0.00    +0.000 A 
ATOM     11  C11 UNL     1      23.076  -7.622 -35.607  0.00  0.00    +0.000 A 
ATOM     12  C15 UNL     1      24.277  -8.144 -36.115  0.00  0.00    +0.000 A 
BRANCH  10  13
ATOM     13  O1  UNL     1      21.286  -5.985 -35.754  0.00  0.00    +0.000 OA
ATOM     14  H9  UNL     1      20.567  -5.649 -36.384  0.00  0.00    +0.000 HD
ENDBRANCH  10  13
BRANCH  11  15
ATOM     15  C12 UNL     1      22.403  -8.296 -34.438  0.00  0.00    +0.000 C 
BRANCH  15  16
ATOM     16  C13 UNL     1      23.089  -7.936 -33.149  0.00  0.00    +0.000 C 
ATOM     17  C14 UNL     1      23.085  -6.686 -32.678  0.00  0.00    +0.000 C 
ENDBRANCH  15  16
ENDBRANCH  11  15
ENDBRANCH   3   7
BRANCH   4  18
ATOM     18  O2  UNL     1      25.318  -8.024 -40.066  0.00  0.00    +0.000 OA
ATOM     19  H16 UNL     1      25.176  -8.494 -40.950  0.00  0.00    +0.000 HD
ENDBRANCH   4  18
BRANCH   1  20
ATOM     20  C3  UNL     1      29.446  -9.439 -36.370  0.00  0.00    +0.000 C 
BRANCH  20  22
ATOM     21  C1  UNL     1      28.932  -9.964 -34.000  0.00  0.00    +0.000 C 
ATOM     22  C2  UNL     1      29.059  -9.053 -34.969  0.00  0.00    +0.000 C 
ENDBRANCH  20  22
ENDBRANCH   1  20
BRANCH   5  23
ATOM     23  C18 UNL     1      27.683  -9.359 -41.095  0.00  0.00    +0.000 C 
BRANCH  23  24
ATOM     24  C19 UNL     1      29.160  -9.670 -41.299  0.00  0.00    +0.000 A 
ATOM     25  C20 UNL     1      30.175  -8.894 -40.705  0.00  0.00    +0.000 A 
ATOM     26  C21 UNL     1      31.520  -9.231 -40.882  0.00  0.00    +0.000 A 
ATOM     27 CL1  UNL     1      32.773  -8.250 -40.142  0.00  0.00    +0.000 Cl
ATOM     28  C22 UNL     1      31.868 -10.348 -41.645  0.00  0.00    +0.000 A 
ATOM     29  C23 UNL     1      30.871 -11.133 -42.230  0.00  0.00    +0.000 A 
ATOM     30 CL2  UNL     1      31.308 -12.541 -43.180  0.00  0.00    +0.000 Cl
ATOM     31  C24 UNL     1      29.525 -10.799 -42.055  0.00  0.00    +0.000 A 
ENDBRANCH  23  24
BRANCH  23  32
ATOM     32  N1  UNL     1      27.190  -8.276 -41.995  0.00  0.00    +0.000 NA
ATOM     33  C25 UNL     1      26.375  -8.816 -43.119  0.00  0.00    +0.000 C 
ATOM     34  C26 UNL     1      26.276  -7.829 -44.288  0.00  0.00    +0.000 C 
ATOM     35  C27 UNL     1      27.665  -7.583 -44.914  0.00  0.00    +0.000 C 
ATOM     36  C28 UNL     1      27.705  -6.218 -45.612  0.00  0.00    +0.000 C 
ATOM     37  C29 UNL     1      28.796  -7.717 -43.867  0.00  0.00    +0.000 C 
ATOM     38  C30 UNL     1      28.297  -7.383 -42.453  0.00  0.00    +0.000 C 
ENDBRANCH  23  32
ENDBRANCH   5  23
TORSDOF 10
ENDMDL
MODEL 5
REMARK VINA RESULT:    -5.652      3.126      7.282
REMARK INTER + INTRA:          -9.538
REMARK INTER:                  -7.796
REMARK INTRA:                  -1.742
REMARK UNBOUND:                -0.912
REMARK  Name = resultss/4CJN/ligands/lig_282_t0.pdb
REMARK  11 active torsions:
REMARK  status: ('A' for Active; 'I' for Inactive)
REMARK    1  A    between atoms: C2_2  and  C3_3
REMARK    2  A    between atoms: C3_3  and  C4_4
REMARK    3  A    between atoms: C6_6  and  C7_7
REMARK    4  A    between atoms: C10_10  and  O1_11
REMARK    5  A    between atoms: C11_12  and  C12_13
REMARK    6  A    between atoms: C12_13  and  C13_14
REMARK    7  A    between atoms: C16_17  and  O2_18
REMARK    8  A    between atoms: C17_19  and  C18_20
REMARK    9  A    between atoms: C18_20  and  C19_21
REMARK   10  A    between atoms: C18_20  and  N1_29
REMARK   11  A    between atoms: C27_32  and  C28_33
REMARK                            x       y       z     vdW  Elec       q    Type
REMARK                         _______ _______ _______ _____ _____    ______ ____
ROOT
ATOM      1  C4  UNL     1      29.272 -10.151 -41.776  0.00  0.00    +0.000 A 
ATOM      2  C5  UNL     1      28.542  -9.608 -42.838  0.00  0.00    +0.000 A 
ATOM      3  C6  UNL     1      27.992  -8.321 -42.747  0.00  0.00    +0.000 A 
ATOM      4  C16 UNL     1      28.163  -7.570 -41.560  0.00  0.00    +0.000 A 
ATOM      5  C17 UNL     1      28.935  -8.098 -40.499  0.00  0.00    +0.000 A 
ATOM      6  C31 UNL     1      29.476  -9.389 -40.619  0.00  0.00    +0.000 A 
ENDROOT
BRANCH   3   7
ATOM      7  C7  UNL     1      27.281  -7.771 -43.922  0.00  0.00    +0.000 A 
ATOM      8  C8  UNL     1      28.000  -7.342 -45.047  0.00  0.00    +0.000 A 
ATOM      9  C9  UNL     1      27.326  -6.862 -46.172  0.00  0.00    +0.000 A 
ATOM     10  C10 UNL     1      25.926  -6.812 -46.191  0.00  0.00    +0.000 A 
ATOM     11  C11 UNL     1      25.193  -7.240 -45.067  0.00  0.00    +0.000 A 
ATOM     12  C15 UNL     1      25.879  -7.728 -43.942  0.00  0.00    +0.000 A 
BRANCH  10  13
ATOM     13  O1  UNL     1      25.261  -6.346 -47.326  0.00  0.00    +0.000 OA
ATOM     14  H9  UNL     1      25.443  -6.734 -48.244  0.00  0.00    +0.000 HD
ENDBRANCH  10  13
BRANCH  11  15
ATOM     15  C12 UNL     1      23.686  -7.230 -45.077  0.00  0.00    +0.000 C 
BRANCH  15  16
ATOM     16  C13 UNL     1      23.146  -6.896 -43.714  0.00  0.00    +0.000 C 
ATOM     17  C14 UNL     1      22.297  -7.708 -43.078  0.00  0.00    +0.000 C 
ENDBRANCH  15  16
ENDBRANCH  11  15
ENDBRANCH   3   7
BRANCH   4  18
ATOM     18  O2  UNL     1      27.574  -6.312 -41.414  0.00  0.00    +0.000 OA
ATOM     19  H16 UNL     1      28.034  -5.531 -40.964  0.00  0.00    +0.000 HD
ENDBRANCH   4  18
BRANCH   1  20
ATOM     20  C3  UNL     1      29.890 -11.517 -41.906  0.00  0.00    +0.000 C 
BRANCH  20  22
ATOM     21  C1  UNL     1      31.562 -12.588 -43.394  0.00  0.00    +0.000 C 
ATOM     22  C2  UNL     1      31.068 -11.477 -42.841  0.00  0.00    +0.000 C 
ENDBRANCH  20  22
ENDBRANCH   1  20
BRANCH   5  23
ATOM     23  C18 UNL     1      29.156  -7.324 -39.200  0.00  0.00    +0.000 C 
BRANCH  23  24
ATOM     24  C19 UNL     1      30.626  -7.459 -38.822  0.00  0.00    +0.000 A 
ATOM     25  C20 UNL     1      31.042  -8.203 -37.700  0.00  0.00    +0.000 A 
ATOM     26  C21 UNL     1      32.402  -8.338 -37.405  0.00  0.00    +0.000 A 
ATOM     27 CL1  UNL     1      32.906  -9.260 -36.001  0.00  0.00    +0.000 Cl
ATOM     28  C22 UNL     1      33.361  -7.741 -38.227  0.00  0.00    +0.000 A 
ATOM     29  C23 UNL     1      32.961  -7.009 -39.349  0.00  0.00    +0.000 A 
ATOM     30 CL2  UNL     1      34.165  -6.267 -40.387  0.00  0.00    +0.000 Cl
ATOM     31  C24 UNL     1      31.602  -6.873 -39.648  0.00  0.00    +0.000 A 
ENDBRANCH  23  24
BRANCH  23  32
ATOM     32  N1  UNL     1      28.236  -7.755 -38.107  0.00  0.00    +0.000 NA
ATOM     33  C25 UNL     1      27.556  -9.041 -38.428  0.00  0.00    +0.000 C 
ATOM     34  C26 UNL     1      26.288  -9.251 -37.592  0.00  0.00    +0.000 C 
ATOM     35  C27 UNL     1      25.233  -8.174 -37.924  0.00  0.00    +0.000 C 
ATOM     36  C28 UNL     1      24.277  -7.976 -36.741  0.00  0.00    +0.000 C 
ATOM     37  C29 UNL     1      25.890  -6.840 -38.350  0.00  0.00    +0.000 C 
ATOM     38  C30 UNL     1      27.281  -6.672 -37.720  0.00  0.00    +0.000 C 
ENDBRANCH  23  32
ENDBRANCH   5  23
TORSDOF 10
ENDMDL
MODEL 6
REMARK VINA RESULT:    -5.563      2.770      7.406
REMARK INTER + INTRA:          -9.401
REMARK INTER:                  -7.948
REMARK INTRA:                  -1.453
REMARK UNBOUND:                -0.912
REMARK  Name = resultss/4CJN/ligands/lig_282_t0.pdb
REMARK  11 active torsions:
REMARK  status: ('A' for Active; 'I' for Inactive)
REMARK    1  A    between atoms: C2_2  and  C3_3
REMARK    2  A    between atoms: C3_3  and  C4_4
REMARK    3  A    between atoms: C6_6  and  C7_7
REMARK    4  A    between atoms: C10_10  and  O1_11
REMARK    5  A    between atoms: C11_12  and  C12_13
REMARK    6  A    between atoms: C12_13  and  C13_14
REMARK    7  A    between atoms: C16_17  and  O2_18
REMARK    8  A    between atoms: C17_19  and  C18_20
REMARK    9  A    between atoms: C18_20  and  C19_21
REMARK   10  A    between atoms: C18_20  and  N1_29
REMARK   11  A    between atoms: C27_32  and  C28_33
REMARK                            x       y       z     vdW  Elec       q    Type
REMARK                         _______ _______ _______ _____ _____    ______ ____
ROOT
ATOM      1  C4  UNL     1      27.509 -11.127 -39.980  0.00  0.00    +0.000 A 
ATOM      2  C5  UNL     1      27.360 -10.475 -41.208  0.00  0.00    +0.000 A 
ATOM      3  C6  UNL     1      27.295  -9.076 -41.274  0.00  0.00    +0.000 A 
ATOM      4  C16 UNL     1      27.362  -8.317 -40.082  0.00  0.00    +0.000 A 
ATOM      5  C17 UNL     1      27.553  -8.968 -38.842  0.00  0.00    +0.000 A 
ATOM      6  C31 UNL     1      27.618 -10.372 -38.806  0.00  0.00    +0.000 A 
ENDROOT
BRANCH   3   7
ATOM      7  C7  UNL     1      27.199  -8.434 -42.603  0.00  0.00    +0.000 A 
ATOM      8  C8  UNL     1      28.360  -8.108 -43.317  0.00  0.00    +0.000 A 
ATOM      9  C9  UNL     1      28.269  -7.541 -44.590  0.00  0.00    +0.000 A 
ATOM     10  C10 UNL     1      27.016  -7.300 -45.169  0.00  0.00    +0.000 A 
ATOM     11  C11 UNL     1      25.842  -7.623 -44.461  0.00  0.00    +0.000 A 
ATOM     12  C15 UNL     1      25.943  -8.200 -43.185  0.00  0.00    +0.000 A 
BRANCH  10  13
ATOM     13  O1  UNL     1      26.935  -6.747 -46.448  0.00  0.00    +0.000 OA
ATOM     14  H9  UNL     1      26.784  -5.755 -46.589  0.00  0.00    +0.000 HD
ENDBRANCH  10  13
BRANCH  11  15
ATOM     15  C12 UNL     1      24.484  -7.407 -45.078  0.00  0.00    +0.000 C 
BRANCH  15  16
ATOM     16  C13 UNL     1      23.545  -6.770 -44.091  0.00  0.00    +0.000 C 
ATOM     17  C14 UNL     1      22.416  -7.374 -43.707  0.00  0.00    +0.000 C 
ENDBRANCH  15  16
ENDBRANCH  11  15
ENDBRANCH   3   7
BRANCH   4  18
ATOM     18  O2  UNL     1      27.235  -6.925 -40.108  0.00  0.00    +0.000 OA
ATOM     19  H16 UNL     1      26.949  -6.408 -40.929  0.00  0.00    +0.000 HD
ENDBRANCH   4  18
BRANCH   1  20
ATOM     20  C3  UNL     1      27.620 -12.628 -39.932  0.00  0.00    +0.000 C 
BRANCH  20  22
ATOM     21  C1  UNL     1      26.152 -14.591 -40.316  0.00  0.00    +0.000 C 
ATOM     22  C2  UNL     1      26.327 -13.267 -40.356  0.00  0.00    +0.000 C 
ENDBRANCH  20  22
ENDBRANCH   1  20
BRANCH   5  23
ATOM     23  C18 UNL     1      27.639  -8.194 -37.528  0.00  0.00    +0.000 C 
BRANCH  23  24
ATOM     24  C19 UNL     1      28.953  -8.566 -36.853  0.00  0.00    +0.000 A 
ATOM     25  C20 UNL     1      28.999  -9.078 -35.541  0.00  0.00    +0.000 A 
ATOM     26  C21 UNL     1      30.219  -9.446 -34.966  0.00  0.00    +0.000 A 
ATOM     27 CL1  UNL     1      30.261 -10.074 -33.328  0.00  0.00    +0.000 Cl
ATOM     28  C22 UNL     1      31.404  -9.317 -35.693  0.00  0.00    +0.000 A 
ATOM     29  C23 UNL     1      31.372  -8.821 -37.000  0.00  0.00    +0.000 A 
ATOM     30 CL2  UNL     1      32.859  -8.667 -37.918  0.00  0.00    +0.000 Cl
ATOM     31  C24 UNL     1      30.153  -8.452 -37.578  0.00  0.00    +0.000 A 
ENDBRANCH  23  24
BRANCH  23  32
ATOM     32  N1  UNL     1      26.454  -8.414 -36.648  0.00  0.00    +0.000 NA
ATOM     33  C25 UNL     1      25.174  -8.305 -37.403  0.00  0.00    +0.000 C 
ATOM     34  C26 UNL     1      23.979  -8.040 -36.481  0.00  0.00    +0.000 C 
ATOM     35  C27 UNL     1      24.121  -6.672 -35.782  0.00  0.00    +0.000 C 
ATOM     36  C28 UNL     1      23.334  -6.656 -34.466  0.00  0.00    +0.000 C 
ATOM     37  C29 UNL     1      25.605  -6.294 -35.559  0.00  0.00    +0.000 C 
ATOM     38  C30 UNL     1      26.490  -7.543 -35.433  0.00  0.00    +0.000 C 
ENDBRANCH  23  32
ENDBRANCH   5  23
TORSDOF 10
ENDMDL
MODEL 7
REMARK VINA RESULT:    -5.514      2.103      2.676
REMARK INTER + INTRA:          -9.327
REMARK INTER:                  -8.665
REMARK INTRA:                  -0.663
REMARK UNBOUND:                -0.912
REMARK  Name = resultss/4CJN/ligands/lig_282_t0.pdb
REMARK  11 active torsions:
REMARK  status: ('A' for Active; 'I' for Inactive)
REMARK    1  A    between atoms: C2_2  and  C3_3
REMARK    2  A    between atoms: C3_3  and  C4_4
REMARK    3  A    between atoms: C6_6  and  C7_7
REMARK    4  A    between atoms: C10_10  and  O1_11
REMARK    5  A    between atoms: C11_12  and  C12_13
REMARK    6  A    between atoms: C12_13  and  C13_14
REMARK    7  A    between atoms: C16_17  and  O2_18
REMARK    8  A    between atoms: C17_19  and  C18_20
REMARK    9  A    between atoms: C18_20  and  C19_21
REMARK   10  A    between atoms: C18_20  and  N1_29
REMARK   11  A    between atoms: C27_32  and  C28_33
REMARK                            x       y       z     vdW  Elec       q    Type
REMARK                         _______ _______ _______ _____ _____    ______ ____
ROOT
ATOM      1  C4  UNL     1      30.221  -7.568 -38.308  0.00  0.00    +0.000 A 
ATOM      2  C5  UNL     1      29.832  -7.504 -36.966  0.00  0.00    +0.000 A 
ATOM      3  C6  UNL     1      28.763  -8.276 -36.490  0.00  0.00    +0.000 A 
ATOM      4  C16 UNL     1      28.057  -9.116 -37.383  0.00  0.00    +0.000 A 
ATOM      5  C17 UNL     1      28.471  -9.216 -38.731  0.00  0.00    +0.000 A 
ATOM      6  C31 UNL     1      29.548  -8.432 -39.179  0.00  0.00    +0.000 A 
ENDROOT
BRANCH   3   7
ATOM      7  C7  UNL     1      28.432  -8.216 -35.050  0.00  0.00    +0.000 A 
ATOM      8  C8  UNL     1      29.287  -8.799 -34.103  0.00  0.00    +0.000 A 
ATOM      9  C9  UNL     1      28.996  -8.706 -32.741  0.00  0.00    +0.000 A 
ATOM     10  C10 UNL     1      27.853  -8.022 -32.305  0.00  0.00    +0.000 A 
ATOM     11  C11 UNL     1      26.988  -7.432 -33.247  0.00  0.00    +0.000 A 
ATOM     12  C15 UNL     1      27.292  -7.524 -34.615  0.00  0.00    +0.000 A 
BRANCH  10  13
ATOM     13  O1  UNL     1      27.580  -7.920 -30.941  0.00  0.00    +0.000 OA
ATOM     14  H9  UNL     1      26.800  -8.411 -30.518  0.00  0.00    +0.000 HD
ENDBRANCH  10  13
BRANCH  11  15
ATOM     15  C12 UNL     1      25.773  -6.659 -32.801  0.00  0.00    +0.000 C 
BRANCH  15  16
ATOM     16  C13 UNL     1      24.521  -7.248 -33.392  0.00  0.00    +0.000 C 
ATOM     17  C14 UNL     1      24.142  -8.501 -33.126  0.00  0.00    +0.000 C 
ENDBRANCH  15  16
ENDBRANCH  11  15
ENDBRANCH   3   7
BRANCH   4  18
ATOM     18  O2  UNL     1      26.947  -9.848 -36.955  0.00  0.00    +0.000 OA
ATOM     19  H16 UNL     1      26.767 -10.803 -37.239  0.00  0.00    +0.000 HD
ENDBRANCH   4  18
BRANCH   1  20
ATOM     20  C3  UNL     1      31.398  -6.764 -38.791  0.00  0.00    +0.000 C 
BRANCH  20  22
ATOM     21  C1  UNL     1      33.234  -8.394 -39.153  0.00  0.00    +0.000 C 
ATOM     22  C2  UNL     1      32.287  -7.603 -39.667  0.00  0.00    +0.000 C 
ENDBRANCH  20  22
ENDBRANCH   1  20
BRANCH   5  23
ATOM     23  C18 UNL     1      27.747 -10.114 -39.734  0.00  0.00    +0.000 C 
BRANCH  23  24
ATOM     24  C19 UNL     1      28.490 -10.025 -41.061  0.00  0.00    +0.000 A 
ATOM     25  C20 UNL     1      28.295  -8.952 -41.953  0.00  0.00    +0.000 A 
ATOM     26  C21 UNL     1      29.022  -8.881 -43.145  0.00  0.00    +0.000 A 
ATOM     27 CL1  UNL     1      28.763  -7.544 -44.251  0.00  0.00    +0.000 Cl
ATOM     28  C22 UNL     1      29.956  -9.872 -43.457  0.00  0.00    +0.000 A 
ATOM     29  C23 UNL     1      30.167 -10.936 -42.575  0.00  0.00    +0.000 A 
ATOM     30 CL2  UNL     1      31.346 -12.175 -42.961  0.00  0.00    +0.000 Cl
ATOM     31  C24 UNL     1      29.442 -11.009 -41.381  0.00  0.00    +0.000 A 
ENDBRANCH  23  24
BRANCH  23  32
ATOM     32  N1  UNL     1      26.296  -9.789 -39.859  0.00  0.00    +0.000 NA
ATOM     33  C25 UNL     1      25.733 -10.255 -41.158  0.00  0.00    +0.000 C 
ATOM     34  C26 UNL     1      24.431  -9.531 -41.518  0.00  0.00    +0.000 C 
ATOM     35  C27 UNL     1      24.688  -8.025 -41.738  0.00  0.00    +0.000 C 
ATOM     36  C28 UNL     1      23.408  -7.219 -41.484  0.00  0.00    +0.000 C 
ATOM     37  C29 UNL     1      25.862  -7.511 -40.871  0.00  0.00    +0.000 C 
ATOM     38  C30 UNL     1      26.021  -8.345 -39.590  0.00  0.00    +0.000 C 
ENDBRANCH  23  32
ENDBRANCH   5  23
TORSDOF 10
ENDMDL
MODEL 8
REMARK VINA RESULT:    -5.499      3.883      7.062
REMARK INTER + INTRA:          -9.305
REMARK INTER:                  -8.082
REMARK INTRA:                  -1.222
REMARK UNBOUND:                -0.912
REMARK  Name = resultss/4CJN/ligands/lig_282_t0.pdb
REMARK  11 active torsions:
REMARK  status: ('A' for Active; 'I' for Inactive)
REMARK    1  A    between atoms: C2_2  and  C3_3
REMARK    2  A    between atoms: C3_3  and  C4_4
REMARK    3  A    between atoms: C6_6  and  C7_7
REMARK    4  A    between atoms: C10_10  and  O1_11
REMARK    5  A    between atoms: C11_12  and  C12_13
REMARK    6  A    between atoms: C12_13  and  C13_14
REMARK    7  A    between atoms: C16_17  and  O2_18
REMARK    8  A    between atoms: C17_19  and  C18_20
REMARK    9  A    between atoms: C18_20  and  C19_21
REMARK   10  A    between atoms: C18_20  and  N1_29
REMARK   11  A    between atoms: C27_32  and  C28_33
REMARK                            x       y       z     vdW  Elec       q    Type
REMARK                         _______ _______ _______ _____ _____    ______ ____
ROOT
ATOM      1  C4  UNL     1      27.891 -10.297 -38.214  0.00  0.00    +0.000 A 
ATOM      2  C5  UNL     1      29.020 -10.252 -37.390  0.00  0.00    +0.000 A 
ATOM      3  C6  UNL     1      29.254  -9.152 -36.552  0.00  0.00    +0.000 A 
ATOM      4  C16 UNL     1      28.346  -8.068 -36.554  0.00  0.00    +0.000 A 
ATOM      5  C17 UNL     1      27.182  -8.126 -37.354  0.00  0.00    +0.000 A 
ATOM      6  C31 UNL     1      26.972  -9.242 -38.182  0.00  0.00    +0.000 A 
ENDROOT
BRANCH   3   7
ATOM      7  C7  UNL     1      30.431  -9.184 -35.656  0.00  0.00    +0.000 A 
ATOM      8  C8  UNL     1      31.673  -8.712 -36.103  0.00  0.00    +0.000 A 
ATOM      9  C9  UNL     1      32.774  -8.703 -35.243  0.00  0.00    +0.000 A 
ATOM     10  C10 UNL     1      32.645  -9.156 -33.924  0.00  0.00    +0.000 A 
ATOM     11  C11 UNL     1      31.402  -9.633 -33.464  0.00  0.00    +0.000 A 
ATOM     12  C15 UNL     1      30.299  -9.632 -34.333  0.00  0.00    +0.000 A 
BRANCH  10  13
ATOM     13  O1  UNL     1      33.746  -9.129 -33.068  0.00  0.00    +0.000 OA
ATOM     14  H9  UNL     1      34.622  -9.574 -33.315  0.00  0.00    +0.000 HD
ENDBRANCH  10  13
BRANCH  11  15
ATOM     15  C12 UNL     1      31.230 -10.092 -32.038  0.00  0.00    +0.000 C 
BRANCH  15  16
ATOM     16  C13 UNL     1      31.789 -11.475 -31.853  0.00  0.00    +0.000 C 
ATOM     17  C14 UNL     1      32.168 -11.924 -30.653  0.00  0.00    +0.000 C 
ENDBRANCH  15  16
ENDBRANCH  11  15
ENDBRANCH   3   7
BRANCH   4  18
ATOM     18  O2  UNL     1      28.585  -6.930 -35.779  0.00  0.00    +0.000 OA
ATOM     19  H16 UNL     1      29.486  -6.711 -35.376  0.00  0.00    +0.000 HD
ENDBRANCH   4  18
BRANCH   1  20
ATOM     20  C3  UNL     1      27.634 -11.505 -39.076  0.00  0.00    +0.000 C 
BRANCH  20  22
ATOM     21  C1  UNL     1      28.768 -10.723 -41.140  0.00  0.00    +0.000 C 
ATOM     22  C2  UNL     1      27.649 -11.127 -40.531  0.00  0.00    +0.000 C 
ENDBRANCH  20  22
ENDBRANCH   1  20
BRANCH   5  23
ATOM     23  C18 UNL     1      26.167  -6.984 -37.386  0.00  0.00    +0.000 C 
BRANCH  23  24
ATOM     24  C19 UNL     1      25.021  -7.353 -36.454  0.00  0.00    +0.000 A 
ATOM     25  C20 UNL     1      25.223  -8.125 -35.293  0.00  0.00    +0.000 A 
ATOM     26  C21 UNL     1      24.155  -8.413 -34.438  0.00  0.00    +0.000 A 
ATOM     27 CL1  UNL     1      24.420  -9.382 -33.000  0.00  0.00    +0.000 Cl
ATOM     28  C22 UNL     1      22.876  -7.930 -34.727  0.00  0.00    +0.000 A 
ATOM     29  C23 UNL     1      22.664  -7.154 -35.870  0.00  0.00    +0.000 A 
ATOM     30 CL2  UNL     1      21.061  -6.539 -36.228  0.00  0.00    +0.000 Cl
ATOM     31  C24 UNL     1      23.731  -6.863 -36.726  0.00  0.00    +0.000 A 
ENDBRANCH  23  24
BRANCH  23  32
ATOM     32  N1  UNL     1      25.707  -6.657 -38.768  0.00  0.00    +0.000 NA
ATOM     33  C25 UNL     1      25.234  -7.868 -39.496  0.00  0.00    +0.000 C 
ATOM     34  C26 UNL     1      25.224  -7.664 -41.015  0.00  0.00    +0.000 C 
ATOM     35  C27 UNL     1      26.657  -7.442 -41.545  0.00  0.00    +0.000 C 
ATOM     36  C28 UNL     1      26.627  -6.653 -42.860  0.00  0.00    +0.000 C 
ATOM     37  C29 UNL     1      27.557  -6.754 -40.491  0.00  0.00    +0.000 C 
ATOM     38  C30 UNL     1      26.733  -5.883 -39.531  0.00  0.00    +0.000 C 
ENDBRANCH  23  32
ENDBRANCH   5  23
TORSDOF 10
ENDMDL
MODEL 9
REMARK VINA RESULT:    -5.385      3.638      6.827
REMARK INTER + INTRA:          -9.130
REMARK INTER:                  -7.775
REMARK INTRA:                  -1.356
REMARK UNBOUND:                -0.912
REMARK  Name = resultss/4CJN/ligands/lig_282_t0.pdb
REMARK  11 active torsions:
REMARK  status: ('A' for Active; 'I' for Inactive)
REMARK    1  A    between atoms: C2_2  and  C3_3
REMARK    2  A    between atoms: C3_3  and  C4_4
REMARK    3  A    between atoms: C6_6  and  C7_7
REMARK    4  A    between atoms: C10_10  and  O1_11
REMARK    5  A    between atoms: C11_12  and  C12_13
REMARK    6  A    between atoms: C12_13  and  C13_14
REMARK    7  A    between atoms: C16_17  and  O2_18
REMARK    8  A    between atoms: C17_19  and  C18_20
REMARK    9  A    between atoms: C18_20  and  C19_21
REMARK   10  A    between atoms: C18_20  and  N1_29
REMARK   11  A    between atoms: C27_32  and  C28_33
REMARK                            x       y       z     vdW  Elec       q    Type
REMARK                         _______ _______ _______ _____ _____    ______ ____
ROOT
ATOM      1  C4  UNL     1      30.854  -7.127 -36.986  0.00  0.00    +0.000 A 
ATOM      2  C5  UNL     1      31.470  -7.385 -35.758  0.00  0.00    +0.000 A 
ATOM      3  C6  UNL     1      30.901  -8.285 -34.845  0.00  0.00    +0.000 A 
ATOM      4  C16 UNL     1      29.680  -8.924 -35.163  0.00  0.00    +0.000 A 
ATOM      5  C17 UNL     1      29.074  -8.697 -36.420  0.00  0.00    +0.000 A 
ATOM      6  C31 UNL     1      29.668  -7.793 -37.317  0.00  0.00    +0.000 A 
ENDROOT
BRANCH   3   7
ATOM      7  C7  UNL     1      31.626  -8.568 -33.587  0.00  0.00    +0.000 A 
ATOM      8  C8  UNL     1      31.766  -7.572 -32.611  0.00  0.00    +0.000 A 
ATOM      9  C9  UNL     1      32.414  -7.852 -31.406  0.00  0.00    +0.000 A 
ATOM     10  C10 UNL     1      32.922  -9.134 -31.157  0.00  0.00    +0.000 A 
ATOM     11  C11 UNL     1      32.787 -10.143 -32.129  0.00  0.00    +0.000 A 
ATOM     12  C15 UNL     1      32.128  -9.855 -33.336  0.00  0.00    +0.000 A 
BRANCH  10  13
ATOM     13  O1  UNL     1      33.553  -9.409 -29.943  0.00  0.00    +0.000 OA
ATOM     14  H9  UNL     1      33.024  -9.576 -29.095  0.00  0.00    +0.000 HD
ENDBRANCH  10  13
BRANCH  11  15
ATOM     15  C12 UNL     1      33.292 -11.540 -31.869  0.00  0.00    +0.000 C 
BRANCH  15  16
ATOM     16  C13 UNL     1      32.203 -12.402 -31.293  0.00  0.00    +0.000 C 
ATOM     17  C14 UNL     1      32.157 -13.718 -31.518  0.00  0.00    +0.000 C 
ENDBRANCH  15  16
ENDBRANCH  11  15
ENDBRANCH   3   7
BRANCH   4  18
ATOM     18  O2  UNL     1      29.055  -9.776 -34.248  0.00  0.00    +0.000 OA
ATOM     19  H16 UNL     1      29.143  -9.675 -33.246  0.00  0.00    +0.000 HD
ENDBRANCH   4  18
BRANCH   1  20
ATOM     20  C3  UNL     1      31.501  -6.190 -37.972  0.00  0.00    +0.000 C 
BRANCH  20  22
ATOM     21  C1  UNL     1      31.287  -6.781 -40.372  0.00  0.00    +0.000 C 
ATOM     22  C2  UNL     1      30.764  -6.211 -39.283  0.00  0.00    +0.000 C 
ENDBRANCH  20  22
ENDBRANCH   1  20
BRANCH   5  23
ATOM     23  C18 UNL     1      27.759  -9.369 -36.815  0.00  0.00    +0.000 C 
BRANCH  23  24
ATOM     24  C19 UNL     1      27.746  -9.511 -38.332  0.00  0.00    +0.000 A 
ATOM     25  C20 UNL     1      28.857 -10.005 -39.044  0.00  0.00    +0.000 A 
ATOM     26  C21 UNL     1      28.797 -10.159 -40.432  0.00  0.00    +0.000 A 
ATOM     27 CL1  UNL     1      30.191 -10.767 -41.307  0.00  0.00    +0.000 Cl
ATOM     28  C22 UNL     1      27.628  -9.831 -41.124  0.00  0.00    +0.000 A 
ATOM     29  C23 UNL     1      26.515  -9.351 -40.428  0.00  0.00    +0.000 A 
ATOM     30 CL2  UNL     1      25.045  -8.948 -41.295  0.00  0.00    +0.000 Cl
ATOM     31  C24 UNL     1      26.572  -9.196 -39.039  0.00  0.00    +0.000 A 
ENDBRANCH  23  24
BRANCH  23  32
ATOM     32  N1  UNL     1      26.562  -8.649 -36.291  0.00  0.00    +0.000 NA
ATOM     33  C25 UNL     1      26.941  -7.485 -35.441  0.00  0.00    +0.000 C 
ATOM     34  C26 UNL     1      25.798  -7.043 -34.521  0.00  0.00    +0.000 C 
ATOM     35  C27 UNL     1      25.453  -8.154 -33.507  0.00  0.00    +0.000 C 
ATOM     36  C28 UNL     1      24.001  -8.014 -33.031  0.00  0.00    +0.000 C 
ATOM     37  C29 UNL     1      25.727  -9.562 -34.085  0.00  0.00    +0.000 C 
ATOM     38  C30 UNL     1      25.603  -9.576 -35.616  0.00  0.00    +0.000 C 
ENDBRANCH  23  32
ENDBRANCH   5  23
TORSDOF 10
ENDMDL
