MODEL 1
REMARK VINA RESULT:    -5.358      0.000      0.000
REMARK INTER + INTRA:         -10.661
REMARK INTER:                  -8.803
REMARK INTRA:                  -1.858
REMARK UNBOUND:                -1.858
REMARK  Name = resultss/4CJN/ligands/lig_106_t0.pdb
REMARK  13 active torsions:
REMARK  status: ('A' for Active; 'I' for Inactive)
REMARK    1  A    between atoms: O1_1  and  C1_2
REMARK    2  A    between atoms: C1_2  and  C2_3
REMARK    3  A    between atoms: C3_4  and  O2_5
REMARK    4  A    between atoms: C4_6  and  O3_7
REMARK    5  A    between atoms: C5_8  and  O4_9
REMARK    6  A    between atoms: N1_11  and  C7_12
REMARK    7  A    between atoms: C7_12  and  C8_13
REMARK    8  A    between atoms: C8_13  and  C9_14
REMARK    9  A    between atoms: C9_14  and  C10_15
REMARK   10  A    between atoms: C10_15  and  C11_16
REMARK   11  A    between atoms: C11_16  and  O5_17
REMARK   12  A    between atoms: O5_17  and  C12_18
REMARK   13  A    between atoms: C12_18  and  C13_19
REMARK                            x       y       z     vdW  Elec       q    Type
REMARK                         _______ _______ _______ _____ _____    ______ ____
ROOT
ATOM      1  C7  UNL     1      27.664  -7.414 -39.656  0.00  0.00    +0.000 C 
ENDROOT
BRANCH   1   7
ATOM      2  C2  UNL     1      26.537  -9.463 -40.481  0.00  0.00    +0.000 C 
ATOM      3  C3  UNL     1      25.573 -10.051 -41.557  0.00  0.00    +0.000 C 
ATOM      4  C4  UNL     1      24.318  -9.183 -41.736  0.00  0.00    +0.000 C 
ATOM      5  C5  UNL     1      24.731  -7.737 -42.031  0.00  0.00    +0.000 C 
ATOM      6  C6  UNL     1      25.597  -7.223 -40.878  0.00  0.00    +0.000 C 
ATOM      7  N1  UNL     1      26.842  -8.018 -40.741  0.00  0.00    +0.000 NA
BRANCH   3   8
ATOM      8  O2  UNL     1      25.182 -11.348 -41.177  0.00  0.00    +0.000 OA
ATOM      9  H6  UNL     1      25.248 -11.392 -40.188  0.00  0.00    +0.000 HD
ENDBRANCH   3   8
BRANCH   4  10
ATOM     10  O3  UNL     1      23.493  -9.685 -42.761  0.00  0.00    +0.000 OA
ATOM     11  H8  UNL     1      22.659  -9.145 -42.771  0.00  0.00    +0.000 HD
ENDBRANCH   4  10
BRANCH   5  12
ATOM     12  O4  UNL     1      23.599  -6.922 -42.217  0.00  0.00    +0.000 OA
ATOM     13  H10 UNL     1      23.145  -7.216 -43.048  0.00  0.00    +0.000 HD
ENDBRANCH   5  12
BRANCH   2  14
ATOM     14  C1  UNL     1      27.825 -10.336 -40.481  0.00  0.00    +0.000 C 
BRANCH  14  15
ATOM     15  O1  UNL     1      27.633 -11.509 -39.730  0.00  0.00    +0.000 OA
ATOM     16  H1  UNL     1      27.078 -11.261 -38.946  0.00  0.00    +0.000 HD
ENDBRANCH  14  15
ENDBRANCH   2  14
ENDBRANCH   1   7
BRANCH   1  17
ATOM     17  C8  UNL     1      26.942  -7.494 -38.302  0.00  0.00    +0.000 C 
BRANCH  17  18
ATOM     18  C9  UNL     1      27.947  -7.696 -37.156  0.00  0.00    +0.000 C 
BRANCH  18  19
ATOM     19  C10 UNL     1      28.579  -9.097 -37.151  0.00  0.00    +0.000 C 
BRANCH  19  20
ATOM     20  C11 UNL     1      28.248  -9.926 -35.897  0.00  0.00    +0.000 C 
BRANCH  20  21
ATOM     21  O5  UNL     1      26.852 -10.082 -35.717  0.00  0.00    +0.000 OA
BRANCH  21  22
ATOM     22  C12 UNL     1      26.450  -9.795 -34.386  0.00  0.00    +0.000 C 
BRANCH  22  23
ATOM     23  C13 UNL     1      25.321  -8.737 -34.370  0.00  0.00    +0.000 C 
ATOM     24  C14 UNL     1      25.873  -7.350 -33.935  0.00  0.00    +0.000 C 
ATOM     25  C15 UNL     1      24.731  -6.309 -33.909  0.00  0.00    +0.000 C 
ATOM     26  C16 UNL     1      24.109  -6.193 -35.318  0.00  0.00    +0.000 C 
ATOM     27  C17 UNL     1      23.539  -7.563 -35.748  0.00  0.00    +0.000 C 
ATOM     28  C18 UNL     1      22.459  -8.012 -34.740  0.00  0.00    +0.000 C 
ATOM     29  C19 UNL     1      23.082  -8.129 -33.332  0.00  0.00    +0.000 C 
ATOM     30  C20 UNL     1      23.650  -6.758 -32.903  0.00  0.00    +0.000 C 
ATOM     31  C21 UNL     1      24.221  -9.171 -33.359  0.00  0.00    +0.000 C 
ATOM     32  C22 UNL     1      24.679  -8.605 -35.779  0.00  0.00    +0.000 C 
ENDBRANCH  22  23
ENDBRANCH  21  22
ENDBRANCH  20  21
ENDBRANCH  19  20
ENDBRANCH  18  19
ENDBRANCH  17  18
ENDBRANCH   1  17
TORSDOF 13
ENDMDL
MODEL 2
REMARK VINA RESULT:    -5.286      1.042      1.956
REMARK INTER + INTRA:         -10.543
REMARK INTER:                  -8.575
REMARK INTRA:                  -1.968
REMARK UNBOUND:                -1.858
REMARK  Name = resultss/4CJN/ligands/lig_106_t0.pdb
REMARK  13 active torsions:
REMARK  status: ('A' for Active; 'I' for Inactive)
REMARK    1  A    between atoms: O1_1  and  C1_2
REMARK    2  A    between atoms: C1_2  and  C2_3
REMARK    3  A    between atoms: C3_4  and  O2_5
REMARK    4  A    between atoms: C4_6  and  O3_7
REMARK    5  A    between atoms: C5_8  and  O4_9
REMARK    6  A    between atoms: N1_11  and  C7_12
REMARK    7  A    between atoms: C7_12  and  C8_13
REMARK    8  A    between atoms: C8_13  and  C9_14
REMARK    9  A    between atoms: C9_14  and  C10_15
REMARK   10  A    between atoms: C10_15  and  C11_16
REMARK   11  A    between atoms: C11_16  and  O5_17
REMARK   12  A    between atoms: O5_17  and  C12_18
REMARK   13  A    between atoms: C12_18  and  C13_19
REMARK                            x       y       z     vdW  Elec       q    Type
REMARK                         _______ _______ _______ _____ _____    ______ ____
ROOT
ATOM      1  C7  UNL     1      28.080  -6.852 -38.812  0.00  0.00    +0.000 C 
ENDROOT
BRANCH   1   7
ATOM      2  C2  UNL     1      27.933  -9.165 -39.694  0.00  0.00    +0.000 C 
ATOM      3  C3  UNL     1      27.176 -10.120 -40.669  0.00  0.00    +0.000 C 
ATOM      4  C4  UNL     1      25.652  -9.979 -40.539  0.00  0.00    +0.000 C 
ATOM      5  C5  UNL     1      25.254  -8.509 -40.715  0.00  0.00    +0.000 C 
ATOM      6  C6  UNL     1      25.978  -7.669 -39.659  0.00  0.00    +0.000 C 
ATOM      7  N1  UNL     1      27.451  -7.750 -39.819  0.00  0.00    +0.000 NA
BRANCH   3   8
ATOM      8  O2  UNL     1      27.538 -11.451 -40.395  0.00  0.00    +0.000 OA
ATOM      9  H6  UNL     1      28.458 -11.430 -40.022  0.00  0.00    +0.000 HD
ENDBRANCH   3   8
BRANCH   4  10
ATOM     10  O3  UNL     1      24.983 -10.791 -41.474  0.00  0.00    +0.000 OA
ATOM     11  H8  UNL     1      24.048 -10.910 -41.159  0.00  0.00    +0.000 HD
ENDBRANCH   4  10
BRANCH   5  12
ATOM     12  O4  UNL     1      23.859  -8.353 -40.617  0.00  0.00    +0.000 OA
ATOM     13  H10 UNL     1      23.669  -7.827 -39.798  0.00  0.00    +0.000 HD
ENDBRANCH   5  12
BRANCH   2  14
ATOM     14  C1  UNL     1      29.452  -9.288 -40.005  0.00  0.00    +0.000 C 
BRANCH  14  15
ATOM     15  O1  UNL     1      30.024 -10.353 -39.288  0.00  0.00    +0.000 OA
ATOM     16  H1  UNL     1      30.805 -10.667 -39.813  0.00  0.00    +0.000 HD
ENDBRANCH  14  15
ENDBRANCH   2  14
ENDBRANCH   1   7
BRANCH   1  17
ATOM     17  C8  UNL     1      27.733  -7.292 -37.381  0.00  0.00    +0.000 C 
BRANCH  17  18
ATOM     18  C9  UNL     1      29.006  -7.621 -36.585  0.00  0.00    +0.000 C 
BRANCH  18  19
ATOM     19  C10 UNL     1      28.799  -8.741 -35.554  0.00  0.00    +0.000 C 
BRANCH  19  20
ATOM     20  C11 UNL     1      28.099  -9.990 -36.121  0.00  0.00    +0.000 C 
BRANCH  20  21
ATOM     21  O5  UNL     1      26.779 -10.128 -35.627  0.00  0.00    +0.000 OA
BRANCH  21  22
ATOM     22  C12 UNL     1      26.617  -9.514 -34.358  0.00  0.00    +0.000 C 
BRANCH  22  23
ATOM     23  C13 UNL     1      25.377  -8.589 -34.350  0.00  0.00    +0.000 C 
ATOM     24  C14 UNL     1      24.741  -8.509 -35.767  0.00  0.00    +0.000 C 
ATOM     25  C15 UNL     1      23.514  -7.570 -35.745  0.00  0.00    +0.000 C 
ATOM     26  C16 UNL     1      22.468  -8.113 -34.745  0.00  0.00    +0.000 C 
ATOM     27  C17 UNL     1      23.086  -8.176 -33.331  0.00  0.00    +0.000 C 
ATOM     28  C18 UNL     1      23.530  -6.762 -32.898  0.00  0.00    +0.000 C 
ATOM     29  C19 UNL     1      24.577  -6.220 -33.897  0.00  0.00    +0.000 C 
ATOM     30  C20 UNL     1      23.956  -6.156 -35.310  0.00  0.00    +0.000 C 
ATOM     31  C21 UNL     1      25.803  -7.157 -33.916  0.00  0.00    +0.000 C 
ATOM     32  C22 UNL     1      24.311  -9.117 -33.348  0.00  0.00    +0.000 C 
ENDBRANCH  22  23
ENDBRANCH  21  22
ENDBRANCH  20  21
ENDBRANCH  19  20
ENDBRANCH  18  19
ENDBRANCH  17  18
ENDBRANCH   1  17
TORSDOF 13
ENDMDL
MODEL 3
REMARK VINA RESULT:    -5.118      2.090      4.624
REMARK INTER + INTRA:         -10.266
REMARK INTER:                  -8.510
REMARK INTRA:                  -1.756
REMARK UNBOUND:                -1.858
REMARK  Name = resultss/4CJN/ligands/lig_106_t0.pdb
REMARK  13 active torsions:
REMARK  status: ('A' for Active; 'I' for Inactive)
REMARK    1  A    between atoms: O1_1  and  C1_2
REMARK    2  A    between atoms: C1_2  and  C2_3
REMARK    3  A    between atoms: C3_4  and  O2_5
REMARK    4  A    between atoms: C4_6  and  O3_7
REMARK    5  A    between atoms: C5_8  and  O4_9
REMARK    6  A    between atoms: N1_11  and  C7_12
REMARK    7  A    between atoms: C7_12  and  C8_13
REMARK    8  A    between atoms: C8_13  and  C9_14
REMARK    9  A    between atoms: C9_14  and  C10_15
REMARK   10  A    between atoms: C10_15  and  C11_16
REMARK   11  A    between atoms: C11_16  and  O5_17
REMARK   12  A    between atoms: O5_17  and  C12_18
REMARK   13  A    between atoms: C12_18  and  C13_19
REMARK                            x       y       z     vdW  Elec       q    Type
REMARK                         _______ _______ _______ _____ _____    ______ ____
ROOT
ATOM      1  C7  UNL     1      24.885  -8.031 -38.406  0.00  0.00    +0.000 C 
ENDROOT
BRANCH   1   7
ATOM      2  C2  UNL     1      25.944  -8.900 -40.474  0.00  0.00    +0.000 C 
ATOM      3  C3  UNL     1      26.862 -10.008 -41.076  0.00  0.00    +0.000 C 
ATOM      4  C4  UNL     1      28.128 -10.222 -40.233  0.00  0.00    +0.000 C 
ATOM      5  C5  UNL     1      27.737 -10.497 -38.777  0.00  0.00    +0.000 C 
ATOM      6  C6  UNL     1      26.917  -9.316 -38.251  0.00  0.00    +0.000 C 
ATOM      7  N1  UNL     1      25.660  -9.144 -39.022  0.00  0.00    +0.000 NA
BRANCH   3   8
ATOM      8  O2  UNL     1      27.237  -9.646 -42.383  0.00  0.00    +0.000 OA
ATOM      9  H6  UNL     1      27.493  -8.687 -42.355  0.00  0.00    +0.000 HD
ENDBRANCH   3   8
BRANCH   4  10
ATOM     10  O3  UNL     1      28.911 -11.273 -40.746  0.00  0.00    +0.000 OA
ATOM     11  H8  UNL     1      28.582 -12.121 -40.345  0.00  0.00    +0.000 HD
ENDBRANCH   4  10
BRANCH   5  12
ATOM     12  O4  UNL     1      28.879 -10.714 -37.984  0.00  0.00    +0.000 OA
ATOM     13  H10 UNL     1      29.619 -10.987 -38.586  0.00  0.00    +0.000 HD
ENDBRANCH   5  12
BRANCH   2  14
ATOM     14  C1  UNL     1      24.639  -8.864 -41.320  0.00  0.00    +0.000 C 
BRANCH  14  15
ATOM     15  O1  UNL     1      24.430 -10.093 -41.970  0.00  0.00    +0.000 OA
ATOM     16  H1  UNL     1      25.196 -10.677 -41.732  0.00  0.00    +0.000 HD
ENDBRANCH  14  15
ENDBRANCH   2  14
ENDBRANCH   1   7
BRANCH   1  17
ATOM     17  C8  UNL     1      24.818  -8.180 -36.878  0.00  0.00    +0.000 C 
BRANCH  17  18
ATOM     18  C9  UNL     1      23.517  -7.575 -36.326  0.00  0.00    +0.000 C 
BRANCH  18  19
ATOM     19  C10 UNL     1      23.156  -8.102 -34.927  0.00  0.00    +0.000 C 
BRANCH  19  20
ATOM     20  C11 UNL     1      23.435  -7.100 -33.792  0.00  0.00    +0.000 C 
BRANCH  20  21
ATOM     21  O5  UNL     1      24.818  -7.001 -33.501  0.00  0.00    +0.000 OA
BRANCH  21  22
ATOM     22  C12 UNL     1      25.403  -8.268 -33.245  0.00  0.00    +0.000 C 
BRANCH  22  23
ATOM     23  C13 UNL     1      26.921  -8.242 -33.540  0.00  0.00    +0.000 C 
ATOM     24  C14 UNL     1      27.284  -7.033 -34.448  0.00  0.00    +0.000 C 
ATOM     25  C15 UNL     1      28.801  -7.029 -34.745  0.00  0.00    +0.000 C 
ATOM     26  C16 UNL     1      29.585  -6.926 -33.418  0.00  0.00    +0.000 C 
ATOM     27  C17 UNL     1      29.245  -8.135 -32.519  0.00  0.00    +0.000 C 
ATOM     28  C18 UNL     1      29.628  -9.443 -33.246  0.00  0.00    +0.000 C 
ATOM     29  C19 UNL     1      28.843  -9.546 -34.572  0.00  0.00    +0.000 C 
ATOM     30  C20 UNL     1      29.185  -8.337 -35.470  0.00  0.00    +0.000 C 
ATOM     31  C21 UNL     1      27.328  -9.552 -34.274  0.00  0.00    +0.000 C 
ATOM     32  C22 UNL     1      27.730  -8.139 -32.217  0.00  0.00    +0.000 C 
ENDBRANCH  22  23
ENDBRANCH  21  22
ENDBRANCH  20  21
ENDBRANCH  19  20
ENDBRANCH  18  19
ENDBRANCH  17  18
ENDBRANCH   1  17
TORSDOF 13
ENDMDL
MODEL 4
REMARK VINA RESULT:    -5.022      5.924      9.443
REMARK INTER + INTRA:         -10.110
REMARK INTER:                  -9.173
REMARK INTRA:                  -0.937
REMARK UNBOUND:                -1.858
REMARK  Name = resultss/4CJN/ligands/lig_106_t0.pdb
REMARK  13 active torsions:
REMARK  status: ('A' for Active; 'I' for Inactive)
REMARK    1  A    between atoms: O1_1  and  C1_2
REMARK    2  A    between atoms: C1_2  and  C2_3
REMARK    3  A    between atoms: C3_4  and  O2_5
REMARK    4  A    between atoms: C4_6  and  O3_7
REMARK    5  A    between atoms: C5_8  and  O4_9
REMARK    6  A    between atoms: N1_11  and  C7_12
REMARK    7  A    between atoms: C7_12  and  C8_13
REMARK    8  A    between atoms: C8_13  and  C9_14
REMARK    9  A    between atoms: C9_14  and  C10_15
REMARK   10  A    between atoms: C10_15  and  C11_16
REMARK   11  A    between atoms: C11_16  and  O5_17
REMARK   12  A    between atoms: O5_17  and  C12_18
REMARK   13  A    between atoms: C12_18  and  C13_19
REMARK                            x       y       z     vdW  Elec       q    Type
REMARK                         _______ _______ _______ _____ _____    ______ ____
ROOT
ATOM      1  C7  UNL     1      26.183  -7.417 -43.490  0.00  0.00    +0.000 C 
ENDROOT
BRANCH   1   7
ATOM      2  C2  UNL     1      25.880  -7.272 -45.947  0.00  0.00    +0.000 C 
ATOM      3  C3  UNL     1      24.909  -6.861 -47.098  0.00  0.00    +0.000 C 
ATOM      4  C4  UNL     1      23.488  -7.397 -46.866  0.00  0.00    +0.000 C 
ATOM      5  C5  UNL     1      22.993  -6.961 -45.483  0.00  0.00    +0.000 C 
ATOM      6  C6  UNL     1      23.961  -7.487 -44.420  0.00  0.00    +0.000 C 
ATOM      7  N1  UNL     1      25.322  -6.923 -44.600  0.00  0.00    +0.000 NA
BRANCH   3   8
ATOM      8  O2  UNL     1      25.394  -7.361 -48.320  0.00  0.00    +0.000 OA
ATOM      9  H6  UNL     1      26.156  -6.784 -48.588  0.00  0.00    +0.000 HD
ENDBRANCH   3   8
BRANCH   4  10
ATOM     10  O3  UNL     1      22.607  -6.958 -47.872  0.00  0.00    +0.000 OA
ATOM     11  H8  UNL     1      23.113  -6.353 -48.476  0.00  0.00    +0.000 HD
ENDBRANCH   4  10
BRANCH   5  12
ATOM     12  O4  UNL     1      21.685  -7.425 -45.251  0.00  0.00    +0.000 OA
ATOM     13  H10 UNL     1      21.588  -8.301 -45.706  0.00  0.00    +0.000 HD
ENDBRANCH   5  12
BRANCH   2  14
ATOM     14  C1  UNL     1      27.242  -6.567 -46.211  0.00  0.00    +0.000 C 
BRANCH  14  15
ATOM     15  O1  UNL     1      28.076  -7.372 -47.006  0.00  0.00    +0.000 OA
ATOM     16  H1  UNL     1      28.702  -7.834 -46.390  0.00  0.00    +0.000 HD
ENDBRANCH  14  15
ENDBRANCH   2  14
ENDBRANCH   1   7
BRANCH   1  17
ATOM     17  C8  UNL     1      26.255  -8.952 -43.485  0.00  0.00    +0.000 C 
BRANCH  17  18
ATOM     18  C9  UNL     1      26.534  -9.482 -42.069  0.00  0.00    +0.000 C 
BRANCH  18  19
ATOM     19  C10 UNL     1      28.010  -9.353 -41.659  0.00  0.00    +0.000 C 
BRANCH  19  20
ATOM     20  C11 UNL     1      28.574 -10.602 -40.958  0.00  0.00    +0.000 C 
BRANCH  20  21
ATOM     21  O5  UNL     1      29.608 -11.211 -41.711  0.00  0.00    +0.000 OA
BRANCH  21  22
ATOM     22  C12 UNL     1      30.536 -10.261 -42.211  0.00  0.00    +0.000 C 
BRANCH  22  23
ATOM     23  C13 UNL     1      31.713 -10.966 -42.926  0.00  0.00    +0.000 C 
ATOM     24  C14 UNL     1      33.051 -10.695 -42.181  0.00  0.00    +0.000 C 
ATOM     25  C15 UNL     1      34.217 -11.394 -42.915  0.00  0.00    +0.000 C 
ATOM     26  C16 UNL     1      33.958 -12.916 -42.964  0.00  0.00    +0.000 C 
ATOM     27  C17 UNL     1      32.641 -13.193 -43.721  0.00  0.00    +0.000 C 
ATOM     28  C18 UNL     1      32.745 -12.640 -45.159  0.00  0.00    +0.000 C 
ATOM     29  C19 UNL     1      33.003 -11.118 -45.110  0.00  0.00    +0.000 C 
ATOM     30  C20 UNL     1      34.322 -10.842 -44.353  0.00  0.00    +0.000 C 
ATOM     31  C21 UNL     1      31.836 -10.421 -44.378  0.00  0.00    +0.000 C 
ATOM     32  C22 UNL     1      31.471 -12.500 -42.987  0.00  0.00    +0.000 C 
ENDBRANCH  22  23
ENDBRANCH  21  22
ENDBRANCH  20  21
ENDBRANCH  19  20
ENDBRANCH  18  19
ENDBRANCH  17  18
ENDBRANCH   1  17
TORSDOF 13
ENDMDL
MODEL 5
REMARK VINA RESULT:    -4.847      2.789      7.055
REMARK INTER + INTRA:          -9.822
REMARK INTER:                  -8.309
REMARK INTRA:                  -1.512
REMARK UNBOUND:                -1.858
REMARK  Name = resultss/4CJN/ligands/lig_106_t0.pdb
REMARK  13 active torsions:
REMARK  status: ('A' for Active; 'I' for Inactive)
REMARK    1  A    between atoms: O1_1  and  C1_2
REMARK    2  A    between atoms: C1_2  and  C2_3
REMARK    3  A    between atoms: C3_4  and  O2_5
REMARK    4  A    between atoms: C4_6  and  O3_7
REMARK    5  A    between atoms: C5_8  and  O4_9
REMARK    6  A    between atoms: N1_11  and  C7_12
REMARK    7  A    between atoms: C7_12  and  C8_13
REMARK    8  A    between atoms: C8_13  and  C9_14
REMARK    9  A    between atoms: C9_14  and  C10_15
REMARK   10  A    between atoms: C10_15  and  C11_16
REMARK   11  A    between atoms: C11_16  and  O5_17
REMARK   12  A    between atoms: O5_17  and  C12_18
REMARK   13  A    between atoms: C12_18  and  C13_19
REMARK                            x       y       z     vdW  Elec       q    Type
REMARK                         _______ _______ _______ _____ _____    ______ ____
ROOT
ATOM      1  C7  UNL     1      26.115  -9.878 -34.706  0.00  0.00    +0.000 C 
ENDROOT
BRANCH   1   7
ATOM      2  C2  UNL     1      24.448  -8.458 -35.871  0.00  0.00    +0.000 C 
ATOM      3  C3  UNL     1      23.549  -7.188 -35.766  0.00  0.00    +0.000 C 
ATOM      4  C4  UNL     1      22.793  -7.131 -34.429  0.00  0.00    +0.000 C 
ATOM      5  C5  UNL     1      23.788  -7.256 -33.271  0.00  0.00    +0.000 C 
ATOM      6  C6  UNL     1      24.556  -8.572 -33.415  0.00  0.00    +0.000 C 
ATOM      7  N1  UNL     1      25.339  -8.607 -34.674  0.00  0.00    +0.000 NA
BRANCH   3   8
ATOM      8  O2  UNL     1      22.617  -7.185 -36.820  0.00  0.00    +0.000 OA
ATOM      9  H6  UNL     1      21.994  -7.941 -36.657  0.00  0.00    +0.000 HD
ENDBRANCH   3   8
BRANCH   4  10
ATOM     10  O3  UNL     1      22.043  -5.945 -34.318  0.00  0.00    +0.000 OA
ATOM     11  H8  UNL     1      22.415  -5.288 -34.964  0.00  0.00    +0.000 HD
ENDBRANCH   4  10
BRANCH   5  12
ATOM     12  O4  UNL     1      23.123  -7.190 -32.032  0.00  0.00    +0.000 OA
ATOM     13  H10 UNL     1      22.147  -7.175 -32.211  0.00  0.00    +0.000 HD
ENDBRANCH   5  12
BRANCH   2  14
ATOM     14  C1  UNL     1      25.265  -8.345 -37.190  0.00  0.00    +0.000 C 
BRANCH  14  15
ATOM     15  O1  UNL     1      24.497  -8.762 -38.291  0.00  0.00    +0.000 OA
ATOM     16  H1  UNL     1      25.132  -8.950 -39.030  0.00  0.00    +0.000 HD
ENDBRANCH  14  15
ENDBRANCH   2  14
ENDBRANCH   1   7
BRANCH   1  17
ATOM     17  C8  UNL     1      27.603  -9.627 -34.414  0.00  0.00    +0.000 C 
BRANCH  17  18
ATOM     18  C9  UNL     1      28.446  -9.793 -35.689  0.00  0.00    +0.000 C 
BRANCH  18  19
ATOM     19  C10 UNL     1      29.720  -8.933 -35.684  0.00  0.00    +0.000 C 
BRANCH  19  20
ATOM     20  C11 UNL     1      29.580  -7.605 -36.450  0.00  0.00    +0.000 C 
BRANCH  20  21
ATOM     21  O5  UNL     1      28.695  -7.718 -37.550  0.00  0.00    +0.000 OA
BRANCH  21  22
ATOM     22  C12 UNL     1      29.362  -7.546 -38.791  0.00  0.00    +0.000 C 
BRANCH  22  23
ATOM     23  C13 UNL     1      28.824  -8.542 -39.846  0.00  0.00    +0.000 C 
ATOM     24  C14 UNL     1      29.744  -8.565 -41.099  0.00  0.00    +0.000 C 
ATOM     25  C15 UNL     1      29.185  -9.552 -42.149  0.00  0.00    +0.000 C 
ATOM     26  C16 UNL     1      29.117 -10.970 -41.537  0.00  0.00    +0.000 C 
ATOM     27  C17 UNL     1      28.187 -10.958 -40.304  0.00  0.00    +0.000 C 
ATOM     28  C18 UNL     1      26.772 -10.509 -40.728  0.00  0.00    +0.000 C 
ATOM     29  C19 UNL     1      26.841  -9.091 -41.337  0.00  0.00    +0.000 C 
ATOM     30  C20 UNL     1      27.769  -9.105 -42.572  0.00  0.00    +0.000 C 
ATOM     31  C21 UNL     1      27.397  -8.106 -40.287  0.00  0.00    +0.000 C 
ATOM     32  C22 UNL     1      28.746  -9.975 -39.250  0.00  0.00    +0.000 C 
ENDBRANCH  22  23
ENDBRANCH  21  22
ENDBRANCH  20  21
ENDBRANCH  19  20
ENDBRANCH  18  19
ENDBRANCH  17  18
ENDBRANCH   1  17
TORSDOF 13
ENDMDL
MODEL 6
REMARK VINA RESULT:    -4.809      2.627      7.039
REMARK INTER + INTRA:          -9.759
REMARK INTER:                  -8.053
REMARK INTRA:                  -1.706
REMARK UNBOUND:                -1.858
REMARK  Name = resultss/4CJN/ligands/lig_106_t0.pdb
REMARK  13 active torsions:
REMARK  status: ('A' for Active; 'I' for Inactive)
REMARK    1  A    between atoms: O1_1  and  C1_2
REMARK    2  A    between atoms: C1_2  and  C2_3
REMARK    3  A    between atoms: C3_4  and  O2_5
REMARK    4  A    between atoms: C4_6  and  O3_7
REMARK    5  A    between atoms: C5_8  and  O4_9
REMARK    6  A    between atoms: N1_11  and  C7_12
REMARK    7  A    between atoms: C7_12  and  C8_13
REMARK    8  A    between atoms: C8_13  and  C9_14
REMARK    9  A    between atoms: C9_14  and  C10_15
REMARK   10  A    between atoms: C10_15  and  C11_16
REMARK   11  A    between atoms: C11_16  and  O5_17
REMARK   12  A    between atoms: O5_17  and  C12_18
REMARK   13  A    between atoms: C12_18  and  C13_19
REMARK                            x       y       z     vdW  Elec       q    Type
REMARK                         _______ _______ _______ _____ _____    ______ ____
ROOT
ATOM      1  C7  UNL     1      27.333  -8.260 -36.714  0.00  0.00    +0.000 C 
ENDROOT
BRANCH   1   7
ATOM      2  C2  UNL     1      25.012  -8.316 -35.841  0.00  0.00    +0.000 C 
ATOM      3  C3  UNL     1      24.018  -7.713 -34.801  0.00  0.00    +0.000 C 
ATOM      4  C4  UNL     1      24.637  -7.637 -33.397  0.00  0.00    +0.000 C 
ATOM      5  C5  UNL     1      25.966  -6.878 -33.461  0.00  0.00    +0.000 C 
ATOM      6  C6  UNL     1      26.902  -7.596 -34.438  0.00  0.00    +0.000 C 
ATOM      7  N1  UNL     1      26.338  -7.617 -35.810  0.00  0.00    +0.000 NA
BRANCH   3   8
ATOM      8  O2  UNL     1      22.858  -8.507 -34.747  0.00  0.00    +0.000 OA
ATOM      9  H6  UNL     1      22.156  -8.030 -35.264  0.00  0.00    +0.000 HD
ENDBRANCH   3   8
BRANCH   4  10
ATOM     10  O3  UNL     1      23.757  -7.025 -32.484  0.00  0.00    +0.000 OA
ATOM     11  H8  UNL     1      22.941  -7.589 -32.423  0.00  0.00    +0.000 HD
ENDBRANCH   4  10
BRANCH   5  12
ATOM     12  O4  UNL     1      26.548  -6.779 -32.183  0.00  0.00    +0.000 OA
ATOM     13  H10 UNL     1      27.471  -7.139 -32.241  0.00  0.00    +0.000 HD
ENDBRANCH   5  12
BRANCH   2  14
ATOM     14  C1  UNL     1      24.339  -8.219 -37.241  0.00  0.00    +0.000 C 
BRANCH  14  15
ATOM     15  O1  UNL     1      23.458  -7.125 -37.297  0.00  0.00    +0.000 OA
ATOM     16  H1  UNL     1      23.913  -6.366 -36.848  0.00  0.00    +0.000 HD
ENDBRANCH  14  15
ENDBRANCH   2  14
ENDBRANCH   1   7
BRANCH   1  17
ATOM     17  C8  UNL     1      27.611  -9.710 -36.290  0.00  0.00    +0.000 C 
BRANCH  17  18
ATOM     18  C9  UNL     1      28.794 -10.294 -37.080  0.00  0.00    +0.000 C 
BRANCH  18  19
ATOM     19  C10 UNL     1      29.784  -9.220 -37.560  0.00  0.00    +0.000 C 
BRANCH  19  20
ATOM     20  C11 UNL     1      30.794  -9.726 -38.607  0.00  0.00    +0.000 C 
BRANCH  20  21
ATOM     21  O5  UNL     1      30.497  -9.245 -39.905  0.00  0.00    +0.000 OA
BRANCH  21  22
ATOM     22  C12 UNL     1      29.696 -10.155 -40.642  0.00  0.00    +0.000 C 
BRANCH  22  23
ATOM     23  C13 UNL     1      28.387  -9.478 -41.112  0.00  0.00    +0.000 C 
ATOM     24  C14 UNL     1      28.400  -7.960 -40.774  0.00  0.00    +0.000 C 
ATOM     25  C15 UNL     1      27.081  -7.302 -41.236  0.00  0.00    +0.000 C 
ATOM     26  C16 UNL     1      26.921  -7.484 -42.762  0.00  0.00    +0.000 C 
ATOM     27  C17 UNL     1      26.886  -8.990 -43.103  0.00  0.00    +0.000 C 
ATOM     28  C18 UNL     1      25.698  -9.656 -42.375  0.00  0.00    +0.000 C 
ATOM     29  C19 UNL     1      25.859  -9.475 -40.849  0.00  0.00    +0.000 C 
ATOM     30  C20 UNL     1      25.893  -7.968 -40.510  0.00  0.00    +0.000 C 
ATOM     31  C21 UNL     1      27.176 -10.135 -40.389  0.00  0.00    +0.000 C 
ATOM     32  C22 UNL     1      28.205  -9.651 -42.646  0.00  0.00    +0.000 C 
ENDBRANCH  22  23
ENDBRANCH  21  22
ENDBRANCH  20  21
ENDBRANCH  19  20
ENDBRANCH  18  19
ENDBRANCH  17  18
ENDBRANCH   1  17
TORSDOF 13
ENDMDL
MODEL 7
REMARK VINA RESULT:    -4.729      1.696      2.826
REMARK INTER + INTRA:          -9.628
REMARK INTER:                  -8.418
REMARK INTRA:                  -1.210
REMARK UNBOUND:                -1.858
REMARK  Name = resultss/4CJN/ligands/lig_106_t0.pdb
REMARK  13 active torsions:
REMARK  status: ('A' for Active; 'I' for Inactive)
REMARK    1  A    between atoms: O1_1  and  C1_2
REMARK    2  A    between atoms: C1_2  and  C2_3
REMARK    3  A    between atoms: C3_4  and  O2_5
REMARK    4  A    between atoms: C4_6  and  O3_7
REMARK    5  A    between atoms: C5_8  and  O4_9
REMARK    6  A    between atoms: N1_11  and  C7_12
REMARK    7  A    between atoms: C7_12  and  C8_13
REMARK    8  A    between atoms: C8_13  and  C9_14
REMARK    9  A    between atoms: C9_14  and  C10_15
REMARK   10  A    between atoms: C10_15  and  C11_16
REMARK   11  A    between atoms: C11_16  and  O5_17
REMARK   12  A    between atoms: O5_17  and  C12_18
REMARK   13  A    between atoms: C12_18  and  C13_19
REMARK                            x       y       z     vdW  Elec       q    Type
REMARK                         _______ _______ _______ _____ _____    ______ ____
ROOT
ATOM      1  C7  UNL     1      27.626  -8.679 -40.473  0.00  0.00    +0.000 C 
ENDROOT
BRANCH   1   7
ATOM      2  C2  UNL     1      27.067  -7.584 -42.627  0.00  0.00    +0.000 C 
ATOM      3  C3  UNL     1      25.921  -7.218 -43.620  0.00  0.00    +0.000 C 
ATOM      4  C4  UNL     1      24.993  -8.413 -43.886  0.00  0.00    +0.000 C 
ATOM      5  C5  UNL     1      24.474  -8.969 -42.556  0.00  0.00    +0.000 C 
ATOM      6  C6  UNL     1      25.669  -9.380 -41.691  0.00  0.00    +0.000 C 
ATOM      7  N1  UNL     1      26.535  -8.218 -41.376  0.00  0.00    +0.000 NA
BRANCH   3   8
ATOM      8  O2  UNL     1      26.477  -6.789 -44.839  0.00  0.00    +0.000 OA
ATOM      9  H6  UNL     1      25.864  -7.093 -45.559  0.00  0.00    +0.000 HD
ENDBRANCH   3   8
BRANCH   4  10
ATOM     10  O3  UNL     1      23.922  -8.050 -44.725  0.00  0.00    +0.000 OA
ATOM     11  H8  UNL     1      23.861  -8.727 -45.451  0.00  0.00    +0.000 HD
ENDBRANCH   4  10
BRANCH   5  12
ATOM     12  O4  UNL     1      23.607 -10.056 -42.772  0.00  0.00    +0.000 OA
ATOM     13  H10 UNL     1      24.109 -10.889 -42.576  0.00  0.00    +0.000 HD
ENDBRANCH   5  12
BRANCH   2  14
ATOM     14  C1  UNL     1      27.856  -6.277 -42.323  0.00  0.00    +0.000 C 
BRANCH  14  15
ATOM     15  O1  UNL     1      28.640  -5.899 -43.427  0.00  0.00    +0.000 OA
ATOM     16  H1  UNL     1      29.271  -5.204 -43.106  0.00  0.00    +0.000 HD
ENDBRANCH  14  15
ENDBRANCH   2  14
ENDBRANCH   1   7
BRANCH   1  17
ATOM     17  C8  UNL     1      27.280  -8.407 -39.001  0.00  0.00    +0.000 C 
BRANCH  17  18
ATOM     18  C9  UNL     1      27.544  -9.651 -38.137  0.00  0.00    +0.000 C 
BRANCH  18  19
ATOM     19  C10 UNL     1      28.548  -9.393 -37.003  0.00  0.00    +0.000 C 
BRANCH  19  20
ATOM     20  C11 UNL     1      28.099  -9.939 -35.635  0.00  0.00    +0.000 C 
BRANCH  20  21
ATOM     21  O5  UNL     1      26.708 -10.204 -35.601  0.00  0.00    +0.000 OA
BRANCH  21  22
ATOM     22  C12 UNL     1      26.148  -9.954 -34.321  0.00  0.00    +0.000 C 
BRANCH  22  23
ATOM     23  C13 UNL     1      25.184  -8.745 -34.369  0.00  0.00    +0.000 C 
ATOM     24  C14 UNL     1      23.903  -9.029 -33.533  0.00  0.00    +0.000 C 
ATOM     25  C15 UNL     1      22.945  -7.819 -33.604  0.00  0.00    +0.000 C 
ATOM     26  C16 UNL     1      23.655  -6.567 -33.043  0.00  0.00    +0.000 C 
ATOM     27  C17 UNL     1      24.916  -6.267 -33.882  0.00  0.00    +0.000 C 
ATOM     28  C18 UNL     1      24.512  -6.018 -35.351  0.00  0.00    +0.000 C 
ATOM     29  C19 UNL     1      23.804  -7.271 -35.912  0.00  0.00    +0.000 C 
ATOM     30  C20 UNL     1      22.542  -7.569 -35.073  0.00  0.00    +0.000 C 
ATOM     31  C21 UNL     1      24.764  -8.478 -35.843  0.00  0.00    +0.000 C 
ATOM     32  C22 UNL     1      25.879  -7.473 -33.810  0.00  0.00    +0.000 C 
ENDBRANCH  22  23
ENDBRANCH  21  22
ENDBRANCH  20  21
ENDBRANCH  19  20
ENDBRANCH  18  19
ENDBRANCH  17  18
ENDBRANCH   1  17
TORSDOF 13
ENDMDL
MODEL 8
REMARK VINA RESULT:    -4.671      1.999      3.912
REMARK INTER + INTRA:          -9.533
REMARK INTER:                  -7.713
REMARK INTRA:                  -1.820
REMARK UNBOUND:                -1.858
REMARK  Name = resultss/4CJN/ligands/lig_106_t0.pdb
REMARK  13 active torsions:
REMARK  status: ('A' for Active; 'I' for Inactive)
REMARK    1  A    between atoms: O1_1  and  C1_2
REMARK    2  A    between atoms: C1_2  and  C2_3
REMARK    3  A    between atoms: C3_4  and  O2_5
REMARK    4  A    between atoms: C4_6  and  O3_7
REMARK    5  A    between atoms: C5_8  and  O4_9
REMARK    6  A    between atoms: N1_11  and  C7_12
REMARK    7  A    between atoms: C7_12  and  C8_13
REMARK    8  A    between atoms: C8_13  and  C9_14
REMARK    9  A    between atoms: C9_14  and  C10_15
REMARK   10  A    between atoms: C10_15  and  C11_16
REMARK   11  A    between atoms: C11_16  and  O5_17
REMARK   12  A    between atoms: O5_17  and  C12_18
REMARK   13  A    between atoms: C12_18  and  C13_19
REMARK                            x       y       z     vdW  Elec       q    Type
REMARK                         _______ _______ _______ _____ _____    ______ ____
ROOT
ATOM      1  C7  UNL     1      26.040  -7.623 -37.667  0.00  0.00    +0.000 C 
ENDROOT
BRANCH   1   7
ATOM      2  C2  UNL     1      26.461  -9.524 -39.203  0.00  0.00    +0.000 C 
ATOM      3  C3  UNL     1      26.423 -10.007 -40.686  0.00  0.00    +0.000 C 
ATOM      4  C4  UNL     1      25.104  -9.628 -41.376  0.00  0.00    +0.000 C 
ATOM      5  C5  UNL     1      24.864  -8.121 -41.233  0.00  0.00    +0.000 C 
ATOM      6  C6  UNL     1      24.830  -7.762 -39.745  0.00  0.00    +0.000 C 
ATOM      7  N1  UNL     1      26.124  -8.068 -39.086  0.00  0.00    +0.000 NA
BRANCH   3   8
ATOM      8  O2  UNL     1      26.575 -11.405 -40.726  0.00  0.00    +0.000 OA
ATOM      9  H6  UNL     1      27.550 -11.589 -40.768  0.00  0.00    +0.000 HD
ENDBRANCH   3   8
BRANCH   4  10
ATOM     10  O3  UNL     1      25.112 -10.005 -42.733  0.00  0.00    +0.000 OA
ATOM     11  H8  UNL     1      25.877 -10.624 -42.872  0.00  0.00    +0.000 HD
ENDBRANCH   4  10
BRANCH   5  12
ATOM     12  O4  UNL     1      23.669  -7.742 -41.873  0.00  0.00    +0.000 OA
ATOM     13  H10 UNL     1      23.795  -6.827 -42.236  0.00  0.00    +0.000 HD
ENDBRANCH   5  12
BRANCH   2  14
ATOM     14  C1  UNL     1      27.881  -9.835 -38.647  0.00  0.00    +0.000 C 
BRANCH  14  15
ATOM     15  O1  UNL     1      27.936 -11.137 -38.118  0.00  0.00    +0.000 OA
ATOM     16  H1  UNL     1      28.858 -11.268 -37.774  0.00  0.00    +0.000 HD
ENDBRANCH  14  15
ENDBRANCH   2  14
ENDBRANCH   1   7
BRANCH   1  17
ATOM     17  C8  UNL     1      25.012  -8.454 -36.884  0.00  0.00    +0.000 C 
BRANCH  17  18
ATOM     18  C9  UNL     1      23.937  -7.550 -36.261  0.00  0.00    +0.000 C 
BRANCH  18  19
ATOM     19  C10 UNL     1      23.420  -8.072 -34.911  0.00  0.00    +0.000 C 
BRANCH  19  20
ATOM     20  C11 UNL     1      23.726  -7.141 -33.723  0.00  0.00    +0.000 C 
BRANCH  20  21
ATOM     21  O5  UNL     1      25.112  -7.080 -33.441  0.00  0.00    +0.000 OA
BRANCH  21  22
ATOM     22  C12 UNL     1      25.669  -8.365 -33.213  0.00  0.00    +0.000 C 
BRANCH  22  23
ATOM     23  C13 UNL     1      27.176  -8.380 -33.559  0.00  0.00    +0.000 C 
ATOM     24  C14 UNL     1      27.555  -7.143 -34.422  0.00  0.00    +0.000 C 
ATOM     25  C15 UNL     1      29.059  -7.181 -34.772  0.00  0.00    +0.000 C 
ATOM     26  C16 UNL     1      29.891  -7.170 -33.470  0.00  0.00    +0.000 C 
ATOM     27  C17 UNL     1      29.535  -8.408 -32.617  0.00  0.00    +0.000 C 
ATOM     28  C18 UNL     1      29.844  -9.692 -33.418  0.00  0.00    +0.000 C 
ATOM     29  C19 UNL     1      29.010  -9.703 -34.719  0.00  0.00    +0.000 C 
ATOM     30  C20 UNL     1      29.369  -8.465 -35.571  0.00  0.00    +0.000 C 
ATOM     31  C21 UNL     1      27.508  -9.668 -34.368  0.00  0.00    +0.000 C 
ATOM     32  C22 UNL     1      28.032  -8.371 -32.262  0.00  0.00    +0.000 C 
ENDBRANCH  22  23
ENDBRANCH  21  22
ENDBRANCH  20  21
ENDBRANCH  19  20
ENDBRANCH  18  19
ENDBRANCH  17  18
ENDBRANCH   1  17
TORSDOF 13
ENDMDL
MODEL 9
REMARK VINA RESULT:    -4.530      2.058      4.188
REMARK INTER + INTRA:          -9.301
REMARK INTER:                  -7.488
REMARK INTRA:                  -1.813
REMARK UNBOUND:                -1.858
REMARK  Name = resultss/4CJN/ligands/lig_106_t0.pdb
REMARK  13 active torsions:
REMARK  status: ('A' for Active; 'I' for Inactive)
REMARK    1  A    between atoms: O1_1  and  C1_2
REMARK    2  A    between atoms: C1_2  and  C2_3
REMARK    3  A    between atoms: C3_4  and  O2_5
REMARK    4  A    between atoms: C4_6  and  O3_7
REMARK    5  A    between atoms: C5_8  and  O4_9
REMARK    6  A    between atoms: N1_11  and  C7_12
REMARK    7  A    between atoms: C7_12  and  C8_13
REMARK    8  A    between atoms: C8_13  and  C9_14
REMARK    9  A    between atoms: C9_14  and  C10_15
REMARK   10  A    between atoms: C10_15  and  C11_16
REMARK   11  A    between atoms: C11_16  and  O5_17
REMARK   12  A    between atoms: O5_17  and  C12_18
REMARK   13  A    between atoms: C12_18  and  C13_19
REMARK                            x       y       z     vdW  Elec       q    Type
REMARK                         _______ _______ _______ _____ _____    ______ ____
ROOT
ATOM      1  C7  UNL     1      26.083  -6.766 -39.721  0.00  0.00    +0.000 C 
ENDROOT
BRANCH   1   7
ATOM      2  C2  UNL     1      27.785  -8.508 -39.256  0.00  0.00    +0.000 C 
ATOM      3  C3  UNL     1      28.356  -9.893 -39.694  0.00  0.00    +0.000 C 
ATOM      4  C4  UNL     1      27.239 -10.922 -39.929  0.00  0.00    +0.000 C 
ATOM      5  C5  UNL     1      26.219 -10.356 -40.922  0.00  0.00    +0.000 C 
ATOM      6  C6  UNL     1      25.654  -9.048 -40.362  0.00  0.00    +0.000 C 
ATOM      7  N1  UNL     1      26.718  -8.028 -40.193  0.00  0.00    +0.000 NA
BRANCH   3   8
ATOM      8  O2  UNL     1      29.223 -10.378 -38.698  0.00  0.00    +0.000 OA
ATOM      9  H6  UNL     1      28.654 -10.749 -37.974  0.00  0.00    +0.000 HD
ENDBRANCH   3   8
BRANCH   4  10
ATOM     10  O3  UNL     1      27.762 -12.144 -40.393  0.00  0.00    +0.000 OA
ATOM     11  H8  UNL     1      28.383 -12.492 -39.700  0.00  0.00    +0.000 HD
ENDBRANCH   4  10
BRANCH   5  12
ATOM     12  O4  UNL     1      25.192 -11.287 -41.169  0.00  0.00    +0.000 OA
ATOM     13  H10 UNL     1      25.395 -12.108 -40.651  0.00  0.00    +0.000 HD
ENDBRANCH   5  12
BRANCH   2  14
ATOM     14  C1  UNL     1      28.980  -7.514 -39.181  0.00  0.00    +0.000 C 
BRANCH  14  15
ATOM     15  O1  UNL     1      30.094  -8.018 -39.874  0.00  0.00    +0.000 OA
ATOM     16  H1  UNL     1      30.536  -7.244 -40.309  0.00  0.00    +0.000 HD
ENDBRANCH  14  15
ENDBRANCH   2  14
ENDBRANCH   1   7
BRANCH   1  17
ATOM     17  C8  UNL     1      24.778  -7.052 -38.961  0.00  0.00    +0.000 C 
BRANCH  17  18
ATOM     18  C9  UNL     1      24.983  -6.900 -37.445  0.00  0.00    +0.000 C 
BRANCH  18  19
ATOM     19  C10 UNL     1      24.546  -8.142 -36.651  0.00  0.00    +0.000 C 
BRANCH  19  20
ATOM     20  C11 UNL     1      23.943  -7.821 -35.272  0.00  0.00    +0.000 C 
BRANCH  20  21
ATOM     21  O5  UNL     1      24.879  -7.190 -34.417  0.00  0.00    +0.000 OA
BRANCH  21  22
ATOM     22  C12 UNL     1      25.456  -8.100 -33.493  0.00  0.00    +0.000 C 
BRANCH  22  23
ATOM     23  C13 UNL     1      26.974  -8.252 -33.748  0.00  0.00    +0.000 C 
ATOM     24  C14 UNL     1      27.768  -8.165 -32.414  0.00  0.00    +0.000 C 
ATOM     25  C15 UNL     1      29.282  -8.305 -32.687  0.00  0.00    +0.000 C 
ATOM     26  C16 UNL     1      29.561  -9.667 -33.360  0.00  0.00    +0.000 C 
ATOM     27  C17 UNL     1      28.792  -9.752 -34.697  0.00  0.00    +0.000 C 
ATOM     28  C18 UNL     1      29.252  -8.611 -35.630  0.00  0.00    +0.000 C 
ATOM     29  C19 UNL     1      28.971  -7.248 -34.958  0.00  0.00    +0.000 C 
ATOM     30  C20 UNL     1      29.742  -7.165 -33.621  0.00  0.00    +0.000 C 
ATOM     31  C21 UNL     1      27.458  -7.110 -34.687  0.00  0.00    +0.000 C 
ATOM     32  C22 UNL     1      27.277  -9.618 -34.427  0.00  0.00    +0.000 C 
ENDBRANCH  22  23
ENDBRANCH  21  22
ENDBRANCH  20  21
ENDBRANCH  19  20
ENDBRANCH  18  19
ENDBRANCH  17  18
ENDBRANCH   1  17
TORSDOF 13
ENDMDL
