MODEL 1
REMARK VINA RESULT:    -6.505      0.000      0.000
REMARK INTER + INTRA:          -6.695
REMARK INTER:                  -6.695
REMARK INTRA:                   0.000
REMARK UNBOUND:                 0.000
REMARK  Name = resultss/4CJN/ligands/lig_363_t0.pdb
REMARK  3 active torsions:
REMARK  status: ('A' for Active; 'I' for Inactive)
REMARK    1  A    between atoms: C1_1  and  C2_2
REMARK    2  A    between atoms: C2_2  and  C3_3
REMARK    3  A    between atoms: C16_17  and  O2_18
REMARK                            x       y       z     vdW  Elec       q    Type
REMARK                         _______ _______ _______ _____ _____    ______ ____
ROOT
ATOM      1  C1  UNL     1      24.890  -9.595 -33.645  0.00  0.00    +0.000 C 
ATOM      2  C2  UNL     1      25.974  -8.636 -34.154  0.00  0.00    +0.000 C 
ATOM      3  C3  UNL     1      26.504  -7.785 -32.995  0.00  0.00    +0.000 C 
ATOM      4  C4  UNL     1      27.116  -9.451 -34.742  0.00  0.00    +0.000 C 
ATOM      5  C5  UNL     1      27.255  -9.626 -36.061  0.00  0.00    +0.000 C 
ATOM      6  C6  UNL     1      26.371  -8.926 -37.000  0.00  0.00    +0.000 A 
ATOM      7  C7  UNL     1      25.456  -7.982 -36.503  0.00  0.00    +0.000 A 
ATOM      8  C8  UNL     1      24.634  -7.256 -37.388  0.00  0.00    +0.000 A 
ATOM      9  C9  UNL     1      24.719  -7.477 -38.773  0.00  0.00    +0.000 A 
ATOM     10  C10 UNL     1      25.629  -8.430 -39.241  0.00  0.00    +0.000 A 
ATOM     11  C11 UNL     1      26.432  -9.127 -38.380  0.00  0.00    +0.000 A 
ATOM     12  O1  UNL     1      27.257 -10.003 -39.056  0.00  0.00    +0.000 OA
ATOM     13  C12 UNL     1      26.917 -10.015 -40.443  0.00  0.00    +0.000 C 
ATOM     14  C13 UNL     1      28.150 -10.039 -41.313  0.00  0.00    +0.000 A 
ATOM     15  C14 UNL     1      29.081 -11.081 -41.181  0.00  0.00    +0.000 A 
ATOM     16  C15 UNL     1      30.161 -11.178 -42.063  0.00  0.00    +0.000 A 
ATOM     17  C16 UNL     1      30.309 -10.244 -43.099  0.00  0.00    +0.000 A 
ATOM     18  C17 UNL     1      29.381  -9.207 -43.238  0.00  0.00    +0.000 A 
ATOM     19  C18 UNL     1      28.313  -9.095 -42.340  0.00  0.00    +0.000 A 
ATOM     20  O3  UNL     1      27.413  -8.039 -42.465  0.00  0.00    +0.000 OA
ATOM     21  C19 UNL     1      26.647  -7.600 -41.349  0.00  0.00    +0.000 C 
ATOM     22  C20 UNL     1      25.964  -8.791 -40.650  0.00  0.00    +0.000 C 
ATOM     23  O4  UNL     1      25.385  -7.755 -35.126  0.00  0.00    +0.000 OA
ENDROOT
BRANCH  17  24
ATOM     24  O2  UNL     1      31.375 -10.337 -43.991  0.00  0.00    +0.000 OA
ATOM     25  H14 UNL     1      31.851 -11.216 -44.158  0.00  0.00    +0.000 HD
ENDBRANCH  17  24
TORSDOF 1
ENDMDL
MODEL 2
REMARK VINA RESULT:    -6.469      4.474      7.149
REMARK INTER + INTRA:          -6.658
REMARK INTER:                  -6.658
REMARK INTRA:                   0.000
REMARK UNBOUND:                 0.000
REMARK  Name = resultss/4CJN/ligands/lig_363_t0.pdb
REMARK  3 active torsions:
REMARK  status: ('A' for Active; 'I' for Inactive)
REMARK    1  A    between atoms: C1_1  and  C2_2
REMARK    2  A    between atoms: C2_2  and  C3_3
REMARK    3  A    between atoms: C16_17  and  O2_18
REMARK                            x       y       z     vdW  Elec       q    Type
REMARK                         _______ _______ _______ _____ _____    ______ ____
ROOT
ATOM      1  C1  UNL     1      27.552 -10.125 -38.997  0.00  0.00    +0.000 C 
ATOM      2  C2  UNL     1      27.345 -10.932 -40.285  0.00  0.00    +0.000 C 
ATOM      3  C3  UNL     1      27.624 -12.415 -40.022  0.00  0.00    +0.000 C 
ATOM      4  C4  UNL     1      25.905 -10.764 -40.745  0.00  0.00    +0.000 C 
ATOM      5  C5  UNL     1      25.569  -9.921 -41.727  0.00  0.00    +0.000 C 
ATOM      6  C6  UNL     1      26.607  -9.213 -42.485  0.00  0.00    +0.000 A 
ATOM      7  C7  UNL     1      27.957  -9.520 -42.246  0.00  0.00    +0.000 A 
ATOM      8  C8  UNL     1      28.971  -8.894 -42.999  0.00  0.00    +0.000 A 
ATOM      9  C9  UNL     1      28.638  -7.953 -43.988  0.00  0.00    +0.000 A 
ATOM     10  C10 UNL     1      27.288  -7.657 -44.198  0.00  0.00    +0.000 A 
ATOM     11  C11 UNL     1      26.305  -8.273 -43.472  0.00  0.00    +0.000 A 
ATOM     12  O1  UNL     1      25.050  -7.839 -43.851  0.00  0.00    +0.000 OA
ATOM     13  C12 UNL     1      25.171  -6.772 -44.791  0.00  0.00    +0.000 C 
ATOM     14  C13 UNL     1      24.166  -6.906 -45.910  0.00  0.00    +0.000 A 
ATOM     15  C14 UNL     1      22.794  -6.950 -45.618  0.00  0.00    +0.000 A 
ATOM     16  C15 UNL     1      21.853  -6.951 -46.651  0.00  0.00    +0.000 A 
ATOM     17  C16 UNL     1      22.275  -6.888 -47.987  0.00  0.00    +0.000 A 
ATOM     18  C17 UNL     1      23.641  -6.838 -48.283  0.00  0.00    +0.000 A 
ATOM     19  C18 UNL     1      24.585  -6.862 -47.250  0.00  0.00    +0.000 A 
ATOM     20  O3  UNL     1      25.944  -6.847 -47.555  0.00  0.00    +0.000 OA
ATOM     21  C19 UNL     1      26.902  -7.354 -46.633  0.00  0.00    +0.000 C 
ATOM     22  C20 UNL     1      26.674  -6.767 -45.227  0.00  0.00    +0.000 C 
ATOM     23  O4  UNL     1      28.283 -10.466 -41.271  0.00  0.00    +0.000 OA
ENDROOT
BRANCH  17  24
ATOM     24  O2  UNL     1      21.346  -6.876 -49.025  0.00  0.00    +0.000 OA
ATOM     25  H14 UNL     1      20.393  -7.195 -48.887  0.00  0.00    +0.000 HD
ENDBRANCH  17  24
TORSDOF 1
ENDMDL
MODEL 3
REMARK VINA RESULT:    -6.291      2.296      7.946
REMARK INTER + INTRA:          -6.475
REMARK INTER:                  -6.475
REMARK INTRA:                   0.000
REMARK UNBOUND:                 0.000
REMARK  Name = resultss/4CJN/ligands/lig_363_t0.pdb
REMARK  3 active torsions:
REMARK  status: ('A' for Active; 'I' for Inactive)
REMARK    1  A    between atoms: C1_1  and  C2_2
REMARK    2  A    between atoms: C2_2  and  C3_3
REMARK    3  A    between atoms: C16_17  and  O2_18
REMARK                            x       y       z     vdW  Elec       q    Type
REMARK                         _______ _______ _______ _____ _____    ______ ____
ROOT
ATOM      1  C1  UNL     1      30.251 -11.688 -42.253  0.00  0.00    +0.000 C 
ATOM      2  C2  UNL     1      29.844 -10.240 -41.947  0.00  0.00    +0.000 C 
ATOM      3  C3  UNL     1      29.874  -9.408 -43.233  0.00  0.00    +0.000 C 
ATOM      4  C4  UNL     1      28.434 -10.236 -41.377  0.00  0.00    +0.000 C 
ATOM      5  C5  UNL     1      28.200 -10.127 -40.065  0.00  0.00    +0.000 C 
ATOM      6  C6  UNL     1      29.307  -9.880 -39.133  0.00  0.00    +0.000 A 
ATOM      7  C7  UNL     1      30.594  -9.644 -39.645  0.00  0.00    +0.000 A 
ATOM      8  C8  UNL     1      31.662  -9.351 -38.774  0.00  0.00    +0.000 A 
ATOM      9  C9  UNL     1      31.448  -9.300 -37.387  0.00  0.00    +0.000 A 
ATOM     10  C10 UNL     1      30.161  -9.550 -36.901  0.00  0.00    +0.000 A 
ATOM     11  C11 UNL     1      29.124  -9.826 -37.750  0.00  0.00    +0.000 A 
ATOM     12  O1  UNL     1      27.946 -10.028 -37.059  0.00  0.00    +0.000 OA
ATOM     13  C12 UNL     1      28.203 -10.027 -35.654  0.00  0.00    +0.000 C 
ATOM     14  C13 UNL     1      27.136  -9.273 -34.898  0.00  0.00    +0.000 A 
ATOM     15  C14 UNL     1      25.793  -9.669 -34.999  0.00  0.00    +0.000 A 
ATOM     16  C15 UNL     1      24.816  -9.055 -34.210  0.00  0.00    +0.000 A 
ATOM     17  C16 UNL     1      25.176  -8.053 -33.298  0.00  0.00    +0.000 A 
ATOM     18  C17 UNL     1      26.514  -7.659 -33.190  0.00  0.00    +0.000 A 
ATOM     19  C18 UNL     1      27.489  -8.255 -33.997  0.00  0.00    +0.000 A 
ATOM     20  O3  UNL     1      28.814  -7.832 -33.908  0.00  0.00    +0.000 OA
ATOM     21  C19 UNL     1      29.714  -8.025 -34.992  0.00  0.00    +0.000 C 
ATOM     22  C20 UNL     1      29.661  -9.480 -35.496  0.00  0.00    +0.000 C 
ATOM     23  O4  UNL     1      30.798  -9.682 -41.028  0.00  0.00    +0.000 OA
ENDROOT
BRANCH  17  24
ATOM     24  O2  UNL     1      24.213  -7.442 -32.498  0.00  0.00    +0.000 OA
ATOM     25  H14 UNL     1      24.147  -7.637 -31.505  0.00  0.00    +0.000 HD
ENDBRANCH  17  24
TORSDOF 1
ENDMDL
MODEL 4
REMARK VINA RESULT:    -5.841      2.975      4.347
REMARK INTER + INTRA:          -6.011
REMARK INTER:                  -6.011
REMARK INTRA:                   0.000
REMARK UNBOUND:                 0.000
REMARK  Name = resultss/4CJN/ligands/lig_363_t0.pdb
REMARK  3 active torsions:
REMARK  status: ('A' for Active; 'I' for Inactive)
REMARK    1  A    between atoms: C1_1  and  C2_2
REMARK    2  A    between atoms: C2_2  and  C3_3
REMARK    3  A    between atoms: C16_17  and  O2_18
REMARK                            x       y       z     vdW  Elec       q    Type
REMARK                         _______ _______ _______ _____ _____    ______ ____
ROOT
ATOM      1  C1  UNL     1      31.758 -10.510 -31.848  0.00  0.00    +0.000 C 
ATOM      2  C2  UNL     1      31.662  -9.210 -32.657  0.00  0.00    +0.000 C 
ATOM      3  C3  UNL     1      32.592  -8.152 -32.056  0.00  0.00    +0.000 C 
ATOM      4  C4  UNL     1      32.082  -9.492 -34.092  0.00  0.00    +0.000 C 
ATOM      5  C5  UNL     1      31.187  -9.664 -35.071  0.00  0.00    +0.000 C 
ATOM      6  C6  UNL     1      29.757  -9.462 -34.813  0.00  0.00    +0.000 A 
ATOM      7  C7  UNL     1      29.350  -8.973 -33.559  0.00  0.00    +0.000 A 
ATOM      8  C8  UNL     1      27.988  -8.718 -33.305  0.00  0.00    +0.000 A 
ATOM      9  C9  UNL     1      27.026  -8.959 -34.300  0.00  0.00    +0.000 A 
ATOM     10  C10 UNL     1      27.455  -9.457 -35.534  0.00  0.00    +0.000 A 
ATOM     11  C11 UNL     1      28.780  -9.695 -35.782  0.00  0.00    +0.000 A 
ATOM     12  O1  UNL     1      28.976 -10.171 -37.063  0.00  0.00    +0.000 OA
ATOM     13  C12 UNL     1      27.715 -10.405 -37.691  0.00  0.00    +0.000 C 
ATOM     14  C13 UNL     1      27.723  -9.949 -39.129  0.00  0.00    +0.000 A 
ATOM     15  C14 UNL     1      28.657 -10.484 -40.030  0.00  0.00    +0.000 A 
ATOM     16  C15 UNL     1      28.593 -10.160 -41.388  0.00  0.00    +0.000 A 
ATOM     17  C16 UNL     1      27.582  -9.312 -41.862  0.00  0.00    +0.000 A 
ATOM     18  C17 UNL     1      26.646  -8.780 -40.969  0.00  0.00    +0.000 A 
ATOM     19  C18 UNL     1      26.723  -9.084 -39.606  0.00  0.00    +0.000 A 
ATOM     20  O3  UNL     1      25.807  -8.523 -38.718  0.00  0.00    +0.000 OA
ATOM     21  C19 UNL     1      26.119  -8.391 -37.337  0.00  0.00    +0.000 C 
ATOM     22  C20 UNL     1      26.655  -9.718 -36.767  0.00  0.00    +0.000 C 
ATOM     23  O4  UNL     1      30.313  -8.721 -32.577  0.00  0.00    +0.000 OA
ENDROOT
BRANCH  17  24
ATOM     24  O2  UNL     1      27.501  -8.990 -43.215  0.00  0.00    +0.000 OA
ATOM     25  H14 UNL     1      28.330  -8.932 -43.796  0.00  0.00    +0.000 HD
ENDBRANCH  17  24
TORSDOF 1
ENDMDL
MODEL 5
REMARK VINA RESULT:    -5.823      5.271      8.131
REMARK INTER + INTRA:          -5.994
REMARK INTER:                  -5.994
REMARK INTRA:                   0.000
REMARK UNBOUND:                 0.000
REMARK  Name = resultss/4CJN/ligands/lig_363_t0.pdb
REMARK  3 active torsions:
REMARK  status: ('A' for Active; 'I' for Inactive)
REMARK    1  A    between atoms: C1_1  and  C2_2
REMARK    2  A    between atoms: C2_2  and  C3_3
REMARK    3  A    between atoms: C16_17  and  O2_18
REMARK                            x       y       z     vdW  Elec       q    Type
REMARK                         _______ _______ _______ _____ _____    ______ ____
ROOT
ATOM      1  C1  UNL     1      28.258  -8.448 -40.136  0.00  0.00    +0.000 C 
ATOM      2  C2  UNL     1      27.747  -9.473 -41.157  0.00  0.00    +0.000 C 
ATOM      3  C3  UNL     1      28.198 -10.881 -40.753  0.00  0.00    +0.000 C 
ATOM      4  C4  UNL     1      26.227  -9.421 -41.189  0.00  0.00    +0.000 C 
ATOM      5  C5  UNL     1      25.561  -8.771 -42.149  0.00  0.00    +0.000 C 
ATOM      6  C6  UNL     1      26.282  -8.184 -43.286  0.00  0.00    +0.000 A 
ATOM      7  C7  UNL     1      27.662  -8.414 -43.413  0.00  0.00    +0.000 A 
ATOM      8  C8  UNL     1      28.367  -7.908 -44.523  0.00  0.00    +0.000 A 
ATOM      9  C9  UNL     1      27.694  -7.164 -45.507  0.00  0.00    +0.000 A 
ATOM     10  C10 UNL     1      26.323  -6.939 -45.351  0.00  0.00    +0.000 A 
ATOM     11  C11 UNL     1      25.640  -7.440 -44.277  0.00  0.00    +0.000 A 
ATOM     12  O1  UNL     1      24.301  -7.107 -44.331  0.00  0.00    +0.000 OA
ATOM     13  C12 UNL     1      24.066  -6.219 -45.424  0.00  0.00    +0.000 C 
ATOM     14  C13 UNL     1      22.794  -6.570 -46.156  0.00  0.00    +0.000 A 
ATOM     15  C14 UNL     1      21.572  -6.593 -45.467  0.00  0.00    +0.000 A 
ATOM     16  C15 UNL     1      20.375  -6.796 -46.160  0.00  0.00    +0.000 A 
ATOM     17  C16 UNL     1      20.387  -6.960 -47.552  0.00  0.00    +0.000 A 
ATOM     18  C17 UNL     1      21.603  -6.932 -48.244  0.00  0.00    +0.000 A 
ATOM     19  C18 UNL     1      22.803  -6.753 -47.549  0.00  0.00    +0.000 A 
ATOM     20  O3  UNL     1      24.012  -6.762 -48.242  0.00  0.00    +0.000 OA
ATOM     21  C19 UNL     1      25.230  -7.077 -47.577  0.00  0.00    +0.000 C 
ATOM     22  C20 UNL     1      25.375  -6.258 -46.281  0.00  0.00    +0.000 C 
ATOM     23  O4  UNL     1      28.324  -9.167 -42.438  0.00  0.00    +0.000 OA
ENDROOT
BRANCH  17  24
ATOM     24  O2  UNL     1      19.200  -7.151 -48.255  0.00  0.00    +0.000 OA
ATOM     25  H14 UNL     1      18.401  -6.541 -48.123  0.00  0.00    +0.000 HD
ENDBRANCH  17  24
TORSDOF 1
ENDMDL
MODEL 6
REMARK VINA RESULT:    -5.642      4.136      6.444
REMARK INTER + INTRA:          -5.807
REMARK INTER:                  -5.807
REMARK INTRA:                   0.000
REMARK UNBOUND:                 0.000
REMARK  Name = resultss/4CJN/ligands/lig_363_t0.pdb
REMARK  3 active torsions:
REMARK  status: ('A' for Active; 'I' for Inactive)
REMARK    1  A    between atoms: C1_1  and  C2_2
REMARK    2  A    between atoms: C2_2  and  C3_3
REMARK    3  A    between atoms: C16_17  and  O2_18
REMARK                            x       y       z     vdW  Elec       q    Type
REMARK                         _______ _______ _______ _____ _____    ______ ____
ROOT
ATOM      1  C1  UNL     1      22.265  -8.527 -34.164  0.00  0.00    +0.000 C 
ATOM      2  C2  UNL     1      23.274  -7.397 -34.404  0.00  0.00    +0.000 C 
ATOM      3  C3  UNL     1      22.544  -6.052 -34.473  0.00  0.00    +0.000 C 
ATOM      4  C4  UNL     1      24.267  -7.371 -33.251  0.00  0.00    +0.000 C 
ATOM      5  C5  UNL     1      25.488  -7.906 -33.357  0.00  0.00    +0.000 C 
ATOM      6  C6  UNL     1      25.960  -8.431 -34.644  0.00  0.00    +0.000 A 
ATOM      7  C7  UNL     1      25.161  -8.259 -35.787  0.00  0.00    +0.000 A 
ATOM      8  C8  UNL     1      25.615  -8.705 -37.044  0.00  0.00    +0.000 A 
ATOM      9  C9  UNL     1      26.867  -9.331 -37.161  0.00  0.00    +0.000 A 
ATOM     10  C10 UNL     1      27.638  -9.501 -36.008  0.00  0.00    +0.000 A 
ATOM     11  C11 UNL     1      27.199  -9.058 -34.790  0.00  0.00    +0.000 A 
ATOM     12  O1  UNL     1      28.120  -9.319 -33.795  0.00  0.00    +0.000 OA
ATOM     13  C12 UNL     1      29.193 -10.100 -34.322  0.00  0.00    +0.000 C 
ATOM     14  C13 UNL     1      30.528  -9.628 -33.800  0.00  0.00    +0.000 A 
ATOM     15  C14 UNL     1      30.771  -9.602 -32.418  0.00  0.00    +0.000 A 
ATOM     16  C15 UNL     1      32.043  -9.283 -31.932  0.00  0.00    +0.000 A 
ATOM     17  C16 UNL     1      33.088  -9.006 -32.824  0.00  0.00    +0.000 A 
ATOM     18  C17 UNL     1      32.851  -9.035 -34.202  0.00  0.00    +0.000 A 
ATOM     19  C18 UNL     1      31.574  -9.330 -34.690  0.00  0.00    +0.000 A 
ATOM     20  O3  UNL     1      31.338  -9.323 -36.064  0.00  0.00    +0.000 OA
ATOM     21  C19 UNL     1      30.026  -9.124 -36.576  0.00  0.00    +0.000 C 
ATOM     22  C20 UNL     1      29.018 -10.055 -35.877  0.00  0.00    +0.000 C 
ATOM     23  O4  UNL     1      23.922  -7.623 -35.667  0.00  0.00    +0.000 OA
ENDROOT
BRANCH  17  24
ATOM     24  O2  UNL     1      34.362  -8.698 -32.352  0.00  0.00    +0.000 OA
ATOM     25  H14 UNL     1      35.196  -9.013 -32.834  0.00  0.00    +0.000 HD
ENDBRANCH  17  24
TORSDOF 1
ENDMDL
MODEL 7
REMARK VINA RESULT:    -5.610      6.257      8.908
REMARK INTER + INTRA:          -5.774
REMARK INTER:                  -5.774
REMARK INTRA:                   0.000
REMARK UNBOUND:                 0.000
REMARK  Name = resultss/4CJN/ligands/lig_363_t0.pdb
REMARK  3 active torsions:
REMARK  status: ('A' for Active; 'I' for Inactive)
REMARK    1  A    between atoms: C1_1  and  C2_2
REMARK    2  A    between atoms: C2_2  and  C3_3
REMARK    3  A    between atoms: C16_17  and  O2_18
REMARK                            x       y       z     vdW  Elec       q    Type
REMARK                         _______ _______ _______ _____ _____    ______ ____
ROOT
ATOM      1  C1  UNL     1      26.893  -7.904 -40.451  0.00  0.00    +0.000 C 
ATOM      2  C2  UNL     1      26.367  -9.026 -41.355  0.00  0.00    +0.000 C 
ATOM      3  C3  UNL     1      27.001 -10.361 -40.952  0.00  0.00    +0.000 C 
ATOM      4  C4  UNL     1      24.857  -9.118 -41.198  0.00  0.00    +0.000 C 
ATOM      5  C5  UNL     1      24.018  -8.586 -42.093  0.00  0.00    +0.000 C 
ATOM      6  C6  UNL     1      24.533  -7.996 -43.334  0.00  0.00    +0.000 A 
ATOM      7  C7  UNL     1      25.904  -8.103 -43.624  0.00  0.00    +0.000 A 
ATOM      8  C8  UNL     1      26.415  -7.593 -44.835  0.00  0.00    +0.000 A 
ATOM      9  C9  UNL     1      25.558  -6.969 -45.756  0.00  0.00    +0.000 A 
ATOM     10  C10 UNL     1      24.200  -6.866 -45.439  0.00  0.00    +0.000 A 
ATOM     11  C11 UNL     1      23.705  -7.369 -44.267  0.00  0.00    +0.000 A 
ATOM     12  O1  UNL     1      22.343  -7.167 -44.166  0.00  0.00    +0.000 OA
ATOM     13  C12 UNL     1      21.891  -6.365 -45.257  0.00  0.00    +0.000 C 
ATOM     14  C13 UNL     1      20.580  -6.872 -45.808  0.00  0.00    +0.000 A 
ATOM     15  C14 UNL     1      19.459  -6.972 -44.970  0.00  0.00    +0.000 A 
ATOM     16  C15 UNL     1      18.213  -7.323 -45.498  0.00  0.00    +0.000 A 
ATOM     17  C16 UNL     1      18.073  -7.559 -46.872  0.00  0.00    +0.000 A 
ATOM     18  C17 UNL     1      19.187  -7.456 -47.712  0.00  0.00    +0.000 A 
ATOM     19  C18 UNL     1      20.439  -7.129 -47.182  0.00  0.00    +0.000 A 
ATOM     20  O3  UNL     1      21.550  -7.061 -48.021  0.00  0.00    +0.000 OA
ATOM     21  C19 UNL     1      22.864  -7.225 -47.502  0.00  0.00    +0.000 C 
ATOM     22  C20 UNL     1      23.083  -6.327 -46.270  0.00  0.00    +0.000 C 
ATOM     23  O4  UNL     1      26.751  -8.737 -42.711  0.00  0.00    +0.000 OA
ENDROOT
BRANCH  17  24
ATOM     24  O2  UNL     1      16.834  -7.899 -47.412  0.00  0.00    +0.000 OA
ATOM     25  H14 UNL     1      16.030  -8.078 -46.821  0.00  0.00    +0.000 HD
ENDBRANCH  17  24
TORSDOF 1
ENDMDL
MODEL 8
REMARK VINA RESULT:    -5.479      1.853      7.421
REMARK INTER + INTRA:          -5.640
REMARK INTER:                  -5.640
REMARK INTRA:                   0.000
REMARK UNBOUND:                 0.000
REMARK  Name = resultss/4CJN/ligands/lig_363_t0.pdb
REMARK  3 active torsions:
REMARK  status: ('A' for Active; 'I' for Inactive)
REMARK    1  A    between atoms: C1_1  and  C2_2
REMARK    2  A    between atoms: C2_2  and  C3_3
REMARK    3  A    between atoms: C16_17  and  O2_18
REMARK                            x       y       z     vdW  Elec       q    Type
REMARK                         _______ _______ _______ _____ _____    ______ ____
ROOT
ATOM      1  C1  UNL     1      30.011  -9.269 -42.919  0.00  0.00    +0.000 C 
ATOM      2  C2  UNL     1      29.734 -10.333 -41.849  0.00  0.00    +0.000 C 
ATOM      3  C3  UNL     1      30.225 -11.701 -42.334  0.00  0.00    +0.000 C 
ATOM      4  C4  UNL     1      30.475  -9.956 -40.575  0.00  0.00    +0.000 C 
ATOM      5  C5  UNL     1      29.857  -9.372 -39.543  0.00  0.00    +0.000 C 
ATOM      6  C6  UNL     1      28.401  -9.187 -39.558  0.00  0.00    +0.000 A 
ATOM      7  C7  UNL     1      27.653  -9.734 -40.614  0.00  0.00    +0.000 A 
ATOM      8  C8  UNL     1      26.249  -9.618 -40.624  0.00  0.00    +0.000 A 
ATOM      9  C9  UNL     1      25.588  -8.947 -39.580  0.00  0.00    +0.000 A 
ATOM     10  C10 UNL     1      26.356  -8.401 -38.548  0.00  0.00    +0.000 A 
ATOM     11  C11 UNL     1      27.719  -8.523 -38.537  0.00  0.00    +0.000 A 
ATOM     12  O1  UNL     1      28.271  -7.921 -37.423  0.00  0.00    +0.000 OA
ATOM     13  C12 UNL     1      27.256  -7.230 -36.694  0.00  0.00    +0.000 C 
ATOM     14  C13 UNL     1      27.415  -7.426 -35.206  0.00  0.00    +0.000 A 
ATOM     15  C14 UNL     1      28.609  -7.047 -34.573  0.00  0.00    +0.000 A 
ATOM     16  C15 UNL     1      28.720  -7.112 -33.181  0.00  0.00    +0.000 A 
ATOM     17  C16 UNL     1      27.631  -7.538 -32.407  0.00  0.00    +0.000 A 
ATOM     18  C17 UNL     1      26.437  -7.911 -33.034  0.00  0.00    +0.000 A 
ATOM     19  C18 UNL     1      26.333  -7.871 -34.428  0.00  0.00    +0.000 A 
ATOM     20  O3  UNL     1      25.152  -8.278 -35.046  0.00  0.00    +0.000 OA
ATOM     21  C19 UNL     1      25.154  -8.720 -36.398  0.00  0.00    +0.000 C 
ATOM     22  C20 UNL     1      25.899  -7.719 -37.301  0.00  0.00    +0.000 C 
ATOM     23  O4  UNL     1      28.313 -10.413 -41.642  0.00  0.00    +0.000 OA
ENDROOT
BRANCH  17  24
ATOM     24  O2  UNL     1      27.726  -7.595 -31.018  0.00  0.00    +0.000 OA
ATOM     25  H14 UNL     1      27.873  -8.473 -30.533  0.00  0.00    +0.000 HD
ENDBRANCH  17  24
TORSDOF 1
ENDMDL
MODEL 9
REMARK VINA RESULT:    -5.469      2.989      8.322
REMARK INTER + INTRA:          -5.629
REMARK INTER:                  -5.629
REMARK INTRA:                   0.000
REMARK UNBOUND:                 0.000
REMARK  Name = resultss/4CJN/ligands/lig_363_t0.pdb
REMARK  3 active torsions:
REMARK  status: ('A' for Active; 'I' for Inactive)
REMARK    1  A    between atoms: C1_1  and  C2_2
REMARK    2  A    between atoms: C2_2  and  C3_3
REMARK    3  A    between atoms: C16_17  and  O2_18
REMARK                            x       y       z     vdW  Elec       q    Type
REMARK                         _______ _______ _______ _____ _____    ______ ____
ROOT
ATOM      1  C1  UNL     1      34.101 -10.401 -44.855  0.00  0.00    +0.000 C 
ATOM      2  C2  UNL     1      33.456 -11.539 -44.054  0.00  0.00    +0.000 C 
ATOM      3  C3  UNL     1      33.833 -12.890 -44.671  0.00  0.00    +0.000 C 
ATOM      4  C4  UNL     1      33.964 -11.481 -42.621  0.00  0.00    +0.000 C 
ATOM      5  C5  UNL     1      33.237 -10.949 -41.633  0.00  0.00    +0.000 C 
ATOM      6  C6  UNL     1      31.858 -10.509 -41.880  0.00  0.00    +0.000 A 
ATOM      7  C7  UNL     1      31.273 -10.762 -43.133  0.00  0.00    +0.000 A 
ATOM      8  C8  UNL     1      29.934 -10.399 -43.377  0.00  0.00    +0.000 A 
ATOM      9  C9  UNL     1      29.176  -9.776 -42.371  0.00  0.00    +0.000 A 
ATOM     10  C10 UNL     1      29.785  -9.525 -41.137  0.00  0.00    +0.000 A 
ATOM     11  C11 UNL     1      31.083  -9.887 -40.900  0.00  0.00    +0.000 A 
ATOM     12  O1  UNL     1      31.473  -9.555 -39.618  0.00  0.00    +0.000 OA
ATOM     13  C12 UNL     1      30.441  -8.805 -38.977  0.00  0.00    +0.000 C 
ATOM     14  C13 UNL     1      30.258  -9.234 -37.541  0.00  0.00    +0.000 A 
ATOM     15  C14 UNL     1      31.336  -9.165 -36.646  0.00  0.00    +0.000 A 
ATOM     16  C15 UNL     1      31.145  -9.444 -35.289  0.00  0.00    +0.000 A 
ATOM     17  C16 UNL     1      29.869  -9.775 -34.812  0.00  0.00    +0.000 A 
ATOM     18  C17 UNL     1      28.790  -9.840 -35.700  0.00  0.00    +0.000 A 
ATOM     19  C18 UNL     1      28.985  -9.586 -37.062  0.00  0.00    +0.000 A 
ATOM     20  O3  UNL     1      27.911  -9.687 -37.945  0.00  0.00    +0.000 OA
ATOM     21  C19 UNL     1      28.129  -9.926 -39.330  0.00  0.00    +0.000 C 
ATOM     22  C20 UNL     1      29.183  -8.956 -39.896  0.00  0.00    +0.000 C 
ATOM     23  O4  UNL     1      32.027 -11.395 -44.125  0.00  0.00    +0.000 OA
ENDROOT
BRANCH  17  24
ATOM     24  O2  UNL     1      29.664 -10.044 -33.460  0.00  0.00    +0.000 OA
ATOM     25  H14 UNL     1      29.320 -10.944 -33.146  0.00  0.00    +0.000 HD
ENDBRANCH  17  24
TORSDOF 1
ENDMDL
