MODEL 1
REMARK VINA RESULT:    -5.573      0.000      0.000
REMARK INTER + INTRA:          -6.224
REMARK INTER:                  -6.224
REMARK INTRA:                   0.000
REMARK UNBOUND:                 0.000
REMARK  Name = resultss/4CJN/ligands/lig_308_t0.pdb
REMARK  4 active torsions:
REMARK  status: ('A' for Active; 'I' for Inactive)
REMARK    1  A    between atoms: C3_4  and  O2_5
REMARK    2  A    between atoms: C5_7  and  O3_8
REMARK    3  A    between atoms: C9_13  and  O5_14
REMARK    4  A    between atoms: C12_17  and  O6_18
REMARK                            x       y       z     vdW  Elec       q    Type
REMARK                         _______ _______ _______ _____ _____    ______ ____
ROOT
ATOM      1  O1  UNL     1      24.749  -8.531 -37.985  0.00  0.00    +0.000 OA
ATOM      2  C1  UNL     1      25.364  -8.733 -36.909  0.00  0.00    +0.000 A 
ATOM      3  C2  UNL     1      24.729  -8.466 -35.668  0.00  0.00    +0.000 A 
ATOM      4  C3  UNL     1      23.397  -7.961 -35.530  0.00  0.00    +0.000 A 
ATOM      5  C4  UNL     1      22.824  -7.859 -34.257  0.00  0.00    +0.000 A 
ATOM      6  C5  UNL     1      23.553  -8.173 -33.112  0.00  0.00    +0.000 A 
ATOM      7  C6  UNL     1      24.874  -8.603 -33.230  0.00  0.00    +0.000 A 
ATOM      8  C7  UNL     1      25.460  -8.755 -34.488  0.00  0.00    +0.000 A 
ATOM      9  O4  UNL     1      26.715  -9.170 -34.552  0.00  0.00    +0.000 OA
ATOM     10  C8  UNL     1      27.355  -9.389 -35.691  0.00  0.00    +0.000 A 
ATOM     11  C9  UNL     1      28.698  -9.783 -35.638  0.00  0.00    +0.000 A 
ATOM     12  C10 UNL     1      29.404 -10.017 -36.818  0.00  0.00    +0.000 A 
ATOM     13  C11 UNL     1      28.768  -9.892 -38.049  0.00  0.00    +0.000 A 
ATOM     14  C12 UNL     1      27.417  -9.538 -38.131  0.00  0.00    +0.000 A 
ATOM     15  C13 UNL     1      26.695  -9.226 -36.936  0.00  0.00    +0.000 A 
ENDROOT
BRANCH   4  16
ATOM     16  O2  UNL     1      22.608  -7.526 -36.600  0.00  0.00    +0.000 OA
ATOM     17  H1  UNL     1      21.971  -6.746 -36.567  0.00  0.00    +0.000 HD
ENDBRANCH   4  16
BRANCH   6  18
ATOM     18  O3  UNL     1      22.956  -8.042 -31.860  0.00  0.00    +0.000 OA
ATOM     19  H3  UNL     1      22.475  -7.192 -31.589  0.00  0.00    +0.000 HD
ENDBRANCH   6  18
BRANCH  11  20
ATOM     20  O5  UNL     1      29.326  -9.934 -34.402  0.00  0.00    +0.000 OA
ATOM     21  H5  UNL     1      30.268  -9.596 -34.240  0.00  0.00    +0.000 HD
ENDBRANCH  11  20
BRANCH  14  22
ATOM     22  O6  UNL     1      26.854  -9.542 -39.410  0.00  0.00    +0.000 OA
ATOM     23  H8  UNL     1      26.390 -10.330 -39.835  0.00  0.00    +0.000 HD
ENDBRANCH  14  22
TORSDOF 4
ENDMDL
MODEL 2
REMARK VINA RESULT:    -5.356      3.107      6.274
REMARK INTER + INTRA:          -5.982
REMARK INTER:                  -5.982
REMARK INTRA:                   0.000
REMARK UNBOUND:                 0.000
REMARK  Name = resultss/4CJN/ligands/lig_308_t0.pdb
REMARK  4 active torsions:
REMARK  status: ('A' for Active; 'I' for Inactive)
REMARK    1  A    between atoms: C3_4  and  O2_5
REMARK    2  A    between atoms: C5_7  and  O3_8
REMARK    3  A    between atoms: C9_13  and  O5_14
REMARK    4  A    between atoms: C12_17  and  O6_18
REMARK                            x       y       z     vdW  Elec       q    Type
REMARK                         _______ _______ _______ _____ _____    ______ ____
ROOT
ATOM      1  O1  UNL     1      30.067  -9.910 -40.394  0.00  0.00    +0.000 OA
ATOM      2  C1  UNL     1      28.907  -9.838 -39.920  0.00  0.00    +0.000 A 
ATOM      3  C2  UNL     1      27.794  -9.691 -40.789  0.00  0.00    +0.000 A 
ATOM      4  C3  UNL     1      27.883  -9.607 -42.214  0.00  0.00    +0.000 A 
ATOM      5  C4  UNL     1      26.712  -9.594 -42.981  0.00  0.00    +0.000 A 
ATOM      6  C5  UNL     1      25.457  -9.589 -42.378  0.00  0.00    +0.000 A 
ATOM      7  C6  UNL     1      25.357  -9.604 -40.988  0.00  0.00    +0.000 A 
ATOM      8  C7  UNL     1      26.507  -9.658 -40.196  0.00  0.00    +0.000 A 
ATOM      9  O4  UNL     1      26.365  -9.675 -38.880  0.00  0.00    +0.000 OA
ATOM     10  C8  UNL     1      27.382  -9.768 -38.037  0.00  0.00    +0.000 A 
ATOM     11  C9  UNL     1      27.116  -9.729 -36.662  0.00  0.00    +0.000 A 
ATOM     12  C10 UNL     1      28.163  -9.820 -35.746  0.00  0.00    +0.000 A 
ATOM     13  C11 UNL     1      29.471  -9.982 -36.192  0.00  0.00    +0.000 A 
ATOM     14  C12 UNL     1      29.761 -10.064 -37.559  0.00  0.00    +0.000 A 
ATOM     15  C13 UNL     1      28.710  -9.903 -38.515  0.00  0.00    +0.000 A 
ENDROOT
BRANCH   4  16
ATOM     16  O2  UNL     1      29.086  -9.510 -42.921  0.00  0.00    +0.000 OA
ATOM     17  H1  UNL     1      30.003  -9.504 -42.503  0.00  0.00    +0.000 HD
ENDBRANCH   4  16
BRANCH   6  18
ATOM     18  O3  UNL     1      24.312  -9.558 -43.172  0.00  0.00    +0.000 OA
ATOM     19  H3  UNL     1      23.668  -8.776 -43.142  0.00  0.00    +0.000 HD
ENDBRANCH   6  18
BRANCH  11  20
ATOM     20  O5  UNL     1      25.802  -9.594 -36.216  0.00  0.00    +0.000 OA
ATOM     21  H5  UNL     1      25.169 -10.385 -36.179  0.00  0.00    +0.000 HD
ENDBRANCH  11  20
BRANCH  14  22
ATOM     22  O6  UNL     1      31.093 -10.329 -37.892  0.00  0.00    +0.000 OA
ATOM     23  H8  UNL     1      31.824 -10.535 -37.229  0.00  0.00    +0.000 HD
ENDBRANCH  14  22
TORSDOF 4
ENDMDL
MODEL 3
REMARK VINA RESULT:    -5.310      3.157      5.855
REMARK INTER + INTRA:          -5.931
REMARK INTER:                  -5.931
REMARK INTRA:                   0.000
REMARK UNBOUND:                 0.000
REMARK  Name = resultss/4CJN/ligands/lig_308_t0.pdb
REMARK  4 active torsions:
REMARK  status: ('A' for Active; 'I' for Inactive)
REMARK    1  A    between atoms: C3_4  and  O2_5
REMARK    2  A    between atoms: C5_7  and  O3_8
REMARK    3  A    between atoms: C9_13  and  O5_14
REMARK    4  A    between atoms: C12_17  and  O6_18
REMARK                            x       y       z     vdW  Elec       q    Type
REMARK                         _______ _______ _______ _____ _____    ______ ____
ROOT
ATOM      1  O1  UNL     1      30.052 -10.001 -40.556  0.00  0.00    +0.000 OA
ATOM      2  C1  UNL     1      28.940  -9.858 -39.993  0.00  0.00    +0.000 A 
ATOM      3  C2  UNL     1      28.855  -9.880 -38.576  0.00  0.00    +0.000 A 
ATOM      4  C3  UNL     1      29.970 -10.066 -37.699  0.00  0.00    +0.000 A 
ATOM      5  C4  UNL     1      29.792  -9.940 -36.316  0.00  0.00    +0.000 A 
ATOM      6  C5  UNL     1      28.532  -9.708 -35.771  0.00  0.00    +0.000 A 
ATOM      7  C6  UNL     1      27.425  -9.591 -36.611  0.00  0.00    +0.000 A 
ATOM      8  C7  UNL     1      27.577  -9.671 -37.998  0.00  0.00    +0.000 A 
ATOM      9  O4  UNL     1      26.500  -9.549 -38.757  0.00  0.00    +0.000 OA
ATOM     10  C8  UNL     1      26.535  -9.567 -40.081  0.00  0.00    +0.000 A 
ATOM     11  C9  UNL     1      25.325  -9.477 -40.782  0.00  0.00    +0.000 A 
ATOM     12  C10 UNL     1      25.324  -9.497 -42.176  0.00  0.00    +0.000 A 
ATOM     13  C11 UNL     1      26.524  -9.572 -42.876  0.00  0.00    +0.000 A 
ATOM     14  C12 UNL     1      27.749  -9.624 -42.203  0.00  0.00    +0.000 A 
ATOM     15  C13 UNL     1      27.768  -9.675 -40.773  0.00  0.00    +0.000 A 
ENDROOT
BRANCH   4  16
ATOM     16  O2  UNL     1      31.259 -10.397 -38.128  0.00  0.00    +0.000 OA
ATOM     17  H1  UNL     1      31.979  -9.731 -38.362  0.00  0.00    +0.000 HD
ENDBRANCH   4  16
BRANCH   6  18
ATOM     18  O3  UNL     1      28.388  -9.606 -34.389  0.00  0.00    +0.000 OA
ATOM     19  H3  UNL     1      28.291  -8.707 -33.931  0.00  0.00    +0.000 HD
ENDBRANCH   6  18
BRANCH  11  20
ATOM     20  O5  UNL     1      24.125  -9.374 -40.080  0.00  0.00    +0.000 OA
ATOM     21  H5  UNL     1      23.893  -8.545 -39.544  0.00  0.00    +0.000 HD
ENDBRANCH  11  20
BRANCH  14  22
ATOM     22  O6  UNL     1      28.895  -9.595 -43.002  0.00  0.00    +0.000 OA
ATOM     23  H8  UNL     1      28.995 -10.071 -43.885  0.00  0.00    +0.000 HD
ENDBRANCH  14  22
TORSDOF 4
ENDMDL
MODEL 4
REMARK VINA RESULT:    -5.275      1.644      5.042
REMARK INTER + INTRA:          -5.892
REMARK INTER:                  -5.892
REMARK INTRA:                   0.000
REMARK UNBOUND:                 0.000
REMARK  Name = resultss/4CJN/ligands/lig_308_t0.pdb
REMARK  4 active torsions:
REMARK  status: ('A' for Active; 'I' for Inactive)
REMARK    1  A    between atoms: C3_4  and  O2_5
REMARK    2  A    between atoms: C5_7  and  O3_8
REMARK    3  A    between atoms: C9_13  and  O5_14
REMARK    4  A    between atoms: C12_17  and  O6_18
REMARK                            x       y       z     vdW  Elec       q    Type
REMARK                         _______ _______ _______ _____ _____    ______ ____
ROOT
ATOM      1  O1  UNL     1      26.325  -9.219 -37.130  0.00  0.00    +0.000 OA
ATOM      2  C1  UNL     1      26.215  -8.823 -35.944  0.00  0.00    +0.000 A 
ATOM      3  C2  UNL     1      27.291  -9.000 -35.035  0.00  0.00    +0.000 A 
ATOM      4  C3  UNL     1      28.538  -9.621 -35.365  0.00  0.00    +0.000 A 
ATOM      5  C4  UNL     1      29.577  -9.626 -34.427  0.00  0.00    +0.000 A 
ATOM      6  C5  UNL     1      29.398  -9.099 -33.150  0.00  0.00    +0.000 A 
ATOM      7  C6  UNL     1      28.166  -8.552 -32.795  0.00  0.00    +0.000 A 
ATOM      8  C7  UNL     1      27.122  -8.495 -33.722  0.00  0.00    +0.000 A 
ATOM      9  O4  UNL     1      25.972  -7.962 -33.342  0.00  0.00    +0.000 OA
ATOM     10  C8  UNL     1      24.931  -7.819 -34.150  0.00  0.00    +0.000 A 
ATOM     11  C9  UNL     1      23.748  -7.284 -33.625  0.00  0.00    +0.000 A 
ATOM     12  C10 UNL     1      22.631  -7.124 -34.446  0.00  0.00    +0.000 A 
ATOM     13  C11 UNL     1      22.699  -7.464 -35.793  0.00  0.00    +0.000 A 
ATOM     14  C12 UNL     1      23.880  -7.964 -36.352  0.00  0.00    +0.000 A 
ATOM     15  C13 UNL     1      25.014  -8.201 -35.513  0.00  0.00    +0.000 A 
ENDROOT
BRANCH   4  16
ATOM     16  O2  UNL     1      28.797 -10.264 -36.579  0.00  0.00    +0.000 OA
ATOM     17  H1  UNL     1      29.666 -10.716 -36.819  0.00  0.00    +0.000 HD
ENDBRANCH   4  16
BRANCH   6  18
ATOM     18  O3  UNL     1      30.449  -9.137 -32.236  0.00  0.00    +0.000 OA
ATOM     19  H3  UNL     1      31.399  -9.333 -32.530  0.00  0.00    +0.000 HD
ENDBRANCH   6  18
BRANCH  11  20
ATOM     20  O5  UNL     1      23.690  -6.918 -32.281  0.00  0.00    +0.000 OA
ATOM     21  H5  UNL     1      22.806  -6.763 -31.811  0.00  0.00    +0.000 HD
ENDBRANCH  11  20
BRANCH  14  22
ATOM     22  O6  UNL     1      23.869  -8.177 -37.734  0.00  0.00    +0.000 OA
ATOM     23  H8  UNL     1      24.098  -9.049 -38.185  0.00  0.00    +0.000 HD
ENDBRANCH  14  22
TORSDOF 4
ENDMDL
MODEL 5
REMARK VINA RESULT:    -5.252      5.998      8.614
REMARK INTER + INTRA:          -5.867
REMARK INTER:                  -5.867
REMARK INTRA:                   0.000
REMARK UNBOUND:                 0.000
REMARK  Name = resultss/4CJN/ligands/lig_308_t0.pdb
REMARK  4 active torsions:
REMARK  status: ('A' for Active; 'I' for Inactive)
REMARK    1  A    between atoms: C3_4  and  O2_5
REMARK    2  A    between atoms: C5_7  and  O3_8
REMARK    3  A    between atoms: C9_13  and  O5_14
REMARK    4  A    between atoms: C12_17  and  O6_18
REMARK                            x       y       z     vdW  Elec       q    Type
REMARK                         _______ _______ _______ _____ _____    ______ ____
ROOT
ATOM      1  O1  UNL     1      23.338  -8.583 -42.689  0.00  0.00    +0.000 OA
ATOM      2  C1  UNL     1      24.532  -8.498 -43.067  0.00  0.00    +0.000 A 
ATOM      3  C2  UNL     1      25.574  -9.003 -42.245  0.00  0.00    +0.000 A 
ATOM      4  C3  UNL     1      25.374  -9.619 -40.969  0.00  0.00    +0.000 A 
ATOM      5  C4  UNL     1      26.460 -10.198 -40.303  0.00  0.00    +0.000 A 
ATOM      6  C5  UNL     1      27.749 -10.124 -40.826  0.00  0.00    +0.000 A 
ATOM      7  C6  UNL     1      27.967  -9.467 -42.037  0.00  0.00    +0.000 A 
ATOM      8  C7  UNL     1      26.897  -8.915 -42.745  0.00  0.00    +0.000 A 
ATOM      9  O4  UNL     1      27.150  -8.306 -43.893  0.00  0.00    +0.000 OA
ATOM     10  C8  UNL     1      26.209  -7.784 -44.666  0.00  0.00    +0.000 A 
ATOM     11  C9  UNL     1      26.598  -7.121 -45.837  0.00  0.00    +0.000 A 
ATOM     12  C10 UNL     1      25.634  -6.556 -46.671  0.00  0.00    +0.000 A 
ATOM     13  C11 UNL     1      24.284  -6.679 -46.363  0.00  0.00    +0.000 A 
ATOM     14  C12 UNL     1      23.864  -7.370 -45.221  0.00  0.00    +0.000 A 
ATOM     15  C13 UNL     1      24.839  -7.895 -44.315  0.00  0.00    +0.000 A 
ENDROOT
BRANCH   4  16
ATOM     16  O2  UNL     1      24.144  -9.668 -40.305  0.00  0.00    +0.000 OA
ATOM     17  H1  UNL     1      23.825  -8.990 -39.631  0.00  0.00    +0.000 HD
ENDBRANCH   4  16
BRANCH   6  18
ATOM     18  O3  UNL     1      28.810 -10.696 -40.127  0.00  0.00    +0.000 OA
ATOM     19  H3  UNL     1      28.989 -10.467 -39.156  0.00  0.00    +0.000 HD
ENDBRANCH   6  18
BRANCH  11  20
ATOM     20  O5  UNL     1      27.951  -7.023 -46.159  0.00  0.00    +0.000 OA
ATOM     21  H5  UNL     1      28.488  -6.189 -45.949  0.00  0.00    +0.000 HD
ENDBRANCH  11  20
BRANCH  14  22
ATOM     22  O6  UNL     1      22.484  -7.520 -45.061  0.00  0.00    +0.000 OA
ATOM     23  H8  UNL     1      21.858  -7.885 -45.762  0.00  0.00    +0.000 HD
ENDBRANCH  14  22
TORSDOF 4
ENDMDL
MODEL 6
REMARK VINA RESULT:    -5.182      2.088      3.941
REMARK INTER + INTRA:          -5.788
REMARK INTER:                  -5.788
REMARK INTRA:                   0.000
REMARK UNBOUND:                 0.000
REMARK  Name = resultss/4CJN/ligands/lig_308_t0.pdb
REMARK  4 active torsions:
REMARK  status: ('A' for Active; 'I' for Inactive)
REMARK    1  A    between atoms: C3_4  and  O2_5
REMARK    2  A    between atoms: C5_7  and  O3_8
REMARK    3  A    between atoms: C9_13  and  O5_14
REMARK    4  A    between atoms: C12_17  and  O6_18
REMARK                            x       y       z     vdW  Elec       q    Type
REMARK                         _______ _______ _______ _____ _____    ______ ____
ROOT
ATOM      1  O1  UNL     1      24.721  -8.669 -37.394  0.00  0.00    +0.000 OA
ATOM      2  C1  UNL     1      25.901  -9.076 -37.527  0.00  0.00    +0.000 A 
ATOM      3  C2  UNL     1      26.752  -9.165 -36.394  0.00  0.00    +0.000 A 
ATOM      4  C3  UNL     1      26.369  -8.811 -35.062  0.00  0.00    +0.000 A 
ATOM      5  C4  UNL     1      27.246  -9.062 -34.000  0.00  0.00    +0.000 A 
ATOM      6  C5  UNL     1      28.518  -9.585 -34.224  0.00  0.00    +0.000 A 
ATOM      7  C6  UNL     1      28.928  -9.872 -35.525  0.00  0.00    +0.000 A 
ATOM      8  C7  UNL     1      28.060  -9.671 -36.602  0.00  0.00    +0.000 A 
ATOM      9  O4  UNL     1      28.490  -9.962 -37.819  0.00  0.00    +0.000 OA
ATOM     10  C8  UNL     1      27.739  -9.851 -38.905  0.00  0.00    +0.000 A 
ATOM     11  C9  UNL     1      28.315 -10.142 -40.148  0.00  0.00    +0.000 A 
ATOM     12  C10 UNL     1      27.555 -10.031 -41.312  0.00  0.00    +0.000 A 
ATOM     13  C11 UNL     1      26.215  -9.664 -41.240  0.00  0.00    +0.000 A 
ATOM     14  C12 UNL     1      25.603  -9.405 -40.008  0.00  0.00    +0.000 A 
ATOM     15  C13 UNL     1      26.383  -9.445 -38.811  0.00  0.00    +0.000 A 
ENDROOT
BRANCH   4  16
ATOM     16  O2  UNL     1      25.159  -8.194 -34.731  0.00  0.00    +0.000 OA
ATOM     17  H1  UNL     1      24.486  -7.847 -35.397  0.00  0.00    +0.000 HD
ENDBRANCH   4  16
BRANCH   6  18
ATOM     18  O3  UNL     1      29.372  -9.804 -33.145  0.00  0.00    +0.000 OA
ATOM     19  H3  UNL     1      29.217  -9.358 -32.248  0.00  0.00    +0.000 HD
ENDBRANCH   6  18
BRANCH  11  20
ATOM     20  O5  UNL     1      29.650 -10.537 -40.216  0.00  0.00    +0.000 OA
ATOM     21  H5  UNL     1      30.172 -10.498 -41.084  0.00  0.00    +0.000 HD
ENDBRANCH  11  20
BRANCH  14  22
ATOM     22  O6  UNL     1      24.230  -9.144 -40.043  0.00  0.00    +0.000 OA
ATOM     23  H8  UNL     1      23.508  -9.842 -39.957  0.00  0.00    +0.000 HD
ENDBRANCH  14  22
TORSDOF 4
ENDMDL
MODEL 7
REMARK VINA RESULT:    -5.106      1.965      3.937
REMARK INTER + INTRA:          -5.704
REMARK INTER:                  -5.704
REMARK INTRA:                   0.000
REMARK UNBOUND:                 0.000
REMARK  Name = resultss/4CJN/ligands/lig_308_t0.pdb
REMARK  4 active torsions:
REMARK  status: ('A' for Active; 'I' for Inactive)
REMARK    1  A    between atoms: C3_4  and  O2_5
REMARK    2  A    between atoms: C5_7  and  O3_8
REMARK    3  A    between atoms: C9_13  and  O5_14
REMARK    4  A    between atoms: C12_17  and  O6_18
REMARK                            x       y       z     vdW  Elec       q    Type
REMARK                         _______ _______ _______ _____ _____    ______ ____
ROOT
ATOM      1  O1  UNL     1      28.054 -10.372 -37.022  0.00  0.00    +0.000 OA
ATOM      2  C1  UNL     1      27.007  -9.761 -37.349  0.00  0.00    +0.000 A 
ATOM      3  C2  UNL     1      26.142  -9.251 -36.346  0.00  0.00    +0.000 A 
ATOM      4  C3  UNL     1      26.364  -9.383 -34.939  0.00  0.00    +0.000 A 
ATOM      5  C4  UNL     1      25.514  -8.728 -34.040  0.00  0.00    +0.000 A 
ATOM      6  C5  UNL     1      24.410  -8.007 -34.489  0.00  0.00    +0.000 A 
ATOM      7  C6  UNL     1      24.145  -7.926 -35.855  0.00  0.00    +0.000 A 
ATOM      8  C7  UNL     1      24.998  -8.534 -36.779  0.00  0.00    +0.000 A 
ATOM      9  O4  UNL     1      24.710  -8.428 -38.066  0.00  0.00    +0.000 OA
ATOM     10  C8  UNL     1      25.470  -8.928 -39.028  0.00  0.00    +0.000 A 
ATOM     11  C9  UNL     1      25.041  -8.796 -40.356  0.00  0.00    +0.000 A 
ATOM     12  C10 UNL     1      25.815  -9.315 -41.393  0.00  0.00    +0.000 A 
ATOM     13  C11 UNL     1      27.029  -9.935 -41.118  0.00  0.00    +0.000 A 
ATOM     14  C12 UNL     1      27.501 -10.047 -39.805  0.00  0.00    +0.000 A 
ATOM     15  C13 UNL     1      26.690  -9.584 -38.722  0.00  0.00    +0.000 A 
ENDROOT
BRANCH   4  16
ATOM     16  O2  UNL     1      27.381 -10.158 -34.374  0.00  0.00    +0.000 OA
ATOM     17  H1  UNL     1      27.243 -11.040 -33.907  0.00  0.00    +0.000 HD
ENDBRANCH   4  16
BRANCH   6  18
ATOM     18  O3  UNL     1      23.574  -7.382 -33.564  0.00  0.00    +0.000 OA
ATOM     19  H3  UNL     1      23.009  -7.918 -32.915  0.00  0.00    +0.000 HD
ENDBRANCH   6  18
BRANCH  11  20
ATOM     20  O5  UNL     1      23.838  -8.149 -40.632  0.00  0.00    +0.000 OA
ATOM     21  H5  UNL     1      23.741  -7.521 -41.421  0.00  0.00    +0.000 HD
ENDBRANCH  11  20
BRANCH  14  22
ATOM     22  O6  UNL     1      28.777 -10.596 -39.651  0.00  0.00    +0.000 OA
ATOM     23  H8  UNL     1      29.560 -10.125 -39.224  0.00  0.00    +0.000 HD
ENDBRANCH  14  22
TORSDOF 4
ENDMDL
MODEL 8
REMARK VINA RESULT:    -5.074      5.941      8.684
REMARK INTER + INTRA:          -5.668
REMARK INTER:                  -5.668
REMARK INTRA:                   0.000
REMARK UNBOUND:                 0.000
REMARK  Name = resultss/4CJN/ligands/lig_308_t0.pdb
REMARK  4 active torsions:
REMARK  status: ('A' for Active; 'I' for Inactive)
REMARK    1  A    between atoms: C3_4  and  O2_5
REMARK    2  A    between atoms: C5_7  and  O3_8
REMARK    3  A    between atoms: C9_13  and  O5_14
REMARK    4  A    between atoms: C12_17  and  O6_18
REMARK                            x       y       z     vdW  Elec       q    Type
REMARK                         _______ _______ _______ _____ _____    ______ ____
ROOT
ATOM      1  O1  UNL     1      28.235  -7.768 -44.391  0.00  0.00    +0.000 OA
ATOM      2  C1  UNL     1      27.240  -8.206 -43.766  0.00  0.00    +0.000 A 
ATOM      3  C2  UNL     1      27.418  -9.154 -42.724  0.00  0.00    +0.000 A 
ATOM      4  C3  UNL     1      28.684  -9.679 -42.313  0.00  0.00    +0.000 A 
ATOM      5  C4  UNL     1      28.756 -10.510 -41.189  0.00  0.00    +0.000 A 
ATOM      6  C5  UNL     1      27.607 -10.894 -40.502  0.00  0.00    +0.000 A 
ATOM      7  C6  UNL     1      26.360 -10.442 -40.933  0.00  0.00    +0.000 A 
ATOM      8  C7  UNL     1      26.259  -9.579 -42.027  0.00  0.00    +0.000 A 
ATOM      9  O4  UNL     1      25.056  -9.171 -42.397  0.00  0.00    +0.000 OA
ATOM     10  C8  UNL     1      24.847  -8.322 -43.392  0.00  0.00    +0.000 A 
ATOM     11  C9  UNL     1      23.526  -7.997 -43.727  0.00  0.00    +0.000 A 
ATOM     12  C10 UNL     1      23.270  -7.109 -44.771  0.00  0.00    +0.000 A 
ATOM     13  C11 UNL     1      24.323  -6.518 -45.461  0.00  0.00    +0.000 A 
ATOM     14  C12 UNL     1      25.652  -6.794 -45.123  0.00  0.00    +0.000 A 
ATOM     15  C13 UNL     1      25.936  -7.755 -44.102  0.00  0.00    +0.000 A 
ENDROOT
BRANCH   4  16
ATOM     16  O2  UNL     1      29.888  -9.439 -42.982  0.00  0.00    +0.000 OA
ATOM     17  H1  UNL     1      30.554 -10.149 -43.245  0.00  0.00    +0.000 HD
ENDBRANCH   4  16
BRANCH   6  18
ATOM     18  O3  UNL     1      27.714 -11.737 -39.397  0.00  0.00    +0.000 OA
ATOM     19  H3  UNL     1      26.966 -11.818 -38.718  0.00  0.00    +0.000 HD
ENDBRANCH   6  18
BRANCH  11  20
ATOM     20  O5  UNL     1      22.472  -8.569 -43.016  0.00  0.00    +0.000 OA
ATOM     21  H5  UNL     1      22.611  -8.984 -42.102  0.00  0.00    +0.000 HD
ENDBRANCH  11  20
BRANCH  14  22
ATOM     22  O6  UNL     1      26.629  -6.069 -45.812  0.00  0.00    +0.000 OA
ATOM     23  H8  UNL     1      27.555  -5.873 -45.464  0.00  0.00    +0.000 HD
ENDBRANCH  14  22
TORSDOF 4
ENDMDL
MODEL 9
REMARK VINA RESULT:    -5.042      2.635      4.571
REMARK INTER + INTRA:          -5.632
REMARK INTER:                  -5.632
REMARK INTRA:                   0.000
REMARK UNBOUND:                 0.000
REMARK  Name = resultss/4CJN/ligands/lig_308_t0.pdb
REMARK  4 active torsions:
REMARK  status: ('A' for Active; 'I' for Inactive)
REMARK    1  A    between atoms: C3_4  and  O2_5
REMARK    2  A    between atoms: C5_7  and  O3_8
REMARK    3  A    between atoms: C9_13  and  O5_14
REMARK    4  A    between atoms: C12_17  and  O6_18
REMARK                            x       y       z     vdW  Elec       q    Type
REMARK                         _______ _______ _______ _____ _____    ______ ____
ROOT
ATOM      1  O1  UNL     1      25.259  -8.894 -39.945  0.00  0.00    +0.000 OA
ATOM      2  C1  UNL     1      26.427  -9.247 -39.653  0.00  0.00    +0.000 A 
ATOM      3  C2  UNL     1      26.815  -9.357 -38.291  0.00  0.00    +0.000 A 
ATOM      4  C3  UNL     1      25.958  -9.082 -37.179  0.00  0.00    +0.000 A 
ATOM      5  C4  UNL     1      26.404  -9.348 -35.880  0.00  0.00    +0.000 A 
ATOM      6  C5  UNL     1      27.697  -9.809 -35.643  0.00  0.00    +0.000 A 
ATOM      7  C6  UNL     1      28.565 -10.017 -36.714  0.00  0.00    +0.000 A 
ATOM      8  C7  UNL     1      28.135  -9.800 -38.025  0.00  0.00    +0.000 A 
ATOM      9  O4  UNL     1      28.991 -10.016 -39.012  0.00  0.00    +0.000 OA
ATOM     10  C8  UNL     1      28.678  -9.882 -40.292  0.00  0.00    +0.000 A 
ATOM     11  C9  UNL     1      29.679 -10.091 -41.249  0.00  0.00    +0.000 A 
ATOM     12  C10 UNL     1      29.386  -9.954 -42.606  0.00  0.00    +0.000 A 
ATOM     13  C11 UNL     1      28.093  -9.644 -43.014  0.00  0.00    +0.000 A 
ATOM     14  C12 UNL     1      27.064  -9.469 -42.082  0.00  0.00    +0.000 A 
ATOM     15  C13 UNL     1      27.360  -9.535 -40.684  0.00  0.00    +0.000 A 
ENDROOT
BRANCH   4  16
ATOM     16  O2  UNL     1      24.679  -8.529 -37.292  0.00  0.00    +0.000 OA
ATOM     17  H1  UNL     1      24.483  -7.553 -37.452  0.00  0.00    +0.000 HD
ENDBRANCH   4  16
BRANCH   6  18
ATOM     18  O3  UNL     1      28.114 -10.046 -34.334  0.00  0.00    +0.000 OA
ATOM     19  H3  UNL     1      27.452 -10.100 -33.569  0.00  0.00    +0.000 HD
ENDBRANCH   6  18
BRANCH  11  20
ATOM     20  O5  UNL     1      30.968 -10.429 -40.840  0.00  0.00    +0.000 OA
ATOM     21  H5  UNL     1      31.486 -11.179 -41.282  0.00  0.00    +0.000 HD
ENDBRANCH  11  20
BRANCH  14  22
ATOM     22  O6  UNL     1      25.785  -9.261 -42.605  0.00  0.00    +0.000 OA
ATOM     23  H8  UNL     1      25.575  -9.132 -43.583  0.00  0.00    +0.000 HD
ENDBRANCH  14  22
TORSDOF 4
ENDMDL
