MODEL 1
REMARK VINA RESULT:    -5.391      0.000      0.000
REMARK INTER + INTRA:          -6.084
REMARK INTER:                  -6.021
REMARK INTRA:                  -0.062
REMARK UNBOUND:                -0.062
REMARK  Name = resultss/4CJN/ligands/lig_291_t1.pdb
REMARK  4 active torsions:
REMARK  status: ('A' for Active; 'I' for Inactive)
REMARK    1  A    between atoms: C1_1  and  O1_2
REMARK    2  A    between atoms: O1_2  and  C2_3
REMARK    3  A    between atoms: C14_19  and  O6_20
REMARK    4  A    between atoms: O6_20  and  C15_21
REMARK                            x       y       z     vdW  Elec       q    Type
REMARK                         _______ _______ _______ _____ _____    ______ ____
ROOT
ATOM      1  C2  UNL     1      29.586  -9.967 -41.698  0.00  0.00    +0.000 A 
ATOM      2  C3  UNL     1      28.199  -9.885 -41.920  0.00  0.00    +0.000 A 
ATOM      3  C4  UNL     1      27.312  -9.782 -40.855  0.00  0.00    +0.000 A 
ATOM      4  C5  UNL     1      27.782  -9.761 -39.546  0.00  0.00    +0.000 A 
ATOM      5  O2  UNL     1      26.904  -9.663 -38.555  0.00  0.00    +0.000 OA
ATOM      6  C6  UNL     1      27.249  -9.638 -37.275  0.00  0.00    +0.000 A 
ATOM      7  C7  UNL     1      26.148  -9.496 -36.257  0.00  0.00    +0.000 C 
ATOM      8  C8  UNL     1      26.585  -9.968 -34.902  0.00  0.00    +0.000 C 
ATOM      9  O3  UNL     1      25.813 -10.593 -34.191  0.00  0.00    +0.000 OA
ATOM     10  C9  UNL     1      27.933  -9.571 -34.382  0.00  0.00    +0.000 C 
ATOM     11  C10 UNL     1      28.979  -9.687 -35.454  0.00  0.00    +0.000 C 
ATOM     12  O4  UNL     1      30.188  -9.729 -35.100  0.00  0.00    +0.000 OA
ATOM     13  C11 UNL     1      28.608  -9.708 -36.900  0.00  0.00    +0.000 A 
ATOM     14  C12 UNL     1      29.575  -9.814 -37.925  0.00  0.00    +0.000 A 
ATOM     15  O5  UNL     1      30.798  -9.883 -37.624  0.00  0.00    +0.000 OA
ATOM     16  C13 UNL     1      29.167  -9.842 -39.281  0.00  0.00    +0.000 A 
ATOM     17  C14 UNL     1      30.084  -9.946 -40.366  0.00  0.00    +0.000 A 
ENDROOT
BRANCH   1  19
ATOM     18  C1  UNL     1      31.018 -11.287 -43.283  0.00  0.00    +0.000 C 
ATOM     19  O1  UNL     1      30.474 -10.070 -42.780  0.00  0.00    +0.000 OA
ENDBRANCH   1  19
BRANCH  17  20
ATOM     20  O6  UNL     1      31.460 -10.025 -40.069  0.00  0.00    +0.000 OA
ATOM     21  C15 UNL     1      32.461  -9.055 -40.358  0.00  0.00    +0.000 C 
ENDBRANCH  17  20
TORSDOF 2
ENDMDL
MODEL 2
REMARK VINA RESULT:    -5.268      2.271      3.271
REMARK INTER + INTRA:          -5.947
REMARK INTER:                  -5.906
REMARK INTRA:                  -0.041
REMARK UNBOUND:                -0.062
REMARK  Name = resultss/4CJN/ligands/lig_291_t1.pdb
REMARK  4 active torsions:
REMARK  status: ('A' for Active; 'I' for Inactive)
REMARK    1  A    between atoms: C1_1  and  O1_2
REMARK    2  A    between atoms: O1_2  and  C2_3
REMARK    3  A    between atoms: C14_19  and  O6_20
REMARK    4  A    between atoms: O6_20  and  C15_21
REMARK                            x       y       z     vdW  Elec       q    Type
REMARK                         _______ _______ _______ _____ _____    ______ ____
ROOT
ATOM      1  C2  UNL     1      26.445  -9.008 -41.081  0.00  0.00    +0.000 A 
ATOM      2  C3  UNL     1      25.338  -8.142 -41.135  0.00  0.00    +0.000 A 
ATOM      3  C4  UNL     1      24.673  -7.761 -39.976  0.00  0.00    +0.000 A 
ATOM      4  C5  UNL     1      25.091  -8.233 -38.736  0.00  0.00    +0.000 A 
ATOM      5  O2  UNL     1      24.431  -7.848 -37.652  0.00  0.00    +0.000 OA
ATOM      6  C6  UNL     1      24.746  -8.244 -36.426  0.00  0.00    +0.000 A 
ATOM      7  C7  UNL     1      23.926  -7.706 -35.284  0.00  0.00    +0.000 C 
ATOM      8  C8  UNL     1      24.043  -8.570 -34.065  0.00  0.00    +0.000 C 
ATOM      9  O3  UNL     1      23.062  -8.785 -33.368  0.00  0.00    +0.000 OA
ATOM     10  C9  UNL     1      25.389  -9.076 -33.645  0.00  0.00    +0.000 C 
ATOM     11  C10 UNL     1      26.178  -9.554 -34.831  0.00  0.00    +0.000 C 
ATOM     12  O4  UNL     1      27.163 -10.313 -34.620  0.00  0.00    +0.000 OA
ATOM     13  C11 UNL     1      25.840  -9.111 -36.216  0.00  0.00    +0.000 A 
ATOM     14  C12 UNL     1      26.570  -9.545 -37.345  0.00  0.00    +0.000 A 
ATOM     15  O5  UNL     1      27.550 -10.325 -37.192  0.00  0.00    +0.000 OA
ATOM     16  C13 UNL     1      26.199  -9.105 -38.639  0.00  0.00    +0.000 A 
ATOM     17  C14 UNL     1      26.888  -9.499 -39.821  0.00  0.00    +0.000 A 
ENDROOT
BRANCH   1  19
ATOM     18  C1  UNL     1      27.350  -8.536 -43.375  0.00  0.00    +0.000 C 
ATOM     19  O1  UNL     1      27.112  -9.386 -42.257  0.00  0.00    +0.000 OA
ENDBRANCH   1  19
BRANCH  17  20
ATOM     20  O6  UNL     1      27.989 -10.370 -39.690  0.00  0.00    +0.000 OA
ATOM     21  C15 UNL     1      29.356 -10.077 -39.959  0.00  0.00    +0.000 C 
ENDBRANCH  17  20
TORSDOF 2
ENDMDL
MODEL 3
REMARK VINA RESULT:    -5.259      1.482      6.739
REMARK INTER + INTRA:          -5.936
REMARK INTER:                  -5.874
REMARK INTRA:                  -0.062
REMARK UNBOUND:                -0.062
REMARK  Name = resultss/4CJN/ligands/lig_291_t1.pdb
REMARK  4 active torsions:
REMARK  status: ('A' for Active; 'I' for Inactive)
REMARK    1  A    between atoms: C1_1  and  O1_2
REMARK    2  A    between atoms: O1_2  and  C2_3
REMARK    3  A    between atoms: C14_19  and  O6_20
REMARK    4  A    between atoms: O6_20  and  C15_21
REMARK                            x       y       z     vdW  Elec       q    Type
REMARK                         _______ _______ _______ _____ _____    ______ ____
ROOT
ATOM      1  C2  UNL     1      26.662  -9.416 -35.355  0.00  0.00    +0.000 A 
ATOM      2  C3  UNL     1      28.004  -9.723 -35.068  0.00  0.00    +0.000 A 
ATOM      3  C4  UNL     1      28.928  -9.907 -36.091  0.00  0.00    +0.000 A 
ATOM      4  C5  UNL     1      28.538  -9.790 -37.421  0.00  0.00    +0.000 A 
ATOM      5  O2  UNL     1      29.448  -9.973 -38.369  0.00  0.00    +0.000 OA
ATOM      6  C6  UNL     1      29.180  -9.888 -39.665  0.00  0.00    +0.000 A 
ATOM      7  C7  UNL     1      30.316 -10.092 -40.630  0.00  0.00    +0.000 C 
ATOM      8  C8  UNL     1      29.821 -10.458 -41.998  0.00  0.00    +0.000 C 
ATOM      9  O3  UNL     1      30.412 -11.296 -42.661  0.00  0.00    +0.000 OA
ATOM     10  C9  UNL     1      28.665  -9.711 -42.588  0.00  0.00    +0.000 C 
ATOM     11  C10 UNL     1      27.585  -9.495 -41.566  0.00  0.00    +0.000 C 
ATOM     12  O4  UNL     1      26.430  -9.202 -41.978  0.00  0.00    +0.000 OA
ATOM     13  C11 UNL     1      27.874  -9.579 -40.103  0.00  0.00    +0.000 A 
ATOM     14  C12 UNL     1      26.875  -9.378 -39.126  0.00  0.00    +0.000 A 
ATOM     15  O5  UNL     1      25.696  -9.106 -39.484  0.00  0.00    +0.000 OA
ATOM     16  C13 UNL     1      27.200  -9.482 -37.751  0.00  0.00    +0.000 A 
ATOM     17  C14 UNL     1      26.247  -9.292 -36.710  0.00  0.00    +0.000 A 
ENDROOT
BRANCH   1  19
ATOM     18  C1  UNL     1      25.803  -8.206 -33.329  0.00  0.00    +0.000 C 
ATOM     19  O1  UNL     1      25.736  -9.231 -34.316  0.00  0.00    +0.000 OA
ENDBRANCH   1  19
BRANCH  17  20
ATOM     20  O6  UNL     1      24.918  -8.985 -37.072  0.00  0.00    +0.000 OA
ATOM     21  C15 UNL     1      24.198  -7.794 -36.777  0.00  0.00    +0.000 C 
ENDBRANCH  17  20
TORSDOF 2
ENDMDL
MODEL 4
REMARK VINA RESULT:    -5.136      2.656      4.259
REMARK INTER + INTRA:          -5.798
REMARK INTER:                  -5.729
REMARK INTRA:                  -0.070
REMARK UNBOUND:                -0.062
REMARK  Name = resultss/4CJN/ligands/lig_291_t1.pdb
REMARK  4 active torsions:
REMARK  status: ('A' for Active; 'I' for Inactive)
REMARK    1  A    between atoms: C1_1  and  O1_2
REMARK    2  A    between atoms: O1_2  and  C2_3
REMARK    3  A    between atoms: C14_19  and  O6_20
REMARK    4  A    between atoms: O6_20  and  C15_21
REMARK                            x       y       z     vdW  Elec       q    Type
REMARK                         _______ _______ _______ _____ _____    ______ ____
ROOT
ATOM      1  C2  UNL     1      26.958  -9.644 -41.159  0.00  0.00    +0.000 A 
ATOM      2  C3  UNL     1      27.947 -10.453 -40.570  0.00  0.00    +0.000 A 
ATOM      3  C4  UNL     1      28.029 -10.588 -39.189  0.00  0.00    +0.000 A 
ATOM      4  C5  UNL     1      27.131  -9.921 -38.362  0.00  0.00    +0.000 A 
ATOM      5  O2  UNL     1      27.241 -10.073 -37.048  0.00  0.00    +0.000 OA
ATOM      6  C6  UNL     1      26.439  -9.479 -36.175  0.00  0.00    +0.000 A 
ATOM      7  C7  UNL     1      26.663  -9.764 -34.714  0.00  0.00    +0.000 C 
ATOM      8  C8  UNL     1      26.060  -8.701 -33.845  0.00  0.00    +0.000 C 
ATOM      9  O3  UNL     1      26.648  -8.319 -32.845  0.00  0.00    +0.000 OA
ATOM     10  C9  UNL     1      24.684  -8.192 -34.150  0.00  0.00    +0.000 C 
ATOM     11  C10 UNL     1      24.506  -7.973 -35.625  0.00  0.00    +0.000 C 
ATOM     12  O4  UNL     1      23.556  -7.235 -36.004  0.00  0.00    +0.000 OA
ATOM     13  C11 UNL     1      25.395  -8.641 -36.621  0.00  0.00    +0.000 A 
ATOM     14  C12 UNL     1      25.244  -8.451 -38.013  0.00  0.00    +0.000 A 
ATOM     15  O5  UNL     1      24.324  -7.703 -38.444  0.00  0.00    +0.000 OA
ATOM     16  C13 UNL     1      26.124  -9.099 -38.914  0.00  0.00    +0.000 A 
ATOM     17  C14 UNL     1      26.032  -8.956 -40.328  0.00  0.00    +0.000 A 
ENDROOT
BRANCH   1  19
ATOM     18  C1  UNL     1      27.523  -8.497 -43.320  0.00  0.00    +0.000 C 
ATOM     19  O1  UNL     1      26.883  -9.515 -42.555  0.00  0.00    +0.000 OA
ENDBRANCH   1  19
BRANCH  17  20
ATOM     20  O6  UNL     1      25.015  -8.128 -40.848  0.00  0.00    +0.000 OA
ATOM     21  C15 UNL     1      23.879  -8.531 -41.606  0.00  0.00    +0.000 C 
ENDBRANCH  17  20
TORSDOF 2
ENDMDL
MODEL 5
REMARK VINA RESULT:    -5.045      4.409      8.473
REMARK INTER + INTRA:          -5.697
REMARK INTER:                  -5.630
REMARK INTRA:                  -0.067
REMARK UNBOUND:                -0.062
REMARK  Name = resultss/4CJN/ligands/lig_291_t1.pdb
REMARK  4 active torsions:
REMARK  status: ('A' for Active; 'I' for Inactive)
REMARK    1  A    between atoms: C1_1  and  O1_2
REMARK    2  A    between atoms: O1_2  and  C2_3
REMARK    3  A    between atoms: C14_19  and  O6_20
REMARK    4  A    between atoms: O6_20  and  C15_21
REMARK                            x       y       z     vdW  Elec       q    Type
REMARK                         _______ _______ _______ _____ _____    ______ ____
ROOT
ATOM      1  C2  UNL     1      27.775 -10.076 -41.142  0.00  0.00    +0.000 A 
ATOM      2  C3  UNL     1      29.085  -9.855 -41.603  0.00  0.00    +0.000 A 
ATOM      3  C4  UNL     1      29.320  -9.099 -42.745  0.00  0.00    +0.000 A 
ATOM      4  C5  UNL     1      28.259  -8.545 -43.455  0.00  0.00    +0.000 A 
ATOM      5  O2  UNL     1      28.524  -7.829 -44.540  0.00  0.00    +0.000 OA
ATOM      6  C6  UNL     1      27.585  -7.263 -45.287  0.00  0.00    +0.000 A 
ATOM      7  C7  UNL     1      28.031  -6.455 -46.477  0.00  0.00    +0.000 C 
ATOM      8  C8  UNL     1      26.930  -6.297 -47.482  0.00  0.00    +0.000 C 
ATOM      9  O3  UNL     1      27.176  -6.356 -48.677  0.00  0.00    +0.000 OA
ATOM     10  C9  UNL     1      25.548  -5.957 -47.014  0.00  0.00    +0.000 C 
ATOM     11  C10 UNL     1      25.178  -6.758 -45.798  0.00  0.00    +0.000 C 
ATOM     12  O4  UNL     1      23.957  -6.848 -45.496  0.00  0.00    +0.000 OA
ATOM     13  C11 UNL     1      26.223  -7.394 -44.942  0.00  0.00    +0.000 A 
ATOM     14  C12 UNL     1      25.899  -8.150 -43.793  0.00  0.00    +0.000 A 
ATOM     15  O5  UNL     1      24.690  -8.291 -43.460  0.00  0.00    +0.000 OA
ATOM     16  C13 UNL     1      26.929  -8.743 -43.024  0.00  0.00    +0.000 A 
ATOM     17  C14 UNL     1      26.678  -9.517 -41.854  0.00  0.00    +0.000 A 
ENDROOT
BRANCH   1  19
ATOM     18  C1  UNL     1      27.803 -10.411 -38.653  0.00  0.00    +0.000 C 
ATOM     19  O1  UNL     1      27.546 -10.842 -39.987  0.00  0.00    +0.000 OA
ENDBRANCH   1  19
BRANCH  17  20
ATOM     20  O6  UNL     1      25.339  -9.697 -41.450  0.00  0.00    +0.000 OA
ATOM     21  C15 UNL     1      24.687  -9.097 -40.335  0.00  0.00    +0.000 C 
ENDBRANCH  17  20
TORSDOF 2
ENDMDL
MODEL 6
REMARK VINA RESULT:    -4.648      3.145      7.107
REMARK INTER + INTRA:          -5.254
REMARK INTER:                  -5.215
REMARK INTRA:                  -0.039
REMARK UNBOUND:                -0.062
REMARK  Name = resultss/4CJN/ligands/lig_291_t1.pdb
REMARK  4 active torsions:
REMARK  status: ('A' for Active; 'I' for Inactive)
REMARK    1  A    between atoms: C1_1  and  O1_2
REMARK    2  A    between atoms: O1_2  and  C2_3
REMARK    3  A    between atoms: C14_19  and  O6_20
REMARK    4  A    between atoms: O6_20  and  C15_21
REMARK                            x       y       z     vdW  Elec       q    Type
REMARK                         _______ _______ _______ _____ _____    ______ ____
ROOT
ATOM      1  C2  UNL     1      27.086  -8.540 -33.965  0.00  0.00    +0.000 A 
ATOM      2  C3  UNL     1      27.935  -9.583 -34.378  0.00  0.00    +0.000 A 
ATOM      3  C4  UNL     1      27.970  -9.991 -35.706  0.00  0.00    +0.000 A 
ATOM      4  C5  UNL     1      27.161  -9.372 -36.654  0.00  0.00    +0.000 A 
ATOM      5  O2  UNL     1      27.222  -9.788 -37.912  0.00  0.00    +0.000 OA
ATOM      6  C6  UNL     1      26.491  -9.268 -38.889  0.00  0.00    +0.000 A 
ATOM      7  C7  UNL     1      26.683  -9.821 -40.276  0.00  0.00    +0.000 C 
ATOM      8  C8  UNL     1      25.505  -9.526 -41.156  0.00  0.00    +0.000 C 
ATOM      9  O3  UNL     1      25.103 -10.366 -41.946  0.00  0.00    +0.000 OA
ATOM     10  C9  UNL     1      24.896  -8.157 -41.139  0.00  0.00    +0.000 C 
ATOM     11  C10 UNL     1      24.775  -7.639 -39.734  0.00  0.00    +0.000 C 
ATOM     12  O4  UNL     1      23.985  -6.680 -39.522  0.00  0.00    +0.000 OA
ATOM     13  C11 UNL     1      25.597  -8.209 -38.625  0.00  0.00    +0.000 A 
ATOM     14  C12 UNL     1      25.502  -7.736 -37.297  0.00  0.00    +0.000 A 
ATOM     15  O5  UNL     1      24.708  -6.794 -37.026  0.00  0.00    +0.000 OA
ATOM     16  C13 UNL     1      26.295  -8.321 -36.280  0.00  0.00    +0.000 A 
ATOM     17  C14 UNL     1      26.253  -7.896 -34.921  0.00  0.00    +0.000 A 
ENDROOT
BRANCH   1  19
ATOM     18  C1  UNL     1      28.191  -7.716 -31.866  0.00  0.00    +0.000 C 
ATOM     19  O1  UNL     1      27.058  -8.135 -32.621  0.00  0.00    +0.000 OA
ENDBRANCH   1  19
BRANCH  17  20
ATOM     20  O6  UNL     1      25.378  -6.844 -34.579  0.00  0.00    +0.000 OA
ATOM     21  C15 UNL     1      24.244  -6.911 -33.721  0.00  0.00    +0.000 C 
ENDBRANCH  17  20
TORSDOF 2
ENDMDL
MODEL 7
REMARK VINA RESULT:    -4.552      2.727      4.038
REMARK INTER + INTRA:          -5.146
REMARK INTER:                  -5.136
REMARK INTRA:                  -0.011
REMARK UNBOUND:                -0.062
REMARK  Name = resultss/4CJN/ligands/lig_291_t1.pdb
REMARK  4 active torsions:
REMARK  status: ('A' for Active; 'I' for Inactive)
REMARK    1  A    between atoms: C1_1  and  O1_2
REMARK    2  A    between atoms: O1_2  and  C2_3
REMARK    3  A    between atoms: C14_19  and  O6_20
REMARK    4  A    between atoms: O6_20  and  C15_21
REMARK                            x       y       z     vdW  Elec       q    Type
REMARK                         _______ _______ _______ _____ _____    ______ ____
ROOT
ATOM      1  C2  UNL     1      26.649  -9.272 -40.970  0.00  0.00    +0.000 A 
ATOM      2  C3  UNL     1      27.345 -10.463 -40.693  0.00  0.00    +0.000 A 
ATOM      3  C4  UNL     1      27.707 -10.791 -39.391  0.00  0.00    +0.000 A 
ATOM      4  C5  UNL     1      27.386  -9.943 -38.336  0.00  0.00    +0.000 A 
ATOM      5  O2  UNL     1      27.748 -10.290 -37.108  0.00  0.00    +0.000 OA
ATOM      6  C6  UNL     1      27.494  -9.552 -36.036  0.00  0.00    +0.000 A 
ATOM      7  C7  UNL     1      27.940 -10.082 -34.699  0.00  0.00    +0.000 C 
ATOM      8  C8  UNL     1      28.048  -8.988 -33.679  0.00  0.00    +0.000 C 
ATOM      9  O3  UNL     1      28.968  -8.986 -32.876  0.00  0.00    +0.000 OA
ATOM     10  C9  UNL     1      26.961  -7.961 -33.581  0.00  0.00    +0.000 C 
ATOM     11  C10 UNL     1      26.524  -7.507 -34.945  0.00  0.00    +0.000 C 
ATOM     12  O4  UNL     1      25.886  -6.423 -35.032  0.00  0.00    +0.000 OA
ATOM     13  C11 UNL     1      26.796  -8.331 -36.160  0.00  0.00    +0.000 A 
ATOM     14  C12 UNL     1      26.392  -7.925 -37.451  0.00  0.00    +0.000 A 
ATOM     15  O5  UNL     1      25.771  -6.837 -37.597  0.00  0.00    +0.000 OA
ATOM     16  C13 UNL     1      26.687  -8.739 -38.572  0.00  0.00    +0.000 A 
ATOM     17  C14 UNL     1      26.311  -8.395 -39.903  0.00  0.00    +0.000 A 
ENDROOT
BRANCH   1  19
ATOM     18  C1  UNL     1      25.101  -9.388 -42.944  0.00  0.00    +0.000 C 
ATOM     19  O1  UNL     1      26.287  -8.949 -42.287  0.00  0.00    +0.000 OA
ENDBRANCH   1  19
BRANCH  17  20
ATOM     20  O6  UNL     1      25.615  -7.185 -40.105  0.00  0.00    +0.000 OA
ATOM     21  C15 UNL     1      24.225  -7.025 -40.371  0.00  0.00    +0.000 C 
ENDBRANCH  17  20
TORSDOF 2
ENDMDL
MODEL 8
REMARK VINA RESULT:    -4.463      1.735      3.778
REMARK INTER + INTRA:          -5.047
REMARK INTER:                  -4.972
REMARK INTRA:                  -0.075
REMARK UNBOUND:                -0.062
REMARK  Name = resultss/4CJN/ligands/lig_291_t1.pdb
REMARK  4 active torsions:
REMARK  status: ('A' for Active; 'I' for Inactive)
REMARK    1  A    between atoms: C1_1  and  O1_2
REMARK    2  A    between atoms: O1_2  and  C2_3
REMARK    3  A    between atoms: C14_19  and  O6_20
REMARK    4  A    between atoms: O6_20  and  C15_21
REMARK                            x       y       z     vdW  Elec       q    Type
REMARK                         _______ _______ _______ _____ _____    ______ ____
ROOT
ATOM      1  C2  UNL     1      27.774  -9.902 -40.635  0.00  0.00    +0.000 A 
ATOM      2  C3  UNL     1      29.170 -10.006 -40.770  0.00  0.00    +0.000 A 
ATOM      3  C4  UNL     1      30.000  -9.954 -39.656  0.00  0.00    +0.000 A 
ATOM      4  C5  UNL     1      29.462  -9.796 -38.383  0.00  0.00    +0.000 A 
ATOM      5  O2  UNL     1      30.286  -9.750 -37.345  0.00  0.00    +0.000 OA
ATOM      6  C6  UNL     1      29.875  -9.599 -36.093  0.00  0.00    +0.000 A 
ATOM      7  C7  UNL     1      30.921  -9.591 -35.010  0.00  0.00    +0.000 C 
ATOM      8  C8  UNL     1      30.414  -8.939 -33.758  0.00  0.00    +0.000 C 
ATOM      9  O3  UNL     1      31.148  -8.217 -33.102  0.00  0.00    +0.000 OA
ATOM     10  C9  UNL     1      29.040  -9.268 -33.259  0.00  0.00    +0.000 C 
ATOM     11  C10 UNL     1      28.052  -9.308 -34.390  0.00  0.00    +0.000 C 
ATOM     12  O4  UNL     1      26.826  -9.224 -34.108  0.00  0.00    +0.000 OA
ATOM     13  C11 UNL     1      28.499  -9.486 -35.803  0.00  0.00    +0.000 A 
ATOM     14  C12 UNL     1      27.587  -9.530 -36.881  0.00  0.00    +0.000 A 
ATOM     15  O5  UNL     1      26.350  -9.426 -36.657  0.00  0.00    +0.000 OA
ATOM     16  C13 UNL     1      28.065  -9.688 -38.205  0.00  0.00    +0.000 A 
ATOM     17  C14 UNL     1      27.206  -9.741 -39.340  0.00  0.00    +0.000 A 
ENDROOT
BRANCH   1  19
ATOM     18  C1  UNL     1      26.907  -8.981 -42.804  0.00  0.00    +0.000 C 
ATOM     19  O1  UNL     1      26.943  -9.956 -41.765  0.00  0.00    +0.000 OA
ENDBRANCH   1  19
BRANCH  17  20
ATOM     20  O6  UNL     1      25.816  -9.629 -39.129  0.00  0.00    +0.000 OA
ATOM     21  C15 UNL     1      24.964  -8.567 -39.543  0.00  0.00    +0.000 C 
ENDBRANCH  17  20
TORSDOF 2
ENDMDL
MODEL 9
REMARK VINA RESULT:    -4.062      2.249      5.123
REMARK INTER + INTRA:          -4.599
REMARK INTER:                  -4.599
REMARK INTRA:                   0.000
REMARK UNBOUND:                -0.062
REMARK  Name = resultss/4CJN/ligands/lig_291_t1.pdb
REMARK  4 active torsions:
REMARK  status: ('A' for Active; 'I' for Inactive)
REMARK    1  A    between atoms: C1_1  and  O1_2
REMARK    2  A    between atoms: O1_2  and  C2_3
REMARK    3  A    between atoms: C14_19  and  O6_20
REMARK    4  A    between atoms: O6_20  and  C15_21
REMARK                            x       y       z     vdW  Elec       q    Type
REMARK                         _______ _______ _______ _____ _____    ______ ____
ROOT
ATOM      1  C2  UNL     1      25.254  -8.941 -41.363  0.00  0.00    +0.000 A 
ATOM      2  C3  UNL     1      26.007  -8.875 -42.549  0.00  0.00    +0.000 A 
ATOM      3  C4  UNL     1      27.389  -9.024 -42.525  0.00  0.00    +0.000 A 
ATOM      4  C5  UNL     1      28.053  -9.239 -41.322  0.00  0.00    +0.000 A 
ATOM      5  O2  UNL     1      29.373  -9.375 -41.338  0.00  0.00    +0.000 OA
ATOM      6  C6  UNL     1      30.100  -9.580 -40.248  0.00  0.00    +0.000 A 
ATOM      7  C7  UNL     1      31.586  -9.744 -40.418  0.00  0.00    +0.000 C 
ATOM      8  C8  UNL     1      32.322  -9.475 -39.139  0.00  0.00    +0.000 C 
ATOM      9  O3  UNL     1      33.384  -8.872 -39.157  0.00  0.00    +0.000 OA
ATOM     10  C9  UNL     1      31.802 -10.046 -37.855  0.00  0.00    +0.000 C 
ATOM     11  C10 UNL     1      30.310  -9.897 -37.764  0.00  0.00    +0.000 C 
ATOM     12  O4  UNL     1      29.772 -10.003 -36.629  0.00  0.00    +0.000 OA
ATOM     13  C11 UNL     1      29.478  -9.674 -38.984  0.00  0.00    +0.000 A 
ATOM     14  C12 UNL     1      28.073  -9.534 -38.922  0.00  0.00    +0.000 A 
ATOM     15  O5  UNL     1      27.487  -9.608 -37.808  0.00  0.00    +0.000 OA
ATOM     16  C13 UNL     1      27.333  -9.311 -40.109  0.00  0.00    +0.000 A 
ATOM     17  C14 UNL     1      25.916  -9.161 -40.124  0.00  0.00    +0.000 A 
ENDROOT
BRANCH   1  19
ATOM     18  C1  UNL     1      23.085  -8.570 -42.574  0.00  0.00    +0.000 C 
ATOM     19  O1  UNL     1      23.858  -8.790 -41.397  0.00  0.00    +0.000 OA
ENDBRANCH   1  19
BRANCH  17  20
ATOM     20  O6  UNL     1      25.226  -9.238 -38.897  0.00  0.00    +0.000 OA
ATOM     21  C15 UNL     1      24.671  -8.160 -38.151  0.00  0.00    +0.000 C 
ENDBRANCH  17  20
TORSDOF 2
ENDMDL
