MODEL 1
REMARK VINA RESULT:    -5.791      0.000      0.000
REMARK INTER + INTRA:          -7.963
REMARK INTER:                  -7.314
REMARK INTRA:                  -0.649
REMARK UNBOUND:                -0.649
REMARK  Name = resultss/4CJN/ligands/lig_386_t0.pdb
REMARK  6 active torsions:
REMARK  status: ('A' for Active; 'I' for Inactive)
REMARK    1  A    between atoms: C1_1  and  C2_2
REMARK    2  A    between atoms: C2_2  and  N1_3
REMARK    3  A    between atoms: C5_7  and  C6_8
REMARK    4  A    between atoms: N2_17  and  C13_18
REMARK    5  A    between atoms: C16_21  and  S2_22
REMARK    6  A    between atoms: S2_22  and  N3_23
REMARK                            x       y       z     vdW  Elec       q    Type
REMARK                         _______ _______ _______ _____ _____    ______ ____
ROOT
ATOM      1  N1  UNL     1      27.569  -8.165 -38.798  0.00  0.00    +0.000 N 
ATOM      2  C3  UNL     1      27.627  -8.092 -40.219  0.00  0.00    +0.000 C 
ATOM      3  O1  UNL     1      27.651  -6.994 -40.836  0.00  0.00    +0.000 OA
ATOM      4  C4  UNL     1      27.754  -9.402 -40.866  0.00  0.00    +0.000 C 
ATOM      5  C5  UNL     1      27.569  -9.686 -42.163  0.00  0.00    +0.000 C 
ATOM      6  S1  UNL     1      28.187 -10.673 -39.679  0.00  0.00    +0.000 S 
ATOM      7  C12 UNL     1      27.597  -9.546 -38.413  0.00  0.00    +0.000 C 
ATOM      8  N2  UNL     1      27.005 -10.013 -37.352  0.00  0.00    +0.000 NA
ENDROOT
BRANCH   5   9
ATOM      9  C6  UNL     1      27.088  -8.727 -43.177  0.00  0.00    +0.000 A 
ATOM     10  C7  UNL     1      25.713  -8.489 -43.361  0.00  0.00    +0.000 A 
ATOM     11  C8  UNL     1      25.277  -7.612 -44.358  0.00  0.00    +0.000 A 
ATOM     12  C9  UNL     1      26.206  -6.981 -45.193  0.00  0.00    +0.000 A 
ATOM     13 CL1  UNL     1      25.657  -5.883 -46.445  0.00  0.00    +0.000 Cl
ATOM     14  C10 UNL     1      27.572  -7.238 -45.036  0.00  0.00    +0.000 A 
ATOM     15  C11 UNL     1      28.010  -8.116 -44.038  0.00  0.00    +0.000 A 
ENDBRANCH   5   9
BRANCH   8  16
ATOM     16  C13 UNL     1      26.212  -9.276 -36.411  0.00  0.00    +0.000 A 
ATOM     17  C14 UNL     1      25.053  -8.589 -36.811  0.00  0.00    +0.000 A 
ATOM     18  C15 UNL     1      24.277  -7.908 -35.867  0.00  0.00    +0.000 A 
ATOM     19  C16 UNL     1      24.634  -7.932 -34.513  0.00  0.00    +0.000 A 
ATOM     20  C17 UNL     1      25.773  -8.642 -34.109  0.00  0.00    +0.000 A 
ATOM     21  C18 UNL     1      26.549  -9.321 -35.054  0.00  0.00    +0.000 A 
BRANCH  19  22
ATOM     22  S2  UNL     1      23.665  -7.061 -33.330  0.00  0.00    +0.000 S 
ATOM     23  O2  UNL     1      24.481  -5.956 -32.719  0.00  0.00    +0.000 OA
ATOM     24  O3  UNL     1      22.462  -6.457 -34.000  0.00  0.00    +0.000 OA
BRANCH  22  25
ATOM     25  N3  UNL     1      23.148  -8.154 -32.094  0.00  0.00    +0.000 NA
ATOM     26  H13 UNL     1      23.977  -8.343 -31.487  0.00  0.00    +0.000 HD
ATOM     27  H14 UNL     1      22.907  -9.055 -32.565  0.00  0.00    +0.000 HD
ENDBRANCH  22  25
ENDBRANCH  19  22
ENDBRANCH   8  16
BRANCH   1  29
ATOM     28  C1  UNL     1      29.477  -7.376 -37.454  0.00  0.00    +0.000 C 
ATOM     29  C2  UNL     1      28.065  -7.076 -37.948  0.00  0.00    +0.000 C 
ENDBRANCH   1  29
TORSDOF 5
ENDMDL
MODEL 2
REMARK VINA RESULT:    -5.645      4.464      9.029
REMARK INTER + INTRA:          -7.779
REMARK INTER:                  -7.028
REMARK INTRA:                  -0.751
REMARK UNBOUND:                -0.649
REMARK  Name = resultss/4CJN/ligands/lig_386_t0.pdb
REMARK  6 active torsions:
REMARK  status: ('A' for Active; 'I' for Inactive)
REMARK    1  A    between atoms: C1_1  and  C2_2
REMARK    2  A    between atoms: C2_2  and  N1_3
REMARK    3  A    between atoms: C5_7  and  C6_8
REMARK    4  A    between atoms: N2_17  and  C13_18
REMARK    5  A    between atoms: C16_21  and  S2_22
REMARK    6  A    between atoms: S2_22  and  N3_23
REMARK                            x       y       z     vdW  Elec       q    Type
REMARK                         _______ _______ _______ _____ _____    ______ ____
ROOT
ATOM      1  N1  UNL     1      27.479  -7.961 -39.678  0.00  0.00    +0.000 N 
ATOM      2  C3  UNL     1      26.993  -7.764 -38.354  0.00  0.00    +0.000 C 
ATOM      3  O1  UNL     1      27.658  -7.150 -37.478  0.00  0.00    +0.000 OA
ATOM      4  C4  UNL     1      25.625  -8.253 -38.154  0.00  0.00    +0.000 C 
ATOM      5  C5  UNL     1      24.997  -8.451 -36.986  0.00  0.00    +0.000 C 
ATOM      6  S1  UNL     1      24.826  -8.602 -39.721  0.00  0.00    +0.000 S 
ATOM      7  C12 UNL     1      26.474  -8.653 -40.431  0.00  0.00    +0.000 C 
ATOM      8  N2  UNL     1      26.738  -9.480 -41.401  0.00  0.00    +0.000 NA
ENDROOT
BRANCH   5   9
ATOM      9  C6  UNL     1      25.625  -8.312 -35.657  0.00  0.00    +0.000 A 
ATOM     10  C7  UNL     1      25.463  -7.141 -34.894  0.00  0.00    +0.000 A 
ATOM     11  C8  UNL     1      26.104  -7.012 -33.658  0.00  0.00    +0.000 A 
ATOM     12  C9  UNL     1      26.928  -8.038 -33.184  0.00  0.00    +0.000 A 
ATOM     13 CL1  UNL     1      27.734  -7.873 -31.636  0.00  0.00    +0.000 Cl
ATOM     14  C10 UNL     1      27.118  -9.191 -33.953  0.00  0.00    +0.000 A 
ATOM     15  C11 UNL     1      26.477  -9.322 -35.190  0.00  0.00    +0.000 A 
ENDBRANCH   5   9
BRANCH   8  16
ATOM     16  C13 UNL     1      28.034  -9.875 -41.870  0.00  0.00    +0.000 A 
ATOM     17  C14 UNL     1      28.643  -9.236 -42.964  0.00  0.00    +0.000 A 
ATOM     18  C15 UNL     1      29.923  -9.615 -43.378  0.00  0.00    +0.000 A 
ATOM     19  C16 UNL     1      30.621 -10.614 -42.686  0.00  0.00    +0.000 A 
ATOM     20  C17 UNL     1      30.026 -11.232 -41.577  0.00  0.00    +0.000 A 
ATOM     21  C18 UNL     1      28.745 -10.852 -41.165  0.00  0.00    +0.000 A 
BRANCH  19  22
ATOM     22  S2  UNL     1      32.226 -11.101 -43.220  0.00  0.00    +0.000 S 
ATOM     23  O2  UNL     1      32.412 -10.735 -44.666  0.00  0.00    +0.000 OA
ATOM     24  O3  UNL     1      33.271 -10.393 -42.405  0.00  0.00    +0.000 OA
BRANCH  22  25
ATOM     25  N3  UNL     1      32.401 -12.809 -43.025  0.00  0.00    +0.000 NA
ATOM     26  H13 UNL     1      32.029 -13.049 -42.079  0.00  0.00    +0.000 HD
ATOM     27  H14 UNL     1      33.426 -13.011 -43.006  0.00  0.00    +0.000 HD
ENDBRANCH  22  25
ENDBRANCH  19  22
ENDBRANCH   8  16
BRANCH   1  29
ATOM     28  C1  UNL     1      29.885  -7.497 -39.925  0.00  0.00    +0.000 C 
ATOM     29  C2  UNL     1      28.467  -7.060 -40.281  0.00  0.00    +0.000 C 
ENDBRANCH   1  29
TORSDOF 5
ENDMDL
MODEL 3
REMARK VINA RESULT:    -5.519      2.419      2.795
REMARK INTER + INTRA:          -7.619
REMARK INTER:                  -6.754
REMARK INTRA:                  -0.865
REMARK UNBOUND:                -0.649
REMARK  Name = resultss/4CJN/ligands/lig_386_t0.pdb
REMARK  6 active torsions:
REMARK  status: ('A' for Active; 'I' for Inactive)
REMARK    1  A    between atoms: C1_1  and  C2_2
REMARK    2  A    between atoms: C2_2  and  N1_3
REMARK    3  A    between atoms: C5_7  and  C6_8
REMARK    4  A    between atoms: N2_17  and  C13_18
REMARK    5  A    between atoms: C16_21  and  S2_22
REMARK    6  A    between atoms: S2_22  and  N3_23
REMARK                            x       y       z     vdW  Elec       q    Type
REMARK                         _______ _______ _______ _____ _____    ______ ____
ROOT
ATOM      1  N1  UNL     1      27.663  -8.708 -39.057  0.00  0.00    +0.000 N 
ATOM      2  C3  UNL     1      26.936  -8.609 -40.277  0.00  0.00    +0.000 C 
ATOM      3  O1  UNL     1      26.771  -7.512 -40.875  0.00  0.00    +0.000 OA
ATOM      4  C4  UNL     1      26.497  -9.905 -40.803  0.00  0.00    +0.000 C 
ATOM      5  C5  UNL     1      25.589 -10.125 -41.765  0.00  0.00    +0.000 C 
ATOM      6  S1  UNL     1      27.328 -11.258 -39.970  0.00  0.00    +0.000 S 
ATOM      7  C12 UNL     1      27.702 -10.086 -38.663  0.00  0.00    +0.000 C 
ATOM      8  N2  UNL     1      27.735 -10.484 -37.423  0.00  0.00    +0.000 NA
ENDROOT
BRANCH   5   9
ATOM      9  C6  UNL     1      24.770  -9.078 -42.407  0.00  0.00    +0.000 A 
ATOM     10  C7  UNL     1      23.553  -8.655 -41.841  0.00  0.00    +0.000 A 
ATOM     11  C8  UNL     1      22.771  -7.695 -42.490  0.00  0.00    +0.000 A 
ATOM     12  C9  UNL     1      23.184  -7.166 -43.717  0.00  0.00    +0.000 A 
ATOM     13 CL1  UNL     1      22.200  -5.965 -44.531  0.00  0.00    +0.000 Cl
ATOM     14  C10 UNL     1      24.377  -7.606 -44.300  0.00  0.00    +0.000 A 
ATOM     15  C11 UNL     1      25.161  -8.566 -43.652  0.00  0.00    +0.000 A 
ENDBRANCH   5   9
BRANCH   8  16
ATOM     16  C13 UNL     1      27.707  -9.657 -36.251  0.00  0.00    +0.000 A 
ATOM     17  C14 UNL     1      26.506  -9.106 -35.773  0.00  0.00    +0.000 A 
ATOM     18  C15 UNL     1      26.501  -8.335 -34.607  0.00  0.00    +0.000 A 
ATOM     19  C16 UNL     1      27.687  -8.130 -33.891  0.00  0.00    +0.000 A 
ATOM     20  C17 UNL     1      28.881  -8.704 -34.353  0.00  0.00    +0.000 A 
ATOM     21  C18 UNL     1      28.885  -9.475 -35.519  0.00  0.00    +0.000 A 
BRANCH  19  22
ATOM     22  S2  UNL     1      27.681  -7.145 -32.433  0.00  0.00    +0.000 S 
ATOM     23  O2  UNL     1      27.974  -8.006 -31.237  0.00  0.00    +0.000 OA
ATOM     24  O3  UNL     1      28.738  -6.080 -32.532  0.00  0.00    +0.000 OA
BRANCH  22  25
ATOM     25  N3  UNL     1      26.131  -6.403 -32.250  0.00  0.00    +0.000 NA
ATOM     26  H13 UNL     1      26.269  -5.541 -31.675  0.00  0.00    +0.000 HD
ATOM     27  H14 UNL     1      25.545  -7.054 -31.680  0.00  0.00    +0.000 HD
ENDBRANCH  22  25
ENDBRANCH  19  22
ENDBRANCH   8  16
BRANCH   1  29
ATOM     28  C1  UNL     1      28.077  -6.548 -37.947  0.00  0.00    +0.000 C 
ATOM     29  C2  UNL     1      28.694  -7.730 -38.690  0.00  0.00    +0.000 C 
ENDBRANCH   1  29
TORSDOF 5
ENDMDL
MODEL 4
REMARK VINA RESULT:    -5.334      3.490      4.104
REMARK INTER + INTRA:          -7.386
REMARK INTER:                  -6.556
REMARK INTRA:                  -0.830
REMARK UNBOUND:                -0.649
REMARK  Name = resultss/4CJN/ligands/lig_386_t0.pdb
REMARK  6 active torsions:
REMARK  status: ('A' for Active; 'I' for Inactive)
REMARK    1  A    between atoms: C1_1  and  C2_2
REMARK    2  A    between atoms: C2_2  and  N1_3
REMARK    3  A    between atoms: C5_7  and  C6_8
REMARK    4  A    between atoms: N2_17  and  C13_18
REMARK    5  A    between atoms: C16_21  and  S2_22
REMARK    6  A    between atoms: S2_22  and  N3_23
REMARK                            x       y       z     vdW  Elec       q    Type
REMARK                         _______ _______ _______ _____ _____    ______ ____
ROOT
ATOM      1  N1  UNL     1      28.997  -8.171 -39.691  0.00  0.00    +0.000 N 
ATOM      2  C3  UNL     1      28.048  -8.101 -40.750  0.00  0.00    +0.000 C 
ATOM      3  O1  UNL     1      27.243  -7.138 -40.870  0.00  0.00    +0.000 OA
ATOM      4  C4  UNL     1      28.172  -9.193 -41.721  0.00  0.00    +0.000 C 
ATOM      5  C5  UNL     1      27.283  -9.550 -42.659  0.00  0.00    +0.000 C 
ATOM      6  S1  UNL     1      29.718 -10.076 -41.508  0.00  0.00    +0.000 S 
ATOM      7  C12 UNL     1      29.781  -9.359 -39.864  0.00  0.00    +0.000 C 
ATOM      8  N2  UNL     1      30.289 -10.040 -38.878  0.00  0.00    +0.000 NA
ENDROOT
BRANCH   5   9
ATOM      9  C6  UNL     1      25.939  -8.960 -42.814  0.00  0.00    +0.000 A 
ATOM     10  C7  UNL     1      24.838  -9.452 -42.089  0.00  0.00    +0.000 A 
ATOM     11  C8  UNL     1      23.565  -8.910 -42.286  0.00  0.00    +0.000 A 
ATOM     12  C9  UNL     1      23.375  -7.888 -43.222  0.00  0.00    +0.000 A 
ATOM     13 CL1  UNL     1      21.776  -7.211 -43.470  0.00  0.00    +0.000 Cl
ATOM     14  C10 UNL     1      24.459  -7.415 -43.969  0.00  0.00    +0.000 A 
ATOM     15  C11 UNL     1      25.734  -7.957 -43.773  0.00  0.00    +0.000 A 
ENDBRANCH   5   9
BRANCH   8  16
ATOM     16  C13 UNL     1      30.146  -9.768 -37.477  0.00  0.00    +0.000 A 
ATOM     17  C14 UNL     1      28.926  -9.979 -36.811  0.00  0.00    +0.000 A 
ATOM     18  C15 UNL     1      28.824  -9.740 -35.437  0.00  0.00    +0.000 A 
ATOM     19  C16 UNL     1      29.944  -9.318 -34.709  0.00  0.00    +0.000 A 
ATOM     20  C17 UNL     1      31.168  -9.135 -35.368  0.00  0.00    +0.000 A 
ATOM     21  C18 UNL     1      31.269  -9.373 -36.742  0.00  0.00    +0.000 A 
BRANCH  19  22
ATOM     22  S2  UNL     1      29.807  -9.002 -32.983  0.00  0.00    +0.000 S 
ATOM     23  O2  UNL     1      28.381  -8.676 -32.638  0.00  0.00    +0.000 OA
ATOM     24  O3  UNL     1      30.226 -10.219 -32.207  0.00  0.00    +0.000 OA
BRANCH  22  25
ATOM     25  N3  UNL     1      30.826  -7.671 -32.561  0.00  0.00    +0.000 NA
ATOM     26  H13 UNL     1      30.407  -6.816 -32.993  0.00  0.00    +0.000 HD
ATOM     27  H14 UNL     1      31.745  -7.828 -33.033  0.00  0.00    +0.000 HD
ENDBRANCH  22  25
ENDBRANCH  19  22
ENDBRANCH   8  16
BRANCH   1  29
ATOM     28  C1  UNL     1      30.841  -6.543 -39.576  0.00  0.00    +0.000 C 
ATOM     29  C2  UNL     1      29.488  -6.967 -39.012  0.00  0.00    +0.000 C 
ENDBRANCH   1  29
TORSDOF 5
ENDMDL
MODEL 5
REMARK VINA RESULT:    -5.187      4.729      5.669
REMARK INTER + INTRA:          -7.200
REMARK INTER:                  -6.416
REMARK INTRA:                  -0.784
REMARK UNBOUND:                -0.649
REMARK  Name = resultss/4CJN/ligands/lig_386_t0.pdb
REMARK  6 active torsions:
REMARK  status: ('A' for Active; 'I' for Inactive)
REMARK    1  A    between atoms: C1_1  and  C2_2
REMARK    2  A    between atoms: C2_2  and  N1_3
REMARK    3  A    between atoms: C5_7  and  C6_8
REMARK    4  A    between atoms: N2_17  and  C13_18
REMARK    5  A    between atoms: C16_21  and  S2_22
REMARK    6  A    between atoms: S2_22  and  N3_23
REMARK                            x       y       z     vdW  Elec       q    Type
REMARK                         _______ _______ _______ _____ _____    ______ ____
ROOT
ATOM      1  N1  UNL     1      31.011  -8.678 -40.299  0.00  0.00    +0.000 N 
ATOM      2  C3  UNL     1      31.658  -9.364 -41.366  0.00  0.00    +0.000 C 
ATOM      3  O1  UNL     1      31.100  -9.553 -42.481  0.00  0.00    +0.000 OA
ATOM      4  C4  UNL     1      33.046  -9.730 -41.070  0.00  0.00    +0.000 C 
ATOM      5  C5  UNL     1      33.819 -10.594 -41.745  0.00  0.00    +0.000 C 
ATOM      6  S1  UNL     1      33.646  -8.874 -39.614  0.00  0.00    +0.000 S 
ATOM      7  C12 UNL     1      31.923  -8.596 -39.195  0.00  0.00    +0.000 C 
ATOM      8  N2  UNL     1      31.549  -8.591 -37.948  0.00  0.00    +0.000 NA
ENDROOT
BRANCH   5   9
ATOM      9  C6  UNL     1      33.363 -11.432 -42.871  0.00  0.00    +0.000 A 
ATOM     10  C7  UNL     1      32.535 -12.550 -42.659  0.00  0.00    +0.000 A 
ATOM     11  C8  UNL     1      32.153 -13.357 -43.734  0.00  0.00    +0.000 A 
ATOM     12  C9  UNL     1      32.609 -13.069 -45.025  0.00  0.00    +0.000 A 
ATOM     13 CL1  UNL     1      32.131 -14.085 -46.372  0.00  0.00    +0.000 Cl
ATOM     14  C10 UNL     1      33.458 -11.978 -45.237  0.00  0.00    +0.000 A 
ATOM     15  C11 UNL     1      33.842 -11.169 -44.162  0.00  0.00    +0.000 A 
ENDBRANCH   5   9
BRANCH   8  16
ATOM     16  C13 UNL     1      30.209  -8.694 -37.448  0.00  0.00    +0.000 A 
ATOM     17  C14 UNL     1      29.570  -9.940 -37.318  0.00  0.00    +0.000 A 
ATOM     18  C15 UNL     1      28.277 -10.016 -36.794  0.00  0.00    +0.000 A 
ATOM     19  C16 UNL     1      27.620  -8.855 -36.366  0.00  0.00    +0.000 A 
ATOM     20  C17 UNL     1      28.268  -7.616 -36.468  0.00  0.00    +0.000 A 
ATOM     21  C18 UNL     1      29.561  -7.540 -36.994  0.00  0.00    +0.000 A 
BRANCH  19  22
ATOM     22  S2  UNL     1      25.985  -8.953 -35.721  0.00  0.00    +0.000 S 
ATOM     23  O2  UNL     1      25.737  -7.800 -34.789  0.00  0.00    +0.000 OA
ATOM     24  O3  UNL     1      24.988  -8.887 -36.845  0.00  0.00    +0.000 OA
BRANCH  22  25
ATOM     25  N3  UNL     1      25.793 -10.443 -34.867  0.00  0.00    +0.000 NA
ATOM     26  H13 UNL     1      24.842 -10.429 -34.436  0.00  0.00    +0.000 HD
ATOM     27  H14 UNL     1      26.481 -10.435 -34.081  0.00  0.00    +0.000 HD
ENDBRANCH  22  25
ENDBRANCH  19  22
ENDBRANCH   8  16
BRANCH   1  29
ATOM     28  C1  UNL     1      28.580  -8.388 -40.571  0.00  0.00    +0.000 C 
ATOM     29  C2  UNL     1      29.943  -7.702 -40.543  0.00  0.00    +0.000 C 
ENDBRANCH   1  29
TORSDOF 5
ENDMDL
MODEL 6
REMARK VINA RESULT:    -5.164      3.555      4.063
REMARK INTER + INTRA:          -7.170
REMARK INTER:                  -6.355
REMARK INTRA:                  -0.815
REMARK UNBOUND:                -0.649
REMARK  Name = resultss/4CJN/ligands/lig_386_t0.pdb
REMARK  6 active torsions:
REMARK  status: ('A' for Active; 'I' for Inactive)
REMARK    1  A    between atoms: C1_1  and  C2_2
REMARK    2  A    between atoms: C2_2  and  N1_3
REMARK    3  A    between atoms: C5_7  and  C6_8
REMARK    4  A    between atoms: N2_17  and  C13_18
REMARK    5  A    between atoms: C16_21  and  S2_22
REMARK    6  A    between atoms: S2_22  and  N3_23
REMARK                            x       y       z     vdW  Elec       q    Type
REMARK                         _______ _______ _______ _____ _____    ______ ____
ROOT
ATOM      1  N1  UNL     1      30.033  -8.103 -39.798  0.00  0.00    +0.000 N 
ATOM      2  C3  UNL     1      29.245  -8.016 -40.981  0.00  0.00    +0.000 C 
ATOM      3  O1  UNL     1      28.471  -7.047 -41.204  0.00  0.00    +0.000 OA
ATOM      4  C4  UNL     1      29.501  -9.100 -41.935  0.00  0.00    +0.000 C 
ATOM      5  C5  UNL     1      28.753  -9.442 -42.994  0.00  0.00    +0.000 C 
ATOM      6  S1  UNL     1      30.996  -9.995 -41.514  0.00  0.00    +0.000 S 
ATOM      7  C12 UNL     1      30.828  -9.295 -39.870  0.00  0.00    +0.000 C 
ATOM      8  N2  UNL     1      31.187  -9.988 -38.828  0.00  0.00    +0.000 NA
ENDROOT
BRANCH   5   9
ATOM      9  C6  UNL     1      27.447  -8.842 -43.333  0.00  0.00    +0.000 A 
ATOM     10  C7  UNL     1      26.250  -9.346 -42.791  0.00  0.00    +0.000 A 
ATOM     11  C8  UNL     1      25.022  -8.792 -43.162  0.00  0.00    +0.000 A 
ATOM     12  C9  UNL     1      24.974  -7.748 -44.091  0.00  0.00    +0.000 A 
ATOM     13 CL1  UNL     1      23.431  -7.057 -44.558  0.00  0.00    +0.000 Cl
ATOM     14  C10 UNL     1      26.158  -7.264 -44.657  0.00  0.00    +0.000 A 
ATOM     15  C11 UNL     1      27.389  -7.816 -44.287  0.00  0.00    +0.000 A 
ENDBRANCH   5   9
BRANCH   8  16
ATOM     16  C13 UNL     1      30.848  -9.728 -37.459  0.00  0.00    +0.000 A 
ATOM     17  C14 UNL     1      31.762  -9.123 -36.581  0.00  0.00    +0.000 A 
ATOM     18  C15 UNL     1      31.393  -8.847 -35.261  0.00  0.00    +0.000 A 
ATOM     19  C16 UNL     1      30.099  -9.145 -34.813  0.00  0.00    +0.000 A 
ATOM     20  C17 UNL     1      29.178  -9.723 -35.698  0.00  0.00    +0.000 A 
ATOM     21  C18 UNL     1      29.548 -10.000 -37.017  0.00  0.00    +0.000 A 
BRANCH  19  22
ATOM     22  S2  UNL     1      29.643  -8.812 -33.147  0.00  0.00    +0.000 S 
ATOM     23  O2  UNL     1      29.965 -10.000 -32.285  0.00  0.00    +0.000 OA
ATOM     24  O3  UNL     1      30.408  -7.623 -32.635  0.00  0.00    +0.000 OA
BRANCH  22  25
ATOM     25  N3  UNL     1      27.948  -8.482 -33.071  0.00  0.00    +0.000 NA
ATOM     26  H13 UNL     1      27.456  -9.404 -33.063  0.00  0.00    +0.000 HD
ATOM     27  H14 UNL     1      27.688  -8.009 -33.966  0.00  0.00    +0.000 HD
ENDBRANCH  22  25
ENDBRANCH  19  22
ENDBRANCH   8  16
BRANCH   1  29
ATOM     28  C1  UNL     1      29.342  -6.512 -38.050  0.00  0.00    +0.000 C 
ATOM     29  C2  UNL     1      30.429  -6.909 -39.044  0.00  0.00    +0.000 C 
ENDBRANCH   1  29
TORSDOF 5
ENDMDL
MODEL 7
REMARK VINA RESULT:    -5.154      3.247      4.335
REMARK INTER + INTRA:          -7.158
REMARK INTER:                  -6.370
REMARK INTRA:                  -0.788
REMARK UNBOUND:                -0.649
REMARK  Name = resultss/4CJN/ligands/lig_386_t0.pdb
REMARK  6 active torsions:
REMARK  status: ('A' for Active; 'I' for Inactive)
REMARK    1  A    between atoms: C1_1  and  C2_2
REMARK    2  A    between atoms: C2_2  and  N1_3
REMARK    3  A    between atoms: C5_7  and  C6_8
REMARK    4  A    between atoms: N2_17  and  C13_18
REMARK    5  A    between atoms: C16_21  and  S2_22
REMARK    6  A    between atoms: S2_22  and  N3_23
REMARK                            x       y       z     vdW  Elec       q    Type
REMARK                         _______ _______ _______ _____ _____    ______ ____
ROOT
ATOM      1  N1  UNL     1      26.098  -8.155 -40.056  0.00  0.00    +0.000 N 
ATOM      2  C3  UNL     1      27.158  -8.573 -40.910  0.00  0.00    +0.000 C 
ATOM      3  O1  UNL     1      27.318  -9.777 -41.245  0.00  0.00    +0.000 OA
ATOM      4  C4  UNL     1      27.965  -7.463 -41.427  0.00  0.00    +0.000 C 
ATOM      5  C5  UNL     1      29.163  -7.540 -42.023  0.00  0.00    +0.000 C 
ATOM      6  S1  UNL     1      27.154  -5.888 -41.149  0.00  0.00    +0.000 S 
ATOM      7  C12 UNL     1      26.171  -6.731 -39.906  0.00  0.00    +0.000 C 
ATOM      8  N2  UNL     1      25.801  -6.096 -38.831  0.00  0.00    +0.000 NA
ENDROOT
BRANCH   5   9
ATOM      9  C6  UNL     1      29.952  -8.779 -42.172  0.00  0.00    +0.000 A 
ATOM     10  C7  UNL     1      30.849  -9.197 -41.172  0.00  0.00    +0.000 A 
ATOM     11  C8  UNL     1      31.621 -10.348 -41.354  0.00  0.00    +0.000 A 
ATOM     12  C9  UNL     1      31.521 -11.079 -42.543  0.00  0.00    +0.000 A 
ATOM     13 CL1  UNL     1      32.493 -12.521 -42.772  0.00  0.00    +0.000 Cl
ATOM     14  C10 UNL     1      30.655 -10.650 -43.554  0.00  0.00    +0.000 A 
ATOM     15  C11 UNL     1      29.882  -9.499 -43.374  0.00  0.00    +0.000 A 
ENDBRANCH   5   9
BRANCH   8  16
ATOM     16  C13 UNL     1      25.296  -6.674 -37.619  0.00  0.00    +0.000 A 
ATOM     17  C14 UNL     1      26.160  -7.196 -36.642  0.00  0.00    +0.000 A 
ATOM     18  C15 UNL     1      25.643  -7.720 -35.453  0.00  0.00    +0.000 A 
ATOM     19  C16 UNL     1      24.262  -7.701 -35.216  0.00  0.00    +0.000 A 
ATOM     20  C17 UNL     1      23.402  -7.154 -36.178  0.00  0.00    +0.000 A 
ATOM     21  C18 UNL     1      23.920  -6.631 -37.367  0.00  0.00    +0.000 A 
BRANCH  19  22
ATOM     22  S2  UNL     1      23.613  -8.377 -33.726  0.00  0.00    +0.000 S 
ATOM     23  O2  UNL     1      22.256  -8.970 -33.986  0.00  0.00    +0.000 OA
ATOM     24  O3  UNL     1      24.523  -9.461 -33.218  0.00  0.00    +0.000 OA
BRANCH  22  25
ATOM     25  N3  UNL     1      23.485  -7.128 -32.538  0.00  0.00    +0.000 NA
ATOM     26  H13 UNL     1      22.528  -6.717 -32.628  0.00  0.00    +0.000 HD
ATOM     27  H14 UNL     1      24.161  -6.379 -32.808  0.00  0.00    +0.000 HD
ENDBRANCH  22  25
ENDBRANCH  19  22
ENDBRANCH   8  16
BRANCH   1  29
ATOM     28  C1  UNL     1      23.931  -8.631 -41.127  0.00  0.00    +0.000 C 
ATOM     29  C2  UNL     1      24.850  -8.919 -39.943  0.00  0.00    +0.000 C 
ENDBRANCH   1  29
TORSDOF 5
ENDMDL
MODEL 8
REMARK VINA RESULT:    -5.105      4.975      8.303
REMARK INTER + INTRA:          -7.096
REMARK INTER:                  -6.359
REMARK INTRA:                  -0.737
REMARK UNBOUND:                -0.649
REMARK  Name = resultss/4CJN/ligands/lig_386_t0.pdb
REMARK  6 active torsions:
REMARK  status: ('A' for Active; 'I' for Inactive)
REMARK    1  A    between atoms: C1_1  and  C2_2
REMARK    2  A    between atoms: C2_2  and  N1_3
REMARK    3  A    between atoms: C5_7  and  C6_8
REMARK    4  A    between atoms: N2_17  and  C13_18
REMARK    5  A    between atoms: C16_21  and  S2_22
REMARK    6  A    between atoms: S2_22  and  N3_23
REMARK                            x       y       z     vdW  Elec       q    Type
REMARK                         _______ _______ _______ _____ _____    ______ ____
ROOT
ATOM      1  N1  UNL     1      28.103  -9.956 -39.275  0.00  0.00    +0.000 N 
ATOM      2  C3  UNL     1      28.571  -9.853 -37.934  0.00  0.00    +0.000 C 
ATOM      3  O1  UNL     1      27.846 -10.140 -36.945  0.00  0.00    +0.000 OA
ATOM      4  C4  UNL     1      29.987  -9.484 -37.835  0.00  0.00    +0.000 C 
ATOM      5  C5  UNL     1      30.640  -9.059 -36.744  0.00  0.00    +0.000 C 
ATOM      6  S1  UNL     1      30.812  -9.647 -39.419  0.00  0.00    +0.000 S 
ATOM      7  C12 UNL     1      29.177  -9.601 -40.158  0.00  0.00    +0.000 C 
ATOM      8  N2  UNL     1      29.003  -9.031 -41.316  0.00  0.00    +0.000 NA
ENDROOT
BRANCH   5   9
ATOM      9  C6  UNL     1      30.008  -8.776 -35.440  0.00  0.00    +0.000 A 
ATOM     10  C7  UNL     1      30.042  -9.716 -34.394  0.00  0.00    +0.000 A 
ATOM     11  C8  UNL     1      29.398  -9.446 -33.184  0.00  0.00    +0.000 A 
ATOM     12  C9  UNL     1      28.696  -8.248 -33.014  0.00  0.00    +0.000 A 
ATOM     13 CL1  UNL     1      27.885  -7.913 -31.495  0.00  0.00    +0.000 Cl
ATOM     14  C10 UNL     1      28.632  -7.323 -34.061  0.00  0.00    +0.000 A 
ATOM     15  C11 UNL     1      29.276  -7.591 -35.273  0.00  0.00    +0.000 A 
ENDBRANCH   5   9
BRANCH   8  16
ATOM     16  C13 UNL     1      27.757  -8.631 -41.902  0.00  0.00    +0.000 A 
ATOM     17  C14 UNL     1      27.129  -9.411 -42.889  0.00  0.00    +0.000 A 
ATOM     18  C15 UNL     1      25.896  -9.017 -43.418  0.00  0.00    +0.000 A 
ATOM     19  C16 UNL     1      25.264  -7.859 -42.947  0.00  0.00    +0.000 A 
ATOM     20  C17 UNL     1      25.876  -7.097 -41.942  0.00  0.00    +0.000 A 
ATOM     21  C18 UNL     1      27.109  -7.491 -41.415  0.00  0.00    +0.000 A 
BRANCH  19  22
ATOM     22  S2  UNL     1      23.720  -7.358 -43.627  0.00  0.00    +0.000 S 
ATOM     23  O2  UNL     1      23.392  -5.964 -43.169  0.00  0.00    +0.000 OA
ATOM     24  O3  UNL     1      23.796  -7.366 -45.128  0.00  0.00    +0.000 OA
BRANCH  22  25
ATOM     25  N3  UNL     1      22.483  -8.447 -43.107  0.00  0.00    +0.000 NA
ATOM     26  H13 UNL     1      22.922  -9.105 -42.423  0.00  0.00    +0.000 HD
ATOM     27  H14 UNL     1      22.207  -9.016 -43.939  0.00  0.00    +0.000 HD
ENDBRANCH  22  25
ENDBRANCH  19  22
ENDBRANCH   8  16
BRANCH   1  29
ATOM     28  C1  UNL     1      27.572 -12.215 -40.098  0.00  0.00    +0.000 C 
ATOM     29  C2  UNL     1      27.016 -10.868 -39.647  0.00  0.00    +0.000 C 
ENDBRANCH   1  29
TORSDOF 5
ENDMDL
MODEL 9
REMARK VINA RESULT:    -4.981      4.142      5.360
REMARK INTER + INTRA:          -6.940
REMARK INTER:                  -6.246
REMARK INTRA:                  -0.694
REMARK UNBOUND:                -0.649
REMARK  Name = resultss/4CJN/ligands/lig_386_t0.pdb
REMARK  6 active torsions:
REMARK  status: ('A' for Active; 'I' for Inactive)
REMARK    1  A    between atoms: C1_1  and  C2_2
REMARK    2  A    between atoms: C2_2  and  N1_3
REMARK    3  A    between atoms: C5_7  and  C6_8
REMARK    4  A    between atoms: N2_17  and  C13_18
REMARK    5  A    between atoms: C16_21  and  S2_22
REMARK    6  A    between atoms: S2_22  and  N3_23
REMARK                            x       y       z     vdW  Elec       q    Type
REMARK                         _______ _______ _______ _____ _____    ______ ____
ROOT
ATOM      1  N1  UNL     1      27.093  -9.337 -40.924  0.00  0.00    +0.000 N 
ATOM      2  C3  UNL     1      26.646  -8.843 -42.182  0.00  0.00    +0.000 C 
ATOM      3  O1  UNL     1      27.132  -9.243 -43.274  0.00  0.00    +0.000 OA
ATOM      4  C4  UNL     1      25.515  -7.915 -42.078  0.00  0.00    +0.000 C 
ATOM      5  C5  UNL     1      25.049  -7.094 -43.030  0.00  0.00    +0.000 C 
ATOM      6  S1  UNL     1      24.779  -7.972 -40.444  0.00  0.00    +0.000 S 
ATOM      7  C12 UNL     1      26.315  -8.717 -39.891  0.00  0.00    +0.000 C 
ATOM      8  N2  UNL     1      26.771  -8.458 -38.699  0.00  0.00    +0.000 NA
ENDROOT
BRANCH   5   9
ATOM      9  C6  UNL     1      25.675  -6.894 -44.352  0.00  0.00    +0.000 A 
ATOM     10  C7  UNL     1      26.897  -6.210 -44.484  0.00  0.00    +0.000 A 
ATOM     11  C8  UNL     1      27.448  -5.991 -45.749  0.00  0.00    +0.000 A 
ATOM     12  C9  UNL     1      26.776  -6.434 -46.894  0.00  0.00    +0.000 A 
ATOM     13 CL1  UNL     1      27.468  -6.155 -48.481  0.00  0.00    +0.000 Cl
ATOM     14  C10 UNL     1      25.546  -7.087 -46.771  0.00  0.00    +0.000 A 
ATOM     15  C11 UNL     1      24.992  -7.307 -45.505  0.00  0.00    +0.000 A 
ENDBRANCH   5   9
BRANCH   8  16
ATOM     16  C13 UNL     1      28.097  -8.701 -38.211  0.00  0.00    +0.000 A 
ATOM     17  C14 UNL     1      28.402  -9.852 -37.463  0.00  0.00    +0.000 A 
ATOM     18  C15 UNL     1      29.710 -10.084 -37.030  0.00  0.00    +0.000 A 
ATOM     19  C16 UNL     1      30.733  -9.187 -37.364  0.00  0.00    +0.000 A 
ATOM     20  C17 UNL     1      30.435  -8.054 -38.134  0.00  0.00    +0.000 A 
ATOM     21  C18 UNL     1      29.126  -7.822 -38.565  0.00  0.00    +0.000 A 
BRANCH  19  22
ATOM     22  S2  UNL     1      32.377  -9.473 -36.803  0.00  0.00    +0.000 S 
ATOM     23  O2  UNL     1      33.201  -8.230 -36.991  0.00  0.00    +0.000 OA
ATOM     24  O3  UNL     1      32.364  -9.826 -35.341  0.00  0.00    +0.000 OA
BRANCH  22  25
ATOM     25  N3  UNL     1      33.072 -10.774 -37.703  0.00  0.00    +0.000 NA
ATOM     26  H13 UNL     1      33.741 -10.351 -38.386  0.00  0.00    +0.000 HD
ATOM     27  H14 UNL     1      32.301 -11.204 -38.263  0.00  0.00    +0.000 HD
ENDBRANCH  22  25
ENDBRANCH  19  22
ENDBRANCH   8  16
BRANCH   1  29
ATOM     28  C1  UNL     1      29.208 -10.590 -41.079  0.00  0.00    +0.000 C 
ATOM     29  C2  UNL     1      27.711 -10.661 -40.789  0.00  0.00    +0.000 C 
ENDBRANCH   1  29
TORSDOF 5
ENDMDL
