MODEL 1
REMARK VINA RESULT:    -5.633      0.000      0.000
REMARK INTER + INTRA:         -13.998
REMARK INTER:                 -10.737
REMARK INTRA:                  -3.262
REMARK UNBOUND:                -3.262
REMARK  Name = resultss/4CJN/ligands/lig_333_t0.pdb
REMARK  23 active torsions:
REMARK  status: ('A' for Active; 'I' for Inactive)
REMARK    1  A    between atoms: C1_1  and  C2_2
REMARK    2  A    between atoms: C3_4  and  O2_5
REMARK    3  A    between atoms: O2_5  and  C4_6
REMARK    4  A    between atoms: C5_7  and  O3_8
REMARK    5  A    between atoms: C6_9  and  O4_10
REMARK    6  A    between atoms: C7_11  and  O5_12
REMARK    7  A    between atoms: O5_12  and  C8_13
REMARK    8  A    between atoms: C9_14  and  O6_15
REMARK    9  A    between atoms: C10_16  and  O7_17
REMARK   10  A    between atoms: C11_18  and  O8_19
REMARK   11  A    between atoms: C12_21  and  C13_22
REMARK   12  A    between atoms: C13_22  and  O10_23
REMARK   13  A    between atoms: C14_25  and  C15_26
REMARK   14  A    between atoms: C15_26  and  O12_27
REMARK   15  A    between atoms: C16_28  and  O13_29
REMARK   16  A    between atoms: C17_30  and  O14_31
REMARK   17  A    between atoms: C18_32  and  N1_33
REMARK   18  A    between atoms: N1_33  and  C19_34
REMARK   19  A    between atoms: C21_36  and  C22_37
REMARK   20  A    between atoms: C22_37  and  O15_38
REMARK   21  A    between atoms: C23_39  and  O16_40
REMARK   22  A    between atoms: C24_41  and  O17_42
REMARK   23  A    between atoms: C25_43  and  O18_44
REMARK                            x       y       z     vdW  Elec       q    Type
REMARK                         _______ _______ _______ _____ _____    ______ ____
ROOT
ATOM      1  O2  UNL     1      31.092  -8.348 -37.064  0.00  0.00    +0.000 OA
ENDROOT
BRANCH   1   5
ATOM      2  C1  UNL     1      29.316  -6.116 -33.812  0.00  0.00    +0.000 C 
ATOM      3  C2  UNL     1      28.713  -7.260 -34.647  0.00  0.00    +0.000 C 
ATOM      4  O1  UNL     1      29.354  -7.425 -35.903  0.00  0.00    +0.000 OA
ATOM      5  C3  UNL     1      30.722  -7.801 -35.807  0.00  0.00    +0.000 C 
ATOM      6  C16 UNL     1      30.989  -8.859 -34.698  0.00  0.00    +0.000 C 
ATOM      7  C17 UNL     1      29.702  -9.611 -34.316  0.00  0.00    +0.000 C 
ATOM      8  C18 UNL     1      28.594  -8.613 -33.877  0.00  0.00    +0.000 C 
BRANCH   8   9
ATOM      9  N1  UNL     1      27.232  -9.156 -34.095  0.00  0.00    +0.000 NA
ATOM     10  H32 UNL     1      27.067  -9.910 -33.387  0.00  0.00    +0.000 HD
BRANCH   9  11
ATOM     11  C19 UNL     1      26.126  -8.179 -33.993  0.00  0.00    +0.000 C 
ATOM     12  C20 UNL     1      25.683  -7.668 -35.348  0.00  0.00    +0.000 C 
ATOM     13  C21 UNL     1      24.573  -6.911 -35.437  0.00  0.00    +0.000 C 
ATOM     14  C23 UNL     1      23.785  -6.648 -34.160  0.00  0.00    +0.000 C 
ATOM     15  C24 UNL     1      23.586  -7.979 -33.392  0.00  0.00    +0.000 C 
ATOM     16  C25 UNL     1      24.908  -8.815 -33.260  0.00  0.00    +0.000 C 
BRANCH  16  17
ATOM     17  O18 UNL     1      24.690 -10.137 -33.694  0.00  0.00    +0.000 OA
ATOM     18  H43 UNL     1      25.292 -10.726 -33.168  0.00  0.00    +0.000 HD
ENDBRANCH  16  17
BRANCH  15  19
ATOM     19  O17 UNL     1      23.067  -7.701 -32.116  0.00  0.00    +0.000 OA
ATOM     20  H41 UNL     1      22.114  -7.460 -32.242  0.00  0.00    +0.000 HD
ENDBRANCH  15  19
BRANCH  14  21
ATOM     21  O16 UNL     1      22.543  -6.061 -34.446  0.00  0.00    +0.000 OA
ATOM     22  H39 UNL     1      22.722  -5.253 -34.996  0.00  0.00    +0.000 HD
ENDBRANCH  14  21
BRANCH  13  23
ATOM     23  C22 UNL     1      24.126  -6.403 -36.794  0.00  0.00    +0.000 C 
BRANCH  23  24
ATOM     24  O15 UNL     1      23.157  -7.258 -37.336  0.00  0.00    +0.000 OA
ATOM     25  H37 UNL     1      22.633  -6.712 -37.979  0.00  0.00    +0.000 HD
ENDBRANCH  23  24
ENDBRANCH  13  23
ENDBRANCH   9  11
ENDBRANCH   8   9
BRANCH   7  26
ATOM     26  O14 UNL     1      29.986 -10.490 -33.258  0.00  0.00    +0.000 OA
ATOM     27  H30 UNL     1      29.213 -11.106 -33.171  0.00  0.00    +0.000 HD
ENDBRANCH   7  26
BRANCH   6  28
ATOM     28  O13 UNL     1      32.020  -9.746 -35.062  0.00  0.00    +0.000 OA
ATOM     29  H28 UNL     1      32.553  -9.946 -34.250  0.00  0.00    +0.000 HD
ENDBRANCH   6  28
ENDBRANCH   1   5
BRANCH   1  30
ATOM     30  C4  UNL     1      30.070  -8.261 -38.045  0.00  0.00    +0.000 C 
ATOM     31  C5  UNL     1      30.631  -7.496 -39.257  0.00  0.00    +0.000 C 
ATOM     32  C6  UNL     1      29.579  -7.403 -40.383  0.00  0.00    +0.000 C 
ATOM     33  C7  UNL     1      28.687  -8.668 -40.405  0.00  0.00    +0.000 C 
ATOM     34  O11 UNL     1      29.399  -9.790 -39.906  0.00  0.00    +0.000 OA
ATOM     35  C14 UNL     1      29.644  -9.690 -38.504  0.00  0.00    +0.000 C 
BRANCH  32  36
ATOM     36  O4  UNL     1      30.228  -7.234 -41.620  0.00  0.00    +0.000 OA
ATOM     37  H10 UNL     1      30.773  -6.406 -41.545  0.00  0.00    +0.000 HD
ENDBRANCH  32  36
BRANCH  31  38
ATOM     38  O3  UNL     1      31.083  -6.218 -38.888  0.00  0.00    +0.000 OA
ATOM     39  H8  UNL     1      31.415  -5.769 -39.707  0.00  0.00    +0.000 HD
ENDBRANCH  31  38
BRANCH  35  40
ATOM     40  C15 UNL     1      28.447 -10.233 -37.695  0.00  0.00    +0.000 C 
BRANCH  40  41
ATOM     41  O12 UNL     1      28.006 -11.452 -38.231  0.00  0.00    +0.000 OA
ATOM     42  H26 UNL     1      27.091 -11.293 -38.584  0.00  0.00    +0.000 HD
ENDBRANCH  40  41
ENDBRANCH  35  40
BRANCH  33  43
ATOM     43  O5  UNL     1      28.274  -8.926 -41.734  0.00  0.00    +0.000 OA
BRANCH  43  44
ATOM     44  C8  UNL     1      26.868  -8.785 -41.885  0.00  0.00    +0.000 C 
ATOM     45  C9  UNL     1      26.155  -9.388 -40.661  0.00  0.00    +0.000 C 
ATOM     46  C10 UNL     1      24.632  -9.207 -40.799  0.00  0.00    +0.000 C 
ATOM     47  C11 UNL     1      24.286  -7.866 -41.502  0.00  0.00    +0.000 C 
ATOM     48  O9  UNL     1      25.311  -6.905 -41.316  0.00  0.00    +0.000 OA
ATOM     49  C12 UNL     1      26.525  -7.269 -41.974  0.00  0.00    +0.000 C 
BRANCH  47  50
ATOM     50  O8  UNL     1      23.063  -7.345 -41.047  0.00  0.00    +0.000 OA
ATOM     51  H18 UNL     1      23.189  -7.085 -40.095  0.00  0.00    +0.000 HD
ENDBRANCH  47  50
BRANCH  46  52
ATOM     52  O7  UNL     1      24.046  -9.287 -39.521  0.00  0.00    +0.000 OA
ATOM     53  H16 UNL     1      24.230 -10.197 -39.169  0.00  0.00    +0.000 HD
ENDBRANCH  46  52
BRANCH  45  54
ATOM     54  O6  UNL     1      26.443 -10.759 -40.547  0.00  0.00    +0.000 OA
ATOM     55  H14 UNL     1      26.113 -11.047 -39.656  0.00  0.00    +0.000 HD
ENDBRANCH  45  54
BRANCH  49  56
ATOM     56  C13 UNL     1      26.533  -6.771 -43.427  0.00  0.00    +0.000 C 
BRANCH  56  57
ATOM     57  O10 UNL     1      27.212  -7.691 -44.244  0.00  0.00    +0.000 OA
ATOM     58  H22 UNL     1      27.820  -8.214 -43.660  0.00  0.00    +0.000 HD
ENDBRANCH  56  57
ENDBRANCH  49  56
ENDBRANCH  43  44
ENDBRANCH  33  43
ENDBRANCH   1  30
TORSDOF 22
ENDMDL
MODEL 2
REMARK VINA RESULT:    -5.547      2.310      4.957
REMARK INTER + INTRA:         -13.834
REMARK INTER:                 -11.540
REMARK INTRA:                  -2.294
REMARK UNBOUND:                -3.262
REMARK  Name = resultss/4CJN/ligands/lig_333_t0.pdb
REMARK  23 active torsions:
REMARK  status: ('A' for Active; 'I' for Inactive)
REMARK    1  A    between atoms: C1_1  and  C2_2
REMARK    2  A    between atoms: C3_4  and  O2_5
REMARK    3  A    between atoms: O2_5  and  C4_6
REMARK    4  A    between atoms: C5_7  and  O3_8
REMARK    5  A    between atoms: C6_9  and  O4_10
REMARK    6  A    between atoms: C7_11  and  O5_12
REMARK    7  A    between atoms: O5_12  and  C8_13
REMARK    8  A    between atoms: C9_14  and  O6_15
REMARK    9  A    between atoms: C10_16  and  O7_17
REMARK   10  A    between atoms: C11_18  and  O8_19
REMARK   11  A    between atoms: C12_21  and  C13_22
REMARK   12  A    between atoms: C13_22  and  O10_23
REMARK   13  A    between atoms: C14_25  and  C15_26
REMARK   14  A    between atoms: C15_26  and  O12_27
REMARK   15  A    between atoms: C16_28  and  O13_29
REMARK   16  A    between atoms: C17_30  and  O14_31
REMARK   17  A    between atoms: C18_32  and  N1_33
REMARK   18  A    between atoms: N1_33  and  C19_34
REMARK   19  A    between atoms: C21_36  and  C22_37
REMARK   20  A    between atoms: C22_37  and  O15_38
REMARK   21  A    between atoms: C23_39  and  O16_40
REMARK   22  A    between atoms: C24_41  and  O17_42
REMARK   23  A    between atoms: C25_43  and  O18_44
REMARK                            x       y       z     vdW  Elec       q    Type
REMARK                         _______ _______ _______ _____ _____    ______ ____
ROOT
ATOM      1  O2  UNL     1      28.145  -9.696 -40.318  0.00  0.00    +0.000 OA
ENDROOT
BRANCH   1   5
ATOM      2  C1  UNL     1      29.941  -6.581 -37.913  0.00  0.00    +0.000 C 
ATOM      3  C2  UNL     1      29.366  -7.938 -37.471  0.00  0.00    +0.000 C 
ATOM      4  O1  UNL     1      28.446  -8.480 -38.407  0.00  0.00    +0.000 OA
ATOM      5  C3  UNL     1      29.022  -8.786 -39.670  0.00  0.00    +0.000 C 
ATOM      6  C16 UNL     1      30.431  -9.438 -39.558  0.00  0.00    +0.000 C 
ATOM      7  C17 UNL     1      30.659 -10.051 -38.165  0.00  0.00    +0.000 C 
ATOM      8  C18 UNL     1      30.450  -8.982 -37.056  0.00  0.00    +0.000 C 
BRANCH   8   9
ATOM      9  N1  UNL     1      30.046  -9.587 -35.764  0.00  0.00    +0.000 NA
ATOM     10  H32 UNL     1      30.914  -9.775 -35.209  0.00  0.00    +0.000 HD
BRANCH   9  11
ATOM     11  C19 UNL     1      29.134  -8.775 -34.930  0.00  0.00    +0.000 C 
ATOM     12  C20 UNL     1      27.722  -9.322 -34.920  0.00  0.00    +0.000 C 
ATOM     13  C21 UNL     1      26.817  -8.801 -34.071  0.00  0.00    +0.000 C 
ATOM     14  C23 UNL     1      27.283  -7.706 -33.118  0.00  0.00    +0.000 C 
ATOM     15  C24 UNL     1      28.611  -8.137 -32.446  0.00  0.00    +0.000 C 
ATOM     16  C25 UNL     1      29.664  -8.693 -33.469  0.00  0.00    +0.000 C 
BRANCH  16  17
ATOM     17  O18 UNL     1      30.147  -9.943 -33.035  0.00  0.00    +0.000 OA
ATOM     18  H43 UNL     1      29.569 -10.642 -33.438  0.00  0.00    +0.000 HD
ENDBRANCH  16  17
BRANCH  15  19
ATOM     19  O17 UNL     1      29.152  -7.040 -31.753  0.00  0.00    +0.000 OA
ATOM     20  H41 UNL     1      28.796  -6.223 -32.188  0.00  0.00    +0.000 HD
ENDBRANCH  15  19
BRANCH  14  21
ATOM     21  O16 UNL     1      26.309  -7.439 -32.144  0.00  0.00    +0.000 OA
ATOM     22  H39 UNL     1      26.749  -7.531 -31.259  0.00  0.00    +0.000 HD
ENDBRANCH  14  21
BRANCH  13  23
ATOM     23  C22 UNL     1      25.406  -9.352 -34.056  0.00  0.00    +0.000 C 
BRANCH  23  24
ATOM     24  O15 UNL     1      25.412 -10.708 -34.410  0.00  0.00    +0.000 OA
ATOM     25  H37 UNL     1      25.300 -11.217 -33.564  0.00  0.00    +0.000 HD
ENDBRANCH  23  24
ENDBRANCH  13  23
ENDBRANCH   9  11
ENDBRANCH   8   9
BRANCH   7  26
ATOM     26  O14 UNL     1      31.970 -10.549 -38.096  0.00  0.00    +0.000 OA
ATOM     27  H30 UNL     1      32.029 -11.112 -37.282  0.00  0.00    +0.000 HD
ENDBRANCH   7  26
BRANCH   6  28
ATOM     28  O13 UNL     1      30.652 -10.379 -40.583  0.00  0.00    +0.000 OA
ATOM     29  H28 UNL     1      29.774 -10.601 -40.988  0.00  0.00    +0.000 HD
ENDBRANCH   6  28
ENDBRANCH   1   5
BRANCH   1  30
ATOM     30  C4  UNL     1      27.330  -9.091 -41.310  0.00  0.00    +0.000 C 
ATOM     31  C5  UNL     1      26.131  -8.428 -40.609  0.00  0.00    +0.000 C 
ATOM     32  C6  UNL     1      25.224  -7.712 -41.633  0.00  0.00    +0.000 C 
ATOM     33  C7  UNL     1      26.062  -7.135 -42.799  0.00  0.00    +0.000 C 
ATOM     34  O11 UNL     1      27.376  -6.823 -42.363  0.00  0.00    +0.000 OA
ATOM     35  C14 UNL     1      28.137  -7.995 -42.073  0.00  0.00    +0.000 C 
BRANCH  32  36
ATOM     36  O4  UNL     1      24.505  -6.688 -40.988  0.00  0.00    +0.000 OA
ATOM     37  H10 UNL     1      24.947  -5.832 -41.232  0.00  0.00    +0.000 HD
ENDBRANCH  32  36
BRANCH  31  38
ATOM     38  O3  UNL     1      25.398  -9.364 -39.860  0.00  0.00    +0.000 OA
ATOM     39  H8  UNL     1      24.978  -9.996 -40.498  0.00  0.00    +0.000 HD
ENDBRANCH  31  38
BRANCH  35  40
ATOM     40  C15 UNL     1      28.813  -8.544 -43.347  0.00  0.00    +0.000 C 
BRANCH  40  41
ATOM     41  O12 UNL     1      29.178  -9.886 -43.169  0.00  0.00    +0.000 OA
ATOM     42  H26 UNL     1      30.171  -9.910 -43.154  0.00  0.00    +0.000 HD
ENDBRANCH  40  41
ENDBRANCH  35  40
BRANCH  33  43
ATOM     43  O5  UNL     1      25.438  -5.963 -43.289  0.00  0.00    +0.000 OA
BRANCH  43  44
ATOM     44  C8  UNL     1      25.028  -6.111 -44.642  0.00  0.00    +0.000 C 
ATOM     45  C9  UNL     1      26.176  -6.724 -45.465  0.00  0.00    +0.000 C 
ATOM     46  C10 UNL     1      25.729  -6.921 -46.924  0.00  0.00    +0.000 C 
ATOM     47  C11 UNL     1      24.227  -7.307 -47.005  0.00  0.00    +0.000 C 
ATOM     48  O9  UNL     1      23.793  -7.949 -45.817  0.00  0.00    +0.000 OA
ATOM     49  C12 UNL     1      23.804  -7.071 -44.690  0.00  0.00    +0.000 C 
BRANCH  47  50
ATOM     50  O8  UNL     1      23.964  -8.134 -48.110  0.00  0.00    +0.000 OA
ATOM     51  H18 UNL     1      24.501  -8.964 -47.991  0.00  0.00    +0.000 HD
ENDBRANCH  47  50
BRANCH  46  52
ATOM     52  O7  UNL     1      26.546  -7.899 -47.523  0.00  0.00    +0.000 OA
ATOM     53  H16 UNL     1      26.059  -8.763 -47.469  0.00  0.00    +0.000 HD
ENDBRANCH  46  52
BRANCH  45  54
ATOM     54  O6  UNL     1      27.303  -5.883 -45.443  0.00  0.00    +0.000 OA
ATOM     55  H14 UNL     1      27.549  -5.760 -44.489  0.00  0.00    +0.000 HD
ENDBRANCH  45  54
BRANCH  49  56
ATOM     56  C13 UNL     1      22.478  -6.304 -44.578  0.00  0.00    +0.000 C 
BRANCH  56  57
ATOM     57  O10 UNL     1      21.433  -7.194 -44.278  0.00  0.00    +0.000 OA
ATOM     58  H22 UNL     1      20.681  -6.658 -43.916  0.00  0.00    +0.000 HD
ENDBRANCH  56  57
ENDBRANCH  49  56
ENDBRANCH  43  44
ENDBRANCH  33  43
ENDBRANCH   1  30
TORSDOF 22
ENDMDL
MODEL 3
REMARK VINA RESULT:    -5.326      2.886      5.342
REMARK INTER + INTRA:         -13.414
REMARK INTER:                 -10.176
REMARK INTRA:                  -3.239
REMARK UNBOUND:                -3.262
REMARK  Name = resultss/4CJN/ligands/lig_333_t0.pdb
REMARK  23 active torsions:
REMARK  status: ('A' for Active; 'I' for Inactive)
REMARK    1  A    between atoms: C1_1  and  C2_2
REMARK    2  A    between atoms: C3_4  and  O2_5
REMARK    3  A    between atoms: O2_5  and  C4_6
REMARK    4  A    between atoms: C5_7  and  O3_8
REMARK    5  A    between atoms: C6_9  and  O4_10
REMARK    6  A    between atoms: C7_11  and  O5_12
REMARK    7  A    between atoms: O5_12  and  C8_13
REMARK    8  A    between atoms: C9_14  and  O6_15
REMARK    9  A    between atoms: C10_16  and  O7_17
REMARK   10  A    between atoms: C11_18  and  O8_19
REMARK   11  A    between atoms: C12_21  and  C13_22
REMARK   12  A    between atoms: C13_22  and  O10_23
REMARK   13  A    between atoms: C14_25  and  C15_26
REMARK   14  A    between atoms: C15_26  and  O12_27
REMARK   15  A    between atoms: C16_28  and  O13_29
REMARK   16  A    between atoms: C17_30  and  O14_31
REMARK   17  A    between atoms: C18_32  and  N1_33
REMARK   18  A    between atoms: N1_33  and  C19_34
REMARK   19  A    between atoms: C21_36  and  C22_37
REMARK   20  A    between atoms: C22_37  and  O15_38
REMARK   21  A    between atoms: C23_39  and  O16_40
REMARK   22  A    between atoms: C24_41  and  O17_42
REMARK   23  A    between atoms: C25_43  and  O18_44
REMARK                            x       y       z     vdW  Elec       q    Type
REMARK                         _______ _______ _______ _____ _____    ______ ____
ROOT
ATOM      1  O2  UNL     1      27.532  -9.391 -42.205  0.00  0.00    +0.000 OA
ENDROOT
BRANCH   1   5
ATOM      2  C1  UNL     1      30.254  -7.674 -39.315  0.00  0.00    +0.000 C 
ATOM      3  C2  UNL     1      28.723  -7.803 -39.248  0.00  0.00    +0.000 C 
ATOM      4  O1  UNL     1      28.124  -7.959 -40.526  0.00  0.00    +0.000 OA
ATOM      5  C3  UNL     1      28.504  -9.153 -41.198  0.00  0.00    +0.000 C 
ATOM      6  C16 UNL     1      28.569 -10.391 -40.256  0.00  0.00    +0.000 C 
ATOM      7  C17 UNL     1      27.747 -10.167 -38.975  0.00  0.00    +0.000 C 
ATOM      8  C18 UNL     1      28.220  -8.883 -38.238  0.00  0.00    +0.000 C 
BRANCH   8   9
ATOM      9  N1  UNL     1      27.147  -8.284 -37.409  0.00  0.00    +0.000 NA
ATOM     10  H32 UNL     1      26.323  -8.930 -37.430  0.00  0.00    +0.000 HD
BRANCH   9  11
ATOM     11  C19 UNL     1      27.494  -8.025 -35.995  0.00  0.00    +0.000 C 
ATOM     12  C20 UNL     1      26.421  -7.237 -35.274  0.00  0.00    +0.000 C 
ATOM     13  C21 UNL     1      26.505  -7.073 -33.940  0.00  0.00    +0.000 C 
ATOM     14  C23 UNL     1      27.666  -7.742 -33.213  0.00  0.00    +0.000 C 
ATOM     15  C24 UNL     1      27.790  -9.213 -33.683  0.00  0.00    +0.000 C 
ATOM     16  C25 UNL     1      27.740  -9.365 -35.243  0.00  0.00    +0.000 C 
BRANCH  16  17
ATOM     17  O18 UNL     1      26.780 -10.332 -35.605  0.00  0.00    +0.000 OA
ATOM     18  H43 UNL     1      27.146 -11.221 -35.359  0.00  0.00    +0.000 HD
ENDBRANCH  16  17
BRANCH  15  19
ATOM     19  O17 UNL     1      28.991  -9.753 -33.189  0.00  0.00    +0.000 OA
ATOM     20  H41 UNL     1      29.228 -10.511 -33.784  0.00  0.00    +0.000 HD
ENDBRANCH  15  19
BRANCH  14  21
ATOM     21  O16 UNL     1      27.485  -7.688 -31.822  0.00  0.00    +0.000 OA
ATOM     22  H39 UNL     1      27.605  -6.741 -31.549  0.00  0.00    +0.000 HD
ENDBRANCH  14  21
BRANCH  13  23
ATOM     23  C22 UNL     1      25.428  -6.289 -33.217  0.00  0.00    +0.000 C 
BRANCH  23  24
ATOM     24  O15 UNL     1      24.526  -7.164 -32.598  0.00  0.00    +0.000 OA
ATOM     25  H37 UNL     1      23.872  -6.593 -32.115  0.00  0.00    +0.000 HD
ENDBRANCH  23  24
ENDBRANCH  13  23
ENDBRANCH   9  11
ENDBRANCH   8   9
BRANCH   7  26
ATOM     26  O14 UNL     1      27.909 -11.278 -38.131  0.00  0.00    +0.000 OA
ATOM     27  H30 UNL     1      27.006 -11.650 -37.957  0.00  0.00    +0.000 HD
ENDBRANCH   7  26
BRANCH   6  28
ATOM     28  O13 UNL     1      28.183 -11.571 -40.922  0.00  0.00    +0.000 OA
ATOM     29  H28 UNL     1      28.992 -11.964 -41.340  0.00  0.00    +0.000 HD
ENDBRANCH   6  28
ENDBRANCH   1   5
BRANCH   1  30
ATOM     30  C4  UNL     1      26.699  -8.272 -42.467  0.00  0.00    +0.000 C 
ATOM     31  C5  UNL     1      27.156  -7.633 -43.791  0.00  0.00    +0.000 C 
ATOM     32  C6  UNL     1      26.260  -6.431 -44.158  0.00  0.00    +0.000 C 
ATOM     33  C7  UNL     1      24.805  -6.666 -43.685  0.00  0.00    +0.000 C 
ATOM     34  O11 UNL     1      24.509  -8.054 -43.653  0.00  0.00    +0.000 OA
ATOM     35  C14 UNL     1      25.215  -8.729 -42.613  0.00  0.00    +0.000 C 
BRANCH  32  36
ATOM     36  O4  UNL     1      26.300  -6.222 -45.549  0.00  0.00    +0.000 OA
ATOM     37  H10 UNL     1      25.563  -5.590 -45.763  0.00  0.00    +0.000 HD
ENDBRANCH  32  36
BRANCH  31  38
ATOM     38  O3  UNL     1      28.507  -7.252 -43.733  0.00  0.00    +0.000 OA
ATOM     39  H8  UNL     1      28.594  -6.385 -44.207  0.00  0.00    +0.000 HD
ENDBRANCH  31  38
BRANCH  35  40
ATOM     40  C15 UNL     1      24.443  -8.650 -41.280  0.00  0.00    +0.000 C 
BRANCH  40  41
ATOM     41  O12 UNL     1      25.288  -8.212 -40.249  0.00  0.00    +0.000 OA
ATOM     42  H26 UNL     1      25.977  -7.635 -40.673  0.00  0.00    +0.000 HD
ENDBRANCH  40  41
ENDBRANCH  35  40
BRANCH  33  43
ATOM     43  O5  UNL     1      23.914  -6.014 -44.570  0.00  0.00    +0.000 OA
BRANCH  43  44
ATOM     44  C8  UNL     1      22.672  -6.697 -44.666  0.00  0.00    +0.000 C 
ATOM     45  C9  UNL     1      21.684  -6.119 -43.636  0.00  0.00    +0.000 C 
ATOM     46  C10 UNL     1      20.324  -6.828 -43.756  0.00  0.00    +0.000 C 
ATOM     47  C11 UNL     1      20.010  -7.193 -45.233  0.00  0.00    +0.000 C 
ATOM     48  O9  UNL     1      20.674  -6.325 -46.134  0.00  0.00    +0.000 OA
ATOM     49  C12 UNL     1      22.094  -6.483 -46.095  0.00  0.00    +0.000 C 
BRANCH  47  50
ATOM     50  O8  UNL     1      18.628  -7.170 -45.489  0.00  0.00    +0.000 OA
ATOM     51  H18 UNL     1      18.282  -6.297 -45.159  0.00  0.00    +0.000 HD
ENDBRANCH  47  50
BRANCH  46  52
ATOM     52  O7  UNL     1      19.327  -6.000 -43.206  0.00  0.00    +0.000 OA
ATOM     53  H16 UNL     1      18.449  -6.398 -43.445  0.00  0.00    +0.000 HD
ENDBRANCH  46  52
BRANCH  45  54
ATOM     54  O6  UNL     1      22.175  -6.293 -42.329  0.00  0.00    +0.000 OA
ATOM     55  H14 UNL     1      21.928  -5.477 -41.821  0.00  0.00    +0.000 HD
ENDBRANCH  45  54
BRANCH  49  56
ATOM     56  C13 UNL     1      22.551  -7.586 -47.062  0.00  0.00    +0.000 C 
BRANCH  56  57
ATOM     57  O10 UNL     1      23.852  -8.002 -46.733  0.00  0.00    +0.000 OA
ATOM     58  H22 UNL     1      23.768  -8.772 -46.112  0.00  0.00    +0.000 HD
ENDBRANCH  56  57
ENDBRANCH  49  56
ENDBRANCH  43  44
ENDBRANCH  33  43
ENDBRANCH   1  30
TORSDOF 22
ENDMDL
MODEL 4
REMARK VINA RESULT:    -5.204      2.415      7.460
REMARK INTER + INTRA:         -13.181
REMARK INTER:                 -10.699
REMARK INTRA:                  -2.482
REMARK UNBOUND:                -3.262
REMARK  Name = resultss/4CJN/ligands/lig_333_t0.pdb
REMARK  23 active torsions:
REMARK  status: ('A' for Active; 'I' for Inactive)
REMARK    1  A    between atoms: C1_1  and  C2_2
REMARK    2  A    between atoms: C3_4  and  O2_5
REMARK    3  A    between atoms: O2_5  and  C4_6
REMARK    4  A    between atoms: C5_7  and  O3_8
REMARK    5  A    between atoms: C6_9  and  O4_10
REMARK    6  A    between atoms: C7_11  and  O5_12
REMARK    7  A    between atoms: O5_12  and  C8_13
REMARK    8  A    between atoms: C9_14  and  O6_15
REMARK    9  A    between atoms: C10_16  and  O7_17
REMARK   10  A    between atoms: C11_18  and  O8_19
REMARK   11  A    between atoms: C12_21  and  C13_22
REMARK   12  A    between atoms: C13_22  and  O10_23
REMARK   13  A    between atoms: C14_25  and  C15_26
REMARK   14  A    between atoms: C15_26  and  O12_27
REMARK   15  A    between atoms: C16_28  and  O13_29
REMARK   16  A    between atoms: C17_30  and  O14_31
REMARK   17  A    between atoms: C18_32  and  N1_33
REMARK   18  A    between atoms: N1_33  and  C19_34
REMARK   19  A    between atoms: C21_36  and  C22_37
REMARK   20  A    between atoms: C22_37  and  O15_38
REMARK   21  A    between atoms: C23_39  and  O16_40
REMARK   22  A    between atoms: C24_41  and  O17_42
REMARK   23  A    between atoms: C25_43  and  O18_44
REMARK                            x       y       z     vdW  Elec       q    Type
REMARK                         _______ _______ _______ _____ _____    ______ ____
ROOT
ATOM      1  O2  UNL     1      29.317  -6.790 -39.769  0.00  0.00    +0.000 OA
ENDROOT
BRANCH   1   5
ATOM      2  C1  UNL     1      30.284 -10.550 -41.677  0.00  0.00    +0.000 C 
ATOM      3  C2  UNL     1      28.918  -9.855 -41.538  0.00  0.00    +0.000 C 
ATOM      4  O1  UNL     1      28.879  -8.919 -40.471  0.00  0.00    +0.000 OA
ATOM      5  C3  UNL     1      29.768  -7.822 -40.634  0.00  0.00    +0.000 C 
ATOM      6  C16 UNL     1      29.806  -7.277 -42.092  0.00  0.00    +0.000 C 
ATOM      7  C17 UNL     1      28.552  -7.691 -42.880  0.00  0.00    +0.000 C 
ATOM      8  C18 UNL     1      28.383  -9.237 -42.868  0.00  0.00    +0.000 C 
BRANCH   8   9
ATOM      9  N1  UNL     1      26.968  -9.647 -43.038  0.00  0.00    +0.000 NA
ATOM     10  H32 UNL     1      26.870 -10.627 -42.682  0.00  0.00    +0.000 HD
BRANCH   9  11
ATOM     11  C19 UNL     1      25.966  -8.806 -42.350  0.00  0.00    +0.000 C 
ATOM     12  C20 UNL     1      24.859  -8.352 -43.278  0.00  0.00    +0.000 C 
ATOM     13  C21 UNL     1      23.781  -7.729 -42.766  0.00  0.00    +0.000 C 
ATOM     14  C23 UNL     1      23.710  -7.556 -41.254  0.00  0.00    +0.000 C 
ATOM     15  C24 UNL     1      24.055  -8.899 -40.563  0.00  0.00    +0.000 C 
ATOM     16  C25 UNL     1      25.345  -9.576 -41.147  0.00  0.00    +0.000 C 
BRANCH  16  17
ATOM     17  O18 UNL     1      25.076 -10.916 -41.490  0.00  0.00    +0.000 OA
ATOM     18  H43 UNL     1      25.727 -11.180 -42.190  0.00  0.00    +0.000 HD
ENDBRANCH  16  17
BRANCH  15  19
ATOM     19  O17 UNL     1      24.214  -8.680 -39.184  0.00  0.00    +0.000 OA
ATOM     20  H41 UNL     1      23.467  -8.092 -38.901  0.00  0.00    +0.000 HD
ENDBRANCH  15  19
BRANCH  14  21
ATOM     21  O16 UNL     1      22.437  -7.117 -40.857  0.00  0.00    +0.000 OA
ATOM     22  H39 UNL     1      21.779  -7.768 -41.217  0.00  0.00    +0.000 HD
ENDBRANCH  14  21
BRANCH  13  23
ATOM     23  C22 UNL     1      22.670  -7.280 -43.695  0.00  0.00    +0.000 C 
BRANCH  23  24
ATOM     24  O15 UNL     1      21.510  -8.029 -43.460  0.00  0.00    +0.000 OA
ATOM     25  H37 UNL     1      20.782  -7.581 -43.966  0.00  0.00    +0.000 HD
ENDBRANCH  23  24
ENDBRANCH  13  23
ENDBRANCH   9  11
ENDBRANCH   8   9
BRANCH   7  26
ATOM     26  O14 UNL     1      28.680  -7.245 -44.205  0.00  0.00    +0.000 OA
ATOM     27  H30 UNL     1      29.562  -6.798 -44.282  0.00  0.00    +0.000 HD
ENDBRANCH   7  26
BRANCH   6  28
ATOM     28  O13 UNL     1      30.002  -5.883 -42.121  0.00  0.00    +0.000 OA
ATOM     29  H28 UNL     1      30.159  -5.616 -43.063  0.00  0.00    +0.000 HD
ENDBRANCH   6  28
ENDBRANCH   1   5
BRANCH   1  30
ATOM     30  C4  UNL     1      28.981  -7.245 -38.467  0.00  0.00    +0.000 C 
ATOM     31  C5  UNL     1      27.609  -7.937 -38.540  0.00  0.00    +0.000 C 
ATOM     32  C6  UNL     1      27.201  -8.495 -37.159  0.00  0.00    +0.000 C 
ATOM     33  C7  UNL     1      28.447  -8.966 -36.370  0.00  0.00    +0.000 C 
ATOM     34  O11 UNL     1      29.476  -9.376 -37.258  0.00  0.00    +0.000 OA
ATOM     35  C14 UNL     1      30.041  -8.276 -37.969  0.00  0.00    +0.000 C 
BRANCH  32  36
ATOM     36  O4  UNL     1      26.295  -9.557 -37.331  0.00  0.00    +0.000 OA
ATOM     37  H10 UNL     1      26.087  -9.904 -36.423  0.00  0.00    +0.000 HD
ENDBRANCH  32  36
BRANCH  31  38
ATOM     38  O3  UNL     1      26.624  -7.066 -39.037  0.00  0.00    +0.000 OA
ATOM     39  H8  UNL     1      26.651  -6.240 -38.490  0.00  0.00    +0.000 HD
ENDBRANCH  31  38
BRANCH  35  40
ATOM     40  C15 UNL     1      31.167  -7.611 -37.152  0.00  0.00    +0.000 C 
BRANCH  40  41
ATOM     41  O12 UNL     1      31.711  -6.528 -37.858  0.00  0.00    +0.000 OA
ATOM     42  H26 UNL     1      31.660  -6.762 -38.822  0.00  0.00    +0.000 HD
ENDBRANCH  40  41
ENDBRANCH  35  40
BRANCH  33  43
ATOM     43  O5  UNL     1      28.088 -10.049 -35.532  0.00  0.00    +0.000 OA
BRANCH  43  44
ATOM     44  C8  UNL     1      27.968  -9.648 -34.175  0.00  0.00    +0.000 C 
ATOM     45  C9  UNL     1      29.278  -8.980 -33.716  0.00  0.00    +0.000 C 
ATOM     46  C10 UNL     1      29.145  -8.510 -32.257  0.00  0.00    +0.000 C 
ATOM     47  C11 UNL     1      27.703  -8.018 -31.954  0.00  0.00    +0.000 C 
ATOM     48  O9  UNL     1      27.054  -7.561 -33.128  0.00  0.00    +0.000 OA
ATOM     49  C12 UNL     1      26.808  -8.616 -34.060  0.00  0.00    +0.000 C 
BRANCH  47  50
ATOM     50  O8  UNL     1      27.697  -7.000 -30.986  0.00  0.00    +0.000 OA
ATOM     51  H18 UNL     1      28.186  -7.346 -30.191  0.00  0.00    +0.000 HD
ENDBRANCH  47  50
BRANCH  46  52
ATOM     52  O7  UNL     1      30.096  -7.500 -32.015  0.00  0.00    +0.000 OA
ATOM     53  H16 UNL     1      30.277  -7.494 -31.039  0.00  0.00    +0.000 HD
ENDBRANCH  46  52
BRANCH  45  54
ATOM     54  O6  UNL     1      30.351  -9.884 -33.808  0.00  0.00    +0.000 OA
ATOM     55  H14 UNL     1      30.057 -10.722 -33.364  0.00  0.00    +0.000 HD
ENDBRANCH  45  54
BRANCH  49  56
ATOM     56  C13 UNL     1      25.465  -9.303 -33.771  0.00  0.00    +0.000 C 
BRANCH  56  57
ATOM     57  O10 UNL     1      25.432 -10.566 -34.385  0.00  0.00    +0.000 OA
ATOM     58  H22 UNL     1      25.152 -10.430 -35.328  0.00  0.00    +0.000 HD
ENDBRANCH  56  57
ENDBRANCH  49  56
ENDBRANCH  43  44
ENDBRANCH  33  43
ENDBRANCH   1  30
TORSDOF 22
ENDMDL
MODEL 5
REMARK VINA RESULT:    -4.936      2.443      8.583
REMARK INTER + INTRA:         -12.671
REMARK INTER:                  -8.700
REMARK INTRA:                  -3.971
REMARK UNBOUND:                -3.262
REMARK  Name = resultss/4CJN/ligands/lig_333_t0.pdb
REMARK  23 active torsions:
REMARK  status: ('A' for Active; 'I' for Inactive)
REMARK    1  A    between atoms: C1_1  and  C2_2
REMARK    2  A    between atoms: C3_4  and  O2_5
REMARK    3  A    between atoms: O2_5  and  C4_6
REMARK    4  A    between atoms: C5_7  and  O3_8
REMARK    5  A    between atoms: C6_9  and  O4_10
REMARK    6  A    between atoms: C7_11  and  O5_12
REMARK    7  A    between atoms: O5_12  and  C8_13
REMARK    8  A    between atoms: C9_14  and  O6_15
REMARK    9  A    between atoms: C10_16  and  O7_17
REMARK   10  A    between atoms: C11_18  and  O8_19
REMARK   11  A    between atoms: C12_21  and  C13_22
REMARK   12  A    between atoms: C13_22  and  O10_23
REMARK   13  A    between atoms: C14_25  and  C15_26
REMARK   14  A    between atoms: C15_26  and  O12_27
REMARK   15  A    between atoms: C16_28  and  O13_29
REMARK   16  A    between atoms: C17_30  and  O14_31
REMARK   17  A    between atoms: C18_32  and  N1_33
REMARK   18  A    between atoms: N1_33  and  C19_34
REMARK   19  A    between atoms: C21_36  and  C22_37
REMARK   20  A    between atoms: C22_37  and  O15_38
REMARK   21  A    between atoms: C23_39  and  O16_40
REMARK   22  A    between atoms: C24_41  and  O17_42
REMARK   23  A    between atoms: C25_43  and  O18_44
REMARK                            x       y       z     vdW  Elec       q    Type
REMARK                         _______ _______ _______ _____ _____    ______ ____
ROOT
ATOM      1  O2  UNL     1      24.972  -8.465 -38.769  0.00  0.00    +0.000 OA
ENDROOT
BRANCH   1   5
ATOM      2  C1  UNL     1      24.210  -5.905 -42.172  0.00  0.00    +0.000 C 
ATOM      3  C2  UNL     1      25.544  -6.496 -41.682  0.00  0.00    +0.000 C 
ATOM      4  O1  UNL     1      25.513  -6.869 -40.312  0.00  0.00    +0.000 OA
ATOM      5  C3  UNL     1      24.588  -7.908 -40.018  0.00  0.00    +0.000 C 
ATOM      6  C16 UNL     1      24.574  -9.036 -41.090  0.00  0.00    +0.000 C 
ATOM      7  C17 UNL     1      25.868  -9.037 -41.923  0.00  0.00    +0.000 C 
ATOM      8  C18 UNL     1      26.096  -7.647 -42.581  0.00  0.00    +0.000 C 
BRANCH   8   9
ATOM      9  N1  UNL     1      27.530  -7.382 -42.850  0.00  0.00    +0.000 NA
ATOM     10  H32 UNL     1      27.718  -6.374 -42.638  0.00  0.00    +0.000 HD
BRANCH   9  11
ATOM     11  C19 UNL     1      28.491  -8.202 -42.083  0.00  0.00    +0.000 C 
ATOM     12  C20 UNL     1      29.309  -9.115 -42.972  0.00  0.00    +0.000 C 
ATOM     13  C21 UNL     1      30.346  -9.794 -42.447  0.00  0.00    +0.000 C 
ATOM     14  C23 UNL     1      30.676  -9.565 -40.977  0.00  0.00    +0.000 C 
ATOM     15  C24 UNL     1      30.697  -8.043 -40.683  0.00  0.00    +0.000 C 
ATOM     16  C25 UNL     1      29.450  -7.289 -41.264  0.00  0.00    +0.000 C 
BRANCH  16  17
ATOM     17  O18 UNL     1      29.866  -6.180 -42.026  0.00  0.00    +0.000 OA
ATOM     18  H43 UNL     1      29.292  -5.412 -41.773  0.00  0.00    +0.000 HD
ENDBRANCH  16  17
BRANCH  15  19
ATOM     19  O17 UNL     1      30.771  -7.844 -39.293  0.00  0.00    +0.000 OA
ATOM     20  H41 UNL     1      29.915  -8.169 -38.913  0.00  0.00    +0.000 HD
ENDBRANCH  15  19
BRANCH  14  21
ATOM     21  O16 UNL     1      31.911 -10.143 -40.642  0.00  0.00    +0.000 OA
ATOM     22  H39 UNL     1      32.513  -9.403 -40.366  0.00  0.00    +0.000 HD
ENDBRANCH  14  21
BRANCH  13  23
ATOM     23  C22 UNL     1      31.169 -10.703 -43.338  0.00  0.00    +0.000 C 
BRANCH  23  24
ATOM     24  O15 UNL     1      31.439 -11.910 -42.680  0.00  0.00    +0.000 OA
ATOM     25  H37 UNL     1      30.966 -11.864 -41.808  0.00  0.00    +0.000 HD
ENDBRANCH  23  24
ENDBRANCH  13  23
ENDBRANCH   9  11
ENDBRANCH   8   9
BRANCH   7  26
ATOM     26  O14 UNL     1      25.764 -10.017 -42.923  0.00  0.00    +0.000 OA
ATOM     27  H30 UNL     1      25.948 -10.894 -42.497  0.00  0.00    +0.000 HD
ENDBRANCH   7  26
BRANCH   6  28
ATOM     28  O13 UNL     1      24.326 -10.297 -40.515  0.00  0.00    +0.000 OA
ATOM     29  H28 UNL     1      23.958 -10.888 -41.221  0.00  0.00    +0.000 HD
ENDBRANCH   6  28
ENDBRANCH   1   5
BRANCH   1  30
ATOM     30  C4  UNL     1      26.145  -7.882 -38.223  0.00  0.00    +0.000 C 
ATOM     31  C5  UNL     1      25.726  -6.919 -37.099  0.00  0.00    +0.000 C 
ATOM     32  C6  UNL     1      26.963  -6.281 -36.432  0.00  0.00    +0.000 C 
ATOM     33  C7  UNL     1      28.151  -7.273 -36.419  0.00  0.00    +0.000 C 
ATOM     34  O11 UNL     1      27.683  -8.613 -36.392  0.00  0.00    +0.000 OA
ATOM     35  C14 UNL     1      27.064  -8.990 -37.621  0.00  0.00    +0.000 C 
BRANCH  32  36
ATOM     36  O4  UNL     1      26.638  -5.883 -35.122  0.00  0.00    +0.000 OA
ATOM     37  H10 UNL     1      26.409  -6.711 -34.621  0.00  0.00    +0.000 HD
ENDBRANCH  32  36
BRANCH  31  38
ATOM     38  O3  UNL     1      24.850  -5.929 -37.577  0.00  0.00    +0.000 OA
ATOM     39  H8  UNL     1      23.958  -6.100 -37.179  0.00  0.00    +0.000 HD
ENDBRANCH  31  38
BRANCH  35  40
ATOM     40  C15 UNL     1      28.112  -9.497 -38.634  0.00  0.00    +0.000 C 
BRANCH  40  41
ATOM     41  O12 UNL     1      29.106 -10.240 -37.980  0.00  0.00    +0.000 OA
ATOM     42  H26 UNL     1      29.104  -9.944 -37.032  0.00  0.00    +0.000 HD
ENDBRANCH  40  41
ENDBRANCH  35  40
BRANCH  33  43
ATOM     43  O5  UNL     1      28.952  -7.031 -35.278  0.00  0.00    +0.000 OA
BRANCH  43  44
ATOM     44  C8  UNL     1      29.280  -8.234 -34.598  0.00  0.00    +0.000 C 
ATOM     45  C9  UNL     1      30.733  -8.629 -34.920  0.00  0.00    +0.000 C 
ATOM     46  C10 UNL     1      31.110  -9.912 -34.160  0.00  0.00    +0.000 C 
ATOM     47  C11 UNL     1      30.428  -9.960 -32.765  0.00  0.00    +0.000 C 
ATOM     48  O9  UNL     1      30.144  -8.658 -32.283  0.00  0.00    +0.000 OA
ATOM     49  C12 UNL     1      29.150  -7.993 -33.066  0.00  0.00    +0.000 C 
BRANCH  47  50
ATOM     50  O8  UNL     1      31.217 -10.648 -31.828  0.00  0.00    +0.000 OA
ATOM     51  H18 UNL     1      31.299 -10.064 -31.027  0.00  0.00    +0.000 HD
ENDBRANCH  47  50
BRANCH  46  52
ATOM     52  O7  UNL     1      32.512  -9.983 -34.051  0.00  0.00    +0.000 OA
ATOM     53  H16 UNL     1      32.841 -10.512 -34.824  0.00  0.00    +0.000 HD
ENDBRANCH  46  52
BRANCH  45  54
ATOM     54  O6  UNL     1      30.890  -8.853 -36.300  0.00  0.00    +0.000 OA
ATOM     55  H14 UNL     1      29.978  -8.959 -36.677  0.00  0.00    +0.000 HD
ENDBRANCH  45  54
BRANCH  49  56
ATOM     56  C13 UNL     1      27.739  -8.323 -32.558  0.00  0.00    +0.000 C 
BRANCH  56  57
ATOM     57  O10 UNL     1      26.883  -8.565 -33.647  0.00  0.00    +0.000 OA
ATOM     58  H22 UNL     1      27.187  -9.404 -34.081  0.00  0.00    +0.000 HD
ENDBRANCH  56  57
ENDBRANCH  49  56
ENDBRANCH  43  44
ENDBRANCH  33  43
ENDBRANCH   1  30
TORSDOF 22
ENDMDL
MODEL 6
REMARK VINA RESULT:    -4.911      2.785      6.088
REMARK INTER + INTRA:         -12.623
REMARK INTER:                 -10.060
REMARK INTRA:                  -2.563
REMARK UNBOUND:                -3.262
REMARK  Name = resultss/4CJN/ligands/lig_333_t0.pdb
REMARK  23 active torsions:
REMARK  status: ('A' for Active; 'I' for Inactive)
REMARK    1  A    between atoms: C1_1  and  C2_2
REMARK    2  A    between atoms: C3_4  and  O2_5
REMARK    3  A    between atoms: O2_5  and  C4_6
REMARK    4  A    between atoms: C5_7  and  O3_8
REMARK    5  A    between atoms: C6_9  and  O4_10
REMARK    6  A    between atoms: C7_11  and  O5_12
REMARK    7  A    between atoms: O5_12  and  C8_13
REMARK    8  A    between atoms: C9_14  and  O6_15
REMARK    9  A    between atoms: C10_16  and  O7_17
REMARK   10  A    between atoms: C11_18  and  O8_19
REMARK   11  A    between atoms: C12_21  and  C13_22
REMARK   12  A    between atoms: C13_22  and  O10_23
REMARK   13  A    between atoms: C14_25  and  C15_26
REMARK   14  A    between atoms: C15_26  and  O12_27
REMARK   15  A    between atoms: C16_28  and  O13_29
REMARK   16  A    between atoms: C17_30  and  O14_31
REMARK   17  A    between atoms: C18_32  and  N1_33
REMARK   18  A    between atoms: N1_33  and  C19_34
REMARK   19  A    between atoms: C21_36  and  C22_37
REMARK   20  A    between atoms: C22_37  and  O15_38
REMARK   21  A    between atoms: C23_39  and  O16_40
REMARK   22  A    between atoms: C24_41  and  O17_42
REMARK   23  A    between atoms: C25_43  and  O18_44
REMARK                            x       y       z     vdW  Elec       q    Type
REMARK                         _______ _______ _______ _____ _____    ______ ____
ROOT
ATOM      1  O2  UNL     1      27.235  -7.657 -37.958  0.00  0.00    +0.000 OA
ENDROOT
BRANCH   1   5
ATOM      2  C1  UNL     1      30.880  -9.979 -37.784  0.00  0.00    +0.000 C 
ATOM      3  C2  UNL     1      30.409  -8.842 -36.861  0.00  0.00    +0.000 C 
ATOM      4  O1  UNL     1      29.440  -8.002 -37.469  0.00  0.00    +0.000 OA
ATOM      5  C3  UNL     1      28.223  -8.663 -37.789  0.00  0.00    +0.000 C 
ATOM      6  C16 UNL     1      27.753  -9.650 -36.680  0.00  0.00    +0.000 C 
ATOM      7  C17 UNL     1      28.404  -9.323 -35.324  0.00  0.00    +0.000 C 
ATOM      8  C18 UNL     1      29.953  -9.321 -35.447  0.00  0.00    +0.000 C 
BRANCH   8   9
ATOM      9  N1  UNL     1      30.595  -8.453 -34.430  0.00  0.00    +0.000 NA
ATOM     10  H32 UNL     1      29.857  -8.146 -33.755  0.00  0.00    +0.000 HD
BRANCH   9  11
ATOM     11  C19 UNL     1      31.697  -9.070 -33.661  0.00  0.00    +0.000 C 
ATOM     12  C20 UNL     1      32.349  -8.092 -32.705  0.00  0.00    +0.000 C 
ATOM     13  C21 UNL     1      33.247  -8.544 -31.810  0.00  0.00    +0.000 C 
ATOM     14  C23 UNL     1      33.525 -10.042 -31.773  0.00  0.00    +0.000 C 
ATOM     15  C24 UNL     1      32.183 -10.817 -31.773  0.00  0.00    +0.000 C 
ATOM     16  C25 UNL     1      31.177 -10.300 -32.862  0.00  0.00    +0.000 C 
BRANCH  16  17
ATOM     17  O18 UNL     1      29.925 -10.031 -32.275  0.00  0.00    +0.000 OA
ATOM     18  H43 UNL     1      29.665  -9.110 -32.538  0.00  0.00    +0.000 HD
ENDBRANCH  16  17
BRANCH  15  19
ATOM     19  O17 UNL     1      32.441 -12.184 -31.972  0.00  0.00    +0.000 OA
ATOM     20  H41 UNL     1      31.893 -12.677 -31.308  0.00  0.00    +0.000 HD
ENDBRANCH  15  19
BRANCH  14  21
ATOM     21  O16 UNL     1      34.285 -10.386 -30.643  0.00  0.00    +0.000 OA
ATOM     22  H39 UNL     1      33.669 -10.824 -30.000  0.00  0.00    +0.000 HD
ENDBRANCH  14  21
BRANCH  13  23
ATOM     23  C22 UNL     1      33.896  -7.568 -30.849  0.00  0.00    +0.000 C 
BRANCH  23  24
ATOM     24  O15 UNL     1      33.599  -7.920 -29.526  0.00  0.00    +0.000 OA
ATOM     25  H37 UNL     1      32.635  -8.164 -29.512  0.00  0.00    +0.000 HD
ENDBRANCH  23  24
ENDBRANCH  13  23
ENDBRANCH   9  11
ENDBRANCH   8   9
BRANCH   7  26
ATOM     26  O14 UNL     1      28.009 -10.291 -34.386  0.00  0.00    +0.000 OA
ATOM     27  H30 UNL     1      27.530 -11.004 -34.882  0.00  0.00    +0.000 HD
ENDBRANCH   7  26
BRANCH   6  28
ATOM     28  O13 UNL     1      26.349  -9.695 -36.585  0.00  0.00    +0.000 OA
ATOM     29  H28 UNL     1      26.020  -8.768 -36.460  0.00  0.00    +0.000 HD
ENDBRANCH   6  28
ENDBRANCH   1   5
BRANCH   1  30
ATOM     30  C4  UNL     1      26.839  -7.471 -39.308  0.00  0.00    +0.000 C 
ATOM     31  C5  UNL     1      28.081  -7.068 -40.122  0.00  0.00    +0.000 C 
ATOM     32  C6  UNL     1      27.727  -6.890 -41.614  0.00  0.00    +0.000 C 
ATOM     33  C7  UNL     1      26.613  -7.880 -42.034  0.00  0.00    +0.000 C 
ATOM     34  O11 UNL     1      26.660  -9.053 -41.236  0.00  0.00    +0.000 OA
ATOM     35  C14 UNL     1      26.266  -8.801 -39.888  0.00  0.00    +0.000 C 
BRANCH  32  36
ATOM     36  O4  UNL     1      28.879  -7.083 -42.398  0.00  0.00    +0.000 OA
ATOM     37  H10 UNL     1      28.962  -6.284 -42.984  0.00  0.00    +0.000 HD
ENDBRANCH  32  36
BRANCH  31  38
ATOM     38  O3  UNL     1      28.672  -5.901 -39.606  0.00  0.00    +0.000 OA
ATOM     39  H8  UNL     1      28.872  -6.064 -38.649  0.00  0.00    +0.000 HD
ENDBRANCH  31  38
BRANCH  35  40
ATOM     40  C15 UNL     1      24.734  -8.896 -39.735  0.00  0.00    +0.000 C 
BRANCH  40  41
ATOM     41  O12 UNL     1      24.361  -8.685 -38.400  0.00  0.00    +0.000 OA
ATOM     42  H26 UNL     1      24.046  -7.745 -38.337  0.00  0.00    +0.000 HD
ENDBRANCH  40  41
ENDBRANCH  35  40
BRANCH  33  43
ATOM     43  O5  UNL     1      26.786  -8.229 -43.395  0.00  0.00    +0.000 OA
BRANCH  43  44
ATOM     44  C8  UNL     1      26.123  -7.318 -44.261  0.00  0.00    +0.000 C 
ATOM     45  C9  UNL     1      26.945  -7.141 -45.551  0.00  0.00    +0.000 C 
ATOM     46  C10 UNL     1      26.217  -6.184 -46.510  0.00  0.00    +0.000 C 
ATOM     47  C11 UNL     1      24.676  -6.355 -46.414  0.00  0.00    +0.000 C 
ATOM     48  O9  UNL     1      24.326  -7.657 -45.976  0.00  0.00    +0.000 OA
ATOM     49  C12 UNL     1      24.728  -7.903 -44.627  0.00  0.00    +0.000 C 
BRANCH  47  50
ATOM     50  O8  UNL     1      24.048  -6.086 -47.641  0.00  0.00    +0.000 OA
ATOM     51  H18 UNL     1      23.154  -5.698 -47.436  0.00  0.00    +0.000 HD
ENDBRANCH  47  50
BRANCH  46  52
ATOM     52  O7  UNL     1      26.680  -6.411 -47.821  0.00  0.00    +0.000 OA
ATOM     53  H16 UNL     1      27.309  -5.676 -48.042  0.00  0.00    +0.000 HD
ENDBRANCH  46  52
BRANCH  45  54
ATOM     54  O6  UNL     1      28.216  -6.615 -45.258  0.00  0.00    +0.000 OA
ATOM     55  H14 UNL     1      28.528  -7.065 -44.431  0.00  0.00    +0.000 HD
ENDBRANCH  45  54
BRANCH  49  56
ATOM     56  C13 UNL     1      23.645  -7.447 -43.639  0.00  0.00    +0.000 C 
BRANCH  56  57
ATOM     57  O10 UNL     1      22.375  -7.807 -44.120  0.00  0.00    +0.000 OA
ATOM     58  H22 UNL     1      21.716  -7.186 -43.712  0.00  0.00    +0.000 HD
ENDBRANCH  56  57
ENDBRANCH  49  56
ENDBRANCH  43  44
ENDBRANCH  33  43
ENDBRANCH   1  30
TORSDOF 22
ENDMDL
MODEL 7
REMARK VINA RESULT:    -4.753      2.127      3.885
REMARK INTER + INTRA:         -12.322
REMARK INTER:                 -10.035
REMARK INTRA:                  -2.287
REMARK UNBOUND:                -3.262
REMARK  Name = resultss/4CJN/ligands/lig_333_t0.pdb
REMARK  23 active torsions:
REMARK  status: ('A' for Active; 'I' for Inactive)
REMARK    1  A    between atoms: C1_1  and  C2_2
REMARK    2  A    between atoms: C3_4  and  O2_5
REMARK    3  A    between atoms: O2_5  and  C4_6
REMARK    4  A    between atoms: C5_7  and  O3_8
REMARK    5  A    between atoms: C6_9  and  O4_10
REMARK    6  A    between atoms: C7_11  and  O5_12
REMARK    7  A    between atoms: O5_12  and  C8_13
REMARK    8  A    between atoms: C9_14  and  O6_15
REMARK    9  A    between atoms: C10_16  and  O7_17
REMARK   10  A    between atoms: C11_18  and  O8_19
REMARK   11  A    between atoms: C12_21  and  C13_22
REMARK   12  A    between atoms: C13_22  and  O10_23
REMARK   13  A    between atoms: C14_25  and  C15_26
REMARK   14  A    between atoms: C15_26  and  O12_27
REMARK   15  A    between atoms: C16_28  and  O13_29
REMARK   16  A    between atoms: C17_30  and  O14_31
REMARK   17  A    between atoms: C18_32  and  N1_33
REMARK   18  A    between atoms: N1_33  and  C19_34
REMARK   19  A    between atoms: C21_36  and  C22_37
REMARK   20  A    between atoms: C22_37  and  O15_38
REMARK   21  A    between atoms: C23_39  and  O16_40
REMARK   22  A    between atoms: C24_41  and  O17_42
REMARK   23  A    between atoms: C25_43  and  O18_44
REMARK                            x       y       z     vdW  Elec       q    Type
REMARK                         _______ _______ _______ _____ _____    ______ ____
ROOT
ATOM      1  O2  UNL     1      29.560  -9.344 -38.934  0.00  0.00    +0.000 OA
ENDROOT
BRANCH   1   5
ATOM      2  C1  UNL     1      31.150  -6.024 -36.662  0.00  0.00    +0.000 C 
ATOM      3  C2  UNL     1      30.498  -7.323 -36.156  0.00  0.00    +0.000 C 
ATOM      4  O1  UNL     1      29.675  -7.945 -37.131  0.00  0.00    +0.000 OA
ATOM      5  C3  UNL     1      30.381  -8.385 -38.284  0.00  0.00    +0.000 C 
ATOM      6  C16 UNL     1      31.753  -9.039 -37.950  0.00  0.00    +0.000 C 
ATOM      7  C17 UNL     1      31.810  -9.511 -36.486  0.00  0.00    +0.000 C 
ATOM      8  C18 UNL     1      31.505  -8.332 -35.519  0.00  0.00    +0.000 C 
BRANCH   8   9
ATOM      9  N1  UNL     1      30.946  -8.797 -34.227  0.00  0.00    +0.000 NA
ATOM     10  H32 UNL     1      31.582  -8.470 -33.463  0.00  0.00    +0.000 HD
BRANCH   9  11
ATOM     11  C19 UNL     1      29.575  -8.337 -33.915  0.00  0.00    +0.000 C 
ATOM     12  C20 UNL     1      28.518  -9.144 -34.639  0.00  0.00    +0.000 C 
ATOM     13  C21 UNL     1      27.221  -8.965 -34.325  0.00  0.00    +0.000 C 
ATOM     14  C23 UNL     1      26.887  -7.983 -33.208  0.00  0.00    +0.000 C 
ATOM     15  C24 UNL     1      27.804  -8.255 -31.989  0.00  0.00    +0.000 C 
ATOM     16  C25 UNL     1      29.316  -8.408 -32.382  0.00  0.00    +0.000 C 
BRANCH  16  17
ATOM     17  O18 UNL     1      29.841  -9.595 -31.834  0.00  0.00    +0.000 OA
ATOM     18  H43 UNL     1      29.074 -10.184 -31.609  0.00  0.00    +0.000 HD
ENDBRANCH  16  17
BRANCH  15  19
ATOM     19  O17 UNL     1      27.655  -7.212 -31.060  0.00  0.00    +0.000 OA
ATOM     20  H41 UNL     1      28.127  -7.496 -30.235  0.00  0.00    +0.000 HD
ENDBRANCH  15  19
BRANCH  14  21
ATOM     21  O16 UNL     1      25.538  -8.085 -32.835  0.00  0.00    +0.000 OA
ATOM     22  H39 UNL     1      25.441  -8.931 -32.323  0.00  0.00    +0.000 HD
ENDBRANCH  14  21
BRANCH  13  23
ATOM     23  C22 UNL     1      26.162  -9.777 -35.045  0.00  0.00    +0.000 C 
BRANCH  23  24
ATOM     24  O15 UNL     1      25.423 -10.533 -34.125  0.00  0.00    +0.000 OA
ATOM     25  H37 UNL     1      25.769 -10.291 -33.225  0.00  0.00    +0.000 HD
ENDBRANCH  23  24
ENDBRANCH  13  23
ENDBRANCH   9  11
ENDBRANCH   8   9
BRANCH   7  26
ATOM     26  O14 UNL     1      33.093 -10.014 -36.220  0.00  0.00    +0.000 OA
ATOM     27  H30 UNL     1      33.308  -9.790 -35.278  0.00  0.00    +0.000 HD
ENDBRANCH   7  26
BRANCH   6  28
ATOM     28  O13 UNL     1      32.064 -10.081 -38.844  0.00  0.00    +0.000 OA
ATOM     29  H28 UNL     1      31.833 -10.940 -38.405  0.00  0.00    +0.000 HD
ENDBRANCH   6  28
ENDBRANCH   1   5
BRANCH   1  30
ATOM     30  C4  UNL     1      28.761  -8.800 -39.973  0.00  0.00    +0.000 C 
ATOM     31  C5  UNL     1      29.298  -9.325 -41.316  0.00  0.00    +0.000 C 
ATOM     32  C6  UNL     1      28.444  -8.802 -42.491  0.00  0.00    +0.000 C 
ATOM     33  C7  UNL     1      26.962  -8.654 -42.068  0.00  0.00    +0.000 C 
ATOM     34  O11 UNL     1      26.641  -9.581 -41.042  0.00  0.00    +0.000 OA
ATOM     35  C14 UNL     1      27.279  -9.258 -39.808  0.00  0.00    +0.000 C 
BRANCH  32  36
ATOM     36  O4  UNL     1      28.560  -9.680 -43.584  0.00  0.00    +0.000 OA
ATOM     37  H10 UNL     1      28.293  -9.166 -44.392  0.00  0.00    +0.000 HD
ENDBRANCH  32  36
BRANCH  31  38
ATOM     38  O3  UNL     1      30.651  -8.987 -41.492  0.00  0.00    +0.000 OA
ATOM     39  H8  UNL     1      30.690  -8.230 -42.132  0.00  0.00    +0.000 HD
ENDBRANCH  31  38
BRANCH  35  40
ATOM     40  C15 UNL     1      26.440  -8.246 -39.000  0.00  0.00    +0.000 C 
BRANCH  40  41
ATOM     41  O12 UNL     1      27.205  -7.114 -38.685  0.00  0.00    +0.000 OA
ATOM     42  H26 UNL     1      26.899  -6.387 -39.288  0.00  0.00    +0.000 HD
ENDBRANCH  40  41
ENDBRANCH  35  40
BRANCH  33  43
ATOM     43  O5  UNL     1      26.130  -8.885 -43.189  0.00  0.00    +0.000 OA
BRANCH  43  44
ATOM     44  C8  UNL     1      25.236  -7.803 -43.414  0.00  0.00    +0.000 C 
ATOM     45  C9  UNL     1      25.248  -7.426 -44.907  0.00  0.00    +0.000 C 
ATOM     46  C10 UNL     1      24.256  -6.279 -45.167  0.00  0.00    +0.000 C 
ATOM     47  C11 UNL     1      23.004  -6.401 -44.255  0.00  0.00    +0.000 C 
ATOM     48  O9  UNL     1      22.772  -7.746 -43.872  0.00  0.00    +0.000 OA
ATOM     49  C12 UNL     1      23.799  -8.253 -43.018  0.00  0.00    +0.000 C 
BRANCH  47  50
ATOM     50  O8  UNL     1      21.857  -5.885 -44.881  0.00  0.00    +0.000 OA
ATOM     51  H18 UNL     1      21.480  -6.609 -45.450  0.00  0.00    +0.000 HD
ENDBRANCH  47  50
BRANCH  46  52
ATOM     52  O7  UNL     1      23.904  -6.280 -46.530  0.00  0.00    +0.000 OA
ATOM     53  H16 UNL     1      24.745  -6.353 -47.052  0.00  0.00    +0.000 HD
ENDBRANCH  46  52
BRANCH  45  54
ATOM     54  O6  UNL     1      26.534  -7.016 -45.302  0.00  0.00    +0.000 OA
ATOM     55  H14 UNL     1      27.152  -7.266 -44.567  0.00  0.00    +0.000 HD
ENDBRANCH  45  54
BRANCH  49  56
ATOM     56  C13 UNL     1      23.494  -7.941 -41.546  0.00  0.00    +0.000 C 
BRANCH  56  57
ATOM     57  O10 UNL     1      23.748  -9.075 -40.754  0.00  0.00    +0.000 OA
ATOM     58  H22 UNL     1      23.991  -9.816 -41.368  0.00  0.00    +0.000 HD
ENDBRANCH  56  57
ENDBRANCH  49  56
ENDBRANCH  43  44
ENDBRANCH  33  43
ENDBRANCH   1  30
TORSDOF 22
ENDMDL
MODEL 8
REMARK VINA RESULT:    -4.560      2.865      6.011
REMARK INTER + INTRA:         -11.954
REMARK INTER:                 -10.361
REMARK INTRA:                  -1.593
REMARK UNBOUND:                -3.262
REMARK  Name = resultss/4CJN/ligands/lig_333_t0.pdb
REMARK  23 active torsions:
REMARK  status: ('A' for Active; 'I' for Inactive)
REMARK    1  A    between atoms: C1_1  and  C2_2
REMARK    2  A    between atoms: C3_4  and  O2_5
REMARK    3  A    between atoms: O2_5  and  C4_6
REMARK    4  A    between atoms: C5_7  and  O3_8
REMARK    5  A    between atoms: C6_9  and  O4_10
REMARK    6  A    between atoms: C7_11  and  O5_12
REMARK    7  A    between atoms: O5_12  and  C8_13
REMARK    8  A    between atoms: C9_14  and  O6_15
REMARK    9  A    between atoms: C10_16  and  O7_17
REMARK   10  A    between atoms: C11_18  and  O8_19
REMARK   11  A    between atoms: C12_21  and  C13_22
REMARK   12  A    between atoms: C13_22  and  O10_23
REMARK   13  A    between atoms: C14_25  and  C15_26
REMARK   14  A    between atoms: C15_26  and  O12_27
REMARK   15  A    between atoms: C16_28  and  O13_29
REMARK   16  A    between atoms: C17_30  and  O14_31
REMARK   17  A    between atoms: C18_32  and  N1_33
REMARK   18  A    between atoms: N1_33  and  C19_34
REMARK   19  A    between atoms: C21_36  and  C22_37
REMARK   20  A    between atoms: C22_37  and  O15_38
REMARK   21  A    between atoms: C23_39  and  O16_40
REMARK   22  A    between atoms: C24_41  and  O17_42
REMARK   23  A    between atoms: C25_43  and  O18_44
REMARK                            x       y       z     vdW  Elec       q    Type
REMARK                         _______ _______ _______ _____ _____    ______ ____
ROOT
ATOM      1  O2  UNL     1      26.713  -9.753 -40.820  0.00  0.00    +0.000 OA
ENDROOT
BRANCH   1   5
ATOM      2  C1  UNL     1      29.137  -6.492 -39.335  0.00  0.00    +0.000 C 
ATOM      3  C2  UNL     1      28.132  -7.377 -38.578  0.00  0.00    +0.000 C 
ATOM      4  O1  UNL     1      27.186  -7.998 -39.435  0.00  0.00    +0.000 OA
ATOM      5  C3  UNL     1      27.760  -8.909 -40.363  0.00  0.00    +0.000 C 
ATOM      6  C16 UNL     1      28.882  -9.790 -39.741  0.00  0.00    +0.000 C 
ATOM      7  C17 UNL     1      28.774  -9.840 -38.207  0.00  0.00    +0.000 C 
ATOM      8  C18 UNL     1      28.797  -8.405 -37.609  0.00  0.00    +0.000 C 
BRANCH   8   9
ATOM      9  N1  UNL     1      28.103  -8.331 -36.301  0.00  0.00    +0.000 NA
ATOM     10  H32 UNL     1      27.942  -9.309 -35.964  0.00  0.00    +0.000 HD
BRANCH   9  11
ATOM     11  C19 UNL     1      28.812  -7.588 -35.237  0.00  0.00    +0.000 C 
ATOM     12  C20 UNL     1      27.900  -7.220 -34.086  0.00  0.00    +0.000 C 
ATOM     13  C21 UNL     1      28.431  -6.699 -32.964  0.00  0.00    +0.000 C 
ATOM     14  C23 UNL     1      29.947  -6.553 -32.894  0.00  0.00    +0.000 C 
ATOM     15  C24 UNL     1      30.615  -7.870 -33.361  0.00  0.00    +0.000 C 
ATOM     16  C25 UNL     1      30.009  -8.425 -34.698  0.00  0.00    +0.000 C 
BRANCH  16  17
ATOM     17  O18 UNL     1      29.651  -9.778 -34.542  0.00  0.00    +0.000 OA
ATOM     18  H43 UNL     1      30.199 -10.148 -33.802  0.00  0.00    +0.000 HD
ENDBRANCH  16  17
BRANCH  15  19
ATOM     19  O17 UNL     1      31.996  -7.656 -33.514  0.00  0.00    +0.000 OA
ATOM     20  H41 UNL     1      32.125  -6.676 -33.594  0.00  0.00    +0.000 HD
ENDBRANCH  15  19
BRANCH  14  21
ATOM     21  O16 UNL     1      30.362  -6.231 -31.592  0.00  0.00    +0.000 OA
ATOM     22  H39 UNL     1      30.640  -5.278 -31.602  0.00  0.00    +0.000 HD
ENDBRANCH  14  21
BRANCH  13  23
ATOM     23  C22 UNL     1      27.519  -6.335 -31.808  0.00  0.00    +0.000 C 
BRANCH  23  24
ATOM     24  O15 UNL     1      27.550  -7.341 -30.832  0.00  0.00    +0.000 OA
ATOM     25  H37 UNL     1      27.978  -6.937 -30.031  0.00  0.00    +0.000 HD
ENDBRANCH  23  24
ENDBRANCH  13  23
ENDBRANCH   9  11
ENDBRANCH   8   9
BRANCH   7  26
ATOM     26  O14 UNL     1      29.855 -10.577 -37.698  0.00  0.00    +0.000 OA
ATOM     27  H30 UNL     1      30.245 -10.052 -36.952  0.00  0.00    +0.000 HD
ENDBRANCH   7  26
BRANCH   6  28
ATOM     28  O13 UNL     1      28.902 -11.081 -40.303  0.00  0.00    +0.000 OA
ATOM     29  H28 UNL     1      28.365 -11.677 -39.719  0.00  0.00    +0.000 HD
ENDBRANCH   6  28
ENDBRANCH   1   5
BRANCH   1  30
ATOM     30  C4  UNL     1      25.823  -9.116 -41.724  0.00  0.00    +0.000 C 
ATOM     31  C5  UNL     1      24.625  -8.579 -40.921  0.00  0.00    +0.000 C 
ATOM     32  C6  UNL     1      23.635  -7.835 -41.843  0.00  0.00    +0.000 C 
ATOM     33  C7  UNL     1      24.389  -7.120 -42.992  0.00  0.00    +0.000 C 
ATOM     34  O11 UNL     1      25.703  -6.772 -42.587  0.00  0.00    +0.000 OA
ATOM     35  C14 UNL     1      26.537  -7.920 -42.426  0.00  0.00    +0.000 C 
BRANCH  32  36
ATOM     36  O4  UNL     1      22.895  -6.908 -41.087  0.00  0.00    +0.000 OA
ATOM     37  H10 UNL     1      22.486  -6.274 -41.735  0.00  0.00    +0.000 HD
ENDBRANCH  32  36
BRANCH  31  38
ATOM     38  O3  UNL     1      23.976  -9.612 -40.222  0.00  0.00    +0.000 OA
ATOM     39  H8  UNL     1      23.549  -9.210 -39.423  0.00  0.00    +0.000 HD
ENDBRANCH  31  38
BRANCH  35  40
ATOM     40  C15 UNL     1      27.180  -8.326 -43.768  0.00  0.00    +0.000 C 
BRANCH  40  41
ATOM     41  O12 UNL     1      28.577  -8.232 -43.690  0.00  0.00    +0.000 OA
ATOM     42  H26 UNL     1      28.836  -7.417 -44.197  0.00  0.00    +0.000 HD
ENDBRANCH  40  41
ENDBRANCH  35  40
BRANCH  33  43
ATOM     43  O5  UNL     1      23.683  -5.950 -43.357  0.00  0.00    +0.000 OA
BRANCH  43  44
ATOM     44  C8  UNL     1      23.268  -5.986 -44.716  0.00  0.00    +0.000 C 
ATOM     45  C9  UNL     1      24.370  -6.634 -45.574  0.00  0.00    +0.000 C 
ATOM     46  C10 UNL     1      23.915  -6.712 -47.042  0.00  0.00    +0.000 C 
ATOM     47  C11 UNL     1      22.388  -6.979 -47.144  0.00  0.00    +0.000 C 
ATOM     48  O9  UNL     1      21.903  -7.654 -45.997  0.00  0.00    +0.000 OA
ATOM     49  C12 UNL     1      21.975  -6.848 -44.820  0.00  0.00    +0.000 C 
BRANCH  47  50
ATOM     50  O8  UNL     1      22.069  -7.718 -48.296  0.00  0.00    +0.000 OA
ATOM     51  H18 UNL     1      21.369  -7.209 -48.788  0.00  0.00    +0.000 HD
ENDBRANCH  47  50
BRANCH  46  52
ATOM     52  O7  UNL     1      24.659  -7.711 -47.699  0.00  0.00    +0.000 OA
ATOM     53  H16 UNL     1      24.360  -7.726 -48.645  0.00  0.00    +0.000 HD
ENDBRANCH  46  52
BRANCH  45  54
ATOM     54  O6  UNL     1      25.557  -5.883 -45.503  0.00  0.00    +0.000 OA
ATOM     55  H14 UNL     1      25.657  -5.426 -46.379  0.00  0.00    +0.000 HD
ENDBRANCH  45  54
BRANCH  49  56
ATOM     56  C13 UNL     1      20.710  -5.991 -44.662  0.00  0.00    +0.000 C 
BRANCH  56  57
ATOM     57  O10 UNL     1      19.567  -6.790 -44.833  0.00  0.00    +0.000 OA
ATOM     58  H22 UNL     1      19.602  -7.508 -44.148  0.00  0.00    +0.000 HD
ENDBRANCH  56  57
ENDBRANCH  49  56
ENDBRANCH  43  44
ENDBRANCH  33  43
ENDBRANCH   1  30
TORSDOF 22
ENDMDL
MODEL 9
REMARK VINA RESULT:    -4.534      2.499      6.125
REMARK INTER + INTRA:         -11.905
REMARK INTER:                  -9.767
REMARK INTRA:                  -2.138
REMARK UNBOUND:                -3.262
REMARK  Name = resultss/4CJN/ligands/lig_333_t0.pdb
REMARK  23 active torsions:
REMARK  status: ('A' for Active; 'I' for Inactive)
REMARK    1  A    between atoms: C1_1  and  C2_2
REMARK    2  A    between atoms: C3_4  and  O2_5
REMARK    3  A    between atoms: O2_5  and  C4_6
REMARK    4  A    between atoms: C5_7  and  O3_8
REMARK    5  A    between atoms: C6_9  and  O4_10
REMARK    6  A    between atoms: C7_11  and  O5_12
REMARK    7  A    between atoms: O5_12  and  C8_13
REMARK    8  A    between atoms: C9_14  and  O6_15
REMARK    9  A    between atoms: C10_16  and  O7_17
REMARK   10  A    between atoms: C11_18  and  O8_19
REMARK   11  A    between atoms: C12_21  and  C13_22
REMARK   12  A    between atoms: C13_22  and  O10_23
REMARK   13  A    between atoms: C14_25  and  C15_26
REMARK   14  A    between atoms: C15_26  and  O12_27
REMARK   15  A    between atoms: C16_28  and  O13_29
REMARK   16  A    between atoms: C17_30  and  O14_31
REMARK   17  A    between atoms: C18_32  and  N1_33
REMARK   18  A    between atoms: N1_33  and  C19_34
REMARK   19  A    between atoms: C21_36  and  C22_37
REMARK   20  A    between atoms: C22_37  and  O15_38
REMARK   21  A    between atoms: C23_39  and  O16_40
REMARK   22  A    between atoms: C24_41  and  O17_42
REMARK   23  A    between atoms: C25_43  and  O18_44
REMARK                            x       y       z     vdW  Elec       q    Type
REMARK                         _______ _______ _______ _____ _____    ______ ____
ROOT
ATOM      1  O2  UNL     1      26.010  -6.910 -38.950  0.00  0.00    +0.000 OA
ENDROOT
BRANCH   1   5
ATOM      2  C1  UNL     1      28.071 -10.556 -37.868  0.00  0.00    +0.000 C 
ATOM      3  C2  UNL     1      28.038  -9.206 -37.132  0.00  0.00    +0.000 C 
ATOM      4  O1  UNL     1      27.686  -8.122 -37.980  0.00  0.00    +0.000 OA
ATOM      5  C3  UNL     1      26.373  -8.213 -38.517  0.00  0.00    +0.000 C 
ATOM      6  C16 UNL     1      25.322  -8.711 -37.482  0.00  0.00    +0.000 C 
ATOM      7  C17 UNL     1      25.815  -8.511 -36.038  0.00  0.00    +0.000 C 
ATOM      8  C18 UNL     1      27.184  -9.217 -35.825  0.00  0.00    +0.000 C 
BRANCH   8   9
ATOM      9  N1  UNL     1      27.978  -8.585 -34.743  0.00  0.00    +0.000 NA
ATOM     10  H32 UNL     1      27.498  -8.781 -33.833  0.00  0.00    +0.000 HD
BRANCH   9  11
ATOM     11  C19 UNL     1      29.382  -9.032 -34.630  0.00  0.00    +0.000 C 
ATOM     12  C20 UNL     1      30.366  -7.906 -34.870  0.00  0.00    +0.000 C 
ATOM     13  C21 UNL     1      31.675  -8.110 -34.629  0.00  0.00    +0.000 C 
ATOM     14  C23 UNL     1      32.094  -9.466 -34.074  0.00  0.00    +0.000 C 
ATOM     15  C24 UNL     1      31.163  -9.853 -32.897  0.00  0.00    +0.000 C 
ATOM     16  C25 UNL     1      29.643  -9.652 -33.226  0.00  0.00    +0.000 C 
BRANCH  16  17
ATOM     17  O18 UNL     1      29.024  -8.890 -32.215  0.00  0.00    +0.000 OA
ATOM     18  H43 UNL     1      29.023  -9.439 -31.388  0.00  0.00    +0.000 HD
ENDBRANCH  16  17
BRANCH  15  19
ATOM     19  O17 UNL     1      31.402 -11.192 -32.542  0.00  0.00    +0.000 OA
ATOM     20  H41 UNL     1      30.786 -11.403 -31.794  0.00  0.00    +0.000 HD
ENDBRANCH  15  19
BRANCH  14  21
ATOM     21  O16 UNL     1      33.432  -9.445 -33.650  0.00  0.00    +0.000 OA
ATOM     22  H39 UNL     1      33.990  -9.289 -34.456  0.00  0.00    +0.000 HD
ENDBRANCH  14  21
BRANCH  13  23
ATOM     23  C22 UNL     1      32.660  -6.982 -34.863  0.00  0.00    +0.000 C 
BRANCH  23  24
ATOM     24  O15 UNL     1      33.630  -7.372 -35.796  0.00  0.00    +0.000 OA
ATOM     25  H37 UNL     1      33.141  -7.588 -36.633  0.00  0.00    +0.000 HD
ENDBRANCH  23  24
ENDBRANCH  13  23
ENDBRANCH   9  11
ENDBRANCH   8   9
BRANCH   7  26
ATOM     26  O14 UNL     1      24.867  -9.052 -35.155  0.00  0.00    +0.000 OA
ATOM     27  H30 UNL     1      24.473  -8.297 -34.646  0.00  0.00    +0.000 HD
ENDBRANCH   7  26
BRANCH   6  28
ATOM     28  O13 UNL     1      24.064  -8.113 -37.689  0.00  0.00    +0.000 OA
ATOM     29  H28 UNL     1      23.807  -8.261 -38.636  0.00  0.00    +0.000 HD
ENDBRANCH   6  28
ENDBRANCH   1   5
BRANCH   1  30
ATOM     30  C4  UNL     1      26.003  -6.761 -40.361  0.00  0.00    +0.000 C 
ATOM     31  C5  UNL     1      27.444  -6.941 -40.870  0.00  0.00    +0.000 C 
ATOM     32  C6  UNL     1      27.501  -6.834 -42.410  0.00  0.00    +0.000 C 
ATOM     33  C7  UNL     1      26.206  -7.395 -43.045  0.00  0.00    +0.000 C 
ATOM     34  O11 UNL     1      25.636  -8.396 -42.217  0.00  0.00    +0.000 OA
ATOM     35  C14 UNL     1      25.098  -7.853 -41.012  0.00  0.00    +0.000 C 
BRANCH  32  36
ATOM     36  O4  UNL     1      28.627  -7.527 -42.888  0.00  0.00    +0.000 OA
ATOM     37  H10 UNL     1      29.365  -7.350 -42.246  0.00  0.00    +0.000 HD
ENDBRANCH  32  36
BRANCH  31  38
ATOM     38  O3  UNL     1      28.316  -6.015 -40.272  0.00  0.00    +0.000 OA
ATOM     39  H8  UNL     1      27.950  -5.793 -39.378  0.00  0.00    +0.000 HD
ENDBRANCH  31  38
BRANCH  35  40
ATOM     40  C15 UNL     1      23.651  -7.365 -41.224  0.00  0.00    +0.000 C 
BRANCH  40  41
ATOM     41  O12 UNL     1      23.172  -6.731 -40.068  0.00  0.00    +0.000 OA
ATOM     42  H26 UNL     1      22.509  -6.055 -40.369  0.00  0.00    +0.000 HD
ENDBRANCH  40  41
ENDBRANCH  35  40
BRANCH  33  43
ATOM     43  O5  UNL     1      26.509  -7.949 -44.313  0.00  0.00    +0.000 OA
BRANCH  43  44
ATOM     44  C8  UNL     1      26.137  -7.077 -45.371  0.00  0.00    +0.000 C 
ATOM     45  C9  UNL     1      26.932  -7.437 -46.640  0.00  0.00    +0.000 C 
ATOM     46  C10 UNL     1      26.509  -6.522 -47.802  0.00  0.00    +0.000 C 
ATOM     47  C11 UNL     1      24.996  -6.180 -47.727  0.00  0.00    +0.000 C 
ATOM     48  O9  UNL     1      24.271  -7.186 -47.042  0.00  0.00    +0.000 OA
ATOM     49  C12 UNL     1      24.618  -7.260 -45.658  0.00  0.00    +0.000 C 
BRANCH  47  50
ATOM     50  O8  UNL     1      24.445  -5.989 -49.005  0.00  0.00    +0.000 OA
ATOM     51  H18 UNL     1      24.838  -5.152 -49.374  0.00  0.00    +0.000 HD
ENDBRANCH  47  50
BRANCH  46  52
ATOM     52  O7  UNL     1      26.836  -7.149 -49.019  0.00  0.00    +0.000 OA
ATOM     53  H16 UNL     1      27.339  -7.977 -48.799  0.00  0.00    +0.000 HD
ENDBRANCH  46  52
BRANCH  45  54
ATOM     54  O6  UNL     1      28.312  -7.285 -46.418  0.00  0.00    +0.000 OA
ATOM     55  H14 UNL     1      28.740  -8.140 -46.684  0.00  0.00    +0.000 HD
ENDBRANCH  45  54
BRANCH  49  56
ATOM     56  C13 UNL     1      23.764  -6.294 -44.824  0.00  0.00    +0.000 C 
BRANCH  56  57
ATOM     57  O10 UNL     1      22.551  -6.034 -45.486  0.00  0.00    +0.000 OA
ATOM     58  H22 UNL     1      21.897  -5.738 -44.800  0.00  0.00    +0.000 HD
ENDBRANCH  56  57
ENDBRANCH  49  56
ENDBRANCH  43  44
ENDBRANCH  33  43
ENDBRANCH   1  30
TORSDOF 22
ENDMDL
