MODEL 1
REMARK VINA RESULT:    -6.587      0.000      0.000
REMARK INTER + INTRA:          -9.312
REMARK INTER:                  -8.897
REMARK INTRA:                  -0.415
REMARK UNBOUND:                -0.415
REMARK  Name = resultss/4CJN/ligands/lig_311_t2.pdb
REMARK  9 active torsions:
REMARK  status: ('A' for Active; 'I' for Inactive)
REMARK    1  A    between atoms: C5_7  and  O3_8
REMARK    2  A    between atoms: C9_13  and  O5_14
REMARK    3  A    between atoms: C12_17  and  O6_18
REMARK    4  A    between atoms: O6_18  and  C13_19
REMARK    5  A    between atoms: C14_21  and  C15_22
REMARK    6  A    between atoms: C15_22  and  O8_23
REMARK    7  A    between atoms: C16_24  and  O9_25
REMARK    8  A    between atoms: C17_26  and  O10_27
REMARK    9  A    between atoms: C18_28  and  O11_29
REMARK                            x       y       z     vdW  Elec       q    Type
REMARK                         _______ _______ _______ _____ _____    ______ ____
ROOT
ATOM      1  O1  UNL     1      24.542  -7.184 -38.786  0.00  0.00    +0.000 OA
ATOM      2  C1  UNL     1      25.115  -7.989 -39.569  0.00  0.00    +0.000 A 
ATOM      3  C2  UNL     1      24.784  -7.991 -40.940  0.00  0.00    +0.000 A 
ATOM      4  C3  UNL     1      23.771  -7.078 -41.522  0.00  0.00    +0.000 C 
ATOM      5  O2  UNL     1      23.148  -6.249 -40.805  0.00  0.00    +0.000 OA
ATOM      6  C4  UNL     1      23.482  -7.132 -42.960  0.00  0.00    +0.000 C 
ATOM      7  C5  UNL     1      24.109  -7.991 -43.768  0.00  0.00    +0.000 C 
ATOM      8  C6  UNL     1      25.153  -8.964 -43.269  0.00  0.00    +0.000 C 
ATOM      9  C7  UNL     1      25.444  -8.895 -41.789  0.00  0.00    +0.000 A 
ATOM     10  O4  UNL     1      26.357  -9.726 -41.300  0.00  0.00    +0.000 OA
ATOM     11  C8  UNL     1      26.704  -9.762 -40.020  0.00  0.00    +0.000 A 
ATOM     12  C9  UNL     1      27.686 -10.673 -39.599  0.00  0.00    +0.000 A 
ATOM     13  C10 UNL     1      28.062 -10.719 -38.258  0.00  0.00    +0.000 A 
ATOM     14  C11 UNL     1      27.474  -9.863 -37.329  0.00  0.00    +0.000 A 
ATOM     15  C12 UNL     1      26.492  -8.934 -37.723  0.00  0.00    +0.000 A 
ATOM     16  C19 UNL     1      26.094  -8.888 -39.086  0.00  0.00    +0.000 A 
ENDROOT
BRANCH   7  17
ATOM     17  O3  UNL     1      23.786  -7.989 -45.125  0.00  0.00    +0.000 OA
ATOM     18  H2  UNL     1      22.906  -7.605 -45.454  0.00  0.00    +0.000 HD
ENDBRANCH   7  17
BRANCH  12  19
ATOM     19  O5  UNL     1      28.302 -11.540 -40.502  0.00  0.00    +0.000 OA
ATOM     20  H5  UNL     1      28.792 -11.205 -41.324  0.00  0.00    +0.000 HD
ENDBRANCH  12  19
BRANCH  15  21
ATOM     21  O6  UNL     1      25.901  -8.053 -36.796  0.00  0.00    +0.000 OA
BRANCH  21  22
ATOM     22  C13 UNL     1      25.064  -8.420 -35.696  0.00  0.00    +0.000 C 
ATOM     23  O7  UNL     1      24.475  -7.232 -35.192  0.00  0.00    +0.000 OA
ATOM     24  C14 UNL     1      23.567  -7.532 -34.144  0.00  0.00    +0.000 C 
ATOM     25  C16 UNL     1      24.306  -8.137 -32.909  0.00  0.00    +0.000 C 
ATOM     26  C17 UNL     1      25.787  -8.429 -33.235  0.00  0.00    +0.000 C 
ATOM     27  C18 UNL     1      25.912  -9.138 -34.603  0.00  0.00    +0.000 C 
BRANCH  25  28
ATOM     28  O9  UNL     1      23.654  -9.324 -32.521  0.00  0.00    +0.000 OA
ATOM     29  H14 UNL     1      23.973 -10.043 -33.129  0.00  0.00    +0.000 HD
ENDBRANCH  25  28
BRANCH  26  30
ATOM     30  O10 UNL     1      26.500  -7.217 -33.250  0.00  0.00    +0.000 OA
ATOM     31  H16 UNL     1      26.743  -7.006 -32.303  0.00  0.00    +0.000 HD
ENDBRANCH  26  30
BRANCH  27  32
ATOM     32  O11 UNL     1      25.485 -10.475 -34.487  0.00  0.00    +0.000 OA
ATOM     33  H18 UNL     1      25.960 -10.994 -35.189  0.00  0.00    +0.000 HD
ENDBRANCH  27  32
BRANCH  24  34
ATOM     34  C15 UNL     1      22.824  -6.240 -33.774  0.00  0.00    +0.000 C 
BRANCH  34  35
ATOM     35  O8  UNL     1      22.776  -6.086 -32.379  0.00  0.00    +0.000 OA
ATOM     36  H12 UNL     1      23.704  -5.931 -32.067  0.00  0.00    +0.000 HD
ENDBRANCH  34  35
ENDBRANCH  24  34
ENDBRANCH  21  22
ENDBRANCH  15  21
TORSDOF 9
ENDMDL
MODEL 2
REMARK VINA RESULT:    -6.478      2.906      4.397
REMARK INTER + INTRA:          -9.166
REMARK INTER:                  -8.297
REMARK INTRA:                  -0.869
REMARK UNBOUND:                -0.415
REMARK  Name = resultss/4CJN/ligands/lig_311_t2.pdb
REMARK  9 active torsions:
REMARK  status: ('A' for Active; 'I' for Inactive)
REMARK    1  A    between atoms: C5_7  and  O3_8
REMARK    2  A    between atoms: C9_13  and  O5_14
REMARK    3  A    between atoms: C12_17  and  O6_18
REMARK    4  A    between atoms: O6_18  and  C13_19
REMARK    5  A    between atoms: C14_21  and  C15_22
REMARK    6  A    between atoms: C15_22  and  O8_23
REMARK    7  A    between atoms: C16_24  and  O9_25
REMARK    8  A    between atoms: C17_26  and  O10_27
REMARK    9  A    between atoms: C18_28  and  O11_29
REMARK                            x       y       z     vdW  Elec       q    Type
REMARK                         _______ _______ _______ _____ _____    ______ ____
ROOT
ATOM      1  O1  UNL     1      26.883  -9.944 -37.375  0.00  0.00    +0.000 OA
ATOM      2  C1  UNL     1      28.124  -9.892 -37.591  0.00  0.00    +0.000 A 
ATOM      3  C2  UNL     1      28.608  -9.910 -38.915  0.00  0.00    +0.000 A 
ATOM      4  C3  UNL     1      27.715  -9.991 -40.095  0.00  0.00    +0.000 C 
ATOM      5  O2  UNL     1      26.462 -10.054 -39.964  0.00  0.00    +0.000 OA
ATOM      6  C4  UNL     1      28.290  -9.999 -41.445  0.00  0.00    +0.000 C 
ATOM      7  C5  UNL     1      29.608  -9.937 -41.645  0.00  0.00    +0.000 C 
ATOM      8  C6  UNL     1      30.601  -9.856 -40.507  0.00  0.00    +0.000 C 
ATOM      9  C7  UNL     1      29.997  -9.845 -39.124  0.00  0.00    +0.000 A 
ATOM     10  O4  UNL     1      30.825  -9.770 -38.089  0.00  0.00    +0.000 OA
ATOM     11  C8  UNL     1      30.419  -9.750 -36.825  0.00  0.00    +0.000 A 
ATOM     12  C9  UNL     1      31.372  -9.663 -35.798  0.00  0.00    +0.000 A 
ATOM     13  C10 UNL     1      30.959  -9.638 -34.468  0.00  0.00    +0.000 A 
ATOM     14  C11 UNL     1      29.604  -9.693 -34.146  0.00  0.00    +0.000 A 
ATOM     15  C12 UNL     1      28.625  -9.772 -35.156  0.00  0.00    +0.000 A 
ATOM     16  C19 UNL     1      29.038  -9.811 -36.514  0.00  0.00    +0.000 A 
ENDROOT
BRANCH   7  17
ATOM     17  O3  UNL     1      30.087  -9.948 -42.955  0.00  0.00    +0.000 OA
ATOM     18  H2  UNL     1      30.063 -10.793 -43.515  0.00  0.00    +0.000 HD
ENDBRANCH   7  17
BRANCH  12  19
ATOM     19  O5  UNL     1      32.736  -9.598 -36.082  0.00  0.00    +0.000 OA
ATOM     20  H5  UNL     1      33.406 -10.238 -35.669  0.00  0.00    +0.000 HD
ENDBRANCH  12  19
BRANCH  15  21
ATOM     21  O6  UNL     1      27.252  -9.813 -34.844  0.00  0.00    +0.000 OA
BRANCH  21  22
ATOM     22  C13 UNL     1      26.558  -8.925 -33.964  0.00  0.00    +0.000 C 
ATOM     23  O7  UNL     1      25.183  -9.275 -34.000  0.00  0.00    +0.000 OA
ATOM     24  C14 UNL     1      24.444  -8.482 -33.086  0.00  0.00    +0.000 C 
ATOM     25  C16 UNL     1      24.458  -6.977 -33.501  0.00  0.00    +0.000 C 
ATOM     26  C17 UNL     1      25.433  -6.733 -34.673  0.00  0.00    +0.000 C 
ATOM     27  C18 UNL     1      26.778  -7.451 -34.419  0.00  0.00    +0.000 C 
BRANCH  25  28
ATOM     28  O9  UNL     1      24.834  -6.199 -32.388  0.00  0.00    +0.000 OA
ATOM     29  H14 UNL     1      25.752  -5.861 -32.568  0.00  0.00    +0.000 HD
ENDBRANCH  25  28
BRANCH  26  30
ATOM     30  O10 UNL     1      24.847  -7.203 -35.861  0.00  0.00    +0.000 OA
ATOM     31  H16 UNL     1      24.684  -8.182 -35.742  0.00  0.00    +0.000 HD
ENDBRANCH  26  30
BRANCH  27  32
ATOM     32  O11 UNL     1      27.507  -6.763 -33.430  0.00  0.00    +0.000 OA
ATOM     33  H18 UNL     1      26.861  -6.187 -32.941  0.00  0.00    +0.000 HD
ENDBRANCH  27  32
BRANCH  24  34
ATOM     34  C15 UNL     1      23.011  -9.034 -33.029  0.00  0.00    +0.000 C 
BRANCH  34  35
ATOM     35  O8  UNL     1      22.395  -8.926 -34.287  0.00  0.00    +0.000 OA
ATOM     36  H12 UNL     1      21.914  -9.776 -34.452  0.00  0.00    +0.000 HD
ENDBRANCH  34  35
ENDBRANCH  24  34
ENDBRANCH  21  22
ENDBRANCH  15  21
TORSDOF 9
ENDMDL
MODEL 3
REMARK VINA RESULT:    -6.443      2.979      8.009
REMARK INTER + INTRA:          -9.118
REMARK INTER:                  -8.728
REMARK INTRA:                  -0.390
REMARK UNBOUND:                -0.415
REMARK  Name = resultss/4CJN/ligands/lig_311_t2.pdb
REMARK  9 active torsions:
REMARK  status: ('A' for Active; 'I' for Inactive)
REMARK    1  A    between atoms: C5_7  and  O3_8
REMARK    2  A    between atoms: C9_13  and  O5_14
REMARK    3  A    between atoms: C12_17  and  O6_18
REMARK    4  A    between atoms: O6_18  and  C13_19
REMARK    5  A    between atoms: C14_21  and  C15_22
REMARK    6  A    between atoms: C15_22  and  O8_23
REMARK    7  A    between atoms: C16_24  and  O9_25
REMARK    8  A    between atoms: C17_26  and  O10_27
REMARK    9  A    between atoms: C18_28  and  O11_29
REMARK                            x       y       z     vdW  Elec       q    Type
REMARK                         _______ _______ _______ _____ _____    ______ ____
ROOT
ATOM      1  O1  UNL     1      26.500  -9.816 -38.981  0.00  0.00    +0.000 OA
ATOM      2  C1  UNL     1      27.759  -9.843 -38.921  0.00  0.00    +0.000 A 
ATOM      3  C2  UNL     1      28.404  -9.788 -37.667  0.00  0.00    +0.000 A 
ATOM      4  C3  UNL     1      27.662  -9.697 -36.388  0.00  0.00    +0.000 C 
ATOM      5  O2  UNL     1      26.401  -9.658 -36.363  0.00  0.00    +0.000 OA
ATOM      6  C4  UNL     1      28.399  -9.650 -35.120  0.00  0.00    +0.000 C 
ATOM      7  C5  UNL     1      29.733  -9.686 -35.084  0.00  0.00    +0.000 C 
ATOM      8  C6  UNL     1      30.579  -9.773 -36.335  0.00  0.00    +0.000 C 
ATOM      9  C7  UNL     1      29.808  -9.825 -37.632  0.00  0.00    +0.000 A 
ATOM     10  O4  UNL     1      30.503  -9.908 -38.760  0.00  0.00    +0.000 OA
ATOM     11  C8  UNL     1      29.944  -9.962 -39.963  0.00  0.00    +0.000 A 
ATOM     12  C9  UNL     1      30.764 -10.054 -41.098  0.00  0.00    +0.000 A 
ATOM     13  C10 UNL     1      30.190 -10.115 -42.367  0.00  0.00    +0.000 A 
ATOM     14  C11 UNL     1      28.804 -10.090 -42.518  0.00  0.00    +0.000 A 
ATOM     15  C12 UNL     1      27.957 -10.006 -41.397  0.00  0.00    +0.000 A 
ATOM     16  C19 UNL     1      28.534  -9.931 -40.101  0.00  0.00    +0.000 A 
ENDROOT
BRANCH   7  17
ATOM     17  O3  UNL     1      30.370  -9.638 -33.844  0.00  0.00    +0.000 OA
ATOM     18  H2  UNL     1      29.877  -9.881 -32.991  0.00  0.00    +0.000 HD
ENDBRANCH   7  17
BRANCH  12  19
ATOM     19  O5  UNL     1      32.154 -10.090 -40.985  0.00  0.00    +0.000 OA
ATOM     20  H5  UNL     1      32.622 -10.543 -40.209  0.00  0.00    +0.000 HD
ENDBRANCH  12  19
BRANCH  15  21
ATOM     21  O6  UNL     1      26.556  -9.995 -41.536  0.00  0.00    +0.000 OA
BRANCH  21  22
ATOM     22  C13 UNL     1      25.820  -9.461 -42.640  0.00  0.00    +0.000 C 
ATOM     23  O7  UNL     1      26.469  -8.267 -43.050  0.00  0.00    +0.000 OA
ATOM     24  C14 UNL     1      25.834  -7.724 -44.196  0.00  0.00    +0.000 C 
ATOM     25  C16 UNL     1      24.376  -7.267 -43.875  0.00  0.00    +0.000 C 
ATOM     26  C17 UNL     1      23.955  -7.710 -42.456  0.00  0.00    +0.000 C 
ATOM     27  C18 UNL     1      24.348  -9.185 -42.210  0.00  0.00    +0.000 C 
BRANCH  25  28
ATOM     28  O9  UNL     1      23.502  -7.815 -44.833  0.00  0.00    +0.000 OA
ATOM     29  H14 UNL     1      23.554  -7.234 -45.639  0.00  0.00    +0.000 HD
ENDBRANCH  25  28
BRANCH  26  30
ATOM     30  O10 UNL     1      24.579  -6.876 -41.512  0.00  0.00    +0.000 OA
ATOM     31  H16 UNL     1      23.936  -6.753 -40.757  0.00  0.00    +0.000 HD
ENDBRANCH  26  30
BRANCH  27  32
ATOM     32  O11 UNL     1      23.486 -10.034 -42.930  0.00  0.00    +0.000 OA
ATOM     33  H18 UNL     1      23.421  -9.670 -43.852  0.00  0.00    +0.000 HD
ENDBRANCH  27  32
BRANCH  24  34
ATOM     34  C15 UNL     1      26.689  -6.553 -44.703  0.00  0.00    +0.000 C 
BRANCH  34  35
ATOM     35  O8  UNL     1      27.644  -7.009 -45.627  0.00  0.00    +0.000 OA
ATOM     36  H12 UNL     1      28.497  -6.547 -45.420  0.00  0.00    +0.000 HD
ENDBRANCH  34  35
ENDBRANCH  24  34
ENDBRANCH  21  22
ENDBRANCH  15  21
TORSDOF 9
ENDMDL
MODEL 4
REMARK VINA RESULT:    -6.374      1.797      7.056
REMARK INTER + INTRA:          -9.025
REMARK INTER:                  -8.048
REMARK INTRA:                  -0.977
REMARK UNBOUND:                -0.415
REMARK  Name = resultss/4CJN/ligands/lig_311_t2.pdb
REMARK  9 active torsions:
REMARK  status: ('A' for Active; 'I' for Inactive)
REMARK    1  A    between atoms: C5_7  and  O3_8
REMARK    2  A    between atoms: C9_13  and  O5_14
REMARK    3  A    between atoms: C12_17  and  O6_18
REMARK    4  A    between atoms: O6_18  and  C13_19
REMARK    5  A    between atoms: C14_21  and  C15_22
REMARK    6  A    between atoms: C15_22  and  O8_23
REMARK    7  A    between atoms: C16_24  and  O9_25
REMARK    8  A    between atoms: C17_26  and  O10_27
REMARK    9  A    between atoms: C18_28  and  O11_29
REMARK                            x       y       z     vdW  Elec       q    Type
REMARK                         _______ _______ _______ _____ _____    ______ ____
ROOT
ATOM      1  O1  UNL     1      24.791  -7.201 -38.051  0.00  0.00    +0.000 OA
ATOM      2  C1  UNL     1      25.504  -7.752 -37.168  0.00  0.00    +0.000 A 
ATOM      3  C2  UNL     1      24.942  -8.078 -35.915  0.00  0.00    +0.000 A 
ATOM      4  C3  UNL     1      23.528  -7.798 -35.573  0.00  0.00    +0.000 C 
ATOM      5  O2  UNL     1      22.752  -7.243 -36.398  0.00  0.00    +0.000 OA
ATOM      6  C4  UNL     1      23.011  -8.171 -34.251  0.00  0.00    +0.000 C 
ATOM      7  C5  UNL     1      23.786  -8.759 -33.337  0.00  0.00    +0.000 C 
ATOM      8  C6  UNL     1      25.241  -9.080 -33.589  0.00  0.00    +0.000 C 
ATOM      9  C7  UNL     1      25.760  -8.696 -34.953  0.00  0.00    +0.000 A 
ATOM     10  O4  UNL     1      27.031  -8.961 -35.229  0.00  0.00    +0.000 OA
ATOM     11  C8  UNL     1      27.605  -8.675 -36.391  0.00  0.00    +0.000 A 
ATOM     12  C9  UNL     1      28.956  -9.001 -36.589  0.00  0.00    +0.000 A 
ATOM     13  C10 UNL     1      29.570  -8.709 -37.805  0.00  0.00    +0.000 A 
ATOM     14  C11 UNL     1      28.851  -8.099 -38.832  0.00  0.00    +0.000 A 
ATOM     15  C12 UNL     1      27.492  -7.768 -38.664  0.00  0.00    +0.000 A 
ATOM     16  C19 UNL     1      26.862  -8.051 -37.423  0.00  0.00    +0.000 A 
ENDROOT
BRANCH   7  17
ATOM     17  O3  UNL     1      23.229  -9.087 -32.100  0.00  0.00    +0.000 OA
ATOM     18  H2  UNL     1      23.215 -10.046 -31.769  0.00  0.00    +0.000 HD
ENDBRANCH   7  17
BRANCH  12  19
ATOM     19  O5  UNL     1      29.705  -9.619 -35.587  0.00  0.00    +0.000 OA
ATOM     20  H5  UNL     1      30.702  -9.776 -35.677  0.00  0.00    +0.000 HD
ENDBRANCH  12  19
BRANCH  15  21
ATOM     21  O6  UNL     1      26.752  -7.165 -39.700  0.00  0.00    +0.000 OA
BRANCH  21  22
ATOM     22  C13 UNL     1      26.333  -7.791 -40.916  0.00  0.00    +0.000 C 
ATOM     23  O7  UNL     1      25.052  -7.277 -41.242  0.00  0.00    +0.000 OA
ATOM     24  C14 UNL     1      24.608  -7.799 -42.484  0.00  0.00    +0.000 C 
ATOM     25  C16 UNL     1      24.384  -9.342 -42.404  0.00  0.00    +0.000 C 
ATOM     26  C17 UNL     1      24.893  -9.909 -41.061  0.00  0.00    +0.000 C 
ATOM     27  C18 UNL     1      26.291  -9.338 -40.726  0.00  0.00    +0.000 C 
BRANCH  25  28
ATOM     28  O9  UNL     1      25.056  -9.960 -43.476  0.00  0.00    +0.000 OA
ATOM     29  H14 UNL     1      25.995 -10.110 -43.182  0.00  0.00    +0.000 HD
ENDBRANCH  25  28
BRANCH  26  30
ATOM     30  O10 UNL     1      23.977  -9.577 -40.047  0.00  0.00    +0.000 OA
ATOM     31  H16 UNL     1      23.729 -10.427 -39.584  0.00  0.00    +0.000 HD
ENDBRANCH  26  30
BRANCH  27  32
ATOM     32  O11 UNL     1      27.260  -9.935 -41.555  0.00  0.00    +0.000 OA
ATOM     33  H18 UNL     1      27.788  -9.198 -41.962  0.00  0.00    +0.000 HD
ENDBRANCH  27  32
BRANCH  24  34
ATOM     34  C15 UNL     1      23.316  -7.065 -42.874  0.00  0.00    +0.000 C 
BRANCH  34  35
ATOM     35  O8  UNL     1      22.520  -7.879 -43.697  0.00  0.00    +0.000 OA
ATOM     36  H12 UNL     1      22.026  -7.280 -44.314  0.00  0.00    +0.000 HD
ENDBRANCH  34  35
ENDBRANCH  24  34
ENDBRANCH  21  22
ENDBRANCH  15  21
TORSDOF 9
ENDMDL
MODEL 5
REMARK VINA RESULT:    -6.306      2.432      4.379
REMARK INTER + INTRA:          -8.934
REMARK INTER:                  -8.381
REMARK INTRA:                  -0.553
REMARK UNBOUND:                -0.415
REMARK  Name = resultss/4CJN/ligands/lig_311_t2.pdb
REMARK  9 active torsions:
REMARK  status: ('A' for Active; 'I' for Inactive)
REMARK    1  A    between atoms: C5_7  and  O3_8
REMARK    2  A    between atoms: C9_13  and  O5_14
REMARK    3  A    between atoms: C12_17  and  O6_18
REMARK    4  A    between atoms: O6_18  and  C13_19
REMARK    5  A    between atoms: C14_21  and  C15_22
REMARK    6  A    between atoms: C15_22  and  O8_23
REMARK    7  A    between atoms: C16_24  and  O9_25
REMARK    8  A    between atoms: C17_26  and  O10_27
REMARK    9  A    between atoms: C18_28  and  O11_29
REMARK                            x       y       z     vdW  Elec       q    Type
REMARK                         _______ _______ _______ _____ _____    ______ ____
ROOT
ATOM      1  O1  UNL     1      28.609  -8.984 -38.541  0.00  0.00    +0.000 OA
ATOM      2  C1  UNL     1      28.302  -9.254 -39.734  0.00  0.00    +0.000 A 
ATOM      3  C2  UNL     1      29.306  -9.632 -40.650  0.00  0.00    +0.000 A 
ATOM      4  C3  UNL     1      30.737  -9.727 -40.277  0.00  0.00    +0.000 C 
ATOM      5  O2  UNL     1      31.127  -9.466 -39.106  0.00  0.00    +0.000 OA
ATOM      6  C4  UNL     1      31.726 -10.132 -41.282  0.00  0.00    +0.000 C 
ATOM      7  C5  UNL     1      31.372 -10.418 -42.537  0.00  0.00    +0.000 C 
ATOM      8  C6  UNL     1      29.939 -10.346 -43.015  0.00  0.00    +0.000 C 
ATOM      9  C7  UNL     1      28.931  -9.932 -41.971  0.00  0.00    +0.000 A 
ATOM     10  O4  UNL     1      27.657  -9.857 -42.337  0.00  0.00    +0.000 OA
ATOM     11  C8  UNL     1      26.677  -9.508 -41.514  0.00  0.00    +0.000 A 
ATOM     12  C9  UNL     1      25.358  -9.464 -41.994  0.00  0.00    +0.000 A 
ATOM     13  C10 UNL     1      24.319  -9.102 -41.139  0.00  0.00    +0.000 A 
ATOM     14  C11 UNL     1      24.577  -8.788 -39.805  0.00  0.00    +0.000 A 
ATOM     15  C12 UNL     1      25.888  -8.831 -39.294  0.00  0.00    +0.000 A 
ATOM     16  C19 UNL     1      26.955  -9.187 -40.162  0.00  0.00    +0.000 A 
ENDROOT
BRANCH   7  17
ATOM     17  O3  UNL     1      32.364 -10.797 -43.442  0.00  0.00    +0.000 OA
ATOM     18  H2  UNL     1      32.270 -10.606 -44.434  0.00  0.00    +0.000 HD
ENDBRANCH   7  17
BRANCH  12  19
ATOM     19  O5  UNL     1      25.061  -9.780 -43.320  0.00  0.00    +0.000 OA
ATOM     20  H5  UNL     1      24.744 -10.702 -43.598  0.00  0.00    +0.000 HD
ENDBRANCH  12  19
BRANCH  15  21
ATOM     21  O6  UNL     1      26.159  -8.530 -37.945  0.00  0.00    +0.000 OA
BRANCH  21  22
ATOM     22  C13 UNL     1      25.308  -8.806 -36.829  0.00  0.00    +0.000 C 
ATOM     23  O7  UNL     1      24.458  -7.684 -36.652  0.00  0.00    +0.000 OA
ATOM     24  C14 UNL     1      23.530  -7.923 -35.606  0.00  0.00    +0.000 C 
ATOM     25  C16 UNL     1      24.252  -8.068 -34.230  0.00  0.00    +0.000 C 
ATOM     26  C17 UNL     1      25.785  -8.111 -34.407  0.00  0.00    +0.000 C 
ATOM     27  C18 UNL     1      26.171  -9.068 -35.559  0.00  0.00    +0.000 C 
BRANCH  25  28
ATOM     28  O9  UNL     1      23.804  -9.246 -33.599  0.00  0.00    +0.000 OA
ATOM     29  H14 UNL     1      22.954  -9.508 -34.045  0.00  0.00    +0.000 HD
ENDBRANCH  25  28
BRANCH  26  30
ATOM     30  O10 UNL     1      26.252  -6.813 -34.678  0.00  0.00    +0.000 OA
ATOM     31  H16 UNL     1      26.137  -6.278 -33.841  0.00  0.00    +0.000 HD
ENDBRANCH  26  30
BRANCH  27  32
ATOM     32  O11 UNL     1      25.998 -10.404 -35.146  0.00  0.00    +0.000 OA
ATOM     33  H18 UNL     1      26.772 -10.631 -34.566  0.00  0.00    +0.000 HD
ENDBRANCH  27  32
BRANCH  24  34
ATOM     34  C15 UNL     1      22.523  -6.763 -35.591  0.00  0.00    +0.000 C 
BRANCH  34  35
ATOM     35  O8  UNL     1      21.483  -7.007 -36.503  0.00  0.00    +0.000 OA
ATOM     36  H12 UNL     1      21.038  -7.848 -36.224  0.00  0.00    +0.000 HD
ENDBRANCH  34  35
ENDBRANCH  24  34
ENDBRANCH  21  22
ENDBRANCH  15  21
TORSDOF 9
ENDMDL
MODEL 6
REMARK VINA RESULT:    -6.248      3.676      6.653
REMARK INTER + INTRA:          -8.854
REMARK INTER:                  -8.178
REMARK INTRA:                  -0.676
REMARK UNBOUND:                -0.415
REMARK  Name = resultss/4CJN/ligands/lig_311_t2.pdb
REMARK  9 active torsions:
REMARK  status: ('A' for Active; 'I' for Inactive)
REMARK    1  A    between atoms: C5_7  and  O3_8
REMARK    2  A    between atoms: C9_13  and  O5_14
REMARK    3  A    between atoms: C12_17  and  O6_18
REMARK    4  A    between atoms: O6_18  and  C13_19
REMARK    5  A    between atoms: C14_21  and  C15_22
REMARK    6  A    between atoms: C15_22  and  O8_23
REMARK    7  A    between atoms: C16_24  and  O9_25
REMARK    8  A    between atoms: C17_26  and  O10_27
REMARK    9  A    between atoms: C18_28  and  O11_29
REMARK                            x       y       z     vdW  Elec       q    Type
REMARK                         _______ _______ _______ _____ _____    ______ ____
ROOT
ATOM      1  O1  UNL     1      23.316  -7.367 -43.687  0.00  0.00    +0.000 OA
ATOM      2  C1  UNL     1      23.833  -7.232 -44.829  0.00  0.00    +0.000 A 
ATOM      3  C2  UNL     1      23.005  -7.033 -45.955  0.00  0.00    +0.000 A 
ATOM      4  C3  UNL     1      21.528  -6.976 -45.864  0.00  0.00    +0.000 C 
ATOM      5  O2  UNL     1      20.934  -7.109 -44.759  0.00  0.00    +0.000 OA
ATOM      6  C4  UNL     1      20.731  -6.759 -47.077  0.00  0.00    +0.000 C 
ATOM      7  C5  UNL     1      21.304  -6.613 -48.274  0.00  0.00    +0.000 C 
ATOM      8  C6  UNL     1      22.802  -6.661 -48.470  0.00  0.00    +0.000 C 
ATOM      9  C7  UNL     1      23.610  -6.880 -47.214  0.00  0.00    +0.000 A 
ATOM     10  O4  UNL     1      24.932  -6.926 -47.330  0.00  0.00    +0.000 OA
ATOM     11  C8  UNL     1      25.753  -7.110 -46.303  0.00  0.00    +0.000 A 
ATOM     12  C9  UNL     1      27.138  -7.137 -46.526  0.00  0.00    +0.000 A 
ATOM     13  C10 UNL     1      28.010  -7.327 -45.456  0.00  0.00    +0.000 A 
ATOM     14  C11 UNL     1      27.518  -7.485 -44.161  0.00  0.00    +0.000 A 
ATOM     15  C12 UNL     1      26.134  -7.454 -43.907  0.00  0.00    +0.000 A 
ATOM     16  C19 UNL     1      25.237  -7.274 -44.993  0.00  0.00    +0.000 A 
ENDROOT
BRANCH   7  17
ATOM     17  O3  UNL     1      20.487  -6.410 -49.386  0.00  0.00    +0.000 OA
ATOM     18  H2  UNL     1      20.579  -6.984 -50.217  0.00  0.00    +0.000 HD
ENDBRANCH   7  17
BRANCH  12  19
ATOM     19  O5  UNL     1      27.668  -6.974 -47.806  0.00  0.00    +0.000 OA
ATOM     20  H5  UNL     1      28.666  -6.923 -47.977  0.00  0.00    +0.000 HD
ENDBRANCH  12  19
BRANCH  15  21
ATOM     21  O6  UNL     1      25.625  -7.598 -42.601  0.00  0.00    +0.000 OA
BRANCH  21  22
ATOM     22  C13 UNL     1      26.383  -7.906 -41.428  0.00  0.00    +0.000 C 
ATOM     23  O7  UNL     1      26.506  -9.317 -41.355  0.00  0.00    +0.000 OA
ATOM     24  C14 UNL     1      27.316  -9.690 -40.253  0.00  0.00    +0.000 C 
ATOM     25  C16 UNL     1      26.644  -9.303 -38.898  0.00  0.00    +0.000 C 
ATOM     26  C17 UNL     1      25.381  -8.445 -39.129  0.00  0.00    +0.000 C 
ATOM     27  C18 UNL     1      25.662  -7.336 -40.169  0.00  0.00    +0.000 C 
BRANCH  25  28
ATOM     28  O9  UNL     1      27.573  -8.594 -38.111  0.00  0.00    +0.000 OA
ATOM     29  H14 UNL     1      27.884  -9.215 -37.399  0.00  0.00    +0.000 HD
ENDBRANCH  25  28
BRANCH  26  30
ATOM     30  O10 UNL     1      24.338  -9.276 -39.574  0.00  0.00    +0.000 OA
ATOM     31  H16 UNL     1      23.500  -8.961 -39.131  0.00  0.00    +0.000 HD
ENDBRANCH  26  30
BRANCH  27  32
ATOM     32  O11 UNL     1      26.461  -6.331 -39.590  0.00  0.00    +0.000 OA
ATOM     33  H18 UNL     1      27.309  -6.300 -40.107  0.00  0.00    +0.000 HD
ENDBRANCH  27  32
BRANCH  24  34
ATOM     34  C15 UNL     1      27.570 -11.203 -40.339  0.00  0.00    +0.000 C 
BRANCH  34  35
ATOM     35  O8  UNL     1      27.575 -11.772 -39.056  0.00  0.00    +0.000 OA
ATOM     36  H12 UNL     1      26.851 -11.336 -38.538  0.00  0.00    +0.000 HD
ENDBRANCH  34  35
ENDBRANCH  24  34
ENDBRANCH  21  22
ENDBRANCH  15  21
TORSDOF 9
ENDMDL
MODEL 7
REMARK VINA RESULT:    -6.242      3.032      7.394
REMARK INTER + INTRA:          -8.846
REMARK INTER:                  -7.821
REMARK INTRA:                  -1.025
REMARK UNBOUND:                -0.415
REMARK  Name = resultss/4CJN/ligands/lig_311_t2.pdb
REMARK  9 active torsions:
REMARK  status: ('A' for Active; 'I' for Inactive)
REMARK    1  A    between atoms: C5_7  and  O3_8
REMARK    2  A    between atoms: C9_13  and  O5_14
REMARK    3  A    between atoms: C12_17  and  O6_18
REMARK    4  A    between atoms: O6_18  and  C13_19
REMARK    5  A    between atoms: C14_21  and  C15_22
REMARK    6  A    between atoms: C15_22  and  O8_23
REMARK    7  A    between atoms: C16_24  and  O9_25
REMARK    8  A    between atoms: C17_26  and  O10_27
REMARK    9  A    between atoms: C18_28  and  O11_29
REMARK                            x       y       z     vdW  Elec       q    Type
REMARK                         _______ _______ _______ _____ _____    ______ ____
ROOT
ATOM      1  O1  UNL     1      27.168 -10.319 -38.223  0.00  0.00    +0.000 OA
ATOM      2  C1  UNL     1      28.386 -10.083 -37.994  0.00  0.00    +0.000 A 
ATOM      3  C2  UNL     1      28.830  -9.909 -36.666  0.00  0.00    +0.000 A 
ATOM      4  C3  UNL     1      27.921  -9.987 -35.499  0.00  0.00    +0.000 C 
ATOM      5  O2  UNL     1      26.688 -10.213 -35.644  0.00  0.00    +0.000 OA
ATOM      6  C4  UNL     1      28.455  -9.802 -34.145  0.00  0.00    +0.000 C 
ATOM      7  C5  UNL     1      29.750  -9.559 -33.931  0.00  0.00    +0.000 C 
ATOM      8  C6  UNL     1      30.756  -9.455 -35.056  0.00  0.00    +0.000 C 
ATOM      9  C7  UNL     1      30.194  -9.652 -36.443  0.00  0.00    +0.000 A 
ATOM     10  O4  UNL     1      31.036  -9.577 -37.467  0.00  0.00    +0.000 OA
ATOM     11  C8  UNL     1      30.667  -9.733 -38.732  0.00  0.00    +0.000 A 
ATOM     12  C9  UNL     1      31.634  -9.641 -39.746  0.00  0.00    +0.000 A 
ATOM     13  C10 UNL     1      31.261  -9.806 -41.078  0.00  0.00    +0.000 A 
ATOM     14  C11 UNL     1      29.933 -10.069 -41.414  0.00  0.00    +0.000 A 
ATOM     15  C12 UNL     1      28.944 -10.175 -40.418  0.00  0.00    +0.000 A 
ATOM     16  C19 UNL     1      29.313  -9.995 -39.058  0.00  0.00    +0.000 A 
ENDROOT
BRANCH   7  17
ATOM     17  O3  UNL     1      30.191  -9.393 -32.618  0.00  0.00    +0.000 OA
ATOM     18  H2  UNL     1      30.447 -10.191 -32.046  0.00  0.00    +0.000 HD
ENDBRANCH   7  17
BRANCH  12  19
ATOM     19  O5  UNL     1      32.973  -9.387 -39.448  0.00  0.00    +0.000 OA
ATOM     20  H5  UNL     1      33.420  -8.506 -39.674  0.00  0.00    +0.000 HD
ENDBRANCH  12  19
BRANCH  15  21
ATOM     21  O6  UNL     1      27.603 -10.455 -40.744  0.00  0.00    +0.000 OA
BRANCH  21  22
ATOM     22  C13 UNL     1      26.683  -9.563 -41.380  0.00  0.00    +0.000 C 
ATOM     23  O7  UNL     1      26.931  -8.261 -40.875  0.00  0.00    +0.000 OA
ATOM     24  C14 UNL     1      26.103  -7.309 -41.524  0.00  0.00    +0.000 C 
ATOM     25  C16 UNL     1      24.595  -7.556 -41.201  0.00  0.00    +0.000 C 
ATOM     26  C17 UNL     1      24.401  -8.879 -40.430  0.00  0.00    +0.000 C 
ATOM     27  C18 UNL     1      25.221 -10.015 -41.086  0.00  0.00    +0.000 C 
BRANCH  25  28
ATOM     28  O9  UNL     1      23.868  -7.586 -42.407  0.00  0.00    +0.000 OA
ATOM     29  H14 UNL     1      23.544  -6.661 -42.574  0.00  0.00    +0.000 HD
ENDBRANCH  25  28
BRANCH  26  30
ATOM     30  O10 UNL     1      24.805  -8.696 -39.096  0.00  0.00    +0.000 OA
ATOM     31  H16 UNL     1      25.443  -9.433 -38.877  0.00  0.00    +0.000 HD
ENDBRANCH  26  30
BRANCH  27  32
ATOM     32  O11 UNL     1      24.606 -10.413 -42.289  0.00  0.00    +0.000 OA
ATOM     33  H18 UNL     1      24.972  -9.833 -43.008  0.00  0.00    +0.000 HD
ENDBRANCH  27  32
BRANCH  24  34
ATOM     34  C15 UNL     1      26.549  -5.908 -41.079  0.00  0.00    +0.000 C 
BRANCH  34  35
ATOM     35  O8  UNL     1      27.922  -5.903 -40.784  0.00  0.00    +0.000 OA
ATOM     36  H12 UNL     1      28.072  -5.209 -40.092  0.00  0.00    +0.000 HD
ENDBRANCH  34  35
ENDBRANCH  24  34
ENDBRANCH  21  22
ENDBRANCH  15  21
TORSDOF 9
ENDMDL
MODEL 8
REMARK VINA RESULT:    -5.982      2.969      5.315
REMARK INTER + INTRA:          -8.495
REMARK INTER:                  -8.177
REMARK INTRA:                  -0.318
REMARK UNBOUND:                -0.415
REMARK  Name = resultss/4CJN/ligands/lig_311_t2.pdb
REMARK  9 active torsions:
REMARK  status: ('A' for Active; 'I' for Inactive)
REMARK    1  A    between atoms: C5_7  and  O3_8
REMARK    2  A    between atoms: C9_13  and  O5_14
REMARK    3  A    between atoms: C12_17  and  O6_18
REMARK    4  A    between atoms: O6_18  and  C13_19
REMARK    5  A    between atoms: C14_21  and  C15_22
REMARK    6  A    between atoms: C15_22  and  O8_23
REMARK    7  A    between atoms: C16_24  and  O9_25
REMARK    8  A    between atoms: C17_26  and  O10_27
REMARK    9  A    between atoms: C18_28  and  O11_29
REMARK                            x       y       z     vdW  Elec       q    Type
REMARK                         _______ _______ _______ _____ _____    ______ ____
ROOT
ATOM      1  O1  UNL     1      28.206 -10.223 -37.308  0.00  0.00    +0.000 OA
ATOM      2  C1  UNL     1      27.111  -9.658 -37.579  0.00  0.00    +0.000 A 
ATOM      3  C2  UNL     1      26.736  -9.460 -38.924  0.00  0.00    +0.000 A 
ATOM      4  C3  UNL     1      27.581  -9.888 -40.063  0.00  0.00    +0.000 C 
ATOM      5  O2  UNL     1      28.693 -10.454 -39.878  0.00  0.00    +0.000 OA
ATOM      6  C4  UNL     1      27.124  -9.654 -41.438  0.00  0.00    +0.000 C 
ATOM      7  C5  UNL     1      25.957  -9.059 -41.696  0.00  0.00    +0.000 C 
ATOM      8  C6  UNL     1      25.028  -8.582 -40.602  0.00  0.00    +0.000 C 
ATOM      9  C7  UNL     1      25.508  -8.832 -39.193  0.00  0.00    +0.000 A 
ATOM     10  O4  UNL     1      24.727  -8.437 -38.195  0.00  0.00    +0.000 OA
ATOM     11  C8  UNL     1      25.034  -8.601 -36.914  0.00  0.00    +0.000 A 
ATOM     12  C9  UNL     1      24.139  -8.155 -35.930  0.00  0.00    +0.000 A 
ATOM     13  C10 UNL     1      24.448  -8.323 -34.582  0.00  0.00    +0.000 A 
ATOM     14  C11 UNL     1      25.640  -8.939 -34.201  0.00  0.00    +0.000 A 
ATOM     15  C12 UNL     1      26.553  -9.403 -35.167  0.00  0.00    +0.000 A 
ATOM     16  C19 UNL     1      26.252  -9.224 -36.543  0.00  0.00    +0.000 A 
ENDROOT
BRANCH   7  17
ATOM     17  O3  UNL     1      25.583  -8.868 -43.026  0.00  0.00    +0.000 OA
ATOM     18  H2  UNL     1      26.113  -8.255 -43.637  0.00  0.00    +0.000 HD
ENDBRANCH   7  17
BRANCH  12  19
ATOM     19  O5  UNL     1      22.933  -7.542 -36.273  0.00  0.00    +0.000 OA
ATOM     20  H5  UNL     1      22.058  -8.053 -36.307  0.00  0.00    +0.000 HD
ENDBRANCH  12  19
BRANCH  15  21
ATOM     21  O6  UNL     1      27.753 -10.039 -34.794  0.00  0.00    +0.000 OA
BRANCH  21  22
ATOM     22  C13 UNL     1      28.979  -9.393 -34.441  0.00  0.00    +0.000 C 
ATOM     23  O7  UNL     1      29.508 -10.066 -33.309  0.00  0.00    +0.000 OA
ATOM     24  C14 UNL     1      30.769  -9.524 -32.952  0.00  0.00    +0.000 C 
ATOM     25  C16 UNL     1      30.636  -8.042 -32.478  0.00  0.00    +0.000 C 
ATOM     26  C17 UNL     1      29.206  -7.509 -32.715  0.00  0.00    +0.000 C 
ATOM     27  C18 UNL     1      28.713  -7.889 -34.131  0.00  0.00    +0.000 C 
BRANCH  25  28
ATOM     28  O9  UNL     1      31.569  -7.252 -33.177  0.00  0.00    +0.000 OA
ATOM     29  H14 UNL     1      31.054  -6.702 -33.827  0.00  0.00    +0.000 HD
ENDBRANCH  25  28
BRANCH  26  30
ATOM     30  O10 UNL     1      28.348  -8.049 -31.741  0.00  0.00    +0.000 OA
ATOM     31  H16 UNL     1      28.530  -9.031 -31.699  0.00  0.00    +0.000 HD
ENDBRANCH  26  30
BRANCH  27  32
ATOM     32  O11 UNL     1      29.366  -7.093 -35.092  0.00  0.00    +0.000 OA
ATOM     33  H18 UNL     1      30.241  -6.827 -34.703  0.00  0.00    +0.000 HD
ENDBRANCH  27  32
BRANCH  24  34
ATOM     34  C15 UNL     1      31.373 -10.411 -31.853  0.00  0.00    +0.000 C 
BRANCH  34  35
ATOM     35  O8  UNL     1      31.744 -11.659 -32.381  0.00  0.00    +0.000 OA
ATOM     36  H12 UNL     1      30.909 -12.133 -32.628  0.00  0.00    +0.000 HD
ENDBRANCH  34  35
ENDBRANCH  24  34
ENDBRANCH  21  22
ENDBRANCH  15  21
TORSDOF 9
ENDMDL
MODEL 9
REMARK VINA RESULT:    -5.938      2.842      8.410
REMARK INTER + INTRA:          -8.436
REMARK INTER:                  -7.849
REMARK INTRA:                  -0.587
REMARK UNBOUND:                -0.415
REMARK  Name = resultss/4CJN/ligands/lig_311_t2.pdb
REMARK  9 active torsions:
REMARK  status: ('A' for Active; 'I' for Inactive)
REMARK    1  A    between atoms: C5_7  and  O3_8
REMARK    2  A    between atoms: C9_13  and  O5_14
REMARK    3  A    between atoms: C12_17  and  O6_18
REMARK    4  A    between atoms: O6_18  and  C13_19
REMARK    5  A    between atoms: C14_21  and  C15_22
REMARK    6  A    between atoms: C15_22  and  O8_23
REMARK    7  A    between atoms: C16_24  and  O9_25
REMARK    8  A    between atoms: C17_26  and  O10_27
REMARK    9  A    between atoms: C18_28  and  O11_29
REMARK                            x       y       z     vdW  Elec       q    Type
REMARK                         _______ _______ _______ _____ _____    ______ ____
ROOT
ATOM      1  O1  UNL     1      28.910  -8.670 -37.212  0.00  0.00    +0.000 OA
ATOM      2  C1  UNL     1      28.479  -8.746 -36.029  0.00  0.00    +0.000 A 
ATOM      3  C2  UNL     1      29.367  -9.051 -34.976  0.00  0.00    +0.000 A 
ATOM      4  C3  UNL     1      30.812  -9.296 -35.191  0.00  0.00    +0.000 C 
ATOM      5  O2  UNL     1      31.320  -9.246 -36.345  0.00  0.00    +0.000 OA
ATOM      6  C4  UNL     1      31.678  -9.603 -34.047  0.00  0.00    +0.000 C 
ATOM      7  C5  UNL     1      31.196  -9.672 -32.803  0.00  0.00    +0.000 C 
ATOM      8  C6  UNL     1      29.736  -9.443 -32.483  0.00  0.00    +0.000 C 
ATOM      9  C7  UNL     1      28.857  -9.124 -33.668  0.00  0.00    +0.000 A 
ATOM     10  O4  UNL     1      27.567  -8.909 -33.441  0.00  0.00    +0.000 OA
ATOM     11  C8  UNL     1      26.693  -8.618 -34.396  0.00  0.00    +0.000 A 
ATOM     12  C9  UNL     1      25.349  -8.401 -34.055  0.00  0.00    +0.000 A 
ATOM     13  C10 UNL     1      24.421  -8.092 -35.048  0.00  0.00    +0.000 A 
ATOM     14  C11 UNL     1      24.818  -7.990 -36.380  0.00  0.00    +0.000 A 
ATOM     15  C12 UNL     1      26.161  -8.195 -36.750  0.00  0.00    +0.000 A 
ATOM     16  C19 UNL     1      27.111  -8.523 -35.747  0.00  0.00    +0.000 A 
ENDROOT
BRANCH   7  17
ATOM     17  O3  UNL     1      32.074  -9.968 -31.761  0.00  0.00    +0.000 OA
ATOM     18  H2  UNL     1      32.622 -10.822 -31.764  0.00  0.00    +0.000 HD
ENDBRANCH   7  17
BRANCH  12  19
ATOM     19  O5  UNL     1      24.916  -8.486 -32.731  0.00  0.00    +0.000 OA
ATOM     20  H5  UNL     1      24.058  -8.960 -32.472  0.00  0.00    +0.000 HD
ENDBRANCH  12  19
BRANCH  15  21
ATOM     21  O6  UNL     1      26.577  -8.080 -38.091  0.00  0.00    +0.000 OA
BRANCH  21  22
ATOM     22  C13 UNL     1      26.216  -8.951 -39.166  0.00  0.00    +0.000 C 
ATOM     23  O7  UNL     1      27.356  -9.100 -39.998  0.00  0.00    +0.000 OA
ATOM     24  C14 UNL     1      27.091 -10.018 -41.046  0.00  0.00    +0.000 C 
ATOM     25  C16 UNL     1      25.991  -9.474 -42.012  0.00  0.00    +0.000 C 
ATOM     26  C17 UNL     1      25.352  -8.183 -41.456  0.00  0.00    +0.000 C 
ATOM     27  C18 UNL     1      25.016  -8.347 -39.955  0.00  0.00    +0.000 C 
BRANCH  25  28
ATOM     28  O9  UNL     1      25.005 -10.465 -42.188  0.00  0.00    +0.000 OA
ATOM     29  H14 UNL     1      24.817 -10.850 -41.290  0.00  0.00    +0.000 HD
ENDBRANCH  25  28
BRANCH  26  30
ATOM     30  O10 UNL     1      26.246  -7.114 -41.640  0.00  0.00    +0.000 OA
ATOM     31  H16 UNL     1      25.701  -6.313 -41.884  0.00  0.00    +0.000 HD
ENDBRANCH  26  30
BRANCH  27  32
ATOM     32  O11 UNL     1      23.893  -9.184 -39.807  0.00  0.00    +0.000 OA
ATOM     33  H18 UNL     1      23.250  -8.706 -39.220  0.00  0.00    +0.000 HD
ENDBRANCH  27  32
BRANCH  24  34
ATOM     34  C15 UNL     1      28.408 -10.283 -41.791  0.00  0.00    +0.000 C 
BRANCH  34  35
ATOM     35  O8  UNL     1      29.147 -11.283 -41.136  0.00  0.00    +0.000 OA
ATOM     36  H12 UNL     1      29.603 -10.855 -40.367  0.00  0.00    +0.000 HD
ENDBRANCH  34  35
ENDBRANCH  24  34
ENDBRANCH  21  22
ENDBRANCH  15  21
TORSDOF 9
ENDMDL
