MODEL 1
REMARK VINA RESULT:    -7.331      0.000      0.000
REMARK INTER + INTRA:          -9.327
REMARK INTER:                  -8.617
REMARK INTRA:                  -0.710
REMARK UNBOUND:                -0.710
REMARK  Name = resultss/4CJN/ligands/lig_258_t0.pdb
REMARK  6 active torsions:
REMARK  status: ('A' for Active; 'I' for Inactive)
REMARK    1  A    between atoms: C1_1  and  C2_2
REMARK    2  A    between atoms: C4_4  and  O1_5
REMARK    3  A    between atoms: C9_10  and  C10_11
REMARK    4  A    between atoms: C13_14  and  O2_15
REMARK    5  A    between atoms: C16_18  and  O3_19
REMARK    6  A    between atoms: C20_24  and  O5_25
REMARK                            x       y       z     vdW  Elec       q    Type
REMARK                         _______ _______ _______ _____ _____    ______ ____
ROOT
ATOM      1  C1  UNL     1      29.544  -8.199 -32.126  0.00  0.00    +0.000 C 
ATOM      2  C2  UNL     1      29.636  -8.588 -33.572  0.00  0.00    +0.000 A 
ATOM      3  C3  UNL     1      30.866  -9.030 -34.107  0.00  0.00    +0.000 A 
ATOM      4  C4  UNL     1      30.966  -9.453 -35.442  0.00  0.00    +0.000 A 
ATOM      5  C5  UNL     1      29.828  -9.338 -36.265  0.00  0.00    +0.000 A 
ATOM      6  C6  UNL     1      28.592  -8.988 -35.709  0.00  0.00    +0.000 A 
ATOM      7  C7  UNL     1      28.479  -8.604 -34.369  0.00  0.00    +0.000 A 
ATOM      8  C8  UNL     1      27.627  -9.046 -36.709  0.00  0.00    +0.000 A 
ATOM      9  C9  UNL     1      26.243  -8.811 -36.760  0.00  0.00    +0.000 A 
ATOM     10  C16 UNL     1      25.625  -8.918 -38.040  0.00  0.00    +0.000 A 
ATOM     11  O4  UNL     1      26.357  -9.213 -39.128  0.00  0.00    +0.000 OA
ATOM     12  C17 UNL     1      27.675  -9.432 -39.078  0.00  0.00    +0.000 A 
ATOM     13  C18 UNL     1      28.294  -9.372 -37.849  0.00  0.00    +0.000 A 
ATOM     14  C19 UNL     1      29.635  -9.531 -37.641  0.00  0.00    +0.000 A 
ATOM     15  C20 UNL     1      30.494  -9.671 -38.745  0.00  0.00    +0.000 A 
ATOM     16  C21 UNL     1      29.904  -9.837 -40.042  0.00  0.00    +0.000 A 
ATOM     17  C22 UNL     1      30.690 -10.123 -41.177  0.00  0.00    +0.000 A 
ATOM     18  C23 UNL     1      30.108 -10.256 -42.437  0.00  0.00    +0.000 A 
ATOM     19  C24 UNL     1      28.732 -10.111 -42.599  0.00  0.00    +0.000 A 
ATOM     20  C25 UNL     1      27.913  -9.843 -41.502  0.00  0.00    +0.000 A 
ATOM     21  O6  UNL     1      26.671  -9.728 -41.687  0.00  0.00    +0.000 OA
ATOM     22  C26 UNL     1      28.476  -9.709 -40.211  0.00  0.00    +0.000 A 
ENDROOT
BRANCH   9  23
ATOM     23  C10 UNL     1      25.461  -8.501 -35.551  0.00  0.00    +0.000 A 
ATOM     24  C11 UNL     1      25.185  -9.505 -34.613  0.00  0.00    +0.000 A 
ATOM     25  C12 UNL     1      24.436  -9.209 -33.470  0.00  0.00    +0.000 A 
ATOM     26  C13 UNL     1      23.960  -7.911 -33.256  0.00  0.00    +0.000 A 
ATOM     27  C14 UNL     1      24.239  -6.904 -34.192  0.00  0.00    +0.000 A 
ATOM     28  C15 UNL     1      24.990  -7.197 -35.335  0.00  0.00    +0.000 A 
BRANCH  26  29
ATOM     29  O2  UNL     1      23.211  -7.631 -32.115  0.00  0.00    +0.000 OA
ATOM     30  H9  UNL     1      22.200  -7.580 -32.145  0.00  0.00    +0.000 HD
ENDBRANCH  26  29
ENDBRANCH   9  23
BRANCH   4  31
ATOM     31  O1  UNL     1      32.151 -10.051 -35.861  0.00  0.00    +0.000 OA
ATOM     32  H5  UNL     1      32.480  -9.971 -36.814  0.00  0.00    +0.000 HD
ENDBRANCH   4  31
BRANCH  10  33
ATOM     33  O3  UNL     1      24.253  -8.726 -38.203  0.00  0.00    +0.000 OA
ATOM     34  H12 UNL     1      23.865  -8.154 -38.944  0.00  0.00    +0.000 HD
ENDBRANCH  10  33
BRANCH  15  35
ATOM     35  O5  UNL     1      31.872  -9.557 -38.560  0.00  0.00    +0.000 OA
ATOM     36  H13 UNL     1      32.421  -8.755 -38.838  0.00  0.00    +0.000 HD
ENDBRANCH  15  35
TORSDOF 5
ENDMDL
MODEL 2
REMARK VINA RESULT:    -6.850      2.667      7.123
REMARK INTER + INTRA:          -8.761
REMARK INTER:                  -7.868
REMARK INTRA:                  -0.893
REMARK UNBOUND:                -0.710
REMARK  Name = resultss/4CJN/ligands/lig_258_t0.pdb
REMARK  6 active torsions:
REMARK  status: ('A' for Active; 'I' for Inactive)
REMARK    1  A    between atoms: C1_1  and  C2_2
REMARK    2  A    between atoms: C4_4  and  O1_5
REMARK    3  A    between atoms: C9_10  and  C10_11
REMARK    4  A    between atoms: C13_14  and  O2_15
REMARK    5  A    between atoms: C16_18  and  O3_19
REMARK    6  A    between atoms: C20_24  and  O5_25
REMARK                            x       y       z     vdW  Elec       q    Type
REMARK                         _______ _______ _______ _____ _____    ______ ____
ROOT
ATOM      1  C1  UNL     1      29.880  -9.916 -43.380  0.00  0.00    +0.000 C 
ATOM      2  C2  UNL     1      29.297  -9.752 -42.007  0.00  0.00    +0.000 A 
ATOM      3  C3  UNL     1      30.011 -10.207 -40.878  0.00  0.00    +0.000 A 
ATOM      4  C4  UNL     1      29.513 -10.015 -39.579  0.00  0.00    +0.000 A 
ATOM      5  C5  UNL     1      28.236  -9.439 -39.433  0.00  0.00    +0.000 A 
ATOM      6  C6  UNL     1      27.574  -8.908 -40.547  0.00  0.00    +0.000 A 
ATOM      7  C7  UNL     1      28.085  -9.061 -41.839  0.00  0.00    +0.000 A 
ATOM      8  C8  UNL     1      26.392  -8.315 -40.114  0.00  0.00    +0.000 A 
ATOM      9  C9  UNL     1      25.339  -7.636 -40.749  0.00  0.00    +0.000 A 
ATOM     10  C16 UNL     1      24.247  -7.237 -39.923  0.00  0.00    +0.000 A 
ATOM     11  O4  UNL     1      24.245  -7.527 -38.611  0.00  0.00    +0.000 OA
ATOM     12  C17 UNL     1      25.246  -8.178 -38.010  0.00  0.00    +0.000 A 
ATOM     13  C18 UNL     1      26.331  -8.543 -38.775  0.00  0.00    +0.000 A 
ATOM     14  C19 UNL     1      27.409  -9.245 -38.316  0.00  0.00    +0.000 A 
ATOM     15  C20 UNL     1      27.405  -9.735 -36.998  0.00  0.00    +0.000 A 
ATOM     16  C21 UNL     1      26.351  -9.309 -36.123  0.00  0.00    +0.000 A 
ATOM     17  C22 UNL     1      26.353  -9.642 -34.753  0.00  0.00    +0.000 A 
ATOM     18  C23 UNL     1      25.308  -9.246 -33.919  0.00  0.00    +0.000 A 
ATOM     19  C24 UNL     1      24.241  -8.507 -34.423  0.00  0.00    +0.000 A 
ATOM     20  C25 UNL     1      24.205  -8.142 -35.770  0.00  0.00    +0.000 A 
ATOM     21  O6  UNL     1      23.227  -7.466 -36.187  0.00  0.00    +0.000 OA
ATOM     22  C26 UNL     1      25.254  -8.526 -36.638  0.00  0.00    +0.000 A 
ENDROOT
BRANCH   9  23
ATOM     23  C10 UNL     1      25.371  -7.321 -42.187  0.00  0.00    +0.000 A 
ATOM     24  C11 UNL     1      24.727  -8.160 -43.107  0.00  0.00    +0.000 A 
ATOM     25  C12 UNL     1      24.766  -7.862 -44.473  0.00  0.00    +0.000 A 
ATOM     26  C13 UNL     1      25.445  -6.726 -44.928  0.00  0.00    +0.000 A 
ATOM     27  C14 UNL     1      26.085  -5.884 -44.007  0.00  0.00    +0.000 A 
ATOM     28  C15 UNL     1      26.047  -6.178 -42.642  0.00  0.00    +0.000 A 
BRANCH  26  29
ATOM     29  O2  UNL     1      25.478  -6.444 -46.292  0.00  0.00    +0.000 OA
ATOM     30  H9  UNL     1      25.555  -7.180 -46.983  0.00  0.00    +0.000 HD
ENDBRANCH  26  29
ENDBRANCH   9  23
BRANCH   4  31
ATOM     31  O1  UNL     1      30.341 -10.314 -38.500  0.00  0.00    +0.000 OA
ATOM     32  H5  UNL     1      31.346 -10.220 -38.559  0.00  0.00    +0.000 HD
ENDBRANCH   4  31
BRANCH  10  33
ATOM     33  O3  UNL     1      23.158  -6.538 -40.445  0.00  0.00    +0.000 OA
ATOM     34  H12 UNL     1      22.635  -6.862 -41.249  0.00  0.00    +0.000 HD
ENDBRANCH  10  33
BRANCH  15  35
ATOM     35  O5  UNL     1      28.362 -10.676 -36.613  0.00  0.00    +0.000 OA
ATOM     36  H13 UNL     1      28.631 -11.476 -37.168  0.00  0.00    +0.000 HD
ENDBRANCH  15  35
TORSDOF 5
ENDMDL
MODEL 3
REMARK VINA RESULT:    -6.811      1.923      6.359
REMARK INTER + INTRA:          -8.716
REMARK INTER:                  -7.822
REMARK INTRA:                  -0.894
REMARK UNBOUND:                -0.710
REMARK  Name = resultss/4CJN/ligands/lig_258_t0.pdb
REMARK  6 active torsions:
REMARK  status: ('A' for Active; 'I' for Inactive)
REMARK    1  A    between atoms: C1_1  and  C2_2
REMARK    2  A    between atoms: C4_4  and  O1_5
REMARK    3  A    between atoms: C9_10  and  C10_11
REMARK    4  A    between atoms: C13_14  and  O2_15
REMARK    5  A    between atoms: C16_18  and  O3_19
REMARK    6  A    between atoms: C20_24  and  O5_25
REMARK                            x       y       z     vdW  Elec       q    Type
REMARK                         _______ _______ _______ _____ _____    ______ ____
ROOT
ATOM      1  C1  UNL     1      30.148 -10.003 -43.377  0.00  0.00    +0.000 C 
ATOM      2  C2  UNL     1      30.142  -9.818 -41.888  0.00  0.00    +0.000 A 
ATOM      3  C3  UNL     1      31.356  -9.851 -41.169  0.00  0.00    +0.000 A 
ATOM      4  C4  UNL     1      31.385  -9.624 -39.783  0.00  0.00    +0.000 A 
ATOM      5  C5  UNL     1      30.159  -9.457 -39.110  0.00  0.00    +0.000 A 
ATOM      6  C6  UNL     1      28.969  -9.334 -39.838  0.00  0.00    +0.000 A 
ATOM      7  C7  UNL     1      28.941  -9.518 -41.224  0.00  0.00    +0.000 A 
ATOM      8  C8  UNL     1      27.932  -9.077 -38.946  0.00  0.00    +0.000 A 
ATOM      9  C9  UNL     1      26.550  -8.863 -39.076  0.00  0.00    +0.000 A 
ATOM     10  C16 UNL     1      25.814  -8.699 -37.866  0.00  0.00    +0.000 A 
ATOM     11  O4  UNL     1      26.435  -8.770 -36.676  0.00  0.00    +0.000 OA
ATOM     12  C17 UNL     1      27.750  -8.979 -36.555  0.00  0.00    +0.000 A 
ATOM     13  C18 UNL     1      28.494  -9.103 -37.708  0.00  0.00    +0.000 A 
ATOM     14  C19 UNL     1      29.835  -9.359 -37.749  0.00  0.00    +0.000 A 
ATOM     15  C20 UNL     1      30.526  -9.617 -36.551  0.00  0.00    +0.000 A 
ATOM     16  C21 UNL     1      29.832  -9.409 -35.313  0.00  0.00    +0.000 A 
ATOM     17  C22 UNL     1      30.494  -9.510 -34.073  0.00  0.00    +0.000 A 
ATOM     18  C23 UNL     1      29.803  -9.332 -32.875  0.00  0.00    +0.000 A 
ATOM     19  C24 UNL     1      28.440  -9.047 -32.881  0.00  0.00    +0.000 A 
ATOM     20  C25 UNL     1      27.746  -8.923 -34.085  0.00  0.00    +0.000 A 
ATOM     21  O6  UNL     1      26.515  -8.655 -34.050  0.00  0.00    +0.000 OA
ATOM     22  C26 UNL     1      28.424  -9.092 -35.316  0.00  0.00    +0.000 A 
ENDROOT
BRANCH   9  23
ATOM     23  C10 UNL     1      25.896  -8.779 -40.392  0.00  0.00    +0.000 A 
ATOM     24  C11 UNL     1      25.778  -7.543 -41.043  0.00  0.00    +0.000 A 
ATOM     25  C12 UNL     1      25.148  -7.464 -42.290  0.00  0.00    +0.000 A 
ATOM     26  C13 UNL     1      24.635  -8.618 -42.893  0.00  0.00    +0.000 A 
ATOM     27  C14 UNL     1      24.757  -9.855 -42.245  0.00  0.00    +0.000 A 
ATOM     28  C15 UNL     1      25.387  -9.936 -41.000  0.00  0.00    +0.000 A 
BRANCH  26  29
ATOM     29  O2  UNL     1      24.008  -8.525 -44.134  0.00  0.00    +0.000 OA
ATOM     30  H9  UNL     1      23.918  -9.329 -44.743  0.00  0.00    +0.000 HD
ENDBRANCH  26  29
ENDBRANCH   9  23
BRANCH   4  31
ATOM     31  O1  UNL     1      32.622  -9.483 -39.160  0.00  0.00    +0.000 OA
ATOM     32  H5  UNL     1      33.402 -10.085 -39.383  0.00  0.00    +0.000 HD
ENDBRANCH   4  31
BRANCH  10  33
ATOM     33  O3  UNL     1      24.440  -8.461 -37.878  0.00  0.00    +0.000 OA
ATOM     34  H12 UNL     1      23.932  -8.231 -38.723  0.00  0.00    +0.000 HD
ENDBRANCH  10  33
BRANCH  15  35
ATOM     35  O5  UNL     1      31.817 -10.145 -36.605  0.00  0.00    +0.000 OA
ATOM     36  H13 UNL     1      32.173 -10.847 -35.974  0.00  0.00    +0.000 HD
ENDBRANCH  15  35
TORSDOF 5
ENDMDL
MODEL 4
REMARK VINA RESULT:    -6.787      2.046      6.705
REMARK INTER + INTRA:          -8.688
REMARK INTER:                  -7.786
REMARK INTRA:                  -0.901
REMARK UNBOUND:                -0.710
REMARK  Name = resultss/4CJN/ligands/lig_258_t0.pdb
REMARK  6 active torsions:
REMARK  status: ('A' for Active; 'I' for Inactive)
REMARK    1  A    between atoms: C1_1  and  C2_2
REMARK    2  A    between atoms: C4_4  and  O1_5
REMARK    3  A    between atoms: C9_10  and  C10_11
REMARK    4  A    between atoms: C13_14  and  O2_15
REMARK    5  A    between atoms: C16_18  and  O3_19
REMARK    6  A    between atoms: C20_24  and  O5_25
REMARK                            x       y       z     vdW  Elec       q    Type
REMARK                         _______ _______ _______ _____ _____    ______ ____
ROOT
ATOM      1  C1  UNL     1      31.374  -9.948 -40.188  0.00  0.00    +0.000 C 
ATOM      2  C2  UNL     1      30.345  -9.698 -39.125  0.00  0.00    +0.000 A 
ATOM      3  C3  UNL     1      30.673  -9.892 -37.766  0.00  0.00    +0.000 A 
ATOM      4  C4  UNL     1      29.747  -9.610 -36.748  0.00  0.00    +0.000 A 
ATOM      5  C5  UNL     1      28.447  -9.217 -37.122  0.00  0.00    +0.000 A 
ATOM      6  C6  UNL     1      28.155  -8.939 -38.462  0.00  0.00    +0.000 A 
ATOM      7  C7  UNL     1      29.087  -9.179 -39.476  0.00  0.00    +0.000 A 
ATOM      8  C8  UNL     1      26.844  -8.478 -38.540  0.00  0.00    +0.000 A 
ATOM      9  C9  UNL     1      26.009  -8.052 -39.586  0.00  0.00    +0.000 A 
ATOM     10  C16 UNL     1      24.668  -7.717 -39.236  0.00  0.00    +0.000 A 
ATOM     11  O4  UNL     1      24.247  -7.832 -37.965  0.00  0.00    +0.000 OA
ATOM     12  C17 UNL     1      25.043  -8.243 -36.972  0.00  0.00    +0.000 A 
ATOM     13  C18 UNL     1      26.354  -8.538 -37.273  0.00  0.00    +0.000 A 
ATOM     14  C19 UNL     1      27.275  -9.007 -36.380  0.00  0.00    +0.000 A 
ATOM     15  C20 UNL     1      26.870  -9.318 -35.069  0.00  0.00    +0.000 A 
ATOM     16  C21 UNL     1      25.545  -8.945 -34.665  0.00  0.00    +0.000 A 
ATOM     17  C22 UNL     1      25.113  -9.094 -33.332  0.00  0.00    +0.000 A 
ATOM     18  C23 UNL     1      23.813  -8.754 -32.958  0.00  0.00    +0.000 A 
ATOM     19  C24 UNL     1      22.915  -8.254 -33.897  0.00  0.00    +0.000 A 
ATOM     20  C25 UNL     1      23.303  -8.075 -35.225  0.00  0.00    +0.000 A 
ATOM     21  O6  UNL     1      22.465  -7.612 -36.044  0.00  0.00    +0.000 OA
ATOM     22  C26 UNL     1      24.618  -8.407 -35.631  0.00  0.00    +0.000 A 
ENDROOT
BRANCH   9  23
ATOM     23  C10 UNL     1      26.497  -7.923 -40.969  0.00  0.00    +0.000 A 
ATOM     24  C11 UNL     1      26.388  -9.001 -41.859  0.00  0.00    +0.000 A 
ATOM     25  C12 UNL     1      26.860  -8.879 -43.169  0.00  0.00    +0.000 A 
ATOM     26  C13 UNL     1      27.441  -7.681 -43.600  0.00  0.00    +0.000 A 
ATOM     27  C14 UNL     1      27.547  -6.601 -42.712  0.00  0.00    +0.000 A 
ATOM     28  C15 UNL     1      27.075  -6.720 -41.402  0.00  0.00    +0.000 A 
BRANCH  26  29
ATOM     29  O2  UNL     1      27.910  -7.574 -44.907  0.00  0.00    +0.000 OA
ATOM     30  H9  UNL     1      27.418  -7.027 -45.603  0.00  0.00    +0.000 HD
ENDBRANCH  26  29
ENDBRANCH   9  23
BRANCH   4  31
ATOM     31  O1  UNL     1      30.184  -9.641 -35.427  0.00  0.00    +0.000 OA
ATOM     32  H5  UNL     1      30.849  -8.969 -35.071  0.00  0.00    +0.000 HD
ENDBRANCH   4  31
BRANCH  10  33
ATOM     33  O3  UNL     1      23.759  -7.262 -40.191  0.00  0.00    +0.000 OA
ATOM     34  H12 UNL     1      22.764  -7.438 -40.127  0.00  0.00    +0.000 HD
ENDBRANCH  10  33
BRANCH  15  35
ATOM     35  O5  UNL     1      27.726 -10.048 -34.242  0.00  0.00    +0.000 OA
ATOM     36  H13 UNL     1      27.844  -9.881 -33.254  0.00  0.00    +0.000 HD
ENDBRANCH  15  35
TORSDOF 5
ENDMDL
MODEL 5
REMARK VINA RESULT:    -6.501      1.800      2.452
REMARK INTER + INTRA:          -8.351
REMARK INTER:                  -7.475
REMARK INTRA:                  -0.876
REMARK UNBOUND:                -0.710
REMARK  Name = resultss/4CJN/ligands/lig_258_t0.pdb
REMARK  6 active torsions:
REMARK  status: ('A' for Active; 'I' for Inactive)
REMARK    1  A    between atoms: C1_1  and  C2_2
REMARK    2  A    between atoms: C4_4  and  O1_5
REMARK    3  A    between atoms: C9_10  and  C10_11
REMARK    4  A    between atoms: C13_14  and  O2_15
REMARK    5  A    between atoms: C16_18  and  O3_19
REMARK    6  A    between atoms: C20_24  and  O5_25
REMARK                            x       y       z     vdW  Elec       q    Type
REMARK                         _______ _______ _______ _____ _____    ______ ____
ROOT
ATOM      1  C1  UNL     1      28.680  -9.182 -33.305  0.00  0.00    +0.000 C 
ATOM      2  C2  UNL     1      28.522  -9.167 -34.797  0.00  0.00    +0.000 A 
ATOM      3  C3  UNL     1      29.471  -9.818 -35.614  0.00  0.00    +0.000 A 
ATOM      4  C4  UNL     1      29.316  -9.867 -37.009  0.00  0.00    +0.000 A 
ATOM      5  C5  UNL     1      28.236  -9.169 -37.584  0.00  0.00    +0.000 A 
ATOM      6  C6  UNL     1      27.250  -8.604 -36.767  0.00  0.00    +0.000 A 
ATOM      7  C7  UNL     1      27.379  -8.587 -35.375  0.00  0.00    +0.000 A 
ATOM      8  C8  UNL     1      26.257  -8.069 -37.582  0.00  0.00    +0.000 A 
ATOM      9  C9  UNL     1      25.048  -7.393 -37.348  0.00  0.00    +0.000 A 
ATOM     10  C16 UNL     1      24.339  -6.939 -38.499  0.00  0.00    +0.000 A 
ATOM     11  O4  UNL     1      24.837  -7.144 -39.731  0.00  0.00    +0.000 OA
ATOM     12  C17 UNL     1      25.991  -7.783 -39.950  0.00  0.00    +0.000 A 
ATOM     13  C18 UNL     1      26.679  -8.266 -38.859  0.00  0.00    +0.000 A 
ATOM     14  C19 UNL     1      27.887  -8.902 -38.917  0.00  0.00    +0.000 A 
ATOM     15  C20 UNL     1      28.556  -9.004 -40.149  0.00  0.00    +0.000 A 
ATOM     16  C21 UNL     1      27.852  -8.607 -41.334  0.00  0.00    +0.000 A 
ATOM     17  C22 UNL     1      28.400  -8.809 -42.618  0.00  0.00    +0.000 A 
ATOM     18  C23 UNL     1      27.718  -8.394 -43.761  0.00  0.00    +0.000 A 
ATOM     19  C24 UNL     1      26.476  -7.773 -43.657  0.00  0.00    +0.000 A 
ATOM     20  C25 UNL     1      25.888  -7.566 -42.408  0.00  0.00    +0.000 A 
ATOM     21  O6  UNL     1      24.759  -7.009 -42.355  0.00  0.00    +0.000 OA
ATOM     22  C26 UNL     1      26.555  -7.982 -41.232  0.00  0.00    +0.000 A 
ENDROOT
BRANCH   9  23
ATOM     23  C10 UNL     1      24.518  -7.191 -35.989  0.00  0.00    +0.000 A 
ATOM     24  C11 UNL     1      24.901  -6.068 -35.243  0.00  0.00    +0.000 A 
ATOM     25  C12 UNL     1      24.403  -5.883 -33.950  0.00  0.00    +0.000 A 
ATOM     26  C13 UNL     1      23.519  -6.815 -33.395  0.00  0.00    +0.000 A 
ATOM     27  C14 UNL     1      23.132  -7.937 -34.143  0.00  0.00    +0.000 A 
ATOM     28  C15 UNL     1      23.627  -8.123 -35.436  0.00  0.00    +0.000 A 
BRANCH  26  29
ATOM     29  O2  UNL     1      23.033  -6.620 -32.104  0.00  0.00    +0.000 OA
ATOM     30  H9  UNL     1      22.229  -7.131 -31.759  0.00  0.00    +0.000 HD
ENDBRANCH  26  29
ENDBRANCH   9  23
BRANCH   4  31
ATOM     31  O1  UNL     1      30.177 -10.677 -37.744  0.00  0.00    +0.000 OA
ATOM     32  H5  UNL     1      31.177 -10.529 -37.743  0.00  0.00    +0.000 HD
ENDBRANCH   4  31
BRANCH  10  33
ATOM     33  O3  UNL     1      23.118  -6.275 -38.386  0.00  0.00    +0.000 OA
ATOM     34  H12 UNL     1      22.272  -6.606 -38.834  0.00  0.00    +0.000 HD
ENDBRANCH  10  33
BRANCH  15  35
ATOM     35  O5  UNL     1      29.895  -9.398 -40.171  0.00  0.00    +0.000 OA
ATOM     36  H13 UNL     1      30.342  -9.859 -40.951  0.00  0.00    +0.000 HD
ENDBRANCH  15  35
TORSDOF 5
ENDMDL
MODEL 6
REMARK VINA RESULT:    -6.320      1.836      6.557
REMARK INTER + INTRA:          -8.138
REMARK INTER:                  -7.248
REMARK INTRA:                  -0.890
REMARK UNBOUND:                -0.710
REMARK  Name = resultss/4CJN/ligands/lig_258_t0.pdb
REMARK  6 active torsions:
REMARK  status: ('A' for Active; 'I' for Inactive)
REMARK    1  A    between atoms: C1_1  and  C2_2
REMARK    2  A    between atoms: C4_4  and  O1_5
REMARK    3  A    between atoms: C9_10  and  C10_11
REMARK    4  A    between atoms: C13_14  and  O2_15
REMARK    5  A    between atoms: C16_18  and  O3_19
REMARK    6  A    between atoms: C20_24  and  O5_25
REMARK                            x       y       z     vdW  Elec       q    Type
REMARK                         _______ _______ _______ _____ _____    ______ ____
ROOT
ATOM      1  C1  UNL     1      32.367 -10.028 -37.207  0.00  0.00    +0.000 C 
ATOM      2  C2  UNL     1      31.087  -9.531 -36.604  0.00  0.00    +0.000 A 
ATOM      3  C3  UNL     1      31.068  -9.071 -35.270  0.00  0.00    +0.000 A 
ATOM      4  C4  UNL     1      29.896  -8.547 -34.700  0.00  0.00    +0.000 A 
ATOM      5  C5  UNL     1      28.712  -8.578 -35.464  0.00  0.00    +0.000 A 
ATOM      6  C6  UNL     1      28.757  -8.948 -36.813  0.00  0.00    +0.000 A 
ATOM      7  C7  UNL     1      29.931  -9.433 -37.398  0.00  0.00    +0.000 A 
ATOM      8  C8  UNL     1      27.483  -8.795 -37.354  0.00  0.00    +0.000 A 
ATOM      9  C9  UNL     1      26.920  -9.001 -38.623  0.00  0.00    +0.000 A 
ATOM     10  C16 UNL     1      25.515  -8.784 -38.740  0.00  0.00    +0.000 A 
ATOM     11  O4  UNL     1      24.791  -8.419 -37.669  0.00  0.00    +0.000 OA
ATOM     12  C17 UNL     1      25.329  -8.228 -36.460  0.00  0.00    +0.000 A 
ATOM     13  C18 UNL     1      26.690  -8.395 -36.325  0.00  0.00    +0.000 A 
ATOM     14  C19 UNL     1      27.378  -8.276 -35.151  0.00  0.00    +0.000 A 
ATOM     15  C20 UNL     1      26.672  -8.066 -33.953  0.00  0.00    +0.000 A 
ATOM     16  C21 UNL     1      25.267  -7.789 -34.038  0.00  0.00    +0.000 A 
ATOM     17  C22 UNL     1      24.517  -7.430 -32.899  0.00  0.00    +0.000 A 
ATOM     18  C23 UNL     1      23.147  -7.191 -32.990  0.00  0.00    +0.000 A 
ATOM     19  C24 UNL     1      22.489  -7.297 -34.213  0.00  0.00    +0.000 A 
ATOM     20  C25 UNL     1      23.194  -7.635 -35.369  0.00  0.00    +0.000 A 
ATOM     21  O6  UNL     1      22.566  -7.713 -36.460  0.00  0.00    +0.000 OA
ATOM     22  C26 UNL     1      24.586  -7.878 -35.308  0.00  0.00    +0.000 A 
ENDROOT
BRANCH   9  23
ATOM     23  C10 UNL     1      27.737  -9.390 -39.785  0.00  0.00    +0.000 A 
ATOM     24  C11 UNL     1      27.964 -10.744 -40.066  0.00  0.00    +0.000 A 
ATOM     25  C12 UNL     1      28.747 -11.110 -41.165  0.00  0.00    +0.000 A 
ATOM     26  C13 UNL     1      29.307 -10.128 -41.990  0.00  0.00    +0.000 A 
ATOM     27  C14 UNL     1      29.077  -8.773 -41.712  0.00  0.00    +0.000 A 
ATOM     28  C15 UNL     1      28.293  -8.405 -40.615  0.00  0.00    +0.000 A 
BRANCH  26  29
ATOM     29  O2  UNL     1      30.088 -10.507 -43.079  0.00  0.00    +0.000 OA
ATOM     30  H9  UNL     1      30.480 -11.438 -43.150  0.00  0.00    +0.000 HD
ENDBRANCH  26  29
ENDBRANCH   9  23
BRANCH   4  31
ATOM     31  O1  UNL     1      29.980  -7.940 -33.450  0.00  0.00    +0.000 OA
ATOM     32  H5  UNL     1      29.182  -7.880 -32.833  0.00  0.00    +0.000 HD
ENDBRANCH   4  31
BRANCH  10  33
ATOM     33  O3  UNL     1      24.855  -8.938 -39.959  0.00  0.00    +0.000 OA
ATOM     34  H12 UNL     1      25.276  -9.403 -40.755  0.00  0.00    +0.000 HD
ENDBRANCH  10  33
BRANCH  15  35
ATOM     35  O5  UNL     1      27.331  -8.219 -32.732  0.00  0.00    +0.000 OA
ATOM     36  H13 UNL     1      26.958  -7.924 -31.842  0.00  0.00    +0.000 HD
ENDBRANCH  15  35
TORSDOF 5
ENDMDL
MODEL 7
REMARK VINA RESULT:    -6.042      1.745      4.938
REMARK INTER + INTRA:          -7.812
REMARK INTER:                  -6.910
REMARK INTRA:                  -0.902
REMARK UNBOUND:                -0.710
REMARK  Name = resultss/4CJN/ligands/lig_258_t0.pdb
REMARK  6 active torsions:
REMARK  status: ('A' for Active; 'I' for Inactive)
REMARK    1  A    between atoms: C1_1  and  C2_2
REMARK    2  A    between atoms: C4_4  and  O1_5
REMARK    3  A    between atoms: C9_10  and  C10_11
REMARK    4  A    between atoms: C13_14  and  O2_15
REMARK    5  A    between atoms: C16_18  and  O3_19
REMARK    6  A    between atoms: C20_24  and  O5_25
REMARK                            x       y       z     vdW  Elec       q    Type
REMARK                         _______ _______ _______ _____ _____    ______ ____
ROOT
ATOM      1  C1  UNL     1      25.519  -8.275 -32.828  0.00  0.00    +0.000 C 
ATOM      2  C2  UNL     1      25.662  -8.328 -34.321  0.00  0.00    +0.000 A 
ATOM      3  C3  UNL     1      24.523  -8.195 -35.144  0.00  0.00    +0.000 A 
ATOM      4  C4  UNL     1      24.636  -8.184 -36.544  0.00  0.00    +0.000 A 
ATOM      5  C5  UNL     1      25.907  -8.404 -37.111  0.00  0.00    +0.000 A 
ATOM      6  C6  UNL     1      27.043  -8.444 -36.294  0.00  0.00    +0.000 A 
ATOM      7  C7  UNL     1      26.939  -8.415 -34.900  0.00  0.00    +0.000 A 
ATOM      8  C8  UNL     1      28.165  -8.569 -37.107  0.00  0.00    +0.000 A 
ATOM      9  C9  UNL     1      29.547  -8.657 -36.874  0.00  0.00    +0.000 A 
ATOM     10  C16 UNL     1      30.376  -8.853 -38.018  0.00  0.00    +0.000 A 
ATOM     11  O4  UNL     1      29.832  -8.963 -39.242  0.00  0.00    +0.000 OA
ATOM     12  C17 UNL     1      28.516  -8.884 -39.460  0.00  0.00    +0.000 A 
ATOM     13  C18 UNL     1      27.693  -8.658 -38.379  0.00  0.00    +0.000 A 
ATOM     14  C19 UNL     1      26.330  -8.593 -38.435  0.00  0.00    +0.000 A 
ATOM     15  C20 UNL     1      25.673  -8.869 -39.648  0.00  0.00    +0.000 A 
ATOM     16  C21 UNL     1      26.474  -9.017 -40.830  0.00  0.00    +0.000 A 
ATOM     17  C22 UNL     1      25.886  -9.154 -42.103  0.00  0.00    +0.000 A 
ATOM     18  C23 UNL     1      26.673  -9.325 -43.241  0.00  0.00    +0.000 A 
ATOM     19  C24 UNL     1      28.062  -9.359 -43.142  0.00  0.00    +0.000 A 
ATOM     20  C25 UNL     1      28.688  -9.212 -41.903  0.00  0.00    +0.000 A 
ATOM     21  O6  UNL     1      29.947  -9.238 -41.854  0.00  0.00    +0.000 OA
ATOM     22  C26 UNL     1      27.913  -9.031 -40.733  0.00  0.00    +0.000 A 
ENDROOT
BRANCH   9  23
ATOM     23  C10 UNL     1      30.119  -8.522 -35.524  0.00  0.00    +0.000 A 
ATOM     24  C11 UNL     1      30.323  -9.657 -34.727  0.00  0.00    +0.000 A 
ATOM     25  C12 UNL     1      30.860  -9.525 -33.443  0.00  0.00    +0.000 A 
ATOM     26  C13 UNL     1      31.196  -8.261 -32.947  0.00  0.00    +0.000 A 
ATOM     27  C14 UNL     1      30.996  -7.125 -33.744  0.00  0.00    +0.000 A 
ATOM     28  C15 UNL     1      30.462  -7.254 -35.029  0.00  0.00    +0.000 A 
BRANCH  26  29
ATOM     29  O2  UNL     1      31.726  -8.143 -31.664  0.00  0.00    +0.000 OA
ATOM     30  H9  UNL     1      31.142  -8.226 -30.840  0.00  0.00    +0.000 HD
ENDBRANCH  26  29
ENDBRANCH   9  23
BRANCH   4  31
ATOM     31  O1  UNL     1      23.511  -7.864 -37.298  0.00  0.00    +0.000 OA
ATOM     32  H5  UNL     1      22.705  -8.473 -37.337  0.00  0.00    +0.000 HD
ENDBRANCH   4  31
BRANCH  10  33
ATOM     33  O3  UNL     1      31.764  -8.933 -37.905  0.00  0.00    +0.000 OA
ATOM     34  H12 UNL     1      32.292  -8.377 -37.244  0.00  0.00    +0.000 HD
ENDBRANCH  10  33
BRANCH  15  35
ATOM     35  O5  UNL     1      24.293  -9.075 -39.649  0.00  0.00    +0.000 OA
ATOM     36  H13 UNL     1      23.820  -9.773 -39.093  0.00  0.00    +0.000 HD
ENDBRANCH  15  35
TORSDOF 5
ENDMDL
MODEL 8
REMARK VINA RESULT:    -5.909      2.548      3.982
REMARK INTER + INTRA:          -7.656
REMARK INTER:                  -6.754
REMARK INTRA:                  -0.902
REMARK UNBOUND:                -0.710
REMARK  Name = resultss/4CJN/ligands/lig_258_t0.pdb
REMARK  6 active torsions:
REMARK  status: ('A' for Active; 'I' for Inactive)
REMARK    1  A    between atoms: C1_1  and  C2_2
REMARK    2  A    between atoms: C4_4  and  O1_5
REMARK    3  A    between atoms: C9_10  and  C10_11
REMARK    4  A    between atoms: C13_14  and  O2_15
REMARK    5  A    between atoms: C16_18  and  O3_19
REMARK    6  A    between atoms: C20_24  and  O5_25
REMARK                            x       y       z     vdW  Elec       q    Type
REMARK                         _______ _______ _______ _____ _____    ______ ____
ROOT
ATOM      1  C1  UNL     1      31.130  -9.617 -36.527  0.00  0.00    +0.000 C 
ATOM      2  C2  UNL     1      30.174  -9.445 -37.671  0.00  0.00    +0.000 A 
ATOM      3  C3  UNL     1      30.553  -9.841 -38.972  0.00  0.00    +0.000 A 
ATOM      4  C4  UNL     1      29.657  -9.743 -40.049  0.00  0.00    +0.000 A 
ATOM      5  C5  UNL     1      28.399  -9.152 -39.818  0.00  0.00    +0.000 A 
ATOM      6  C6  UNL     1      27.995  -8.847 -38.513  0.00  0.00    +0.000 A 
ATOM      7  C7  UNL     1      28.870  -8.980 -37.430  0.00  0.00    +0.000 A 
ATOM      8  C8  UNL     1      26.687  -8.375 -38.556  0.00  0.00    +0.000 A 
ATOM      9  C9  UNL     1      25.769  -7.924 -37.594  0.00  0.00    +0.000 A 
ATOM     10  C16 UNL     1      24.517  -7.446 -38.082  0.00  0.00    +0.000 A 
ATOM     11  O4  UNL     1      24.265  -7.423 -39.401  0.00  0.00    +0.000 OA
ATOM     12  C17 UNL     1      25.142  -7.848 -40.316  0.00  0.00    +0.000 A 
ATOM     13  C18 UNL     1      26.346  -8.350 -39.873  0.00  0.00    +0.000 A 
ATOM     14  C19 UNL     1      27.357  -8.783 -40.682  0.00  0.00    +0.000 A 
ATOM     15  C20 UNL     1      27.240  -8.632 -42.075  0.00  0.00    +0.000 A 
ATOM     16  C21 UNL     1      25.977  -8.205 -42.604  0.00  0.00    +0.000 A 
ATOM     17  C22 UNL     1      25.736  -8.165 -43.993  0.00  0.00    +0.000 A 
ATOM     18  C23 UNL     1      24.513  -7.723 -44.496  0.00  0.00    +0.000 A 
ATOM     19  C24 UNL     1      23.500  -7.315 -43.632  0.00  0.00    +0.000 A 
ATOM     20  C25 UNL     1      23.687  -7.353 -42.250  0.00  0.00    +0.000 A 
ATOM     21  O6  UNL     1      22.743  -6.984 -41.500  0.00  0.00    +0.000 OA
ATOM     22  C26 UNL     1      24.917  -7.802 -41.712  0.00  0.00    +0.000 A 
ENDROOT
BRANCH   9  23
ATOM     23  C10 UNL     1      26.066  -7.971 -36.153  0.00  0.00    +0.000 A 
ATOM     24  C11 UNL     1      25.800  -9.133 -35.415  0.00  0.00    +0.000 A 
ATOM     25  C12 UNL     1      26.076  -9.172 -34.045  0.00  0.00    +0.000 A 
ATOM     26  C13 UNL     1      26.620  -8.053 -33.404  0.00  0.00    +0.000 A 
ATOM     27  C14 UNL     1      26.891  -6.892 -34.141  0.00  0.00    +0.000 A 
ATOM     28  C15 UNL     1      26.617  -6.851 -35.512  0.00  0.00    +0.000 A 
BRANCH  26  29
ATOM     29  O2  UNL     1      26.886  -8.105 -32.037  0.00  0.00    +0.000 OA
ATOM     30  H9  UNL     1      27.792  -8.391 -31.685  0.00  0.00    +0.000 HD
ENDBRANCH  26  29
ENDBRANCH   9  23
BRANCH   4  31
ATOM     31  O1  UNL     1      30.017 -10.318 -41.265  0.00  0.00    +0.000 OA
ATOM     32  H5  UNL     1      29.857  -9.847 -42.144  0.00  0.00    +0.000 HD
ENDBRANCH   4  31
BRANCH  10  33
ATOM     33  O3  UNL     1      23.524  -6.995 -37.213  0.00  0.00    +0.000 OA
ATOM     34  H12 UNL     1      23.481  -7.271 -36.240  0.00  0.00    +0.000 HD
ENDBRANCH  10  33
BRANCH  15  35
ATOM     35  O5  UNL     1      28.366  -8.812 -42.881  0.00  0.00    +0.000 OA
ATOM     36  H13 UNL     1      29.165  -9.374 -42.627  0.00  0.00    +0.000 HD
ENDBRANCH  15  35
TORSDOF 5
ENDMDL
MODEL 9
REMARK VINA RESULT:    -5.797      2.150      5.597
REMARK INTER + INTRA:          -7.524
REMARK INTER:                  -6.906
REMARK INTRA:                  -0.618
REMARK UNBOUND:                -0.710
REMARK  Name = resultss/4CJN/ligands/lig_258_t0.pdb
REMARK  6 active torsions:
REMARK  status: ('A' for Active; 'I' for Inactive)
REMARK    1  A    between atoms: C1_1  and  C2_2
REMARK    2  A    between atoms: C4_4  and  O1_5
REMARK    3  A    between atoms: C9_10  and  C10_11
REMARK    4  A    between atoms: C13_14  and  O2_15
REMARK    5  A    between atoms: C16_18  and  O3_19
REMARK    6  A    between atoms: C20_24  and  O5_25
REMARK                            x       y       z     vdW  Elec       q    Type
REMARK                         _______ _______ _______ _____ _____    ______ ____
ROOT
ATOM      1  C1  UNL     1      24.408  -9.094 -40.467  0.00  0.00    +0.000 C 
ATOM      2  C2  UNL     1      25.587  -9.069 -39.539  0.00  0.00    +0.000 A 
ATOM      3  C3  UNL     1      26.866  -9.427 -40.014  0.00  0.00    +0.000 A 
ATOM      4  C4  UNL     1      27.995  -9.357 -39.182  0.00  0.00    +0.000 A 
ATOM      5  C5  UNL     1      27.806  -9.009 -37.830  0.00  0.00    +0.000 A 
ATOM      6  C6  UNL     1      26.553  -8.567 -37.388  0.00  0.00    +0.000 A 
ATOM      7  C7  UNL     1      25.433  -8.596 -38.225  0.00  0.00    +0.000 A 
ATOM      8  C8  UNL     1      26.665  -8.193 -36.052  0.00  0.00    +0.000 A 
ATOM      9  C9  UNL     1      25.774  -7.685 -35.093  0.00  0.00    +0.000 A 
ATOM     10  C16 UNL     1      26.293  -7.498 -33.777  0.00  0.00    +0.000 A 
ATOM     11  O4  UNL     1      27.567  -7.820 -33.495  0.00  0.00    +0.000 OA
ATOM     12  C17 UNL     1      28.411  -8.309 -34.409  0.00  0.00    +0.000 A 
ATOM     13  C18 UNL     1      27.950  -8.465 -35.698  0.00  0.00    +0.000 A 
ATOM     14  C19 UNL     1      28.676  -8.988 -36.730  0.00  0.00    +0.000 A 
ATOM     15  C20 UNL     1      29.958  -9.507 -36.479  0.00  0.00    +0.000 A 
ATOM     16  C21 UNL     1      30.533  -9.289 -35.183  0.00  0.00    +0.000 A 
ATOM     17  C22 UNL     1      31.865  -9.654 -34.897  0.00  0.00    +0.000 A 
ATOM     18  C23 UNL     1      32.403  -9.462 -33.626  0.00  0.00    +0.000 A 
ATOM     19  C24 UNL     1      31.635  -8.900 -32.609  0.00  0.00    +0.000 A 
ATOM     20  C25 UNL     1      30.316  -8.510 -32.850  0.00  0.00    +0.000 A 
ATOM     21  O6  UNL     1      29.655  -7.997 -31.908  0.00  0.00    +0.000 OA
ATOM     22  C26 UNL     1      29.746  -8.688 -34.133  0.00  0.00    +0.000 A 
ENDROOT
BRANCH   9  23
ATOM     23  C10 UNL     1      24.386  -7.329 -35.430  0.00  0.00    +0.000 A 
ATOM     24  C11 UNL     1      24.120  -6.222 -36.247  0.00  0.00    +0.000 A 
ATOM     25  C12 UNL     1      22.799  -5.883 -36.560  0.00  0.00    +0.000 A 
ATOM     26  C13 UNL     1      21.739  -6.646 -36.060  0.00  0.00    +0.000 A 
ATOM     27  C14 UNL     1      22.004  -7.757 -35.245  0.00  0.00    +0.000 A 
ATOM     28  C15 UNL     1      23.323  -8.099 -34.933  0.00  0.00    +0.000 A 
BRANCH  26  29
ATOM     29  O2  UNL     1      20.428  -6.295 -36.376  0.00  0.00    +0.000 OA
ATOM     30  H9  UNL     1      20.215  -5.431 -36.860  0.00  0.00    +0.000 HD
ENDBRANCH  26  29
ENDBRANCH   9  23
BRANCH   4  31
ATOM     31  O1  UNL     1      29.252  -9.542 -39.752  0.00  0.00    +0.000 OA
ATOM     32  H5  UNL     1      30.102  -9.391 -39.226  0.00  0.00    +0.000 HD
ENDBRANCH   4  31
BRANCH  10  33
ATOM     33  O3  UNL     1      25.503  -6.979 -32.752  0.00  0.00    +0.000 OA
ATOM     34  H12 UNL     1      24.571  -6.615 -32.910  0.00  0.00    +0.000 HD
ENDBRANCH  10  33
BRANCH  15  35
ATOM     35  O5  UNL     1      30.586 -10.283 -37.454  0.00  0.00    +0.000 OA
ATOM     36  H13 UNL     1      30.114 -10.959 -38.037  0.00  0.00    +0.000 HD
ENDBRANCH  15  35
TORSDOF 5
ENDMDL
