MODEL 1
REMARK VINA RESULT:    -4.749      0.000      0.000
REMARK INTER + INTRA:          -5.949
REMARK INTER:                  -5.582
REMARK INTRA:                  -0.367
REMARK UNBOUND:                -0.367
REMARK  Name = resultss/4CJN/ligands/lig_238_t1.pdb
REMARK  5 active torsions:
REMARK  status: ('A' for Active; 'I' for Inactive)
REMARK    1  A    between atoms: C1_1  and  O1_2
REMARK    2  A    between atoms: O1_2  and  C2_3
REMARK    3  A    between atoms: C7_9  and  C8_10
REMARK    4  A    between atoms: C8_10  and  O3_11
REMARK    5  A    between atoms: C11_16  and  O6_17
REMARK                            x       y       z     vdW  Elec       q    Type
REMARK                         _______ _______ _______ _____ _____    ______ ____
ROOT
ATOM      1  C2  UNL     1      27.753  -9.669 -36.109  0.00  0.00    +0.000 C 
ATOM      2  C3  UNL     1      29.156  -9.688 -36.590  0.00  0.00    +0.000 C 
ATOM      3  C4  UNL     1      30.201  -9.423 -35.790  0.00  0.00    +0.000 C 
ATOM      4  C5  UNL     1      30.009  -9.004 -34.344  0.00  0.00    +0.000 C 
ATOM      5  C6  UNL     1      28.579  -9.131 -33.865  0.00  0.00    +0.000 C 
ATOM      6  O2  UNL     1      28.311  -8.868 -32.662  0.00  0.00    +0.000 OA
ATOM      7  C7  UNL     1      27.482  -9.451 -34.809  0.00  0.00    +0.000 C 
ATOM      8  C9  UNL     1      30.989  -9.792 -33.511  0.00  0.00    +0.000 C 
ATOM      9  O4  UNL     1      30.688 -10.237 -32.371  0.00  0.00    +0.000 OA
ATOM     10  O5  UNL     1      32.269 -10.012 -34.021  0.00  0.00    +0.000 OA
ATOM     11  C10 UNL     1      32.677  -9.396 -35.240  0.00  0.00    +0.000 C 
ATOM     12  C11 UNL     1      31.609  -9.598 -36.335  0.00  0.00    +0.000 C 
ENDROOT
BRANCH   1  14
ATOM     13  C1  UNL     1      26.266  -8.976 -38.001  0.00  0.00    +0.000 C 
ATOM     14  O1  UNL     1      26.685  -9.892 -36.995  0.00  0.00    +0.000 OA
ENDBRANCH   1  14
BRANCH  12  15
ATOM     15  O6  UNL     1      31.821  -8.685 -37.381  0.00  0.00    +0.000 OA
ATOM     16  H12 UNL     1      31.134  -8.879 -38.071  0.00  0.00    +0.000 HD
ENDBRANCH  12  15
BRANCH   7  17
ATOM     17  C8  UNL     1      26.051  -9.442 -34.316  0.00  0.00    +0.000 C 
BRANCH  17  18
ATOM     18  O3  UNL     1      25.508 -10.731 -34.390  0.00  0.00    +0.000 OA
ATOM     19  H8  UNL     1      24.563 -10.623 -34.677  0.00  0.00    +0.000 HD
ENDBRANCH  17  18
ENDBRANCH   7  17
TORSDOF 4
ENDMDL
MODEL 2
REMARK VINA RESULT:    -4.745      1.876      4.233
REMARK INTER + INTRA:          -5.943
REMARK INTER:                  -5.577
REMARK INTRA:                  -0.367
REMARK UNBOUND:                -0.367
REMARK  Name = resultss/4CJN/ligands/lig_238_t1.pdb
REMARK  5 active torsions:
REMARK  status: ('A' for Active; 'I' for Inactive)
REMARK    1  A    between atoms: C1_1  and  O1_2
REMARK    2  A    between atoms: O1_2  and  C2_3
REMARK    3  A    between atoms: C7_9  and  C8_10
REMARK    4  A    between atoms: C8_10  and  O3_11
REMARK    5  A    between atoms: C11_16  and  O6_17
REMARK                            x       y       z     vdW  Elec       q    Type
REMARK                         _______ _______ _______ _____ _____    ______ ____
ROOT
ATOM      1  C2  UNL     1      28.552  -9.761 -34.957  0.00  0.00    +0.000 C 
ATOM      2  C3  UNL     1      29.583  -9.697 -36.022  0.00  0.00    +0.000 C 
ATOM      3  C4  UNL     1      29.279  -9.501 -37.315  0.00  0.00    +0.000 C 
ATOM      4  C5  UNL     1      27.840  -9.408 -37.788  0.00  0.00    +0.000 C 
ATOM      5  C6  UNL     1      26.838  -9.341 -36.657  0.00  0.00    +0.000 C 
ATOM      6  O2  UNL     1      25.615  -9.201 -36.931  0.00  0.00    +0.000 OA
ATOM      7  C7  UNL     1      27.256  -9.546 -35.251  0.00  0.00    +0.000 C 
ATOM      8  C9  UNL     1      27.751  -8.237 -38.735  0.00  0.00    +0.000 C 
ATOM      9  O4  UNL     1      26.750  -7.471 -38.754  0.00  0.00    +0.000 OA
ATOM     10  O5  UNL     1      28.805  -8.017 -39.623  0.00  0.00    +0.000 OA
ATOM     11  C10 UNL     1      29.877  -8.953 -39.718  0.00  0.00    +0.000 C 
ATOM     12  C11 UNL     1      30.408  -9.316 -38.316  0.00  0.00    +0.000 C 
ENDROOT
BRANCH   1  14
ATOM     13  C1  UNL     1      29.889  -9.305 -32.889  0.00  0.00    +0.000 C 
ATOM     14  O1  UNL     1      28.909 -10.030 -33.625  0.00  0.00    +0.000 OA
ENDBRANCH   1  14
BRANCH  12  15
ATOM     15  O6  UNL     1      31.169 -10.494 -38.385  0.00  0.00    +0.000 OA
ATOM     16  H12 UNL     1      31.222 -10.742 -39.345  0.00  0.00    +0.000 HD
ENDBRANCH  12  15
BRANCH   7  17
ATOM     17  C8  UNL     1      26.206  -9.600 -34.163  0.00  0.00    +0.000 C 
BRANCH  17  18
ATOM     18  O3  UNL     1      25.372 -10.710 -34.352  0.00  0.00    +0.000 OA
ATOM     19  H8  UNL     1      24.762 -10.742 -33.569  0.00  0.00    +0.000 HD
ENDBRANCH  17  18
ENDBRANCH   7  17
TORSDOF 4
ENDMDL
MODEL 3
REMARK VINA RESULT:    -4.597      3.492      5.720
REMARK INTER + INTRA:          -5.770
REMARK INTER:                  -5.405
REMARK INTRA:                  -0.365
REMARK UNBOUND:                -0.367
REMARK  Name = resultss/4CJN/ligands/lig_238_t1.pdb
REMARK  5 active torsions:
REMARK  status: ('A' for Active; 'I' for Inactive)
REMARK    1  A    between atoms: C1_1  and  O1_2
REMARK    2  A    between atoms: O1_2  and  C2_3
REMARK    3  A    between atoms: C7_9  and  C8_10
REMARK    4  A    between atoms: C8_10  and  O3_11
REMARK    5  A    between atoms: C11_16  and  O6_17
REMARK                            x       y       z     vdW  Elec       q    Type
REMARK                         _______ _______ _______ _____ _____    ______ ____
ROOT
ATOM      1  C2  UNL     1      25.118  -8.571 -36.517  0.00  0.00    +0.000 C 
ATOM      2  C3  UNL     1      24.849  -8.144 -37.912  0.00  0.00    +0.000 C 
ATOM      3  C4  UNL     1      25.664  -8.453 -38.934  0.00  0.00    +0.000 C 
ATOM      4  C5  UNL     1      26.967  -9.200 -38.715  0.00  0.00    +0.000 C 
ATOM      5  C6  UNL     1      27.127  -9.730 -37.307  0.00  0.00    +0.000 C 
ATOM      6  O2  UNL     1      28.144 -10.420 -37.025  0.00  0.00    +0.000 OA
ATOM      7  C7  UNL     1      26.171  -9.361 -36.237  0.00  0.00    +0.000 C 
ATOM      8  C9  UNL     1      27.055 -10.275 -39.770  0.00  0.00    +0.000 C 
ATOM      9  O4  UNL     1      27.524 -11.417 -39.520  0.00  0.00    +0.000 OA
ATOM     10  O5  UNL     1      26.617  -9.976 -41.061  0.00  0.00    +0.000 OA
ATOM     11  C10 UNL     1      26.219  -8.650 -41.401  0.00  0.00    +0.000 C 
ATOM     12  C11 UNL     1      25.242  -8.089 -40.348  0.00  0.00    +0.000 C 
ENDROOT
BRANCH   1  14
ATOM     13  C1  UNL     1      22.956  -7.657 -35.642  0.00  0.00    +0.000 C 
ATOM     14  O1  UNL     1      24.271  -8.173 -35.468  0.00  0.00    +0.000 OA
ENDBRANCH   1  14
BRANCH  12  15
ATOM     15  O6  UNL     1      25.164  -6.692 -40.467  0.00  0.00    +0.000 OA
ATOM     16  H12 UNL     1      25.405  -6.317 -39.579  0.00  0.00    +0.000 HD
ENDBRANCH  12  15
BRANCH   7  17
ATOM     17  C8  UNL     1      26.437  -9.806 -34.815  0.00  0.00    +0.000 C 
BRANCH  17  18
ATOM     18  O3  UNL     1      25.416 -10.658 -34.377  0.00  0.00    +0.000 OA
ATOM     19  H8  UNL     1      25.817 -11.247 -33.685  0.00  0.00    +0.000 HD
ENDBRANCH  17  18
ENDBRANCH   7  17
TORSDOF 4
ENDMDL
MODEL 4
REMARK VINA RESULT:    -4.589      3.077      5.510
REMARK INTER + INTRA:          -5.760
REMARK INTER:                  -5.361
REMARK INTRA:                  -0.399
REMARK UNBOUND:                -0.367
REMARK  Name = resultss/4CJN/ligands/lig_238_t1.pdb
REMARK  5 active torsions:
REMARK  status: ('A' for Active; 'I' for Inactive)
REMARK    1  A    between atoms: C1_1  and  O1_2
REMARK    2  A    between atoms: O1_2  and  C2_3
REMARK    3  A    between atoms: C7_9  and  C8_10
REMARK    4  A    between atoms: C8_10  and  O3_11
REMARK    5  A    between atoms: C11_16  and  O6_17
REMARK                            x       y       z     vdW  Elec       q    Type
REMARK                         _______ _______ _______ _____ _____    ______ ____
ROOT
ATOM      1  C2  UNL     1      26.234  -8.882 -37.601  0.00  0.00    +0.000 C 
ATOM      2  C3  UNL     1      25.030  -8.182 -37.089  0.00  0.00    +0.000 C 
ATOM      3  C4  UNL     1      24.658  -8.228 -35.799  0.00  0.00    +0.000 C 
ATOM      4  C5  UNL     1      25.408  -9.071 -34.785  0.00  0.00    +0.000 C 
ATOM      5  C6  UNL     1      26.697  -9.653 -35.321  0.00  0.00    +0.000 C 
ATOM      6  O2  UNL     1      27.435 -10.322 -34.548  0.00  0.00    +0.000 OA
ATOM      7  C7  UNL     1      27.049  -9.540 -36.756  0.00  0.00    +0.000 C 
ATOM      8  C9  UNL     1      25.602  -8.227 -33.550  0.00  0.00    +0.000 C 
ATOM      9  O4  UNL     1      26.664  -8.271 -32.873  0.00  0.00    +0.000 OA
ATOM     10  O5  UNL     1      24.560  -7.391 -33.145  0.00  0.00    +0.000 OA
ATOM     11  C10 UNL     1      23.300  -7.433 -33.810  0.00  0.00    +0.000 C 
ATOM     12  C11 UNL     1      23.489  -7.371 -35.340  0.00  0.00    +0.000 C 
ENDROOT
BRANCH   1  14
ATOM     13  C1  UNL     1      25.638  -9.164 -40.017  0.00  0.00    +0.000 C 
ATOM     14  O1  UNL     1      26.552  -8.859 -38.969  0.00  0.00    +0.000 OA
ENDBRANCH   1  14
BRANCH  12  15
ATOM     15  O6  UNL     1      22.316  -7.798 -35.983  0.00  0.00    +0.000 OA
ATOM     16  H12 UNL     1      22.321  -8.791 -35.953  0.00  0.00    +0.000 HD
ENDBRANCH  12  15
BRANCH   7  17
ATOM     17  C8  UNL     1      28.283 -10.245 -37.277  0.00  0.00    +0.000 C 
BRANCH  17  18
ATOM     18  O3  UNL     1      27.915 -11.296 -38.127  0.00  0.00    +0.000 OA
ATOM     19  H8  UNL     1      27.981 -10.946 -39.054  0.00  0.00    +0.000 HD
ENDBRANCH  17  18
ENDBRANCH   7  17
TORSDOF 4
ENDMDL
MODEL 5
REMARK VINA RESULT:    -4.497      1.339      3.415
REMARK INTER + INTRA:          -5.653
REMARK INTER:                  -5.297
REMARK INTRA:                  -0.356
REMARK UNBOUND:                -0.367
REMARK  Name = resultss/4CJN/ligands/lig_238_t1.pdb
REMARK  5 active torsions:
REMARK  status: ('A' for Active; 'I' for Inactive)
REMARK    1  A    between atoms: C1_1  and  O1_2
REMARK    2  A    between atoms: O1_2  and  C2_3
REMARK    3  A    between atoms: C7_9  and  C8_10
REMARK    4  A    between atoms: C8_10  and  O3_11
REMARK    5  A    between atoms: C11_16  and  O6_17
REMARK                            x       y       z     vdW  Elec       q    Type
REMARK                         _______ _______ _______ _____ _____    ______ ____
ROOT
ATOM      1  C2  UNL     1      27.939  -9.981 -35.255  0.00  0.00    +0.000 C 
ATOM      2  C3  UNL     1      28.776  -9.790 -34.045  0.00  0.00    +0.000 C 
ATOM      3  C4  UNL     1      30.103  -9.593 -34.105  0.00  0.00    +0.000 C 
ATOM      4  C5  UNL     1      30.853  -9.630 -35.424  0.00  0.00    +0.000 C 
ATOM      5  C6  UNL     1      29.945  -9.690 -36.632  0.00  0.00    +0.000 C 
ATOM      6  O2  UNL     1      30.456  -9.663 -37.784  0.00  0.00    +0.000 OA
ATOM      7  C7  UNL     1      28.484  -9.887 -36.482  0.00  0.00    +0.000 C 
ATOM      8  C9  UNL     1      31.794  -8.451 -35.442  0.00  0.00    +0.000 C 
ATOM      9  O4  UNL     1      32.009  -7.786 -36.491  0.00  0.00    +0.000 OA
ATOM     10  O5  UNL     1      32.453  -8.107 -34.260  0.00  0.00    +0.000 OA
ATOM     11  C10 UNL     1      32.336  -8.931 -33.102  0.00  0.00    +0.000 C 
ATOM     12  C11 UNL     1      30.858  -9.274 -32.825  0.00  0.00    +0.000 C 
ENDROOT
BRANCH   1  14
ATOM     13  C1  UNL     1      25.682  -9.578 -34.247  0.00  0.00    +0.000 C 
ATOM     14  O1  UNL     1      26.563 -10.246 -35.143  0.00  0.00    +0.000 OA
ENDBRANCH   1  14
BRANCH  12  15
ATOM     15  O6  UNL     1      30.780 -10.370 -31.951  0.00  0.00    +0.000 OA
ATOM     16  H12 UNL     1      30.811 -11.186 -32.515  0.00  0.00    +0.000 HD
ENDBRANCH  12  15
BRANCH   7  17
ATOM     17  C8  UNL     1      27.627 -10.070 -37.716  0.00  0.00    +0.000 C 
BRANCH  17  18
ATOM     18  O3  UNL     1      27.918 -11.296 -38.327  0.00  0.00    +0.000 OA
ATOM     19  H8  UNL     1      27.065 -11.803 -38.365  0.00  0.00    +0.000 HD
ENDBRANCH  17  18
ENDBRANCH   7  17
TORSDOF 4
ENDMDL
MODEL 6
REMARK VINA RESULT:    -4.389      2.174      6.029
REMARK INTER + INTRA:          -5.526
REMARK INTER:                  -5.184
REMARK INTRA:                  -0.342
REMARK UNBOUND:                -0.367
REMARK  Name = resultss/4CJN/ligands/lig_238_t1.pdb
REMARK  5 active torsions:
REMARK  status: ('A' for Active; 'I' for Inactive)
REMARK    1  A    between atoms: C1_1  and  O1_2
REMARK    2  A    between atoms: O1_2  and  C2_3
REMARK    3  A    between atoms: C7_9  and  C8_10
REMARK    4  A    between atoms: C8_10  and  O3_11
REMARK    5  A    between atoms: C11_16  and  O6_17
REMARK                            x       y       z     vdW  Elec       q    Type
REMARK                         _______ _______ _______ _____ _____    ______ ____
ROOT
ATOM      1  C2  UNL     1      28.034  -9.581 -34.668  0.00  0.00    +0.000 C 
ATOM      2  C3  UNL     1      26.808  -9.100 -33.986  0.00  0.00    +0.000 C 
ATOM      3  C4  UNL     1      25.852  -8.402 -34.620  0.00  0.00    +0.000 C 
ATOM      4  C5  UNL     1      26.002  -7.987 -36.072  0.00  0.00    +0.000 C 
ATOM      5  C6  UNL     1      27.196  -8.613 -36.757  0.00  0.00    +0.000 C 
ATOM      6  O2  UNL     1      27.386  -8.387 -37.983  0.00  0.00    +0.000 OA
ATOM      7  C7  UNL     1      28.197  -9.391 -35.990  0.00  0.00    +0.000 C 
ATOM      8  C9  UNL     1      24.694  -8.282 -36.763  0.00  0.00    +0.000 C 
ATOM      9  O4  UNL     1      24.649  -8.726 -37.942  0.00  0.00    +0.000 OA
ATOM     10  O5  UNL     1      23.506  -8.035 -36.074  0.00  0.00    +0.000 OA
ATOM     11  C10 UNL     1      23.530  -7.398 -34.798  0.00  0.00    +0.000 C 
ATOM     12  C11 UNL     1      24.569  -8.067 -33.876  0.00  0.00    +0.000 C 
ENDROOT
BRANCH   1  14
ATOM     13  C1  UNL     1      29.929  -9.635 -33.030  0.00  0.00    +0.000 C 
ATOM     14  O1  UNL     1      29.039 -10.255 -33.952  0.00  0.00    +0.000 OA
ENDBRANCH   1  14
BRANCH  12  15
ATOM     15  O6  UNL     1      24.864  -7.219 -32.796  0.00  0.00    +0.000 OA
ATOM     16  H12 UNL     1      24.812  -6.290 -33.142  0.00  0.00    +0.000 HD
ENDBRANCH  12  15
BRANCH   7  17
ATOM     17  C8  UNL     1      29.444  -9.892 -36.688  0.00  0.00    +0.000 C 
BRANCH  17  18
ATOM     18  O3  UNL     1      29.095 -10.694 -37.782  0.00  0.00    +0.000 OA
ATOM     19  H8  UNL     1      29.826 -10.597 -38.448  0.00  0.00    +0.000 HD
ENDBRANCH  17  18
ENDBRANCH   7  17
TORSDOF 4
ENDMDL
MODEL 7
REMARK VINA RESULT:    -4.221      2.898      5.668
REMARK INTER + INTRA:          -5.328
REMARK INTER:                  -4.963
REMARK INTRA:                  -0.365
REMARK UNBOUND:                -0.367
REMARK  Name = resultss/4CJN/ligands/lig_238_t1.pdb
REMARK  5 active torsions:
REMARK  status: ('A' for Active; 'I' for Inactive)
REMARK    1  A    between atoms: C1_1  and  O1_2
REMARK    2  A    between atoms: O1_2  and  C2_3
REMARK    3  A    between atoms: C7_9  and  C8_10
REMARK    4  A    between atoms: C8_10  and  O3_11
REMARK    5  A    between atoms: C11_16  and  O6_17
REMARK                            x       y       z     vdW  Elec       q    Type
REMARK                         _______ _______ _______ _____ _____    ______ ____
ROOT
ATOM      1  C2  UNL     1      25.468  -8.897 -39.800  0.00  0.00    +0.000 C 
ATOM      2  C3  UNL     1      25.640  -8.870 -38.327  0.00  0.00    +0.000 C 
ATOM      3  C4  UNL     1      26.654  -9.492 -37.704  0.00  0.00    +0.000 C 
ATOM      4  C5  UNL     1      27.657 -10.338 -38.467  0.00  0.00    +0.000 C 
ATOM      5  C6  UNL     1      27.522 -10.223 -39.970  0.00  0.00    +0.000 C 
ATOM      6  O2  UNL     1      28.342 -10.834 -40.707  0.00  0.00    +0.000 OA
ATOM      7  C7  UNL     1      26.384  -9.498 -40.582  0.00  0.00    +0.000 C 
ATOM      8  C9  UNL     1      29.031  -9.974 -37.963  0.00  0.00    +0.000 C 
ATOM      9  O4  UNL     1      30.026  -9.896 -38.734  0.00  0.00    +0.000 OA
ATOM     10  O5  UNL     1      29.198  -9.736 -36.597  0.00  0.00    +0.000 OA
ATOM     11  C10 UNL     1      28.121  -9.960 -35.689  0.00  0.00    +0.000 C 
ATOM     12  C11 UNL     1      26.827  -9.299 -36.206  0.00  0.00    +0.000 C 
ENDROOT
BRANCH   1  14
ATOM     13  C1  UNL     1      24.131  -6.879 -40.443  0.00  0.00    +0.000 C 
ATOM     14  O1  UNL     1      24.357  -8.285 -40.406  0.00  0.00    +0.000 OA
ENDBRANCH   1  14
BRANCH  12  15
ATOM     15  O6  UNL     1      25.717  -9.837 -35.535  0.00  0.00    +0.000 OA
ATOM     16  H12 UNL     1      24.989  -9.915 -36.207  0.00  0.00    +0.000 HD
ENDBRANCH  12  15
BRANCH   7  17
ATOM     17  C8  UNL     1      26.213  -9.515 -42.086  0.00  0.00    +0.000 C 
BRANCH  17  18
ATOM     18  O3  UNL     1      24.982 -10.092 -42.425  0.00  0.00    +0.000 OA
ATOM     19  H8  UNL     1      24.473 -10.190 -41.578  0.00  0.00    +0.000 HD
ENDBRANCH  17  18
ENDBRANCH   7  17
TORSDOF 4
ENDMDL
MODEL 8
REMARK VINA RESULT:    -4.082      2.388      4.085
REMARK INTER + INTRA:          -5.164
REMARK INTER:                  -4.788
REMARK INTRA:                  -0.376
REMARK UNBOUND:                -0.367
REMARK  Name = resultss/4CJN/ligands/lig_238_t1.pdb
REMARK  5 active torsions:
REMARK  status: ('A' for Active; 'I' for Inactive)
REMARK    1  A    between atoms: C1_1  and  O1_2
REMARK    2  A    between atoms: O1_2  and  C2_3
REMARK    3  A    between atoms: C7_9  and  C8_10
REMARK    4  A    between atoms: C8_10  and  O3_11
REMARK    5  A    between atoms: C11_16  and  O6_17
REMARK                            x       y       z     vdW  Elec       q    Type
REMARK                         _______ _______ _______ _____ _____    ______ ____
ROOT
ATOM      1  C2  UNL     1      25.739  -7.192 -34.980  0.00  0.00    +0.000 C 
ATOM      2  C3  UNL     1      26.617  -7.135 -33.785  0.00  0.00    +0.000 C 
ATOM      3  C4  UNL     1      27.537  -8.075 -33.516  0.00  0.00    +0.000 C 
ATOM      4  C5  UNL     1      27.688  -9.311 -34.383  0.00  0.00    +0.000 C 
ATOM      5  C6  UNL     1      26.872  -9.257 -35.656  0.00  0.00    +0.000 C 
ATOM      6  O2  UNL     1      26.966 -10.204 -36.484  0.00  0.00    +0.000 OA
ATOM      7  C7  UNL     1      25.891  -8.172 -35.890  0.00  0.00    +0.000 C 
ATOM      8  C9  UNL     1      29.163  -9.514 -34.629  0.00  0.00    +0.000 C 
ATOM      9  O4  UNL     1      29.605  -9.909 -35.740  0.00  0.00    +0.000 OA
ATOM     10  O5  UNL     1      30.051  -9.270 -33.580  0.00  0.00    +0.000 OA
ATOM     11  C10 UNL     1      29.563  -8.963 -32.276  0.00  0.00    +0.000 C 
ATOM     12  C11 UNL     1      28.482  -7.865 -32.344  0.00  0.00    +0.000 C 
ENDROOT
BRANCH   1  14
ATOM     13  C1  UNL     1      23.733  -5.883 -34.250  0.00  0.00    +0.000 C 
ATOM     14  O1  UNL     1      24.746  -6.220 -35.191  0.00  0.00    +0.000 OA
ENDBRANCH   1  14
BRANCH  12  15
ATOM     15  O6  UNL     1      27.746  -7.846 -31.149  0.00  0.00    +0.000 OA
ATOM     16  H12 UNL     1      27.650  -8.791 -30.859  0.00  0.00    +0.000 HD
ENDBRANCH  12  15
BRANCH   7  17
ATOM     17  C8  UNL     1      25.002  -8.224 -37.115  0.00  0.00    +0.000 C 
BRANCH  17  18
ATOM     18  O3  UNL     1      23.659  -8.334 -36.731  0.00  0.00    +0.000 OA
ATOM     19  H8  UNL     1      23.635  -8.967 -35.966  0.00  0.00    +0.000 HD
ENDBRANCH  17  18
ENDBRANCH   7  17
TORSDOF 4
ENDMDL
MODEL 9
REMARK VINA RESULT:    -3.844      3.378      5.670
REMARK INTER + INTRA:          -4.885
REMARK INTER:                  -4.573
REMARK INTRA:                  -0.312
REMARK UNBOUND:                -0.367
REMARK  Name = resultss/4CJN/ligands/lig_238_t1.pdb
REMARK  5 active torsions:
REMARK  status: ('A' for Active; 'I' for Inactive)
REMARK    1  A    between atoms: C1_1  and  O1_2
REMARK    2  A    between atoms: O1_2  and  C2_3
REMARK    3  A    between atoms: C7_9  and  C8_10
REMARK    4  A    between atoms: C8_10  and  O3_11
REMARK    5  A    between atoms: C11_16  and  O6_17
REMARK                            x       y       z     vdW  Elec       q    Type
REMARK                         _______ _______ _______ _____ _____    ______ ____
ROOT
ATOM      1  C2  UNL     1      26.090  -8.957 -39.573  0.00  0.00    +0.000 C 
ATOM      2  C3  UNL     1      25.165  -8.228 -38.671  0.00  0.00    +0.000 C 
ATOM      3  C4  UNL     1      25.218  -8.341 -37.334  0.00  0.00    +0.000 C 
ATOM      4  C5  UNL     1      26.185  -9.292 -36.653  0.00  0.00    +0.000 C 
ATOM      5  C6  UNL     1      27.193  -9.905 -37.601  0.00  0.00    +0.000 C 
ATOM      6  O2  UNL     1      28.086 -10.665 -37.137  0.00  0.00    +0.000 OA
ATOM      7  C7  UNL     1      27.080  -9.715 -39.066  0.00  0.00    +0.000 C 
ATOM      8  C9  UNL     1      26.822  -8.546 -35.507  0.00  0.00    +0.000 C 
ATOM      9  O4  UNL     1      28.037  -8.694 -35.208  0.00  0.00    +0.000 OA
ATOM     10  O5  UNL     1      26.026  -7.683 -34.751  0.00  0.00    +0.000 OA
ATOM     11  C10 UNL     1      24.620  -7.611 -34.979  0.00  0.00    +0.000 C 
ATOM     12  C11 UNL     1      24.321  -7.455 -36.484  0.00  0.00    +0.000 C 
ENDROOT
BRANCH   1  14
ATOM     13  C1  UNL     1      24.862  -9.368 -41.716  0.00  0.00    +0.000 C 
ATOM     14  O1  UNL     1      25.961  -8.857 -40.969  0.00  0.00    +0.000 OA
ENDBRANCH   1  14
BRANCH  12  15
ATOM     15  O6  UNL     1      22.977  -7.772 -36.738  0.00  0.00    +0.000 OA
ATOM     16  H12 UNL     1      22.701  -7.232 -37.524  0.00  0.00    +0.000 HD
ENDBRANCH  12  15
BRANCH   7  17
ATOM     17  C8  UNL     1      28.030 -10.449 -39.987  0.00  0.00    +0.000 C 
BRANCH  17  18
ATOM     18  O3  UNL     1      29.345 -10.332 -39.516  0.00  0.00    +0.000 OA
ATOM     19  H8  UNL     1      29.738 -11.244 -39.548  0.00  0.00    +0.000 HD
ENDBRANCH  17  18
ENDBRANCH   7  17
TORSDOF 4
ENDMDL
