MODEL 1
REMARK VINA RESULT:    -8.151      0.000      0.000
REMARK INTER + INTRA:         -14.818
REMARK INTER:                 -13.154
REMARK INTRA:                  -1.664
REMARK UNBOUND:                -1.664
REMARK  Name = resultss/4CJN/ligands/lig_351_t1.pdb
REMARK  12 active torsions:
REMARK  status: ('A' for Active; 'I' for Inactive)
REMARK    1  A    between atoms: C1_1  and  C2_2
REMARK    2  A    between atoms: C2_2  and  C3_3
REMARK    3  A    between atoms: C6_6  and  N1_7
REMARK    4  A    between atoms: C7_8  and  O1_9
REMARK    5  A    between atoms: C7_8  and  C8_10
REMARK    6  A    between atoms: C8_10  and  N2_11
REMARK    7  A    between atoms: C10_13  and  C11_14
REMARK    8  A    between atoms: C11_14  and  O2_15
REMARK    9  A    between atoms: O2_15  and  C12_16
REMARK   10  A    between atoms: C15_19  and  C16_20
REMARK   11  A    between atoms: N4_30  and  N5_31
REMARK   12  A    between atoms: N5_31  and  C24_32
REMARK                            x       y       z     vdW  Elec       q    Type
REMARK                         _______ _______ _______ _____ _____    ______ ____
ROOT
ATOM      1  C12 UNL     1      26.456  -7.831 -39.657  0.00  0.00    +0.000 A 
ATOM      2  C13 UNL     1      25.835  -8.729 -38.781  0.00  0.00    +0.000 A 
ATOM      3  C14 UNL     1      26.111  -8.693 -37.412  0.00  0.00    +0.000 A 
ATOM      4  C15 UNL     1      27.012  -7.749 -36.889  0.00  0.00    +0.000 A 
ATOM      5  C30 UNL     1      27.651  -6.860 -37.773  0.00  0.00    +0.000 A 
ATOM      6  C31 UNL     1      27.366  -6.890 -39.141  0.00  0.00    +0.000 A 
ENDROOT
BRANCH   4   7
ATOM      7  C16 UNL     1      27.337  -7.775 -35.409  0.00  0.00    +0.000 C 
ATOM      8  N3  UNL     1      26.474  -6.827 -34.699  0.00  0.00    +0.000 N 
ATOM      9  C17 UNL     1      25.246  -7.222 -34.075  0.00  0.00    +0.000 A 
ATOM     10  C18 UNL     1      24.304  -6.256 -33.696  0.00  0.00    +0.000 A 
ATOM     11  C19 UNL     1      23.103  -6.643 -33.093  0.00  0.00    +0.000 A 
ATOM     12  C20 UNL     1      22.843  -7.995 -32.857  0.00  0.00    +0.000 A 
ATOM     13  C21 UNL     1      23.781  -8.964 -33.226  0.00  0.00    +0.000 A 
ATOM     14  C22 UNL     1      24.988  -8.580 -33.836  0.00  0.00    +0.000 A 
ATOM     15  C23 UNL     1      26.007  -9.571 -34.222  0.00  0.00    +0.000 C 
ATOM     16  O3  UNL     1      25.796 -10.801 -34.033  0.00  0.00    +0.000 OA
ATOM     17  N4  UNL     1      27.231  -9.133 -34.848  0.00  0.00    +0.000 N 
ATOM     18  H17 UNL     1      26.682  -5.808 -34.806  0.00  0.00    +0.000 HD
BRANCH  17  19
ATOM     19  N5  UNL     1      28.254 -10.056 -35.144  0.00  0.00    +0.000 N 
ATOM     20  H22 UNL     1      27.999 -10.952 -35.615  0.00  0.00    +0.000 HD
BRANCH  19  21
ATOM     21  C24 UNL     1      29.649  -9.762 -34.961  0.00  0.00    +0.000 A 
ATOM     22  C25 UNL     1      30.504  -9.575 -36.062  0.00  0.00    +0.000 A 
ATOM     23  C26 UNL     1      31.862  -9.309 -35.864  0.00  0.00    +0.000 A 
ATOM     24  C27 UNL     1      32.378  -9.236 -34.566  0.00  0.00    +0.000 A 
ATOM     25  C28 UNL     1      31.538  -9.439 -33.468  0.00  0.00    +0.000 A 
ATOM     26  C29 UNL     1      30.181  -9.709 -33.664  0.00  0.00    +0.000 A 
ENDBRANCH  19  21
ENDBRANCH  17  19
ENDBRANCH   4   7
BRANCH   1  27
ATOM     27  O2  UNL     1      26.148  -7.921 -41.024  0.00  0.00    +0.000 OA
BRANCH  27  28
ATOM     28  C11 UNL     1      26.560  -8.974 -41.895  0.00  0.00    +0.000 C 
BRANCH  28  31
ATOM     29  N2  UNL     1      30.051  -9.647 -41.158  0.00  0.00    +0.000 N 
ATOM     30  C9  UNL     1      29.105  -8.802 -41.602  0.00  0.00    +0.000 A 
ATOM     31  C10 UNL     1      27.912  -9.482 -41.500  0.00  0.00    +0.000 A 
ATOM     32  N6  UNL     1      28.161 -10.712 -41.005  0.00  0.00    +0.000 NA
ATOM     33  N7  UNL     1      29.471 -10.786 -40.814  0.00  0.00    +0.000 NA
BRANCH  29  34
ATOM     34  C8  UNL     1      31.491  -9.422 -41.163  0.00  0.00    +0.000 C 
BRANCH  34  36
ATOM     35  N1  UNL     1      31.692 -10.571 -43.275  0.00  0.00    +0.000 NA
ATOM     36  C7  UNL     1      32.151 -10.416 -42.065  0.00  0.00    +0.000 C 
BRANCH  35  40
ATOM     37  C3  UNL     1      33.421 -13.073 -46.238  0.00  0.00    +0.000 A 
ATOM     38  C4  UNL     1      33.754 -11.711 -46.163  0.00  0.00    +0.000 A 
ATOM     39  C5  UNL     1      33.165 -10.894 -45.194  0.00  0.00    +0.000 A 
ATOM     40  C6  UNL     1      32.228 -11.421 -44.297  0.00  0.00    +0.000 A 
ATOM     41  C32 UNL     1      31.930 -12.794 -44.340  0.00  0.00    +0.000 A 
ATOM     42  C33 UNL     1      32.518 -13.613 -45.308  0.00  0.00    +0.000 A 
BRANCH  37  44
ATOM     43  C1  UNL     1      33.428 -15.336 -47.288  0.00  0.00    +0.000 C 
ATOM     44  C2  UNL     1      34.087 -13.961 -47.256  0.00  0.00    +0.000 C 
ENDBRANCH  37  44
ENDBRANCH  35  40
BRANCH  36  45
ATOM     45  O1  UNL     1      33.183 -11.204 -41.551  0.00  0.00    +0.000 OA
ATOM     46  H8  UNL     1      33.843 -11.702 -42.135  0.00  0.00    +0.000 HD
ENDBRANCH  36  45
ENDBRANCH  34  36
ENDBRANCH  29  34
ENDBRANCH  28  31
ENDBRANCH  27  28
ENDBRANCH   1  27
TORSDOF 11
ENDMDL
MODEL 2
REMARK VINA RESULT:    -7.262      2.480     10.118
REMARK INTER + INTRA:         -13.384
REMARK INTER:                 -11.120
REMARK INTRA:                  -2.264
REMARK UNBOUND:                -1.664
REMARK  Name = resultss/4CJN/ligands/lig_351_t1.pdb
REMARK  12 active torsions:
REMARK  status: ('A' for Active; 'I' for Inactive)
REMARK    1  A    between atoms: C1_1  and  C2_2
REMARK    2  A    between atoms: C2_2  and  C3_3
REMARK    3  A    between atoms: C6_6  and  N1_7
REMARK    4  A    between atoms: C7_8  and  O1_9
REMARK    5  A    between atoms: C7_8  and  C8_10
REMARK    6  A    between atoms: C8_10  and  N2_11
REMARK    7  A    between atoms: C10_13  and  C11_14
REMARK    8  A    between atoms: C11_14  and  O2_15
REMARK    9  A    between atoms: O2_15  and  C12_16
REMARK   10  A    between atoms: C15_19  and  C16_20
REMARK   11  A    between atoms: N4_30  and  N5_31
REMARK   12  A    between atoms: N5_31  and  C24_32
REMARK                            x       y       z     vdW  Elec       q    Type
REMARK                         _______ _______ _______ _____ _____    ______ ____
ROOT
ATOM      1  C12 UNL     1      28.303  -9.499 -42.665  0.00  0.00    +0.000 A 
ATOM      2  C13 UNL     1      29.350  -9.252 -43.561  0.00  0.00    +0.000 A 
ATOM      3  C14 UNL     1      30.556  -9.948 -43.456  0.00  0.00    +0.000 A 
ATOM      4  C15 UNL     1      30.737 -10.916 -42.453  0.00  0.00    +0.000 A 
ATOM      5  C30 UNL     1      29.692 -11.150 -41.540  0.00  0.00    +0.000 A 
ATOM      6  C31 UNL     1      28.482 -10.460 -41.652  0.00  0.00    +0.000 A 
ENDROOT
BRANCH   4   7
ATOM      7  C16 UNL     1      32.078 -11.611 -42.327  0.00  0.00    +0.000 C 
ATOM      8  N3  UNL     1      32.045 -12.880 -43.061  0.00  0.00    +0.000 N 
ATOM      9  C17 UNL     1      32.508 -13.000 -44.411  0.00  0.00    +0.000 A 
ATOM     10  C18 UNL     1      32.169 -14.124 -45.177  0.00  0.00    +0.000 A 
ATOM     11  C19 UNL     1      32.616 -14.238 -46.496  0.00  0.00    +0.000 A 
ATOM     12  C20 UNL     1      33.412 -13.234 -47.054  0.00  0.00    +0.000 A 
ATOM     13  C21 UNL     1      33.760 -12.113 -46.295  0.00  0.00    +0.000 A 
ATOM     14  C22 UNL     1      33.310 -11.993 -44.968  0.00  0.00    +0.000 A 
ATOM     15  C23 UNL     1      33.672 -10.835 -44.133  0.00  0.00    +0.000 C 
ATOM     16  O3  UNL     1      34.380  -9.906 -44.612  0.00  0.00    +0.000 OA
ATOM     17  N4  UNL     1      33.186 -10.751 -42.777  0.00  0.00    +0.000 N 
ATOM     18  H17 UNL     1      31.508 -13.671 -42.638  0.00  0.00    +0.000 HD
BRANCH  17  19
ATOM     19  N5  UNL     1      33.592  -9.696 -41.934  0.00  0.00    +0.000 N 
ATOM     20  H22 UNL     1      33.957  -8.821 -42.369  0.00  0.00    +0.000 HD
BRANCH  19  21
ATOM     21  C24 UNL     1      33.393  -9.712 -40.511  0.00  0.00    +0.000 A 
ATOM     22  C25 UNL     1      32.307  -9.042 -39.920  0.00  0.00    +0.000 A 
ATOM     23  C26 UNL     1      32.142  -9.054 -38.532  0.00  0.00    +0.000 A 
ATOM     24  C27 UNL     1      33.064  -9.725 -37.723  0.00  0.00    +0.000 A 
ATOM     25  C28 UNL     1      34.156 -10.377 -38.302  0.00  0.00    +0.000 A 
ATOM     26  C29 UNL     1      34.325 -10.365 -39.689  0.00  0.00    +0.000 A 
ENDBRANCH  19  21
ENDBRANCH  17  19
ENDBRANCH   4   7
BRANCH   1  27
ATOM     27  O2  UNL     1      27.118  -8.761 -42.812  0.00  0.00    +0.000 OA
BRANCH  27  28
ATOM     28  C11 UNL     1      25.812  -9.216 -42.457  0.00  0.00    +0.000 C 
BRANCH  28  31
ATOM     29  N2  UNL     1      24.917  -8.316 -39.056  0.00  0.00    +0.000 N 
ATOM     30  C9  UNL     1      25.420  -9.214 -39.921  0.00  0.00    +0.000 A 
ATOM     31  C10 UNL     1      25.381  -8.611 -41.157  0.00  0.00    +0.000 A 
ATOM     32  N6  UNL     1      24.857  -7.375 -41.016  0.00  0.00    +0.000 NA
ATOM     33  N7  UNL     1      24.578  -7.227 -39.729  0.00  0.00    +0.000 NA
BRANCH  29  34
ATOM     34  C8  UNL     1      24.658  -8.524 -37.636  0.00  0.00    +0.000 C 
BRANCH  34  36
ATOM     35  N1  UNL     1      26.438  -9.502 -36.334  0.00  0.00    +0.000 NA
ATOM     36  C7  UNL     1      25.940  -8.424 -36.873  0.00  0.00    +0.000 C 
BRANCH  35  40
ATOM     37  C3  UNL     1      30.155  -9.698 -34.290  0.00  0.00    +0.000 A 
ATOM     38  C4  UNL     1      30.104  -9.705 -35.693  0.00  0.00    +0.000 A 
ATOM     39  C5  UNL     1      28.873  -9.657 -36.354  0.00  0.00    +0.000 A 
ATOM     40  C6  UNL     1      27.679  -9.615 -35.625  0.00  0.00    +0.000 A 
ATOM     41  C32 UNL     1      27.730  -9.560 -34.222  0.00  0.00    +0.000 A 
ATOM     42  C33 UNL     1      28.959  -9.607 -33.558  0.00  0.00    +0.000 A 
BRANCH  37  44
ATOM     43  C1  UNL     1      31.334 -10.254 -32.163  0.00  0.00    +0.000 C 
ATOM     44  C2  UNL     1      31.482  -9.708 -33.579  0.00  0.00    +0.000 C 
ENDBRANCH  37  44
ENDBRANCH  35  40
BRANCH  36  45
ATOM     45  O1  UNL     1      26.514  -7.164 -36.691  0.00  0.00    +0.000 OA
ATOM     46  H8  UNL     1      25.981  -6.347 -36.425  0.00  0.00    +0.000 HD
ENDBRANCH  36  45
ENDBRANCH  34  36
ENDBRANCH  29  34
ENDBRANCH  28  31
ENDBRANCH  27  28
ENDBRANCH   1  27
TORSDOF 11
ENDMDL
MODEL 3
REMARK VINA RESULT:    -6.946      2.780      6.475
REMARK INTER + INTRA:         -12.874
REMARK INTER:                 -10.260
REMARK INTRA:                  -2.614
REMARK UNBOUND:                -1.664
REMARK  Name = resultss/4CJN/ligands/lig_351_t1.pdb
REMARK  12 active torsions:
REMARK  status: ('A' for Active; 'I' for Inactive)
REMARK    1  A    between atoms: C1_1  and  C2_2
REMARK    2  A    between atoms: C2_2  and  C3_3
REMARK    3  A    between atoms: C6_6  and  N1_7
REMARK    4  A    between atoms: C7_8  and  O1_9
REMARK    5  A    between atoms: C7_8  and  C8_10
REMARK    6  A    between atoms: C8_10  and  N2_11
REMARK    7  A    between atoms: C10_13  and  C11_14
REMARK    8  A    between atoms: C11_14  and  O2_15
REMARK    9  A    between atoms: O2_15  and  C12_16
REMARK   10  A    between atoms: C15_19  and  C16_20
REMARK   11  A    between atoms: N4_30  and  N5_31
REMARK   12  A    between atoms: N5_31  and  C24_32
REMARK                            x       y       z     vdW  Elec       q    Type
REMARK                         _______ _______ _______ _____ _____    ______ ____
ROOT
ATOM      1  C12 UNL     1      27.025  -7.028 -33.264  0.00  0.00    +0.000 A 
ATOM      2  C13 UNL     1      27.818  -7.935 -32.552  0.00  0.00    +0.000 A 
ATOM      3  C14 UNL     1      29.181  -8.060 -32.830  0.00  0.00    +0.000 A 
ATOM      4  C15 UNL     1      29.783  -7.270 -33.824  0.00  0.00    +0.000 A 
ATOM      5  C30 UNL     1      28.981  -6.372 -34.554  0.00  0.00    +0.000 A 
ATOM      6  C31 UNL     1      27.620  -6.241 -34.268  0.00  0.00    +0.000 A 
ENDROOT
BRANCH   4   7
ATOM      7  C16 UNL     1      31.251  -7.471 -34.143  0.00  0.00    +0.000 C 
ATOM      8  N3  UNL     1      32.069  -6.688 -33.212  0.00  0.00    +0.000 N 
ATOM      9  C17 UNL     1      32.617  -7.248 -32.013  0.00  0.00    +0.000 A 
ATOM     10  C18 UNL     1      33.109  -6.408 -31.004  0.00  0.00    +0.000 A 
ATOM     11  C19 UNL     1      33.639  -6.954 -29.831  0.00  0.00    +0.000 A 
ATOM     12  C20 UNL     1      33.689  -8.340 -29.665  0.00  0.00    +0.000 A 
ATOM     13  C21 UNL     1      33.207  -9.184 -30.670  0.00  0.00    +0.000 A 
ATOM     14  C22 UNL     1      32.670  -8.639 -31.850  0.00  0.00    +0.000 A 
ATOM     15  C23 UNL     1      32.169  -9.497 -32.938  0.00  0.00    +0.000 C 
ATOM     16  O3  UNL     1      32.190 -10.753 -32.813  0.00  0.00    +0.000 OA
ATOM     17  N4  UNL     1      31.624  -8.896 -34.131  0.00  0.00    +0.000 N 
ATOM     18  H17 UNL     1      32.101  -5.652 -33.349  0.00  0.00    +0.000 HD
BRANCH  17  19
ATOM     19  N5  UNL     1      31.222  -9.697 -35.218  0.00  0.00    +0.000 N 
ATOM     20  H22 UNL     1      30.435 -10.369 -35.080  0.00  0.00    +0.000 HD
BRANCH  19  21
ATOM     21  C24 UNL     1      31.745  -9.533 -36.546  0.00  0.00    +0.000 A 
ATOM     22  C25 UNL     1      30.918  -9.666 -37.676  0.00  0.00    +0.000 A 
ATOM     23  C26 UNL     1      31.450  -9.521 -38.961  0.00  0.00    +0.000 A 
ATOM     24  C27 UNL     1      32.812  -9.253 -39.128  0.00  0.00    +0.000 A 
ATOM     25  C28 UNL     1      33.643  -9.139 -38.011  0.00  0.00    +0.000 A 
ATOM     26  C29 UNL     1      33.115  -9.286 -36.725  0.00  0.00    +0.000 A 
ENDBRANCH  19  21
ENDBRANCH  17  19
ENDBRANCH   4   7
BRANCH   1  27
ATOM     27  O2  UNL     1      25.659  -6.954 -32.949  0.00  0.00    +0.000 OA
BRANCH  27  28
ATOM     28  C11 UNL     1      24.647  -7.823 -33.457  0.00  0.00    +0.000 C 
BRANCH  28  31
ATOM     29  N2  UNL     1      25.274  -8.645 -36.937  0.00  0.00    +0.000 N 
ATOM     30  C9  UNL     1      24.741  -7.817 -36.022  0.00  0.00    +0.000 A 
ATOM     31  C10 UNL     1      25.043  -8.365 -34.796  0.00  0.00    +0.000 A 
ATOM     32  N6  UNL     1      25.742  -9.502 -34.993  0.00  0.00    +0.000 NA
ATOM     33  N7  UNL     1      25.860  -9.651 -36.306  0.00  0.00    +0.000 NA
BRANCH  29  34
ATOM     34  C8  UNL     1      25.137  -8.547 -38.385  0.00  0.00    +0.000 C 
BRANCH  34  36
ATOM     35  N1  UNL     1      26.510  -9.423 -40.165  0.00  0.00    +0.000 NA
ATOM     36  C7  UNL     1      26.465  -8.780 -39.032  0.00  0.00    +0.000 C 
BRANCH  35  40
ATOM     37  C3  UNL     1      29.885 -10.327 -42.578  0.00  0.00    +0.000 A 
ATOM     38  C4  UNL     1      29.519 -11.163 -41.511  0.00  0.00    +0.000 A 
ATOM     39  C5  UNL     1      28.416 -10.845 -40.714  0.00  0.00    +0.000 A 
ATOM     40  C6  UNL     1      27.673  -9.685 -40.961  0.00  0.00    +0.000 A 
ATOM     41  C32 UNL     1      28.009  -8.873 -42.058  0.00  0.00    +0.000 A 
ATOM     42  C33 UNL     1      29.112  -9.188 -42.857  0.00  0.00    +0.000 A 
BRANCH  37  44
ATOM     43  C1  UNL     1      31.432 -12.155 -43.275  0.00  0.00    +0.000 C 
ATOM     44  C2  UNL     1      31.048 -10.691 -43.462  0.00  0.00    +0.000 C 
ENDBRANCH  37  44
ENDBRANCH  35  40
BRANCH  36  45
ATOM     45  O1  UNL     1      27.618  -8.373 -38.357  0.00  0.00    +0.000 OA
ATOM     46  H8  UNL     1      28.431  -7.999 -38.828  0.00  0.00    +0.000 HD
ENDBRANCH  36  45
ENDBRANCH  34  36
ENDBRANCH  29  34
ENDBRANCH  28  31
ENDBRANCH  27  28
ENDBRANCH   1  27
TORSDOF 11
ENDMDL
MODEL 4
REMARK VINA RESULT:    -6.888      2.389      9.447
REMARK INTER + INTRA:         -12.781
REMARK INTER:                  -9.868
REMARK INTRA:                  -2.913
REMARK UNBOUND:                -1.664
REMARK  Name = resultss/4CJN/ligands/lig_351_t1.pdb
REMARK  12 active torsions:
REMARK  status: ('A' for Active; 'I' for Inactive)
REMARK    1  A    between atoms: C1_1  and  C2_2
REMARK    2  A    between atoms: C2_2  and  C3_3
REMARK    3  A    between atoms: C6_6  and  N1_7
REMARK    4  A    between atoms: C7_8  and  O1_9
REMARK    5  A    between atoms: C7_8  and  C8_10
REMARK    6  A    between atoms: C8_10  and  N2_11
REMARK    7  A    between atoms: C10_13  and  C11_14
REMARK    8  A    between atoms: C11_14  and  O2_15
REMARK    9  A    between atoms: O2_15  and  C12_16
REMARK   10  A    between atoms: C15_19  and  C16_20
REMARK   11  A    between atoms: N4_30  and  N5_31
REMARK   12  A    between atoms: N5_31  and  C24_32
REMARK                            x       y       z     vdW  Elec       q    Type
REMARK                         _______ _______ _______ _____ _____    ______ ____
ROOT
ATOM      1  C12 UNL     1      31.794  -9.603 -36.420  0.00  0.00    +0.000 A 
ATOM      2  C13 UNL     1      30.719 -10.004 -37.221  0.00  0.00    +0.000 A 
ATOM      3  C14 UNL     1      30.693  -9.695 -38.583  0.00  0.00    +0.000 A 
ATOM      4  C15 UNL     1      31.750  -8.982 -39.174  0.00  0.00    +0.000 A 
ATOM      5  C30 UNL     1      32.821  -8.561 -38.364  0.00  0.00    +0.000 A 
ATOM      6  C31 UNL     1      32.851  -8.880 -37.004  0.00  0.00    +0.000 A 
ENDROOT
BRANCH   4   7
ATOM      7  C16 UNL     1      31.663  -8.609 -40.641  0.00  0.00    +0.000 C 
ATOM      8  N3  UNL     1      32.732  -9.284 -41.383  0.00  0.00    +0.000 N 
ATOM      9  C17 UNL     1      32.532 -10.533 -42.054  0.00  0.00    +0.000 A 
ATOM     10  C18 UNL     1      33.633 -11.296 -42.470  0.00  0.00    +0.000 A 
ATOM     11  C19 UNL     1      33.437 -12.519 -43.119  0.00  0.00    +0.000 A 
ATOM     12  C20 UNL     1      32.142 -12.980 -43.364  0.00  0.00    +0.000 A 
ATOM     13  C21 UNL     1      31.039 -12.223 -42.959  0.00  0.00    +0.000 A 
ATOM     14  C22 UNL     1      31.231 -10.994 -42.303  0.00  0.00    +0.000 A 
ATOM     15  C23 UNL     1      30.093 -10.161 -41.878  0.00  0.00    +0.000 C 
ATOM     16  O3  UNL     1      28.911 -10.556 -42.074  0.00  0.00    +0.000 OA
ATOM     17  N4  UNL     1      30.336  -8.908 -41.205  0.00  0.00    +0.000 N 
ATOM     18  H17 UNL     1      33.706  -8.921 -41.269  0.00  0.00    +0.000 HD
BRANCH  17  19
ATOM     19  N5  UNL     1      29.265  -8.055 -40.869  0.00  0.00    +0.000 N 
ATOM     20  H22 UNL     1      29.115  -7.812 -39.866  0.00  0.00    +0.000 HD
BRANCH  19  21
ATOM     21  C24 UNL     1      28.457  -7.389 -41.854  0.00  0.00    +0.000 A 
ATOM     22  C25 UNL     1      27.310  -6.664 -41.485  0.00  0.00    +0.000 A 
ATOM     23  C26 UNL     1      26.526  -6.039 -42.460  0.00  0.00    +0.000 A 
ATOM     24  C27 UNL     1      26.876  -6.142 -43.810  0.00  0.00    +0.000 A 
ATOM     25  C28 UNL     1      28.003  -6.877 -44.185  0.00  0.00    +0.000 A 
ATOM     26  C29 UNL     1      28.786  -7.505 -43.213  0.00  0.00    +0.000 A 
ENDBRANCH  19  21
ENDBRANCH  17  19
ENDBRANCH   4   7
BRANCH   1  27
ATOM     27  O2  UNL     1      31.761  -9.932 -35.055  0.00  0.00    +0.000 OA
BRANCH  27  28
ATOM     28  C11 UNL     1      31.643  -8.997 -33.983  0.00  0.00    +0.000 C 
BRANCH  28  31
ATOM     29  N2  UNL     1      28.097  -8.235 -33.842  0.00  0.00    +0.000 N 
ATOM     30  C9  UNL     1      29.085  -9.145 -33.831  0.00  0.00    +0.000 A 
ATOM     31  C10 UNL     1      30.258  -8.431 -33.930  0.00  0.00    +0.000 A 
ATOM     32  N6  UNL     1      29.956  -7.119 -34.003  0.00  0.00    +0.000 NA
ATOM     33  N7  UNL     1      28.634  -7.030 -33.955  0.00  0.00    +0.000 NA
BRANCH  29  34
ATOM     34  C8  UNL     1      26.664  -8.505 -33.858  0.00  0.00    +0.000 C 
BRANCH  34  36
ATOM     35  N1  UNL     1      26.407  -8.428 -36.256  0.00  0.00    +0.000 NA
ATOM     36  C7  UNL     1      26.286  -9.129 -35.163  0.00  0.00    +0.000 C 
BRANCH  35  40
ATOM     37  C3  UNL     1      25.682  -9.594 -40.274  0.00  0.00    +0.000 A 
ATOM     38  C4  UNL     1      24.771  -8.777 -39.586  0.00  0.00    +0.000 A 
ATOM     39  C5  UNL     1      25.013  -8.414 -38.259  0.00  0.00    +0.000 A 
ATOM     40  C6  UNL     1      26.158  -8.872 -37.596  0.00  0.00    +0.000 A 
ATOM     41  C32 UNL     1      27.094  -9.650 -38.298  0.00  0.00    +0.000 A 
ATOM     42  C33 UNL     1      26.855 -10.014 -39.626  0.00  0.00    +0.000 A 
BRANCH  37  44
ATOM     43  C1  UNL     1      24.367  -9.055 -42.324  0.00  0.00    +0.000 C 
ATOM     44  C2  UNL     1      25.441  -9.950 -41.717  0.00  0.00    +0.000 C 
ENDBRANCH  37  44
ENDBRANCH  35  40
BRANCH  36  45
ATOM     45  O1  UNL     1      25.735 -10.413 -35.157  0.00  0.00    +0.000 OA
ATOM     46  H8  UNL     1      26.037 -11.141 -34.523  0.00  0.00    +0.000 HD
ENDBRANCH  36  45
ENDBRANCH  34  36
ENDBRANCH  29  34
ENDBRANCH  28  31
ENDBRANCH  27  28
ENDBRANCH   1  27
TORSDOF 11
ENDMDL
MODEL 5
REMARK VINA RESULT:    -6.838      6.436     11.017
REMARK INTER + INTRA:         -12.699
REMARK INTER:                 -11.466
REMARK INTRA:                  -1.233
REMARK UNBOUND:                -1.664
REMARK  Name = resultss/4CJN/ligands/lig_351_t1.pdb
REMARK  12 active torsions:
REMARK  status: ('A' for Active; 'I' for Inactive)
REMARK    1  A    between atoms: C1_1  and  C2_2
REMARK    2  A    between atoms: C2_2  and  C3_3
REMARK    3  A    between atoms: C6_6  and  N1_7
REMARK    4  A    between atoms: C7_8  and  O1_9
REMARK    5  A    between atoms: C7_8  and  C8_10
REMARK    6  A    between atoms: C8_10  and  N2_11
REMARK    7  A    between atoms: C10_13  and  C11_14
REMARK    8  A    between atoms: C11_14  and  O2_15
REMARK    9  A    between atoms: O2_15  and  C12_16
REMARK   10  A    between atoms: C15_19  and  C16_20
REMARK   11  A    between atoms: N4_30  and  N5_31
REMARK   12  A    between atoms: N5_31  and  C24_32
REMARK                            x       y       z     vdW  Elec       q    Type
REMARK                         _______ _______ _______ _____ _____    ______ ____
ROOT
ATOM      1  C12 UNL     1      26.090  -7.114 -44.422  0.00  0.00    +0.000 A 
ATOM      2  C13 UNL     1      25.838  -7.661 -43.159  0.00  0.00    +0.000 A 
ATOM      3  C14 UNL     1      26.891  -8.058 -42.332  0.00  0.00    +0.000 A 
ATOM      4  C15 UNL     1      28.224  -7.907 -42.750  0.00  0.00    +0.000 A 
ATOM      5  C30 UNL     1      28.477  -7.376 -44.030  0.00  0.00    +0.000 A 
ATOM      6  C31 UNL     1      27.423  -6.970 -44.852  0.00  0.00    +0.000 A 
ENDROOT
BRANCH   4   7
ATOM      7  C16 UNL     1      29.343  -8.402 -41.856  0.00  0.00    +0.000 C 
ATOM      8  N3  UNL     1      29.232  -7.775 -40.536  0.00  0.00    +0.000 N 
ATOM      9  C17 UNL     1      28.556  -8.403 -39.441  0.00  0.00    +0.000 A 
ATOM     10  C18 UNL     1      28.191  -7.654 -38.313  0.00  0.00    +0.000 A 
ATOM     11  C19 UNL     1      27.526  -8.266 -37.246  0.00  0.00    +0.000 A 
ATOM     12  C20 UNL     1      27.230  -9.630 -37.298  0.00  0.00    +0.000 A 
ATOM     13  C21 UNL     1      27.596 -10.386 -38.415  0.00  0.00    +0.000 A 
ATOM     14  C22 UNL     1      28.263  -9.773 -39.492  0.00  0.00    +0.000 A 
ATOM     15  C23 UNL     1      28.679 -10.541 -40.678  0.00  0.00    +0.000 C 
ATOM     16  O3  UNL     1      28.416 -11.773 -40.759  0.00  0.00    +0.000 OA
ATOM     17  N4  UNL     1      29.359  -9.872 -41.761  0.00  0.00    +0.000 N 
ATOM     18  H17 UNL     1      29.505  -6.769 -40.452  0.00  0.00    +0.000 HD
BRANCH  17  19
ATOM     19  N5  UNL     1      29.843 -10.604 -42.864  0.00  0.00    +0.000 N 
ATOM     20  H22 UNL     1      29.276 -10.623 -43.740  0.00  0.00    +0.000 HD
BRANCH  19  21
ATOM     21  C24 UNL     1      31.148 -11.205 -42.891  0.00  0.00    +0.000 A 
ATOM     22  C25 UNL     1      31.335 -12.519 -43.357  0.00  0.00    +0.000 A 
ATOM     23  C26 UNL     1      32.610 -13.092 -43.358  0.00  0.00    +0.000 A 
ATOM     24  C27 UNL     1      33.705 -12.363 -42.884  0.00  0.00    +0.000 A 
ATOM     25  C28 UNL     1      33.524 -11.064 -42.402  0.00  0.00    +0.000 A 
ATOM     26  C29 UNL     1      32.250 -10.490 -42.398  0.00  0.00    +0.000 A 
ENDBRANCH  19  21
ENDBRANCH  17  19
ENDBRANCH   4   7
BRANCH   1  27
ATOM     27  O2  UNL     1      24.991  -6.744 -45.214  0.00  0.00    +0.000 OA
BRANCH  27  28
ATOM     28  C11 UNL     1      24.874  -6.968 -46.619  0.00  0.00    +0.000 C 
BRANCH  28  31
ATOM     29  N2  UNL     1      21.328  -6.630 -47.317  0.00  0.00    +0.000 N 
ATOM     30  C9  UNL     1      22.467  -6.104 -46.836  0.00  0.00    +0.000 A 
ATOM     31  C10 UNL     1      23.434  -7.067 -47.016  0.00  0.00    +0.000 A 
ATOM     32  N6  UNL     1      22.864  -8.145 -47.592  0.00  0.00    +0.000 NA
ATOM     33  N7  UNL     1      21.580  -7.853 -47.756  0.00  0.00    +0.000 NA
BRANCH  29  34
ATOM     34  C8  UNL     1      19.999  -6.031 -47.261  0.00  0.00    +0.000 C 
BRANCH  34  36
ATOM     35  N1  UNL     1      18.142  -5.957 -45.723  0.00  0.00    +0.000 NA
ATOM     36  C7  UNL     1      19.297  -6.483 -46.020  0.00  0.00    +0.000 C 
BRANCH  35  40
ATOM     37  C3  UNL     1      15.637  -6.840 -42.410  0.00  0.00    +0.000 A 
ATOM     38  C4  UNL     1      16.962  -6.416 -42.217  0.00  0.00    +0.000 A 
ATOM     39  C5  UNL     1      17.781  -6.145 -43.317  0.00  0.00    +0.000 A 
ATOM     40  C6  UNL     1      17.295  -6.306 -44.619  0.00  0.00    +0.000 A 
ATOM     41  C32 UNL     1      15.956  -6.683 -44.813  0.00  0.00    +0.000 A 
ATOM     42  C33 UNL     1      15.134  -6.955 -43.716  0.00  0.00    +0.000 A 
BRANCH  37  44
ATOM     43  C1  UNL     1      15.566  -7.405 -39.981  0.00  0.00    +0.000 C 
ATOM     44  C2  UNL     1      14.742  -7.092 -41.225  0.00  0.00    +0.000 C 
ENDBRANCH  37  44
ENDBRANCH  35  40
BRANCH  36  45
ATOM     45  O1  UNL     1      19.943  -7.392 -45.179  0.00  0.00    +0.000 OA
ATOM     46  H8  UNL     1      19.758  -7.454 -44.186  0.00  0.00    +0.000 HD
ENDBRANCH  36  45
ENDBRANCH  34  36
ENDBRANCH  29  34
ENDBRANCH  28  31
ENDBRANCH  27  28
ENDBRANCH   1  27
TORSDOF 11
ENDMDL
MODEL 6
REMARK VINA RESULT:    -6.788      2.457      9.696
REMARK INTER + INTRA:         -12.620
REMARK INTER:                 -10.434
REMARK INTRA:                  -2.185
REMARK UNBOUND:                -1.664
REMARK  Name = resultss/4CJN/ligands/lig_351_t1.pdb
REMARK  12 active torsions:
REMARK  status: ('A' for Active; 'I' for Inactive)
REMARK    1  A    between atoms: C1_1  and  C2_2
REMARK    2  A    between atoms: C2_2  and  C3_3
REMARK    3  A    between atoms: C6_6  and  N1_7
REMARK    4  A    between atoms: C7_8  and  O1_9
REMARK    5  A    between atoms: C7_8  and  C8_10
REMARK    6  A    between atoms: C8_10  and  N2_11
REMARK    7  A    between atoms: C10_13  and  C11_14
REMARK    8  A    between atoms: C11_14  and  O2_15
REMARK    9  A    between atoms: O2_15  and  C12_16
REMARK   10  A    between atoms: C15_19  and  C16_20
REMARK   11  A    between atoms: N4_30  and  N5_31
REMARK   12  A    between atoms: N5_31  and  C24_32
REMARK                            x       y       z     vdW  Elec       q    Type
REMARK                         _______ _______ _______ _____ _____    ______ ____
ROOT
ATOM      1  C12 UNL     1      27.000  -8.203 -43.501  0.00  0.00    +0.000 A 
ATOM      2  C13 UNL     1      28.384  -7.994 -43.522  0.00  0.00    +0.000 A 
ATOM      3  C14 UNL     1      29.238  -8.806 -42.772  0.00  0.00    +0.000 A 
ATOM      4  C15 UNL     1      28.723  -9.852 -41.988  0.00  0.00    +0.000 A 
ATOM      5  C30 UNL     1      27.330 -10.049 -41.950  0.00  0.00    +0.000 A 
ATOM      6  C31 UNL     1      26.478  -9.243 -42.709  0.00  0.00    +0.000 A 
ENDROOT
BRANCH   4   7
ATOM      7  C16 UNL     1      29.669 -10.677 -41.138  0.00  0.00    +0.000 C 
ATOM      8  N3  UNL     1      30.156 -11.821 -41.913  0.00  0.00    +0.000 N 
ATOM      9  C17 UNL     1      31.394 -11.792 -42.633  0.00  0.00    +0.000 A 
ATOM     10  C18 UNL     1      31.667 -12.762 -43.608  0.00  0.00    +0.000 A 
ATOM     11  C19 UNL     1      32.873 -12.729 -44.315  0.00  0.00    +0.000 A 
ATOM     12  C20 UNL     1      33.815 -11.734 -44.045  0.00  0.00    +0.000 A 
ATOM     13  C21 UNL     1      33.553 -10.767 -43.070  0.00  0.00    +0.000 A 
ATOM     14  C22 UNL     1      32.340 -10.794 -42.359  0.00  0.00    +0.000 A 
ATOM     15  C23 UNL     1      32.037  -9.802 -41.313  0.00  0.00    +0.000 C 
ATOM     16  O3  UNL     1      32.863  -8.883 -41.054  0.00  0.00    +0.000 OA
ATOM     17  N4  UNL     1      30.779  -9.865 -40.609  0.00  0.00    +0.000 N 
ATOM     18  H17 UNL     1      29.493 -12.612 -42.079  0.00  0.00    +0.000 HD
BRANCH  17  19
ATOM     19  N5  UNL     1      30.507  -8.981 -39.545  0.00  0.00    +0.000 N 
ATOM     20  H22 UNL     1      30.847  -7.997 -39.614  0.00  0.00    +0.000 HD
BRANCH  19  21
ATOM     21  C24 UNL     1      29.662  -9.328 -38.437  0.00  0.00    +0.000 A 
ATOM     22  C25 UNL     1      28.260  -9.284 -38.548  0.00  0.00    +0.000 A 
ATOM     23  C26 UNL     1      27.455  -9.608 -37.452  0.00  0.00    +0.000 A 
ATOM     24  C27 UNL     1      28.042  -9.967 -36.235  0.00  0.00    +0.000 A 
ATOM     25  C28 UNL     1      29.433  -9.994 -36.111  0.00  0.00    +0.000 A 
ATOM     26  C29 UNL     1      30.241  -9.669 -37.205  0.00  0.00    +0.000 A 
ENDBRANCH  19  21
ENDBRANCH  17  19
ENDBRANCH   4   7
BRANCH   1  27
ATOM     27  O2  UNL     1      26.190  -7.349 -44.266  0.00  0.00    +0.000 OA
BRANCH  27  28
ATOM     28  C11 UNL     1      24.939  -6.804 -43.848  0.00  0.00    +0.000 C 
BRANCH  28  31
ATOM     29  N2  UNL     1      24.365  -6.276 -40.303  0.00  0.00    +0.000 N 
ATOM     30  C9  UNL     1      23.907  -6.675 -41.501  0.00  0.00    +0.000 A 
ATOM     31  C10 UNL     1      24.956  -6.517 -42.379  0.00  0.00    +0.000 A 
ATOM     32  N6  UNL     1      26.013  -6.027 -41.700  0.00  0.00    +0.000 NA
ATOM     33  N7  UNL     1      25.622  -5.883 -40.441  0.00  0.00    +0.000 NA
BRANCH  29  34
ATOM     34  C8  UNL     1      23.595  -6.162 -39.070  0.00  0.00    +0.000 C 
BRANCH  34  36
ATOM     35  N1  UNL     1      24.964  -6.242 -37.085  0.00  0.00    +0.000 NA
ATOM     36  C7  UNL     1      24.287  -6.911 -37.975  0.00  0.00    +0.000 C 
BRANCH  35  40
ATOM     37  C3  UNL     1      26.955  -7.674 -33.618  0.00  0.00    +0.000 A 
ATOM     38  C4  UNL     1      27.593  -6.786 -34.499  0.00  0.00    +0.000 A 
ATOM     39  C5  UNL     1      26.933  -6.335 -35.646  0.00  0.00    +0.000 A 
ATOM     40  C6  UNL     1      25.636  -6.774 -35.935  0.00  0.00    +0.000 A 
ATOM     41  C32 UNL     1      24.978  -7.625 -35.031  0.00  0.00    +0.000 A 
ATOM     42  C33 UNL     1      25.636  -8.078 -33.883  0.00  0.00    +0.000 A 
BRANCH  37  44
ATOM     43  C1  UNL     1      29.123  -8.419 -32.634  0.00  0.00    +0.000 C 
ATOM     44  C2  UNL     1      27.651  -8.127 -32.363  0.00  0.00    +0.000 C 
ENDBRANCH  37  44
ENDBRANCH  35  40
BRANCH  36  45
ATOM     45  O1  UNL     1      24.252  -8.307 -37.994  0.00  0.00    +0.000 OA
ATOM     46  H8  UNL     1      24.186  -8.870 -37.157  0.00  0.00    +0.000 HD
ENDBRANCH  36  45
ENDBRANCH  34  36
ENDBRANCH  29  34
ENDBRANCH  28  31
ENDBRANCH  27  28
ENDBRANCH   1  27
TORSDOF 11
ENDMDL
MODEL 7
REMARK VINA RESULT:    -6.709      3.259      6.463
REMARK INTER + INTRA:         -12.491
REMARK INTER:                  -9.417
REMARK INTRA:                  -3.075
REMARK UNBOUND:                -1.664
REMARK  Name = resultss/4CJN/ligands/lig_351_t1.pdb
REMARK  12 active torsions:
REMARK  status: ('A' for Active; 'I' for Inactive)
REMARK    1  A    between atoms: C1_1  and  C2_2
REMARK    2  A    between atoms: C2_2  and  C3_3
REMARK    3  A    between atoms: C6_6  and  N1_7
REMARK    4  A    between atoms: C7_8  and  O1_9
REMARK    5  A    between atoms: C7_8  and  C8_10
REMARK    6  A    between atoms: C8_10  and  N2_11
REMARK    7  A    between atoms: C10_13  and  C11_14
REMARK    8  A    between atoms: C11_14  and  O2_15
REMARK    9  A    between atoms: O2_15  and  C12_16
REMARK   10  A    between atoms: C15_19  and  C16_20
REMARK   11  A    between atoms: N4_30  and  N5_31
REMARK   12  A    between atoms: N5_31  and  C24_32
REMARK                            x       y       z     vdW  Elec       q    Type
REMARK                         _______ _______ _______ _____ _____    ______ ____
ROOT
ATOM      1  C12 UNL     1      26.093  -7.334 -38.228  0.00  0.00    +0.000 A 
ATOM      2  C13 UNL     1      25.276  -8.390 -37.811  0.00  0.00    +0.000 A 
ATOM      3  C14 UNL     1      25.375  -8.897 -36.513  0.00  0.00    +0.000 A 
ATOM      4  C15 UNL     1      26.293  -8.349 -35.600  0.00  0.00    +0.000 A 
ATOM      5  C30 UNL     1      27.130  -7.301 -36.027  0.00  0.00    +0.000 A 
ATOM      6  C31 UNL     1      27.022  -6.788 -37.322  0.00  0.00    +0.000 A 
ENDROOT
BRANCH   4   7
ATOM      7  C16 UNL     1      26.419  -8.961 -34.219  0.00  0.00    +0.000 C 
ATOM      8  N3  UNL     1      27.629  -9.785 -34.156  0.00  0.00    +0.000 N 
ATOM      9  C17 UNL     1      28.877  -9.284 -33.661  0.00  0.00    +0.000 A 
ATOM     10  C18 UNL     1      30.067  -9.981 -33.912  0.00  0.00    +0.000 A 
ATOM     11  C19 UNL     1      31.285  -9.488 -33.435  0.00  0.00    +0.000 A 
ATOM     12  C20 UNL     1      31.318  -8.303 -32.697  0.00  0.00    +0.000 A 
ATOM     13  C21 UNL     1      30.135  -7.606 -32.436  0.00  0.00    +0.000 A 
ATOM     14  C22 UNL     1      28.908  -8.096 -32.917  0.00  0.00    +0.000 A 
ATOM     15  C23 UNL     1      27.640  -7.397 -32.647  0.00  0.00    +0.000 C 
ATOM     16  O3  UNL     1      27.638  -6.318 -31.994  0.00  0.00    +0.000 OA
ATOM     17  N4  UNL     1      26.403  -7.934 -33.162  0.00  0.00    +0.000 N 
ATOM     18  H17 UNL     1      27.613 -10.708 -34.647  0.00  0.00    +0.000 HD
BRANCH  17  19
ATOM     19  N5  UNL     1      25.171  -7.331 -32.841  0.00  0.00    +0.000 N 
ATOM     20  H22 UNL     1      25.069  -6.863 -31.914  0.00  0.00    +0.000 HD
BRANCH  19  21
ATOM     21  C24 UNL     1      24.094  -7.202 -33.785  0.00  0.00    +0.000 A 
ATOM     22  C25 UNL     1      23.955  -6.048 -34.577  0.00  0.00    +0.000 A 
ATOM     23  C26 UNL     1      22.890  -5.934 -35.475  0.00  0.00    +0.000 A 
ATOM     24  C27 UNL     1      21.951  -6.964 -35.582  0.00  0.00    +0.000 A 
ATOM     25  C28 UNL     1      22.072  -8.104 -34.784  0.00  0.00    +0.000 A 
ATOM     26  C29 UNL     1      23.134  -8.220 -33.883  0.00  0.00    +0.000 A 
ENDBRANCH  19  21
ENDBRANCH  17  19
ENDBRANCH   4   7
BRANCH   1  27
ATOM     27  O2  UNL     1      25.957  -6.874 -39.548  0.00  0.00    +0.000 OA
BRANCH  27  28
ATOM     28  C11 UNL     1      25.424  -7.629 -40.635  0.00  0.00    +0.000 C 
BRANCH  28  31
ATOM     29  N2  UNL     1      28.130  -9.906 -41.455  0.00  0.00    +0.000 N 
ATOM     30  C9  UNL     1      27.360  -9.312 -40.528  0.00  0.00    +0.000 A 
ATOM     31  C10 UNL     1      26.477  -8.516 -41.224  0.00  0.00    +0.000 A 
ATOM     32  N6  UNL     1      26.733  -8.642 -42.542  0.00  0.00    +0.000 NA
ATOM     33  N7  UNL     1      27.748  -9.488 -42.652  0.00  0.00    +0.000 NA
BRANCH  29  34
ATOM     34  C8  UNL     1      29.280 -10.768 -41.210  0.00  0.00    +0.000 C 
BRANCH  34  36
ATOM     35  N1  UNL     1      30.216  -9.909 -39.159  0.00  0.00    +0.000 NA
ATOM     36  C7  UNL     1      30.324 -10.009 -40.454  0.00  0.00    +0.000 C 
BRANCH  35  40
ATOM     37  C3  UNL     1      32.849  -8.040 -36.400  0.00  0.00    +0.000 A 
ATOM     38  C4  UNL     1      31.755  -7.342 -36.937  0.00  0.00    +0.000 A 
ATOM     39  C5  UNL     1      30.906  -7.963 -37.857  0.00  0.00    +0.000 A 
ATOM     40  C6  UNL     1      31.144  -9.281 -38.264  0.00  0.00    +0.000 A 
ATOM     41  C32 UNL     1      32.210  -9.997 -37.692  0.00  0.00    +0.000 A 
ATOM     42  C33 UNL     1      33.061  -9.378 -36.771  0.00  0.00    +0.000 A 
BRANCH  37  44
ATOM     43  C1  UNL     1      33.125  -6.079 -34.884  0.00  0.00    +0.000 C 
ATOM     44  C2  UNL     1      33.739  -7.384 -35.379  0.00  0.00    +0.000 C 
ENDBRANCH  37  44
ENDBRANCH  35  40
BRANCH  36  45
ATOM     45  O1  UNL     1      31.333  -9.363 -41.172  0.00  0.00    +0.000 OA
ATOM     46  H8  UNL     1      31.208  -8.460 -41.610  0.00  0.00    +0.000 HD
ENDBRANCH  36  45
ENDBRANCH  34  36
ENDBRANCH  29  34
ENDBRANCH  28  31
ENDBRANCH  27  28
ENDBRANCH   1  27
TORSDOF 11
ENDMDL
MODEL 8
REMARK VINA RESULT:    -6.587      2.610      5.585
REMARK INTER + INTRA:         -12.294
REMARK INTER:                  -9.133
REMARK INTRA:                  -3.161
REMARK UNBOUND:                -1.664
REMARK  Name = resultss/4CJN/ligands/lig_351_t1.pdb
REMARK  12 active torsions:
REMARK  status: ('A' for Active; 'I' for Inactive)
REMARK    1  A    between atoms: C1_1  and  C2_2
REMARK    2  A    between atoms: C2_2  and  C3_3
REMARK    3  A    between atoms: C6_6  and  N1_7
REMARK    4  A    between atoms: C7_8  and  O1_9
REMARK    5  A    between atoms: C7_8  and  C8_10
REMARK    6  A    between atoms: C8_10  and  N2_11
REMARK    7  A    between atoms: C10_13  and  C11_14
REMARK    8  A    between atoms: C11_14  and  O2_15
REMARK    9  A    between atoms: O2_15  and  C12_16
REMARK   10  A    between atoms: C15_19  and  C16_20
REMARK   11  A    between atoms: N4_30  and  N5_31
REMARK   12  A    between atoms: N5_31  and  C24_32
REMARK                            x       y       z     vdW  Elec       q    Type
REMARK                         _______ _______ _______ _____ _____    ______ ____
ROOT
ATOM      1  C12 UNL     1      25.062  -6.823 -38.044  0.00  0.00    +0.000 A 
ATOM      2  C13 UNL     1      24.385  -7.913 -37.485  0.00  0.00    +0.000 A 
ATOM      3  C14 UNL     1      25.078  -8.885 -36.760  0.00  0.00    +0.000 A 
ATOM      4  C15 UNL     1      26.467  -8.782 -36.573  0.00  0.00    +0.000 A 
ATOM      5  C30 UNL     1      27.151  -7.698 -37.153  0.00  0.00    +0.000 A 
ATOM      6  C31 UNL     1      26.455  -6.720 -37.869  0.00  0.00    +0.000 A 
ENDROOT
BRANCH   4   7
ATOM      7  C16 UNL     1      27.199  -9.885 -35.834  0.00  0.00    +0.000 C 
ATOM      8  N3  UNL     1      28.346 -10.332 -36.629  0.00  0.00    +0.000 N 
ATOM      9  C17 UNL     1      29.666  -9.811 -36.436  0.00  0.00    +0.000 A 
ATOM     10  C18 UNL     1      30.655 -10.015 -37.409  0.00  0.00    +0.000 A 
ATOM     11  C19 UNL     1      31.941  -9.501 -37.223  0.00  0.00    +0.000 A 
ATOM     12  C20 UNL     1      32.249  -8.789 -36.061  0.00  0.00    +0.000 A 
ATOM     13  C21 UNL     1      31.271  -8.587 -35.083  0.00  0.00    +0.000 A 
ATOM     14  C22 UNL     1      29.974  -9.100 -35.267  0.00  0.00    +0.000 A 
ATOM     15  C23 UNL     1      28.923  -8.922 -34.251  0.00  0.00    +0.000 C 
ATOM     16  O3  UNL     1      29.166  -8.274 -33.196  0.00  0.00    +0.000 OA
ATOM     17  N4  UNL     1      27.605  -9.462 -34.482  0.00  0.00    +0.000 N 
ATOM     18  H17 UNL     1      28.152 -10.920 -37.472  0.00  0.00    +0.000 HD
BRANCH  17  19
ATOM     19  N5  UNL     1      26.611  -9.380 -33.486  0.00  0.00    +0.000 N 
ATOM     20  H22 UNL     1      26.695  -9.992 -32.644  0.00  0.00    +0.000 HD
BRANCH  19  21
ATOM     21  C24 UNL     1      25.567  -8.393 -33.503  0.00  0.00    +0.000 A 
ATOM     22  C25 UNL     1      25.862  -7.023 -33.620  0.00  0.00    +0.000 A 
ATOM     23  C26 UNL     1      24.833  -6.077 -33.615  0.00  0.00    +0.000 A 
ATOM     24  C27 UNL     1      23.503  -6.490 -33.483  0.00  0.00    +0.000 A 
ATOM     25  C28 UNL     1      23.204  -7.848 -33.347  0.00  0.00    +0.000 A 
ATOM     26  C29 UNL     1      24.232  -8.796 -33.348  0.00  0.00    +0.000 A 
ENDBRANCH  19  21
ENDBRANCH  17  19
ENDBRANCH   4   7
BRANCH   1  27
ATOM     27  O2  UNL     1      24.316  -5.883 -38.772  0.00  0.00    +0.000 OA
BRANCH  27  28
ATOM     28  C11 UNL     1      23.411  -6.190 -39.833  0.00  0.00    +0.000 C 
BRANCH  28  31
ATOM     29  N2  UNL     1      25.130  -8.113 -42.387  0.00  0.00    +0.000 N 
ATOM     30  C9  UNL     1      24.438  -8.078 -41.235  0.00  0.00    +0.000 A 
ATOM     31  C10 UNL     1      24.150  -6.751 -41.008  0.00  0.00    +0.000 A 
ATOM     32  N6  UNL     1      24.672  -6.020 -42.013  0.00  0.00    +0.000 NA
ATOM     33  N7  UNL     1      25.269  -6.874 -42.833  0.00  0.00    +0.000 NA
BRANCH  29  34
ATOM     34  C8  UNL     1      25.747  -9.284 -42.998  0.00  0.00    +0.000 C 
BRANCH  34  36
ATOM     35  N1  UNL     1      27.938  -9.958 -42.246  0.00  0.00    +0.000 NA
ATOM     36  C7  UNL     1      27.235  -9.138 -42.975  0.00  0.00    +0.000 C 
BRANCH  35  40
ATOM     37  C3  UNL     1      32.156 -10.198 -41.815  0.00  0.00    +0.000 A 
ATOM     38  C4  UNL     1      31.386  -9.417 -40.939  0.00  0.00    +0.000 A 
ATOM     39  C5  UNL     1      30.001  -9.333 -41.101  0.00  0.00    +0.000 A 
ATOM     40  C6  UNL     1      29.367 -10.015 -42.147  0.00  0.00    +0.000 A 
ATOM     41  C32 UNL     1      30.130 -10.835 -42.996  0.00  0.00    +0.000 A 
ATOM     42  C33 UNL     1      31.516 -10.921 -42.835  0.00  0.00    +0.000 A 
BRANCH  37  44
ATOM     43  C1  UNL     1      34.053  -9.765 -40.255  0.00  0.00    +0.000 C 
ATOM     44  C2  UNL     1      33.643 -10.321 -41.614  0.00  0.00    +0.000 C 
ENDBRANCH  37  44
ENDBRANCH  35  40
BRANCH  36  45
ATOM     45  O1  UNL     1      27.813  -8.073 -43.669  0.00  0.00    +0.000 OA
ATOM     46  H8  UNL     1      27.352  -7.182 -43.800  0.00  0.00    +0.000 HD
ENDBRANCH  36  45
ENDBRANCH  34  36
ENDBRANCH  29  34
ENDBRANCH  28  31
ENDBRANCH  27  28
ENDBRANCH   1  27
TORSDOF 11
ENDMDL
MODEL 9
REMARK VINA RESULT:    -6.337      3.011      6.397
REMARK INTER + INTRA:         -11.892
REMARK INTER:                  -8.605
REMARK INTRA:                  -3.287
REMARK UNBOUND:                -1.664
REMARK  Name = resultss/4CJN/ligands/lig_351_t1.pdb
REMARK  12 active torsions:
REMARK  status: ('A' for Active; 'I' for Inactive)
REMARK    1  A    between atoms: C1_1  and  C2_2
REMARK    2  A    between atoms: C2_2  and  C3_3
REMARK    3  A    between atoms: C6_6  and  N1_7
REMARK    4  A    between atoms: C7_8  and  O1_9
REMARK    5  A    between atoms: C7_8  and  C8_10
REMARK    6  A    between atoms: C8_10  and  N2_11
REMARK    7  A    between atoms: C10_13  and  C11_14
REMARK    8  A    between atoms: C11_14  and  O2_15
REMARK    9  A    between atoms: O2_15  and  C12_16
REMARK   10  A    between atoms: C15_19  and  C16_20
REMARK   11  A    between atoms: N4_30  and  N5_31
REMARK   12  A    between atoms: N5_31  and  C24_32
REMARK                            x       y       z     vdW  Elec       q    Type
REMARK                         _______ _______ _______ _____ _____    ______ ____
ROOT
ATOM      1  C12 UNL     1      27.801  -8.943 -35.737  0.00  0.00    +0.000 A 
ATOM      2  C13 UNL     1      27.913  -7.613 -35.317  0.00  0.00    +0.000 A 
ATOM      3  C14 UNL     1      29.141  -7.102 -34.889  0.00  0.00    +0.000 A 
ATOM      4  C15 UNL     1      30.288  -7.914 -34.880  0.00  0.00    +0.000 A 
ATOM      5  C30 UNL     1      30.171  -9.258 -35.283  0.00  0.00    +0.000 A 
ATOM      6  C31 UNL     1      28.944  -9.764 -35.720  0.00  0.00    +0.000 A 
ENDROOT
BRANCH   4   7
ATOM      7  C16 UNL     1      31.592  -7.349 -34.353  0.00  0.00    +0.000 C 
ATOM      8  N3  UNL     1      31.816  -7.825 -32.985  0.00  0.00    +0.000 N 
ATOM      9  C17 UNL     1      32.609  -8.982 -32.693  0.00  0.00    +0.000 A 
ATOM     10  C18 UNL     1      32.537  -9.586 -31.430  0.00  0.00    +0.000 A 
ATOM     11  C19 UNL     1      33.306 -10.719 -31.148  0.00  0.00    +0.000 A 
ATOM     12  C20 UNL     1      34.158 -11.246 -32.122  0.00  0.00    +0.000 A 
ATOM     13  C21 UNL     1      34.241 -10.645 -33.381  0.00  0.00    +0.000 A 
ATOM     14  C22 UNL     1      33.466  -9.507 -33.670  0.00  0.00    +0.000 A 
ATOM     15  C23 UNL     1      33.541  -8.837 -34.980  0.00  0.00    +0.000 C 
ATOM     16  O3  UNL     1      34.291  -9.296 -35.884  0.00  0.00    +0.000 OA
ATOM     17  N4  UNL     1      32.726  -7.674 -35.235  0.00  0.00    +0.000 N 
ATOM     18  H17 UNL     1      31.236  -7.403 -32.224  0.00  0.00    +0.000 HD
BRANCH  17  19
ATOM     19  N5  UNL     1      32.847  -6.966 -36.448  0.00  0.00    +0.000 N 
ATOM     20  H22 UNL     1      33.674  -6.343 -36.584  0.00  0.00    +0.000 HD
BRANCH  19  21
ATOM     21  C24 UNL     1      31.965  -7.170 -37.564  0.00  0.00    +0.000 A 
ATOM     22  C25 UNL     1      32.020  -8.348 -38.330  0.00  0.00    +0.000 A 
ATOM     23  C26 UNL     1      31.166  -8.520 -39.423  0.00  0.00    +0.000 A 
ATOM     24  C27 UNL     1      30.258  -7.513 -39.767  0.00  0.00    +0.000 A 
ATOM     25  C28 UNL     1      30.211  -6.332 -39.022  0.00  0.00    +0.000 A 
ATOM     26  C29 UNL     1      31.066  -6.157 -37.930  0.00  0.00    +0.000 A 
ENDBRANCH  19  21
ENDBRANCH  17  19
ENDBRANCH   4   7
BRANCH   1  27
ATOM     27  O2  UNL     1      26.539  -9.404 -36.146  0.00  0.00    +0.000 OA
BRANCH  27  28
ATOM     28  C11 UNL     1      25.331  -8.645 -36.108  0.00  0.00    +0.000 C 
BRANCH  28  31
ATOM     29  N2  UNL     1      24.603  -7.878 -39.580  0.00  0.00    +0.000 N 
ATOM     30  C9  UNL     1      24.819  -8.791 -38.619  0.00  0.00    +0.000 A 
ATOM     31  C10 UNL     1      25.025  -8.078 -37.460  0.00  0.00    +0.000 A 
ATOM     32  N6  UNL     1      24.935  -6.762 -37.743  0.00  0.00    +0.000 NA
ATOM     33  N7  UNL     1      24.685  -6.671 -39.042  0.00  0.00    +0.000 NA
BRANCH  29  34
ATOM     34  C8  UNL     1      24.433  -8.136 -41.006  0.00  0.00    +0.000 C 
BRANCH  34  36
ATOM     35  N1  UNL     1      26.736  -8.588 -41.563  0.00  0.00    +0.000 NA
ATOM     36  C7  UNL     1      25.519  -9.046 -41.483  0.00  0.00    +0.000 C 
BRANCH  35  40
ATOM     37  C3  UNL     1      30.301 -10.634 -42.630  0.00  0.00    +0.000 A 
ATOM     38  C4  UNL     1      29.853  -9.532 -43.376  0.00  0.00    +0.000 A 
ATOM     39  C5  UNL     1      28.669  -8.877 -43.024  0.00  0.00    +0.000 A 
ATOM     40  C6  UNL     1      27.911  -9.321 -41.935  0.00  0.00    +0.000 A 
ATOM     41  C32 UNL     1      28.382 -10.394 -41.159  0.00  0.00    +0.000 A 
ATOM     42  C33 UNL     1      29.566 -11.050 -41.508  0.00  0.00    +0.000 A 
BRANCH  37  44
ATOM     43  C1  UNL     1      31.402 -12.819 -43.115  0.00  0.00    +0.000 C 
ATOM     44  C2  UNL     1      31.597 -11.313 -42.984  0.00  0.00    +0.000 C 
ENDBRANCH  37  44
ENDBRANCH  35  40
BRANCH  36  45
ATOM     45  O1  UNL     1      25.176 -10.332 -41.908  0.00  0.00    +0.000 OA
ATOM     46  H8  UNL     1      25.851 -11.078 -42.012  0.00  0.00    +0.000 HD
ENDBRANCH  36  45
ENDBRANCH  34  36
ENDBRANCH  29  34
ENDBRANCH  28  31
ENDBRANCH  27  28
ENDBRANCH   1  27
TORSDOF 11
ENDMDL
