MODEL 1
REMARK VINA RESULT:    -6.560      0.000      0.000
REMARK INTER + INTRA:         -11.846
REMARK INTER:                 -10.203
REMARK INTRA:                  -1.643
REMARK UNBOUND:                -1.643
REMARK  Name = resultss/4CJN/ligands/lig_310_t1.pdb
REMARK  15 active torsions:
REMARK  status: ('A' for Active; 'I' for Inactive)
REMARK    1  A    between atoms: C1_1  and  O1_2
REMARK    2  A    between atoms: O1_2  and  C2_3
REMARK    3  A    between atoms: C4_5  and  O2_6
REMARK    4  A    between atoms: C9_13  and  O5_14
REMARK    5  A    between atoms: O5_14  and  C10_15
REMARK    6  A    between atoms: C11_17  and  C12_18
REMARK    7  A    between atoms: C12_18  and  O7_19
REMARK    8  A    between atoms: C13_20  and  O8_21
REMARK    9  A    between atoms: C14_22  and  O9_23
REMARK   10  A    between atoms: C15_24  and  O10_25
REMARK   11  A    between atoms: O10_25  and  C16_26
REMARK   12  A    between atoms: C17_28  and  C18_29
REMARK   13  A    between atoms: C19_30  and  O12_31
REMARK   14  A    between atoms: C20_32  and  O13_33
REMARK   15  A    between atoms: C21_34  and  O14_35
REMARK                            x       y       z     vdW  Elec       q    Type
REMARK                         _______ _______ _______ _____ _____    ______ ____
ROOT
ATOM      1  C10 UNL     1      27.757  -8.446 -39.536  0.00  0.00    +0.000 C 
ATOM      2  O6  UNL     1      29.031  -8.980 -39.864  0.00  0.00    +0.000 OA
ATOM      3  C11 UNL     1      29.850  -9.026 -38.707  0.00  0.00    +0.000 C 
ATOM      4  C13 UNL     1      29.332 -10.101 -37.706  0.00  0.00    +0.000 C 
ATOM      5  C14 UNL     1      27.882 -10.517 -38.038  0.00  0.00    +0.000 C 
ATOM      6  C15 UNL     1      27.034  -9.296 -38.439  0.00  0.00    +0.000 C 
ENDROOT
BRANCH   4   7
ATOM      7  O8  UNL     1      29.377  -9.597 -36.394  0.00  0.00    +0.000 OA
ATOM      8  H13 UNL     1      29.908 -10.243 -35.856  0.00  0.00    +0.000 HD
ENDBRANCH   4   7
BRANCH   5   9
ATOM      9  O9  UNL     1      27.879 -11.445 -39.096  0.00  0.00    +0.000 OA
ATOM     10  H15 UNL     1      27.618 -12.323 -38.708  0.00  0.00    +0.000 HD
ENDBRANCH   5   9
BRANCH   1  11
ATOM     11  O5  UNL     1      26.947  -8.460 -40.701  0.00  0.00    +0.000 OA
BRANCH  11  21
ATOM     12  C2  UNL     1      22.170  -7.150 -47.216  0.00  0.00    +0.000 A 
ATOM     13  C3  UNL     1      21.241  -6.887 -46.194  0.00  0.00    +0.000 A 
ATOM     14  C4  UNL     1      21.657  -6.762 -44.859  0.00  0.00    +0.000 A 
ATOM     15  C5  UNL     1      23.027  -6.904 -44.533  0.00  0.00    +0.000 A 
ATOM     16  C6  UNL     1      23.522  -6.792 -43.216  0.00  0.00    +0.000 A 
ATOM     17  O3  UNL     1      22.737  -6.563 -42.255  0.00  0.00    +0.000 OA
ATOM     18  C7  UNL     1      24.903  -6.945 -42.978  0.00  0.00    +0.000 A 
ATOM     19  C8  UNL     1      25.507  -6.831 -41.625  0.00  0.00    +0.000 C 
ATOM     20  O4  UNL     1      24.816  -6.444 -40.644  0.00  0.00    +0.000 OA
ATOM     21  C9  UNL     1      26.946  -7.217 -41.383  0.00  0.00    +0.000 C 
ATOM     22  C22 UNL     1      27.748  -7.333 -42.661  0.00  0.00    +0.000 C 
ATOM     23  C23 UNL     1      27.192  -7.368 -43.874  0.00  0.00    +0.000 C 
ATOM     24  C24 UNL     1      25.743  -7.211 -44.069  0.00  0.00    +0.000 A 
ATOM     25  O15 UNL     1      25.248  -7.308 -45.296  0.00  0.00    +0.000 OA
ATOM     26  C25 UNL     1      23.955  -7.169 -45.568  0.00  0.00    +0.000 A 
ATOM     27  C26 UNL     1      23.521  -7.288 -46.891  0.00  0.00    +0.000 A 
BRANCH  12  29
ATOM     28  C1  UNL     1      21.218  -6.236 -49.341  0.00  0.00    +0.000 C 
ATOM     29  O1  UNL     1      21.793  -7.281 -48.562  0.00  0.00    +0.000 OA
ENDBRANCH  12  29
BRANCH  14  30
ATOM     30  O2  UNL     1      20.708  -6.496 -43.871  0.00  0.00    +0.000 OA
ATOM     31  H5  UNL     1      20.706  -6.989 -42.985  0.00  0.00    +0.000 HD
ENDBRANCH  14  30
ENDBRANCH  11  21
ENDBRANCH   1  11
BRANCH   3  32
ATOM     32  C12 UNL     1      31.295  -9.323 -39.131  0.00  0.00    +0.000 C 
BRANCH  32  33
ATOM     33  O7  UNL     1      31.805 -10.414 -38.407  0.00  0.00    +0.000 OA
ATOM     34  H11 UNL     1      31.161 -11.160 -38.523  0.00  0.00    +0.000 HD
ENDBRANCH  32  33
ENDBRANCH   3  32
BRANCH   6  35
ATOM     35  O10 UNL     1      26.781  -8.519 -37.279  0.00  0.00    +0.000 OA
BRANCH  35  36
ATOM     36  C16 UNL     1      25.839  -9.135 -36.411  0.00  0.00    +0.000 C 
ATOM     37  O11 UNL     1      24.577  -8.498 -36.571  0.00  0.00    +0.000 OA
ATOM     38  C17 UNL     1      24.490  -7.314 -35.804  0.00  0.00    +0.000 C 
ATOM     39  C18 UNL     1      23.295  -6.497 -36.293  0.00  0.00    +0.000 C 
ATOM     40  C19 UNL     1      24.347  -7.671 -34.306  0.00  0.00    +0.000 C 
ATOM     41  C20 UNL     1      25.230  -8.897 -33.937  0.00  0.00    +0.000 C 
ATOM     42  C21 UNL     1      26.377  -9.093 -34.953  0.00  0.00    +0.000 C 
BRANCH  40  43
ATOM     43  O12 UNL     1      24.721  -6.556 -33.536  0.00  0.00    +0.000 OA
ATOM     44  H23 UNL     1      25.687  -6.662 -33.330  0.00  0.00    +0.000 HD
ENDBRANCH  40  43
BRANCH  41  45
ATOM     45  O13 UNL     1      24.456 -10.068 -33.821  0.00  0.00    +0.000 OA
ATOM     46  H25 UNL     1      23.629  -9.845 -33.318  0.00  0.00    +0.000 HD
ENDBRANCH  41  45
BRANCH  42  47
ATOM     47  O14 UNL     1      27.090 -10.272 -34.676  0.00  0.00    +0.000 OA
ATOM     48  H27 UNL     1      28.041 -10.090 -34.891  0.00  0.00    +0.000 HD
ENDBRANCH  42  47
ENDBRANCH  35  36
ENDBRANCH   6  35
TORSDOF 13
ENDMDL
MODEL 2
REMARK VINA RESULT:    -6.485      1.798      3.348
REMARK INTER + INTRA:         -11.730
REMARK INTER:                  -9.971
REMARK INTRA:                  -1.758
REMARK UNBOUND:                -1.643
REMARK  Name = resultss/4CJN/ligands/lig_310_t1.pdb
REMARK  15 active torsions:
REMARK  status: ('A' for Active; 'I' for Inactive)
REMARK    1  A    between atoms: C1_1  and  O1_2
REMARK    2  A    between atoms: O1_2  and  C2_3
REMARK    3  A    between atoms: C4_5  and  O2_6
REMARK    4  A    between atoms: C9_13  and  O5_14
REMARK    5  A    between atoms: O5_14  and  C10_15
REMARK    6  A    between atoms: C11_17  and  C12_18
REMARK    7  A    between atoms: C12_18  and  O7_19
REMARK    8  A    between atoms: C13_20  and  O8_21
REMARK    9  A    between atoms: C14_22  and  O9_23
REMARK   10  A    between atoms: C15_24  and  O10_25
REMARK   11  A    between atoms: O10_25  and  C16_26
REMARK   12  A    between atoms: C17_28  and  C18_29
REMARK   13  A    between atoms: C19_30  and  O12_31
REMARK   14  A    between atoms: C20_32  and  O13_33
REMARK   15  A    between atoms: C21_34  and  O14_35
REMARK                            x       y       z     vdW  Elec       q    Type
REMARK                         _______ _______ _______ _____ _____    ______ ____
ROOT
ATOM      1  C10 UNL     1      28.360  -8.084 -39.742  0.00  0.00    +0.000 C 
ATOM      2  O6  UNL     1      29.680  -7.629 -40.004  0.00  0.00    +0.000 OA
ATOM      3  C11 UNL     1      30.561  -8.086 -38.991  0.00  0.00    +0.000 C 
ATOM      4  C13 UNL     1      30.760  -9.628 -39.088  0.00  0.00    +0.000 C 
ATOM      5  C14 UNL     1      29.662 -10.277 -39.959  0.00  0.00    +0.000 C 
ATOM      6  C15 UNL     1      28.286  -9.645 -39.675  0.00  0.00    +0.000 C 
ENDROOT
BRANCH   4   7
ATOM      7  O8  UNL     1      30.726 -10.199 -37.804  0.00  0.00    +0.000 OA
ATOM      8  H13 UNL     1      31.665 -10.415 -37.560  0.00  0.00    +0.000 HD
ENDBRANCH   4   7
BRANCH   5   9
ATOM      9  O9  UNL     1      29.970 -10.113 -41.321  0.00  0.00    +0.000 OA
ATOM     10  H15 UNL     1      29.257  -9.539 -41.711  0.00  0.00    +0.000 HD
ENDBRANCH   5   9
BRANCH   1  11
ATOM     11  O5  UNL     1      27.515  -7.653 -40.796  0.00  0.00    +0.000 OA
BRANCH  11  21
ATOM     12  C2  UNL     1      23.991  -6.269 -48.052  0.00  0.00    +0.000 A 
ATOM     13  C3  UNL     1      25.342  -6.157 -48.428  0.00  0.00    +0.000 A 
ATOM     14  C4  UNL     1      26.366  -6.541 -47.549  0.00  0.00    +0.000 A 
ATOM     15  C5  UNL     1      26.042  -7.046 -46.268  0.00  0.00    +0.000 A 
ATOM     16  C6  UNL     1      27.014  -7.453 -45.329  0.00  0.00    +0.000 A 
ATOM     17  O3  UNL     1      28.243  -7.370 -45.605  0.00  0.00    +0.000 OA
ATOM     18  C7  UNL     1      26.605  -7.946 -44.073  0.00  0.00    +0.000 A 
ATOM     19  C8  UNL     1      27.562  -8.406 -43.034  0.00  0.00    +0.000 C 
ATOM     20  O4  UNL     1      28.792  -8.508 -43.294  0.00  0.00    +0.000 OA
ATOM     21  C9  UNL     1      27.096  -8.719 -41.634  0.00  0.00    +0.000 C 
ATOM     22  C22 UNL     1      25.596  -8.888 -41.536  0.00  0.00    +0.000 C 
ATOM     23  C23 UNL     1      24.753  -8.530 -42.507  0.00  0.00    +0.000 C 
ATOM     24  C24 UNL     1      25.231  -8.012 -43.798  0.00  0.00    +0.000 A 
ATOM     25  O15 UNL     1      24.340  -7.624 -44.702  0.00  0.00    +0.000 OA
ATOM     26  C25 UNL     1      24.680  -7.155 -45.897  0.00  0.00    +0.000 A 
ATOM     27  C26 UNL     1      23.674  -6.769 -46.787  0.00  0.00    +0.000 A 
BRANCH  12  29
ATOM     28  C1  UNL     1      21.602  -6.373 -48.785  0.00  0.00    +0.000 C 
ATOM     29  O1  UNL     1      22.939  -5.896 -48.903  0.00  0.00    +0.000 OA
ENDBRANCH  12  29
BRANCH  14  30
ATOM     30  O2  UNL     1      27.696  -6.421 -47.957  0.00  0.00    +0.000 OA
ATOM     31  H5  UNL     1      28.453  -6.866 -47.451  0.00  0.00    +0.000 HD
ENDBRANCH  14  30
ENDBRANCH  11  21
ENDBRANCH   1  11
BRANCH   3  32
ATOM     32  C12 UNL     1      31.901  -7.352 -39.128  0.00  0.00    +0.000 C 
BRANCH  32  33
ATOM     33  O7  UNL     1      32.736  -8.017 -40.041  0.00  0.00    +0.000 OA
ATOM     34  H11 UNL     1      32.146  -8.567 -40.619  0.00  0.00    +0.000 HD
ENDBRANCH  32  33
ENDBRANCH   3  32
BRANCH   6  35
ATOM     35  O10 UNL     1      27.842 -10.079 -38.399  0.00  0.00    +0.000 OA
BRANCH  35  36
ATOM     36  C16 UNL     1      27.345  -9.008 -37.607  0.00  0.00    +0.000 C 
ATOM     37  O11 UNL     1      28.103  -8.931 -36.406  0.00  0.00    +0.000 OA
ATOM     38  C17 UNL     1      27.637  -9.847 -35.436  0.00  0.00    +0.000 C 
ATOM     39  C18 UNL     1      28.693  -9.982 -34.340  0.00  0.00    +0.000 C 
ATOM     40  C19 UNL     1      26.291  -9.355 -34.856  0.00  0.00    +0.000 C 
ATOM     41  C20 UNL     1      25.404  -8.718 -35.965  0.00  0.00    +0.000 C 
ATOM     42  C21 UNL     1      25.821  -9.206 -37.370  0.00  0.00    +0.000 C 
BRANCH  40  43
ATOM     43  O12 UNL     1      25.624 -10.444 -34.269  0.00  0.00    +0.000 OA
ATOM     44  H23 UNL     1      24.652 -10.287 -34.400  0.00  0.00    +0.000 HD
ENDBRANCH  40  43
BRANCH  41  45
ATOM     45  O13 UNL     1      25.427  -7.312 -35.894  0.00  0.00    +0.000 OA
ATOM     46  H25 UNL     1      25.091  -6.952 -36.758  0.00  0.00    +0.000 HD
ENDBRANCH  41  45
BRANCH  42  47
ATOM     47  O14 UNL     1      25.095  -8.532 -38.366  0.00  0.00    +0.000 OA
ATOM     48  H27 UNL     1      24.304  -8.129 -37.922  0.00  0.00    +0.000 HD
ENDBRANCH  42  47
ENDBRANCH  35  36
ENDBRANCH   6  35
TORSDOF 13
ENDMDL
MODEL 3
REMARK VINA RESULT:    -6.415      1.488      2.583
REMARK INTER + INTRA:         -11.621
REMARK INTER:                 -10.544
REMARK INTRA:                  -1.077
REMARK UNBOUND:                -1.643
REMARK  Name = resultss/4CJN/ligands/lig_310_t1.pdb
REMARK  15 active torsions:
REMARK  status: ('A' for Active; 'I' for Inactive)
REMARK    1  A    between atoms: C1_1  and  O1_2
REMARK    2  A    between atoms: O1_2  and  C2_3
REMARK    3  A    between atoms: C4_5  and  O2_6
REMARK    4  A    between atoms: C9_13  and  O5_14
REMARK    5  A    between atoms: O5_14  and  C10_15
REMARK    6  A    between atoms: C11_17  and  C12_18
REMARK    7  A    between atoms: C12_18  and  O7_19
REMARK    8  A    between atoms: C13_20  and  O8_21
REMARK    9  A    between atoms: C14_22  and  O9_23
REMARK   10  A    between atoms: C15_24  and  O10_25
REMARK   11  A    between atoms: O10_25  and  C16_26
REMARK   12  A    between atoms: C17_28  and  C18_29
REMARK   13  A    between atoms: C19_30  and  O12_31
REMARK   14  A    between atoms: C20_32  and  O13_33
REMARK   15  A    between atoms: C21_34  and  O14_35
REMARK                            x       y       z     vdW  Elec       q    Type
REMARK                         _______ _______ _______ _____ _____    ______ ____
ROOT
ATOM      1  C10 UNL     1      28.450  -7.850 -39.352  0.00  0.00    +0.000 C 
ATOM      2  O6  UNL     1      29.688  -8.359 -39.826  0.00  0.00    +0.000 OA
ATOM      3  C11 UNL     1      30.498  -8.760 -38.733  0.00  0.00    +0.000 C 
ATOM      4  C13 UNL     1      29.908 -10.025 -38.043  0.00  0.00    +0.000 C 
ATOM      5  C14 UNL     1      28.435 -10.246 -38.453  0.00  0.00    +0.000 C 
ATOM      6  C15 UNL     1      27.670  -8.911 -38.507  0.00  0.00    +0.000 C 
ENDROOT
BRANCH   4   7
ATOM      7  O8  UNL     1      29.980  -9.889 -36.646  0.00  0.00    +0.000 OA
ATOM      8  H13 UNL     1      29.046  -9.891 -36.308  0.00  0.00    +0.000 HD
ENDBRANCH   4   7
BRANCH   5   9
ATOM      9  O9  UNL     1      28.376 -10.860 -39.717  0.00  0.00    +0.000 OA
ATOM     10  H15 UNL     1      29.256 -11.300 -39.865  0.00  0.00    +0.000 HD
ENDBRANCH   5   9
BRANCH   1  11
ATOM     11  O5  UNL     1      27.645  -7.505 -40.468  0.00  0.00    +0.000 OA
BRANCH  11  21
ATOM     12  C2  UNL     1      24.110  -6.647 -47.799  0.00  0.00    +0.000 A 
ATOM     13  C3  UNL     1      25.455  -6.471 -48.171  0.00  0.00    +0.000 A 
ATOM     14  C4  UNL     1      26.492  -6.756 -47.270  0.00  0.00    +0.000 A 
ATOM     15  C5  UNL     1      26.187  -7.223 -45.970  0.00  0.00    +0.000 A 
ATOM     16  C6  UNL     1      27.173  -7.530 -45.008  0.00  0.00    +0.000 A 
ATOM     17  O3  UNL     1      28.397  -7.387 -45.280  0.00  0.00    +0.000 OA
ATOM     18  C7  UNL     1      26.783  -7.993 -43.735  0.00  0.00    +0.000 A 
ATOM     19  C8  UNL     1      27.757  -8.350 -42.672  0.00  0.00    +0.000 C 
ATOM     20  O4  UNL     1      28.993  -8.390 -42.919  0.00  0.00    +0.000 OA
ATOM     21  C9  UNL     1      27.298  -8.629 -41.261  0.00  0.00    +0.000 C 
ATOM     22  C22 UNL     1      25.809  -8.883 -41.165  0.00  0.00    +0.000 C 
ATOM     23  C23 UNL     1      24.955  -8.617 -42.156  0.00  0.00    +0.000 C 
ATOM     24  C24 UNL     1      25.413  -8.128 -43.465  0.00  0.00    +0.000 A 
ATOM     25  O15 UNL     1      24.509  -7.833 -44.391  0.00  0.00    +0.000 OA
ATOM     26  C25 UNL     1      24.831  -7.396 -45.604  0.00  0.00    +0.000 A 
ATOM     27  C26 UNL     1      23.811  -7.109 -46.516  0.00  0.00    +0.000 A 
BRANCH  12  29
ATOM     28  C1  UNL     1      21.678  -6.649 -48.383  0.00  0.00    +0.000 C 
ATOM     29  O1  UNL     1      23.045  -6.373 -48.672  0.00  0.00    +0.000 OA
ENDBRANCH  12  29
BRANCH  14  30
ATOM     30  O2  UNL     1      27.816  -6.574 -47.675  0.00  0.00    +0.000 OA
ATOM     31  H5  UNL     1      28.597  -6.817 -47.075  0.00  0.00    +0.000 HD
ENDBRANCH  14  30
ENDBRANCH  11  21
ENDBRANCH   1  11
BRANCH   3  32
ATOM     32  C12 UNL     1      31.922  -9.027 -39.240  0.00  0.00    +0.000 C 
BRANCH  32  33
ATOM     33  O7  UNL     1      32.438 -10.197 -38.660  0.00  0.00    +0.000 OA
ATOM     34  H11 UNL     1      33.373  -9.996 -38.393  0.00  0.00    +0.000 HD
ENDBRANCH  32  33
ENDBRANCH   3  32
BRANCH   6  35
ATOM     35  O10 UNL     1      27.464  -8.452 -37.181  0.00  0.00    +0.000 OA
BRANCH  35  36
ATOM     36  C16 UNL     1      26.608  -9.311 -36.438  0.00  0.00    +0.000 C 
ATOM     37  O11 UNL     1      25.256  -8.966 -36.711  0.00  0.00    +0.000 OA
ATOM     38  C17 UNL     1      24.826  -7.877 -35.919  0.00  0.00    +0.000 C 
ATOM     39  C18 UNL     1      23.529  -7.323 -36.505  0.00  0.00    +0.000 C 
ATOM     40  C19 UNL     1      24.625  -8.340 -34.457  0.00  0.00    +0.000 C 
ATOM     41  C20 UNL     1      25.726  -9.356 -34.037  0.00  0.00    +0.000 C 
ATOM     42  C21 UNL     1      26.980  -9.232 -34.930  0.00  0.00    +0.000 C 
BRANCH  40  43
ATOM     43  O12 UNL     1      24.658  -7.215 -33.615  0.00  0.00    +0.000 OA
ATOM     44  H23 UNL     1      25.398  -6.637 -33.940  0.00  0.00    +0.000 HD
ENDBRANCH  40  43
BRANCH  41  45
ATOM     45  O13 UNL     1      25.234 -10.675 -34.042  0.00  0.00    +0.000 OA
ATOM     46  H25 UNL     1      24.419 -10.705 -33.473  0.00  0.00    +0.000 HD
ENDBRANCH  41  45
BRANCH  42  47
ATOM     47  O14 UNL     1      27.914 -10.234 -34.618  0.00  0.00    +0.000 OA
ATOM     48  H27 UNL     1      28.522 -10.313 -35.398  0.00  0.00    +0.000 HD
ENDBRANCH  42  47
ENDBRANCH  35  36
ENDBRANCH   6  35
TORSDOF 13
ENDMDL
MODEL 4
REMARK VINA RESULT:    -6.344      1.724      3.103
REMARK INTER + INTRA:         -11.510
REMARK INTER:                  -9.784
REMARK INTRA:                  -1.726
REMARK UNBOUND:                -1.643
REMARK  Name = resultss/4CJN/ligands/lig_310_t1.pdb
REMARK  15 active torsions:
REMARK  status: ('A' for Active; 'I' for Inactive)
REMARK    1  A    between atoms: C1_1  and  O1_2
REMARK    2  A    between atoms: O1_2  and  C2_3
REMARK    3  A    between atoms: C4_5  and  O2_6
REMARK    4  A    between atoms: C9_13  and  O5_14
REMARK    5  A    between atoms: O5_14  and  C10_15
REMARK    6  A    between atoms: C11_17  and  C12_18
REMARK    7  A    between atoms: C12_18  and  O7_19
REMARK    8  A    between atoms: C13_20  and  O8_21
REMARK    9  A    between atoms: C14_22  and  O9_23
REMARK   10  A    between atoms: C15_24  and  O10_25
REMARK   11  A    between atoms: O10_25  and  C16_26
REMARK   12  A    between atoms: C17_28  and  C18_29
REMARK   13  A    between atoms: C19_30  and  O12_31
REMARK   14  A    between atoms: C20_32  and  O13_33
REMARK   15  A    between atoms: C21_34  and  O14_35
REMARK                            x       y       z     vdW  Elec       q    Type
REMARK                         _______ _______ _______ _____ _____    ______ ____
ROOT
ATOM      1  C10 UNL     1      27.349  -7.859 -38.173  0.00  0.00    +0.000 C 
ATOM      2  O6  UNL     1      28.763  -7.739 -38.233  0.00  0.00    +0.000 OA
ATOM      3  C11 UNL     1      29.338  -8.145 -37.002  0.00  0.00    +0.000 C 
ATOM      4  C13 UNL     1      29.184  -9.681 -36.800  0.00  0.00    +0.000 C 
ATOM      5  C14 UNL     1      28.119 -10.264 -37.757  0.00  0.00    +0.000 C 
ATOM      6  C15 UNL     1      26.902  -9.326 -37.867  0.00  0.00    +0.000 C 
ENDROOT
BRANCH   4   7
ATOM      7  O8  UNL     1      28.809  -9.957 -35.474  0.00  0.00    +0.000 OA
ATOM      8  H13 UNL     1      28.207 -10.747 -35.503  0.00  0.00    +0.000 HD
ENDBRANCH   4   7
BRANCH   5   9
ATOM      9  O9  UNL     1      28.674 -10.448 -39.036  0.00  0.00    +0.000 OA
ATOM     10  H15 UNL     1      28.150 -11.171 -39.476  0.00  0.00    +0.000 HD
ENDBRANCH   5   9
BRANCH   1  11
ATOM     11  O5  UNL     1      26.810  -7.494 -39.434  0.00  0.00    +0.000 OA
BRANCH  11  21
ATOM     12  C2  UNL     1      24.450  -6.776 -47.237  0.00  0.00    +0.000 A 
ATOM     13  C3  UNL     1      25.838  -6.895 -47.427  0.00  0.00    +0.000 A 
ATOM     14  C4  UNL     1      26.679  -7.271 -46.368  0.00  0.00    +0.000 A 
ATOM     15  C5  UNL     1      26.128  -7.532 -45.091  0.00  0.00    +0.000 A 
ATOM     16  C6  UNL     1      26.907  -7.914 -43.978  0.00  0.00    +0.000 A 
ATOM     17  O3  UNL     1      28.159  -8.032 -44.084  0.00  0.00    +0.000 OA
ATOM     18  C7  UNL     1      26.278  -8.157 -42.740  0.00  0.00    +0.000 A 
ATOM     19  C8  UNL     1      27.022  -8.575 -41.524  0.00  0.00    +0.000 C 
ATOM     20  O4  UNL     1      28.246  -8.871 -41.589  0.00  0.00    +0.000 OA
ATOM     21  C9  UNL     1      26.346  -8.611 -40.175  0.00  0.00    +0.000 C 
ATOM     22  C22 UNL     1      24.837  -8.571 -40.271  0.00  0.00    +0.000 C 
ATOM     23  C23 UNL     1      24.182  -8.258 -41.391  0.00  0.00    +0.000 C 
ATOM     24  C24 UNL     1      24.886  -8.005 -42.657  0.00  0.00    +0.000 A 
ATOM     25  O15 UNL     1      24.180  -7.646 -43.723  0.00  0.00    +0.000 OA
ATOM     26  C25 UNL     1      24.730  -7.409 -44.909  0.00  0.00    +0.000 A 
ATOM     27  C26 UNL     1      23.909  -7.036 -45.976  0.00  0.00    +0.000 A 
BRANCH  12  29
ATOM     28  C1  UNL     1      22.182  -6.693 -48.290  0.00  0.00    +0.000 C 
ATOM     29  O1  UNL     1      23.577  -6.403 -48.271  0.00  0.00    +0.000 OA
ENDBRANCH  12  29
BRANCH  14  30
ATOM     30  O2  UNL     1      28.052  -7.384 -46.594  0.00  0.00    +0.000 OA
ATOM     31  H5  UNL     1      28.436  -8.092 -47.210  0.00  0.00    +0.000 HD
ENDBRANCH  14  30
ENDBRANCH  11  21
ENDBRANCH   1  11
BRANCH   3  32
ATOM     32  C12 UNL     1      30.816  -7.735 -36.983  0.00  0.00    +0.000 C 
BRANCH  32  33
ATOM     33  O7  UNL     1      31.574  -8.666 -36.254  0.00  0.00    +0.000 OA
ATOM     34  H11 UNL     1      32.528  -8.421 -36.381  0.00  0.00    +0.000 HD
ENDBRANCH  32  33
ENDBRANCH   3  32
BRANCH   6  35
ATOM     35  O10 UNL     1      26.169  -9.391 -36.654  0.00  0.00    +0.000 OA
BRANCH  35  36
ATOM     36  C16 UNL     1      25.744  -8.109 -36.210  0.00  0.00    +0.000 C 
ATOM     37  O11 UNL     1      26.539  -7.717 -35.098  0.00  0.00    +0.000 OA
ATOM     38  C17 UNL     1      26.060  -8.278 -33.892  0.00  0.00    +0.000 C 
ATOM     39  C18 UNL     1      27.140  -8.136 -32.820  0.00  0.00    +0.000 C 
ATOM     40  C19 UNL     1      24.754  -7.567 -33.466  0.00  0.00    +0.000 C 
ATOM     41  C20 UNL     1      23.866  -7.244 -34.702  0.00  0.00    +0.000 C 
ATOM     42  C21 UNL     1      24.220  -8.148 -35.904  0.00  0.00    +0.000 C 
BRANCH  40  43
ATOM     43  O12 UNL     1      24.056  -8.397 -32.572  0.00  0.00    +0.000 OA
ATOM     44  H23 UNL     1      23.091  -8.293 -32.781  0.00  0.00    +0.000 HD
ENDBRANCH  40  43
BRANCH  41  45
ATOM     45  O13 UNL     1      23.954  -5.883 -35.054  0.00  0.00    +0.000 OA
ATOM     46  H25 UNL     1      23.807  -5.341 -34.234  0.00  0.00    +0.000 HD
ENDBRANCH  41  45
BRANCH  42  47
ATOM     47  O14 UNL     1      23.496  -7.764 -37.045  0.00  0.00    +0.000 OA
ATOM     48  H27 UNL     1      23.001  -8.566 -37.355  0.00  0.00    +0.000 HD
ENDBRANCH  42  47
ENDBRANCH  35  36
ENDBRANCH   6  35
TORSDOF 13
ENDMDL
MODEL 5
REMARK VINA RESULT:    -6.261      2.503      9.632
REMARK INTER + INTRA:         -11.382
REMARK INTER:                  -9.140
REMARK INTRA:                  -2.242
REMARK UNBOUND:                -1.643
REMARK  Name = resultss/4CJN/ligands/lig_310_t1.pdb
REMARK  15 active torsions:
REMARK  status: ('A' for Active; 'I' for Inactive)
REMARK    1  A    between atoms: C1_1  and  O1_2
REMARK    2  A    between atoms: O1_2  and  C2_3
REMARK    3  A    between atoms: C4_5  and  O2_6
REMARK    4  A    between atoms: C9_13  and  O5_14
REMARK    5  A    between atoms: O5_14  and  C10_15
REMARK    6  A    between atoms: C11_17  and  C12_18
REMARK    7  A    between atoms: C12_18  and  O7_19
REMARK    8  A    between atoms: C13_20  and  O8_21
REMARK    9  A    between atoms: C14_22  and  O9_23
REMARK   10  A    between atoms: C15_24  and  O10_25
REMARK   11  A    between atoms: O10_25  and  C16_26
REMARK   12  A    between atoms: C17_28  and  C18_29
REMARK   13  A    between atoms: C19_30  and  O12_31
REMARK   14  A    between atoms: C20_32  and  O13_33
REMARK   15  A    between atoms: C21_34  and  O14_35
REMARK                            x       y       z     vdW  Elec       q    Type
REMARK                         _______ _______ _______ _____ _____    ______ ____
ROOT
ATOM      1  C10 UNL     1      24.900  -7.753 -40.919  0.00  0.00    +0.000 C 
ATOM      2  O6  UNL     1      23.663  -7.340 -41.483  0.00  0.00    +0.000 OA
ATOM      3  C11 UNL     1      23.871  -6.828 -42.789  0.00  0.00    +0.000 C 
ATOM      4  C13 UNL     1      24.273  -7.969 -43.771  0.00  0.00    +0.000 C 
ATOM      5  C14 UNL     1      24.730  -9.229 -43.003  0.00  0.00    +0.000 C 
ATOM      6  C15 UNL     1      25.597  -8.852 -41.788  0.00  0.00    +0.000 C 
ENDROOT
BRANCH   4   7
ATOM      7  O8  UNL     1      25.317  -7.536 -44.607  0.00  0.00    +0.000 OA
ATOM      8  H13 UNL     1      24.895  -7.050 -45.365  0.00  0.00    +0.000 HD
ENDBRANCH   4   7
BRANCH   5   9
ATOM      9  O9  UNL     1      23.608  -9.953 -42.560  0.00  0.00    +0.000 OA
ATOM     10  H15 UNL     1      23.173 -10.335 -43.369  0.00  0.00    +0.000 HD
ENDBRANCH   5   9
BRANCH   1  11
ATOM     11  O5  UNL     1      24.652  -8.305 -39.636  0.00  0.00    +0.000 OA
BRANCH  11  21
ATOM     12  C2  UNL     1      30.132  -9.862 -33.761  0.00  0.00    +0.000 A 
ATOM     13  C3  UNL     1      30.995  -9.363 -34.753  0.00  0.00    +0.000 A 
ATOM     14  C4  UNL     1      30.484  -8.738 -35.901  0.00  0.00    +0.000 A 
ATOM     15  C5  UNL     1      29.085  -8.609 -36.069  0.00  0.00    +0.000 A 
ATOM     16  C6  UNL     1      28.496  -7.994 -37.195  0.00  0.00    +0.000 A 
ATOM     17  O3  UNL     1      29.217  -7.533 -38.122  0.00  0.00    +0.000 OA
ATOM     18  C7  UNL     1      27.092  -7.905 -37.283  0.00  0.00    +0.000 A 
ATOM     19  C8  UNL     1      26.393  -7.264 -38.426  0.00  0.00    +0.000 C 
ATOM     20  O4  UNL     1      27.043  -6.637 -39.307  0.00  0.00    +0.000 OA
ATOM     21  C9  UNL     1      24.897  -7.383 -38.586  0.00  0.00    +0.000 C 
ATOM     22  C22 UNL     1      24.204  -7.848 -37.324  0.00  0.00    +0.000 C 
ATOM     23  C23 UNL     1      24.855  -8.362 -36.278  0.00  0.00    +0.000 C 
ATOM     24  C24 UNL     1      26.322  -8.440 -36.239  0.00  0.00    +0.000 A 
ATOM     25  O15 UNL     1      26.906  -9.010 -35.192  0.00  0.00    +0.000 OA
ATOM     26  C25 UNL     1      28.225  -9.115 -35.066  0.00  0.00    +0.000 A 
ATOM     27  C26 UNL     1      28.752  -9.732 -33.928  0.00  0.00    +0.000 A 
BRANCH  12  29
ATOM     28  C1  UNL     1      31.970 -10.506 -32.191  0.00  0.00    +0.000 C 
ATOM     29  O1  UNL     1      30.605 -10.492 -32.599  0.00  0.00    +0.000 OA
ENDBRANCH  12  29
BRANCH  14  30
ATOM     30  O2  UNL     1      31.370  -8.250 -36.864  0.00  0.00    +0.000 OA
ATOM     31  H5  UNL     1      32.330  -8.014 -36.637  0.00  0.00    +0.000 HD
ENDBRANCH  14  30
ENDBRANCH  11  21
ENDBRANCH   1  11
BRANCH   3  32
ATOM     32  C12 UNL     1      22.590  -6.127 -43.258  0.00  0.00    +0.000 C 
BRANCH  32  33
ATOM     33  O7  UNL     1      22.497  -6.160 -44.659  0.00  0.00    +0.000 OA
ATOM     34  H11 UNL     1      21.569  -5.892 -44.891  0.00  0.00    +0.000 HD
ENDBRANCH  32  33
ENDBRANCH   3  32
BRANCH   6  35
ATOM     35  O10 UNL     1      26.861  -8.406 -42.253  0.00  0.00    +0.000 OA
BRANCH  35  36
ATOM     36  C16 UNL     1      27.765  -9.481 -42.475  0.00  0.00    +0.000 C 
ATOM     37  O11 UNL     1      27.605 -10.442 -41.438  0.00  0.00    +0.000 OA
ATOM     38  C17 UNL     1      28.333 -10.086 -40.281  0.00  0.00    +0.000 C 
ATOM     39  C18 UNL     1      27.836 -10.931 -39.108  0.00  0.00    +0.000 C 
ATOM     40  C19 UNL     1      29.844 -10.304 -40.526  0.00  0.00    +0.000 C 
ATOM     41  C20 UNL     1      30.239  -9.899 -41.975  0.00  0.00    +0.000 C 
ATOM     42  C21 UNL     1      29.212  -8.922 -42.588  0.00  0.00    +0.000 C 
BRANCH  40  43
ATOM     43  O12 UNL     1      30.570  -9.541 -39.595  0.00  0.00    +0.000 OA
ATOM     44  H23 UNL     1      30.157  -8.638 -39.583  0.00  0.00    +0.000 HD
ENDBRANCH  40  43
BRANCH  41  45
ATOM     45  O13 UNL     1      30.408 -11.032 -42.795  0.00  0.00    +0.000 OA
ATOM     46  H25 UNL     1      31.087 -10.815 -43.488  0.00  0.00    +0.000 HD
ENDBRANCH  41  45
BRANCH  42  47
ATOM     47  O14 UNL     1      29.516  -8.662 -43.935  0.00  0.00    +0.000 OA
ATOM     48  H27 UNL     1      28.833  -8.023 -44.266  0.00  0.00    +0.000 HD
ENDBRANCH  42  47
ENDBRANCH  35  36
ENDBRANCH   6  35
TORSDOF 13
ENDMDL
MODEL 6
REMARK VINA RESULT:    -6.018      3.301      7.459
REMARK INTER + INTRA:         -11.003
REMARK INTER:                  -9.768
REMARK INTRA:                  -1.235
REMARK UNBOUND:                -1.643
REMARK  Name = resultss/4CJN/ligands/lig_310_t1.pdb
REMARK  15 active torsions:
REMARK  status: ('A' for Active; 'I' for Inactive)
REMARK    1  A    between atoms: C1_1  and  O1_2
REMARK    2  A    between atoms: O1_2  and  C2_3
REMARK    3  A    between atoms: C4_5  and  O2_6
REMARK    4  A    between atoms: C9_13  and  O5_14
REMARK    5  A    between atoms: O5_14  and  C10_15
REMARK    6  A    between atoms: C11_17  and  C12_18
REMARK    7  A    between atoms: C12_18  and  O7_19
REMARK    8  A    between atoms: C13_20  and  O8_21
REMARK    9  A    between atoms: C14_22  and  O9_23
REMARK   10  A    between atoms: C15_24  and  O10_25
REMARK   11  A    between atoms: O10_25  and  C16_26
REMARK   12  A    between atoms: C17_28  and  C18_29
REMARK   13  A    between atoms: C19_30  and  O12_31
REMARK   14  A    between atoms: C20_32  and  O13_33
REMARK   15  A    between atoms: C21_34  and  O14_35
REMARK                            x       y       z     vdW  Elec       q    Type
REMARK                         _______ _______ _______ _____ _____    ______ ____
ROOT
ATOM      1  C10 UNL     1      26.467  -8.099 -39.792  0.00  0.00    +0.000 C 
ATOM      2  O6  UNL     1      26.078  -8.606 -41.060  0.00  0.00    +0.000 OA
ATOM      3  C11 UNL     1      24.663  -8.632 -41.159  0.00  0.00    +0.000 C 
ATOM      4  C13 UNL     1      24.088  -7.186 -41.234  0.00  0.00    +0.000 C 
ATOM      5  C14 UNL     1      25.135  -6.147 -40.774  0.00  0.00    +0.000 C 
ATOM      6  C15 UNL     1      25.917  -6.655 -39.548  0.00  0.00    +0.000 C 
ENDROOT
BRANCH   4   7
ATOM      7  O8  UNL     1      22.947  -7.081 -40.420  0.00  0.00    +0.000 OA
ATOM      8  H13 UNL     1      22.163  -7.030 -41.029  0.00  0.00    +0.000 HD
ENDBRANCH   4   7
BRANCH   5   9
ATOM      9  O9  UNL     1      26.039  -5.883 -41.818  0.00  0.00    +0.000 OA
ATOM     10  H15 UNL     1      25.757  -5.024 -42.233  0.00  0.00    +0.000 HD
ENDBRANCH   5   9
BRANCH   1  11
ATOM     11  O5  UNL     1      27.884  -8.039 -39.743  0.00  0.00    +0.000 OA
BRANCH  11  21
ATOM     12  C2  UNL     1      32.837 -12.592 -44.403  0.00  0.00    +0.000 A 
ATOM     13  C3  UNL     1      33.766 -11.643 -43.940  0.00  0.00    +0.000 A 
ATOM     14  C4  UNL     1      33.431 -10.756 -42.906  0.00  0.00    +0.000 A 
ATOM     15  C5  UNL     1      32.144 -10.811 -42.320  0.00  0.00    +0.000 A 
ATOM     16  C6  UNL     1      31.733  -9.953 -41.277  0.00  0.00    +0.000 A 
ATOM     17  O3  UNL     1      32.519  -9.077 -40.823  0.00  0.00    +0.000 OA
ATOM     18  C7  UNL     1      30.433 -10.076 -40.748  0.00  0.00    +0.000 A 
ATOM     19  C8  UNL     1      29.926  -9.222 -39.643  0.00  0.00    +0.000 C 
ATOM     20  O4  UNL     1      30.701  -8.439 -39.029  0.00  0.00    +0.000 OA
ATOM     21  C9  UNL     1      28.467  -9.237 -39.257  0.00  0.00    +0.000 C 
ATOM     22  C22 UNL     1      27.723 -10.431 -39.813  0.00  0.00    +0.000 C 
ATOM     23  C23 UNL     1      28.220 -11.228 -40.761  0.00  0.00    +0.000 C 
ATOM     24  C24 UNL     1      29.582 -11.054 -41.286  0.00  0.00    +0.000 A 
ATOM     25  O15 UNL     1      29.998 -11.847 -42.265  0.00  0.00    +0.000 OA
ATOM     26  C25 UNL     1      31.215 -11.769 -42.793  0.00  0.00    +0.000 A 
ATOM     27  C26 UNL     1      31.568 -12.645 -43.823  0.00  0.00    +0.000 A 
BRANCH  12  29
ATOM     28  C1  UNL     1      34.056 -13.238 -46.490  0.00  0.00    +0.000 C 
ATOM     29  O1  UNL     1      33.134 -13.497 -45.435  0.00  0.00    +0.000 OA
ENDBRANCH  12  29
BRANCH  14  30
ATOM     30  O2  UNL     1      34.380  -9.830 -42.468  0.00  0.00    +0.000 OA
ATOM     31  H5  UNL     1      35.308  -9.784 -42.872  0.00  0.00    +0.000 HD
ENDBRANCH  14  30
ENDBRANCH  11  21
ENDBRANCH   1  11
BRANCH   3  32
ATOM     32  C12 UNL     1      24.266  -9.444 -42.399  0.00  0.00    +0.000 C 
BRANCH  32  33
ATOM     33  O7  UNL     1      23.129  -8.887 -43.008  0.00  0.00    +0.000 OA
ATOM     34  H11 UNL     1      22.365  -9.479 -42.783  0.00  0.00    +0.000 HD
ENDBRANCH  32  33
ENDBRANCH   3  32
BRANCH   6  35
ATOM     35  O10 UNL     1      25.060  -6.622 -38.418  0.00  0.00    +0.000 OA
BRANCH  35  36
ATOM     36  C16 UNL     1      25.462  -7.538 -37.408  0.00  0.00    +0.000 C 
ATOM     37  O11 UNL     1      24.304  -8.114 -36.818  0.00  0.00    +0.000 OA
ATOM     38  C17 UNL     1      23.755  -7.276 -35.820  0.00  0.00    +0.000 C 
ATOM     39  C18 UNL     1      22.341  -7.756 -35.497  0.00  0.00    +0.000 C 
ATOM     40  C19 UNL     1      24.655  -7.302 -34.563  0.00  0.00    +0.000 C 
ATOM     41  C20 UNL     1      26.161  -7.339 -34.954  0.00  0.00    +0.000 C 
ATOM     42  C21 UNL     1      26.384  -6.811 -36.389  0.00  0.00    +0.000 C 
BRANCH  40  43
ATOM     43  O12 UNL     1      24.385  -6.162 -33.787  0.00  0.00    +0.000 OA
ATOM     44  H23 UNL     1      25.015  -5.456 -34.088  0.00  0.00    +0.000 HD
ENDBRANCH  40  43
BRANCH  41  45
ATOM     45  O13 UNL     1      26.697  -8.633 -34.805  0.00  0.00    +0.000 OA
ATOM     46  H25 UNL     1      27.309  -8.626 -34.022  0.00  0.00    +0.000 HD
ENDBRANCH  41  45
BRANCH  42  47
ATOM     47  O14 UNL     1      27.728  -6.964 -36.770  0.00  0.00    +0.000 OA
ATOM     48  H27 UNL     1      27.725  -7.373 -37.674  0.00  0.00    +0.000 HD
ENDBRANCH  42  47
ENDBRANCH  35  36
ENDBRANCH   6  35
TORSDOF 13
ENDMDL
MODEL 7
REMARK VINA RESULT:    -5.758      2.086      5.146
REMARK INTER + INTRA:         -10.599
REMARK INTER:                  -8.630
REMARK INTRA:                  -1.970
REMARK UNBOUND:                -1.643
REMARK  Name = resultss/4CJN/ligands/lig_310_t1.pdb
REMARK  15 active torsions:
REMARK  status: ('A' for Active; 'I' for Inactive)
REMARK    1  A    between atoms: C1_1  and  O1_2
REMARK    2  A    between atoms: O1_2  and  C2_3
REMARK    3  A    between atoms: C4_5  and  O2_6
REMARK    4  A    between atoms: C9_13  and  O5_14
REMARK    5  A    between atoms: O5_14  and  C10_15
REMARK    6  A    between atoms: C11_17  and  C12_18
REMARK    7  A    between atoms: C12_18  and  O7_19
REMARK    8  A    between atoms: C13_20  and  O8_21
REMARK    9  A    between atoms: C14_22  and  O9_23
REMARK   10  A    between atoms: C15_24  and  O10_25
REMARK   11  A    between atoms: O10_25  and  C16_26
REMARK   12  A    between atoms: C17_28  and  C18_29
REMARK   13  A    between atoms: C19_30  and  O12_31
REMARK   14  A    between atoms: C20_32  and  O13_33
REMARK   15  A    between atoms: C21_34  and  O14_35
REMARK                            x       y       z     vdW  Elec       q    Type
REMARK                         _______ _______ _______ _____ _____    ______ ____
ROOT
ATOM      1  C10 UNL     1      27.074  -8.126 -37.550  0.00  0.00    +0.000 C 
ATOM      2  O6  UNL     1      25.954  -8.591 -36.811  0.00  0.00    +0.000 OA
ATOM      3  C11 UNL     1      26.345  -8.910 -35.486  0.00  0.00    +0.000 C 
ATOM      4  C13 UNL     1      26.703  -7.619 -34.691  0.00  0.00    +0.000 C 
ATOM      5  C14 UNL     1      26.933  -6.424 -35.643  0.00  0.00    +0.000 C 
ATOM      6  C15 UNL     1      27.718  -6.859 -36.895  0.00  0.00    +0.000 C 
ENDROOT
BRANCH   4   7
ATOM      7  O8  UNL     1      27.865  -7.830 -33.929  0.00  0.00    +0.000 OA
ATOM      8  H13 UNL     1      27.814  -8.759 -33.577  0.00  0.00    +0.000 HD
ENDBRANCH   4   7
BRANCH   5   9
ATOM      9  O9  UNL     1      25.697  -5.883 -36.041  0.00  0.00    +0.000 OA
ATOM     10  H15 UNL     1      25.043  -6.102 -35.325  0.00  0.00    +0.000 HD
ENDBRANCH   5   9
BRANCH   1  11
ATOM     11  O5  UNL     1      26.642  -7.769 -38.853  0.00  0.00    +0.000 OA
BRANCH  11  21
ATOM     12  C2  UNL     1      24.905  -6.985 -46.812  0.00  0.00    +0.000 A 
ATOM     13  C3  UNL     1      26.309  -6.944 -46.879  0.00  0.00    +0.000 A 
ATOM     14  C4  UNL     1      27.091  -7.271 -45.760  0.00  0.00    +0.000 A 
ATOM     15  C5  UNL     1      26.464  -7.644 -44.548  0.00  0.00    +0.000 A 
ATOM     16  C6  UNL     1      27.181  -7.985 -43.381  0.00  0.00    +0.000 A 
ATOM     17  O3  UNL     1      28.442  -7.961 -43.376  0.00  0.00    +0.000 OA
ATOM     18  C7  UNL     1      26.478  -8.347 -42.214  0.00  0.00    +0.000 A 
ATOM     19  C8  UNL     1      27.155  -8.732 -40.949  0.00  0.00    +0.000 C 
ATOM     20  O4  UNL     1      28.406  -8.890 -40.912  0.00  0.00    +0.000 OA
ATOM     21  C9  UNL     1      26.372  -8.898 -39.669  0.00  0.00    +0.000 C 
ATOM     22  C22 UNL     1      24.882  -9.018 -39.901  0.00  0.00    +0.000 C 
ATOM     23  C23 UNL     1      24.297  -8.731 -41.066  0.00  0.00    +0.000 C 
ATOM     24  C24 UNL     1      25.075  -8.351 -42.253  0.00  0.00    +0.000 A 
ATOM     25  O15 UNL     1      24.429  -8.026 -43.367  0.00  0.00    +0.000 OA
ATOM     26  C25 UNL     1      25.050  -7.681 -44.489  0.00  0.00    +0.000 A 
ATOM     27  C26 UNL     1      24.288  -7.355 -45.615  0.00  0.00    +0.000 A 
BRANCH  12  29
ATOM     28  C1  UNL     1      22.696  -6.953 -47.985  0.00  0.00    +0.000 C 
ATOM     29  O1  UNL     1      24.089  -6.667 -47.909  0.00  0.00    +0.000 OA
ENDBRANCH  12  29
BRANCH  14  30
ATOM     30  O2  UNL     1      28.483  -7.224 -45.863  0.00  0.00    +0.000 OA
ATOM     31  H5  UNL     1      28.967  -7.524 -46.701  0.00  0.00    +0.000 HD
ENDBRANCH  14  30
ENDBRANCH  11  21
ENDBRANCH   1  11
BRANCH   3  32
ATOM     32  C12 UNL     1      25.206  -9.676 -34.801  0.00  0.00    +0.000 C 
BRANCH  32  33
ATOM     33  O7  UNL     1      25.701 -10.825 -34.162  0.00  0.00    +0.000 OA
ATOM     34  H11 UNL     1      25.862 -10.578 -33.214  0.00  0.00    +0.000 HD
ENDBRANCH  32  33
ENDBRANCH   3  32
BRANCH   6  35
ATOM     35  O10 UNL     1      29.064  -7.108 -36.523  0.00  0.00    +0.000 OA
BRANCH  35  36
ATOM     36  C16 UNL     1      29.543  -8.349 -37.024  0.00  0.00    +0.000 C 
ATOM     37  O11 UNL     1      29.794  -9.224 -35.930  0.00  0.00    +0.000 OA
ATOM     38  C17 UNL     1      31.062  -8.984 -35.352  0.00  0.00    +0.000 C 
ATOM     39  C18 UNL     1      31.119  -9.672 -33.989  0.00  0.00    +0.000 C 
ATOM     40  C19 UNL     1      32.173  -9.510 -36.290  0.00  0.00    +0.000 C 
ATOM     41  C20 UNL     1      31.819  -9.241 -37.781  0.00  0.00    +0.000 C 
ATOM     42  C21 UNL     1      30.789  -8.098 -37.919  0.00  0.00    +0.000 C 
BRANCH  40  43
ATOM     43  O12 UNL     1      33.384  -8.879 -35.959  0.00  0.00    +0.000 OA
ATOM     44  H23 UNL     1      33.148  -7.999 -35.563  0.00  0.00    +0.000 HD
ENDBRANCH  40  43
BRANCH  41  45
ATOM     45  O13 UNL     1      31.360 -10.410 -38.417  0.00  0.00    +0.000 OA
ATOM     46  H25 UNL     1      31.863 -10.518 -39.268  0.00  0.00    +0.000 HD
ENDBRANCH  41  45
BRANCH  42  47
ATOM     47  O14 UNL     1      30.389  -7.949 -39.258  0.00  0.00    +0.000 OA
ATOM     48  H27 UNL     1      29.749  -7.191 -39.284  0.00  0.00    +0.000 HD
ENDBRANCH  42  47
ENDBRANCH  35  36
ENDBRANCH   6  35
TORSDOF 13
ENDMDL
MODEL 8
REMARK VINA RESULT:    -5.751      1.583      2.398
REMARK INTER + INTRA:         -10.588
REMARK INTER:                  -8.622
REMARK INTRA:                  -1.966
REMARK UNBOUND:                -1.643
REMARK  Name = resultss/4CJN/ligands/lig_310_t1.pdb
REMARK  15 active torsions:
REMARK  status: ('A' for Active; 'I' for Inactive)
REMARK    1  A    between atoms: C1_1  and  O1_2
REMARK    2  A    between atoms: O1_2  and  C2_3
REMARK    3  A    between atoms: C4_5  and  O2_6
REMARK    4  A    between atoms: C9_13  and  O5_14
REMARK    5  A    between atoms: O5_14  and  C10_15
REMARK    6  A    between atoms: C11_17  and  C12_18
REMARK    7  A    between atoms: C12_18  and  O7_19
REMARK    8  A    between atoms: C13_20  and  O8_21
REMARK    9  A    between atoms: C14_22  and  O9_23
REMARK   10  A    between atoms: C15_24  and  O10_25
REMARK   11  A    between atoms: O10_25  and  C16_26
REMARK   12  A    between atoms: C17_28  and  C18_29
REMARK   13  A    between atoms: C19_30  and  O12_31
REMARK   14  A    between atoms: C20_32  and  O13_33
REMARK   15  A    between atoms: C21_34  and  O14_35
REMARK                            x       y       z     vdW  Elec       q    Type
REMARK                         _______ _______ _______ _____ _____    ______ ____
ROOT
ATOM      1  C10 UNL     1      27.234  -8.572 -40.471  0.00  0.00    +0.000 C 
ATOM      2  O6  UNL     1      28.469  -8.109 -40.997  0.00  0.00    +0.000 OA
ATOM      3  C11 UNL     1      29.472  -8.156 -39.995  0.00  0.00    +0.000 C 
ATOM      4  C13 UNL     1      29.837  -9.630 -39.649  0.00  0.00    +0.000 C 
ATOM      5  C14 UNL     1      28.755 -10.607 -40.163  0.00  0.00    +0.000 C 
ATOM      6  C15 UNL     1      27.343 -10.038 -39.934  0.00  0.00    +0.000 C 
ENDROOT
BRANCH   4   7
ATOM      7  O8  UNL     1      29.966  -9.779 -38.257  0.00  0.00    +0.000 OA
ATOM      8  H13 UNL     1      29.149 -10.249 -37.941  0.00  0.00    +0.000 HD
ENDBRANCH   4   7
BRANCH   5   9
ATOM      9  O9  UNL     1      28.938 -10.844 -41.537  0.00  0.00    +0.000 OA
ATOM     10  H15 UNL     1      28.642 -10.022 -42.013  0.00  0.00    +0.000 HD
ENDBRANCH   5   9
BRANCH   1  11
ATOM     11  O5  UNL     1      26.266  -8.560 -41.508  0.00  0.00    +0.000 OA
BRANCH  11  21
ATOM     12  C2  UNL     1      20.127  -6.893 -46.657  0.00  0.00    +0.000 A 
ATOM     13  C3  UNL     1      19.470  -6.663 -45.435  0.00  0.00    +0.000 A 
ATOM     14  C4  UNL     1      20.191  -6.603 -44.232  0.00  0.00    +0.000 A 
ATOM     15  C5  UNL     1      21.595  -6.779 -44.244  0.00  0.00    +0.000 A 
ATOM     16  C6  UNL     1      22.389  -6.733 -43.077  0.00  0.00    +0.000 A 
ATOM     17  O3  UNL     1      21.857  -6.536 -41.950  0.00  0.00    +0.000 OA
ATOM     18  C7  UNL     1      23.783  -6.917 -43.177  0.00  0.00    +0.000 A 
ATOM     19  C8  UNL     1      24.690  -6.871 -42.002  0.00  0.00    +0.000 C 
ATOM     20  O4  UNL     1      24.259  -6.518 -40.870  0.00  0.00    +0.000 OA
ATOM     21  C9  UNL     1      26.136  -7.287 -42.121  0.00  0.00    +0.000 C 
ATOM     22  C22 UNL     1      26.612  -7.359 -43.555  0.00  0.00    +0.000 C 
ATOM     23  C23 UNL     1      25.786  -7.332 -44.604  0.00  0.00    +0.000 C 
ATOM     24  C24 UNL     1      24.337  -7.145 -44.446  0.00  0.00    +0.000 A 
ATOM     25  O15 UNL     1      23.564  -7.181 -45.524  0.00  0.00    +0.000 OA
ATOM     26  C25 UNL     1      22.247  -7.011 -45.478  0.00  0.00    +0.000 A 
ATOM     27  C26 UNL     1      21.513  -7.065 -46.666  0.00  0.00    +0.000 A 
BRANCH  12  29
ATOM     28  C1  UNL     1      18.024  -7.039 -48.004  0.00  0.00    +0.000 C 
ATOM     29  O1  UNL     1      19.441  -6.959 -47.880  0.00  0.00    +0.000 OA
ENDBRANCH  12  29
BRANCH  14  30
ATOM     30  O2  UNL     1      19.507  -6.368 -43.038  0.00  0.00    +0.000 OA
ATOM     31  H5  UNL     1      18.652  -5.824 -43.009  0.00  0.00    +0.000 HD
ENDBRANCH  14  30
ENDBRANCH  11  21
ENDBRANCH   1  11
BRANCH   3  32
ATOM     32  C12 UNL     1      30.705  -7.388 -40.488  0.00  0.00    +0.000 C 
BRANCH  32  33
ATOM     33  O7  UNL     1      31.867  -7.872 -39.866  0.00  0.00    +0.000 OA
ATOM     34  H11 UNL     1      31.758  -7.712 -38.892  0.00  0.00    +0.000 HD
ENDBRANCH  32  33
ENDBRANCH   3  32
BRANCH   6  35
ATOM     35  O10 UNL     1      27.050 -10.094 -38.547  0.00  0.00    +0.000 OA
BRANCH  35  36
ATOM     36  C16 UNL     1      26.643  -8.834 -38.029  0.00  0.00    +0.000 C 
ATOM     37  O11 UNL     1      27.444  -8.518 -36.897  0.00  0.00    +0.000 OA
ATOM     38  C17 UNL     1      26.960  -9.141 -35.725  0.00  0.00    +0.000 C 
ATOM     39  C18 UNL     1      28.043  -9.076 -34.649  0.00  0.00    +0.000 C 
ATOM     40  C19 UNL     1      25.664  -8.439 -35.257  0.00  0.00    +0.000 C 
ATOM     41  C20 UNL     1      24.778  -8.033 -36.470  0.00  0.00    +0.000 C 
ATOM     42  C21 UNL     1      25.119  -8.871 -37.722  0.00  0.00    +0.000 C 
BRANCH  40  43
ATOM     43  O12 UNL     1      24.956  -9.309 -34.410  0.00  0.00    +0.000 OA
ATOM     44  H23 UNL     1      25.604  -9.638 -33.732  0.00  0.00    +0.000 HD
ENDBRANCH  40  43
BRANCH  41  45
ATOM     45  O13 UNL     1      24.884  -6.656 -36.742  0.00  0.00    +0.000 OA
ATOM     46  H25 UNL     1      25.621  -6.524 -37.396  0.00  0.00    +0.000 HD
ENDBRANCH  41  45
BRANCH  42  47
ATOM     47  O14 UNL     1      24.399  -8.412 -38.838  0.00  0.00    +0.000 OA
ATOM     48  H27 UNL     1      25.054  -7.983 -39.446  0.00  0.00    +0.000 HD
ENDBRANCH  42  47
ENDBRANCH  35  36
ENDBRANCH   6  35
TORSDOF 13
ENDMDL
MODEL 9
REMARK VINA RESULT:    -5.633      2.353      5.318
REMARK INTER + INTRA:         -10.405
REMARK INTER:                  -8.664
REMARK INTRA:                  -1.741
REMARK UNBOUND:                -1.643
REMARK  Name = resultss/4CJN/ligands/lig_310_t1.pdb
REMARK  15 active torsions:
REMARK  status: ('A' for Active; 'I' for Inactive)
REMARK    1  A    between atoms: C1_1  and  O1_2
REMARK    2  A    between atoms: O1_2  and  C2_3
REMARK    3  A    between atoms: C4_5  and  O2_6
REMARK    4  A    between atoms: C9_13  and  O5_14
REMARK    5  A    between atoms: O5_14  and  C10_15
REMARK    6  A    between atoms: C11_17  and  C12_18
REMARK    7  A    between atoms: C12_18  and  O7_19
REMARK    8  A    between atoms: C13_20  and  O8_21
REMARK    9  A    between atoms: C14_22  and  O9_23
REMARK   10  A    between atoms: C15_24  and  O10_25
REMARK   11  A    between atoms: O10_25  and  C16_26
REMARK   12  A    between atoms: C17_28  and  C18_29
REMARK   13  A    between atoms: C19_30  and  O12_31
REMARK   14  A    between atoms: C20_32  and  O13_33
REMARK   15  A    between atoms: C21_34  and  O14_35
REMARK                            x       y       z     vdW  Elec       q    Type
REMARK                         _______ _______ _______ _____ _____    ______ ____
ROOT
ATOM      1  C10 UNL     1      26.094  -9.249 -35.615  0.00  0.00    +0.000 C 
ATOM      2  O6  UNL     1      24.856  -8.892 -35.020  0.00  0.00    +0.000 OA
ATOM      3  C11 UNL     1      25.009  -8.771 -33.615  0.00  0.00    +0.000 C 
ATOM      4  C13 UNL     1      25.873  -7.525 -33.259  0.00  0.00    +0.000 C 
ATOM      5  C14 UNL     1      26.651  -7.017 -34.493  0.00  0.00    +0.000 C 
ATOM      6  C15 UNL     1      27.209  -8.192 -35.318  0.00  0.00    +0.000 C 
ENDROOT
BRANCH   4   7
ATOM      7  O8  UNL     1      26.787  -7.849 -32.241  0.00  0.00    +0.000 OA
ATOM      8  H13 UNL     1      26.445  -8.672 -31.800  0.00  0.00    +0.000 HD
ENDBRANCH   4   7
BRANCH   5   9
ATOM      9  O9  UNL     1      25.804  -6.245 -35.309  0.00  0.00    +0.000 OA
ATOM     10  H15 UNL     1      26.078  -5.296 -35.192  0.00  0.00    +0.000 HD
ENDBRANCH   5   9
BRANCH   1  11
ATOM     11  O5  UNL     1      25.920  -9.313 -37.022  0.00  0.00    +0.000 OA
BRANCH  11  21
ATOM     12  C2  UNL     1      24.243  -7.534 -44.832  0.00  0.00    +0.000 A 
ATOM     13  C3  UNL     1      23.208  -6.816 -44.206  0.00  0.00    +0.000 A 
ATOM     14  C4  UNL     1      23.204  -6.627 -42.816  0.00  0.00    +0.000 A 
ATOM     15  C5  UNL     1      24.250  -7.165 -42.030  0.00  0.00    +0.000 A 
ATOM     16  C6  UNL     1      24.316  -7.018 -40.627  0.00  0.00    +0.000 A 
ATOM     17  O3  UNL     1      23.414  -6.390 -40.007  0.00  0.00    +0.000 OA
ATOM     18  C7  UNL     1      25.395  -7.584 -39.918  0.00  0.00    +0.000 A 
ATOM     19  C8  UNL     1      25.547  -7.465 -38.446  0.00  0.00    +0.000 C 
ATOM     20  O4  UNL     1      24.779  -6.718 -37.779  0.00  0.00    +0.000 OA
ATOM     21  C9  UNL     1      26.590  -8.266 -37.705  0.00  0.00    +0.000 C 
ATOM     22  C22 UNL     1      27.646  -8.845 -38.620  0.00  0.00    +0.000 C 
ATOM     23  C23 UNL     1      27.524  -8.885 -39.948  0.00  0.00    +0.000 C 
ATOM     24  C24 UNL     1      26.373  -8.285 -40.640  0.00  0.00    +0.000 A 
ATOM     25  O15 UNL     1      26.284  -8.405 -41.959  0.00  0.00    +0.000 OA
ATOM     26  C25 UNL     1      25.287  -7.886 -42.667  0.00  0.00    +0.000 A 
ATOM     27  C26 UNL     1      25.275  -8.062 -44.054  0.00  0.00    +0.000 A 
BRANCH  12  29
ATOM     28  C1  UNL     1      23.381  -7.148 -47.148  0.00  0.00    +0.000 C 
ATOM     29  O1  UNL     1      24.282  -7.743 -46.220  0.00  0.00    +0.000 OA
ENDBRANCH  12  29
BRANCH  14  30
ATOM     30  O2  UNL     1      22.163  -5.905 -42.228  0.00  0.00    +0.000 OA
ATOM     31  H5  UNL     1      21.692  -5.153 -42.717  0.00  0.00    +0.000 HD
ENDBRANCH  14  30
ENDBRANCH  11  21
ENDBRANCH   1  11
BRANCH   3  32
ATOM     32  C12 UNL     1      23.620  -8.678 -32.969  0.00  0.00    +0.000 C 
BRANCH  32  33
ATOM     33  O7  UNL     1      22.641  -9.195 -33.832  0.00  0.00    +0.000 OA
ATOM     34  H11 UNL     1      22.766  -8.747 -34.709  0.00  0.00    +0.000 HD
ENDBRANCH  32  33
ENDBRANCH   3  32
BRANCH   6  35
ATOM     35  O10 UNL     1      28.286  -8.777 -34.603  0.00  0.00    +0.000 OA
BRANCH  35  36
ATOM     36  C16 UNL     1      29.423  -7.925 -34.547  0.00  0.00    +0.000 C 
ATOM     37  O11 UNL     1      30.227  -8.151 -35.699  0.00  0.00    +0.000 OA
ATOM     38  C17 UNL     1      31.074  -9.270 -35.532  0.00  0.00    +0.000 C 
ATOM     39  C18 UNL     1      31.622  -9.680 -36.898  0.00  0.00    +0.000 C 
ATOM     40  C19 UNL     1      32.218  -8.919 -34.553  0.00  0.00    +0.000 C 
ATOM     41  C20 UNL     1      31.704  -8.022 -33.391  0.00  0.00    +0.000 C 
ATOM     42  C21 UNL     1      30.176  -8.158 -33.206  0.00  0.00    +0.000 C 
BRANCH  40  43
ATOM     43  O12 UNL     1      32.760 -10.111 -34.042  0.00  0.00    +0.000 OA
ATOM     44  H23 UNL     1      32.800 -10.754 -34.798  0.00  0.00    +0.000 HD
ENDBRANCH  40  43
BRANCH  41  45
ATOM     45  O13 UNL     1      32.069  -6.676 -33.583  0.00  0.00    +0.000 OA
ATOM     46  H25 UNL     1      31.481  -6.111 -33.015  0.00  0.00    +0.000 HD
ENDBRANCH  41  45
BRANCH  42  47
ATOM     47  O14 UNL     1      29.710  -7.254 -32.237  0.00  0.00    +0.000 OA
ATOM     48  H27 UNL     1      30.510  -6.890 -31.776  0.00  0.00    +0.000 HD
ENDBRANCH  42  47
ENDBRANCH  35  36
ENDBRANCH   6  35
TORSDOF 13
ENDMDL
