MODEL 1
REMARK VINA RESULT:    -6.685      0.000      0.000
REMARK INTER + INTRA:         -13.211
REMARK INTER:                 -11.766
REMARK INTRA:                  -1.445
REMARK UNBOUND:                -1.445
REMARK  Name = resultss/4CJN/ligands/lig_149_t0.pdb
REMARK  15 active torsions:
REMARK  status: ('A' for Active; 'I' for Inactive)
REMARK    1  A    between atoms: O1_1  and  C1_2
REMARK    2  A    between atoms: C1_2  and  C2_3
REMARK    3  A    between atoms: C3_4  and  O2_5
REMARK    4  A    between atoms: C4_6  and  O3_7
REMARK    5  A    between atoms: C5_8  and  O4_9
REMARK    6  A    between atoms: N1_11  and  C7_12
REMARK    7  A    between atoms: C7_12  and  C8_13
REMARK    8  A    between atoms: C8_13  and  C9_14
REMARK    9  A    between atoms: C9_14  and  C10_15
REMARK   10  A    between atoms: C10_15  and  C11_16
REMARK   11  A    between atoms: C11_16  and  O5_17
REMARK   12  A    between atoms: O5_17  and  C12_18
REMARK   13  A    between atoms: C12_18  and  C13_19
REMARK   14  A    between atoms: C16_22  and  C17_23
REMARK   15  A    between atoms: C24_30  and  C25_31
REMARK                            x       y       z     vdW  Elec       q    Type
REMARK                         _______ _______ _______ _____ _____    ______ ____
ROOT
ATOM      1  C10 UNL     1      25.251  -8.139 -38.649  0.00  0.00    +0.000 C 
ENDROOT
BRANCH   1   2
ATOM      2  C9  UNL     1      25.011  -7.065 -37.576  0.00  0.00    +0.000 C 
BRANCH   2   3
ATOM      3  C8  UNL     1      26.311  -6.609 -36.896  0.00  0.00    +0.000 C 
BRANCH   3   4
ATOM      4  C7  UNL     1      26.122  -6.288 -35.408  0.00  0.00    +0.000 C 
BRANCH   4  10
ATOM      5  C2  UNL     1      26.761  -7.311 -33.236  0.00  0.00    +0.000 C 
ATOM      6  C3  UNL     1      25.799  -8.541 -33.175  0.00  0.00    +0.000 C 
ATOM      7  C4  UNL     1      25.827  -9.401 -34.458  0.00  0.00    +0.000 C 
ATOM      8  C5  UNL     1      27.247  -9.488 -35.025  0.00  0.00    +0.000 C 
ATOM      9  C6  UNL     1      27.825  -8.088 -35.354  0.00  0.00    +0.000 C 
ATOM     10  N1  UNL     1      27.174  -6.973 -34.620  0.00  0.00    +0.000 NA
BRANCH   6  11
ATOM     11  O2  UNL     1      24.481  -8.107 -32.958  0.00  0.00    +0.000 OA
ATOM     12  H6  UNL     1      23.954  -8.906 -32.698  0.00  0.00    +0.000 HD
ENDBRANCH   6  11
BRANCH   7  13
ATOM     13  O3  UNL     1      25.365 -10.696 -34.173  0.00  0.00    +0.000 OA
ATOM     14  H8  UNL     1      25.787 -11.304 -34.834  0.00  0.00    +0.000 HD
ENDBRANCH   7  13
BRANCH   8  15
ATOM     15  O4  UNL     1      27.236 -10.285 -36.181  0.00  0.00    +0.000 OA
ATOM     16  H10 UNL     1      26.883  -9.717 -36.915  0.00  0.00    +0.000 HD
ENDBRANCH   8  15
BRANCH   5  17
ATOM     17  C1  UNL     1      28.009  -7.492 -32.347  0.00  0.00    +0.000 C 
BRANCH  17  18
ATOM     18  O1  UNL     1      27.634  -7.694 -31.008  0.00  0.00    +0.000 OA
ATOM     19  H1  UNL     1      28.413  -7.453 -30.444  0.00  0.00    +0.000 HD
ENDBRANCH  17  18
ENDBRANCH   5  17
ENDBRANCH   4  10
ENDBRANCH   3   4
ENDBRANCH   2   3
ENDBRANCH   1   2
BRANCH   1  20
ATOM     20  C11 UNL     1      25.381  -7.528 -40.053  0.00  0.00    +0.000 C 
BRANCH  20  21
ATOM     21  O5  UNL     1      26.641  -7.792 -40.646  0.00  0.00    +0.000 OA
BRANCH  21  22
ATOM     22  C12 UNL     1      26.510  -8.597 -41.802  0.00  0.00    +0.000 C 
BRANCH  22  23
ATOM     23  C13 UNL     1      27.809  -9.332 -42.036  0.00  0.00    +0.000 A 
ATOM     24  C14 UNL     1      28.680  -8.821 -43.012  0.00  0.00    +0.000 A 
ATOM     25  C15 UNL     1      29.890  -9.452 -43.294  0.00  0.00    +0.000 A 
ATOM     26  C16 UNL     1      30.260 -10.618 -42.611  0.00  0.00    +0.000 A 
ATOM     27  C23 UNL     1      29.388 -11.148 -41.647  0.00  0.00    +0.000 A 
ATOM     28  C24 UNL     1      28.149 -10.536 -41.360  0.00  0.00    +0.000 A 
BRANCH  26  29
ATOM     29  C17 UNL     1      31.554 -11.284 -42.910  0.00  0.00    +0.000 A 
ATOM     30  C18 UNL     1      31.597 -12.429 -43.728  0.00  0.00    +0.000 A 
ATOM     31  C19 UNL     1      32.818 -13.051 -44.011  0.00  0.00    +0.000 A 
ATOM     32  C20 UNL     1      34.004 -12.539 -43.483  0.00  0.00    +0.000 A 
ATOM     33  C21 UNL     1      33.974 -11.404 -42.670  0.00  0.00    +0.000 A 
ATOM     34  C22 UNL     1      32.758 -10.777 -42.384  0.00  0.00    +0.000 A 
ENDBRANCH  26  29
BRANCH  28  35
ATOM     35  C25 UNL     1      27.240 -11.149 -40.310  0.00  0.00    +0.000 C 
ATOM     36  F1  UNL     1      25.927 -11.112 -40.738  0.00  0.00    +0.000 F 
ATOM     37  F2  UNL     1      27.561 -12.473 -40.060  0.00  0.00    +0.000 F 
ATOM     38  F3  UNL     1      27.359 -10.444 -39.126  0.00  0.00    +0.000 F 
ENDBRANCH  28  35
ENDBRANCH  22  23
ENDBRANCH  21  22
ENDBRANCH  20  21
ENDBRANCH   1  20
TORSDOF 15
ENDMDL
MODEL 2
REMARK VINA RESULT:    -6.682      2.048      3.593
REMARK INTER + INTRA:         -13.205
REMARK INTER:                 -11.954
REMARK INTRA:                  -1.251
REMARK UNBOUND:                -1.445
REMARK  Name = resultss/4CJN/ligands/lig_149_t0.pdb
REMARK  15 active torsions:
REMARK  status: ('A' for Active; 'I' for Inactive)
REMARK    1  A    between atoms: O1_1  and  C1_2
REMARK    2  A    between atoms: C1_2  and  C2_3
REMARK    3  A    between atoms: C3_4  and  O2_5
REMARK    4  A    between atoms: C4_6  and  O3_7
REMARK    5  A    between atoms: C5_8  and  O4_9
REMARK    6  A    between atoms: N1_11  and  C7_12
REMARK    7  A    between atoms: C7_12  and  C8_13
REMARK    8  A    between atoms: C8_13  and  C9_14
REMARK    9  A    between atoms: C9_14  and  C10_15
REMARK   10  A    between atoms: C10_15  and  C11_16
REMARK   11  A    between atoms: C11_16  and  O5_17
REMARK   12  A    between atoms: O5_17  and  C12_18
REMARK   13  A    between atoms: C12_18  and  C13_19
REMARK   14  A    between atoms: C16_22  and  C17_23
REMARK   15  A    between atoms: C24_30  and  C25_31
REMARK                            x       y       z     vdW  Elec       q    Type
REMARK                         _______ _______ _______ _____ _____    ______ ____
ROOT
ATOM      1  C10 UNL     1      28.600 -10.255 -36.901  0.00  0.00    +0.000 C 
ENDROOT
BRANCH   1   2
ATOM      2  C9  UNL     1      29.606  -9.479 -36.035  0.00  0.00    +0.000 C 
BRANCH   2   3
ATOM      3  C8  UNL     1      29.108  -8.071 -35.671  0.00  0.00    +0.000 C 
BRANCH   3   4
ATOM      4  C7  UNL     1      27.977  -8.090 -34.636  0.00  0.00    +0.000 C 
BRANCH   4  10
ATOM      5  C2  UNL     1      25.792  -8.484 -35.750  0.00  0.00    +0.000 C 
ATOM      6  C3  UNL     1      24.987  -9.197 -34.615  0.00  0.00    +0.000 C 
ATOM      7  C4  UNL     1      25.029  -8.439 -33.270  0.00  0.00    +0.000 C 
ATOM      8  C5  UNL     1      24.978  -6.925 -33.496  0.00  0.00    +0.000 C 
ATOM      9  C6  UNL     1      26.153  -6.433 -34.378  0.00  0.00    +0.000 C 
ATOM     10  N1  UNL     1      26.759  -7.488 -35.229  0.00  0.00    +0.000 NA
BRANCH   6  11
ATOM     11  O2  UNL     1      25.491 -10.493 -34.413  0.00  0.00    +0.000 OA
ATOM     12  H6  UNL     1      26.285 -10.587 -35.000  0.00  0.00    +0.000 HD
ENDBRANCH   6  11
BRANCH   7  13
ATOM     13  O3  UNL     1      23.938  -8.823 -32.473  0.00  0.00    +0.000 OA
ATOM     14  H8  UNL     1      23.604  -9.683 -32.838  0.00  0.00    +0.000 HD
ENDBRANCH   7  13
BRANCH   8  15
ATOM     15  O4  UNL     1      25.006  -6.271 -32.253  0.00  0.00    +0.000 OA
ATOM     16  H10 UNL     1      24.065  -6.212 -31.941  0.00  0.00    +0.000 HD
ENDBRANCH   8  15
BRANCH   5  17
ATOM     17  C1  UNL     1      24.874  -7.823 -36.800  0.00  0.00    +0.000 C 
BRANCH  17  18
ATOM     18  O1  UNL     1      23.549  -8.263 -36.641  0.00  0.00    +0.000 OA
ATOM     19  H1  UNL     1      22.963  -7.599 -37.088  0.00  0.00    +0.000 HD
ENDBRANCH  17  18
ENDBRANCH   5  17
ENDBRANCH   4  10
ENDBRANCH   3   4
ENDBRANCH   2   3
ENDBRANCH   1   2
BRANCH   1  20
ATOM     20  C11 UNL     1      28.783  -9.957 -38.397  0.00  0.00    +0.000 C 
BRANCH  20  21
ATOM     21  O5  UNL     1      30.147  -9.924 -38.782  0.00  0.00    +0.000 OA
BRANCH  21  22
ATOM     22  C12 UNL     1      30.372  -8.975 -39.808  0.00  0.00    +0.000 C 
BRANCH  22  23
ATOM     23  C13 UNL     1      30.884  -9.693 -41.034  0.00  0.00    +0.000 A 
ATOM     24  C14 UNL     1      32.263  -9.947 -41.113  0.00  0.00    +0.000 A 
ATOM     25  C15 UNL     1      32.811 -10.592 -42.220  0.00  0.00    +0.000 A 
ATOM     26  C16 UNL     1      31.995 -10.996 -43.284  0.00  0.00    +0.000 A 
ATOM     27  C23 UNL     1      30.617 -10.730 -43.224  0.00  0.00    +0.000 A 
ATOM     28  C24 UNL     1      30.045 -10.060 -42.122  0.00  0.00    +0.000 A 
BRANCH  26  29
ATOM     29  C17 UNL     1      32.581 -11.689 -44.459  0.00  0.00    +0.000 A 
ATOM     30  C18 UNL     1      32.384 -13.071 -44.649  0.00  0.00    +0.000 A 
ATOM     31  C19 UNL     1      32.934 -13.719 -45.759  0.00  0.00    +0.000 A 
ATOM     32  C20 UNL     1      33.685 -12.999 -46.690  0.00  0.00    +0.000 A 
ATOM     33  C21 UNL     1      33.888 -11.629 -46.514  0.00  0.00    +0.000 A 
ATOM     34  C22 UNL     1      33.340 -10.974 -45.406  0.00  0.00    +0.000 A 
ENDBRANCH  26  29
BRANCH  28  35
ATOM     35  C25 UNL     1      28.550  -9.794 -42.105  0.00  0.00    +0.000 C 
ATOM     36  F1  UNL     1      27.913 -10.713 -41.294  0.00  0.00    +0.000 F 
ATOM     37  F2  UNL     1      28.258  -8.531 -41.616  0.00  0.00    +0.000 F 
ATOM     38  F3  UNL     1      28.048  -9.887 -43.391  0.00  0.00    +0.000 F 
ENDBRANCH  28  35
ENDBRANCH  22  23
ENDBRANCH  21  22
ENDBRANCH  20  21
ENDBRANCH   1  20
TORSDOF 15
ENDMDL
MODEL 3
REMARK VINA RESULT:    -6.613      2.106      3.168
REMARK INTER + INTRA:         -13.083
REMARK INTER:                 -11.392
REMARK INTRA:                  -1.692
REMARK UNBOUND:                -1.445
REMARK  Name = resultss/4CJN/ligands/lig_149_t0.pdb
REMARK  15 active torsions:
REMARK  status: ('A' for Active; 'I' for Inactive)
REMARK    1  A    between atoms: O1_1  and  C1_2
REMARK    2  A    between atoms: C1_2  and  C2_3
REMARK    3  A    between atoms: C3_4  and  O2_5
REMARK    4  A    between atoms: C4_6  and  O3_7
REMARK    5  A    between atoms: C5_8  and  O4_9
REMARK    6  A    between atoms: N1_11  and  C7_12
REMARK    7  A    between atoms: C7_12  and  C8_13
REMARK    8  A    between atoms: C8_13  and  C9_14
REMARK    9  A    between atoms: C9_14  and  C10_15
REMARK   10  A    between atoms: C10_15  and  C11_16
REMARK   11  A    between atoms: C11_16  and  O5_17
REMARK   12  A    between atoms: O5_17  and  C12_18
REMARK   13  A    between atoms: C12_18  and  C13_19
REMARK   14  A    between atoms: C16_22  and  C17_23
REMARK   15  A    between atoms: C24_30  and  C25_31
REMARK                            x       y       z     vdW  Elec       q    Type
REMARK                         _______ _______ _______ _____ _____    ______ ____
ROOT
ATOM      1  C10 UNL     1      27.639  -9.924 -38.082  0.00  0.00    +0.000 C 
ENDROOT
BRANCH   1   2
ATOM      2  C9  UNL     1      26.746  -8.975 -38.896  0.00  0.00    +0.000 C 
BRANCH   2   3
ATOM      3  C8  UNL     1      26.067  -7.909 -38.022  0.00  0.00    +0.000 C 
BRANCH   3   4
ATOM      4  C7  UNL     1      25.097  -8.510 -36.998  0.00  0.00    +0.000 C 
BRANCH   4  10
ATOM      5  C2  UNL     1      24.690  -8.427 -34.548  0.00  0.00    +0.000 C 
ATOM      6  C3  UNL     1      25.792  -9.400 -34.016  0.00  0.00    +0.000 C 
ATOM      7  C4  UNL     1      27.201  -9.085 -34.564  0.00  0.00    +0.000 C 
ATOM      8  C5  UNL     1      27.417  -7.573 -34.675  0.00  0.00    +0.000 C 
ATOM      9  C6  UNL     1      26.366  -6.906 -35.598  0.00  0.00    +0.000 C 
ATOM     10  N1  UNL     1      25.116  -7.690 -35.763  0.00  0.00    +0.000 NA
BRANCH   6  11
ATOM     11  O2  UNL     1      25.466 -10.723 -34.358  0.00  0.00    +0.000 OA
ATOM     12  H6  UNL     1      24.485 -10.749 -34.508  0.00  0.00    +0.000 HD
ENDBRANCH   6  11
BRANCH   7  13
ATOM     13  O3  UNL     1      28.176  -9.628 -33.712  0.00  0.00    +0.000 OA
ATOM     14  H8  UNL     1      28.974  -9.817 -34.271  0.00  0.00    +0.000 HD
ENDBRANCH   7  13
BRANCH   8  15
ATOM     15  O4  UNL     1      28.709  -7.325 -35.165  0.00  0.00    +0.000 OA
ATOM     16  H10 UNL     1      29.166  -8.205 -35.222  0.00  0.00    +0.000 HD
ENDBRANCH   8  15
BRANCH   5  17
ATOM     17  C1  UNL     1      24.212  -7.430 -33.472  0.00  0.00    +0.000 C 
BRANCH  17  18
ATOM     18  O1  UNL     1      23.571  -8.110 -32.423  0.00  0.00    +0.000 OA
ATOM     19  H1  UNL     1      22.657  -7.733 -32.343  0.00  0.00    +0.000 HD
ENDBRANCH  17  18
ENDBRANCH   5  17
ENDBRANCH   4  10
ENDBRANCH   3   4
ENDBRANCH   2   3
ENDBRANCH   1   2
BRANCH   1  20
ATOM     20  C11 UNL     1      29.079  -9.398 -37.966  0.00  0.00    +0.000 C 
BRANCH  20  21
ATOM     21  O5  UNL     1      29.951  -9.988 -38.915  0.00  0.00    +0.000 OA
BRANCH  21  22
ATOM     22  C12 UNL     1      30.466  -9.024 -39.814  0.00  0.00    +0.000 C 
BRANCH  22  23
ATOM     23  C13 UNL     1      30.976  -9.731 -41.048  0.00  0.00    +0.000 A 
ATOM     24  C14 UNL     1      32.356  -9.981 -41.133  0.00  0.00    +0.000 A 
ATOM     25  C15 UNL     1      32.902 -10.615 -42.246  0.00  0.00    +0.000 A 
ATOM     26  C16 UNL     1      32.084 -11.012 -43.312  0.00  0.00    +0.000 A 
ATOM     27  C23 UNL     1      30.706 -10.749 -43.247  0.00  0.00    +0.000 A 
ATOM     28  C24 UNL     1      30.135 -10.090 -42.137  0.00  0.00    +0.000 A 
BRANCH  26  29
ATOM     29  C17 UNL     1      32.670 -11.693 -44.494  0.00  0.00    +0.000 A 
ATOM     30  C18 UNL     1      33.322 -10.952 -45.499  0.00  0.00    +0.000 A 
ATOM     31  C19 UNL     1      33.876 -11.597 -46.608  0.00  0.00    +0.000 A 
ATOM     32  C20 UNL     1      33.787 -12.985 -46.729  0.00  0.00    +0.000 A 
ATOM     33  C21 UNL     1      33.143 -13.732 -45.740  0.00  0.00    +0.000 A 
ATOM     34  C22 UNL     1      32.587 -13.093 -44.627  0.00  0.00    +0.000 A 
ENDBRANCH  26  29
BRANCH  28  35
ATOM     35  C25 UNL     1      28.640  -9.827 -42.115  0.00  0.00    +0.000 C 
ATOM     36  F1  UNL     1      28.012 -10.725 -41.273  0.00  0.00    +0.000 F 
ATOM     37  F2  UNL     1      28.349  -8.552 -41.658  0.00  0.00    +0.000 F 
ATOM     38  F3  UNL     1      28.127  -9.957 -43.393  0.00  0.00    +0.000 F 
ENDBRANCH  28  35
ENDBRANCH  22  23
ENDBRANCH  21  22
ENDBRANCH  20  21
ENDBRANCH   1  20
TORSDOF 15
ENDMDL
MODEL 4
REMARK VINA RESULT:    -6.570      2.197      3.516
REMARK INTER + INTRA:         -13.008
REMARK INTER:                 -10.995
REMARK INTRA:                  -2.012
REMARK UNBOUND:                -1.445
REMARK  Name = resultss/4CJN/ligands/lig_149_t0.pdb
REMARK  15 active torsions:
REMARK  status: ('A' for Active; 'I' for Inactive)
REMARK    1  A    between atoms: O1_1  and  C1_2
REMARK    2  A    between atoms: C1_2  and  C2_3
REMARK    3  A    between atoms: C3_4  and  O2_5
REMARK    4  A    between atoms: C4_6  and  O3_7
REMARK    5  A    between atoms: C5_8  and  O4_9
REMARK    6  A    between atoms: N1_11  and  C7_12
REMARK    7  A    between atoms: C7_12  and  C8_13
REMARK    8  A    between atoms: C8_13  and  C9_14
REMARK    9  A    between atoms: C9_14  and  C10_15
REMARK   10  A    between atoms: C10_15  and  C11_16
REMARK   11  A    between atoms: C11_16  and  O5_17
REMARK   12  A    between atoms: O5_17  and  C12_18
REMARK   13  A    between atoms: C12_18  and  C13_19
REMARK   14  A    between atoms: C16_22  and  C17_23
REMARK   15  A    between atoms: C24_30  and  C25_31
REMARK                            x       y       z     vdW  Elec       q    Type
REMARK                         _______ _______ _______ _____ _____    ______ ____
ROOT
ATOM      1  C10 UNL     1      29.383  -8.112 -38.684  0.00  0.00    +0.000 C 
ENDROOT
BRANCH   1   2
ATOM      2  C9  UNL     1      29.548  -7.085 -37.553  0.00  0.00    +0.000 C 
BRANCH   2   3
ATOM      3  C8  UNL     1      28.246  -6.330 -37.246  0.00  0.00    +0.000 C 
BRANCH   3   4
ATOM      4  C7  UNL     1      27.612  -6.754 -35.916  0.00  0.00    +0.000 C 
BRANCH   4  10
ATOM      5  C2  UNL     1      25.844  -8.117 -37.008  0.00  0.00    +0.000 C 
ATOM      6  C3  UNL     1      26.047  -9.503 -36.314  0.00  0.00    +0.000 C 
ATOM      7  C4  UNL     1      26.094  -9.413 -34.773  0.00  0.00    +0.000 C 
ATOM      8  C5  UNL     1      25.102  -8.368 -34.258  0.00  0.00    +0.000 C 
ATOM      9  C6  UNL     1      25.387  -6.962 -34.845  0.00  0.00    +0.000 C 
ATOM     10  N1  UNL     1      26.160  -6.977 -36.112  0.00  0.00    +0.000 NA
BRANCH   6  11
ATOM     11  O2  UNL     1      27.240 -10.093 -36.764  0.00  0.00    +0.000 OA
ATOM     12  H6  UNL     1      27.853  -9.352 -37.010  0.00  0.00    +0.000 HD
ENDBRANCH   6  11
BRANCH   7  13
ATOM     13  O3  UNL     1      25.780 -10.663 -34.214  0.00  0.00    +0.000 OA
ATOM     14  H8  UNL     1      24.922 -10.952 -34.620  0.00  0.00    +0.000 HD
ENDBRANCH   7  13
BRANCH   8  15
ATOM     15  O4  UNL     1      25.164  -8.322 -32.855  0.00  0.00    +0.000 OA
ATOM     16  H10 UNL     1      24.426  -8.895 -32.518  0.00  0.00    +0.000 HD
ENDBRANCH   8  15
BRANCH   5  17
ATOM     17  C1  UNL     1      24.425  -7.949 -37.590  0.00  0.00    +0.000 C 
BRANCH  17  18
ATOM     18  O1  UNL     1      24.283  -8.705 -38.765  0.00  0.00    +0.000 OA
ATOM     19  H1  UNL     1      24.520  -9.642 -38.542  0.00  0.00    +0.000 HD
ENDBRANCH  17  18
ENDBRANCH   5  17
ENDBRANCH   4  10
ENDBRANCH   3   4
ENDBRANCH   2   3
ENDBRANCH   1   2
BRANCH   1  20
ATOM     20  C11 UNL     1      28.143  -7.822 -39.545  0.00  0.00    +0.000 C 
BRANCH  20  21
ATOM     21  O5  UNL     1      27.323  -8.965 -39.719  0.00  0.00    +0.000 OA
BRANCH  21  22
ATOM     22  C12 UNL     1      27.005  -9.171 -41.082  0.00  0.00    +0.000 C 
BRANCH  22  23
ATOM     23  C13 UNL     1      28.226  -9.704 -41.793  0.00  0.00    +0.000 A 
ATOM     24  C14 UNL     1      28.883 -10.808 -41.225  0.00  0.00    +0.000 A 
ATOM     25  C15 UNL     1      30.024 -11.346 -41.816  0.00  0.00    +0.000 A 
ATOM     26  C16 UNL     1      30.546 -10.789 -42.990  0.00  0.00    +0.000 A 
ATOM     27  C23 UNL     1      29.910  -9.672 -43.557  0.00  0.00    +0.000 A 
ATOM     28  C24 UNL     1      28.765  -9.100 -42.963  0.00  0.00    +0.000 A 
BRANCH  26  29
ATOM     29  C17 UNL     1      31.759 -11.370 -43.621  0.00  0.00    +0.000 A 
ATOM     30  C18 UNL     1      32.327 -12.559 -43.123  0.00  0.00    +0.000 A 
ATOM     31  C19 UNL     1      33.466 -13.105 -43.722  0.00  0.00    +0.000 A 
ATOM     32  C20 UNL     1      34.051 -12.474 -44.821  0.00  0.00    +0.000 A 
ATOM     33  C21 UNL     1      33.498 -11.294 -45.325  0.00  0.00    +0.000 A 
ATOM     34  C22 UNL     1      32.359 -10.743 -44.731  0.00  0.00    +0.000 A 
ENDBRANCH  26  29
BRANCH  28  35
ATOM     35  C25 UNL     1      28.114  -7.892 -43.612  0.00  0.00    +0.000 C 
ATOM     36  F1  UNL     1      28.726  -7.612 -44.819  0.00  0.00    +0.000 F 
ATOM     37  F2  UNL     1      26.769  -8.106 -43.865  0.00  0.00    +0.000 F 
ATOM     38  F3  UNL     1      28.227  -6.798 -42.773  0.00  0.00    +0.000 F 
ENDBRANCH  28  35
ENDBRANCH  22  23
ENDBRANCH  21  22
ENDBRANCH  20  21
ENDBRANCH   1  20
TORSDOF 15
ENDMDL
MODEL 5
REMARK VINA RESULT:    -6.566      2.580      3.923
REMARK INTER + INTRA:         -13.001
REMARK INTER:                 -11.509
REMARK INTRA:                  -1.492
REMARK UNBOUND:                -1.445
REMARK  Name = resultss/4CJN/ligands/lig_149_t0.pdb
REMARK  15 active torsions:
REMARK  status: ('A' for Active; 'I' for Inactive)
REMARK    1  A    between atoms: O1_1  and  C1_2
REMARK    2  A    between atoms: C1_2  and  C2_3
REMARK    3  A    between atoms: C3_4  and  O2_5
REMARK    4  A    between atoms: C4_6  and  O3_7
REMARK    5  A    between atoms: C5_8  and  O4_9
REMARK    6  A    between atoms: N1_11  and  C7_12
REMARK    7  A    between atoms: C7_12  and  C8_13
REMARK    8  A    between atoms: C8_13  and  C9_14
REMARK    9  A    between atoms: C9_14  and  C10_15
REMARK   10  A    between atoms: C10_15  and  C11_16
REMARK   11  A    between atoms: C11_16  and  O5_17
REMARK   12  A    between atoms: O5_17  and  C12_18
REMARK   13  A    between atoms: C12_18  and  C13_19
REMARK   14  A    between atoms: C16_22  and  C17_23
REMARK   15  A    between atoms: C24_30  and  C25_31
REMARK                            x       y       z     vdW  Elec       q    Type
REMARK                         _______ _______ _______ _____ _____    ______ ____
ROOT
ATOM      1  C10 UNL     1      29.420 -10.185 -37.101  0.00  0.00    +0.000 C 
ENDROOT
BRANCH   1   2
ATOM      2  C9  UNL     1      29.097  -9.648 -35.698  0.00  0.00    +0.000 C 
BRANCH   2   3
ATOM      3  C8  UNL     1      28.794  -8.141 -35.697  0.00  0.00    +0.000 C 
BRANCH   3   4
ATOM      4  C7  UNL     1      27.796  -7.736 -34.606  0.00  0.00    +0.000 C 
BRANCH   4  10
ATOM      5  C2  UNL     1      25.711  -8.437 -35.761  0.00  0.00    +0.000 C 
ATOM      6  C3  UNL     1      24.980  -9.232 -34.631  0.00  0.00    +0.000 C 
ATOM      7  C4  UNL     1      24.888  -8.454 -33.300  0.00  0.00    +0.000 C 
ATOM      8  C5  UNL     1      24.641  -6.965 -33.555  0.00  0.00    +0.000 C 
ATOM      9  C6  UNL     1      25.762  -6.334 -34.420  0.00  0.00    +0.000 C 
ATOM     10  N1  UNL     1      26.524  -7.312 -35.237  0.00  0.00    +0.000 NA
BRANCH   6  11
ATOM     11  O2  UNL     1      25.647 -10.446 -34.393  0.00  0.00    +0.000 OA
ATOM     12  H6  UNL     1      26.492 -10.417 -34.912  0.00  0.00    +0.000 HD
ENDBRANCH   6  11
BRANCH   7  13
ATOM     13  O3  UNL     1      23.839  -8.968 -32.520  0.00  0.00    +0.000 OA
ATOM     14  H8  UNL     1      23.589  -9.844 -32.915  0.00  0.00    +0.000 HD
ENDBRANCH   7  13
BRANCH   8  15
ATOM     15  O4  UNL     1      24.551  -6.293 -32.325  0.00  0.00    +0.000 OA
ATOM     16  H10 UNL     1      23.661  -5.853 -32.305  0.00  0.00    +0.000 HD
ENDBRANCH   8  15
BRANCH   5  17
ATOM     17  C1  UNL     1      24.740  -7.921 -36.843  0.00  0.00    +0.000 C 
BRANCH  17  18
ATOM     18  O1  UNL     1      23.412  -8.223 -36.496  0.00  0.00    +0.000 OA
ATOM     19  H1  UNL     1      23.290  -9.200 -36.619  0.00  0.00    +0.000 HD
ENDBRANCH  17  18
ENDBRANCH   5  17
ENDBRANCH   4  10
ENDBRANCH   3   4
ENDBRANCH   2   3
ENDBRANCH   1   2
BRANCH   1  20
ATOM     20  C11 UNL     1      28.147 -10.424 -37.930  0.00  0.00    +0.000 C 
BRANCH  20  21
ATOM     21  O5  UNL     1      28.373 -10.289 -39.322  0.00  0.00    +0.000 OA
BRANCH  21  22
ATOM     22  C12 UNL     1      29.472  -9.439 -39.589  0.00  0.00    +0.000 C 
BRANCH  22  23
ATOM     23  C13 UNL     1      30.246  -9.995 -40.761  0.00  0.00    +0.000 A 
ATOM     24  C14 UNL     1      29.548 -10.789 -41.687  0.00  0.00    +0.000 A 
ATOM     25  C15 UNL     1      30.198 -11.348 -42.785  0.00  0.00    +0.000 A 
ATOM     26  C16 UNL     1      31.568 -11.135 -42.985  0.00  0.00    +0.000 A 
ATOM     27  C23 UNL     1      32.280 -10.360 -42.055  0.00  0.00    +0.000 A 
ATOM     28  C24 UNL     1      31.645  -9.801 -40.926  0.00  0.00    +0.000 A 
BRANCH  26  29
ATOM     29  C17 UNL     1      32.255 -11.728 -44.161  0.00  0.00    +0.000 A 
ATOM     30  C18 UNL     1      32.132 -13.102 -44.446  0.00  0.00    +0.000 A 
ATOM     31  C19 UNL     1      32.777 -13.655 -45.556  0.00  0.00    +0.000 A 
ATOM     32  C20 UNL     1      33.550 -12.848 -46.392  0.00  0.00    +0.000 A 
ATOM     33  C21 UNL     1      33.680 -11.484 -46.121  0.00  0.00    +0.000 A 
ATOM     34  C22 UNL     1      33.037 -10.924 -45.013  0.00  0.00    +0.000 A 
ENDBRANCH  26  29
BRANCH  28  35
ATOM     35  C25 UNL     1      32.458  -8.972 -39.948  0.00  0.00    +0.000 C 
ATOM     36  F1  UNL     1      32.022  -7.661 -39.958  0.00  0.00    +0.000 F 
ATOM     37  F2  UNL     1      32.340  -9.443 -38.651  0.00  0.00    +0.000 F 
ATOM     38  F3  UNL     1      33.795  -9.015 -40.303  0.00  0.00    +0.000 F 
ENDBRANCH  28  35
ENDBRANCH  22  23
ENDBRANCH  21  22
ENDBRANCH  20  21
ENDBRANCH   1  20
TORSDOF 15
ENDMDL
MODEL 6
REMARK VINA RESULT:    -6.546      1.720      2.216
REMARK INTER + INTRA:         -12.965
REMARK INTER:                 -11.817
REMARK INTRA:                  -1.148
REMARK UNBOUND:                -1.445
REMARK  Name = resultss/4CJN/ligands/lig_149_t0.pdb
REMARK  15 active torsions:
REMARK  status: ('A' for Active; 'I' for Inactive)
REMARK    1  A    between atoms: O1_1  and  C1_2
REMARK    2  A    between atoms: C1_2  and  C2_3
REMARK    3  A    between atoms: C3_4  and  O2_5
REMARK    4  A    between atoms: C4_6  and  O3_7
REMARK    5  A    between atoms: C5_8  and  O4_9
REMARK    6  A    between atoms: N1_11  and  C7_12
REMARK    7  A    between atoms: C7_12  and  C8_13
REMARK    8  A    between atoms: C8_13  and  C9_14
REMARK    9  A    between atoms: C9_14  and  C10_15
REMARK   10  A    between atoms: C10_15  and  C11_16
REMARK   11  A    between atoms: C11_16  and  O5_17
REMARK   12  A    between atoms: O5_17  and  C12_18
REMARK   13  A    between atoms: C12_18  and  C13_19
REMARK   14  A    between atoms: C16_22  and  C17_23
REMARK   15  A    between atoms: C24_30  and  C25_31
REMARK                            x       y       z     vdW  Elec       q    Type
REMARK                         _______ _______ _______ _____ _____    ______ ____
ROOT
ATOM      1  C10 UNL     1      24.986  -8.500 -38.129  0.00  0.00    +0.000 C 
ENDROOT
BRANCH   1   2
ATOM      2  C9  UNL     1      24.980  -7.080 -37.541  0.00  0.00    +0.000 C 
BRANCH   2   3
ATOM      3  C8  UNL     1      26.324  -6.701 -36.899  0.00  0.00    +0.000 C 
BRANCH   3   4
ATOM      4  C7  UNL     1      26.188  -6.313 -35.421  0.00  0.00    +0.000 C 
BRANCH   4  10
ATOM      5  C2  UNL     1      26.791  -7.367 -33.253  0.00  0.00    +0.000 C 
ATOM      6  C3  UNL     1      25.811  -8.585 -33.215  0.00  0.00    +0.000 C 
ATOM      7  C4  UNL     1      25.839  -9.431 -34.507  0.00  0.00    +0.000 C 
ATOM      8  C5  UNL     1      27.264  -9.533 -35.060  0.00  0.00    +0.000 C 
ATOM      9  C6  UNL     1      27.864  -8.138 -35.369  0.00  0.00    +0.000 C 
ATOM     10  N1  UNL     1      27.222  -7.022 -34.630  0.00  0.00    +0.000 NA
BRANCH   6  11
ATOM     11  O2  UNL     1      24.496  -8.134 -33.007  0.00  0.00    +0.000 OA
ATOM     12  H6  UNL     1      24.472  -7.727 -32.101  0.00  0.00    +0.000 HD
ENDBRANCH   6  11
BRANCH   7  13
ATOM     13  O3  UNL     1      25.356 -10.723 -34.240  0.00  0.00    +0.000 OA
ATOM     14  H8  UNL     1      24.392 -10.723 -34.478  0.00  0.00    +0.000 HD
ENDBRANCH   7  13
BRANCH   8  15
ATOM     15  O4  UNL     1      27.253 -10.318 -36.224  0.00  0.00    +0.000 OA
ATOM     16  H10 UNL     1      27.572  -9.736 -36.963  0.00  0.00    +0.000 HD
ENDBRANCH   8  15
BRANCH   5  17
ATOM     17  C1  UNL     1      28.027  -7.575 -32.354  0.00  0.00    +0.000 C 
BRANCH  17  18
ATOM     18  O1  UNL     1      27.662  -7.528 -30.998  0.00  0.00    +0.000 OA
ATOM     19  H1  UNL     1      27.780  -8.441 -30.629  0.00  0.00    +0.000 HD
ENDBRANCH  17  18
ENDBRANCH   5  17
ENDBRANCH   4  10
ENDBRANCH   3   4
ENDBRANCH   2   3
ENDBRANCH   1   2
BRANCH   1  20
ATOM     20  C11 UNL     1      24.999  -8.484 -39.665  0.00  0.00    +0.000 C 
BRANCH  20  21
ATOM     21  O5  UNL     1      26.091  -9.206 -40.207  0.00  0.00    +0.000 OA
BRANCH  21  22
ATOM     22  C12 UNL     1      26.398  -8.774 -41.519  0.00  0.00    +0.000 C 
BRANCH  22  23
ATOM     23  C13 UNL     1      27.711  -9.390 -41.941  0.00  0.00    +0.000 A 
ATOM     24  C14 UNL     1      28.230 -10.428 -41.150  0.00  0.00    +0.000 A 
ATOM     25  C15 UNL     1      29.442 -11.035 -41.468  0.00  0.00    +0.000 A 
ATOM     26  C16 UNL     1      30.176 -10.616 -42.585  0.00  0.00    +0.000 A 
ATOM     27  C23 UNL     1      29.678  -9.564 -43.372  0.00  0.00    +0.000 A 
ATOM     28  C24 UNL     1      28.462  -8.923 -43.056  0.00  0.00    +0.000 A 
BRANCH  26  29
ATOM     29  C17 UNL     1      31.466 -11.270 -42.925  0.00  0.00    +0.000 A 
ATOM     30  C18 UNL     1      31.496 -12.400 -43.765  0.00  0.00    +0.000 A 
ATOM     31  C19 UNL     1      32.712 -13.010 -44.086  0.00  0.00    +0.000 A 
ATOM     32  C20 UNL     1      33.909 -12.502 -43.576  0.00  0.00    +0.000 A 
ATOM     33  C21 UNL     1      33.892 -11.382 -42.742  0.00  0.00    +0.000 A 
ATOM     34  C22 UNL     1      32.679 -10.767 -42.417  0.00  0.00    +0.000 A 
ENDBRANCH  26  29
BRANCH  28  35
ATOM     35  C25 UNL     1      27.965  -7.790 -43.937  0.00  0.00    +0.000 C 
ATOM     36  F1  UNL     1      28.069  -6.586 -43.268  0.00  0.00    +0.000 F 
ATOM     37  F2  UNL     1      28.703  -7.685 -45.104  0.00  0.00    +0.000 F 
ATOM     38  F3  UNL     1      26.644  -8.015 -44.279  0.00  0.00    +0.000 F 
ENDBRANCH  28  35
ENDBRANCH  22  23
ENDBRANCH  21  22
ENDBRANCH  20  21
ENDBRANCH   1  20
TORSDOF 15
ENDMDL
MODEL 7
REMARK VINA RESULT:    -6.391      2.516      4.882
REMARK INTER + INTRA:         -12.693
REMARK INTER:                 -10.611
REMARK INTRA:                  -2.082
REMARK UNBOUND:                -1.445
REMARK  Name = resultss/4CJN/ligands/lig_149_t0.pdb
REMARK  15 active torsions:
REMARK  status: ('A' for Active; 'I' for Inactive)
REMARK    1  A    between atoms: O1_1  and  C1_2
REMARK    2  A    between atoms: C1_2  and  C2_3
REMARK    3  A    between atoms: C3_4  and  O2_5
REMARK    4  A    between atoms: C4_6  and  O3_7
REMARK    5  A    between atoms: C5_8  and  O4_9
REMARK    6  A    between atoms: N1_11  and  C7_12
REMARK    7  A    between atoms: C7_12  and  C8_13
REMARK    8  A    between atoms: C8_13  and  C9_14
REMARK    9  A    between atoms: C9_14  and  C10_15
REMARK   10  A    between atoms: C10_15  and  C11_16
REMARK   11  A    between atoms: C11_16  and  O5_17
REMARK   12  A    between atoms: O5_17  and  C12_18
REMARK   13  A    between atoms: C12_18  and  C13_19
REMARK   14  A    between atoms: C16_22  and  C17_23
REMARK   15  A    between atoms: C24_30  and  C25_31
REMARK                            x       y       z     vdW  Elec       q    Type
REMARK                         _______ _______ _______ _____ _____    ______ ____
ROOT
ATOM      1  C10 UNL     1      30.168  -9.204 -37.189  0.00  0.00    +0.000 C 
ENDROOT
BRANCH   1   2
ATOM      2  C9  UNL     1      30.410  -7.692 -37.060  0.00  0.00    +0.000 C 
BRANCH   2   3
ATOM      3  C8  UNL     1      29.105  -6.895 -36.908  0.00  0.00    +0.000 C 
BRANCH   3   4
ATOM      4  C7  UNL     1      28.371  -7.203 -35.597  0.00  0.00    +0.000 C 
BRANCH   4  10
ATOM      5  C2  UNL     1      26.305  -7.854 -36.814  0.00  0.00    +0.000 C 
ATOM      6  C3  UNL     1      26.100  -9.322 -36.318  0.00  0.00    +0.000 C 
ATOM      7  C4  UNL     1      26.152  -9.459 -34.780  0.00  0.00    +0.000 C 
ATOM      8  C5  UNL     1      25.488  -8.256 -34.104  0.00  0.00    +0.000 C 
ATOM      9  C6  UNL     1      26.164  -6.921 -34.505  0.00  0.00    +0.000 C 
ATOM     10  N1  UNL     1      26.917  -6.981 -35.783  0.00  0.00    +0.000 NA
BRANCH   6  11
ATOM     11  O2  UNL     1      27.085 -10.156 -36.873  0.00  0.00    +0.000 OA
ATOM     12  H6  UNL     1      27.803 -10.246 -36.193  0.00  0.00    +0.000 HD
ENDBRANCH   6  11
BRANCH   7  13
ATOM     13  O3  UNL     1      25.491 -10.633 -34.384  0.00  0.00    +0.000 OA
ATOM     14  H8  UNL     1      25.710 -10.777 -33.427  0.00  0.00    +0.000 HD
ENDBRANCH   7  13
BRANCH   8  15
ATOM     15  O4  UNL     1      25.543  -8.421 -32.710  0.00  0.00    +0.000 OA
ATOM     16  H10 UNL     1      26.151  -9.186 -32.537  0.00  0.00    +0.000 HD
ENDBRANCH   8  15
BRANCH   5  17
ATOM     17  C1  UNL     1      24.999  -7.217 -37.332  0.00  0.00    +0.000 C 
BRANCH  17  18
ATOM     18  O1  UNL     1      23.954  -8.157 -37.316  0.00  0.00    +0.000 OA
ATOM     19  H1  UNL     1      23.903  -8.556 -38.223  0.00  0.00    +0.000 HD
ENDBRANCH  17  18
ENDBRANCH   5  17
ENDBRANCH   4  10
ENDBRANCH   3   4
ENDBRANCH   2   3
ENDBRANCH   1   2
BRANCH   1  20
ATOM     20  C11 UNL     1      30.111  -9.652 -38.658  0.00  0.00    +0.000 C 
BRANCH  20  21
ATOM     21  O5  UNL     1      28.836  -9.442 -39.241  0.00  0.00    +0.000 OA
BRANCH  21  22
ATOM     22  C12 UNL     1      28.573 -10.385 -40.263  0.00  0.00    +0.000 C 
BRANCH  22  23
ATOM     23  C13 UNL     1      28.140  -9.648 -41.508  0.00  0.00    +0.000 A 
ATOM     24  C14 UNL     1      29.144  -9.109 -42.330  0.00  0.00    +0.000 A 
ATOM     25  C15 UNL     1      28.821  -8.405 -43.487  0.00  0.00    +0.000 A 
ATOM     26  C16 UNL     1      27.483  -8.211 -43.853  0.00  0.00    +0.000 A 
ATOM     27  C23 UNL     1      26.470  -8.728 -43.028  0.00  0.00    +0.000 A 
ATOM     28  C24 UNL     1      26.774  -9.427 -41.841  0.00  0.00    +0.000 A 
BRANCH  26  29
ATOM     29  C17 UNL     1      27.143  -7.465 -45.091  0.00  0.00    +0.000 A 
ATOM     30  C18 UNL     1      25.813  -7.084 -45.356  0.00  0.00    +0.000 A 
ATOM     31  C19 UNL     1      25.498  -6.377 -46.520  0.00  0.00    +0.000 A 
ATOM     32  C20 UNL     1      26.501  -6.042 -47.431  0.00  0.00    +0.000 A 
ATOM     33  C21 UNL     1      27.824  -6.414 -47.180  0.00  0.00    +0.000 A 
ATOM     34  C22 UNL     1      28.146  -7.121 -46.017  0.00  0.00    +0.000 A 
ENDBRANCH  26  29
BRANCH  28  35
ATOM     35  C25 UNL     1      25.644  -9.965 -40.982  0.00  0.00    +0.000 C 
ATOM     36  F1  UNL     1      25.702 -11.344 -40.928  0.00  0.00    +0.000 F 
ATOM     37  F2  UNL     1      25.717  -9.493 -39.682  0.00  0.00    +0.000 F 
ATOM     38  F3  UNL     1      24.430  -9.575 -41.517  0.00  0.00    +0.000 F 
ENDBRANCH  28  35
ENDBRANCH  22  23
ENDBRANCH  21  22
ENDBRANCH  20  21
ENDBRANCH   1  20
TORSDOF 15
ENDMDL
MODEL 8
REMARK VINA RESULT:    -6.355      1.183      1.741
REMARK INTER + INTRA:         -12.629
REMARK INTER:                 -10.902
REMARK INTRA:                  -1.726
REMARK UNBOUND:                -1.445
REMARK  Name = resultss/4CJN/ligands/lig_149_t0.pdb
REMARK  15 active torsions:
REMARK  status: ('A' for Active; 'I' for Inactive)
REMARK    1  A    between atoms: O1_1  and  C1_2
REMARK    2  A    between atoms: C1_2  and  C2_3
REMARK    3  A    between atoms: C3_4  and  O2_5
REMARK    4  A    between atoms: C4_6  and  O3_7
REMARK    5  A    between atoms: C5_8  and  O4_9
REMARK    6  A    between atoms: N1_11  and  C7_12
REMARK    7  A    between atoms: C7_12  and  C8_13
REMARK    8  A    between atoms: C8_13  and  C9_14
REMARK    9  A    between atoms: C9_14  and  C10_15
REMARK   10  A    between atoms: C10_15  and  C11_16
REMARK   11  A    between atoms: C11_16  and  O5_17
REMARK   12  A    between atoms: O5_17  and  C12_18
REMARK   13  A    between atoms: C12_18  and  C13_19
REMARK   14  A    between atoms: C16_22  and  C17_23
REMARK   15  A    between atoms: C24_30  and  C25_31
REMARK                            x       y       z     vdW  Elec       q    Type
REMARK                         _______ _______ _______ _____ _____    ______ ____
ROOT
ATOM      1  C10 UNL     1      25.296  -6.516 -39.614  0.00  0.00    +0.000 C 
ENDROOT
BRANCH   1   2
ATOM      2  C9  UNL     1      26.693  -6.419 -38.979  0.00  0.00    +0.000 C 
BRANCH   2   3
ATOM      3  C8  UNL     1      26.637  -6.232 -37.454  0.00  0.00    +0.000 C 
BRANCH   3   4
ATOM      4  C7  UNL     1      27.555  -7.204 -36.703  0.00  0.00    +0.000 C 
BRANCH   4  10
ATOM      5  C2  UNL     1      25.935  -6.990 -34.831  0.00  0.00    +0.000 C 
ATOM      6  C3  UNL     1      25.257  -8.398 -34.842  0.00  0.00    +0.000 C 
ATOM      7  C4  UNL     1      26.272  -9.563 -34.840  0.00  0.00    +0.000 C 
ATOM      8  C5  UNL     1      27.479  -9.232 -33.958  0.00  0.00    +0.000 C 
ATOM      9  C6  UNL     1      28.203  -7.945 -34.429  0.00  0.00    +0.000 C 
ATOM     10  N1  UNL     1      27.359  -7.035 -35.243  0.00  0.00    +0.000 NA
BRANCH   6  11
ATOM     11  O2  UNL     1      24.435  -8.525 -35.974  0.00  0.00    +0.000 OA
ATOM     12  H6  UNL     1      24.482  -9.475 -36.259  0.00  0.00    +0.000 HD
ENDBRANCH   6  11
BRANCH   7  13
ATOM     13  O3  UNL     1      25.656 -10.730 -34.359  0.00  0.00    +0.000 OA
ATOM     14  H8  UNL     1      26.033 -10.903 -33.458  0.00  0.00    +0.000 HD
ENDBRANCH   7  13
BRANCH   8  15
ATOM     15  O4  UNL     1      28.373 -10.316 -33.971  0.00  0.00    +0.000 OA
ATOM     16  H10 UNL     1      28.537 -10.561 -33.023  0.00  0.00    +0.000 HD
ENDBRANCH   8  15
BRANCH   5  17
ATOM     17  C1  UNL     1      25.807  -6.283 -33.465  0.00  0.00    +0.000 C 
BRANCH  17  18
ATOM     18  O1  UNL     1      24.884  -6.956 -32.648  0.00  0.00    +0.000 OA
ATOM     19  H1  UNL     1      24.987  -7.927 -32.825  0.00  0.00    +0.000 HD
ENDBRANCH  17  18
ENDBRANCH   5  17
ENDBRANCH   4  10
ENDBRANCH   3   4
ENDBRANCH   2   3
ENDBRANCH   1   2
BRANCH   1  20
ATOM     20  C11 UNL     1      25.352  -6.377 -41.143  0.00  0.00    +0.000 C 
BRANCH  20  21
ATOM     21  O5  UNL     1      26.516  -6.962 -41.701  0.00  0.00    +0.000 OA
BRANCH  21  22
ATOM     22  C12 UNL     1      26.261  -8.270 -42.177  0.00  0.00    +0.000 C 
BRANCH  22  23
ATOM     23  C13 UNL     1      27.564  -9.031 -42.235  0.00  0.00    +0.000 A 
ATOM     24  C14 UNL     1      28.499  -8.651 -43.212  0.00  0.00    +0.000 A 
ATOM     25  C15 UNL     1      29.717  -9.316 -43.336  0.00  0.00    +0.000 A 
ATOM     26  C16 UNL     1      30.032 -10.387 -42.491  0.00  0.00    +0.000 A 
ATOM     27  C23 UNL     1      29.096 -10.789 -41.524  0.00  0.00    +0.000 A 
ATOM     28  C24 UNL     1      27.849 -10.142 -41.394  0.00  0.00    +0.000 A 
BRANCH  26  29
ATOM     29  C17 UNL     1      31.334 -11.089 -42.622  0.00  0.00    +0.000 A 
ATOM     30  C18 UNL     1      32.516 -10.507 -42.124  0.00  0.00    +0.000 A 
ATOM     31  C19 UNL     1      33.739 -11.173 -42.245  0.00  0.00    +0.000 A 
ATOM     32  C20 UNL     1      33.798 -12.424 -42.862  0.00  0.00    +0.000 A 
ATOM     33  C21 UNL     1      32.633 -13.012 -43.360  0.00  0.00    +0.000 A 
ATOM     34  C22 UNL     1      31.407 -12.352 -43.242  0.00  0.00    +0.000 A 
ENDBRANCH  26  29
BRANCH  28  35
ATOM     35  C25 UNL     1      26.870 -10.615 -40.334  0.00  0.00    +0.000 C 
ATOM     36  F1  UNL     1      26.799  -9.695 -39.307  0.00  0.00    +0.000 F 
ATOM     37  F2  UNL     1      25.592 -10.770 -40.846  0.00  0.00    +0.000 F 
ATOM     38  F3  UNL     1      27.285 -11.836 -39.832  0.00  0.00    +0.000 F 
ENDBRANCH  28  35
ENDBRANCH  22  23
ENDBRANCH  21  22
ENDBRANCH  20  21
ENDBRANCH   1  20
TORSDOF 15
ENDMDL
MODEL 9
REMARK VINA RESULT:    -6.337      0.933      2.124
REMARK INTER + INTRA:         -12.598
REMARK INTER:                 -10.992
REMARK INTRA:                  -1.607
REMARK UNBOUND:                -1.445
REMARK  Name = resultss/4CJN/ligands/lig_149_t0.pdb
REMARK  15 active torsions:
REMARK  status: ('A' for Active; 'I' for Inactive)
REMARK    1  A    between atoms: O1_1  and  C1_2
REMARK    2  A    between atoms: C1_2  and  C2_3
REMARK    3  A    between atoms: C3_4  and  O2_5
REMARK    4  A    between atoms: C4_6  and  O3_7
REMARK    5  A    between atoms: C5_8  and  O4_9
REMARK    6  A    between atoms: N1_11  and  C7_12
REMARK    7  A    between atoms: C7_12  and  C8_13
REMARK    8  A    between atoms: C8_13  and  C9_14
REMARK    9  A    between atoms: C9_14  and  C10_15
REMARK   10  A    between atoms: C10_15  and  C11_16
REMARK   11  A    between atoms: C11_16  and  O5_17
REMARK   12  A    between atoms: O5_17  and  C12_18
REMARK   13  A    between atoms: C12_18  and  C13_19
REMARK   14  A    between atoms: C16_22  and  C17_23
REMARK   15  A    between atoms: C24_30  and  C25_31
REMARK                            x       y       z     vdW  Elec       q    Type
REMARK                         _______ _______ _______ _____ _____    ______ ____
ROOT
ATOM      1  C10 UNL     1      24.931  -7.502 -39.115  0.00  0.00    +0.000 C 
ENDROOT
BRANCH   1   2
ATOM      2  C9  UNL     1      25.995  -7.301 -38.025  0.00  0.00    +0.000 C 
BRANCH   2   3
ATOM      3  C8  UNL     1      25.395  -6.810 -36.698  0.00  0.00    +0.000 C 
BRANCH   3   4
ATOM      4  C7  UNL     1      26.437  -6.708 -35.577  0.00  0.00    +0.000 C 
BRANCH   4  10
ATOM      5  C2  UNL     1      25.447  -8.736 -34.539  0.00  0.00    +0.000 C 
ATOM      6  C3  UNL     1      26.635  -9.747 -34.635  0.00  0.00    +0.000 C 
ATOM      7  C4  UNL     1      27.962  -9.182 -34.084  0.00  0.00    +0.000 C 
ATOM      8  C5  UNL     1      27.714  -8.313 -32.848  0.00  0.00    +0.000 C 
ATOM      9  C6  UNL     1      26.762  -7.130 -33.157  0.00  0.00    +0.000 C 
ATOM     10  N1  UNL     1      25.899  -7.337 -34.347  0.00  0.00    +0.000 NA
BRANCH   6  11
ATOM     11  O2  UNL     1      26.833 -10.127 -35.973  0.00  0.00    +0.000 OA
ATOM     12  H6  UNL     1      26.177  -9.618 -36.517  0.00  0.00    +0.000 HD
ENDBRANCH   6  11
BRANCH   7  13
ATOM     13  O3  UNL     1      28.823 -10.238 -33.739  0.00  0.00    +0.000 OA
ATOM     14  H8  UNL     1      28.841 -10.282 -32.748  0.00  0.00    +0.000 HD
ENDBRANCH   7  13
BRANCH   8  15
ATOM     15  O4  UNL     1      28.941  -7.827 -32.369  0.00  0.00    +0.000 OA
ATOM     16  H10 UNL     1      28.841  -7.719 -31.387  0.00  0.00    +0.000 HD
ENDBRANCH   8  15
BRANCH   5  17
ATOM     17  C1  UNL     1      24.435  -9.115 -33.437  0.00  0.00    +0.000 C 
BRANCH  17  18
ATOM     18  O1  UNL     1      23.134  -9.174 -33.963  0.00  0.00    +0.000 OA
ATOM     19  H1  UNL     1      23.071 -10.005 -34.502  0.00  0.00    +0.000 HD
ENDBRANCH  17  18
ENDBRANCH   5  17
ENDBRANCH   4  10
ENDBRANCH   3   4
ENDBRANCH   2   3
ENDBRANCH   1   2
BRANCH   1  20
ATOM     20  C11 UNL     1      25.348  -6.862 -40.449  0.00  0.00    +0.000 C 
BRANCH  20  21
ATOM     21  O5  UNL     1      26.585  -7.361 -40.928  0.00  0.00    +0.000 OA
BRANCH  21  22
ATOM     22  C12 UNL     1      26.394  -8.390 -41.879  0.00  0.00    +0.000 C 
BRANCH  22  23
ATOM     23  C13 UNL     1      27.688  -9.153 -42.041  0.00  0.00    +0.000 A 
ATOM     24  C14 UNL     1      28.600  -8.693 -43.005  0.00  0.00    +0.000 A 
ATOM     25  C15 UNL     1      29.808  -9.352 -43.221  0.00  0.00    +0.000 A 
ATOM     26  C16 UNL     1      30.136 -10.497 -42.483  0.00  0.00    +0.000 A 
ATOM     27  C23 UNL     1      29.222 -10.977 -41.530  0.00  0.00    +0.000 A 
ATOM     28  C24 UNL     1      27.985 -10.336 -41.310  0.00  0.00    +0.000 A 
BRANCH  26  29
ATOM     29  C17 UNL     1      31.427 -11.193 -42.712  0.00  0.00    +0.000 A 
ATOM     30  C18 UNL     1      31.470 -12.408 -43.423  0.00  0.00    +0.000 A 
ATOM     31  C19 UNL     1      32.688 -13.059 -43.641  0.00  0.00    +0.000 A 
ATOM     32  C20 UNL     1      33.875 -12.507 -43.154  0.00  0.00    +0.000 A 
ATOM     33  C21 UNL     1      33.846 -11.303 -42.447  0.00  0.00    +0.000 A 
ATOM     34  C22 UNL     1      32.631 -10.647 -42.227  0.00  0.00    +0.000 A 
ENDBRANCH  26  29
BRANCH  28  35
ATOM     35  C25 UNL     1      27.031 -10.895 -40.270  0.00  0.00    +0.000 C 
ATOM     36  F1  UNL     1      27.423 -12.166 -39.897  0.00  0.00    +0.000 F 
ATOM     37  F2  UNL     1      27.002 -10.114 -39.126  0.00  0.00    +0.000 F 
ATOM     38  F3  UNL     1      25.751 -10.942 -40.793  0.00  0.00    +0.000 F 
ENDBRANCH  28  35
ENDBRANCH  22  23
ENDBRANCH  21  22
ENDBRANCH  20  21
ENDBRANCH   1  20
TORSDOF 15
ENDMDL
