MODEL 1
REMARK VINA RESULT:    -7.151      0.000      0.000
REMARK INTER + INTRA:         -11.693
REMARK INTER:                 -11.123
REMARK INTRA:                  -0.571
REMARK UNBOUND:                -0.571
REMARK  Name = resultss/4CJN/ligands/lig_331_t0.pdb
REMARK  14 active torsions:
REMARK  status: ('A' for Active; 'I' for Inactive)
REMARK    1  A    between atoms: C1_1  and  O1_2
REMARK    2  A    between atoms: O1_2  and  C2_3
REMARK    3  A    between atoms: C4_5  and  C5_6
REMARK    4  A    between atoms: C8_10  and  C9_11
REMARK    5  A    between atoms: C9_11  and  C10_12
REMARK    6  A    between atoms: C10_12  and  C11_13
REMARK    7  A    between atoms: C14_16  and  O3_17
REMARK    8  A    between atoms: C18_21  and  O4_22
REMARK    9  A    between atoms: O4_22  and  C19_23
REMARK   10  A    between atoms: C21_26  and  C22_27
REMARK   11  A    between atoms: C22_27  and  O6_28
REMARK   12  A    between atoms: C24_30  and  O7_31
REMARK   13  A    between atoms: O7_31  and  C25_32
REMARK   14  A    between atoms: C26_33  and  O8_34
REMARK                            x       y       z     vdW  Elec       q    Type
REMARK                         _______ _______ _______ _____ _____    ______ ____
ROOT
ATOM      1  C5  UNL     1      26.321  -9.091 -38.961  0.00  0.00    +0.000 C 
ATOM      2  O2  UNL     1      27.516  -9.812 -39.280  0.00  0.00    +0.000 OA
ATOM      3  C6  UNL     1      28.110  -9.716 -40.542  0.00  0.00    +0.000 A 
ATOM      4  C7  UNL     1      29.107 -10.614 -40.925  0.00  0.00    +0.000 A 
ATOM      5  C8  UNL     1      29.668 -10.535 -42.209  0.00  0.00    +0.000 A 
ATOM      6  C17 UNL     1      29.239  -9.529 -43.093  0.00  0.00    +0.000 A 
ATOM      7  C18 UNL     1      28.244  -8.610 -42.702  0.00  0.00    +0.000 A 
ATOM      8  C20 UNL     1      27.696  -8.705 -41.417  0.00  0.00    +0.000 A 
ATOM      9  O5  UNL     1      26.729  -7.790 -40.987  0.00  0.00    +0.000 OA
ATOM     10  C21 UNL     1      26.366  -7.681 -39.608  0.00  0.00    +0.000 C 
ENDROOT
BRANCH   1  13
ATOM     11  C2  UNL     1      24.882  -8.330 -35.499  0.00  0.00    +0.000 A 
ATOM     12  C3  UNL     1      25.047  -8.381 -36.895  0.00  0.00    +0.000 A 
ATOM     13  C4  UNL     1      26.163  -9.015 -37.460  0.00  0.00    +0.000 A 
ATOM     14  C23 UNL     1      27.111  -9.617 -36.619  0.00  0.00    +0.000 A 
ATOM     15  C24 UNL     1      26.960  -9.577 -35.221  0.00  0.00    +0.000 A 
ATOM     16  C26 UNL     1      25.840  -8.927 -34.668  0.00  0.00    +0.000 A 
BRANCH  11  18
ATOM     17  C1  UNL     1      22.444  -7.777 -35.384  0.00  0.00    +0.000 C 
ATOM     18  O1  UNL     1      23.780  -7.698 -34.901  0.00  0.00    +0.000 OA
ENDBRANCH  11  18
BRANCH  15  19
ATOM     19  O7  UNL     1      27.893 -10.170 -34.356  0.00  0.00    +0.000 OA
ATOM     20  C25 UNL     1      29.106  -9.556 -33.931  0.00  0.00    +0.000 C 
ENDBRANCH  15  19
BRANCH  16  21
ATOM     21  O8  UNL     1      25.663  -8.867 -33.285  0.00  0.00    +0.000 OA
ATOM     22  H28 UNL     1      26.153  -8.198 -32.704  0.00  0.00    +0.000 HD
ENDBRANCH  16  21
ENDBRANCH   1  13
BRANCH   7  23
ATOM     23  O4  UNL     1      27.789  -7.591 -43.552  0.00  0.00    +0.000 OA
ATOM     24  C19 UNL     1      28.087  -7.507 -44.942  0.00  0.00    +0.000 C 
ENDBRANCH   7  23
BRANCH   5  25
ATOM     25  C9  UNL     1      30.762 -11.486 -42.616  0.00  0.00    +0.000 C 
BRANCH  25  26
ATOM     26  C10 UNL     1      31.896 -10.731 -43.316  0.00  0.00    +0.000 C 
BRANCH  26  27
ATOM     27  C11 UNL     1      32.509 -11.582 -44.396  0.00  0.00    +0.000 A 
ATOM     28  C12 UNL     1      33.359 -11.007 -45.355  0.00  0.00    +0.000 A 
ATOM     29  C13 UNL     1      33.902 -11.791 -46.376  0.00  0.00    +0.000 A 
ATOM     30  C14 UNL     1      33.595 -13.154 -46.456  0.00  0.00    +0.000 A 
ATOM     31  C15 UNL     1      32.739 -13.730 -45.510  0.00  0.00    +0.000 A 
ATOM     32  C16 UNL     1      32.194 -12.948 -44.487  0.00  0.00    +0.000 A 
BRANCH  30  33
ATOM     33  O3  UNL     1      34.144 -13.924 -47.480  0.00  0.00    +0.000 OA
ATOM     34  H13 UNL     1      34.959 -13.614 -47.996  0.00  0.00    +0.000 HD
ENDBRANCH  30  33
ENDBRANCH  26  27
ENDBRANCH  25  26
ENDBRANCH   5  25
BRANCH  10  35
ATOM     35  C22 UNL     1      25.033  -6.926 -39.487  0.00  0.00    +0.000 C 
BRANCH  35  36
ATOM     36  O6  UNL     1      23.997  -7.622 -40.126  0.00  0.00    +0.000 OA
ATOM     37  H23 UNL     1      23.158  -7.130 -39.931  0.00  0.00    +0.000 HD
ENDBRANCH  35  36
ENDBRANCH  10  35
TORSDOF 11
ENDMDL
MODEL 2
REMARK VINA RESULT:    -7.119      0.242      2.203
REMARK INTER + INTRA:         -11.643
REMARK INTER:                 -11.128
REMARK INTRA:                  -0.515
REMARK UNBOUND:                -0.571
REMARK  Name = resultss/4CJN/ligands/lig_331_t0.pdb
REMARK  14 active torsions:
REMARK  status: ('A' for Active; 'I' for Inactive)
REMARK    1  A    between atoms: C1_1  and  O1_2
REMARK    2  A    between atoms: O1_2  and  C2_3
REMARK    3  A    between atoms: C4_5  and  C5_6
REMARK    4  A    between atoms: C8_10  and  C9_11
REMARK    5  A    between atoms: C9_11  and  C10_12
REMARK    6  A    between atoms: C10_12  and  C11_13
REMARK    7  A    between atoms: C14_16  and  O3_17
REMARK    8  A    between atoms: C18_21  and  O4_22
REMARK    9  A    between atoms: O4_22  and  C19_23
REMARK   10  A    between atoms: C21_26  and  C22_27
REMARK   11  A    between atoms: C22_27  and  O6_28
REMARK   12  A    between atoms: C24_30  and  O7_31
REMARK   13  A    between atoms: O7_31  and  C25_32
REMARK   14  A    between atoms: C26_33  and  O8_34
REMARK                            x       y       z     vdW  Elec       q    Type
REMARK                         _______ _______ _______ _____ _____    ______ ____
ROOT
ATOM      1  C5  UNL     1      26.364  -9.201 -38.872  0.00  0.00    +0.000 C 
ATOM      2  O2  UNL     1      27.565  -9.900 -39.213  0.00  0.00    +0.000 OA
ATOM      3  C6  UNL     1      28.127  -9.805 -40.490  0.00  0.00    +0.000 A 
ATOM      4  C7  UNL     1      29.132 -10.686 -40.889  0.00  0.00    +0.000 A 
ATOM      5  C8  UNL     1      29.660 -10.609 -42.188  0.00  0.00    +0.000 A 
ATOM      6  C17 UNL     1      29.189  -9.622 -43.070  0.00  0.00    +0.000 A 
ATOM      7  C18 UNL     1      28.185  -8.719 -42.664  0.00  0.00    +0.000 A 
ATOM      8  C20 UNL     1      27.671  -8.812 -41.365  0.00  0.00    +0.000 A 
ATOM      9  O5  UNL     1      26.696  -7.912 -40.920  0.00  0.00    +0.000 OA
ATOM     10  C21 UNL     1      26.364  -7.797 -39.534  0.00  0.00    +0.000 C 
ENDROOT
BRANCH   1  13
ATOM     11  C2  UNL     1      27.137  -9.560 -35.143  0.00  0.00    +0.000 A 
ATOM     12  C3  UNL     1      27.232  -9.663 -36.543  0.00  0.00    +0.000 A 
ATOM     13  C4  UNL     1      26.241  -9.112 -37.369  0.00  0.00    +0.000 A 
ATOM     14  C23 UNL     1      25.155  -8.441 -36.787  0.00  0.00    +0.000 A 
ATOM     15  C24 UNL     1      25.046  -8.328 -35.389  0.00  0.00    +0.000 A 
ATOM     16  C26 UNL     1      26.043  -8.895 -34.572  0.00  0.00    +0.000 A 
BRANCH  11  18
ATOM     17  C1  UNL     1      29.265  -9.410 -33.835  0.00  0.00    +0.000 C 
ATOM     18  O1  UNL     1      28.108 -10.104 -34.287  0.00  0.00    +0.000 OA
ENDBRANCH  11  18
BRANCH  15  19
ATOM     19  O7  UNL     1      23.970  -7.662 -34.780  0.00  0.00    +0.000 OA
ATOM     20  C25 UNL     1      22.736  -8.276 -34.424  0.00  0.00    +0.000 C 
ENDBRANCH  15  19
BRANCH  16  21
ATOM     21  O8  UNL     1      25.962  -8.802 -33.182  0.00  0.00    +0.000 OA
ATOM     22  H28 UNL     1      25.919  -9.620 -32.586  0.00  0.00    +0.000 HD
ENDBRANCH  16  21
ENDBRANCH   1  13
BRANCH   7  23
ATOM     23  O4  UNL     1      27.688  -7.718 -43.513  0.00  0.00    +0.000 OA
ATOM     24  C19 UNL     1      28.209  -7.425 -44.805  0.00  0.00    +0.000 C 
ENDBRANCH   7  23
BRANCH   5  25
ATOM     25  C9  UNL     1      30.764 -11.541 -42.611  0.00  0.00    +0.000 C 
BRANCH  25  26
ATOM     26  C10 UNL     1      31.880 -10.766 -43.317  0.00  0.00    +0.000 C 
BRANCH  26  27
ATOM     27  C11 UNL     1      32.504 -11.605 -44.400  0.00  0.00    +0.000 A 
ATOM     28  C12 UNL     1      33.330 -11.012 -45.368  0.00  0.00    +0.000 A 
ATOM     29  C13 UNL     1      33.883 -11.786 -46.393  0.00  0.00    +0.000 A 
ATOM     30  C14 UNL     1      33.608 -13.156 -46.466  0.00  0.00    +0.000 A 
ATOM     31  C15 UNL     1      32.773 -13.750 -45.510  0.00  0.00    +0.000 A 
ATOM     32  C16 UNL     1      32.219 -12.978 -44.485  0.00  0.00    +0.000 A 
BRANCH  30  33
ATOM     33  O3  UNL     1      34.165 -13.916 -47.493  0.00  0.00    +0.000 OA
ATOM     34  H13 UNL     1      35.003 -13.616 -47.978  0.00  0.00    +0.000 HD
ENDBRANCH  30  33
ENDBRANCH  26  27
ENDBRANCH  25  26
ENDBRANCH   5  25
BRANCH  10  35
ATOM     35  C22 UNL     1      25.018  -7.068 -39.388  0.00  0.00    +0.000 C 
BRANCH  35  36
ATOM     36  O6  UNL     1      23.996  -7.751 -40.063  0.00  0.00    +0.000 OA
ATOM     37  H23 UNL     1      24.032  -7.458 -41.010  0.00  0.00    +0.000 HD
ENDBRANCH  35  36
ENDBRANCH  10  35
TORSDOF 11
ENDMDL
MODEL 3
REMARK VINA RESULT:    -6.997      3.173      7.452
REMARK INTER + INTRA:         -11.453
REMARK INTER:                 -10.933
REMARK INTRA:                  -0.520
REMARK UNBOUND:                -0.571
REMARK  Name = resultss/4CJN/ligands/lig_331_t0.pdb
REMARK  14 active torsions:
REMARK  status: ('A' for Active; 'I' for Inactive)
REMARK    1  A    between atoms: C1_1  and  O1_2
REMARK    2  A    between atoms: O1_2  and  C2_3
REMARK    3  A    between atoms: C4_5  and  C5_6
REMARK    4  A    between atoms: C8_10  and  C9_11
REMARK    5  A    between atoms: C9_11  and  C10_12
REMARK    6  A    between atoms: C10_12  and  C11_13
REMARK    7  A    between atoms: C14_16  and  O3_17
REMARK    8  A    between atoms: C18_21  and  O4_22
REMARK    9  A    between atoms: O4_22  and  C19_23
REMARK   10  A    between atoms: C21_26  and  C22_27
REMARK   11  A    between atoms: C22_27  and  O6_28
REMARK   12  A    between atoms: C24_30  and  O7_31
REMARK   13  A    between atoms: O7_31  and  C25_32
REMARK   14  A    between atoms: C26_33  and  O8_34
REMARK                            x       y       z     vdW  Elec       q    Type
REMARK                         _______ _______ _______ _____ _____    ______ ____
ROOT
ATOM      1  C5  UNL     1      25.796  -7.508 -43.586  0.00  0.00    +0.000 C 
ATOM      2  O2  UNL     1      26.811  -8.491 -43.815  0.00  0.00    +0.000 OA
ATOM      3  C6  UNL     1      27.440  -9.149 -42.754  0.00  0.00    +0.000 A 
ATOM      4  C7  UNL     1      28.598  -9.898 -42.972  0.00  0.00    +0.000 A 
ATOM      5  C8  UNL     1      29.245 -10.521 -41.893  0.00  0.00    +0.000 A 
ATOM      6  C17 UNL     1      28.705 -10.407 -40.600  0.00  0.00    +0.000 A 
ATOM      7  C18 UNL     1      27.526  -9.665 -40.380  0.00  0.00    +0.000 A 
ATOM      8  C20 UNL     1      26.895  -9.052 -41.468  0.00  0.00    +0.000 A 
ATOM      9  O5  UNL     1      25.707  -8.334 -41.289  0.00  0.00    +0.000 OA
ATOM     10  C21 UNL     1      24.895  -7.946 -42.401  0.00  0.00    +0.000 C 
ENDROOT
BRANCH   1  13
ATOM     11  C2  UNL     1      24.910  -6.896 -47.257  0.00  0.00    +0.000 A 
ATOM     12  C3  UNL     1      25.648  -7.059 -46.071  0.00  0.00    +0.000 A 
ATOM     13  C4  UNL     1      24.997  -7.305 -44.853  0.00  0.00    +0.000 A 
ATOM     14  C23 UNL     1      23.597  -7.403 -44.829  0.00  0.00    +0.000 A 
ATOM     15  C24 UNL     1      22.846  -7.244 -46.007  0.00  0.00    +0.000 A 
ATOM     16  C26 UNL     1      23.512  -6.986 -47.219  0.00  0.00    +0.000 A 
BRANCH  11  18
ATOM     17  C1  UNL     1      26.917  -6.367 -48.657  0.00  0.00    +0.000 C 
ATOM     18  O1  UNL     1      25.530  -6.643 -48.492  0.00  0.00    +0.000 OA
ENDBRANCH  11  18
BRANCH  15  19
ATOM     19  O7  UNL     1      21.444  -7.336 -46.011  0.00  0.00    +0.000 OA
ATOM     20  C25 UNL     1      20.563  -6.281 -45.641  0.00  0.00    +0.000 C 
ENDBRANCH  15  19
BRANCH  16  21
ATOM     21  O8  UNL     1      22.794  -6.821 -48.405  0.00  0.00    +0.000 OA
ATOM     22  H28 UNL     1      23.129  -7.171 -49.294  0.00  0.00    +0.000 HD
ENDBRANCH  16  21
ENDBRANCH   1  13
BRANCH   7  23
ATOM     23  O4  UNL     1      26.953  -9.528 -39.107  0.00  0.00    +0.000 OA
ATOM     24  C19 UNL     1      27.580  -9.931 -37.893  0.00  0.00    +0.000 C 
ENDBRANCH   7  23
BRANCH   5  25
ATOM     25  C9  UNL     1      30.478 -11.351 -42.129  0.00  0.00    +0.000 C 
BRANCH  25  26
ATOM     26  C10 UNL     1      31.546 -10.532 -42.859  0.00  0.00    +0.000 C 
BRANCH  26  27
ATOM     27  C11 UNL     1      32.154 -11.334 -43.979  0.00  0.00    +0.000 A 
ATOM     28  C12 UNL     1      32.926 -10.700 -44.967  0.00  0.00    +0.000 A 
ATOM     29  C13 UNL     1      33.463 -11.439 -46.024  0.00  0.00    +0.000 A 
ATOM     30  C14 UNL     1      33.227 -12.815 -46.112  0.00  0.00    +0.000 A 
ATOM     31  C15 UNL     1      32.448 -13.450 -45.137  0.00  0.00    +0.000 A 
ATOM     32  C16 UNL     1      31.909 -12.713 -44.078  0.00  0.00    +0.000 A 
BRANCH  30  33
ATOM     33  O3  UNL     1      33.769 -13.540 -47.171  0.00  0.00    +0.000 OA
ATOM     34  H13 UNL     1      33.866 -14.548 -47.129  0.00  0.00    +0.000 HD
ENDBRANCH  30  33
ENDBRANCH  26  27
ENDBRANCH  25  26
ENDBRANCH   5  25
BRANCH  10  35
ATOM     35  C22 UNL     1      23.914  -6.848 -41.959  0.00  0.00    +0.000 C 
BRANCH  35  36
ATOM     36  O6  UNL     1      22.813  -7.393 -41.283  0.00  0.00    +0.000 OA
ATOM     37  H23 UNL     1      22.666  -8.299 -41.659  0.00  0.00    +0.000 HD
ENDBRANCH  35  36
ENDBRANCH  10  35
TORSDOF 11
ENDMDL
MODEL 4
REMARK VINA RESULT:    -6.910      2.864      6.645
REMARK INTER + INTRA:         -11.318
REMARK INTER:                 -10.860
REMARK INTRA:                  -0.458
REMARK UNBOUND:                -0.571
REMARK  Name = resultss/4CJN/ligands/lig_331_t0.pdb
REMARK  14 active torsions:
REMARK  status: ('A' for Active; 'I' for Inactive)
REMARK    1  A    between atoms: C1_1  and  O1_2
REMARK    2  A    between atoms: O1_2  and  C2_3
REMARK    3  A    between atoms: C4_5  and  C5_6
REMARK    4  A    between atoms: C8_10  and  C9_11
REMARK    5  A    between atoms: C9_11  and  C10_12
REMARK    6  A    between atoms: C10_12  and  C11_13
REMARK    7  A    between atoms: C14_16  and  O3_17
REMARK    8  A    between atoms: C18_21  and  O4_22
REMARK    9  A    between atoms: O4_22  and  C19_23
REMARK   10  A    between atoms: C21_26  and  C22_27
REMARK   11  A    between atoms: C22_27  and  O6_28
REMARK   12  A    between atoms: C24_30  and  O7_31
REMARK   13  A    between atoms: O7_31  and  C25_32
REMARK   14  A    between atoms: C26_33  and  O8_34
REMARK                            x       y       z     vdW  Elec       q    Type
REMARK                         _______ _______ _______ _____ _____    ______ ____
ROOT
ATOM      1  C5  UNL     1      26.126  -7.578 -43.090  0.00  0.00    +0.000 C 
ATOM      2  O2  UNL     1      27.028  -8.605 -43.515  0.00  0.00    +0.000 OA
ATOM      3  C6  UNL     1      27.882  -9.244 -42.612  0.00  0.00    +0.000 A 
ATOM      4  C7  UNL     1      28.930 -10.043 -43.073  0.00  0.00    +0.000 A 
ATOM      5  C8  UNL     1      29.808 -10.647 -42.158  0.00  0.00    +0.000 A 
ATOM      6  C17 UNL     1      29.605 -10.465 -40.779  0.00  0.00    +0.000 A 
ATOM      7  C18 UNL     1      28.537  -9.673 -40.311  0.00  0.00    +0.000 A 
ATOM      8  C20 UNL     1      27.673  -9.078 -41.238  0.00  0.00    +0.000 A 
ATOM      9  O5  UNL     1      26.585  -8.312 -40.806  0.00  0.00    +0.000 OA
ATOM     10  C21 UNL     1      25.534  -7.937 -41.701  0.00  0.00    +0.000 C 
ENDROOT
BRANCH   1  13
ATOM     11  C2  UNL     1      22.683  -7.221 -44.719  0.00  0.00    +0.000 A 
ATOM     12  C3  UNL     1      23.693  -7.418 -43.759  0.00  0.00    +0.000 A 
ATOM     13  C4  UNL     1      25.045  -7.394 -44.130  0.00  0.00    +0.000 A 
ATOM     14  C23 UNL     1      25.387  -7.154 -45.469  0.00  0.00    +0.000 A 
ATOM     15  C24 UNL     1      24.389  -6.953 -46.440  0.00  0.00    +0.000 A 
ATOM     16  C26 UNL     1      23.036  -6.991 -46.055  0.00  0.00    +0.000 A 
BRANCH  11  18
ATOM     17  C1  UNL     1      20.811  -7.080 -43.064  0.00  0.00    +0.000 C 
ATOM     18  O1  UNL     1      21.320  -7.246 -44.383  0.00  0.00    +0.000 OA
ENDBRANCH  11  18
BRANCH  15  19
ATOM     19  O7  UNL     1      24.703  -6.711 -47.788  0.00  0.00    +0.000 OA
ATOM     20  C25 UNL     1      26.023  -6.541 -48.293  0.00  0.00    +0.000 C 
ENDBRANCH  15  19
BRANCH  16  21
ATOM     21  O8  UNL     1      22.023  -6.798 -46.996  0.00  0.00    +0.000 OA
ATOM     22  H28 UNL     1      22.150  -7.003 -47.979  0.00  0.00    +0.000 HD
ENDBRANCH  16  21
ENDBRANCH   1  13
BRANCH   7  23
ATOM     23  O4  UNL     1      28.299  -9.467 -38.943  0.00  0.00    +0.000 OA
ATOM     24  C19 UNL     1      27.960 -10.497 -38.020  0.00  0.00    +0.000 C 
ENDBRANCH   7  23
BRANCH   5  25
ATOM     25  C9  UNL     1      30.922 -11.530 -42.652  0.00  0.00    +0.000 C 
BRANCH  25  26
ATOM     26  C10 UNL     1      31.886 -10.735 -43.537  0.00  0.00    +0.000 C 
BRANCH  26  27
ATOM     27  C11 UNL     1      32.515 -11.629 -44.571  0.00  0.00    +0.000 A 
ATOM     28  C12 UNL     1      33.348 -11.088 -45.564  0.00  0.00    +0.000 A 
ATOM     29  C13 UNL     1      33.905 -11.914 -46.544  0.00  0.00    +0.000 A 
ATOM     30  C14 UNL     1      33.628 -13.286 -46.549  0.00  0.00    +0.000 A 
ATOM     31  C15 UNL     1      32.787 -13.828 -45.569  0.00  0.00    +0.000 A 
ATOM     32  C16 UNL     1      32.228 -13.004 -44.588  0.00  0.00    +0.000 A 
BRANCH  30  33
ATOM     33  O3  UNL     1      34.190 -14.098 -47.532  0.00  0.00    +0.000 OA
ATOM     34  H13 UNL     1      35.133 -13.945 -47.869  0.00  0.00    +0.000 HD
ENDBRANCH  30  33
ENDBRANCH  26  27
ENDBRANCH  25  26
ENDBRANCH   5  25
BRANCH  10  35
ATOM     35  C22 UNL     1      24.721  -6.788 -41.083  0.00  0.00    +0.000 C 
BRANCH  35  36
ATOM     36  O6  UNL     1      23.700  -7.277 -40.256  0.00  0.00    +0.000 OA
ATOM     37  H23 UNL     1      23.186  -7.934 -40.793  0.00  0.00    +0.000 HD
ENDBRANCH  35  36
ENDBRANCH  10  35
TORSDOF 11
ENDMDL
MODEL 5
REMARK VINA RESULT:    -6.752      2.080      3.974
REMARK INTER + INTRA:         -11.073
REMARK INTER:                 -10.749
REMARK INTRA:                  -0.324
REMARK UNBOUND:                -0.571
REMARK  Name = resultss/4CJN/ligands/lig_331_t0.pdb
REMARK  14 active torsions:
REMARK  status: ('A' for Active; 'I' for Inactive)
REMARK    1  A    between atoms: C1_1  and  O1_2
REMARK    2  A    between atoms: O1_2  and  C2_3
REMARK    3  A    between atoms: C4_5  and  C5_6
REMARK    4  A    between atoms: C8_10  and  C9_11
REMARK    5  A    between atoms: C9_11  and  C10_12
REMARK    6  A    between atoms: C10_12  and  C11_13
REMARK    7  A    between atoms: C14_16  and  O3_17
REMARK    8  A    between atoms: C18_21  and  O4_22
REMARK    9  A    between atoms: O4_22  and  C19_23
REMARK   10  A    between atoms: C21_26  and  C22_27
REMARK   11  A    between atoms: C22_27  and  O6_28
REMARK   12  A    between atoms: C24_30  and  O7_31
REMARK   13  A    between atoms: O7_31  and  C25_32
REMARK   14  A    between atoms: C26_33  and  O8_34
REMARK                            x       y       z     vdW  Elec       q    Type
REMARK                         _______ _______ _______ _____ _____    ______ ____
ROOT
ATOM      1  C5  UNL     1      28.414  -9.893 -36.903  0.00  0.00    +0.000 C 
ATOM      2  O2  UNL     1      29.263  -9.994 -38.051  0.00  0.00    +0.000 OA
ATOM      3  C6  UNL     1      28.760  -9.838 -39.345  0.00  0.00    +0.000 A 
ATOM      4  C7  UNL     1      29.530 -10.198 -40.452  0.00  0.00    +0.000 A 
ATOM      5  C8  UNL     1      29.000 -10.077 -41.747  0.00  0.00    +0.000 A 
ATOM      6  C17 UNL     1      27.702  -9.566 -41.919  0.00  0.00    +0.000 A 
ATOM      7  C18 UNL     1      26.928  -9.185 -40.804  0.00  0.00    +0.000 A 
ATOM      8  C20 UNL     1      27.474  -9.313 -39.521  0.00  0.00    +0.000 A 
ATOM      9  O5  UNL     1      26.744  -8.916 -38.395  0.00  0.00    +0.000 OA
ATOM     10  C21 UNL     1      27.369  -8.765 -37.117  0.00  0.00    +0.000 C 
ENDROOT
BRANCH   1  13
ATOM     11  C2  UNL     1      31.445  -9.486 -34.605  0.00  0.00    +0.000 A 
ATOM     12  C3  UNL     1      30.654  -9.737 -35.741  0.00  0.00    +0.000 A 
ATOM     13  C4  UNL     1      29.256  -9.650 -35.672  0.00  0.00    +0.000 A 
ATOM     14  C23 UNL     1      28.648  -9.294 -34.458  0.00  0.00    +0.000 A 
ATOM     15  C24 UNL     1      29.425  -9.038 -33.314  0.00  0.00    +0.000 A 
ATOM     16  C26 UNL     1      30.826  -9.140 -33.396  0.00  0.00    +0.000 A 
BRANCH  11  18
ATOM     17  C1  UNL     1      33.645  -9.278 -35.779  0.00  0.00    +0.000 C 
ATOM     18  O1  UNL     1      32.846  -9.569 -34.638  0.00  0.00    +0.000 OA
ENDBRANCH  11  18
BRANCH  15  19
ATOM     19  O7  UNL     1      28.842  -8.681 -32.087  0.00  0.00    +0.000 OA
ATOM     20  C25 UNL     1      28.207  -7.433 -31.826  0.00  0.00    +0.000 C 
ENDBRANCH  15  19
BRANCH  16  21
ATOM     21  O8  UNL     1      31.624  -8.895 -32.277  0.00  0.00    +0.000 OA
ATOM     22  H28 UNL     1      32.635  -8.936 -32.313  0.00  0.00    +0.000 HD
ENDBRANCH  16  21
ENDBRANCH   1  13
BRANCH   7  23
ATOM     23  O4  UNL     1      25.630  -8.669 -40.932  0.00  0.00    +0.000 OA
ATOM     24  C19 UNL     1      24.899  -8.619 -42.154  0.00  0.00    +0.000 C 
ENDBRANCH   7  23
BRANCH   5  25
ATOM     25  C9  UNL     1      29.838 -10.439 -42.943  0.00  0.00    +0.000 C 
BRANCH  25  26
ATOM     26  C10 UNL     1      31.100 -11.190 -42.508  0.00  0.00    +0.000 C 
BRANCH  26  27
ATOM     27  C11 UNL     1      31.876 -11.661 -43.709  0.00  0.00    +0.000 A 
ATOM     28  C12 UNL     1      32.583 -10.742 -44.500  0.00  0.00    +0.000 A 
ATOM     29  C13 UNL     1      33.276 -11.175 -45.634  0.00  0.00    +0.000 A 
ATOM     30  C14 UNL     1      33.262 -12.527 -45.994  0.00  0.00    +0.000 A 
ATOM     31  C15 UNL     1      32.547 -13.446 -45.215  0.00  0.00    +0.000 A 
ATOM     32  C16 UNL     1      31.852 -13.015 -44.081  0.00  0.00    +0.000 A 
BRANCH  30  33
ATOM     33  O3  UNL     1      33.958 -12.945 -47.127  0.00  0.00    +0.000 OA
ATOM     34  H13 UNL     1      34.663 -13.670 -47.077  0.00  0.00    +0.000 HD
ENDBRANCH  30  33
ENDBRANCH  26  27
ENDBRANCH  25  26
ENDBRANCH   5  25
BRANCH  10  35
ATOM     35  C22 UNL     1      26.291  -8.734 -36.021  0.00  0.00    +0.000 C 
BRANCH  35  36
ATOM     36  O6  UNL     1      25.709  -9.998 -35.846  0.00  0.00    +0.000 OA
ATOM     37  H23 UNL     1      25.568 -10.376 -36.752  0.00  0.00    +0.000 HD
ENDBRANCH  35  36
ENDBRANCH  10  35
TORSDOF 11
ENDMDL
MODEL 6
REMARK VINA RESULT:    -6.720      1.650      2.541
REMARK INTER + INTRA:         -11.023
REMARK INTER:                 -10.743
REMARK INTRA:                  -0.280
REMARK UNBOUND:                -0.571
REMARK  Name = resultss/4CJN/ligands/lig_331_t0.pdb
REMARK  14 active torsions:
REMARK  status: ('A' for Active; 'I' for Inactive)
REMARK    1  A    between atoms: C1_1  and  O1_2
REMARK    2  A    between atoms: O1_2  and  C2_3
REMARK    3  A    between atoms: C4_5  and  C5_6
REMARK    4  A    between atoms: C8_10  and  C9_11
REMARK    5  A    between atoms: C9_11  and  C10_12
REMARK    6  A    between atoms: C10_12  and  C11_13
REMARK    7  A    between atoms: C14_16  and  O3_17
REMARK    8  A    between atoms: C18_21  and  O4_22
REMARK    9  A    between atoms: O4_22  and  C19_23
REMARK   10  A    between atoms: C21_26  and  C22_27
REMARK   11  A    between atoms: C22_27  and  O6_28
REMARK   12  A    between atoms: C24_30  and  O7_31
REMARK   13  A    between atoms: O7_31  and  C25_32
REMARK   14  A    between atoms: C26_33  and  O8_34
REMARK                            x       y       z     vdW  Elec       q    Type
REMARK                         _______ _______ _______ _____ _____    ______ ____
ROOT
ATOM      1  C5  UNL     1      27.757  -9.821 -37.529  0.00  0.00    +0.000 C 
ATOM      2  O2  UNL     1      28.795  -9.835 -38.515  0.00  0.00    +0.000 OA
ATOM      3  C6  UNL     1      28.508  -9.691 -39.876  0.00  0.00    +0.000 A 
ATOM      4  C7  UNL     1      29.480  -9.971 -40.838  0.00  0.00    +0.000 A 
ATOM      5  C8  UNL     1      29.170  -9.863 -42.202  0.00  0.00    +0.000 A 
ATOM      6  C17 UNL     1      27.885  -9.445 -42.591  0.00  0.00    +0.000 A 
ATOM      7  C18 UNL     1      26.907  -9.146 -41.621  0.00  0.00    +0.000 A 
ATOM      8  C20 UNL     1      27.235  -9.260 -40.265  0.00  0.00    +0.000 A 
ATOM      9  O5  UNL     1      26.296  -8.941 -39.277  0.00  0.00    +0.000 OA
ATOM     10  C21 UNL     1      26.681  -8.770 -37.910  0.00  0.00    +0.000 C 
ENDROOT
BRANCH   1  13
ATOM     11  C2  UNL     1      28.113  -8.776 -33.866  0.00  0.00    +0.000 A 
ATOM     12  C3  UNL     1      27.566  -9.013 -35.140  0.00  0.00    +0.000 A 
ATOM     13  C4  UNL     1      28.357  -9.542 -36.170  0.00  0.00    +0.000 A 
ATOM     14  C23 UNL     1      29.703  -9.849 -35.915  0.00  0.00    +0.000 A 
ATOM     15  C24 UNL     1      30.264  -9.619 -34.646  0.00  0.00    +0.000 A 
ATOM     16  C26 UNL     1      29.460  -9.079 -33.625  0.00  0.00    +0.000 A 
BRANCH  11  18
ATOM     17  C1  UNL     1      26.335  -7.258 -32.972  0.00  0.00    +0.000 C 
ATOM     18  O1  UNL     1      27.350  -8.243 -32.814  0.00  0.00    +0.000 OA
ENDBRANCH  11  18
BRANCH  15  19
ATOM     19  O7  UNL     1      31.607  -9.917 -34.364  0.00  0.00    +0.000 OA
ATOM     20  C25 UNL     1      32.709  -9.081 -34.702  0.00  0.00    +0.000 C 
ENDBRANCH  15  19
BRANCH  16  21
ATOM     21  O8  UNL     1      29.988  -8.837 -32.356  0.00  0.00    +0.000 OA
ATOM     22  H28 UNL     1      30.145  -7.901 -32.004  0.00  0.00    +0.000 HD
ENDBRANCH  16  21
ENDBRANCH   1  13
BRANCH   7  23
ATOM     23  O4  UNL     1      25.613  -8.725 -41.966  0.00  0.00    +0.000 OA
ATOM     24  C19 UNL     1      25.283  -7.410 -42.401  0.00  0.00    +0.000 C 
ENDBRANCH   7  23
BRANCH   5  25
ATOM     25  C9  UNL     1      30.225 -10.137 -43.241  0.00  0.00    +0.000 C 
BRANCH  25  26
ATOM     26  C10 UNL     1      31.180 -11.234 -42.760  0.00  0.00    +0.000 C 
BRANCH  26  27
ATOM     27  C11 UNL     1      32.030 -11.731 -43.898  0.00  0.00    +0.000 A 
ATOM     28  C12 UNL     1      32.766 -10.826 -44.681  0.00  0.00    +0.000 A 
ATOM     29  C13 UNL     1      33.529 -11.284 -45.757  0.00  0.00    +0.000 A 
ATOM     30  C14 UNL     1      33.559 -12.647 -46.070  0.00  0.00    +0.000 A 
ATOM     31  C15 UNL     1      32.817 -13.552 -45.301  0.00  0.00    +0.000 A 
ATOM     32  C16 UNL     1      32.052 -13.097 -44.223  0.00  0.00    +0.000 A 
BRANCH  30  33
ATOM     33  O3  UNL     1      34.325 -13.090 -47.146  0.00  0.00    +0.000 OA
ATOM     34  H13 UNL     1      35.199 -12.641 -47.394  0.00  0.00    +0.000 HD
ENDBRANCH  30  33
ENDBRANCH  26  27
ENDBRANCH  25  26
ENDBRANCH   5  25
BRANCH  10  35
ATOM     35  C22 UNL     1      25.433  -8.841 -37.014  0.00  0.00    +0.000 C 
BRANCH  35  36
ATOM     36  O6  UNL     1      24.301  -8.353 -37.683  0.00  0.00    +0.000 OA
ATOM     37  H23 UNL     1      24.260  -7.379 -37.502  0.00  0.00    +0.000 HD
ENDBRANCH  35  36
ENDBRANCH  10  35
TORSDOF 11
ENDMDL
MODEL 7
REMARK VINA RESULT:    -6.493      2.913      5.319
REMARK INTER + INTRA:         -10.670
REMARK INTER:                  -9.501
REMARK INTRA:                  -1.169
REMARK UNBOUND:                -0.571
REMARK  Name = resultss/4CJN/ligands/lig_331_t0.pdb
REMARK  14 active torsions:
REMARK  status: ('A' for Active; 'I' for Inactive)
REMARK    1  A    between atoms: C1_1  and  O1_2
REMARK    2  A    between atoms: O1_2  and  C2_3
REMARK    3  A    between atoms: C4_5  and  C5_6
REMARK    4  A    between atoms: C8_10  and  C9_11
REMARK    5  A    between atoms: C9_11  and  C10_12
REMARK    6  A    between atoms: C10_12  and  C11_13
REMARK    7  A    between atoms: C14_16  and  O3_17
REMARK    8  A    between atoms: C18_21  and  O4_22
REMARK    9  A    between atoms: O4_22  and  C19_23
REMARK   10  A    between atoms: C21_26  and  C22_27
REMARK   11  A    between atoms: C22_27  and  O6_28
REMARK   12  A    between atoms: C24_30  and  O7_31
REMARK   13  A    between atoms: O7_31  and  C25_32
REMARK   14  A    between atoms: C26_33  and  O8_34
REMARK                            x       y       z     vdW  Elec       q    Type
REMARK                         _______ _______ _______ _____ _____    ______ ____
ROOT
ATOM      1  C5  UNL     1      28.206  -8.471 -37.596  0.00  0.00    +0.000 C 
ATOM      2  O2  UNL     1      27.078  -8.293 -38.460  0.00  0.00    +0.000 OA
ATOM      3  C6  UNL     1      27.099  -8.736 -39.786  0.00  0.00    +0.000 A 
ATOM      4  C7  UNL     1      26.114  -8.326 -40.685  0.00  0.00    +0.000 A 
ATOM      5  C8  UNL     1      26.167  -8.743 -42.025  0.00  0.00    +0.000 A 
ATOM      6  C17 UNL     1      27.202  -9.597 -42.444  0.00  0.00    +0.000 A 
ATOM      7  C18 UNL     1      28.189 -10.026 -41.534  0.00  0.00    +0.000 A 
ATOM      8  C20 UNL     1      28.119  -9.599 -40.203  0.00  0.00    +0.000 A 
ATOM      9  O5  UNL     1      29.066 -10.031 -39.267  0.00  0.00    +0.000 OA
ATOM     10  C21 UNL     1      28.862  -9.852 -37.863  0.00  0.00    +0.000 C 
ENDROOT
BRANCH   1  13
ATOM     11  C2  UNL     1      26.201  -8.854 -34.361  0.00  0.00    +0.000 A 
ATOM     12  C3  UNL     1      26.601  -8.963 -35.705  0.00  0.00    +0.000 A 
ATOM     13  C4  UNL     1      27.766  -8.327 -36.158  0.00  0.00    +0.000 A 
ATOM     14  C23 UNL     1      28.543  -7.589 -35.252  0.00  0.00    +0.000 A 
ATOM     15  C24 UNL     1      28.158  -7.473 -33.904  0.00  0.00    +0.000 A 
ATOM     16  C26 UNL     1      26.981  -8.107 -33.467  0.00  0.00    +0.000 A 
BRANCH  11  18
ATOM     17  C1  UNL     1      23.767  -8.841 -33.781  0.00  0.00    +0.000 C 
ATOM     18  O1  UNL     1      25.038  -9.474 -33.876  0.00  0.00    +0.000 OA
ENDBRANCH  11  18
BRANCH  15  19
ATOM     19  O7  UNL     1      28.917  -6.740 -32.976  0.00  0.00    +0.000 OA
ATOM     20  C25 UNL     1      30.118  -7.204 -32.368  0.00  0.00    +0.000 C 
ENDBRANCH  15  19
BRANCH  16  21
ATOM     21  O8  UNL     1      26.571  -8.008 -32.136  0.00  0.00    +0.000 OA
ATOM     22  H28 UNL     1      25.821  -7.393 -31.845  0.00  0.00    +0.000 HD
ENDBRANCH  16  21
ENDBRANCH   1  13
BRANCH   7  23
ATOM     23  O4  UNL     1      29.238 -10.878 -41.912  0.00  0.00    +0.000 OA
ATOM     24  C19 UNL     1      30.444 -10.446 -42.534  0.00  0.00    +0.000 C 
ENDBRANCH   7  23
BRANCH   5  25
ATOM     25  C9  UNL     1      25.090  -8.325 -42.989  0.00  0.00    +0.000 C 
BRANCH  25  26
ATOM     26  C10 UNL     1      25.371  -6.921 -43.532  0.00  0.00    +0.000 C 
BRANCH  26  27
ATOM     27  C11 UNL     1      25.784  -6.986 -44.978  0.00  0.00    +0.000 A 
ATOM     28  C12 UNL     1      24.813  -7.008 -45.993  0.00  0.00    +0.000 A 
ATOM     29  C13 UNL     1      25.196  -7.101 -47.333  0.00  0.00    +0.000 A 
ATOM     30  C14 UNL     1      26.550  -7.184 -47.675  0.00  0.00    +0.000 A 
ATOM     31  C15 UNL     1      27.522  -7.177 -46.666  0.00  0.00    +0.000 A 
ATOM     32  C16 UNL     1      27.142  -7.084 -45.324  0.00  0.00    +0.000 A 
BRANCH  30  33
ATOM     33  O3  UNL     1      26.917  -7.277 -49.015  0.00  0.00    +0.000 OA
ATOM     34  H13 UNL     1      27.389  -8.096 -49.379  0.00  0.00    +0.000 HD
ENDBRANCH  30  33
ENDBRANCH  26  27
ENDBRANCH  25  26
ENDBRANCH   5  25
BRANCH  10  35
ATOM     35  C22 UNL     1      30.199 -10.029 -37.125  0.00  0.00    +0.000 C 
BRANCH  35  36
ATOM     36  O6  UNL     1      31.214 -10.432 -38.005  0.00  0.00    +0.000 OA
ATOM     37  H23 UNL     1      31.774  -9.632 -38.180  0.00  0.00    +0.000 HD
ENDBRANCH  35  36
ENDBRANCH  10  35
TORSDOF 11
ENDMDL
MODEL 8
REMARK VINA RESULT:    -6.368      2.977      5.613
REMARK INTER + INTRA:         -10.475
REMARK INTER:                  -9.294
REMARK INTRA:                  -1.181
REMARK UNBOUND:                -0.571
REMARK  Name = resultss/4CJN/ligands/lig_331_t0.pdb
REMARK  14 active torsions:
REMARK  status: ('A' for Active; 'I' for Inactive)
REMARK    1  A    between atoms: C1_1  and  O1_2
REMARK    2  A    between atoms: O1_2  and  C2_3
REMARK    3  A    between atoms: C4_5  and  C5_6
REMARK    4  A    between atoms: C8_10  and  C9_11
REMARK    5  A    between atoms: C9_11  and  C10_12
REMARK    6  A    between atoms: C10_12  and  C11_13
REMARK    7  A    between atoms: C14_16  and  O3_17
REMARK    8  A    between atoms: C18_21  and  O4_22
REMARK    9  A    between atoms: O4_22  and  C19_23
REMARK   10  A    between atoms: C21_26  and  C22_27
REMARK   11  A    between atoms: C22_27  and  O6_28
REMARK   12  A    between atoms: C24_30  and  O7_31
REMARK   13  A    between atoms: O7_31  and  C25_32
REMARK   14  A    between atoms: C26_33  and  O8_34
REMARK                            x       y       z     vdW  Elec       q    Type
REMARK                         _______ _______ _______ _____ _____    ______ ____
ROOT
ATOM      1  C5  UNL     1      28.210  -8.436 -37.586  0.00  0.00    +0.000 C 
ATOM      2  O2  UNL     1      27.069  -8.216 -38.422  0.00  0.00    +0.000 OA
ATOM      3  C6  UNL     1      27.047  -8.642 -39.753  0.00  0.00    +0.000 A 
ATOM      4  C7  UNL     1      26.052  -8.193 -40.624  0.00  0.00    +0.000 A 
ATOM      5  C8  UNL     1      26.063  -8.594 -41.969  0.00  0.00    +0.000 A 
ATOM      6  C17 UNL     1      27.064  -9.470 -42.424  0.00  0.00    +0.000 A 
ATOM      7  C18 UNL     1      28.060  -9.938 -41.542  0.00  0.00    +0.000 A 
ATOM      8  C20 UNL     1      28.033  -9.527 -40.204  0.00  0.00    +0.000 A 
ATOM      9  O5  UNL     1      28.988  -9.997 -39.296  0.00  0.00    +0.000 OA
ATOM     10  C21 UNL     1      28.822  -9.831 -37.886  0.00  0.00    +0.000 C 
ENDROOT
BRANCH   1  13
ATOM     11  C2  UNL     1      28.167  -7.335 -33.923  0.00  0.00    +0.000 A 
ATOM     12  C3  UNL     1      28.552  -7.487 -35.268  0.00  0.00    +0.000 A 
ATOM     13  C4  UNL     1      27.808  -8.299 -36.136  0.00  0.00    +0.000 A 
ATOM     14  C23 UNL     1      26.662  -8.950 -35.657  0.00  0.00    +0.000 A 
ATOM     15  C24 UNL     1      26.262  -8.807 -34.315  0.00  0.00    +0.000 A 
ATOM     16  C26 UNL     1      27.025  -7.997 -33.453  0.00  0.00    +0.000 A 
BRANCH  11  18
ATOM     17  C1  UNL     1      30.288  -6.277 -33.121  0.00  0.00    +0.000 C 
ATOM     18  O1  UNL     1      28.892  -6.534 -33.026  0.00  0.00    +0.000 OA
ENDBRANCH  11  18
BRANCH  15  19
ATOM     19  O7  UNL     1      25.120  -9.447 -33.809  0.00  0.00    +0.000 OA
ATOM     20  C25 UNL     1      23.832  -8.847 -33.712  0.00  0.00    +0.000 C 
ENDBRANCH  15  19
BRANCH  16  21
ATOM     21  O8  UNL     1      26.656  -7.837 -32.116  0.00  0.00    +0.000 OA
ATOM     22  H28 UNL     1      26.754  -8.579 -31.434  0.00  0.00    +0.000 HD
ENDBRANCH  16  21
ENDBRANCH   1  13
BRANCH   7  23
ATOM     23  O4  UNL     1      29.075 -10.814 -41.955  0.00  0.00    +0.000 OA
ATOM     24  C19 UNL     1      30.397 -10.410 -42.300  0.00  0.00    +0.000 C 
ENDBRANCH   7  23
BRANCH   5  25
ATOM     25  C9  UNL     1      24.976  -8.133 -42.903  0.00  0.00    +0.000 C 
BRANCH  25  26
ATOM     26  C10 UNL     1      25.337  -6.779 -43.520  0.00  0.00    +0.000 C 
BRANCH  26  27
ATOM     27  C11 UNL     1      25.766  -6.948 -44.953  0.00  0.00    +0.000 A 
ATOM     28  C12 UNL     1      27.131  -6.997 -45.282  0.00  0.00    +0.000 A 
ATOM     29  C13 UNL     1      27.530  -7.122 -46.616  0.00  0.00    +0.000 A 
ATOM     30  C14 UNL     1      26.572  -7.189 -47.634  0.00  0.00    +0.000 A 
ATOM     31  C15 UNL     1      25.210  -7.128 -47.312  0.00  0.00    +0.000 A 
ATOM     32  C16 UNL     1      24.808  -7.003 -45.979  0.00  0.00    +0.000 A 
BRANCH  30  33
ATOM     33  O3  UNL     1      26.984  -7.313 -48.959  0.00  0.00    +0.000 OA
ATOM     34  H13 UNL     1      27.573  -8.081 -49.260  0.00  0.00    +0.000 HD
ENDBRANCH  30  33
ENDBRANCH  26  27
ENDBRANCH  25  26
ENDBRANCH   5  25
BRANCH  10  35
ATOM     35  C22 UNL     1      30.170 -10.055 -37.182  0.00  0.00    +0.000 C 
BRANCH  35  36
ATOM     36  O6  UNL     1      31.157 -10.458 -38.093  0.00  0.00    +0.000 OA
ATOM     37  H23 UNL     1      31.700 -11.153 -37.638  0.00  0.00    +0.000 HD
ENDBRANCH  35  36
ENDBRANCH  10  35
TORSDOF 11
ENDMDL
MODEL 9
REMARK VINA RESULT:    -6.325      3.247     10.063
REMARK INTER + INTRA:         -10.409
REMARK INTER:                  -9.887
REMARK INTRA:                  -0.522
REMARK UNBOUND:                -0.571
REMARK  Name = resultss/4CJN/ligands/lig_331_t0.pdb
REMARK  14 active torsions:
REMARK  status: ('A' for Active; 'I' for Inactive)
REMARK    1  A    between atoms: C1_1  and  O1_2
REMARK    2  A    between atoms: O1_2  and  C2_3
REMARK    3  A    between atoms: C4_5  and  C5_6
REMARK    4  A    between atoms: C8_10  and  C9_11
REMARK    5  A    between atoms: C9_11  and  C10_12
REMARK    6  A    between atoms: C10_12  and  C11_13
REMARK    7  A    between atoms: C14_16  and  O3_17
REMARK    8  A    between atoms: C18_21  and  O4_22
REMARK    9  A    between atoms: O4_22  and  C19_23
REMARK   10  A    between atoms: C21_26  and  C22_27
REMARK   11  A    between atoms: C22_27  and  O6_28
REMARK   12  A    between atoms: C24_30  and  O7_31
REMARK   13  A    between atoms: O7_31  and  C25_32
REMARK   14  A    between atoms: C26_33  and  O8_34
REMARK                            x       y       z     vdW  Elec       q    Type
REMARK                         _______ _______ _______ _____ _____    ______ ____
ROOT
ATOM      1  C5  UNL     1      27.764  -9.860 -40.660  0.00  0.00    +0.000 C 
ATOM      2  O2  UNL     1      27.279  -9.490 -39.365  0.00  0.00    +0.000 OA
ATOM      3  C6  UNL     1      28.081  -9.604 -38.227  0.00  0.00    +0.000 A 
ATOM      4  C7  UNL     1      27.522  -9.497 -36.952  0.00  0.00    +0.000 A 
ATOM      5  C8  UNL     1      28.329  -9.654 -35.815  0.00  0.00    +0.000 A 
ATOM      6  C17 UNL     1      29.706  -9.892 -35.969  0.00  0.00    +0.000 A 
ATOM      7  C18 UNL     1      30.277  -9.983 -37.255  0.00  0.00    +0.000 A 
ATOM      8  C20 UNL     1      29.455  -9.824 -38.377  0.00  0.00    +0.000 A 
ATOM      9  O5  UNL     1      29.995  -9.879 -39.667  0.00  0.00    +0.000 OA
ATOM     10  C21 UNL     1      29.251  -9.440 -40.807  0.00  0.00    +0.000 C 
ENDROOT
BRANCH   1  13
ATOM     11  C2  UNL     1      26.657  -7.803 -43.690  0.00  0.00    +0.000 A 
ATOM     12  C3  UNL     1      27.457  -8.372 -42.682  0.00  0.00    +0.000 A 
ATOM     13  C4  UNL     1      26.895  -9.229 -41.724  0.00  0.00    +0.000 A 
ATOM     14  C23 UNL     1      25.526  -9.529 -41.787  0.00  0.00    +0.000 A 
ATOM     15  C24 UNL     1      24.714  -8.969 -42.790  0.00  0.00    +0.000 A 
ATOM     16  C26 UNL     1      25.289  -8.102 -43.738  0.00  0.00    +0.000 A 
BRANCH  11  18
ATOM     17  C1  UNL     1      27.919  -7.359 -45.805  0.00  0.00    +0.000 C 
ATOM     18  O1  UNL     1      27.186  -6.937 -44.660  0.00  0.00    +0.000 OA
ENDBRANCH  11  18
BRANCH  15  19
ATOM     19  O7  UNL     1      23.341  -9.252 -42.877  0.00  0.00    +0.000 OA
ATOM     20  C25 UNL     1      22.304  -8.325 -42.571  0.00  0.00    +0.000 C 
ENDBRANCH  15  19
BRANCH  16  21
ATOM     21  O8  UNL     1      24.509  -7.529 -44.744  0.00  0.00    +0.000 OA
ATOM     22  H28 UNL     1      24.851  -6.781 -45.334  0.00  0.00    +0.000 HD
ENDBRANCH  16  21
ENDBRANCH   1  13
BRANCH   7  23
ATOM     23  O4  UNL     1      31.646 -10.218 -37.453  0.00  0.00    +0.000 OA
ATOM     24  C19 UNL     1      32.687  -9.595 -36.706  0.00  0.00    +0.000 C 
ENDBRANCH   7  23
BRANCH   5  25
ATOM     25  C9  UNL     1      27.733  -9.512 -34.440  0.00  0.00    +0.000 C 
BRANCH  25  26
ATOM     26  C10 UNL     1      26.271  -9.969 -34.438  0.00  0.00    +0.000 C 
BRANCH  26  27
ATOM     27  C11 UNL     1      25.383  -8.899 -33.862  0.00  0.00    +0.000 A 
ATOM     28  C12 UNL     1      24.134  -9.233 -33.315  0.00  0.00    +0.000 A 
ATOM     29  C13 UNL     1      23.295  -8.236 -32.811  0.00  0.00    +0.000 A 
ATOM     30  C14 UNL     1      23.691  -6.894 -32.856  0.00  0.00    +0.000 A 
ATOM     31  C15 UNL     1      24.930  -6.554 -33.412  0.00  0.00    +0.000 A 
ATOM     32  C16 UNL     1      25.771  -7.550 -33.918  0.00  0.00    +0.000 A 
BRANCH  30  33
ATOM     33  O3  UNL     1      22.845  -5.910 -32.349  0.00  0.00    +0.000 OA
ATOM     34  H13 UNL     1      22.827  -5.685 -31.361  0.00  0.00    +0.000 HD
ENDBRANCH  30  33
ENDBRANCH  26  27
ENDBRANCH  25  26
ENDBRANCH   5  25
BRANCH  10  35
ATOM     35  C22 UNL     1      29.903  -9.988 -42.086  0.00  0.00    +0.000 C 
BRANCH  35  36
ATOM     36  O6  UNL     1      30.633 -11.156 -41.823  0.00  0.00    +0.000 OA
ATOM     37  H23 UNL     1      29.977 -11.897 -41.764  0.00  0.00    +0.000 HD
ENDBRANCH  35  36
ENDBRANCH  10  35
TORSDOF 11
ENDMDL
