MODEL 1
REMARK VINA RESULT:    -6.054      0.000      0.000
REMARK INTER + INTRA:         -10.433
REMARK INTER:                  -9.063
REMARK INTRA:                  -1.370
REMARK UNBOUND:                -1.370
REMARK  Name = resultss/4CJN/ligands/lig_282_t2.pdb
REMARK  10 active torsions:
REMARK  status: ('A' for Active; 'I' for Inactive)
REMARK    1  A    between atoms: C2_2  and  C3_3
REMARK    2  A    between atoms: C3_3  and  C4_4
REMARK    3  A    between atoms: C6_6  and  C7_7
REMARK    4  A    between atoms: C11_12  and  C12_13
REMARK    5  A    between atoms: C12_13  and  C13_14
REMARK    6  A    between atoms: C16_17  and  O2_18
REMARK    7  A    between atoms: C17_19  and  C18_20
REMARK    8  A    between atoms: C18_20  and  C19_21
REMARK    9  A    between atoms: C18_20  and  N1_29
REMARK   10  A    between atoms: C27_32  and  C28_33
REMARK                            x       y       z     vdW  Elec       q    Type
REMARK                         _______ _______ _______ _____ _____    ______ ____
ROOT
ATOM      1  C4  UNL     1      27.128  -9.785 -34.561  0.00  0.00    +0.000 A 
ATOM      2  C5  UNL     1      28.222  -9.697 -33.697  0.00  0.00    +0.000 A 
ATOM      3  C6  UNL     1      29.525  -9.593 -34.203  0.00  0.00    +0.000 A 
ATOM      4  C16 UNL     1      29.739  -9.565 -35.597  0.00  0.00    +0.000 A 
ATOM      5  C17 UNL     1      28.629  -9.596 -36.484  0.00  0.00    +0.000 A 
ATOM      6  C31 UNL     1      27.337  -9.737 -35.943  0.00  0.00    +0.000 A 
ENDROOT
BRANCH   3   7
ATOM      7  C7  UNL     1      30.664  -9.509 -33.258  0.00  0.00    +0.000 C 
ATOM      8  C8  UNL     1      30.948  -8.228 -32.573  0.00  0.00    +0.000 C 
ATOM      9  C9  UNL     1      32.022  -8.080 -31.798  0.00  0.00    +0.000 C 
ATOM     10  C10 UNL     1      32.931  -9.210 -31.570  0.00  0.00    +0.000 C 
ATOM     11  O1  UNL     1      34.035  -9.013 -30.997  0.00  0.00    +0.000 OA
ATOM     12  C11 UNL     1      32.535 -10.609 -31.992  0.00  0.00    +0.000 C 
ATOM     13  C15 UNL     1      31.431 -10.591 -33.026  0.00  0.00    +0.000 C 
BRANCH  12  14
ATOM     14  C12 UNL     1      32.073 -11.440 -30.781  0.00  0.00    +0.000 C 
BRANCH  14  15
ATOM     15  C13 UNL     1      32.707 -12.808 -30.766  0.00  0.00    +0.000 C 
ATOM     16  C14 UNL     1      32.168 -13.844 -31.414  0.00  0.00    +0.000 C 
ENDBRANCH  14  15
ENDBRANCH  12  14
ENDBRANCH   3   7
BRANCH   4  17
ATOM     17  O2  UNL     1      31.059  -9.530 -36.060  0.00  0.00    +0.000 OA
ATOM     18  H16 UNL     1      31.421  -8.839 -36.701  0.00  0.00    +0.000 HD
ENDBRANCH   4  17
BRANCH   1  19
ATOM     19  C3  UNL     1      25.729  -9.863 -34.008  0.00  0.00    +0.000 C 
BRANCH  19  21
ATOM     20  C1  UNL     1      25.165  -7.447 -33.978  0.00  0.00    +0.000 C 
ATOM     21  C2  UNL     1      24.921  -8.674 -34.446  0.00  0.00    +0.000 C 
ENDBRANCH  19  21
ENDBRANCH   1  19
BRANCH   5  22
ATOM     22  C18 UNL     1      28.803  -9.521 -38.003  0.00  0.00    +0.000 C 
BRANCH  22  23
ATOM     23  C19 UNL     1      27.454  -9.161 -38.615  0.00  0.00    +0.000 A 
ATOM     24  C20 UNL     1      26.593  -8.264 -37.956  0.00  0.00    +0.000 A 
ATOM     25  C21 UNL     1      25.350  -7.938 -38.510  0.00  0.00    +0.000 A 
ATOM     26 CL1  UNL     1      24.287  -6.818 -37.679  0.00  0.00    +0.000 Cl
ATOM     27  C22 UNL     1      24.952  -8.510 -39.722  0.00  0.00    +0.000 A 
ATOM     28  C23 UNL     1      25.794  -9.410 -40.381  0.00  0.00    +0.000 A 
ATOM     29 CL2  UNL     1      25.287 -10.140 -41.893  0.00  0.00    +0.000 Cl
ATOM     30  C24 UNL     1      27.038  -9.735 -39.831  0.00  0.00    +0.000 A 
ENDBRANCH  22  23
BRANCH  22  31
ATOM     31  N1  UNL     1      29.870  -8.553 -38.397  0.00  0.00    +0.000 NA
ATOM     32  C25 UNL     1      30.646  -9.025 -39.582  0.00  0.00    +0.000 C 
ATOM     33  C26 UNL     1      30.209  -8.350 -40.888  0.00  0.00    +0.000 C 
ATOM     34  C27 UNL     1      30.437  -6.824 -40.824  0.00  0.00    +0.000 C 
ATOM     35  C28 UNL     1      29.504  -6.101 -41.803  0.00  0.00    +0.000 C 
ATOM     36  C29 UNL     1      30.277  -6.282 -39.384  0.00  0.00    +0.000 C 
ATOM     37  C30 UNL     1      29.340  -7.170 -38.556  0.00  0.00    +0.000 C 
ENDBRANCH  22  31
ENDBRANCH   5  22
TORSDOF 9
ENDMDL
MODEL 2
REMARK VINA RESULT:    -5.918      3.935      6.738
REMARK INTER + INTRA:         -10.230
REMARK INTER:                  -8.597
REMARK INTRA:                  -1.633
REMARK UNBOUND:                -1.370
REMARK  Name = resultss/4CJN/ligands/lig_282_t2.pdb
REMARK  10 active torsions:
REMARK  status: ('A' for Active; 'I' for Inactive)
REMARK    1  A    between atoms: C2_2  and  C3_3
REMARK    2  A    between atoms: C3_3  and  C4_4
REMARK    3  A    between atoms: C6_6  and  C7_7
REMARK    4  A    between atoms: C11_12  and  C12_13
REMARK    5  A    between atoms: C12_13  and  C13_14
REMARK    6  A    between atoms: C16_17  and  O2_18
REMARK    7  A    between atoms: C17_19  and  C18_20
REMARK    8  A    between atoms: C18_20  and  C19_21
REMARK    9  A    between atoms: C18_20  and  N1_29
REMARK   10  A    between atoms: C27_32  and  C28_33
REMARK                            x       y       z     vdW  Elec       q    Type
REMARK                         _______ _______ _______ _____ _____    ______ ____
ROOT
ATOM      1  C4  UNL     1      27.666 -11.804 -39.961  0.00  0.00    +0.000 A 
ATOM      2  C5  UNL     1      27.111 -11.059 -38.917  0.00  0.00    +0.000 A 
ATOM      3  C6  UNL     1      27.317  -9.674 -38.840  0.00  0.00    +0.000 A 
ATOM      4  C16 UNL     1      28.080  -9.020 -39.830  0.00  0.00    +0.000 A 
ATOM      5  C17 UNL     1      28.599  -9.758 -40.926  0.00  0.00    +0.000 A 
ATOM      6  C31 UNL     1      28.406 -11.153 -40.954  0.00  0.00    +0.000 A 
ENDROOT
BRANCH   3   7
ATOM      7  C7  UNL     1      26.721  -8.915 -37.715  0.00  0.00    +0.000 C 
ATOM      8  C8  UNL     1      25.286  -8.552 -37.762  0.00  0.00    +0.000 C 
ATOM      9  C9  UNL     1      24.736  -7.783 -36.823  0.00  0.00    +0.000 C 
ATOM     10  C10 UNL     1      25.540  -7.310 -35.689  0.00  0.00    +0.000 C 
ATOM     11  O1  UNL     1      25.067  -6.436 -34.915  0.00  0.00    +0.000 OA
ATOM     12  C11 UNL     1      26.914  -7.889 -35.429  0.00  0.00    +0.000 C 
ATOM     13  C15 UNL     1      27.480  -8.562 -36.661  0.00  0.00    +0.000 C 
BRANCH  12  14
ATOM     14  C12 UNL     1      26.875  -8.908 -34.276  0.00  0.00    +0.000 C 
BRANCH  14  15
ATOM     15  C13 UNL     1      27.988  -9.918 -34.383  0.00  0.00    +0.000 C 
ATOM     16  C14 UNL     1      29.154  -9.755 -33.753  0.00  0.00    +0.000 C 
ENDBRANCH  14  15
ENDBRANCH  12  14
ENDBRANCH   3   7
BRANCH   4  17
ATOM     17  O2  UNL     1      28.318  -7.649 -39.678  0.00  0.00    +0.000 OA
ATOM     18  H16 UNL     1      27.802  -7.046 -39.054  0.00  0.00    +0.000 HD
ENDBRANCH   4  17
BRANCH   1  19
ATOM     19  C3  UNL     1      27.412 -13.285 -40.053  0.00  0.00    +0.000 C 
BRANCH  19  21
ATOM     20  C1  UNL     1      25.488 -14.791 -40.485  0.00  0.00    +0.000 C 
ATOM     21  C2  UNL     1      25.991 -13.554 -40.463  0.00  0.00    +0.000 C 
ENDBRANCH  19  21
ENDBRANCH   1  19
BRANCH   5  22
ATOM     22  C18 UNL     1      29.394  -9.089 -42.051  0.00  0.00    +0.000 C 
BRANCH  22  23
ATOM     23  C19 UNL     1      30.691  -9.869 -42.240  0.00  0.00    +0.000 A 
ATOM     24  C20 UNL     1      31.796  -9.621 -41.405  0.00  0.00    +0.000 A 
ATOM     25  C21 UNL     1      32.990 -10.328 -41.581  0.00  0.00    +0.000 A 
ATOM     26 CL1  UNL     1      34.360 -10.010 -40.533  0.00  0.00    +0.000 Cl
ATOM     27  C22 UNL     1      33.095 -11.284 -42.596  0.00  0.00    +0.000 A 
ATOM     28  C23 UNL     1      32.007 -11.532 -43.438  0.00  0.00    +0.000 A 
ATOM     29 CL2  UNL     1      32.145 -12.719 -44.722  0.00  0.00    +0.000 Cl
ATOM     30  C24 UNL     1      30.812 -10.828 -43.263  0.00  0.00    +0.000 A 
ENDBRANCH  22  23
BRANCH  22  31
ATOM     31  N1  UNL     1      28.607  -9.002 -43.317  0.00  0.00    +0.000 NA
ATOM     32  C25 UNL     1      27.177  -9.382 -43.114  0.00  0.00    +0.000 C 
ATOM     33  C26 UNL     1      26.246  -8.168 -43.006  0.00  0.00    +0.000 C 
ATOM     34  C27 UNL     1      26.274  -7.333 -44.304  0.00  0.00    +0.000 C 
ATOM     35  C28 UNL     1      25.863  -5.884 -44.020  0.00  0.00    +0.000 C 
ATOM     36  C29 UNL     1      27.654  -7.403 -45.001  0.00  0.00    +0.000 C 
ATOM     37  C30 UNL     1      28.773  -7.684 -43.990  0.00  0.00    +0.000 C 
ENDBRANCH  22  31
ENDBRANCH   5  22
TORSDOF 9
ENDMDL
MODEL 3
REMARK VINA RESULT:    -5.855      3.659      8.813
REMARK INTER + INTRA:         -10.134
REMARK INTER:                  -8.889
REMARK INTRA:                  -1.245
REMARK UNBOUND:                -1.370
REMARK  Name = resultss/4CJN/ligands/lig_282_t2.pdb
REMARK  10 active torsions:
REMARK  status: ('A' for Active; 'I' for Inactive)
REMARK    1  A    between atoms: C2_2  and  C3_3
REMARK    2  A    between atoms: C3_3  and  C4_4
REMARK    3  A    between atoms: C6_6  and  C7_7
REMARK    4  A    between atoms: C11_12  and  C12_13
REMARK    5  A    between atoms: C12_13  and  C13_14
REMARK    6  A    between atoms: C16_17  and  O2_18
REMARK    7  A    between atoms: C17_19  and  C18_20
REMARK    8  A    between atoms: C18_20  and  C19_21
REMARK    9  A    between atoms: C18_20  and  N1_29
REMARK   10  A    between atoms: C27_32  and  C28_33
REMARK                            x       y       z     vdW  Elec       q    Type
REMARK                         _______ _______ _______ _____ _____    ______ ____
ROOT
ATOM      1  C4  UNL     1      27.152 -11.993 -39.958  0.00  0.00    +0.000 A 
ATOM      2  C5  UNL     1      26.274 -11.290 -40.787  0.00  0.00    +0.000 A 
ATOM      3  C6  UNL     1      26.266  -9.888 -40.793  0.00  0.00    +0.000 A 
ATOM      4  C16 UNL     1      27.159  -9.175 -39.967  0.00  0.00    +0.000 A 
ATOM      5  C17 UNL     1      28.096  -9.879 -39.164  0.00  0.00    +0.000 A 
ATOM      6  C31 UNL     1      28.053 -11.287 -39.153  0.00  0.00    +0.000 A 
ENDROOT
BRANCH   3   7
ATOM      7  C7  UNL     1      25.315  -9.174 -41.679  0.00  0.00    +0.000 C 
ATOM      8  C8  UNL     1      24.064  -8.624 -41.110  0.00  0.00    +0.000 C 
ATOM      9  C9  UNL     1      23.135  -8.068 -41.888  0.00  0.00    +0.000 C 
ATOM     10  C10 UNL     1      23.357  -7.950 -43.334  0.00  0.00    +0.000 C 
ATOM     11  O1  UNL     1      22.405  -7.599 -44.081  0.00  0.00    +0.000 OA
ATOM     12  C11 UNL     1      24.725  -8.214 -43.925  0.00  0.00    +0.000 C 
ATOM     13  C15 UNL     1      25.592  -9.028 -42.988  0.00  0.00    +0.000 C 
BRANCH  12  14
ATOM     14  C12 UNL     1      25.448  -6.896 -44.256  0.00  0.00    +0.000 C 
BRANCH  14  15
ATOM     15  C13 UNL     1      26.946  -7.061 -44.246  0.00  0.00    +0.000 C 
ATOM     16  C14 UNL     1      27.659  -7.115 -45.373  0.00  0.00    +0.000 C 
ENDBRANCH  14  15
ENDBRANCH  12  14
ENDBRANCH   3   7
BRANCH   4  17
ATOM     17  O2  UNL     1      27.072  -7.778 -39.953  0.00  0.00    +0.000 OA
ATOM     18  H16 UNL     1      27.506  -7.173 -40.634  0.00  0.00    +0.000 HD
ENDBRANCH   4  17
BRANCH   1  19
ATOM     19  C3  UNL     1      27.177 -13.498 -39.982  0.00  0.00    +0.000 C 
BRANCH  19  21
ATOM     20  C1  UNL     1      25.389 -15.212 -40.123  0.00  0.00    +0.000 C 
ATOM     21  C2  UNL     1      25.885 -14.040 -40.527  0.00  0.00    +0.000 C 
ENDBRANCH  19  21
ENDBRANCH   1  19
BRANCH   5  22
ATOM     22  C18 UNL     1      29.119  -9.153 -38.285  0.00  0.00    +0.000 C 
BRANCH  22  23
ATOM     23  C19 UNL     1      28.756  -9.415 -36.828  0.00  0.00    +0.000 A 
ATOM     24  C20 UNL     1      27.409  -9.417 -36.421  0.00  0.00    +0.000 A 
ATOM     25  C21 UNL     1      27.073  -9.648 -35.082  0.00  0.00    +0.000 A 
ATOM     26 CL1  UNL     1      25.390  -9.649 -34.588  0.00  0.00    +0.000 Cl
ATOM     27  C22 UNL     1      28.078  -9.872 -34.137  0.00  0.00    +0.000 A 
ATOM     28  C23 UNL     1      29.420  -9.862 -34.527  0.00  0.00    +0.000 A 
ATOM     29 CL2  UNL     1      30.682 -10.125 -33.336  0.00  0.00    +0.000 Cl
ATOM     30  C24 UNL     1      29.759  -9.634 -35.864  0.00  0.00    +0.000 A 
ENDBRANCH  22  23
BRANCH  22  31
ATOM     31  N1  UNL     1      30.518  -9.570 -38.595  0.00  0.00    +0.000 NA
ATOM     32  C25 UNL     1      30.754  -9.694 -40.065  0.00  0.00    +0.000 C 
ATOM     33  C26 UNL     1      31.485  -8.482 -40.656  0.00  0.00    +0.000 C 
ATOM     34  C27 UNL     1      32.884  -8.320 -40.023  0.00  0.00    +0.000 C 
ATOM     35  C28 UNL     1      33.357  -6.865 -40.135  0.00  0.00    +0.000 C 
ATOM     36  C29 UNL     1      32.911  -8.812 -38.558  0.00  0.00    +0.000 C 
ATOM     37  C30 UNL     1      31.524  -8.710 -37.911  0.00  0.00    +0.000 C 
ENDBRANCH  22  31
ENDBRANCH   5  22
TORSDOF 9
ENDMDL
MODEL 4
REMARK VINA RESULT:    -5.813      2.652      5.400
REMARK INTER + INTRA:         -10.072
REMARK INTER:                  -8.120
REMARK INTRA:                  -1.951
REMARK UNBOUND:                -1.370
REMARK  Name = resultss/4CJN/ligands/lig_282_t2.pdb
REMARK  10 active torsions:
REMARK  status: ('A' for Active; 'I' for Inactive)
REMARK    1  A    between atoms: C2_2  and  C3_3
REMARK    2  A    between atoms: C3_3  and  C4_4
REMARK    3  A    between atoms: C6_6  and  C7_7
REMARK    4  A    between atoms: C11_12  and  C12_13
REMARK    5  A    between atoms: C12_13  and  C13_14
REMARK    6  A    between atoms: C16_17  and  O2_18
REMARK    7  A    between atoms: C17_19  and  C18_20
REMARK    8  A    between atoms: C18_20  and  C19_21
REMARK    9  A    between atoms: C18_20  and  N1_29
REMARK   10  A    between atoms: C27_32  and  C28_33
REMARK                            x       y       z     vdW  Elec       q    Type
REMARK                         _______ _______ _______ _____ _____    ______ ____
ROOT
ATOM      1  C4  UNL     1      27.636 -10.338 -38.842  0.00  0.00    +0.000 A 
ATOM      2  C5  UNL     1      28.427 -10.390 -37.691  0.00  0.00    +0.000 A 
ATOM      3  C6  UNL     1      28.423  -9.330 -36.774  0.00  0.00    +0.000 A 
ATOM      4  C16 UNL     1      27.606  -8.203 -37.003  0.00  0.00    +0.000 A 
ATOM      5  C17 UNL     1      26.754  -8.166 -38.140  0.00  0.00    +0.000 A 
ATOM      6  C31 UNL     1      26.810  -9.231 -39.061  0.00  0.00    +0.000 A 
ENDROOT
BRANCH   3   7
ATOM      7  C7  UNL     1      29.280  -9.414 -35.568  0.00  0.00    +0.000 C 
ATOM      8  C8  UNL     1      30.739  -9.195 -35.694  0.00  0.00    +0.000 C 
ATOM      9  C9  UNL     1      31.557  -9.364 -34.656  0.00  0.00    +0.000 C 
ATOM     10  C10 UNL     1      31.017  -9.732 -33.341  0.00  0.00    +0.000 C 
ATOM     11  O1  UNL     1      31.806 -10.073 -32.420  0.00  0.00    +0.000 OA
ATOM     12  C11 UNL     1      29.528  -9.674 -33.080  0.00  0.00    +0.000 C 
ATOM     13  C15 UNL     1      28.732  -9.686 -34.368  0.00  0.00    +0.000 C 
BRANCH  12  14
ATOM     14  C12 UNL     1      29.157  -8.415 -32.275  0.00  0.00    +0.000 C 
BRANCH  14  15
ATOM     15  C13 UNL     1      27.736  -7.983 -32.535  0.00  0.00    +0.000 C 
ATOM     16  C14 UNL     1      27.377  -6.697 -32.532  0.00  0.00    +0.000 C 
ENDBRANCH  14  15
ENDBRANCH  12  14
ENDBRANCH   3   7
BRANCH   4  17
ATOM     17  O2  UNL     1      27.683  -7.138 -36.098  0.00  0.00    +0.000 OA
ATOM     18  H16 UNL     1      28.320  -7.100 -35.316  0.00  0.00    +0.000 HD
ENDBRANCH   4  17
BRANCH   1  19
ATOM     19  C3  UNL     1      27.622 -11.496 -39.805  0.00  0.00    +0.000 C 
BRANCH  19  21
ATOM     20  C1  UNL     1      29.474 -10.786 -41.295  0.00  0.00    +0.000 C 
ATOM     21  C2  UNL     1      28.181 -11.083 -41.137  0.00  0.00    +0.000 C 
ENDBRANCH  19  21
ENDBRANCH   1  19
BRANCH   5  22
ATOM     22  C18 UNL     1      25.814  -6.989 -38.411  0.00  0.00    +0.000 C 
BRANCH  22  23
ATOM     23  C19 UNL     1      25.721  -6.798 -39.921  0.00  0.00    +0.000 A 
ATOM     24  C20 UNL     1      24.495  -6.981 -40.585  0.00  0.00    +0.000 A 
ATOM     25  C21 UNL     1      24.407  -6.815 -41.972  0.00  0.00    +0.000 A 
ATOM     26 CL1  UNL     1      22.872  -7.046 -42.787  0.00  0.00    +0.000 Cl
ATOM     27  C22 UNL     1      25.544  -6.472 -42.709  0.00  0.00    +0.000 A 
ATOM     28  C23 UNL     1      26.771  -6.297 -42.061  0.00  0.00    +0.000 A 
ATOM     29 CL2  UNL     1      28.201  -5.883 -42.989  0.00  0.00    +0.000 Cl
ATOM     30  C24 UNL     1      26.860  -6.460 -40.676  0.00  0.00    +0.000 A 
ENDBRANCH  22  23
BRANCH  22  31
ATOM     31  N1  UNL     1      24.471  -7.192 -37.791  0.00  0.00    +0.000 NA
ATOM     32  C25 UNL     1      24.436  -8.400 -36.914  0.00  0.00    +0.000 C 
ATOM     33  C26 UNL     1      24.550  -8.059 -35.423  0.00  0.00    +0.000 C 
ATOM     34  C27 UNL     1      23.366  -7.179 -34.966  0.00  0.00    +0.000 C 
ATOM     35  C28 UNL     1      23.750  -6.367 -33.723  0.00  0.00    +0.000 C 
ATOM     36  C29 UNL     1      22.859  -6.264 -36.105  0.00  0.00    +0.000 C 
ATOM     37  C30 UNL     1      23.975  -5.961 -37.114  0.00  0.00    +0.000 C 
ENDBRANCH  22  31
ENDBRANCH   5  22
TORSDOF 9
ENDMDL
MODEL 5
REMARK VINA RESULT:    -5.748      4.071      6.388
REMARK INTER + INTRA:          -9.974
REMARK INTER:                  -8.167
REMARK INTRA:                  -1.807
REMARK UNBOUND:                -1.370
REMARK  Name = resultss/4CJN/ligands/lig_282_t2.pdb
REMARK  10 active torsions:
REMARK  status: ('A' for Active; 'I' for Inactive)
REMARK    1  A    between atoms: C2_2  and  C3_3
REMARK    2  A    between atoms: C3_3  and  C4_4
REMARK    3  A    between atoms: C6_6  and  C7_7
REMARK    4  A    between atoms: C11_12  and  C12_13
REMARK    5  A    between atoms: C12_13  and  C13_14
REMARK    6  A    between atoms: C16_17  and  O2_18
REMARK    7  A    between atoms: C17_19  and  C18_20
REMARK    8  A    between atoms: C18_20  and  C19_21
REMARK    9  A    between atoms: C18_20  and  N1_29
REMARK   10  A    between atoms: C27_32  and  C28_33
REMARK                            x       y       z     vdW  Elec       q    Type
REMARK                         _______ _______ _______ _____ _____    ______ ____
ROOT
ATOM      1  C4  UNL     1      25.413  -8.922 -39.598  0.00  0.00    +0.000 A 
ATOM      2  C5  UNL     1      25.039  -8.407 -38.354  0.00  0.00    +0.000 A 
ATOM      3  C6  UNL     1      25.963  -8.338 -37.302  0.00  0.00    +0.000 A 
ATOM      4  C16 UNL     1      27.289  -8.781 -37.499  0.00  0.00    +0.000 A 
ATOM      5  C17 UNL     1      27.694  -9.251 -38.777  0.00  0.00    +0.000 A 
ATOM      6  C31 UNL     1      26.732  -9.342 -39.801  0.00  0.00    +0.000 A 
ENDROOT
BRANCH   3   7
ATOM      7  C7  UNL     1      25.531  -7.794 -35.993  0.00  0.00    +0.000 C 
ATOM      8  C8  UNL     1      25.853  -6.391 -35.647  0.00  0.00    +0.000 C 
ATOM      9  C9  UNL     1      25.575  -5.893 -34.442  0.00  0.00    +0.000 C 
ATOM     10  C10 UNL     1      24.899  -6.723 -33.438  0.00  0.00    +0.000 C 
ATOM     11  O1  UNL     1      24.811  -6.313 -32.250  0.00  0.00    +0.000 OA
ATOM     12  C11 UNL     1      24.281  -8.049 -33.828  0.00  0.00    +0.000 C 
ATOM     13  C15 UNL     1      24.851  -8.571 -35.129  0.00  0.00    +0.000 C 
BRANCH  12  14
ATOM     14  C12 UNL     1      22.752  -7.927 -33.965  0.00  0.00    +0.000 C 
BRANCH  14  15
ATOM     15  C13 UNL     1      22.327  -7.804 -35.406  0.00  0.00    +0.000 C 
ATOM     16  C14 UNL     1      21.844  -6.664 -35.906  0.00  0.00    +0.000 C 
ENDBRANCH  14  15
ENDBRANCH  12  14
ENDBRANCH   3   7
BRANCH   4  17
ATOM     17  O2  UNL     1      28.160  -8.758 -36.404  0.00  0.00    +0.000 OA
ATOM     18  H16 UNL     1      28.257  -7.980 -35.769  0.00  0.00    +0.000 HD
ENDBRANCH   4  17
BRANCH   1  19
ATOM     19  C3  UNL     1      24.422  -8.962 -40.731  0.00  0.00    +0.000 C 
BRANCH  19  21
ATOM     20  C1  UNL     1      25.290  -9.249 -43.037  0.00  0.00    +0.000 C 
ATOM     21  C2  UNL     1      25.047  -8.447 -41.997  0.00  0.00    +0.000 C 
ENDBRANCH  19  21
ENDBRANCH   1  19
BRANCH   5  22
ATOM     22  C18 UNL     1      29.132  -9.699 -39.056  0.00  0.00    +0.000 C 
BRANCH  22  23
ATOM     23  C19 UNL     1      29.358  -9.643 -40.563  0.00  0.00    +0.000 A 
ATOM     24  C20 UNL     1      28.845  -8.572 -41.318  0.00  0.00    +0.000 A 
ATOM     25  C21 UNL     1      29.043  -8.521 -42.702  0.00  0.00    +0.000 A 
ATOM     26 CL1  UNL     1      28.398  -7.181 -43.631  0.00  0.00    +0.000 Cl
ATOM     27  C22 UNL     1      29.748  -9.542 -43.346  0.00  0.00    +0.000 A 
ATOM     28  C23 UNL     1      30.254 -10.615 -42.609  0.00  0.00    +0.000 A 
ATOM     29 CL2  UNL     1      31.124 -11.905 -43.420  0.00  0.00    +0.000 Cl
ATOM     30  C24 UNL     1      30.060 -10.668 -41.225  0.00  0.00    +0.000 A 
ENDBRANCH  22  23
BRANCH  22  31
ATOM     31  N1  UNL     1      30.129  -8.875 -38.312  0.00  0.00    +0.000 NA
ATOM     32  C25 UNL     1      31.293  -9.687 -37.847  0.00  0.00    +0.000 C 
ATOM     33  C26 UNL     1      32.529  -9.523 -38.741  0.00  0.00    +0.000 C 
ATOM     34  C27 UNL     1      33.018  -8.059 -38.743  0.00  0.00    +0.000 C 
ATOM     35  C28 UNL     1      33.816  -7.761 -40.019  0.00  0.00    +0.000 C 
ATOM     36  C29 UNL     1      31.848  -7.063 -38.562  0.00  0.00    +0.000 C 
ATOM     37  C30 UNL     1      30.529  -7.658 -39.072  0.00  0.00    +0.000 C 
ENDBRANCH  22  31
ENDBRANCH   5  22
TORSDOF 9
ENDMDL
MODEL 6
REMARK VINA RESULT:    -5.439      5.675      8.102
REMARK INTER + INTRA:          -9.512
REMARK INTER:                  -7.862
REMARK INTRA:                  -1.651
REMARK UNBOUND:                -1.370
REMARK  Name = resultss/4CJN/ligands/lig_282_t2.pdb
REMARK  10 active torsions:
REMARK  status: ('A' for Active; 'I' for Inactive)
REMARK    1  A    between atoms: C2_2  and  C3_3
REMARK    2  A    between atoms: C3_3  and  C4_4
REMARK    3  A    between atoms: C6_6  and  C7_7
REMARK    4  A    between atoms: C11_12  and  C12_13
REMARK    5  A    between atoms: C12_13  and  C13_14
REMARK    6  A    between atoms: C16_17  and  O2_18
REMARK    7  A    between atoms: C17_19  and  C18_20
REMARK    8  A    between atoms: C18_20  and  C19_21
REMARK    9  A    between atoms: C18_20  and  N1_29
REMARK   10  A    between atoms: C27_32  and  C28_33
REMARK                            x       y       z     vdW  Elec       q    Type
REMARK                         _______ _______ _______ _____ _____    ______ ____
ROOT
ATOM      1  C4  UNL     1      27.623 -12.238 -40.247  0.00  0.00    +0.000 A 
ATOM      2  C5  UNL     1      28.879 -12.145 -40.852  0.00  0.00    +0.000 A 
ATOM      3  C6  UNL     1      29.252 -10.988 -41.549  0.00  0.00    +0.000 A 
ATOM      4  C16 UNL     1      28.359  -9.898 -41.634  0.00  0.00    +0.000 A 
ATOM      5  C17 UNL     1      27.103  -9.960 -40.973  0.00  0.00    +0.000 A 
ATOM      6  C31 UNL     1      26.745 -11.151 -40.313  0.00  0.00    +0.000 A 
ENDROOT
BRANCH   3   7
ATOM      7  C7  UNL     1      30.589 -10.926 -42.186  0.00  0.00    +0.000 C 
ATOM      8  C8  UNL     1      31.718 -10.314 -41.449  0.00  0.00    +0.000 C 
ATOM      9  C9  UNL     1      32.909 -10.144 -42.023  0.00  0.00    +0.000 C 
ATOM     10  C10 UNL     1      33.139 -10.604 -43.398  0.00  0.00    +0.000 C 
ATOM     11  O1  UNL     1      34.198 -10.272 -43.994  0.00  0.00    +0.000 OA
ATOM     12  C11 UNL     1      32.130 -11.497 -44.087  0.00  0.00    +0.000 C 
ATOM     13  C15 UNL     1      30.772 -11.424 -43.423  0.00  0.00    +0.000 C 
BRANCH  12  14
ATOM     14  C12 UNL     1      32.604 -12.962 -44.095  0.00  0.00    +0.000 C 
BRANCH  14  15
ATOM     15  C13 UNL     1      33.202 -13.350 -45.423  0.00  0.00    +0.000 C 
ATOM     16  C14 UNL     1      32.560 -14.146 -46.282  0.00  0.00    +0.000 C 
ENDBRANCH  14  15
ENDBRANCH  12  14
ENDBRANCH   3   7
BRANCH   4  17
ATOM     17  O2  UNL     1      28.744  -8.790 -42.397  0.00  0.00    +0.000 OA
ATOM     18  H16 UNL     1      28.617  -7.830 -42.112  0.00  0.00    +0.000 HD
ENDBRANCH   4  17
BRANCH   1  19
ATOM     19  C3  UNL     1      27.244 -13.472 -39.472  0.00  0.00    +0.000 C 
BRANCH  19  21
ATOM     20  C1  UNL     1      25.386 -14.504 -40.752  0.00  0.00    +0.000 C 
ATOM     21  C2  UNL     1      26.671 -14.517 -40.388  0.00  0.00    +0.000 C 
ENDBRANCH  19  21
ENDBRANCH   1  19
BRANCH   5  22
ATOM     22  C18 UNL     1      26.118  -8.788 -40.995  0.00  0.00    +0.000 C 
BRANCH  22  23
ATOM     23  C19 UNL     1      26.350  -7.954 -39.740  0.00  0.00    +0.000 A 
ATOM     24  C20 UNL     1      27.608  -7.373 -39.497  0.00  0.00    +0.000 A 
ATOM     25  C21 UNL     1      27.828  -6.614 -38.343  0.00  0.00    +0.000 A 
ATOM     26 CL1  UNL     1      29.401  -5.894 -38.053  0.00  0.00    +0.000 Cl
ATOM     27  C22 UNL     1      26.797  -6.434 -37.417  0.00  0.00    +0.000 A 
ATOM     28  C23 UNL     1      25.545  -7.014 -37.642  0.00  0.00    +0.000 A 
ATOM     29 CL2  UNL     1      24.257  -6.802 -36.470  0.00  0.00    +0.000 Cl
ATOM     30  C24 UNL     1      25.322  -7.771 -38.796  0.00  0.00    +0.000 A 
ENDBRANCH  22  23
BRANCH  22  31
ATOM     31  N1  UNL     1      26.246  -7.973 -42.239  0.00  0.00    +0.000 NA
ATOM     32  C25 UNL     1      25.640  -8.655 -43.421  0.00  0.00    +0.000 C 
ATOM     33  C26 UNL     1      24.249  -8.113 -43.774  0.00  0.00    +0.000 C 
ATOM     34  C27 UNL     1      24.318  -6.617 -44.148  0.00  0.00    +0.000 C 
ATOM     35  C28 UNL     1      22.959  -5.944 -43.920  0.00  0.00    +0.000 C 
ATOM     36  C29 UNL     1      25.446  -5.887 -43.382  0.00  0.00    +0.000 C 
ATOM     37  C30 UNL     1      25.753  -6.580 -42.049  0.00  0.00    +0.000 C 
ENDBRANCH  22  31
ENDBRANCH   5  22
TORSDOF 9
ENDMDL
MODEL 7
REMARK VINA RESULT:    -4.747      4.184      9.171
REMARK INTER + INTRA:          -8.477
REMARK INTER:                  -6.928
REMARK INTRA:                  -1.548
REMARK UNBOUND:                -1.370
REMARK  Name = resultss/4CJN/ligands/lig_282_t2.pdb
REMARK  10 active torsions:
REMARK  status: ('A' for Active; 'I' for Inactive)
REMARK    1  A    between atoms: C2_2  and  C3_3
REMARK    2  A    between atoms: C3_3  and  C4_4
REMARK    3  A    between atoms: C6_6  and  C7_7
REMARK    4  A    between atoms: C11_12  and  C12_13
REMARK    5  A    between atoms: C12_13  and  C13_14
REMARK    6  A    between atoms: C16_17  and  O2_18
REMARK    7  A    between atoms: C17_19  and  C18_20
REMARK    8  A    between atoms: C18_20  and  C19_21
REMARK    9  A    between atoms: C18_20  and  N1_29
REMARK   10  A    between atoms: C27_32  and  C28_33
REMARK                            x       y       z     vdW  Elec       q    Type
REMARK                         _______ _______ _______ _____ _____    ______ ____
ROOT
ATOM      1  C4  UNL     1      26.317 -11.128 -40.558  0.00  0.00    +0.000 A 
ATOM      2  C5  UNL     1      25.646 -10.324 -41.482  0.00  0.00    +0.000 A 
ATOM      3  C6  UNL     1      25.960  -8.964 -41.607  0.00  0.00    +0.000 A 
ATOM      4  C16 UNL     1      26.972  -8.398 -40.803  0.00  0.00    +0.000 A 
ATOM      5  C17 UNL     1      27.701  -9.219 -39.902  0.00  0.00    +0.000 A 
ATOM      6  C31 UNL     1      27.335 -10.574 -39.774  0.00  0.00    +0.000 A 
ENDROOT
BRANCH   3   7
ATOM      7  C7  UNL     1      25.222  -8.138 -42.592  0.00  0.00    +0.000 C 
ATOM      8  C8  UNL     1      24.093  -7.297 -42.135  0.00  0.00    +0.000 C 
ATOM      9  C9  UNL     1      23.338  -6.621 -43.002  0.00  0.00    +0.000 C 
ATOM     10  C10 UNL     1      23.641  -6.664 -44.437  0.00  0.00    +0.000 C 
ATOM     11  O1  UNL     1      22.818  -6.182 -45.260  0.00  0.00    +0.000 OA
ATOM     12  C11 UNL     1      24.946  -7.254 -44.928  0.00  0.00    +0.000 C 
ATOM     13  C15 UNL     1      25.579  -8.156 -43.890  0.00  0.00    +0.000 C 
BRANCH  12  14
ATOM     14  C12 UNL     1      25.946  -6.146 -45.304  0.00  0.00    +0.000 C 
BRANCH  14  15
ATOM     15  C13 UNL     1      27.370  -6.640 -45.267  0.00  0.00    +0.000 C 
ATOM     16  C14 UNL     1      27.994  -7.080 -46.362  0.00  0.00    +0.000 C 
ENDBRANCH  14  15
ENDBRANCH  12  14
ENDBRANCH   3   7
BRANCH   4  17
ATOM     17  O2  UNL     1      27.207  -7.023 -40.911  0.00  0.00    +0.000 OA
ATOM     18  H16 UNL     1      27.768  -6.595 -41.632  0.00  0.00    +0.000 HD
ENDBRANCH   4  17
BRANCH   1  19
ATOM     19  C3  UNL     1      25.996 -12.596 -40.454  0.00  0.00    +0.000 C 
BRANCH  19  21
ATOM     20  C1  UNL     1      27.102 -14.573 -39.442  0.00  0.00    +0.000 C 
ATOM     21  C2  UNL     1      27.207 -13.373 -40.019  0.00  0.00    +0.000 C 
ENDBRANCH  19  21
ENDBRANCH   1  19
BRANCH   5  22
ATOM     22  C18 UNL     1      28.839  -8.666 -39.040  0.00  0.00    +0.000 C 
BRANCH  22  23
ATOM     23  C19 UNL     1      28.297  -8.436 -37.634  0.00  0.00    +0.000 A 
ATOM     24  C20 UNL     1      28.695  -9.273 -36.574  0.00  0.00    +0.000 A 
ATOM     25  C21 UNL     1      28.193  -9.071 -35.284  0.00  0.00    +0.000 A 
ATOM     26 CL1  UNL     1      28.697 -10.121 -33.973  0.00  0.00    +0.000 Cl
ATOM     27  C22 UNL     1      27.284  -8.037 -35.041  0.00  0.00    +0.000 A 
ATOM     28  C23 UNL     1      26.874  -7.205 -36.086  0.00  0.00    +0.000 A 
ATOM     29 CL2  UNL     1      25.720  -5.919 -35.784  0.00  0.00    +0.000 Cl
ATOM     30  C24 UNL     1      27.376  -7.404 -37.376  0.00  0.00    +0.000 A 
ENDBRANCH  22  23
BRANCH  22  31
ATOM     31  N1  UNL     1      30.029  -9.568 -39.039  0.00  0.00    +0.000 NA
ATOM     32  C25 UNL     1      30.389 -10.022 -40.415  0.00  0.00    +0.000 C 
ATOM     33  C26 UNL     1      31.570  -9.244 -41.010  0.00  0.00    +0.000 C 
ATOM     34  C27 UNL     1      32.844  -9.441 -40.160  0.00  0.00    +0.000 C 
ATOM     35  C28 UNL     1      33.810  -8.268 -40.363  0.00  0.00    +0.000 C 
ATOM     36  C29 UNL     1      32.509  -9.646 -38.664  0.00  0.00    +0.000 C 
ATOM     37  C30 UNL     1      31.178  -8.979 -38.296  0.00  0.00    +0.000 C 
ENDBRANCH  22  31
ENDBRANCH   5  22
TORSDOF 9
ENDMDL
MODEL 8
REMARK VINA RESULT:    -4.743      3.773      7.772
REMARK INTER + INTRA:          -8.470
REMARK INTER:                  -7.392
REMARK INTRA:                  -1.078
REMARK UNBOUND:                -1.370
REMARK  Name = resultss/4CJN/ligands/lig_282_t2.pdb
REMARK  10 active torsions:
REMARK  status: ('A' for Active; 'I' for Inactive)
REMARK    1  A    between atoms: C2_2  and  C3_3
REMARK    2  A    between atoms: C3_3  and  C4_4
REMARK    3  A    between atoms: C6_6  and  C7_7
REMARK    4  A    between atoms: C11_12  and  C12_13
REMARK    5  A    between atoms: C12_13  and  C13_14
REMARK    6  A    between atoms: C16_17  and  O2_18
REMARK    7  A    between atoms: C17_19  and  C18_20
REMARK    8  A    between atoms: C18_20  and  C19_21
REMARK    9  A    between atoms: C18_20  and  N1_29
REMARK   10  A    between atoms: C27_32  and  C28_33
REMARK                            x       y       z     vdW  Elec       q    Type
REMARK                         _______ _______ _______ _____ _____    ______ ____
ROOT
ATOM      1  C4  UNL     1      26.397  -9.229 -35.475  0.00  0.00    +0.000 A 
ATOM      2  C5  UNL     1      25.830  -9.250 -36.752  0.00  0.00    +0.000 A 
ATOM      3  C6  UNL     1      26.443  -8.576 -37.817  0.00  0.00    +0.000 A 
ATOM      4  C16 UNL     1      27.652  -7.879 -37.606  0.00  0.00    +0.000 A 
ATOM      5  C17 UNL     1      28.267  -7.901 -36.326  0.00  0.00    +0.000 A 
ATOM      6  C31 UNL     1      27.606  -8.555 -35.269  0.00  0.00    +0.000 A 
ENDROOT
BRANCH   3   7
ATOM      7  C7  UNL     1      25.810  -8.612 -39.156  0.00  0.00    +0.000 C 
ATOM      8  C8  UNL     1      24.904  -7.514 -39.562  0.00  0.00    +0.000 C 
ATOM      9  C9  UNL     1      24.233  -7.559 -40.714  0.00  0.00    +0.000 C 
ATOM     10  C10 UNL     1      24.416  -8.690 -41.631  0.00  0.00    +0.000 C 
ATOM     11  O1  UNL     1      23.645  -8.818 -42.619  0.00  0.00    +0.000 OA
ATOM     12  C11 UNL     1      25.541  -9.679 -41.416  0.00  0.00    +0.000 C 
ATOM     13  C15 UNL     1      26.061  -9.635 -39.995  0.00  0.00    +0.000 C 
BRANCH  12  14
ATOM     14  C12 UNL     1      26.708  -9.408 -42.383  0.00  0.00    +0.000 C 
BRANCH  14  15
ATOM     15  C13 UNL     1      27.145  -7.966 -42.343  0.00  0.00    +0.000 C 
ATOM     16  C14 UNL     1      28.347  -7.580 -42.778  0.00  0.00    +0.000 C 
ENDBRANCH  14  15
ENDBRANCH  12  14
ENDBRANCH   3   7
BRANCH   4  17
ATOM     17  O2  UNL     1      28.195  -7.164 -38.680  0.00  0.00    +0.000 OA
ATOM     18  H16 UNL     1      28.583  -7.588 -39.510  0.00  0.00    +0.000 HD
ENDBRANCH   4  17
BRANCH   1  19
ATOM     19  C3  UNL     1      25.749  -9.983 -34.344  0.00  0.00    +0.000 C 
BRANCH  19  21
ATOM     20  C1  UNL     1      23.770  -8.890 -33.323  0.00  0.00    +0.000 C 
ATOM     21  C2  UNL     1      25.097  -9.033 -33.380  0.00  0.00    +0.000 C 
ENDBRANCH  19  21
ENDBRANCH   1  19
BRANCH   5  22
ATOM     22  C18 UNL     1      29.602  -7.200 -36.056  0.00  0.00    +0.000 C 
BRANCH  22  23
ATOM     23  C19 UNL     1      29.735  -7.005 -34.550  0.00  0.00    +0.000 A 
ATOM     24  C20 UNL     1      28.629  -6.589 -33.788  0.00  0.00    +0.000 A 
ATOM     25  C21 UNL     1      28.749  -6.401 -32.406  0.00  0.00    +0.000 A 
ATOM     26 CL1  UNL     1      27.362  -5.883 -31.467  0.00  0.00    +0.000 Cl
ATOM     27  C22 UNL     1      29.977  -6.618 -31.775  0.00  0.00    +0.000 A 
ATOM     28  C23 UNL     1      31.087  -7.022 -32.523  0.00  0.00    +0.000 A 
ATOM     29 CL2  UNL     1      32.632  -7.278 -31.733  0.00  0.00    +0.000 Cl
ATOM     30  C24 UNL     1      30.968  -7.213 -33.904  0.00  0.00    +0.000 A 
ENDBRANCH  22  23
BRANCH  22  31
ATOM     31  N1  UNL     1      30.756  -7.958 -36.625  0.00  0.00    +0.000 NA
ATOM     32  C25 UNL     1      30.499  -9.428 -36.658  0.00  0.00    +0.000 C 
ATOM     33  C26 UNL     1      30.092  -9.932 -38.049  0.00  0.00    +0.000 C 
ATOM     34  C27 UNL     1      31.216  -9.683 -39.077  0.00  0.00    +0.000 C 
ATOM     35  C28 UNL     1      30.640  -9.615 -40.496  0.00  0.00    +0.000 C 
ATOM     36  C29 UNL     1      32.033  -8.415 -38.737  0.00  0.00    +0.000 C 
ATOM     37  C30 UNL     1      31.193  -7.409 -37.939  0.00  0.00    +0.000 C 
ENDBRANCH  22  31
ENDBRANCH   5  22
TORSDOF 9
ENDMDL
MODEL 9
REMARK VINA RESULT:    -4.627      3.612      7.911
REMARK INTER + INTRA:          -8.296
REMARK INTER:                  -7.517
REMARK INTRA:                  -0.779
REMARK UNBOUND:                -1.370
REMARK  Name = resultss/4CJN/ligands/lig_282_t2.pdb
REMARK  10 active torsions:
REMARK  status: ('A' for Active; 'I' for Inactive)
REMARK    1  A    between atoms: C2_2  and  C3_3
REMARK    2  A    between atoms: C3_3  and  C4_4
REMARK    3  A    between atoms: C6_6  and  C7_7
REMARK    4  A    between atoms: C11_12  and  C12_13
REMARK    5  A    between atoms: C12_13  and  C13_14
REMARK    6  A    between atoms: C16_17  and  O2_18
REMARK    7  A    between atoms: C17_19  and  C18_20
REMARK    8  A    between atoms: C18_20  and  C19_21
REMARK    9  A    between atoms: C18_20  and  N1_29
REMARK   10  A    between atoms: C27_32  and  C28_33
REMARK                            x       y       z     vdW  Elec       q    Type
REMARK                         _______ _______ _______ _____ _____    ______ ____
ROOT
ATOM      1  C4  UNL     1      26.197  -8.741 -35.683  0.00  0.00    +0.000 A 
ATOM      2  C5  UNL     1      25.723  -8.945 -36.981  0.00  0.00    +0.000 A 
ATOM      3  C6  UNL     1      26.527  -8.647 -38.090  0.00  0.00    +0.000 A 
ATOM      4  C16 UNL     1      27.833  -8.148 -37.899  0.00  0.00    +0.000 A 
ATOM      5  C17 UNL     1      28.345  -7.992 -36.584  0.00  0.00    +0.000 A 
ATOM      6  C31 UNL     1      27.499  -8.265 -35.492  0.00  0.00    +0.000 A 
ENDROOT
BRANCH   3   7
ATOM      7  C7  UNL     1      25.990  -8.868 -39.454  0.00  0.00    +0.000 C 
ATOM      8  C8  UNL     1      24.845  -8.056 -39.925  0.00  0.00    +0.000 C 
ATOM      9  C9  UNL     1      24.266  -8.293 -41.102  0.00  0.00    +0.000 C 
ATOM     10  C10 UNL     1      24.784  -9.348 -41.982  0.00  0.00    +0.000 C 
ATOM     11  O1  UNL     1      24.122  -9.690 -42.997  0.00  0.00    +0.000 OA
ATOM     12  C11 UNL     1      26.119 -10.000 -41.694  0.00  0.00    +0.000 C 
ATOM     13  C15 UNL     1      26.541  -9.800 -40.254  0.00  0.00    +0.000 C 
BRANCH  12  14
ATOM     14  C12 UNL     1      27.217  -9.443 -42.618  0.00  0.00    +0.000 C 
BRANCH  14  15
ATOM     15  C13 UNL     1      28.594  -9.654 -42.043  0.00  0.00    +0.000 C 
ATOM     16  C14 UNL     1      29.505 -10.419 -42.649  0.00  0.00    +0.000 C 
ENDBRANCH  14  15
ENDBRANCH  12  14
ENDBRANCH   3   7
BRANCH   4  17
ATOM     17  O2  UNL     1      28.576  -7.800 -39.033  0.00  0.00    +0.000 OA
ATOM     18  H16 UNL     1      28.258  -7.920 -39.983  0.00  0.00    +0.000 HD
ENDBRANCH   4  17
BRANCH   1  19
ATOM     19  C3  UNL     1      25.338  -9.095 -34.497  0.00  0.00    +0.000 C 
BRANCH  19  21
ATOM     20  C1  UNL     1      23.259  -8.134 -33.545  0.00  0.00    +0.000 C 
ATOM     21  C2  UNL     1      23.981  -8.461 -34.620  0.00  0.00    +0.000 C 
ENDBRANCH  19  21
ENDBRANCH   1  19
BRANCH   5  22
ATOM     22  C18 UNL     1      29.771  -7.499 -36.322  0.00  0.00    +0.000 C 
BRANCH  22  23
ATOM     23  C19 UNL     1      30.104  -7.774 -34.860  0.00  0.00    +0.000 A 
ATOM     24  C20 UNL     1      30.684  -8.999 -34.483  0.00  0.00    +0.000 A 
ATOM     25  C21 UNL     1      30.983  -9.259 -33.141  0.00  0.00    +0.000 A 
ATOM     26 CL1  UNL     1      31.706 -10.790 -32.684  0.00  0.00    +0.000 Cl
ATOM     27  C22 UNL     1      30.699  -8.301 -32.163  0.00  0.00    +0.000 A 
ATOM     28  C23 UNL     1      30.115  -7.084 -32.524  0.00  0.00    +0.000 A 
ATOM     29 CL2  UNL     1      29.743  -5.890 -31.293  0.00  0.00    +0.000 Cl
ATOM     30  C24 UNL     1      29.817  -6.821 -33.864  0.00  0.00    +0.000 A 
ENDBRANCH  22  23
BRANCH  22  31
ATOM     31  N1  UNL     1      30.759  -8.129 -37.247  0.00  0.00    +0.000 NA
ATOM     32  C25 UNL     1      31.954  -7.261 -37.467  0.00  0.00    +0.000 C 
ATOM     33  C26 UNL     1      33.168  -7.696 -36.634  0.00  0.00    +0.000 C 
ATOM     34  C27 UNL     1      33.615  -9.123 -37.014  0.00  0.00    +0.000 C 
ATOM     35  C28 UNL     1      34.379  -9.773 -35.854  0.00  0.00    +0.000 C 
ATOM     36  C29 UNL     1      32.421  -9.997 -37.465  0.00  0.00    +0.000 C 
ATOM     37  C30 UNL     1      31.110  -9.516 -36.832  0.00  0.00    +0.000 C 
ENDBRANCH  22  31
ENDBRANCH   5  22
TORSDOF 9
ENDMDL
