MODEL 1
REMARK VINA RESULT:    -4.442      0.000      0.000
REMARK INTER + INTRA:          -5.911
REMARK INTER:                  -5.610
REMARK INTRA:                  -0.301
REMARK UNBOUND:                -0.301
REMARK  Name = resultss/4CJN/ligands/lig_6_t0.pdb
REMARK  7 active torsions:
REMARK  status: ('A' for Active; 'I' for Inactive)
REMARK    1  A    between atoms: O1_1  and  C1_2
REMARK    2  A    between atoms: C1_2  and  C2_3
REMARK    3  A    between atoms: C3_5  and  C4_6
REMARK    4  A    between atoms: C4_6  and  O2_7
REMARK    5  A    between atoms: C5_8  and  O3_9
REMARK    6  A    between atoms: C6_10  and  O4_11
REMARK    7  A    between atoms: C7_12  and  O5_13
REMARK                            x       y       z     vdW  Elec       q    Type
REMARK                         _______ _______ _______ _____ _____    ______ ____
ROOT
ATOM      1  C2  UNL     1      27.125  -7.956 -33.324  0.00  0.00    +0.000 C 
ATOM      2  N1  UNL     1      25.786  -8.146 -32.743  0.00  0.00    +0.000 NA
ATOM      3  C3  UNL     1      24.734  -7.818 -33.730  0.00  0.00    +0.000 C 
ATOM      4  C5  UNL     1      25.026  -8.421 -35.144  0.00  0.00    +0.000 C 
ATOM      5  C6  UNL     1      26.083  -9.544 -35.087  0.00  0.00    +0.000 C 
ATOM      6  C7  UNL     1      27.390  -9.057 -34.396  0.00  0.00    +0.000 C 
ATOM      7  H5  UNL     1      25.665  -7.491 -31.935  0.00  0.00    +0.000 HD
ENDROOT
BRANCH   4   8
ATOM      8  O3  UNL     1      25.476  -7.396 -35.996  0.00  0.00    +0.000 OA
ATOM      9  H11 UNL     1      26.171  -7.790 -36.585  0.00  0.00    +0.000 HD
ENDBRANCH   4   8
BRANCH   5  10
ATOM     10  O4  UNL     1      25.534 -10.648 -34.411  0.00  0.00    +0.000 OA
ATOM     11  H13 UNL     1      25.517 -10.422 -33.445  0.00  0.00    +0.000 HD
ENDBRANCH   5  10
BRANCH   6  12
ATOM     12  O5  UNL     1      28.121 -10.149 -33.885  0.00  0.00    +0.000 OA
ATOM     13  H15 UNL     1      28.858  -9.785 -33.328  0.00  0.00    +0.000 HD
ENDBRANCH   6  12
BRANCH   1  14
ATOM     14  C1  UNL     1      28.211  -7.923 -32.227  0.00  0.00    +0.000 C 
BRANCH  14  15
ATOM     15  O1  UNL     1      27.624  -7.769 -30.961  0.00  0.00    +0.000 OA
ATOM     16  H1  UNL     1      28.324  -7.412 -30.354  0.00  0.00    +0.000 HD
ENDBRANCH  14  15
ENDBRANCH   1  14
BRANCH   3  17
ATOM     17  C4  UNL     1      23.361  -8.258 -33.187  0.00  0.00    +0.000 C 
BRANCH  17  18
ATOM     18  O2  UNL     1      22.749  -9.191 -34.037  0.00  0.00    +0.000 OA
ATOM     19  H9  UNL     1      23.185 -10.066 -33.862  0.00  0.00    +0.000 HD
ENDBRANCH  17  18
ENDBRANCH   3  17
TORSDOF 7
ENDMDL
MODEL 2
REMARK VINA RESULT:    -4.325      9.635     11.625
REMARK INTER + INTRA:          -5.764
REMARK INTER:                  -5.278
REMARK INTRA:                  -0.486
REMARK UNBOUND:                -0.301
REMARK  Name = resultss/4CJN/ligands/lig_6_t0.pdb
REMARK  7 active torsions:
REMARK  status: ('A' for Active; 'I' for Inactive)
REMARK    1  A    between atoms: O1_1  and  C1_2
REMARK    2  A    between atoms: C1_2  and  C2_3
REMARK    3  A    between atoms: C3_5  and  C4_6
REMARK    4  A    between atoms: C4_6  and  O2_7
REMARK    5  A    between atoms: C5_8  and  O3_9
REMARK    6  A    between atoms: C6_10  and  O4_11
REMARK    7  A    between atoms: C7_12  and  O5_13
REMARK                            x       y       z     vdW  Elec       q    Type
REMARK                         _______ _______ _______ _____ _____    ______ ____
ROOT
ATOM      1  C2  UNL     1      23.670  -7.073 -45.598  0.00  0.00    +0.000 C 
ATOM      2  N1  UNL     1      24.237  -8.304 -45.024  0.00  0.00    +0.000 NA
ATOM      3  C3  UNL     1      24.767  -8.053 -43.665  0.00  0.00    +0.000 C 
ATOM      4  C5  UNL     1      23.794  -7.199 -42.787  0.00  0.00    +0.000 C 
ATOM      5  C6  UNL     1      22.362  -7.177 -43.364  0.00  0.00    +0.000 C 
ATOM      6  C7  UNL     1      22.356  -6.702 -44.846  0.00  0.00    +0.000 C 
ATOM      7  H5  UNL     1      25.041  -8.621 -45.615  0.00  0.00    +0.000 HD
ENDROOT
BRANCH   4   8
ATOM      8  O3  UNL     1      24.286  -5.884 -42.703  0.00  0.00    +0.000 OA
ATOM      9  H11 UNL     1      23.538  -5.277 -42.942  0.00  0.00    +0.000 HD
ENDBRANCH   4   8
BRANCH   5  10
ATOM     10  O4  UNL     1      21.806  -8.463 -43.242  0.00  0.00    +0.000 OA
ATOM     11  H13 UNL     1      22.006  -8.950 -44.083  0.00  0.00    +0.000 HD
ENDBRANCH   5  10
BRANCH   6  12
ATOM     12  O5  UNL     1      21.200  -7.158 -45.511  0.00  0.00    +0.000 OA
ATOM     13  H15 UNL     1      20.416  -6.714 -45.094  0.00  0.00    +0.000 HD
ENDBRANCH   6  12
BRANCH   1  14
ATOM     14  C1  UNL     1      23.462  -7.212 -47.122  0.00  0.00    +0.000 C 
BRANCH  14  15
ATOM     15  O1  UNL     1      22.963  -8.486 -47.434  0.00  0.00    +0.000 OA
ATOM     16  H1  UNL     1      23.405  -9.132 -46.823  0.00  0.00    +0.000 HD
ENDBRANCH  14  15
ENDBRANCH   1  14
BRANCH   3  17
ATOM     17  C4  UNL     1      25.123  -9.394 -42.995  0.00  0.00    +0.000 C 
BRANCH  17  18
ATOM     18  O2  UNL     1      23.973 -10.086 -42.589  0.00  0.00    +0.000 OA
ATOM     19  H9  UNL     1      23.209  -9.687 -43.085  0.00  0.00    +0.000 HD
ENDBRANCH  17  18
ENDBRANCH   3  17
TORSDOF 7
ENDMDL
MODEL 3
REMARK VINA RESULT:    -4.103      2.335      3.381
REMARK INTER + INTRA:          -5.483
REMARK INTER:                  -4.962
REMARK INTRA:                  -0.521
REMARK UNBOUND:                -0.301
REMARK  Name = resultss/4CJN/ligands/lig_6_t0.pdb
REMARK  7 active torsions:
REMARK  status: ('A' for Active; 'I' for Inactive)
REMARK    1  A    between atoms: O1_1  and  C1_2
REMARK    2  A    between atoms: C1_2  and  C2_3
REMARK    3  A    between atoms: C3_5  and  C4_6
REMARK    4  A    between atoms: C4_6  and  O2_7
REMARK    5  A    between atoms: C5_8  and  O3_9
REMARK    6  A    between atoms: C6_10  and  O4_11
REMARK    7  A    between atoms: C7_12  and  O5_13
REMARK                            x       y       z     vdW  Elec       q    Type
REMARK                         _______ _______ _______ _____ _____    ______ ____
ROOT
ATOM      1  C2  UNL     1      24.318  -8.341 -34.354  0.00  0.00    +0.000 C 
ATOM      2  N1  UNL     1      23.930  -8.170 -35.763  0.00  0.00    +0.000 NA
ATOM      3  C3  UNL     1      24.908  -7.320 -36.477  0.00  0.00    +0.000 C 
ATOM      4  C5  UNL     1      26.390  -7.704 -36.153  0.00  0.00    +0.000 C 
ATOM      5  C6  UNL     1      26.498  -9.110 -35.524  0.00  0.00    +0.000 C 
ATOM      6  C7  UNL     1      25.590  -9.240 -34.268  0.00  0.00    +0.000 C 
ATOM      7  H5  UNL     1      23.005  -7.680 -35.808  0.00  0.00    +0.000 HD
ENDROOT
BRANCH   4   8
ATOM      8  O3  UNL     1      26.928  -6.752 -35.269  0.00  0.00    +0.000 OA
ATOM      9  H11 UNL     1      26.206  -6.101 -35.065  0.00  0.00    +0.000 HD
ENDBRANCH   4   8
BRANCH   5  10
ATOM     10  O4  UNL     1      26.159 -10.068 -36.497  0.00  0.00    +0.000 OA
ATOM     11  H13 UNL     1      26.874 -10.052 -37.185  0.00  0.00    +0.000 HD
ENDBRANCH   5  10
BRANCH   6  12
ATOM     12  O5  UNL     1      25.284 -10.592 -34.011  0.00  0.00    +0.000 OA
ATOM     13  H15 UNL     1      25.084 -10.678 -33.042  0.00  0.00    +0.000 HD
ENDBRANCH   6  12
BRANCH   1  14
ATOM     14  C1  UNL     1      23.145  -8.892 -33.513  0.00  0.00    +0.000 C 
BRANCH  14  15
ATOM     15  O1  UNL     1      23.501  -8.955 -32.157  0.00  0.00    +0.000 OA
ATOM     16  H1  UNL     1      22.792  -9.470 -31.691  0.00  0.00    +0.000 HD
ENDBRANCH  14  15
ENDBRANCH   1  14
BRANCH   3  17
ATOM     17  C4  UNL     1      24.618  -7.360 -37.990  0.00  0.00    +0.000 C 
BRANCH  17  18
ATOM     18  O2  UNL     1      24.316  -8.661 -38.419  0.00  0.00    +0.000 OA
ATOM     19  H9  UNL     1      24.965  -9.267 -37.973  0.00  0.00    +0.000 HD
ENDBRANCH  17  18
ENDBRANCH   3  17
TORSDOF 7
ENDMDL
MODEL 4
REMARK VINA RESULT:    -4.095      2.121      4.284
REMARK INTER + INTRA:          -5.474
REMARK INTER:                  -4.970
REMARK INTRA:                  -0.503
REMARK UNBOUND:                -0.301
REMARK  Name = resultss/4CJN/ligands/lig_6_t0.pdb
REMARK  7 active torsions:
REMARK  status: ('A' for Active; 'I' for Inactive)
REMARK    1  A    between atoms: O1_1  and  C1_2
REMARK    2  A    between atoms: C1_2  and  C2_3
REMARK    3  A    between atoms: C3_5  and  C4_6
REMARK    4  A    between atoms: C4_6  and  O2_7
REMARK    5  A    between atoms: C5_8  and  O3_9
REMARK    6  A    between atoms: C6_10  and  O4_11
REMARK    7  A    between atoms: C7_12  and  O5_13
REMARK                            x       y       z     vdW  Elec       q    Type
REMARK                         _______ _______ _______ _____ _____    ______ ____
ROOT
ATOM      1  C2  UNL     1      24.048  -7.763 -35.430  0.00  0.00    +0.000 C 
ATOM      2  N1  UNL     1      24.735  -8.538 -36.477  0.00  0.00    +0.000 NA
ATOM      3  C3  UNL     1      26.203  -8.447 -36.320  0.00  0.00    +0.000 C 
ATOM      4  C5  UNL     1      26.662  -8.627 -34.835  0.00  0.00    +0.000 C 
ATOM      5  C6  UNL     1      25.562  -9.270 -33.963  0.00  0.00    +0.000 C 
ATOM      6  C7  UNL     1      24.230  -8.471 -34.052  0.00  0.00    +0.000 C 
ATOM      7  H5  UNL     1      24.499  -8.135 -37.414  0.00  0.00    +0.000 HD
ENDROOT
BRANCH   4   8
ATOM      8  O3  UNL     1      27.007  -7.371 -34.305  0.00  0.00    +0.000 OA
ATOM      9  H11 UNL     1      27.422  -7.532 -33.418  0.00  0.00    +0.000 HD
ENDBRANCH   4   8
BRANCH   5  10
ATOM     10  O4  UNL     1      25.382 -10.603 -34.373  0.00  0.00    +0.000 OA
ATOM     11  H13 UNL     1      24.497 -10.897 -34.033  0.00  0.00    +0.000 HD
ENDBRANCH   5  10
BRANCH   6  12
ATOM     12  O5  UNL     1      23.134  -9.288 -33.712  0.00  0.00    +0.000 OA
ATOM     13  H15 UNL     1      23.480 -10.204 -33.545  0.00  0.00    +0.000 HD
ENDBRANCH   6  12
BRANCH   1  14
ATOM     14  C1  UNL     1      22.564  -7.534 -35.787  0.00  0.00    +0.000 C 
BRANCH  14  15
ATOM     15  O1  UNL     1      21.928  -6.784 -34.785  0.00  0.00    +0.000 OA
ATOM     16  H1  UNL     1      22.116  -5.827 -34.970  0.00  0.00    +0.000 HD
ENDBRANCH  14  15
ENDBRANCH   1  14
BRANCH   3  17
ATOM     17  C4  UNL     1      26.886  -9.456 -37.263  0.00  0.00    +0.000 C 
BRANCH  17  18
ATOM     18  O2  UNL     1      27.580 -10.440 -36.544  0.00  0.00    +0.000 OA
ATOM     19  H9  UNL     1      28.305 -10.770 -37.138  0.00  0.00    +0.000 HD
ENDBRANCH  17  18
ENDBRANCH   3  17
TORSDOF 7
ENDMDL
MODEL 5
REMARK VINA RESULT:    -3.857      7.456      8.970
REMARK INTER + INTRA:          -5.172
REMARK INTER:                  -4.640
REMARK INTRA:                  -0.532
REMARK UNBOUND:                -0.301
REMARK  Name = resultss/4CJN/ligands/lig_6_t0.pdb
REMARK  7 active torsions:
REMARK  status: ('A' for Active; 'I' for Inactive)
REMARK    1  A    between atoms: O1_1  and  C1_2
REMARK    2  A    between atoms: C1_2  and  C2_3
REMARK    3  A    between atoms: C3_5  and  C4_6
REMARK    4  A    between atoms: C4_6  and  O2_7
REMARK    5  A    between atoms: C5_8  and  O3_9
REMARK    6  A    between atoms: C6_10  and  O4_11
REMARK    7  A    between atoms: C7_12  and  O5_13
REMARK                            x       y       z     vdW  Elec       q    Type
REMARK                         _______ _______ _______ _____ _____    ______ ____
ROOT
ATOM      1  C2  UNL     1      24.947  -7.382 -41.147  0.00  0.00    +0.000 C 
ATOM      2  N1  UNL     1      24.188  -7.064 -42.367  0.00  0.00    +0.000 NA
ATOM      3  C3  UNL     1      24.959  -7.430 -43.575  0.00  0.00    +0.000 C 
ATOM      4  C5  UNL     1      25.628  -8.840 -43.459  0.00  0.00    +0.000 C 
ATOM      5  C6  UNL     1      25.000  -9.686 -42.331  0.00  0.00    +0.000 C 
ATOM      6  C7  UNL     1      25.030  -8.929 -40.972  0.00  0.00    +0.000 C 
ATOM      7  H5  UNL     1      24.021  -6.031 -42.409  0.00  0.00    +0.000 HD
ENDROOT
BRANCH   4   8
ATOM      8  O3  UNL     1      27.003  -8.677 -43.213  0.00  0.00    +0.000 OA
ATOM      9  H11 UNL     1      27.483  -9.306 -43.813  0.00  0.00    +0.000 HD
ENDBRANCH   4   8
BRANCH   5  10
ATOM     10  O4  UNL     1      23.684 -10.021 -42.696  0.00  0.00    +0.000 OA
ATOM     11  H13 UNL     1      23.630  -9.963 -43.685  0.00  0.00    +0.000 HD
ENDBRANCH   5  10
BRANCH   6  12
ATOM     12  O5  UNL     1      24.043  -9.431 -40.100  0.00  0.00    +0.000 OA
ATOM     13  H15 UNL     1      23.979  -8.812 -39.326  0.00  0.00    +0.000 HD
ENDBRANCH   6  12
BRANCH   1  14
ATOM     14  C1  UNL     1      24.343  -6.677 -39.913  0.00  0.00    +0.000 C 
BRANCH  14  15
ATOM     15  O1  UNL     1      22.943  -6.645 -40.004  0.00  0.00    +0.000 OA
ATOM     16  H1  UNL     1      22.662  -5.701 -39.875  0.00  0.00    +0.000 HD
ENDBRANCH  14  15
ENDBRANCH   1  14
BRANCH   3  17
ATOM     17  C4  UNL     1      24.054  -7.321 -44.818  0.00  0.00    +0.000 C 
BRANCH  17  18
ATOM     18  O2  UNL     1      22.767  -7.816 -44.560  0.00  0.00    +0.000 OA
ATOM     19  H9  UNL     1      22.857  -8.474 -43.821  0.00  0.00    +0.000 HD
ENDBRANCH  17  18
ENDBRANCH   3  17
TORSDOF 7
ENDMDL
MODEL 6
REMARK VINA RESULT:    -3.606      7.587      9.366
REMARK INTER + INTRA:          -4.855
REMARK INTER:                  -4.377
REMARK INTRA:                  -0.478
REMARK UNBOUND:                -0.301
REMARK  Name = resultss/4CJN/ligands/lig_6_t0.pdb
REMARK  7 active torsions:
REMARK  status: ('A' for Active; 'I' for Inactive)
REMARK    1  A    between atoms: O1_1  and  C1_2
REMARK    2  A    between atoms: C1_2  and  C2_3
REMARK    3  A    between atoms: C3_5  and  C4_6
REMARK    4  A    between atoms: C4_6  and  O2_7
REMARK    5  A    between atoms: C5_8  and  O3_9
REMARK    6  A    between atoms: C6_10  and  O4_11
REMARK    7  A    between atoms: C7_12  and  O5_13
REMARK                            x       y       z     vdW  Elec       q    Type
REMARK                         _______ _______ _______ _____ _____    ______ ____
ROOT
ATOM      1  C2  UNL     1      25.619  -7.328 -42.920  0.00  0.00    +0.000 C 
ATOM      2  N1  UNL     1      26.254  -8.558 -42.418  0.00  0.00    +0.000 NA
ATOM      3  C3  UNL     1      25.723  -8.916 -41.085  0.00  0.00    +0.000 C 
ATOM      4  C5  UNL     1      24.164  -8.795 -41.005  0.00  0.00    +0.000 C 
ATOM      5  C6  UNL     1      23.516  -8.751 -42.405  0.00  0.00    +0.000 C 
ATOM      6  C7  UNL     1      24.130  -7.618 -43.278  0.00  0.00    +0.000 C 
ATOM      7  H5  UNL     1      27.282  -8.393 -42.306  0.00  0.00    +0.000 HD
ENDROOT
BRANCH   4   8
ATOM      8  O3  UNL     1      23.831  -7.627 -40.296  0.00  0.00    +0.000 OA
ATOM      9  H11 UNL     1      23.217  -7.101 -40.873  0.00  0.00    +0.000 HD
ENDBRANCH   4   8
BRANCH   5  10
ATOM     10  O4  UNL     1      23.675 -10.007 -43.018  0.00  0.00    +0.000 OA
ATOM     11  H13 UNL     1      23.509 -10.695 -42.322  0.00  0.00    +0.000 HD
ENDBRANCH   5  10
BRANCH   6  12
ATOM     12  O5  UNL     1      23.942  -7.888 -44.649  0.00  0.00    +0.000 OA
ATOM     13  H15 UNL     1      24.825  -7.806 -45.096  0.00  0.00    +0.000 HD
ENDBRANCH   6  12
BRANCH   1  14
ATOM     14  C1  UNL     1      26.410  -6.735 -44.106  0.00  0.00    +0.000 C 
BRANCH  14  15
ATOM     15  O1  UNL     1      26.959  -7.761 -44.892  0.00  0.00    +0.000 OA
ATOM     16  H1  UNL     1      27.568  -8.284 -44.308  0.00  0.00    +0.000 HD
ENDBRANCH  14  15
ENDBRANCH   1  14
BRANCH   3  17
ATOM     17  C4  UNL     1      26.213 -10.324 -40.696  0.00  0.00    +0.000 C 
BRANCH  17  18
ATOM     18  O2  UNL     1      25.312 -11.315 -41.114  0.00  0.00    +0.000 OA
ATOM     19  H9  UNL     1      25.858 -12.067 -41.467  0.00  0.00    +0.000 HD
ENDBRANCH  17  18
ENDBRANCH   3  17
TORSDOF 7
ENDMDL
MODEL 7
REMARK VINA RESULT:    -3.604      4.861      5.794
REMARK INTER + INTRA:          -4.852
REMARK INTER:                  -4.358
REMARK INTRA:                  -0.495
REMARK UNBOUND:                -0.301
REMARK  Name = resultss/4CJN/ligands/lig_6_t0.pdb
REMARK  7 active torsions:
REMARK  status: ('A' for Active; 'I' for Inactive)
REMARK    1  A    between atoms: O1_1  and  C1_2
REMARK    2  A    between atoms: C1_2  and  C2_3
REMARK    3  A    between atoms: C3_5  and  C4_6
REMARK    4  A    between atoms: C4_6  and  O2_7
REMARK    5  A    between atoms: C5_8  and  O3_9
REMARK    6  A    between atoms: C6_10  and  O4_11
REMARK    7  A    between atoms: C7_12  and  O5_13
REMARK                            x       y       z     vdW  Elec       q    Type
REMARK                         _______ _______ _______ _____ _____    ______ ____
ROOT
ATOM      1  C2  UNL     1      27.376  -9.134 -38.097  0.00  0.00    +0.000 C 
ATOM      2  N1  UNL     1      26.012  -8.887 -38.592  0.00  0.00    +0.000 NA
ATOM      3  C3  UNL     1      26.046  -8.242 -39.923  0.00  0.00    +0.000 C 
ATOM      4  C5  UNL     1      27.082  -8.907 -40.889  0.00  0.00    +0.000 C 
ATOM      5  C6  UNL     1      27.508 -10.309 -40.403  0.00  0.00    +0.000 C 
ATOM      6  C7  UNL     1      28.042 -10.263 -38.942  0.00  0.00    +0.000 C 
ATOM      7  H5  UNL     1      25.524  -8.227 -37.942  0.00  0.00    +0.000 HD
ENDROOT
BRANCH   4   8
ATOM      8  O3  UNL     1      28.215  -8.080 -40.988  0.00  0.00    +0.000 OA
ATOM      9  H11 UNL     1      29.011  -8.673 -40.977  0.00  0.00    +0.000 HD
ENDBRANCH   4   8
BRANCH   5  10
ATOM     10  O4  UNL     1      26.409 -11.180 -40.514  0.00  0.00    +0.000 OA
ATOM     11  H13 UNL     1      26.313 -11.409 -41.475  0.00  0.00    +0.000 HD
ENDBRANCH   5  10
BRANCH   6  12
ATOM     12  O5  UNL     1      27.939 -11.531 -38.333  0.00  0.00    +0.000 OA
ATOM     13  H15 UNL     1      28.659 -12.104 -38.706  0.00  0.00    +0.000 HD
ENDBRANCH   6  12
BRANCH   1  14
ATOM     14  C1  UNL     1      27.373  -9.449 -36.585  0.00  0.00    +0.000 C 
BRANCH  14  15
ATOM     15  O1  UNL     1      26.149 -10.023 -36.206  0.00  0.00    +0.000 OA
ATOM     16  H1  UNL     1      25.498  -9.831 -36.930  0.00  0.00    +0.000 HD
ENDBRANCH  14  15
ENDBRANCH   1  14
BRANCH   3  17
ATOM     17  C4  UNL     1      24.627  -8.221 -40.523  0.00  0.00    +0.000 C 
BRANCH  17  18
ATOM     18  O2  UNL     1      23.968  -9.443 -40.323  0.00  0.00    +0.000 OA
ATOM     19  H9  UNL     1      23.475  -9.364 -39.464  0.00  0.00    +0.000 HD
ENDBRANCH  17  18
ENDBRANCH   3  17
TORSDOF 7
ENDMDL
MODEL 8
REMARK VINA RESULT:    -3.588      6.788      8.719
REMARK INTER + INTRA:          -4.833
REMARK INTER:                  -4.330
REMARK INTRA:                  -0.503
REMARK UNBOUND:                -0.301
REMARK  Name = resultss/4CJN/ligands/lig_6_t0.pdb
REMARK  7 active torsions:
REMARK  status: ('A' for Active; 'I' for Inactive)
REMARK    1  A    between atoms: O1_1  and  C1_2
REMARK    2  A    between atoms: C1_2  and  C2_3
REMARK    3  A    between atoms: C3_5  and  C4_6
REMARK    4  A    between atoms: C4_6  and  O2_7
REMARK    5  A    between atoms: C5_8  and  O3_9
REMARK    6  A    between atoms: C6_10  and  O4_11
REMARK    7  A    between atoms: C7_12  and  O5_13
REMARK                            x       y       z     vdW  Elec       q    Type
REMARK                         _______ _______ _______ _____ _____    ______ ____
ROOT
ATOM      1  C2  UNL     1      25.151  -8.398 -42.036  0.00  0.00    +0.000 C 
ATOM      2  N1  UNL     1      26.199  -9.256 -42.611  0.00  0.00    +0.000 NA
ATOM      3  C3  UNL     1      27.544  -8.728 -42.291  0.00  0.00    +0.000 C 
ATOM      4  C5  UNL     1      27.677  -8.286 -40.796  0.00  0.00    +0.000 C 
ATOM      5  C6  UNL     1      26.558  -8.881 -39.915  0.00  0.00    +0.000 C 
ATOM      6  C7  UNL     1      25.149  -8.543 -40.484  0.00  0.00    +0.000 C 
ATOM      7  H5  UNL     1      26.109  -9.257 -43.654  0.00  0.00    +0.000 HD
ENDROOT
BRANCH   4   8
ATOM      8  O3  UNL     1      27.632  -6.882 -40.726  0.00  0.00    +0.000 OA
ATOM      9  H11 UNL     1      26.804  -6.641 -40.235  0.00  0.00    +0.000 HD
ENDBRANCH   4   8
BRANCH   5  10
ATOM     10  O4  UNL     1      26.746 -10.272 -39.822  0.00  0.00    +0.000 OA
ATOM     11  H13 UNL     1      25.864 -10.698 -39.977  0.00  0.00    +0.000 HD
ENDBRANCH   5  10
BRANCH   6  12
ATOM     12  O5  UNL     1      24.191  -9.469 -40.025  0.00  0.00    +0.000 OA
ATOM     13  H15 UNL     1      23.562  -8.983 -39.429  0.00  0.00    +0.000 HD
ENDBRANCH   6  12
BRANCH   1  14
ATOM     14  C1  UNL     1      23.773  -8.704 -42.662  0.00  0.00    +0.000 C 
BRANCH  14  15
ATOM     15  O1  UNL     1      23.616 -10.087 -42.849  0.00  0.00    +0.000 OA
ATOM     16  H1  UNL     1      22.757 -10.345 -42.423  0.00  0.00    +0.000 HD
ENDBRANCH  14  15
ENDBRANCH   1  14
BRANCH   3  17
ATOM     17  C4  UNL     1      28.613  -9.765 -42.685  0.00  0.00    +0.000 C 
BRANCH  17  18
ATOM     18  O2  UNL     1      29.062 -10.487 -41.569  0.00  0.00    +0.000 OA
ATOM     19  H9  UNL     1      30.055 -10.456 -41.589  0.00  0.00    +0.000 HD
ENDBRANCH  17  18
ENDBRANCH   3  17
TORSDOF 7
ENDMDL
MODEL 9
REMARK VINA RESULT:    -3.545      5.693      7.750
REMARK INTER + INTRA:          -4.778
REMARK INTER:                  -4.295
REMARK INTRA:                  -0.483
REMARK UNBOUND:                -0.301
REMARK  Name = resultss/4CJN/ligands/lig_6_t0.pdb
REMARK  7 active torsions:
REMARK  status: ('A' for Active; 'I' for Inactive)
REMARK    1  A    between atoms: O1_1  and  C1_2
REMARK    2  A    between atoms: C1_2  and  C2_3
REMARK    3  A    between atoms: C3_5  and  C4_6
REMARK    4  A    between atoms: C4_6  and  O2_7
REMARK    5  A    between atoms: C5_8  and  O3_9
REMARK    6  A    between atoms: C6_10  and  O4_11
REMARK    7  A    between atoms: C7_12  and  O5_13
REMARK                            x       y       z     vdW  Elec       q    Type
REMARK                         _______ _______ _______ _____ _____    ______ ____
ROOT
ATOM      1  C2  UNL     1      25.674  -8.704 -41.777  0.00  0.00    +0.000 C 
ATOM      2  N1  UNL     1      26.193  -9.842 -41.001  0.00  0.00    +0.000 NA
ATOM      3  C3  UNL     1      27.196  -9.389 -40.012  0.00  0.00    +0.000 C 
ATOM      4  C5  UNL     1      26.743  -8.104 -39.242  0.00  0.00    +0.000 C 
ATOM      5  C6  UNL     1      25.225  -7.858 -39.370  0.00  0.00    +0.000 C 
ATOM      6  C7  UNL     1      24.783  -7.810 -40.861  0.00  0.00    +0.000 C 
ATOM      7  H5  UNL     1      26.678 -10.507 -41.649  0.00  0.00    +0.000 HD
ENDROOT
BRANCH   4   8
ATOM      8  O3  UNL     1      27.443  -6.995 -39.748  0.00  0.00    +0.000 OA
ATOM      9  H11 UNL     1      27.253  -6.949 -40.721  0.00  0.00    +0.000 HD
ENDBRANCH   4   8
BRANCH   5  10
ATOM     10  O4  UNL     1      24.541  -8.868 -38.671  0.00  0.00    +0.000 OA
ATOM     11  H13 UNL     1      24.932  -8.910 -37.759  0.00  0.00    +0.000 HD
ENDBRANCH   5  10
BRANCH   6  12
ATOM     12  O5  UNL     1      23.410  -8.103 -40.985  0.00  0.00    +0.000 OA
ATOM     13  H15 UNL     1      23.306  -9.090 -40.935  0.00  0.00    +0.000 HD
ENDBRANCH   6  12
BRANCH   1  14
ATOM     14  C1  UNL     1      24.930  -9.183 -43.043  0.00  0.00    +0.000 C 
BRANCH  14  15
ATOM     15  O1  UNL     1      24.013 -10.196 -42.718  0.00  0.00    +0.000 OA
ATOM     16  H1  UNL     1      24.043 -10.865 -43.451  0.00  0.00    +0.000 HD
ENDBRANCH  14  15
ENDBRANCH   1  14
BRANCH   3  17
ATOM     17  C4  UNL     1      27.536 -10.548 -39.055  0.00  0.00    +0.000 C 
BRANCH  17  18
ATOM     18  O2  UNL     1      27.229 -10.221 -37.726  0.00  0.00    +0.000 OA
ATOM     19  H9  UNL     1      26.498 -10.831 -37.442  0.00  0.00    +0.000 HD
ENDBRANCH  17  18
ENDBRANCH   3  17
TORSDOF 7
ENDMDL
