MODEL 1
REMARK VINA RESULT:    -4.597      0.000      0.000
REMARK INTER + INTRA:         -11.591
REMARK INTER:                  -8.360
REMARK INTRA:                  -3.231
REMARK UNBOUND:                -3.231
REMARK  Name = resultss/4CJN/ligands/lig_119_t0.pdb
REMARK  18 active torsions:
REMARK  status: ('A' for Active; 'I' for Inactive)
REMARK    1  A    between atoms: S1_2  and  O4_5
REMARK    2  A    between atoms: O4_5  and  C1_6
REMARK    3  A    between atoms: C1_6  and  C2_7
REMARK    4  A    between atoms: C1_6  and  C6_15
REMARK    5  A    between atoms: C2_7  and  O5_8
REMARK    6  A    between atoms: C2_7  and  C3_9
REMARK    7  A    between atoms: C3_9  and  O6_10
REMARK    8  A    between atoms: C3_9  and  C4_11
REMARK    9  A    between atoms: C4_11  and  O7_12
REMARK   10  A    between atoms: C4_11  and  C5_13
REMARK   11  A    between atoms: C5_13  and  O8_14
REMARK   12  A    between atoms: C6_15  and  O9_16
REMARK   13  A    between atoms: C6_15  and  C7_17
REMARK   14  A    between atoms: C7_17  and  S2_18
REMARK   15  A    between atoms: C9_20  and  O10_21
REMARK   16  A    between atoms: C10_22  and  O11_23
REMARK   17  A    between atoms: C11_24  and  C12_25
REMARK   18  A    between atoms: C12_25  and  O12_26
REMARK                            x       y       z     vdW  Elec       q    Type
REMARK                         _______ _______ _______ _____ _____    ______ ____
ROOT
ATOM      1  C1  UNL     1      25.618  -8.210 -38.428  0.00  0.00    +0.000 C 
ENDROOT
BRANCH   1   2
ATOM      2  C6  UNL     1      24.702  -7.606 -37.334  0.00  0.00    +0.000 C 
BRANCH   2   3
ATOM      3  O9  UNL     1      23.497  -7.165 -37.909  0.00  0.00    +0.000 OA
ATOM      4  H12 UNL     1      23.166  -7.895 -38.494  0.00  0.00    +0.000 HD
ENDBRANCH   2   3
BRANCH   2   5
ATOM      5  C7  UNL     1      25.390  -6.416 -36.644  0.00  0.00    +0.000 C 
BRANCH   5   6
ATOM      6  S2  UNL     1      25.490  -6.670 -34.880  0.00  0.00    +0.000 S 
ATOM      7  C8  UNL     1      27.046  -7.381 -34.442  0.00  0.00    +0.000 C 
ATOM      8  C9  UNL     1      26.720  -8.564 -33.528  0.00  0.00    +0.000 C 
ATOM      9  C10 UNL     1      25.362  -9.153 -33.970  0.00  0.00    +0.000 C 
ATOM     10  C11 UNL     1      24.425  -7.994 -34.371  0.00  0.00    +0.000 C 
BRANCH   9  11
ATOM     11  O11 UNL     1      25.554  -9.987 -35.085  0.00  0.00    +0.000 OA
ATOM     12  H20 UNL     1      26.394 -10.492 -34.926  0.00  0.00    +0.000 HD
ENDBRANCH   9  11
BRANCH   8  13
ATOM     13  O10 UNL     1      26.627  -8.131 -32.195  0.00  0.00    +0.000 OA
ATOM     14  H18 UNL     1      26.297  -8.905 -31.665  0.00  0.00    +0.000 HD
ENDBRANCH   8  13
BRANCH  10  15
ATOM     15  C12 UNL     1      23.528  -7.521 -33.217  0.00  0.00    +0.000 C 
BRANCH  15  16
ATOM     16  O12 UNL     1      24.168  -6.522 -32.469  0.00  0.00    +0.000 OA
ATOM     17  H24 UNL     1      24.838  -6.102 -33.069  0.00  0.00    +0.000 HD
ENDBRANCH  15  16
ENDBRANCH  10  15
ENDBRANCH   5   6
ENDBRANCH   2   5
ENDBRANCH   1   2
BRANCH   1  18
ATOM     18  C2  UNL     1      24.959  -8.330 -39.834  0.00  0.00    +0.000 C 
BRANCH  18  19
ATOM     19  O5  UNL     1      23.989  -9.351 -39.863  0.00  0.00    +0.000 OA
ATOM     20  H3  UNL     1      23.853  -9.640 -40.799  0.00  0.00    +0.000 HD
ENDBRANCH  18  19
BRANCH  18  21
ATOM     21  C3  UNL     1      25.964  -8.413 -41.024  0.00  0.00    +0.000 C 
BRANCH  21  22
ATOM     22  O6  UNL     1      26.488  -9.715 -41.137  0.00  0.00    +0.000 OA
ATOM     23  H5  UNL     1      27.357  -9.728 -40.657  0.00  0.00    +0.000 HD
ENDBRANCH  21  22
BRANCH  21  24
ATOM     24  C4  UNL     1      25.294  -7.998 -42.356  0.00  0.00    +0.000 C 
BRANCH  24  25
ATOM     25  O7  UNL     1      24.097  -7.309 -42.100  0.00  0.00    +0.000 OA
ATOM     26  H7  UNL     1      24.019  -7.223 -41.114  0.00  0.00    +0.000 HD
ENDBRANCH  24  25
BRANCH  24  27
ATOM     27  C5  UNL     1      25.021  -9.206 -43.268  0.00  0.00    +0.000 C 
BRANCH  27  28
ATOM     28  O8  UNL     1      23.968  -9.980 -42.762  0.00  0.00    +0.000 OA
ATOM     29  H10 UNL     1      23.681 -10.574 -43.503  0.00  0.00    +0.000 HD
ENDBRANCH  27  28
ENDBRANCH  24  27
ENDBRANCH  21  24
ENDBRANCH  18  21
ENDBRANCH   1  18
BRANCH   1  30
ATOM     30  O4  UNL     1      26.018  -9.505 -38.010  0.00  0.00    +0.000 OA
BRANCH  30  32
ATOM     31  O1  UNL     1      28.014 -10.323 -36.512  0.00  0.00    +0.000 OA
ATOM     32  S1  UNL     1      27.699  -9.564 -37.772  0.00  0.00    +0.000 S 
ATOM     33  O2  UNL     1      28.267  -8.175 -37.682  0.00  0.00    +0.000 OA
ATOM     34  O3  UNL     1      28.402 -10.356 -39.074  0.00  0.00    +0.000 OA
ENDBRANCH  30  32
ENDBRANCH   1  30
TORSDOF 18
ENDMDL
MODEL 2
REMARK VINA RESULT:    -4.370      2.006      3.325
REMARK INTER + INTRA:         -11.179
REMARK INTER:                  -8.912
REMARK INTRA:                  -2.266
REMARK UNBOUND:                -3.231
REMARK  Name = resultss/4CJN/ligands/lig_119_t0.pdb
REMARK  18 active torsions:
REMARK  status: ('A' for Active; 'I' for Inactive)
REMARK    1  A    between atoms: S1_2  and  O4_5
REMARK    2  A    between atoms: O4_5  and  C1_6
REMARK    3  A    between atoms: C1_6  and  C2_7
REMARK    4  A    between atoms: C1_6  and  C6_15
REMARK    5  A    between atoms: C2_7  and  O5_8
REMARK    6  A    between atoms: C2_7  and  C3_9
REMARK    7  A    between atoms: C3_9  and  O6_10
REMARK    8  A    between atoms: C3_9  and  C4_11
REMARK    9  A    between atoms: C4_11  and  O7_12
REMARK   10  A    between atoms: C4_11  and  C5_13
REMARK   11  A    between atoms: C5_13  and  O8_14
REMARK   12  A    between atoms: C6_15  and  O9_16
REMARK   13  A    between atoms: C6_15  and  C7_17
REMARK   14  A    between atoms: C7_17  and  S2_18
REMARK   15  A    between atoms: C9_20  and  O10_21
REMARK   16  A    between atoms: C10_22  and  O11_23
REMARK   17  A    between atoms: C11_24  and  C12_25
REMARK   18  A    between atoms: C12_25  and  O12_26
REMARK                            x       y       z     vdW  Elec       q    Type
REMARK                         _______ _______ _______ _____ _____    ______ ____
ROOT
ATOM      1  C1  UNL     1      27.906  -9.458 -39.598  0.00  0.00    +0.000 C 
ENDROOT
BRANCH   1   2
ATOM      2  C6  UNL     1      27.953  -9.275 -38.060  0.00  0.00    +0.000 C 
BRANCH   2   3
ATOM      3  O9  UNL     1      27.630 -10.487 -37.424  0.00  0.00    +0.000 OA
ATOM      4  H12 UNL     1      28.302 -10.630 -36.708  0.00  0.00    +0.000 HD
ENDBRANCH   2   3
BRANCH   2   5
ATOM      5  C7  UNL     1      26.955  -8.194 -37.611  0.00  0.00    +0.000 C 
BRANCH   5   6
ATOM      6  S2  UNL     1      25.773  -8.859 -36.449  0.00  0.00    +0.000 S 
ATOM      7  C8  UNL     1      24.216  -8.040 -36.612  0.00  0.00    +0.000 C 
ATOM      8  C9  UNL     1      23.802  -7.650 -35.192  0.00  0.00    +0.000 C 
ATOM      9  C10 UNL     1      25.082  -7.358 -34.380  0.00  0.00    +0.000 C 
ATOM     10  C11 UNL     1      26.173  -8.369 -34.791  0.00  0.00    +0.000 C 
BRANCH   9  11
ATOM     11  O11 UNL     1      25.536  -6.060 -34.671  0.00  0.00    +0.000 OA
ATOM     12  H20 UNL     1      24.731  -5.504 -34.837  0.00  0.00    +0.000 HD
ENDBRANCH   9  11
BRANCH   8  13
ATOM     13  O10 UNL     1      23.099  -8.706 -34.587  0.00  0.00    +0.000 OA
ATOM     14  H18 UNL     1      23.742  -9.457 -34.485  0.00  0.00    +0.000 HD
ENDBRANCH   8  13
BRANCH  10  15
ATOM     15  C12 UNL     1      26.216  -9.609 -33.884  0.00  0.00    +0.000 C 
BRANCH  15  16
ATOM     16  O12 UNL     1      25.414 -10.634 -34.407  0.00  0.00    +0.000 OA
ATOM     17  H24 UNL     1      25.974 -11.454 -34.421  0.00  0.00    +0.000 HD
ENDBRANCH  15  16
ENDBRANCH  10  15
ENDBRANCH   5   6
ENDBRANCH   2   5
ENDBRANCH   1   2
BRANCH   1  18
ATOM     18  C2  UNL     1      26.479  -9.674 -40.184  0.00  0.00    +0.000 C 
BRANCH  18  19
ATOM     19  O5  UNL     1      26.368 -10.926 -40.819  0.00  0.00    +0.000 OA
ATOM     20  H3  UNL     1      27.109 -11.024 -41.467  0.00  0.00    +0.000 HD
ENDBRANCH  18  19
BRANCH  18  21
ATOM     21  C3  UNL     1      25.945  -8.499 -41.060  0.00  0.00    +0.000 C 
BRANCH  21  22
ATOM     22  O6  UNL     1      26.439  -8.599 -42.374  0.00  0.00    +0.000 OA
ATOM     23  H5  UNL     1      27.182  -7.948 -42.462  0.00  0.00    +0.000 HD
ENDBRANCH  21  22
BRANCH  21  24
ATOM     24  C4  UNL     1      24.397  -8.472 -41.080  0.00  0.00    +0.000 C 
BRANCH  24  25
ATOM     25  O7  UNL     1      23.886  -9.352 -40.111  0.00  0.00    +0.000 OA
ATOM     26  H7  UNL     1      24.597 -10.020 -39.924  0.00  0.00    +0.000 HD
ENDBRANCH  24  25
BRANCH  24  27
ATOM     27  C5  UNL     1      23.830  -8.827 -42.465  0.00  0.00    +0.000 C 
BRANCH  27  28
ATOM     28  O8  UNL     1      23.987 -10.194 -42.727  0.00  0.00    +0.000 OA
ATOM     29  H10 UNL     1      24.823 -10.470 -42.268  0.00  0.00    +0.000 HD
ENDBRANCH  27  28
ENDBRANCH  24  27
ENDBRANCH  21  24
ENDBRANCH  18  21
ENDBRANCH   1  18
BRANCH   1  30
ATOM     30  O4  UNL     1      28.704 -10.579 -39.940  0.00  0.00    +0.000 OA
BRANCH  30  32
ATOM     31  O1  UNL     1      30.157 -11.267 -42.017  0.00  0.00    +0.000 OA
ATOM     32  S1  UNL     1      29.910 -10.140 -41.052  0.00  0.00    +0.000 S 
ATOM     33  O2  UNL     1      31.187  -9.797 -40.336  0.00  0.00    +0.000 OA
ATOM     34  O3  UNL     1      29.389  -8.794 -41.910  0.00  0.00    +0.000 OA
ENDBRANCH  30  32
ENDBRANCH   1  30
TORSDOF 18
ENDMDL
MODEL 3
REMARK VINA RESULT:    -4.303      1.806      2.241
REMARK INTER + INTRA:         -11.056
REMARK INTER:                  -8.362
REMARK INTRA:                  -2.694
REMARK UNBOUND:                -3.231
REMARK  Name = resultss/4CJN/ligands/lig_119_t0.pdb
REMARK  18 active torsions:
REMARK  status: ('A' for Active; 'I' for Inactive)
REMARK    1  A    between atoms: S1_2  and  O4_5
REMARK    2  A    between atoms: O4_5  and  C1_6
REMARK    3  A    between atoms: C1_6  and  C2_7
REMARK    4  A    between atoms: C1_6  and  C6_15
REMARK    5  A    between atoms: C2_7  and  O5_8
REMARK    6  A    between atoms: C2_7  and  C3_9
REMARK    7  A    between atoms: C3_9  and  O6_10
REMARK    8  A    between atoms: C3_9  and  C4_11
REMARK    9  A    between atoms: C4_11  and  O7_12
REMARK   10  A    between atoms: C4_11  and  C5_13
REMARK   11  A    between atoms: C5_13  and  O8_14
REMARK   12  A    between atoms: C6_15  and  O9_16
REMARK   13  A    between atoms: C6_15  and  C7_17
REMARK   14  A    between atoms: C7_17  and  S2_18
REMARK   15  A    between atoms: C9_20  and  O10_21
REMARK   16  A    between atoms: C10_22  and  O11_23
REMARK   17  A    between atoms: C11_24  and  C12_25
REMARK   18  A    between atoms: C12_25  and  O12_26
REMARK                            x       y       z     vdW  Elec       q    Type
REMARK                         _______ _______ _______ _____ _____    ______ ____
ROOT
ATOM      1  C1  UNL     1      26.352  -8.810 -39.322  0.00  0.00    +0.000 C 
ENDROOT
BRANCH   1   2
ATOM      2  C6  UNL     1      26.229  -8.828 -37.777  0.00  0.00    +0.000 C 
BRANCH   2   3
ATOM      3  O9  UNL     1      24.881  -8.972 -37.406  0.00  0.00    +0.000 OA
ATOM      4  H12 UNL     1      24.807  -9.817 -36.890  0.00  0.00    +0.000 HD
ENDBRANCH   2   3
BRANCH   2   5
ATOM      5  C7  UNL     1      26.777  -7.524 -37.173  0.00  0.00    +0.000 C 
BRANCH   5   6
ATOM      6  S2  UNL     1      27.622  -7.837 -35.633  0.00  0.00    +0.000 S 
ATOM      7  C8  UNL     1      28.435  -9.406 -35.679  0.00  0.00    +0.000 C 
ATOM      8  C9  UNL     1      28.036 -10.118 -34.385  0.00  0.00    +0.000 C 
ATOM      9  C10 UNL     1      26.609  -9.665 -34.007  0.00  0.00    +0.000 C 
ATOM     10  C11 UNL     1      26.462  -8.163 -34.331  0.00  0.00    +0.000 C 
BRANCH   9  11
ATOM     11  O11 UNL     1      25.672 -10.386 -34.766  0.00  0.00    +0.000 OA
ATOM     12  H20 UNL     1      26.170 -10.811 -35.512  0.00  0.00    +0.000 HD
ENDBRANCH   9  11
BRANCH   8  13
ATOM     13  O10 UNL     1      28.923  -9.773 -33.352  0.00  0.00    +0.000 OA
ATOM     14  H18 UNL     1      29.787 -10.223 -33.553  0.00  0.00    +0.000 HD
ENDBRANCH   8  13
BRANCH  10  15
ATOM     15  C12 UNL     1      26.768  -7.257 -33.128  0.00  0.00    +0.000 C 
BRANCH  15  16
ATOM     16  O12 UNL     1      26.942  -8.020 -31.964  0.00  0.00    +0.000 OA
ATOM     17  H24 UNL     1      27.733  -8.598 -32.118  0.00  0.00    +0.000 HD
ENDBRANCH  15  16
ENDBRANCH  10  15
ENDBRANCH   5   6
ENDBRANCH   2   5
ENDBRANCH   1   2
BRANCH   1  18
ATOM     18  C2  UNL     1      25.022  -8.511 -40.076  0.00  0.00    +0.000 C 
BRANCH  18  19
ATOM     19  O5  UNL     1      24.174  -9.635 -40.088  0.00  0.00    +0.000 OA
ATOM     20  H3  UNL     1      23.713  -9.681 -40.962  0.00  0.00    +0.000 HD
ENDBRANCH  18  19
BRANCH  18  21
ATOM     21  C3  UNL     1      25.199  -7.868 -41.486  0.00  0.00    +0.000 C 
BRANCH  21  22
ATOM     22  O6  UNL     1      25.853  -8.760 -42.357  0.00  0.00    +0.000 OA
ATOM     23  H5  UNL     1      25.724  -9.676 -41.995  0.00  0.00    +0.000 HD
ENDBRANCH  21  22
BRANCH  21  24
ATOM     24  C4  UNL     1      23.836  -7.449 -42.087  0.00  0.00    +0.000 C 
BRANCH  24  25
ATOM     25  O7  UNL     1      22.850  -7.437 -41.086  0.00  0.00    +0.000 OA
ATOM     26  H7  UNL     1      23.219  -7.937 -40.312  0.00  0.00    +0.000 HD
ENDBRANCH  24  25
BRANCH  24  27
ATOM     27  C5  UNL     1      23.404  -8.371 -43.240  0.00  0.00    +0.000 C 
BRANCH  27  28
ATOM     28  O8  UNL     1      23.313  -9.699 -42.804  0.00  0.00    +0.000 OA
ATOM     29  H10 UNL     1      22.898  -9.666 -41.903  0.00  0.00    +0.000 HD
ENDBRANCH  27  28
ENDBRANCH  24  27
ENDBRANCH  21  24
ENDBRANCH  18  21
ENDBRANCH   1  18
BRANCH   1  30
ATOM     30  O4  UNL     1      26.832 -10.075 -39.747  0.00  0.00    +0.000 OA
BRANCH  30  32
ATOM     31  O1  UNL     1      28.785 -11.110 -41.165  0.00  0.00    +0.000 OA
ATOM     32  S1  UNL     1      28.449  -9.963 -40.253  0.00  0.00    +0.000 S 
ATOM     33  O2  UNL     1      29.374  -9.972 -39.067  0.00  0.00    +0.000 OA
ATOM     34  O3  UNL     1      28.655  -8.523 -41.092  0.00  0.00    +0.000 OA
ENDBRANCH  30  32
ENDBRANCH   1  30
TORSDOF 18
ENDMDL
MODEL 4
REMARK VINA RESULT:    -4.300      2.240      3.840
REMARK INTER + INTRA:         -11.050
REMARK INTER:                  -8.622
REMARK INTRA:                  -2.428
REMARK UNBOUND:                -3.231
REMARK  Name = resultss/4CJN/ligands/lig_119_t0.pdb
REMARK  18 active torsions:
REMARK  status: ('A' for Active; 'I' for Inactive)
REMARK    1  A    between atoms: S1_2  and  O4_5
REMARK    2  A    between atoms: O4_5  and  C1_6
REMARK    3  A    between atoms: C1_6  and  C2_7
REMARK    4  A    between atoms: C1_6  and  C6_15
REMARK    5  A    between atoms: C2_7  and  O5_8
REMARK    6  A    between atoms: C2_7  and  C3_9
REMARK    7  A    between atoms: C3_9  and  O6_10
REMARK    8  A    between atoms: C3_9  and  C4_11
REMARK    9  A    between atoms: C4_11  and  O7_12
REMARK   10  A    between atoms: C4_11  and  C5_13
REMARK   11  A    between atoms: C5_13  and  O8_14
REMARK   12  A    between atoms: C6_15  and  O9_16
REMARK   13  A    between atoms: C6_15  and  C7_17
REMARK   14  A    between atoms: C7_17  and  S2_18
REMARK   15  A    between atoms: C9_20  and  O10_21
REMARK   16  A    between atoms: C10_22  and  O11_23
REMARK   17  A    between atoms: C11_24  and  C12_25
REMARK   18  A    between atoms: C12_25  and  O12_26
REMARK                            x       y       z     vdW  Elec       q    Type
REMARK                         _______ _______ _______ _____ _____    ______ ____
ROOT
ATOM      1  C1  UNL     1      26.498  -9.113 -38.704  0.00  0.00    +0.000 C 
ENDROOT
BRANCH   1   2
ATOM      2  C6  UNL     1      25.484  -8.639 -37.634  0.00  0.00    +0.000 C 
BRANCH   2   3
ATOM      3  O9  UNL     1      24.184  -8.644 -38.170  0.00  0.00    +0.000 OA
ATOM      4  H12 UNL     1      23.850  -7.709 -38.138  0.00  0.00    +0.000 HD
ENDBRANCH   2   3
BRANCH   2   5
ATOM      5  C7  UNL     1      25.821  -7.215 -37.158  0.00  0.00    +0.000 C 
BRANCH   5   6
ATOM      6  S2  UNL     1      25.752  -7.103 -35.378  0.00  0.00    +0.000 S 
ATOM      7  C8  UNL     1      27.241  -7.724 -34.658  0.00  0.00    +0.000 C 
ATOM      8  C9  UNL     1      26.798  -8.691 -33.558  0.00  0.00    +0.000 C 
ATOM      9  C10 UNL     1      25.471  -9.345 -33.999  0.00  0.00    +0.000 C 
ATOM     10  C11 UNL     1      24.607  -8.285 -34.714  0.00  0.00    +0.000 C 
BRANCH   9  11
ATOM     11  O11 UNL     1      25.739 -10.392 -34.897  0.00  0.00    +0.000 OA
ATOM     12  H20 UNL     1      24.863 -10.786 -35.150  0.00  0.00    +0.000 HD
ENDBRANCH   9  11
BRANCH   8  13
ATOM     13  O10 UNL     1      26.597  -7.994 -32.355  0.00  0.00    +0.000 OA
ATOM     14  H18 UNL     1      27.275  -8.331 -31.711  0.00  0.00    +0.000 HD
ENDBRANCH   8  13
BRANCH  10  15
ATOM     15  C12 UNL     1      23.623  -7.576 -33.771  0.00  0.00    +0.000 C 
BRANCH  15  16
ATOM     16  O12 UNL     1      23.581  -8.217 -32.525  0.00  0.00    +0.000 OA
ATOM     17  H24 UNL     1      23.454  -7.507 -31.843  0.00  0.00    +0.000 HD
ENDBRANCH  15  16
ENDBRANCH  10  15
ENDBRANCH   5   6
ENDBRANCH   2   5
ENDBRANCH   1   2
BRANCH   1  18
ATOM     18  C2  UNL     1      27.919  -8.488 -38.575  0.00  0.00    +0.000 C 
BRANCH  18  19
ATOM     19  O5  UNL     1      28.196  -7.615 -39.645  0.00  0.00    +0.000 OA
ATOM     20  H3  UNL     1      29.165  -7.646 -39.843  0.00  0.00    +0.000 HD
ENDBRANCH  18  19
BRANCH  18  21
ATOM     21  C3  UNL     1      29.065  -9.514 -38.316  0.00  0.00    +0.000 C 
BRANCH  21  22
ATOM     22  O6  UNL     1      28.535 -10.796 -38.079  0.00  0.00    +0.000 OA
ATOM     23  H5  UNL     1      27.551 -10.737 -38.194  0.00  0.00    +0.000 HD
ENDBRANCH  21  22
BRANCH  21  24
ATOM     24  C4  UNL     1      30.054  -9.565 -39.506  0.00  0.00    +0.000 C 
BRANCH  24  25
ATOM     25  O7  UNL     1      29.756 -10.660 -40.334  0.00  0.00    +0.000 OA
ATOM     26  H7  UNL     1      29.938 -10.375 -41.267  0.00  0.00    +0.000 HD
ENDBRANCH  24  25
BRANCH  24  27
ATOM     27  C5  UNL     1      31.517  -9.639 -39.041  0.00  0.00    +0.000 C 
BRANCH  27  28
ATOM     28  O8  UNL     1      31.645 -10.506 -37.948  0.00  0.00    +0.000 OA
ATOM     29  H10 UNL     1      30.862 -11.114 -37.985  0.00  0.00    +0.000 HD
ENDBRANCH  27  28
ENDBRANCH  24  27
ENDBRANCH  21  24
ENDBRANCH  18  21
ENDBRANCH   1  18
BRANCH   1  30
ATOM     30  O4  UNL     1      25.982  -8.788 -39.984  0.00  0.00    +0.000 OA
BRANCH  30  32
ATOM     31  O1  UNL     1      25.160 -10.306 -41.963  0.00  0.00    +0.000 OA
ATOM     32  S1  UNL     1      26.360 -10.002 -41.109  0.00  0.00    +0.000 S 
ATOM     33  O2  UNL     1      26.810 -11.252 -40.404  0.00  0.00    +0.000 OA
ATOM     34  O3  UNL     1      27.604  -9.457 -42.096  0.00  0.00    +0.000 OA
ENDBRANCH  30  32
ENDBRANCH   1  30
TORSDOF 18
ENDMDL
MODEL 5
REMARK VINA RESULT:    -4.251      1.620      2.493
REMARK INTER + INTRA:         -10.961
REMARK INTER:                  -8.356
REMARK INTRA:                  -2.605
REMARK UNBOUND:                -3.231
REMARK  Name = resultss/4CJN/ligands/lig_119_t0.pdb
REMARK  18 active torsions:
REMARK  status: ('A' for Active; 'I' for Inactive)
REMARK    1  A    between atoms: S1_2  and  O4_5
REMARK    2  A    between atoms: O4_5  and  C1_6
REMARK    3  A    between atoms: C1_6  and  C2_7
REMARK    4  A    between atoms: C1_6  and  C6_15
REMARK    5  A    between atoms: C2_7  and  O5_8
REMARK    6  A    between atoms: C2_7  and  C3_9
REMARK    7  A    between atoms: C3_9  and  O6_10
REMARK    8  A    between atoms: C3_9  and  C4_11
REMARK    9  A    between atoms: C4_11  and  O7_12
REMARK   10  A    between atoms: C4_11  and  C5_13
REMARK   11  A    between atoms: C5_13  and  O8_14
REMARK   12  A    between atoms: C6_15  and  O9_16
REMARK   13  A    between atoms: C6_15  and  C7_17
REMARK   14  A    between atoms: C7_17  and  S2_18
REMARK   15  A    between atoms: C9_20  and  O10_21
REMARK   16  A    between atoms: C10_22  and  O11_23
REMARK   17  A    between atoms: C11_24  and  C12_25
REMARK   18  A    between atoms: C12_25  and  O12_26
REMARK                            x       y       z     vdW  Elec       q    Type
REMARK                         _______ _______ _______ _____ _____    ______ ____
ROOT
ATOM      1  C1  UNL     1      26.729  -8.409 -39.561  0.00  0.00    +0.000 C 
ENDROOT
BRANCH   1   2
ATOM      2  C6  UNL     1      27.478  -7.656 -38.433  0.00  0.00    +0.000 C 
BRANCH   2   3
ATOM      3  O9  UNL     1      28.795  -7.374 -38.838  0.00  0.00    +0.000 OA
ATOM      4  H12 UNL     1      29.129  -8.172 -39.325  0.00  0.00    +0.000 HD
ENDBRANCH   2   3
BRANCH   2   5
ATOM      5  C7  UNL     1      27.522  -8.504 -37.150  0.00  0.00    +0.000 C 
BRANCH   5   6
ATOM      6  S2  UNL     1      26.600  -7.723 -35.836  0.00  0.00    +0.000 S 
ATOM      7  C8  UNL     1      27.380  -8.008 -34.276  0.00  0.00    +0.000 C 
ATOM      8  C9  UNL     1      26.271  -8.488 -33.339  0.00  0.00    +0.000 C 
ATOM      9  C10 UNL     1      25.240  -9.274 -34.177  0.00  0.00    +0.000 C 
ATOM     10  C11 UNL     1      25.072  -8.575 -35.543  0.00  0.00    +0.000 C 
BRANCH   9  11
ATOM     11  O11 UNL     1      25.709 -10.581 -34.392  0.00  0.00    +0.000 OA
ATOM     12  H20 UNL     1      26.554 -10.672 -33.878  0.00  0.00    +0.000 HD
ENDBRANCH   9  11
BRANCH   8  13
ATOM     13  O10 UNL     1      25.638  -7.387 -32.736  0.00  0.00    +0.000 OA
ATOM     14  H18 UNL     1      25.409  -6.753 -33.467  0.00  0.00    +0.000 HD
ENDBRANCH   8  13
BRANCH  10  15
ATOM     15  C12 UNL     1      23.909  -7.572 -35.565  0.00  0.00    +0.000 C 
BRANCH  15  16
ATOM     16  O12 UNL     1      23.110  -7.764 -36.701  0.00  0.00    +0.000 OA
ATOM     17  H24 UNL     1      22.377  -7.096 -36.650  0.00  0.00    +0.000 HD
ENDBRANCH  15  16
ENDBRANCH  10  15
ENDBRANCH   5   6
ENDBRANCH   2   5
ENDBRANCH   1   2
BRANCH   1  18
ATOM     18  C2  UNL     1      25.231  -8.016 -39.722  0.00  0.00    +0.000 C 
BRANCH  18  19
ATOM     19  O5  UNL     1      24.388  -8.906 -39.028  0.00  0.00    +0.000 OA
ATOM     20  H3  UNL     1      23.698  -9.246 -39.650  0.00  0.00    +0.000 HD
ENDBRANCH  18  19
BRANCH  18  21
ATOM     21  C3  UNL     1      24.773  -7.766 -41.192  0.00  0.00    +0.000 C 
BRANCH  21  22
ATOM     22  O6  UNL     1      25.885  -7.714 -42.053  0.00  0.00    +0.000 OA
ATOM     23  H5  UNL     1      25.910  -6.806 -42.451  0.00  0.00    +0.000 HD
ENDBRANCH  21  22
BRANCH  21  24
ATOM     24  C4  UNL     1      23.790  -8.863 -41.668  0.00  0.00    +0.000 C 
BRANCH  24  25
ATOM     25  O7  UNL     1      24.494 -10.036 -41.990  0.00  0.00    +0.000 OA
ATOM     26  H7  UNL     1      24.559 -10.572 -41.157  0.00  0.00    +0.000 HD
ENDBRANCH  24  25
BRANCH  24  27
ATOM     27  C5  UNL     1      22.950  -8.406 -42.872  0.00  0.00    +0.000 C 
BRANCH  27  28
ATOM     28  O8  UNL     1      23.751  -8.282 -44.015  0.00  0.00    +0.000 OA
ATOM     29  H10 UNL     1      24.190  -7.394 -43.950  0.00  0.00    +0.000 HD
ENDBRANCH  27  28
ENDBRANCH  24  27
ENDBRANCH  21  24
ENDBRANCH  18  21
ENDBRANCH   1  18
BRANCH   1  30
ATOM     30  O4  UNL     1      26.800  -9.800 -39.293  0.00  0.00    +0.000 OA
BRANCH  30  32
ATOM     31  O1  UNL     1      27.640 -12.054 -40.346  0.00  0.00    +0.000 OA
ATOM     32  S1  UNL     1      27.857 -10.567 -40.379  0.00  0.00    +0.000 S 
ATOM     33  O2  UNL     1      29.286 -10.255 -40.030  0.00  0.00    +0.000 OA
ATOM     34  O3  UNL     1      27.541 -10.005 -41.929  0.00  0.00    +0.000 OA
ENDBRANCH  30  32
ENDBRANCH   1  30
TORSDOF 18
ENDMDL
MODEL 6
REMARK VINA RESULT:    -4.082      2.077      3.044
REMARK INTER + INTRA:         -10.654
REMARK INTER:                  -8.197
REMARK INTRA:                  -2.457
REMARK UNBOUND:                -3.231
REMARK  Name = resultss/4CJN/ligands/lig_119_t0.pdb
REMARK  18 active torsions:
REMARK  status: ('A' for Active; 'I' for Inactive)
REMARK    1  A    between atoms: S1_2  and  O4_5
REMARK    2  A    between atoms: O4_5  and  C1_6
REMARK    3  A    between atoms: C1_6  and  C2_7
REMARK    4  A    between atoms: C1_6  and  C6_15
REMARK    5  A    between atoms: C2_7  and  O5_8
REMARK    6  A    between atoms: C2_7  and  C3_9
REMARK    7  A    between atoms: C3_9  and  O6_10
REMARK    8  A    between atoms: C3_9  and  C4_11
REMARK    9  A    between atoms: C4_11  and  O7_12
REMARK   10  A    between atoms: C4_11  and  C5_13
REMARK   11  A    between atoms: C5_13  and  O8_14
REMARK   12  A    between atoms: C6_15  and  O9_16
REMARK   13  A    between atoms: C6_15  and  C7_17
REMARK   14  A    between atoms: C7_17  and  S2_18
REMARK   15  A    between atoms: C9_20  and  O10_21
REMARK   16  A    between atoms: C10_22  and  O11_23
REMARK   17  A    between atoms: C11_24  and  C12_25
REMARK   18  A    between atoms: C12_25  and  O12_26
REMARK                            x       y       z     vdW  Elec       q    Type
REMARK                         _______ _______ _______ _____ _____    ______ ____
ROOT
ATOM      1  C1  UNL     1      26.868  -9.124 -37.446  0.00  0.00    +0.000 C 
ENDROOT
BRANCH   1   2
ATOM      2  C6  UNL     1      25.403  -8.622 -37.399  0.00  0.00    +0.000 C 
BRANCH   2   3
ATOM      3  O9  UNL     1      24.755  -8.924 -38.610  0.00  0.00    +0.000 OA
ATOM      4  H12 UNL     1      25.305  -8.539 -39.341  0.00  0.00    +0.000 HD
ENDBRANCH   2   3
BRANCH   2   5
ATOM      5  C7  UNL     1      25.357  -7.100 -37.176  0.00  0.00    +0.000 C 
BRANCH   5   6
ATOM      6  S2  UNL     1      24.407  -6.697 -35.719  0.00  0.00    +0.000 S 
ATOM      7  C8  UNL     1      25.466  -6.519 -34.317  0.00  0.00    +0.000 C 
ATOM      8  C9  UNL     1      24.830  -7.360 -33.208  0.00  0.00    +0.000 C 
ATOM      9  C10 UNL     1      24.119  -8.563 -33.864  0.00  0.00    +0.000 C 
ATOM     10  C11 UNL     1      23.458  -8.094 -35.177  0.00  0.00    +0.000 C 
BRANCH   9  11
ATOM     11  O11 UNL     1      25.064  -9.560 -34.163  0.00  0.00    +0.000 OA
ATOM     12  H20 UNL     1      25.739  -9.146 -34.762  0.00  0.00    +0.000 HD
ENDBRANCH   9  11
BRANCH   8  13
ATOM     13  O10 UNL     1      23.889  -6.593 -32.500  0.00  0.00    +0.000 OA
ATOM     14  H18 UNL     1      24.323  -6.322 -31.648  0.00  0.00    +0.000 HD
ENDBRANCH   8  13
BRANCH  10  15
ATOM     15  C12 UNL     1      21.989  -7.682 -34.996  0.00  0.00    +0.000 C 
BRANCH  15  16
ATOM     16  O12 UNL     1      21.496  -7.078 -36.161  0.00  0.00    +0.000 OA
ATOM     17  H24 UNL     1      22.135  -6.357 -36.400  0.00  0.00    +0.000 HD
ENDBRANCH  15  16
ENDBRANCH  10  15
ENDBRANCH   5   6
ENDBRANCH   2   5
ENDBRANCH   1   2
BRANCH   1  18
ATOM     18  C2  UNL     1      27.248  -9.900 -38.742  0.00  0.00    +0.000 C 
BRANCH  18  19
ATOM     19  O5  UNL     1      27.711 -11.197 -38.446  0.00  0.00    +0.000 OA
ATOM     20  H3  UNL     1      28.076 -11.604 -39.271  0.00  0.00    +0.000 HD
ENDBRANCH  18  19
BRANCH  18  21
ATOM     21  C3  UNL     1      28.188  -9.127 -39.717  0.00  0.00    +0.000 C 
BRANCH  21  22
ATOM     22  O6  UNL     1      29.536  -9.327 -39.366  0.00  0.00    +0.000 OA
ATOM     23  H5  UNL     1      29.759  -8.672 -38.656  0.00  0.00    +0.000 HD
ENDBRANCH  21  22
BRANCH  21  24
ATOM     24  C4  UNL     1      27.956  -9.563 -41.184  0.00  0.00    +0.000 C 
BRANCH  24  25
ATOM     25  O7  UNL     1      26.758 -10.290 -41.288  0.00  0.00    +0.000 OA
ATOM     26  H7  UNL     1      26.855 -11.090 -40.708  0.00  0.00    +0.000 HD
ENDBRANCH  24  25
BRANCH  24  27
ATOM     27  C5  UNL     1      29.126 -10.396 -41.733  0.00  0.00    +0.000 C 
BRANCH  27  28
ATOM     28  O8  UNL     1      29.158 -11.661 -41.131  0.00  0.00    +0.000 OA
ATOM     29  H10 UNL     1      28.647 -11.576 -40.284  0.00  0.00    +0.000 HD
ENDBRANCH  27  28
ENDBRANCH  24  27
ENDBRANCH  21  24
ENDBRANCH  18  21
ENDBRANCH   1  18
BRANCH   1  30
ATOM     30  O4  UNL     1      27.084  -9.977 -36.334  0.00  0.00    +0.000 OA
BRANCH  30  32
ATOM     31  O1  UNL     1      28.501  -8.034 -35.280  0.00  0.00    +0.000 OA
ATOM     32  S1  UNL     1      28.487  -9.522 -35.493  0.00  0.00    +0.000 S 
ATOM     33  O2  UNL     1      29.715  -9.936 -36.256  0.00  0.00    +0.000 OA
ATOM     34  O3  UNL     1      28.493 -10.285 -33.998  0.00  0.00    +0.000 OA
ENDBRANCH  30  32
ENDBRANCH   1  30
TORSDOF 18
ENDMDL
MODEL 7
REMARK VINA RESULT:    -3.954      3.128      7.424
REMARK INTER + INTRA:         -10.421
REMARK INTER:                  -7.665
REMARK INTRA:                  -2.756
REMARK UNBOUND:                -3.231
REMARK  Name = resultss/4CJN/ligands/lig_119_t0.pdb
REMARK  18 active torsions:
REMARK  status: ('A' for Active; 'I' for Inactive)
REMARK    1  A    between atoms: S1_2  and  O4_5
REMARK    2  A    between atoms: O4_5  and  C1_6
REMARK    3  A    between atoms: C1_6  and  C2_7
REMARK    4  A    between atoms: C1_6  and  C6_15
REMARK    5  A    between atoms: C2_7  and  O5_8
REMARK    6  A    between atoms: C2_7  and  C3_9
REMARK    7  A    between atoms: C3_9  and  O6_10
REMARK    8  A    between atoms: C3_9  and  C4_11
REMARK    9  A    between atoms: C4_11  and  O7_12
REMARK   10  A    between atoms: C4_11  and  C5_13
REMARK   11  A    between atoms: C5_13  and  O8_14
REMARK   12  A    between atoms: C6_15  and  O9_16
REMARK   13  A    between atoms: C6_15  and  C7_17
REMARK   14  A    between atoms: C7_17  and  S2_18
REMARK   15  A    between atoms: C9_20  and  O10_21
REMARK   16  A    between atoms: C10_22  and  O11_23
REMARK   17  A    between atoms: C11_24  and  C12_25
REMARK   18  A    between atoms: C12_25  and  O12_26
REMARK                            x       y       z     vdW  Elec       q    Type
REMARK                         _______ _______ _______ _____ _____    ______ ____
ROOT
ATOM      1  C1  UNL     1      27.608  -8.594 -38.185  0.00  0.00    +0.000 C 
ENDROOT
BRANCH   1   2
ATOM      2  C6  UNL     1      29.081  -8.244 -38.516  0.00  0.00    +0.000 C 
BRANCH   2   3
ATOM      3  O9  UNL     1      29.679  -7.602 -37.418  0.00  0.00    +0.000 OA
ATOM      4  H12 UNL     1      29.610  -6.624 -37.576  0.00  0.00    +0.000 HD
ENDBRANCH   2   3
BRANCH   2   5
ATOM      5  C7  UNL     1      29.157  -7.314 -39.739  0.00  0.00    +0.000 C 
BRANCH   5   6
ATOM      6  S2  UNL     1      30.117  -8.055 -41.048  0.00  0.00    +0.000 S 
ATOM      7  C8  UNL     1      29.067  -8.572 -42.372  0.00  0.00    +0.000 C 
ATOM      8  C9  UNL     1      29.479 -10.011 -42.691  0.00  0.00    +0.000 C 
ATOM      9  C10 UNL     1      29.953 -10.677 -41.381  0.00  0.00    +0.000 C 
ATOM     10  C11 UNL     1      30.742  -9.641 -40.553  0.00  0.00    +0.000 C 
BRANCH   9  11
ATOM     11  O11 UNL     1      28.836 -11.095 -40.637  0.00  0.00    +0.000 OA
ATOM     12  H20 UNL     1      28.447 -11.873 -41.115  0.00  0.00    +0.000 HD
ENDBRANCH   9  11
BRANCH   8  13
ATOM     13  O10 UNL     1      30.530 -10.016 -43.623  0.00  0.00    +0.000 OA
ATOM     14  H18 UNL     1      31.112 -10.789 -43.394  0.00  0.00    +0.000 HD
ENDBRANCH   8  13
BRANCH  10  15
ATOM     15  C12 UNL     1      32.256  -9.699 -40.804  0.00  0.00    +0.000 C 
BRANCH  15  16
ATOM     16  O12 UNL     1      32.586 -10.810 -41.594  0.00  0.00    +0.000 OA
ATOM     17  H24 UNL     1      32.973 -11.490 -40.983  0.00  0.00    +0.000 HD
ENDBRANCH  15  16
ENDBRANCH  10  15
ENDBRANCH   5   6
ENDBRANCH   2   5
ENDBRANCH   1   2
BRANCH   1  18
ATOM     18  C2  UNL     1      27.356  -9.011 -36.706  0.00  0.00    +0.000 C 
BRANCH  18  19
ATOM     19  O5  UNL     1      27.336 -10.412 -36.563  0.00  0.00    +0.000 OA
ATOM     20  H3  UNL     1      26.944 -10.640 -35.683  0.00  0.00    +0.000 HD
ENDBRANCH  18  19
BRANCH  18  21
ATOM     21  C3  UNL     1      26.138  -8.313 -36.026  0.00  0.00    +0.000 C 
BRANCH  21  22
ATOM     22  O6  UNL     1      24.932  -8.905 -36.447  0.00  0.00    +0.000 OA
ATOM     23  H5  UNL     1      24.977  -9.000 -37.434  0.00  0.00    +0.000 HD
ENDBRANCH  21  22
BRANCH  21  24
ATOM     24  C4  UNL     1      26.244  -8.374 -34.483  0.00  0.00    +0.000 C 
BRANCH  24  25
ATOM     25  O7  UNL     1      27.544  -8.747 -34.103  0.00  0.00    +0.000 OA
ATOM     26  H7  UNL     1      27.455  -9.531 -33.501  0.00  0.00    +0.000 HD
ENDBRANCH  24  25
BRANCH  24  27
ATOM     27  C5  UNL     1      25.219  -9.342 -33.871  0.00  0.00    +0.000 C 
BRANCH  27  28
ATOM     28  O8  UNL     1      25.470 -10.657 -34.285  0.00  0.00    +0.000 OA
ATOM     29  H10 UNL     1      24.601 -11.020 -34.596  0.00  0.00    +0.000 HD
ENDBRANCH  27  28
ENDBRANCH  24  27
ENDBRANCH  21  24
ENDBRANCH  18  21
ENDBRANCH   1  18
BRANCH   1  30
ATOM     30  O4  UNL     1      27.203  -9.661 -39.026  0.00  0.00    +0.000 OA
BRANCH  30  32
ATOM     31  O1  UNL     1      26.146  -7.786 -40.530  0.00  0.00    +0.000 OA
ATOM     32  S1  UNL     1      25.914  -9.183 -40.023  0.00  0.00    +0.000 S 
ATOM     33  O2  UNL     1      24.615  -9.238 -39.267  0.00  0.00    +0.000 OA
ATOM     34  O3  UNL     1      25.826 -10.229 -41.332  0.00  0.00    +0.000 OA
ENDBRANCH  30  32
ENDBRANCH   1  30
TORSDOF 18
ENDMDL
MODEL 8
REMARK VINA RESULT:    -3.951      2.793      6.670
REMARK INTER + INTRA:         -10.416
REMARK INTER:                  -8.519
REMARK INTRA:                  -1.896
REMARK UNBOUND:                -3.231
REMARK  Name = resultss/4CJN/ligands/lig_119_t0.pdb
REMARK  18 active torsions:
REMARK  status: ('A' for Active; 'I' for Inactive)
REMARK    1  A    between atoms: S1_2  and  O4_5
REMARK    2  A    between atoms: O4_5  and  C1_6
REMARK    3  A    between atoms: C1_6  and  C2_7
REMARK    4  A    between atoms: C1_6  and  C6_15
REMARK    5  A    between atoms: C2_7  and  O5_8
REMARK    6  A    between atoms: C2_7  and  C3_9
REMARK    7  A    between atoms: C3_9  and  O6_10
REMARK    8  A    between atoms: C3_9  and  C4_11
REMARK    9  A    between atoms: C4_11  and  O7_12
REMARK   10  A    between atoms: C4_11  and  C5_13
REMARK   11  A    between atoms: C5_13  and  O8_14
REMARK   12  A    between atoms: C6_15  and  O9_16
REMARK   13  A    between atoms: C6_15  and  C7_17
REMARK   14  A    between atoms: C7_17  and  S2_18
REMARK   15  A    between atoms: C9_20  and  O10_21
REMARK   16  A    between atoms: C10_22  and  O11_23
REMARK   17  A    between atoms: C11_24  and  C12_25
REMARK   18  A    between atoms: C12_25  and  O12_26
REMARK                            x       y       z     vdW  Elec       q    Type
REMARK                         _______ _______ _______ _____ _____    ______ ____
ROOT
ATOM      1  C1  UNL     1      27.335  -9.094 -37.669  0.00  0.00    +0.000 C 
ENDROOT
BRANCH   1   2
ATOM      2  C6  UNL     1      26.511  -8.006 -38.403  0.00  0.00    +0.000 C 
BRANCH   2   3
ATOM      3  O9  UNL     1      25.722  -7.299 -37.480  0.00  0.00    +0.000 OA
ATOM      4  H12 UNL     1      24.772  -7.447 -37.731  0.00  0.00    +0.000 HD
ENDBRANCH   2   3
BRANCH   2   5
ATOM      5  C7  UNL     1      25.592  -8.642 -39.461  0.00  0.00    +0.000 C 
BRANCH   5   6
ATOM      6  S2  UNL     1      25.964  -8.017 -41.091  0.00  0.00    +0.000 S 
ATOM      7  C8  UNL     1      24.568  -7.167 -41.763  0.00  0.00    +0.000 C 
ATOM      8  C9  UNL     1      24.381  -7.728 -43.174  0.00  0.00    +0.000 C 
ATOM      9  C10 UNL     1      24.832  -9.205 -43.168  0.00  0.00    +0.000 C 
ATOM     10  C11 UNL     1      26.076  -9.342 -42.265  0.00  0.00    +0.000 C 
BRANCH   9  11
ATOM     11  O11 UNL     1      23.803 -10.008 -42.646  0.00  0.00    +0.000 OA
ATOM     12  H20 UNL     1      23.056  -9.981 -43.300  0.00  0.00    +0.000 HD
ENDBRANCH   9  11
BRANCH   8  13
ATOM     13  O10 UNL     1      25.166  -7.006 -44.088  0.00  0.00    +0.000 OA
ATOM     14  H18 UNL     1      26.112  -7.119 -43.806  0.00  0.00    +0.000 HD
ENDBRANCH   8  13
BRANCH  10  15
ATOM     15  C12 UNL     1      27.397  -9.232 -43.042  0.00  0.00    +0.000 C 
BRANCH  15  16
ATOM     16  O12 UNL     1      27.927  -7.938 -42.939  0.00  0.00    +0.000 OA
ATOM     17  H24 UNL     1      28.722  -8.002 -42.349  0.00  0.00    +0.000 HD
ENDBRANCH  15  16
ENDBRANCH  10  15
ENDBRANCH   5   6
ENDBRANCH   2   5
ENDBRANCH   1   2
BRANCH   1  18
ATOM     18  C2  UNL     1      28.094 -10.078 -38.608  0.00  0.00    +0.000 C 
BRANCH  18  19
ATOM     19  O5  UNL     1      27.985 -11.407 -38.156  0.00  0.00    +0.000 OA
ATOM     20  H3  UNL     1      28.845 -11.680 -37.749  0.00  0.00    +0.000 HD
ENDBRANCH  18  19
BRANCH  18  21
ATOM     21  C3  UNL     1      29.562  -9.667 -38.939  0.00  0.00    +0.000 C 
BRANCH  21  22
ATOM     22  O6  UNL     1      30.472 -10.459 -38.213  0.00  0.00    +0.000 OA
ATOM     23  H5  UNL     1      29.955 -10.944 -37.519  0.00  0.00    +0.000 HD
ENDBRANCH  21  22
BRANCH  21  24
ATOM     24  C4  UNL     1      29.852  -9.788 -40.454  0.00  0.00    +0.000 C 
BRANCH  24  25
ATOM     25  O7  UNL     1      29.696 -11.121 -40.870  0.00  0.00    +0.000 OA
ATOM     26  H7  UNL     1      29.843 -11.692 -40.072  0.00  0.00    +0.000 HD
ENDBRANCH  24  25
BRANCH  24  27
ATOM     27  C5  UNL     1      31.258  -9.284 -40.817  0.00  0.00    +0.000 C 
BRANCH  27  28
ATOM     28  O8  UNL     1      32.226 -10.245 -40.497  0.00  0.00    +0.000 OA
ATOM     29  H10 UNL     1      32.077 -11.005 -41.118  0.00  0.00    +0.000 HD
ENDBRANCH  27  28
ENDBRANCH  24  27
ENDBRANCH  21  24
ENDBRANCH  18  21
ENDBRANCH   1  18
BRANCH   1  30
ATOM     30  O4  UNL     1      26.454  -9.846 -36.852  0.00  0.00    +0.000 OA
BRANCH  30  32
ATOM     31  O1  UNL     1      26.603  -8.209 -34.804  0.00  0.00    +0.000 OA
ATOM     32  S1  UNL     1      26.835  -9.638 -35.210  0.00  0.00    +0.000 S 
ATOM     33  O2  UNL     1      28.268 -10.013 -34.951  0.00  0.00    +0.000 OA
ATOM     34  O3  UNL     1      25.839 -10.631 -34.294  0.00  0.00    +0.000 OA
ENDBRANCH  30  32
ENDBRANCH   1  30
TORSDOF 18
ENDMDL
MODEL 9
REMARK VINA RESULT:    -3.834      3.699      6.433
REMARK INTER + INTRA:         -10.203
REMARK INTER:                  -7.859
REMARK INTRA:                  -2.345
REMARK UNBOUND:                -3.231
REMARK  Name = resultss/4CJN/ligands/lig_119_t0.pdb
REMARK  18 active torsions:
REMARK  status: ('A' for Active; 'I' for Inactive)
REMARK    1  A    between atoms: S1_2  and  O4_5
REMARK    2  A    between atoms: O4_5  and  C1_6
REMARK    3  A    between atoms: C1_6  and  C2_7
REMARK    4  A    between atoms: C1_6  and  C6_15
REMARK    5  A    between atoms: C2_7  and  O5_8
REMARK    6  A    between atoms: C2_7  and  C3_9
REMARK    7  A    between atoms: C3_9  and  O6_10
REMARK    8  A    between atoms: C3_9  and  C4_11
REMARK    9  A    between atoms: C4_11  and  O7_12
REMARK   10  A    between atoms: C4_11  and  C5_13
REMARK   11  A    between atoms: C5_13  and  O8_14
REMARK   12  A    between atoms: C6_15  and  O9_16
REMARK   13  A    between atoms: C6_15  and  C7_17
REMARK   14  A    between atoms: C7_17  and  S2_18
REMARK   15  A    between atoms: C9_20  and  O10_21
REMARK   16  A    between atoms: C10_22  and  O11_23
REMARK   17  A    between atoms: C11_24  and  C12_25
REMARK   18  A    between atoms: C12_25  and  O12_26
REMARK                            x       y       z     vdW  Elec       q    Type
REMARK                         _______ _______ _______ _____ _____    ______ ____
ROOT
ATOM      1  C1  UNL     1      27.658  -9.188 -35.813  0.00  0.00    +0.000 C 
ENDROOT
BRANCH   1   2
ATOM      2  C6  UNL     1      29.016  -9.136 -35.069  0.00  0.00    +0.000 C 
BRANCH   2   3
ATOM      3  O9  UNL     1      30.014  -9.742 -35.852  0.00  0.00    +0.000 OA
ATOM      4  H12 UNL     1      29.558 -10.350 -36.491  0.00  0.00    +0.000 HD
ENDBRANCH   2   3
BRANCH   2   5
ATOM      5  C7  UNL     1      28.925  -9.872 -33.721  0.00  0.00    +0.000 C 
BRANCH   5   6
ATOM      6  S2  UNL     1      30.222  -9.342 -32.615  0.00  0.00    +0.000 S 
ATOM      7  C8  UNL     1      31.017  -7.893 -33.239  0.00  0.00    +0.000 C 
ATOM      8  C9  UNL     1      32.518  -8.178 -33.164  0.00  0.00    +0.000 C 
ATOM      9  C10 UNL     1      32.732  -9.691 -33.381  0.00  0.00    +0.000 C 
ATOM     10  C11 UNL     1      31.597 -10.461 -32.672  0.00  0.00    +0.000 C 
BRANCH   9  11
ATOM     11  O11 UNL     1      32.683  -9.979 -34.756  0.00  0.00    +0.000 OA
ATOM     12  H20 UNL     1      33.620 -10.119 -35.054  0.00  0.00    +0.000 HD
ENDBRANCH   9  11
BRANCH   8  13
ATOM     13  O10 UNL     1      33.015  -7.815 -31.901  0.00  0.00    +0.000 OA
ATOM     14  H18 UNL     1      32.726  -6.877 -31.738  0.00  0.00    +0.000 HD
ENDBRANCH   8  13
BRANCH  10  15
ATOM     15  C12 UNL     1      31.967 -10.897 -31.246  0.00  0.00    +0.000 C 
BRANCH  15  16
ATOM     16  O12 UNL     1      33.319 -10.634 -30.982  0.00  0.00    +0.000 OA
ATOM     17  H24 UNL     1      33.374  -9.684 -30.698  0.00  0.00    +0.000 HD
ENDBRANCH  15  16
ENDBRANCH  10  15
ENDBRANCH   5   6
ENDBRANCH   2   5
ENDBRANCH   1   2
BRANCH   1  18
ATOM     18  C2  UNL     1      26.407  -9.197 -34.884  0.00  0.00    +0.000 C 
BRANCH  18  19
ATOM     19  O5  UNL     1      25.838 -10.483 -34.801  0.00  0.00    +0.000 OA
ATOM     20  H3  UNL     1      25.255 -10.627 -35.587  0.00  0.00    +0.000 HD
ENDBRANCH  18  19
BRANCH  18  21
ATOM     21  C3  UNL     1      25.356  -8.085 -35.189  0.00  0.00    +0.000 C 
BRANCH  21  22
ATOM     22  O6  UNL     1      24.466  -8.510 -36.193  0.00  0.00    +0.000 OA
ATOM     23  H5  UNL     1      24.093  -9.384 -35.909  0.00  0.00    +0.000 HD
ENDBRANCH  21  22
BRANCH  21  24
ATOM     24  C4  UNL     1      24.567  -7.695 -33.916  0.00  0.00    +0.000 C 
BRANCH  24  25
ATOM     25  O7  UNL     1      25.062  -8.400 -32.806  0.00  0.00    +0.000 OA
ATOM     26  H7  UNL     1      24.339  -8.412 -32.126  0.00  0.00    +0.000 HD
ENDBRANCH  24  25
BRANCH  24  27
ATOM     27  C5  UNL     1      23.058  -7.950 -34.070  0.00  0.00    +0.000 C 
BRANCH  27  28
ATOM     28  O8  UNL     1      22.787  -9.324 -34.080  0.00  0.00    +0.000 OA
ATOM     29  H10 UNL     1      21.799  -9.411 -34.120  0.00  0.00    +0.000 HD
ENDBRANCH  27  28
ENDBRANCH  24  27
ENDBRANCH  21  24
ENDBRANCH  18  21
ENDBRANCH   1  18
BRANCH   1  30
ATOM     30  O4  UNL     1      27.630 -10.359 -36.612  0.00  0.00    +0.000 OA
BRANCH  30  32
ATOM     31  O1  UNL     1      28.825  -9.216 -38.652  0.00  0.00    +0.000 OA
ATOM     32  S1  UNL     1      27.577  -9.958 -38.262  0.00  0.00    +0.000 S 
ATOM     33  O2  UNL     1      26.370  -9.112 -38.559  0.00  0.00    +0.000 OA
ATOM     34  O3  UNL     1      27.483 -11.374 -39.159  0.00  0.00    +0.000 OA
ENDBRANCH  30  32
ENDBRANCH   1  30
TORSDOF 18
ENDMDL
