MODEL 1
REMARK VINA RESULT:    -7.301      0.000      0.000
REMARK INTER + INTRA:          -9.394
REMARK INTER:                  -9.009
REMARK INTRA:                  -0.385
REMARK UNBOUND:                -0.385
REMARK  Name = resultss/4CJN/ligands/lig_180_t0.pdb
REMARK  4 active torsions:
REMARK  status: ('A' for Active; 'I' for Inactive)
REMARK    1  A    between atoms: C1_2  and  C9_13
REMARK    2  A    between atoms: N1_3  and  N2_4
REMARK    3  A    between atoms: C2_5  and  C3_6
REMARK    4  A    between atoms: C12_16  and  C13_17
REMARK                            x       y       z     vdW  Elec       q    Type
REMARK                         _______ _______ _______ _____ _____    ______ ____
ROOT
ATOM      1  C9  UNL     1      29.954 -10.016 -40.210  0.00  0.00    +0.000 A 
ATOM      2  C10 UNL     1      31.296  -9.672 -40.449  0.00  0.00    +0.000 A 
ATOM      3  C11 UNL     1      31.973 -10.182 -41.561  0.00  0.00    +0.000 A 
ATOM      4  C12 UNL     1      31.324 -11.041 -42.463  0.00  0.00    +0.000 A 
ATOM      5  C20 UNL     1      29.978 -11.376 -42.231  0.00  0.00    +0.000 A 
ATOM      6  C21 UNL     1      29.302 -10.865 -41.120  0.00  0.00    +0.000 A 
ENDROOT
BRANCH   4   7
ATOM      7  C13 UNL     1      32.051 -11.575 -43.638  0.00  0.00    +0.000 A 
ATOM      8  N3  UNL     1      31.800 -12.798 -44.174  0.00  0.00    +0.000 NA
ATOM      9  C14 UNL     1      32.602 -13.047 -45.241  0.00  0.00    +0.000 A 
ATOM     10  C15 UNL     1      32.572 -14.222 -45.993  0.00  0.00    +0.000 A 
ATOM     11  C16 UNL     1      33.459 -14.353 -47.077  0.00  0.00    +0.000 A 
ATOM     12  C17 UNL     1      34.358 -13.315 -47.393  0.00  0.00    +0.000 A 
ATOM     13  C18 UNL     1      34.380 -12.138 -46.628  0.00  0.00    +0.000 A 
ATOM     14  C19 UNL     1      33.491 -12.034 -45.560  0.00  0.00    +0.000 A 
ATOM     15  S1  UNL     1      33.285 -10.767 -44.483  0.00  0.00    +0.000 S 
ENDBRANCH   4   7
BRANCH   1  17
ATOM     16  O1  UNL     1      29.740  -9.560 -37.892  0.00  0.00    +0.000 OA
ATOM     17  C1  UNL     1      29.220  -9.480 -39.039  0.00  0.00    +0.000 C 
ATOM     18  N1  UNL     1      27.939  -8.854 -39.183  0.00  0.00    +0.000 N 
ATOM     19  H1  UNL     1      27.569  -8.630 -40.135  0.00  0.00    +0.000 HD
BRANCH  18  20
ATOM     20  N2  UNL     1      27.211  -8.478 -38.043  0.00  0.00    +0.000 NA
ATOM     21  C2  UNL     1      26.341  -9.268 -37.497  0.00  0.00    +0.000 C 
BRANCH  21  22
ATOM     22  C3  UNL     1      25.583  -8.855 -36.297  0.00  0.00    +0.000 A 
ATOM     23  C4  UNL     1      24.428  -8.069 -36.448  0.00  0.00    +0.000 A 
ATOM     24  C5  UNL     1      23.697  -7.667 -35.326  0.00  0.00    +0.000 A 
ATOM     25  C6  UNL     1      24.110  -8.045 -34.045  0.00  0.00    +0.000 A 
ATOM     26 CL1  UNL     1      23.189  -7.540 -32.640  0.00  0.00    +0.000 Cl
ATOM     27  C7  UNL     1      25.257  -8.828 -33.886  0.00  0.00    +0.000 A 
ATOM     28  C8  UNL     1      25.993  -9.232 -35.005  0.00  0.00    +0.000 A 
ENDBRANCH  21  22
ENDBRANCH  18  20
ENDBRANCH   1  17
TORSDOF 4
ENDMDL
MODEL 2
REMARK VINA RESULT:    -6.044      4.721     11.855
REMARK INTER + INTRA:          -7.842
REMARK INTER:                  -8.447
REMARK INTRA:                   0.605
REMARK UNBOUND:                -0.385
REMARK  Name = resultss/4CJN/ligands/lig_180_t0.pdb
REMARK  4 active torsions:
REMARK  status: ('A' for Active; 'I' for Inactive)
REMARK    1  A    between atoms: C1_2  and  C9_13
REMARK    2  A    between atoms: N1_3  and  N2_4
REMARK    3  A    between atoms: C2_5  and  C3_6
REMARK    4  A    between atoms: C12_16  and  C13_17
REMARK                            x       y       z     vdW  Elec       q    Type
REMARK                         _______ _______ _______ _____ _____    ______ ____
ROOT
ATOM      1  C9  UNL     1      28.412  -9.429 -39.579  0.00  0.00    +0.000 A 
ATOM      2  C10 UNL     1      27.251  -8.673 -39.816  0.00  0.00    +0.000 A 
ATOM      3  C11 UNL     1      26.429  -8.283 -38.754  0.00  0.00    +0.000 A 
ATOM      4  C12 UNL     1      26.752  -8.633 -37.432  0.00  0.00    +0.000 A 
ATOM      5  C20 UNL     1      27.919  -9.379 -37.195  0.00  0.00    +0.000 A 
ATOM      6  C21 UNL     1      28.741  -9.768 -38.256  0.00  0.00    +0.000 A 
ENDROOT
BRANCH   4   7
ATOM      7  C13 UNL     1      25.873  -8.215 -36.316  0.00  0.00    +0.000 A 
ATOM      8  N3  UNL     1      25.396  -9.079 -35.383  0.00  0.00    +0.000 NA
ATOM      9  C14 UNL     1      24.615  -8.444 -34.470  0.00  0.00    +0.000 A 
ATOM     10  C15 UNL     1      23.987  -9.075 -33.394  0.00  0.00    +0.000 A 
ATOM     11  C16 UNL     1      23.205  -8.299 -32.521  0.00  0.00    +0.000 A 
ATOM     12  C17 UNL     1      23.061  -6.913 -32.732  0.00  0.00    +0.000 A 
ATOM     13  C18 UNL     1      23.697  -6.290 -33.818  0.00  0.00    +0.000 A 
ATOM     14  C19 UNL     1      24.466  -7.082 -34.667  0.00  0.00    +0.000 A 
ATOM     15  S1  UNL     1      25.333  -6.629 -36.028  0.00  0.00    +0.000 S 
ENDBRANCH   4   7
BRANCH   1  17
ATOM     16  O1  UNL     1      28.828  -9.926 -41.862  0.00  0.00    +0.000 OA
ATOM     17  C1  UNL     1      29.298  -9.846 -40.693  0.00  0.00    +0.000 C 
ATOM     18  N1  UNL     1      30.683 -10.142 -40.476  0.00  0.00    +0.000 N 
ATOM     19  H1  UNL     1      31.127  -9.923 -39.555  0.00  0.00    +0.000 HD
BRANCH  18  20
ATOM     20  N2  UNL     1      31.461 -10.661 -41.522  0.00  0.00    +0.000 NA
ATOM     21  C2  UNL     1      30.949 -10.946 -42.679  0.00  0.00    +0.000 C 
BRANCH  21  22
ATOM     22  C3  UNL     1      31.783 -11.493 -43.768  0.00  0.00    +0.000 A 
ATOM     23  C4  UNL     1      31.823 -12.881 -43.976  0.00  0.00    +0.000 A 
ATOM     24  C5  UNL     1      32.606 -13.420 -45.002  0.00  0.00    +0.000 A 
ATOM     25  C6  UNL     1      33.355 -12.578 -45.829  0.00  0.00    +0.000 A 
ATOM     26 CL1  UNL     1      34.336 -13.257 -47.115  0.00  0.00    +0.000 Cl
ATOM     27  C7  UNL     1      33.321 -11.195 -45.630  0.00  0.00    +0.000 A 
ATOM     28  C8  UNL     1      32.540 -10.652 -44.605  0.00  0.00    +0.000 A 
ENDBRANCH  21  22
ENDBRANCH  18  20
ENDBRANCH   1  17
TORSDOF 4
ENDMDL
MODEL 3
REMARK VINA RESULT:    -5.960      6.872     10.071
REMARK INTER + INTRA:          -7.739
REMARK INTER:                  -7.326
REMARK INTRA:                  -0.413
REMARK UNBOUND:                -0.385
REMARK  Name = resultss/4CJN/ligands/lig_180_t0.pdb
REMARK  4 active torsions:
REMARK  status: ('A' for Active; 'I' for Inactive)
REMARK    1  A    between atoms: C1_2  and  C9_13
REMARK    2  A    between atoms: N1_3  and  N2_4
REMARK    3  A    between atoms: C2_5  and  C3_6
REMARK    4  A    between atoms: C12_16  and  C13_17
REMARK                            x       y       z     vdW  Elec       q    Type
REMARK                         _______ _______ _______ _____ _____    ______ ____
ROOT
ATOM      1  C9  UNL     1      25.498  -9.277 -40.552  0.00  0.00    +0.000 A 
ATOM      2  C10 UNL     1      26.590 -10.162 -40.559  0.00  0.00    +0.000 A 
ATOM      3  C11 UNL     1      27.472 -10.212 -39.475  0.00  0.00    +0.000 A 
ATOM      4  C12 UNL     1      27.277  -9.385 -38.355  0.00  0.00    +0.000 A 
ATOM      5  C20 UNL     1      26.177  -8.509 -38.343  0.00  0.00    +0.000 A 
ATOM      6  C21 UNL     1      25.297  -8.460 -39.427  0.00  0.00    +0.000 A 
ENDROOT
BRANCH   4   7
ATOM      7  C13 UNL     1      28.217  -9.446 -37.212  0.00  0.00    +0.000 A 
ATOM      8  N3  UNL     1      27.810  -9.471 -35.917  0.00  0.00    +0.000 NA
ATOM      9  C14 UNL     1      28.866  -9.527 -35.065  0.00  0.00    +0.000 A 
ATOM     10  C15 UNL     1      28.757  -9.563 -33.673  0.00  0.00    +0.000 A 
ATOM     11  C16 UNL     1      29.933  -9.622 -32.905  0.00  0.00    +0.000 A 
ATOM     12  C17 UNL     1      31.195  -9.644 -33.533  0.00  0.00    +0.000 A 
ATOM     13  C18 UNL     1      31.292  -9.607 -34.933  0.00  0.00    +0.000 A 
ATOM     14  C19 UNL     1      30.111  -9.549 -35.670  0.00  0.00    +0.000 A 
ATOM     15  S1  UNL     1      29.912  -9.496 -37.333  0.00  0.00    +0.000 S 
ENDBRANCH   4   7
BRANCH   1  17
ATOM     16  O1  UNL     1      24.663 -10.046 -42.635  0.00  0.00    +0.000 OA
ATOM     17  C1  UNL     1      24.552  -9.216 -41.692  0.00  0.00    +0.000 C 
ATOM     18  N1  UNL     1      23.498  -8.245 -41.737  0.00  0.00    +0.000 N 
ATOM     19  H1  UNL     1      23.287  -7.661 -40.896  0.00  0.00    +0.000 HD
BRANCH  18  20
ATOM     20  N2  UNL     1      22.704  -8.126 -42.888  0.00  0.00    +0.000 NA
ATOM     21  C2  UNL     1      22.842  -7.136 -43.714  0.00  0.00    +0.000 C 
BRANCH  21  22
ATOM     22  C3  UNL     1      21.997  -7.026 -44.920  0.00  0.00    +0.000 A 
ATOM     23  C4  UNL     1      22.554  -7.301 -46.180  0.00  0.00    +0.000 A 
ATOM     24  C5  UNL     1      21.772  -7.204 -47.335  0.00  0.00    +0.000 A 
ATOM     25  C6  UNL     1      20.427  -6.832 -47.243  0.00  0.00    +0.000 A 
ATOM     26 CL1  UNL     1      19.448  -6.712 -48.694  0.00  0.00    +0.000 Cl
ATOM     27  C7  UNL     1      19.864  -6.558 -45.994  0.00  0.00    +0.000 A 
ATOM     28  C8  UNL     1      20.642  -6.653 -44.836  0.00  0.00    +0.000 A 
ENDBRANCH  21  22
ENDBRANCH  18  20
ENDBRANCH   1  17
TORSDOF 4
ENDMDL
MODEL 4
REMARK VINA RESULT:    -5.755      6.340      7.242
REMARK INTER + INTRA:          -7.487
REMARK INTER:                  -7.095
REMARK INTRA:                  -0.392
REMARK UNBOUND:                -0.385
REMARK  Name = resultss/4CJN/ligands/lig_180_t0.pdb
REMARK  4 active torsions:
REMARK  status: ('A' for Active; 'I' for Inactive)
REMARK    1  A    between atoms: C1_2  and  C9_13
REMARK    2  A    between atoms: N1_3  and  N2_4
REMARK    3  A    between atoms: C2_5  and  C3_6
REMARK    4  A    between atoms: C12_16  and  C13_17
REMARK                            x       y       z     vdW  Elec       q    Type
REMARK                         _______ _______ _______ _____ _____    ______ ____
ROOT
ATOM      1  C9  UNL     1      25.578  -8.934 -42.221  0.00  0.00    +0.000 A 
ATOM      2  C10 UNL     1      26.446  -8.531 -43.251  0.00  0.00    +0.000 A 
ATOM      3  C11 UNL     1      27.787  -8.924 -43.245  0.00  0.00    +0.000 A 
ATOM      4  C12 UNL     1      28.291  -9.735 -42.214  0.00  0.00    +0.000 A 
ATOM      5  C20 UNL     1      27.421 -10.148 -41.190  0.00  0.00    +0.000 A 
ATOM      6  C21 UNL     1      26.080  -9.755 -41.197  0.00  0.00    +0.000 A 
ENDROOT
BRANCH   4   7
ATOM      7  C13 UNL     1      29.715 -10.145 -42.217  0.00  0.00    +0.000 A 
ATOM      8  N3  UNL     1      30.185 -11.186 -42.952  0.00  0.00    +0.000 NA
ATOM      9  C14 UNL     1      31.522 -11.352 -42.778  0.00  0.00    +0.000 A 
ATOM     10  C15 UNL     1      32.282 -12.343 -43.404  0.00  0.00    +0.000 A 
ATOM     11  C16 UNL     1      33.661 -12.405 -43.137  0.00  0.00    +0.000 A 
ATOM     12  C17 UNL     1      34.259 -11.483 -42.254  0.00  0.00    +0.000 A 
ATOM     13  C18 UNL     1      33.484 -10.492 -41.630  0.00  0.00    +0.000 A 
ATOM     14  C19 UNL     1      32.121 -10.453 -41.913  0.00  0.00    +0.000 A 
ATOM     15  S1  UNL     1      30.956  -9.399 -41.329  0.00  0.00    +0.000 S 
ENDBRANCH   4   7
BRANCH   1  17
ATOM     16  O1  UNL     1      23.526  -8.478 -41.121  0.00  0.00    +0.000 OA
ATOM     17  C1  UNL     1      24.152  -8.530 -42.216  0.00  0.00    +0.000 C 
ATOM     18  N1  UNL     1      23.471  -8.178 -43.427  0.00  0.00    +0.000 N 
ATOM     19  H1  UNL     1      24.009  -8.055 -44.314  0.00  0.00    +0.000 HD
BRANCH  18  20
ATOM     20  N2  UNL     1      22.089  -7.931 -43.407  0.00  0.00    +0.000 NA
ATOM     21  C2  UNL     1      21.577  -6.867 -43.945  0.00  0.00    +0.000 C 
BRANCH  21  22
ATOM     22  C3  UNL     1      20.121  -6.623 -43.914  0.00  0.00    +0.000 A 
ATOM     23  C4  UNL     1      19.384  -6.692 -45.108  0.00  0.00    +0.000 A 
ATOM     24  C5  UNL     1      18.005  -6.464 -45.101  0.00  0.00    +0.000 A 
ATOM     25  C6  UNL     1      17.348  -6.167 -43.903  0.00  0.00    +0.000 A 
ATOM     26 CL1  UNL     1      15.616  -5.883 -43.898  0.00  0.00    +0.000 Cl
ATOM     27  C7  UNL     1      18.072  -6.098 -42.710  0.00  0.00    +0.000 A 
ATOM     28  C8  UNL     1      19.452  -6.325 -42.712  0.00  0.00    +0.000 A 
ENDBRANCH  21  22
ENDBRANCH  18  20
ENDBRANCH   1  17
TORSDOF 4
ENDMDL
MODEL 5
REMARK VINA RESULT:    -5.738      7.637      9.423
REMARK INTER + INTRA:          -7.465
REMARK INTER:                  -7.081
REMARK INTRA:                  -0.384
REMARK UNBOUND:                -0.385
REMARK  Name = resultss/4CJN/ligands/lig_180_t0.pdb
REMARK  4 active torsions:
REMARK  status: ('A' for Active; 'I' for Inactive)
REMARK    1  A    between atoms: C1_2  and  C9_13
REMARK    2  A    between atoms: N1_3  and  N2_4
REMARK    3  A    between atoms: C2_5  and  C3_6
REMARK    4  A    between atoms: C12_16  and  C13_17
REMARK                            x       y       z     vdW  Elec       q    Type
REMARK                         _______ _______ _______ _____ _____    ______ ____
ROOT
ATOM      1  C9  UNL     1      24.105  -7.312 -41.473  0.00  0.00    +0.000 A 
ATOM      2  C10 UNL     1      24.796  -7.477 -42.685  0.00  0.00    +0.000 A 
ATOM      3  C11 UNL     1      24.125  -7.364 -43.907  0.00  0.00    +0.000 A 
ATOM      4  C12 UNL     1      22.750  -7.077 -43.945  0.00  0.00    +0.000 A 
ATOM      5  C20 UNL     1      22.061  -6.900 -42.732  0.00  0.00    +0.000 A 
ATOM      6  C21 UNL     1      22.733  -7.012 -41.512  0.00  0.00    +0.000 A 
ENDROOT
BRANCH   4   7
ATOM      7  C13 UNL     1      22.050  -6.960 -45.244  0.00  0.00    +0.000 A 
ATOM      8  N3  UNL     1      20.696  -6.973 -45.362  0.00  0.00    +0.000 NA
ATOM      9  C14 UNL     1      20.310  -6.851 -46.658  0.00  0.00    +0.000 A 
ATOM     10  C15 UNL     1      18.981  -6.833 -47.087  0.00  0.00    +0.000 A 
ATOM     11  C16 UNL     1      18.717  -6.700 -48.461  0.00  0.00    +0.000 A 
ATOM     12  C17 UNL     1      19.776  -6.588 -49.385  0.00  0.00    +0.000 A 
ATOM     13  C18 UNL     1      21.108  -6.608 -48.941  0.00  0.00    +0.000 A 
ATOM     14  C19 UNL     1      21.342  -6.740 -47.575  0.00  0.00    +0.000 A 
ATOM     15  S1  UNL     1      22.805  -6.794 -46.758  0.00  0.00    +0.000 S 
ENDBRANCH   4   7
BRANCH   1  17
ATOM     16  O1  UNL     1      25.554  -6.483 -39.786  0.00  0.00    +0.000 OA
ATOM     17  C1  UNL     1      24.803  -7.423 -40.169  0.00  0.00    +0.000 C 
ATOM     18  N1  UNL     1      24.629  -8.566 -39.323  0.00  0.00    +0.000 N 
ATOM     19  H1  UNL     1      23.890  -9.272 -39.542  0.00  0.00    +0.000 HD
BRANCH  18  20
ATOM     20  N2  UNL     1      25.404  -8.703 -38.161  0.00  0.00    +0.000 NA
ATOM     21  C2  UNL     1      26.544  -9.322 -38.169  0.00  0.00    +0.000 C 
BRANCH  21  22
ATOM     22  C3  UNL     1      27.346  -9.456 -36.936  0.00  0.00    +0.000 A 
ATOM     23  C4  UNL     1      28.744  -9.558 -37.031  0.00  0.00    +0.000 A 
ATOM     24  C5  UNL     1      29.523  -9.686 -35.877  0.00  0.00    +0.000 A 
ATOM     25  C6  UNL     1      28.914  -9.713 -34.618  0.00  0.00    +0.000 A 
ATOM     26 CL1  UNL     1      29.894  -9.874 -33.172  0.00  0.00    +0.000 Cl
ATOM     27  C7  UNL     1      27.524  -9.611 -34.514  0.00  0.00    +0.000 A 
ATOM     28  C8  UNL     1      26.741  -9.484 -35.666  0.00  0.00    +0.000 A 
ENDBRANCH  21  22
ENDBRANCH  18  20
ENDBRANCH   1  17
TORSDOF 4
ENDMDL
MODEL 6
REMARK VINA RESULT:    -5.645      7.687     10.119
REMARK INTER + INTRA:          -7.351
REMARK INTER:                  -6.949
REMARK INTRA:                  -0.402
REMARK UNBOUND:                -0.385
REMARK  Name = resultss/4CJN/ligands/lig_180_t0.pdb
REMARK  4 active torsions:
REMARK  status: ('A' for Active; 'I' for Inactive)
REMARK    1  A    between atoms: C1_2  and  C9_13
REMARK    2  A    between atoms: N1_3  and  N2_4
REMARK    3  A    between atoms: C2_5  and  C3_6
REMARK    4  A    between atoms: C12_16  and  C13_17
REMARK                            x       y       z     vdW  Elec       q    Type
REMARK                         _______ _______ _______ _____ _____    ______ ____
ROOT
ATOM      1  C9  UNL     1      23.618  -7.347 -40.926  0.00  0.00    +0.000 A 
ATOM      2  C10 UNL     1      22.673  -6.306 -40.905  0.00  0.00    +0.000 A 
ATOM      3  C11 UNL     1      21.728  -6.183 -41.928  0.00  0.00    +0.000 A 
ATOM      4  C12 UNL     1      21.700  -7.102 -42.991  0.00  0.00    +0.000 A 
ATOM      5  C20 UNL     1      22.637  -8.150 -43.005  0.00  0.00    +0.000 A 
ATOM      6  C21 UNL     1      23.581  -8.272 -41.982  0.00  0.00    +0.000 A 
ENDROOT
BRANCH   4   7
ATOM      7  C13 UNL     1      20.695  -6.963 -44.069  0.00  0.00    +0.000 A 
ATOM      8  N3  UNL     1      21.001  -7.072 -45.388  0.00  0.00    +0.000 NA
ATOM      9  C14 UNL     1      19.902  -6.903 -46.169  0.00  0.00    +0.000 A 
ATOM     10  C15 UNL     1      19.909  -6.961 -47.564  0.00  0.00    +0.000 A 
ATOM     11  C16 UNL     1      18.698  -6.769 -48.253  0.00  0.00    +0.000 A 
ATOM     12  C17 UNL     1      17.505  -6.523 -47.545  0.00  0.00    +0.000 A 
ATOM     13  C18 UNL     1      17.511  -6.467 -46.142  0.00  0.00    +0.000 A 
ATOM     14  C19 UNL     1      18.723  -6.661 -45.484  0.00  0.00    +0.000 A 
ATOM     15  S1  UNL     1      19.039  -6.652 -43.838  0.00  0.00    +0.000 S 
ENDBRANCH   4   7
BRANCH   1  17
ATOM     16  O1  UNL     1      25.525  -6.620 -39.715  0.00  0.00    +0.000 OA
ATOM     17  C1  UNL     1      24.623  -7.493 -39.846  0.00  0.00    +0.000 C 
ATOM     18  N1  UNL     1      24.582  -8.597 -38.932  0.00  0.00    +0.000 N 
ATOM     19  H1  UNL     1      23.754  -9.235 -38.918  0.00  0.00    +0.000 HD
BRANCH  18  20
ATOM     20  N2  UNL     1      25.622  -8.780 -38.007  0.00  0.00    +0.000 NA
ATOM     21  C2  UNL     1      25.406  -8.794 -36.729  0.00  0.00    +0.000 C 
BRANCH  21  22
ATOM     22  C3  UNL     1      26.513  -8.987 -35.770  0.00  0.00    +0.000 A 
ATOM     23  C4  UNL     1      26.385  -8.495 -34.461  0.00  0.00    +0.000 A 
ATOM     24  C5  UNL     1      27.422  -8.667 -33.538  0.00  0.00    +0.000 A 
ATOM     25  C6  UNL     1      28.593  -9.331 -33.913  0.00  0.00    +0.000 A 
ATOM     26 CL1  UNL     1      29.891  -9.546 -32.752  0.00  0.00    +0.000 Cl
ATOM     27  C7  UNL     1      28.729  -9.825 -35.213  0.00  0.00    +0.000 A 
ATOM     28  C8  UNL     1      27.695  -9.655 -36.140  0.00  0.00    +0.000 A 
ENDBRANCH  21  22
ENDBRANCH  18  20
ENDBRANCH   1  17
TORSDOF 4
ENDMDL
MODEL 7
REMARK VINA RESULT:    -5.522      5.797      7.040
REMARK INTER + INTRA:          -7.199
REMARK INTER:                  -6.807
REMARK INTRA:                  -0.391
REMARK UNBOUND:                -0.385
REMARK  Name = resultss/4CJN/ligands/lig_180_t0.pdb
REMARK  4 active torsions:
REMARK  status: ('A' for Active; 'I' for Inactive)
REMARK    1  A    between atoms: C1_2  and  C9_13
REMARK    2  A    between atoms: N1_3  and  N2_4
REMARK    3  A    between atoms: C2_5  and  C3_6
REMARK    4  A    between atoms: C12_16  and  C13_17
REMARK                            x       y       z     vdW  Elec       q    Type
REMARK                         _______ _______ _______ _____ _____    ______ ____
ROOT
ATOM      1  C9  UNL     1      28.139  -9.076 -40.442  0.00  0.00    +0.000 A 
ATOM      2  C10 UNL     1      27.623  -7.776 -40.582  0.00  0.00    +0.000 A 
ATOM      3  C11 UNL     1      27.145  -7.331 -41.819  0.00  0.00    +0.000 A 
ATOM      4  C12 UNL     1      27.164  -8.178 -42.941  0.00  0.00    +0.000 A 
ATOM      5  C20 UNL     1      27.669  -9.482 -42.797  0.00  0.00    +0.000 A 
ATOM      6  C21 UNL     1      28.146  -9.925 -41.561  0.00  0.00    +0.000 A 
ENDROOT
BRANCH   4   7
ATOM      7  C13 UNL     1      26.656  -7.696 -44.246  0.00  0.00    +0.000 A 
ATOM      8  N3  UNL     1      27.464  -7.430 -45.305  0.00  0.00    +0.000 NA
ATOM      9  C14 UNL     1      26.750  -7.003 -46.379  0.00  0.00    +0.000 A 
ATOM     10  C15 UNL     1      27.309  -6.654 -47.610  0.00  0.00    +0.000 A 
ATOM     11  C16 UNL     1      26.456  -6.228 -48.642  0.00  0.00    +0.000 A 
ATOM     12  C17 UNL     1      25.064  -6.155 -48.434  0.00  0.00    +0.000 A 
ATOM     13  C18 UNL     1      24.513  -6.507 -47.191  0.00  0.00    +0.000 A 
ATOM     14  C19 UNL     1      25.381  -6.927 -46.186  0.00  0.00    +0.000 A 
ATOM     15  S1  UNL     1      25.023  -7.406 -44.620  0.00  0.00    +0.000 S 
ENDBRANCH   4   7
BRANCH   1  17
ATOM     16  O1  UNL     1      27.840 -10.085 -38.315  0.00  0.00    +0.000 OA
ATOM     17  C1  UNL     1      28.644  -9.564 -39.136  0.00  0.00    +0.000 C 
ATOM     18  N1  UNL     1      30.033  -9.475 -38.792  0.00  0.00    +0.000 N 
ATOM     19  H1  UNL     1      30.736  -9.202 -39.516  0.00  0.00    +0.000 HD
BRANCH  18  20
ATOM     20  N2  UNL     1      30.458  -9.822 -37.500  0.00  0.00    +0.000 NA
ATOM     21  C2  UNL     1      30.677  -8.925 -36.589  0.00  0.00    +0.000 C 
BRANCH  21  22
ATOM     22  C3  UNL     1      31.125  -9.309 -35.235  0.00  0.00    +0.000 A 
ATOM     23  C4  UNL     1      30.169  -9.635 -34.258  0.00  0.00    +0.000 A 
ATOM     24  C5  UNL     1      30.571 -10.001 -32.970  0.00  0.00    +0.000 A 
ATOM     25  C6  UNL     1      31.930 -10.045 -32.645  0.00  0.00    +0.000 A 
ATOM     26 CL1  UNL     1      32.431 -10.505 -31.027  0.00  0.00    +0.000 Cl
ATOM     27  C7  UNL     1      32.888  -9.723 -33.610  0.00  0.00    +0.000 A 
ATOM     28  C8  UNL     1      32.491  -9.356 -34.899  0.00  0.00    +0.000 A 
ENDBRANCH  21  22
ENDBRANCH  18  20
ENDBRANCH   1  17
TORSDOF 4
ENDMDL
MODEL 8
REMARK VINA RESULT:    -5.446      6.373      8.058
REMARK INTER + INTRA:          -7.105
REMARK INTER:                  -6.715
REMARK INTRA:                  -0.389
REMARK UNBOUND:                -0.385
REMARK  Name = resultss/4CJN/ligands/lig_180_t0.pdb
REMARK  4 active torsions:
REMARK  status: ('A' for Active; 'I' for Inactive)
REMARK    1  A    between atoms: C1_2  and  C9_13
REMARK    2  A    between atoms: N1_3  and  N2_4
REMARK    3  A    between atoms: C2_5  and  C3_6
REMARK    4  A    between atoms: C12_16  and  C13_17
REMARK                            x       y       z     vdW  Elec       q    Type
REMARK                         _______ _______ _______ _____ _____    ______ ____
ROOT
ATOM      1  C9  UNL     1      26.910  -8.873 -40.693  0.00  0.00    +0.000 A 
ATOM      2  C10 UNL     1      27.125  -9.333 -42.003  0.00  0.00    +0.000 A 
ATOM      3  C11 UNL     1      26.258  -8.965 -43.037  0.00  0.00    +0.000 A 
ATOM      4  C12 UNL     1      25.160  -8.124 -42.786  0.00  0.00    +0.000 A 
ATOM      5  C20 UNL     1      24.952  -7.655 -41.477  0.00  0.00    +0.000 A 
ATOM      6  C21 UNL     1      25.819  -8.022 -40.445  0.00  0.00    +0.000 A 
ENDROOT
BRANCH   4   7
ATOM      7  C13 UNL     1      24.248  -7.742 -43.888  0.00  0.00    +0.000 A 
ATOM      8  N3  UNL     1      24.622  -7.740 -45.194  0.00  0.00    +0.000 NA
ATOM      9  C14 UNL     1      23.602  -7.350 -46.002  0.00  0.00    +0.000 A 
ATOM     10  C15 UNL     1      23.690  -7.251 -47.392  0.00  0.00    +0.000 A 
ATOM     11  C16 UNL     1      22.557  -6.835 -48.112  0.00  0.00    +0.000 A 
ATOM     12  C17 UNL     1      21.358  -6.525 -47.440  0.00  0.00    +0.000 A 
ATOM     13  C18 UNL     1      21.282  -6.628 -46.041  0.00  0.00    +0.000 A 
ATOM     14  C19 UNL     1      22.419  -7.042 -45.352  0.00  0.00    +0.000 A 
ATOM     15  S1  UNL     1      22.629  -7.258 -43.703  0.00  0.00    +0.000 S 
ENDBRANCH   4   7
BRANCH   1  17
ATOM     16  O1  UNL     1      28.016 -10.470 -39.331  0.00  0.00    +0.000 OA
ATOM     17  C1  UNL     1      27.823  -9.250 -39.587  0.00  0.00    +0.000 C 
ATOM     18  N1  UNL     1      28.508  -8.257 -38.813  0.00  0.00    +0.000 N 
ATOM     19  H1  UNL     1      28.492  -7.255 -39.113  0.00  0.00    +0.000 HD
BRANCH  18  20
ATOM     20  N2  UNL     1      29.259  -8.639 -37.690  0.00  0.00    +0.000 NA
ATOM     21  C2  UNL     1      28.739  -8.683 -36.503  0.00  0.00    +0.000 C 
BRANCH  21  22
ATOM     22  C3  UNL     1      29.545  -9.086 -35.333  0.00  0.00    +0.000 A 
ATOM     23  C4  UNL     1      28.910  -9.301 -34.098  0.00  0.00    +0.000 A 
ATOM     24  C5  UNL     1      29.654  -9.683 -32.978  0.00  0.00    +0.000 A 
ATOM     25  C6  UNL     1      31.037  -9.856 -33.079  0.00  0.00    +0.000 A 
ATOM     26 CL1  UNL     1      31.968 -10.337 -31.672  0.00  0.00    +0.000 Cl
ATOM     27  C7  UNL     1      31.678  -9.646 -34.304  0.00  0.00    +0.000 A 
ATOM     28  C8  UNL     1      30.938  -9.263 -35.427  0.00  0.00    +0.000 A 
ENDBRANCH  21  22
ENDBRANCH  18  20
ENDBRANCH   1  17
TORSDOF 4
ENDMDL
MODEL 9
REMARK VINA RESULT:    -5.311      6.132      8.609
REMARK INTER + INTRA:          -6.938
REMARK INTER:                  -6.531
REMARK INTRA:                  -0.407
REMARK UNBOUND:                -0.385
REMARK  Name = resultss/4CJN/ligands/lig_180_t0.pdb
REMARK  4 active torsions:
REMARK  status: ('A' for Active; 'I' for Inactive)
REMARK    1  A    between atoms: C1_2  and  C9_13
REMARK    2  A    between atoms: N1_3  and  N2_4
REMARK    3  A    between atoms: C2_5  and  C3_6
REMARK    4  A    between atoms: C12_16  and  C13_17
REMARK                            x       y       z     vdW  Elec       q    Type
REMARK                         _______ _______ _______ _____ _____    ______ ____
ROOT
ATOM      1  C9  UNL     1      26.943  -9.361 -39.440  0.00  0.00    +0.000 A 
ATOM      2  C10 UNL     1      27.316  -9.342 -40.795  0.00  0.00    +0.000 A 
ATOM      3  C11 UNL     1      26.418  -8.905 -41.773  0.00  0.00    +0.000 A 
ATOM      4  C12 UNL     1      25.129  -8.470 -41.419  0.00  0.00    +0.000 A 
ATOM      5  C20 UNL     1      24.761  -8.477 -40.063  0.00  0.00    +0.000 A 
ATOM      6  C21 UNL     1      25.659  -8.913 -39.086  0.00  0.00    +0.000 A 
ENDROOT
BRANCH   4   7
ATOM      7  C13 UNL     1      24.186  -8.010 -42.465  0.00  0.00    +0.000 A 
ATOM      8  N3  UNL     1      22.877  -7.745 -42.218  0.00  0.00    +0.000 NA
ATOM      9  C14 UNL     1      22.232  -7.340 -43.343  0.00  0.00    +0.000 A 
ATOM     10  C15 UNL     1      20.879  -7.000 -43.397  0.00  0.00    +0.000 A 
ATOM     11  C16 UNL     1      20.334  -6.594 -44.628  0.00  0.00    +0.000 A 
ATOM     12  C17 UNL     1      21.142  -6.535 -45.782  0.00  0.00    +0.000 A 
ATOM     13  C18 UNL     1      22.501  -6.881 -45.715  0.00  0.00    +0.000 A 
ATOM     14  C19 UNL     1      23.015  -7.279 -44.483  0.00  0.00    +0.000 A 
ATOM     15  S1  UNL     1      24.579  -7.744 -44.097  0.00  0.00    +0.000 S 
ENDBRANCH   4   7
BRANCH   1  17
ATOM     16  O1  UNL     1      27.648 -10.886 -37.765  0.00  0.00    +0.000 OA
ATOM     17  C1  UNL     1      27.886  -9.816 -38.390  0.00  0.00    +0.000 C 
ATOM     18  N1  UNL     1      29.074  -9.076 -38.081  0.00  0.00    +0.000 N 
ATOM     19  H1  UNL     1      29.372  -8.284 -38.694  0.00  0.00    +0.000 HD
BRANCH  18  20
ATOM     20  N2  UNL     1      29.874  -9.459 -36.993  0.00  0.00    +0.000 NA
ATOM     21  C2  UNL     1      29.827  -8.837 -35.857  0.00  0.00    +0.000 C 
BRANCH  21  22
ATOM     22  C3  UNL     1      30.677  -9.254 -34.723  0.00  0.00    +0.000 A 
ATOM     23  C4  UNL     1      32.075  -9.211 -34.858  0.00  0.00    +0.000 A 
ATOM     24  C5  UNL     1      32.899  -9.601 -33.797  0.00  0.00    +0.000 A 
ATOM     25  C6  UNL     1      32.336 -10.036 -32.594  0.00  0.00    +0.000 A 
ATOM     26 CL1  UNL     1      33.373 -10.524 -31.265  0.00  0.00    +0.000 Cl
ATOM     27  C7  UNL     1      30.947 -10.081 -32.451  0.00  0.00    +0.000 A 
ATOM     28  C8  UNL     1      30.118  -9.692 -33.509  0.00  0.00    +0.000 A 
ENDBRANCH  21  22
ENDBRANCH  18  20
ENDBRANCH   1  17
TORSDOF 4
ENDMDL
