MODEL 1
REMARK VINA RESULT:    -6.989      0.000      0.000
REMARK INTER + INTRA:          -9.369
REMARK INTER:                  -9.237
REMARK INTRA:                  -0.133
REMARK UNBOUND:                -0.133
REMARK  Name = resultss/4CJN/ligands/lig_183_t0.pdb
REMARK  7 active torsions:
REMARK  status: ('A' for Active; 'I' for Inactive)
REMARK    1  A    between atoms: C1_1  and  O1_2
REMARK    2  A    between atoms: O1_2  and  C2_3
REMARK    3  A    between atoms: C4_5  and  C5_6
REMARK    4  A    between atoms: N1_7  and  N2_8
REMARK    5  A    between atoms: C6_9  and  C7_11
REMARK    6  A    between atoms: C10_14  and  C11_15
REMARK    7  A    between atoms: C22_28  and  O3_29
REMARK                            x       y       z     vdW  Elec       q    Type
REMARK                         _______ _______ _______ _____ _____    ______ ____
ROOT
ATOM      1  N2  UNL     1      29.773 -11.114 -41.278  0.00  0.00    +0.000 N 
ATOM      2  C6  UNL     1      29.169  -9.836 -41.040  0.00  0.00    +0.000 C 
ATOM      3  O2  UNL     1      29.358  -8.903 -41.867  0.00  0.00    +0.000 OA
ATOM      4  H6  UNL     1      29.766 -11.845 -40.531  0.00  0.00    +0.000 HD
ENDROOT
BRANCH   2   5
ATOM      5  C7  UNL     1      28.343  -9.585 -39.833  0.00  0.00    +0.000 A 
ATOM      6  C8  UNL     1      28.476 -10.379 -38.681  0.00  0.00    +0.000 A 
ATOM      7  C9  UNL     1      27.686 -10.132 -37.554  0.00  0.00    +0.000 A 
ATOM      8  C10 UNL     1      26.742  -9.092 -37.555  0.00  0.00    +0.000 A 
ATOM      9  C18 UNL     1      26.600  -8.306 -38.712  0.00  0.00    +0.000 A 
ATOM     10  C19 UNL     1      27.389  -8.553 -39.838  0.00  0.00    +0.000 A 
BRANCH   8  11
ATOM     11  C11 UNL     1      25.911  -8.841 -36.354  0.00  0.00    +0.000 A 
ATOM     12  N3  UNL     1      24.936  -7.897 -36.310  0.00  0.00    +0.000 NA
ATOM     13  C12 UNL     1      24.326  -7.870 -35.098  0.00  0.00    +0.000 A 
ATOM     14  C13 UNL     1      23.286  -7.004 -34.757  0.00  0.00    +0.000 A 
ATOM     15  C14 UNL     1      22.740  -7.079 -33.464  0.00  0.00    +0.000 A 
ATOM     16  C15 UNL     1      23.237  -8.013 -32.532  0.00  0.00    +0.000 A 
ATOM     17  C16 UNL     1      24.283  -8.880 -32.886  0.00  0.00    +0.000 A 
ATOM     18  C17 UNL     1      24.805  -8.784 -34.174  0.00  0.00    +0.000 A 
ATOM     19  S1  UNL     1      26.041  -9.672 -34.877  0.00  0.00    +0.000 S 
ENDBRANCH   8  11
ENDBRANCH   2   5
BRANCH   1  21
ATOM     20  C5  UNL     1      31.727 -11.449 -42.560  0.00  0.00    +0.000 C 
ATOM     21  N1  UNL     1      30.435 -11.361 -42.491  0.00  0.00    +0.000 NA
BRANCH  20  24
ATOM     22  C2  UNL     1      32.826 -13.208 -45.731  0.00  0.00    +0.000 A 
ATOM     23  C3  UNL     1      32.193 -12.932 -44.502  0.00  0.00    +0.000 A 
ATOM     24  C4  UNL     1      32.405 -11.709 -43.846  0.00  0.00    +0.000 A 
ATOM     25  C20 UNL     1      33.260 -10.758 -44.427  0.00  0.00    +0.000 A 
ATOM     26  C21 UNL     1      33.890 -11.026 -45.644  0.00  0.00    +0.000 A 
ATOM     27  C22 UNL     1      33.677 -12.247 -46.297  0.00  0.00    +0.000 A 
BRANCH  22  29
ATOM     28  C1  UNL     1      33.683 -15.321 -46.761  0.00  0.00    +0.000 C 
ATOM     29  O1  UNL     1      32.638 -14.420 -46.416  0.00  0.00    +0.000 OA
ENDBRANCH  22  29
BRANCH  27  30
ATOM     30  O3  UNL     1      34.307 -12.514 -47.511  0.00  0.00    +0.000 OA
ATOM     31  H17 UNL     1      35.299 -12.715 -47.561  0.00  0.00    +0.000 HD
ENDBRANCH  27  30
ENDBRANCH  20  24
ENDBRANCH   1  21
TORSDOF 6
ENDMDL
MODEL 2
REMARK VINA RESULT:    -6.288      6.060      8.405
REMARK INTER + INTRA:          -8.442
REMARK INTER:                  -7.965
REMARK INTRA:                  -0.477
REMARK UNBOUND:                -0.133
REMARK  Name = resultss/4CJN/ligands/lig_183_t0.pdb
REMARK  7 active torsions:
REMARK  status: ('A' for Active; 'I' for Inactive)
REMARK    1  A    between atoms: C1_1  and  O1_2
REMARK    2  A    between atoms: O1_2  and  C2_3
REMARK    3  A    between atoms: C4_5  and  C5_6
REMARK    4  A    between atoms: N1_7  and  N2_8
REMARK    5  A    between atoms: C6_9  and  C7_11
REMARK    6  A    between atoms: C10_14  and  C11_15
REMARK    7  A    between atoms: C22_28  and  O3_29
REMARK                            x       y       z     vdW  Elec       q    Type
REMARK                         _______ _______ _______ _____ _____    ______ ____
ROOT
ATOM      1  N2  UNL     1      24.483  -8.070 -41.881  0.00  0.00    +0.000 N 
ATOM      2  C6  UNL     1      25.136  -9.278 -41.470  0.00  0.00    +0.000 C 
ATOM      3  O2  UNL     1      25.012 -10.315 -42.177  0.00  0.00    +0.000 OA
ATOM      4  H6  UNL     1      24.436  -7.252 -41.233  0.00  0.00    +0.000 HD
ENDROOT
BRANCH   2   5
ATOM      5  C7  UNL     1      25.937  -9.337 -40.223  0.00  0.00    +0.000 A 
ATOM      6  C8  UNL     1      27.072 -10.160 -40.125  0.00  0.00    +0.000 A 
ATOM      7  C9  UNL     1      27.813 -10.209 -38.941  0.00  0.00    +0.000 A 
ATOM      8  C10 UNL     1      27.434  -9.442 -37.827  0.00  0.00    +0.000 A 
ATOM      9  C18 UNL     1      26.292  -8.628 -37.920  0.00  0.00    +0.000 A 
ATOM     10  C19 UNL     1      25.551  -8.580 -39.104  0.00  0.00    +0.000 A 
BRANCH   8  11
ATOM     11  C11 UNL     1      28.229  -9.502 -36.578  0.00  0.00    +0.000 A 
ATOM     12  N3  UNL     1      29.587  -9.513 -36.561  0.00  0.00    +0.000 NA
ATOM     13  C12 UNL     1      30.067  -9.571 -35.292  0.00  0.00    +0.000 A 
ATOM     14  C13 UNL     1      31.423  -9.596 -34.962  0.00  0.00    +0.000 A 
ATOM     15  C14 UNL     1      31.787  -9.656 -33.606  0.00  0.00    +0.000 A 
ATOM     16  C15 UNL     1      30.799  -9.690 -32.602  0.00  0.00    +0.000 A 
ATOM     17  C16 UNL     1      29.438  -9.664 -32.945  0.00  0.00    +0.000 A 
ATOM     18  C17 UNL     1      29.105  -9.605 -34.297  0.00  0.00    +0.000 A 
ATOM     19  S1  UNL     1      27.586  -9.562 -35.005  0.00  0.00    +0.000 S 
ENDBRANCH   8  11
ENDBRANCH   2   5
BRANCH   1  21
ATOM     20  C5  UNL     1      24.245  -7.200 -44.063  0.00  0.00    +0.000 C 
ATOM     21  N1  UNL     1      23.846  -8.008 -43.131  0.00  0.00    +0.000 NA
BRANCH  20  24
ATOM     22  C2  UNL     1      21.486  -6.948 -46.648  0.00  0.00    +0.000 A 
ATOM     23  C3  UNL     1      22.165  -7.000 -45.414  0.00  0.00    +0.000 A 
ATOM     24  C4  UNL     1      23.561  -7.149 -45.371  0.00  0.00    +0.000 A 
ATOM     25  C20 UNL     1      24.279  -7.245 -46.575  0.00  0.00    +0.000 A 
ATOM     26  C21 UNL     1      23.610  -7.193 -47.800  0.00  0.00    +0.000 A 
ATOM     27  C22 UNL     1      22.218  -7.045 -47.840  0.00  0.00    +0.000 A 
BRANCH  22  29
ATOM     28  C1  UNL     1      19.243  -6.535 -45.618  0.00  0.00    +0.000 C 
ATOM     29  O1  UNL     1      20.092  -6.800 -46.730  0.00  0.00    +0.000 OA
ENDBRANCH  22  29
BRANCH  27  30
ATOM     30  O3  UNL     1      21.552  -6.994 -49.063  0.00  0.00    +0.000 OA
ATOM     31  H17 UNL     1      20.856  -6.284 -49.260  0.00  0.00    +0.000 HD
ENDBRANCH  27  30
ENDBRANCH  20  24
ENDBRANCH   1  21
TORSDOF 6
ENDMDL
MODEL 3
REMARK VINA RESULT:    -6.057      6.970     10.396
REMARK INTER + INTRA:          -8.136
REMARK INTER:                  -7.693
REMARK INTRA:                  -0.443
REMARK UNBOUND:                -0.133
REMARK  Name = resultss/4CJN/ligands/lig_183_t0.pdb
REMARK  7 active torsions:
REMARK  status: ('A' for Active; 'I' for Inactive)
REMARK    1  A    between atoms: C1_1  and  O1_2
REMARK    2  A    between atoms: O1_2  and  C2_3
REMARK    3  A    between atoms: C4_5  and  C5_6
REMARK    4  A    between atoms: N1_7  and  N2_8
REMARK    5  A    between atoms: C6_9  and  C7_11
REMARK    6  A    between atoms: C10_14  and  C11_15
REMARK    7  A    between atoms: C22_28  and  O3_29
REMARK                            x       y       z     vdW  Elec       q    Type
REMARK                         _______ _______ _______ _____ _____    ______ ____
ROOT
ATOM      1  N2  UNL     1      26.805  -9.074 -39.243  0.00  0.00    +0.000 N 
ATOM      2  C6  UNL     1      25.416  -8.783 -39.440  0.00  0.00    +0.000 C 
ATOM      3  O2  UNL     1      24.629  -8.846 -38.456  0.00  0.00    +0.000 OA
ATOM      4  H6  UNL     1      27.439  -9.188 -40.066  0.00  0.00    +0.000 HD
ENDROOT
BRANCH   2   5
ATOM      5  C7  UNL     1      24.883  -8.426 -40.778  0.00  0.00    +0.000 A 
ATOM      6  C8  UNL     1      24.024  -7.326 -40.950  0.00  0.00    +0.000 A 
ATOM      7  C9  UNL     1      23.526  -7.007 -42.217  0.00  0.00    +0.000 A 
ATOM      8  C10 UNL     1      23.870  -7.780 -43.338  0.00  0.00    +0.000 A 
ATOM      9  C18 UNL     1      24.720  -8.886 -43.164  0.00  0.00    +0.000 A 
ATOM     10  C19 UNL     1      25.217  -9.207 -41.897  0.00  0.00    +0.000 A 
BRANCH   8  11
ATOM     11  C11 UNL     1      23.337  -7.430 -44.675  0.00  0.00    +0.000 A 
ATOM     12  N3  UNL     1      22.011  -7.295 -44.934  0.00  0.00    +0.000 NA
ATOM     13  C12 UNL     1      21.789  -6.971 -46.233  0.00  0.00    +0.000 A 
ATOM     14  C13 UNL     1      20.526  -6.768 -46.791  0.00  0.00    +0.000 A 
ATOM     15  C14 UNL     1      20.434  -6.435 -48.153  0.00  0.00    +0.000 A 
ATOM     16  C15 UNL     1      21.599  -6.311 -48.938  0.00  0.00    +0.000 A 
ATOM     17  C16 UNL     1      22.864  -6.517 -48.366  0.00  0.00    +0.000 A 
ATOM     18  C17 UNL     1      22.926  -6.846 -47.013  0.00  0.00    +0.000 A 
ATOM     19  S1  UNL     1      24.274  -7.148 -46.065  0.00  0.00    +0.000 S 
ENDBRANCH   8  11
ENDBRANCH   2   5
BRANCH   1  21
ATOM     20  C5  UNL     1      28.571  -9.240 -37.686  0.00  0.00    +0.000 C 
ATOM     21  N1  UNL     1      27.302  -9.276 -37.946  0.00  0.00    +0.000 NA
BRANCH  20  24
ATOM     22  C2  UNL     1      30.970  -9.671 -34.785  0.00  0.00    +0.000 A 
ATOM     23  C3  UNL     1      30.461  -9.468 -36.083  0.00  0.00    +0.000 A 
ATOM     24  C4  UNL     1      29.075  -9.455 -36.314  0.00  0.00    +0.000 A 
ATOM     25  C20 UNL     1      28.197  -9.647 -35.234  0.00  0.00    +0.000 A 
ATOM     26  C21 UNL     1      28.698  -9.848 -33.947  0.00  0.00    +0.000 A 
ATOM     27  C22 UNL     1      30.080  -9.861 -33.718  0.00  0.00    +0.000 A 
BRANCH  22  29
ATOM     28  C1  UNL     1      33.358  -9.347 -35.458  0.00  0.00    +0.000 C 
ATOM     29  O1  UNL     1      32.348  -9.690 -34.516  0.00  0.00    +0.000 OA
ENDBRANCH  22  29
BRANCH  27  30
ATOM     30  O3  UNL     1      30.577 -10.063 -32.433  0.00  0.00    +0.000 OA
ATOM     31  H17 UNL     1      29.961 -10.213 -31.642  0.00  0.00    +0.000 HD
ENDBRANCH  27  30
ENDBRANCH  20  24
ENDBRANCH   1  21
TORSDOF 6
ENDMDL
MODEL 4
REMARK VINA RESULT:    -5.775      5.871      8.002
REMARK INTER + INTRA:          -7.765
REMARK INTER:                  -7.296
REMARK INTRA:                  -0.469
REMARK UNBOUND:                -0.133
REMARK  Name = resultss/4CJN/ligands/lig_183_t0.pdb
REMARK  7 active torsions:
REMARK  status: ('A' for Active; 'I' for Inactive)
REMARK    1  A    between atoms: C1_1  and  O1_2
REMARK    2  A    between atoms: O1_2  and  C2_3
REMARK    3  A    between atoms: C4_5  and  C5_6
REMARK    4  A    between atoms: N1_7  and  N2_8
REMARK    5  A    between atoms: C6_9  and  C7_11
REMARK    6  A    between atoms: C10_14  and  C11_15
REMARK    7  A    between atoms: C22_28  and  O3_29
REMARK                            x       y       z     vdW  Elec       q    Type
REMARK                         _______ _______ _______ _____ _____    ______ ____
ROOT
ATOM      1  N2  UNL     1      25.399  -7.777 -42.210  0.00  0.00    +0.000 N 
ATOM      2  C6  UNL     1      25.691  -9.041 -41.601  0.00  0.00    +0.000 C 
ATOM      3  O2  UNL     1      25.322 -10.101 -42.178  0.00  0.00    +0.000 OA
ATOM      4  H6  UNL     1      25.547  -6.891 -41.675  0.00  0.00    +0.000 HD
ENDROOT
BRANCH   2   5
ATOM      5  C7  UNL     1      26.401  -9.128 -40.301  0.00  0.00    +0.000 A 
ATOM      6  C8  UNL     1      25.741  -8.853 -39.091  0.00  0.00    +0.000 A 
ATOM      7  C9  UNL     1      26.426  -8.933 -37.875  0.00  0.00    +0.000 A 
ATOM      8  C10 UNL     1      27.786  -9.285 -37.841  0.00  0.00    +0.000 A 
ATOM      9  C18 UNL     1      28.449  -9.548 -39.052  0.00  0.00    +0.000 A 
ATOM     10  C19 UNL     1      27.764  -9.466 -40.268  0.00  0.00    +0.000 A 
BRANCH   8  11
ATOM     11  C11 UNL     1      28.500  -9.368 -36.546  0.00  0.00    +0.000 A 
ATOM     12  N3  UNL     1      29.853  -9.410 -36.445  0.00  0.00    +0.000 NA
ATOM     13  C12 UNL     1      30.253  -9.484 -35.150  0.00  0.00    +0.000 A 
ATOM     14  C13 UNL     1      31.585  -9.541 -34.738  0.00  0.00    +0.000 A 
ATOM     15  C14 UNL     1      31.864  -9.615 -33.362  0.00  0.00    +0.000 A 
ATOM     16  C15 UNL     1      30.815  -9.632 -32.420  0.00  0.00    +0.000 A 
ATOM     17  C16 UNL     1      29.479  -9.574 -32.847  0.00  0.00    +0.000 A 
ATOM     18  C17 UNL     1      29.231  -9.501 -34.216  0.00  0.00    +0.000 A 
ATOM     19  S1  UNL     1      27.760  -9.421 -35.016  0.00  0.00    +0.000 S 
ENDBRANCH   8  11
ENDBRANCH   2   5
BRANCH   1  21
ATOM     20  C5  UNL     1      23.805  -7.010 -43.773  0.00  0.00    +0.000 C 
ATOM     21  N1  UNL     1      24.848  -7.730 -43.500  0.00  0.00    +0.000 NA
BRANCH  20  24
ATOM     22  C2  UNL     1      23.591  -6.817 -47.551  0.00  0.00    +0.000 A 
ATOM     23  C3  UNL     1      24.102  -6.853 -46.238  0.00  0.00    +0.000 A 
ATOM     24  C4  UNL     1      23.239  -6.974 -45.137  0.00  0.00    +0.000 A 
ATOM     25  C20 UNL     1      21.854  -7.059 -45.356  0.00  0.00    +0.000 A 
ATOM     26  C21 UNL     1      21.343  -7.023 -46.655  0.00  0.00    +0.000 A 
ATOM     27  C22 UNL     1      22.206  -6.902 -47.752  0.00  0.00    +0.000 A 
BRANCH  22  29
ATOM     28  C1  UNL     1      25.825  -6.458 -48.619  0.00  0.00    +0.000 C 
ATOM     29  O1  UNL     1      24.423  -6.697 -48.676  0.00  0.00    +0.000 OA
ENDBRANCH  22  29
BRANCH  27  30
ATOM     30  O3  UNL     1      21.694  -6.866 -49.048  0.00  0.00    +0.000 OA
ATOM     31  H17 UNL     1      20.699  -6.937 -49.228  0.00  0.00    +0.000 HD
ENDBRANCH  27  30
ENDBRANCH  20  24
ENDBRANCH   1  21
TORSDOF 6
ENDMDL
MODEL 5
REMARK VINA RESULT:    -5.743      8.182      9.803
REMARK INTER + INTRA:          -7.722
REMARK INTER:                  -7.231
REMARK INTRA:                  -0.490
REMARK UNBOUND:                -0.133
REMARK  Name = resultss/4CJN/ligands/lig_183_t0.pdb
REMARK  7 active torsions:
REMARK  status: ('A' for Active; 'I' for Inactive)
REMARK    1  A    between atoms: C1_1  and  O1_2
REMARK    2  A    between atoms: O1_2  and  C2_3
REMARK    3  A    between atoms: C4_5  and  C5_6
REMARK    4  A    between atoms: N1_7  and  N2_8
REMARK    5  A    between atoms: C6_9  and  C7_11
REMARK    6  A    between atoms: C10_14  and  C11_15
REMARK    7  A    between atoms: C22_28  and  O3_29
REMARK                            x       y       z     vdW  Elec       q    Type
REMARK                         _______ _______ _______ _____ _____    ______ ____
ROOT
ATOM      1  N2  UNL     1      26.233  -8.200 -43.312  0.00  0.00    +0.000 N 
ATOM      2  C6  UNL     1      26.033  -7.375 -44.466  0.00  0.00    +0.000 C 
ATOM      3  O2  UNL     1      27.001  -6.705 -44.920  0.00  0.00    +0.000 OA
ATOM      4  H6  UNL     1      25.414  -8.630 -42.826  0.00  0.00    +0.000 HD
ENDROOT
BRANCH   2   5
ATOM      5  C7  UNL     1      24.707  -7.278 -45.126  0.00  0.00    +0.000 A 
ATOM      6  C8  UNL     1      24.585  -7.324 -46.526  0.00  0.00    +0.000 A 
ATOM      7  C9  UNL     1      23.329  -7.226 -47.132  0.00  0.00    +0.000 A 
ATOM      8  C10 UNL     1      22.169  -7.074 -46.355  0.00  0.00    +0.000 A 
ATOM      9  C18 UNL     1      22.292  -7.015 -44.956  0.00  0.00    +0.000 A 
ATOM     10  C19 UNL     1      23.547  -7.112 -44.350  0.00  0.00    +0.000 A 
BRANCH   8  11
ATOM     11  C11 UNL     1      20.844  -6.972 -47.010  0.00  0.00    +0.000 A 
ATOM     12  N3  UNL     1      19.697  -7.424 -46.440  0.00  0.00    +0.000 NA
ATOM     13  C12 UNL     1      18.625  -7.210 -47.245  0.00  0.00    +0.000 A 
ATOM     14  C13 UNL     1      17.314  -7.569 -46.926  0.00  0.00    +0.000 A 
ATOM     15  C14 UNL     1      16.293  -7.290 -47.850  0.00  0.00    +0.000 A 
ATOM     16  C15 UNL     1      16.591  -6.660 -49.076  0.00  0.00    +0.000 A 
ATOM     17  C16 UNL     1      17.913  -6.303 -49.386  0.00  0.00    +0.000 A 
ATOM     18  C17 UNL     1      18.906  -6.591 -48.452  0.00  0.00    +0.000 A 
ATOM     19  S1  UNL     1      20.552  -6.289 -48.540  0.00  0.00    +0.000 S 
ENDBRANCH   8  11
ENDBRANCH   2   5
BRANCH   1  21
ATOM     20  C5  UNL     1      28.121  -9.528 -42.814  0.00  0.00    +0.000 C 
ATOM     21  N1  UNL     1      27.525  -8.376 -42.792  0.00  0.00    +0.000 NA
BRANCH  20  24
ATOM     22  C2  UNL     1      31.711 -10.677 -42.438  0.00  0.00    +0.000 A 
ATOM     23  C3  UNL     1      30.407 -10.501 -42.941  0.00  0.00    +0.000 A 
ATOM     24  C4  UNL     1      29.480  -9.694 -42.262  0.00  0.00    +0.000 A 
ATOM     25  C20 UNL     1      29.867  -9.060 -41.069  0.00  0.00    +0.000 A 
ATOM     26  C21 UNL     1      31.158  -9.231 -40.567  0.00  0.00    +0.000 A 
ATOM     27  C22 UNL     1      32.081 -10.037 -41.246  0.00  0.00    +0.000 A 
BRANCH  22  29
ATOM     28  C1  UNL     1      32.659 -12.900 -43.086  0.00  0.00    +0.000 C 
ATOM     29  O1  UNL     1      32.664 -11.477 -43.090  0.00  0.00    +0.000 OA
ENDBRANCH  22  29
BRANCH  27  30
ATOM     30  O3  UNL     1      33.369 -10.208 -40.743  0.00  0.00    +0.000 OA
ATOM     31  H17 UNL     1      33.782 -11.129 -40.642  0.00  0.00    +0.000 HD
ENDBRANCH  27  30
ENDBRANCH  20  24
ENDBRANCH   1  21
TORSDOF 6
ENDMDL
MODEL 6
REMARK VINA RESULT:    -5.737      7.091     10.898
REMARK INTER + INTRA:          -7.714
REMARK INTER:                  -7.224
REMARK INTRA:                  -0.490
REMARK UNBOUND:                -0.133
REMARK  Name = resultss/4CJN/ligands/lig_183_t0.pdb
REMARK  7 active torsions:
REMARK  status: ('A' for Active; 'I' for Inactive)
REMARK    1  A    between atoms: C1_1  and  O1_2
REMARK    2  A    between atoms: O1_2  and  C2_3
REMARK    3  A    between atoms: C4_5  and  C5_6
REMARK    4  A    between atoms: N1_7  and  N2_8
REMARK    5  A    between atoms: C6_9  and  C7_11
REMARK    6  A    between atoms: C10_14  and  C11_15
REMARK    7  A    between atoms: C22_28  and  O3_29
REMARK                            x       y       z     vdW  Elec       q    Type
REMARK                         _______ _______ _______ _____ _____    ______ ____
ROOT
ATOM      1  N2  UNL     1      24.800  -7.708 -39.483  0.00  0.00    +0.000 N 
ATOM      2  C6  UNL     1      25.373  -7.457 -40.772  0.00  0.00    +0.000 C 
ATOM      3  O2  UNL     1      26.623  -7.320 -40.873  0.00  0.00    +0.000 OA
ATOM      4  H6  UNL     1      23.764  -7.661 -39.351  0.00  0.00    +0.000 HD
ENDROOT
BRANCH   2   5
ATOM      5  C7  UNL     1      24.526  -7.337 -41.984  0.00  0.00    +0.000 A 
ATOM      6  C8  UNL     1      23.148  -7.075 -41.888  0.00  0.00    +0.000 A 
ATOM      7  C9  UNL     1      22.363  -6.971 -43.040  0.00  0.00    +0.000 A 
ATOM      8  C10 UNL     1      22.935  -7.132 -44.313  0.00  0.00    +0.000 A 
ATOM      9  C18 UNL     1      24.310  -7.407 -44.409  0.00  0.00    +0.000 A 
ATOM     10  C19 UNL     1      25.095  -7.512 -43.258  0.00  0.00    +0.000 A 
BRANCH   8  11
ATOM     11  C11 UNL     1      22.092  -7.018 -45.526  0.00  0.00    +0.000 A 
ATOM     12  N3  UNL     1      20.735  -7.061 -45.494  0.00  0.00    +0.000 NA
ATOM     13  C12 UNL     1      20.205  -6.934 -46.738  0.00  0.00    +0.000 A 
ATOM     14  C13 UNL     1      18.838  -6.942 -47.017  0.00  0.00    +0.000 A 
ATOM     15  C14 UNL     1      18.420  -6.801 -48.352  0.00  0.00    +0.000 A 
ATOM     16  C15 UNL     1      19.368  -6.656 -49.386  0.00  0.00    +0.000 A 
ATOM     17  C16 UNL     1      20.741  -6.650 -49.092  0.00  0.00    +0.000 A 
ATOM     18  C17 UNL     1      21.127  -6.791 -47.761  0.00  0.00    +0.000 A 
ATOM     19  S1  UNL     1      22.672  -6.821 -47.112  0.00  0.00    +0.000 S 
ENDBRANCH   8  11
ENDBRANCH   2   5
BRANCH   1  21
ATOM     20  C5  UNL     1      25.799  -9.141 -37.895  0.00  0.00    +0.000 C 
ATOM     21  N1  UNL     1      25.633  -7.950 -38.380  0.00  0.00    +0.000 NA
BRANCH  20  24
ATOM     22  C2  UNL     1      28.938  -9.622 -35.827  0.00  0.00    +0.000 A 
ATOM     23  C3  UNL     1      28.073  -9.402 -36.918  0.00  0.00    +0.000 A 
ATOM     24  C4  UNL     1      26.681  -9.375 -36.733  0.00  0.00    +0.000 A 
ATOM     25  C20 UNL     1      26.155  -9.572 -35.445  0.00  0.00    +0.000 A 
ATOM     26  C21 UNL     1      27.009  -9.791 -34.362  0.00  0.00    +0.000 A 
ATOM     27  C22 UNL     1      28.397  -9.817 -34.549  0.00  0.00    +0.000 A 
BRANCH  22  29
ATOM     28  C1  UNL     1      31.009  -9.949 -37.192  0.00  0.00    +0.000 C 
ATOM     29  O1  UNL     1      30.334  -9.656 -35.974  0.00  0.00    +0.000 OA
ENDBRANCH  22  29
BRANCH  27  30
ATOM     30  O3  UNL     1      29.247 -10.037 -33.467  0.00  0.00    +0.000 OA
ATOM     31  H17 UNL     1      28.894 -10.099 -32.518  0.00  0.00    +0.000 HD
ENDBRANCH  27  30
ENDBRANCH  20  24
ENDBRANCH   1  21
TORSDOF 6
ENDMDL
MODEL 7
REMARK VINA RESULT:    -5.529      5.997      7.565
REMARK INTER + INTRA:          -7.439
REMARK INTER:                  -6.969
REMARK INTRA:                  -0.470
REMARK UNBOUND:                -0.133
REMARK  Name = resultss/4CJN/ligands/lig_183_t0.pdb
REMARK  7 active torsions:
REMARK  status: ('A' for Active; 'I' for Inactive)
REMARK    1  A    between atoms: C1_1  and  O1_2
REMARK    2  A    between atoms: O1_2  and  C2_3
REMARK    3  A    between atoms: C4_5  and  C5_6
REMARK    4  A    between atoms: N1_7  and  N2_8
REMARK    5  A    between atoms: C6_9  and  C7_11
REMARK    6  A    between atoms: C10_14  and  C11_15
REMARK    7  A    between atoms: C22_28  and  O3_29
REMARK                            x       y       z     vdW  Elec       q    Type
REMARK                         _______ _______ _______ _____ _____    ______ ____
ROOT
ATOM      1  N2  UNL     1      28.291  -7.896 -41.401  0.00  0.00    +0.000 N 
ATOM      2  C6  UNL     1      28.109  -8.976 -40.477  0.00  0.00    +0.000 C 
ATOM      3  O2  UNL     1      27.226  -9.845 -40.714  0.00  0.00    +0.000 OA
ATOM      4  H6  UNL     1      28.896  -7.083 -41.145  0.00  0.00    +0.000 HD
ENDROOT
BRANCH   2   5
ATOM      5  C7  UNL     1      28.923  -9.082 -39.241  0.00  0.00    +0.000 A 
ATOM      6  C8  UNL     1      30.141  -8.391 -39.110  0.00  0.00    +0.000 A 
ATOM      7  C9  UNL     1      30.899  -8.506 -37.941  0.00  0.00    +0.000 A 
ATOM      8  C10 UNL     1      30.462  -9.317 -36.881  0.00  0.00    +0.000 A 
ATOM      9  C18 UNL     1      29.252 -10.018 -37.017  0.00  0.00    +0.000 A 
ATOM     10  C19 UNL     1      28.494  -9.904 -38.186  0.00  0.00    +0.000 A 
BRANCH   8  11
ATOM     11  C11 UNL     1      31.275  -9.430 -35.647  0.00  0.00    +0.000 A 
ATOM     12  N3  UNL     1      30.753  -9.778 -34.443  0.00  0.00    +0.000 NA
ATOM     13  C12 UNL     1      31.708  -9.809 -33.479  0.00  0.00    +0.000 A 
ATOM     14  C13 UNL     1      31.468 -10.134 -32.142  0.00  0.00    +0.000 A 
ATOM     15  C14 UNL     1      32.548 -10.129 -31.242  0.00  0.00    +0.000 A 
ATOM     16  C15 UNL     1      33.846  -9.801 -31.685  0.00  0.00    +0.000 A 
ATOM     17  C16 UNL     1      34.074  -9.476 -33.031  0.00  0.00    +0.000 A 
ATOM     18  C17 UNL     1      32.987  -9.489 -33.902  0.00  0.00    +0.000 A 
ATOM     19  S1  UNL     1      32.949  -9.150 -35.543  0.00  0.00    +0.000 S 
ENDBRANCH   8  11
ENDBRANCH   2   5
BRANCH   1  21
ATOM     20  C5  UNL     1      27.863  -7.033 -43.556  0.00  0.00    +0.000 C 
ATOM     21  N1  UNL     1      27.602  -7.895 -42.624  0.00  0.00    +0.000 NA
BRANCH  20  24
ATOM     22  C2  UNL     1      24.993  -7.042 -46.030  0.00  0.00    +0.000 A 
ATOM     23  C3  UNL     1      25.722  -7.029 -44.824  0.00  0.00    +0.000 A 
ATOM     24  C4  UNL     1      27.126  -7.048 -44.836  0.00  0.00    +0.000 A 
ATOM     25  C20 UNL     1      27.802  -7.081 -46.068  0.00  0.00    +0.000 A 
ATOM     26  C21 UNL     1      27.083  -7.094 -47.265  0.00  0.00    +0.000 A 
ATOM     27  C22 UNL     1      25.683  -7.075 -47.250  0.00  0.00    +0.000 A 
BRANCH  22  29
ATOM     28  C1  UNL     1      22.761  -7.029 -44.898  0.00  0.00    +0.000 C 
ATOM     29  O1  UNL     1      23.589  -7.023 -46.056  0.00  0.00    +0.000 OA
ENDBRANCH  22  29
BRANCH  27  30
ATOM     30  O3  UNL     1      24.967  -7.088 -48.446  0.00  0.00    +0.000 OA
ATOM     31  H17 UNL     1      24.549  -6.246 -48.824  0.00  0.00    +0.000 HD
ENDBRANCH  27  30
ENDBRANCH  20  24
ENDBRANCH   1  21
TORSDOF 6
ENDMDL
MODEL 8
REMARK VINA RESULT:    -5.340      6.869      8.802
REMARK INTER + INTRA:          -7.189
REMARK INTER:                  -6.741
REMARK INTRA:                  -0.448
REMARK UNBOUND:                -0.133
REMARK  Name = resultss/4CJN/ligands/lig_183_t0.pdb
REMARK  7 active torsions:
REMARK  status: ('A' for Active; 'I' for Inactive)
REMARK    1  A    between atoms: C1_1  and  O1_2
REMARK    2  A    between atoms: O1_2  and  C2_3
REMARK    3  A    between atoms: C4_5  and  C5_6
REMARK    4  A    between atoms: N1_7  and  N2_8
REMARK    5  A    between atoms: C6_9  and  C7_11
REMARK    6  A    between atoms: C10_14  and  C11_15
REMARK    7  A    between atoms: C22_28  and  O3_29
REMARK                            x       y       z     vdW  Elec       q    Type
REMARK                         _______ _______ _______ _____ _____    ______ ____
ROOT
ATOM      1  N2  UNL     1      26.077  -7.857 -39.576  0.00  0.00    +0.000 N 
ATOM      2  C6  UNL     1      25.797  -8.500 -38.327  0.00  0.00    +0.000 C 
ATOM      3  O2  UNL     1      24.638  -8.952 -38.114  0.00  0.00    +0.000 OA
ATOM      4  H6  UNL     1      26.973  -7.334 -39.708  0.00  0.00    +0.000 HD
ENDROOT
BRANCH   2   5
ATOM      5  C7  UNL     1      26.834  -8.628 -37.273  0.00  0.00    +0.000 A 
ATOM      6  C8  UNL     1      26.610  -9.400 -36.120  0.00  0.00    +0.000 A 
ATOM      7  C9  UNL     1      27.596  -9.506 -35.135  0.00  0.00    +0.000 A 
ATOM      8  C10 UNL     1      28.824  -8.839 -35.276  0.00  0.00    +0.000 A 
ATOM      9  C18 UNL     1      29.043  -8.057 -36.423  0.00  0.00    +0.000 A 
ATOM     10  C19 UNL     1      28.058  -7.950 -37.407  0.00  0.00    +0.000 A 
BRANCH   8  11
ATOM     11  C11 UNL     1      29.861  -8.961 -34.224  0.00  0.00    +0.000 A 
ATOM     12  N3  UNL     1      30.224 -10.147 -33.672  0.00  0.00    +0.000 NA
ATOM     13  C12 UNL     1      31.192  -9.983 -32.736  0.00  0.00    +0.000 A 
ATOM     14  C13 UNL     1      31.763 -11.023 -32.000  0.00  0.00    +0.000 A 
ATOM     15  C14 UNL     1      32.760 -10.717 -31.058  0.00  0.00    +0.000 A 
ATOM     16  C15 UNL     1      33.173  -9.383 -30.863  0.00  0.00    +0.000 A 
ATOM     17  C16 UNL     1      32.592  -8.345 -31.608  0.00  0.00    +0.000 A 
ATOM     18  C17 UNL     1      31.606  -8.677 -32.535  0.00  0.00    +0.000 A 
ATOM     19  S1  UNL     1      30.741  -7.668 -33.557  0.00  0.00    +0.000 S 
ENDBRANCH   8  11
ENDBRANCH   2   5
BRANCH   1  21
ATOM     20  C5  UNL     1      24.331  -6.863 -40.815  0.00  0.00    +0.000 C 
ATOM     21  N1  UNL     1      25.119  -7.870 -40.602  0.00  0.00    +0.000 NA
BRANCH  20  24
ATOM     22  C2  UNL     1      22.814  -7.159 -44.275  0.00  0.00    +0.000 A 
ATOM     23  C3  UNL     1      23.749  -7.121 -43.220  0.00  0.00    +0.000 A 
ATOM     24  C4  UNL     1      23.328  -6.896 -41.900  0.00  0.00    +0.000 A 
ATOM     25  C20 UNL     1      21.961  -6.707 -41.637  0.00  0.00    +0.000 A 
ATOM     26  C21 UNL     1      21.032  -6.743 -42.679  0.00  0.00    +0.000 A 
ATOM     27  C22 UNL     1      21.454  -6.968 -43.996  0.00  0.00    +0.000 A 
BRANCH  22  29
ATOM     28  C1  UNL     1      24.459  -7.014 -46.155  0.00  0.00    +0.000 C 
ATOM     29  O1  UNL     1      23.198  -7.381 -45.608  0.00  0.00    +0.000 OA
ENDBRANCH  22  29
BRANCH  27  30
ATOM     30  O3  UNL     1      20.526  -7.003 -45.034  0.00  0.00    +0.000 OA
ATOM     31  H17 UNL     1      19.731  -7.632 -45.015  0.00  0.00    +0.000 HD
ENDBRANCH  27  30
ENDBRANCH  20  24
ENDBRANCH   1  21
TORSDOF 6
ENDMDL
MODEL 9
REMARK VINA RESULT:    -5.265      6.934     10.206
REMARK INTER + INTRA:          -7.091
REMARK INTER:                  -6.656
REMARK INTRA:                  -0.435
REMARK UNBOUND:                -0.133
REMARK  Name = resultss/4CJN/ligands/lig_183_t0.pdb
REMARK  7 active torsions:
REMARK  status: ('A' for Active; 'I' for Inactive)
REMARK    1  A    between atoms: C1_1  and  O1_2
REMARK    2  A    between atoms: O1_2  and  C2_3
REMARK    3  A    between atoms: C4_5  and  C5_6
REMARK    4  A    between atoms: N1_7  and  N2_8
REMARK    5  A    between atoms: C6_9  and  C7_11
REMARK    6  A    between atoms: C10_14  and  C11_15
REMARK    7  A    between atoms: C22_28  and  O3_29
REMARK                            x       y       z     vdW  Elec       q    Type
REMARK                         _______ _______ _______ _____ _____    ______ ____
ROOT
ATOM      1  N2  UNL     1      26.115  -8.936 -39.801  0.00  0.00    +0.000 N 
ATOM      2  C6  UNL     1      25.823  -7.662 -40.389  0.00  0.00    +0.000 C 
ATOM      3  O2  UNL     1      26.521  -6.662 -40.067  0.00  0.00    +0.000 OA
ATOM      4  H6  UNL     1      25.454  -9.736 -39.926  0.00  0.00    +0.000 HD
ENDROOT
BRANCH   2   5
ATOM      5  C7  UNL     1      24.707  -7.494 -41.352  0.00  0.00    +0.000 A 
ATOM      6  C8  UNL     1      23.493  -6.901 -40.965  0.00  0.00    +0.000 A 
ATOM      7  C9  UNL     1      22.449  -6.755 -41.883  0.00  0.00    +0.000 A 
ATOM      8  C10 UNL     1      22.593  -7.202 -43.207  0.00  0.00    +0.000 A 
ATOM      9  C18 UNL     1      23.802  -7.805 -43.592  0.00  0.00    +0.000 A 
ATOM     10  C19 UNL     1      24.845  -7.953 -42.674  0.00  0.00    +0.000 A 
BRANCH   8  11
ATOM     11  C11 UNL     1      21.479  -7.040 -44.171  0.00  0.00    +0.000 A 
ATOM     12  N3  UNL     1      20.172  -7.062 -43.806  0.00  0.00    +0.000 NA
ATOM     13  C12 UNL     1      19.355  -6.891 -44.877  0.00  0.00    +0.000 A 
ATOM     14  C13 UNL     1      17.961  -6.869 -44.810  0.00  0.00    +0.000 A 
ATOM     15  C14 UNL     1      17.230  -6.683 -45.996  0.00  0.00    +0.000 A 
ATOM     16  C15 UNL     1      17.896  -6.523 -47.228  0.00  0.00    +0.000 A 
ATOM     17  C16 UNL     1      19.299  -6.546 -47.283  0.00  0.00    +0.000 A 
ATOM     18  C17 UNL     1      19.998  -6.732 -46.092  0.00  0.00    +0.000 A 
ATOM     19  S1  UNL     1      21.655  -6.805 -45.846  0.00  0.00    +0.000 S 
ENDBRANCH   8  11
ENDBRANCH   2   5
BRANCH   1  21
ATOM     20  C5  UNL     1      27.174  -9.279 -37.720  0.00  0.00    +0.000 C 
ATOM     21  N1  UNL     1      27.257  -9.093 -39.000  0.00  0.00    +0.000 NA
BRANCH  20  24
ATOM     22  C2  UNL     1      29.399  -9.746 -34.688  0.00  0.00    +0.000 A 
ATOM     23  C3  UNL     1      28.259  -9.588 -35.502  0.00  0.00    +0.000 A 
ATOM     24  C4  UNL     1      28.387  -9.441 -36.893  0.00  0.00    +0.000 A 
ATOM     25  C20 UNL     1      29.669  -9.451 -37.469  0.00  0.00    +0.000 A 
ATOM     26  C21 UNL     1      30.801  -9.607 -36.666  0.00  0.00    +0.000 A 
ATOM     27  C22 UNL     1      30.670  -9.753 -35.279  0.00  0.00    +0.000 A 
BRANCH  22  29
ATOM     28  C1  UNL     1      29.396  -8.824 -32.362  0.00  0.00    +0.000 C 
ATOM     29  O1  UNL     1      29.309  -9.895 -33.294  0.00  0.00    +0.000 OA
ENDBRANCH  22  29
BRANCH  27  30
ATOM     30  O3  UNL     1      31.801  -9.908 -34.480  0.00  0.00    +0.000 OA
ATOM     31  H17 UNL     1      32.165 -10.825 -34.246  0.00  0.00    +0.000 HD
ENDBRANCH  27  30
ENDBRANCH  20  24
ENDBRANCH   1  21
TORSDOF 6
ENDMDL
