MODEL 1
REMARK VINA RESULT:    -7.287      0.000      0.000
REMARK INTER + INTRA:         -13.551
REMARK INTER:                 -11.759
REMARK INTRA:                  -1.792
REMARK UNBOUND:                -1.792
REMARK  Name = resultss/4CJN/ligands/lig_347_t2.pdb
REMARK  11 active torsions:
REMARK  status: ('A' for Active; 'I' for Inactive)
REMARK    1  A    between atoms: C1_2  and  C2_3
REMARK    2  A    between atoms: C2_3  and  N1_4
REMARK    3  A    between atoms: C4_6  and  C5_7
REMARK    4  A    between atoms: C5_7  and  O2_8
REMARK    5  A    between atoms: O2_8  and  C6_9
REMARK    6  A    between atoms: C9_12  and  C10_13
REMARK    7  A    between atoms: C17_21  and  O3_22
REMARK    8  A    between atoms: N3_23  and  N4_24
REMARK    9  A    between atoms: N4_24  and  C18_25
REMARK   10  A    between atoms: N7_35  and  C26_36
REMARK   11  A    between atoms: C29_39  and  N8_40
REMARK                            x       y       z     vdW  Elec       q    Type
REMARK                         _______ _______ _______ _____ _____    ______ ____
ROOT
ATOM      1  C6  UNL     1      25.299  -8.292 -37.659  0.00  0.00    +0.000 A 
ATOM      2  C7  UNL     1      26.135  -8.908 -36.708  0.00  0.00    +0.000 A 
ATOM      3  C8  UNL     1      26.787  -8.141 -35.738  0.00  0.00    +0.000 A 
ATOM      4  C9  UNL     1      26.625  -6.745 -35.702  0.00  0.00    +0.000 A 
ATOM      5  C24 UNL     1      25.763  -6.137 -36.638  0.00  0.00    +0.000 A 
ATOM      6  C25 UNL     1      25.120  -6.904 -37.614  0.00  0.00    +0.000 A 
ENDROOT
BRANCH   4   7
ATOM      7  C10 UNL     1      27.314  -5.949 -34.617  0.00  0.00    +0.000 C 
ATOM      8  N2  UNL     1      28.751  -5.942 -34.864  0.00  0.00    +0.000 NA
ATOM      9  C11 UNL     1      29.631  -6.576 -34.148  0.00  0.00    +0.000 A 
ATOM     10  C12 UNL     1      30.972  -6.529 -34.555  0.00  0.00    +0.000 A 
ATOM     11  C13 UNL     1      31.954  -7.216 -33.845  0.00  0.00    +0.000 A 
ATOM     12  C14 UNL     1      31.606  -7.949 -32.713  0.00  0.00    +0.000 A 
ATOM     13  C15 UNL     1      30.278  -7.996 -32.284  0.00  0.00    +0.000 A 
ATOM     14  C16 UNL     1      29.259  -7.313 -32.995  0.00  0.00    +0.000 A 
ATOM     15  C17 UNL     1      27.962  -7.312 -32.590  0.00  0.00    +0.000 C 
ATOM     16  N3  UNL     1      26.997  -6.476 -33.281  0.00  0.00    +0.000 N 
BRANCH  15  17
ATOM     17  O3  UNL     1      27.519  -8.118 -31.532  0.00  0.00    +0.000 OA
ATOM     18  H13 UNL     1      27.395  -9.119 -31.572  0.00  0.00    +0.000 HD
ENDBRANCH  15  17
BRANCH  16  19
ATOM     19  N4  UNL     1      25.691  -6.239 -32.790  0.00  0.00    +0.000 N 
ATOM     20  H14 UNL     1      25.546  -5.487 -32.073  0.00  0.00    +0.000 HD
BRANCH  19  21
ATOM     21  C18 UNL     1      24.510  -6.868 -33.300  0.00  0.00    +0.000 A 
ATOM     22  C19 UNL     1      23.523  -6.100 -33.934  0.00  0.00    +0.000 A 
ATOM     23  C20 UNL     1      22.390  -6.726 -34.467  0.00  0.00    +0.000 A 
ATOM     24  C21 UNL     1      22.242  -8.114 -34.363  0.00  0.00    +0.000 A 
ATOM     25  C22 UNL     1      23.230  -8.881 -33.737  0.00  0.00    +0.000 A 
ATOM     26  C23 UNL     1      24.370  -8.260 -33.214  0.00  0.00    +0.000 A 
ENDBRANCH  19  21
ENDBRANCH  16  19
ENDBRANCH   4   7
BRANCH   1  27
ATOM     27  O2  UNL     1      24.638  -9.019 -38.662  0.00  0.00    +0.000 OA
BRANCH  27  28
ATOM     28  C5  UNL     1      24.921  -8.910 -40.054  0.00  0.00    +0.000 C 
BRANCH  28  31
ATOM     29  N1  UNL     1      28.536  -8.841 -40.336  0.00  0.00    +0.000 N 
ATOM     30  C3  UNL     1      27.420  -9.488 -39.959  0.00  0.00    +0.000 A 
ATOM     31  C4  UNL     1      26.376  -8.636 -40.248  0.00  0.00    +0.000 A 
ATOM     32  N5  UNL     1      26.876  -7.517 -40.810  0.00  0.00    +0.000 NA
ATOM     33  N6  UNL     1      28.192  -7.670 -40.852  0.00  0.00    +0.000 NA
BRANCH  29  34
ATOM     34  C2  UNL     1      29.902  -9.348 -40.275  0.00  0.00    +0.000 C 
BRANCH  34  36
ATOM     35  O1  UNL     1      29.286 -10.373 -42.334  0.00  0.00    +0.000 OA
ATOM     36  C1  UNL     1      30.202 -10.172 -41.491  0.00  0.00    +0.000 C 
ATOM     37  N7  UNL     1      31.495 -10.778 -41.655  0.00  0.00    +0.000 N 
ATOM     38  H22 UNL     1      32.125 -10.817 -40.822  0.00  0.00    +0.000 HD
BRANCH  37  39
ATOM     39  C26 UNL     1      31.937 -11.433 -42.857  0.00  0.00    +0.000 A 
ATOM     40  C27 UNL     1      31.541 -12.753 -43.107  0.00  0.00    +0.000 A 
ATOM     41  C28 UNL     1      31.982 -13.423 -44.253  0.00  0.00    +0.000 A 
ATOM     42  C29 UNL     1      32.842 -12.786 -45.165  0.00  0.00    +0.000 A 
ATOM     43  C30 UNL     1      33.254 -11.470 -44.903  0.00  0.00    +0.000 A 
ATOM     44  C31 UNL     1      32.812 -10.800 -43.757  0.00  0.00    +0.000 A 
BRANCH  42  45
ATOM     45  N8  UNL     1      33.311 -13.476 -46.337  0.00  0.00    +0.000 N 
ATOM     46  O4  UNL     1      33.809 -12.844 -47.290  0.00  0.00    +0.000 OA
ATOM     47  O5  UNL     1      33.219 -14.846 -46.426  0.00  0.00    +0.000 OA
ENDBRANCH  42  45
ENDBRANCH  37  39
ENDBRANCH  34  36
ENDBRANCH  29  34
ENDBRANCH  28  31
ENDBRANCH  27  28
ENDBRANCH   1  27
TORSDOF 11
ENDMDL
MODEL 2
REMARK VINA RESULT:    -6.541      4.944      9.023
REMARK INTER + INTRA:         -12.348
REMARK INTER:                 -10.546
REMARK INTRA:                  -1.802
REMARK UNBOUND:                -1.792
REMARK  Name = resultss/4CJN/ligands/lig_347_t2.pdb
REMARK  11 active torsions:
REMARK  status: ('A' for Active; 'I' for Inactive)
REMARK    1  A    between atoms: C1_2  and  C2_3
REMARK    2  A    between atoms: C2_3  and  N1_4
REMARK    3  A    between atoms: C4_6  and  C5_7
REMARK    4  A    between atoms: C5_7  and  O2_8
REMARK    5  A    between atoms: O2_8  and  C6_9
REMARK    6  A    between atoms: C9_12  and  C10_13
REMARK    7  A    between atoms: C17_21  and  O3_22
REMARK    8  A    between atoms: N3_23  and  N4_24
REMARK    9  A    between atoms: N4_24  and  C18_25
REMARK   10  A    between atoms: N7_35  and  C26_36
REMARK   11  A    between atoms: C29_39  and  N8_40
REMARK                            x       y       z     vdW  Elec       q    Type
REMARK                         _______ _______ _______ _____ _____    ______ ____
ROOT
ATOM      1  C6  UNL     1      25.505  -9.189 -41.102  0.00  0.00    +0.000 A 
ATOM      2  C7  UNL     1      25.350  -7.838 -40.733  0.00  0.00    +0.000 A 
ATOM      3  C8  UNL     1      25.006  -6.879 -41.690  0.00  0.00    +0.000 A 
ATOM      4  C9  UNL     1      24.816  -7.245 -43.034  0.00  0.00    +0.000 A 
ATOM      5  C24 UNL     1      24.942  -8.603 -43.392  0.00  0.00    +0.000 A 
ATOM      6  C25 UNL     1      25.297  -9.559 -42.436  0.00  0.00    +0.000 A 
ENDROOT
BRANCH   4   7
ATOM      7  C10 UNL     1      24.407  -6.190 -44.036  0.00  0.00    +0.000 C 
ATOM      8  N2  UNL     1      22.956  -6.195 -44.176  0.00  0.00    +0.000 NA
ATOM      9  C11 UNL     1      22.312  -6.609 -45.225  0.00  0.00    +0.000 A 
ATOM     10  C12 UNL     1      20.910  -6.616 -45.181  0.00  0.00    +0.000 A 
ATOM     11  C13 UNL     1      20.168  -7.080 -46.265  0.00  0.00    +0.000 A 
ATOM     12  C14 UNL     1      20.820  -7.531 -47.410  0.00  0.00    +0.000 A 
ATOM     13  C15 UNL     1      22.215  -7.518 -47.478  0.00  0.00    +0.000 A 
ATOM     14  C16 UNL     1      22.993  -7.059 -46.385  0.00  0.00    +0.000 A 
ATOM     15  C17 UNL     1      24.350  -7.004 -46.428  0.00  0.00    +0.000 C 
ATOM     16  N3  UNL     1      25.077  -6.391 -45.331  0.00  0.00    +0.000 N 
BRANCH  15  17
ATOM     17  O3  UNL     1      25.077  -7.546 -47.496  0.00  0.00    +0.000 OA
ATOM     18  H13 UNL     1      24.706  -8.170 -48.199  0.00  0.00    +0.000 HD
ENDBRANCH  15  17
BRANCH  16  19
ATOM     19  N4  UNL     1      26.457  -6.086 -45.395  0.00  0.00    +0.000 N 
ATOM     20  H14 UNL     1      26.783  -5.340 -46.057  0.00  0.00    +0.000 HD
BRANCH  19  21
ATOM     21  C18 UNL     1      27.446  -6.635 -44.518  0.00  0.00    +0.000 A 
ATOM     22  C19 UNL     1      27.916  -5.885 -43.431  0.00  0.00    +0.000 A 
ATOM     23  C20 UNL     1      28.854  -6.442 -42.553  0.00  0.00    +0.000 A 
ATOM     24  C21 UNL     1      29.323  -7.744 -42.764  0.00  0.00    +0.000 A 
ATOM     25  C22 UNL     1      28.849  -8.496 -43.845  0.00  0.00    +0.000 A 
ATOM     26  C23 UNL     1      27.903  -7.946 -44.716  0.00  0.00    +0.000 A 
ENDBRANCH  19  21
ENDBRANCH  16  19
ENDBRANCH   4   7
BRANCH   1  27
ATOM     27  O2  UNL     1      25.866 -10.183 -40.181  0.00  0.00    +0.000 OA
BRANCH  27  28
ATOM     28  C5  UNL     1      27.024 -11.006 -40.297  0.00  0.00    +0.000 C 
BRANCH  28  31
ATOM     29  N1  UNL     1      30.213  -9.390 -39.691  0.00  0.00    +0.000 N 
ATOM     30  C3  UNL     1      29.471 -10.240 -40.420  0.00  0.00    +0.000 A 
ATOM     31  C4  UNL     1      28.224 -10.248 -39.833  0.00  0.00    +0.000 A 
ATOM     32  N5  UNL     1      28.232  -9.394 -38.790  0.00  0.00    +0.000 NA
ATOM     33  N6  UNL     1      29.455  -8.886 -38.728  0.00  0.00    +0.000 NA
BRANCH  29  34
ATOM     34  C2  UNL     1      31.598  -9.005 -39.940  0.00  0.00    +0.000 C 
BRANCH  34  36
ATOM     35  O1  UNL     1      33.226 -10.602 -40.625  0.00  0.00    +0.000 OA
ATOM     36  C1  UNL     1      32.214  -9.924 -40.952  0.00  0.00    +0.000 C 
ATOM     37  N7  UNL     1      31.697  -9.977 -42.292  0.00  0.00    +0.000 N 
ATOM     38  H22 UNL     1      31.049  -9.217 -42.595  0.00  0.00    +0.000 HD
BRANCH  37  39
ATOM     39  C26 UNL     1      32.099 -10.945 -43.278  0.00  0.00    +0.000 A 
ATOM     40  C27 UNL     1      33.076 -10.601 -44.222  0.00  0.00    +0.000 A 
ATOM     41  C28 UNL     1      33.461 -11.512 -45.210  0.00  0.00    +0.000 A 
ATOM     42  C29 UNL     1      32.864 -12.783 -45.280  0.00  0.00    +0.000 A 
ATOM     43  C30 UNL     1      31.872 -13.120 -44.346  0.00  0.00    +0.000 A 
ATOM     44  C31 UNL     1      31.487 -12.208 -43.358  0.00  0.00    +0.000 A 
BRANCH  42  45
ATOM     45  N8  UNL     1      33.246 -13.718 -46.305  0.00  0.00    +0.000 N 
ATOM     46  O4  UNL     1      34.176 -13.452 -47.093  0.00  0.00    +0.000 OA
ATOM     47  O5  UNL     1      32.591 -14.922 -46.435  0.00  0.00    +0.000 OA
ENDBRANCH  42  45
ENDBRANCH  37  39
ENDBRANCH  34  36
ENDBRANCH  29  34
ENDBRANCH  28  31
ENDBRANCH  27  28
ENDBRANCH   1  27
TORSDOF 11
ENDMDL
MODEL 3
REMARK VINA RESULT:    -6.326      3.946      6.844
REMARK INTER + INTRA:         -12.001
REMARK INTER:                  -9.424
REMARK INTRA:                  -2.577
REMARK UNBOUND:                -1.792
REMARK  Name = resultss/4CJN/ligands/lig_347_t2.pdb
REMARK  11 active torsions:
REMARK  status: ('A' for Active; 'I' for Inactive)
REMARK    1  A    between atoms: C1_2  and  C2_3
REMARK    2  A    between atoms: C2_3  and  N1_4
REMARK    3  A    between atoms: C4_6  and  C5_7
REMARK    4  A    between atoms: C5_7  and  O2_8
REMARK    5  A    between atoms: O2_8  and  C6_9
REMARK    6  A    between atoms: C9_12  and  C10_13
REMARK    7  A    between atoms: C17_21  and  O3_22
REMARK    8  A    between atoms: N3_23  and  N4_24
REMARK    9  A    between atoms: N4_24  and  C18_25
REMARK   10  A    between atoms: N7_35  and  C26_36
REMARK   11  A    between atoms: C29_39  and  N8_40
REMARK                            x       y       z     vdW  Elec       q    Type
REMARK                         _______ _______ _______ _____ _____    ______ ____
ROOT
ATOM      1  C6  UNL     1      31.054  -9.129 -38.888  0.00  0.00    +0.000 A 
ATOM      2  C7  UNL     1      31.155  -7.758 -38.582  0.00  0.00    +0.000 A 
ATOM      3  C8  UNL     1      31.304  -7.339 -37.257  0.00  0.00    +0.000 A 
ATOM      4  C9  UNL     1      31.347  -8.277 -36.211  0.00  0.00    +0.000 A 
ATOM      5  C24 UNL     1      31.276  -9.650 -36.526  0.00  0.00    +0.000 A 
ATOM      6  C25 UNL     1      31.117 -10.067 -37.850  0.00  0.00    +0.000 A 
ENDROOT
BRANCH   4   7
ATOM      7  C10 UNL     1      31.547  -7.792 -34.793  0.00  0.00    +0.000 C 
ATOM      8  N2  UNL     1      32.785  -8.352 -34.263  0.00  0.00    +0.000 NA
ATOM      9  C11 UNL     1      32.852  -9.265 -33.341  0.00  0.00    +0.000 A 
ATOM     10  C12 UNL     1      34.118  -9.753 -32.985  0.00  0.00    +0.000 A 
ATOM     11  C13 UNL     1      34.248 -10.756 -32.026  0.00  0.00    +0.000 A 
ATOM     12  C14 UNL     1      33.114 -11.272 -31.404  0.00  0.00    +0.000 A 
ATOM     13  C15 UNL     1      31.847 -10.789 -31.735  0.00  0.00    +0.000 A 
ATOM     14  C16 UNL     1      31.687  -9.775 -32.714  0.00  0.00    +0.000 A 
ATOM     15  C17 UNL     1      30.472  -9.260 -33.039  0.00  0.00    +0.000 C 
ATOM     16  N3  UNL     1      30.394  -8.127 -33.943  0.00  0.00    +0.000 N 
BRANCH  15  17
ATOM     17  O3  UNL     1      29.282  -9.808 -32.542  0.00  0.00    +0.000 OA
ATOM     18  H13 UNL     1      28.705 -10.485 -33.020  0.00  0.00    +0.000 HD
ENDBRANCH  15  17
BRANCH  16  19
ATOM     19  N4  UNL     1      29.205  -7.389 -34.154  0.00  0.00    +0.000 N 
ATOM     20  H14 UNL     1      29.024  -6.538 -33.567  0.00  0.00    +0.000 HD
BRANCH  19  21
ATOM     21  C18 UNL     1      28.274  -7.642 -35.212  0.00  0.00    +0.000 A 
ATOM     22  C19 UNL     1      27.846  -6.593 -36.036  0.00  0.00    +0.000 A 
ATOM     23  C20 UNL     1      26.967  -6.854 -37.095  0.00  0.00    +0.000 A 
ATOM     24  C21 UNL     1      26.515  -8.158 -37.326  0.00  0.00    +0.000 A 
ATOM     25  C22 UNL     1      26.949  -9.207 -36.507  0.00  0.00    +0.000 A 
ATOM     26  C23 UNL     1      27.837  -8.952 -35.456  0.00  0.00    +0.000 A 
ENDBRANCH  19  21
ENDBRANCH  16  19
ENDBRANCH   4   7
BRANCH   1  27
ATOM     27  O2  UNL     1      30.886  -9.596 -40.201  0.00  0.00    +0.000 OA
BRANCH  27  28
ATOM     28  C5  UNL     1      29.987  -9.027 -41.149  0.00  0.00    +0.000 C 
BRANCH  28  31
ATOM     29  N1  UNL     1      26.441  -9.571 -40.613  0.00  0.00    +0.000 N 
ATOM     30  C3  UNL     1      27.449  -8.729 -40.897  0.00  0.00    +0.000 A 
ATOM     31  C4  UNL     1      28.597  -9.491 -40.859  0.00  0.00    +0.000 A 
ATOM     32  N5  UNL     1      28.259 -10.767 -40.581  0.00  0.00    +0.000 NA
ATOM     33  N6  UNL     1      26.941 -10.785 -40.437  0.00  0.00    +0.000 NA
BRANCH  29  34
ATOM     34  C2  UNL     1      25.019  -9.249 -40.576  0.00  0.00    +0.000 C 
BRANCH  34  36
ATOM     35  O1  UNL     1      24.261 -10.083 -42.674  0.00  0.00    +0.000 OA
ATOM     36  C1  UNL     1      24.496  -9.064 -41.969  0.00  0.00    +0.000 C 
ATOM     37  N7  UNL     1      24.328  -7.743 -42.510  0.00  0.00    +0.000 N 
ATOM     38  H22 UNL     1      24.783  -6.948 -42.007  0.00  0.00    +0.000 HD
BRANCH  37  39
ATOM     39  C26 UNL     1      23.672  -7.455 -43.757  0.00  0.00    +0.000 A 
ATOM     40  C27 UNL     1      22.296  -7.190 -43.766  0.00  0.00    +0.000 A 
ATOM     41  C28 UNL     1      21.628  -6.937 -44.969  0.00  0.00    +0.000 A 
ATOM     42  C29 UNL     1      22.326  -6.959 -46.190  0.00  0.00    +0.000 A 
ATOM     43  C30 UNL     1      23.700  -7.243 -46.181  0.00  0.00    +0.000 A 
ATOM     44  C31 UNL     1      24.367  -7.496 -44.978  0.00  0.00    +0.000 A 
BRANCH  42  45
ATOM     45  N8  UNL     1      21.640  -6.716 -47.431  0.00  0.00    +0.000 N 
ATOM     46  O4  UNL     1      20.558  -6.095 -47.448  0.00  0.00    +0.000 OA
ATOM     47  O5  UNL     1      22.166  -7.165 -48.621  0.00  0.00    +0.000 OA
ENDBRANCH  42  45
ENDBRANCH  37  39
ENDBRANCH  34  36
ENDBRANCH  29  34
ENDBRANCH  28  31
ENDBRANCH  27  28
ENDBRANCH   1  27
TORSDOF 11
ENDMDL
MODEL 4
REMARK VINA RESULT:    -6.021      4.222     11.176
REMARK INTER + INTRA:         -11.508
REMARK INTER:                  -9.380
REMARK INTRA:                  -2.128
REMARK UNBOUND:                -1.792
REMARK  Name = resultss/4CJN/ligands/lig_347_t2.pdb
REMARK  11 active torsions:
REMARK  status: ('A' for Active; 'I' for Inactive)
REMARK    1  A    between atoms: C1_2  and  C2_3
REMARK    2  A    between atoms: C2_3  and  N1_4
REMARK    3  A    between atoms: C4_6  and  C5_7
REMARK    4  A    between atoms: C5_7  and  O2_8
REMARK    5  A    between atoms: O2_8  and  C6_9
REMARK    6  A    between atoms: C9_12  and  C10_13
REMARK    7  A    between atoms: C17_21  and  O3_22
REMARK    8  A    between atoms: N3_23  and  N4_24
REMARK    9  A    between atoms: N4_24  and  C18_25
REMARK   10  A    between atoms: N7_35  and  C26_36
REMARK   11  A    between atoms: C29_39  and  N8_40
REMARK                            x       y       z     vdW  Elec       q    Type
REMARK                         _______ _______ _______ _____ _____    ______ ____
ROOT
ATOM      1  C6  UNL     1      25.289  -9.613 -41.212  0.00  0.00    +0.000 A 
ATOM      2  C7  UNL     1      25.176  -8.315 -40.677  0.00  0.00    +0.000 A 
ATOM      3  C8  UNL     1      24.815  -7.241 -41.496  0.00  0.00    +0.000 A 
ATOM      4  C9  UNL     1      24.566  -7.439 -42.865  0.00  0.00    +0.000 A 
ATOM      5  C24 UNL     1      24.650  -8.745 -43.390  0.00  0.00    +0.000 A 
ATOM      6  C25 UNL     1      25.022  -9.816 -42.572  0.00  0.00    +0.000 A 
ENDROOT
BRANCH   4   7
ATOM      7  C10 UNL     1      24.140  -6.263 -43.715  0.00  0.00    +0.000 C 
ATOM      8  N2  UNL     1      22.695  -6.302 -43.901  0.00  0.00    +0.000 NA
ATOM      9  C11 UNL     1      22.097  -6.580 -45.021  0.00  0.00    +0.000 A 
ATOM     10  C12 UNL     1      20.697  -6.647 -45.024  0.00  0.00    +0.000 A 
ATOM     11  C13 UNL     1      20.005  -6.973 -46.189  0.00  0.00    +0.000 A 
ATOM     12  C14 UNL     1      20.706  -7.225 -47.365  0.00  0.00    +0.000 A 
ATOM     13  C15 UNL     1      22.100  -7.150 -47.384  0.00  0.00    +0.000 A 
ATOM     14  C16 UNL     1      22.829  -6.829 -46.211  0.00  0.00    +0.000 A 
ATOM     15  C17 UNL     1      24.183  -6.717 -46.201  0.00  0.00    +0.000 C 
ATOM     16  N3  UNL     1      24.853  -6.245 -45.002  0.00  0.00    +0.000 N 
BRANCH  15  17
ATOM     17  O3  UNL     1      24.960  -7.068 -47.312  0.00  0.00    +0.000 OA
ATOM     18  H13 UNL     1      25.932  -7.340 -47.283  0.00  0.00    +0.000 HD
ENDBRANCH  15  17
BRANCH  16  19
ATOM     19  N4  UNL     1      26.220  -5.883 -44.975  0.00  0.00    +0.000 N 
ATOM     20  H14 UNL     1      26.532  -5.034 -45.508  0.00  0.00    +0.000 HD
BRANCH  19  21
ATOM     21  C18 UNL     1      27.208  -6.520 -44.158  0.00  0.00    +0.000 A 
ATOM     22  C19 UNL     1      27.760  -7.746 -44.550  0.00  0.00    +0.000 A 
ATOM     23  C20 UNL     1      28.755  -8.345 -43.768  0.00  0.00    +0.000 A 
ATOM     24  C21 UNL     1      29.194  -7.720 -42.595  0.00  0.00    +0.000 A 
ATOM     25  C22 UNL     1      28.648  -6.491 -42.206  0.00  0.00    +0.000 A 
ATOM     26  C23 UNL     1      27.663  -5.885 -42.993  0.00  0.00    +0.000 A 
ENDBRANCH  19  21
ENDBRANCH  16  19
ENDBRANCH   4   7
BRANCH   1  27
ATOM     27  O2  UNL     1      25.665 -10.718 -40.433  0.00  0.00    +0.000 OA
BRANCH  27  28
ATOM     28  C5  UNL     1      26.834 -11.501 -40.659  0.00  0.00    +0.000 C 
BRANCH  28  31
ATOM     29  N1  UNL     1      29.408  -9.550 -39.010  0.00  0.00    +0.000 N 
ATOM     30  C3  UNL     1      28.141  -9.997 -39.040  0.00  0.00    +0.000 A 
ATOM     31  C4  UNL     1      28.036 -10.749 -40.190  0.00  0.00    +0.000 A 
ATOM     32  N5  UNL     1      29.235 -10.761 -40.809  0.00  0.00    +0.000 NA
ATOM     33  N6  UNL     1      30.049 -10.023 -40.068  0.00  0.00    +0.000 NA
BRANCH  29  34
ATOM     34  C2  UNL     1      30.024  -8.743 -37.962  0.00  0.00    +0.000 C 
BRANCH  34  36
ATOM     35  O1  UNL     1      28.640  -7.013 -37.089  0.00  0.00    +0.000 OA
ATOM     36  C1  UNL     1      28.975  -8.227 -37.024  0.00  0.00    +0.000 C 
ATOM     37  N7  UNL     1      28.410  -9.091 -36.023  0.00  0.00    +0.000 N 
ATOM     38  H22 UNL     1      28.900  -9.992 -35.824  0.00  0.00    +0.000 HD
BRANCH  37  39
ATOM     39  C26 UNL     1      27.283  -8.748 -35.199  0.00  0.00    +0.000 A 
ATOM     40  C27 UNL     1      25.985  -8.940 -35.693  0.00  0.00    +0.000 A 
ATOM     41  C28 UNL     1      24.872  -8.587 -34.924  0.00  0.00    +0.000 A 
ATOM     42  C29 UNL     1      25.038  -8.019 -33.648  0.00  0.00    +0.000 A 
ATOM     43  C30 UNL     1      26.337  -7.810 -33.162  0.00  0.00    +0.000 A 
ATOM     44  C31 UNL     1      27.450  -8.164 -33.931  0.00  0.00    +0.000 A 
BRANCH  42  45
ATOM     45  N8  UNL     1      23.895  -7.639 -32.860  0.00  0.00    +0.000 N 
ATOM     46  O4  UNL     1      23.711  -6.447 -32.543  0.00  0.00    +0.000 OA
ATOM     47  O5  UNL     1      22.987  -8.584 -32.442  0.00  0.00    +0.000 OA
ENDBRANCH  42  45
ENDBRANCH  37  39
ENDBRANCH  34  36
ENDBRANCH  29  34
ENDBRANCH  28  31
ENDBRANCH  27  28
ENDBRANCH   1  27
TORSDOF 11
ENDMDL
MODEL 5
REMARK VINA RESULT:    -5.768      5.013     10.790
REMARK INTER + INTRA:         -11.100
REMARK INTER:                  -8.973
REMARK INTRA:                  -2.127
REMARK UNBOUND:                -1.792
REMARK  Name = resultss/4CJN/ligands/lig_347_t2.pdb
REMARK  11 active torsions:
REMARK  status: ('A' for Active; 'I' for Inactive)
REMARK    1  A    between atoms: C1_2  and  C2_3
REMARK    2  A    between atoms: C2_3  and  N1_4
REMARK    3  A    between atoms: C4_6  and  C5_7
REMARK    4  A    between atoms: C5_7  and  O2_8
REMARK    5  A    between atoms: O2_8  and  C6_9
REMARK    6  A    between atoms: C9_12  and  C10_13
REMARK    7  A    between atoms: C17_21  and  O3_22
REMARK    8  A    between atoms: N3_23  and  N4_24
REMARK    9  A    between atoms: N4_24  and  C18_25
REMARK   10  A    between atoms: N7_35  and  C26_36
REMARK   11  A    between atoms: C29_39  and  N8_40
REMARK                            x       y       z     vdW  Elec       q    Type
REMARK                         _______ _______ _______ _____ _____    ______ ____
ROOT
ATOM      1  C6  UNL     1      25.529  -9.540 -41.201  0.00  0.00    +0.000 A 
ATOM      2  C7  UNL     1      25.575  -8.195 -40.785  0.00  0.00    +0.000 A 
ATOM      3  C8  UNL     1      25.298  -7.166 -41.689  0.00  0.00    +0.000 A 
ATOM      4  C9  UNL     1      24.978  -7.456 -43.027  0.00  0.00    +0.000 A 
ATOM      5  C24 UNL     1      24.904  -8.805 -43.430  0.00  0.00    +0.000 A 
ATOM      6  C25 UNL     1      25.191  -9.833 -42.527  0.00  0.00    +0.000 A 
ENDROOT
BRANCH   4   7
ATOM      7  C10 UNL     1      24.647  -6.321 -43.970  0.00  0.00    +0.000 C 
ATOM      8  N2  UNL     1      23.210  -6.304 -44.216  0.00  0.00    +0.000 NA
ATOM      9  C11 UNL     1      22.644  -6.628 -45.340  0.00  0.00    +0.000 A 
ATOM     10  C12 UNL     1      21.244  -6.628 -45.400  0.00  0.00    +0.000 A 
ATOM     11  C13 UNL     1      20.583  -6.999 -46.569  0.00  0.00    +0.000 A 
ATOM     12  C14 UNL     1      21.317  -7.363 -47.694  0.00  0.00    +0.000 A 
ATOM     13  C15 UNL     1      22.713  -7.356 -47.658  0.00  0.00    +0.000 A 
ATOM     14  C16 UNL     1      23.409  -6.991 -46.478  0.00  0.00    +0.000 A 
ATOM     15  C17 UNL     1      24.766  -6.944 -46.416  0.00  0.00    +0.000 C 
ATOM     16  N3  UNL     1      25.410  -6.425 -45.223  0.00  0.00    +0.000 N 
BRANCH  15  17
ATOM     17  O3  UNL     1      25.569  -7.406 -47.468  0.00  0.00    +0.000 OA
ATOM     18  H13 UNL     1      26.308  -8.088 -47.382  0.00  0.00    +0.000 HD
ENDBRANCH  15  17
BRANCH  16  19
ATOM     19  N4  UNL     1      26.792  -6.127 -45.161  0.00  0.00    +0.000 N 
ATOM     20  H14 UNL     1      27.179  -5.375 -45.782  0.00  0.00    +0.000 HD
BRANCH  19  21
ATOM     21  C18 UNL     1      27.697  -6.691 -44.206  0.00  0.00    +0.000 A 
ATOM     22  C19 UNL     1      28.087  -8.033 -44.314  0.00  0.00    +0.000 A 
ATOM     23  C20 UNL     1      29.003  -8.569 -43.401  0.00  0.00    +0.000 A 
ATOM     24  C21 UNL     1      29.526  -7.766 -42.381  0.00  0.00    +0.000 A 
ATOM     25  C22 UNL     1      29.142  -6.424 -42.276  0.00  0.00    +0.000 A 
ATOM     26  C23 UNL     1      28.236  -5.883 -43.194  0.00  0.00    +0.000 A 
ENDBRANCH  19  21
ENDBRANCH  16  19
ENDBRANCH   4   7
BRANCH   1  27
ATOM     27  O2  UNL     1      25.816 -10.605 -40.333  0.00  0.00    +0.000 OA
BRANCH  27  28
ATOM     28  C5  UNL     1      27.128 -11.090 -40.060  0.00  0.00    +0.000 C 
BRANCH  28  31
ATOM     29  N1  UNL     1      28.861  -8.676 -37.981  0.00  0.00    +0.000 N 
ATOM     30  C3  UNL     1      28.558  -9.136 -39.207  0.00  0.00    +0.000 A 
ATOM     31  C4  UNL     1      27.763 -10.244 -39.006  0.00  0.00    +0.000 A 
ATOM     32  N5  UNL     1      27.584 -10.412 -37.680  0.00  0.00    +0.000 NA
ATOM     33  N6  UNL     1      28.263  -9.443 -37.081  0.00  0.00    +0.000 NA
BRANCH  29  34
ATOM     34  C2  UNL     1      29.647  -7.489 -37.664  0.00  0.00    +0.000 C 
BRANCH  34  36
ATOM     35  O1  UNL     1      30.585  -6.779 -35.593  0.00  0.00    +0.000 OA
ATOM     36  C1  UNL     1      30.454  -7.721 -36.421  0.00  0.00    +0.000 C 
ATOM     37  N7  UNL     1      31.119  -8.978 -36.214  0.00  0.00    +0.000 N 
ATOM     38  H22 UNL     1      31.212  -9.622 -37.031  0.00  0.00    +0.000 HD
BRANCH  37  39
ATOM     39  C26 UNL     1      31.764  -9.361 -34.987  0.00  0.00    +0.000 A 
ATOM     40  C27 UNL     1      30.982  -9.736 -33.886  0.00  0.00    +0.000 A 
ATOM     41  C28 UNL     1      31.583 -10.084 -32.672  0.00  0.00    +0.000 A 
ATOM     42  C29 UNL     1      32.982 -10.048 -32.533  0.00  0.00    +0.000 A 
ATOM     43  C30 UNL     1      33.763  -9.653 -33.630  0.00  0.00    +0.000 A 
ATOM     44  C31 UNL     1      33.161  -9.306 -34.844  0.00  0.00    +0.000 A 
BRANCH  42  45
ATOM     45  N8  UNL     1      33.604 -10.388 -31.281  0.00  0.00    +0.000 N 
ATOM     46  O4  UNL     1      33.902 -11.572 -31.021  0.00  0.00    +0.000 OA
ATOM     47  O5  UNL     1      33.880  -9.415 -30.348  0.00  0.00    +0.000 OA
ENDBRANCH  42  45
ENDBRANCH  37  39
ENDBRANCH  34  36
ENDBRANCH  29  34
ENDBRANCH  28  31
ENDBRANCH  27  28
ENDBRANCH   1  27
TORSDOF 11
ENDMDL
MODEL 6
REMARK VINA RESULT:    -5.669      3.285      8.249
REMARK INTER + INTRA:         -10.941
REMARK INTER:                  -8.229
REMARK INTRA:                  -2.712
REMARK UNBOUND:                -1.792
REMARK  Name = resultss/4CJN/ligands/lig_347_t2.pdb
REMARK  11 active torsions:
REMARK  status: ('A' for Active; 'I' for Inactive)
REMARK    1  A    between atoms: C1_2  and  C2_3
REMARK    2  A    between atoms: C2_3  and  N1_4
REMARK    3  A    between atoms: C4_6  and  C5_7
REMARK    4  A    between atoms: C5_7  and  O2_8
REMARK    5  A    between atoms: O2_8  and  C6_9
REMARK    6  A    between atoms: C9_12  and  C10_13
REMARK    7  A    between atoms: C17_21  and  O3_22
REMARK    8  A    between atoms: N3_23  and  N4_24
REMARK    9  A    between atoms: N4_24  and  C18_25
REMARK   10  A    between atoms: N7_35  and  C26_36
REMARK   11  A    between atoms: C29_39  and  N8_40
REMARK                            x       y       z     vdW  Elec       q    Type
REMARK                         _______ _______ _______ _____ _____    ______ ____
ROOT
ATOM      1  C6  UNL     1      31.807  -9.429 -38.531  0.00  0.00    +0.000 A 
ATOM      2  C7  UNL     1      32.901  -8.563 -38.340  0.00  0.00    +0.000 A 
ATOM      3  C8  UNL     1      33.289  -8.188 -37.050  0.00  0.00    +0.000 A 
ATOM      4  C9  UNL     1      32.589  -8.662 -35.927  0.00  0.00    +0.000 A 
ATOM      5  C24 UNL     1      31.514  -9.554 -36.123  0.00  0.00    +0.000 A 
ATOM      6  C25 UNL     1      31.121  -9.919 -37.413  0.00  0.00    +0.000 A 
ENDROOT
BRANCH   4   7
ATOM      7  C10 UNL     1      33.057  -8.267 -34.545  0.00  0.00    +0.000 C 
ATOM      8  N2  UNL     1      33.805  -9.372 -33.956  0.00  0.00    +0.000 NA
ATOM      9  C11 UNL     1      33.389 -10.108 -32.969  0.00  0.00    +0.000 A 
ATOM     10  C12 UNL     1      34.194 -11.180 -32.559  0.00  0.00    +0.000 A 
ATOM     11  C13 UNL     1      33.783 -12.023 -31.528  0.00  0.00    +0.000 A 
ATOM     12  C14 UNL     1      32.568 -11.794 -30.888  0.00  0.00    +0.000 A 
ATOM     13  C15 UNL     1      31.759 -10.723 -31.274  0.00  0.00    +0.000 A 
ATOM     14  C16 UNL     1      32.150  -9.857 -32.326  0.00  0.00    +0.000 A 
ATOM     15  C17 UNL     1      31.403  -8.788 -32.707  0.00  0.00    +0.000 C 
ATOM     16  N3  UNL     1      31.930  -7.860 -33.692  0.00  0.00    +0.000 N 
BRANCH  15  17
ATOM     17  O3  UNL     1      30.120  -8.563 -32.190  0.00  0.00    +0.000 OA
ATOM     18  H13 UNL     1      29.838  -7.753 -31.657  0.00  0.00    +0.000 HD
ENDBRANCH  15  17
BRANCH  16  19
ATOM     19  N4  UNL     1      31.328  -6.611 -33.974  0.00  0.00    +0.000 N 
ATOM     20  H14 UNL     1      31.742  -5.742 -33.557  0.00  0.00    +0.000 HD
BRANCH  19  21
ATOM     21  C18 UNL     1      30.259  -6.422 -34.907  0.00  0.00    +0.000 A 
ATOM     22  C19 UNL     1      30.535  -6.027 -36.222  0.00  0.00    +0.000 A 
ATOM     23  C20 UNL     1      29.489  -5.883 -37.141  0.00  0.00    +0.000 A 
ATOM     24  C21 UNL     1      28.170  -6.131 -36.745  0.00  0.00    +0.000 A 
ATOM     25  C22 UNL     1      27.894  -6.533 -35.433  0.00  0.00    +0.000 A 
ATOM     26  C23 UNL     1      28.938  -6.689 -34.516  0.00  0.00    +0.000 A 
ENDBRANCH  19  21
ENDBRANCH  16  19
ENDBRANCH   4   7
BRANCH   1  27
ATOM     27  O2  UNL     1      31.371  -9.820 -39.807  0.00  0.00    +0.000 OA
BRANCH  27  28
ATOM     28  C5  UNL     1      30.826  -8.931 -40.778  0.00  0.00    +0.000 C 
BRANCH  28  31
ATOM     29  N1  UNL     1      27.205  -8.736 -40.804  0.00  0.00    +0.000 N 
ATOM     30  C3  UNL     1      28.390  -8.143 -40.584  0.00  0.00    +0.000 A 
ATOM     31  C4  UNL     1      29.344  -9.105 -40.838  0.00  0.00    +0.000 A 
ATOM     32  N5  UNL     1      28.722 -10.238 -41.224  0.00  0.00    +0.000 NA
ATOM     33  N6  UNL     1      27.421  -9.983 -41.195  0.00  0.00    +0.000 NA
BRANCH  29  34
ATOM     34  C2  UNL     1      25.888  -8.115 -40.712  0.00  0.00    +0.000 C 
BRANCH  34  36
ATOM     35  O1  UNL     1      25.591  -6.524 -38.965  0.00  0.00    +0.000 OA
ATOM     36  C1  UNL     1      25.590  -7.742 -39.291  0.00  0.00    +0.000 C 
ATOM     37  N7  UNL     1      25.375  -8.765 -38.304  0.00  0.00    +0.000 N 
ATOM     38  H22 UNL     1      25.648  -9.744 -38.547  0.00  0.00    +0.000 HD
BRANCH  37  39
ATOM     39  C26 UNL     1      24.912  -8.515 -36.965  0.00  0.00    +0.000 A 
ATOM     40  C27 UNL     1      25.628  -9.040 -35.880  0.00  0.00    +0.000 A 
ATOM     41  C28 UNL     1      25.182  -8.837 -34.570  0.00  0.00    +0.000 A 
ATOM     42  C29 UNL     1      24.001  -8.116 -34.322  0.00  0.00    +0.000 A 
ATOM     43  C30 UNL     1      23.274  -7.608 -35.410  0.00  0.00    +0.000 A 
ATOM     44  C31 UNL     1      23.721  -7.811 -36.720  0.00  0.00    +0.000 A 
BRANCH  42  45
ATOM     45  N8  UNL     1      23.530  -7.919 -32.977  0.00  0.00    +0.000 N 
ATOM     46  O4  UNL     1      23.398  -6.769 -32.511  0.00  0.00    +0.000 OA
ATOM     47  O5  UNL     1      23.217  -8.997 -32.180  0.00  0.00    +0.000 OA
ENDBRANCH  42  45
ENDBRANCH  37  39
ENDBRANCH  34  36
ENDBRANCH  29  34
ENDBRANCH  28  31
ENDBRANCH  27  28
ENDBRANCH   1  27
TORSDOF 11
ENDMDL
MODEL 7
REMARK VINA RESULT:    -5.588      4.955      8.416
REMARK INTER + INTRA:         -10.810
REMARK INTER:                 -10.023
REMARK INTRA:                  -0.788
REMARK UNBOUND:                -1.792
REMARK  Name = resultss/4CJN/ligands/lig_347_t2.pdb
REMARK  11 active torsions:
REMARK  status: ('A' for Active; 'I' for Inactive)
REMARK    1  A    between atoms: C1_2  and  C2_3
REMARK    2  A    between atoms: C2_3  and  N1_4
REMARK    3  A    between atoms: C4_6  and  C5_7
REMARK    4  A    between atoms: C5_7  and  O2_8
REMARK    5  A    between atoms: O2_8  and  C6_9
REMARK    6  A    between atoms: C9_12  and  C10_13
REMARK    7  A    between atoms: C17_21  and  O3_22
REMARK    8  A    between atoms: N3_23  and  N4_24
REMARK    9  A    between atoms: N4_24  and  C18_25
REMARK   10  A    between atoms: N7_35  and  C26_36
REMARK   11  A    between atoms: C29_39  and  N8_40
REMARK                            x       y       z     vdW  Elec       q    Type
REMARK                         _______ _______ _______ _____ _____    ______ ____
ROOT
ATOM      1  C6  UNL     1      27.012  -8.681 -39.994  0.00  0.00    +0.000 A 
ATOM      2  C7  UNL     1      26.293  -7.882 -39.085  0.00  0.00    +0.000 A 
ATOM      3  C8  UNL     1      26.360  -8.137 -37.712  0.00  0.00    +0.000 A 
ATOM      4  C9  UNL     1      27.140  -9.198 -37.219  0.00  0.00    +0.000 A 
ATOM      5  C24 UNL     1      27.882  -9.976 -38.131  0.00  0.00    +0.000 A 
ATOM      6  C25 UNL     1      27.805  -9.726 -39.504  0.00  0.00    +0.000 A 
ENDROOT
BRANCH   4   7
ATOM      7  C10 UNL     1      27.221  -9.423 -35.726  0.00  0.00    +0.000 C 
ATOM      8  N2  UNL     1      25.874  -9.561 -35.186  0.00  0.00    +0.000 NA
ATOM      9  C11 UNL     1      25.282  -8.683 -34.433  0.00  0.00    +0.000 A 
ATOM     10  C12 UNL     1      23.956  -8.929 -34.049  0.00  0.00    +0.000 A 
ATOM     11  C13 UNL     1      23.261  -8.007 -33.269  0.00  0.00    +0.000 A 
ATOM     12  C14 UNL     1      23.889  -6.836 -32.855  0.00  0.00    +0.000 A 
ATOM     13  C15 UNL     1      25.214  -6.580 -33.216  0.00  0.00    +0.000 A 
ATOM     14  C16 UNL     1      25.940  -7.498 -34.016  0.00  0.00    +0.000 A 
ATOM     15  C17 UNL     1      27.239  -7.296 -34.361  0.00  0.00    +0.000 C 
ATOM     16  N3  UNL     1      27.964  -8.342 -35.060  0.00  0.00    +0.000 N 
BRANCH  15  17
ATOM     17  O3  UNL     1      27.898  -6.092 -34.080  0.00  0.00    +0.000 OA
ATOM     18  H13 UNL     1      27.455  -5.189 -33.998  0.00  0.00    +0.000 HD
ENDBRANCH  15  17
BRANCH  16  19
ATOM     19  N4  UNL     1      29.366  -8.312 -35.252  0.00  0.00    +0.000 N 
ATOM     20  H14 UNL     1      29.755  -7.789 -36.074  0.00  0.00    +0.000 HD
BRANCH  19  21
ATOM     21  C18 UNL     1      30.319  -8.839 -34.323  0.00  0.00    +0.000 A 
ATOM     22  C19 UNL     1      29.890  -9.625 -33.245  0.00  0.00    +0.000 A 
ATOM     23  C20 UNL     1      30.830 -10.171 -32.363  0.00  0.00    +0.000 A 
ATOM     24  C21 UNL     1      32.195  -9.929 -32.556  0.00  0.00    +0.000 A 
ATOM     25  C22 UNL     1      32.624  -9.150 -33.637  0.00  0.00    +0.000 A 
ATOM     26  C23 UNL     1      31.688  -8.613 -34.527  0.00  0.00    +0.000 A 
ENDBRANCH  19  21
ENDBRANCH  16  19
ENDBRANCH   4   7
BRANCH   1  27
ATOM     27  O2  UNL     1      26.961  -8.474 -41.381  0.00  0.00    +0.000 OA
BRANCH  27  28
ATOM     28  C5  UNL     1      26.780  -7.203 -41.998  0.00  0.00    +0.000 C 
BRANCH  28  31
ATOM     29  N1  UNL     1      26.843  -7.401 -45.619  0.00  0.00    +0.000 N 
ATOM     30  C3  UNL     1      26.134  -7.340 -44.479  0.00  0.00    +0.000 A 
ATOM     31  C4  UNL     1      27.062  -7.313 -43.461  0.00  0.00    +0.000 A 
ATOM     32  N5  UNL     1      28.298  -7.332 -44.002  0.00  0.00    +0.000 NA
ATOM     33  N6  UNL     1      28.133  -7.385 -45.316  0.00  0.00    +0.000 NA
BRANCH  29  34
ATOM     34  C2  UNL     1      26.313  -7.405 -46.978  0.00  0.00    +0.000 C 
BRANCH  34  36
ATOM     35  O1  UNL     1      24.586  -5.895 -47.618  0.00  0.00    +0.000 OA
ATOM     36  C1  UNL     1      24.888  -6.938 -46.977  0.00  0.00    +0.000 C 
ATOM     37  N7  UNL     1      23.898  -7.635 -46.202  0.00  0.00    +0.000 N 
ATOM     38  H22 UNL     1      24.232  -8.315 -45.482  0.00  0.00    +0.000 HD
BRANCH  37  39
ATOM     39  C26 UNL     1      22.485  -7.378 -46.273  0.00  0.00    +0.000 A 
ATOM     40  C27 UNL     1      21.812  -6.913 -45.134  0.00  0.00    +0.000 A 
ATOM     41  C28 UNL     1      20.433  -6.685 -45.168  0.00  0.00    +0.000 A 
ATOM     42  C29 UNL     1      19.697  -6.932 -46.341  0.00  0.00    +0.000 A 
ATOM     43  C30 UNL     1      20.369  -7.416 -47.474  0.00  0.00    +0.000 A 
ATOM     44  C31 UNL     1      21.748  -7.643 -47.440  0.00  0.00    +0.000 A 
BRANCH  42  45
ATOM     45  N8  UNL     1      18.275  -6.714 -46.375  0.00  0.00    +0.000 N 
ATOM     46  O4  UNL     1      17.526  -7.276 -45.550  0.00  0.00    +0.000 OA
ATOM     47  O5  UNL     1      17.716  -5.884 -47.319  0.00  0.00    +0.000 OA
ENDBRANCH  42  45
ENDBRANCH  37  39
ENDBRANCH  34  36
ENDBRANCH  29  34
ENDBRANCH  28  31
ENDBRANCH  27  28
ENDBRANCH   1  27
TORSDOF 11
ENDMDL
MODEL 8
REMARK VINA RESULT:    -5.471      3.186      9.532
REMARK INTER + INTRA:         -10.621
REMARK INTER:                  -8.279
REMARK INTRA:                  -2.342
REMARK UNBOUND:                -1.792
REMARK  Name = resultss/4CJN/ligands/lig_347_t2.pdb
REMARK  11 active torsions:
REMARK  status: ('A' for Active; 'I' for Inactive)
REMARK    1  A    between atoms: C1_2  and  C2_3
REMARK    2  A    between atoms: C2_3  and  N1_4
REMARK    3  A    between atoms: C4_6  and  C5_7
REMARK    4  A    between atoms: C5_7  and  O2_8
REMARK    5  A    between atoms: O2_8  and  C6_9
REMARK    6  A    between atoms: C9_12  and  C10_13
REMARK    7  A    between atoms: C17_21  and  O3_22
REMARK    8  A    between atoms: N3_23  and  N4_24
REMARK    9  A    between atoms: N4_24  and  C18_25
REMARK   10  A    between atoms: N7_35  and  C26_36
REMARK   11  A    between atoms: C29_39  and  N8_40
REMARK                            x       y       z     vdW  Elec       q    Type
REMARK                         _______ _______ _______ _____ _____    ______ ____
ROOT
ATOM      1  C6  UNL     1      27.007  -8.283 -42.790  0.00  0.00    +0.000 A 
ATOM      2  C7  UNL     1      27.273  -9.662 -42.901  0.00  0.00    +0.000 A 
ATOM      3  C8  UNL     1      28.359 -10.229 -42.228  0.00  0.00    +0.000 A 
ATOM      4  C9  UNL     1      29.205  -9.432 -41.438  0.00  0.00    +0.000 A 
ATOM      5  C24 UNL     1      28.917  -8.058 -41.306  0.00  0.00    +0.000 A 
ATOM      6  C25 UNL     1      27.836  -7.491 -41.988  0.00  0.00    +0.000 A 
ENDROOT
BRANCH   4   7
ATOM      7  C10 UNL     1      30.349 -10.082 -40.693  0.00  0.00    +0.000 C 
ATOM      8  N2  UNL     1      30.041 -10.110 -39.268  0.00  0.00    +0.000 NA
ATOM      9  C11 UNL     1      30.634  -9.387 -38.366  0.00  0.00    +0.000 A 
ATOM     10  C12 UNL     1      30.177  -9.475 -37.043  0.00  0.00    +0.000 A 
ATOM     11  C13 UNL     1      30.753  -8.699 -36.040  0.00  0.00    +0.000 A 
ATOM     12  C14 UNL     1      31.800  -7.834 -36.348  0.00  0.00    +0.000 A 
ATOM     13  C15 UNL     1      32.277  -7.742 -37.657  0.00  0.00    +0.000 A 
ATOM     14  C16 UNL     1      31.703  -8.515 -38.698  0.00  0.00    +0.000 A 
ATOM     15  C17 UNL     1      32.162  -8.474 -39.976  0.00  0.00    +0.000 C 
ATOM     16  N3  UNL     1      31.623  -9.396 -40.960  0.00  0.00    +0.000 N 
BRANCH  15  17
ATOM     17  O3  UNL     1      33.130  -7.547 -40.382  0.00  0.00    +0.000 OA
ATOM     18  H13 UNL     1      33.715  -7.633 -41.201  0.00  0.00    +0.000 HD
ENDBRANCH  15  17
BRANCH  16  19
ATOM     19  N4  UNL     1      32.196  -9.579 -42.240  0.00  0.00    +0.000 N 
ATOM     20  H14 UNL     1      32.385  -8.737 -42.838  0.00  0.00    +0.000 HD
BRANCH  19  21
ATOM     21  C18 UNL     1      32.669 -10.834 -42.741  0.00  0.00    +0.000 A 
ATOM     22  C19 UNL     1      33.810 -11.428 -42.186  0.00  0.00    +0.000 A 
ATOM     23  C20 UNL     1      34.244 -12.674 -42.652  0.00  0.00    +0.000 A 
ATOM     24  C21 UNL     1      33.542 -13.324 -43.674  0.00  0.00    +0.000 A 
ATOM     25  C22 UNL     1      32.398 -12.734 -44.224  0.00  0.00    +0.000 A 
ATOM     26  C23 UNL     1      31.954 -11.494 -43.751  0.00  0.00    +0.000 A 
ENDBRANCH  19  21
ENDBRANCH  16  19
ENDBRANCH   4   7
BRANCH   1  27
ATOM     27  O2  UNL     1      25.939  -7.667 -43.461  0.00  0.00    +0.000 OA
BRANCH  27  28
ATOM     28  C5  UNL     1      24.588  -8.117 -43.406  0.00  0.00    +0.000 C 
BRANCH  28  31
ATOM     29  N1  UNL     1      23.172  -6.378 -40.556  0.00  0.00    +0.000 N 
ATOM     30  C3  UNL     1      24.053  -7.268 -41.043  0.00  0.00    +0.000 A 
ATOM     31  C4  UNL     1      23.832  -7.309 -42.403  0.00  0.00    +0.000 A 
ATOM     32  N5  UNL     1      22.851  -6.435 -42.707  0.00  0.00    +0.000 NA
ATOM     33  N6  UNL     1      22.469  -5.883 -41.564  0.00  0.00    +0.000 NA
BRANCH  29  34
ATOM     34  C2  UNL     1      23.041  -5.950 -39.167  0.00  0.00    +0.000 C 
BRANCH  34  36
ATOM     35  O1  UNL     1      25.342  -5.967 -38.556  0.00  0.00    +0.000 OA
ATOM     36  C1  UNL     1      24.197  -6.458 -38.360  0.00  0.00    +0.000 C 
ATOM     37  N7  UNL     1      24.011  -7.533 -37.424  0.00  0.00    +0.000 N 
ATOM     38  H22 UNL     1      23.127  -8.087 -37.487  0.00  0.00    +0.000 HD
BRANCH  37  39
ATOM     39  C26 UNL     1      25.006  -7.970 -36.482  0.00  0.00    +0.000 A 
ATOM     40  C27 UNL     1      25.023  -7.419 -35.193  0.00  0.00    +0.000 A 
ATOM     41  C28 UNL     1      25.998  -7.803 -34.268  0.00  0.00    +0.000 A 
ATOM     42  C29 UNL     1      26.987  -8.739 -34.622  0.00  0.00    +0.000 A 
ATOM     43  C30 UNL     1      26.981  -9.275 -35.918  0.00  0.00    +0.000 A 
ATOM     44  C31 UNL     1      26.005  -8.890 -36.843  0.00  0.00    +0.000 A 
BRANCH  42  45
ATOM     45  N8  UNL     1      28.002  -9.125 -33.678  0.00  0.00    +0.000 N 
ATOM     46  O4  UNL     1      28.300  -8.378 -32.724  0.00  0.00    +0.000 OA
ATOM     47  O5  UNL     1      28.664 -10.324 -33.813  0.00  0.00    +0.000 OA
ENDBRANCH  42  45
ENDBRANCH  37  39
ENDBRANCH  34  36
ENDBRANCH  29  34
ENDBRANCH  28  31
ENDBRANCH  27  28
ENDBRANCH   1  27
TORSDOF 11
ENDMDL
MODEL 9
REMARK VINA RESULT:    -5.466      4.518     11.124
REMARK INTER + INTRA:         -10.612
REMARK INTER:                  -9.563
REMARK INTRA:                  -1.050
REMARK UNBOUND:                -1.792
REMARK  Name = resultss/4CJN/ligands/lig_347_t2.pdb
REMARK  11 active torsions:
REMARK  status: ('A' for Active; 'I' for Inactive)
REMARK    1  A    between atoms: C1_2  and  C2_3
REMARK    2  A    between atoms: C2_3  and  N1_4
REMARK    3  A    between atoms: C4_6  and  C5_7
REMARK    4  A    between atoms: C5_7  and  O2_8
REMARK    5  A    between atoms: O2_8  and  C6_9
REMARK    6  A    between atoms: C9_12  and  C10_13
REMARK    7  A    between atoms: C17_21  and  O3_22
REMARK    8  A    between atoms: N3_23  and  N4_24
REMARK    9  A    between atoms: N4_24  and  C18_25
REMARK   10  A    between atoms: N7_35  and  C26_36
REMARK   11  A    between atoms: C29_39  and  N8_40
REMARK                            x       y       z     vdW  Elec       q    Type
REMARK                         _______ _______ _______ _____ _____    ______ ____
ROOT
ATOM      1  C6  UNL     1      25.152  -8.812 -40.968  0.00  0.00    +0.000 A 
ATOM      2  C7  UNL     1      25.139  -7.423 -40.740  0.00  0.00    +0.000 A 
ATOM      3  C8  UNL     1      24.885  -6.536 -41.790  0.00  0.00    +0.000 A 
ATOM      4  C9  UNL     1      24.646  -7.017 -43.089  0.00  0.00    +0.000 A 
ATOM      5  C24 UNL     1      24.630  -8.410 -43.306  0.00  0.00    +0.000 A 
ATOM      6  C25 UNL     1      24.895  -9.295 -42.257  0.00  0.00    +0.000 A 
ENDROOT
BRANCH   4   7
ATOM      7  C10 UNL     1      24.337  -6.034 -44.196  0.00  0.00    +0.000 C 
ATOM      8  N2  UNL     1      22.892  -5.941 -44.367  0.00  0.00    +0.000 NA
ATOM      9  C11 UNL     1      22.234  -6.402 -45.388  0.00  0.00    +0.000 A 
ATOM     10  C12 UNL     1      20.836  -6.298 -45.375  0.00  0.00    +0.000 A 
ATOM     11  C13 UNL     1      20.077  -6.805 -46.428  0.00  0.00    +0.000 A 
ATOM     12  C14 UNL     1      20.709  -7.411 -47.510  0.00  0.00    +0.000 A 
ATOM     13  C15 UNL     1      22.102  -7.512 -47.547  0.00  0.00    +0.000 A 
ATOM     14  C16 UNL     1      22.896  -7.012 -46.484  0.00  0.00    +0.000 A 
ATOM     15  C17 UNL     1      24.254  -7.066 -46.501  0.00  0.00    +0.000 C 
ATOM     16  N3  UNL     1      25.009  -6.408 -45.450  0.00  0.00    +0.000 N 
BRANCH  15  17
ATOM     17  O3  UNL     1      24.952  -7.761 -47.497  0.00  0.00    +0.000 OA
ATOM     18  H13 UNL     1      24.856  -8.746 -47.699  0.00  0.00    +0.000 HD
ENDBRANCH  15  17
BRANCH  16  19
ATOM     19  N4  UNL     1      26.410  -6.217 -45.510  0.00  0.00    +0.000 N 
ATOM     20  H14 UNL     1      26.805  -5.587 -46.250  0.00  0.00    +0.000 HD
BRANCH  19  21
ATOM     21  C18 UNL     1      27.336  -6.723 -44.543  0.00  0.00    +0.000 A 
ATOM     22  C19 UNL     1      27.818  -8.034 -44.650  0.00  0.00    +0.000 A 
ATOM     23  C20 UNL     1      28.755  -8.509 -43.724  0.00  0.00    +0.000 A 
ATOM     24  C21 UNL     1      29.204  -7.678 -42.692  0.00  0.00    +0.000 A 
ATOM     25  C22 UNL     1      28.728  -6.366 -42.589  0.00  0.00    +0.000 A 
ATOM     26  C23 UNL     1      27.802  -5.884 -43.520  0.00  0.00    +0.000 A 
ENDBRANCH  19  21
ENDBRANCH  16  19
ENDBRANCH   4   7
BRANCH   1  27
ATOM     27  O2  UNL     1      25.419  -9.739 -39.948  0.00  0.00    +0.000 OA
BRANCH  27  28
ATOM     28  C5  UNL     1      26.416  -9.566 -38.945  0.00  0.00    +0.000 C 
BRANCH  28  31
ATOM     29  N1  UNL     1      25.591  -7.710 -35.940  0.00  0.00    +0.000 N 
ATOM     30  C3  UNL     1      26.518  -8.300 -36.714  0.00  0.00    +0.000 A 
ATOM     31  C4  UNL     1      25.830  -8.840 -37.779  0.00  0.00    +0.000 A 
ATOM     32  N5  UNL     1      24.521  -8.546 -37.640  0.00  0.00    +0.000 NA
ATOM     33  N6  UNL     1      24.406  -7.858 -36.513  0.00  0.00    +0.000 NA
BRANCH  29  34
ATOM     34  C2  UNL     1      25.829  -6.958 -34.712  0.00  0.00    +0.000 C 
BRANCH  34  36
ATOM     35  O1  UNL     1      26.630  -8.177 -32.830  0.00  0.00    +0.000 OA
ATOM     36  C1  UNL     1      26.922  -7.604 -33.915  0.00  0.00    +0.000 C 
ATOM     37  N7  UNL     1      28.288  -7.512 -34.351  0.00  0.00    +0.000 N 
ATOM     38  H22 UNL     1      28.518  -6.812 -35.091  0.00  0.00    +0.000 HD
BRANCH  37  39
ATOM     39  C26 UNL     1      29.379  -8.240 -33.760  0.00  0.00    +0.000 A 
ATOM     40  C27 UNL     1      29.655  -9.543 -34.197  0.00  0.00    +0.000 A 
ATOM     41  C28 UNL     1      30.690 -10.283 -33.618  0.00  0.00    +0.000 A 
ATOM     42  C29 UNL     1      31.461  -9.736 -32.576  0.00  0.00    +0.000 A 
ATOM     43  C30 UNL     1      31.171  -8.439 -32.126  0.00  0.00    +0.000 A 
ATOM     44  C31 UNL     1      30.136  -7.699 -32.706  0.00  0.00    +0.000 A 
BRANCH  42  45
ATOM     45  N8  UNL     1      32.517 -10.500 -31.966  0.00  0.00    +0.000 N 
ATOM     46  O4  UNL     1      33.471  -9.928 -31.402  0.00  0.00    +0.000 OA
ATOM     47  O5  UNL     1      32.492 -11.876 -31.994  0.00  0.00    +0.000 OA
ENDBRANCH  42  45
ENDBRANCH  37  39
ENDBRANCH  34  36
ENDBRANCH  29  34
ENDBRANCH  28  31
ENDBRANCH  27  28
ENDBRANCH   1  27
TORSDOF 11
ENDMDL
