MODEL 1
REMARK VINA RESULT:    -7.747      0.000      0.000
REMARK INTER + INTRA:         -12.231
REMARK INTER:                 -11.370
REMARK INTRA:                  -0.861
REMARK UNBOUND:                -0.861
REMARK  Name = resultss/4CJN/ligands/lig_438_t0.pdb
REMARK  10 active torsions:
REMARK  status: ('A' for Active; 'I' for Inactive)
REMARK    1  A    between atoms: C1_1  and  O1_2
REMARK    2  A    between atoms: O1_2  and  C2_3
REMARK    3  A    between atoms: C5_6  and  O2_7
REMARK    4  A    between atoms: O2_7  and  C6_8
REMARK    5  A    between atoms: C7_9  and  N1_10
REMARK    6  A    between atoms: N1_10  and  C8_11
REMARK    7  A    between atoms: C8_11  and  N2_13
REMARK    8  A    between atoms: N2_13  and  N3_14
REMARK    9  A    between atoms: C9_15  and  C10_17
REMARK   10  A    between atoms: C20_28  and  C21_29
REMARK                            x       y       z     vdW  Elec       q    Type
REMARK                         _______ _______ _______ _____ _____    ______ ____
ROOT
ATOM      1  N3  UNL     1      24.758  -9.768 -42.285  0.00  0.00    +0.000 N 
ATOM      2  C9  UNL     1      25.214  -9.643 -40.928  0.00  0.00    +0.000 C 
ATOM      3  O3  UNL     1      24.382  -9.423 -40.006  0.00  0.00    +0.000 OA
ATOM      4  H11 UNL     1      25.352 -10.283 -42.972  0.00  0.00    +0.000 HD
ENDROOT
BRANCH   2   5
ATOM      5  C10 UNL     1      26.647  -9.790 -40.605  0.00  0.00    +0.000 A 
ATOM      6  C11 UNL     1      27.597 -10.022 -41.622  0.00  0.00    +0.000 A 
ATOM      7  C12 UNL     1      28.926 -10.145 -41.237  0.00  0.00    +0.000 A 
ATOM      8  C13 UNL     1      29.317 -10.056 -39.918  0.00  0.00    +0.000 A 
ATOM      9  N4  UNL     1      30.664 -10.144 -39.798  0.00  0.00    +0.000 N 
ATOM     10  C14 UNL     1      31.114 -10.309 -41.061  0.00  0.00    +0.000 A 
ATOM     11  C15 UNL     1      32.439 -10.441 -41.472  0.00  0.00    +0.000 A 
ATOM     12  C16 UNL     1      32.691 -10.588 -42.849  0.00  0.00    +0.000 A 
ATOM     13  C17 UNL     1      31.625 -10.593 -43.777  0.00  0.00    +0.000 A 
ATOM     14  C18 UNL     1      30.296 -10.454 -43.341  0.00  0.00    +0.000 A 
ATOM     15  C19 UNL     1      30.077 -10.317 -41.971  0.00  0.00    +0.000 A 
ATOM     16  C20 UNL     1      28.363  -9.846 -38.914  0.00  0.00    +0.000 A 
ATOM     17  N5  UNL     1      27.057  -9.710 -39.298  0.00  0.00    +0.000 NA
ATOM     18  H13 UNL     1      31.244 -10.065 -38.934  0.00  0.00    +0.000 HD
BRANCH  16  19
ATOM     19  C21 UNL     1      28.707  -9.764 -37.479  0.00  0.00    +0.000 A 
ATOM     20  C22 UNL     1      30.046  -9.658 -37.060  0.00  0.00    +0.000 A 
ATOM     21  C23 UNL     1      30.358  -9.605 -35.698  0.00  0.00    +0.000 A 
ATOM     22  C24 UNL     1      29.340  -9.674 -34.743  0.00  0.00    +0.000 A 
ATOM     23  C25 UNL     1      28.009  -9.804 -35.150  0.00  0.00    +0.000 A 
ATOM     24  C26 UNL     1      27.693  -9.855 -36.511  0.00  0.00    +0.000 A 
ENDBRANCH  16  19
ENDBRANCH   2   5
BRANCH   1  25
ATOM     25  N2  UNL     1      23.456  -9.405 -42.676  0.00  0.00    +0.000 N 
ATOM     26  H10 UNL     1      22.738 -10.158 -42.776  0.00  0.00    +0.000 HD
BRANCH  25  27
ATOM     27  C8  UNL     1      23.117  -8.067 -43.069  0.00  0.00    +0.000 C 
ATOM     28  S1  UNL     1      22.703  -6.981 -41.912  0.00  0.00    +0.000 S 
BRANCH  27  29
ATOM     29  N1  UNL     1      22.892  -7.766 -44.457  0.00  0.00    +0.000 N 
ATOM     30  H9  UNL     1      21.907  -7.789 -44.803  0.00  0.00    +0.000 HD
BRANCH  29  35
ATOM     31  C2  UNL     1      26.296  -7.033 -45.866  0.00  0.00    +0.000 A 
ATOM     32  C3  UNL     1      25.989  -6.911 -47.232  0.00  0.00    +0.000 A 
ATOM     33  C4  UNL     1      24.675  -7.067 -47.676  0.00  0.00    +0.000 A 
ATOM     34  C5  UNL     1      23.639  -7.341 -46.763  0.00  0.00    +0.000 A 
ATOM     35  C7  UNL     1      23.938  -7.446 -45.392  0.00  0.00    +0.000 A 
ATOM     36  C27 UNL     1      25.267  -7.301 -44.958  0.00  0.00    +0.000 A 
BRANCH  31  38
ATOM     37  C1  UNL     1      28.014  -7.301 -44.070  0.00  0.00    +0.000 C 
ATOM     38  O1  UNL     1      27.602  -6.901 -45.373  0.00  0.00    +0.000 OA
ENDBRANCH  31  38
BRANCH  34  39
ATOM     39  O2  UNL     1      22.308  -7.505 -47.178  0.00  0.00    +0.000 OA
ATOM     40  C6  UNL     1      21.722  -6.843 -48.296  0.00  0.00    +0.000 C 
ENDBRANCH  34  39
ENDBRANCH  29  35
ENDBRANCH  27  29
ENDBRANCH  25  27
ENDBRANCH   1  25
TORSDOF 8
ENDMDL
MODEL 2
REMARK VINA RESULT:    -7.738      1.081      4.214
REMARK INTER + INTRA:         -12.217
REMARK INTER:                 -10.614
REMARK INTRA:                  -1.603
REMARK UNBOUND:                -0.861
REMARK  Name = resultss/4CJN/ligands/lig_438_t0.pdb
REMARK  10 active torsions:
REMARK  status: ('A' for Active; 'I' for Inactive)
REMARK    1  A    between atoms: C1_1  and  O1_2
REMARK    2  A    between atoms: O1_2  and  C2_3
REMARK    3  A    between atoms: C5_6  and  O2_7
REMARK    4  A    between atoms: O2_7  and  C6_8
REMARK    5  A    between atoms: C7_9  and  N1_10
REMARK    6  A    between atoms: N1_10  and  C8_11
REMARK    7  A    between atoms: C8_11  and  N2_13
REMARK    8  A    between atoms: N2_13  and  N3_14
REMARK    9  A    between atoms: C9_15  and  C10_17
REMARK   10  A    between atoms: C20_28  and  C21_29
REMARK                            x       y       z     vdW  Elec       q    Type
REMARK                         _______ _______ _______ _____ _____    ______ ____
ROOT
ATOM      1  N3  UNL     1      25.169  -9.918 -42.455  0.00  0.00    +0.000 N 
ATOM      2  C9  UNL     1      25.509  -9.824 -41.062  0.00  0.00    +0.000 C 
ATOM      3  O3  UNL     1      24.596  -9.677 -40.204  0.00  0.00    +0.000 OA
ATOM      4  H11 UNL     1      25.839 -10.379 -43.109  0.00  0.00    +0.000 HD
ENDROOT
BRANCH   2   5
ATOM      5  C10 UNL     1      26.917  -9.919 -40.629  0.00  0.00    +0.000 A 
ATOM      6  C11 UNL     1      27.293  -9.573 -39.313  0.00  0.00    +0.000 A 
ATOM      7  C12 UNL     1      28.636  -9.693 -38.982  0.00  0.00    +0.000 A 
ATOM      8  C13 UNL     1      29.579 -10.121 -39.891  0.00  0.00    +0.000 A 
ATOM      9  N4  UNL     1      30.805 -10.217 -39.321  0.00  0.00    +0.000 N 
ATOM     10  C14 UNL     1      30.622  -9.824 -38.041  0.00  0.00    +0.000 A 
ATOM     11  C15 UNL     1      31.586  -9.755 -37.037  0.00  0.00    +0.000 A 
ATOM     12  C16 UNL     1      31.176  -9.332 -35.759  0.00  0.00    +0.000 A 
ATOM     13  C17 UNL     1      29.826  -8.996 -35.512  0.00  0.00    +0.000 A 
ATOM     14  C18 UNL     1      28.870  -9.076 -36.540  0.00  0.00    +0.000 A 
ATOM     15  C19 UNL     1      29.306  -9.493 -37.797  0.00  0.00    +0.000 A 
ATOM     16  C20 UNL     1      29.199 -10.442 -41.201  0.00  0.00    +0.000 A 
ATOM     17  N5  UNL     1      27.872 -10.337 -41.520  0.00  0.00    +0.000 NA
ATOM     18  H13 UNL     1      31.695 -10.555 -39.749  0.00  0.00    +0.000 HD
BRANCH  16  19
ATOM     19  C21 UNL     1      30.158 -10.884 -42.235  0.00  0.00    +0.000 A 
ATOM     20  C22 UNL     1      30.677  -9.977 -43.177  0.00  0.00    +0.000 A 
ATOM     21  C23 UNL     1      31.566 -10.416 -44.164  0.00  0.00    +0.000 A 
ATOM     22  C24 UNL     1      31.931 -11.763 -44.229  0.00  0.00    +0.000 A 
ATOM     23  C25 UNL     1      31.401 -12.675 -43.312  0.00  0.00    +0.000 A 
ATOM     24  C26 UNL     1      30.514 -12.240 -42.323  0.00  0.00    +0.000 A 
ENDBRANCH  16  19
ENDBRANCH   2   5
BRANCH   1  25
ATOM     25  N2  UNL     1      23.886  -9.599 -42.938  0.00  0.00    +0.000 N 
ATOM     26  H10 UNL     1      23.219 -10.379 -43.130  0.00  0.00    +0.000 HD
BRANCH  25  27
ATOM     27  C8  UNL     1      23.512  -8.262 -43.299  0.00  0.00    +0.000 C 
ATOM     28  S1  UNL     1      22.739  -7.328 -42.194  0.00  0.00    +0.000 S 
BRANCH  27  29
ATOM     29  N1  UNL     1      23.579  -7.848 -44.674  0.00  0.00    +0.000 N 
ATOM     30  H9  UNL     1      22.689  -7.840 -45.221  0.00  0.00    +0.000 HD
BRANCH  29  35
ATOM     31  C2  UNL     1      27.147  -6.825 -45.244  0.00  0.00    +0.000 A 
ATOM     32  C3  UNL     1      27.183  -6.783 -46.648  0.00  0.00    +0.000 A 
ATOM     33  C4  UNL     1      26.042  -7.086 -47.392  0.00  0.00    +0.000 A 
ATOM     34  C5  UNL     1      24.839  -7.432 -46.747  0.00  0.00    +0.000 A 
ATOM     35  C7  UNL     1      24.793  -7.457 -45.341  0.00  0.00    +0.000 A 
ATOM     36  C27 UNL     1      25.952  -7.163 -44.602  0.00  0.00    +0.000 A 
BRANCH  31  38
ATOM     37  C1  UNL     1      28.417  -6.941 -43.093  0.00  0.00    +0.000 C 
ATOM     38  O1  UNL     1      28.271  -6.544 -44.453  0.00  0.00    +0.000 OA
ENDBRANCH  31  38
BRANCH  34  39
ATOM     39  O2  UNL     1      23.674  -7.743 -47.467  0.00  0.00    +0.000 OA
ATOM     40  C6  UNL     1      22.801  -6.780 -48.048  0.00  0.00    +0.000 C 
ENDBRANCH  34  39
ENDBRANCH  29  35
ENDBRANCH  27  29
ENDBRANCH  25  27
ENDBRANCH   1  25
TORSDOF 8
ENDMDL
MODEL 3
REMARK VINA RESULT:    -7.615      5.004      7.901
REMARK INTER + INTRA:         -12.038
REMARK INTER:                 -11.446
REMARK INTRA:                  -0.592
REMARK UNBOUND:                -0.861
REMARK  Name = resultss/4CJN/ligands/lig_438_t0.pdb
REMARK  10 active torsions:
REMARK  status: ('A' for Active; 'I' for Inactive)
REMARK    1  A    between atoms: C1_1  and  O1_2
REMARK    2  A    between atoms: O1_2  and  C2_3
REMARK    3  A    between atoms: C5_6  and  O2_7
REMARK    4  A    between atoms: O2_7  and  C6_8
REMARK    5  A    between atoms: C7_9  and  N1_10
REMARK    6  A    between atoms: N1_10  and  C8_11
REMARK    7  A    between atoms: C8_11  and  N2_13
REMARK    8  A    between atoms: N2_13  and  N3_14
REMARK    9  A    between atoms: C9_15  and  C10_17
REMARK   10  A    between atoms: C20_28  and  C21_29
REMARK                            x       y       z     vdW  Elec       q    Type
REMARK                         _______ _______ _______ _____ _____    ______ ____
ROOT
ATOM      1  N3  UNL     1      28.868 -10.777 -39.903  0.00  0.00    +0.000 N 
ATOM      2  C9  UNL     1      27.687 -10.391 -39.180  0.00  0.00    +0.000 C 
ATOM      3  O3  UNL     1      26.568 -10.394 -39.761  0.00  0.00    +0.000 OA
ATOM      4  H11 UNL     1      29.700 -11.113 -39.369  0.00  0.00    +0.000 HD
ENDROOT
BRANCH   2   5
ATOM      5  C10 UNL     1      27.774 -10.010 -37.756  0.00  0.00    +0.000 A 
ATOM      6  C11 UNL     1      29.016 -10.005 -37.084  0.00  0.00    +0.000 A 
ATOM      7  C12 UNL     1      29.014  -9.631 -35.747  0.00  0.00    +0.000 A 
ATOM      8  C13 UNL     1      27.856  -9.286 -35.084  0.00  0.00    +0.000 A 
ATOM      9  N4  UNL     1      28.115  -8.899 -33.811  0.00  0.00    +0.000 N 
ATOM     10  C14 UNL     1      29.453  -9.025 -33.676  0.00  0.00    +0.000 A 
ATOM     11  C15 UNL     1      30.216  -8.740 -32.545  0.00  0.00    +0.000 A 
ATOM     12  C16 UNL     1      31.608  -8.927 -32.624  0.00  0.00    +0.000 A 
ATOM     13  C17 UNL     1      32.204  -9.384 -33.821  0.00  0.00    +0.000 A 
ATOM     14  C18 UNL     1      31.416  -9.663 -34.952  0.00  0.00    +0.000 A 
ATOM     15  C19 UNL     1      30.039  -9.474 -34.841  0.00  0.00    +0.000 A 
ATOM     16  C20 UNL     1      26.626  -9.315 -35.755  0.00  0.00    +0.000 A 
ATOM     17  N5  UNL     1      26.633  -9.669 -37.076  0.00  0.00    +0.000 NA
ATOM     18  H13 UNL     1      27.446  -8.543 -33.093  0.00  0.00    +0.000 HD
BRANCH  16  19
ATOM     19  C21 UNL     1      25.343  -8.980 -35.102  0.00  0.00    +0.000 A 
ATOM     20  C22 UNL     1      24.390  -8.173 -35.750  0.00  0.00    +0.000 A 
ATOM     21  C23 UNL     1      23.191  -7.844 -35.109  0.00  0.00    +0.000 A 
ATOM     22  C24 UNL     1      22.940  -8.305 -33.814  0.00  0.00    +0.000 A 
ATOM     23  C25 UNL     1      23.892  -9.087 -33.154  0.00  0.00    +0.000 A 
ATOM     24  C26 UNL     1      25.091  -9.418 -33.791  0.00  0.00    +0.000 A 
ENDBRANCH  16  19
ENDBRANCH   2   5
BRANCH   1  25
ATOM     25  N2  UNL     1      28.878 -10.916 -41.303  0.00  0.00    +0.000 N 
ATOM     26  H10 UNL     1      27.990 -11.183 -41.783  0.00  0.00    +0.000 HD
BRANCH  25  27
ATOM     27  C8  UNL     1      30.086 -10.836 -42.074  0.00  0.00    +0.000 C 
ATOM     28  S1  UNL     1      30.254  -9.618 -43.159  0.00  0.00    +0.000 S 
BRANCH  27  29
ATOM     29  N1  UNL     1      31.004 -11.942 -42.081  0.00  0.00    +0.000 N 
ATOM     30  H9  UNL     1      30.897 -12.664 -41.333  0.00  0.00    +0.000 HD
BRANCH  29  35
ATOM     31  C2  UNL     1      32.839 -12.919 -45.209  0.00  0.00    +0.000 A 
ATOM     32  C3  UNL     1      34.099 -12.349 -44.957  0.00  0.00    +0.000 A 
ATOM     33  C4  UNL     1      34.335 -11.656 -43.769  0.00  0.00    +0.000 A 
ATOM     34  C5  UNL     1      33.318 -11.523 -42.804  0.00  0.00    +0.000 A 
ATOM     35  C7  UNL     1      32.060 -12.107 -43.043  0.00  0.00    +0.000 A 
ATOM     36  C27 UNL     1      31.830 -12.791 -44.249  0.00  0.00    +0.000 A 
BRANCH  31  38
ATOM     37  C1  UNL     1      33.016 -14.921 -46.695  0.00  0.00    +0.000 C 
ATOM     38  O1  UNL     1      32.548 -13.611 -46.394  0.00  0.00    +0.000 OA
ENDBRANCH  31  38
BRANCH  34  39
ATOM     39  O2  UNL     1      33.524 -10.831 -41.600  0.00  0.00    +0.000 OA
ATOM     40  C6  UNL     1      34.361  -9.687 -41.458  0.00  0.00    +0.000 C 
ENDBRANCH  34  39
ENDBRANCH  29  35
ENDBRANCH  27  29
ENDBRANCH  25  27
ENDBRANCH   1  25
TORSDOF 8
ENDMDL
MODEL 4
REMARK VINA RESULT:    -7.405      3.442      6.556
REMARK INTER + INTRA:         -11.729
REMARK INTER:                 -10.052
REMARK INTRA:                  -1.677
REMARK UNBOUND:                -0.861
REMARK  Name = resultss/4CJN/ligands/lig_438_t0.pdb
REMARK  10 active torsions:
REMARK  status: ('A' for Active; 'I' for Inactive)
REMARK    1  A    between atoms: C1_1  and  O1_2
REMARK    2  A    between atoms: O1_2  and  C2_3
REMARK    3  A    between atoms: C5_6  and  O2_7
REMARK    4  A    between atoms: O2_7  and  C6_8
REMARK    5  A    between atoms: C7_9  and  N1_10
REMARK    6  A    between atoms: N1_10  and  C8_11
REMARK    7  A    between atoms: C8_11  and  N2_13
REMARK    8  A    between atoms: N2_13  and  N3_14
REMARK    9  A    between atoms: C9_15  and  C10_17
REMARK   10  A    between atoms: C20_28  and  C21_29
REMARK                            x       y       z     vdW  Elec       q    Type
REMARK                         _______ _______ _______ _____ _____    ______ ____
ROOT
ATOM      1  N3  UNL     1      28.846 -10.900 -39.739  0.00  0.00    +0.000 N 
ATOM      2  C9  UNL     1      27.673 -10.394 -39.080  0.00  0.00    +0.000 C 
ATOM      3  O3  UNL     1      26.584 -10.318 -39.711  0.00  0.00    +0.000 OA
ATOM      4  H11 UNL     1      29.622 -11.290 -39.160  0.00  0.00    +0.000 HD
ENDROOT
BRANCH   2   5
ATOM      5  C10 UNL     1      27.732  -9.982 -37.663  0.00  0.00    +0.000 A 
ATOM      6  C11 UNL     1      28.957  -9.972 -36.964  0.00  0.00    +0.000 A 
ATOM      7  C12 UNL     1      28.929  -9.568 -35.635  0.00  0.00    +0.000 A 
ATOM      8  C13 UNL     1      27.760  -9.197 -35.007  0.00  0.00    +0.000 A 
ATOM      9  N4  UNL     1      27.993  -8.784 -33.738  0.00  0.00    +0.000 N 
ATOM     10  C14 UNL     1      29.327  -8.918 -33.569  0.00  0.00    +0.000 A 
ATOM     11  C15 UNL     1      30.066  -8.614 -32.428  0.00  0.00    +0.000 A 
ATOM     12  C16 UNL     1      31.458  -8.815 -32.471  0.00  0.00    +0.000 A 
ATOM     13  C17 UNL     1      32.077  -9.305 -33.644  0.00  0.00    +0.000 A 
ATOM     14  C18 UNL     1      31.312  -9.602 -34.785  0.00  0.00    +0.000 A 
ATOM     15  C19 UNL     1      29.934  -9.399 -34.711  0.00  0.00    +0.000 A 
ATOM     16  C20 UNL     1      26.545  -9.230 -35.705  0.00  0.00    +0.000 A 
ATOM     17  N5  UNL     1      26.579  -9.615 -37.018  0.00  0.00    +0.000 NA
ATOM     18  H13 UNL     1      27.311  -8.406 -33.043  0.00  0.00    +0.000 HD
BRANCH  16  19
ATOM     19  C21 UNL     1      25.251  -8.869 -35.089  0.00  0.00    +0.000 A 
ATOM     20  C22 UNL     1      24.918  -9.308 -33.794  0.00  0.00    +0.000 A 
ATOM     21  C23 UNL     1      23.679  -8.979 -33.234  0.00  0.00    +0.000 A 
ATOM     22  C24 UNL     1      22.758  -8.224 -33.966  0.00  0.00    +0.000 A 
ATOM     23  C25 UNL     1      23.071  -7.805 -35.262  0.00  0.00    +0.000 A 
ATOM     24  C26 UNL     1      24.309  -8.131 -35.825  0.00  0.00    +0.000 A 
ENDBRANCH  16  19
ENDBRANCH   2   5
BRANCH   1  25
ATOM     25  N2  UNL     1      28.904 -11.079 -41.133  0.00  0.00    +0.000 N 
ATOM     26  H10 UNL     1      28.414 -11.902 -41.550  0.00  0.00    +0.000 HD
BRANCH  25  27
ATOM     27  C8  UNL     1      29.719 -10.255 -41.980  0.00  0.00    +0.000 C 
ATOM     28  S1  UNL     1      31.348 -10.298 -41.797  0.00  0.00    +0.000 S 
BRANCH  27  29
ATOM     29  N1  UNL     1      29.108  -9.231 -42.781  0.00  0.00    +0.000 N 
ATOM     30  H9  UNL     1      29.589  -8.959 -43.668  0.00  0.00    +0.000 HD
BRANCH  29  35
ATOM     31  C2  UNL     1      25.459  -8.367 -42.578  0.00  0.00    +0.000 A 
ATOM     32  C3  UNL     1      25.498  -7.288 -41.678  0.00  0.00    +0.000 A 
ATOM     33  C4  UNL     1      26.716  -6.854 -41.151  0.00  0.00    +0.000 A 
ATOM     34  C5  UNL     1      27.920  -7.485 -41.517  0.00  0.00    +0.000 A 
ATOM     35  C7  UNL     1      27.887  -8.554 -42.432  0.00  0.00    +0.000 A 
ATOM     36  C27 UNL     1      26.654  -8.991 -42.946  0.00  0.00    +0.000 A 
BRANCH  31  38
ATOM     37  C1  UNL     1      22.963  -8.437 -42.704  0.00  0.00    +0.000 C 
ATOM     38  O1  UNL     1      24.260  -8.849 -43.122  0.00  0.00    +0.000 OA
ENDBRANCH  31  38
BRANCH  34  39
ATOM     39  O2  UNL     1      29.160  -7.073 -41.003  0.00  0.00    +0.000 OA
ATOM     40  C6  UNL     1      29.582  -7.268 -39.657  0.00  0.00    +0.000 C 
ENDBRANCH  34  39
ENDBRANCH  29  35
ENDBRANCH  27  29
ENDBRANCH  25  27
ENDBRANCH   1  25
TORSDOF 8
ENDMDL
MODEL 5
REMARK VINA RESULT:    -7.382      1.260      2.777
REMARK INTER + INTRA:         -11.695
REMARK INTER:                  -9.976
REMARK INTRA:                  -1.719
REMARK UNBOUND:                -0.861
REMARK  Name = resultss/4CJN/ligands/lig_438_t0.pdb
REMARK  10 active torsions:
REMARK  status: ('A' for Active; 'I' for Inactive)
REMARK    1  A    between atoms: C1_1  and  O1_2
REMARK    2  A    between atoms: O1_2  and  C2_3
REMARK    3  A    between atoms: C5_6  and  O2_7
REMARK    4  A    between atoms: O2_7  and  C6_8
REMARK    5  A    between atoms: C7_9  and  N1_10
REMARK    6  A    between atoms: N1_10  and  C8_11
REMARK    7  A    between atoms: C8_11  and  N2_13
REMARK    8  A    between atoms: N2_13  and  N3_14
REMARK    9  A    between atoms: C9_15  and  C10_17
REMARK   10  A    between atoms: C20_28  and  C21_29
REMARK                            x       y       z     vdW  Elec       q    Type
REMARK                         _______ _______ _______ _____ _____    ______ ____
ROOT
ATOM      1  N3  UNL     1      25.838  -9.890 -42.636  0.00  0.00    +0.000 N 
ATOM      2  C9  UNL     1      26.340  -9.771 -41.295  0.00  0.00    +0.000 C 
ATOM      3  O3  UNL     1      25.533  -9.639 -40.334  0.00  0.00    +0.000 OA
ATOM      4  H11 UNL     1      26.437 -10.341 -43.362  0.00  0.00    +0.000 HD
ENDROOT
BRANCH   2   5
ATOM      5  C10 UNL     1      27.792  -9.823 -41.033  0.00  0.00    +0.000 A 
ATOM      6  C11 UNL     1      28.694 -10.217 -42.045  0.00  0.00    +0.000 A 
ATOM      7  C12 UNL     1      30.045 -10.235 -41.721  0.00  0.00    +0.000 A 
ATOM      8  C13 UNL     1      30.502  -9.896 -40.466  0.00  0.00    +0.000 A 
ATOM      9  N4  UNL     1      31.856  -9.929 -40.410  0.00  0.00    +0.000 N 
ATOM     10  C14 UNL     1      32.244 -10.314 -41.645  0.00  0.00    +0.000 A 
ATOM     11  C15 UNL     1      33.549 -10.489 -42.101  0.00  0.00    +0.000 A 
ATOM     12  C16 UNL     1      33.733 -10.880 -43.440  0.00  0.00    +0.000 A 
ATOM     13  C17 UNL     1      32.621 -11.081 -44.289  0.00  0.00    +0.000 A 
ATOM     14  C18 UNL     1      31.312 -10.895 -43.809  0.00  0.00    +0.000 A 
ATOM     15  C19 UNL     1      31.161 -10.513 -42.476  0.00  0.00    +0.000 A 
ATOM     16  C20 UNL     1      29.596  -9.528 -39.463  0.00  0.00    +0.000 A 
ATOM     17  N5  UNL     1      28.267  -9.496 -39.789  0.00  0.00    +0.000 NA
ATOM     18  H13 UNL     1      32.478  -9.680 -39.610  0.00  0.00    +0.000 HD
BRANCH  16  19
ATOM     19  C21 UNL     1      30.012  -9.175 -38.089  0.00  0.00    +0.000 A 
ATOM     20  C22 UNL     1      29.742 -10.034 -37.008  0.00  0.00    +0.000 A 
ATOM     21  C23 UNL     1      30.121  -9.675 -35.710  0.00  0.00    +0.000 A 
ATOM     22  C24 UNL     1      30.756  -8.452 -35.479  0.00  0.00    +0.000 A 
ATOM     23  C25 UNL     1      31.006  -7.582 -36.544  0.00  0.00    +0.000 A 
ATOM     24  C26 UNL     1      30.630  -7.938 -37.843  0.00  0.00    +0.000 A 
ENDBRANCH  16  19
ENDBRANCH   2   5
BRANCH   1  25
ATOM     25  N2  UNL     1      24.498  -9.611 -42.963  0.00  0.00    +0.000 N 
ATOM     26  H10 UNL     1      23.880 -10.404 -43.250  0.00  0.00    +0.000 HD
BRANCH  25  27
ATOM     27  C8  UNL     1      23.990  -8.272 -43.046  0.00  0.00    +0.000 C 
ATOM     28  S1  UNL     1      22.373  -8.028 -42.922  0.00  0.00    +0.000 S 
BRANCH  27  29
ATOM     29  N1  UNL     1      24.849  -7.208 -43.488  0.00  0.00    +0.000 N 
ATOM     30  H9  UNL     1      25.001  -6.406 -42.836  0.00  0.00    +0.000 HD
BRANCH  29  35
ATOM     31  C2  UNL     1      25.378  -6.935 -47.196  0.00  0.00    +0.000 A 
ATOM     32  C3  UNL     1      26.779  -7.026 -47.264  0.00  0.00    +0.000 A 
ATOM     33  C4  UNL     1      27.533  -7.178 -46.100  0.00  0.00    +0.000 A 
ATOM     34  C5  UNL     1      26.903  -7.249 -44.843  0.00  0.00    +0.000 A 
ATOM     35  C7  UNL     1      25.500  -7.177 -44.771  0.00  0.00    +0.000 A 
ATOM     36  C27 UNL     1      24.751  -7.009 -45.949  0.00  0.00    +0.000 A 
BRANCH  31  38
ATOM     37  C1  UNL     1      23.179  -6.504 -48.303  0.00  0.00    +0.000 C 
ATOM     38  O1  UNL     1      24.578  -6.765 -48.335  0.00  0.00    +0.000 OA
ENDBRANCH  31  38
BRANCH  34  39
ATOM     39  O2  UNL     1      27.634  -7.401 -43.654  0.00  0.00    +0.000 OA
ATOM     40  C6  UNL     1      28.541  -6.433 -43.134  0.00  0.00    +0.000 C 
ENDBRANCH  34  39
ENDBRANCH  29  35
ENDBRANCH  27  29
ENDBRANCH  25  27
ENDBRANCH   1  25
TORSDOF 8
ENDMDL
MODEL 6
REMARK VINA RESULT:    -7.370      1.558      4.881
REMARK INTER + INTRA:         -11.678
REMARK INTER:                  -9.834
REMARK INTRA:                  -1.845
REMARK UNBOUND:                -0.861
REMARK  Name = resultss/4CJN/ligands/lig_438_t0.pdb
REMARK  10 active torsions:
REMARK  status: ('A' for Active; 'I' for Inactive)
REMARK    1  A    between atoms: C1_1  and  O1_2
REMARK    2  A    between atoms: O1_2  and  C2_3
REMARK    3  A    between atoms: C5_6  and  O2_7
REMARK    4  A    between atoms: O2_7  and  C6_8
REMARK    5  A    between atoms: C7_9  and  N1_10
REMARK    6  A    between atoms: N1_10  and  C8_11
REMARK    7  A    between atoms: C8_11  and  N2_13
REMARK    8  A    between atoms: N2_13  and  N3_14
REMARK    9  A    between atoms: C9_15  and  C10_17
REMARK   10  A    between atoms: C20_28  and  C21_29
REMARK                            x       y       z     vdW  Elec       q    Type
REMARK                         _______ _______ _______ _____ _____    ______ ____
ROOT
ATOM      1  N3  UNL     1      25.132  -9.489 -42.735  0.00  0.00    +0.000 N 
ATOM      2  C9  UNL     1      25.352  -9.487 -41.315  0.00  0.00    +0.000 C 
ATOM      3  O3  UNL     1      24.377  -9.326 -40.530  0.00  0.00    +0.000 OA
ATOM      4  H11 UNL     1      25.829  -9.958 -43.354  0.00  0.00    +0.000 HD
ENDROOT
BRANCH   2   5
ATOM      5  C10 UNL     1      26.708  -9.691 -40.769  0.00  0.00    +0.000 A 
ATOM      6  C11 UNL     1      26.987  -9.427 -39.410  0.00  0.00    +0.000 A 
ATOM      7  C12 UNL     1      28.287  -9.649 -38.973  0.00  0.00    +0.000 A 
ATOM      8  C13 UNL     1      29.278 -10.098 -39.819  0.00  0.00    +0.000 A 
ATOM      9  N4  UNL     1      30.441 -10.298 -39.152  0.00  0.00    +0.000 N 
ATOM     10  C14 UNL     1      30.171  -9.949 -37.875  0.00  0.00    +0.000 A 
ATOM     11  C15 UNL     1      31.045  -9.986 -36.790  0.00  0.00    +0.000 A 
ATOM     12  C16 UNL     1      30.552  -9.592 -35.533  0.00  0.00    +0.000 A 
ATOM     13  C17 UNL     1      29.208  -9.180 -35.385  0.00  0.00    +0.000 A 
ATOM     14  C18 UNL     1      28.343  -9.154 -36.493  0.00  0.00    +0.000 A 
ATOM     15  C19 UNL     1      28.861  -9.543 -37.727  0.00  0.00    +0.000 A 
ATOM     16  C20 UNL     1      28.995 -10.336 -41.170  0.00  0.00    +0.000 A 
ATOM     17  N5  UNL     1      27.710 -10.131 -41.595  0.00  0.00    +0.000 NA
ATOM     18  H13 UNL     1      31.343 -10.673 -39.519  0.00  0.00    +0.000 HD
BRANCH  16  19
ATOM     19  C21 UNL     1      30.013 -10.795 -42.139  0.00  0.00    +0.000 A 
ATOM     20  C22 UNL     1      30.595  -9.900 -43.056  0.00  0.00    +0.000 A 
ATOM     21  C23 UNL     1      31.539 -10.355 -43.983  0.00  0.00    +0.000 A 
ATOM     22  C24 UNL     1      31.897 -11.705 -44.013  0.00  0.00    +0.000 A 
ATOM     23  C25 UNL     1      31.306 -12.605 -43.122  0.00  0.00    +0.000 A 
ATOM     24  C26 UNL     1      30.363 -12.154 -42.193  0.00  0.00    +0.000 A 
ENDBRANCH  16  19
ENDBRANCH   2   5
BRANCH   1  25
ATOM     25  N2  UNL     1      23.918  -9.066 -43.307  0.00  0.00    +0.000 N 
ATOM     26  H10 UNL     1      23.262  -9.792 -43.674  0.00  0.00    +0.000 HD
BRANCH  25  27
ATOM     27  C8  UNL     1      23.611  -7.681 -43.523  0.00  0.00    +0.000 C 
ATOM     28  S1  UNL     1      22.076  -7.262 -43.922  0.00  0.00    +0.000 S 
BRANCH  27  29
ATOM     29  N1  UNL     1      24.676  -6.724 -43.643  0.00  0.00    +0.000 N 
ATOM     30  H9  UNL     1      24.633  -5.873 -43.038  0.00  0.00    +0.000 HD
BRANCH  29  35
ATOM     31  C2  UNL     1      26.659  -6.907 -46.827  0.00  0.00    +0.000 A 
ATOM     32  C3  UNL     1      27.961  -7.040 -46.314  0.00  0.00    +0.000 A 
ATOM     33  C4  UNL     1      28.175  -7.070 -44.935  0.00  0.00    +0.000 A 
ATOM     34  C5  UNL     1      27.092  -6.976 -44.041  0.00  0.00    +0.000 A 
ATOM     35  C7  UNL     1      25.785  -6.861 -44.550  0.00  0.00    +0.000 A 
ATOM     36  C27 UNL     1      25.582  -6.818 -45.940  0.00  0.00    +0.000 A 
BRANCH  31  38
ATOM     37  C1  UNL     1      25.241  -6.250 -48.778  0.00  0.00    +0.000 C 
ATOM     38  O1  UNL     1      26.394  -6.855 -48.204  0.00  0.00    +0.000 OA
ENDBRANCH  31  38
BRANCH  34  39
ATOM     39  O2  UNL     1      27.275  -7.002 -42.649  0.00  0.00    +0.000 OA
ATOM     40  C6  UNL     1      28.498  -6.689 -41.988  0.00  0.00    +0.000 C 
ENDBRANCH  34  39
ENDBRANCH  29  35
ENDBRANCH  27  29
ENDBRANCH  25  27
ENDBRANCH   1  25
TORSDOF 8
ENDMDL
MODEL 7
REMARK VINA RESULT:    -7.303      1.274      4.890
REMARK INTER + INTRA:         -11.579
REMARK INTER:                 -10.440
REMARK INTRA:                  -1.139
REMARK UNBOUND:                -0.861
REMARK  Name = resultss/4CJN/ligands/lig_438_t0.pdb
REMARK  10 active torsions:
REMARK  status: ('A' for Active; 'I' for Inactive)
REMARK    1  A    between atoms: C1_1  and  O1_2
REMARK    2  A    between atoms: O1_2  and  C2_3
REMARK    3  A    between atoms: C5_6  and  O2_7
REMARK    4  A    between atoms: O2_7  and  C6_8
REMARK    5  A    between atoms: C7_9  and  N1_10
REMARK    6  A    between atoms: N1_10  and  C8_11
REMARK    7  A    between atoms: C8_11  and  N2_13
REMARK    8  A    between atoms: N2_13  and  N3_14
REMARK    9  A    between atoms: C9_15  and  C10_17
REMARK   10  A    between atoms: C20_28  and  C21_29
REMARK                            x       y       z     vdW  Elec       q    Type
REMARK                         _______ _______ _______ _____ _____    ______ ____
ROOT
ATOM      1  N3  UNL     1      24.188  -8.459 -41.625  0.00  0.00    +0.000 N 
ATOM      2  C9  UNL     1      25.246  -9.379 -41.942  0.00  0.00    +0.000 C 
ATOM      3  O3  UNL     1      25.222 -10.009 -43.035  0.00  0.00    +0.000 OA
ATOM      4  H11 UNL     1      24.369  -7.702 -40.930  0.00  0.00    +0.000 HD
ENDROOT
BRANCH   2   5
ATOM      5  C10 UNL     1      26.370  -9.577 -41.005  0.00  0.00    +0.000 A 
ATOM      6  C11 UNL     1      26.185  -9.428 -39.614  0.00  0.00    +0.000 A 
ATOM      7  C12 UNL     1      27.291  -9.634 -38.799  0.00  0.00    +0.000 A 
ATOM      8  C13 UNL     1      28.528  -9.962 -39.312  0.00  0.00    +0.000 A 
ATOM      9  N4  UNL     1      29.430 -10.174 -38.323  0.00  0.00    +0.000 N 
ATOM     10  C14 UNL     1      28.746  -9.955 -37.178  0.00  0.00    +0.000 A 
ATOM     11  C15 UNL     1      29.232 -10.055 -35.876  0.00  0.00    +0.000 A 
ATOM     12  C16 UNL     1      28.339  -9.799 -34.818  0.00  0.00    +0.000 A 
ATOM     13  C17 UNL     1      26.993  -9.458 -35.081  0.00  0.00    +0.000 A 
ATOM     14  C18 UNL     1      26.524  -9.367 -36.403  0.00  0.00    +0.000 A 
ATOM     15  C19 UNL     1      27.432  -9.619 -37.430  0.00  0.00    +0.000 A 
ATOM     16  C20 UNL     1      28.705 -10.087 -40.696  0.00  0.00    +0.000 A 
ATOM     17  N5  UNL     1      27.610  -9.898 -41.495  0.00  0.00    +0.000 NA
ATOM     18  H13 UNL     1      30.425 -10.477 -38.407  0.00  0.00    +0.000 HD
BRANCH  16  19
ATOM     19  C21 UNL     1      30.006 -10.413 -41.317  0.00  0.00    +0.000 A 
ATOM     20  C22 UNL     1      31.176  -9.723 -40.949  0.00  0.00    +0.000 A 
ATOM     21  C23 UNL     1      32.396 -10.026 -41.563  0.00  0.00    +0.000 A 
ATOM     22  C24 UNL     1      32.455 -11.006 -42.558  0.00  0.00    +0.000 A 
ATOM     23  C25 UNL     1      31.293 -11.679 -42.946  0.00  0.00    +0.000 A 
ATOM     24  C26 UNL     1      30.072 -11.380 -42.334  0.00  0.00    +0.000 A 
ENDBRANCH  16  19
ENDBRANCH   2   5
BRANCH   1  25
ATOM     25  N2  UNL     1      22.990  -8.412 -42.360  0.00  0.00    +0.000 N 
ATOM     26  H10 UNL     1      22.504  -9.311 -42.579  0.00  0.00    +0.000 HD
BRANCH  25  27
ATOM     27  C8  UNL     1      22.486  -7.196 -42.931  0.00  0.00    +0.000 C 
ATOM     28  S1  UNL     1      20.879  -6.880 -42.833  0.00  0.00    +0.000 S 
BRANCH  27  29
ATOM     29  N1  UNL     1      23.326  -6.409 -43.792  0.00  0.00    +0.000 N 
ATOM     30  H9  UNL     1      23.729  -5.528 -43.401  0.00  0.00    +0.000 HD
BRANCH  29  35
ATOM     31  C2  UNL     1      22.890  -7.264 -47.423  0.00  0.00    +0.000 A 
ATOM     32  C3  UNL     1      24.232  -7.338 -47.834  0.00  0.00    +0.000 A 
ATOM     33  C4  UNL     1      25.262  -7.111 -46.920  0.00  0.00    +0.000 A 
ATOM     34  C5  UNL     1      24.973  -6.812 -45.575  0.00  0.00    +0.000 A 
ATOM     35  C7  UNL     1      23.632  -6.754 -45.155  0.00  0.00    +0.000 A 
ATOM     36  C27 UNL     1      22.602  -6.971 -46.087  0.00  0.00    +0.000 A 
BRANCH  31  38
ATOM     37  C1  UNL     1      21.205  -6.441 -49.076  0.00  0.00    +0.000 C 
ATOM     38  O1  UNL     1      21.820  -7.468 -48.306  0.00  0.00    +0.000 OA
ENDBRANCH  31  38
BRANCH  34  39
ATOM     39  O2  UNL     1      25.987  -6.576 -44.633  0.00  0.00    +0.000 OA
ATOM     40  C6  UNL     1      27.150  -7.385 -44.478  0.00  0.00    +0.000 C 
ENDBRANCH  34  39
ENDBRANCH  29  35
ENDBRANCH  27  29
ENDBRANCH  25  27
ENDBRANCH   1  25
TORSDOF 8
ENDMDL
MODEL 8
REMARK VINA RESULT:    -7.269      4.094      8.580
REMARK INTER + INTRA:         -11.529
REMARK INTER:                  -9.635
REMARK INTRA:                  -1.894
REMARK UNBOUND:                -0.861
REMARK  Name = resultss/4CJN/ligands/lig_438_t0.pdb
REMARK  10 active torsions:
REMARK  status: ('A' for Active; 'I' for Inactive)
REMARK    1  A    between atoms: C1_1  and  O1_2
REMARK    2  A    between atoms: O1_2  and  C2_3
REMARK    3  A    between atoms: C5_6  and  O2_7
REMARK    4  A    between atoms: O2_7  and  C6_8
REMARK    5  A    between atoms: C7_9  and  N1_10
REMARK    6  A    between atoms: N1_10  and  C8_11
REMARK    7  A    between atoms: C8_11  and  N2_13
REMARK    8  A    between atoms: N2_13  and  N3_14
REMARK    9  A    between atoms: C9_15  and  C10_17
REMARK   10  A    between atoms: C20_28  and  C21_29
REMARK                            x       y       z     vdW  Elec       q    Type
REMARK                         _______ _______ _______ _____ _____    ______ ____
ROOT
ATOM      1  N3  UNL     1      30.425  -9.779 -38.471  0.00  0.00    +0.000 N 
ATOM      2  C9  UNL     1      29.627  -9.696 -37.278  0.00  0.00    +0.000 C 
ATOM      3  O3  UNL     1      30.154  -9.926 -36.156  0.00  0.00    +0.000 OA
ATOM      4  H11 UNL     1      30.113  -9.266 -39.324  0.00  0.00    +0.000 HD
ENDROOT
BRANCH   2   5
ATOM      5  C10 UNL     1      28.200  -9.325 -37.358  0.00  0.00    +0.000 A 
ATOM      6  C11 UNL     1      27.431  -9.157 -36.187  0.00  0.00    +0.000 A 
ATOM      7  C12 UNL     1      26.097  -8.803 -36.347  0.00  0.00    +0.000 A 
ATOM      8  C13 UNL     1      25.530  -8.628 -37.590  0.00  0.00    +0.000 A 
ATOM      9  N4  UNL     1      24.240  -8.225 -37.490  0.00  0.00    +0.000 N 
ATOM     10  C14 UNL     1      23.997  -8.168 -36.162  0.00  0.00    +0.000 A 
ATOM     11  C15 UNL     1      22.808  -7.794 -35.539  0.00  0.00    +0.000 A 
ATOM     12  C16 UNL     1      22.776  -7.787 -34.132  0.00  0.00    +0.000 A 
ATOM     13  C17 UNL     1      23.921  -8.144 -33.385  0.00  0.00    +0.000 A 
ATOM     14  C18 UNL     1      25.112  -8.514 -34.035  0.00  0.00    +0.000 A 
ATOM     15  C19 UNL     1      25.112  -8.518 -35.429  0.00  0.00    +0.000 A 
ATOM     16  C20 UNL     1      26.297  -8.818 -38.747  0.00  0.00    +0.000 A 
ATOM     17  N5  UNL     1      27.614  -9.152 -38.586  0.00  0.00    +0.000 NA
ATOM     18  H13 UNL     1      23.578  -7.974 -38.257  0.00  0.00    +0.000 HD
BRANCH  16  19
ATOM     19  C21 UNL     1      25.749  -8.670 -40.112  0.00  0.00    +0.000 A 
ATOM     20  C22 UNL     1      25.440  -9.799 -40.893  0.00  0.00    +0.000 A 
ATOM     21  C23 UNL     1      24.945  -9.643 -42.193  0.00  0.00    +0.000 A 
ATOM     22  C24 UNL     1      24.770  -8.364 -42.727  0.00  0.00    +0.000 A 
ATOM     23  C25 UNL     1      25.099  -7.238 -41.966  0.00  0.00    +0.000 A 
ATOM     24  C26 UNL     1      25.592  -7.390 -40.667  0.00  0.00    +0.000 A 
ENDBRANCH  16  19
ENDBRANCH   2   5
BRANCH   1  25
ATOM     25  N2  UNL     1      31.709 -10.354 -38.476  0.00  0.00    +0.000 N 
ATOM     26  H10 UNL     1      31.902 -11.146 -37.822  0.00  0.00    +0.000 HD
BRANCH  25  27
ATOM     27  C8  UNL     1      32.792  -9.808 -39.243  0.00  0.00    +0.000 C 
ATOM     28  S1  UNL     1      34.164  -9.355 -38.467  0.00  0.00    +0.000 S 
BRANCH  27  29
ATOM     29  N1  UNL     1      32.577  -9.427 -40.612  0.00  0.00    +0.000 N 
ATOM     30  H9  UNL     1      32.603  -8.408 -40.840  0.00  0.00    +0.000 HD
BRANCH  29  35
ATOM     31  C2  UNL     1      33.140 -11.925 -43.359  0.00  0.00    +0.000 A 
ATOM     32  C3  UNL     1      31.813 -12.243 -43.695  0.00  0.00    +0.000 A 
ATOM     33  C4  UNL     1      30.751 -11.636 -43.024  0.00  0.00    +0.000 A 
ATOM     34  C5  UNL     1      30.993 -10.694 -42.006  0.00  0.00    +0.000 A 
ATOM     35  C7  UNL     1      32.320 -10.359 -41.678  0.00  0.00    +0.000 A 
ATOM     36  C27 UNL     1      33.382 -10.987 -42.351  0.00  0.00    +0.000 A 
BRANCH  31  38
ATOM     37  C1  UNL     1      34.152 -13.356 -45.142  0.00  0.00    +0.000 C 
ATOM     38  O1  UNL     1      34.241 -12.520 -43.993  0.00  0.00    +0.000 OA
ENDBRANCH  31  38
BRANCH  34  39
ATOM     39  O2  UNL     1      29.947 -10.067 -41.310  0.00  0.00    +0.000 OA
ATOM     40  C6  UNL     1      29.066  -9.100 -41.875  0.00  0.00    +0.000 C 
ENDBRANCH  34  39
ENDBRANCH  29  35
ENDBRANCH  27  29
ENDBRANCH  25  27
ENDBRANCH   1  25
TORSDOF 8
ENDMDL
MODEL 9
REMARK VINA RESULT:    -7.256      3.437      6.565
REMARK INTER + INTRA:         -11.510
REMARK INTER:                 -10.043
REMARK INTRA:                  -1.467
REMARK UNBOUND:                -0.861
REMARK  Name = resultss/4CJN/ligands/lig_438_t0.pdb
REMARK  10 active torsions:
REMARK  status: ('A' for Active; 'I' for Inactive)
REMARK    1  A    between atoms: C1_1  and  O1_2
REMARK    2  A    between atoms: O1_2  and  C2_3
REMARK    3  A    between atoms: C5_6  and  O2_7
REMARK    4  A    between atoms: O2_7  and  C6_8
REMARK    5  A    between atoms: C7_9  and  N1_10
REMARK    6  A    between atoms: N1_10  and  C8_11
REMARK    7  A    between atoms: C8_11  and  N2_13
REMARK    8  A    between atoms: N2_13  and  N3_14
REMARK    9  A    between atoms: C9_15  and  C10_17
REMARK   10  A    between atoms: C20_28  and  C21_29
REMARK                            x       y       z     vdW  Elec       q    Type
REMARK                         _______ _______ _______ _____ _____    ______ ____
ROOT
ATOM      1  N3  UNL     1      26.477  -9.433 -39.977  0.00  0.00    +0.000 N 
ATOM      2  C9  UNL     1      27.345 -10.196 -39.122  0.00  0.00    +0.000 C 
ATOM      3  O3  UNL     1      28.010 -11.155 -39.601  0.00  0.00    +0.000 OA
ATOM      4  H11 UNL     1      26.213  -8.464 -39.694  0.00  0.00    +0.000 HD
ENDROOT
BRANCH   2   5
ATOM      5  C10 UNL     1      27.477  -9.851 -37.693  0.00  0.00    +0.000 A 
ATOM      6  C11 UNL     1      28.735  -9.883 -37.055  0.00  0.00    +0.000 A 
ATOM      7  C12 UNL     1      28.776  -9.541 -35.710  0.00  0.00    +0.000 A 
ATOM      8  C13 UNL     1      27.643  -9.193 -35.008  0.00  0.00    +0.000 A 
ATOM      9  N4  UNL     1      27.942  -8.841 -33.733  0.00  0.00    +0.000 N 
ATOM     10  C14 UNL     1      29.281  -8.993 -33.638  0.00  0.00    +0.000 A 
ATOM     11  C15 UNL     1      30.079  -8.748 -32.522  0.00  0.00    +0.000 A 
ATOM     12  C16 UNL     1      31.465  -8.956 -32.643  0.00  0.00    +0.000 A 
ATOM     13  C17 UNL     1      32.020  -9.395 -33.867  0.00  0.00    +0.000 A 
ATOM     14  C18 UNL     1      31.197  -9.632 -34.982  0.00  0.00    +0.000 A 
ATOM     15  C19 UNL     1      29.827  -9.423 -34.829  0.00  0.00    +0.000 A 
ATOM     16  C20 UNL     1      26.395  -9.185 -35.645  0.00  0.00    +0.000 A 
ATOM     17  N5  UNL     1      26.360  -9.507 -36.974  0.00  0.00    +0.000 NA
ATOM     18  H13 UNL     1      27.299  -8.492 -32.989  0.00  0.00    +0.000 HD
BRANCH  16  19
ATOM     19  C21 UNL     1      25.136  -8.844 -34.950  0.00  0.00    +0.000 A 
ATOM     20  C22 UNL     1      24.888  -9.294 -33.640  0.00  0.00    +0.000 A 
ATOM     21  C23 UNL     1      23.681  -8.984 -33.004  0.00  0.00    +0.000 A 
ATOM     22  C24 UNL     1      22.708  -8.238 -33.673  0.00  0.00    +0.000 A 
ATOM     23  C25 UNL     1      22.936  -7.808 -34.984  0.00  0.00    +0.000 A 
ATOM     24  C26 UNL     1      24.142  -8.115 -35.622  0.00  0.00    +0.000 A 
ENDBRANCH  16  19
ENDBRANCH   2   5
BRANCH   1  25
ATOM     25  N2  UNL     1      26.135  -9.861 -41.273  0.00  0.00    +0.000 N 
ATOM     26  H10 UNL     1      25.877 -10.863 -41.414  0.00  0.00    +0.000 HD
BRANCH  25  27
ATOM     27  C8  UNL     1      26.259  -9.009 -42.421  0.00  0.00    +0.000 C 
ATOM     28  S1  UNL     1      24.911  -8.629 -43.275  0.00  0.00    +0.000 S 
BRANCH  27  29
ATOM     29  N1  UNL     1      27.560  -8.715 -42.956  0.00  0.00    +0.000 N 
ATOM     30  H9  UNL     1      27.605  -8.162 -43.841  0.00  0.00    +0.000 HD
BRANCH  29  35
ATOM     31  C2  UNL     1      30.650 -10.724 -42.238  0.00  0.00    +0.000 A 
ATOM     32  C3  UNL     1      31.249  -9.931 -41.244  0.00  0.00    +0.000 A 
ATOM     33  C4  UNL     1      30.636  -8.751 -40.820  0.00  0.00    +0.000 A 
ATOM     34  C5  UNL     1      29.408  -8.344 -41.374  0.00  0.00    +0.000 A 
ATOM     35  C7  UNL     1      28.795  -9.144 -42.356  0.00  0.00    +0.000 A 
ATOM     36  C27 UNL     1      29.428 -10.323 -42.786  0.00  0.00    +0.000 A 
BRANCH  31  38
ATOM     37  C1  UNL     1      32.026 -12.002 -43.889  0.00  0.00    +0.000 C 
ATOM     38  O1  UNL     1      31.234 -11.909 -42.709  0.00  0.00    +0.000 OA
ENDBRANCH  31  38
BRANCH  34  39
ATOM     39  O2  UNL     1      28.767  -7.162 -40.969  0.00  0.00    +0.000 OA
ATOM     40  C6  UNL     1      28.796  -6.640 -39.644  0.00  0.00    +0.000 C 
ENDBRANCH  34  39
ENDBRANCH  29  35
ENDBRANCH  27  29
ENDBRANCH  25  27
ENDBRANCH   1  25
TORSDOF 8
ENDMDL
