MODEL 1
REMARK VINA RESULT:    -6.401      0.000      0.000
REMARK INTER + INTRA:         -12.183
REMARK INTER:                 -10.892
REMARK INTRA:                  -1.291
REMARK UNBOUND:                -1.291
REMARK  Name = resultss/4CJN/ligands/lig_142_t0.pdb
REMARK  14 active torsions:
REMARK  status: ('A' for Active; 'I' for Inactive)
REMARK    1  A    between atoms: O1_1  and  C1_2
REMARK    2  A    between atoms: C1_2  and  C2_3
REMARK    3  A    between atoms: C3_4  and  O2_5
REMARK    4  A    between atoms: C4_6  and  O3_7
REMARK    5  A    between atoms: C5_8  and  O4_9
REMARK    6  A    between atoms: N1_11  and  C7_12
REMARK    7  A    between atoms: C7_12  and  C8_13
REMARK    8  A    between atoms: C8_13  and  C9_14
REMARK    9  A    between atoms: C9_14  and  C10_15
REMARK   10  A    between atoms: C10_15  and  C11_16
REMARK   11  A    between atoms: C11_16  and  O5_17
REMARK   12  A    between atoms: O5_17  and  C12_18
REMARK   13  A    between atoms: C12_18  and  C13_19
REMARK   14  A    between atoms: C17_23  and  C18_24
REMARK                            x       y       z     vdW  Elec       q    Type
REMARK                         _______ _______ _______ _____ _____    ______ ____
ROOT
ATOM      1  C8  UNL     1      26.099  -8.908 -38.537  0.00  0.00    +0.000 C 
ENDROOT
BRANCH   1   2
ATOM      2  C7  UNL     1      26.908  -8.664 -37.258  0.00  0.00    +0.000 C 
BRANCH   2   8
ATOM      3  C2  UNL     1      27.663  -9.985 -35.246  0.00  0.00    +0.000 C 
ATOM      4  C3  UNL     1      28.945  -9.186 -34.899  0.00  0.00    +0.000 C 
ATOM      5  C4  UNL     1      30.139  -9.737 -35.712  0.00  0.00    +0.000 C 
ATOM      6  C5  UNL     1      29.822  -9.777 -37.222  0.00  0.00    +0.000 C 
ATOM      7  C6  UNL     1      28.505 -10.534 -37.476  0.00  0.00    +0.000 C 
ATOM      8  N1  UNL     1      27.377  -9.964 -36.708  0.00  0.00    +0.000 NA
BRANCH   4   9
ATOM      9  O2  UNL     1      29.224  -9.315 -33.527  0.00  0.00    +0.000 OA
ATOM     10  H6  UNL     1      29.288  -8.398 -33.156  0.00  0.00    +0.000 HD
ENDBRANCH   4   9
BRANCH   5  11
ATOM     11  O3  UNL     1      31.300  -8.982 -35.466  0.00  0.00    +0.000 OA
ATOM     12  H8  UNL     1      31.705  -8.754 -36.344  0.00  0.00    +0.000 HD
ENDBRANCH   5  11
BRANCH   6  13
ATOM     13  O4  UNL     1      30.857 -10.431 -37.911  0.00  0.00    +0.000 OA
ATOM     14  H10 UNL     1      30.899 -10.030 -38.817  0.00  0.00    +0.000 HD
ENDBRANCH   6  13
BRANCH   3  15
ATOM     15  C1  UNL     1      26.432  -9.545 -34.416  0.00  0.00    +0.000 C 
BRANCH  15  16
ATOM     16  O1  UNL     1      25.448 -10.548 -34.397  0.00  0.00    +0.000 OA
ATOM     17  H1  UNL     1      25.348 -10.864 -35.334  0.00  0.00    +0.000 HD
ENDBRANCH  15  16
ENDBRANCH   3  15
ENDBRANCH   2   8
ENDBRANCH   1   2
BRANCH   1  18
ATOM     18  C9  UNL     1      26.674  -8.121 -39.726  0.00  0.00    +0.000 C 
BRANCH  18  19
ATOM     19  C10 UNL     1      26.792  -8.979 -40.997  0.00  0.00    +0.000 C 
BRANCH  19  20
ATOM     20  C11 UNL     1      27.123 -10.446 -40.693  0.00  0.00    +0.000 C 
BRANCH  20  21
ATOM     21  O5  UNL     1      28.504 -10.681 -40.893  0.00  0.00    +0.000 OA
BRANCH  21  22
ATOM     22  C12 UNL     1      28.935 -10.172 -42.142  0.00  0.00    +0.000 C 
BRANCH  22  23
ATOM     23  C13 UNL     1      30.419 -10.376 -42.305  0.00  0.00    +0.000 A 
ATOM     24  C14 UNL     1      31.317  -9.892 -41.343  0.00  0.00    +0.000 A 
ATOM     25  C15 UNL     1      32.690 -10.103 -41.495  0.00  0.00    +0.000 A 
ATOM     26  C16 UNL     1      33.176 -10.799 -42.606  0.00  0.00    +0.000 A 
ATOM     27  C17 UNL     1      32.290 -11.294 -43.580  0.00  0.00    +0.000 A 
ATOM     28  C24 UNL     1      30.909 -11.075 -43.421  0.00  0.00    +0.000 A 
BRANCH  27  29
ATOM     29  C18 UNL     1      32.802 -12.046 -44.754  0.00  0.00    +0.000 A 
ATOM     30  C19 UNL     1      32.441 -13.393 -44.955  0.00  0.00    +0.000 A 
ATOM     31  C20 UNL     1      32.941 -14.104 -46.047  0.00  0.00    +0.000 A 
ATOM     32  C21 UNL     1      33.808 -13.485 -46.951  0.00  0.00    +0.000 A 
ATOM     33  C22 UNL     1      34.171 -12.147 -46.765  0.00  0.00    +0.000 A 
ATOM     34  C23 UNL     1      33.672 -11.428 -45.674  0.00  0.00    +0.000 A 
ENDBRANCH  27  29
ENDBRANCH  22  23
ENDBRANCH  21  22
ENDBRANCH  20  21
ENDBRANCH  19  20
ENDBRANCH  18  19
ENDBRANCH   1  18
TORSDOF 14
ENDMDL
MODEL 2
REMARK VINA RESULT:    -6.318      1.443      2.495
REMARK INTER + INTRA:         -12.042
REMARK INTER:                 -10.729
REMARK INTRA:                  -1.313
REMARK UNBOUND:                -1.291
REMARK  Name = resultss/4CJN/ligands/lig_142_t0.pdb
REMARK  14 active torsions:
REMARK  status: ('A' for Active; 'I' for Inactive)
REMARK    1  A    between atoms: O1_1  and  C1_2
REMARK    2  A    between atoms: C1_2  and  C2_3
REMARK    3  A    between atoms: C3_4  and  O2_5
REMARK    4  A    between atoms: C4_6  and  O3_7
REMARK    5  A    between atoms: C5_8  and  O4_9
REMARK    6  A    between atoms: N1_11  and  C7_12
REMARK    7  A    between atoms: C7_12  and  C8_13
REMARK    8  A    between atoms: C8_13  and  C9_14
REMARK    9  A    between atoms: C9_14  and  C10_15
REMARK   10  A    between atoms: C10_15  and  C11_16
REMARK   11  A    between atoms: C11_16  and  O5_17
REMARK   12  A    between atoms: O5_17  and  C12_18
REMARK   13  A    between atoms: C12_18  and  C13_19
REMARK   14  A    between atoms: C17_23  and  C18_24
REMARK                            x       y       z     vdW  Elec       q    Type
REMARK                         _______ _______ _______ _____ _____    ______ ____
ROOT
ATOM      1  C8  UNL     1      29.674  -9.945 -37.028  0.00  0.00    +0.000 C 
ENDROOT
BRANCH   1   2
ATOM      2  C7  UNL     1      29.176  -9.021 -35.912  0.00  0.00    +0.000 C 
BRANCH   2   8
ATOM      3  C2  UNL     1      27.634  -9.637 -34.012  0.00  0.00    +0.000 C 
ATOM      4  C3  UNL     1      27.500  -8.243 -33.348  0.00  0.00    +0.000 C 
ATOM      5  C4  UNL     1      28.656  -8.029 -32.344  0.00  0.00    +0.000 C 
ATOM      6  C5  UNL     1      30.029  -8.271 -33.006  0.00  0.00    +0.000 C 
ATOM      7  C6  UNL     1      30.060  -9.649 -33.694  0.00  0.00    +0.000 C 
ATOM      8  N1  UNL     1      28.960  -9.810 -34.669  0.00  0.00    +0.000 NA
BRANCH   4   9
ATOM      9  O2  UNL     1      26.275  -8.164 -32.663  0.00  0.00    +0.000 OA
ATOM     10  H6  UNL     1      26.476  -7.856 -31.742  0.00  0.00    +0.000 HD
ENDBRANCH   4   9
BRANCH   5  11
ATOM     11  O3  UNL     1      28.594  -6.742 -31.781  0.00  0.00    +0.000 OA
ATOM     12  H8  UNL     1      27.669  -6.401 -31.905  0.00  0.00    +0.000 HD
ENDBRANCH   5  11
BRANCH   6  13
ATOM     13  O4  UNL     1      31.043  -8.230 -32.034  0.00  0.00    +0.000 OA
ATOM     14  H10 UNL     1      31.906  -8.185 -32.520  0.00  0.00    +0.000 HD
ENDBRANCH   6  13
BRANCH   3  15
ATOM     15  C1  UNL     1      26.470  -9.963 -34.978  0.00  0.00    +0.000 C 
BRANCH  15  16
ATOM     16  O1  UNL     1      25.379 -10.519 -34.289  0.00  0.00    +0.000 OA
ATOM     17  H1  UNL     1      25.606 -11.472 -34.121  0.00  0.00    +0.000 HD
ENDBRANCH  15  16
ENDBRANCH   3  15
ENDBRANCH   2   8
ENDBRANCH   1   2
BRANCH   1  18
ATOM     18  C9  UNL     1      28.551 -10.281 -38.024  0.00  0.00    +0.000 C 
BRANCH  18  19
ATOM     19  C10 UNL     1      28.142  -9.070 -38.879  0.00  0.00    +0.000 C 
BRANCH  19  20
ATOM     20  C11 UNL     1      27.684  -9.466 -40.289  0.00  0.00    +0.000 C 
BRANCH  20  21
ATOM     21  O5  UNL     1      28.470 -10.540 -40.768  0.00  0.00    +0.000 OA
BRANCH  21  22
ATOM     22  C12 UNL     1      28.843 -10.339 -42.120  0.00  0.00    +0.000 C 
BRANCH  22  23
ATOM     23  C13 UNL     1      30.336 -10.458 -42.274  0.00  0.00    +0.000 A 
ATOM     24  C14 UNL     1      31.200  -9.926 -41.304  0.00  0.00    +0.000 A 
ATOM     25  C15 UNL     1      32.583 -10.058 -41.447  0.00  0.00    +0.000 A 
ATOM     26  C16 UNL     1      33.115 -10.723 -42.556  0.00  0.00    +0.000 A 
ATOM     27  C17 UNL     1      32.265 -11.266 -43.537  0.00  0.00    +0.000 A 
ATOM     28  C24 UNL     1      30.873 -11.126 -43.387  0.00  0.00    +0.000 A 
BRANCH  27  29
ATOM     29  C18 UNL     1      32.827 -11.984 -44.708  0.00  0.00    +0.000 A 
ATOM     30  C19 UNL     1      32.527 -13.343 -44.927  0.00  0.00    +0.000 A 
ATOM     31  C20 UNL     1      33.074 -14.023 -46.017  0.00  0.00    +0.000 A 
ATOM     32  C21 UNL     1      33.928 -13.359 -46.901  0.00  0.00    +0.000 A 
ATOM     33  C22 UNL     1      34.231 -12.009 -46.699  0.00  0.00    +0.000 A 
ATOM     34  C23 UNL     1      33.684 -11.322 -45.610  0.00  0.00    +0.000 A 
ENDBRANCH  27  29
ENDBRANCH  22  23
ENDBRANCH  21  22
ENDBRANCH  20  21
ENDBRANCH  19  20
ENDBRANCH  18  19
ENDBRANCH   1  18
TORSDOF 14
ENDMDL
MODEL 3
REMARK VINA RESULT:    -6.280      4.304      9.849
REMARK INTER + INTRA:         -11.976
REMARK INTER:                 -10.566
REMARK INTRA:                  -1.410
REMARK UNBOUND:                -1.291
REMARK  Name = resultss/4CJN/ligands/lig_142_t0.pdb
REMARK  14 active torsions:
REMARK  status: ('A' for Active; 'I' for Inactive)
REMARK    1  A    between atoms: O1_1  and  C1_2
REMARK    2  A    between atoms: C1_2  and  C2_3
REMARK    3  A    between atoms: C3_4  and  O2_5
REMARK    4  A    between atoms: C4_6  and  O3_7
REMARK    5  A    between atoms: C5_8  and  O4_9
REMARK    6  A    between atoms: N1_11  and  C7_12
REMARK    7  A    between atoms: C7_12  and  C8_13
REMARK    8  A    between atoms: C8_13  and  C9_14
REMARK    9  A    between atoms: C9_14  and  C10_15
REMARK   10  A    between atoms: C10_15  and  C11_16
REMARK   11  A    between atoms: C11_16  and  O5_17
REMARK   12  A    between atoms: O5_17  and  C12_18
REMARK   13  A    between atoms: C12_18  and  C13_19
REMARK   14  A    between atoms: C17_23  and  C18_24
REMARK                            x       y       z     vdW  Elec       q    Type
REMARK                         _______ _______ _______ _____ _____    ______ ____
ROOT
ATOM      1  C8  UNL     1      27.817  -9.278 -43.012  0.00  0.00    +0.000 C 
ENDROOT
BRANCH   1   2
ATOM      2  C7  UNL     1      26.724  -8.225 -43.224  0.00  0.00    +0.000 C 
BRANCH   2   8
ATOM      3  C2  UNL     1      24.281  -8.040 -43.827  0.00  0.00    +0.000 C 
ATOM      4  C3  UNL     1      23.846  -7.000 -42.763  0.00  0.00    +0.000 C 
ATOM      5  C4  UNL     1      23.470  -7.724 -41.450  0.00  0.00    +0.000 C 
ATOM      6  C5  UNL     1      24.603  -8.659 -40.977  0.00  0.00    +0.000 C 
ATOM      7  C6  UNL     1      25.017  -9.618 -42.109  0.00  0.00    +0.000 C 
ATOM      8  N1  UNL     1      25.400  -8.894 -43.341  0.00  0.00    +0.000 NA
BRANCH   4   9
ATOM      9  O2  UNL     1      22.730  -6.286 -43.231  0.00  0.00    +0.000 OA
ATOM     10  H6  UNL     1      22.306  -6.837 -43.937  0.00  0.00    +0.000 HD
ENDBRANCH   4   9
BRANCH   5  11
ATOM     11  O3  UNL     1      23.139  -6.795 -40.447  0.00  0.00    +0.000 OA
ATOM     12  H8  UNL     1      22.476  -7.223 -39.844  0.00  0.00    +0.000 HD
ENDBRANCH   5  11
BRANCH   6  13
ATOM     13  O4  UNL     1      24.168  -9.420 -39.879  0.00  0.00    +0.000 OA
ATOM     14  H10 UNL     1      24.788 -10.190 -39.798  0.00  0.00    +0.000 HD
ENDBRANCH   6  13
BRANCH   3  15
ATOM     15  C1  UNL     1      24.603  -7.403 -45.201  0.00  0.00    +0.000 C 
BRANCH  15  16
ATOM     16  O1  UNL     1      23.766  -7.916 -46.207  0.00  0.00    +0.000 OA
ATOM     17  H1  UNL     1      24.249  -7.791 -47.067  0.00  0.00    +0.000 HD
ENDBRANCH  15  16
ENDBRANCH   3  15
ENDBRANCH   2   8
ENDBRANCH   1   2
BRANCH   1  18
ATOM     18  C9  UNL     1      28.597  -9.026 -41.711  0.00  0.00    +0.000 C 
BRANCH  18  19
ATOM     19  C10 UNL     1      28.955 -10.330 -40.979  0.00  0.00    +0.000 C 
BRANCH  19  20
ATOM     20  C11 UNL     1      27.762 -10.936 -40.228  0.00  0.00    +0.000 C 
BRANCH  20  21
ATOM     21  O5  UNL     1      27.541 -10.229 -39.022  0.00  0.00    +0.000 OA
BRANCH  21  22
ATOM     22  C12 UNL     1      28.699 -10.231 -38.207  0.00  0.00    +0.000 C 
BRANCH  22  23
ATOM     23  C13 UNL     1      28.340  -9.872 -36.789  0.00  0.00    +0.000 A 
ATOM     24  C14 UNL     1      29.327  -9.820 -35.793  0.00  0.00    +0.000 A 
ATOM     25  C15 UNL     1      28.986  -9.468 -34.485  0.00  0.00    +0.000 A 
ATOM     26  C16 UNL     1      27.661  -9.163 -34.160  0.00  0.00    +0.000 A 
ATOM     27  C17 UNL     1      26.658  -9.207 -35.146  0.00  0.00    +0.000 A 
ATOM     28  C24 UNL     1      27.009  -9.565 -36.461  0.00  0.00    +0.000 A 
BRANCH  27  29
ATOM     29  C18 UNL     1      25.252  -8.870 -34.808  0.00  0.00    +0.000 A 
ATOM     30  C19 UNL     1      24.440  -8.179 -35.729  0.00  0.00    +0.000 A 
ATOM     31  C20 UNL     1      23.124  -7.844 -35.400  0.00  0.00    +0.000 A 
ATOM     32  C21 UNL     1      22.603  -8.191 -34.151  0.00  0.00    +0.000 A 
ATOM     33  C22 UNL     1      23.398  -8.881 -33.230  0.00  0.00    +0.000 A 
ATOM     34  C23 UNL     1      24.715  -9.221 -33.554  0.00  0.00    +0.000 A 
ENDBRANCH  27  29
ENDBRANCH  22  23
ENDBRANCH  21  22
ENDBRANCH  20  21
ENDBRANCH  19  20
ENDBRANCH  18  19
ENDBRANCH   1  18
TORSDOF 14
ENDMDL
MODEL 4
REMARK VINA RESULT:    -6.239      1.884      3.467
REMARK INTER + INTRA:         -11.907
REMARK INTER:                 -10.410
REMARK INTRA:                  -1.497
REMARK UNBOUND:                -1.291
REMARK  Name = resultss/4CJN/ligands/lig_142_t0.pdb
REMARK  14 active torsions:
REMARK  status: ('A' for Active; 'I' for Inactive)
REMARK    1  A    between atoms: O1_1  and  C1_2
REMARK    2  A    between atoms: C1_2  and  C2_3
REMARK    3  A    between atoms: C3_4  and  O2_5
REMARK    4  A    between atoms: C4_6  and  O3_7
REMARK    5  A    between atoms: C5_8  and  O4_9
REMARK    6  A    between atoms: N1_11  and  C7_12
REMARK    7  A    between atoms: C7_12  and  C8_13
REMARK    8  A    between atoms: C8_13  and  C9_14
REMARK    9  A    between atoms: C9_14  and  C10_15
REMARK   10  A    between atoms: C10_15  and  C11_16
REMARK   11  A    between atoms: C11_16  and  O5_17
REMARK   12  A    between atoms: O5_17  and  C12_18
REMARK   13  A    between atoms: C12_18  and  C13_19
REMARK   14  A    between atoms: C17_23  and  C18_24
REMARK                            x       y       z     vdW  Elec       q    Type
REMARK                         _______ _______ _______ _____ _____    ______ ____
ROOT
ATOM      1  C8  UNL     1      26.915  -6.266 -37.531  0.00  0.00    +0.000 C 
ENDROOT
BRANCH   1   2
ATOM      2  C7  UNL     1      25.940  -6.866 -36.512  0.00  0.00    +0.000 C 
BRANCH   2   8
ATOM      3  C2  UNL     1      26.870  -8.652 -34.992  0.00  0.00    +0.000 C 
ATOM      4  C3  UNL     1      25.544  -9.354 -34.603  0.00  0.00    +0.000 C 
ATOM      5  C4  UNL     1      24.913  -8.640 -33.385  0.00  0.00    +0.000 C 
ATOM      6  C5  UNL     1      24.764  -7.125 -33.634  0.00  0.00    +0.000 C 
ATOM      7  C6  UNL     1      26.109  -6.516 -34.074  0.00  0.00    +0.000 C 
ATOM      8  N1  UNL     1      26.670  -7.200 -35.259  0.00  0.00    +0.000 NA
BRANCH   4   9
ATOM      9  O2  UNL     1      25.800 -10.695 -34.270  0.00  0.00    +0.000 OA
ATOM     10  H6  UNL     1      25.927 -10.731 -33.288  0.00  0.00    +0.000 HD
ENDBRANCH   4   9
BRANCH   5  11
ATOM     11  O3  UNL     1      23.673  -9.217 -33.058  0.00  0.00    +0.000 OA
ATOM     12  H8  UNL     1      23.077  -9.121 -33.847  0.00  0.00    +0.000 HD
ENDBRANCH   5  11
BRANCH   6  13
ATOM     13  O4  UNL     1      24.344  -6.485 -32.456  0.00  0.00    +0.000 OA
ATOM     14  H10 UNL     1      23.440  -6.834 -32.245  0.00  0.00    +0.000 HD
ENDBRANCH   6  13
BRANCH   3  15
ATOM     15  C1  UNL     1      27.606  -9.352 -36.160  0.00  0.00    +0.000 C 
BRANCH  15  16
ATOM     16  O1  UNL     1      26.708 -10.071 -36.967  0.00  0.00    +0.000 OA
ATOM     17  H1  UNL     1      26.205 -10.677 -36.359  0.00  0.00    +0.000 HD
ENDBRANCH  15  16
ENDBRANCH   3  15
ENDBRANCH   2   8
ENDBRANCH   1   2
BRANCH   1  18
ATOM     18  C9  UNL     1      26.558  -6.686 -38.967  0.00  0.00    +0.000 C 
BRANCH  18  19
ATOM     19  C10 UNL     1      27.650  -7.557 -39.612  0.00  0.00    +0.000 C 
BRANCH  19  20
ATOM     20  C11 UNL     1      27.097  -8.859 -40.206  0.00  0.00    +0.000 C 
BRANCH  20  21
ATOM     21  O5  UNL     1      27.899  -9.952 -39.802  0.00  0.00    +0.000 OA
BRANCH  21  22
ATOM     22  C12 UNL     1      28.272 -10.751 -40.910  0.00  0.00    +0.000 C 
BRANCH  22  23
ATOM     23  C13 UNL     1      29.731 -10.555 -41.228  0.00  0.00    +0.000 A 
ATOM     24  C14 UNL     1      30.560  -9.826 -40.362  0.00  0.00    +0.000 A 
ATOM     25  C15 UNL     1      31.916  -9.666 -40.657  0.00  0.00    +0.000 A 
ATOM     26  C16 UNL     1      32.456 -10.232 -41.816  0.00  0.00    +0.000 A 
ATOM     27  C17 UNL     1      31.641 -10.970 -42.694  0.00  0.00    +0.000 A 
ATOM     28  C24 UNL     1      30.276 -11.124 -42.391  0.00  0.00    +0.000 A 
BRANCH  27  29
ATOM     29  C18 UNL     1      32.215 -11.584 -43.918  0.00  0.00    +0.000 A 
ATOM     30  C19 UNL     1      32.092 -12.969 -44.149  0.00  0.00    +0.000 A 
ATOM     31  C20 UNL     1      32.652 -13.549 -45.289  0.00  0.00    +0.000 A 
ATOM     32  C21 UNL     1      33.340 -12.758 -46.213  0.00  0.00    +0.000 A 
ATOM     33  C22 UNL     1      33.465 -11.382 -45.998  0.00  0.00    +0.000 A 
ATOM     34  C23 UNL     1      32.905 -10.795 -44.859  0.00  0.00    +0.000 A 
ENDBRANCH  27  29
ENDBRANCH  22  23
ENDBRANCH  21  22
ENDBRANCH  20  21
ENDBRANCH  19  20
ENDBRANCH  18  19
ENDBRANCH   1  18
TORSDOF 14
ENDMDL
MODEL 5
REMARK VINA RESULT:    -6.213      2.559      4.931
REMARK INTER + INTRA:         -11.863
REMARK INTER:                 -10.506
REMARK INTRA:                  -1.356
REMARK UNBOUND:                -1.291
REMARK  Name = resultss/4CJN/ligands/lig_142_t0.pdb
REMARK  14 active torsions:
REMARK  status: ('A' for Active; 'I' for Inactive)
REMARK    1  A    between atoms: O1_1  and  C1_2
REMARK    2  A    between atoms: C1_2  and  C2_3
REMARK    3  A    between atoms: C3_4  and  O2_5
REMARK    4  A    between atoms: C4_6  and  O3_7
REMARK    5  A    between atoms: C5_8  and  O4_9
REMARK    6  A    between atoms: N1_11  and  C7_12
REMARK    7  A    between atoms: C7_12  and  C8_13
REMARK    8  A    between atoms: C8_13  and  C9_14
REMARK    9  A    between atoms: C9_14  and  C10_15
REMARK   10  A    between atoms: C10_15  and  C11_16
REMARK   11  A    between atoms: C11_16  and  O5_17
REMARK   12  A    between atoms: O5_17  and  C12_18
REMARK   13  A    between atoms: C12_18  and  C13_19
REMARK   14  A    between atoms: C17_23  and  C18_24
REMARK                            x       y       z     vdW  Elec       q    Type
REMARK                         _______ _______ _______ _____ _____    ______ ____
ROOT
ATOM      1  C8  UNL     1      27.880  -8.290 -34.281  0.00  0.00    +0.000 C 
ENDROOT
BRANCH   1   2
ATOM      2  C7  UNL     1      26.635  -7.571 -34.812  0.00  0.00    +0.000 C 
BRANCH   2   8
ATOM      3  C2  UNL     1      24.562  -8.324 -36.038  0.00  0.00    +0.000 C 
ATOM      4  C3  UNL     1      23.689  -7.059 -35.836  0.00  0.00    +0.000 C 
ATOM      5  C4  UNL     1      22.933  -7.156 -34.491  0.00  0.00    +0.000 C 
ATOM      6  C5  UNL     1      23.898  -7.437 -33.321  0.00  0.00    +0.000 C 
ATOM      7  C6  UNL     1      24.770  -8.670 -33.625  0.00  0.00    +0.000 C 
ATOM      8  N1  UNL     1      25.503  -8.533 -34.903  0.00  0.00    +0.000 NA
BRANCH   4   9
ATOM      9  O2  UNL     1      22.757  -6.958 -36.882  0.00  0.00    +0.000 OA
ATOM     10  H6  UNL     1      22.933  -7.710 -37.503  0.00  0.00    +0.000 HD
ENDBRANCH   4   9
BRANCH   5  11
ATOM     11  O3  UNL     1      22.188  -5.987 -34.254  0.00  0.00    +0.000 OA
ATOM     12  H8  UNL     1      22.139  -5.480 -35.107  0.00  0.00    +0.000 HD
ENDBRANCH   5  11
BRANCH   6  13
ATOM     13  O4  UNL     1      23.168  -7.681 -32.146  0.00  0.00    +0.000 OA
ATOM     14  H10 UNL     1      22.906  -8.637 -32.162  0.00  0.00    +0.000 HD
ENDBRANCH   6  13
BRANCH   3  15
ATOM     15  C1  UNL     1      25.297  -8.341 -37.400  0.00  0.00    +0.000 C 
BRANCH  15  16
ATOM     16  O1  UNL     1      24.463  -8.827 -38.421  0.00  0.00    +0.000 OA
ATOM     17  H1  UNL     1      25.060  -9.117 -39.161  0.00  0.00    +0.000 HD
ENDBRANCH  15  16
ENDBRANCH   3  15
ENDBRANCH   2   8
ENDBRANCH   1   2
BRANCH   1  18
ATOM     18  C9  UNL     1      28.064  -9.664 -34.948  0.00  0.00    +0.000 C 
BRANCH  18  19
ATOM     19  C10 UNL     1      28.647  -9.555 -36.368  0.00  0.00    +0.000 C 
BRANCH  19  20
ATOM     20  C11 UNL     1      27.991 -10.527 -37.356  0.00  0.00    +0.000 C 
BRANCH  20  21
ATOM     21  O5  UNL     1      28.600 -10.408 -38.627  0.00  0.00    +0.000 OA
BRANCH  21  22
ATOM     22  C12 UNL     1      27.645 -10.523 -39.666  0.00  0.00    +0.000 C 
BRANCH  22  23
ATOM     23  C13 UNL     1      28.242 -10.078 -40.976  0.00  0.00    +0.000 A 
ATOM     24  C14 UNL     1      27.745  -8.948 -41.641  0.00  0.00    +0.000 A 
ATOM     25  C15 UNL     1      28.318  -8.534 -42.846  0.00  0.00    +0.000 A 
ATOM     26  C16 UNL     1      29.391  -9.242 -43.395  0.00  0.00    +0.000 A 
ATOM     27  C17 UNL     1      29.905 -10.376 -42.741  0.00  0.00    +0.000 A 
ATOM     28  C24 UNL     1      29.320 -10.788 -41.529  0.00  0.00    +0.000 A 
BRANCH  27  29
ATOM     29  C18 UNL     1      31.053 -11.122 -43.314  0.00  0.00    +0.000 A 
ATOM     30  C19 UNL     1      31.957 -10.484 -44.187  0.00  0.00    +0.000 A 
ATOM     31  C20 UNL     1      33.024 -11.193 -44.743  0.00  0.00    +0.000 A 
ATOM     32  C21 UNL     1      33.204 -12.545 -44.438  0.00  0.00    +0.000 A 
ATOM     33  C22 UNL     1      32.316 -13.189 -43.570  0.00  0.00    +0.000 A 
ATOM     34  C23 UNL     1      31.247 -12.484 -43.008  0.00  0.00    +0.000 A 
ENDBRANCH  27  29
ENDBRANCH  22  23
ENDBRANCH  21  22
ENDBRANCH  20  21
ENDBRANCH  19  20
ENDBRANCH  18  19
ENDBRANCH   1  18
TORSDOF 14
ENDMDL
MODEL 6
REMARK VINA RESULT:    -6.196      1.248      2.792
REMARK INTER + INTRA:         -11.835
REMARK INTER:                 -10.431
REMARK INTRA:                  -1.403
REMARK UNBOUND:                -1.291
REMARK  Name = resultss/4CJN/ligands/lig_142_t0.pdb
REMARK  14 active torsions:
REMARK  status: ('A' for Active; 'I' for Inactive)
REMARK    1  A    between atoms: O1_1  and  C1_2
REMARK    2  A    between atoms: C1_2  and  C2_3
REMARK    3  A    between atoms: C3_4  and  O2_5
REMARK    4  A    between atoms: C4_6  and  O3_7
REMARK    5  A    between atoms: C5_8  and  O4_9
REMARK    6  A    between atoms: N1_11  and  C7_12
REMARK    7  A    between atoms: C7_12  and  C8_13
REMARK    8  A    between atoms: C8_13  and  C9_14
REMARK    9  A    between atoms: C9_14  and  C10_15
REMARK   10  A    between atoms: C10_15  and  C11_16
REMARK   11  A    between atoms: C11_16  and  O5_17
REMARK   12  A    between atoms: O5_17  and  C12_18
REMARK   13  A    between atoms: C12_18  and  C13_19
REMARK   14  A    between atoms: C17_23  and  C18_24
REMARK                            x       y       z     vdW  Elec       q    Type
REMARK                         _______ _______ _______ _____ _____    ______ ____
ROOT
ATOM      1  C8  UNL     1      25.521  -8.194 -39.502  0.00  0.00    +0.000 C 
ENDROOT
BRANCH   1   2
ATOM      2  C7  UNL     1      26.673  -8.773 -38.674  0.00  0.00    +0.000 C 
BRANCH   2   8
ATOM      3  C2  UNL     1      27.941  -8.412 -36.522  0.00  0.00    +0.000 C 
ATOM      4  C3  UNL     1      27.495  -9.687 -35.762  0.00  0.00    +0.000 C 
ATOM      5  C4  UNL     1      26.162  -9.416 -35.026  0.00  0.00    +0.000 C 
ATOM      6  C5  UNL     1      25.090  -8.859 -35.987  0.00  0.00    +0.000 C 
ATOM      7  C6  UNL     1      25.632  -7.634 -36.747  0.00  0.00    +0.000 C 
ATOM      8  N1  UNL     1      26.890  -7.934 -37.464  0.00  0.00    +0.000 NA
BRANCH   4   9
ATOM      9  O2  UNL     1      28.476 -10.042 -34.821  0.00  0.00    +0.000 OA
ATOM     10  H6  UNL     1      29.237  -9.420 -34.945  0.00  0.00    +0.000 HD
ENDBRANCH   4   9
BRANCH   5  11
ATOM     11  O3  UNL     1      25.702 -10.580 -34.386  0.00  0.00    +0.000 OA
ATOM     12  H8  UNL     1      24.917 -10.916 -34.894  0.00  0.00    +0.000 HD
ENDBRANCH   5  11
BRANCH   6  13
ATOM     13  O4  UNL     1      23.952  -8.472 -35.261  0.00  0.00    +0.000 OA
ATOM     14  H10 UNL     1      23.708  -9.236 -34.677  0.00  0.00    +0.000 HD
ENDBRANCH   6  13
BRANCH   3  15
ATOM     15  C1  UNL     1      29.309  -8.575 -37.227  0.00  0.00    +0.000 C 
BRANCH  15  16
ATOM     16  O1  UNL     1      29.603  -9.929 -37.459  0.00  0.00    +0.000 OA
ATOM     17  H1  UNL     1      29.719 -10.029 -38.441  0.00  0.00    +0.000 HD
ENDBRANCH  15  16
ENDBRANCH   3  15
ENDBRANCH   2   8
ENDBRANCH   1   2
BRANCH   1  18
ATOM     18  C9  UNL     1      25.006  -9.209 -40.536  0.00  0.00    +0.000 C 
BRANCH  18  19
ATOM     19  C10 UNL     1      26.136 -10.065 -41.133  0.00  0.00    +0.000 C 
BRANCH  19  20
ATOM     20  C11 UNL     1      26.574  -9.583 -42.522  0.00  0.00    +0.000 C 
BRANCH  20  21
ATOM     21  O5  UNL     1      27.985  -9.499 -42.581  0.00  0.00    +0.000 OA
BRANCH  21  22
ATOM     22  C12 UNL     1      28.591 -10.373 -41.647  0.00  0.00    +0.000 C 
BRANCH  22  23
ATOM     23  C13 UNL     1      30.081 -10.416 -41.861  0.00  0.00    +0.000 A 
ATOM     24  C14 UNL     1      30.955  -9.848 -40.921  0.00  0.00    +0.000 A 
ATOM     25  C15 UNL     1      32.336  -9.909 -41.120  0.00  0.00    +0.000 A 
ATOM     26  C16 UNL     1      32.856 -10.537 -42.255  0.00  0.00    +0.000 A 
ATOM     27  C17 UNL     1      31.996 -11.115 -43.207  0.00  0.00    +0.000 A 
ATOM     28  C24 UNL     1      30.606 -11.047 -43.000  0.00  0.00    +0.000 A 
BRANCH  27  29
ATOM     29  C18 UNL     1      32.547 -11.795 -44.406  0.00  0.00    +0.000 A 
ATOM     30  C19 UNL     1      32.325 -13.171 -44.614  0.00  0.00    +0.000 A 
ATOM     31  C20 UNL     1      32.862 -13.814 -45.731  0.00  0.00    +0.000 A 
ATOM     32  C21 UNL     1      33.627 -13.096 -46.654  0.00  0.00    +0.000 A 
ATOM     33  C22 UNL     1      33.851 -11.729 -46.462  0.00  0.00    +0.000 A 
ATOM     34  C23 UNL     1      33.314 -11.079 -45.346  0.00  0.00    +0.000 A 
ENDBRANCH  27  29
ENDBRANCH  22  23
ENDBRANCH  21  22
ENDBRANCH  20  21
ENDBRANCH  19  20
ENDBRANCH  18  19
ENDBRANCH   1  18
TORSDOF 14
ENDMDL
MODEL 7
REMARK VINA RESULT:    -6.043      2.131      4.499
REMARK INTER + INTRA:         -11.573
REMARK INTER:                  -9.959
REMARK INTRA:                  -1.614
REMARK UNBOUND:                -1.291
REMARK  Name = resultss/4CJN/ligands/lig_142_t0.pdb
REMARK  14 active torsions:
REMARK  status: ('A' for Active; 'I' for Inactive)
REMARK    1  A    between atoms: O1_1  and  C1_2
REMARK    2  A    between atoms: C1_2  and  C2_3
REMARK    3  A    between atoms: C3_4  and  O2_5
REMARK    4  A    between atoms: C4_6  and  O3_7
REMARK    5  A    between atoms: C5_8  and  O4_9
REMARK    6  A    between atoms: N1_11  and  C7_12
REMARK    7  A    between atoms: C7_12  and  C8_13
REMARK    8  A    between atoms: C8_13  and  C9_14
REMARK    9  A    between atoms: C9_14  and  C10_15
REMARK   10  A    between atoms: C10_15  and  C11_16
REMARK   11  A    between atoms: C11_16  and  O5_17
REMARK   12  A    between atoms: O5_17  and  C12_18
REMARK   13  A    between atoms: C12_18  and  C13_19
REMARK   14  A    between atoms: C17_23  and  C18_24
REMARK                            x       y       z     vdW  Elec       q    Type
REMARK                         _______ _______ _______ _____ _____    ______ ____
ROOT
ATOM      1  C8  UNL     1      28.741  -6.133 -35.413  0.00  0.00    +0.000 C 
ENDROOT
BRANCH   1   2
ATOM      2  C7  UNL     1      27.416  -6.892 -35.287  0.00  0.00    +0.000 C 
BRANCH   2   8
ATOM      3  C2  UNL     1      27.103  -9.011 -33.953  0.00  0.00    +0.000 C 
ATOM      4  C3  UNL     1      25.661  -9.365 -34.396  0.00  0.00    +0.000 C 
ATOM      5  C4  UNL     1      24.642  -8.639 -33.486  0.00  0.00    +0.000 C 
ATOM      6  C5  UNL     1      24.919  -7.122 -33.430  0.00  0.00    +0.000 C 
ATOM      7  C6  UNL     1      26.387  -6.856 -33.043  0.00  0.00    +0.000 C 
ATOM      8  N1  UNL     1      27.335  -7.539 -33.950  0.00  0.00    +0.000 NA
BRANCH   4   9
ATOM      9  O2  UNL     1      25.463 -10.753 -34.291  0.00  0.00    +0.000 OA
ATOM     10  H6  UNL     1      25.047 -11.052 -35.140  0.00  0.00    +0.000 HD
ENDBRANCH   4   9
BRANCH   5  11
ATOM     11  O3  UNL     1      23.326  -8.890 -33.914  0.00  0.00    +0.000 OA
ATOM     12  H8  UNL     1      22.719  -8.702 -33.150  0.00  0.00    +0.000 HD
ENDBRANCH   5  11
BRANCH   6  13
ATOM     13  O4  UNL     1      24.086  -6.518 -32.474  0.00  0.00    +0.000 OA
ATOM     14  H10 UNL     1      23.804  -5.644 -32.847  0.00  0.00    +0.000 HD
ENDBRANCH   6  13
BRANCH   3  15
ATOM     15  C1  UNL     1      28.187  -9.759 -34.767  0.00  0.00    +0.000 C 
BRANCH  15  16
ATOM     16  O1  UNL     1      27.640 -10.349 -35.918  0.00  0.00    +0.000 OA
ATOM     17  H1  UNL     1      28.240 -11.104 -36.161  0.00  0.00    +0.000 HD
ENDBRANCH  15  16
ENDBRANCH   3  15
ENDBRANCH   2   8
ENDBRANCH   1   2
BRANCH   1  18
ATOM     18  C9  UNL     1      29.248  -6.122 -36.865  0.00  0.00    +0.000 C 
BRANCH  18  19
ATOM     19  C10 UNL     1      28.865  -7.400 -37.630  0.00  0.00    +0.000 C 
BRANCH  19  20
ATOM     20  C11 UNL     1      30.002  -8.430 -37.672  0.00  0.00    +0.000 C 
BRANCH  20  21
ATOM     21  O5  UNL     1      29.581  -9.586 -38.372  0.00  0.00    +0.000 OA
BRANCH  21  22
ATOM     22  C12 UNL     1      28.313  -9.389 -38.971  0.00  0.00    +0.000 C 
BRANCH  22  23
ATOM     23  C13 UNL     1      28.421  -9.494 -40.469  0.00  0.00    +0.000 A 
ATOM     24  C14 UNL     1      27.478  -8.869 -41.300  0.00  0.00    +0.000 A 
ATOM     25  C15 UNL     1      27.598  -8.957 -42.689  0.00  0.00    +0.000 A 
ATOM     26  C16 UNL     1      28.659  -9.667 -43.259  0.00  0.00    +0.000 A 
ATOM     27  C17 UNL     1      29.616 -10.297 -42.443  0.00  0.00    +0.000 A 
ATOM     28  C24 UNL     1      29.486 -10.206 -41.045  0.00  0.00    +0.000 A 
BRANCH  27  29
ATOM     29  C18 UNL     1      30.751 -11.039 -43.047  0.00  0.00    +0.000 A 
ATOM     30  C19 UNL     1      31.657 -10.387 -43.907  0.00  0.00    +0.000 A 
ATOM     31  C20 UNL     1      32.711 -11.091 -44.491  0.00  0.00    +0.000 A 
ATOM     32  C21 UNL     1      32.876 -12.454 -44.228  0.00  0.00    +0.000 A 
ATOM     33  C22 UNL     1      31.987 -13.112 -43.372  0.00  0.00    +0.000 A 
ATOM     34  C23 UNL     1      30.930 -12.412 -42.783  0.00  0.00    +0.000 A 
ENDBRANCH  27  29
ENDBRANCH  22  23
ENDBRANCH  21  22
ENDBRANCH  20  21
ENDBRANCH  19  20
ENDBRANCH  18  19
ENDBRANCH   1  18
TORSDOF 14
ENDMDL
MODEL 8
REMARK VINA RESULT:    -6.041      4.360      7.245
REMARK INTER + INTRA:         -11.571
REMARK INTER:                 -10.480
REMARK INTRA:                  -1.091
REMARK UNBOUND:                -1.291
REMARK  Name = resultss/4CJN/ligands/lig_142_t0.pdb
REMARK  14 active torsions:
REMARK  status: ('A' for Active; 'I' for Inactive)
REMARK    1  A    between atoms: O1_1  and  C1_2
REMARK    2  A    between atoms: C1_2  and  C2_3
REMARK    3  A    between atoms: C3_4  and  O2_5
REMARK    4  A    between atoms: C4_6  and  O3_7
REMARK    5  A    between atoms: C5_8  and  O4_9
REMARK    6  A    between atoms: N1_11  and  C7_12
REMARK    7  A    between atoms: C7_12  and  C8_13
REMARK    8  A    between atoms: C8_13  and  C9_14
REMARK    9  A    between atoms: C9_14  and  C10_15
REMARK   10  A    between atoms: C10_15  and  C11_16
REMARK   11  A    between atoms: C11_16  and  O5_17
REMARK   12  A    between atoms: O5_17  and  C12_18
REMARK   13  A    between atoms: C12_18  and  C13_19
REMARK   14  A    between atoms: C17_23  and  C18_24
REMARK                            x       y       z     vdW  Elec       q    Type
REMARK                         _______ _______ _______ _____ _____    ______ ____
ROOT
ATOM      1  C8  UNL     1      26.040  -8.645 -43.012  0.00  0.00    +0.000 C 
ENDROOT
BRANCH   1   2
ATOM      2  C7  UNL     1      24.861  -8.264 -43.914  0.00  0.00    +0.000 C 
BRANCH   2   8
ATOM      3  C2  UNL     1      24.237  -6.514 -45.621  0.00  0.00    +0.000 C 
ATOM      4  C3  UNL     1      24.729  -7.238 -46.901  0.00  0.00    +0.000 C 
ATOM      5  C4  UNL     1      26.228  -6.931 -47.130  0.00  0.00    +0.000 C 
ATOM      6  C5  UNL     1      27.067  -7.251 -45.875  0.00  0.00    +0.000 C 
ATOM      7  C6  UNL     1      26.478  -6.544 -44.639  0.00  0.00    +0.000 C 
ATOM      8  N1  UNL     1      25.053  -6.882 -44.430  0.00  0.00    +0.000 NA
BRANCH   4   9
ATOM      9  O2  UNL     1      23.993  -6.787 -48.010  0.00  0.00    +0.000 OA
ATOM     10  H6  UNL     1      23.211  -6.291 -47.658  0.00  0.00    +0.000 HD
ENDBRANCH   4   9
BRANCH   5  11
ATOM     11  O3  UNL     1      26.714  -7.634 -48.247  0.00  0.00    +0.000 OA
ATOM     12  H8  UNL     1      26.910  -6.971 -48.961  0.00  0.00    +0.000 HD
ENDBRANCH   5  11
BRANCH   6  13
ATOM     13  O4  UNL     1      28.388  -6.811 -46.058  0.00  0.00    +0.000 OA
ATOM     14  H10 UNL     1      28.802  -6.760 -45.158  0.00  0.00    +0.000 HD
ENDBRANCH   6  13
BRANCH   3  15
ATOM     15  C1  UNL     1      22.724  -6.708 -45.361  0.00  0.00    +0.000 C 
BRANCH  15  16
ATOM     16  O1  UNL     1      22.182  -7.682 -46.216  0.00  0.00    +0.000 OA
ATOM     17  H1  UNL     1      21.291  -7.920 -45.845  0.00  0.00    +0.000 HD
ENDBRANCH  15  16
ENDBRANCH   3  15
ENDBRANCH   2   8
ENDBRANCH   1   2
BRANCH   1  18
ATOM     18  C9  UNL     1      25.620  -8.709 -41.534  0.00  0.00    +0.000 C 
BRANCH  18  19
ATOM     19  C10 UNL     1      26.821  -8.879 -40.589  0.00  0.00    +0.000 C 
BRANCH  19  20
ATOM     20  C11 UNL     1      27.285 -10.336 -40.475  0.00  0.00    +0.000 C 
BRANCH  20  21
ATOM     21  O5  UNL     1      28.681 -10.417 -40.693  0.00  0.00    +0.000 OA
BRANCH  21  22
ATOM     22  C12 UNL     1      28.986 -10.390 -42.076  0.00  0.00    +0.000 C 
BRANCH  22  23
ATOM     23  C13 UNL     1      30.473 -10.508 -42.285  0.00  0.00    +0.000 A 
ATOM     24  C14 UNL     1      31.371  -9.957 -41.359  0.00  0.00    +0.000 A 
ATOM     25  C15 UNL     1      32.748 -10.087 -41.554  0.00  0.00    +0.000 A 
ATOM     26  C16 UNL     1      33.239 -10.770 -42.671  0.00  0.00    +0.000 A 
ATOM     27  C17 UNL     1      32.354 -11.332 -43.608  0.00  0.00    +0.000 A 
ATOM     28  C24 UNL     1      30.969 -11.194 -43.406  0.00  0.00    +0.000 A 
BRANCH  27  29
ATOM     29  C18 UNL     1      32.873 -12.070 -44.788  0.00  0.00    +0.000 A 
ATOM     30  C19 UNL     1      32.489 -13.405 -45.023  0.00  0.00    +0.000 A 
ATOM     31  C20 UNL     1      32.995 -14.104 -46.121  0.00  0.00    +0.000 A 
ATOM     32  C21 UNL     1      33.890 -13.483 -46.996  0.00  0.00    +0.000 A 
ATOM     33  C22 UNL     1      34.276 -12.157 -46.776  0.00  0.00    +0.000 A 
ATOM     34  C23 UNL     1      33.771 -11.451 -45.680  0.00  0.00    +0.000 A 
ENDBRANCH  27  29
ENDBRANCH  22  23
ENDBRANCH  21  22
ENDBRANCH  20  21
ENDBRANCH  19  20
ENDBRANCH  18  19
ENDBRANCH   1  18
TORSDOF 14
ENDMDL
MODEL 9
REMARK VINA RESULT:    -5.949      3.937      9.192
REMARK INTER + INTRA:         -11.414
REMARK INTER:                  -9.692
REMARK INTRA:                  -1.722
REMARK UNBOUND:                -1.291
REMARK  Name = resultss/4CJN/ligands/lig_142_t0.pdb
REMARK  14 active torsions:
REMARK  status: ('A' for Active; 'I' for Inactive)
REMARK    1  A    between atoms: O1_1  and  C1_2
REMARK    2  A    between atoms: C1_2  and  C2_3
REMARK    3  A    between atoms: C3_4  and  O2_5
REMARK    4  A    between atoms: C4_6  and  O3_7
REMARK    5  A    between atoms: C5_8  and  O4_9
REMARK    6  A    between atoms: N1_11  and  C7_12
REMARK    7  A    between atoms: C7_12  and  C8_13
REMARK    8  A    between atoms: C8_13  and  C9_14
REMARK    9  A    between atoms: C9_14  and  C10_15
REMARK   10  A    between atoms: C10_15  and  C11_16
REMARK   11  A    between atoms: C11_16  and  O5_17
REMARK   12  A    between atoms: O5_17  and  C12_18
REMARK   13  A    between atoms: C12_18  and  C13_19
REMARK   14  A    between atoms: C17_23  and  C18_24
REMARK                            x       y       z     vdW  Elec       q    Type
REMARK                         _______ _______ _______ _____ _____    ______ ____
ROOT
ATOM      1  C8  UNL     1      28.983  -6.944 -42.008  0.00  0.00    +0.000 C 
ENDROOT
BRANCH   1   2
ATOM      2  C7  UNL     1      27.587  -7.564 -41.884  0.00  0.00    +0.000 C 
BRANCH   2   8
ATOM      3  C2  UNL     1      26.300  -9.645 -42.500  0.00  0.00    +0.000 C 
ATOM      4  C3  UNL     1      26.279 -10.336 -41.112  0.00  0.00    +0.000 C 
ATOM      5  C4  UNL     1      27.562 -11.180 -40.930  0.00  0.00    +0.000 C 
ATOM      6  C5  UNL     1      28.831 -10.339 -41.186  0.00  0.00    +0.000 C 
ATOM      7  C6  UNL     1      28.746  -9.638 -42.556  0.00  0.00    +0.000 C 
ATOM      8  N1  UNL     1      27.523  -8.816 -42.686  0.00  0.00    +0.000 NA
BRANCH   4   9
ATOM      9  O2  UNL     1      25.158 -11.178 -41.022  0.00  0.00    +0.000 OA
ATOM     10  H6  UNL     1      24.468 -10.689 -40.505  0.00  0.00    +0.000 HD
ENDBRANCH   4   9
BRANCH   5  11
ATOM     11  O3  UNL     1      27.599 -11.760 -39.650  0.00  0.00    +0.000 OA
ATOM     12  H8  UNL     1      28.528 -11.681 -39.308  0.00  0.00    +0.000 HD
ENDBRANCH   5  11
BRANCH   6  13
ATOM     13  O4  UNL     1      29.965 -11.168 -41.174  0.00  0.00    +0.000 OA
ATOM     14  H10 UNL     1      30.426 -11.013 -40.310  0.00  0.00    +0.000 HD
ENDBRANCH   6  13
BRANCH   3  15
ATOM     15  C1  UNL     1      25.012  -8.838 -42.794  0.00  0.00    +0.000 C 
BRANCH  15  16
ATOM     16  O1  UNL     1      23.932  -9.692 -43.074  0.00  0.00    +0.000 OA
ATOM     17  H1  UNL     1      23.166  -9.365 -42.531  0.00  0.00    +0.000 HD
ENDBRANCH  15  16
ENDBRANCH   3  15
ENDBRANCH   2   8
ENDBRANCH   1   2
BRANCH   1  18
ATOM     18  C9  UNL     1      29.577  -6.616 -40.628  0.00  0.00    +0.000 C 
BRANCH  18  19
ATOM     19  C10 UNL     1      28.694  -7.118 -39.473  0.00  0.00    +0.000 C 
BRANCH  19  20
ATOM     20  C11 UNL     1      29.455  -8.015 -38.489  0.00  0.00    +0.000 C 
BRANCH  20  21
ATOM     21  O5  UNL     1      28.731  -9.210 -38.266  0.00  0.00    +0.000 OA
BRANCH  21  22
ATOM     22  C12 UNL     1      29.325  -9.986 -37.240  0.00  0.00    +0.000 C 
BRANCH  22  23
ATOM     23  C13 UNL     1      28.697  -9.662 -35.910  0.00  0.00    +0.000 A 
ATOM     24  C14 UNL     1      29.476  -9.612 -34.745  0.00  0.00    +0.000 A 
ATOM     25  C15 UNL     1      28.886  -9.293 -33.519  0.00  0.00    +0.000 A 
ATOM     26  C16 UNL     1      27.517  -9.019 -33.447  0.00  0.00    +0.000 A 
ATOM     27  C17 UNL     1      26.720  -9.061 -34.606  0.00  0.00    +0.000 A 
ATOM     28  C24 UNL     1      27.322  -9.386 -35.836  0.00  0.00    +0.000 A 
BRANCH  27  29
ATOM     29  C18 UNL     1      25.269  -8.757 -34.535  0.00  0.00    +0.000 A 
ATOM     30  C19 UNL     1      24.513  -9.133 -33.406  0.00  0.00    +0.000 A 
ATOM     31  C20 UNL     1      23.144  -8.865 -33.351  0.00  0.00    +0.000 A 
ATOM     32  C21 UNL     1      22.510  -8.223 -34.417  0.00  0.00    +0.000 A 
ATOM     33  C22 UNL     1      23.249  -7.840 -35.541  0.00  0.00    +0.000 A 
ATOM     34  C23 UNL     1      24.621  -8.103 -35.602  0.00  0.00    +0.000 A 
ENDBRANCH  27  29
ENDBRANCH  22  23
ENDBRANCH  21  22
ENDBRANCH  20  21
ENDBRANCH  19  20
ENDBRANCH  18  19
ENDBRANCH   1  18
TORSDOF 14
ENDMDL
