MODEL 1
REMARK VINA RESULT:    -6.323      0.000      0.000
REMARK INTER + INTRA:          -8.212
REMARK INTER:                  -8.171
REMARK INTRA:                  -0.040
REMARK UNBOUND:                -0.040
REMARK  Name = resultss/4CJN/ligands/lig_369_t0.pdb
REMARK  9 active torsions:
REMARK  status: ('A' for Active; 'I' for Inactive)
REMARK    1  A    between atoms: C1_1  and  O1_2
REMARK    2  A    between atoms: O1_2  and  C2_3
REMARK    3  A    between atoms: C5_6  and  C6_7
REMARK    4  A    between atoms: C6_7  and  C7_8
REMARK    5  A    between atoms: C6_7  and  C17_21
REMARK    6  A    between atoms: C8_9  and  O2_10
REMARK    7  A    between atoms: C11_13  and  C12_14
REMARK    8  A    between atoms: C18_22  and  O5_23
REMARK    9  A    between atoms: C21_26  and  C22_27
REMARK                            x       y       z     vdW  Elec       q    Type
REMARK                         _______ _______ _______ _____ _____    ______ ____
ROOT
ATOM      1  C6  UNL     1      28.436 -10.008 -41.192  0.00  0.00    +0.000 C 
ENDROOT
BRANCH   1   2
ATOM      2  C7  UNL     1      28.321  -9.886 -39.664  0.00  0.00    +0.000 A 
ATOM      3  C8  UNL     1      28.739  -8.742 -38.936  0.00  0.00    +0.000 A 
ATOM      4  C9  UNL     1      28.613  -8.735 -37.524  0.00  0.00    +0.000 A 
ATOM      5  C10 UNL     1      29.051  -7.666 -36.711  0.00  0.00    +0.000 A 
ATOM      6  C11 UNL     1      28.902  -7.720 -35.316  0.00  0.00    +0.000 A 
ATOM      7  C12 UNL     1      29.337  -6.562 -34.466  0.00  0.00    +0.000 C 
ATOM      8  C13 UNL     1      28.288  -8.831 -34.725  0.00  0.00    +0.000 A 
ATOM      9  C14 UNL     1      27.858  -9.897 -35.515  0.00  0.00    +0.000 A 
ATOM     10  C15 UNL     1      28.021  -9.858 -36.902  0.00  0.00    +0.000 A 
ATOM     11  O3  UNL     1      27.605 -10.888 -37.625  0.00  0.00    +0.000 OA
ATOM     12  C16 UNL     1      27.725 -10.945 -38.942  0.00  0.00    +0.000 A 
ATOM     13  O4  UNL     1      27.292 -11.965 -39.544  0.00  0.00    +0.000 OA
BRANCH   3  14
ATOM     14  O2  UNL     1      29.240  -7.639 -39.634  0.00  0.00    +0.000 OA
ATOM     15  H7  UNL     1      28.731  -6.789 -39.824  0.00  0.00    +0.000 HD
ENDBRANCH   3  14
ENDBRANCH   1   2
BRANCH   1  16
ATOM     16  C17 UNL     1      27.657  -8.919 -41.945  0.00  0.00    +0.000 A 
ATOM     17  C18 UNL     1      26.280  -9.101 -42.212  0.00  0.00    +0.000 A 
ATOM     18  C19 UNL     1      25.566  -8.092 -42.902  0.00  0.00    +0.000 A 
ATOM     19  C20 UNL     1      24.179  -8.164 -43.164  0.00  0.00    +0.000 A 
ATOM     20  C21 UNL     1      23.530  -7.138 -43.870  0.00  0.00    +0.000 A 
ATOM     21  C22 UNL     1      22.050  -7.207 -44.108  0.00  0.00    +0.000 C 
ATOM     22  C23 UNL     1      24.257  -6.017 -44.288  0.00  0.00    +0.000 A 
ATOM     23  C24 UNL     1      25.624  -5.930 -44.029  0.00  0.00    +0.000 A 
ATOM     24  C25 UNL     1      26.280  -6.956 -43.343  0.00  0.00    +0.000 A 
ATOM     25  O6  UNL     1      27.580  -6.846 -43.113  0.00  0.00    +0.000 OA
ATOM     26  C26 UNL     1      28.283  -7.759 -42.458  0.00  0.00    +0.000 A 
ATOM     27  O7  UNL     1      29.519  -7.573 -42.318  0.00  0.00    +0.000 OA
BRANCH  17  28
ATOM     28  O5  UNL     1      25.671 -10.290 -41.791  0.00  0.00    +0.000 OA
ATOM     29  H14 UNL     1      24.822 -10.343 -41.248  0.00  0.00    +0.000 HD
ENDBRANCH  17  28
ENDBRANCH   1  16
BRANCH   1  33
ATOM     30  C2  UNL     1      32.447 -10.674 -42.739  0.00  0.00    +0.000 A 
ATOM     31  C3  UNL     1      31.318 -10.916 -43.526  0.00  0.00    +0.000 A 
ATOM     32  C4  UNL     1      30.036 -10.692 -43.020  0.00  0.00    +0.000 A 
ATOM     33  C5  UNL     1      29.855 -10.214 -41.709  0.00  0.00    +0.000 A 
ATOM     34  C27 UNL     1      30.995  -9.978 -40.914  0.00  0.00    +0.000 A 
ATOM     35  C28 UNL     1      32.277 -10.202 -41.425  0.00  0.00    +0.000 A 
BRANCH  30  37
ATOM     36  C1  UNL     1      34.059 -10.652 -44.650  0.00  0.00    +0.000 C 
ATOM     37  O1  UNL     1      33.713 -10.917 -43.294  0.00  0.00    +0.000 OA
ENDBRANCH  30  37
ENDBRANCH   1  33
TORSDOF 6
ENDMDL
MODEL 2
REMARK VINA RESULT:    -6.323      3.739      8.082
REMARK INTER + INTRA:          -8.212
REMARK INTER:                  -8.216
REMARK INTRA:                   0.004
REMARK UNBOUND:                -0.040
REMARK  Name = resultss/4CJN/ligands/lig_369_t0.pdb
REMARK  9 active torsions:
REMARK  status: ('A' for Active; 'I' for Inactive)
REMARK    1  A    between atoms: C1_1  and  O1_2
REMARK    2  A    between atoms: O1_2  and  C2_3
REMARK    3  A    between atoms: C5_6  and  C6_7
REMARK    4  A    between atoms: C6_7  and  C7_8
REMARK    5  A    between atoms: C6_7  and  C17_21
REMARK    6  A    between atoms: C8_9  and  O2_10
REMARK    7  A    between atoms: C11_13  and  C12_14
REMARK    8  A    between atoms: C18_22  and  O5_23
REMARK    9  A    between atoms: C21_26  and  C22_27
REMARK                            x       y       z     vdW  Elec       q    Type
REMARK                         _______ _______ _______ _____ _____    ______ ____
ROOT
ATOM      1  C6  UNL     1      29.116  -7.899 -35.452  0.00  0.00    +0.000 C 
ENDROOT
BRANCH   1   2
ATOM      2  C7  UNL     1      30.304  -8.412 -34.621  0.00  0.00    +0.000 A 
ATOM      3  C8  UNL     1      30.247  -9.575 -33.810  0.00  0.00    +0.000 A 
ATOM      4  C9  UNL     1      31.389  -9.953 -33.061  0.00  0.00    +0.000 A 
ATOM      5  C10 UNL     1      31.411 -11.062 -32.185  0.00  0.00    +0.000 A 
ATOM      6  C11 UNL     1      32.573 -11.385 -31.467  0.00  0.00    +0.000 A 
ATOM      7  C12 UNL     1      32.595 -12.587 -30.568  0.00  0.00    +0.000 C 
ATOM      8  C13 UNL     1      33.732 -10.618 -31.641  0.00  0.00    +0.000 A 
ATOM      9  C14 UNL     1      33.723  -9.517 -32.496  0.00  0.00    +0.000 A 
ATOM     10  C15 UNL     1      32.563  -9.179 -33.199  0.00  0.00    +0.000 A 
ATOM     11  O3  UNL     1      32.586  -8.124 -34.002  0.00  0.00    +0.000 OA
ATOM     12  C16 UNL     1      31.535  -7.723 -34.700  0.00  0.00    +0.000 A 
ATOM     13  O4  UNL     1      31.656  -6.711 -35.442  0.00  0.00    +0.000 OA
BRANCH   3  14
ATOM     14  O2  UNL     1      29.071 -10.332 -33.791  0.00  0.00    +0.000 OA
ATOM     15  H7  UNL     1      29.019 -11.329 -33.933  0.00  0.00    +0.000 HD
ENDBRANCH   3  14
ENDBRANCH   1   2
BRANCH   1  16
ATOM     16  C17 UNL     1      28.766  -8.814 -36.634  0.00  0.00    +0.000 A 
ATOM     17  C18 UNL     1      29.390  -8.610 -37.887  0.00  0.00    +0.000 A 
ATOM     18  C19 UNL     1      29.066  -9.459 -38.972  0.00  0.00    +0.000 A 
ATOM     19  C20 UNL     1      29.678  -9.363 -40.242  0.00  0.00    +0.000 A 
ATOM     20  C21 UNL     1      29.302 -10.225 -41.285  0.00  0.00    +0.000 A 
ATOM     21  C22 UNL     1      29.986 -10.139 -42.618  0.00  0.00    +0.000 C 
ATOM     22  C23 UNL     1      28.335 -11.212 -41.054  0.00  0.00    +0.000 A 
ATOM     23  C24 UNL     1      27.729 -11.321 -39.804  0.00  0.00    +0.000 A 
ATOM     24  C25 UNL     1      28.086 -10.456 -38.767  0.00  0.00    +0.000 A 
ATOM     25  O6  UNL     1      27.492 -10.584 -37.590  0.00  0.00    +0.000 OA
ATOM     26  C26 UNL     1      27.776  -9.820 -36.545  0.00  0.00    +0.000 A 
ATOM     27  O7  UNL     1      27.133 -10.004 -35.479  0.00  0.00    +0.000 OA
BRANCH  17  28
ATOM     28  O5  UNL     1      30.302  -7.555 -38.013  0.00  0.00    +0.000 OA
ATOM     29  H14 UNL     1      30.936  -7.428 -38.788  0.00  0.00    +0.000 HD
ENDBRANCH  17  28
ENDBRANCH   1  16
BRANCH   1  33
ATOM     30  C2  UNL     1      25.636  -6.588 -33.194  0.00  0.00    +0.000 A 
ATOM     31  C3  UNL     1      25.679  -6.478 -34.587  0.00  0.00    +0.000 A 
ATOM     32  C4  UNL     1      26.800  -6.908 -35.301  0.00  0.00    +0.000 A 
ATOM     33  C5  UNL     1      27.906  -7.465 -34.633  0.00  0.00    +0.000 A 
ATOM     34  C27 UNL     1      27.863  -7.569 -33.227  0.00  0.00    +0.000 A 
ATOM     35  C28 UNL     1      26.739  -7.139 -32.517  0.00  0.00    +0.000 A 
BRANCH  30  37
ATOM     36  C1  UNL     1      23.162  -6.558 -32.835  0.00  0.00    +0.000 C 
ATOM     37  O1  UNL     1      24.487  -6.140 -32.525  0.00  0.00    +0.000 OA
ENDBRANCH  30  37
ENDBRANCH   1  33
TORSDOF 6
ENDMDL
MODEL 3
REMARK VINA RESULT:    -6.243      1.898      6.232
REMARK INTER + INTRA:          -8.108
REMARK INTER:                  -8.218
REMARK INTRA:                   0.110
REMARK UNBOUND:                -0.040
REMARK  Name = resultss/4CJN/ligands/lig_369_t0.pdb
REMARK  9 active torsions:
REMARK  status: ('A' for Active; 'I' for Inactive)
REMARK    1  A    between atoms: C1_1  and  O1_2
REMARK    2  A    between atoms: O1_2  and  C2_3
REMARK    3  A    between atoms: C5_6  and  C6_7
REMARK    4  A    between atoms: C6_7  and  C7_8
REMARK    5  A    between atoms: C6_7  and  C17_21
REMARK    6  A    between atoms: C8_9  and  O2_10
REMARK    7  A    between atoms: C11_13  and  C12_14
REMARK    8  A    between atoms: C18_22  and  O5_23
REMARK    9  A    between atoms: C21_26  and  C22_27
REMARK                            x       y       z     vdW  Elec       q    Type
REMARK                         _______ _______ _______ _____ _____    ______ ____
ROOT
ATOM      1  C6  UNL     1      27.380  -8.154 -40.586  0.00  0.00    +0.000 C 
ENDROOT
BRANCH   1   2
ATOM      2  C7  UNL     1      27.384  -8.038 -39.053  0.00  0.00    +0.000 A 
ATOM      3  C8  UNL     1      26.366  -8.577 -38.224  0.00  0.00    +0.000 A 
ATOM      4  C9  UNL     1      26.446  -8.396 -36.821  0.00  0.00    +0.000 A 
ATOM      5  C10 UNL     1      25.455  -8.850 -35.922  0.00  0.00    +0.000 A 
ATOM      6  C11 UNL     1      25.590  -8.637 -34.540  0.00  0.00    +0.000 A 
ATOM      7  C12 UNL     1      24.549  -9.156 -33.592  0.00  0.00    +0.000 C 
ATOM      8  C13 UNL     1      26.731  -7.994 -34.045  0.00  0.00    +0.000 A 
ATOM      9  C14 UNL     1      27.714  -7.535 -34.921  0.00  0.00    +0.000 A 
ATOM     10  C15 UNL     1      27.576  -7.726 -36.299  0.00  0.00    +0.000 A 
ATOM     11  O3  UNL     1      28.525  -7.275 -37.106  0.00  0.00    +0.000 OA
ATOM     12  C16 UNL     1      28.478  -7.402 -38.423  0.00  0.00    +0.000 A 
ATOM     13  O4  UNL     1      29.433  -6.947 -39.108  0.00  0.00    +0.000 OA
BRANCH   3  14
ATOM     14  O2  UNL     1      25.322  -9.298 -38.814  0.00  0.00    +0.000 OA
ATOM     15  H7  UNL     1      24.960 -10.178 -38.479  0.00  0.00    +0.000 HD
ENDBRANCH   3  14
ENDBRANCH   1   2
BRANCH   1  16
ATOM     16  C17 UNL     1      28.281  -9.283 -41.107  0.00  0.00    +0.000 A 
ATOM     17  C18 UNL     1      29.204  -9.019 -42.146  0.00  0.00    +0.000 A 
ATOM     18  C19 UNL     1      30.035 -10.062 -42.621  0.00  0.00    +0.000 A 
ATOM     19  C20 UNL     1      31.020  -9.878 -43.616  0.00  0.00    +0.000 A 
ATOM     20  C21 UNL     1      31.803 -10.958 -44.057  0.00  0.00    +0.000 A 
ATOM     21  C22 UNL     1      32.873 -10.741 -45.086  0.00  0.00    +0.000 C 
ATOM     22  C23 UNL     1      31.628 -12.222 -43.481  0.00  0.00    +0.000 A 
ATOM     23  C24 UNL     1      30.663 -12.416 -42.494  0.00  0.00    +0.000 A 
ATOM     24  C25 UNL     1      29.869 -11.350 -42.062  0.00  0.00    +0.000 A 
ATOM     25  O6  UNL     1      28.961 -11.565 -41.123  0.00  0.00    +0.000 OA
ATOM     26  C26 UNL     1      28.173 -10.614 -40.641  0.00  0.00    +0.000 A 
ATOM     27  O7  UNL     1      27.322 -10.929 -39.770  0.00  0.00    +0.000 OA
BRANCH  17  28
ATOM     28  O5  UNL     1      29.252  -7.726 -42.683  0.00  0.00    +0.000 OA
ATOM     29  H14 UNL     1      30.033  -7.341 -43.193  0.00  0.00    +0.000 HD
ENDBRANCH  17  28
ENDBRANCH   1  16
BRANCH   1  33
ATOM     30  C2  UNL     1      23.467  -8.153 -42.487  0.00  0.00    +0.000 A 
ATOM     31  C3  UNL     1      24.363  -9.210 -42.674  0.00  0.00    +0.000 A 
ATOM     32  C4  UNL     1      25.613  -9.202 -42.052  0.00  0.00    +0.000 A 
ATOM     33  C5  UNL     1      25.995  -8.131 -41.223  0.00  0.00    +0.000 A 
ATOM     34  C27 UNL     1      25.093  -7.062 -41.042  0.00  0.00    +0.000 A 
ATOM     35  C28 UNL     1      23.842  -7.075 -41.665  0.00  0.00    +0.000 A 
BRANCH  30  37
ATOM     36  C1  UNL     1      21.622  -7.114 -43.817  0.00  0.00    +0.000 C 
ATOM     37  O1  UNL     1      22.224  -8.210 -43.135  0.00  0.00    +0.000 OA
ENDBRANCH  30  37
ENDBRANCH   1  33
TORSDOF 6
ENDMDL
MODEL 4
REMARK VINA RESULT:    -6.198      3.203      7.711
REMARK INTER + INTRA:          -8.050
REMARK INTER:                  -8.203
REMARK INTRA:                   0.153
REMARK UNBOUND:                -0.040
REMARK  Name = resultss/4CJN/ligands/lig_369_t0.pdb
REMARK  9 active torsions:
REMARK  status: ('A' for Active; 'I' for Inactive)
REMARK    1  A    between atoms: C1_1  and  O1_2
REMARK    2  A    between atoms: O1_2  and  C2_3
REMARK    3  A    between atoms: C5_6  and  C6_7
REMARK    4  A    between atoms: C6_7  and  C7_8
REMARK    5  A    between atoms: C6_7  and  C17_21
REMARK    6  A    between atoms: C8_9  and  O2_10
REMARK    7  A    between atoms: C11_13  and  C12_14
REMARK    8  A    between atoms: C18_22  and  O5_23
REMARK    9  A    between atoms: C21_26  and  C22_27
REMARK                            x       y       z     vdW  Elec       q    Type
REMARK                         _______ _______ _______ _____ _____    ______ ____
ROOT
ATOM      1  C6  UNL     1      29.078  -7.860 -36.499  0.00  0.00    +0.000 C 
ENDROOT
BRANCH   1   2
ATOM      2  C7  UNL     1      29.076  -8.053 -38.024  0.00  0.00    +0.000 A 
ATOM      3  C8  UNL     1      29.596  -9.206 -38.668  0.00  0.00    +0.000 A 
ATOM      4  C9  UNL     1      29.571  -9.280 -40.083  0.00  0.00    +0.000 A 
ATOM      5  C10 UNL     1      30.112 -10.361 -40.814  0.00  0.00    +0.000 A 
ATOM      6  C11 UNL     1      30.061 -10.375 -42.217  0.00  0.00    +0.000 A 
ATOM      7  C12 UNL     1      30.606 -11.547 -42.980  0.00  0.00    +0.000 C 
ATOM      8  C13 UNL     1      29.441  -9.321 -42.899  0.00  0.00    +0.000 A 
ATOM      9  C14 UNL     1      28.909  -8.244 -42.191  0.00  0.00    +0.000 A 
ATOM     10  C15 UNL     1      28.975  -8.215 -40.795  0.00  0.00    +0.000 A 
ATOM     11  O3  UNL     1      28.463  -7.175 -40.152  0.00  0.00    +0.000 OA
ATOM     12  C16 UNL     1      28.487  -7.056 -38.833  0.00  0.00    +0.000 A 
ATOM     13  O4  UNL     1      27.967  -6.033 -38.311  0.00  0.00    +0.000 OA
BRANCH   3  14
ATOM     14  O2  UNL     1      30.095 -10.253 -37.886  0.00  0.00    +0.000 OA
ATOM     15  H7  UNL     1      29.631 -11.134 -37.728  0.00  0.00    +0.000 HD
ENDBRANCH   3  14
ENDBRANCH   1   2
BRANCH   1  16
ATOM     16  C17 UNL     1      27.737  -8.223 -35.843  0.00  0.00    +0.000 A 
ATOM     17  C18 UNL     1      27.013  -7.234 -35.137  0.00  0.00    +0.000 A 
ATOM     18  C19 UNL     1      25.776  -7.572 -34.538  0.00  0.00    +0.000 A 
ATOM     19  C20 UNL     1      24.961  -6.638 -33.861  0.00  0.00    +0.000 A 
ATOM     20  C21 UNL     1      23.750  -7.040 -33.272  0.00  0.00    +0.000 A 
ATOM     21  C22 UNL     1      22.874  -6.031 -32.589  0.00  0.00    +0.000 C 
ATOM     22  C23 UNL     1      23.331  -8.371 -33.387  0.00  0.00    +0.000 A 
ATOM     23  C24 UNL     1      24.123  -9.300 -34.059  0.00  0.00    +0.000 A 
ATOM     24  C25 UNL     1      25.337  -8.912 -34.632  0.00  0.00    +0.000 A 
ATOM     25  O6  UNL     1      26.068  -9.818 -35.263  0.00  0.00    +0.000 OA
ATOM     26  C26 UNL     1      27.224  -9.540 -35.849  0.00  0.00    +0.000 A 
ATOM     27  O7  UNL     1      27.856 -10.480 -36.397  0.00  0.00    +0.000 OA
BRANCH  17  28
ATOM     28  O5  UNL     1      27.559  -5.948 -35.043  0.00  0.00    +0.000 OA
ATOM     29  H14 UNL     1      28.268  -5.574 -35.656  0.00  0.00    +0.000 HD
ENDBRANCH  17  28
ENDBRANCH   1  16
BRANCH   1  33
ATOM     30  C2  UNL     1      32.475  -9.539 -34.362  0.00  0.00    +0.000 A 
ATOM     31  C3  UNL     1      31.166  -9.747 -33.918  0.00  0.00    +0.000 A 
ATOM     32  C4  UNL     1      30.083  -9.208 -34.617  0.00  0.00    +0.000 A 
ATOM     33  C5  UNL     1      30.289  -8.449 -35.784  0.00  0.00    +0.000 A 
ATOM     34  C27 UNL     1      31.610  -8.235 -36.225  0.00  0.00    +0.000 A 
ATOM     35  C28 UNL     1      32.691  -8.777 -35.524  0.00  0.00    +0.000 A 
BRANCH  30  37
ATOM     36  C1  UNL     1      33.400 -10.598 -32.295  0.00  0.00    +0.000 C 
ATOM     37  O1  UNL     1      33.527 -10.102 -33.623  0.00  0.00    +0.000 OA
ENDBRANCH  30  37
ENDBRANCH   1  33
TORSDOF 6
ENDMDL
MODEL 5
REMARK VINA RESULT:    -5.858      3.290      7.448
REMARK INTER + INTRA:          -7.611
REMARK INTER:                  -7.800
REMARK INTRA:                   0.188
REMARK UNBOUND:                -0.040
REMARK  Name = resultss/4CJN/ligands/lig_369_t0.pdb
REMARK  9 active torsions:
REMARK  status: ('A' for Active; 'I' for Inactive)
REMARK    1  A    between atoms: C1_1  and  O1_2
REMARK    2  A    between atoms: O1_2  and  C2_3
REMARK    3  A    between atoms: C5_6  and  C6_7
REMARK    4  A    between atoms: C6_7  and  C7_8
REMARK    5  A    between atoms: C6_7  and  C17_21
REMARK    6  A    between atoms: C8_9  and  O2_10
REMARK    7  A    between atoms: C11_13  and  C12_14
REMARK    8  A    between atoms: C18_22  and  O5_23
REMARK    9  A    between atoms: C21_26  and  C22_27
REMARK                            x       y       z     vdW  Elec       q    Type
REMARK                         _______ _______ _______ _____ _____    ______ ____
ROOT
ATOM      1  C6  UNL     1      28.517  -7.774 -36.128  0.00  0.00    +0.000 C 
ENDROOT
BRANCH   1   2
ATOM      2  C7  UNL     1      29.752  -8.240 -35.339  0.00  0.00    +0.000 A 
ATOM      3  C8  UNL     1      29.704  -9.219 -34.314  0.00  0.00    +0.000 A 
ATOM      4  C9  UNL     1      30.894  -9.563 -33.627  0.00  0.00    +0.000 A 
ATOM      5  C10 UNL     1      30.935 -10.486 -32.558  0.00  0.00    +0.000 A 
ATOM      6  C11 UNL     1      32.147 -10.784 -31.914  0.00  0.00    +0.000 A 
ATOM      7  C12 UNL     1      32.183 -11.793 -30.804  0.00  0.00    +0.000 C 
ATOM      8  C13 UNL     1      33.333 -10.182 -32.354  0.00  0.00    +0.000 A 
ATOM      9  C14 UNL     1      33.306  -9.265 -33.403  0.00  0.00    +0.000 A 
ATOM     10  C15 UNL     1      32.100  -8.949 -34.036  0.00  0.00    +0.000 A 
ATOM     11  O3  UNL     1      32.108  -8.070 -35.027  0.00  0.00    +0.000 OA
ATOM     12  C16 UNL     1      31.015  -7.703 -35.679  0.00  0.00    +0.000 A 
ATOM     13  O4  UNL     1      31.124  -6.865 -36.614  0.00  0.00    +0.000 OA
BRANCH   3  14
ATOM     14  O2  UNL     1      28.483  -9.839 -34.025  0.00  0.00    +0.000 OA
ATOM     15  H7  UNL     1      28.212 -10.197 -33.122  0.00  0.00    +0.000 HD
ENDBRANCH   3  14
ENDBRANCH   1   2
BRANCH   1  16
ATOM     16  C17 UNL     1      28.340  -8.512 -37.463  0.00  0.00    +0.000 A 
ATOM     17  C18 UNL     1      28.420  -7.791 -38.677  0.00  0.00    +0.000 A 
ATOM     18  C19 UNL     1      28.261  -8.476 -39.905  0.00  0.00    +0.000 A 
ATOM     19  C20 UNL     1      28.378  -7.848 -41.165  0.00  0.00    +0.000 A 
ATOM     20  C21 UNL     1      28.192  -8.580 -42.350  0.00  0.00    +0.000 A 
ATOM     21  C22 UNL     1      28.358  -7.910 -43.683  0.00  0.00    +0.000 C 
ATOM     22  C23 UNL     1      27.921  -9.952 -42.282  0.00  0.00    +0.000 A 
ATOM     23  C24 UNL     1      27.809 -10.585 -41.045  0.00  0.00    +0.000 A 
ATOM     24  C25 UNL     1      27.977  -9.860 -39.862  0.00  0.00    +0.000 A 
ATOM     25  O6  UNL     1      27.864 -10.488 -38.702  0.00  0.00    +0.000 OA
ATOM     26  C26 UNL     1      28.020  -9.888 -37.531  0.00  0.00    +0.000 A 
ATOM     27  O7  UNL     1      27.863 -10.569 -36.485  0.00  0.00    +0.000 OA
BRANCH  17  28
ATOM     28  O5  UNL     1      28.643  -6.409 -38.619  0.00  0.00    +0.000 OA
ATOM     29  H14 UNL     1      28.887  -5.898 -37.784  0.00  0.00    +0.000 HD
ENDBRANCH  17  28
ENDBRANCH   1  16
BRANCH   1  33
ATOM     30  C2  UNL     1      24.924  -7.502 -33.690  0.00  0.00    +0.000 A 
ATOM     31  C3  UNL     1      26.152  -7.019 -33.227  0.00  0.00    +0.000 A 
ATOM     32  C4  UNL     1      27.296  -7.107 -34.022  0.00  0.00    +0.000 A 
ATOM     33  C5  UNL     1      27.236  -7.679 -35.306  0.00  0.00    +0.000 A 
ATOM     34  C27 UNL     1      25.999  -8.171 -35.768  0.00  0.00    +0.000 A 
ATOM     35  C28 UNL     1      24.855  -8.081 -34.970  0.00  0.00    +0.000 A 
BRANCH  30  37
ATOM     36  C1  UNL     1      22.961  -6.246 -32.785  0.00  0.00    +0.000 C 
ATOM     37  O1  UNL     1      23.805  -7.391 -32.852  0.00  0.00    +0.000 OA
ENDBRANCH  30  37
ENDBRANCH   1  33
TORSDOF 6
ENDMDL
MODEL 6
REMARK VINA RESULT:    -5.841      1.295      2.724
REMARK INTER + INTRA:          -7.588
REMARK INTER:                  -8.895
REMARK INTRA:                   1.307
REMARK UNBOUND:                -0.040
REMARK  Name = resultss/4CJN/ligands/lig_369_t0.pdb
REMARK  9 active torsions:
REMARK  status: ('A' for Active; 'I' for Inactive)
REMARK    1  A    between atoms: C1_1  and  O1_2
REMARK    2  A    between atoms: O1_2  and  C2_3
REMARK    3  A    between atoms: C5_6  and  C6_7
REMARK    4  A    between atoms: C6_7  and  C7_8
REMARK    5  A    between atoms: C6_7  and  C17_21
REMARK    6  A    between atoms: C8_9  and  O2_10
REMARK    7  A    between atoms: C11_13  and  C12_14
REMARK    8  A    between atoms: C18_22  and  O5_23
REMARK    9  A    between atoms: C21_26  and  C22_27
REMARK                            x       y       z     vdW  Elec       q    Type
REMARK                         _______ _______ _______ _____ _____    ______ ____
ROOT
ATOM      1  C6  UNL     1      28.530 -10.084 -40.899  0.00  0.00    +0.000 C 
ENDROOT
BRANCH   1   2
ATOM      2  C7  UNL     1      28.605  -9.319 -39.567  0.00  0.00    +0.000 A 
ATOM      3  C8  UNL     1      28.437  -9.934 -38.300  0.00  0.00    +0.000 A 
ATOM      4  C9  UNL     1      28.499  -9.137 -37.130  0.00  0.00    +0.000 A 
ATOM      5  C10 UNL     1      28.291  -9.650 -35.830  0.00  0.00    +0.000 A 
ATOM      6  C11 UNL     1      28.362  -8.809 -34.708  0.00  0.00    +0.000 A 
ATOM      7  C12 UNL     1      28.176  -9.372 -33.329  0.00  0.00    +0.000 C 
ATOM      8  C13 UNL     1      28.672  -7.453 -34.875  0.00  0.00    +0.000 A 
ATOM      9  C14 UNL     1      28.874  -6.933 -36.152  0.00  0.00    +0.000 A 
ATOM     10  C15 UNL     1      28.784  -7.761 -37.275  0.00  0.00    +0.000 A 
ATOM     11  O3  UNL     1      28.977  -7.235 -38.476  0.00  0.00    +0.000 OA
ATOM     12  C16 UNL     1      28.904  -7.938 -39.595  0.00  0.00    +0.000 A 
ATOM     13  O4  UNL     1      29.110  -7.350 -40.691  0.00  0.00    +0.000 OA
BRANCH   3  14
ATOM     14  O2  UNL     1      28.239 -11.317 -38.238  0.00  0.00    +0.000 OA
ATOM     15  H7  UNL     1      27.602 -11.841 -38.819  0.00  0.00    +0.000 HD
ENDBRANCH   3  14
ENDBRANCH   1   2
BRANCH   1  16
ATOM     16  C17 UNL     1      27.559  -9.450 -41.906  0.00  0.00    +0.000 A 
ATOM     17  C18 UNL     1      28.067  -8.692 -42.987  0.00  0.00    +0.000 A 
ATOM     18  C19 UNL     1      27.168  -8.114 -43.914  0.00  0.00    +0.000 A 
ATOM     19  C20 UNL     1      27.587  -7.388 -45.052  0.00  0.00    +0.000 A 
ATOM     20  C21 UNL     1      26.645  -6.823 -45.927  0.00  0.00    +0.000 A 
ATOM     21  C22 UNL     1      27.102  -6.088 -47.153  0.00  0.00    +0.000 C 
ATOM     22  C23 UNL     1      25.278  -7.009 -45.689  0.00  0.00    +0.000 A 
ATOM     23  C24 UNL     1      24.852  -7.729 -44.574  0.00  0.00    +0.000 A 
ATOM     24  C25 UNL     1      25.783  -8.280 -43.689  0.00  0.00    +0.000 A 
ATOM     25  O6  UNL     1      25.348  -8.958 -42.638  0.00  0.00    +0.000 OA
ATOM     26  C26 UNL     1      26.155  -9.527 -41.755  0.00  0.00    +0.000 A 
ATOM     27  O7  UNL     1      25.640 -10.124 -40.774  0.00  0.00    +0.000 OA
BRANCH  17  28
ATOM     28  O5  UNL     1      29.454  -8.529 -43.093  0.00  0.00    +0.000 OA
ATOM     29  H14 UNL     1      29.912  -7.729 -43.503  0.00  0.00    +0.000 HD
ENDBRANCH  17  28
ENDBRANCH   1  16
BRANCH   1  33
ATOM     30  C2  UNL     1      32.349 -11.233 -42.637  0.00  0.00    +0.000 A 
ATOM     31  C3  UNL     1      31.156 -11.834 -43.049  0.00  0.00    +0.000 A 
ATOM     32  C4  UNL     1      29.936 -11.451 -42.487  0.00  0.00    +0.000 A 
ATOM     33  C5  UNL     1      29.882 -10.451 -41.499  0.00  0.00    +0.000 A 
ATOM     34  C27 UNL     1      31.088  -9.852 -41.080  0.00  0.00    +0.000 A 
ATOM     35  C28 UNL     1      32.307 -10.237 -41.645  0.00  0.00    +0.000 A 
BRANCH  30  37
ATOM     36  C1  UNL     1      33.653 -12.739 -44.147  0.00  0.00    +0.000 C 
ATOM     37  O1  UNL     1      33.548 -11.655 -43.231  0.00  0.00    +0.000 OA
ENDBRANCH  30  37
ENDBRANCH   1  33
TORSDOF 6
ENDMDL
MODEL 7
REMARK VINA RESULT:    -5.582      1.831      5.665
REMARK INTER + INTRA:          -7.255
REMARK INTER:                  -8.526
REMARK INTRA:                   1.271
REMARK UNBOUND:                -0.040
REMARK  Name = resultss/4CJN/ligands/lig_369_t0.pdb
REMARK  9 active torsions:
REMARK  status: ('A' for Active; 'I' for Inactive)
REMARK    1  A    between atoms: C1_1  and  O1_2
REMARK    2  A    between atoms: O1_2  and  C2_3
REMARK    3  A    between atoms: C5_6  and  C6_7
REMARK    4  A    between atoms: C6_7  and  C7_8
REMARK    5  A    between atoms: C6_7  and  C17_21
REMARK    6  A    between atoms: C8_9  and  O2_10
REMARK    7  A    between atoms: C11_13  and  C12_14
REMARK    8  A    between atoms: C18_22  and  O5_23
REMARK    9  A    between atoms: C21_26  and  C22_27
REMARK                            x       y       z     vdW  Elec       q    Type
REMARK                         _______ _______ _______ _____ _____    ______ ____
ROOT
ATOM      1  C6  UNL     1      28.158  -8.054 -40.243  0.00  0.00    +0.000 C 
ENDROOT
BRANCH   1   2
ATOM      2  C7  UNL     1      27.702  -8.486 -38.840  0.00  0.00    +0.000 A 
ATOM      3  C8  UNL     1      27.271  -7.575 -37.842  0.00  0.00    +0.000 A 
ATOM      4  C9  UNL     1      26.893  -8.069 -36.569  0.00  0.00    +0.000 A 
ATOM      5  C10 UNL     1      26.502  -7.236 -35.497  0.00  0.00    +0.000 A 
ATOM      6  C11 UNL     1      26.141  -7.786 -34.256  0.00  0.00    +0.000 A 
ATOM      7  C12 UNL     1      25.692  -6.893 -33.137  0.00  0.00    +0.000 C 
ATOM      8  C13 UNL     1      26.141  -9.177 -34.087  0.00  0.00    +0.000 A 
ATOM      9  C14 UNL     1      26.531 -10.010 -35.134  0.00  0.00    +0.000 A 
ATOM     10  C15 UNL     1      26.910  -9.468 -36.365  0.00  0.00    +0.000 A 
ATOM     11  O3  UNL     1      27.280 -10.287 -37.340  0.00  0.00    +0.000 OA
ATOM     12  C16 UNL     1      27.663  -9.865 -38.535  0.00  0.00    +0.000 A 
ATOM     13  O4  UNL     1      27.989 -10.722 -39.400  0.00  0.00    +0.000 OA
BRANCH   3  14
ATOM     14  O2  UNL     1      27.205  -6.212 -38.150  0.00  0.00    +0.000 OA
ATOM     15  H7  UNL     1      27.751  -5.488 -37.708  0.00  0.00    +0.000 HD
ENDBRANCH   3  14
ENDBRANCH   1   2
BRANCH   1  16
ATOM     16  C17 UNL     1      29.484  -8.699 -40.672  0.00  0.00    +0.000 A 
ATOM     17  C18 UNL     1      29.474  -9.783 -41.580  0.00  0.00    +0.000 A 
ATOM     18  C19 UNL     1      30.700 -10.371 -41.976  0.00  0.00    +0.000 A 
ATOM     19  C20 UNL     1      30.789 -11.420 -42.918  0.00  0.00    +0.000 A 
ATOM     20  C21 UNL     1      32.035 -11.974 -43.257  0.00  0.00    +0.000 A 
ATOM     21  C22 UNL     1      32.120 -13.062 -44.287  0.00  0.00    +0.000 C 
ATOM     22  C23 UNL     1      33.202 -11.458 -42.681  0.00  0.00    +0.000 A 
ATOM     23  C24 UNL     1      33.128 -10.418 -41.756  0.00  0.00    +0.000 A 
ATOM     24  C25 UNL     1      31.891  -9.874 -41.401  0.00  0.00    +0.000 A 
ATOM     25  O6  UNL     1      31.853  -8.887 -40.519  0.00  0.00    +0.000 OA
ATOM     26  C26 UNL     1      30.729  -8.300 -40.132  0.00  0.00    +0.000 A 
ATOM     27  O7  UNL     1      30.798  -7.391 -39.266  0.00  0.00    +0.000 OA
BRANCH  17  28
ATOM     28  O5  UNL     1      28.239 -10.249 -42.049  0.00  0.00    +0.000 OA
ATOM     29  H14 UNL     1      27.644  -9.757 -42.697  0.00  0.00    +0.000 HD
ENDBRANCH  17  28
ENDBRANCH   1  16
BRANCH   1  33
ATOM     30  C2  UNL     1      25.102  -8.134 -43.338  0.00  0.00    +0.000 A 
ATOM     31  C3  UNL     1      26.329  -7.499 -43.549  0.00  0.00    +0.000 A 
ATOM     32  C4  UNL     1      27.304  -7.486 -42.549  0.00  0.00    +0.000 A 
ATOM     33  C5  UNL     1      27.073  -8.116 -41.312  0.00  0.00    +0.000 A 
ATOM     34  C27 UNL     1      25.832  -8.749 -41.100  0.00  0.00    +0.000 A 
ATOM     35  C28 UNL     1      24.858  -8.761 -42.103  0.00  0.00    +0.000 A 
BRANCH  30  37
ATOM     36  C1  UNL     1      24.236  -7.280 -45.523  0.00  0.00    +0.000 C 
ATOM     37  O1  UNL     1      24.155  -8.118 -44.374  0.00  0.00    +0.000 OA
ENDBRANCH  30  37
ENDBRANCH   1  33
TORSDOF 6
ENDMDL
MODEL 8
REMARK VINA RESULT:    -5.539      1.751      5.855
REMARK INTER + INTRA:          -7.198
REMARK INTER:                  -8.712
REMARK INTRA:                   1.514
REMARK UNBOUND:                -0.040
REMARK  Name = resultss/4CJN/ligands/lig_369_t0.pdb
REMARK  9 active torsions:
REMARK  status: ('A' for Active; 'I' for Inactive)
REMARK    1  A    between atoms: C1_1  and  O1_2
REMARK    2  A    between atoms: O1_2  and  C2_3
REMARK    3  A    between atoms: C5_6  and  C6_7
REMARK    4  A    between atoms: C6_7  and  C7_8
REMARK    5  A    between atoms: C6_7  and  C17_21
REMARK    6  A    between atoms: C8_9  and  O2_10
REMARK    7  A    between atoms: C11_13  and  C12_14
REMARK    8  A    between atoms: C18_22  and  O5_23
REMARK    9  A    between atoms: C21_26  and  C22_27
REMARK                            x       y       z     vdW  Elec       q    Type
REMARK                         _______ _______ _______ _____ _____    ______ ____
ROOT
ATOM      1  C6  UNL     1      27.746  -8.554 -40.641  0.00  0.00    +0.000 C 
ENDROOT
BRANCH   1   2
ATOM      2  C7  UNL     1      27.394  -8.812 -39.167  0.00  0.00    +0.000 A 
ATOM      3  C8  UNL     1      28.345  -8.764 -38.115  0.00  0.00    +0.000 A 
ATOM      4  C9  UNL     1      27.926  -9.040 -36.790  0.00  0.00    +0.000 A 
ATOM      5  C10 UNL     1      28.809  -9.070 -35.687  0.00  0.00    +0.000 A 
ATOM      6  C11 UNL     1      28.334  -9.354 -34.396  0.00  0.00    +0.000 A 
ATOM      7  C12 UNL     1      29.276  -9.346 -33.227  0.00  0.00    +0.000 C 
ATOM      8  C13 UNL     1      26.967  -9.582 -34.195  0.00  0.00    +0.000 A 
ATOM      9  C14 UNL     1      26.086  -9.563 -35.274  0.00  0.00    +0.000 A 
ATOM     10  C15 UNL     1      26.555  -9.301 -36.564  0.00  0.00    +0.000 A 
ATOM     11  O3  UNL     1      25.693  -9.294 -37.571  0.00  0.00    +0.000 OA
ATOM     12  C16 UNL     1      26.046  -9.064 -38.826  0.00  0.00    +0.000 A 
ATOM     13  O4  UNL     1      25.152  -9.070 -39.714  0.00  0.00    +0.000 OA
BRANCH   3  14
ATOM     14  O2  UNL     1      29.668  -8.419 -38.411  0.00  0.00    +0.000 OA
ATOM     15  H7  UNL     1      30.414  -9.073 -38.587  0.00  0.00    +0.000 HD
ENDBRANCH   3  14
ENDBRANCH   1   2
BRANCH   1  16
ATOM     16  C17 UNL     1      28.645  -9.642 -41.246  0.00  0.00    +0.000 A 
ATOM     17  C18 UNL     1      29.612  -9.292 -42.217  0.00  0.00    +0.000 A 
ATOM     18  C19 UNL     1      30.442 -10.298 -42.768  0.00  0.00    +0.000 A 
ATOM     19  C20 UNL     1      31.468 -10.032 -43.701  0.00  0.00    +0.000 A 
ATOM     20  C21 UNL     1      32.248 -11.077 -44.225  0.00  0.00    +0.000 A 
ATOM     21  C22 UNL     1      33.361 -10.777 -45.186  0.00  0.00    +0.000 C 
ATOM     22  C23 UNL     1      32.028 -12.390 -43.792  0.00  0.00    +0.000 A 
ATOM     23  C24 UNL     1      31.023 -12.664 -42.867  0.00  0.00    +0.000 A 
ATOM     24  C25 UNL     1      30.232 -11.632 -42.354  0.00  0.00    +0.000 A 
ATOM     25  O6  UNL     1      29.284 -11.924 -41.476  0.00  0.00    +0.000 OA
ATOM     26  C26 UNL     1      28.496 -11.012 -40.926  0.00  0.00    +0.000 A 
ATOM     27  O7  UNL     1      27.606 -11.397 -40.125  0.00  0.00    +0.000 OA
BRANCH  17  28
ATOM     28  O5  UNL     1      29.705  -7.951 -42.612  0.00  0.00    +0.000 OA
ATOM     29  H14 UNL     1      30.549  -7.500 -42.930  0.00  0.00    +0.000 HD
ENDBRANCH  17  28
ENDBRANCH   1  16
BRANCH   1  33
ATOM     30  C2  UNL     1      24.398  -7.559 -43.235  0.00  0.00    +0.000 A 
ATOM     31  C3  UNL     1      25.015  -8.812 -43.298  0.00  0.00    +0.000 A 
ATOM     32  C4  UNL     1      26.085  -9.121 -42.455  0.00  0.00    +0.000 A 
ATOM     33  C5  UNL     1      26.560  -8.180 -41.523  0.00  0.00    +0.000 A 
ATOM     34  C27 UNL     1      25.941  -6.915 -41.467  0.00  0.00    +0.000 A 
ATOM     35  C28 UNL     1      24.869  -6.610 -42.311  0.00  0.00    +0.000 A 
BRANCH  30  37
ATOM     36  C1  UNL     1      23.426  -7.308 -45.525  0.00  0.00    +0.000 C 
ATOM     37  O1  UNL     1      23.328  -7.299 -44.105  0.00  0.00    +0.000 OA
ENDBRANCH  30  37
ENDBRANCH   1  33
TORSDOF 6
ENDMDL
MODEL 9
REMARK VINA RESULT:    -5.395      1.716      6.309
REMARK INTER + INTRA:          -7.012
REMARK INTER:                  -8.252
REMARK INTRA:                   1.240
REMARK UNBOUND:                -0.040
REMARK  Name = resultss/4CJN/ligands/lig_369_t0.pdb
REMARK  9 active torsions:
REMARK  status: ('A' for Active; 'I' for Inactive)
REMARK    1  A    between atoms: C1_1  and  O1_2
REMARK    2  A    between atoms: O1_2  and  C2_3
REMARK    3  A    between atoms: C5_6  and  C6_7
REMARK    4  A    between atoms: C6_7  and  C7_8
REMARK    5  A    between atoms: C6_7  and  C17_21
REMARK    6  A    between atoms: C8_9  and  O2_10
REMARK    7  A    between atoms: C11_13  and  C12_14
REMARK    8  A    between atoms: C18_22  and  O5_23
REMARK    9  A    between atoms: C21_26  and  C22_27
REMARK                            x       y       z     vdW  Elec       q    Type
REMARK                         _______ _______ _______ _____ _____    ______ ____
ROOT
ATOM      1  C6  UNL     1      29.812  -8.565 -40.522  0.00  0.00    +0.000 C 
ENDROOT
BRANCH   1   2
ATOM      2  C7  UNL     1      30.925  -9.381 -41.201  0.00  0.00    +0.000 A 
ATOM      3  C8  UNL     1      30.685 -10.332 -42.225  0.00  0.00    +0.000 A 
ATOM      4  C9  UNL     1      31.776 -11.052 -42.772  0.00  0.00    +0.000 A 
ATOM      5  C10 UNL     1      31.629 -12.056 -43.756  0.00  0.00    +0.000 A 
ATOM      6  C11 UNL     1      32.750 -12.738 -44.257  0.00  0.00    +0.000 A 
ATOM      7  C12 UNL     1      32.584 -13.776 -45.328  0.00  0.00    +0.000 C 
ATOM      8  C13 UNL     1      34.029 -12.400 -43.799  0.00  0.00    +0.000 A 
ATOM      9  C14 UNL     1      34.188 -11.417 -42.824  0.00  0.00    +0.000 A 
ATOM     10  C15 UNL     1      33.075 -10.748 -42.307  0.00  0.00    +0.000 A 
ATOM     11  O3  UNL     1      33.259  -9.821 -41.378  0.00  0.00    +0.000 OA
ATOM     12  C16 UNL     1      32.266  -9.143 -40.824  0.00  0.00    +0.000 A 
ATOM     13  O4  UNL     1      32.541  -8.274 -39.953  0.00  0.00    +0.000 OA
BRANCH   3  14
ATOM     14  O2  UNL     1      29.377 -10.516 -42.687  0.00  0.00    +0.000 OA
ATOM     15  H7  UNL     1      28.542 -10.234 -42.198  0.00  0.00    +0.000 HD
ENDBRANCH   3  14
ENDBRANCH   1   2
BRANCH   1  16
ATOM     16  C17 UNL     1      28.457  -8.683 -41.235  0.00  0.00    +0.000 A 
ATOM     17  C18 UNL     1      28.047  -7.668 -42.131  0.00  0.00    +0.000 A 
ATOM     18  C19 UNL     1      26.799  -7.782 -42.789  0.00  0.00    +0.000 A 
ATOM     19  C20 UNL     1      26.334  -6.846 -43.738  0.00  0.00    +0.000 A 
ATOM     20  C21 UNL     1      25.077  -7.006 -44.345  0.00  0.00    +0.000 A 
ATOM     21  C22 UNL     1      24.610  -6.026 -45.381  0.00  0.00    +0.000 C 
ATOM     22  C23 UNL     1      24.293  -8.123 -44.032  0.00  0.00    +0.000 A 
ATOM     23  C24 UNL     1      24.744  -9.058 -43.102  0.00  0.00    +0.000 A 
ATOM     24  C25 UNL     1      25.986  -8.896 -42.481  0.00  0.00    +0.000 A 
ATOM     25  O6  UNL     1      26.388  -9.801 -41.601  0.00  0.00    +0.000 OA
ATOM     26  C26 UNL     1      27.553  -9.738 -40.974  0.00  0.00    +0.000 A 
ATOM     27  O7  UNL     1      27.827 -10.633 -40.133  0.00  0.00    +0.000 OA
BRANCH  17  28
ATOM     28  O5  UNL     1      28.893  -6.568 -42.325  0.00  0.00    +0.000 OA
ATOM     29  H14 UNL     1      28.734  -5.644 -41.953  0.00  0.00    +0.000 HD
ENDBRANCH  17  28
ENDBRANCH   1  16
BRANCH   1  33
ATOM     30  C2  UNL     1      29.570  -8.956 -36.196  0.00  0.00    +0.000 A 
ATOM     31  C3  UNL     1      29.112  -7.806 -36.846  0.00  0.00    +0.000 A 
ATOM     32  C4  UNL     1      29.189  -7.696 -38.236  0.00  0.00    +0.000 A 
ATOM     33  C5  UNL     1      29.726  -8.741 -39.010  0.00  0.00    +0.000 A 
ATOM     34  C27 UNL     1      30.194  -9.897 -38.351  0.00  0.00    +0.000 A 
ATOM     35  C28 UNL     1      30.114 -10.003 -36.960  0.00  0.00    +0.000 A 
BRANCH  30  37
ATOM     36  C1  UNL     1      28.644  -9.933 -34.089  0.00  0.00    +0.000 C 
ATOM     37  O1  UNL     1      29.471  -9.016 -34.797  0.00  0.00    +0.000 OA
ENDBRANCH  30  37
ENDBRANCH   1  33
TORSDOF 6
ENDMDL
