MODEL 1
REMARK VINA RESULT:    -5.948      0.000      0.000
REMARK INTER + INTRA:          -6.893
REMARK INTER:                  -6.295
REMARK INTRA:                  -0.598
REMARK UNBOUND:                -0.598
REMARK  Name = resultss/4CJN/ligands/lig_247_t0.pdb
REMARK  1 active torsions:
REMARK  status: ('A' for Active; 'I' for Inactive)
REMARK    1  A    between atoms: C8_11  and  C9_12
REMARK                            x       y       z     vdW  Elec       q    Type
REMARK                         _______ _______ _______ _____ _____    ______ ____
ROOT
ATOM      1  O1  UNL     1      23.147  -9.168 -42.603  0.00  0.00    +0.000 OA
ATOM      2  C1  UNL     1      24.335  -8.879 -42.910  0.00  0.00    +0.000 A 
ATOM      3  N1  UNL     1      24.601  -8.187 -44.053  0.00  0.00    +0.000 N 
ATOM      4  C2  UNL     1      25.881  -7.833 -44.387  0.00  0.00    +0.000 A 
ATOM      5  C3  UNL     1      26.125  -7.073 -45.541  0.00  0.00    +0.000 A 
ATOM      6  C4  UNL     1      27.420  -6.649 -45.843  0.00  0.00    +0.000 A 
ATOM      7  C5  UNL     1      28.475  -6.959 -44.985  0.00  0.00    +0.000 A 
ATOM      8  C6  UNL     1      28.253  -7.719 -43.834  0.00  0.00    +0.000 A 
ATOM      9  C7  UNL     1      26.963  -8.211 -43.544  0.00  0.00    +0.000 A 
ATOM     10  N2  UNL     1      26.674  -8.978 -42.441  0.00  0.00    +0.000 N 
ATOM     11  C8  UNL     1      27.456  -9.571 -41.499  0.00  0.00    +0.000 A 
ATOM     12  C15 UNL     1      26.658 -10.185 -40.544  0.00  0.00    +0.000 A 
ATOM     13  C16 UNL     1      25.345  -9.992 -40.928  0.00  0.00    +0.000 A 
ATOM     14  C17 UNL     1      25.400  -9.266 -42.099  0.00  0.00    +0.000 A 
ATOM     15  H1  UNL     1      23.804  -7.903 -44.668  0.00  0.00    +0.000 HD
ENDROOT
BRANCH  11  16
ATOM     16  C9  UNL     1      28.909  -9.805 -41.577  0.00  0.00    +0.000 A 
ATOM     17  C10 UNL     1      29.799  -8.971 -40.884  0.00  0.00    +0.000 A 
ATOM     18  C11 UNL     1      31.177  -9.174 -40.986  0.00  0.00    +0.000 A 
ATOM     19  C12 UNL     1      31.681 -10.200 -41.793  0.00  0.00    +0.000 A 
ATOM     20 CL1  UNL     1      33.422 -10.425 -41.896  0.00  0.00    +0.000 Cl
ATOM     21  C13 UNL     1      30.795 -11.024 -42.509  0.00  0.00    +0.000 A 
ATOM     22 CL2  UNL     1      31.387 -12.316 -43.544  0.00  0.00    +0.000 Cl
ATOM     23  C14 UNL     1      29.415 -10.818 -42.404  0.00  0.00    +0.000 A 
ENDBRANCH  11  16
TORSDOF 1
ENDMDL
MODEL 2
REMARK VINA RESULT:    -5.813      4.072      5.347
REMARK INTER + INTRA:          -6.751
REMARK INTER:                  -6.172
REMARK INTRA:                  -0.579
REMARK UNBOUND:                -0.598
REMARK  Name = resultss/4CJN/ligands/lig_247_t0.pdb
REMARK  1 active torsions:
REMARK  status: ('A' for Active; 'I' for Inactive)
REMARK    1  A    between atoms: C8_11  and  C9_12
REMARK                            x       y       z     vdW  Elec       q    Type
REMARK                         _______ _______ _______ _____ _____    ______ ____
ROOT
ATOM      1  O1  UNL     1      22.327  -7.078 -48.606  0.00  0.00    +0.000 OA
ATOM      2  C1  UNL     1      23.260  -7.075 -47.759  0.00  0.00    +0.000 A 
ATOM      3  N1  UNL     1      24.559  -7.130 -48.165  0.00  0.00    +0.000 N 
ATOM      4  C2  UNL     1      25.588  -7.094 -47.262  0.00  0.00    +0.000 A 
ATOM      5  C3  UNL     1      26.919  -7.097 -47.708  0.00  0.00    +0.000 A 
ATOM      6  C4  UNL     1      27.967  -6.985 -46.793  0.00  0.00    +0.000 A 
ATOM      7  C5  UNL     1      27.695  -6.844 -45.432  0.00  0.00    +0.000 A 
ATOM      8  C6  UNL     1      26.377  -6.844 -44.969  0.00  0.00    +0.000 A 
ATOM      9  C7  UNL     1      25.306  -7.020 -45.870  0.00  0.00    +0.000 A 
ATOM     10  N2  UNL     1      23.987  -7.048 -45.485  0.00  0.00    +0.000 N 
ATOM     11  C8  UNL     1      23.382  -7.082 -44.266  0.00  0.00    +0.000 A 
ATOM     12  C15 UNL     1      22.004  -7.031 -44.424  0.00  0.00    +0.000 A 
ATOM     13  C16 UNL     1      21.752  -6.996 -45.782  0.00  0.00    +0.000 A 
ATOM     14  C17 UNL     1      22.988  -7.026 -46.393  0.00  0.00    +0.000 A 
ATOM     15  H1  UNL     1      24.766  -7.176 -49.190  0.00  0.00    +0.000 HD
ENDROOT
BRANCH  11  16
ATOM     16  C9  UNL     1      24.014  -7.410 -42.976  0.00  0.00    +0.000 A 
ATOM     17  C10 UNL     1      24.264  -6.401 -42.033  0.00  0.00    +0.000 A 
ATOM     18  C11 UNL     1      24.893  -6.709 -40.825  0.00  0.00    +0.000 A 
ATOM     19  C12 UNL     1      25.293  -8.022 -40.552  0.00  0.00    +0.000 A 
ATOM     20 CL1  UNL     1      26.082  -8.371 -39.019  0.00  0.00    +0.000 Cl
ATOM     21  C13 UNL     1      25.066  -9.032 -41.502  0.00  0.00    +0.000 A 
ATOM     22 CL2  UNL     1      25.564 -10.692 -41.204  0.00  0.00    +0.000 Cl
ATOM     23  C14 UNL     1      24.436  -8.721 -42.713  0.00  0.00    +0.000 A 
ENDBRANCH  11  16
TORSDOF 1
ENDMDL
MODEL 3
REMARK VINA RESULT:    -5.617      3.131      4.206
REMARK INTER + INTRA:          -6.543
REMARK INTER:                  -5.926
REMARK INTRA:                  -0.617
REMARK UNBOUND:                -0.598
REMARK  Name = resultss/4CJN/ligands/lig_247_t0.pdb
REMARK  1 active torsions:
REMARK  status: ('A' for Active; 'I' for Inactive)
REMARK    1  A    between atoms: C8_11  and  C9_12
REMARK                            x       y       z     vdW  Elec       q    Type
REMARK                         _______ _______ _______ _____ _____    ______ ____
ROOT
ATOM      1  O1  UNL     1      21.969  -6.821 -46.275  0.00  0.00    +0.000 OA
ATOM      2  C1  UNL     1      23.103  -7.023 -45.762  0.00  0.00    +0.000 A 
ATOM      3  N1  UNL     1      24.226  -6.964 -46.531  0.00  0.00    +0.000 N 
ATOM      4  C2  UNL     1      25.469  -7.147 -45.987  0.00  0.00    +0.000 A 
ATOM      5  C3  UNL     1      26.615  -7.028 -46.788  0.00  0.00    +0.000 A 
ATOM      6  C4  UNL     1      27.885  -7.141 -46.220  0.00  0.00    +0.000 A 
ATOM      7  C5  UNL     1      28.021  -7.348 -44.848  0.00  0.00    +0.000 A 
ATOM      8  C6  UNL     1      26.892  -7.475 -44.034  0.00  0.00    +0.000 A 
ATOM      9  C7  UNL     1      25.600  -7.428 -44.598  0.00  0.00    +0.000 A 
ATOM     10  N2  UNL     1      24.446  -7.561 -43.864  0.00  0.00    +0.000 N 
ATOM     11  C8  UNL     1      24.212  -7.905 -42.568  0.00  0.00    +0.000 A 
ATOM     12  C15 UNL     1      22.853  -7.827 -42.300  0.00  0.00    +0.000 A 
ATOM     13  C16 UNL     1      22.228  -7.455 -43.474  0.00  0.00    +0.000 A 
ATOM     14  C17 UNL     1      23.235  -7.320 -44.407  0.00  0.00    +0.000 A 
ATOM     15  H1  UNL     1      24.129  -6.750 -47.550  0.00  0.00    +0.000 HD
ENDROOT
BRANCH  11  16
ATOM     16  C9  UNL     1      25.162  -8.541 -41.638  0.00  0.00    +0.000 A 
ATOM     17  C10 UNL     1      25.453  -9.909 -41.748  0.00  0.00    +0.000 A 
ATOM     18  C11 UNL     1      26.329 -10.517 -40.846  0.00  0.00    +0.000 A 
ATOM     19  C12 UNL     1      26.909  -9.770 -39.814  0.00  0.00    +0.000 A 
ATOM     20 CL1  UNL     1      28.006 -10.570 -38.696  0.00  0.00    +0.000 Cl
ATOM     21  C13 UNL     1      26.603  -8.404 -39.684  0.00  0.00    +0.000 A 
ATOM     22 CL2  UNL     1      27.300  -7.432 -38.395  0.00  0.00    +0.000 Cl
ATOM     23  C14 UNL     1      25.725  -7.798 -40.591  0.00  0.00    +0.000 A 
ENDBRANCH  11  16
TORSDOF 1
ENDMDL
MODEL 4
REMARK VINA RESULT:    -5.550      7.070      8.818
REMARK INTER + INTRA:          -6.472
REMARK INTER:                  -5.877
REMARK INTRA:                  -0.595
REMARK UNBOUND:                -0.598
REMARK  Name = resultss/4CJN/ligands/lig_247_t0.pdb
REMARK  1 active torsions:
REMARK  status: ('A' for Active; 'I' for Inactive)
REMARK    1  A    between atoms: C8_11  and  C9_12
REMARK                            x       y       z     vdW  Elec       q    Type
REMARK                         _______ _______ _______ _____ _____    ______ ____
ROOT
ATOM      1  O1  UNL     1      30.954 -10.244 -37.448  0.00  0.00    +0.000 OA
ATOM      2  C1  UNL     1      29.751  -9.867 -37.431  0.00  0.00    +0.000 A 
ATOM      3  N1  UNL     1      29.081  -9.653 -38.596  0.00  0.00    +0.000 N 
ATOM      4  C2  UNL     1      27.764  -9.276 -38.600  0.00  0.00    +0.000 A 
ATOM      5  C3  UNL     1      27.079  -9.114 -39.814  0.00  0.00    +0.000 A 
ATOM      6  C4  UNL     1      25.719  -8.802 -39.817  0.00  0.00    +0.000 A 
ATOM      7  C5  UNL     1      25.028  -8.674 -38.612  0.00  0.00    +0.000 A 
ATOM      8  C6  UNL     1      25.694  -8.826 -37.393  0.00  0.00    +0.000 A 
ATOM      9  C7  UNL     1      27.081  -9.079 -37.367  0.00  0.00    +0.000 A 
ATOM     10  N2  UNL     1      27.805  -9.223 -36.208  0.00  0.00    +0.000 N 
ATOM     11  C8  UNL     1      27.495  -9.026 -34.897  0.00  0.00    +0.000 A 
ATOM     12  C15 UNL     1      28.575  -9.384 -34.102  0.00  0.00    +0.000 A 
ATOM     13  C16 UNL     1      29.590  -9.781 -34.949  0.00  0.00    +0.000 A 
ATOM     14  C17 UNL     1      29.085  -9.651 -36.226  0.00  0.00    +0.000 A 
ATOM     15  H1  UNL     1      29.581  -9.806 -39.502  0.00  0.00    +0.000 HD
ENDROOT
BRANCH  11  16
ATOM     16  C9  UNL     1      26.335  -8.291 -34.364  0.00  0.00    +0.000 A 
ATOM     17  C10 UNL     1      26.275  -6.893 -34.467  0.00  0.00    +0.000 A 
ATOM     18  C11 UNL     1      25.189  -6.195 -33.933  0.00  0.00    +0.000 A 
ATOM     19  C12 UNL     1      24.163  -6.882 -33.275  0.00  0.00    +0.000 A 
ATOM     20 CL1  UNL     1      22.813  -5.969 -32.615  0.00  0.00    +0.000 Cl
ATOM     21  C13 UNL     1      24.230  -8.281 -33.148  0.00  0.00    +0.000 A 
ATOM     22 CL2  UNL     1      22.967  -9.182 -32.319  0.00  0.00    +0.000 Cl
ATOM     23  C14 UNL     1      25.319  -8.978 -33.686  0.00  0.00    +0.000 A 
ENDBRANCH  11  16
TORSDOF 1
ENDMDL
MODEL 5
REMARK VINA RESULT:    -5.543      1.932      2.882
REMARK INTER + INTRA:          -6.465
REMARK INTER:                  -5.854
REMARK INTRA:                  -0.611
REMARK UNBOUND:                -0.598
REMARK  Name = resultss/4CJN/ligands/lig_247_t0.pdb
REMARK  1 active torsions:
REMARK  status: ('A' for Active; 'I' for Inactive)
REMARK    1  A    between atoms: C8_11  and  C9_12
REMARK                            x       y       z     vdW  Elec       q    Type
REMARK                         _______ _______ _______ _____ _____    ______ ____
ROOT
ATOM      1  O1  UNL     1      21.731  -7.359 -44.366  0.00  0.00    +0.000 OA
ATOM      2  C1  UNL     1      22.973  -7.386 -44.579  0.00  0.00    +0.000 A 
ATOM      3  N1  UNL     1      23.456  -7.270 -45.847  0.00  0.00    +0.000 N 
ATOM      4  C2  UNL     1      24.802  -7.262 -46.097  0.00  0.00    +0.000 A 
ATOM      5  C3  UNL     1      25.276  -7.086 -47.406  0.00  0.00    +0.000 A 
ATOM      6  C4  UNL     1      26.648  -7.005 -47.652  0.00  0.00    +0.000 A 
ATOM      7  C5  UNL     1      27.553  -7.073 -46.593  0.00  0.00    +0.000 A 
ATOM      8  C6  UNL     1      27.100  -7.254 -45.283  0.00  0.00    +0.000 A 
ATOM      9  C7  UNL     1      25.722  -7.402 -45.021  0.00  0.00    +0.000 A 
ATOM     10  N2  UNL     1      25.206  -7.599 -43.763  0.00  0.00    +0.000 N 
ATOM     11  C8  UNL     1      25.785  -7.851 -42.557  0.00  0.00    +0.000 A 
ATOM     12  C15 UNL     1      24.811  -7.903 -41.570  0.00  0.00    +0.000 A 
ATOM     13  C16 UNL     1      23.593  -7.709 -42.192  0.00  0.00    +0.000 A 
ATOM     14  C17 UNL     1      23.877  -7.545 -43.531  0.00  0.00    +0.000 A 
ATOM     15  H1  UNL     1      22.778  -7.159 -46.637  0.00  0.00    +0.000 HD
ENDROOT
BRANCH  11  16
ATOM     16  C9  UNL     1      27.171  -8.291 -42.318  0.00  0.00    +0.000 A 
ATOM     17  C10 UNL     1      27.552  -9.613 -42.596  0.00  0.00    +0.000 A 
ATOM     18  C11 UNL     1      28.858 -10.036 -42.338  0.00  0.00    +0.000 A 
ATOM     19  C12 UNL     1      29.791  -9.151 -41.785  0.00  0.00    +0.000 A 
ATOM     20 CL1  UNL     1      31.425  -9.721 -41.474  0.00  0.00    +0.000 Cl
ATOM     21  C13 UNL     1      29.408  -7.833 -41.483  0.00  0.00    +0.000 A 
ATOM     22 CL2  UNL     1      30.545  -6.693 -40.776  0.00  0.00    +0.000 Cl
ATOM     23  C14 UNL     1      28.098  -7.411 -41.743  0.00  0.00    +0.000 A 
ENDBRANCH  11  16
TORSDOF 1
ENDMDL
MODEL 6
REMARK VINA RESULT:    -5.475      5.290      7.566
REMARK INTER + INTRA:          -6.393
REMARK INTER:                  -5.807
REMARK INTRA:                  -0.586
REMARK UNBOUND:                -0.598
REMARK  Name = resultss/4CJN/ligands/lig_247_t0.pdb
REMARK  1 active torsions:
REMARK  status: ('A' for Active; 'I' for Inactive)
REMARK    1  A    between atoms: C8_11  and  C9_12
REMARK                            x       y       z     vdW  Elec       q    Type
REMARK                         _______ _______ _______ _____ _____    ______ ____
ROOT
ATOM      1  O1  UNL     1      28.891 -10.289 -33.841  0.00  0.00    +0.000 OA
ATOM      2  C1  UNL     1      28.002  -9.850 -34.618  0.00  0.00    +0.000 A 
ATOM      3  N1  UNL     1      26.770  -9.521 -34.139  0.00  0.00    +0.000 N 
ATOM      4  C2  UNL     1      25.801  -9.011 -34.961  0.00  0.00    +0.000 A 
ATOM      5  C3  UNL     1      24.558  -8.627 -34.434  0.00  0.00    +0.000 A 
ATOM      6  C4  UNL     1      23.597  -8.039 -35.257  0.00  0.00    +0.000 A 
ATOM      7  C5  UNL     1      23.877  -7.806 -36.604  0.00  0.00    +0.000 A 
ATOM      8  C6  UNL     1      25.106  -8.186 -37.148  0.00  0.00    +0.000 A 
ATOM      9  C7  UNL     1      26.067  -8.840 -36.348  0.00  0.00    +0.000 A 
ATOM     10  N2  UNL     1      27.289  -9.256 -36.818  0.00  0.00    +0.000 N 
ATOM     11  C8  UNL     1      27.824  -9.320 -38.068  0.00  0.00    +0.000 A 
ATOM     12  C15 UNL     1      29.138  -9.760 -37.995  0.00  0.00    +0.000 A 
ATOM     13  C16 UNL     1      29.410 -10.006 -36.663  0.00  0.00    +0.000 A 
ATOM     14  C17 UNL     1      28.250  -9.702 -35.982  0.00  0.00    +0.000 A 
ATOM     15  H1  UNL     1      26.578  -9.639 -33.118  0.00  0.00    +0.000 HD
ENDROOT
BRANCH  11  16
ATOM     16  C9  UNL     1      27.096  -9.228 -39.346  0.00  0.00    +0.000 A 
ATOM     17  C10 UNL     1      26.487 -10.365 -39.897  0.00  0.00    +0.000 A 
ATOM     18  C11 UNL     1      25.825 -10.282 -41.124  0.00  0.00    +0.000 A 
ATOM     19  C12 UNL     1      25.779  -9.069 -41.822  0.00  0.00    +0.000 A 
ATOM     20 CL1  UNL     1      24.936  -9.004 -43.363  0.00  0.00    +0.000 Cl
ATOM     21  C13 UNL     1      26.408  -7.932 -41.285  0.00  0.00    +0.000 A 
ATOM     22 CL2  UNL     1      26.384  -6.392 -42.134  0.00  0.00    +0.000 Cl
ATOM     23  C14 UNL     1      27.070  -8.018 -40.055  0.00  0.00    +0.000 A 
ENDBRANCH  11  16
TORSDOF 1
ENDMDL
MODEL 7
REMARK VINA RESULT:    -5.463      6.106      8.147
REMARK INTER + INTRA:          -6.381
REMARK INTER:                  -5.847
REMARK INTRA:                  -0.534
REMARK UNBOUND:                -0.598
REMARK  Name = resultss/4CJN/ligands/lig_247_t0.pdb
REMARK  1 active torsions:
REMARK  status: ('A' for Active; 'I' for Inactive)
REMARK    1  A    between atoms: C8_11  and  C9_12
REMARK                            x       y       z     vdW  Elec       q    Type
REMARK                         _______ _______ _______ _____ _____    ______ ____
ROOT
ATOM      1  O1  UNL     1      33.057  -9.806 -37.902  0.00  0.00    +0.000 OA
ATOM      2  C1  UNL     1      31.801  -9.851 -38.003  0.00  0.00    +0.000 A 
ATOM      3  N1  UNL     1      31.213  -9.987 -39.224  0.00  0.00    +0.000 N 
ATOM      4  C2  UNL     1      29.853 -10.073 -39.351  0.00  0.00    +0.000 A 
ATOM      5  C3  UNL     1      29.273 -10.268 -40.615  0.00  0.00    +0.000 A 
ATOM      6  C4  UNL     1      27.892 -10.429 -40.737  0.00  0.00    +0.000 A 
ATOM      7  C5  UNL     1      27.084 -10.422 -39.600  0.00  0.00    +0.000 A 
ATOM      8  C6  UNL     1      27.642 -10.223 -38.335  0.00  0.00    +0.000 A 
ATOM      9  C7  UNL     1      29.027  -9.995 -38.196  0.00  0.00    +0.000 A 
ATOM     10  N2  UNL     1      29.642  -9.776 -36.987  0.00  0.00    +0.000 N 
ATOM     11  C8  UNL     1      29.160  -9.567 -35.731  0.00  0.00    +0.000 A 
ATOM     12  C15 UNL     1      30.215  -9.464 -34.835  0.00  0.00    +0.000 A 
ATOM     13  C16 UNL     1      31.382  -9.581 -35.565  0.00  0.00    +0.000 A 
ATOM     14  C17 UNL     1      30.987  -9.753 -36.876  0.00  0.00    +0.000 A 
ATOM     15  H1  UNL     1      31.822 -10.052 -40.072  0.00  0.00    +0.000 HD
ENDROOT
BRANCH  11  16
ATOM     16  C9  UNL     1      27.779  -9.212 -35.363  0.00  0.00    +0.000 A 
ATOM     17  C10 UNL     1      26.968 -10.132 -34.682  0.00  0.00    +0.000 A 
ATOM     18  C11 UNL     1      25.648  -9.805 -34.364  0.00  0.00    +0.000 A 
ATOM     19  C12 UNL     1      25.119  -8.564 -34.736  0.00  0.00    +0.000 A 
ATOM     20 CL1  UNL     1      23.453  -8.188 -34.317  0.00  0.00    +0.000 Cl
ATOM     21  C13 UNL     1      25.919  -7.647 -35.438  0.00  0.00    +0.000 A 
ATOM     22 CL2  UNL     1      25.290  -6.082 -35.935  0.00  0.00    +0.000 Cl
ATOM     23  C14 UNL     1      27.242  -7.977 -35.756  0.00  0.00    +0.000 A 
ENDBRANCH  11  16
TORSDOF 1
ENDMDL
MODEL 8
REMARK VINA RESULT:    -5.445      7.870      9.816
REMARK INTER + INTRA:          -6.362
REMARK INTER:                  -5.749
REMARK INTRA:                  -0.613
REMARK UNBOUND:                -0.598
REMARK  Name = resultss/4CJN/ligands/lig_247_t0.pdb
REMARK  1 active torsions:
REMARK  status: ('A' for Active; 'I' for Inactive)
REMARK    1  A    between atoms: C8_11  and  C9_12
REMARK                            x       y       z     vdW  Elec       q    Type
REMARK                         _______ _______ _______ _____ _____    ______ ____
ROOT
ATOM      1  O1  UNL     1      32.496  -9.667 -34.425  0.00  0.00    +0.000 OA
ATOM      2  C1  UNL     1      31.337  -9.552 -34.907  0.00  0.00    +0.000 A 
ATOM      3  N1  UNL     1      31.117  -9.782 -36.231  0.00  0.00    +0.000 N 
ATOM      4  C2  UNL     1      29.860  -9.696 -36.767  0.00  0.00    +0.000 A 
ATOM      5  C3  UNL     1      29.649  -9.991 -38.123  0.00  0.00    +0.000 A 
ATOM      6  C4  UNL     1      28.358  -9.975 -38.654  0.00  0.00    +0.000 A 
ATOM      7  C5  UNL     1      27.268  -9.690 -37.831  0.00  0.00    +0.000 A 
ATOM      8  C6  UNL     1      27.458  -9.388 -36.481  0.00  0.00    +0.000 A 
ATOM      9  C7  UNL     1      28.760  -9.337 -35.939  0.00  0.00    +0.000 A 
ATOM     10  N2  UNL     1      29.024  -9.031 -34.626  0.00  0.00    +0.000 N 
ATOM     11  C8  UNL     1      28.242  -8.576 -33.609  0.00  0.00    +0.000 A 
ATOM     12  C15 UNL     1      28.990  -8.491 -32.444  0.00  0.00    +0.000 A 
ATOM     13  C16 UNL     1      30.279  -8.874 -32.760  0.00  0.00    +0.000 A 
ATOM     14  C17 UNL     1      30.261  -9.178 -34.105  0.00  0.00    +0.000 A 
ATOM     15  H1  UNL     1      31.925 -10.054 -36.837  0.00  0.00    +0.000 HD
ENDROOT
BRANCH  11  16
ATOM     16  C9  UNL     1      26.899  -7.983 -33.727  0.00  0.00    +0.000 A 
ATOM     17  C10 UNL     1      26.742  -6.672 -34.202  0.00  0.00    +0.000 A 
ATOM     18  C11 UNL     1      25.470  -6.100 -34.281  0.00  0.00    +0.000 A 
ATOM     19  C12 UNL     1      24.344  -6.824 -33.871  0.00  0.00    +0.000 A 
ATOM     20 CL1  UNL     1      22.760  -6.071 -33.986  0.00  0.00    +0.000 Cl
ATOM     21  C13 UNL     1      24.497  -8.129 -33.373  0.00  0.00    +0.000 A 
ATOM     22 CL2  UNL     1      23.111  -9.068 -32.837  0.00  0.00    +0.000 Cl
ATOM     23  C14 UNL     1      25.774  -8.700 -33.295  0.00  0.00    +0.000 A 
ENDBRANCH  11  16
TORSDOF 1
ENDMDL
MODEL 9
REMARK VINA RESULT:    -5.438      5.860      7.843
REMARK INTER + INTRA:          -6.353
REMARK INTER:                  -5.737
REMARK INTRA:                  -0.616
REMARK UNBOUND:                -0.598
REMARK  Name = resultss/4CJN/ligands/lig_247_t0.pdb
REMARK  1 active torsions:
REMARK  status: ('A' for Active; 'I' for Inactive)
REMARK    1  A    between atoms: C8_11  and  C9_12
REMARK                            x       y       z     vdW  Elec       q    Type
REMARK                         _______ _______ _______ _____ _____    ______ ____
ROOT
ATOM      1  O1  UNL     1      23.917  -7.543 -33.037  0.00  0.00    +0.000 OA
ATOM      2  C1  UNL     1      24.991  -7.910 -33.586  0.00  0.00    +0.000 A 
ATOM      3  N1  UNL     1      26.119  -8.082 -32.843  0.00  0.00    +0.000 N 
ATOM      4  C2  UNL     1      27.287  -8.513 -33.414  0.00  0.00    +0.000 A 
ATOM      5  C3  UNL     1      28.422  -8.736 -32.619  0.00  0.00    +0.000 A 
ATOM      6  C4  UNL     1      29.590  -9.245 -33.188  0.00  0.00    +0.000 A 
ATOM      7  C5  UNL     1      29.626  -9.559 -34.547  0.00  0.00    +0.000 A 
ATOM      8  C6  UNL     1      28.509  -9.338 -35.356  0.00  0.00    +0.000 A 
ATOM      9  C7  UNL     1      27.339  -8.765 -34.814  0.00  0.00    +0.000 A 
ATOM     10  N2  UNL     1      26.210  -8.505 -35.551  0.00  0.00    +0.000 N 
ATOM     11  C8  UNL     1      25.949  -8.549 -36.886  0.00  0.00    +0.000 A 
ATOM     12  C15 UNL     1      24.612  -8.254 -37.113  0.00  0.00    +0.000 A 
ATOM     13  C16 UNL     1      24.040  -7.989 -35.883  0.00  0.00    +0.000 A 
ATOM     14  C17 UNL     1      25.053  -8.136 -34.960  0.00  0.00    +0.000 A 
ATOM     15  H1  UNL     1      26.077  -7.904 -31.813  0.00  0.00    +0.000 HD
ENDROOT
BRANCH  11  16
ATOM     16  C9  UNL     1      26.937  -8.608 -37.977  0.00  0.00    +0.000 A 
ATOM     17  C10 UNL     1      27.659  -7.462 -38.342  0.00  0.00    +0.000 A 
ATOM     18  C11 UNL     1      28.571  -7.513 -39.398  0.00  0.00    +0.000 A 
ATOM     19  C12 UNL     1      28.760  -8.702 -40.111  0.00  0.00    +0.000 A 
ATOM     20 CL1  UNL     1      29.918  -8.727 -41.435  0.00  0.00    +0.000 Cl
ATOM     21  C13 UNL     1      28.023  -9.848 -39.765  0.00  0.00    +0.000 A 
ATOM     22 CL2  UNL     1      28.221 -11.359 -40.642  0.00  0.00    +0.000 Cl
ATOM     23  C14 UNL     1      27.109  -9.794 -38.706  0.00  0.00    +0.000 A 
ENDBRANCH  11  16
TORSDOF 1
ENDMDL
