MODEL 1
REMARK VINA RESULT:    -6.395      0.000      0.000
REMARK INTER + INTRA:         -12.033
REMARK INTER:                  -9.947
REMARK INTRA:                  -2.086
REMARK UNBOUND:                -2.086
REMARK  Name = resultss/4CJN/ligands/lig_253_t2.pdb
REMARK  11 active torsions:
REMARK  status: ('A' for Active; 'I' for Inactive)
REMARK    1  A    between atoms: C2_2  and  C3_3
REMARK    2  A    between atoms: C3_3  and  C4_4
REMARK    3  A    between atoms: C6_6  and  C7_7
REMARK    4  A    between atoms: C7_7  and  S1_8
REMARK    5  A    between atoms: S1_8  and  C8_9
REMARK    6  A    between atoms: C9_12  and  C10_13
REMARK    7  A    between atoms: C14_17  and  O1_18
REMARK    8  A    between atoms: O1_18  and  C15_19
REMARK    9  A    between atoms: C17_22  and  O3_23
REMARK   10  A    between atoms: C18_24  and  C19_25
REMARK   11  A    between atoms: C24_31  and  C25_32
REMARK                            x       y       z     vdW  Elec       q    Type
REMARK                         _______ _______ _______ _____ _____    ______ ____
ROOT
ATOM      1  C4  UNL     1      30.719 -10.364 -42.143  0.00  0.00    +0.000 A 
ATOM      2  C5  UNL     1      31.776  -9.880 -41.367  0.00  0.00    +0.000 A 
ATOM      3  C6  UNL     1      31.533  -9.122 -40.210  0.00  0.00    +0.000 A 
ATOM      4  C17 UNL     1      30.197  -8.873 -39.809  0.00  0.00    +0.000 A 
ATOM      5  C18 UNL     1      29.121  -9.384 -40.578  0.00  0.00    +0.000 A 
ATOM      6  C28 UNL     1      29.402 -10.133 -41.734  0.00  0.00    +0.000 A 
ENDROOT
BRANCH   5   7
ATOM      7  C19 UNL     1      27.661  -9.189 -40.183  0.00  0.00    +0.000 C 
ATOM      8  C20 UNL     1      26.839 -10.444 -40.396  0.00  0.00    +0.000 C 
ATOM      9  C21 UNL     1      25.908 -10.550 -41.350  0.00  0.00    +0.000 C 
ATOM     10  C22 UNL     1      25.641  -9.449 -42.286  0.00  0.00    +0.000 C 
ATOM     11  O4  UNL     1      24.704  -9.564 -43.119  0.00  0.00    +0.000 OA
ATOM     12  C23 UNL     1      26.444  -8.207 -42.184  0.00  0.00    +0.000 C 
ATOM     13  C24 UNL     1      26.610  -7.321 -43.187  0.00  0.00    +0.000 C 
ATOM     14  C27 UNL     1      27.048  -7.923 -40.831  0.00  0.00    +0.000 C 
BRANCH  13  15
ATOM     15  C25 UNL     1      26.200  -7.550 -44.587  0.00  0.00    +0.000 C 
ATOM     16  C26 UNL     1      26.885  -7.015 -45.595  0.00  0.00    +0.000 C 
ENDBRANCH  13  15
ENDBRANCH   5   7
BRANCH   4  17
ATOM     17  O3  UNL     1      29.921  -8.118 -38.668  0.00  0.00    +0.000 OA
ATOM     18  H16 UNL     1      30.274  -8.338 -37.746  0.00  0.00    +0.000 HD
ENDBRANCH   4  17
BRANCH   1  19
ATOM     19  C3  UNL     1      30.996 -11.148 -43.399  0.00  0.00    +0.000 C 
BRANCH  19  21
ATOM     20  C1  UNL     1      32.642 -13.003 -43.377  0.00  0.00    +0.000 C 
ATOM     21  C2  UNL     1      31.424 -12.550 -43.069  0.00  0.00    +0.000 C 
ENDBRANCH  19  21
ENDBRANCH   1  19
BRANCH   3  22
ATOM     22  C7  UNL     1      32.713  -8.510 -39.488  0.00  0.00    +0.000 C 
BRANCH  22  23
ATOM     23  S1  UNL     1      33.756  -9.800 -38.712  0.00  0.00    +0.000 S 
BRANCH  23  24
ATOM     24  C8  UNL     1      32.869  -9.778 -37.156  0.00  0.00    +0.000 A 
ATOM     25  N1  UNL     1      33.456  -9.738 -35.946  0.00  0.00    +0.000 NA
ATOM     26  N2  UNL     1      32.470  -9.657 -35.066  0.00  0.00    +0.000 NA
ATOM     27  C9  UNL     1      31.323  -9.649 -35.776  0.00  0.00    +0.000 A 
ATOM     28  O2  UNL     1      31.565  -9.738 -37.060  0.00  0.00    +0.000 OA
BRANCH  27  29
ATOM     29  C10 UNL     1      29.975  -9.506 -35.195  0.00  0.00    +0.000 A 
ATOM     30  C11 UNL     1      29.831  -9.126 -33.851  0.00  0.00    +0.000 A 
ATOM     31  C12 UNL     1      28.561  -9.022 -33.282  0.00  0.00    +0.000 A 
ATOM     32  C13 UNL     1      27.424  -9.294 -34.047  0.00  0.00    +0.000 A 
ATOM     33  C14 UNL     1      27.546  -9.675 -35.388  0.00  0.00    +0.000 A 
ATOM     34  C16 UNL     1      28.829  -9.782 -35.960  0.00  0.00    +0.000 A 
BRANCH  33  35
ATOM     35  O1  UNL     1      26.375  -9.939 -36.113  0.00  0.00    +0.000 OA
ATOM     36  C15 UNL     1      25.660  -8.969 -36.871  0.00  0.00    +0.000 C 
ENDBRANCH  33  35
ENDBRANCH  27  29
ENDBRANCH  23  24
ENDBRANCH  22  23
ENDBRANCH   3  22
TORSDOF 10
ENDMDL
MODEL 2
REMARK VINA RESULT:    -6.293      3.448      5.990
REMARK INTER + INTRA:         -11.874
REMARK INTER:                  -9.023
REMARK INTRA:                  -2.851
REMARK UNBOUND:                -2.086
REMARK  Name = resultss/4CJN/ligands/lig_253_t2.pdb
REMARK  11 active torsions:
REMARK  status: ('A' for Active; 'I' for Inactive)
REMARK    1  A    between atoms: C2_2  and  C3_3
REMARK    2  A    between atoms: C3_3  and  C4_4
REMARK    3  A    between atoms: C6_6  and  C7_7
REMARK    4  A    between atoms: C7_7  and  S1_8
REMARK    5  A    between atoms: S1_8  and  C8_9
REMARK    6  A    between atoms: C9_12  and  C10_13
REMARK    7  A    between atoms: C14_17  and  O1_18
REMARK    8  A    between atoms: O1_18  and  C15_19
REMARK    9  A    between atoms: C17_22  and  O3_23
REMARK   10  A    between atoms: C18_24  and  C19_25
REMARK   11  A    between atoms: C24_31  and  C25_32
REMARK                            x       y       z     vdW  Elec       q    Type
REMARK                         _______ _______ _______ _____ _____    ______ ____
ROOT
ATOM      1  C4  UNL     1      25.472  -7.427 -39.487  0.00  0.00    +0.000 A 
ATOM      2  C5  UNL     1      24.655  -7.139 -38.391  0.00  0.00    +0.000 A 
ATOM      3  C6  UNL     1      24.726  -7.905 -37.217  0.00  0.00    +0.000 A 
ATOM      4  C17 UNL     1      25.663  -8.965 -37.134  0.00  0.00    +0.000 A 
ATOM      5  C18 UNL     1      26.514  -9.245 -38.233  0.00  0.00    +0.000 A 
ATOM      6  C28 UNL     1      26.409  -8.460 -39.395  0.00  0.00    +0.000 A 
ENDROOT
BRANCH   5   7
ATOM      7  C19 UNL     1      27.572 -10.343 -38.197  0.00  0.00    +0.000 C 
ATOM      8  C20 UNL     1      28.881  -9.854 -37.612  0.00  0.00    +0.000 C 
ATOM      9  C21 UNL     1      29.988  -9.688 -38.345  0.00  0.00    +0.000 C 
ATOM     10  C22 UNL     1      29.994  -9.944 -39.792  0.00  0.00    +0.000 C 
ATOM     11  O4  UNL     1      31.077  -9.848 -40.428  0.00  0.00    +0.000 OA
ATOM     12  C23 UNL     1      28.737 -10.367 -40.454  0.00  0.00    +0.000 C 
ATOM     13  C24 UNL     1      28.484 -10.229 -41.770  0.00  0.00    +0.000 C 
ATOM     14  C27 UNL     1      27.724 -11.048 -39.568  0.00  0.00    +0.000 C 
BRANCH  13  15
ATOM     15  C25 UNL     1      29.320  -9.455 -42.711  0.00  0.00    +0.000 C 
ATOM     16  C26 UNL     1      29.088  -8.163 -42.927  0.00  0.00    +0.000 C 
ENDBRANCH  13  15
ENDBRANCH   5   7
BRANCH   4  17
ATOM     17  O3  UNL     1      25.755  -9.751 -35.983  0.00  0.00    +0.000 OA
ATOM     18  H16 UNL     1      26.395  -9.565 -35.222  0.00  0.00    +0.000 HD
ENDBRANCH   4  17
BRANCH   1  19
ATOM     19  C3  UNL     1      25.361  -6.616 -40.752  0.00  0.00    +0.000 C 
BRANCH  19  21
ATOM     20  C1  UNL     1      24.801  -8.166 -42.605  0.00  0.00    +0.000 C 
ATOM     21  C2  UNL     1      25.717  -7.448 -41.951  0.00  0.00    +0.000 C 
ENDBRANCH  19  21
ENDBRANCH   1  19
BRANCH   3  22
ATOM     22  C7  UNL     1      23.723  -7.635 -36.117  0.00  0.00    +0.000 C 
BRANCH  22  23
ATOM     23  S1  UNL     1      24.263  -6.242 -35.057  0.00  0.00    +0.000 S 
BRANCH  23  24
ATOM     24  C8  UNL     1      25.580  -7.168 -34.271  0.00  0.00    +0.000 A 
ATOM     25  N1  UNL     1      25.401  -8.040 -33.263  0.00  0.00    +0.000 NA
ATOM     26  N2  UNL     1      26.592  -8.565 -33.019  0.00  0.00    +0.000 NA
ATOM     27  C9  UNL     1      27.447  -7.993 -33.890  0.00  0.00    +0.000 A 
ATOM     28  O2  UNL     1      26.831  -7.123 -34.652  0.00  0.00    +0.000 OA
BRANCH  27  29
ATOM     29  C10 UNL     1      28.877  -8.333 -34.012  0.00  0.00    +0.000 A 
ATOM     30  C11 UNL     1      29.713  -7.556 -34.831  0.00  0.00    +0.000 A 
ATOM     31  C12 UNL     1      31.060  -7.890 -34.979  0.00  0.00    +0.000 A 
ATOM     32  C13 UNL     1      31.586  -8.998 -34.311  0.00  0.00    +0.000 A 
ATOM     33  C14 UNL     1      30.771  -9.785 -33.491  0.00  0.00    +0.000 A 
ATOM     34  C16 UNL     1      29.410  -9.449 -33.344  0.00  0.00    +0.000 A 
BRANCH  33  35
ATOM     35  O1  UNL     1      31.347 -10.888 -32.844  0.00  0.00    +0.000 OA
ATOM     36  C15 UNL     1      32.032 -10.824 -31.597  0.00  0.00    +0.000 C 
ENDBRANCH  33  35
ENDBRANCH  27  29
ENDBRANCH  23  24
ENDBRANCH  22  23
ENDBRANCH   3  22
TORSDOF 10
ENDMDL
MODEL 3
REMARK VINA RESULT:    -6.268      2.581      3.840
REMARK INTER + INTRA:         -11.835
REMARK INTER:                 -10.307
REMARK INTRA:                  -1.528
REMARK UNBOUND:                -2.086
REMARK  Name = resultss/4CJN/ligands/lig_253_t2.pdb
REMARK  11 active torsions:
REMARK  status: ('A' for Active; 'I' for Inactive)
REMARK    1  A    between atoms: C2_2  and  C3_3
REMARK    2  A    between atoms: C3_3  and  C4_4
REMARK    3  A    between atoms: C6_6  and  C7_7
REMARK    4  A    between atoms: C7_7  and  S1_8
REMARK    5  A    between atoms: S1_8  and  C8_9
REMARK    6  A    between atoms: C9_12  and  C10_13
REMARK    7  A    between atoms: C14_17  and  O1_18
REMARK    8  A    between atoms: O1_18  and  C15_19
REMARK    9  A    between atoms: C17_22  and  O3_23
REMARK   10  A    between atoms: C18_24  and  C19_25
REMARK   11  A    between atoms: C24_31  and  C25_32
REMARK                            x       y       z     vdW  Elec       q    Type
REMARK                         _______ _______ _______ _____ _____    ______ ____
ROOT
ATOM      1  C4  UNL     1      28.838  -9.883 -42.100  0.00  0.00    +0.000 A 
ATOM      2  C5  UNL     1      28.803 -10.526 -40.860  0.00  0.00    +0.000 A 
ATOM      3  C6  UNL     1      27.850 -10.174 -39.891  0.00  0.00    +0.000 A 
ATOM      4  C17 UNL     1      26.891  -9.174 -40.189  0.00  0.00    +0.000 A 
ATOM      5  C18 UNL     1      26.904  -8.538 -41.456  0.00  0.00    +0.000 A 
ATOM      6  C28 UNL     1      27.878  -8.912 -42.399  0.00  0.00    +0.000 A 
ENDROOT
BRANCH   5   7
ATOM      7  C19 UNL     1      25.877  -7.484 -41.859  0.00  0.00    +0.000 C 
ATOM      8  C20 UNL     1      24.607  -8.104 -42.405  0.00  0.00    +0.000 C 
ATOM      9  C21 UNL     1      24.255  -8.026 -43.693  0.00  0.00    +0.000 C 
ATOM     10  C22 UNL     1      25.108  -7.350 -44.681  0.00  0.00    +0.000 C 
ATOM     11  O4  UNL     1      24.701  -7.234 -45.867  0.00  0.00    +0.000 OA
ATOM     12  C23 UNL     1      26.398  -6.768 -44.239  0.00  0.00    +0.000 C 
ATOM     13  C24 UNL     1      27.438  -6.510 -45.057  0.00  0.00    +0.000 C 
ATOM     14  C27 UNL     1      26.489  -6.399 -42.780  0.00  0.00    +0.000 C 
BRANCH  13  15
ATOM     15  C25 UNL     1      27.533  -6.955 -46.463  0.00  0.00    +0.000 C 
ATOM     16  C26 UNL     1      27.610  -6.071 -47.455  0.00  0.00    +0.000 C 
ENDBRANCH  13  15
ENDBRANCH   5   7
BRANCH   4  17
ATOM     17  O3  UNL     1      25.934  -8.796 -39.246  0.00  0.00    +0.000 OA
ATOM     18  H16 UNL     1      25.350  -9.449 -38.740  0.00  0.00    +0.000 HD
ENDBRANCH   4  17
BRANCH   1  19
ATOM     19  C3  UNL     1      29.886 -10.250 -43.118  0.00  0.00    +0.000 C 
BRANCH  19  21
ATOM     20  C1  UNL     1      31.369 -12.234 -43.232  0.00  0.00    +0.000 C 
ATOM     21  C2  UNL     1      30.887 -11.204 -42.532  0.00  0.00    +0.000 C 
ENDBRANCH  19  21
ENDBRANCH   1  19
BRANCH   3  22
ATOM     22  C7  UNL     1      27.948 -10.805 -38.520  0.00  0.00    +0.000 C 
BRANCH  22  23
ATOM     23  S1  UNL     1      29.341 -10.098 -37.563  0.00  0.00    +0.000 S 
BRANCH  23  24
ATOM     24  C8  UNL     1      28.343  -9.716 -36.126  0.00  0.00    +0.000 A 
ATOM     25  N1  UNL     1      28.812  -9.661 -34.867  0.00  0.00    +0.000 NA
ATOM     26  N2  UNL     1      27.792  -9.278 -34.114  0.00  0.00    +0.000 NA
ATOM     27  C9  UNL     1      26.744  -9.112 -34.946  0.00  0.00    +0.000 A 
ATOM     28  O2  UNL     1      27.076  -9.394 -36.182  0.00  0.00    +0.000 OA
BRANCH  27  29
ATOM     29  C10 UNL     1      25.413  -8.627 -34.537  0.00  0.00    +0.000 A 
ATOM     30  C11 UNL     1      24.678  -9.337 -33.574  0.00  0.00    +0.000 A 
ATOM     31  C12 UNL     1      23.403  -8.906 -33.204  0.00  0.00    +0.000 A 
ATOM     32  C13 UNL     1      22.851  -7.764 -33.789  0.00  0.00    +0.000 A 
ATOM     33  C14 UNL     1      23.566  -7.043 -34.750  0.00  0.00    +0.000 A 
ATOM     34  C16 UNL     1      24.853  -7.480 -35.125  0.00  0.00    +0.000 A 
BRANCH  33  35
ATOM     35  O1  UNL     1      22.967  -5.904 -35.309  0.00  0.00    +0.000 OA
ATOM     36  C15 UNL     1      22.284  -5.883 -36.558  0.00  0.00    +0.000 C 
ENDBRANCH  33  35
ENDBRANCH  27  29
ENDBRANCH  23  24
ENDBRANCH  22  23
ENDBRANCH   3  22
TORSDOF 10
ENDMDL
MODEL 4
REMARK VINA RESULT:    -6.257      3.458      8.242
REMARK INTER + INTRA:         -11.818
REMARK INTER:                  -9.678
REMARK INTRA:                  -2.140
REMARK UNBOUND:                -2.086
REMARK  Name = resultss/4CJN/ligands/lig_253_t2.pdb
REMARK  11 active torsions:
REMARK  status: ('A' for Active; 'I' for Inactive)
REMARK    1  A    between atoms: C2_2  and  C3_3
REMARK    2  A    between atoms: C3_3  and  C4_4
REMARK    3  A    between atoms: C6_6  and  C7_7
REMARK    4  A    between atoms: C7_7  and  S1_8
REMARK    5  A    between atoms: S1_8  and  C8_9
REMARK    6  A    between atoms: C9_12  and  C10_13
REMARK    7  A    between atoms: C14_17  and  O1_18
REMARK    8  A    between atoms: O1_18  and  C15_19
REMARK    9  A    between atoms: C17_22  and  O3_23
REMARK   10  A    between atoms: C18_24  and  C19_25
REMARK   11  A    between atoms: C24_31  and  C25_32
REMARK                            x       y       z     vdW  Elec       q    Type
REMARK                         _______ _______ _______ _____ _____    ______ ____
ROOT
ATOM      1  C4  UNL     1      28.374  -8.019 -38.219  0.00  0.00    +0.000 A 
ATOM      2  C5  UNL     1      27.573  -7.837 -39.349  0.00  0.00    +0.000 A 
ATOM      3  C6  UNL     1      26.189  -8.064 -39.297  0.00  0.00    +0.000 A 
ATOM      4  C17 UNL     1      25.593  -8.452 -38.071  0.00  0.00    +0.000 A 
ATOM      5  C18 UNL     1      26.396  -8.610 -36.914  0.00  0.00    +0.000 A 
ATOM      6  C28 UNL     1      27.780  -8.381 -37.006  0.00  0.00    +0.000 A 
ENDROOT
BRANCH   5   7
ATOM      7  C19 UNL     1      25.816  -8.985 -35.554  0.00  0.00    +0.000 C 
ATOM      8  C20 UNL     1      25.475  -7.765 -34.723  0.00  0.00    +0.000 C 
ATOM      9  C21 UNL     1      26.158  -7.416 -33.628  0.00  0.00    +0.000 C 
ATOM     10  C22 UNL     1      27.321  -8.190 -33.172  0.00  0.00    +0.000 C 
ATOM     11  O4  UNL     1      27.888  -7.870 -32.094  0.00  0.00    +0.000 OA
ATOM     12  C23 UNL     1      27.759  -9.365 -33.963  0.00  0.00    +0.000 C 
ATOM     13  C24 UNL     1      28.998  -9.893 -33.923  0.00  0.00    +0.000 C 
ATOM     14  C27 UNL     1      26.697 -10.020 -34.812  0.00  0.00    +0.000 C 
BRANCH  13  15
ATOM     15  C25 UNL     1      30.158  -9.267 -33.255  0.00  0.00    +0.000 C 
ATOM     16  C26 UNL     1      31.109 -10.012 -32.697  0.00  0.00    +0.000 C 
ENDBRANCH  13  15
ENDBRANCH   5   7
BRANCH   4  17
ATOM     17  O3  UNL     1      24.220  -8.691 -37.987  0.00  0.00    +0.000 OA
ATOM     18  H16 UNL     1      23.729  -8.864 -37.119  0.00  0.00    +0.000 HD
ENDBRANCH   4  17
BRANCH   1  19
ATOM     19  C3  UNL     1      29.863  -7.802 -38.298  0.00  0.00    +0.000 C 
BRANCH  19  21
ATOM     20  C1  UNL     1      30.925  -9.947 -37.645  0.00  0.00    +0.000 C 
ATOM     21  C2  UNL     1      30.583  -8.695 -37.328  0.00  0.00    +0.000 C 
ENDBRANCH  19  21
ENDBRANCH   1  19
BRANCH   3  22
ATOM     22  C7  UNL     1      25.396  -7.986 -40.583  0.00  0.00    +0.000 C 
BRANCH  22  23
ATOM     23  S1  UNL     1      25.347  -9.610 -41.430  0.00  0.00    +0.000 S 
BRANCH  23  24
ATOM     24  C8  UNL     1      26.953  -9.414 -42.199  0.00  0.00    +0.000 A 
ATOM     25  N1  UNL     1      27.225  -8.536 -43.180  0.00  0.00    +0.000 NA
ATOM     26  N2  UNL     1      28.522  -8.645 -43.419  0.00  0.00    +0.000 NA
ATOM     27  C9  UNL     1      28.989  -9.584 -42.571  0.00  0.00    +0.000 A 
ATOM     28  O2  UNL     1      28.024 -10.069 -41.829  0.00  0.00    +0.000 OA
BRANCH  27  29
ATOM     29  C10 UNL     1      30.404  -9.981 -42.451  0.00  0.00    +0.000 A 
ATOM     30  C11 UNL     1      31.143  -9.600 -41.320  0.00  0.00    +0.000 A 
ATOM     31  C12 UNL     1      32.492  -9.941 -41.212  0.00  0.00    +0.000 A 
ATOM     32  C13 UNL     1      33.116 -10.667 -42.230  0.00  0.00    +0.000 A 
ATOM     33  C14 UNL     1      32.397 -11.056 -43.366  0.00  0.00    +0.000 A 
ATOM     34  C16 UNL     1      31.036 -10.708 -43.474  0.00  0.00    +0.000 A 
BRANCH  33  35
ATOM     35  O1  UNL     1      33.070 -11.782 -44.361  0.00  0.00    +0.000 OA
ATOM     36  C15 UNL     1      32.769 -13.126 -44.719  0.00  0.00    +0.000 C 
ENDBRANCH  33  35
ENDBRANCH  27  29
ENDBRANCH  23  24
ENDBRANCH  22  23
ENDBRANCH   3  22
TORSDOF 10
ENDMDL
MODEL 5
REMARK VINA RESULT:    -6.137      3.108      8.183
REMARK INTER + INTRA:         -11.632
REMARK INTER:                 -10.096
REMARK INTRA:                  -1.535
REMARK UNBOUND:                -2.086
REMARK  Name = resultss/4CJN/ligands/lig_253_t2.pdb
REMARK  11 active torsions:
REMARK  status: ('A' for Active; 'I' for Inactive)
REMARK    1  A    between atoms: C2_2  and  C3_3
REMARK    2  A    between atoms: C3_3  and  C4_4
REMARK    3  A    between atoms: C6_6  and  C7_7
REMARK    4  A    between atoms: C7_7  and  S1_8
REMARK    5  A    between atoms: S1_8  and  C8_9
REMARK    6  A    between atoms: C9_12  and  C10_13
REMARK    7  A    between atoms: C14_17  and  O1_18
REMARK    8  A    between atoms: O1_18  and  C15_19
REMARK    9  A    between atoms: C17_22  and  O3_23
REMARK   10  A    between atoms: C18_24  and  C19_25
REMARK   11  A    between atoms: C24_31  and  C25_32
REMARK                            x       y       z     vdW  Elec       q    Type
REMARK                         _______ _______ _______ _____ _____    ______ ____
ROOT
ATOM      1  C4  UNL     1      25.920  -9.154 -39.898  0.00  0.00    +0.000 A 
ATOM      2  C5  UNL     1      26.804  -9.915 -40.668  0.00  0.00    +0.000 A 
ATOM      3  C6  UNL     1      28.068 -10.275 -40.171  0.00  0.00    +0.000 A 
ATOM      4  C17 UNL     1      28.436  -9.886 -38.859  0.00  0.00    +0.000 A 
ATOM      5  C18 UNL     1      27.532  -9.138 -38.063  0.00  0.00    +0.000 A 
ATOM      6  C28 UNL     1      26.278  -8.790 -38.596  0.00  0.00    +0.000 A 
ENDROOT
BRANCH   5   7
ATOM      7  C19 UNL     1      27.847  -8.723 -36.629  0.00  0.00    +0.000 C 
ATOM      8  C20 UNL     1      27.886  -9.908 -35.688  0.00  0.00    +0.000 C 
ATOM      9  C21 UNL     1      26.956 -10.124 -34.750  0.00  0.00    +0.000 C 
ATOM     10  C22 UNL     1      25.804  -9.225 -34.593  0.00  0.00    +0.000 C 
ATOM     11  O4  UNL     1      24.995  -9.423 -33.649  0.00  0.00    +0.000 OA
ATOM     12  C23 UNL     1      25.658  -8.074 -35.515  0.00  0.00    +0.000 C 
ATOM     13  C24 UNL     1      24.495  -7.442 -35.769  0.00  0.00    +0.000 C 
ATOM     14  C27 UNL     1      26.933  -7.569 -36.146  0.00  0.00    +0.000 C 
BRANCH  13  15
ATOM     15  C25 UNL     1      23.166  -7.922 -35.337  0.00  0.00    +0.000 C 
ATOM     16  C26 UNL     1      22.240  -7.070 -34.905  0.00  0.00    +0.000 C 
ENDBRANCH  13  15
ENDBRANCH   5   7
BRANCH   4  17
ATOM     17  O3  UNL     1      29.687 -10.222 -38.338  0.00  0.00    +0.000 OA
ATOM     18  H16 UNL     1      30.452 -10.582 -38.893  0.00  0.00    +0.000 HD
ENDBRANCH   4  17
BRANCH   1  19
ATOM     19  C3  UNL     1      24.581  -8.749 -40.456  0.00  0.00    +0.000 C 
BRANCH  19  21
ATOM     20  C1  UNL     1      23.356  -8.908 -42.607  0.00  0.00    +0.000 C 
ATOM     21  C2  UNL     1      24.478  -9.109 -41.911  0.00  0.00    +0.000 C 
ENDBRANCH  19  21
ENDBRANCH   1  19
BRANCH   3  22
ATOM     22  C7  UNL     1      29.033 -10.978 -41.099  0.00  0.00    +0.000 C 
BRANCH  22  23
ATOM     23  S1  UNL     1      30.457  -9.902 -41.513  0.00  0.00    +0.000 S 
BRANCH  23  24
ATOM     24  C8  UNL     1      29.455  -8.646 -42.305  0.00  0.00    +0.000 A 
ATOM     25  N1  UNL     1      29.382  -7.365 -41.901  0.00  0.00    +0.000 NA
ATOM     26  N2  UNL     1      28.607  -6.749 -42.780  0.00  0.00    +0.000 NA
ATOM     27  C9  UNL     1      28.243  -7.679 -43.686  0.00  0.00    +0.000 A 
ATOM     28  O2  UNL     1      28.750  -8.849 -43.388  0.00  0.00    +0.000 OA
BRANCH  27  29
ATOM     29  C10 UNL     1      27.424  -7.412 -44.883  0.00  0.00    +0.000 A 
ATOM     30  C11 UNL     1      28.049  -7.153 -46.113  0.00  0.00    +0.000 A 
ATOM     31  C12 UNL     1      27.285  -6.865 -47.245  0.00  0.00    +0.000 A 
ATOM     32  C13 UNL     1      25.890  -6.836 -47.160  0.00  0.00    +0.000 A 
ATOM     33  C14 UNL     1      25.248  -7.091 -45.944  0.00  0.00    +0.000 A 
ATOM     34  C16 UNL     1      26.021  -7.378 -44.802  0.00  0.00    +0.000 A 
BRANCH  33  35
ATOM     35  O1  UNL     1      23.846  -7.047 -45.912  0.00  0.00    +0.000 OA
ATOM     36  C15 UNL     1      23.002  -7.450 -46.985  0.00  0.00    +0.000 C 
ENDBRANCH  33  35
ENDBRANCH  27  29
ENDBRANCH  23  24
ENDBRANCH  22  23
ENDBRANCH   3  22
TORSDOF 10
ENDMDL
MODEL 6
REMARK VINA RESULT:    -6.075      3.281      9.241
REMARK INTER + INTRA:         -11.535
REMARK INTER:                  -9.426
REMARK INTRA:                  -2.108
REMARK UNBOUND:                -2.086
REMARK  Name = resultss/4CJN/ligands/lig_253_t2.pdb
REMARK  11 active torsions:
REMARK  status: ('A' for Active; 'I' for Inactive)
REMARK    1  A    between atoms: C2_2  and  C3_3
REMARK    2  A    between atoms: C3_3  and  C4_4
REMARK    3  A    between atoms: C6_6  and  C7_7
REMARK    4  A    between atoms: C7_7  and  S1_8
REMARK    5  A    between atoms: S1_8  and  C8_9
REMARK    6  A    between atoms: C9_12  and  C10_13
REMARK    7  A    between atoms: C14_17  and  O1_18
REMARK    8  A    between atoms: O1_18  and  C15_19
REMARK    9  A    between atoms: C17_22  and  O3_23
REMARK   10  A    between atoms: C18_24  and  C19_25
REMARK   11  A    between atoms: C24_31  and  C25_32
REMARK                            x       y       z     vdW  Elec       q    Type
REMARK                         _______ _______ _______ _____ _____    ______ ____
ROOT
ATOM      1  C4  UNL     1      27.531  -9.672 -35.758  0.00  0.00    +0.000 A 
ATOM      2  C5  UNL     1      27.229  -9.730 -37.122  0.00  0.00    +0.000 A 
ATOM      3  C6  UNL     1      28.180  -9.363 -38.087  0.00  0.00    +0.000 A 
ATOM      4  C17 UNL     1      29.474  -8.961 -37.672  0.00  0.00    +0.000 A 
ATOM      5  C18 UNL     1      29.795  -8.927 -36.291  0.00  0.00    +0.000 A 
ATOM      6  C28 UNL     1      28.814  -9.294 -35.353  0.00  0.00    +0.000 A 
ENDROOT
BRANCH   5   7
ATOM      7  C19 UNL     1      31.178  -8.543 -35.776  0.00  0.00    +0.000 C 
ATOM      8  C20 UNL     1      31.751  -9.591 -34.844  0.00  0.00    +0.000 C 
ATOM      9  C21 UNL     1      31.902  -9.392 -33.530  0.00  0.00    +0.000 C 
ATOM     10  C22 UNL     1      31.486  -8.134 -32.894  0.00  0.00    +0.000 C 
ATOM     11  O4  UNL     1      31.717  -7.960 -31.668  0.00  0.00    +0.000 OA
ATOM     12  C23 UNL     1      30.861  -7.078 -33.726  0.00  0.00    +0.000 C 
ATOM     13  C24 UNL     1      30.073  -6.096 -33.246  0.00  0.00    +0.000 C 
ATOM     14  C27 UNL     1      31.204  -7.108 -35.195  0.00  0.00    +0.000 C 
BRANCH  13  15
ATOM     15  C25 UNL     1      29.545  -6.039 -31.868  0.00  0.00    +0.000 C 
ATOM     16  C26 UNL     1      28.321  -6.479 -31.586  0.00  0.00    +0.000 C 
ENDBRANCH  13  15
ENDBRANCH   5   7
BRANCH   4  17
ATOM     17  O3  UNL     1      30.441  -8.584 -38.606  0.00  0.00    +0.000 OA
ATOM     18  H16 UNL     1      30.416  -8.847 -39.582  0.00  0.00    +0.000 HD
ENDBRANCH   4  17
BRANCH   1  19
ATOM     19  C3  UNL     1      26.489 -10.037 -34.733  0.00  0.00    +0.000 C 
BRANCH  19  21
ATOM     20  C1  UNL     1      25.672  -7.774 -34.133  0.00  0.00    +0.000 C 
ATOM     21  C2  UNL     1      26.274  -8.908 -33.766  0.00  0.00    +0.000 C 
ENDBRANCH  19  21
ENDBRANCH   1  19
BRANCH   3  22
ATOM     22  C7  UNL     1      27.753  -9.313 -39.537  0.00  0.00    +0.000 C 
BRANCH  22  23
ATOM     23  S1  UNL     1      27.713 -10.989 -40.274  0.00  0.00    +0.000 S 
BRANCH  23  24
ATOM     24  C8  UNL     1      29.207 -10.756 -41.233  0.00  0.00    +0.000 A 
ATOM     25  N1  UNL     1      29.875  -9.592 -41.330  0.00  0.00    +0.000 NA
ATOM     26  N2  UNL     1      30.952  -9.848 -42.056  0.00  0.00    +0.000 NA
ATOM     27  C9  UNL     1      30.899 -11.159 -42.368  0.00  0.00    +0.000 A 
ATOM     28  O2  UNL     1      29.820 -11.717 -41.876  0.00  0.00    +0.000 OA
BRANCH  27  29
ATOM     29  C10 UNL     1      31.937 -11.888 -43.120  0.00  0.00    +0.000 A 
ATOM     30  C11 UNL     1      33.242 -11.971 -42.607  0.00  0.00    +0.000 A 
ATOM     31  C12 UNL     1      34.240 -12.629 -43.326  0.00  0.00    +0.000 A 
ATOM     32  C13 UNL     1      33.948 -13.211 -44.562  0.00  0.00    +0.000 A 
ATOM     33  C14 UNL     1      32.655 -13.139 -45.091  0.00  0.00    +0.000 A 
ATOM     34  C16 UNL     1      31.648 -12.472 -44.365  0.00  0.00    +0.000 A 
BRANCH  33  35
ATOM     35  O1  UNL     1      32.412 -13.738 -46.337  0.00  0.00    +0.000 OA
ATOM     36  C15 UNL     1      33.004 -14.957 -46.774  0.00  0.00    +0.000 C 
ENDBRANCH  33  35
ENDBRANCH  27  29
ENDBRANCH  23  24
ENDBRANCH  22  23
ENDBRANCH   3  22
TORSDOF 10
ENDMDL
MODEL 7
REMARK VINA RESULT:    -5.864      4.101      9.604
REMARK INTER + INTRA:         -11.207
REMARK INTER:                  -9.569
REMARK INTRA:                  -1.638
REMARK UNBOUND:                -2.086
REMARK  Name = resultss/4CJN/ligands/lig_253_t2.pdb
REMARK  11 active torsions:
REMARK  status: ('A' for Active; 'I' for Inactive)
REMARK    1  A    between atoms: C2_2  and  C3_3
REMARK    2  A    between atoms: C3_3  and  C4_4
REMARK    3  A    between atoms: C6_6  and  C7_7
REMARK    4  A    between atoms: C7_7  and  S1_8
REMARK    5  A    between atoms: S1_8  and  C8_9
REMARK    6  A    between atoms: C9_12  and  C10_13
REMARK    7  A    between atoms: C14_17  and  O1_18
REMARK    8  A    between atoms: O1_18  and  C15_19
REMARK    9  A    between atoms: C17_22  and  O3_23
REMARK   10  A    between atoms: C18_24  and  C19_25
REMARK   11  A    between atoms: C24_31  and  C25_32
REMARK                            x       y       z     vdW  Elec       q    Type
REMARK                         _______ _______ _______ _____ _____    ______ ____
ROOT
ATOM      1  C4  UNL     1      27.739  -9.442 -38.395  0.00  0.00    +0.000 A 
ATOM      2  C5  UNL     1      26.867  -8.975 -39.382  0.00  0.00    +0.000 A 
ATOM      3  C6  UNL     1      25.567  -8.555 -39.057  0.00  0.00    +0.000 A 
ATOM      4  C17 UNL     1      25.148  -8.575 -37.703  0.00  0.00    +0.000 A 
ATOM      5  C18 UNL     1      26.038  -9.022 -36.694  0.00  0.00    +0.000 A 
ATOM      6  C28 UNL     1      27.329  -9.442 -37.058  0.00  0.00    +0.000 A 
ENDROOT
BRANCH   5   7
ATOM      7  C19 UNL     1      25.666  -9.031 -35.214  0.00  0.00    +0.000 C 
ATOM      8  C20 UNL     1      25.576  -7.633 -34.640  0.00  0.00    +0.000 C 
ATOM      9  C21 UNL     1      26.463  -7.147 -33.764  0.00  0.00    +0.000 C 
ATOM     10  C22 UNL     1      27.616  -7.943 -33.321  0.00  0.00    +0.000 C 
ATOM     11  O4  UNL     1      28.383  -7.475 -32.438  0.00  0.00    +0.000 OA
ATOM     12  C23 UNL     1      27.812  -9.301 -33.882  0.00  0.00    +0.000 C 
ATOM     13  C24 UNL     1      28.991  -9.954 -33.906  0.00  0.00    +0.000 C 
ATOM     14  C27 UNL     1      26.570  -9.987 -34.396  0.00  0.00    +0.000 C 
BRANCH  13  15
ATOM     15  C25 UNL     1      30.296  -9.346 -33.574  0.00  0.00    +0.000 C 
ATOM     16  C26 UNL     1      31.073  -9.871 -32.631  0.00  0.00    +0.000 C 
ENDBRANCH  13  15
ENDBRANCH   5   7
BRANCH   4  17
ATOM     17  O3  UNL     1      23.860  -8.169 -37.347  0.00  0.00    +0.000 OA
ATOM     18  H16 UNL     1      23.038  -8.341 -37.910  0.00  0.00    +0.000 HD
ENDBRANCH   4  17
BRANCH   1  19
ATOM     19  C3  UNL     1      29.119  -9.921 -38.764  0.00  0.00    +0.000 C 
BRANCH  19  21
ATOM     20  C1  UNL     1      30.931  -9.066 -37.302  0.00  0.00    +0.000 C 
ATOM     21  C2  UNL     1      30.000  -9.991 -37.549  0.00  0.00    +0.000 C 
ENDBRANCH  19  21
ENDBRANCH   1  19
BRANCH   3  22
ATOM     22  C7  UNL     1      24.624  -8.191 -40.182  0.00  0.00    +0.000 C 
BRANCH  22  23
ATOM     23  S1  UNL     1      24.590  -6.380 -40.458  0.00  0.00    +0.000 S 
BRANCH  23  24
ATOM     24  C8  UNL     1      25.445  -6.463 -42.029  0.00  0.00    +0.000 A 
ATOM     25  N1  UNL     1      26.779  -6.576 -42.165  0.00  0.00    +0.000 NA
ATOM     26  N2  UNL     1      27.006  -6.682 -43.465  0.00  0.00    +0.000 NA
ATOM     27  C9  UNL     1      25.800  -6.632 -44.068  0.00  0.00    +0.000 A 
ATOM     28  O2  UNL     1      24.840  -6.483 -43.190  0.00  0.00    +0.000 OA
BRANCH  27  29
ATOM     29  C10 UNL     1      25.580  -6.777 -45.519  0.00  0.00    +0.000 A 
ATOM     30  C11 UNL     1      26.591  -6.407 -46.420  0.00  0.00    +0.000 A 
ATOM     31  C12 UNL     1      26.380  -6.508 -47.796  0.00  0.00    +0.000 A 
ATOM     32  C13 UNL     1      25.160  -6.979 -48.286  0.00  0.00    +0.000 A 
ATOM     33  C14 UNL     1      24.139  -7.352 -47.405  0.00  0.00    +0.000 A 
ATOM     34  C16 UNL     1      24.352  -7.248 -46.016  0.00  0.00    +0.000 A 
BRANCH  33  35
ATOM     35  O1  UNL     1      22.931  -7.818 -47.948  0.00  0.00    +0.000 OA
ATOM     36  C15 UNL     1      21.674  -7.168 -47.791  0.00  0.00    +0.000 C 
ENDBRANCH  33  35
ENDBRANCH  27  29
ENDBRANCH  23  24
ENDBRANCH  22  23
ENDBRANCH   3  22
TORSDOF 10
ENDMDL
MODEL 8
REMARK VINA RESULT:    -5.757      3.270      8.643
REMARK INTER + INTRA:         -11.040
REMARK INTER:                  -8.415
REMARK INTRA:                  -2.625
REMARK UNBOUND:                -2.086
REMARK  Name = resultss/4CJN/ligands/lig_253_t2.pdb
REMARK  11 active torsions:
REMARK  status: ('A' for Active; 'I' for Inactive)
REMARK    1  A    between atoms: C2_2  and  C3_3
REMARK    2  A    between atoms: C3_3  and  C4_4
REMARK    3  A    between atoms: C6_6  and  C7_7
REMARK    4  A    between atoms: C7_7  and  S1_8
REMARK    5  A    between atoms: S1_8  and  C8_9
REMARK    6  A    between atoms: C9_12  and  C10_13
REMARK    7  A    between atoms: C14_17  and  O1_18
REMARK    8  A    between atoms: O1_18  and  C15_19
REMARK    9  A    between atoms: C17_22  and  O3_23
REMARK   10  A    between atoms: C18_24  and  C19_25
REMARK   11  A    between atoms: C24_31  and  C25_32
REMARK                            x       y       z     vdW  Elec       q    Type
REMARK                         _______ _______ _______ _____ _____    ______ ____
ROOT
ATOM      1  C4  UNL     1      28.121  -9.472 -36.423  0.00  0.00    +0.000 A 
ATOM      2  C5  UNL     1      27.240  -9.359 -37.502  0.00  0.00    +0.000 A 
ATOM      3  C6  UNL     1      27.669  -8.838 -38.733  0.00  0.00    +0.000 A 
ATOM      4  C17 UNL     1      29.024  -8.453 -38.891  0.00  0.00    +0.000 A 
ATOM      5  C18 UNL     1      29.929  -8.592 -37.809  0.00  0.00    +0.000 A 
ATOM      6  C28 UNL     1      29.462  -9.111 -36.588  0.00  0.00    +0.000 A 
ENDROOT
BRANCH   5   7
ATOM      7  C19 UNL     1      31.409  -8.237 -37.921  0.00  0.00    +0.000 C 
ATOM      8  C20 UNL     1      32.239  -9.402 -38.418  0.00  0.00    +0.000 C 
ATOM      9  C21 UNL     1      33.107 -10.060 -37.641  0.00  0.00    +0.000 C 
ATOM     10  C22 UNL     1      33.289  -9.707 -36.226  0.00  0.00    +0.000 C 
ATOM     11  O4  UNL     1      34.171 -10.303 -35.553  0.00  0.00    +0.000 OA
ATOM     12  C23 UNL     1      32.470  -8.617 -35.645  0.00  0.00    +0.000 C 
ATOM     13  C24 UNL     1      32.219  -8.469 -34.329  0.00  0.00    +0.000 C 
ATOM     14  C27 UNL     1      31.951  -7.591 -36.622  0.00  0.00    +0.000 C 
BRANCH  13  15
ATOM     15  C25 UNL     1      32.540  -9.473 -33.294  0.00  0.00    +0.000 C 
ATOM     16  C26 UNL     1      31.874  -9.504 -32.143  0.00  0.00    +0.000 C 
ENDBRANCH  13  15
ENDBRANCH   5   7
BRANCH   4  17
ATOM     17  O3  UNL     1      29.482  -7.926 -40.100  0.00  0.00    +0.000 OA
ATOM     18  H16 UNL     1      29.429  -8.413 -40.985  0.00  0.00    +0.000 HD
ENDBRANCH   4  17
BRANCH   1  19
ATOM     19  C3  UNL     1      27.638 -10.003 -35.099  0.00  0.00    +0.000 C 
BRANCH  19  21
ATOM     20  C1  UNL     1      28.384  -8.578 -33.210  0.00  0.00    +0.000 C 
ATOM     21  C2  UNL     1      28.592  -9.637 -33.997  0.00  0.00    +0.000 C 
ENDBRANCH  19  21
ENDBRANCH   1  19
BRANCH   3  22
ATOM     22  C7  UNL     1      26.641  -8.610 -39.818  0.00  0.00    +0.000 C 
BRANCH  22  23
ATOM     23  S1  UNL     1      26.325 -10.146 -40.765  0.00  0.00    +0.000 S 
BRANCH  23  24
ATOM     24  C8  UNL     1      27.815 -10.009 -41.750  0.00  0.00    +0.000 A 
ATOM     25  N1  UNL     1      28.043  -9.040 -42.654  0.00  0.00    +0.000 NA
ATOM     26  N2  UNL     1      29.271  -9.244 -43.106  0.00  0.00    +0.000 NA
ATOM     27  C9  UNL     1      29.742 -10.328 -42.456  0.00  0.00    +0.000 A 
ATOM     28  O2  UNL     1      28.844 -10.809 -41.633  0.00  0.00    +0.000 OA
BRANCH  27  29
ATOM     29  C10 UNL     1      31.103 -10.875 -42.608  0.00  0.00    +0.000 A 
ATOM     30  C11 UNL     1      32.170 -10.300 -41.899  0.00  0.00    +0.000 A 
ATOM     31  C12 UNL     1      33.467 -10.787 -42.062  0.00  0.00    +0.000 A 
ATOM     32  C13 UNL     1      33.712 -11.853 -42.932  0.00  0.00    +0.000 A 
ATOM     33  C14 UNL     1      32.663 -12.440 -43.648  0.00  0.00    +0.000 A 
ATOM     34  C16 UNL     1      31.354 -11.945 -43.484  0.00  0.00    +0.000 A 
BRANCH  33  35
ATOM     35  O1  UNL     1      32.962 -13.506 -44.509  0.00  0.00    +0.000 OA
ATOM     36  C15 UNL     1      32.929 -13.427 -45.930  0.00  0.00    +0.000 C 
ENDBRANCH  33  35
ENDBRANCH  27  29
ENDBRANCH  23  24
ENDBRANCH  22  23
ENDBRANCH   3  22
TORSDOF 10
ENDMDL
