MODEL 1
REMARK VINA RESULT:    -4.677      0.000      0.000
REMARK INTER + INTRA:         -10.643
REMARK INTER:                  -8.095
REMARK INTRA:                  -2.548
REMARK UNBOUND:                -2.548
REMARK  Name = resultss/4CJN/ligands/lig_120_t0.pdb
REMARK  16 active torsions:
REMARK  status: ('A' for Active; 'I' for Inactive)
REMARK    1  A    between atoms: S1_2  and  O4_5
REMARK    2  A    between atoms: O4_5  and  C1_6
REMARK    3  A    between atoms: C1_6  and  C2_7
REMARK    4  A    between atoms: C1_6  and  C5_13
REMARK    5  A    between atoms: C2_7  and  O5_8
REMARK    6  A    between atoms: C2_7  and  C3_9
REMARK    7  A    between atoms: C3_9  and  O6_10
REMARK    8  A    between atoms: C3_9  and  C4_11
REMARK    9  A    between atoms: C4_11  and  O7_12
REMARK   10  A    between atoms: C5_13  and  O8_14
REMARK   11  A    between atoms: C5_13  and  C6_15
REMARK   12  A    between atoms: C6_15  and  S2_16
REMARK   13  A    between atoms: C8_18  and  O9_19
REMARK   14  A    between atoms: C9_20  and  O10_21
REMARK   15  A    between atoms: C10_22  and  C11_23
REMARK   16  A    between atoms: C11_23  and  O11_24
REMARK                            x       y       z     vdW  Elec       q    Type
REMARK                         _______ _______ _______ _____ _____    ______ ____
ROOT
ATOM      1  C5  UNL     1      24.763  -7.558 -37.871  0.00  0.00    +0.000 C 
ENDROOT
BRANCH   1   2
ATOM      2  O8  UNL     1      23.711  -6.968 -38.594  0.00  0.00    +0.000 OA
ATOM      3  H10 UNL     1      22.870  -7.147 -38.096  0.00  0.00    +0.000 HD
ENDBRANCH   1   2
BRANCH   1   4
ATOM      4  C6  UNL     1      25.509  -6.493 -37.044  0.00  0.00    +0.000 C 
BRANCH   4   5
ATOM      5  S2  UNL     1      25.607  -6.876 -35.295  0.00  0.00    +0.000 S 
ATOM      6  C7  UNL     1      27.135  -7.543 -34.707  0.00  0.00    +0.000 C 
ATOM      7  C8  UNL     1      26.736  -8.606 -33.680  0.00  0.00    +0.000 C 
ATOM      8  C9  UNL     1      25.416  -9.257 -34.146  0.00  0.00    +0.000 C 
ATOM      9  C10 UNL     1      24.509  -8.167 -34.770  0.00  0.00    +0.000 C 
BRANCH   8  10
ATOM     10  O10 UNL     1      25.711 -10.238 -35.108  0.00  0.00    +0.000 OA
ATOM     11  H18 UNL     1      25.351 -11.096 -34.760  0.00  0.00    +0.000 HD
ENDBRANCH   8  10
BRANCH   7  12
ATOM     12  O9  UNL     1      26.542  -8.010 -32.423  0.00  0.00    +0.000 OA
ATOM     13  H16 UNL     1      26.360  -7.047 -32.587  0.00  0.00    +0.000 HD
ENDBRANCH   7  12
BRANCH   9  14
ATOM     14  C11 UNL     1      23.493  -7.603 -33.771  0.00  0.00    +0.000 C 
BRANCH  14  15
ATOM     15  O11 UNL     1      23.571  -8.310 -32.564  0.00  0.00    +0.000 OA
ATOM     16  H22 UNL     1      22.797  -8.010 -32.019  0.00  0.00    +0.000 HD
ENDBRANCH  14  15
ENDBRANCH   9  14
ENDBRANCH   4   5
ENDBRANCH   1   4
BRANCH   1  17
ATOM     17  C1  UNL     1      25.719  -8.337 -38.821  0.00  0.00    +0.000 C 
BRANCH  17  18
ATOM     18  C2  UNL     1      24.992  -8.668 -40.160  0.00  0.00    +0.000 C 
BRANCH  18  19
ATOM     19  O5  UNL     1      23.858  -9.466 -39.916  0.00  0.00    +0.000 OA
ATOM     20  H3  UNL     1      24.170 -10.395 -39.759  0.00  0.00    +0.000 HD
ENDBRANCH  18  19
BRANCH  18  21
ATOM     21  C3  UNL     1      25.908  -9.339 -41.221  0.00  0.00    +0.000 C 
BRANCH  21  22
ATOM     22  O6  UNL     1      26.130 -10.683 -40.873  0.00  0.00    +0.000 OA
ATOM     23  H5  UNL     1      26.868 -11.019 -41.447  0.00  0.00    +0.000 HD
ENDBRANCH  21  22
BRANCH  21  24
ATOM     24  C4  UNL     1      25.307  -9.302 -42.639  0.00  0.00    +0.000 C 
BRANCH  24  25
ATOM     25  O7  UNL     1      24.099 -10.015 -42.700  0.00  0.00    +0.000 OA
ATOM     26  H8  UNL     1      24.326 -10.974 -42.591  0.00  0.00    +0.000 HD
ENDBRANCH  24  25
ENDBRANCH  21  24
ENDBRANCH  18  21
ENDBRANCH  17  18
BRANCH  17  27
ATOM     27  O4  UNL     1      26.105  -9.547 -38.190  0.00  0.00    +0.000 OA
BRANCH  27  29
ATOM     28  O1  UNL     1      28.379  -8.239 -37.840  0.00  0.00    +0.000 OA
ATOM     29  S1  UNL     1      27.789  -9.616 -37.950  0.00  0.00    +0.000 S 
ATOM     30  O2  UNL     1      28.057 -10.357 -36.672  0.00  0.00    +0.000 OA
ATOM     31  O3  UNL     1      28.529 -10.441 -39.213  0.00  0.00    +0.000 OA
ENDBRANCH  27  29
ENDBRANCH  17  27
ENDBRANCH   1  17
TORSDOF 16
ENDMDL
MODEL 2
REMARK VINA RESULT:    -4.548      1.812      3.114
REMARK INTER + INTRA:         -10.420
REMARK INTER:                  -8.165
REMARK INTRA:                  -2.255
REMARK UNBOUND:                -2.548
REMARK  Name = resultss/4CJN/ligands/lig_120_t0.pdb
REMARK  16 active torsions:
REMARK  status: ('A' for Active; 'I' for Inactive)
REMARK    1  A    between atoms: S1_2  and  O4_5
REMARK    2  A    between atoms: O4_5  and  C1_6
REMARK    3  A    between atoms: C1_6  and  C2_7
REMARK    4  A    between atoms: C1_6  and  C5_13
REMARK    5  A    between atoms: C2_7  and  O5_8
REMARK    6  A    between atoms: C2_7  and  C3_9
REMARK    7  A    between atoms: C3_9  and  O6_10
REMARK    8  A    between atoms: C3_9  and  C4_11
REMARK    9  A    between atoms: C4_11  and  O7_12
REMARK   10  A    between atoms: C5_13  and  O8_14
REMARK   11  A    between atoms: C5_13  and  C6_15
REMARK   12  A    between atoms: C6_15  and  S2_16
REMARK   13  A    between atoms: C8_18  and  O9_19
REMARK   14  A    between atoms: C9_20  and  O10_21
REMARK   15  A    between atoms: C10_22  and  C11_23
REMARK   16  A    between atoms: C11_23  and  O11_24
REMARK                            x       y       z     vdW  Elec       q    Type
REMARK                         _______ _______ _______ _____ _____    ______ ____
ROOT
ATOM      1  C5  UNL     1      25.374  -8.660 -37.771  0.00  0.00    +0.000 C 
ENDROOT
BRANCH   1   2
ATOM      2  O8  UNL     1      24.142  -8.614 -38.446  0.00  0.00    +0.000 OA
ATOM      3  H10 UNL     1      24.145  -9.341 -39.123  0.00  0.00    +0.000 HD
ENDBRANCH   1   2
BRANCH   1   4
ATOM      4  C6  UNL     1      25.709  -7.280 -37.171  0.00  0.00    +0.000 C 
BRANCH   4   5
ATOM      5  S2  UNL     1      25.729  -7.259 -35.378  0.00  0.00    +0.000 S 
ATOM      6  C7  UNL     1      27.178  -7.889 -34.587  0.00  0.00    +0.000 C 
ATOM      7  C8  UNL     1      26.662  -8.653 -33.365  0.00  0.00    +0.000 C 
ATOM      8  C9  UNL     1      25.304  -9.290 -33.730  0.00  0.00    +0.000 C 
ATOM      9  C10 UNL     1      24.511  -8.305 -34.625  0.00  0.00    +0.000 C 
BRANCH   8  10
ATOM     10  O10 UNL     1      25.539 -10.485 -34.430  0.00  0.00    +0.000 OA
ATOM     11  H18 UNL     1      24.769 -11.083 -34.241  0.00  0.00    +0.000 HD
ENDBRANCH   8  10
BRANCH   7  12
ATOM     12  O9  UNL     1      26.488  -7.772 -32.285  0.00  0.00    +0.000 OA
ATOM     13  H16 UNL     1      25.852  -8.208 -31.659  0.00  0.00    +0.000 HD
ENDBRANCH   7  12
BRANCH   9  14
ATOM     14  C11 UNL     1      23.522  -7.450 -33.826  0.00  0.00    +0.000 C 
BRANCH  14  15
ATOM     15  O11 UNL     1      23.432  -7.928 -32.512  0.00  0.00    +0.000 OA
ATOM     16  H22 UNL     1      23.750  -8.868 -32.539  0.00  0.00    +0.000 HD
ENDBRANCH  14  15
ENDBRANCH   9  14
ENDBRANCH   4   5
ENDBRANCH   1   4
BRANCH   1  17
ATOM     17  C1  UNL     1      26.502  -9.179 -38.711  0.00  0.00    +0.000 C 
BRANCH  17  18
ATOM     18  C2  UNL     1      27.889  -8.668 -38.217  0.00  0.00    +0.000 C 
BRANCH  18  19
ATOM     19  O5  UNL     1      28.515  -7.907 -39.223  0.00  0.00    +0.000 OA
ATOM     20  H3  UNL     1      28.073  -7.019 -39.250  0.00  0.00    +0.000 HD
ENDBRANCH  18  19
BRANCH  18  21
ATOM     21  C3  UNL     1      28.835  -9.799 -37.725  0.00  0.00    +0.000 C 
BRANCH  21  22
ATOM     22  O6  UNL     1      28.177 -11.039 -37.812  0.00  0.00    +0.000 OA
ATOM     23  H5  UNL     1      28.220 -11.331 -38.761  0.00  0.00    +0.000 HD
ENDBRANCH  21  22
BRANCH  21  24
ATOM     24  C4  UNL     1      30.138  -9.888 -38.543  0.00  0.00    +0.000 C 
BRANCH  24  25
ATOM     25  O7  UNL     1      29.907 -10.449 -39.809  0.00  0.00    +0.000 OA
ATOM     26  H8  UNL     1      30.546 -11.202 -39.910  0.00  0.00    +0.000 HD
ENDBRANCH  24  25
ENDBRANCH  21  24
ENDBRANCH  18  21
ENDBRANCH  17  18
BRANCH  17  27
ATOM     27  O4  UNL     1      26.266  -8.693 -40.022  0.00  0.00    +0.000 OA
BRANCH  27  29
ATOM     28  O1  UNL     1      27.904  -9.442 -41.961  0.00  0.00    +0.000 OA
ATOM     29  S1  UNL     1      26.674  -9.851 -41.201  0.00  0.00    +0.000 S 
ATOM     30  O2  UNL     1      26.948 -11.156 -40.511  0.00  0.00    +0.000 OA
ATOM     31  O3  UNL     1      25.401 -10.069 -42.275  0.00  0.00    +0.000 OA
ENDBRANCH  27  29
ENDBRANCH  17  27
ENDBRANCH   1  17
TORSDOF 16
ENDMDL
MODEL 3
REMARK VINA RESULT:    -4.510      1.853      6.607
REMARK INTER + INTRA:         -10.354
REMARK INTER:                  -7.518
REMARK INTRA:                  -2.836
REMARK UNBOUND:                -2.548
REMARK  Name = resultss/4CJN/ligands/lig_120_t0.pdb
REMARK  16 active torsions:
REMARK  status: ('A' for Active; 'I' for Inactive)
REMARK    1  A    between atoms: S1_2  and  O4_5
REMARK    2  A    between atoms: O4_5  and  C1_6
REMARK    3  A    between atoms: C1_6  and  C2_7
REMARK    4  A    between atoms: C1_6  and  C5_13
REMARK    5  A    between atoms: C2_7  and  O5_8
REMARK    6  A    between atoms: C2_7  and  C3_9
REMARK    7  A    between atoms: C3_9  and  O6_10
REMARK    8  A    between atoms: C3_9  and  C4_11
REMARK    9  A    between atoms: C4_11  and  O7_12
REMARK   10  A    between atoms: C5_13  and  O8_14
REMARK   11  A    between atoms: C5_13  and  C6_15
REMARK   12  A    between atoms: C6_15  and  S2_16
REMARK   13  A    between atoms: C8_18  and  O9_19
REMARK   14  A    between atoms: C9_20  and  O10_21
REMARK   15  A    between atoms: C10_22  and  C11_23
REMARK   16  A    between atoms: C11_23  and  O11_24
REMARK                            x       y       z     vdW  Elec       q    Type
REMARK                         _______ _______ _______ _____ _____    ______ ____
ROOT
ATOM      1  C5  UNL     1      27.033  -9.451 -36.790  0.00  0.00    +0.000 C 
ENDROOT
BRANCH   1   2
ATOM      2  O8  UNL     1      27.903 -10.266 -36.044  0.00  0.00    +0.000 OA
ATOM      3  H10 UNL     1      28.676 -10.490 -36.627  0.00  0.00    +0.000 HD
ENDBRANCH   1   2
BRANCH   1   4
ATOM      4  C6  UNL     1      27.834  -8.546 -37.747  0.00  0.00    +0.000 C 
BRANCH   4   5
ATOM      5  S2  UNL     1      27.703  -9.023 -39.470  0.00  0.00    +0.000 S 
ATOM      6  C7  UNL     1      26.980  -7.847 -40.573  0.00  0.00    +0.000 C 
ATOM      7  C8  UNL     1      26.125  -8.677 -41.534  0.00  0.00    +0.000 C 
ATOM      8  C9  UNL     1      25.549  -9.878 -40.754  0.00  0.00    +0.000 C 
ATOM      9  C10 UNL     1      26.621 -10.397 -39.764  0.00  0.00    +0.000 C 
BRANCH   8  10
ATOM     10  O10 UNL     1      24.412  -9.454 -40.045  0.00  0.00    +0.000 OA
ATOM     11  H18 UNL     1      23.623  -9.809 -40.531  0.00  0.00    +0.000 HD
ENDBRANCH   8  10
BRANCH   7  12
ATOM     12  O9  UNL     1      26.915  -9.147 -42.596  0.00  0.00    +0.000 OA
ATOM     13  H16 UNL     1      26.449  -9.941 -42.970  0.00  0.00    +0.000 HD
ENDBRANCH   7  12
BRANCH   9  14
ATOM     14  C11 UNL     1      27.425 -11.573 -40.331  0.00  0.00    +0.000 C 
BRANCH  14  15
ATOM     15  O11 UNL     1      28.659 -11.118 -40.812  0.00  0.00    +0.000 OA
ATOM     16  H22 UNL     1      28.451 -10.402 -41.467  0.00  0.00    +0.000 HD
ENDBRANCH  14  15
ENDBRANCH   9  14
ENDBRANCH   4   5
ENDBRANCH   1   4
BRANCH   1  17
ATOM     17  C1  UNL     1      26.100  -8.631 -35.852  0.00  0.00    +0.000 C 
BRANCH  17  18
ATOM     18  C2  UNL     1      26.022  -9.307 -34.449  0.00  0.00    +0.000 C 
BRANCH  18  19
ATOM     19  O5  UNL     1      25.453 -10.591 -34.557  0.00  0.00    +0.000 OA
ATOM     20  H3  UNL     1      25.938 -11.077 -35.274  0.00  0.00    +0.000 HD
ENDBRANCH  18  19
BRANCH  18  21
ATOM     21  C3  UNL     1      25.260  -8.464 -33.389  0.00  0.00    +0.000 C 
BRANCH  21  22
ATOM     22  O6  UNL     1      25.130  -7.139 -33.842  0.00  0.00    +0.000 OA
ATOM     23  H5  UNL     1      24.201  -7.030 -34.176  0.00  0.00    +0.000 HD
ENDBRANCH  21  22
BRANCH  21  24
ATOM     24  C4  UNL     1      23.851  -9.010 -33.089  0.00  0.00    +0.000 C 
BRANCH  24  25
ATOM     25  O7  UNL     1      23.016  -8.911 -34.214  0.00  0.00    +0.000 OA
ATOM     26  H8  UNL     1      22.703  -7.971 -34.257  0.00  0.00    +0.000 HD
ENDBRANCH  24  25
ENDBRANCH  21  24
ENDBRANCH  18  21
ENDBRANCH  17  18
BRANCH  17  27
ATOM     27  O4  UNL     1      24.801  -8.588 -36.420  0.00  0.00    +0.000 OA
BRANCH  27  29
ATOM     28  O1  UNL     1      23.138  -6.539 -36.226  0.00  0.00    +0.000 OA
ATOM     29  S1  UNL     1      24.387  -7.012 -36.914  0.00  0.00    +0.000 S 
ATOM     30  O2  UNL     1      25.514  -6.089 -36.552  0.00  0.00    +0.000 OA
ATOM     31  O3  UNL     1      24.163  -6.958 -38.577  0.00  0.00    +0.000 OA
ENDBRANCH  27  29
ENDBRANCH  17  27
ENDBRANCH   1  17
TORSDOF 16
ENDMDL
MODEL 4
REMARK VINA RESULT:    -4.398      1.366      2.120
REMARK INTER + INTRA:         -10.159
REMARK INTER:                  -7.785
REMARK INTRA:                  -2.374
REMARK UNBOUND:                -2.548
REMARK  Name = resultss/4CJN/ligands/lig_120_t0.pdb
REMARK  16 active torsions:
REMARK  status: ('A' for Active; 'I' for Inactive)
REMARK    1  A    between atoms: S1_2  and  O4_5
REMARK    2  A    between atoms: O4_5  and  C1_6
REMARK    3  A    between atoms: C1_6  and  C2_7
REMARK    4  A    between atoms: C1_6  and  C5_13
REMARK    5  A    between atoms: C2_7  and  O5_8
REMARK    6  A    between atoms: C2_7  and  C3_9
REMARK    7  A    between atoms: C3_9  and  O6_10
REMARK    8  A    between atoms: C3_9  and  C4_11
REMARK    9  A    between atoms: C4_11  and  O7_12
REMARK   10  A    between atoms: C5_13  and  O8_14
REMARK   11  A    between atoms: C5_13  and  C6_15
REMARK   12  A    between atoms: C6_15  and  S2_16
REMARK   13  A    between atoms: C8_18  and  O9_19
REMARK   14  A    between atoms: C9_20  and  O10_21
REMARK   15  A    between atoms: C10_22  and  C11_23
REMARK   16  A    between atoms: C11_23  and  O11_24
REMARK                            x       y       z     vdW  Elec       q    Type
REMARK                         _______ _______ _______ _____ _____    ______ ____
ROOT
ATOM      1  C5  UNL     1      26.368  -8.456 -37.987  0.00  0.00    +0.000 C 
ENDROOT
BRANCH   1   2
ATOM      2  O8  UNL     1      26.151  -9.713 -37.394  0.00  0.00    +0.000 OA
ATOM      3  H10 UNL     1      26.364 -10.404 -38.075  0.00  0.00    +0.000 HD
ENDBRANCH   1   2
BRANCH   1   4
ATOM      4  C6  UNL     1      25.433  -7.401 -37.364  0.00  0.00    +0.000 C 
BRANCH   4   5
ATOM      5  S2  UNL     1      25.546  -7.302 -35.577  0.00  0.00    +0.000 S 
ATOM      6  C7  UNL     1      27.064  -7.832 -34.841  0.00  0.00    +0.000 C 
ATOM      7  C8  UNL     1      26.650  -8.565 -33.563  0.00  0.00    +0.000 C 
ATOM      8  C9  UNL     1      25.306  -9.277 -33.827  0.00  0.00    +0.000 C 
ATOM      9  C10 UNL     1      24.421  -8.368 -34.717  0.00  0.00    +0.000 C 
BRANCH   8  10
ATOM     10  O10 UNL     1      25.559 -10.490 -34.490  0.00  0.00    +0.000 OA
ATOM     11  H18 UNL     1      25.204 -11.212 -33.910  0.00  0.00    +0.000 HD
ENDBRANCH   8  10
BRANCH   7  12
ATOM     12  O9  UNL     1      26.491  -7.647 -32.512  0.00  0.00    +0.000 OA
ATOM     13  H16 UNL     1      27.358  -7.615 -32.027  0.00  0.00    +0.000 HD
ENDBRANCH   7  12
BRANCH   9  14
ATOM     14  C11 UNL     1      23.435  -7.525 -33.900  0.00  0.00    +0.000 C 
BRANCH  14  15
ATOM     15  O11 UNL     1      23.495  -7.897 -32.551  0.00  0.00    +0.000 OA
ATOM     16  H22 UNL     1      23.461  -7.052 -32.030  0.00  0.00    +0.000 HD
ENDBRANCH  14  15
ENDBRANCH   9  14
ENDBRANCH   4   5
ENDBRANCH   1   4
BRANCH   1  17
ATOM     17  C1  UNL     1      26.211  -8.538 -39.533  0.00  0.00    +0.000 C 
BRANCH  17  18
ATOM     18  C2  UNL     1      24.724  -8.295 -39.935  0.00  0.00    +0.000 C 
BRANCH  18  19
ATOM     19  O5  UNL     1      23.954  -9.444 -39.674  0.00  0.00    +0.000 OA
ATOM     20  H3  UNL     1      24.137 -10.102 -40.394  0.00  0.00    +0.000 HD
ENDBRANCH  18  19
BRANCH  18  21
ATOM     21  C3  UNL     1      24.539  -7.843 -41.411  0.00  0.00    +0.000 C 
BRANCH  21  22
ATOM     22  O6  UNL     1      25.792  -7.538 -41.973  0.00  0.00    +0.000 OA
ATOM     23  H5  UNL     1      26.459  -8.146 -41.556  0.00  0.00    +0.000 HD
ENDBRANCH  21  22
BRANCH  21  24
ATOM     24  C4  UNL     1      23.867  -8.917 -42.286  0.00  0.00    +0.000 C 
BRANCH  24  25
ATOM     25  O7  UNL     1      24.577 -10.128 -42.244  0.00  0.00    +0.000 OA
ATOM     26  H8  UNL     1      25.383  -9.968 -41.686  0.00  0.00    +0.000 HD
ENDBRANCH  24  25
ENDBRANCH  21  24
ENDBRANCH  18  21
ENDBRANCH  17  18
BRANCH  17  27
ATOM     27  O4  UNL     1      26.604  -9.830 -39.966  0.00  0.00    +0.000 OA
BRANCH  27  29
ATOM     28  O1  UNL     1      28.853 -10.990 -40.742  0.00  0.00    +0.000 OA
ATOM     29  S1  UNL     1      28.003  -9.766 -40.934  0.00  0.00    +0.000 S 
ATOM     30  O2  UNL     1      27.582  -9.694 -42.374  0.00  0.00    +0.000 OA
ATOM     31  O3  UNL     1      28.906  -8.397 -40.570  0.00  0.00    +0.000 OA
ENDBRANCH  27  29
ENDBRANCH  17  27
ENDBRANCH   1  17
TORSDOF 16
ENDMDL
MODEL 5
REMARK VINA RESULT:    -4.232      1.736      2.676
REMARK INTER + INTRA:          -9.872
REMARK INTER:                  -7.196
REMARK INTRA:                  -2.676
REMARK UNBOUND:                -2.548
REMARK  Name = resultss/4CJN/ligands/lig_120_t0.pdb
REMARK  16 active torsions:
REMARK  status: ('A' for Active; 'I' for Inactive)
REMARK    1  A    between atoms: S1_2  and  O4_5
REMARK    2  A    between atoms: O4_5  and  C1_6
REMARK    3  A    between atoms: C1_6  and  C2_7
REMARK    4  A    between atoms: C1_6  and  C5_13
REMARK    5  A    between atoms: C2_7  and  O5_8
REMARK    6  A    between atoms: C2_7  and  C3_9
REMARK    7  A    between atoms: C3_9  and  O6_10
REMARK    8  A    between atoms: C3_9  and  C4_11
REMARK    9  A    between atoms: C4_11  and  O7_12
REMARK   10  A    between atoms: C5_13  and  O8_14
REMARK   11  A    between atoms: C5_13  and  C6_15
REMARK   12  A    between atoms: C6_15  and  S2_16
REMARK   13  A    between atoms: C8_18  and  O9_19
REMARK   14  A    between atoms: C9_20  and  O10_21
REMARK   15  A    between atoms: C10_22  and  C11_23
REMARK   16  A    between atoms: C11_23  and  O11_24
REMARK                            x       y       z     vdW  Elec       q    Type
REMARK                         _______ _______ _______ _____ _____    ______ ____
ROOT
ATOM      1  C5  UNL     1      25.392  -8.879 -38.030  0.00  0.00    +0.000 C 
ENDROOT
BRANCH   1   2
ATOM      2  O8  UNL     1      24.724  -9.079 -39.251  0.00  0.00    +0.000 OA
ATOM      3  H10 UNL     1      23.766  -9.242 -39.043  0.00  0.00    +0.000 HD
ENDBRANCH   1   2
BRANCH   1   4
ATOM      4  C6  UNL     1      25.211  -7.425 -37.551  0.00  0.00    +0.000 C 
BRANCH   4   5
ATOM      5  S2  UNL     1      24.975  -7.274 -35.779  0.00  0.00    +0.000 S 
ATOM      6  C7  UNL     1      26.428  -7.307 -34.773  0.00  0.00    +0.000 C 
ATOM      7  C8  UNL     1      26.034  -8.116 -33.535  0.00  0.00    +0.000 C 
ATOM      8  C9  UNL     1      25.032  -9.206 -33.967  0.00  0.00    +0.000 C 
ATOM      9  C10 UNL     1      24.086  -8.622 -35.046  0.00  0.00    +0.000 C 
BRANCH   8  10
ATOM     10  O10 UNL     1      25.747 -10.293 -34.499  0.00  0.00    +0.000 OA
ATOM     11  H18 UNL     1      25.103 -10.824 -35.036  0.00  0.00    +0.000 HD
ENDBRANCH   8  10
BRANCH   7  12
ATOM     12  O9  UNL     1      25.428  -7.276 -32.585  0.00  0.00    +0.000 OA
ATOM     13  H16 UNL     1      25.063  -7.865 -31.873  0.00  0.00    +0.000 HD
ENDBRANCH   7  12
BRANCH   9  14
ATOM     14  C11 UNL     1      22.767  -8.109 -34.458  0.00  0.00    +0.000 C 
BRANCH  14  15
ATOM     15  O11 UNL     1      22.895  -6.759 -34.110  0.00  0.00    +0.000 OA
ATOM     16  H22 UNL     1      21.993  -6.359 -34.223  0.00  0.00    +0.000 HD
ENDBRANCH  14  15
ENDBRANCH   9  14
ENDBRANCH   4   5
ENDBRANCH   1   4
BRANCH   1  17
ATOM     17  C1  UNL     1      26.893  -9.274 -38.148  0.00  0.00    +0.000 C 
BRANCH  17  18
ATOM     18  C2  UNL     1      27.126 -10.113 -39.442  0.00  0.00    +0.000 C 
BRANCH  18  19
ATOM     19  O5  UNL     1      27.616 -11.391 -39.113  0.00  0.00    +0.000 OA
ATOM     20  H3  UNL     1      28.514 -11.486 -39.526  0.00  0.00    +0.000 HD
ENDBRANCH  18  19
BRANCH  18  21
ATOM     21  C3  UNL     1      28.060  -9.424 -40.476  0.00  0.00    +0.000 C 
BRANCH  21  22
ATOM     22  O6  UNL     1      28.564  -8.228 -39.935  0.00  0.00    +0.000 OA
ATOM     23  H5  UNL     1      29.505  -8.138 -40.242  0.00  0.00    +0.000 HD
ENDBRANCH  21  22
BRANCH  21  24
ATOM     24  C4  UNL     1      29.253 -10.307 -40.887  0.00  0.00    +0.000 C 
BRANCH  24  25
ATOM     25  O7  UNL     1      30.203 -10.393 -39.856  0.00  0.00    +0.000 OA
ATOM     26  H8  UNL     1      29.756 -10.838 -39.090  0.00  0.00    +0.000 HD
ENDBRANCH  24  25
ENDBRANCH  21  24
ENDBRANCH  18  21
ENDBRANCH  17  18
BRANCH  17  27
ATOM     27  O4  UNL     1      27.253 -10.053 -37.019  0.00  0.00    +0.000 OA
BRANCH  27  29
ATOM     28  O1  UNL     1      29.880 -10.364 -37.094  0.00  0.00    +0.000 OA
ATOM     29  S1  UNL     1      28.778  -9.604 -36.411  0.00  0.00    +0.000 S 
ATOM     30  O2  UNL     1      28.978  -8.138 -36.663  0.00  0.00    +0.000 OA
ATOM     31  O3  UNL     1      28.855  -9.879 -34.756  0.00  0.00    +0.000 OA
ENDBRANCH  27  29
ENDBRANCH  17  27
ENDBRANCH   1  17
TORSDOF 16
ENDMDL
MODEL 6
REMARK VINA RESULT:    -4.139      1.865      2.501
REMARK INTER + INTRA:          -9.711
REMARK INTER:                  -7.869
REMARK INTRA:                  -1.842
REMARK UNBOUND:                -2.548
REMARK  Name = resultss/4CJN/ligands/lig_120_t0.pdb
REMARK  16 active torsions:
REMARK  status: ('A' for Active; 'I' for Inactive)
REMARK    1  A    between atoms: S1_2  and  O4_5
REMARK    2  A    between atoms: O4_5  and  C1_6
REMARK    3  A    between atoms: C1_6  and  C2_7
REMARK    4  A    between atoms: C1_6  and  C5_13
REMARK    5  A    between atoms: C2_7  and  O5_8
REMARK    6  A    between atoms: C2_7  and  C3_9
REMARK    7  A    between atoms: C3_9  and  O6_10
REMARK    8  A    between atoms: C3_9  and  C4_11
REMARK    9  A    between atoms: C4_11  and  O7_12
REMARK   10  A    between atoms: C5_13  and  O8_14
REMARK   11  A    between atoms: C5_13  and  C6_15
REMARK   12  A    between atoms: C6_15  and  S2_16
REMARK   13  A    between atoms: C8_18  and  O9_19
REMARK   14  A    between atoms: C9_20  and  O10_21
REMARK   15  A    between atoms: C10_22  and  C11_23
REMARK   16  A    between atoms: C11_23  and  O11_24
REMARK                            x       y       z     vdW  Elec       q    Type
REMARK                         _______ _______ _______ _____ _____    ______ ____
ROOT
ATOM      1  C5  UNL     1      25.794  -8.903 -38.470  0.00  0.00    +0.000 C 
ENDROOT
BRANCH   1   2
ATOM      2  O8  UNL     1      24.396  -8.821 -38.598  0.00  0.00    +0.000 OA
ATOM      3  H10 UNL     1      24.088  -9.653 -39.047  0.00  0.00    +0.000 HD
ENDBRANCH   1   2
BRANCH   1   4
ATOM      4  C6  UNL     1      26.342  -7.652 -37.757  0.00  0.00    +0.000 C 
BRANCH   4   5
ATOM      5  S2  UNL     1      27.240  -8.018 -36.248  0.00  0.00    +0.000 S 
ATOM      6  C7  UNL     1      28.092  -9.565 -36.179  0.00  0.00    +0.000 C 
ATOM      7  C8  UNL     1      27.891 -10.065 -34.747  0.00  0.00    +0.000 C 
ATOM      8  C9  UNL     1      26.495  -9.613 -34.267  0.00  0.00    +0.000 C 
ATOM      9  C10 UNL     1      26.211  -8.192 -34.813  0.00  0.00    +0.000 C 
BRANCH   8  10
ATOM     10  O10 UNL     1      25.535 -10.513 -34.760  0.00  0.00    +0.000 OA
ATOM     11  H18 UNL     1      25.946 -10.972 -35.538  0.00  0.00    +0.000 HD
ENDBRANCH   8  10
BRANCH   7  12
ATOM     12  O9  UNL     1      28.872  -9.518 -33.904  0.00  0.00    +0.000 OA
ATOM     13  H16 UNL     1      29.724  -9.520 -34.417  0.00  0.00    +0.000 HD
ENDBRANCH   7  12
BRANCH   9  14
ATOM     14  C11 UNL     1      26.551  -7.093 -33.800  0.00  0.00    +0.000 C 
BRANCH  14  15
ATOM     15  O11 UNL     1      27.867  -6.656 -33.996  0.00  0.00    +0.000 OA
ATOM     16  H22 UNL     1      27.869  -5.685 -33.787  0.00  0.00    +0.000 HD
ENDBRANCH  14  15
ENDBRANCH   9  14
ENDBRANCH   4   5
ENDBRANCH   1   4
BRANCH   1  17
ATOM     17  C1  UNL     1      26.465  -9.127 -39.857  0.00  0.00    +0.000 C 
BRANCH  17  18
ATOM     18  C2  UNL     1      25.385  -9.478 -40.925  0.00  0.00    +0.000 C 
BRANCH  18  19
ATOM     19  O5  UNL     1      25.244 -10.875 -41.036  0.00  0.00    +0.000 OA
ATOM     20  H3  UNL     1      24.813 -11.067 -41.909  0.00  0.00    +0.000 HD
ENDBRANCH  18  19
BRANCH  18  21
ATOM     21  C3  UNL     1      25.654  -8.849 -42.320  0.00  0.00    +0.000 C 
BRANCH  21  22
ATOM     22  O6  UNL     1      26.680  -9.559 -42.970  0.00  0.00    +0.000 OA
ATOM     23  H5  UNL     1      26.298 -10.428 -43.264  0.00  0.00    +0.000 HD
ENDBRANCH  21  22
BRANCH  21  24
ATOM     24  C4  UNL     1      24.412  -8.858 -43.231  0.00  0.00    +0.000 C 
BRANCH  24  25
ATOM     25  O7  UNL     1      23.533  -9.896 -42.884  0.00  0.00    +0.000 OA
ATOM     26  H8  UNL     1      23.293 -10.362 -43.727  0.00  0.00    +0.000 HD
ENDBRANCH  24  25
ENDBRANCH  21  24
ENDBRANCH  18  21
ENDBRANCH  17  18
BRANCH  17  27
ATOM     27  O4  UNL     1      27.384 -10.203 -39.754  0.00  0.00    +0.000 OA
BRANCH  27  29
ATOM     28  O1  UNL     1      29.234 -10.736 -41.570  0.00  0.00    +0.000 OA
ATOM     29  S1  UNL     1      28.890  -9.806 -40.440  0.00  0.00    +0.000 S 
ATOM     30  O2  UNL     1      28.814  -8.406 -40.976  0.00  0.00    +0.000 OA
ATOM     31  O3  UNL     1      30.100  -9.871 -39.277  0.00  0.00    +0.000 OA
ENDBRANCH  27  29
ENDBRANCH  17  27
ENDBRANCH   1  17
TORSDOF 16
ENDMDL
MODEL 7
REMARK VINA RESULT:    -4.123      2.674      5.846
REMARK INTER + INTRA:          -9.683
REMARK INTER:                  -8.221
REMARK INTRA:                  -1.462
REMARK UNBOUND:                -2.548
REMARK  Name = resultss/4CJN/ligands/lig_120_t0.pdb
REMARK  16 active torsions:
REMARK  status: ('A' for Active; 'I' for Inactive)
REMARK    1  A    between atoms: S1_2  and  O4_5
REMARK    2  A    between atoms: O4_5  and  C1_6
REMARK    3  A    between atoms: C1_6  and  C2_7
REMARK    4  A    between atoms: C1_6  and  C5_13
REMARK    5  A    between atoms: C2_7  and  O5_8
REMARK    6  A    between atoms: C2_7  and  C3_9
REMARK    7  A    between atoms: C3_9  and  O6_10
REMARK    8  A    between atoms: C3_9  and  C4_11
REMARK    9  A    between atoms: C4_11  and  O7_12
REMARK   10  A    between atoms: C5_13  and  O8_14
REMARK   11  A    between atoms: C5_13  and  C6_15
REMARK   12  A    between atoms: C6_15  and  S2_16
REMARK   13  A    between atoms: C8_18  and  O9_19
REMARK   14  A    between atoms: C9_20  and  O10_21
REMARK   15  A    between atoms: C10_22  and  C11_23
REMARK   16  A    between atoms: C11_23  and  O11_24
REMARK                            x       y       z     vdW  Elec       q    Type
REMARK                         _______ _______ _______ _____ _____    ______ ____
ROOT
ATOM      1  C5  UNL     1      26.584  -8.121 -38.367  0.00  0.00    +0.000 C 
ENDROOT
BRANCH   1   2
ATOM      2  O8  UNL     1      26.700  -6.905 -37.671  0.00  0.00    +0.000 OA
ATOM      3  H10 UNL     1      26.476  -6.174 -38.307  0.00  0.00    +0.000 HD
ENDBRANCH   1   2
BRANCH   1   4
ATOM      4  C6  UNL     1      25.101  -8.511 -38.523  0.00  0.00    +0.000 C 
BRANCH   4   5
ATOM      5  S2  UNL     1      24.606  -8.799 -40.222  0.00  0.00    +0.000 S 
ATOM      6  C7  UNL     1      25.465 -10.069 -41.101  0.00  0.00    +0.000 C 
ATOM      7  C8  UNL     1      25.641  -9.521 -42.519  0.00  0.00    +0.000 C 
ATOM      8  C9  UNL     1      25.836  -7.993 -42.426  0.00  0.00    +0.000 C 
ATOM      9  C10 UNL     1      24.917  -7.434 -41.312  0.00  0.00    +0.000 C 
BRANCH   8  10
ATOM     10  O10 UNL     1      27.180  -7.726 -42.112  0.00  0.00    +0.000 OA
ATOM     11  H18 UNL     1      27.721  -8.438 -42.544  0.00  0.00    +0.000 HD
ENDBRANCH   8  10
BRANCH   7  12
ATOM     12  O9  UNL     1      24.499  -9.799 -43.287  0.00  0.00    +0.000 OA
ATOM     13  H16 UNL     1      24.808 -10.287 -44.095  0.00  0.00    +0.000 HD
ENDBRANCH   7  12
BRANCH   9  14
ATOM     14  C11 UNL     1      23.588  -6.899 -41.858  0.00  0.00    +0.000 C 
BRANCH  14  15
ATOM     15  O11 UNL     1      22.628  -6.880 -40.839  0.00  0.00    +0.000 OA
ATOM     16  H22 UNL     1      23.120  -7.047 -39.993  0.00  0.00    +0.000 HD
ENDBRANCH  14  15
ENDBRANCH   9  14
ENDBRANCH   4   5
ENDBRANCH   1   4
BRANCH   1  17
ATOM     17  C1  UNL     1      27.414  -9.239 -37.671  0.00  0.00    +0.000 C 
BRANCH  17  18
ATOM     18  C2  UNL     1      28.057 -10.174 -38.740  0.00  0.00    +0.000 C 
BRANCH  18  19
ATOM     19  O5  UNL     1      28.007 -11.514 -38.310  0.00  0.00    +0.000 OA
ATOM     20  H3  UNL     1      27.720 -11.516 -37.360  0.00  0.00    +0.000 HD
ENDBRANCH  18  19
BRANCH  18  21
ATOM     21  C3  UNL     1      29.511  -9.782 -39.124  0.00  0.00    +0.000 C 
BRANCH  21  22
ATOM     22  O6  UNL     1      30.419 -10.460 -38.292  0.00  0.00    +0.000 OA
ATOM     23  H5  UNL     1      30.669  -9.839 -37.558  0.00  0.00    +0.000 HD
ENDBRANCH  21  22
BRANCH  21  24
ATOM     24  C4  UNL     1      29.855 -10.118 -40.587  0.00  0.00    +0.000 C 
BRANCH  24  25
ATOM     25  O7  UNL     1      29.148 -11.246 -41.032  0.00  0.00    +0.000 OA
ATOM     26  H8  UNL     1      29.671 -12.041 -40.751  0.00  0.00    +0.000 HD
ENDBRANCH  24  25
ENDBRANCH  21  24
ENDBRANCH  18  21
ENDBRANCH  17  18
BRANCH  17  27
ATOM     27  O4  UNL     1      26.551 -10.003 -36.844  0.00  0.00    +0.000 OA
BRANCH  27  29
ATOM     28  O1  UNL     1      25.955 -10.550 -34.324  0.00  0.00    +0.000 OA
ATOM     29  S1  UNL     1      26.837  -9.699 -35.194  0.00  0.00    +0.000 S 
ATOM     30  O2  UNL     1      28.270 -10.027 -34.891  0.00  0.00    +0.000 OA
ATOM     31  O3  UNL     1      26.571  -8.078 -34.841  0.00  0.00    +0.000 OA
ENDBRANCH  27  29
ENDBRANCH  17  27
ENDBRANCH   1  17
TORSDOF 16
ENDMDL
MODEL 8
REMARK VINA RESULT:    -4.015      2.670      6.915
REMARK INTER + INTRA:          -9.496
REMARK INTER:                  -7.771
REMARK INTRA:                  -1.725
REMARK UNBOUND:                -2.548
REMARK  Name = resultss/4CJN/ligands/lig_120_t0.pdb
REMARK  16 active torsions:
REMARK  status: ('A' for Active; 'I' for Inactive)
REMARK    1  A    between atoms: S1_2  and  O4_5
REMARK    2  A    between atoms: O4_5  and  C1_6
REMARK    3  A    between atoms: C1_6  and  C2_7
REMARK    4  A    between atoms: C1_6  and  C5_13
REMARK    5  A    between atoms: C2_7  and  O5_8
REMARK    6  A    between atoms: C2_7  and  C3_9
REMARK    7  A    between atoms: C3_9  and  O6_10
REMARK    8  A    between atoms: C3_9  and  C4_11
REMARK    9  A    between atoms: C4_11  and  O7_12
REMARK   10  A    between atoms: C5_13  and  O8_14
REMARK   11  A    between atoms: C5_13  and  C6_15
REMARK   12  A    between atoms: C6_15  and  S2_16
REMARK   13  A    between atoms: C8_18  and  O9_19
REMARK   14  A    between atoms: C9_20  and  O10_21
REMARK   15  A    between atoms: C10_22  and  C11_23
REMARK   16  A    between atoms: C11_23  and  O11_24
REMARK                            x       y       z     vdW  Elec       q    Type
REMARK                         _______ _______ _______ _____ _____    ______ ____
ROOT
ATOM      1  C5  UNL     1      27.577  -9.432 -36.570  0.00  0.00    +0.000 C 
ENDROOT
BRANCH   1   2
ATOM      2  O8  UNL     1      27.548 -10.742 -37.082  0.00  0.00    +0.000 OA
ATOM      3  H10 UNL     1      28.402 -11.180 -36.827  0.00  0.00    +0.000 HD
ENDBRANCH   1   2
BRANCH   1   4
ATOM      4  C6  UNL     1      28.705  -8.621 -37.238  0.00  0.00    +0.000 C 
BRANCH   4   5
ATOM      5  S2  UNL     1      28.637  -8.631 -39.030  0.00  0.00    +0.000 S 
ATOM      6  C7  UNL     1      27.038  -8.773 -39.769  0.00  0.00    +0.000 C 
ATOM      7  C8  UNL     1      27.239  -9.688 -40.979  0.00  0.00    +0.000 C 
ATOM      8  C9  UNL     1      28.328 -10.724 -40.626  0.00  0.00    +0.000 C 
ATOM      9  C10 UNL     1      29.426 -10.032 -39.779  0.00  0.00    +0.000 C 
BRANCH   8  10
ATOM     10  O10 UNL     1      27.740 -11.763 -39.886  0.00  0.00    +0.000 OA
ATOM     11  H18 UNL     1      27.364 -12.405 -40.543  0.00  0.00    +0.000 HD
ENDBRANCH   8  10
BRANCH   7  12
ATOM     12  O9  UNL     1      27.656  -8.934 -42.088  0.00  0.00    +0.000 OA
ATOM     13  H16 UNL     1      27.932  -9.583 -42.789  0.00  0.00    +0.000 HD
ENDBRANCH   7  12
BRANCH   9  14
ATOM     14  C11 UNL     1      30.614  -9.562 -40.626  0.00  0.00    +0.000 C 
BRANCH  14  15
ATOM     15  O11 UNL     1      30.522 -10.100 -41.916  0.00  0.00    +0.000 OA
ATOM     16  H22 UNL     1      30.348  -9.334 -42.522  0.00  0.00    +0.000 HD
ENDBRANCH  14  15
ENDBRANCH   9  14
ENDBRANCH   4   5
ENDBRANCH   1   4
BRANCH   1  17
ATOM     17  C1  UNL     1      27.704  -9.446 -35.019  0.00  0.00    +0.000 C 
BRANCH  17  18
ATOM     18  C2  UNL     1      26.290  -9.418 -34.364  0.00  0.00    +0.000 C 
BRANCH  18  19
ATOM     19  O5  UNL     1      25.654 -10.665 -34.524  0.00  0.00    +0.000 OA
ATOM     20  H3  UNL     1      24.695 -10.546 -34.297  0.00  0.00    +0.000 HD
ENDBRANCH  18  19
BRANCH  18  21
ATOM     21  C3  UNL     1      25.378  -8.274 -34.888  0.00  0.00    +0.000 C 
BRANCH  21  22
ATOM     22  O6  UNL     1      24.049  -8.727 -34.970  0.00  0.00    +0.000 OA
ATOM     23  H5  UNL     1      23.799  -9.072 -34.073  0.00  0.00    +0.000 HD
ENDBRANCH  21  22
BRANCH  21  24
ATOM     24  C4  UNL     1      25.406  -7.026 -33.985  0.00  0.00    +0.000 C 
BRANCH  24  25
ATOM     25  O7  UNL     1      25.651  -7.370 -32.647  0.00  0.00    +0.000 OA
ATOM     26  H8  UNL     1      25.742  -8.358 -32.616  0.00  0.00    +0.000 HD
ENDBRANCH  24  25
ENDBRANCH  21  24
ENDBRANCH  18  21
ENDBRANCH  17  18
BRANCH  17  27
ATOM     27  O4  UNL     1      28.429  -8.298 -34.608  0.00  0.00    +0.000 OA
BRANCH  27  29
ATOM     28  O1  UNL     1      28.419  -8.140 -31.966  0.00  0.00    +0.000 OA
ATOM     29  S1  UNL     1      29.250  -8.569 -33.142  0.00  0.00    +0.000 S 
ATOM     30  O2  UNL     1      29.533 -10.038 -33.020  0.00  0.00    +0.000 OA
ATOM     31  O3  UNL     1      30.710  -7.738 -33.125  0.00  0.00    +0.000 OA
ENDBRANCH  27  29
ENDBRANCH  17  27
ENDBRANCH   1  17
TORSDOF 16
ENDMDL
MODEL 9
REMARK VINA RESULT:    -3.954      1.998      2.849
REMARK INTER + INTRA:          -9.391
REMARK INTER:                  -7.612
REMARK INTRA:                  -1.779
REMARK UNBOUND:                -2.548
REMARK  Name = resultss/4CJN/ligands/lig_120_t0.pdb
REMARK  16 active torsions:
REMARK  status: ('A' for Active; 'I' for Inactive)
REMARK    1  A    between atoms: S1_2  and  O4_5
REMARK    2  A    between atoms: O4_5  and  C1_6
REMARK    3  A    between atoms: C1_6  and  C2_7
REMARK    4  A    between atoms: C1_6  and  C5_13
REMARK    5  A    between atoms: C2_7  and  O5_8
REMARK    6  A    between atoms: C2_7  and  C3_9
REMARK    7  A    between atoms: C3_9  and  O6_10
REMARK    8  A    between atoms: C3_9  and  C4_11
REMARK    9  A    between atoms: C4_11  and  O7_12
REMARK   10  A    between atoms: C5_13  and  O8_14
REMARK   11  A    between atoms: C5_13  and  C6_15
REMARK   12  A    between atoms: C6_15  and  S2_16
REMARK   13  A    between atoms: C8_18  and  O9_19
REMARK   14  A    between atoms: C9_20  and  O10_21
REMARK   15  A    between atoms: C10_22  and  C11_23
REMARK   16  A    between atoms: C11_23  and  O11_24
REMARK                            x       y       z     vdW  Elec       q    Type
REMARK                         _______ _______ _______ _____ _____    ______ ____
ROOT
ATOM      1  C5  UNL     1      27.684  -9.235 -37.826  0.00  0.00    +0.000 C 
ENDROOT
BRANCH   1   2
ATOM      2  O8  UNL     1      27.261 -10.385 -37.135  0.00  0.00    +0.000 OA
ATOM      3  H10 UNL     1      27.100 -10.123 -36.190  0.00  0.00    +0.000 HD
ENDBRANCH   1   2
BRANCH   1   4
ATOM      4  C6  UNL     1      26.604  -8.138 -37.754  0.00  0.00    +0.000 C 
BRANCH   4   5
ATOM      5  S2  UNL     1      26.140  -7.692 -36.080  0.00  0.00    +0.000 S 
ATOM      6  C7  UNL     1      27.327  -8.011 -34.809  0.00  0.00    +0.000 C 
ATOM      7  C8  UNL     1      26.506  -8.500 -33.614  0.00  0.00    +0.000 C 
ATOM      8  C9  UNL     1      25.300  -9.300 -34.149  0.00  0.00    +0.000 C 
ATOM      9  C10 UNL     1      24.771  -8.615 -35.434  0.00  0.00    +0.000 C 
BRANCH   8  10
ATOM     10  O10 UNL     1      25.721 -10.608 -34.447  0.00  0.00    +0.000 OA
ATOM     11  H18 UNL     1      26.296 -10.546 -35.254  0.00  0.00    +0.000 HD
ENDBRANCH   8  10
BRANCH   7  12
ATOM     12  O9  UNL     1      26.043  -7.403 -32.869  0.00  0.00    +0.000 OA
ATOM     13  H16 UNL     1      25.108  -7.611 -32.602  0.00  0.00    +0.000 HD
ENDBRANCH   7  12
BRANCH   9  14
ATOM     14  C11 UNL     1      23.598  -7.669 -35.156  0.00  0.00    +0.000 C 
BRANCH  14  15
ATOM     15  O11 UNL     1      22.685  -7.718 -36.217  0.00  0.00    +0.000 OA
ATOM     16  H22 UNL     1      22.251  -8.609 -36.165  0.00  0.00    +0.000 HD
ENDBRANCH  14  15
ENDBRANCH   9  14
ENDBRANCH   4   5
ENDBRANCH   1   4
BRANCH   1  17
ATOM     17  C1  UNL     1      28.070  -9.582 -39.294  0.00  0.00    +0.000 C 
BRANCH  17  18
ATOM     18  C2  UNL     1      27.111 -10.675 -39.857  0.00  0.00    +0.000 C 
BRANCH  18  19
ATOM     19  O5  UNL     1      27.774 -11.915 -39.930  0.00  0.00    +0.000 OA
ATOM     20  H3  UNL     1      27.741 -12.221 -40.873  0.00  0.00    +0.000 HD
ENDBRANCH  18  19
BRANCH  18  21
ATOM     21  C3  UNL     1      26.486 -10.313 -41.233  0.00  0.00    +0.000 C 
BRANCH  21  22
ATOM     22  O6  UNL     1      25.146 -10.739 -41.270  0.00  0.00    +0.000 OA
ATOM     23  H5  UNL     1      25.139 -11.712 -41.068  0.00  0.00    +0.000 HD
ENDBRANCH  21  22
BRANCH  21  24
ATOM     24  C4  UNL     1      26.518  -8.802 -41.527  0.00  0.00    +0.000 C 
BRANCH  24  25
ATOM     25  O7  UNL     1      27.399  -8.505 -42.579  0.00  0.00    +0.000 OA
ATOM     26  H8  UNL     1      27.247  -7.555 -42.822  0.00  0.00    +0.000 HD
ENDBRANCH  24  25
ENDBRANCH  21  24
ENDBRANCH  18  21
ENDBRANCH  17  18
BRANCH  17  27
ATOM     27  O4  UNL     1      29.400 -10.074 -39.315  0.00  0.00    +0.000 OA
BRANCH  27  29
ATOM     28  O1  UNL     1      29.932  -8.149 -41.052  0.00  0.00    +0.000 OA
ATOM     29  S1  UNL     1      30.225  -9.586 -40.721  0.00  0.00    +0.000 S 
ATOM     30  O2  UNL     1      31.699  -9.733 -40.483  0.00  0.00    +0.000 OA
ATOM     31  O3  UNL     1      29.792 -10.556 -42.022  0.00  0.00    +0.000 OA
ENDBRANCH  27  29
ENDBRANCH  17  27
ENDBRANCH   1  17
TORSDOF 16
ENDMDL
